A-SYNC WITH FASUDIL in water
35354
  121NASP     N    1   0.542   0.775   0.318 -0.0837 -0.2484 -0.3076
  121NASP    H1    2   0.503   0.863   0.288 -0.1755  0.3142  1.3621
  121NASP    H2    3   0.466   0.713   0.344 -0.1227 -0.2382 -0.3954
  121NASP    H3    4   0.593   0.717   0.253 -0.0165 -1.1433  0.5181
  121NASP    CA    5   0.632   0.798   0.441  0.0946 -0.8642  0.6319
  121NASP    HA    6   0.669   0.900   0.441 -1.9497 -0.0150  3.3012
  121NASP    CB    7   0.558   0.784   0.581 -0.2498 -0.2511 -0.4384
  121NASP   HB1    8   0.513   0.881   0.602  1.7624  1.2595 -2.5392
  121NASP   HB2    9   0.639   0.770   0.653 -0.1836 -0.3178 -0.5255
  121NASP    CG   10   0.463   0.675   0.593  0.5743 -0.2654  0.6210
  121NASP   OD1   11   0.427   0.604   0.492  0.4071 -0.7267  0.5238
  121NASP   OD2   12   0.409   0.652   0.698 -0.1686 -0.6455 -0.2732
  121NASP     C   13   0.756   0.702   0.430 -0.3622  0.3496 -0.5690
  121NASP     O   14   0.754   0.633   0.335 -0.2475 -0.1680  0.1331
  122ASN      N   15   0.858   0.707   0.518  0.3305  0.2084 -0.5146
  122ASN      H   16   0.869   0.787   0.579  1.5109 -0.3622  0.0614
  122ASN     CA   17   0.964   0.604   0.536  0.0900 -0.2007 -1.1463
  122ASN     HA   18   1.014   0.597   0.440  0.3284 -1.8622 -0.9253
  122ASN     CB   19   1.062   0.657   0.646  0.8536  0.1238  0.3858
  122ASN    HB1   20   1.137   0.579   0.661  0.0735 -0.1041  4.6307
  122ASN    HB2   21   1.021   0.662   0.748  0.1346  1.6057  0.0445
  122ASN     CG   22   1.143   0.782   0.611  0.6861  0.5713  0.2791
  122ASN    OD1   23   1.139   0.825   0.497  0.3256  0.5466  0.1033
  122ASN    ND2   24   1.217   0.833   0.706  0.0370 -0.0776  0.5675
  122ASN   HD21   25   1.280   0.907   0.680 -1.7943  1.3634 -0.0774
  122ASN   HD22   26   1.212   0.802   0.801  1.3669  1.4606  1.1861
  122ASN      C   27   0.920   0.460   0.578 -0.3570  0.1365  0.0933
  122ASN      O   28   0.826   0.456   0.654  0.4695 -0.0646 -0.3734
  123GLU      N   29   0.997   0.356   0.545  0.8640 -0.7371 -0.7508
  123GLU      H   30   1.080   0.373   0.491  0.4167  0.4413 -1.1029
  123GLU     CA   31   0.963   0.224   0.583 -0.7585 -0.2829  0.6648
  123GLU     HA   32   0.865   0.211   0.629 -1.1042  1.8685  0.6126
  123GLU     CB   33   0.963   0.138   0.453 -0.1843  0.4604  0.1599
  123GLU    HB1   34   0.915   0.042   0.475 -0.9504  0.5313 -1.1040
  123GLU    HB2   35   1.063   0.117   0.416 -0.9115 -0.6878 -1.2755
  123GLU     CG   36   0.873   0.196   0.345  0.2200 -0.3689 -0.2964
  123GLU    HG1   37   0.911   0.293   0.311  1.3237 -0.9421 -0.7761
  123GLU    HG2   38   0.773   0.216   0.383  0.9675 -0.1372  1.6553
  123GLU     CD   39   0.870   0.108   0.225 -0.0054  0.2328 -0.0755
  123GLU    OE1   40   0.760   0.085   0.165  0.2461  0.6013 -0.0615
  123GLU    OE2   41   0.975   0.080   0.167 -0.4301  0.3569  0.4162
  123GLU      C   42   1.061   0.153   0.680 -0.1760 -0.0530  0.4501
  123GLU      O   43   1.025   0.047   0.740  0.1204  0.6300 -0.1180
  124ALA      N   44   1.189   0.194   0.695 -0.0805 -0.3343 -0.1987
  124ALA      H   45   1.218   0.285   0.661  2.0820 -0.4572  1.0846
  124ALA     CA   46   1.302   0.115   0.755  0.1737 -0.4984 -0.5933
  124ALA     HA   47   1.275   0.010   0.764 -0.3350 -0.2823  0.4900
  124ALA     CB   48   1.416   0.123   0.651 -0.1146 -0.0572  0.5925
  124ALA    HB1   49   1.488   0.203   0.668 -1.6469  1.2703  1.0978
  124ALA    HB2   50   1.377   0.121   0.549 -0.7907  0.1221  0.8406
  124ALA    HB3   51   1.474   0.032   0.668 -3.1005 -2.6645 -1.8915
  124ALA      C   52   1.329   0.172   0.889 -0.5374  0.4433 -0.2447
  124ALA      O   53   1.291   0.284   0.925  0.3512  0.0321 -0.7276
  125TYR      N   54   1.399   0.091   0.966 -0.2043  0.3715  0.5123
  125TYR      H   55   1.425   0.004   0.920 -1.7467  0.8504 -1.3585
  125TYR     CA   56   1.425   0.111   1.110 -0.4147 -0.0871  0.4204
  125TYR     HA   57   1.325   0.127   1.151 -0.5147  3.3805 -0.8198
  125TYR     CB   58   1.480  -0.011   1.181 -0.0192 -0.2586 -0.7444
  125TYR    HB1   59   1.574  -0.043   1.136  1.0926  2.2087 -0.3350
  125TYR    HB2   60   1.416  -0.100   1.174 -0.4452 -0.1694  1.2368
  125TYR     CG   61   1.508   0.004   1.329 -0.2051 -0.2546 -0.2330
  125TYR    CD1   62   1.644   0.002   1.367 -0.2941 -0.3994  0.8429
  125TYR    HD1   63   1.724  -0.001   1.294 -1.0117  0.0397  0.0139
  125TYR    CE1   64   1.677   0.025   1.502 -0.3083 -0.1422 -0.6208
  125TYR    HE1   65   1.780   0.042   1.528 -0.9232  0.1558  1.8698
  125TYR     CZ   66   1.583   0.028   1.601  0.2910  0.1688 -0.3701
  125TYR     OH   67   1.619   0.058   1.732  0.2321 -0.2929  0.0707
  125TYR     HH   68   1.551   0.048   1.799  1.0478 -0.8972  0.8146
  125TYR    CE2   69   1.446   0.010   1.567  0.0311 -0.6497  0.0354
  125TYR    HE2   70   1.360   0.027   1.631 -0.6958  4.6129 -1.8133
  125TYR    CD2   71   1.410  -0.005   1.428  0.3494 -0.1536 -0.1948
  125TYR    HD2   72   1.303  -0.013   1.412 -0.5881 -0.6310  4.7987
  125TYR      C   73   1.505   0.244   1.137 -0.8196  0.0210  0.5321
  125TYR      O   74   1.594   0.270   1.053 -0.1201 -0.4923  0.1491
  126GLU      N   75   1.478   0.317   1.241  0.2326  0.9841 -0.0479
  126GLU      H   76   1.416   0.278   1.311  0.4790  1.3521  0.3759
  126GLU     CA   77   1.555   0.431   1.290 -0.5418 -0.5228  0.0411
  126GLU     HA   78   1.654   0.439   1.244 -0.4201  0.8114  0.5080
  126GLU     CB   79   1.480   0.560   1.248 -0.5163 -0.1975  0.6483
  126GLU    HB1   80   1.392   0.578   1.309 -1.1566  0.7234 -0.5089
  126GLU    HB2   81   1.443   0.560   1.146 -0.9576 -0.5415  0.8094
  126GLU     CG   82   1.577   0.683   1.261  0.8712 -0.5136  1.1164
  126GLU    HG1   83   1.661   0.673   1.192 -0.0503 -1.7283  0.1292
  126GLU    HG2   84   1.603   0.683   1.367  2.7888  2.6930  0.7828
  126GLU     CD   85   1.509   0.815   1.233 -0.1837 -0.6940  0.2252
  126GLU    OE1   86   1.382   0.818   1.225  0.6797 -0.4278  0.1525
  126GLU    OE2   87   1.578   0.914   1.198 -0.1180  0.6250  0.2447
  126GLU      C   88   1.562   0.431   1.442 -0.4551  0.8103  0.5693
  126GLU      O   89   1.458   0.417   1.509 -0.3944  0.0734 -0.2126
  127MET      N   90   1.680   0.430   1.506  0.3909 -0.2588  0.3708
  127MET      H   91   1.760   0.442   1.446 -1.1463  1.2273 -1.5287
  127MET     CA   92   1.699   0.445   1.650 -0.0893 -0.3776 -0.2271
  127MET     HA   93   1.654   0.358   1.699 -0.4488 -0.9163 -1.4899
  127MET     CB   94   1.851   0.459   1.678 -0.5749 -0.1386  0.1798
  127MET    HB1   95   1.875   0.451   1.784  1.5812 -0.4526 -0.2729
  127MET    HB2   96   1.888   0.545   1.622 -0.8136  0.5941  1.1235
  127MET     CG   97   1.921   0.339   1.630 -0.1659  0.3435  0.0848
  127MET    HG1   98   1.921   0.333   1.521  0.3545  0.4335  0.0766
  127MET    HG2   99   1.872   0.247   1.662  0.7850  0.0901  0.8657
  127MET     SD  100   2.102   0.340   1.673  0.0307 -0.3515  0.0463
  127MET     CE  101   2.094   0.279   1.846 -0.1071 -0.1322 -0.2015
  127MET    HE1  102   2.064   0.174   1.852 -1.7375  0.3143  0.0306
  127MET    HE2  103   2.021   0.337   1.903  0.0306  1.0486 -1.1907
  127MET    HE3  104   2.193   0.299   1.888 -1.3056  1.9266  1.8532
  127MET      C  105   1.636   0.566   1.707 -0.0299 -0.7141  0.0694
  127MET      O  106   1.640   0.670   1.647  0.1076 -0.1206  0.0611
  128PRO      N  107   1.584   0.558   1.832 -0.1498  0.7020  0.4468
  128PRO     CD  108   1.556   0.442   1.916 -0.0854 -0.3623  1.4008
  128PRO    HD1  109   1.646   0.421   1.974  0.1482 -1.5493  0.6528
  128PRO    HD2  110   1.530   0.355   1.856  0.1210  0.1776  0.4985
  128PRO     CG  111   1.448   0.489   2.018 -0.2733  0.4922 -0.0669
  128PRO    HG1  112   1.459   0.443   2.117  1.4349  0.7774 -0.0863
  128PRO    HG2  113   1.349   0.494   1.974 -1.2386 -3.0710  1.3042
  128PRO     CB  114   1.507   0.623   2.045 -0.0337 -1.1301 -0.6561
  128PRO    HB1  115   1.426   0.685   2.084 -1.2533 -1.7673 -2.0610
  128PRO    HB2  116   1.588   0.637   2.116  0.1441  1.1975 -1.2500
  128PRO     CA  117   1.552   0.676   1.908 -0.3087 -0.6496  0.6101
  128PRO     HA  118   1.466   0.716   1.854 -0.2345  0.4477  1.2701
  128PRO      C  119   1.663   0.780   1.918  0.2058 -0.4693  0.3599
  128PRO      O  120   1.780   0.744   1.939 -0.2202 -0.0809 -0.2044
  129SER      N  121   1.639   0.905   1.881 -0.0380  0.2167 -0.1088
  129SER      H  122   1.542   0.933   1.870 -0.5479 -0.0818  2.7087
  129SER     CA  123   1.749   0.994   1.833 -0.0828 -0.0369 -0.0860
  129SER     HA  124   1.787   0.939   1.747  0.7674  0.2198  0.1146
  129SER     CB  125   1.692   1.125   1.778  0.4483 -0.4470  0.2568
  129SER    HB1  126   1.641   1.099   1.685  0.7493 -0.0410 -0.0270
  129SER    HB2  127   1.772   1.188   1.739  0.6093 -0.9060 -0.1533
  129SER     OG  128   1.598   1.190   1.860 -0.1071 -0.8567 -0.0134
  129SER    HG1  129   1.555   1.254   1.802 -0.4791  0.7763  1.9372
  129SER      C  130   1.873   1.021   1.928  0.3458  0.1217 -0.4365
  129SER      O  131   1.990   1.023   1.876  0.3556 -0.0050 -0.0124
  130GLU      N  132   1.850   1.033   2.062 -0.7193  0.3385 -0.0093
  130GLU      H  133   1.756   1.053   2.092 -0.1608 -0.0432  2.1768
  130GLU     CA  134   1.955   1.041   2.166 -0.3303 -0.1002 -0.6373
  130GLU     HA  135   2.028   1.120   2.148 -0.8012  0.6146  0.4838
  130GLU     CB  136   1.885   1.079   2.300 -0.3866  0.7509  0.1726
  130GLU    HB1  137   1.963   1.070   2.376 -1.0140  0.7864  0.8266
  130GLU    HB2  138   1.816   0.998   2.322  1.0374 -0.1870  1.3756
  130GLU     CG  139   1.819   1.222   2.309 -0.7726  0.4938 -0.0666
  130GLU    HG1  140   1.722   1.228   2.259 -1.2421 -1.9407  0.3987
  130GLU    HG2  141   1.887   1.285   2.253 -1.2938  1.9076  0.8071
  130GLU     CD  142   1.801   1.273   2.450 -0.3407 -0.3644  0.0494
  130GLU    OE1  143   1.683   1.308   2.477  0.0693  0.0072 -0.5195
  130GLU    OE2  144   1.906   1.294   2.515 -0.1932 -0.3342  0.1170
  130GLU      C  145   2.038   0.915   2.183 -0.6041  0.1682  0.5300
  130GLU      O  146   2.163   0.920   2.196 -0.0578  0.1423  0.1988
  131GLU      N  147   1.971   0.797   2.177  0.5241  0.8549  0.1918
  131GLU      H  148   1.872   0.806   2.194  0.1722 -1.3305 -0.4571
  131GLU     CA  149   2.032   0.665   2.156  0.6105  0.7754  0.2726
  131GLU     HA  150   2.093   0.645   2.244 -0.4056 -0.4130  0.7280
  131GLU     CB  151   1.929   0.553   2.162 -0.2194 -0.3365 -0.2150
  131GLU    HB1  152   1.893   0.541   2.060 -1.0630  2.9377 -0.4024
  131GLU    HB2  153   1.837   0.577   2.214  0.2957 -1.5399  1.3474
  131GLU     CG  154   1.994   0.421   2.210  0.3737 -0.3654 -0.0916
  131GLU    HG1  155   2.033   0.442   2.310  0.3226  0.1296 -0.1722
  131GLU    HG2  156   2.078   0.396   2.145  0.2289  1.2434 -0.9420
  131GLU     CD  157   1.897   0.303   2.223 -0.0720 -0.1153 -0.1147
  131GLU    OE1  158   1.943   0.186   2.239 -0.0841  0.3136  0.0295
  131GLU    OE2  159   1.780   0.330   2.231 -0.1938 -0.2022  0.0867
  131GLU      C  160   2.119   0.660   2.027 -0.3170 -0.3422 -0.2171
  131GLU      O  161   2.233   0.616   2.031  0.4243 -0.8330  0.6667
  132GLY      N  162   2.067   0.704   1.912 -0.2393  0.2866 -0.4133
  132GLY      H  163   1.972   0.736   1.909 -0.1839  0.8870  2.0726
  132GLY     CA  164   2.143   0.739   1.788  0.9265 -0.1256  0.3249
  132GLY    HA1  165   2.074   0.773   1.711 -0.3181  0.8607  1.7918
  132GLY    HA2  166   2.181   0.650   1.738 -1.1051  0.5724 -2.7444
  132GLY      C  167   2.260   0.848   1.802  0.0552 -0.0835 -0.5255
  132GLY      O  168   2.352   0.825   1.721 -0.0685 -0.8030  0.3637
  133TYR      N  169   2.268   0.941   1.898 -0.1587  0.6908  0.8660
  133TYR      H  170   2.185   0.953   1.954 -1.2937  2.8323 -1.0963
  133TYR     CA  171   2.392   1.011   1.928 -0.8335  0.0798 -0.8921
  133TYR     HA  172   2.451   1.026   1.837 -0.0189  0.3804 -0.3255
  133TYR     CB  173   2.363   1.146   1.994  0.2730 -0.5787  0.2102
  133TYR    HB1  174   2.452   1.207   2.008 -0.6683  0.6422  1.1392
  133TYR    HB2  175   2.320   1.120   2.091 -1.3704 -1.1734 -0.6348
  133TYR     CG  176   2.273   1.232   1.900  0.0409 -0.4588 -0.2342
  133TYR    CD1  177   2.153   1.287   1.952 -0.4360  0.4084  0.0937
  133TYR    HD1  178   2.126   1.277   2.057 -2.9934  0.6356 -0.4678
  133TYR    CE1  179   2.064   1.356   1.872  0.0680 -0.2117  0.2443
  133TYR    HE1  180   1.976   1.399   1.918  0.0111  0.4617 -0.4748
  133TYR     CZ  181   2.112   1.388   1.741  0.9407  0.6483  0.3681
  133TYR     OH  182   2.028   1.457   1.668  0.3605  0.1181 -0.1414
  133TYR     HH  183   2.044   1.453   1.573 -1.3758 -0.7962 -0.4346
  133TYR    CE2  184   2.229   1.328   1.687  1.0186 -0.3192  0.4191
  133TYR    HE2  185   2.264   1.340   1.586  1.7006 -2.1384  0.3853
  133TYR    CD2  186   2.308   1.244   1.766  1.0850 -0.8498  0.0569
  133TYR    HD2  187   2.397   1.203   1.722  1.6090  0.8547 -0.5687
  133TYR      C  188   2.490   0.938   2.024 -0.0530  0.6166  0.3086
  133TYR      O  189   2.596   0.990   2.041 -0.1149 -0.3486 -0.0118
  134GLN      N  190   2.457   0.825   2.093 -0.2853 -0.4017  0.3430
  134GLN      H  191   2.369   0.782   2.066 -0.5558  0.6658 -0.5475
  134GLN     CA  192   2.552   0.757   2.178  0.5843 -0.8136  0.1119
  134GLN     HA  193   2.595   0.831   2.245  0.2542 -1.3405  0.9173
  134GLN     CB  194   2.477   0.654   2.266  0.4177  0.3504 -0.1224
  134GLN    HB1  195   2.550   0.595   2.322 -0.6535  1.8198  3.0764
  134GLN    HB2  196   2.429   0.576   2.207  1.9475 -0.1655 -0.7332
  134GLN     CG  197   2.375   0.724   2.370  0.0669  0.4488  0.4362
  134GLN    HG1  198   2.288   0.766   2.319  0.1476 -0.6540 -0.6526
  134GLN    HG2  199   2.428   0.808   2.414  2.0722 -1.6505  2.2657
  134GLN     CD  200   2.321   0.631   2.474  0.3405  0.1350 -0.4417
  134GLN    OE1  201   2.238   0.670   2.555  0.0253  0.0838  0.1577
  134GLN    NE2  202   2.365   0.506   2.480 -0.0069  0.8065  0.1058
  134GLN   HE21  203   2.324   0.443   2.548 -0.4605  0.7381 -0.2274
  134GLN   HE22  204   2.426   0.467   2.410  0.3896  0.4823  0.6246
  134GLN      C  205   2.663   0.700   2.094  0.5985  0.2779  0.4583
  134GLN      O  206   2.639   0.673   1.973  1.0582  0.1041 -0.0483
  135ASP      N  207   2.777   0.669   2.152  0.0642 -0.2846 -0.6177
  135ASP      H  208   2.787   0.694   2.249  2.7826 -0.7225 -0.7130
  135ASP     CA  209   2.890   0.583   2.104  0.3031 -0.0081 -0.0152
  135ASP     HA  210   2.902   0.598   1.997  2.0430  0.0422  0.1562
  135ASP     CB  211   3.018   0.621   2.169  0.7928  0.1439 -0.1053
  135ASP    HB1  212   3.037   0.724   2.138  2.4259  0.7322  2.4415
  135ASP    HB2  213   3.099   0.554   2.142  0.7065  0.1442 -0.3628
  135ASP     CG  214   3.021   0.638   2.324 -0.8178 -0.7868 -0.1246
  135ASP    OD1  215   2.927   0.596   2.398 -0.0570  0.2915  0.0247
  135ASP    OD2  216   3.126   0.680   2.362 -0.2682 -0.5576  0.3443
  135ASP      C  217   2.865   0.439   2.124  0.2300 -0.0480  0.2234
  135ASP      O  218   2.799   0.387   2.215 -0.0200 -0.3271  0.2235
  136TYR      N  219   2.918   0.357   2.035 -0.0120 -0.3075  0.0603
  136TYR      H  220   2.971   0.398   1.959  0.7514  0.4640  0.9786
  136TYR     CA  221   2.944   0.214   2.047  0.2950  0.3169  0.6679
  136TYR     HA  222   2.878   0.172   2.123 -2.3716  1.0240 -1.0847
  136TYR     CB  223   2.910   0.140   1.908  0.1262  0.1691 -0.1104
  136TYR    HB1  224   2.950   0.039   1.910  2.4514  0.9190 -2.6692
  136TYR    HB2  225   2.958   0.191   1.825 -0.4659  0.0902 -0.5135
  136TYR     CG  226   2.765   0.122   1.895 -0.4134 -0.3129  0.2456
  136TYR    CD1  227   2.703   0.024   1.978  0.1163  0.5748  0.1503
  136TYR    HD1  228   2.761  -0.037   2.045 -1.2724 -0.0774  0.8099
  136TYR    CE1  229   2.561   0.003   1.967  0.4161 -0.4483 -0.5973
  136TYR    HE1  230   2.514  -0.057   2.044 -0.2225 -0.1921 -0.7756
  136TYR     CZ  231   2.484   0.077   1.866  0.7255 -0.2233 -0.5634
  136TYR     OH  232   2.350   0.054   1.850 -0.1019  0.0145 -0.6652
  136TYR     HH  233   2.324   0.077   1.760 -1.5557 -1.4425 -0.6650
  136TYR    CE2  234   2.553   0.166   1.778 -0.1459  0.6837 -0.6323
  136TYR    HE2  235   2.488   0.211   1.704 -2.0547 -0.9144 -0.0494
  136TYR    CD2  236   2.691   0.181   1.790  0.0698 -0.3801 -0.3865
  136TYR    HD2  237   2.741   0.259   1.734  0.5046 -0.0867  0.3980
  136TYR      C  238   3.089   0.185   2.084 -0.5348 -0.1139  0.0589
  136TYR      O  239   3.174   0.265   2.047 -0.4809 -0.0632  0.4970
  137GLU      N  240   3.128   0.067   2.126  0.0698 -0.2349 -0.3714
  137GLU      H  241   3.063  -0.006   2.152  0.2583  0.0154  0.8691
  137GLU     CA  242   3.271   0.028   2.134  0.4264  0.9205 -0.1837
  137GLU     HA  243   3.316   0.112   2.187 -0.3355  2.0661 -1.2845
  137GLU     CB  244   3.270  -0.106   2.221  0.1204  0.6079  0.6056
  137GLU    HB1  245   3.364  -0.156   2.197  1.1620  2.7822 -0.1819
  137GLU    HB2  246   3.185  -0.159   2.179  0.6771 -0.4903  0.8405
  137GLU     CG  247   3.257  -0.089   2.370  0.3534  0.0729 -0.3273
  137GLU    HG1  248   3.190  -0.004   2.384  1.4688  0.5777  2.4958
  137GLU    HG2  249   3.350  -0.053   2.414 -0.7240  2.0197  0.4866
  137GLU     CD  250   3.198  -0.202   2.448  0.3199 -0.1844 -0.1920
  137GLU    OE1  251   3.141  -0.297   2.394 -0.3392 -0.2573 -0.4980
  137GLU    OE2  252   3.195  -0.197   2.569 -0.0094  0.3271 -0.2993
  137GLU      C  253   3.339   0.016   1.995 -0.0104  1.4219 -0.2077
  137GLU      O  254   3.269  -0.018   1.896 -0.0936 -0.0396 -0.0798
  138PRO      N  255   3.469   0.054   1.979  0.1222  0.2873 -0.6520
  138PRO     CD  256   3.560   0.104   2.089  0.9841 -0.6699 -0.1248
  138PRO    HD1  257   3.581   0.017   2.151  0.9673 -1.3282 -1.0204
  138PRO    HD2  258   3.526   0.192   2.144  1.2734  0.2245 -1.3129
  138PRO     CG  259   3.687   0.149   2.011  0.6476  0.7673  0.0935
  138PRO    HG1  260   3.763   0.072   2.025 -2.2627 -2.0607  1.7929
  138PRO    HG2  261   3.722   0.245   2.051 -0.0553  1.0765 -0.0197
  138PRO     CB  262   3.652   0.153   1.863  0.4134  0.2768  0.0573
  138PRO    HB1  263   3.609   0.252   1.848 -0.0727  0.1330  0.5136
  138PRO    HB2  264   3.733   0.121   1.797 -0.5928 -0.2912 -0.9402
  138PRO     CA  265   3.535   0.052   1.846  0.0663  0.0251  0.4318
  138PRO     HA  266   3.459   0.083   1.775  0.6930  1.1989  0.2585
  138PRO      C  267   3.578  -0.089   1.800 -0.2230  0.3215  0.1423
  138PRO      O  268   3.576  -0.197   1.868  0.1507 -0.1992  0.0932
  139GLU      N  269   3.622  -0.084   1.670 -0.6141 -0.4692 -0.1970
  139GLU      H  270   3.625   0.006   1.624 -1.7812 -0.3340 -0.0335
  139GLU     CA  271   3.660  -0.202   1.586  0.3423 -1.1100 -0.4732
  139GLU     HA  272   3.694  -0.286   1.648 -1.3420 -0.6266  1.2103
  139GLU     CB  273   3.533  -0.251   1.504 -0.0773 -0.8425  0.1662
  139GLU    HB1  274   3.574  -0.306   1.419  1.0625  0.4409 -0.1617
  139GLU    HB2  275   3.473  -0.165   1.475 -0.2744 -0.3645  1.9113
  139GLU     CG  276   3.444  -0.351   1.576 -0.3530 -0.2498  0.0718
  139GLU    HG1  277   3.417  -0.303   1.670  1.9912  0.3301  0.5110
  139GLU    HG2  278   3.506  -0.437   1.600  2.0860  1.4654  0.2735
  139GLU     CD  279   3.322  -0.384   1.499 -0.0087  0.2578 -0.6352
  139GLU    OE1  280   3.319  -0.352   1.379  0.2197  0.2560 -1.3950
  139GLU    OE2  281   3.237  -0.462   1.558  0.0521 -0.4166  0.1334
  139GLU      C  282   3.767  -0.166   1.477  0.1178  0.7869 -0.4558
  139GLU      O  283   3.755  -0.063   1.419  0.3162 -0.0792 -0.6896
  140CALA     N  284   3.868  -0.251   1.455  0.3757  0.6424 -0.0294
  140CALA     H  285   3.865  -0.338   1.507 -1.4274  0.9005  0.3586
  140CALA    CA  286   3.987  -0.231   1.374 -0.0499 -0.2866 -0.1572
  140CALA    HA  287   4.015  -0.127   1.389  0.4937 -0.3561 -0.6688
  140CALA    CB  288   4.101  -0.319   1.430 -0.6571  0.4563  0.3429
  140CALA   HB1  289   4.065  -0.422   1.428  0.0581  0.1706 -2.1884
  140CALA   HB2  290   4.124  -0.304   1.535  0.1410  0.0334  0.2331
  140CALA   HB3  291   4.195  -0.309   1.376  0.5170  1.7792  2.5097
  140CALA     C  292   3.970  -0.246   1.224  0.2292  0.8644 -0.1851
  140CALA   OC1  293   3.919  -0.349   1.180 -0.0731 -0.4167  0.0509
  140CALA   OC2  294   4.016  -0.156   1.152 -0.4592  0.2471 -0.3947
  141SOL     OW  295   2.594   1.089   2.565 -0.0323 -0.5933  0.0974
  141SOL    HW2  296   2.634   1.115   2.482 -2.4983  2.4335 -0.3114
  141SOL    HW3  297   2.501   1.082   2.546 -0.4899 -1.2846  2.3010
  141SOL    MW4  298   2.587   1.092   2.552 -0.1622  0.4896 -0.4341
  142SOL     OW  299   3.489   6.350   6.388 -0.6278  0.0536 -0.2209
  142SOL    HW2  300   3.466   6.442   6.374 -1.9353 -0.6607 -3.4331
  142SOL    HW3  301   3.424   6.318   6.450 -1.3970  0.8117 -0.6173
  142SOL    MW4  302   3.478   6.358   6.394  0.2554  0.4409  0.1771
  143SOL     OW  303   4.778   1.283   2.633  0.2968 -0.4201 -0.0605
  143SOL    HW2  304   4.787   1.192   2.662 -1.9440 -0.1487  1.7143
  143SOL    HW3  305   4.810   1.335   2.707  0.7900  0.2820 -0.7483
  143SOL    MW4  306   4.784   1.278   2.646 -0.2489 -0.7585 -0.1988
  144SOL     OW  307   5.255   0.257   4.174  0.1528  0.3062  0.1015
  144SOL    HW2  308   5.319   0.329   4.173  0.7210 -0.0482  2.8253
  144SOL    HW3  309   5.173   0.297   4.202  0.0763  0.1444  0.1119
  144SOL    MW4  310   5.253   0.272   4.177  0.5286  0.1166 -0.6689
  145SOL     OW  311   0.423   5.883   0.447  0.0374 -0.2648 -0.0838
  145SOL    HW2  312   0.467   5.915   0.369  0.6326 -0.3522  0.2123
  145SOL    HW3  313   0.429   5.788   0.442 -1.0492 -0.3209 -0.5695
  145SOL    MW4  314   0.429   5.875   0.436 -0.0471 -0.2073  0.1390
  146SOL     OW  315   4.890   3.543   3.101  0.1977 -0.0924  0.4968
  146SOL    HW2  316   4.903   3.460   3.057  1.7491  0.5508 -0.3457
  146SOL    HW3  317   4.850   3.520   3.185 -0.1119 -1.5987 -0.0370
  146SOL    MW4  318   4.887   3.529   3.106 -0.2230  0.0461  0.0999
  147SOL     OW  319   5.981   5.667   3.725  0.4406  0.4362 -0.4458
  147SOL    HW2  320   6.008   5.592   3.672  0.9420  0.0039  0.3792
  147SOL    HW3  321   6.033   5.657   3.806 -0.6612  0.7840  0.3202
  147SOL    MW4  322   5.992   5.655   3.729  0.1686 -0.2427 -0.0033
  148SOL     OW  323   1.394   3.999   1.236  0.5231 -0.2801 -0.3061
  148SOL    HW2  324   1.301   4.020   1.245  0.4263 -0.7362 -0.2359
  148SOL    HW3  325   1.395   3.914   1.192  0.9106 -0.1901 -0.4705
  148SOL    MW4  326   1.382   3.990   1.231  0.7930 -0.2779  0.0915
  149SOL     OW  327   3.940   0.926   4.348  0.3660 -0.5617 -0.3926
  149SOL    HW2  328   3.847   0.943   4.359  0.1097  0.0288 -2.9702
  149SOL    HW3  329   3.974   1.002   4.301  2.0395 -1.0314 -0.0431
  149SOL    MW4  330   3.932   0.938   4.343  0.0104  0.3175 -0.2587
  150SOL     OW  331   0.383   5.645   4.620 -0.0382 -0.5035  0.0084
  150SOL    HW2  332   0.450   5.583   4.649 -0.0522 -0.3767  0.3166
  150SOL    HW3  333   0.430   5.710   4.569 -0.1914 -1.4247 -1.3570
  150SOL    MW4  334   0.398   5.645   4.617  0.3275  0.4046 -0.0726
  151SOL     OW  335   1.021   4.685   0.980 -0.1443 -0.1766 -0.1388
  151SOL    HW2  336   1.041   4.654   0.892  0.1573 -1.1794  0.2731
  151SOL    HW3  337   0.950   4.748   0.967 -1.4326 -1.7103 -0.9199
  151SOL    MW4  338   1.014   4.689   0.967 -0.1424  0.2864  0.2277
  152SOL     OW  339   3.762   0.851   2.720  0.2586  0.1216 -0.9471
  152SOL    HW2  340   3.788   0.768   2.679  2.0484  0.4577 -0.5285
  152SOL    HW3  341   3.746   0.910   2.646 -0.9956 -0.5436 -1.2467
  152SOL    MW4  342   3.763   0.848   2.705 -0.3327 -0.3554  0.4081
  153SOL     OW  343   1.518   2.233   3.216  0.1631  0.1354 -0.1703
  153SOL    HW2  344   1.547   2.260   3.129  0.2082  1.3917  0.2172
  153SOL    HW3  345   1.593   2.251   3.273 -0.7004  1.6595  0.5309
  153SOL    MW4  346   1.532   2.239   3.212  0.2708 -0.6499  0.6788
  154SOL     OW  347   1.269   0.368   5.477  0.6714  0.0063 -0.1180
  154SOL    HW2  348   1.302   0.450   5.513  1.5003 -0.3258 -0.0987
  154SOL    HW3  349   1.185   0.355   5.519  1.4179 -0.1560  1.3820
  154SOL    MW4  350   1.262   0.377   5.487 -0.5770 -0.6470 -0.8761
  155SOL     OW  351   5.974   0.786   2.139  0.1953 -0.1781  0.0445
  155SOL    HW2  352   5.989   0.721   2.208  0.5935 -0.0214  0.1105
  155SOL    HW3  353   6.047   0.847   2.148 -0.6409  0.7794  0.5593
  155SOL    MW4  354   5.986   0.785   2.149  0.2207  0.0185 -0.0726
  156SOL     OW  355   2.938   4.812   5.155  0.7773 -0.0191 -0.2591
  156SOL    HW2  356   2.850   4.826   5.191  0.1311  0.9710 -2.0659
  156SOL    HW3  357   2.962   4.724   5.183 -1.1907 -0.6740 -0.4960
  156SOL    MW4  358   2.929   4.803   5.164  0.2992  0.1498  0.0673
  157SOL     OW  359   0.857   2.230   0.149 -0.9678  0.1977 -0.7087
  157SOL    HW2  360   0.840   2.318   0.183 -1.6874  0.0603 -0.6999
  157SOL    HW3  361   0.947   2.212   0.174 -0.1561  1.6795 -2.3566
  157SOL    MW4  362   0.867   2.239   0.157 -0.2252  0.1679 -0.1460
  158SOL     OW  363   2.205   2.557   3.592 -0.3703 -0.0212  0.2529
  158SOL    HW2  364   2.267   2.603   3.648 -0.2735 -0.9075  0.8932
  158SOL    HW3  365   2.126   2.548   3.646  0.0313 -1.6969  0.6373
  158SOL    MW4  366   2.202   2.562   3.607 -0.3492 -0.1055  0.1853
  159SOL     OW  367   5.383   4.111   5.437 -0.3392 -0.3901  0.1288
  159SOL    HW2  368   5.322   4.073   5.373 -1.3997 -0.1469  0.9649
  159SOL    HW3  369   5.334   4.183   5.477  1.2906  1.2989 -0.7402
  159SOL    MW4  370   5.369   4.115   5.434  0.0103 -0.3891  0.1833
  160SOL     OW  371   2.046   0.771   3.380  0.0558 -0.8917 -0.1453
  160SOL    HW2  372   2.097   0.744   3.456  2.4520 -0.9360 -1.6692
  160SOL    HW3  373   1.983   0.834   3.415  1.6042 -0.2904  1.7711
  160SOL    MW4  374   2.044   0.776   3.394  0.5180 -0.4499 -0.0885
  161SOL     OW  375   5.154   6.419   0.207 -0.5207 -0.3739 -0.1549
  161SOL    HW2  376   5.236   6.455   0.242  0.8247 -0.9591 -2.5127
  161SOL    HW3  377   5.091   6.491   0.216  0.6955  0.6900  0.1639
  161SOL    MW4  378   5.156   6.433   0.213  0.3107  0.5031 -0.4876
  162SOL     OW  379   3.402   4.456   2.212 -0.1232 -0.3241  0.1157
  162SOL    HW2  380   3.455   4.521   2.166 -0.7777  0.3285  0.2688
  162SOL    HW3  381   3.454   4.432   2.289 -0.0696  0.3557  0.2984
  162SOL    MW4  382   3.416   4.461   2.216 -0.0958 -0.1534 -0.4576
  163SOL     OW  383   5.300   5.192   1.978 -0.2936 -0.2772 -0.4028
  163SOL    HW2  384   5.265   5.281   1.987 -0.7512 -0.3707 -1.2157
  163SOL    HW3  385   5.326   5.185   1.887  0.4425 -0.7315 -0.1681
  163SOL    MW4  386   5.299   5.203   1.967  0.0955  0.1867  0.2669
  164SOL     OW  387   2.618   5.806   5.239 -0.0692 -0.3977 -0.1284
  164SOL    HW2  388   2.661   5.722   5.258  3.4900  0.8135 -1.8798
  164SOL    HW3  389   2.652   5.866   5.305 -1.6345 -0.0414  0.3759
  164SOL    MW4  390   2.628   5.803   5.250  0.2089 -0.3953 -0.2501
  165SOL     OW  391   0.639   3.023   5.325 -0.4200  0.0171  0.1136
  165SOL    HW2  392   0.602   2.961   5.262 -2.5514  0.0929  1.1807
  165SOL    HW3  393   0.577   3.096   5.325  1.5161  1.7677 -0.3956
  165SOL    MW4  394   0.626   3.024   5.316 -0.7918  0.0522  0.0975
  166SOL     OW  395   1.733   0.642   2.744 -0.1372 -0.2345  0.5482
  166SOL    HW2  396   1.796   0.669   2.678 -2.2492 -0.3038 -1.6165
  166SOL    HW3  397   1.708   0.553   2.720  0.7077 -1.1912  2.8579
  166SOL    MW4  398   1.738   0.634   2.732  0.0241 -0.2607  0.3879
  167SOL     OW  399   0.129   5.284   6.214  0.7414 -0.6076  0.0991
  167SOL    HW2  400   0.120   5.316   6.124 -1.2467 -1.7054 -0.1536
  167SOL    HW3  401   0.222   5.263   6.222  1.7336  2.9084 -0.4247
  167SOL    MW4  402   0.141   5.285   6.203  0.2720  0.1885 -0.4448
  168SOL     OW  403   0.904   2.776   4.091 -0.3840 -0.2846  0.3943
  168SOL    HW2  404   0.826   2.746   4.044 -0.4551 -1.0800  0.9972
  168SOL    HW3  405   0.943   2.696   4.126  0.0218  0.2272  1.1400
  168SOL    MW4  406   0.899   2.761   4.090  0.4721 -1.1276  0.2544
  169SOL     OW  407   5.224   1.475   0.922 -0.3080 -0.2075 -0.4059
  169SOL    HW2  408   5.156   1.417   0.887 -0.8255 -1.4880  2.3940
  169SOL    HW3  409   5.179   1.527   0.989  1.0520  0.3721  0.0919
  169SOL    MW4  410   5.209   1.474   0.926 -1.0005  0.4650 -0.1880
  170SOL     OW  411   0.070   3.901   2.687  0.0256  0.5804  0.5086
  170SOL    HW2  412   0.164   3.883   2.678 -0.0918  0.8807 -2.0281
  170SOL    HW3  413   0.066   3.992   2.717  0.5167  0.2808  1.5410
  170SOL    MW4  414   0.082   3.911   2.690  0.0521  0.0139  0.3880
  171SOL     OW  415   4.947   2.524   4.534 -0.2104  0.1500 -0.5665
  171SOL    HW2  416   5.016   2.508   4.599 -1.0131  0.1915  0.3225
  171SOL    HW3  417   4.975   2.474   4.457  0.6804 -0.0427 -0.1399
  171SOL    MW4  418   4.960   2.515   4.533  0.0479  0.0931 -0.1642
  172SOL     OW  419   6.352   5.971   3.458 -0.1508 -0.8564 -0.2292
  172SOL    HW2  420   6.444   5.980   3.482  0.0184  1.6807 -1.5007
  172SOL    HW3  421   6.304   6.005   3.534  0.1353  1.0032 -0.8348
  172SOL    MW4  422   6.358   5.977   3.471 -0.0080  0.3808  0.3699
  173SOL     OW  423   4.881   1.262   4.255 -0.0300  0.0322  0.2903
  173SOL    HW2  424   4.816   1.326   4.226  1.9739  1.4647 -1.4828
  173SOL    HW3  425   4.860   1.182   4.206 -0.1166  0.6846 -0.7793
  173SOL    MW4  426   4.870   1.260   4.244  0.1434 -0.3662  0.3152
  174SOL     OW  427   3.188   3.044   6.192  0.9811  0.4300  0.1854
  174SOL    HW2  428   3.266   3.033   6.247  0.4621 -0.9437  0.6919
  174SOL    HW3  429   3.119   3.067   6.253  0.5394 -0.4682  0.0440
  174SOL    MW4  430   3.189   3.046   6.207  0.0802 -0.6111  0.5700
  175SOL     OW  431   3.149   4.989   2.216  0.3667  0.2170  0.0797
  175SOL    HW2  432   3.147   5.015   2.124  0.2781  0.1974  0.0760
  175SOL    HW3  433   3.241   4.998   2.241  0.4545 -0.1075 -0.1081
  175SOL    MW4  434   3.161   4.993   2.207 -0.6782  0.3707 -0.8360
  176SOL     OW  435   4.752   4.760   3.652  0.4357  0.0412  0.6448
  176SOL    HW2  436   4.800   4.698   3.707  0.3054 -1.7365 -1.1035
  176SOL    HW3  437   4.797   4.757   3.567 -0.8792  0.7212 -0.1163
  176SOL    MW4  438   4.764   4.751   3.648  0.0765 -0.4159  0.2346
  177SOL     OW  439   1.538   4.188   5.520 -0.0189  0.2228 -0.2849
  177SOL    HW2  440   1.614   4.213   5.573 -0.4203  0.8049  0.0312
  177SOL    HW3  441   1.500   4.272   5.492  0.0132 -0.0779 -1.2452
  177SOL    MW4  442   1.543   4.203   5.523  0.0557 -0.0571  0.4577
  178SOL     OW  443   0.935   2.798   2.100  0.1493 -0.3111 -0.4337
  178SOL    HW2  444   0.847   2.805   2.138  0.0630 -1.0792 -0.4776
  178SOL    HW3  445   0.930   2.722   2.042  1.5190 -1.9466  1.4543
  178SOL    MW4  446   0.922   2.789   2.097  0.3021  0.2105  0.1332
  179SOL     OW  447   5.220   2.737   4.497  0.0013  0.0862 -0.2476
  179SOL    HW2  448   5.179   2.732   4.583 -0.5643  0.0858 -0.5159
  179SOL    HW3  449   5.147   2.735   4.435  0.3726  0.6166 -0.7112
  179SOL    MW4  450   5.205   2.736   4.500 -0.0746 -0.0359 -0.4976
  180SOL     OW  451   3.368   2.925   2.725 -0.5502  0.2573  0.2998
  180SOL    HW2  452   3.299   2.968   2.776 -1.4822 -0.3018 -0.4710
  180SOL    HW3  453   3.447   2.974   2.747 -1.2250  1.0625  1.0191
  180SOL    MW4  454   3.369   2.937   2.735  0.0113  0.1831 -0.6092
  181SOL     OW  455   3.322   3.880   4.100 -0.2354 -0.1445 -0.1466
  181SOL    HW2  456   3.355   3.790   4.099  0.2250 -0.0372 -2.8008
  181SOL    HW3  457   3.233   3.874   4.065  0.1183  0.4820 -1.2247
  181SOL    MW4  458   3.315   3.867   4.095 -1.0070  0.1534 -0.0092
  182SOL     OW  459   4.601   1.424   4.252  0.6080  0.3537 -0.0658
  182SOL    HW2  460   4.554   1.478   4.188  2.2654  1.4584 -0.4292
  182SOL    HW3  461   4.549   1.344   4.259 -0.9018  1.2061 -0.9750
  182SOL    MW4  462   4.588   1.421   4.245 -0.0940 -0.0951  0.2231
  183SOL     OW  463   5.720   2.398   2.778 -0.4729 -0.6746  0.0868
  183SOL    HW2  464   5.776   2.400   2.856 -0.7905  1.3389  0.3251
  183SOL    HW3  465   5.779   2.421   2.706 -0.8565  0.9711  0.2696
  183SOL    MW4  466   5.736   2.401   2.779  0.0693  0.1640  0.3397
  184SOL     OW  467   4.940   6.079   5.296 -0.1282  0.3213 -0.4198
  184SOL    HW2  468   4.929   6.173   5.281  0.0695  0.6105  1.0543
  184SOL    HW3  469   5.032   6.062   5.277  0.2316  0.7653  0.8342
  184SOL    MW4  470   4.950   6.089   5.292  0.1226 -0.2714 -0.2614
  185SOL     OW  471   3.536   2.200   1.376  0.1183 -0.2572 -0.1546
  185SOL    HW2  472   3.616   2.213   1.427 -0.5249  1.0320  0.5730
  185SOL    HW3  473   3.472   2.166   1.439 -0.7611  1.5896  0.0165
  185SOL    MW4  474   3.538   2.197   1.391 -0.0270 -0.2530  0.5108
  186SOL     OW  475   4.787   0.978   0.031  0.0420  0.0005  0.0710
  186SOL    HW2  476   4.737   0.971   0.113  0.4950  0.2637  0.3743
  186SOL    HW3  477   4.878   0.984   0.059  0.0457  5.8990 -0.0169
  186SOL    MW4  478   4.792   0.977   0.046  0.2813  1.2318  0.7024
  187SOL     OW  479   4.950   5.428   2.444 -0.2918  0.1494 -0.1775
  187SOL    HW2  480   4.906   5.498   2.396 -1.6096  0.9447  2.0371
  187SOL    HW3  481   4.889   5.355   2.442  0.7364 -0.7257 -1.7856
  187SOL    MW4  482   4.936   5.428   2.438 -0.2756  0.0511 -0.0674
  188SOL     OW  483   6.129   1.135   2.438  0.2964  0.5865  0.4293
  188SOL    HW2  484   6.179   1.055   2.426  2.2766  1.3998  2.5903
  188SOL    HW3  485   6.146   1.161   2.529 -1.8676  2.4131  0.4041
  188SOL    MW4  486   6.138   1.128   2.448 -0.2036 -0.5475 -0.6520
  189SOL     OW  487   6.281   5.673   2.933 -0.0744  0.3338  0.1458
  189SOL    HW2  488   6.308   5.668   3.024 -0.9111  0.4241  0.4063
  189SOL    HW3  489   6.323   5.752   2.900 -1.7697  1.7186  1.1577
  189SOL    MW4  490   6.290   5.683   2.940  0.3923  0.4608  0.7703
  190SOL     OW  491   1.704   4.508   5.608  0.2836  0.9784  0.0931
  190SOL    HW2  492   1.641   4.573   5.638 -0.6262 -0.3627  1.2108
  190SOL    HW3  493   1.664   4.472   5.528  0.2679  1.0356  0.0748
  190SOL    MW4  494   1.690   4.512   5.601 -0.0282 -0.2819  0.3875
  191SOL     OW  495   1.160   5.468   2.051 -0.1329  0.7105  0.2007
  191SOL    HW2  496   1.134   5.550   2.009 -0.8478  0.3846  0.0037
  191SOL    HW3  497   1.206   5.420   1.982 -0.5259  0.5540  0.0466
  191SOL    MW4  498   1.163   5.472   2.036 -0.2974  0.3157 -0.0262
  192SOL     OW  499   4.230   3.932   5.585  0.4774 -0.0016 -0.3667
  192SOL    HW2  500   4.208   3.947   5.677  1.4025 -0.3518 -0.0821
  192SOL    HW3  501   4.275   3.848   5.584  0.3248 -0.0821 -1.1741
  192SOL    MW4  502   4.233   3.923   5.597  0.5038 -0.5065  0.0406
  193SOL     OW  503   1.070   0.363   2.700 -0.5672 -0.7254 -0.3613
  193SOL    HW2  504   1.164   0.349   2.688 -0.4560 -0.3524  0.0501
  193SOL    HW3  505   1.030   0.329   2.620 -0.0764 -0.8303 -0.5627
  193SOL    MW4  506   1.077   0.357   2.688 -0.0578 -0.3285  0.2909
  194SOL     OW  507   0.348   5.013   2.406 -0.0464 -0.4714 -0.0730
  194SOL    HW2  508   0.262   4.973   2.420 -0.4423  0.4126  0.0813
  194SOL    HW3  509   0.362   5.067   2.484 -0.6636  1.6684 -1.3656
  194SOL    MW4  510   0.339   5.015   2.419 -0.2493  0.7157  0.6082
  195SOL     OW  511   4.989   0.795   4.315 -0.0314  0.3947  0.4030
  195SOL    HW2  512   5.005   0.735   4.388 -2.1228 -0.6197  0.0941
  195SOL    HW3  513   4.977   0.738   4.240  0.3526  1.3505 -0.4042
  195SOL    MW4  514   4.989   0.780   4.315 -0.2480  0.1748 -0.0450
  196SOL     OW  515   4.203   4.692   1.480 -0.6191 -0.2081 -0.2614
  196SOL    HW2  516   4.291   4.658   1.491 -0.5579 -1.2109 -3.0078
  196SOL    HW3  517   4.205   4.779   1.520  1.5054 -0.3407  0.0070
  196SOL    MW4  518   4.215   4.699   1.487 -0.1117 -0.2769 -0.3303
  197SOL     OW  519   4.848   1.041   3.774  0.0647  0.0883 -0.0902
  197SOL    HW2  520   4.903   0.962   3.771 -0.8378 -0.6345  1.2314
  197SOL    HW3  521   4.759   1.007   3.785 -0.8090  1.2026 -2.9275
  197SOL    MW4  522   4.844   1.026   3.775 -0.2995 -0.0163 -0.4820
  198SOL     OW  523   2.779   6.291   1.704  0.0848  0.4471 -0.0536
  198SOL    HW2  524   2.747   6.233   1.773 -2.4357  1.0593 -0.5671
  198SOL    HW3  525   2.873   6.275   1.699 -0.0525 -1.3183  1.8887
  198SOL    MW4  526   2.787   6.281   1.712 -0.2931 -0.1298 -0.8806
  199SOL     OW  527   3.547   3.423   3.392  0.3098 -0.0817 -0.4098
  199SOL    HW2  528   3.549   3.431   3.487 -2.2266 -1.6167 -0.1204
  199SOL    HW3  529   3.577   3.333   3.375 -4.0096 -1.7555 -0.4713
  199SOL    MW4  530   3.551   3.412   3.402 -0.0913  0.2812  0.3266
  200SOL     OW  531   1.488   6.169   2.326  0.0489 -0.2587 -0.3101
  200SOL    HW2  532   1.567   6.117   2.341 -0.9529 -1.9570 -0.6337
  200SOL    HW3  533   1.505   6.251   2.371  0.9586 -1.5699  1.8847
  200SOL    MW4  534   1.501   6.173   2.334 -0.3041 -0.2998 -0.4878
  201SOL     OW  535   2.518   6.226   0.800 -0.1308  0.3199 -0.0786
  201SOL    HW2  536   2.599   6.262   0.764 -0.0189 -1.1160 -1.3711
  201SOL    HW3  537   2.473   6.301   0.837  1.3488  1.3087 -0.1939
  201SOL    MW4  538   2.523   6.241   0.800  0.2980 -0.2355  0.1165
  202SOL     OW  539   5.496   1.558   3.891 -0.7012  0.5936  0.2646
  202SOL    HW2  540   5.424   1.598   3.939 -0.5432  0.4413  0.6318
  202SOL    HW3  541   5.563   1.626   3.885 -1.1423  0.9586 -0.6763
  202SOL    MW4  542   5.495   1.572   3.897 -0.0548  0.2569  0.0910
  203SOL     OW  543   3.953   2.334   4.163  0.5667  0.0673  0.6667
  203SOL    HW2  544   4.040   2.294   4.156  0.5128 -0.0297  0.5541
  203SOL    HW3  545   3.968   2.427   4.151  0.5046 -0.0608 -0.5538
  203SOL    MW4  546   3.966   2.341   4.161 -0.0666  0.0083  0.1467
  204SOL     OW  547   2.669   1.978   3.155 -0.0268  0.2800 -0.2206
  204SOL    HW2  548   2.651   2.063   3.116  0.4077  0.5338  0.1146
  204SOL    HW3  549   2.646   1.989   3.248  0.1323  0.0666 -0.1549
  204SOL    MW4  550   2.664   1.991   3.162  0.2981 -0.3982 -0.3451
  205SOL     OW  551   1.717   1.121   0.710 -0.0645  0.0227  0.2459
  205SOL    HW2  552   1.698   1.030   0.731  1.6381 -0.6075 -0.7714
  205SOL    HW3  553   1.803   1.137   0.749 -1.0720  1.7670  1.9214
  205SOL    MW4  554   1.726   1.111   0.718  0.6303  0.7480 -0.5523
  206SOL     OW  555   6.246   2.957   6.076 -0.5223  0.4451  0.6722
  206SOL    HW2  556   6.159   2.963   6.115 -1.1457 -0.6512 -0.4824
  206SOL    HW3  557   6.275   3.048   6.067 -1.4153  0.8095  1.3254
  206SOL    MW4  558   6.238   2.969   6.080 -0.2491  0.1990 -0.4281
  207SOL     OW  559   4.377   0.219   1.499  0.0806 -0.1252 -0.5605
  207SOL    HW2  560   4.405   0.219   1.590  0.0586  1.7957 -0.5085
  207SOL    HW3  561   4.301   0.161   1.496  0.3783 -0.5884  0.5224
  207SOL    MW4  562   4.371   0.211   1.511 -0.3109 -0.0793 -0.0129
  208SOL     OW  563   3.917   1.180   0.853 -0.3925 -0.1279  0.2051
  208SOL    HW2  564   3.830   1.215   0.870 -0.2600  0.6109 -0.6002
  208SOL    HW3  565   3.903   1.113   0.787 -0.2401  0.6261 -0.6015
  208SOL    MW4  566   3.904   1.175   0.847  0.1036  0.0110 -0.1786
  209SOL     OW  567   2.702   4.988   0.920  0.0548  0.2450 -0.0394
  209SOL    HW2  568   2.630   5.028   0.969  0.5741 -1.4611  2.3494
  209SOL    HW3  569   2.780   5.008   0.972  0.6423 -1.6975 -0.0775
  209SOL    MW4  570   2.703   4.996   0.934  0.4795 -0.9971 -0.3950
  210SOL     OW  571   5.083   5.312   2.999 -0.2885  0.2224  0.0450
  210SOL    HW2  572   5.101   5.403   2.977 -0.4848  0.1937 -0.2429
  210SOL    HW3  573   5.151   5.262   2.953  0.0626  0.2463  0.5232
  210SOL    MW4  574   5.094   5.317   2.990 -0.3434 -0.1472  0.0566
  211SOL     OW  575   0.214   4.705   5.423  0.3597  0.2475 -0.3092
  211SOL    HW2  576   0.244   4.641   5.488  0.0494  0.7502  0.3525
  211SOL    HW3  577   0.135   4.742   5.463 -1.0256 -0.8490 -1.8590
  211SOL    MW4  578   0.207   4.701   5.437  0.2841 -0.0419 -0.1215
  212SOL     OW  579   2.754   0.562   3.480 -0.5432  0.2568 -0.1038
  212SOL    HW2  580   2.744   0.469   3.457  2.1525 -0.5163  1.4359
  212SOL    HW3  581   2.670   0.586   3.520 -0.2470 -2.5413  2.5913
  212SOL    MW4  582   2.742   0.553   3.482  0.4034  0.4497 -0.7582
  213SOL     OW  583   5.254   4.700   5.764 -0.4845  0.0804 -1.0994
  213SOL    HW2  584   5.223   4.651   5.688 -0.9919  2.1068 -2.2922
  213SOL    HW3  585   5.309   4.769   5.727  0.5206  0.2089  0.5318
  213SOL    MW4  586   5.257   4.703   5.749 -0.0397 -0.3312  0.0337
  214SOL     OW  587   0.705   4.572   1.705 -0.4299  0.3421 -0.3552
  214SOL    HW2  588   0.714   4.667   1.710 -2.4451  0.5568 -0.2353
  214SOL    HW3  589   0.740   4.539   1.788 -0.4291  1.0351 -0.0800
  214SOL    MW4  590   0.711   4.580   1.716 -0.6972 -0.0876  0.7137
  215SOL     OW  591   4.155   1.347   1.435 -0.0377 -0.0027 -0.5165
  215SOL    HW2  592   4.151   1.324   1.528 -0.3940  0.6753 -0.3581
  215SOL    HW3  593   4.247   1.372   1.421 -0.0706  0.2912 -0.2421
  215SOL    MW4  594   4.167   1.348   1.446  0.4709 -0.0025  0.7984
  216SOL     OW  595   5.869   3.241   4.920  0.6038  0.0413  0.1215
  216SOL    HW2  596   5.923   3.164   4.939 -0.1087 -0.8231 -1.2016
  216SOL    HW3  597   5.917   3.314   4.959  1.2285 -1.0799  1.5279
  216SOL    MW4  598   5.883   3.240   4.927  0.3492  0.2666 -0.2439
  217SOL     OW  599   5.902   2.028   4.657 -0.2311  0.4920  0.6675
  217SOL    HW2  600   5.879   1.990   4.572 -3.7792 -0.8578  2.0221
  217SOL    HW3  601   5.976   2.086   4.638  0.0546 -0.7774 -3.0386
  217SOL    MW4  602   5.909   2.031   4.643  0.0803 -0.4439 -0.7107
  218SOL     OW  603   4.548   0.978   4.435 -0.0532 -0.5785  0.6000
  218SOL    HW2  604   4.615   0.965   4.502 -0.1574  1.4591  1.1537
  218SOL    HW3  605   4.466   0.989   4.483 -0.2052  0.4188  0.1522
  218SOL    MW4  606   4.546   0.978   4.450 -0.5474  0.0649 -0.0574
  219SOL     OW  607   4.372   5.657   4.215 -0.3185 -0.3292 -0.0417
  219SOL    HW2  608   4.285   5.627   4.241 -0.7111  1.5870  0.9789
  219SOL    HW3  609   4.358   5.706   4.134  0.3192 -2.5987 -1.6672
  219SOL    MW4  610   4.359   5.659   4.208  0.0221  0.3971  0.6294
  220SOL     OW  611   3.956   5.462   6.174  0.2546  0.5820  0.5128
  220SOL    HW2  612   4.042   5.502   6.186  0.3251 -0.1281  2.8585
  220SOL    HW3  613   3.951   5.394   6.241 -1.3565 -0.7814 -0.8926
  220SOL    MW4  614   3.967   5.459   6.184  0.5641 -0.0876 -0.9462
  221SOL     OW  615   3.936   2.847   2.445  0.0186  0.0712 -0.9426
  221SOL    HW2  616   3.982   2.915   2.395  0.6706  0.6249  0.3625
  221SOL    HW3  617   3.884   2.896   2.509 -0.9927 -0.6186 -1.2122
  221SOL    MW4  618   3.935   2.862   2.447 -0.2365  0.0365 -0.7913
  222SOL     OW  619   0.054   4.332   0.217 -0.5438 -0.0084 -0.2028
  222SOL    HW2  620   0.140   4.326   0.177 -1.6104 -2.3239 -2.3996
  222SOL    HW3  621  -0.005   4.354   0.145 -2.2676 -2.2858  0.3925
  222SOL    MW4  622   0.057   4.334   0.202  0.2481  0.4681 -0.1334
  223SOL     OW  623   1.130   1.772   1.152  0.5302 -0.0954 -0.2133
  223SOL    HW2  624   1.124   1.694   1.208  0.2761  0.5317  0.6495
  223SOL    HW3  625   1.223   1.787   1.142  0.6119 -1.1237 -1.2802
  223SOL    MW4  626   1.141   1.763   1.158  0.1530 -0.8725  0.3651
  224SOL     OW  627   0.465   0.669   1.839  0.1350  0.4104  0.1689
  224SOL    HW2  628   0.474   0.709   1.752 -0.7372  1.3504  0.4892
  224SOL    HW3  629   0.391   0.714   1.878  0.9301  0.4732  1.6747
  224SOL    MW4  630   0.457   0.680   1.833  0.1038 -0.0571  0.6010
  225SOL     OW  631   5.803   2.550   3.205  0.8619  0.0261 -0.6345
  225SOL    HW2  632   5.731   2.579   3.262  1.5733 -1.7781  1.3215
  225SOL    HW3  633   5.775   2.465   3.173  1.6727 -0.2315 -0.6816
  225SOL    MW4  634   5.790   2.543   3.208  0.3538 -0.1488  0.3656
  226SOL     OW  635   5.913   6.383   2.617 -0.1850 -0.2710 -0.1540
  226SOL    HW2  636   5.975   6.323   2.574 -0.5021 -0.4346 -0.3820
  226SOL    HW3  637   5.875   6.331   2.688 -1.5533 -0.8312 -1.2542
  226SOL    MW4  638   5.916   6.368   2.621 -0.5317  0.2971 -0.0151
  227SOL     OW  639   6.375   1.664   6.242 -0.0412 -0.1830  0.2321
  227SOL    HW2  640   6.330   1.748   6.235  0.9053  0.2896 -0.3720
  227SOL    HW3  641   6.403   1.644   6.152  2.0326  0.1537  0.7638
  227SOL    MW4  642   6.373   1.672   6.229 -0.5191  0.2201  0.1553
  228SOL     OW  643   1.934   3.856   0.389 -0.4929 -0.0593 -0.5328
  228SOL    HW2  644   1.888   3.924   0.439  0.4448  0.1429  0.0758
  228SOL    HW3  645   2.027   3.871   0.407 -0.1298 -0.0899 -2.2249
  228SOL    MW4  646   1.940   3.867   0.398  0.4280 -0.0278  0.6443
  229SOL     OW  647   1.355   3.661   6.317  0.2049 -0.4604  0.0857
  229SOL    HW2  648   1.397   3.576   6.333  1.9332  0.3308  0.0077
  229SOL    HW3  649   1.323   3.655   6.227  0.1613 -1.0808  0.1367
  229SOL    MW4  650   1.356   3.649   6.307  0.2382  0.2855  0.0722
  230SOL     OW  651   4.795   2.726   4.652  0.1212 -0.1352 -0.4100
  230SOL    HW2  652   4.860   2.677   4.602  0.7407 -0.1258  0.3495
  230SOL    HW3  653   4.809   2.697   4.743  0.4037  1.3168  0.0358
  230SOL    MW4  654   4.805   2.716   4.658  0.0901 -0.3623  0.5070
  231SOL     OW  655   2.443   3.735   2.017  0.4033 -0.4050  0.3195
  231SOL    HW2  656   2.496   3.788   2.076  2.0605 -1.4424 -0.1459
  231SOL    HW3  657   2.495   3.655   2.004 -2.0546 -2.2940  1.1716
  231SOL    MW4  658   2.457   3.731   2.023  0.5855  0.4772 -0.5121
  232SOL     OW  659   0.838   1.864   6.220 -0.1376  0.3366  0.7493
  232SOL    HW2  660   0.917   1.840   6.173 -0.3194 -0.2442  0.7406
  232SOL    HW3  661   0.844   1.960   6.229 -0.8016  0.6606 -1.7080
  232SOL    MW4  662   0.849   1.874   6.215 -0.3644 -0.6512  0.0006
  233SOL     OW  663   0.717   2.474   0.263  1.1001 -0.2685  0.8152
  233SOL    HW2  664   0.627   2.444   0.280  1.0354  0.1685  1.2822
  233SOL    HW3  665   0.742   2.520   0.343  1.9689 -0.9047  0.9250
  233SOL    MW4  666   0.708   2.476   0.276  0.3018  0.0739 -0.1994
  234SOL     OW  667   1.435   3.775   4.421  0.0895  0.4197  0.4790
  234SOL    HW2  668   1.482   3.735   4.495 -1.2323 -1.9854  0.1374
  234SOL    HW3  669   1.476   3.737   4.344 -0.7789  0.2302  0.1032
  234SOL    MW4  670   1.446   3.765   4.421 -0.0649  0.1869 -0.2944
  235SOL     OW  671   5.416   1.836   1.888 -0.0792  0.0707 -0.5137
  235SOL    HW2  672   5.500   1.803   1.919  0.3106  0.4403 -1.1464
  235SOL    HW3  673   5.367   1.758   1.861 -1.3794 -0.5391  3.1453
  235SOL    MW4  674   5.421   1.821   1.888 -0.3576 -0.1316 -0.0734
  236SOL     OW  675   5.813   0.092   5.533  0.3028 -0.7668  0.1358
  236SOL    HW2  676   5.855   0.074   5.449 -0.8827  0.2617 -0.7134
  236SOL    HW3  677   5.833   0.184   5.551  1.4101 -1.2362  1.5296
  236SOL    MW4  678   5.821   0.102   5.524  0.7125  0.0147 -0.7526
  237SOL     OW  679   2.733   1.368   0.604 -0.1116  0.0130  0.2343
  237SOL    HW2  680   2.660   1.408   0.651 -0.4048  0.5292 -0.6379
  237SOL    HW3  681   2.771   1.439   0.553  1.5749 -0.0307  1.3315
  237SOL    MW4  682   2.728   1.382   0.604  0.3827  0.6121 -0.2105
  238SOL     OW  683   0.657   1.744   3.266 -0.1743 -0.2114 -0.4511
  238SOL    HW2  684   0.736   1.692   3.276 -0.1883 -0.1865 -0.2042
  238SOL    HW3  685   0.648   1.756   3.171  0.1243 -0.1997 -0.4792
  238SOL    MW4  686   0.666   1.739   3.254  0.4780  0.1200  0.2737
  239SOL     OW  687   1.127   1.873   1.970 -0.3993 -0.0605  0.0707
  239SOL    HW2  688   1.118   1.813   2.044 -1.3167 -0.2908 -0.2083
  239SOL    HW3  689   1.184   1.943   2.001  2.1327 -1.8866 -0.1070
  239SOL    MW4  690   1.133   1.874   1.984  0.4472  0.5480 -0.3201
  240SOL     OW  691   0.630   0.265   5.774 -0.1494  0.1429  0.1654
  240SOL    HW2  692   0.590   0.295   5.856  0.7181 -1.9403  1.4126
  240SOL    HW3  693   0.722   0.252   5.795  0.2277  0.2056 -1.3460
  240SOL    MW4  694   0.637   0.267   5.788 -0.0089  0.0934  0.4852
  241SOL     OW  695   6.093   4.174   0.479  0.4082 -0.0048  0.3950
  241SOL    HW2  696   6.012   4.206   0.518  0.2178 -0.2336  0.1856
  241SOL    HW3  697   6.092   4.208   0.390  0.5506  0.0024  0.3952
  241SOL    MW4  698   6.082   4.183   0.473 -0.3844 -0.5217 -0.3808
  242SOL     OW  699   2.078   1.168   4.239  0.0875  0.4145 -0.1479
  242SOL    HW2  700   2.033   1.153   4.323  0.8435 -0.2719  0.1456
  242SOL    HW3  701   2.167   1.136   4.254  0.0465 -0.3268 -1.4220
  242SOL    MW4  702   2.084   1.162   4.252 -0.3715 -0.5752  0.3934
  243SOL     OW  703   5.992   6.005   5.156 -0.3171  0.3482  0.2295
  243SOL    HW2  704   6.043   5.925   5.164  0.9220  1.1466  0.5161
  243SOL    HW3  705   6.021   6.045   5.074 -0.4379  0.8404  0.4169
  243SOL    MW4  706   6.002   6.000   5.146 -0.0236 -0.1751 -0.5766
  244SOL     OW  707   1.323   2.712   5.032 -0.4693 -0.4900  0.2417
  244SOL    HW2  708   1.271   2.720   5.112  0.4651 -0.8536  0.9059
  244SOL    HW3  709   1.405   2.672   5.061  0.8648  1.5978 -0.4848
  244SOL    MW4  710   1.327   2.708   5.046  0.1493 -0.0016 -0.1040
  245SOL     OW  711   0.730   5.780   1.298 -0.0416  0.2076 -0.3929
  245SOL    HW2  712   0.731   5.719   1.372 -1.7476  1.7154  0.9731
  245SOL    HW3  713   0.639   5.810   1.292 -0.1650 -0.4317 -3.6616
  245SOL    MW4  714   0.718   5.776   1.307  0.2782 -0.1587  0.1236
  246SOL     OW  715   6.044   1.320   1.862  0.1330  0.0853 -0.5183
  246SOL    HW2  716   5.965   1.345   1.814  0.5990 -0.8308 -1.8137
  246SOL    HW3  717   6.013   1.261   1.931 -0.2156 -1.4379 -1.9095
  246SOL    MW4  718   6.030   1.315   1.865 -0.2395 -0.5589 -0.9992
  247SOL     OW  719   0.684   3.431   5.838  0.1478 -0.0716  0.2669
  247SOL    HW2  720   0.602   3.473   5.809 -0.6207 -1.3605  0.4931
  247SOL    HW3  721   0.707   3.479   5.918  1.1386  2.1020 -1.2098
  247SOL    MW4  722   0.676   3.443   5.845  0.0924 -0.0046  0.1974
  248SOL     OW  723   4.881   4.815   0.717 -0.7013 -0.0301 -0.6772
  248SOL    HW2  724   4.884   4.911   0.709 -0.9550 -0.1888 -3.9897
  248SOL    HW3  725   4.795   4.798   0.756 -0.7187  1.0617 -0.1852
  248SOL    MW4  726   4.870   4.825   0.721 -0.3924 -0.1604  0.6433
  249SOL     OW  727   2.604   1.069   1.650 -0.0749 -0.2256 -0.2678
  249SOL    HW2  728   2.541   1.069   1.578 -0.5308  0.4349  0.1243
  249SOL    HW3  729   2.600   0.980   1.685 -0.3342 -0.3647 -0.6420
  249SOL    MW4  730   2.595   1.057   1.645  0.1581  0.3002 -0.0922
  250SOL     OW  731   1.560   5.844   5.854  1.0006  0.2277  0.0062
  250SOL    HW2  732   1.639   5.873   5.809  1.1727  0.1582  0.2665
  250SOL    HW3  733   1.495   5.912   5.833  0.9148 -0.0871 -0.8075
  250SOL    MW4  734   1.562   5.857   5.845  0.2896 -0.1197  0.1477
  251SOL     OW  735   2.189   2.468   0.848  0.2274 -0.0317 -0.4565
  251SOL    HW2  736   2.272   2.420   0.847  1.2276  1.6121 -0.2257
  251SOL    HW3  737   2.167   2.479   0.755  0.0411 -0.8284 -0.5116
  251SOL    MW4  738   2.197   2.463   0.836 -0.3115 -0.2732 -0.4724
  252SOL     OW  739   1.335   0.202   4.649 -0.0596 -0.0263  0.5903
  252SOL    HW2  740   1.331   0.263   4.576  0.2743  0.2600  0.8056
  252SOL    HW3  741   1.255   0.218   4.699  1.1507  2.0344  2.0418
  252SOL    MW4  742   1.324   0.212   4.646  0.2695 -0.3601  0.3943
  253SOL     OW  743   4.531   5.269   2.217 -0.4215 -0.2770  0.2831
  253SOL    HW2  744   4.457   5.319   2.183 -1.5200 -1.8167  0.3219
  253SOL    HW3  745   4.551   5.205   2.149 -0.0334 -0.7901  0.8644
  253SOL    MW4  746   4.524   5.267   2.203 -0.0144 -0.6000  0.4627
  254SOL     OW  747   4.164   6.090   4.779 -0.1551  0.1301  0.1414
  254SOL    HW2  748   4.258   6.078   4.766  0.1577  0.0282  2.1126
  254SOL    HW3  749   4.154   6.099   4.874 -2.5696 -4.0188  0.5599
  254SOL    MW4  750   4.175   6.089   4.790 -0.2160 -0.5981  0.0251
  255SOL     OW  751   1.084   0.690   6.127  0.2155 -0.2762  0.8884
  255SOL    HW2  752   1.136   0.629   6.180  1.0175 -1.2612 -0.9359
  255SOL    HW3  753   1.121   0.683   6.039 -1.7272  0.5105 -0.0513
  255SOL    MW4  754   1.096   0.681   6.123  0.1260  0.6647 -0.2928
  256SOL     OW  755   3.484   4.609   1.481 -0.0753 -0.2148 -0.1544
  256SOL    HW2  756   3.390   4.599   1.470  0.0287 -0.6264 -0.7501
  256SOL    HW3  757   3.518   4.519   1.482  0.3104 -0.0723  0.0470
  256SOL    MW4  758   3.476   4.596   1.480  0.3188  0.5536  0.5197
  257SOL     OW  759   1.369   1.464   5.591  0.1732  0.1415 -0.2093
  257SOL    HW2  760   1.279   1.476   5.621 -0.1082 -0.7834 -0.6585
  257SOL    HW3  761   1.415   1.543   5.621 -1.1060  1.3490 -1.2655
  257SOL    MW4  762   1.363   1.476   5.599 -0.0862 -0.7528  0.7967
  258SOL     OW  763   1.274   5.933   2.223 -0.1030  0.4221 -0.4038
  258SOL    HW2  764   1.304   6.018   2.254  1.0386  0.6785 -2.0709
  258SOL    HW3  765   1.335   5.910   2.153  0.0817 -2.1122  0.4692
  258SOL    MW4  766   1.286   5.941   2.218  0.0516  0.0789 -0.4983
  259SOL     OW  767   5.212   5.562   2.628  0.7625 -0.2518  0.0502
  259SOL    HW2  768   5.197   5.467   2.624 -0.6103 -0.0648  0.2728
  259SOL    HW3  769   5.127   5.598   2.653  1.7700  0.8838  2.0238
  259SOL    MW4  770   5.199   5.554   2.631  0.1730  0.2420 -0.4552
  260SOL     OW  771   1.653   5.637   2.703  0.4728 -0.1189  0.1567
  260SOL    HW2  772   1.742   5.605   2.716 -0.0588 -1.0692  1.6961
  260SOL    HW3  773   1.619   5.586   2.629  0.4277 -1.4951  1.0971
  260SOL    MW4  774   1.660   5.626   2.695  0.4580  0.5355  0.0631
  261SOL     OW  775   4.120   2.132   5.032 -0.2511 -0.0159 -0.0305
  261SOL    HW2  776   4.186   2.168   5.091 -0.3827 -0.0269  0.1231
  261SOL    HW3  777   4.053   2.201   5.026 -1.0116 -0.6305  1.0731
  261SOL    MW4  778   4.120   2.146   5.039  0.2630  0.7126  0.3268
  262SOL     OW  779   1.182   5.782   4.917 -0.8735  0.1177 -0.1425
  262SOL    HW2  780   1.158   5.774   4.825 -1.3814 -0.8876  0.0634
  262SOL    HW3  781   1.130   5.856   4.949  0.2632  1.3156 -0.9429
  262SOL    MW4  782   1.172   5.791   4.909  0.0999 -1.0481  0.0182
  263SOL     OW  783   2.899   4.757   5.861  0.1439 -0.1370  0.3142
  263SOL    HW2  784   2.850   4.839   5.858  0.8741  0.3054  0.1303
  263SOL    HW3  785   2.974   4.776   5.918  0.0094 -0.8527  0.7445
  263SOL    MW4  786   2.902   4.770   5.868  0.4287 -0.3506 -0.2879
  264SOL     OW  787   5.111   1.777   2.072  0.2211  0.0723  0.0814
  264SOL    HW2  788   5.113   1.853   2.130  2.6170  0.2095 -0.0848
  264SOL    HW3  789   5.157   1.709   2.120  0.3145 -0.4896 -0.7788
  264SOL    MW4  790   5.117   1.778   2.086 -0.3353  0.0166  0.0249
  265SOL     OW  791   3.531   3.013   4.177 -0.2627 -0.1013 -0.1130
  265SOL    HW2  792   3.443   3.047   4.196  0.0845  0.6399  0.2167
  265SOL    HW3  793   3.528   2.991   4.084 -1.0704 -0.9444  0.0979
  265SOL    MW4  794   3.519   3.015   4.167 -0.5410  0.4643  0.2511
  266SOL     OW  795   2.017   0.900   0.305  0.0276 -0.7804 -0.0700
  266SOL    HW2  796   2.028   0.873   0.214 -0.3845  2.7284 -1.2949
  266SOL    HW3  797   1.955   0.972   0.302 -0.6149 -1.0492  3.1372
  266SOL    MW4  798   2.010   0.906   0.293 -0.0625  0.1052 -0.0117
  267SOL     OW  799   2.496   1.443   4.566  0.6538 -0.1855  0.2915
  267SOL    HW2  800   2.414   1.488   4.545  0.6481 -1.1229 -1.9285
  267SOL    HW3  801   2.493   1.430   4.661 -2.0761 -0.7801  0.1936
  267SOL    MW4  802   2.485   1.448   4.576 -0.3007 -0.3942 -0.6496
  268SOL     OW  803   5.600   2.869   5.788 -0.5312 -0.2870 -0.4896
  268SOL    HW2  804   5.587   2.811   5.863 -0.5525  0.3321 -0.0020
  268SOL    HW3  805   5.511   2.886   5.756 -0.5351 -0.4242 -0.5492
  268SOL    MW4  806   5.586   2.864   5.794 -0.0006  0.3650  0.1684
  269SOL     OW  807   2.458   5.017   0.416 -0.1178  0.1789 -0.3819
  269SOL    HW2  808   2.510   5.024   0.496 -1.1057  0.8729  0.2215
  269SOL    HW3  809   2.440   4.923   0.406 -0.4117  0.1333  0.5020
  269SOL    MW4  810   2.462   5.006   0.425 -0.1673 -0.2635  0.3387
  270SOL     OW  811   3.593   4.464   6.239 -0.5927  0.0275 -0.0927
  270SOL    HW2  812   3.609   4.453   6.333  0.0086 -1.1562 -0.3024
  270SOL    HW3  813   3.505   4.500   6.233 -0.4184  0.6648  0.9411
  270SOL    MW4  814   3.584   4.467   6.251  0.4541 -0.2792  0.6182
  271SOL     OW  815   4.094   4.235   5.029  0.1910  0.2166 -0.1182
  271SOL    HW2  816   4.000   4.215   5.029  0.0618  0.4880 -2.6544
  271SOL    HW3  817   4.127   4.197   4.948  1.7004  2.5361 -0.6892
  271SOL    MW4  818   4.086   4.228   5.018 -0.2993 -0.3138 -0.5085
  272SOL     OW  819   2.970   0.565   1.331 -0.1739 -0.3430 -1.1270
  272SOL    HW2  820   2.966   0.611   1.415 -1.7880 -1.7513 -0.3694
  272SOL    HW3  821   3.057   0.524   1.331 -1.0910 -2.6388  1.2543
  272SOL    MW4  822   2.981   0.566   1.342 -0.1533 -0.0549 -1.0069
  273SOL     OW  823   0.477   2.137   0.166 -0.1130 -0.4161  0.2376
  273SOL    HW2  824   0.480   2.229   0.137  0.8588 -0.6765 -0.5318
  273SOL    HW3  825   0.553   2.128   0.224  0.0203 -0.8318  0.0015
  273SOL    MW4  826   0.487   2.148   0.170 -0.3222 -0.3565 -0.2085
  274SOL     OW  827   1.144   5.693   6.240 -0.3950  0.0453 -0.1122
  274SOL    HW2  828   1.198   5.632   6.291  0.0254 -1.1833 -1.9308
  274SOL    HW3  829   1.091   5.739   6.306  0.0146 -1.5504  1.4161
  274SOL    MW4  830   1.144   5.691   6.255 -0.5908  0.4829 -0.1431
  275SOL     OW  831   0.574   5.544   1.034  0.7910 -0.4587 -0.2984
  275SOL    HW2  832   0.667   5.525   1.034  1.0310  0.4801 -2.0566
  275SOL    HW3  833   0.568   5.633   0.998 -0.8908 -1.3836 -2.5285
  275SOL    MW4  834   0.585   5.554   1.029  0.3894  0.5708  0.0867
  276SOL     OW  835   0.822   2.793   2.562 -0.3511 -0.0699  0.6161
  276SOL    HW2  836   0.863   2.879   2.573  0.7464 -0.6065  0.9062
  276SOL    HW3  837   0.885   2.745   2.508 -2.4623  0.3426 -2.4539
  276SOL    MW4  838   0.836   2.798   2.556 -0.7241 -0.3397  0.3420
  277SOL     OW  839   4.924   5.864   6.350 -0.1262  0.2820  0.8942
  277SOL    HW2  840   4.912   5.945   6.399  0.3121  0.6784  0.3592
  277SOL    HW3  841   5.003   5.825   6.386  1.0348  1.2999 -0.4366
  277SOL    MW4  842   4.933   5.869   6.361 -0.1587  0.1001 -0.1629
  278SOL     OW  843   5.131   3.490   0.958  0.8849 -0.2138  0.4531
  278SOL    HW2  844   5.166   3.466   0.872  1.0152  0.9405  0.1732
  278SOL    HW3  845   5.044   3.450   0.960  1.7173 -2.1229  0.6966
  278SOL    MW4  846   5.124   3.481   0.947  0.0419 -0.0197 -0.5192
  279SOL     OW  847   4.593   0.975   3.758 -0.0164  0.3757  0.2924
  279SOL    HW2  848   4.588   1.029   3.680 -0.7941 -0.8240 -0.5151
  279SOL    HW3  849   4.566   1.033   3.829 -0.7735  1.0609 -0.5321
  279SOL    MW4  850   4.589   0.990   3.757  0.3103  0.3718 -0.8209
  280SOL     OW  851   3.637   1.790   0.440 -0.5987 -0.2739  0.1900
  280SOL    HW2  852   3.607   1.742   0.363 -0.6699  1.0484 -0.6409
  280SOL    HW3  853   3.714   1.742   0.470 -0.4880 -0.7307 -0.7959
  280SOL    MW4  854   3.643   1.777   0.434 -0.0443  0.3472 -0.3426
  281SOL     OW  855   3.416   0.299   3.194  0.1502  0.1905 -0.1918
  281SOL    HW2  856   3.475   0.237   3.238 -0.0547  0.1153 -0.0250
  281SOL    HW3  857   3.416   0.376   3.250 -0.9179 -0.2853  0.4857
  281SOL    MW4  858   3.424   0.301   3.207 -0.0519  0.5104 -0.1019
  282SOL     OW  859   1.196   0.180   3.266  0.0748 -0.1885 -0.4565
  282SOL    HW2  860   1.266   0.183   3.200  1.8142  1.8095  1.3577
  282SOL    HW3  861   1.186   0.270   3.295 -0.0393 -1.0885  2.5968
  282SOL    MW4  862   1.204   0.192   3.261  0.8183 -0.0039  0.0739
  283SOL     OW  863   5.224   2.082   4.625  0.2972 -0.1203  0.3145
  283SOL    HW2  864   5.182   2.117   4.704  0.7568  0.6482  0.2246
  283SOL    HW3  865   5.161   2.099   4.555 -0.0186 -0.6107  0.4729
  283SOL    MW4  866   5.210   2.089   4.626  0.4416  0.0593  0.0563
  284SOL     OW  867   4.201   6.423   5.378  0.1710  0.6729  0.2465
  284SOL    HW2  868   4.217   6.420   5.283 -1.4426 -0.7765 -0.0372
  284SOL    HW3  869   4.106   6.420   5.386  0.3099 -0.6337  1.9350
  284SOL    MW4  870   4.191   6.422   5.366  0.5789  0.1060 -0.7714
  285SOL     OW  871   0.705   5.633   0.670  0.4854 -0.0951  0.2067
  285SOL    HW2  872   0.655   5.588   0.739  0.1550  0.5676  0.4094
  285SOL    HW3  873   0.732   5.716   0.710  2.9020 -0.9637  0.5596
  285SOL    MW4  874   0.702   5.638   0.685 -0.3522  0.0414 -0.1445
  286SOL     OW  875   3.292   6.346   0.175 -0.0113 -0.0513 -0.3681
  286SOL    HW2  876   3.232   6.371   0.246 -0.4761  0.6419 -0.9834
  286SOL    HW3  877   3.309   6.253   0.189  0.7603  0.2976  1.2769
  286SOL    MW4  878   3.287   6.337   0.186 -0.5103 -0.3900 -0.7619
  287SOL     OW  879   2.198   4.207   1.113  0.0834  0.6612  0.7195
  287SOL    HW2  880   2.120   4.153   1.097  1.2130 -0.9130  0.3015
  287SOL    HW3  881   2.195   4.226   1.207 -0.0416 -0.6227  0.9882
  287SOL    MW4  882   2.187   4.202   1.123 -0.5255 -0.4066  0.1136
  288SOL     OW  883   2.890   5.208   1.543  0.0286  0.4941  0.3958
  288SOL    HW2  884   2.797   5.185   1.537  0.2261 -0.5107  1.0096
  288SOL    HW3  885   2.892   5.285   1.600 -0.2705 -0.6785  2.0450
  288SOL    MW4  886   2.878   5.215   1.549  0.3376 -0.1371  0.4589
  289SOL     OW  887   1.495   4.675   5.725 -0.1821  0.0212 -0.1181
  289SOL    HW2  888   1.443   4.610   5.772 -0.1929 -0.4567 -0.7622
  289SOL    HW3  889   1.454   4.680   5.638  0.8557 -0.3874 -0.6508
  289SOL    MW4  890   1.482   4.667   5.719 -0.0933 -0.0968  0.2467
  290SOL     OW  891   5.103   6.235   2.151  0.3079 -0.5383  0.1628
  290SOL    HW2  892   5.187   6.235   2.197  0.5440  0.2099 -0.2511
  290SOL    HW3  893   5.104   6.316   2.100 -0.1173 -1.1497 -0.8527
  290SOL    MW4  894   5.114   6.246   2.150 -0.3455 -0.0685  0.5140
  291SOL     OW  895   6.327   3.620   1.569  0.5428 -0.8575  0.0913
  291SOL    HW2  896   6.352   3.530   1.589 -0.1181 -1.2242 -0.6426
  291SOL    HW3  897   6.348   3.669   1.647  0.8344 -1.6728  0.5380
  291SOL    MW4  898   6.333   3.614   1.582 -0.1971 -0.3467 -0.1048
  292SOL     OW  899   3.453   5.014   6.342  0.0618  0.1729  0.2933
  292SOL    HW2  900   3.547   5.024   6.329  0.0415  2.8205  1.4651
  292SOL    HW3  901   3.415   5.092   6.302 -1.6730 -0.8437 -0.1589
  292SOL    MW4  902   3.460   5.026   6.335  0.1482  0.1536  0.7827
  293SOL     OW  903   0.050   4.303   1.999  0.4268 -0.2868 -0.1866
  293SOL    HW2  904   0.092   4.372   2.050 -1.2856  0.9315 -0.3719
  293SOL    HW3  905  -0.027   4.279   2.050  0.3648 -1.2459 -0.7150
  293SOL    MW4  906   0.045   4.309   2.013  0.4663 -0.0610 -0.4764
  294SOL     OW  907   3.042   1.386   3.042  0.5394  0.3754 -0.0089
  294SOL    HW2  908   3.091   1.348   2.969  2.4651  0.8751  0.9586
  294SOL    HW3  909   3.109   1.425   3.098 -1.0857  2.2316  0.7540
  294SOL    MW4  910   3.058   1.386   3.039  0.4539 -0.0671 -0.0323
  295SOL     OW  911   4.737   5.556   1.830  0.0486 -0.4319  0.1132
  295SOL    HW2  912   4.723   5.626   1.766 -1.2399 -0.5952  0.1835
  295SOL    HW3  913   4.703   5.477   1.787 -0.3359 -0.6423  0.7901
  295SOL    MW4  914   4.731   5.555   1.816  0.3207 -0.1822 -1.1932
  296SOL     OW  915   5.968   0.593   4.406 -0.2268 -0.2852 -0.0549
  296SOL    HW2  916   5.917   0.535   4.349 -0.3613  0.5788 -0.8396
  296SOL    HW3  917   5.925   0.678   4.398  2.2622  0.9005 -2.0539
  296SOL    MW4  918   5.955   0.597   4.397 -0.0815 -0.1166  0.3934
  297SOL     OW  919   0.487   5.332   2.349  0.4528 -0.1616  0.1357
  297SOL    HW2  920   0.542   5.408   2.370 -0.3072  0.0459  1.4942
  297SOL    HW3  921   0.549   5.260   2.337  1.0754  0.2680  0.7035
  297SOL    MW4  922   0.503   5.333   2.350 -0.4636  0.2596  0.7853
  298SOL     OW  923   5.270   2.977   4.676 -0.0389 -0.3347 -0.0869
  298SOL    HW2  924   5.216   3.033   4.732  1.7293  2.5684 -1.0251
  298SOL    HW3  925   5.225   2.975   4.592  0.0034 -0.0906 -0.1170
  298SOL    MW4  926   5.257   2.984   4.672  0.1316 -0.0965  0.1788
  299SOL     OW  927   2.326   3.694   5.334 -0.1867  0.3253  0.0358
  299SOL    HW2  928   2.365   3.700   5.421  0.1220  0.0892 -0.0829
  299SOL    HW3  929   2.314   3.785   5.307  0.4836  0.3988 -0.0140
  299SOL    MW4  930   2.329   3.707   5.342  0.5070  0.2305 -0.0091
  300SOL     OW  931   0.296   1.413   4.910  0.2255 -0.4947  0.5065
  300SOL    HW2  932   0.290   1.321   4.887  0.3575 -0.1124 -1.1520
  300SOL    HW3  933   0.210   1.434   4.947 -0.2128 -0.9923 -0.2213
  300SOL    MW4  934   0.284   1.404   4.912 -0.1409 -0.0618  0.2823
  301SOL     OW  935   5.425   0.223   3.881 -0.4914 -0.1514 -0.1341
  301SOL    HW2  936   5.362   0.154   3.864 -1.4291  0.4717  0.6656
  301SOL    HW3  937   5.486   0.220   3.807 -1.3875 -0.8503 -0.8614
  301SOL    MW4  938   5.425   0.214   3.869 -0.1391 -0.0001 -0.0807
  302SOL     OW  939   3.068   5.528   3.138 -0.6796  0.7560  0.0511
  302SOL    HW2  940   3.002   5.572   3.084  0.0066 -1.1889 -2.5955
  302SOL    HW3  941   3.148   5.578   3.122 -0.5201  0.2986 -0.6359
  302SOL    MW4  942   3.070   5.540   3.129  0.3006  0.0811 -0.8617
  303SOL     OW  943   0.046   6.314   6.290  0.5420 -0.3210  0.8540
  303SOL    HW2  944   0.117   6.252   6.304  1.5397  0.7537  0.6827
  303SOL    HW3  945  -0.031   6.260   6.276  0.6301 -1.5680  4.2546
  303SOL    MW4  946   0.045   6.299   6.290 -0.0975  0.2103  0.0132
  304SOL     OW  947   3.863   5.848   3.602  0.5061 -0.2346 -0.0686
  304SOL    HW2  948   3.852   5.889   3.516 -0.5852  1.0570  0.6314
  304SOL    HW3  949   3.833   5.758   3.590 -0.4663  0.1669 -0.8527
  304SOL    MW4  950   3.858   5.842   3.589  0.9593 -0.0062  0.4528
  305SOL     OW  951   4.674   4.032   1.973 -0.1513 -0.5602  0.4305
  305SOL    HW2  952   4.686   3.963   2.038 -0.5372 -2.0126 -0.9600
  305SOL    HW3  953   4.764   4.057   1.949  0.0821  1.7461  3.1545
  305SOL    MW4  954   4.688   4.026   1.978  0.3097  0.5964  0.4039
  306SOL     OW  955   3.830   3.224   3.285  0.2942  0.3416  0.0924
  306SOL    HW2  956   3.771   3.154   3.258 -1.1081  1.7344 -0.5940
  306SOL    HW3  957   3.817   3.231   3.380  1.5672 -1.2637  0.4467
  306SOL    MW4  958   3.821   3.215   3.294 -0.0992 -0.0427  0.3872
  307SOL     OW  959   0.910   4.625   4.275  0.3155  0.1912  0.0554
  307SOL    HW2  960   0.985   4.631   4.215 -0.6650  0.2991 -1.1908
  307SOL    HW3  961   0.867   4.542   4.251  0.0395  0.1189  0.7783
  307SOL    MW4  962   0.915   4.615   4.264 -0.3773 -0.2790 -0.5822
  308SOL     OW  963   3.353   6.339   4.799 -0.1399 -0.2572 -0.6029
  308SOL    HW2  964   3.302   6.290   4.736 -0.1439 -0.8555 -0.1430
  308SOL    HW3  965   3.436   6.357   4.755 -1.1438  1.7403 -1.7902
  308SOL    MW4  966   3.358   6.335   4.785 -0.5716  0.4036 -0.0981
  309SOL     OW  967   2.572   1.436   2.377 -0.5098  0.2782 -0.2993
  309SOL    HW2  968   2.562   1.381   2.299  1.5688  0.0449 -0.4717
  309SOL    HW3  969   2.571   1.526   2.344 -0.9868  0.2365 -0.4042
  309SOL    MW4  970   2.571   1.440   2.362  0.5100  0.1849  0.1039
  310SOL     OW  971   6.261   1.030   1.113 -0.7030  0.0006 -0.0537
  310SOL    HW2  972   6.216   0.996   1.036 -1.5211  1.2237 -0.1447
  310SOL    HW3  973   6.201   1.095   1.150 -0.0306 -0.0523  1.2173
  310SOL    MW4  974   6.247   1.034   1.108 -0.0309 -0.6212 -0.0187
  311SOL     OW  975   4.264   3.713   4.438  0.5500  0.5712  0.1736
  311SOL    HW2  976   4.238   3.673   4.354 -2.6559  1.9875  0.3215
  311SOL    HW3  977   4.267   3.807   4.419  1.8772  0.7501  1.2007
  311SOL    MW4  978   4.261   3.720   4.424  0.6612  0.3637  0.4965
  312SOL     OW  979   1.305   3.913   3.738  0.5163  0.1040 -0.1218
  312SOL    HW2  980   1.328   3.991   3.687  0.6206 -0.0276 -0.2786
  312SOL    HW3  981   1.389   3.883   3.774  0.6948 -0.7209 -1.1800
  312SOL    MW4  982   1.319   3.919   3.736 -0.3396  0.0848 -0.9883
  313SOL     OW  983   0.922   4.127   2.783 -0.0986 -0.0993  0.4678
  313SOL    HW2  984   0.985   4.167   2.724  1.0506 -0.7653  1.2122
  313SOL    HW3  985   0.972   4.108   2.863 -1.3746 -0.1065  1.3003
  313SOL    MW4  986   0.937   4.130   2.786 -0.2451 -0.4848 -0.1527
  314SOL     OW  987   2.934   0.217   0.672 -0.0945 -0.5177 -0.2505
  314SOL    HW2  988   2.854   0.223   0.619 -1.5092 -0.5228  1.7666
  314SOL    HW3  989   2.966   0.307   0.678 -0.0845 -0.4743 -0.8240
  314SOL    MW4  990   2.928   0.229   0.665 -0.0034  0.2359  0.0843
  315SOL     OW  991   4.175   3.329   5.521 -0.1577  0.5747 -0.3254
  315SOL    HW2  992   4.101   3.388   5.528 -0.1096  0.8418 -1.7797
  315SOL    HW3  993   4.145   3.247   5.560 -1.0321  0.8454 -0.4191
  315SOL    MW4  994   4.161   3.326   5.527 -0.9971  0.4413  0.0090
  316SOL     OW  995   4.819   5.423   4.024  0.1628  0.0842  0.0788
  316SOL    HW2  996   4.891   5.485   4.038  0.1418 -0.3048  2.2114
  316SOL    HW3  997   4.775   5.418   4.108 -0.5550 -1.9800 -0.3631
  316SOL    MW4  998   4.823   5.431   4.037 -0.4388  0.4154 -0.4197
  317SOL     OW  999   0.493   3.320   0.801 -0.1135 -0.0498  0.1695
  317SOL    HW2 1000   0.562   3.314   0.867  0.2011 -0.6274 -0.2016
  317SOL    HW3 1001   0.413   3.337   0.851  0.3724  1.2544  0.5621
  317SOL    MW4 1002   0.492   3.322   0.816 -0.0202 -0.3701  0.0768
  318SOL     OW 1003   1.047   1.066   3.405  0.4571  0.2913 -0.0872
  318SOL    HW2 1004   1.022   0.981   3.368 -0.5535 -0.0318  1.2945
  318SOL    HW3 1005   0.983   1.127   3.370 -1.3606 -0.2461  2.0968
  318SOL    MW4 1006   1.036   1.063   3.395 -0.0297  0.3523 -0.2117
  319SOL     OW 1007   5.877   4.485   2.767 -0.0069 -0.4404  0.2359
  319SOL    HW2 1008   5.881   4.449   2.856  2.0022 -0.2975  0.2280
  319SOL    HW3 1009   5.857   4.578   2.780  0.4780 -0.3779  0.5413
  319SOL    MW4 1010   5.875   4.493   2.780 -0.0011  0.0792  0.0380
  320SOL     OW 1011   4.129   2.462   4.736 -0.0006  0.2219 -0.0265
  320SOL    HW2 1012   4.222   2.482   4.726 -0.1906  1.1752  0.0404
  320SOL    HW3 1013   4.105   2.420   4.654  0.2967  0.7337 -0.3781
  320SOL    MW4 1014   4.138   2.459   4.724 -0.0511 -0.0285 -0.0071
  321SOL     OW 1015   2.751   3.766   3.179  0.0071 -0.1137 -0.5053
  321SOL    HW2 1016   2.734   3.701   3.111 -1.2658 -1.0834  0.6837
  321SOL    HW3 1017   2.679   3.828   3.172  0.7015  0.6547 -1.0089
  321SOL    MW4 1018   2.739   3.765   3.169 -0.8289 -0.3099  0.2244
  322SOL     OW 1019   4.864   0.324   2.464  0.8604  0.1326  0.0164
  322SOL    HW2 1020   4.866   0.276   2.546 -1.0956  1.1406  0.7090
  322SOL    HW3 1021   4.810   0.400   2.481 -0.0084  0.1428 -2.3178
  322SOL    MW4 1022   4.857   0.327   2.477  0.0510  0.4274 -0.3118
  323SOL     OW 1023   5.782   4.638   2.526 -0.1216  0.1157 -0.2635
  323SOL    HW2 1024   5.856   4.595   2.483  0.1579  1.1954 -0.8932
  323SOL    HW3 1025   5.717   4.648   2.456 -0.9114 -0.8770  0.2994
  323SOL    MW4 1026   5.783   4.634   2.511  0.2462 -1.0523  0.4040
  324SOL     OW 1027   3.559   6.164   2.414 -0.0718 -0.2651 -0.3129
  324SOL    HW2 1028   3.557   6.257   2.440  1.4513 -0.0358 -0.9570
  324SOL    HW3 1029   3.546   6.117   2.496 -0.0329  0.5124  0.1569
  324SOL    MW4 1030   3.557   6.170   2.428 -0.3037 -0.5225  0.4451
  325SOL     OW 1031   3.742   5.350   2.735  0.1752  0.1799 -0.4712
  325SOL    HW2 1032   3.748   5.281   2.802 -1.3258 -0.7139 -1.2047
  325SOL    HW3 1033   3.802   5.321   2.666 -0.5397 -0.4846 -0.8303
  325SOL    MW4 1034   3.751   5.337   2.735 -0.2064  0.2405  0.3098
  326SOL     OW 1035   5.673   5.509   3.194  0.5824 -0.1208  0.1600
  326SOL    HW2 1036   5.708   5.427   3.229  2.1205  0.3241 -0.2759
  326SOL    HW3 1037   5.750   5.558   3.166 -0.4189  0.7898 -1.1031
  326SOL    MW4 1038   5.688   5.504   3.195  0.4822 -0.1401  0.3700
  327SOL     OW 1039   4.590   0.950   1.215 -0.1382 -0.1610 -0.0032
  327SOL    HW2 1040   4.609   0.907   1.132 -1.4260 -0.1470 -0.3201
  327SOL    HW3 1041   4.584   0.878   1.278 -0.7150 -0.3105 -0.2265
  327SOL    MW4 1042   4.592   0.935   1.212 -0.4495  0.0811  0.5830
  328SOL     OW 1043   2.993   1.890   2.410 -0.5591  0.5185 -0.8027
  328SOL    HW2 1044   3.054   1.826   2.374 -1.0863  0.2702 -1.2751
  328SOL    HW3 1045   3.033   1.975   2.389 -0.3652  0.3603 -1.0865
  328SOL    MW4 1046   3.006   1.893   2.403 -0.2591 -0.6847  0.2980
  329SOL     OW 1047   3.081   4.902   2.479  0.2575 -0.3386  0.2303
  329SOL    HW2 1048   3.105   4.922   2.388 -0.8407 -2.0835 -0.4828
  329SOL    HW3 1049   3.081   4.988   2.522  2.1147  0.3791 -1.0612
  329SOL    MW4 1050   3.084   4.916   2.472 -0.2848 -0.3331 -0.3940
  330SOL     OW 1051   2.592   0.514   5.761 -0.0332  0.5768  0.0638
  330SOL    HW2 1052   2.656   0.506   5.832 -0.4293 -0.7448  0.2851
  330SOL    HW3 1053   2.518   0.560   5.801 -0.3355 -0.3347  0.5777
  330SOL    MW4 1054   2.591   0.519   5.776  0.4258 -0.1149  0.4321
  331SOL     OW 1055   5.841   1.592   4.166 -0.1492 -0.0358 -0.1290
  331SOL    HW2 1056   5.757   1.550   4.183 -0.8920  1.2634 -0.4051
  331SOL    HW3 1057   5.905   1.521   4.167 -1.3796 -1.1897 -0.9297
  331SOL    MW4 1058   5.839   1.577   4.169 -0.0351  0.0910 -0.2208
  332SOL     OW 1059   1.632   4.412   6.025 -0.3410  0.3314  0.0335
  332SOL    HW2 1060   1.545   4.441   5.996 -0.1064  0.1974 -0.8340
  332SOL    HW3 1061   1.691   4.443   5.957  0.2140 -0.1290  0.3015
  332SOL    MW4 1062   1.628   4.420   6.012  0.3063 -0.2691 -0.4882
  333SOL     OW 1063   3.422   0.578   1.279 -0.3117  0.0936 -0.2812
  333SOL    HW2 1064   3.336   0.536   1.280  0.3018 -1.1986  0.7667
  333SOL    HW3 1065   3.406   0.664   1.240 -2.4629  0.7461  1.8277
  333SOL    MW4 1066   3.408   0.583   1.274 -0.2310  0.0484  1.1077
  334SOL     OW 1067   5.503   5.824   4.782 -0.2617 -0.3335  0.6805
  334SOL    HW2 1068   5.505   5.764   4.856  0.0654  0.9763  1.7775
  334SOL    HW3 1069   5.546   5.904   4.815 -0.4118  0.3916 -0.8128
  334SOL    MW4 1070   5.509   5.827   4.796  0.0857  0.0610 -0.1636
  335SOL     OW 1071   3.185   5.472   0.452 -0.2271  0.4795  0.0753
  335SOL    HW2 1072   3.186   5.562   0.419 -2.0079  0.9957  1.2411
  335SOL    HW3 1073   3.100   5.438   0.424 -0.3107 -0.2286  1.1320
  335SOL    MW4 1074   3.174   5.480   0.444  0.2084  0.1255 -0.2529
  336SOL     OW 1075   0.513   1.905   4.766  0.0318 -0.0519  0.0816
  336SOL    HW2 1076   0.488   1.997   4.773  2.6656  0.8915 -1.2288
  336SOL    HW3 1077   0.570   1.890   4.841  2.9892  0.7613 -1.8136
  336SOL    MW4 1078   0.518   1.915   4.777  0.6508 -0.8419 -0.1315
  337SOL     OW 1079   2.484   1.005   5.311  0.3075 -0.1350  0.2252
  337SOL    HW2 1080   2.462   0.913   5.303  0.8258 -0.1355 -1.9444
  337SOL    HW3 1081   2.561   1.016   5.256 -0.0981  1.6905 -0.0558
  337SOL    MW4 1082   2.491   0.995   5.302 -0.5128 -1.0823  0.3863
  338SOL     OW 1083   1.762   6.079   4.628 -0.0985  0.2084  0.6274
  338SOL    HW2 1084   1.832   6.106   4.687 -0.0255  0.5857  0.3724
  338SOL    HW3 1085   1.807   6.053   4.548 -0.2530  0.5228  0.4372
  338SOL    MW4 1086   1.777   6.079   4.625  0.6227 -0.1774  0.5446
  339SOL     OW 1087   2.353   5.441   6.111 -0.1700  0.0667 -0.6147
  339SOL    HW2 1088   2.275   5.416   6.061 -1.5361 -3.1650  2.7017
  339SOL    HW3 1089   2.327   5.520   6.157 -1.1147 -0.3530 -0.3971
  339SOL    MW4 1090   2.339   5.448   6.110 -0.4745 -0.0963  0.3194
  340SOL     OW 1091   2.367   3.279   4.483  0.1793  0.7808  0.3799
  340SOL    HW2 1092   2.409   3.211   4.430 -0.5230  0.2121  0.5371
  340SOL    HW3 1093   2.316   3.330   4.420 -0.5061  0.2199  0.4706
  340SOL    MW4 1094   2.366   3.277   4.468 -0.2117  0.0738  0.3625
  341SOL     OW 1095   5.194   1.936   4.306 -0.3592 -0.6059 -0.3517
  341SOL    HW2 1096   5.179   1.938   4.211  0.2419  0.4926 -0.4362
  341SOL    HW3 1097   5.189   2.028   4.333  1.5904 -0.6708  0.3390
  341SOL    MW4 1098   5.191   1.949   4.297  0.1516 -0.0135 -0.4169
  342SOL     OW 1099   2.354   3.106   3.641  0.1040 -0.1576  0.1741
  342SOL    HW2 1100   2.362   3.092   3.547 -0.9956  1.0809 -0.1270
  342SOL    HW3 1101   2.435   3.070   3.677  0.0508 -1.6790 -1.1067
  342SOL    MW4 1102   2.366   3.099   3.634 -0.2299 -0.5733 -0.2666
  343SOL     OW 1103   2.571   3.200   0.124  0.0008 -0.3291  0.5997
  343SOL    HW2 1104   2.602   3.201   0.033  0.0662  1.5668  0.6222
  343SOL    HW3 1105   2.477   3.186   0.117 -0.1519  0.8080  0.1618
  343SOL    MW4 1106   2.563   3.198   0.111 -0.4987 -0.3093 -0.3834
  344SOL     OW 1107   3.828   3.144   0.409  0.1248  0.3900 -0.0112
  344SOL    HW2 1108   3.791   3.150   0.497  0.2945  0.9024  0.0266
  344SOL    HW3 1109   3.904   3.086   0.419 -0.2967 -0.1569  0.0316
  344SOL    MW4 1110   3.833   3.137   0.422 -0.4813  0.5443 -0.4372
  345SOL     OW 1111   1.691   5.070   4.717 -0.4231 -0.3493  0.2991
  345SOL    HW2 1112   1.761   5.011   4.689 -0.1431  0.0210  0.2081
  345SOL    HW3 1113   1.732   5.157   4.719 -0.7979 -0.1744  0.5485
  345SOL    MW4 1114   1.705   5.074   4.713  0.7583 -0.1799 -0.2405
  346SOL     OW 1115   3.619   0.673   1.943 -0.0802  0.0820 -0.0923
  346SOL    HW2 1116   3.523   0.680   1.941 -0.1227 -0.3246 -2.3048
  346SOL    HW3 1117   3.642   0.644   1.854  2.1020  0.1907  0.3973
  346SOL    MW4 1118   3.609   0.670   1.931 -0.3121 -0.4088 -0.2414
  347SOL     OW 1119   4.794   1.766   1.602 -0.4503  0.4826 -0.2781
  347SOL    HW2 1120   4.804   1.839   1.540  1.0112 -0.3021 -1.0016
  347SOL    HW3 1121   4.711   1.725   1.577 -1.6954  2.2719  0.6017
  347SOL    MW4 1122   4.784   1.770   1.590  0.3422 -0.0085  0.2494
  348SOL     OW 1123   5.869   0.466   5.025 -0.7032 -0.1499 -0.2815
  348SOL    HW2 1124   5.864   0.506   4.938  1.5744 -1.2213 -0.9882
  348SOL    HW3 1125   5.796   0.504   5.073 -1.9830  0.5678 -2.6189
  348SOL    MW4 1126   5.858   0.476   5.020  0.1765  0.2002 -0.6757
  349SOL     OW 1127   2.255   1.397   1.065 -0.1844 -0.0172  0.4176
  349SOL    HW2 1128   2.168   1.437   1.064 -0.7728 -1.2575 -1.2583
  349SOL    HW3 1129   2.260   1.353   1.150 -1.5759 -0.7200  0.1600
  349SOL    MW4 1130   2.244   1.397   1.076  0.2444  0.7051  0.2797
  350SOL     OW 1131   5.416   0.176   3.244 -0.1521 -0.1306  0.2064
  350SOL    HW2 1132   5.408   0.164   3.339  0.5855  1.9169  0.5895
  350SOL    HW3 1133   5.508   0.157   3.226  0.8070  3.4019  0.6828
  350SOL    MW4 1134   5.427   0.172   3.254 -0.1677  0.6336 -0.4177
  351SOL     OW 1135   0.524   0.561   2.765  0.1755  0.3656  0.2438
  351SOL    HW2 1136   0.546   0.647   2.799  0.3741  1.4548 -2.4153
  351SOL    HW3 1137   0.548   0.564   2.672 -2.0490 -1.7170 -0.5330
  351SOL    MW4 1138   0.530   0.573   2.757  0.6192  0.2533 -0.2272
  352SOL     OW 1139   5.221   4.511   4.736 -0.0889  0.2333 -0.0249
  352SOL    HW2 1140   5.193   4.514   4.645  1.5843 -0.8949 -0.6222
  352SOL    HW3 1141   5.212   4.420   4.762  2.2596 -0.0948 -0.0754
  352SOL    MW4 1142   5.216   4.499   4.727 -0.0329  1.2192  0.0128
  353SOL     OW 1143   1.489   0.392   6.384 -0.0856  0.2777  0.2482
  353SOL    HW2 1144   1.524   0.471   6.425 -0.7009 -0.0226  1.3912
  353SOL    HW3 1145   1.536   0.385   6.301  2.4055  0.0655  1.5573
  353SOL    MW4 1146   1.500   0.401   6.378  0.0217 -0.1713 -0.4093
  354SOL     OW 1147   5.006   1.317   1.214  0.4978 -0.4876 -0.4425
  354SOL    HW2 1148   5.020   1.239   1.268 -0.9543 -0.4989 -0.0491
  354SOL    HW3 1149   5.078   1.315   1.150 -0.1717 -2.8070 -1.2138
  354SOL    MW4 1150   5.018   1.307   1.213  0.7071 -0.6297 -0.4595
  355SOL     OW 1151   3.153   3.806   6.424 -0.4550 -0.3374  0.9217
  355SOL    HW2 1152   3.089   3.743   6.392 -1.3225  0.0757  1.8077
  355SOL    HW3 1153   3.147   3.879   6.362  0.7163 -1.1829 -0.2414
  355SOL    MW4 1154   3.144   3.807   6.411 -0.4750  0.1787  0.9325
  356SOL     OW 1155   5.915   4.105   6.150  0.2736  0.1672  0.3022
  356SOL    HW2 1156   5.987   4.123   6.090  0.3159 -0.2335  0.2285
  356SOL    HW3 1157   5.839   4.093   6.093  0.1716  0.4595  0.3723
  356SOL    MW4 1158   5.915   4.106   6.134  1.0420  0.2213  0.1792
  357SOL     OW 1159   0.665   0.542   5.272  0.4166 -0.5435  0.3122
  357SOL    HW2 1160   0.708   0.472   5.320  0.9874 -0.1165  0.4412
  357SOL    HW3 1161   0.731   0.611   5.267 -0.4068  0.3179  0.9347
  357SOL    MW4 1162   0.679   0.542   5.278  0.1569  0.6222 -0.0998
  358SOL     OW 1163   2.676   2.761   3.775 -0.1578 -0.1827 -0.3071
  358SOL    HW2 1164   2.717   2.731   3.693  0.7071 -0.1111  0.0910
  358SOL    HW3 1165   2.664   2.855   3.763  1.3019  0.0895  0.1904
  358SOL    MW4 1166   2.679   2.769   3.762  0.0604 -0.1142  0.3823
  359SOL     OW 1167   5.708   3.671   5.718  0.0725  0.0039 -0.1820
  359SOL    HW2 1168   5.689   3.753   5.673 -1.3773 -0.2624 -0.1177
  359SOL    HW3 1169   5.776   3.693   5.781  0.8771  0.7736 -1.2751
  359SOL    MW4 1170   5.715   3.685   5.720 -0.0613 -0.0057  0.0108
  360SOL     OW 1171   2.166   0.630   3.590 -0.0214 -0.7506  0.4456
  360SOL    HW2 1172   2.256   0.628   3.621 -0.2051 -0.7793  1.0050
  360SOL    HW3 1173   2.148   0.541   3.560  1.0163 -0.0942 -2.3479
  360SOL    MW4 1174   2.175   0.618   3.590  0.4267 -0.1548 -0.2330
  361SOL     OW 1175   0.681   0.923   5.509  0.3316  0.1614 -0.4830
  361SOL    HW2 1176   0.609   0.905   5.569  0.9549 -0.6379  0.0461
  361SOL    HW3 1177   0.639   0.932   5.424 -0.5031  0.7303 -0.0376
  361SOL    MW4 1178   0.666   0.922   5.506  0.2311  0.1160  0.0553
  362SOL     OW 1179   3.472   5.957   6.129 -0.4536 -0.3217 -0.1318
  362SOL    HW2 1180   3.494   5.964   6.036 -0.1973  1.0656  0.0139
  362SOL    HW3 1181   3.470   5.863   6.146 -0.5399 -0.5987 -1.5435
  362SOL    MW4 1182   3.474   5.946   6.119 -0.0333 -0.0108 -0.1744
  363SOL     OW 1183   1.888   4.208   5.460 -0.6260  0.3740  0.3081
  363SOL    HW2 1184   1.837   4.211   5.541 -0.3377  1.0229  0.4705
  363SOL    HW3 1185   1.829   4.171   5.395 -0.8013 -0.3438  0.8585
  363SOL    MW4 1186   1.874   4.203   5.462  0.7425 -0.3566 -0.1090
  364SOL     OW 1187   1.762   6.307   0.811  0.8004 -0.2904 -0.4693
  364SOL    HW2 1188   1.813   6.385   0.833  0.1764  0.1268 -0.4572
  364SOL    HW3 1189   1.793   6.282   0.724  1.6293 -0.5605 -0.1009
  364SOL    MW4 1190   1.773   6.314   0.802 -0.0093 -0.5880  0.7766
  365SOL     OW 1191   0.498   3.177   4.264 -0.5249 -0.2330  0.0058
  365SOL    HW2 1192   0.532   3.244   4.204  0.1812 -0.4807  0.1144
  365SOL    HW3 1193   0.434   3.223   4.318 -0.7355  0.1328 -0.5467
  365SOL    MW4 1194   0.494   3.192   4.263  0.0519  0.2577  0.6141
  366SOL     OW 1195   2.077   1.914   5.103  0.7526 -0.1335 -0.7414
  366SOL    HW2 1196   1.981   1.921   5.100  0.6557 -0.2286  1.0001
  366SOL    HW3 1197   2.106   1.999   5.135  1.2536 -0.1310 -1.1984
  366SOL    MW4 1198   2.068   1.926   5.107 -0.1149 -0.8934 -0.1945
  367SOL     OW 1199   0.203   4.512   3.516 -0.1117 -0.1448  0.4372
  367SOL    HW2 1200   0.290   4.478   3.494 -0.6221 -1.6743  0.6236
  367SOL    HW3 1201   0.212   4.607   3.511  1.2265 -0.3023 -0.8241
  367SOL    MW4 1202   0.216   4.520   3.513  0.1069 -0.1133 -0.6668
  368SOL     OW 1203   0.142   2.377   1.595 -0.4428  0.5836 -0.4701
  368SOL    HW2 1204   0.193   2.353   1.518  1.0019 -0.1147  0.6551
  368SOL    HW3 1205   0.207   2.387   1.665 -1.7254  0.9842  0.7095
  368SOL    MW4 1206   0.157   2.375   1.594 -0.2205 -0.1611 -0.3252
  369SOL     OW 1207   2.538   4.174   2.409  0.3066 -0.4038 -0.2786
  369SOL    HW2 1208   2.630   4.167   2.384  0.3578 -1.1793  0.0913
  369SOL    HW3 1209   2.509   4.083   2.420  0.0411 -0.1462  1.5320
  369SOL    MW4 1210   2.546   4.161   2.407 -0.7363  0.0967 -0.2688
  370SOL     OW 1211   5.724   4.464   0.592 -0.1130  0.3203  0.0412
  370SOL    HW2 1212   5.727   4.559   0.589  0.1905  0.3507  1.0225
  370SOL    HW3 1213   5.681   4.443   0.675 -2.3163 -0.3945 -1.2228
  370SOL    MW4 1214   5.719   4.474   0.602 -0.0007  0.0109 -0.2497
  371SOL     OW 1215   2.415   4.653   0.976  0.8709  0.2413  0.0091
  371SOL    HW2 1216   2.361   4.647   0.897  2.1288  1.3387 -0.9789
  371SOL    HW3 1217   2.420   4.747   0.994  1.0391  0.0377  1.1049
  371SOL    MW4 1218   2.409   4.665   0.968 -0.0955  0.3304  0.2878
  372SOL     OW 1219   5.033   5.031   4.353  0.5006 -0.7291  0.4154
  372SOL    HW2 1220   5.103   5.046   4.417  1.1090  0.3070 -0.4609
  372SOL    HW3 1221   5.047   4.942   4.322  0.4703 -1.0839  1.3657
  372SOL    MW4 1222   5.044   5.021   4.357  0.4134  0.6341 -0.5405
  373SOL     OW 1223   2.759   4.202   4.156  0.0768  0.2588  0.5451
  373SOL    HW2 1224   2.743   4.127   4.214  0.4887  0.9617  1.6103
  373SOL    HW3 1225   2.745   4.278   4.212 -0.2137  0.9797 -0.4933
  373SOL    MW4 1226   2.755   4.202   4.171  0.1867  0.2371  0.5796
  374SOL     OW 1227   3.721   4.593   4.573 -0.1025 -0.2905 -0.5976
  374SOL    HW2 1228   3.793   4.621   4.629  0.1530  0.1331 -1.1284
  374SOL    HW3 1229   3.713   4.662   4.507  0.5130 -1.4242 -1.9116
  374SOL    MW4 1230   3.729   4.606   4.572 -0.1923  0.0594  0.1974
  375SOL     OW 1231   6.140   4.788   6.033  0.0695  0.2474 -0.2418
  375SOL    HW2 1232   6.057   4.741   6.020 -0.3839  0.8853  0.2469
  375SOL    HW3 1233   6.184   4.785   5.948 -1.8059  2.4662 -1.4029
  375SOL    MW4 1234   6.135   4.782   6.020  1.1532  0.2581 -0.8625
  376SOL     OW 1235   3.267   5.743   3.877 -0.1304 -0.0499 -0.2643
  376SOL    HW2 1236   3.334   5.713   3.816 -0.5462 -0.2745 -0.6134
  376SOL    HW3 1237   3.285   5.696   3.958 -0.3223 -0.6736 -0.5826
  376SOL    MW4 1238   3.278   5.733   3.879  0.0419  0.1814  0.3543
  377SOL     OW 1239   2.828   1.873   4.076  0.4258 -0.3357  0.2519
  377SOL    HW2 1240   2.831   1.943   4.010  1.0746  0.7742  1.3992
  377SOL    HW3 1241   2.755   1.817   4.048 -1.7863  2.1599  0.5651
  377SOL    MW4 1242   2.819   1.875   4.063  0.0141 -0.1708  0.4587
  378SOL     OW 1243   0.405   3.422   2.144  0.0159 -0.3431  0.0502
  378SOL    HW2 1244   0.451   3.502   2.121 -0.8688  0.0597 -0.3718
  378SOL    HW3 1245   0.409   3.367   2.066 -2.2746  0.6908 -0.9017
  378SOL    MW4 1246   0.411   3.425   2.131  0.2236 -0.0147  0.1110
  379SOL     OW 1247   0.624   1.695   2.158  0.0452 -0.0831  0.0620
  379SOL    HW2 1248   0.562   1.766   2.142 -0.2360 -0.3172  0.1188
  379SOL    HW3 1249   0.638   1.695   2.253  1.2732  0.9311 -0.0885
  379SOL    MW4 1250   0.618   1.704   2.168 -0.0193 -0.0694 -0.1548
  380SOL     OW 1251   3.370   2.252   5.029 -0.0049  0.3944  0.0906
  380SOL    HW2 1252   3.455   2.217   5.058 -1.0202 -1.0488  1.5256
  380SOL    HW3 1253   3.307   2.186   5.057 -1.4812  0.6950 -2.3206
  380SOL    MW4 1254   3.373   2.238   5.037  0.5397 -0.3132  1.5737
  381SOL     OW 1255   4.855   1.292   5.095  0.2168 -0.6476  0.5185
  381SOL    HW2 1256   4.948   1.274   5.083  0.0164 -0.1464 -2.8513
  381SOL    HW3 1257   4.814   1.205   5.093  0.4910 -0.7724  0.1631
  381SOL    MW4 1258   4.862   1.278   5.093 -0.1838 -0.6546 -0.1497
  382SOL     OW 1259   3.854   4.455   5.563 -0.4509  0.5065  0.2951
  382SOL    HW2 1260   3.891   4.499   5.639 -1.3533 -0.4971  1.3606
  382SOL    HW3 1261   3.811   4.525   5.513  0.5201  1.2402  0.4559
  382SOL    MW4 1262   3.853   4.470   5.566  1.0501 -0.0391 -1.0109
  383SOL     OW 1263   2.804   3.280   1.406  0.4793  0.0838  0.0826
  383SOL    HW2 1264   2.830   3.323   1.488 -0.5332 -1.2981  1.1698
  383SOL    HW3 1265   2.840   3.336   1.338  2.5153  0.5853  1.4595
  383SOL    MW4 1266   2.812   3.293   1.408 -0.0832 -0.2052 -0.3684
  384SOL     OW 1267   5.876   2.555   0.998  0.1384  0.3773  0.1058
  384SOL    HW2 1268   5.947   2.542   1.062  0.4975  1.3550 -0.0699
  384SOL    HW3 1269   5.802   2.584   1.051  0.2874  0.6974  0.1452
  384SOL    MW4 1270   5.876   2.557   1.014  0.4602 -0.4394 -0.4069
  385SOL     OW 1271   2.282   4.498   3.366 -0.3391 -0.2236  0.0005
  385SOL    HW2 1272   2.275   4.586   3.403 -0.4726  1.0284 -2.7703
  385SOL    HW3 1273   2.373   4.492   3.336 -0.2093 -1.2392  0.5252
  385SOL    MW4 1274   2.293   4.508   3.367  0.0297 -0.0927  0.5071
  386SOL     OW 1275   4.838   4.835   3.368  0.7547 -0.3608 -0.0321
  386SOL    HW2 1276   4.891   4.903   3.325  0.6755 -0.1656  0.1761
  386SOL    HW3 1277   4.806   4.781   3.296 -0.4124  0.7079 -0.3511
  386SOL    MW4 1278   4.841   4.837   3.353  0.0649 -0.4139  0.8614
  387SOL     OW 1279   2.761   0.547   4.426  0.5379 -0.0229  0.1942
  387SOL    HW2 1280   2.807   0.541   4.343 -1.7767 -1.2207 -1.1150
  387SOL    HW3 1281   2.690   0.609   4.410 -0.8945 -1.4467  0.7155
  387SOL    MW4 1282   2.758   0.554   4.413  0.1033  0.2647  0.2073
  388SOL     OW 1283   2.168   5.074   5.146 -0.1957  0.2845  0.0916
  388SOL    HW2 1284   2.147   5.076   5.053 -0.3987 -2.5103 -0.0077
  388SOL    HW3 1285   2.251   5.122   5.153 -1.0845  2.1538 -1.1722
  388SOL    MW4 1286   2.176   5.081   5.135 -0.3785  0.6524 -1.2312
  389SOL     OW 1287   4.390   4.167   5.583  0.1121  0.4335 -0.0728
  389SOL    HW2 1288   4.474   4.133   5.615 -0.3432  0.9611  1.8041
  389SOL    HW3 1289   4.340   4.089   5.558  1.2899  0.1349 -1.6423
  389SOL    MW4 1290   4.395   4.152   5.584  0.1028 -0.2014  0.5010
  390SOL     OW 1291   4.446   5.315   1.106 -0.4328  0.2306  0.6438
  390SOL    HW2 1292   4.420   5.406   1.089 -0.4176  0.1757  0.3172
  390SOL    HW3 1293   4.533   5.308   1.068  0.3289  0.5877  2.2705
  390SOL    MW4 1294   4.454   5.326   1.099  0.1767 -0.3712 -0.2301
  391SOL     OW 1295   5.781   3.391   2.356  0.5417 -0.1102 -0.5585
  391SOL    HW2 1296   5.735   3.327   2.301 -1.0779 -1.3606  2.0815
  391SOL    HW3 1297   5.858   3.344   2.388 -0.3429 -0.6214  0.9174
  391SOL    MW4 1298   5.785   3.377   2.353  0.2677  0.2512 -0.1264
  392SOL     OW 1299   5.506   2.043   4.570  0.2266 -0.3538  0.2692
  392SOL    HW2 1300   5.520   1.970   4.510  0.9766 -0.4933  0.6009
  392SOL    HW3 1301   5.425   2.084   4.540 -0.1922 -1.3149  0.0753
  392SOL    MW4 1302   5.497   2.039   4.558 -0.1074 -0.4254  0.3497
  393SOL     OW 1303   0.854   2.551   1.985  0.2647 -0.0045 -0.3326
  393SOL    HW2 1304   0.849   2.580   1.893 -0.9275 -0.3915 -0.3994
  393SOL    HW3 1305   0.764   2.534   2.010  0.5789  0.1081  0.9343
  393SOL    MW4 1306   0.842   2.553   1.976  0.5390 -0.4177  0.7676
  394SOL     OW 1307   3.462   1.170   4.573 -0.0117 -0.1146 -0.0052
  394SOL    HW2 1308   3.510   1.244   4.611  0.7714 -1.4698  1.7880
  394SOL    HW3 1309   3.525   1.129   4.514  0.5537 -0.9855  1.1712
  394SOL    MW4 1310   3.477   1.174   4.570  0.2882 -0.5550  0.4641
  395SOL     OW 1311   1.338   0.788   4.760 -0.2197  0.0315 -0.4161
  395SOL    HW2 1312   1.355   0.821   4.672  0.4523  0.0139 -0.2945
  395SOL    HW3 1313   1.349   0.693   4.753 -3.2185 -0.3912 -1.0243
  395SOL    MW4 1314   1.341   0.780   4.747 -0.3917 -0.3958  0.3683
  396SOL     OW 1315   3.178   4.462   3.363 -0.3080 -0.3575  0.8708
  396SOL    HW2 1316   3.161   4.368   3.363  2.0819 -0.8571  0.3175
  396SOL    HW3 1317   3.192   4.483   3.271  1.5320  0.0158  1.2057
  396SOL    MW4 1318   3.178   4.452   3.351  0.3420 -0.0271 -0.1125
  397SOL     OW 1319   4.554   3.844   3.229  0.2817 -0.0440  0.0901
  397SOL    HW2 1320   4.581   3.904   3.299  0.8851  0.5826 -0.6520
  397SOL    HW3 1321   4.515   3.902   3.162  3.0143 -0.1006 -1.7110
  397SOL    MW4 1322   4.552   3.860   3.229 -0.1411  0.3526  0.2584
  398SOL     OW 1323   2.828   2.039   1.413  0.1814  0.1911 -0.1203
  398SOL    HW2 1324   2.751   1.983   1.421 -0.0610  0.4439 -0.6439
  398SOL    HW3 1325   2.901   1.979   1.403  0.4549 -0.1827  2.9786
  398SOL    MW4 1326   2.828   2.024   1.413 -0.1820  0.4092  0.3082
  399SOL     OW 1327   2.510   3.825   1.739 -0.1785  0.0537  0.2153
  399SOL    HW2 1328   2.605   3.811   1.743 -0.1390  0.4237  0.6122
  399SOL    HW3 1329   2.479   3.803   1.827 -0.6512 -1.3785 -0.2834
  399SOL    MW4 1330   2.518   3.820   1.751 -0.1050 -0.7258  0.1069
  400SOL     OW 1331   5.568   2.358   4.171 -0.4879  0.1059 -0.1163
  400SOL    HW2 1332   5.474   2.370   4.184 -0.6602  0.2255 -1.3361
  400SOL    HW3 1333   5.600   2.321   4.254 -1.7196 -0.5617  0.0799
  400SOL    MW4 1334   5.560   2.354   4.183  0.3291 -0.6607  0.1465
  401SOL     OW 1335   5.490   6.312   3.154 -0.4585  0.4010 -0.3913
  401SOL    HW2 1336   5.455   6.382   3.099 -3.1004 -0.2506  0.3258
  401SOL    HW3 1337   5.453   6.231   3.118 -1.8188 -0.0930  1.8990
  401SOL    MW4 1338   5.481   6.311   3.142  0.3097 -0.2117 -0.0003
  402SOL     OW 1339   5.327   2.253   2.285 -0.3375 -0.2903 -0.1934
  402SOL    HW2 1340   5.346   2.163   2.260 -2.0022 -0.4663 -0.9742
  402SOL    HW3 1341   5.410   2.299   2.274 -0.1526 -1.1081 -2.7402
  402SOL    MW4 1342   5.341   2.247   2.280 -0.2669 -0.4049  0.0242
  403SOL     OW 1343   0.959   0.542   0.172  0.2108  0.3528  0.2514
  403SOL    HW2 1344   0.879   0.568   0.217  1.2921  0.4218  2.2797
  403SOL    HW3 1345   0.996   0.624   0.139  0.2810  0.5553  0.8128
  403SOL    MW4 1346   0.953   0.556   0.173  0.5570 -0.5074 -0.2160
  404SOL     OW 1347   0.777   3.682   1.312 -0.4332 -0.1835 -0.2494
  404SOL    HW2 1348   0.729   3.695   1.393  1.5398 -1.0324  1.1527
  404SOL    HW3 1349   0.794   3.771   1.280 -0.8420  0.1792  0.5084
  404SOL    MW4 1350   0.773   3.695   1.318 -0.0984 -0.3799  0.0059
  405SOL     OW 1351   3.423   0.059   5.863 -0.5340 -0.3392  0.1160
  405SOL    HW2 1352   3.344   0.011   5.838 -0.4876  0.0699 -0.8462
  405SOL    HW3 1353   3.473   0.067   5.782 -0.1654  0.6406  0.4274
  405SOL    MW4 1354   3.419   0.054   5.849  0.3673 -0.6577  0.4761
  406SOL     OW 1355   0.468   0.199   1.533  0.0276 -0.6234  0.2759
  406SOL    HW2 1356   0.476   0.293   1.517 -1.3339 -0.4784  0.3521
  406SOL    HW3 1357   0.470   0.159   1.446  4.4386 -0.9590  0.2848
  406SOL    MW4 1358   0.469   0.206   1.519  0.3046  0.4515  0.1840
  407SOL     OW 1359   2.978   1.745   6.044 -0.4334 -0.2303  0.5156
  407SOL    HW2 1360   2.936   1.812   5.989 -1.2398 -1.4198 -0.3619
  407SOL    HW3 1361   2.911   1.679   6.058  1.1155 -2.2959 -1.0710
  407SOL    MW4 1362   2.964   1.745   6.038 -0.2794 -0.1269  0.0086
  408SOL     OW 1363   5.368   0.033   6.260 -0.2013 -0.5606 -0.1030
  408SOL    HW2 1364   5.357   0.114   6.309 -0.4898 -0.7091  0.0822
  408SOL    HW3 1365   5.280  -0.003   6.253 -0.2480 -0.2505 -1.2471
  408SOL    MW4 1366   5.355   0.039   6.266  0.1465 -0.0751  0.0292
  409SOL     OW 1367   2.362   5.944   3.009 -0.3283  0.6359 -0.0602
  409SOL    HW2 1368   2.422   6.013   3.036 -0.1362  0.7483 -0.7390
  409SOL    HW3 1369   2.400   5.909   2.928  0.6120 -1.6017  1.2671
  409SOL    MW4 1370   2.375   5.949   3.002 -0.1365 -0.6847 -0.2725
  410SOL     OW 1371   4.057   1.159   5.686  0.0334 -0.1361  0.3590
  410SOL    HW2 1372   4.144   1.194   5.669  1.0313 -2.5450  0.2020
  410SOL    HW3 1373   4.006   1.183   5.608  0.8976  0.2100 -0.1088
  410SOL    MW4 1374   4.062   1.167   5.673  0.2486  0.0902  0.2847
  411SOL     OW 1375   2.089   2.694  -0.002  0.0588 -0.0498  0.1560
  411SOL    HW2 1376   2.178   2.712   0.030 -0.6054 -1.8742  3.5319
  411SOL    HW3 1377   2.032   2.745   0.055 -1.1183 -1.0306 -0.0981
  411SOL    MW4 1378   2.093   2.703   0.010  0.3303  0.1534  0.1728
  412SOL     OW 1379   2.192   0.082   3.226 -0.2316  0.4693 -0.9062
  412SOL    HW2 1380   2.182   0.173   3.199 -2.3860  1.6006  2.8679
  412SOL    HW3 1381   2.263   0.083   3.290 -0.6784 -0.3416 -0.3771
  412SOL    MW4 1382   2.200   0.094   3.231 -0.5556  0.1157  0.1785
  413SOL     OW 1383   1.141   5.102   3.085 -0.2424  0.6146 -0.4348
  413SOL    HW2 1384   1.083   5.127   3.158  0.3219 -2.0450  1.0778
  413SOL    HW3 1385   1.122   5.166   3.017 -2.5306  1.8490  1.1892
  413SOL    MW4 1386   1.130   5.114   3.086  0.1159  0.4509 -0.2864
  414SOL     OW 1387   5.916   4.527   6.227  0.2803  0.0601 -0.2565
  414SOL    HW2 1388   5.960   4.603   6.265  2.0258 -1.3865  0.7383
  414SOL    HW3 1389   5.842   4.511   6.287 -0.2919  1.1203 -0.6481
  414SOL    MW4 1390   5.912   4.535   6.240  0.1253 -0.9099  0.1134
  415SOL     OW 1391   3.294   5.651   6.012  0.1496  0.1709  0.2904
  415SOL    HW2 1392   3.234   5.622   6.080  2.0323 -0.6735  1.7027
  415SOL    HW3 1393   3.296   5.579   5.949 -0.2744  0.1714  0.2790
  415SOL    MW4 1394   3.287   5.638   6.013 -0.0731 -0.5407  0.0343
  416SOL     OW 1395   5.631   3.362   5.209  0.0261  0.1920 -0.6452
  416SOL    HW2 1396   5.650   3.421   5.136  0.9014  1.4133  0.5296
  416SOL    HW3 1397   5.716   3.345   5.249 -0.4256 -0.5580  0.0248
  416SOL    MW4 1398   5.645   3.367   5.204  0.2059  0.5034 -0.2867
  417SOL     OW 1399   3.947   3.160   5.456  0.0956  0.0161  0.3564
  417SOL    HW2 1400   3.895   3.163   5.376  0.1159  0.9074  0.3684
  417SOL    HW3 1401   3.917   3.235   5.507  1.7513  0.8630  0.1339
  417SOL    MW4 1402   3.936   3.170   5.452  0.0664  0.1350 -0.8196
  418SOL     OW 1403   3.689   2.305   2.650 -0.1556  0.2038  0.9989
  418SOL    HW2 1404   3.737   2.266   2.722  1.4895  0.6423  0.1945
  418SOL    HW3 1405   3.671   2.232   2.590  1.4836  0.3516  0.2712
  418SOL    MW4 1406   3.693   2.290   2.652 -0.1443 -0.3365  0.6722
  419SOL     OW 1407   3.907   0.628   0.144  0.4037  0.0634  0.6573
  419SOL    HW2 1408   3.847   0.553   0.154  0.8492 -0.2831  0.7530
  419SOL    HW3 1409   3.957   0.629   0.225  1.3718 -0.3998  0.0829
  419SOL    MW4 1410   3.905   0.618   0.156  0.1945  0.2424 -0.5049
  420SOL     OW 1411   0.656   2.427   6.320  0.9599  0.6506  0.1879
  420SOL    HW2 1412   0.688   2.487   6.253 -2.3767  0.9352 -1.3455
  420SOL    HW3 1413   0.697   2.343   6.299  0.7749  0.9702 -1.6132
  420SOL    MW4 1414   0.665   2.424   6.309 -0.9113 -0.1577 -0.1914
  421SOL     OW 1415   6.063   5.739   5.179  0.0881 -0.0948  0.2849
  421SOL    HW2 1416   6.151   5.760   5.147 -0.8294  1.5336 -1.3447
  421SOL    HW3 1417   6.030   5.675   5.117 -0.8283  1.3302 -0.7730
  421SOL    MW4 1418   6.071   5.734   5.167  0.3526 -1.3116 -0.2539
  422SOL     OW 1419   0.651   5.465   3.232  1.1540 -0.1080  0.4083
  422SOL    HW2 1420   0.610   5.541   3.192  0.8656  1.6725  3.7668
  422SOL    HW3 1421   0.584   5.396   3.228  0.6541  0.4284 -0.8241
  422SOL    MW4 1422   0.637   5.466   3.226  0.4712  0.5997  0.1703
  423SOL     OW 1423   4.010   4.815   5.182 -0.0490  0.1530  0.0772
  423SOL    HW2 1424   4.054   4.794   5.099 -0.6651 -0.2279 -0.1607
  423SOL    HW3 1425   4.007   4.731   5.229  0.7870  0.4754  0.7318
  423SOL    MW4 1426   4.016   4.801   5.177 -0.5310 -0.3200  0.2290
  424SOL     OW 1427   5.994   1.529   0.623 -0.4632  0.4751 -0.7738
  424SOL    HW2 1428   5.982   1.443   0.663  0.4238  0.4944 -0.4388
  424SOL    HW3 1429   6.017   1.510   0.532  2.0650  0.2297 -0.1519
  424SOL    MW4 1430   5.995   1.515   0.616  0.0203 -0.0034  0.0081
  425SOL     OW 1431   3.649   0.090   4.911 -0.7469  0.2405 -0.3143
  425SOL    HW2 1432   3.573   0.141   4.941 -0.9126 -0.1500 -0.0493
  425SOL    HW3 1433   3.618   0.046   4.832 -0.5977  0.5645 -0.5541
  425SOL    MW4 1434   3.635   0.091   4.905 -0.2419 -0.0071  0.0354
  426SOL     OW 1435   3.654   1.480   2.333 -0.1904  0.2724  0.0245
  426SOL    HW2 1436   3.601   1.543   2.284  0.6282  0.0394 -1.2350
  426SOL    HW3 1437   3.638   1.501   2.425 -0.2002  2.1098 -0.3451
  426SOL    MW4 1438   3.645   1.491   2.339 -0.5531 -0.4835 -0.5166
  427SOL     OW 1439   1.328   0.293   1.709  0.3844 -0.0380 -0.0150
  427SOL    HW2 1440   1.366   0.348   1.641 -0.4162 -0.6344 -0.9688
  427SOL    HW3 1441   1.277   0.353   1.763  0.4176  0.3240 -0.3820
  427SOL    MW4 1442   1.326   0.308   1.707  0.7816  0.0436  0.0615
  428SOL     OW 1443   1.989   2.303   0.953  0.1376 -0.2325  0.0086
  428SOL    HW2 1444   1.993   2.312   1.049  2.4321 -2.0920  0.1519
  428SOL    HW3 1445   2.047   2.371   0.920  1.9626 -1.6581  0.1527
  428SOL    MW4 1446   1.997   2.313   0.962  0.3179 -0.7952 -0.0338
  429SOL     OW 1447   5.998   3.028   1.928 -0.0902  0.4024  0.4671
  429SOL    HW2 1448   5.908   3.007   1.952  0.0649 -1.7072 -0.6289
  429SOL    HW3 1449   6.030   3.082   2.001 -1.9598  0.5367  1.2517
  429SOL    MW4 1450   5.990   3.033   1.941  0.0387  0.0560 -0.5990
  430SOL     OW 1451   4.714   4.930   5.079  0.2199 -0.2362  0.3297
  430SOL    HW2 1452   4.758   4.953   4.997  0.7305  0.8661  0.9007
  430SOL    HW3 1453   4.783   4.896   5.135  0.1120  0.2347  0.7578
  430SOL    MW4 1454   4.729   4.929   5.076 -0.0637 -0.1645 -0.0655
  431SOL     OW 1455   4.958   4.103   1.226 -0.4606 -0.1215 -0.5133
  431SOL    HW2 1456   5.045   4.075   1.199 -0.4923  1.6578 -2.7590
  431SOL    HW3 1457   4.968   4.128   1.318  1.2373 -0.5317 -0.5596
  431SOL    MW4 1458   4.971   4.103   1.235 -0.4388  0.0883 -0.3670
  432SOL     OW 1459   4.141   3.209   4.312  0.3302 -0.3995 -0.5475
  432SOL    HW2 1460   4.125   3.125   4.269 -0.3028 -0.3717 -0.3817
  432SOL    HW3 1461   4.068   3.218   4.374  0.6765  0.0311 -0.1992
  432SOL    MW4 1462   4.129   3.199   4.315  0.2603  0.5607  0.0201
  433SOL     OW 1463   2.551   3.644   6.374 -0.0742 -0.6159 -0.2259
  433SOL    HW2 1464   2.603   3.599   6.307  0.9987  1.4532 -0.8609
  433SOL    HW3 1465   2.489   3.698   6.325  1.2447  1.5211  0.3467
  433SOL    MW4 1466   2.550   3.645   6.359 -0.1532 -0.1917  0.6801
  434SOL     OW 1467   2.384   3.235   5.447 -0.2697  0.4171  0.2064
  434SOL    HW2 1468   2.452   3.302   5.449 -1.1291  1.3610 -0.4500
  434SOL    HW3 1469   2.344   3.239   5.534 -0.7338  1.2389 -0.0304
  434SOL    MW4 1470   2.387   3.245   5.459 -0.3077 -0.0160 -0.0566
  435SOL     OW 1471   1.265   5.596   4.526  1.0918 -0.0825  0.4120
  435SOL    HW2 1472   1.353   5.626   4.505  1.0523 -0.5028 -0.4166
  435SOL    HW3 1473   1.276   5.541   4.604  0.9298  3.3764  3.1189
  435SOL    MW4 1474   1.278   5.593   4.534  0.1312 -0.2808  0.1645
  436SOL     OW 1475   2.061   4.696   1.764  0.4631 -0.2837  0.7488
  436SOL    HW2 1476   1.980   4.669   1.807  0.8740 -0.5708  1.3472
  436SOL    HW3 1477   2.056   4.656   1.677 -0.0089 -0.3544  0.8074
  436SOL    MW4 1478   2.050   4.687   1.758  0.0297  0.6008 -0.0630
  437SOL     OW 1479   2.093   1.005   6.152  0.0828  0.2137 -0.3965
  437SOL    HW2 1480   2.187   1.015   6.168 -0.0343  0.9184 -0.1113
  437SOL    HW3 1481   2.053   1.078   6.200 -0.6065 -0.0606 -0.5474
  437SOL    MW4 1482   2.101   1.016   6.161  0.2427  0.3321 -0.1653
  438SOL     OW 1483   1.513   1.101   2.425 -0.5780  0.7773  0.1887
  438SOL    HW2 1484   1.425   1.135   2.444 -0.7275  0.7994 -0.5172
  438SOL    HW3 1485   1.572   1.172   2.452 -0.8706  1.4692 -0.8932
  438SOL    MW4 1486   1.509   1.115   2.431  0.2049  0.0650 -0.4848
  439SOL     OW 1487   4.208   4.400   2.024  0.6957 -0.4166  0.0293
  439SOL    HW2 1488   4.251   4.426   2.106 -1.3927  1.0235  0.7707
  439SOL    HW3 1489   4.133   4.348   2.053 -1.4007  2.0196 -0.7271
  439SOL    MW4 1490   4.204   4.397   2.039 -0.6036 -0.6586 -0.2493
  440SOL     OW 1491   5.166   3.013   4.423  0.1579 -0.3976 -0.2661
  440SOL    HW2 1492   5.154   3.106   4.442 -0.9754 -0.4457 -0.6957
  440SOL    HW3 1493   5.078   2.978   4.415  0.5382 -1.8725  1.4828
  440SOL    MW4 1494   5.153   3.021   4.424  0.3853 -0.1182  0.0216
  441SOL     OW 1495   3.702   2.042   5.798  0.3214  0.4859 -0.1012
  441SOL    HW2 1496   3.717   1.958   5.842 -0.5576  1.0420  1.3361
  441SOL    HW3 1497   3.778   2.095   5.822  0.1071  0.6104  0.3114
  441SOL    MW4 1498   3.714   2.038   5.807  0.4273  0.5993  0.4284
  442SOL     OW 1499   3.151   3.994   0.931 -0.4236  0.0861 -0.3032
  442SOL    HW2 1500   3.138   3.974   0.838 -1.8778 -2.5923  0.3853
  442SOL    HW3 1501   3.245   3.983   0.946 -0.0487  1.3034 -1.5671
  442SOL    MW4 1502   3.162   3.990   0.921  0.1771 -0.2535 -0.1900
  443SOL     OW 1503   2.964   2.573   5.639 -0.0086  0.4921  0.1306
  443SOL    HW2 1504   2.878   2.537   5.662  0.4154  0.2967  1.4979
  443SOL    HW3 1505   2.968   2.566   5.544 -0.7085 -1.3681  0.1955
  443SOL    MW4 1506   2.953   2.567   5.630 -0.2923 -0.9034  0.2153
  444SOL     OW 1507   5.760   6.012   6.032 -0.1570  0.9767  0.0343
  444SOL    HW2 1508   5.728   6.028   6.121 -0.8781  1.7261 -0.3518
  444SOL    HW3 1509   5.681   5.993   5.981  0.4229 -1.8533  0.0107
  444SOL    MW4 1510   5.746   6.012   6.037 -0.1513 -0.8475  0.3898
  445SOL     OW 1511   2.789   0.517   6.390  0.7499  0.7695  0.3419
  445SOL    HW2 1512   2.754   0.446   6.337 -2.1882  0.0722  2.9563
  445SOL    HW3 1513   2.833   0.574   6.327  0.0082 -1.4412 -2.3640
  445SOL    MW4 1514   2.791   0.515   6.375 -0.2641 -0.3247  0.2930
  446SOL     OW 1515   5.978   4.513   5.298  0.1766  0.0237 -0.1937
  446SOL    HW2 1516   5.910   4.453   5.268 -0.8984  0.2900  1.5645
  446SOL    HW3 1517   6.014   4.550   5.217  0.2251 -2.2200 -1.2810
  446SOL    MW4 1518   5.974   4.510   5.283  0.3693  0.6599 -0.0524
  447SOL     OW 1519   3.923   2.626   4.730  0.1424 -0.1170 -0.1183
  447SOL    HW2 1520   3.881   2.616   4.645 -1.0183 -1.0941  0.5347
  447SOL    HW3 1521   4.010   2.587   4.719  0.5241  0.9950 -1.2078
  447SOL    MW4 1522   3.929   2.619   4.717  0.6167 -0.0841 -0.3476
  448SOL     OW 1523   3.064   5.261   3.052  0.0870  0.2309 -0.1461
  448SOL    HW2 1524   3.045   5.355   3.058  0.8662  0.4495 -0.8909
  448SOL    HW3 1525   3.103   5.238   3.136  0.6742  0.7655 -0.2676
  448SOL    MW4 1526   3.066   5.270   3.064  0.1732  0.1729  0.1190
  449SOL     OW 1527   4.230   0.833   6.423  0.0134  0.0374 -0.3319
  449SOL    HW2 1528   4.296   0.875   6.368 -1.7552 -1.2789 -3.7635
  449SOL    HW3 1529   4.195   0.762   6.369 -1.2181 -2.1125  2.9556
  449SOL    MW4 1530   4.234   0.829   6.409  0.1268 -0.3476  0.5819
  450SOL     OW 1531   6.057   2.390   3.939 -0.2970 -0.4070 -0.0971
  450SOL    HW2 1532   5.964   2.375   3.957 -1.0699  1.5022 -2.0672
  450SOL    HW3 1533   6.081   2.463   3.996  0.0683 -0.9707  0.4930
  450SOL    MW4 1534   6.048   2.397   3.949 -0.1065 -0.0923 -0.3356
  451SOL     OW 1535   0.609   1.100   5.832 -0.1602 -0.3082  0.1591
  451SOL    HW2 1536   0.613   1.185   5.788 -0.5190  0.4782  1.5874
  451SOL    HW3 1537   0.698   1.065   5.823  0.1803  0.5238  0.1332
  451SOL    MW4 1538   0.621   1.107   5.825 -0.5489  0.2906  1.0140
  452SOL     OW 1539   0.215   1.655   2.038 -0.1343 -0.0828  0.7755
  452SOL    HW2 1540   0.274   1.696   1.974 -0.8327  1.1865  0.9120
  452SOL    HW3 1541   0.212   1.718   2.110 -0.5387 -0.8027  1.3907
  452SOL    MW4 1542   0.223   1.669   2.039 -0.3380  0.0693 -0.2066
  453SOL     OW 1543   2.126   4.575   1.232  0.0246 -0.1370  0.2673
  453SOL    HW2 1544   2.075   4.562   1.152 -0.0711 -2.5593  0.6221
  453SOL    HW3 1545   2.215   4.550   1.209  0.6063  1.8457  0.2434
  453SOL    MW4 1546   2.131   4.570   1.219 -0.0125  0.3069 -0.0404
  454SOL     OW 1547   0.315   2.049   3.056  0.0608  0.3088  0.3222
  454SOL    HW2 1548   0.396   2.100   3.061  0.2293  0.0472  0.3054
  454SOL    HW3 1549   0.256   2.103   3.003  1.2032 -0.7478 -2.2252
  454SOL    MW4 1550   0.318   2.063   3.050 -0.1849 -0.6921 -0.0585
  455SOL     OW 1551   5.285   1.623   1.730 -0.1337 -0.1736 -0.0230
  455SOL    HW2 1552   5.206   1.678   1.723  0.5625  0.6731 -1.6941
  455SOL    HW3 1553   5.251   1.535   1.746 -1.2834  0.6686  2.8472
  455SOL    MW4 1554   5.270   1.619   1.732 -0.3534  0.4128 -0.1390
  456SOL     OW 1555   1.793   5.350   2.775 -0.4111  0.5415  0.1812
  456SOL    HW2 1556   1.786   5.282   2.708 -0.3333  0.7558 -0.0443
  456SOL    HW3 1557   1.886   5.370   2.780 -0.4673  0.8348  0.0445
  456SOL    MW4 1558   1.804   5.343   2.767  0.4930 -0.2977 -0.6602
  457SOL     OW 1559   2.023   0.357   4.077  0.1147 -0.3792 -0.5665
  457SOL    HW2 1560   2.048   0.449   4.083  3.0737 -1.0602 -0.7001
  457SOL    HW3 1561   1.929   0.358   4.056 -0.2155  2.5412  0.6493
  457SOL    MW4 1562   2.014   0.369   4.075  0.0600  0.2583  0.0109
  458SOL     OW 1563   1.859   6.052   5.174  0.0329 -0.3838  0.8065
  458SOL    HW2 1564   1.869   6.131   5.121 -1.4214 -1.5500 -1.3639
  458SOL    HW3 1565   1.787   6.071   5.233 -0.2257 -0.0343  0.3851
  458SOL    MW4 1566   1.851   6.065   5.175  0.2116  0.1825  0.2319
  459SOL     OW 1567   4.423   2.828   0.436 -0.1015 -0.4416 -0.1173
  459SOL    HW2 1568   4.518   2.819   0.435  0.1908  1.7958  0.5711
  459SOL    HW3 1569   4.398   2.825   0.343  0.4787 -2.1231 -0.2456
  459SOL    MW4 1570   4.432   2.827   0.423  0.2946  0.7687  0.7102
  460SOL     OW 1571   5.620   0.146   4.837  0.3476 -0.1080  0.2975
  460SOL    HW2 1572   5.668   0.067   4.812 -0.9428 -0.3111 -1.7019
  460SOL    HW3 1573   5.658   0.171   4.921  1.6928 -2.0937  0.3414
  460SOL    MW4 1574   5.631   0.139   4.845 -0.0215  0.2903  0.2277
  461SOL     OW 1575   1.735   5.474   0.369 -0.5841 -0.4341 -0.7705
  461SOL    HW2 1576   1.829   5.458   0.355 -0.3350  0.0927  0.1434
  461SOL    HW3 1577   1.692   5.395   0.339  0.2523 -1.1354 -0.1686
  461SOL    MW4 1578   1.742   5.462   0.363  0.9330 -0.5982 -0.0017
  462SOL     OW 1579   1.581   0.785   6.256 -0.0325 -0.0656 -0.2786
  462SOL    HW2 1580   1.618   0.870   6.275 -2.0629  0.8799 -0.2385
  462SOL    HW3 1581   1.576   0.741   6.341 -3.7044  1.8754  0.7314
  462SOL    MW4 1582   1.585   0.790   6.270  0.4170  0.2168 -0.0965
  463SOL     OW 1583   3.014   2.474   2.908  0.0148 -0.0356  0.1532
  463SOL    HW2 1584   3.025   2.433   2.822  0.1113  0.1589  0.0706
  463SOL    HW3 1585   3.058   2.415   2.969 -0.1431 -0.2262  0.0827
  463SOL    MW4 1586   3.021   2.461   2.905 -0.1616 -0.5601  0.2226
  464SOL     OW 1587   0.280   0.484   4.083 -0.0437 -0.3470  0.1302
  464SOL    HW2 1588   0.212   0.426   4.117 -0.2843 -1.2562 -1.7501
  464SOL    HW3 1589   0.330   0.429   4.022 -0.4164  1.4259 -1.9121
  464SOL    MW4 1590   0.278   0.469   4.079  0.4093 -0.1320  0.2135
  465SOL     OW 1591   4.245   3.520   5.855 -0.5610 -0.4869  0.2889
  465SOL    HW2 1592   4.259   3.612   5.874  0.7144 -0.9199  1.5960
  465SOL    HW3 1593   4.295   3.504   5.775  3.1709 -0.9815  2.4808
  465SOL    MW4 1594   4.253   3.530   5.847 -0.7317 -0.4838  0.3526
  466SOL     OW 1595   0.182   3.021   1.641 -0.5301 -0.0722  0.2384
  466SOL    HW2 1596   0.090   2.998   1.631 -0.4750 -0.0156 -0.4073
  466SOL    HW3 1597   0.182   3.115   1.657 -0.5237  0.1182 -0.8291
  466SOL    MW4 1598   0.170   3.030   1.642 -0.1362 -0.2206 -0.0553
  467SOL     OW 1599   0.735   1.877   4.571  0.0209 -0.1601  0.2743
  467SOL    HW2 1600   0.807   1.936   4.591 -0.7361  1.0991 -0.5867
  467SOL    HW3 1601   0.676   1.885   4.646  0.2227 -0.3250  0.4532
  467SOL    MW4 1602   0.737   1.886   4.584 -0.0012 -0.0220  0.3958
  468SOL     OW 1603   6.290   4.714   3.816 -0.1167  0.8088  0.2152
  468SOL    HW2 1604   6.308   4.644   3.879 -2.4369  1.0119  1.2222
  468SOL    HW3 1605   6.360   4.777   3.830  0.3474  0.0689  1.4141
  468SOL    MW4 1606   6.302   4.713   3.826  0.0765  0.0651  0.1932
  469SOL     OW 1607   0.044   1.645   0.890  0.4595 -0.3925  0.4093
  469SOL    HW2 1608   0.056   1.551   0.875 -0.8930 -0.4611 -0.3500
  469SOL    HW3 1609  -0.007   1.651   0.971  2.0795 -0.2191  1.4735
  469SOL    MW4 1610   0.039   1.634   0.899  0.5248 -0.2641  0.5454
  470SOL     OW 1611   1.631   1.998   6.277 -0.1287  0.0674  0.0805
  470SOL    HW2 1612   1.701   2.046   6.231  0.9997 -1.3334  0.2725
  470SOL    HW3 1613   1.581   1.956   6.207  1.1692 -1.4954  0.0331
  470SOL    MW4 1614   1.634   1.999   6.262  0.0439 -0.0515 -0.2201
  471SOL     OW 1615   6.193   0.200   1.101 -0.1900  0.3177 -0.0126
  471SOL    HW2 1616   6.245   0.250   1.164  0.3658 -0.6975  0.3618
  471SOL    HW3 1617   6.207   0.108   1.126 -1.6188 -0.0189 -0.3306
  471SOL    MW4 1618   6.201   0.194   1.113 -0.6588  0.2051  0.1879
  472SOL     OW 1619   4.488   5.112   4.301  0.4783  0.3783  0.4541
  472SOL    HW2 1620   4.566   5.056   4.290 -0.2285 -0.7160  0.8513
  472SOL    HW3 1621   4.487   5.134   4.394  0.4444  0.5883  0.4038
  472SOL    MW4 1622   4.499   5.108   4.312  0.2895 -0.0042  0.6136
  473SOL     OW 1623   5.845   1.281   5.854  0.0181  0.3783  0.1693
  473SOL    HW2 1624   5.897   1.351   5.814 -0.4304  1.2489  1.0742
  473SOL    HW3 1625   5.888   1.200   5.825  0.3433  1.0017 -1.1691
  473SOL    MW4 1626   5.858   1.279   5.845  0.0919 -0.2516 -0.1381
  474SOL     OW 1627   1.636   1.440   6.308  0.0265  0.5976 -0.4459
  474SOL    HW2 1628   1.560   1.389   6.283  0.5794  0.5951 -2.2551
  474SOL    HW3 1629   1.601   1.508   6.365 -0.9771 -0.7043  0.5509
  474SOL    MW4 1630   1.621   1.443   6.312 -0.0214 -0.0912  0.2206
  475SOL     OW 1631   6.220   1.139   5.582  0.2121  0.0206 -0.1445
  475SOL    HW2 1632   6.135   1.180   5.599  1.1934  2.2232 -0.2099
  475SOL    HW3 1633   6.250   1.111   5.669 -0.5428 -0.7388 -0.1160
  475SOL    MW4 1634   6.213   1.141   5.596  0.2566  0.0472  0.3458
  476SOL     OW 1635   0.906   0.193   3.990 -0.1542 -0.1136 -0.1549
  476SOL    HW2 1636   0.941   0.167   3.905 -0.2915 -0.1702 -0.1956
  476SOL    HW3 1637   0.966   0.260   4.022  0.4788 -0.8173  0.1681
  476SOL    MW4 1638   0.918   0.198   3.983 -0.6443 -0.0671  0.4695
  477SOL     OW 1639   1.245   0.654   4.313 -0.7404 -0.3149 -0.0167
  477SOL    HW2 1640   1.300   0.731   4.298 -0.3007 -0.6311 -0.0715
  477SOL    HW3 1641   1.220   0.624   4.226  1.6120 -2.0072 -0.2306
  477SOL    MW4 1642   1.249   0.660   4.300  0.1574 -0.2311  0.3372
  478SOL     OW 1643   4.656   0.825   2.533 -0.2350 -0.1217  0.1919
  478SOL    HW2 1644   4.738   0.817   2.485  0.3385  1.3161  0.8618
  478SOL    HW3 1645   4.682   0.845   2.623 -1.2270  3.4098 -0.1385
  478SOL    MW4 1646   4.670   0.827   2.539  0.6220  0.0837  0.5155
  479SOL     OW 1647   2.934   0.852   5.791 -0.1344 -0.2213 -0.0903
  479SOL    HW2 1648   2.853   0.837   5.841 -0.0075 -2.9578 -0.5661
  479SOL    HW3 1649   2.954   0.944   5.806 -2.9087  0.3642  0.6792
  479SOL    MW4 1650   2.926   0.862   5.800 -0.1123  0.5026 -0.4769
  480SOL     OW 1651   4.612   2.936   4.131 -0.1454 -0.1878  0.5895
  480SOL    HW2 1652   4.553   2.873   4.174  0.5694 -1.5407 -0.3487
  480SOL    HW3 1653   4.660   2.884   4.067 -0.6154  1.6178 -1.3172
  480SOL    MW4 1654   4.610   2.921   4.128  0.4230 -0.0388 -0.5482
  481SOL     OW 1655   4.979   0.213   0.251  0.4268  0.0096 -0.5506
  481SOL    HW2 1656   4.935   0.191   0.333  1.9908  0.3029  0.3947
  481SOL    HW3 1657   5.011   0.303   0.264  1.1942 -0.1498 -1.2626
  481SOL    MW4 1658   4.977   0.222   0.264 -0.3875  0.1718  0.0384
  482SOL     OW 1659   4.458   2.477   4.149  0.1759  0.5228 -0.0582
  482SOL    HW2 1660   4.538   2.490   4.201 -0.0010  0.7986  0.1454
  482SOL    HW3 1661   4.389   2.516   4.201  0.0747  1.2872 -0.7433
  482SOL    MW4 1662   4.460   2.484   4.163  0.3134 -0.0689  0.3935
  483SOL     OW 1663   6.124   4.733   3.599  0.5977  0.1997 -0.9228
  483SOL    HW2 1664   6.194   4.756   3.661  0.0568  1.2681 -0.6889
  483SOL    HW3 1665   6.154   4.768   3.515  1.1422 -0.8951 -1.2079
  483SOL    MW4 1666   6.137   4.741   3.596 -0.3348  0.1603 -0.3648
  484SOL     OW 1667   2.933   6.015   1.146  0.4352 -0.4464  0.6081
  484SOL    HW2 1668   2.884   5.955   1.203 -0.3974 -0.2663  0.0859
  484SOL    HW3 1669   2.980   5.957   1.086  1.4314 -0.6461  1.5372
  484SOL    MW4 1670   2.933   5.999   1.146  0.2227  0.1037 -0.3522
  485SOL     OW 1671   2.438   4.889   3.801  0.1013  0.1027  0.0505
  485SOL    HW2 1672   2.436   4.933   3.716  1.4000 -0.2846 -0.2071
  485SOL    HW3 1673   2.413   4.956   3.864 -1.1897  0.3216 -0.6423
  485SOL    MW4 1674   2.434   4.903   3.798 -0.0354  0.1141 -0.2011
  486SOL     OW 1675   4.541   1.685   0.085  0.2417  0.4060  0.0656
  486SOL    HW2 1676   4.555   1.695   0.179  0.7990  0.2418  0.0027
  486SOL    HW3 1677   4.494   1.602   0.076  1.4423 -0.3062  0.1067
  486SOL    MW4 1678   4.537   1.675   0.096 -0.0733  0.3756  0.0328
  487SOL     OW 1679   4.839   5.146   1.780  0.0396  0.5512  0.6352
  487SOL    HW2 1680   4.802   5.059   1.767 -1.1145  0.6753  2.6276
  487SOL    HW3 1681   4.798   5.199   1.711  0.3524 -0.3623 -0.2680
  487SOL    MW4 1682   4.829   5.142   1.769  0.4345  0.4641 -0.6805
  488SOL     OW 1683   4.031   0.180   6.404  0.0232  0.1683  0.6356
  488SOL    HW2 1684   4.103   0.141   6.354  1.0855  1.7059  0.8933
  488SOL    HW3 1685   4.056   0.272   6.414 -0.3510  0.0320  3.6304
  488SOL    MW4 1686   4.044   0.187   6.399  0.5214  1.0018 -0.5660
  489SOL     OW 1687   6.008   2.965   3.795  0.2673 -0.2484 -0.7163
  489SOL    HW2 1688   5.984   2.924   3.878 -1.7346  0.3677 -0.9308
  489SOL    HW3 1689   6.060   3.041   3.820  0.7166 -0.7440 -0.1056
  489SOL    MW4 1690   6.012   2.969   3.809 -0.0895 -0.2213  0.2571
  490SOL     OW 1691   3.416   2.097   1.941  0.5002  0.2791 -0.2221
  490SOL    HW2 1692   3.387   2.009   1.964  2.2042 -0.2939 -0.1027
  490SOL    HW3 1693   3.368   2.154   2.000 -0.6391 -0.5526 -0.3060
  490SOL    MW4 1694   3.406   2.093   1.952  0.3821  0.0622  0.4279
  491SOL     OW 1695   0.330   0.637   5.980 -0.6918  0.0934  0.2339
  491SOL    HW2 1696   0.338   0.649   6.075  0.0759  0.7976  0.0991
  491SOL    HW3 1697   0.370   0.717   5.943  0.6021 -0.9414 -0.7050
  491SOL    MW4 1698   0.337   0.649   5.987  0.4740 -0.9103 -0.2449
  492SOL     OW 1699   4.793   5.498   3.735  0.0391 -0.3730 -0.0746
  492SOL    HW2 1700   4.704   5.479   3.704 -0.5348 -0.9564  1.8281
  492SOL    HW3 1701   4.792   5.475   3.827  2.1312 -0.1651  0.0425
  492SOL    MW4 1702   4.781   5.493   3.743  0.4323 -0.5469  0.0419
  493SOL     OW 1703   0.933   4.534   4.536  0.3325  0.6131 -0.0805
  493SOL    HW2 1704   0.912   4.442   4.519  0.2732  0.3542  1.3099
  493SOL    HW3 1705   0.989   4.559   4.462 -1.4747  0.1406 -1.6941
  493SOL    MW4 1706   0.938   4.525   4.524  0.1290 -0.4126  0.1076
  494SOL     OW 1707   1.476   5.049   4.540 -0.3853  0.0792  0.0605
  494SOL    HW2 1708   1.498   5.113   4.472 -1.1725 -0.0457 -0.3223
  494SOL    HW3 1709   1.548   5.056   4.604 -0.7786  1.8374  0.3700
  494SOL    MW4 1710   1.488   5.059   4.540  0.0172  0.3823  0.3190
  495SOL     OW 1711   4.159   6.107   5.783  0.1665 -0.2669  0.2540
  495SOL    HW2 1712   4.073   6.069   5.770  0.3154 -0.6542  0.3802
  495SOL    HW3 1713   4.147   6.170   5.854  0.1309 -0.8332  0.7601
  495SOL    MW4 1714   4.146   6.111   5.791  0.1383 -0.7846  0.2297
  496SOL     OW 1715   5.685   1.773   6.395  0.0467  0.4530 -0.5974
  496SOL    HW2 1716   5.727   1.724   6.465  0.5788  1.8719  0.0852
  496SOL    HW3 1717   5.622   1.710   6.357  1.3653 -1.0580 -0.3831
  496SOL    MW4 1718   5.682   1.758   6.399  0.0886 -0.4925  0.4614
  497SOL     OW 1719   3.642   3.612   1.657  0.0083 -0.6957  0.3222
  497SOL    HW2 1720   3.640   3.706   1.672  0.3802 -0.7581  0.7766
  497SOL    HW3 1721   3.639   3.603   1.562 -0.0493 -0.2261  0.2779
  497SOL    MW4 1722   3.642   3.623   1.646  0.6672 -0.3701 -0.0870
  498SOL     OW 1723   4.660   3.982   5.198  0.4265 -0.4022  0.0701
  498SOL    HW2 1724   4.639   4.071   5.224  0.3171 -0.5493  0.5071
  498SOL    HW3 1725   4.654   3.931   5.279  2.9086 -0.4022  0.3282
  498SOL    MW4 1726   4.656   3.987   5.212 -0.4349 -0.1525  0.3399
  499SOL     OW 1727   4.215   0.803   4.135 -0.1559  0.3448  0.1550
  499SOL    HW2 1728   4.216   0.888   4.179  1.5347  0.0417  0.7423
  499SOL    HW3 1729   4.206   0.739   4.206  0.0521 -0.0356 -0.1596
  499SOL    MW4 1730   4.214   0.806   4.150  0.5590  0.4604 -0.3407
  500SOL     OW 1731   5.747   2.680   3.612  0.1136  0.3020 -0.0162
  500SOL    HW2 1732   5.742   2.775   3.617 -1.7683  0.2032  1.9362
  500SOL    HW3 1733   5.684   2.656   3.544  1.9005  0.4519 -1.8111
  500SOL    MW4 1734   5.738   2.689   3.604 -0.9412 -0.2938  0.4381
  501SOL     OW 1735   6.091   2.803   0.220  0.0595 -0.3466 -0.3721
  501SOL    HW2 1736   6.110   2.768   0.133  0.5250 -0.1813 -0.3396
  501SOL    HW3 1737   6.166   2.779   0.273 -0.0136 -0.0490 -0.1289
  501SOL    MW4 1738   6.103   2.795   0.215 -0.0410  0.0226 -0.4389
  502SOL     OW 1739   5.156   3.482   3.173 -0.1744  0.5639  0.1749
  502SOL    HW2 1740   5.217   3.496   3.101  0.0432 -1.5848 -0.1377
  502SOL    HW3 1741   5.087   3.547   3.159 -0.6777 -0.4190 -2.6010
  502SOL    MW4 1742   5.155   3.492   3.162  0.1931 -0.4894  0.3241
  503SOL     OW 1743   3.385   1.704   6.209 -0.3619 -0.3979  0.5860
  503SOL    HW2 1744   3.403   1.749   6.291  3.2357  1.2739 -0.9273
  503SOL    HW3 1745   3.412   1.765   6.141 -1.0765 -2.5658 -1.8151
  503SOL    MW4 1746   3.391   1.718   6.211 -0.1229  0.1290  0.7557
  504SOL     OW 1747   2.759   2.448   0.255  0.3587 -0.4153  0.0165
  504SOL    HW2 1748   2.808   2.479   0.178  0.9399 -0.5337  0.3283
  504SOL    HW3 1749   2.818   2.466   0.329 -0.8047  1.1014  0.6255
  504SOL    MW4 1750   2.773   2.454   0.255 -0.2477  0.1329 -0.0586
  505SOL     OW 1751   2.157   2.799   2.952  0.0552  0.5459  0.3374
  505SOL    HW2 1752   2.249   2.815   2.971  0.2574  1.4287 -1.2660
  505SOL    HW3 1753   2.124   2.882   2.918 -0.7217 -0.3982 -1.3539
  505SOL    MW4 1754   2.164   2.812   2.950  0.7400  0.8662  1.0157
  506SOL     OW 1755   3.038   1.330   5.291 -0.5464  0.2242  0.3760
  506SOL    HW2 1756   3.024   1.239   5.263 -0.8923  0.5022 -0.3763
  506SOL    HW3 1757   2.969   1.346   5.356 -0.8291  0.1257  0.0995
  506SOL    MW4 1758   3.027   1.320   5.296 -0.3559  0.0634 -0.2389
  507SOL     OW 1759   3.672   0.157   0.609  0.0361  0.1050 -0.2120
  507SOL    HW2 1760   3.630   0.177   0.693 -0.8224 -1.2952 -0.2701
  507SOL    HW3 1761   3.627   0.078   0.578  3.5314 -2.2838  0.3149
  507SOL    MW4 1762   3.660   0.149   0.616 -0.1347 -0.1338 -0.0884
  508SOL     OW 1763   4.946   2.247   2.170  0.0051  0.1120  0.1569
  508SOL    HW2 1764   4.878   2.200   2.121 -0.8562  1.9365 -0.4685
  508SOL    HW3 1765   4.986   2.305   2.105 -2.1023  3.6402  1.7269
  508SOL    MW4 1766   4.942   2.248   2.155 -0.3532  0.8189 -0.4092
  509SOL     OW 1767   5.154   5.794   0.081  0.0542 -0.0233 -0.1140
  509SOL    HW2 1768   5.154   5.746   0.164 -0.4321  0.1331 -0.0206
  509SOL    HW3 1769   5.207   5.872   0.099 -0.6591  0.3807  0.2739
  509SOL    MW4 1770   5.161   5.798   0.094 -0.5704  0.3253 -0.1409
  510SOL     OW 1771   4.082   1.975   6.094  0.4211 -0.0749  0.4843
  510SOL    HW2 1772   4.061   2.068   6.090  0.4970 -0.0511  0.6519
  510SOL    HW3 1773   4.172   1.969   6.064  0.6817 -0.0034  1.2525
  510SOL    MW4 1774   4.091   1.986   6.090  0.3279 -0.1928 -0.1458
  511SOL     OW 1775   5.314   2.929   5.759 -0.3558  0.1252  0.2964
  511SOL    HW2 1776   5.335   3.016   5.728  1.7332 -0.7915 -1.0794
  511SOL    HW3 1777   5.236   2.903   5.710 -1.2376  1.3097  1.0118
  511SOL    MW4 1778   5.307   2.937   5.749 -0.3438 -0.2613 -0.7997
  512SOL     OW 1779   4.040   0.842   5.068 -0.2038 -0.2117  0.0335
  512SOL    HW2 1780   4.006   0.922   5.030  0.9861  0.0203 -0.6022
  512SOL    HW3 1781   4.036   0.778   4.997 -0.2071 -0.4419  0.2379
  512SOL    MW4 1782   4.035   0.844   5.054 -0.0496  0.0946  0.1589
  513SOL     OW 1783   3.067   3.842   3.986 -0.0798 -0.0611 -0.3725
  513SOL    HW2 1784   3.012   3.818   4.061 -0.0395 -1.2778 -0.7195
  513SOL    HW3 1785   3.035   3.928   3.960 -0.7463 -0.0548  0.4367
  513SOL    MW4 1786   3.055   3.850   3.993  0.3038 -0.4731 -0.1021
  514SOL     OW 1787   3.519   0.717   0.923 -0.3605 -0.3197  0.8134
  514SOL    HW2 1788   3.527   0.755   0.835  0.9072 -1.0313  0.5918
  514SOL    HW3 1789   3.478   0.632   0.909 -1.6599  0.2425  1.1150
  514SOL    MW4 1790   3.515   0.711   0.909 -0.3962  0.1503 -0.4139
  515SOL     OW 1791   4.462   2.349   5.060 -0.3283  0.2863 -0.1597
  515SOL    HW2 1792   4.537   2.291   5.068  0.3967  1.2404  0.0747
  515SOL    HW3 1793   4.498   2.432   5.031 -1.5034  0.2856 -1.7528
  515SOL    MW4 1794   4.477   2.352   5.057  0.0075  0.5141  0.3553
  516SOL     OW 1795   2.315   3.002   6.080  0.1722  0.1670 -0.4577
  516SOL    HW2 1796   2.257   2.944   6.130  0.8452  1.5923  2.1532
  516SOL    HW3 1797   2.375   2.943   6.035  0.2262 -1.2105  1.3409
  516SOL    MW4 1798   2.315   2.987   6.081 -0.4122 -0.1274  0.3476
  517SOL     OW 1799   4.030   2.532   2.733  0.7377 -0.2174 -0.4560
  517SOL    HW2 1800   3.995   2.581   2.807 -0.1666 -0.9836 -0.3568
  517SOL    HW3 1801   4.066   2.599   2.675  0.0881  0.5207 -0.0344
  517SOL    MW4 1802   4.030   2.547   2.735  0.0035 -0.1477  0.1741
  518SOL     OW 1803   4.857   0.220   3.290  0.2199  0.1173 -0.2436
  518SOL    HW2 1804   4.891   0.131   3.296 -1.4116 -0.4297  2.2586
  518SOL    HW3 1805   4.763   0.209   3.279  0.1805  1.5855 -1.7974
  518SOL    MW4 1806   4.849   0.207   3.289  0.0463 -0.1440  0.3873
  519SOL     OW 1807   0.805   3.448   3.140 -0.0539 -0.6024 -0.5628
  519SOL    HW2 1808   0.807   3.395   3.220  1.7591 -0.3264 -0.3926
  519SOL    HW3 1809   0.787   3.385   3.070 -3.3958 -0.6368  0.1316
  519SOL    MW4 1810   0.803   3.433   3.141  0.5544 -0.0051 -0.3207
  520SOL     OW 1811   6.148   4.239   1.386  0.3587  0.5264 -0.0487
  520SOL    HW2 1812   6.084   4.274   1.448 -0.5489 -0.4626 -0.4106
  520SOL    HW3 1813   6.097   4.209   1.312  1.1032 -1.3089  0.1228
  520SOL    MW4 1814   6.133   4.239   1.385  0.7734 -0.4557 -0.3904
  521SOL     OW 1815   5.255   2.920   0.362 -0.0931 -0.0020 -0.4013
  521SOL    HW2 1816   5.243   2.930   0.457  1.1815 -0.6757 -0.1525
  521SOL    HW3 1817   5.252   2.825   0.347  1.3883 -0.0117 -0.7762
  521SOL    MW4 1818   5.253   2.909   0.373 -0.0022  0.2094 -0.3574
  522SOL     OW 1819   1.312   2.351   0.208  0.7386 -0.4991 -0.3294
  522SOL    HW2 1820   1.363   2.280   0.247  0.0954 -1.2275 -0.7830
  522SOL    HW3 1821   1.368   2.429   0.218  1.2683 -0.9741  0.5658
  522SOL    MW4 1822   1.326   2.352   0.215 -0.1009 -0.0100  0.3566
  523SOL     OW 1823   0.162   1.680   2.888  0.0405 -0.5250  0.5439
  523SOL    HW2 1824   0.167   1.764   2.841  0.5425 -0.2087  1.1513
  523SOL    HW3 1825   0.195   1.616   2.825 -2.4304 -0.6437 -0.7445
  523SOL    MW4 1826   0.167   1.683   2.873  0.0265  0.1055 -0.1756
  524SOL     OW 1827   4.115   1.576   6.138  0.1386 -0.3860  1.1703
  524SOL    HW2 1828   4.113   1.494   6.089  0.6419 -0.2827  0.9759
  524SOL    HW3 1829   4.176   1.632   6.090 -1.0820  0.5328  0.6280
  524SOL    MW4 1830   4.123   1.572   6.126 -0.1348  0.5044  0.0354
  525SOL     OW 1831   0.337   3.440   3.670 -0.2230 -0.1514  0.4308
  525SOL    HW2 1832   0.339   3.535   3.685  3.6534  0.0761 -0.4480
  525SOL    HW3 1833   0.378   3.403   3.748  0.9981 -0.7992 -0.4913
  525SOL    MW4 1834   0.343   3.448   3.682  0.1399  0.1133 -0.1264
  526SOL     OW 1835   4.098   3.309   3.249  0.0292  0.3372 -0.8718
  526SOL    HW2 1836   4.012   3.269   3.260 -0.1353  0.5292 -1.4436
  526SOL    HW3 1837   4.151   3.242   3.206  0.1650  0.2238 -0.5325
  526SOL    MW4 1838   4.093   3.295   3.245 -0.0791  0.0988  0.0116
  527SOL     OW 1839   3.976   3.475   6.189 -0.1870 -0.3644 -0.4536
  527SOL    HW2 1840   4.048   3.536   6.203  0.8099 -1.7025  0.5986
  527SOL    HW3 1841   3.928   3.474   6.272  0.9166 -2.3027  0.2501
  527SOL    MW4 1842   3.980   3.483   6.202  0.2991 -0.1704  0.3367
  528SOL     OW 1843   6.273   0.789   5.950 -0.3831 -0.1282 -0.5595
  528SOL    HW2 1844   6.353   0.749   5.916  0.5358  1.2841 -0.1270
  528SOL    HW3 1845   6.253   0.738   6.029  0.8764  0.3412  0.0918
  528SOL    MW4 1846   6.281   0.777   5.956  0.5313 -0.0604  0.0351
  529SOL     OW 1847   2.262   0.753   0.565  0.2160  0.2860 -0.2937
  529SOL    HW2 1848   2.248   0.661   0.541 -0.0386  0.2606 -0.0538
  529SOL    HW3 1849   2.323   0.750   0.638  0.0535  0.2983 -0.1584
  529SOL    MW4 1850   2.268   0.740   0.571 -0.1279 -0.2237  0.2190
  530SOL     OW 1851   6.114   2.824   3.248  0.1725 -0.3888 -0.2608
  530SOL    HW2 1852   6.114   2.905   3.197 -1.0392  0.1647  0.5661
  530SOL    HW3 1853   6.104   2.853   3.339  2.3064 -1.3506  0.3454
  530SOL    MW4 1854   6.112   2.839   3.253 -0.7883  0.3254  0.0277
  531SOL     OW 1855   4.532   6.084   2.102 -0.1653  0.3502  0.4326
  531SOL    HW2 1856   4.620   6.047   2.110  0.7088  2.2346  0.0553
  531SOL    HW3 1857   4.478   6.009   2.077  1.4068 -0.7677  0.1507
  531SOL    MW4 1858   4.537   6.069   2.100 -0.7515 -1.0185 -0.1546
  532SOL     OW 1859   6.149   6.153   1.280  0.3611  0.6411  0.1694
  532SOL    HW2 1860   6.187   6.072   1.247  1.2386  0.7894  0.7768
  532SOL    HW3 1861   6.056   6.133   1.290  0.3881  0.0523 -0.6964
  532SOL    MW4 1862   6.142   6.140   1.277 -0.0790 -0.2070 -0.0838
  533SOL     OW 1863   0.887   4.771   5.504  0.0481  0.0243  0.9301
  533SOL    HW2 1864   0.794   4.788   5.520 -0.0851  0.3947 -0.1561
  533SOL    HW3 1865   0.922   4.750   5.590 -1.0425 -0.1316  1.3573
  533SOL    MW4 1866   0.879   4.771   5.518 -0.3076  0.0699  0.4960
  534SOL     OW 1867   6.223   1.627   1.506 -0.2408  0.4459  0.0011
  534SOL    HW2 1868   6.229   1.536   1.475 -2.4817 -0.5075  2.0115
  534SOL    HW3 1869   6.313   1.653   1.522  0.5182 -1.1091 -1.4980
  534SOL    MW4 1870   6.235   1.618   1.504 -0.0505 -0.3095 -0.3243
  535SOL     OW 1871   3.438   6.231   2.701 -0.1077  0.1062 -0.4514
  535SOL    HW2 1872   3.373   6.221   2.631  0.0065 -0.0740 -0.5347
  535SOL    HW3 1873   3.457   6.324   2.703 -0.5092  0.1859 -0.2986
  535SOL    MW4 1874   3.432   6.242   2.692 -0.4436 -0.1497  0.6159
  536SOL     OW 1875   3.794   4.063   3.659 -0.2222  0.3096 -0.5020
  536SOL    HW2 1876   3.722   4.012   3.621 -1.0075 -0.3840  1.7789
  536SOL    HW3 1877   3.755   4.108   3.734  1.2183  1.7794 -0.5814
  536SOL    MW4 1878   3.779   4.062   3.664 -0.5108 -0.0287 -0.5432
  537SOL     OW 1879   4.640   4.571   2.119 -0.1335 -0.0003  1.0060
  537SOL    HW2 1880   4.651   4.477   2.102 -0.5617 -0.5557  3.4617
  537SOL    HW3 1881   4.663   4.613   2.036 -0.5989 -2.2962 -0.3716
  537SOL    MW4 1882   4.644   4.564   2.106 -0.1690  0.2881 -0.4616
  538SOL     OW 1883   3.750   4.222   4.128  0.3967  0.0730 -0.4363
  538SOL    HW2 1884   3.733   4.163   4.202  0.3332  1.3614  0.6077
  538SOL    HW3 1885   3.706   4.303   4.151 -0.2814  0.2697 -2.2694
  538SOL    MW4 1886   3.742   4.225   4.140 -0.1537 -0.2863 -0.3651
  539SOL     OW 1887   3.034   2.106   3.876 -0.3953 -0.5067 -0.4207
  539SOL    HW2 1888   3.003   2.146   3.957 -2.2239  0.5965 -1.5970
  539SOL    HW3 1889   3.092   2.172   3.837 -1.8384  0.2496 -1.3871
  539SOL    MW4 1890   3.038   2.120   3.881 -0.2518  0.3470 -0.5330
  540SOL     OW 1891   1.489   4.076   1.888 -0.1890 -0.7920  0.6831
  540SOL    HW2 1892   1.422   4.047   1.949 -1.0916 -0.8103 -0.2802
  540SOL    HW3 1893   1.440   4.118   1.817  0.7973 -0.9295 -0.1067
  540SOL    MW4 1894   1.474   4.077   1.887 -0.0475  0.4254 -0.1931
  541SOL     OW 1895   0.836   2.334   2.866  0.3028  0.1499  0.2909
  541SOL    HW2 1896   0.885   2.388   2.928 -0.7086  0.0440  1.2204
  541SOL    HW3 1897   0.749   2.373   2.863 -0.1770 -0.8678  0.2969
  541SOL    MW4 1898   0.831   2.346   2.874  0.1056  0.4451 -0.2753
  542SOL     OW 1899   3.094   3.570   5.466 -0.1094 -0.3126 -0.4134
  542SOL    HW2 1900   3.160   3.570   5.396 -0.4519  1.0071 -0.7670
  542SOL    HW3 1901   3.021   3.620   5.430 -0.9706 -1.0107  0.2970
  542SOL    MW4 1902   3.093   3.576   5.452  0.0761  0.6740 -0.6597
  543SOL     OW 1903   4.697   5.662   6.286 -0.6377  0.0319  0.4516
  543SOL    HW2 1904   4.684   5.625   6.199  1.5579  1.6627 -0.6725
  543SOL    HW3 1905   4.792   5.657   6.300 -0.7310  1.4895  1.9362
  543SOL    MW4 1906   4.708   5.657   6.277 -0.2926 -0.3677 -0.4298
  544SOL     OW 1907   0.173   5.931   0.013 -0.0025  0.3894  0.0492
  544SOL    HW2 1908   0.139   5.977   0.089 -0.0655 -0.0484  0.2892
  544SOL    HW3 1909   0.246   5.878   0.047  0.1730  0.4321 -0.2491
  544SOL    MW4 1910   0.178   5.930   0.027 -0.7208 -0.1682 -0.3819
  545SOL     OW 1911   3.046   4.617   5.353 -0.4590 -0.1099 -0.1434
  545SOL    HW2 1912   2.961   4.576   5.335 -0.2829 -0.1750 -0.8468
  545SOL    HW3 1913   3.053   4.616   5.448 -0.9652 -0.6861 -0.1041
  545SOL    MW4 1914   3.035   4.611   5.363  0.2952  0.2339 -0.0168
  546SOL     OW 1915   1.533   1.858   2.110  0.1481  0.8747  0.2055
  546SOL    HW2 1916   1.609   1.837   2.055 -0.4024  1.1029 -0.6580
  546SOL    HW3 1917   1.496   1.773   2.132 -1.1623  0.8071 -1.9878
  546SOL    MW4 1918   1.538   1.844   2.105  0.0951 -0.4013 -0.1860
  547SOL     OW 1919   4.533   5.814   3.455  0.0865 -0.3490 -0.0178
  547SOL    HW2 1920   4.513   5.738   3.510 -0.8301  0.6564  1.1003
  547SOL    HW3 1921   4.460   5.819   3.393  0.5881 -0.8668 -0.6665
  547SOL    MW4 1922   4.520   5.804   3.454  0.0718  0.2552 -0.2038
  548SOL     OW 1923   1.948   0.406   5.654  0.1817  0.5962  0.0832
  548SOL    HW2 1924   2.042   0.388   5.652  0.1096  0.2578 -0.6450
  548SOL    HW3 1925   1.937   0.465   5.728  1.2519  2.2528 -1.0076
  548SOL    MW4 1926   1.959   0.411   5.664 -0.5202 -0.2885  0.1911
  549SOL     OW 1927   4.544   0.919   2.237 -0.2192 -0.7458  0.2268
  549SOL    HW2 1928   4.593   0.997   2.263  1.1582 -0.8820 -1.7152
  549SOL    HW3 1929   4.558   0.857   2.309  1.0289 -0.1592  0.5304
  549SOL    MW4 1930   4.553   0.921   2.250  0.1152 -0.1702 -0.1068
  550SOL     OW 1931   2.264   2.282   3.657 -0.1237 -0.2611 -0.3456
  550SOL    HW2 1932   2.239   2.363   3.614  0.3211  0.0949  0.0512
  550SOL    HW3 1933   2.271   2.218   3.586  0.3326  0.2462 -0.7689
  550SOL    MW4 1934   2.262   2.284   3.642  0.7848 -0.1666 -0.4493
  551SOL     OW 1935   3.364   3.976   5.610  0.6703 -0.0098 -0.4922
  551SOL    HW2 1936   3.276   3.978   5.648 -0.7206 -1.2569 -3.3183
  551SOL    HW3 1937   3.400   3.892   5.638  1.2645  0.7618  1.1657
  551SOL    MW4 1938   3.357   3.965   5.619  0.2485  0.0524  0.6845
  552SOL     OW 1939   0.028   2.467   5.952 -0.1434 -0.1611  0.6239
  552SOL    HW2 1940   0.082   2.519   6.010 -0.5024  0.4377  0.4339
  552SOL    HW3 1941  -0.059   2.467   5.993 -0.2665 -0.1871  0.3680
  552SOL    MW4 1942   0.023   2.474   5.965 -0.3754 -0.6587  0.5297
  553SOL     OW 1943   3.753   0.170   2.342  0.1228 -0.0699  0.0012
  553SOL    HW2 1944   3.848   0.179   2.333  0.3878  0.7877  2.6447
  553SOL    HW3 1945   3.741   0.087   2.388 -0.6029 -1.1462 -2.0222
  553SOL    MW4 1946   3.764   0.160   2.347 -0.4154 -0.3307 -0.0295
  554SOL     OW 1947   2.693   1.114   0.996  0.1379 -0.1713 -0.6351
  554SOL    HW2 1948   2.619   1.068   0.955  1.9278 -2.9725 -1.0117
  554SOL    HW3 1949   2.659   1.143   1.081 -1.3462 -1.6052 -0.6848
  554SOL    MW4 1950   2.679   1.111   1.002 -0.7546  0.0410  0.3524
  555SOL     OW 1951   0.647   5.808   0.982  0.6318  0.3975 -0.0775
  555SOL    HW2 1952   0.665   5.876   1.046  0.9345  1.3287 -1.1252
  555SOL    HW3 1953   0.692   5.836   0.903 -2.4304  1.0688 -1.7744
  555SOL    MW4 1954   0.655   5.821   0.980 -0.3208 -0.1655  0.4108
  556SOL     OW 1955   1.267   1.260   3.336 -0.2441 -0.4176 -0.0964
  556SOL    HW2 1956   1.252   1.269   3.242  0.4057 -2.3591 -0.4221
  556SOL    HW3 1957   1.195   1.205   3.367 -1.7603  2.0110  1.0295
  556SOL    MW4 1958   1.255   1.254   3.328 -0.5313  0.7084  0.4064
  557SOL     OW 1959   6.258   2.572   5.118  0.5277 -0.5068 -0.4604
  557SOL    HW2 1960   6.179   2.557   5.067 -0.6637 -0.4894  1.3097
  557SOL    HW3 1961   6.329   2.544   5.060 -0.8858 -2.6191 -1.2873
  557SOL    MW4 1962   6.257   2.567   5.103 -0.2241  0.1404  0.0961
  558SOL     OW 1963   0.179   0.597   1.361  0.6868  0.0076  0.0387
  558SOL    HW2 1964   0.142   0.637   1.282  1.1244  1.2969  0.4589
  558SOL    HW3 1965   0.107   0.597   1.424  0.5387 -0.3618 -0.1286
  558SOL    MW4 1966   0.165   0.602   1.359 -0.0600  0.6539 -0.2640
  559SOL     OW 1967   1.650   2.006   3.963  0.1245  0.4477  0.3826
  559SOL    HW2 1968   1.631   1.939   3.897  0.2914 -0.7727  1.5264
  559SOL    HW3 1969   1.570   2.059   3.966 -0.0080  0.3320 -0.5640
  559SOL    MW4 1970   1.637   2.004   3.954 -0.6222 -0.2342  0.0644
  560SOL     OW 1971   5.167   4.303   5.485  0.6204  0.1827  0.2271
  560SOL    HW2 1972   5.088   4.317   5.431 -0.9423 -0.4723  2.2107
  560SOL    HW3 1973   5.221   4.380   5.469  0.0941  0.1579 -2.0041
  560SOL    MW4 1974   5.163   4.315   5.476  0.0664  0.1667 -0.3513
  561SOL     OW 1975   4.263   6.251   0.420 -1.2497  1.1252  0.4704
  561SOL    HW2 1976   4.247   6.193   0.494 -1.9108  0.4707 -0.1737
  561SOL    HW3 1977   4.236   6.338   0.452  1.8001  1.6087  2.2037
  561SOL    MW4 1978   4.257   6.255   0.434 -0.1632 -0.0008  0.1165
  562SOL     OW 1979   4.171   0.164   6.023  0.1297 -0.3959  0.3640
  562SOL    HW2 1980   4.257   0.195   5.996  1.0741 -2.8512  0.3121
  562SOL    HW3 1981   4.116   0.243   6.024  1.7665  0.8728 -1.8906
  562SOL    MW4 1982   4.175   0.179   6.020 -0.2467 -0.1851 -0.4761
  563SOL     OW 1983   1.576   1.150   3.090  0.5998 -0.4717 -0.3865
  563SOL    HW2 1984   1.605   1.185   3.174  0.7228  0.1608 -0.6866
  563SOL    HW3 1985   1.572   1.055   3.104 -0.0868 -0.3225  0.5491
  563SOL    MW4 1986   1.579   1.142   3.103  0.2156 -0.2590  0.3308
  564SOL     OW 1987   0.870   4.269   4.521  0.1223 -0.5947 -0.2827
  564SOL    HW2 1988   0.788   4.293   4.478  0.0811  0.7495  0.4980
  564SOL    HW3 1989   0.914   4.211   4.458 -0.4235  0.4320 -1.6664
  564SOL    MW4 1990   0.865   4.265   4.507  0.2876 -0.2577  0.1429
  565SOL     OW 1991   3.592   1.506   6.226 -0.0941  0.6935 -0.2703
  565SOL    HW2 1992   3.651   1.559   6.280  0.6548 -0.9118  0.5395
  565SOL    HW3 1993   3.539   1.571   6.178  1.2311  2.1612  0.1658
  565SOL    MW4 1994   3.593   1.522   6.227 -0.3655 -0.0766  0.2480
  566SOL     OW 1995   2.703   1.003   3.903 -0.1181 -0.0729  0.3812
  566SOL    HW2 1996   2.772   1.068   3.887 -1.0870  1.3965  1.8055
  566SOL    HW3 1997   2.706   0.989   3.998 -0.8024 -1.1048  0.2582
  566SOL    MW4 1998   2.712   1.010   3.913  0.0434 -0.4033 -0.1481
  567SOL     OW 1999   3.663   5.470   1.756  0.0361  0.2196 -0.2736
  567SOL    HW2 2000   3.699   5.548   1.797 -0.8959  0.7516 -0.4464
  567SOL    HW3 2001   3.608   5.503   1.685 -2.3476 -0.4350  1.1499
  567SOL    MW4 2002   3.661   5.484   1.752 -0.0380 -0.5175  0.1187
  568SOL     OW 2003   2.231   4.391   0.042 -0.1074 -0.1708  0.1061
  568SOL    HW2 2004   2.225   4.362  -0.049 -0.3356  0.8535 -0.2185
  568SOL    HW3 2005   2.324   4.409   0.055 -0.2502  1.0000 -0.3655
  568SOL    MW4 2006   2.242   4.390   0.032  0.0644  0.7400 -0.7578
  569SOL     OW 2007   1.768   6.010   3.977  0.4927  0.0739  0.5745
  569SOL    HW2 2008   1.734   6.010   3.887  1.4813 -0.3827  0.1757
  569SOL    HW3 2009   1.786   5.917   3.995  2.1578  0.3452  0.4879
  569SOL    MW4 2010   1.766   5.998   3.967 -0.4546  0.1949 -0.1137
  570SOL     OW 2011   0.634   1.267   0.781  0.0016 -0.3448 -0.4332
  570SOL    HW2 2012   0.611   1.231   0.866 -1.1735  2.4047  0.5317
  570SOL    HW3 2013   0.729   1.265   0.778  0.0727 -0.0584  1.1378
  570SOL    MW4 2014   0.643   1.262   0.792  0.5003 -0.1815  0.0638
  571SOL     OW 2015   0.455   1.301   6.222  1.0269  0.1893  0.0495
  571SOL    HW2 2016   0.406   1.246   6.283  2.1277  0.3690  1.1437
  571SOL    HW3 2017   0.400   1.305   6.144  0.3227 -1.3730  0.4241
  571SOL    MW4 2018   0.441   1.294   6.220 -0.1748  0.0542 -0.5178
  572SOL     OW 2019   0.934   3.971   3.271  0.0583 -0.0407  0.4497
  572SOL    HW2 2020   1.007   3.962   3.332 -1.0422 -0.2496  1.8153
  572SOL    HW3 2021   0.909   3.880   3.251 -0.7672  0.0061  1.2099
  572SOL    MW4 2022   0.940   3.958   3.277  0.3191 -0.4098 -0.9738
  573SOL     OW 2023   2.994   5.571   4.792 -0.5184 -0.1148  0.8678
  573SOL    HW2 2024   3.044   5.492   4.813  1.1102  0.3001 -1.1650
  573SOL    HW3 2025   2.984   5.569   4.697 -1.8799  1.3215  0.9371
  573SOL    MW4 2026   2.999   5.560   4.783 -0.1435  0.4096 -0.1041
  574SOL     OW 2027   0.930   0.251   5.153  0.3374  0.3990 -0.1374
  574SOL    HW2 2028   0.887   0.295   5.225 -1.2577 -1.9671  0.4701
  574SOL    HW3 2029   0.998   0.197   5.194  0.8804  0.6677 -0.6495
  574SOL    MW4 2030   0.934   0.250   5.168  0.3534 -0.0294  0.2024
  575SOL     OW 2031   3.422   0.406   4.415 -0.0493 -0.4708 -0.2664
  575SOL    HW2 2032   3.409   0.448   4.330 -1.2710  0.0148  0.1485
  575SOL    HW3 2033   3.437   0.478   4.476 -0.2506 -0.7512  0.1219
  575SOL    MW4 2034   3.422   0.421   4.412 -0.7649  0.3225 -0.1463
  576SOL     OW 2035   2.486   4.585   6.087 -0.4198 -0.0392 -0.4596
  576SOL    HW2 2036   2.537   4.608   6.009  0.4159  1.0337  0.3677
  576SOL    HW3 2037   2.549   4.541   6.144 -1.2282 -1.5716 -0.6969
  576SOL    MW4 2038   2.501   4.582   6.084  0.2633 -0.6510  0.0018
  577SOL     OW 2039   0.514   1.953   4.035 -0.3903 -0.0181  0.1112
  577SOL    HW2 2040   0.549   1.866   4.052  0.8280  0.6998  1.5532
  577SOL    HW3 2041   0.590   2.006   4.014 -0.9779  0.9081  0.2337
  577SOL    MW4 2042   0.528   1.949   4.035 -0.6893 -0.7043  0.0894
  578SOL     OW 2043   0.240   5.986   1.220  0.5142 -0.5488 -0.1336
  578SOL    HW2 2044   0.242   5.914   1.156  0.9520 -2.1362  1.5814
  578SOL    HW3 2045   0.177   5.957   1.286  0.4934  0.8037  0.4645
  578SOL    MW4 2046   0.232   5.973   1.220  0.2055  0.7088 -0.1151
  579SOL     OW 2047   0.914   0.674   2.334 -0.4762 -0.1563 -0.1000
  579SOL    HW2 2048   1.005   0.693   2.312 -0.8060  0.9471 -0.5978
  579SOL    HW3 2049   0.900   0.585   2.303  0.4098 -0.3200 -0.0651
  579SOL    MW4 2050   0.924   0.665   2.327  0.0617 -0.4178 -0.4643
  580SOL     OW 2051   6.145   2.791   2.893 -0.1723  0.3550 -0.1398
  580SOL    HW2 2052   6.146   2.706   2.937  0.0286  0.6572  0.4605
  580SOL    HW3 2053   6.092   2.846   2.951  0.2808  0.8222 -0.1634
  580SOL    MW4 2054   6.138   2.787   2.907 -0.1095 -0.2655 -0.2762
  581SOL     OW 2055   2.168   4.114   2.222 -0.2268  0.7043 -0.4470
  581SOL    HW2 2056   2.135   4.199   2.253 -1.4330 -0.0504  0.4678
  581SOL    HW3 2057   2.090   4.059   2.220  0.3572 -0.0934 -2.0926
  581SOL    MW4 2058   2.153   4.118   2.226 -0.1072  0.2193 -0.1700
  582SOL     OW 2059   3.794   2.859   0.066 -0.3965 -0.7063  0.2554
  582SOL    HW2 2060   3.774   2.789   0.003 -0.5657 -1.2034  0.8486
  582SOL    HW3 2061   3.721   2.858   0.127 -1.9714  2.0231 -1.3830
  582SOL    MW4 2062   3.782   2.849   0.065  0.1524 -0.0401 -0.4462
  583SOL     OW 2063   3.921   5.649   5.767  0.1893 -0.4114  0.1537
  583SOL    HW2 2064   3.930   5.642   5.672 -0.9942  0.0667 -0.0183
  583SOL    HW3 2065   3.828   5.666   5.781  0.4134 -0.0698  1.3788
  583SOL    MW4 2066   3.910   5.651   5.757  0.1908 -0.5145 -0.4696
  584SOL     OW 2067   1.043   2.036   5.827 -0.1549 -0.0196  0.2430
  584SOL    HW2 2068   0.961   2.064   5.868 -0.5968 -1.6759  0.5838
  584SOL    HW3 2069   1.071   1.961   5.880 -0.1211 -1.4869 -1.7562
  584SOL    MW4 2070   1.036   2.030   5.840  0.1610 -0.4471  0.0302
  585SOL     OW 2071   4.942   0.657   3.355  0.2069 -0.3513  0.0248
  585SOL    HW2 2072   4.847   0.645   3.354  0.3052 -1.9668  2.4755
  585SOL    HW3 2073   4.977   0.570   3.338  1.3590  0.4251 -2.0298
  585SOL    MW4 2074   4.934   0.644   3.352  0.7270  0.6062 -0.5550
  586SOL     OW 2075   0.603   1.634   1.262  0.5872 -0.0716  0.2290
  586SOL    HW2 2076   0.539   1.596   1.201 -0.6839  1.1034  0.7778
  586SOL    HW3 2077   0.553   1.651   1.341  1.7345  0.3560  0.8842
  586SOL    MW4 2078   0.588   1.631   1.264  0.5500 -0.0705 -0.0389
  587SOL     OW 2079   2.625   0.785   4.455 -0.0309  0.1578 -0.2610
  587SOL    HW2 2080   2.640   0.879   4.447 -0.0309  0.1267 -0.6708
  587SOL    HW3 2081   2.535   0.777   4.484 -0.6307  0.2515 -1.9842
  587SOL    MW4 2082   2.615   0.796   4.458 -0.4203 -0.1097 -0.1750
  588SOL     OW 2083   0.480   2.361   0.372  0.4489  0.1852  0.1291
  588SOL    HW2 2084   0.472   2.437   0.429 -1.2118  0.1371 -0.0098
  588SOL    HW3 2085   0.500   2.289   0.432 -2.3374 -0.0767  0.8905
  588SOL    MW4 2086   0.482   2.361   0.387  0.4025 -0.7054 -0.3517
  589SOL     OW 2087   2.540   4.502   2.297  0.1452  1.2558 -0.3132
  589SOL    HW2 2088   2.563   4.595   2.287 -0.7942  1.7395  1.6284
  589SOL    HW3 2089   2.619   4.456   2.269  0.2852  2.5773 -2.3118
  589SOL    MW4 2090   2.553   4.508   2.292  0.2445  0.5513 -0.3307
  590SOL     OW 2091   3.854   2.298   3.558  0.0114  0.3191  0.1295
  590SOL    HW2 2092   3.931   2.256   3.598  0.9286 -0.6735 -2.4432
  590SOL    HW3 2093   3.787   2.231   3.559  0.6617 -0.4208 -1.6451
  590SOL    MW4 2094   3.855   2.284   3.564 -0.4981 -0.3090  0.0987
  591SOL     OW 2095   4.868   0.445   3.134 -0.4918  0.0063 -0.4435
  591SOL    HW2 2096   4.818   0.509   3.186 -1.0338 -0.2518 -0.6416
  591SOL    HW3 2097   4.867   0.366   3.188 -0.5865 -0.0987 -0.6004
  591SOL    MW4 2098   4.861   0.443   3.148 -0.0112  0.1600  0.3237
  592SOL     OW 2099   3.670   0.885   0.262 -0.2136  0.1915 -0.8639
  592SOL    HW2 2100   3.696   0.963   0.311  1.0472  0.1837 -1.4795
  592SOL    HW3 2101   3.707   0.898   0.175  1.1879 -1.6891 -0.6030
  592SOL    MW4 2102   3.678   0.897   0.257  0.3128  0.1931  0.3660
  593SOL     OW 2103   5.816   4.762   2.764  0.4878  0.4422 -0.2351
  593SOL    HW2 2104   5.797   4.735   2.674  1.1753 -1.1881  0.0675
  593SOL    HW3 2105   5.734   4.801   2.796 -0.1414 -0.0973 -1.1578
  593SOL    MW4 2106   5.803   4.764   2.756 -0.0673  0.7827  0.6233
  594SOL     OW 2107   4.743   0.998   0.493 -0.2206  0.0104 -0.8202
  594SOL    HW2 2108   4.777   0.918   0.534  0.1026 -0.0579 -1.2074
  594SOL    HW3 2109   4.812   1.063   0.506  0.5709 -0.4178 -2.5435
  594SOL    MW4 2110   4.757   0.996   0.500  0.0816 -0.9129 -0.1968
  595SOL     OW 2111   4.122   5.316   3.192 -0.3632 -0.5445  0.4125
  595SOL    HW2 2112   4.049   5.372   3.166  1.0181  1.8231  1.2746
  595SOL    HW3 2113   4.169   5.297   3.110 -0.3161  0.4291  0.1965
  595SOL    MW4 2114   4.119   5.321   3.178 -0.5563  0.7969  0.0604
  596SOL     OW 2115   0.115   5.180   3.150 -0.1766 -0.1439 -0.0228
  596SOL    HW2 2116   0.105   5.270   3.120  0.9964  0.2761  0.7940
  596SOL    HW3 2117   0.028   5.156   3.182 -1.0578 -0.0636 -2.1841
  596SOL    MW4 2118   0.102   5.189   3.151  0.0236  0.2367  0.1574
  597SOL     OW 2119   2.170   3.522   2.712  0.5451  0.3790 -0.0331
  597SOL    HW2 2120   2.208   3.608   2.697 -0.4777  1.2547  2.1181
  597SOL    HW3 2121   2.180   3.507   2.806 -0.1650 -1.4325 -0.2111
  597SOL    MW4 2122   2.176   3.531   2.722  0.5125  0.3728 -0.3074
  598SOL     OW 2123   0.568   4.705   5.336  0.2741  0.0724  0.0641
  598SOL    HW2 2124   0.567   4.801   5.330 -1.3102  0.1266  0.7945
  598SOL    HW3 2125   0.555   4.687   5.429 -1.2360 -0.8373 -0.2863
  598SOL    MW4 2126   0.566   4.715   5.347  0.1888 -0.3050  0.4537
  599SOL     OW 2127   0.995   0.822   4.633 -0.1997  0.0600  0.2347
  599SOL    HW2 2128   1.011   0.876   4.711 -0.6413  0.0240  0.3523
  599SOL    HW3 2129   1.067   0.759   4.633  0.5730  0.9186 -0.1503
  599SOL    MW4 2130   1.006   0.821   4.644  0.0706 -0.0332 -0.0962
  600SOL     OW 2131   4.634   1.272   3.313 -0.1982 -0.0452  0.6852
  600SOL    HW2 2132   4.541   1.296   3.311 -0.6327 -1.4908 -2.5015
  600SOL    HW3 2133   4.640   1.205   3.380 -1.3888  0.2681  1.1278
  600SOL    MW4 2134   4.622   1.267   3.322  0.3886 -0.6308 -0.3317
  601SOL     OW 2135   5.304   4.929   3.512 -0.1814  0.3480  0.3821
  601SOL    HW2 2136   5.247   4.860   3.478  0.1814  0.7011 -1.0028
  601SOL    HW3 2137   5.369   4.882   3.565  0.4142 -0.4837 -1.0127
  601SOL    MW4 2138   5.305   4.913   3.514 -0.6798 -0.3255  0.1972
  602SOL     OW 2139   5.693   6.212   0.247  0.1400 -0.7312  0.3117
  602SOL    HW2 2140   5.716   6.294   0.202  0.4554 -1.7725 -1.5392
  602SOL    HW3 2141   5.606   6.228   0.282 -0.8544 -0.3347 -2.1185
  602SOL    MW4 2142   5.685   6.225   0.246  0.3091 -0.1011  0.3711
  603SOL     OW 2143   0.670   2.995   4.021  0.0981  0.2679  0.2832
  603SOL    HW2 2144   0.681   2.906   3.985 -0.9291  0.4891 -0.6419
  603SOL    HW3 2145   0.578   3.016   4.005  1.0199  2.8289 -2.7608
  603SOL    MW4 2146   0.660   2.986   4.014 -0.1296  0.7850  0.0646
  604SOL     OW 2147   3.942   6.282   0.663 -0.3784  0.1634  0.4620
  604SOL    HW2 2148   3.918   6.204   0.713  1.0857 -1.1736 -0.8140
  604SOL    HW3 2149   4.037   6.278   0.657 -0.3687  1.4800 -0.5369
  604SOL    MW4 2150   3.951   6.271   0.669 -0.3799  0.4053  0.1204
  605SOL     OW 2151   3.679   2.065   2.524 -0.2298  0.6747 -0.0129
  605SOL    HW2 2152   3.707   2.109   2.443  1.3187  0.4031  0.3288
  605SOL    HW3 2153   3.724   1.980   2.520 -2.7986 -0.7610 -0.4585
  605SOL    MW4 2154   3.689   2.059   2.513 -0.0289  0.0712 -0.1262
  606SOL     OW 2155   0.393   5.040   4.068 -0.1197  0.0620 -0.2113
  606SOL    HW2 2156   0.454   5.097   4.021  0.0503 -0.0677 -0.1495
  606SOL    HW3 2157   0.391   5.074   4.157 -0.4493  0.3135 -0.3112
  606SOL    MW4 2158   0.400   5.052   4.073 -0.3387  0.6045 -0.2447
  607SOL     OW 2159   3.524   6.226   5.442 -0.0378 -0.0169  0.3613
  607SOL    HW2 2160   3.447   6.190   5.487 -0.6566 -0.1719 -0.7775
  607SOL    HW3 2161   3.556   6.154   5.389  0.6143  0.2001  0.4612
  607SOL    MW4 2162   3.518   6.212   5.441  0.4690  0.2228  0.0347
  608SOL     OW 2163   1.318   4.797   0.683  0.4789 -0.8154 -0.4143
  608SOL    HW2 2164   1.385   4.732   0.659  0.5683 -0.9094  0.0711
  608SOL    HW3 2165   1.307   4.850   0.604  1.3130 -0.6405 -0.4241
  608SOL    MW4 2166   1.326   4.795   0.669  0.0204 -0.2833 -0.5394
  609SOL     OW 2167   2.279   1.643   4.912  0.0843 -0.2163  0.4467
  609SOL    HW2 2168   2.252   1.727   4.875  1.2831 -0.5891 -1.3977
  609SOL    HW3 2169   2.374   1.649   4.917  0.2740 -1.8190 -0.6798
  609SOL    MW4 2170   2.288   1.655   4.908  0.0245  0.0746 -0.4767
  610SOL     OW 2171   4.640   4.025   5.647 -0.0612 -0.0389  0.2954
  610SOL    HW2 2172   4.598   3.964   5.708  0.8584  0.5590  1.5802
  610SOL    HW3 2173   4.720   4.052   5.692 -0.0266  1.4608 -0.6075
  610SOL    MW4 2174   4.645   4.021   5.661 -0.1458 -0.5060 -0.4115
  611SOL     OW 2175   1.625   1.850   3.392  0.3457  0.5724 -0.0255
  611SOL    HW2 2176   1.673   1.767   3.398  0.8492  0.6687 -1.9789
  611SOL    HW3 2177   1.666   1.897   3.320  0.2273  2.6711  1.1890
  611SOL    MW4 2178   1.636   1.845   3.383  0.1747  0.1128  0.0351
  612SOL     OW 2179   5.485   2.380   0.585  0.2407 -0.2485  0.3818
  612SOL    HW2 2180   5.407   2.405   0.535 -0.3090  1.9253  2.1860
  612SOL    HW3 2181   5.485   2.438   0.661  3.5067 -0.3372  0.5965
  612SOL    MW4 2182   5.474   2.391   0.589  0.3727  0.1294  0.6627
  613SOL     OW 2183   6.378   5.731   6.395 -0.1187  0.3414 -0.2466
  613SOL    HW2 2184   6.459   5.783   6.397 -0.7128  1.3010 -0.6907
  613SOL    HW3 2185   6.398   5.655   6.451  1.3087  0.2207 -0.8602
  613SOL    MW4 2186   6.391   5.727   6.403  0.1148  0.1886  0.0836
  614SOL     OW 2187   4.064   4.353   3.792 -0.4299 -0.4397  0.2808
  614SOL    HW2 2188   4.111   4.308   3.721  0.1950 -0.4571  0.7005
  614SOL    HW3 2189   3.972   4.344   3.769 -0.2037  0.5650 -1.1578
  614SOL    MW4 2190   4.058   4.346   3.779  0.0283  0.7957  0.4217
  615SOL     OW 2191   1.134   5.188   2.115 -0.1358 -0.2826 -0.3391
  615SOL    HW2 2192   1.168   5.183   2.025 -1.5289 -1.5894 -0.8369
  615SOL    HW3 2193   1.053   5.237   2.108 -0.1055 -0.1358  0.2667
  615SOL    MW4 2194   1.128   5.193   2.102  0.2743 -0.3451 -0.0974
  616SOL     OW 2195   2.800   5.286   3.253 -0.0406 -0.4165 -0.4586
  616SOL    HW2 2196   2.818   5.217   3.189  0.7885 -0.4635 -0.1966
  616SOL    HW3 2197   2.716   5.323   3.227 -0.1994 -1.1214 -0.9626
  616SOL    MW4 2198   2.792   5.282   3.241 -0.4181  0.4761 -0.4712
  617SOL     OW 2199   4.522   5.842   5.733 -0.4077 -0.3764  0.7432
  617SOL    HW2 2200   4.584   5.837   5.661  1.0490 -1.6694  2.0136
  617SOL    HW3 2201   4.437   5.826   5.693  0.3025 -0.5790 -0.7481
  617SOL    MW4 2202   4.519   5.840   5.718 -0.0444  0.0496  0.0183
  618SOL     OW 2203   5.656   0.551   0.528  0.0275  0.1533  0.3969
  618SOL    HW2 2204   5.724   0.605   0.488  0.2174  0.7879  1.5549
  618SOL    HW3 2205   5.610   0.610   0.587 -1.2594 -0.3849 -0.0389
  618SOL    MW4 2206   5.659   0.566   0.531 -0.0176  0.0586 -0.4798
  619SOL     OW 2207   1.625   0.692   5.005 -0.1207  0.4721 -0.6018
  619SOL    HW2 2208   1.628   0.685   5.100 -0.3368  0.1218 -0.6226
  619SOL    HW3 2209   1.575   0.772   4.988 -0.7093  0.1415 -0.4338
  619SOL    MW4 2210   1.619   0.702   5.015  0.2018  0.8431 -0.3023
  620SOL     OW 2211   5.158   3.688   5.760 -0.0396 -0.2384  0.0671
  620SOL    HW2 2212   5.177   3.736   5.840 -1.9260 -0.9234  0.9792
  620SOL    HW3 2213   5.122   3.754   5.700 -1.1501 -0.2071  0.7551
  620SOL    MW4 2214   5.156   3.703   5.762  0.1080 -0.3526 -0.1518
  621SOL     OW 2215   4.942   0.621   1.319 -0.7400  0.0095  0.0511
  621SOL    HW2 2216   4.938   0.710   1.286 -1.3500  0.3436  0.9864
  621SOL    HW3 2217   4.861   0.580   1.289 -0.5671 -0.1699 -0.1812
  621SOL    MW4 2218   4.931   0.627   1.311  0.3788 -0.8735  0.2864
  622SOL     OW 2219   3.652   5.754   5.765  0.2564 -0.5262  0.0377
  622SOL    HW2 2220   3.648   5.762   5.670  2.8363 -1.1361 -0.1976
  622SOL    HW3 2221   3.592   5.682   5.786 -1.3351  0.4655 -0.9332
  622SOL    MW4 2222   3.644   5.745   5.755  0.3532  0.0493  0.2740
  623SOL     OW 2223   1.798   2.424   0.378 -0.6504  0.7058  0.0335
  623SOL    HW2 2224   1.715   2.454   0.415 -1.5642 -0.4334 -1.0302
  623SOL    HW3 2225   1.781   2.334   0.350  1.0384  0.3422  0.0706
  623SOL    MW4 2226   1.785   2.416   0.379  0.1751  0.4148  0.6763
  624SOL     OW 2227   0.020   0.193   2.286  0.1678 -0.1517 -0.3117
  624SOL    HW2 2228   0.053   0.282   2.301  2.0720 -0.8464 -0.0456
  624SOL    HW3 2229  -0.054   0.184   2.345 -0.7932  1.6190 -1.1625
  624SOL    MW4 2230   0.015   0.204   2.296  0.0150  0.3231  0.2658
  625SOL     OW 2231   2.353   2.821   0.074  0.4479 -0.3970  0.3903
  625SOL    HW2 2232   2.409   2.827  -0.004  0.8386  0.5848  0.7240
  625SOL    HW3 2233   2.410   2.787   0.142 -0.1207 -2.0833  0.0607
  625SOL    MW4 2234   2.368   2.818   0.073  0.2904  0.0879 -0.0267
  626SOL     OW 2235   0.838   3.020   5.627  1.0123  0.2758  0.1198
  626SOL    HW2 2236   0.760   3.023   5.573  1.8740  0.5015 -1.1625
  626SOL    HW3 2237   0.813   3.062   5.709 -0.5864 -0.8958  0.2750
  626SOL    MW4 2238   0.825   3.026   5.631  0.3591 -0.1816 -0.4316
  627SOL     OW 2239   1.638   2.568   1.154 -0.2905 -0.6748  0.5066
  627SOL    HW2 2240   1.658   2.475   1.159  0.3078 -0.6139 -0.5603
  627SOL    HW3 2241   1.723   2.612   1.159 -0.6112 -0.1335  1.6585
  627SOL    MW4 2242   1.652   2.562   1.155  0.0921 -0.0757 -0.3878
  628SOL     OW 2243   5.178   6.157   4.708  0.2279 -0.0653  0.2528
  628SOL    HW2 2244   5.133   6.217   4.767  1.5583  0.7479  0.4931
  628SOL    HW3 2245   5.263   6.199   4.692  0.4447 -0.9663 -1.1072
  628SOL    MW4 2246   5.184   6.170   4.714 -0.1698  0.3788  0.0274
  629SOL     OW 2247   5.856   1.835   2.211 -0.3485  0.1754 -0.0664
  629SOL    HW2 2248   5.863   1.762   2.272 -0.8663  1.1009  1.1455
  629SOL    HW3 2249   5.935   1.887   2.227 -1.5295  1.6258  1.5080
  629SOL    MW4 2250   5.868   1.832   2.221 -0.4412  0.1769 -0.0067
  630SOL     OW 2251   3.046   6.219   1.670 -0.0219 -0.5252 -0.0342
  630SOL    HW2 2252   3.052   6.133   1.711  0.3737 -1.6190 -2.2350
  630SOL    HW3 2253   3.024   6.201   1.579  2.9557  1.4942 -1.3234
  630SOL    MW4 2254   3.044   6.205   1.664 -0.7378  0.4340 -0.2302
  631SOL     OW 2255   5.417   1.751   2.910 -0.4478 -0.0798 -0.2673
  631SOL    HW2 2256   5.343   1.778   2.855 -0.6417 -1.3718 -0.6820
  631SOL    HW3 2257   5.413   1.809   2.986 -2.1678 -0.3957 -0.0752
  631SOL    MW4 2258   5.406   1.762   2.913 -0.3996  0.3464  0.7876
  632SOL     OW 2259   3.086   3.038   1.471  0.4617  0.1431  0.1070
  632SOL    HW2 2260   2.992   3.031   1.485  0.4366 -0.8793 -0.5212
  632SOL    HW3 2261   3.095   3.082   1.387  0.5233 -0.4649 -0.2126
  632SOL    MW4 2262   3.075   3.043   1.462  0.2425  0.0283 -0.0560
  633SOL     OW 2263   3.143   4.237   1.186 -0.2124  0.2275 -0.5609
  633SOL    HW2 2264   3.088   4.159   1.183  0.0047  0.0022  0.8265
  633SOL    HW3 2265   3.202   4.223   1.260  3.0767 -0.3771 -3.0555
  633SOL    MW4 2266   3.143   4.225   1.196  0.0474 -0.2446 -0.4695
  634SOL     OW 2267   1.881   5.973   3.159  0.0375  0.0366 -0.4118
  634SOL    HW2 2268   1.806   5.949   3.104 -0.0384  0.3186 -0.4333
  634SOL    HW3 2269   1.910   5.891   3.197  1.7796 -0.6226 -2.9384
  634SOL    MW4 2270   1.875   5.959   3.157  0.4419 -0.2613 -0.0519
  635SOL     OW 2271   4.545   1.050   5.445 -0.1718 -0.3838 -0.1749
  635SOL    HW2 2272   4.544   1.091   5.358  0.0302 -1.1084 -0.5239
  635SOL    HW3 2273   4.492   1.109   5.499 -1.4995 -0.6405 -1.1319
  635SOL    MW4 2274   4.538   1.063   5.440 -0.1508 -0.4654  0.0346
  636SOL     OW 2275   6.243   4.508   1.566  0.0250  0.4780  0.2706
  636SOL    HW2 2276   6.283   4.486   1.650  0.4091  2.0650  0.5292
  636SOL    HW3 2277   6.218   4.600   1.574 -2.1748  0.0241 -0.4905
  636SOL    MW4 2278   6.245   4.517   1.578  0.1946  0.4723 -0.2819
  637SOL     OW 2279   4.579   5.270   2.527  0.0918  0.2886 -0.3188
  637SOL    HW2 2280   4.567   5.324   2.450  0.4824 -1.5613 -1.7485
  637SOL    HW3 2281   4.501   5.215   2.531  0.0849  0.3388  0.6088
  637SOL    MW4 2282   4.567   5.269   2.518 -0.4868  0.2065  0.4085
  638SOL     OW 2283   0.965   3.473   3.943 -0.1550  0.2024  0.2027
  638SOL    HW2 2284   0.888   3.433   3.982 -1.9492  0.3982 -2.8058
  638SOL    HW3 2285   0.931   3.533   3.877  2.5473  3.7728  1.7484
  638SOL    MW4 2286   0.951   3.475   3.939  0.2193  0.3129  0.2015
  639SOL     OW 2287   2.547   0.932   1.230  0.8879 -0.2921  0.7388
  639SOL    HW2 2288   2.521   0.840   1.224  1.9673 -0.5979  0.5657
  639SOL    HW3 2289   2.636   0.934   1.196  0.3873  1.0596 -0.5719
  639SOL    MW4 2290   2.555   0.920   1.225  0.0034  0.5368 -0.1493
  640SOL     OW 2291   0.850   0.729   5.177  0.5208 -0.1761  0.1593
  640SOL    HW2 2292   0.910   0.764   5.244 -0.8369  2.0236  0.3189
  640SOL    HW3 2293   0.825   0.806   5.125 -0.3785 -1.4385 -1.3492
  640SOL    MW4 2294   0.855   0.744   5.179 -0.4738 -0.3119 -0.1949
  641SOL     OW 2295   3.063   1.306   5.583  0.2313 -0.2177 -0.4245
  641SOL    HW2 2296   3.085   1.323   5.675 -0.7037  0.8285 -0.3741
  641SOL    HW3 2297   3.069   1.211   5.575 -2.1105 -0.6160  1.4010
  641SOL    MW4 2298   3.067   1.295   5.594 -0.0810  0.0068 -0.1991
  642SOL     OW 2299   0.351   5.631   2.651  0.1985 -0.4634  0.3323
  642SOL    HW2 2300   0.367   5.546   2.611  0.6688 -1.0145  1.6138
  642SOL    HW3 2301   0.279   5.616   2.712  2.1037 -0.7189  2.6777
  642SOL    MW4 2302   0.344   5.618   2.654 -0.1743 -0.3067  0.0691
  643SOL     OW 2303   3.370   6.117   0.912  0.0492  0.4167 -0.3592
  643SOL    HW2 2304   3.447   6.151   0.866 -0.7115 -0.6795 -2.5541
  643SOL    HW3 2305   3.405   6.081   0.994  1.6952  0.9550 -0.7852
  643SOL    MW4 2306   3.385   6.117   0.917 -0.1979  0.6534  0.2847
  644SOL     OW 2307   5.467   4.134   4.908  0.0861 -0.4187  0.2878
  644SOL    HW2 2308   5.530   4.206   4.910  1.1795 -1.3660  1.5801
  644SOL    HW3 2309   5.433   4.135   4.818  2.2598 -0.1332 -0.5976
  644SOL    MW4 2310   5.470   4.144   4.896  0.3669  0.2407 -0.4763
  645SOL     OW 2311   0.243   5.265   4.756  0.1769 -0.0709  0.1877
  645SOL    HW2 2312   0.179   5.208   4.800 -0.1422 -0.2948 -0.5439
  645SOL    HW3 2313   0.306   5.204   4.717  0.7166  0.1435  0.7249
  645SOL    MW4 2314   0.243   5.249   4.757 -0.0531  0.3712  0.2977
  646SOL     OW 2315   0.048   5.919   3.003 -0.2420 -0.3456  0.5741
  646SOL    HW2 2316   0.127   5.915   3.057  1.1686  2.9173 -0.9899
  646SOL    HW3 2317  -0.023   5.928   3.066  1.2216  2.1123  2.0399
  646SOL    MW4 2318   0.049   5.920   3.018  0.3000  0.8003  0.4662
  647SOL     OW 2319   2.821   3.792   0.085 -0.8885  0.0129 -0.0198
  647SOL    HW2 2320   2.741   3.818   0.037 -1.4418 -0.1974  0.7697
  647SOL    HW3 2321   2.868   3.736   0.023 -0.3124  1.7743 -1.2711
  647SOL    MW4 2322   2.816   3.788   0.070  0.2783  0.3849 -0.3070
  648SOL     OW 2323   0.719   5.463   6.279  0.4791 -0.2660  0.1165
  648SOL    HW2 2324   0.641   5.409   6.264  0.5530 -1.1811  2.4698
  648SOL    HW3 2325   0.790   5.413   6.240  0.2005 -0.6246  0.0611
  648SOL    MW4 2326   0.718   5.449   6.272  0.1249 -0.1049 -0.0953
  649SOL     OW 2327   5.713   2.195   0.405 -0.4238  0.8033  1.2361
  649SOL    HW2 2328   5.716   2.291   0.402  1.1114  0.7923 -1.4642
  649SOL    HW3 2329   5.780   2.172   0.469  2.0619  1.6255 -0.8687
  649SOL    MW4 2330   5.723   2.205   0.413 -0.1390  0.4448  0.0162
  650SOL     OW 2331   0.527   2.597   0.516 -0.4586 -0.0716  0.1749
  650SOL    HW2 2332   0.614   2.637   0.524 -0.0910 -0.9169  0.4786
  650SOL    HW3 2333   0.470   2.653   0.570  0.2465 -0.5091  1.4121
  650SOL    MW4 2334   0.531   2.610   0.524  0.0929  0.4172  0.1556
  651SOL     OW 2335   1.721   2.765   3.719  0.0339 -0.3459  0.2834
  651SOL    HW2 2336   1.758   2.792   3.803 -0.0316  1.3322 -0.1871
  651SOL    HW3 2337   1.686   2.846   3.681 -0.7578 -1.2310 -0.9580
  651SOL    MW4 2338   1.721   2.780   3.725  0.2301 -0.0517 -0.7432
  652SOL     OW 2339   0.097   2.890   3.901  0.6563 -0.0755 -0.0226
  652SOL    HW2 2340   0.100   2.824   3.832  1.2239 -0.7506  0.6307
  652SOL    HW3 2341   0.050   2.964   3.862 -1.6404 -1.5331 -0.1940
  652SOL    MW4 2342   0.091   2.891   3.887 -0.3846 -0.1534 -0.7846
  653SOL     OW 2343   3.662   2.390   0.034 -0.3568 -0.1671  0.0996
  653SOL    HW2 2344   3.584   2.361  -0.013 -0.2215 -0.1393 -0.1445
  653SOL    HW3 2345   3.719   2.313   0.036  0.2701  0.2283 -1.1009
  653SOL    MW4 2346   3.659   2.376   0.028 -0.7252 -0.0066  0.2370
  654SOL     OW 2347   3.754   1.299   6.370  0.0740 -0.5488 -0.2496
  654SOL    HW2 2348   3.667   1.320   6.335  0.5855 -0.0350 -1.2670
  654SOL    HW3 2349   3.775   1.373   6.427 -0.1518 -0.6724 -0.0041
  654SOL    MW4 2350   3.745   1.312   6.373 -0.1464 -0.2924  0.6619
  655SOL     OW 2351   2.845   0.361   2.979  0.1423 -0.4769 -0.2897
  655SOL    HW2 2352   2.797   0.361   2.897 -1.8592 -2.5021  0.7615
  655SOL    HW3 2353   2.899   0.282   2.976  2.1153  0.8174 -0.6849
  655SOL    MW4 2354   2.846   0.350   2.968 -0.1744 -0.3687 -0.2716
  656SOL     OW 2355   5.641   6.402   5.114 -0.1558 -0.7154  0.4172
  656SOL    HW2 2356   5.689   6.334   5.161  0.2604 -1.5387 -1.1368
  656SOL    HW3 2357   5.703   6.474   5.105  0.4043 -1.3124 -0.5486
  656SOL    MW4 2358   5.655   6.402   5.119 -0.5744  0.2706 -0.2340
  657SOL     OW 2359   0.262   2.401   2.150 -0.1576  0.1316 -0.4270
  657SOL    HW2 2360   0.357   2.403   2.142 -0.1373 -1.2015 -0.8166
  657SOL    HW3 2361   0.230   2.423   2.063 -0.2220  0.8330 -0.2328
  657SOL    MW4 2362   0.270   2.404   2.138  0.8572  0.1785 -0.3893
  658SOL     OW 2363   4.449   6.104   0.006  0.3147 -0.0899  0.6316
  658SOL    HW2 2364   4.440   6.157  -0.073 -3.7244 -2.9399 -1.1821
  658SOL    HW3 2365   4.510   6.034  -0.018 -0.7138 -0.8083  0.0142
  658SOL    MW4 2366   4.456   6.101  -0.008 -0.2630  1.2212 -0.1403
  659SOL     OW 2367   1.030   3.010   4.790 -0.2617  0.1609  0.4288
  659SOL    HW2 2368   1.037   3.034   4.698  0.6423 -1.2646  0.1018
  659SOL    HW3 2369   1.120   2.999   4.819 -0.4643  1.6702  1.8230
  659SOL    MW4 2370   1.043   3.012   4.782 -0.5288  0.0923  0.7190
  660SOL     OW 2371   2.252   1.953   4.876 -0.0758 -0.0600  0.6294
  660SOL    HW2 2372   2.186   1.934   4.942 -0.0024  0.7888  0.9622
  660SOL    HW3 2373   2.335   1.952   4.924  0.2282 -1.5547  0.1348
  660SOL    MW4 2374   2.254   1.950   4.891 -0.0524 -0.3191  0.2957
  661SOL     OW 2375   3.351   1.446   4.383  0.1361 -0.1916 -0.0801
  661SOL    HW2 2376   3.332   1.493   4.464  0.0325 -1.2932  0.5545
  661SOL    HW3 2377   3.288   1.374   4.382 -0.7439  0.5329 -1.8039
  661SOL    MW4 2378   3.340   1.443   4.393 -0.6629 -0.0823  0.1351
  662SOL     OW 2379   0.101   3.736   5.089 -0.2660  0.1488 -0.5581
  662SOL    HW2 2380   0.063   3.658   5.048 -2.5317  0.9582 -0.1845
  662SOL    HW3 2381   0.105   3.800   5.018 -0.7367  0.4241 -0.3421
  662SOL    MW4 2382   0.096   3.734   5.074  0.3704  0.1229  0.3111
  663SOL     OW 2383   0.854   0.482   1.121 -0.1674 -0.5990  0.5958
  663SOL    HW2 2384   0.780   0.453   1.069 -1.5850 -2.6513  3.4485
  663SOL    HW3 2385   0.921   0.414   1.109 -0.4306 -0.9858  1.2534
  663SOL    MW4 2386   0.853   0.470   1.113 -0.3864  0.5012  0.1377
  664SOL     OW 2387   3.700   4.551   0.781  0.3685  0.2363 -0.2095
  664SOL    HW2 2388   3.709   4.568   0.875  1.1321 -0.2724 -0.1851
  664SOL    HW3 2389   3.670   4.634   0.744 -1.6890 -0.0277  0.7316
  664SOL    MW4 2390   3.697   4.564   0.789  0.3707 -0.5157 -0.0811
  665SOL     OW 2391   4.074   1.827   1.952 -0.0090 -0.3287 -0.0183
  665SOL    HW2 2392   4.087   1.755   2.014 -2.7732 -1.8100 -0.9885
  665SOL    HW3 2393   4.080   1.785   1.866 -0.8261  0.7721 -0.6267
  665SOL    MW4 2394   4.077   1.812   1.949 -0.3148 -0.0272 -0.3074
  666SOL     OW 2395   4.720   4.570   0.339 -0.1278  0.4031 -0.2935
  666SOL    HW2 2396   4.758   4.497   0.389 -2.2055 -0.5950 -0.0407
  666SOL    HW3 2397   4.708   4.640   0.404 -0.7544 -0.0892  0.1439
  666SOL    MW4 2398   4.724   4.569   0.354 -0.2064 -0.0544  0.2304
  667SOL     OW 2399   3.099   6.186   1.280  0.4227  0.0298  0.2017
  667SOL    HW2 2400   3.071   6.121   1.215  2.2549 -0.2813 -0.3402
  667SOL    HW3 2401   3.182   6.152   1.313  0.7062  1.4006  0.9707
  667SOL    MW4 2402   3.106   6.173   1.276 -0.2007  0.1149  0.1538
  668SOL     OW 2403   3.507   3.778   1.930  0.5840  0.2282  0.2183
  668SOL    HW2 2404   3.425   3.819   1.958  2.2108  3.6807  0.5329
  668SOL    HW3 2405   3.549   3.749   2.011 -0.2711 -1.5123  0.0597
  668SOL    MW4 2406   3.502   3.780   1.945  0.0770 -0.1351 -0.7840
  669SOL     OW 2407   2.302   1.689   1.478  0.0122 -0.1535  0.2532
  669SOL    HW2 2408   2.269   1.776   1.503 -0.6857  0.1493 -1.6136
  669SOL    HW3 2409   2.383   1.707   1.429  0.6636 -0.6708  1.0988
  669SOL    MW4 2410   2.309   1.703   1.475 -0.2028 -0.6659  0.2106
  670SOL     OW 2411   1.594   0.418   2.615  0.2470  0.0526  0.4853
  670SOL    HW2 2412   1.650   0.348   2.646  1.7538  0.9033 -0.2245
  670SOL    HW3 2413   1.608   0.421   2.520 -2.0200 -0.5655  0.0621
  670SOL    MW4 2414   1.603   0.409   2.606 -0.3153 -0.1174 -0.1595
  671SOL     OW 2415   5.168   1.678   4.567 -0.1941  0.2255  0.3812
  671SOL    HW2 2416   5.073   1.690   4.572 -0.5290 -1.8578 -0.1135
  671SOL    HW3 2417   5.204   1.755   4.610 -2.1177  0.7266  1.1991
  671SOL    MW4 2418   5.160   1.690   4.573  0.0350 -0.1522  0.2427
  672SOL     OW 2419   0.220   2.598   1.287  0.3687  0.1638  0.0416
  672SOL    HW2 2420   0.184   2.635   1.206 -0.9370 -2.1443 -0.5278
  672SOL    HW3 2421   0.160   2.629   1.355 -1.2503 -1.4740 -0.5465
  672SOL    MW4 2422   0.207   2.607   1.285 -0.0565  1.0567 -0.1905
  673SOL     OW 2423   1.831   3.807   3.732  0.3250 -0.2751  0.0787
  673SOL    HW2 2424   1.823   3.857   3.650  1.6243  1.3233  0.8718
  673SOL    HW3 2425   1.784   3.726   3.715 -1.4868  1.0122 -1.4423
  673SOL    MW4 2426   1.824   3.803   3.719 -0.3614 -0.2545  0.0216
  674SOL     OW 2427   3.103   6.426   0.402 -0.0186 -0.4170 -0.5683
  674SOL    HW2 2428   3.097   6.414   0.497 -0.3724 -2.6081 -0.8112
  674SOL    HW3 2429   3.119   6.519   0.390 -0.1396 -0.0712  1.6357
  674SOL    MW4 2430   3.104   6.436   0.413 -0.4573 -0.4011 -0.3815
  675SOL     OW 2431   0.492   1.061   0.256 -0.2131 -0.1292  0.6112
  675SOL    HW2 2432   0.487   1.122   0.331  0.0940  0.6553  0.0111
  675SOL    HW3 2433   0.570   1.089   0.208  0.2238 -1.3330  0.5922
  675SOL    MW4 2434   0.502   1.073   0.260  0.6264 -0.1601  0.1982
  676SOL     OW 2435   4.923   3.512   5.685 -0.5169  0.0377  0.7038
  676SOL    HW2 2436   4.897   3.541   5.597 -1.6135  0.9221  1.2840
  676SOL    HW3 2437   5.011   3.546   5.696 -0.8111  0.9499  0.3785
  676SOL    MW4 2438   4.931   3.520   5.675  0.3018 -0.2422 -0.2456
  677SOL     OW 2439   2.026   0.087   3.543 -0.5811  0.5877  0.5194
  677SOL    HW2 2440   2.093   0.019   3.546  1.3574  2.3835 -0.0920
  677SOL    HW3 2441   1.979   0.070   3.461 -0.9672 -0.7044  0.9760
  677SOL    MW4 2442   2.029   0.076   3.532  0.5035 -0.1015 -0.4072
  678SOL     OW 2443   0.527   2.031   2.836 -0.1617 -0.3420  0.0823
  678SOL    HW2 2444   0.569   2.001   2.755 -0.8719 -3.4130  0.7192
  678SOL    HW3 2445   0.438   2.055   2.810 -0.3305 -1.1423 -0.1021
  678SOL    MW4 2446   0.521   2.030   2.822  0.6451 -0.5260 -0.3853
  679SOL     OW 2447   2.461   0.389   6.099  0.0968  0.3666 -0.0239
  679SOL    HW2 2448   2.532   0.329   6.121 -0.7138 -0.2758  0.8870
  679SOL    HW3 2449   2.410   0.343   6.032  0.5938  0.8879 -0.7860
  679SOL    MW4 2450   2.464   0.375   6.093  0.3430 -0.5318 -0.3117
  680SOL     OW 2451   0.314   0.371   2.821 -0.0779 -0.3024 -0.1018
  680SOL    HW2 2452   0.294   0.352   2.729  0.0042 -0.0563 -0.1708
  680SOL    HW3 2453   0.382   0.438   2.818 -0.0812 -0.2872  0.1393
  680SOL    MW4 2454   0.320   0.377   2.809 -0.0178  0.1173 -0.3695
  681SOL     OW 2455   0.419   5.530   1.730 -0.0435 -0.6547 -0.1604
  681SOL    HW2 2456   0.502   5.544   1.776  0.3798 -1.3810 -0.6870
  681SOL    HW3 2457   0.355   5.519   1.800 -0.2208  2.4738  0.3390
  681SOL    MW4 2458   0.422   5.530   1.746 -0.1390  0.6621 -0.1316
  682SOL     OW 2459   5.875   1.327   0.201  0.0338 -0.4300 -0.5325
  682SOL    HW2 2460   5.940   1.281   0.147  0.0771 -1.3503  0.2846
  682SOL    HW3 2461   5.927   1.372   0.268 -0.0622  0.2547 -0.9053
  682SOL    MW4 2462   5.890   1.327   0.202  0.3633 -0.5320 -0.4015
  683SOL     OW 2463   3.945   5.142   1.650 -0.7673  0.1728 -0.2447
  683SOL    HW2 2464   4.024   5.193   1.672 -2.4857  2.2547  1.7141
  683SOL    HW3 2465   3.949   5.130   1.555  1.0760  1.6892 -0.4174
  683SOL    MW4 2466   3.956   5.148   1.641 -0.2014 -0.5259 -0.1679
  684SOL     OW 2467   1.282   1.990   4.014 -0.8446  0.4640 -0.6524
  684SOL    HW2 2468   1.307   1.977   3.923  2.1846  0.6482  0.0680
  684SOL    HW3 2469   1.187   1.976   4.014 -0.9856  0.6394 -3.8238
  684SOL    MW4 2470   1.273   1.986   4.002 -0.5536 -0.2049  0.0099
  685SOL     OW 2471   5.012   2.175   3.488  0.7322  0.0133 -0.8231
  685SOL    HW2 2472   5.034   2.095   3.536  0.5323  0.2648 -0.3048
  685SOL    HW3 2473   4.981   2.144   3.403  1.1981 -0.4357 -0.8366
  685SOL    MW4 2474   5.011   2.160   3.483  0.3194 -0.4921 -0.2960
  686SOL     OW 2475   0.908   5.633   4.312  0.3315 -0.4812  0.0640
  686SOL    HW2 2476   0.925   5.637   4.218 -1.7789 -2.8557 -0.5261
  686SOL    HW3 2477   0.925   5.722   4.343  0.0763  0.6558 -2.7575
  686SOL    MW4 2478   0.913   5.646   4.303  0.1061  0.0153  0.1538
  687SOL     OW 2479   1.258   5.900   5.729 -0.4321 -0.3710 -0.1713
  687SOL    HW2 2480   1.175   5.944   5.713 -1.3175 -1.9959 -0.2545
  687SOL    HW3 2481   1.315   5.931   5.659 -0.5634  1.6563  0.5504
  687SOL    MW4 2482   1.255   5.910   5.717  0.9119 -0.1655  0.1014
  688SOL     OW 2483   4.659   6.379   4.663 -0.0154 -0.1992 -0.1893
  688SOL    HW2 2484   4.567   6.404   4.672 -0.1814 -0.7127 -0.4712
  688SOL    HW3 2485   4.696   6.394   4.750 -0.1612  0.8235 -0.2889
  688SOL    MW4 2486   4.652   6.385   4.676 -0.3440  0.0511  0.2115
  689SOL     OW 2487   4.004   4.810   1.281 -0.0480  0.2504  0.1734
  689SOL    HW2 2488   4.041   4.759   1.352 -1.1867  0.0319  0.6238
  689SOL    HW3 2489   3.993   4.747   1.209 -1.6146 -0.2183  0.7850
  689SOL    MW4 2490   4.007   4.795   1.281  0.0201  0.0772  0.1103
  690SOL     OW 2491   3.745   5.718   0.686  0.6136  0.4320 -0.1482
  690SOL    HW2 2492   3.650   5.711   0.677  0.6151 -0.3814  0.3795
  690SOL    HW3 2493   3.763   5.811   0.676 -0.3468  0.7249  0.6579
  690SOL    MW4 2494   3.735   5.729   0.683 -0.0848 -0.5104 -0.4304
  691SOL     OW 2495   4.908   4.002   1.652  0.6558 -0.1018 -0.1378
  691SOL    HW2 2496   4.828   3.993   1.601 -0.0071  1.4676  0.5739
  691SOL    HW3 2497   4.934   3.911   1.671 -0.7344 -0.6505 -0.7030
  691SOL    MW4 2498   4.901   3.989   1.648  1.1057 -0.0511 -0.3962
  692SOL     OW 2499   1.091   4.112   0.962 -0.1186 -0.0373 -0.1587
  692SOL    HW2 2500   1.125   4.201   0.952  1.6280 -0.6880 -0.3832
  692SOL    HW3 2501   1.047   4.112   1.047  3.6334 -0.0130  1.9931
  692SOL    MW4 2502   1.090   4.124   0.972 -0.2703  0.1940 -0.3460
  693SOL     OW 2503   1.369   4.681   1.457 -0.1467 -0.0840  0.0340
  693SOL    HW2 2504   1.329   4.604   1.417 -1.9279  0.8767 -0.1350
  693SOL    HW3 2505   1.382   4.657   1.548  1.2730 -1.2804 -0.4384
  693SOL    MW4 2506   1.366   4.668   1.464 -1.0751  0.0162 -0.0283
  694SOL     OW 2507   6.204   4.659   0.986 -0.1168  0.5808  0.0263
  694SOL    HW2 2508   6.186   4.579   1.036 -1.3003  0.2608 -0.8625
  694SOL    HW3 2509   6.296   4.678   1.003 -0.2357 -0.0370  1.5733
  694SOL    MW4 2510   6.214   4.651   0.995 -0.1837  0.1381 -0.0844
  695SOL     OW 2511   4.225   1.417   3.797 -0.2133 -0.1288  0.1763
  695SOL    HW2 2512   4.168   1.434   3.872 -0.8458  1.0308 -0.5428
  695SOL    HW3 2513   4.221   1.322   3.785 -1.2344 -0.1661  0.7235
  695SOL    MW4 2514   4.217   1.407   3.806  1.1335 -0.8041 -0.2203
  696SOL     OW 2515   5.893   5.309   4.767  0.4477 -0.5805 -0.5119
  696SOL    HW2 2516   5.936   5.373   4.824 -0.1568 -0.2928 -0.3683
  696SOL    HW3 2517   5.893   5.349   4.680  0.2517 -0.4709 -0.4624
  696SOL    MW4 2518   5.898   5.323   4.763  0.8030  0.3819 -0.9684
  697SOL     OW 2519   0.673   1.222   1.076 -0.1768  0.1195 -0.7665
  697SOL    HW2 2520   0.598   1.169   1.102  0.3862 -0.6195 -0.6168
  697SOL    HW3 2521   0.693   1.274   1.154  1.0468 -1.5550  0.0981
  697SOL    MW4 2522   0.666   1.222   1.090 -0.2526 -0.4950  0.2896
  698SOL     OW 2523   2.104   0.611   4.068  0.0402  0.2940 -0.3598
  698SOL    HW2 2524   2.185   0.570   4.037  0.6161  0.5663  0.7356
  698SOL    HW3 2525   2.065   0.650   3.990  0.8325 -0.0728 -0.9484
  698SOL    MW4 2526   2.109   0.611   4.054  0.2793  0.3193 -0.3877
  699SOL     OW 2527   2.378   6.125   6.095  0.2658 -0.2410  0.1584
  699SOL    HW2 2528   2.440   6.174   6.150 -0.5961  1.2120 -0.1101
  699SOL    HW3 2529   2.402   6.148   6.005 -2.5425  2.9895  0.0403
  699SOL    MW4 2530   2.390   6.135   6.091  0.3619  0.2451 -0.0232
  700SOL     OW 2531   1.516   3.934   3.363 -0.0190  0.2309 -0.1449
  700SOL    HW2 2532   1.591   3.912   3.418 -0.1362  0.0288 -0.0663
  700SOL    HW3 2533   1.537   4.021   3.328  0.7763 -0.3016 -1.0306
  700SOL    MW4 2534   1.529   3.943   3.366  0.4837  0.0828  0.1083
  701SOL     OW 2535   0.814   3.879   2.669 -0.4212  0.4292  0.1551
  701SOL    HW2 2536   0.843   3.958   2.713 -1.1060  1.1771 -0.7082
  701SOL    HW3 2537   0.818   3.901   2.576  1.8440 -1.3849 -0.2896
  701SOL    MW4 2538   0.819   3.892   2.662 -0.0570 -0.1939 -0.3046
  702SOL     OW 2539   0.162   5.487   5.070  0.1754  0.7554 -0.4168
  702SOL    HW2 2540   0.205   5.572   5.067  1.4423  0.2112  0.8131
  702SOL    HW3 2541   0.226   5.426   5.033 -0.6340  0.3004 -1.0959
  702SOL    MW4 2542   0.176   5.490   5.065 -0.2101  0.0774 -0.1951
  703SOL     OW 2543   5.078   4.755   3.516  0.0171  0.1333 -0.4213
  703SOL    HW2 2544   5.137   4.707   3.459  0.2028  0.1254 -0.2255
  703SOL    HW3 2545   4.997   4.762   3.467 -0.0150 -0.3871 -0.4492
  703SOL    MW4 2546   5.075   4.750   3.502  0.0399  0.5450 -0.0288
  704SOL     OW 2547   0.199   3.273   2.755  0.2779  0.5411  0.0943
  704SOL    HW2 2548   0.124   3.324   2.783  1.0247  0.8781  1.6115
  704SOL    HW3 2549   0.193   3.191   2.805  0.6012  0.3372 -0.1937
  704SOL    MW4 2550   0.188   3.269   2.765  0.0682 -0.3276  0.0436
  705SOL     OW 2551   4.084   0.685   2.602 -0.2374 -0.2167 -0.4233
  705SOL    HW2 2552   4.080   0.752   2.670 -1.1774  0.4573 -1.1156
  705SOL    HW3 2553   4.028   0.719   2.532 -0.0223 -1.3212 -1.1505
  705SOL    MW4 2554   4.076   0.699   2.602  0.3553 -0.3656  0.4047
  706SOL     OW 2555   3.886   1.275   5.503  0.4260  0.7434  0.7761
  706SOL    HW2 2556   3.911   1.227   5.424  0.2976  1.2673  0.4057
  706SOL    HW3 2557   3.924   1.362   5.491  0.3046  0.8619  1.2374
  706SOL    MW4 2558   3.894   1.280   5.491 -0.0123  0.3901  0.0372
  707SOL     OW 2559   1.748   1.229   6.111  0.5071  0.1408 -0.2885
  707SOL    HW2 2560   1.721   1.307   6.063  2.2460  0.1838 -1.2691
  707SOL    HW3 2561   1.787   1.172   6.045 -1.1053 -1.8032  0.3227
  707SOL    MW4 2562   1.749   1.231   6.096 -0.4747  0.1668  0.5472
  708SOL     OW 2563   4.890   5.383   6.216  0.0012 -0.0199 -1.0102
  708SOL    HW2 2564   4.879   5.380   6.311 -0.9545 -0.3835 -1.1132
  708SOL    HW3 2565   4.983   5.397   6.202  0.1134  0.2624 -0.0159
  708SOL    MW4 2566   4.901   5.384   6.227  0.2686  0.3486 -1.0057
  709SOL     OW 2567   2.274   5.886   3.700  0.4906  0.1276  0.0908
  709SOL    HW2 2568   2.353   5.839   3.674  0.8020  1.2036 -0.9754
  709SOL    HW3 2569   2.229   5.906   3.617 -1.0915 -0.7580  0.6851
  709SOL    MW4 2570   2.278   5.882   3.685  0.7120 -0.3407  0.2580
  710SOL     OW 2571   2.304   2.396   1.229 -0.2983  0.4741 -0.1556
  710SOL    HW2 2572   2.311   2.491   1.240 -0.5842  0.5131 -0.2868
  710SOL    HW3 2573   2.216   2.382   1.194 -0.2191  0.1699 -0.2453
  710SOL    MW4 2574   2.293   2.407   1.226  0.0817  0.0465 -0.2798
  711SOL     OW 2575   2.301   2.283   4.097 -0.5688 -0.1939  0.0335
  711SOL    HW2 2576   2.289   2.372   4.128 -1.5259 -0.8334  1.6750
  711SOL    HW3 2577   2.218   2.260   4.056 -0.3076 -0.3189 -0.4331
  711SOL    MW4 2578   2.289   2.291   4.096  0.9098  0.0549  0.3271
  712SOL     OW 2579   1.276   4.955   0.444  0.0953  0.2447  0.0002
  712SOL    HW2 2580   1.248   5.027   0.387  1.0916  0.0340 -0.7966
  712SOL    HW3 2581   1.325   4.897   0.386 -0.0078 -0.6650  0.8066
  712SOL    MW4 2582   1.279   4.957   0.429 -0.2204 -0.1829 -0.1188
  713SOL     OW 2583   0.684   5.333   5.269  0.5188 -0.7485 -0.5086
  713SOL    HW2 2584   0.726   5.359   5.187 -0.9914 -1.8240 -1.7084
  713SOL    HW3 2585   0.591   5.348   5.253  0.0433 -2.4459  0.3979
  713SOL    MW4 2586   0.677   5.338   5.256 -0.1017  0.0390 -0.0127
  714SOL     OW 2587   3.045   1.439   1.062 -0.7848 -0.7236  0.1400
  714SOL    HW2 2588   2.975   1.402   1.007 -1.3829  1.0539 -0.3700
  714SOL    HW3 2589   3.004   1.515   1.104  1.2354  1.4408 -1.5037
  714SOL    MW4 2590   3.030   1.444   1.060 -0.2850 -0.4073  0.6217
  715SOL     OW 2591   4.122   1.926   5.345 -0.7454 -0.0672  0.3775
  715SOL    HW2 2592   4.066   2.001   5.364 -0.1220  1.0165 -1.7554
  715SOL    HW3 2593   4.100   1.901   5.256  2.3890  0.7049 -0.7449
  715SOL    MW4 2594   4.112   1.933   5.336  0.5224 -0.6849  0.3883
  716SOL     OW 2595   2.502   4.087   5.552  0.1465 -0.0613 -0.6018
  716SOL    HW2 2596   2.455   4.114   5.474  1.7149 -4.1015 -3.3053
  716SOL    HW3 2597   2.594   4.109   5.534  0.4904 -0.7004  0.2765
  716SOL    MW4 2598   2.508   4.093   5.539  0.1935 -0.1408 -0.1685
  717SOL     OW 2599   5.702   5.116   2.956 -0.2731  0.1580  0.0159
  717SOL    HW2 2600   5.629   5.121   2.894 -0.3587  0.6750  0.1537
  717SOL    HW3 2601   5.780   5.111   2.901 -0.4285 -0.7970 -0.1332
  717SOL    MW4 2602   5.703   5.116   2.941  0.3095  0.0896  0.4377
  718SOL     OW 2603   1.471   0.481   2.973  0.0777  0.2685  0.3936
  718SOL    HW2 2604   1.536   0.551   2.967  0.3324  0.2472  2.1740
  718SOL    HW3 2605   1.405   0.516   3.033 -0.5367 -0.4613  0.1525
  718SOL    MW4 2606   1.471   0.495   2.980  0.2936  0.2729 -0.2051
  719SOL     OW 2607   3.503   1.847   1.398  0.1733  0.4588  0.0894
  719SOL    HW2 2608   3.564   1.892   1.341  0.8283 -0.8677 -0.3115
  719SOL    HW3 2609   3.446   1.798   1.339 -0.7311  1.0046  0.4922
  719SOL    MW4 2610   3.503   1.846   1.383 -0.0843 -0.1727  0.5984
  720SOL     OW 2611   5.681   2.900   1.000 -0.1495  0.1927  0.1980
  720SOL    HW2 2612   5.763   2.881   0.955  0.7902 -1.5677  2.4541
  720SOL    HW3 2613   5.688   2.991   1.027  0.4106  0.4716 -0.8579
  720SOL    MW4 2614   5.693   2.909   0.997  0.7305  0.3893 -0.5101
  721SOL     OW 2615   5.169   3.129   4.884 -0.0865  0.2558 -0.6105
  721SOL    HW2 2616   5.109   3.060   4.914  2.0634 -2.4316 -2.0727
  721SOL    HW3 2617   5.226   3.145   4.959  0.4927 -0.8789 -0.7904
  721SOL    MW4 2618   5.169   3.122   4.898 -0.1421  0.6092 -0.0130
  722SOL     OW 2619   4.702   2.594   6.111 -0.1324  0.5921  0.5899
  722SOL    HW2 2620   4.654   2.512   6.120 -0.7769  1.0755  1.7743
  722SOL    HW3 2621   4.792   2.568   6.092 -0.2494 -0.3959  1.3094
  722SOL    MW4 2622   4.707   2.580   6.109 -0.3952 -0.1142  0.5175
  723SOL     OW 2623   2.095   3.558   5.278 -0.2106  0.1414  0.1981
  723SOL    HW2 2624   2.073   3.586   5.189  1.0119  0.6745  0.0411
  723SOL    HW3 2625   2.168   3.614   5.303 -0.4929 -0.0583  1.5213
  723SOL    MW4 2626   2.102   3.569   5.269  0.0715 -0.1137 -0.3566
  724SOL     OW 2627   4.628   4.948   0.257 -0.3216 -0.5826 -0.4780
  724SOL    HW2 2628   4.591   5.024   0.301 -0.6673  0.2705 -2.1451
  724SOL    HW3 2629   4.613   4.875   0.317 -2.2922  0.2116  0.0574
  724SOL    MW4 2630   4.621   4.948   0.271  0.1532  0.1266  0.0929
  725SOL     OW 2631   1.372   5.354   1.163 -0.1904 -0.5289  0.2793
  725SOL    HW2 2632   1.407   5.319   1.081 -0.4938 -0.6554  0.2027
  725SOL    HW3 2633   1.448   5.357   1.222 -0.1860 -1.4656  0.3422
  725SOL    MW4 2634   1.387   5.350   1.160 -0.4139 -1.1200  0.2008
  726SOL     OW 2635   0.834   5.564   2.159  0.5331  0.1520  0.1495
  726SOL    HW2 2636   0.803   5.480   2.125 -0.4309  0.8127 -0.6232
  726SOL    HW3 2637   0.891   5.598   2.090  1.1298  0.0366  0.5713
  726SOL    MW4 2638   0.837   5.557   2.146 -0.1575 -0.0982  0.3216
  727SOL     OW 2639   3.915   6.355   4.186 -0.4103 -0.2073 -0.3654
  727SOL    HW2 2640   4.001   6.396   4.183 -0.1111 -0.8223 -0.2957
  727SOL    HW3 2641   3.929   6.272   4.231 -1.2940  0.3050  0.9326
  727SOL    MW4 2642   3.928   6.350   4.191 -0.7700  1.3166 -0.4835
  728SOL     OW 2643   3.162   0.943   4.787 -0.8503 -0.3516  0.0940
  728SOL    HW2 2644   3.237   0.884   4.795  2.0424  2.9382 -0.3572
  728SOL    HW3 2645   3.145   0.947   4.692  2.0685  2.7333 -0.5075
  728SOL    MW4 2646   3.170   0.936   4.775  0.2013 -0.2784  0.1261
  729SOL     OW 2647   4.161   0.719   5.279  0.2198 -0.2000  0.4129
  729SOL    HW2 2648   4.093   0.748   5.217 -0.4507 -0.5205  0.9861
  729SOL    HW3 2649   4.119   0.649   5.330  1.7127 -2.1076 -0.8092
  729SOL    MW4 2650   4.146   0.713   5.277  0.5161 -0.2062 -0.1949
  730SOL     OW 2651   2.418   1.889   5.892  0.2548 -0.0724 -0.0749
  730SOL    HW2 2652   2.391   1.920   5.978  1.8317 -0.5548  0.6400
  730SOL    HW3 2653   2.349   1.829   5.865 -0.7153  0.7857  0.4252
  730SOL    MW4 2654   2.405   1.885   5.900 -0.0079 -0.1006  0.0061
  731SOL     OW 2655   3.129   1.154   4.957  0.2536 -0.0506  0.0103
  731SOL    HW2 2656   3.154   1.077   4.906  0.6591 -0.1384  0.3302
  731SOL    HW3 2657   3.129   1.225   4.894 -2.9628 -0.7555 -0.9306
  731SOL    MW4 2658   3.133   1.153   4.942 -0.1247 -0.0429  0.6315
  732SOL     OW 2659   5.204   1.626   0.175 -0.3444 -0.5053  0.1980
  732SOL    HW2 2660   5.135   1.686   0.145 -0.5125 -1.3077 -1.0812
  732SOL    HW3 2661   5.286   1.673   0.156 -0.4991 -0.0357  0.6582
  732SOL    MW4 2662   5.206   1.640   0.169 -0.1110 -0.4459 -0.6915
  733SOL     OW 2663   4.248   4.455   5.595  0.5128 -0.0102 -0.0766
  733SOL    HW2 2664   4.313   4.416   5.536  0.2421 -2.4985  1.1072
  733SOL    HW3 2665   4.211   4.528   5.546  1.5938 -0.8115 -2.2242
  733SOL    MW4 2666   4.252   4.459   5.581  0.1814 -0.0737  0.0357
  734SOL     OW 2667   6.189   2.413   0.469  0.3366  0.0388  0.7822
  734SOL    HW2 2668   6.205   2.374   0.555  1.0619  1.4661  1.3251
  734SOL    HW3 2669   6.135   2.490   0.488 -0.2979 -0.1626 -0.1549
  734SOL    MW4 2670   6.184   2.418   0.483  0.1691  0.0529  0.0700
  735SOL     OW 2671   0.323   4.532   5.600  0.0802 -0.6549 -0.9862
  735SOL    HW2 2672   0.325   4.446   5.558 -0.1577 -0.1270 -2.1006
  735SOL    HW3 2673   0.413   4.547   5.628  0.1544 -1.1845 -0.9272
  735SOL    MW4 2674   0.335   4.523   5.598  0.0428 -0.2139 -0.6733
  736SOL     OW 2675   1.799   6.150   2.596 -0.1882 -0.1910  0.2724
  736SOL    HW2 2676   1.777   6.120   2.685 -0.2171  1.2964  0.7996
  736SOL    HW3 2677   1.851   6.229   2.610 -0.3490  0.1695 -1.0478
  736SOL    MW4 2678   1.803   6.157   2.610  0.8957  0.2632  0.0300
  737SOL     OW 2679   2.969   4.255   0.148  0.3080 -0.3928 -0.3378
  737SOL    HW2 2680   2.994   4.322   0.085 -1.2397  0.7878  0.2511
  737SOL    HW3 2681   2.922   4.189   0.096 -0.6901  0.4250 -0.5074
  737SOL    MW4 2682   2.966   4.255   0.133 -0.0794  0.1899 -0.0960
  738SOL     OW 2683   1.802   3.590   4.031  0.0642  0.4106  0.1388
  738SOL    HW2 2684   1.890   3.574   3.998 -0.0728  3.1176 -1.8791
  738SOL    HW3 2685   1.745   3.543   3.971  0.0322  1.7448 -0.9375
  738SOL    MW4 2686   1.806   3.582   4.019 -0.4163  0.6498 -0.6660
  739SOL     OW 2687   3.489   2.407   3.618 -0.1379 -0.1071  0.5068
  739SOL    HW2 2688   3.540   2.331   3.592 -2.0390 -0.7581 -1.7313
  739SOL    HW3 2689   3.425   2.373   3.681  1.2425  0.4232  2.2470
  739SOL    MW4 2690   3.487   2.392   3.623  0.1792  0.1448  0.5145
  740SOL     OW 2691   1.289   3.199   1.498  0.1666 -0.0964 -0.3161
  740SOL    HW2 2692   1.324   3.249   1.424  2.8483 -1.4867 -0.1014
  740SOL    HW3 2693   1.266   3.265   1.563  1.6597  0.9522 -0.8154
  740SOL    MW4 2694   1.290   3.214   1.497  0.2792 -0.0318 -0.1944
  741SOL     OW 2695   0.232   3.385   4.985 -0.0462  0.1043  0.6672
  741SOL    HW2 2696   0.176   3.337   5.046 -0.8229  1.4541  1.0836
  741SOL    HW3 2697   0.287   3.440   5.041 -1.4704  2.1230  0.2256
  741SOL    MW4 2698   0.232   3.386   5.000  0.2867 -0.2169 -0.0280
  742SOL     OW 2699   3.739   2.794   3.786  0.3633 -0.0322  0.1425
  742SOL    HW2 2700   3.754   2.724   3.849  0.0014  1.5480  2.0735
  742SOL    HW3 2701   3.827   2.823   3.761  0.5306  0.2746  1.0521
  742SOL    MW4 2702   3.753   2.789   3.791 -0.2507 -0.2612  0.1827
  743SOL     OW 2703   4.119   6.049   3.909  0.4211  0.6043  0.0571
  743SOL    HW2 2704   4.094   6.136   3.878 -0.6203  0.9792  1.8323
  743SOL    HW3 2705   4.211   6.057   3.934  0.1131  1.4257  0.9557
  743SOL    MW4 2706   4.128   6.061   3.908 -0.0860  0.1548  0.1219
  744SOL     OW 2707   4.633   2.226   1.551  0.0996 -0.4059 -0.1249
  744SOL    HW2 2708   4.610   2.135   1.572 -2.5161  0.2840  0.2814
  744SOL    HW3 2709   4.727   2.223   1.533 -0.1898 -3.4890 -1.8125
  744SOL    MW4 2710   4.642   2.214   1.552  0.7526 -0.2046  0.4265
  745SOL     OW 2711   4.877   6.341   0.540 -0.4117  0.8568 -0.0435
  745SOL    HW2 2712   4.890   6.280   0.613 -0.8341  2.5296  1.5051
  745SOL    HW3 2713   4.782   6.343   0.527 -0.2767 -0.1751 -1.3431
  745SOL    MW4 2714   4.866   6.333   0.548 -0.3458  0.6386  0.0715
  746SOL     OW 2715   4.536   0.025   5.602 -0.3318  0.1829 -0.3397
  746SOL    HW2 2716   4.590  -0.027   5.662  0.3974  0.2437 -0.9203
  746SOL    HW3 2717   4.460  -0.030   5.585 -1.4278  0.8708  1.9827
  746SOL    MW4 2718   4.533   0.011   5.608  0.5498 -0.3982  0.1954
  747SOL     OW 2719   1.118   2.894   2.662  0.1180  0.6401  0.1081
  747SOL    HW2 2720   1.060   2.952   2.613  1.0926  0.7690 -0.9626
  747SOL    HW3 2721   1.061   2.824   2.695 -0.5238  0.2751 -1.6571
  747SOL    MW4 2722   1.103   2.892   2.659 -0.1367 -0.0673  0.0807
  748SOL     OW 2723   1.042   4.056   3.033 -0.0067 -0.0513 -0.1255
  748SOL    HW2 2724   1.047   4.147   3.064  1.2633  0.1320 -0.7878
  748SOL    HW3 2725   0.991   4.011   3.099  0.1357  0.9564  0.7010
  748SOL    MW4 2726   1.036   4.062   3.045  0.2975  0.0580 -0.4128
  749SOL     OW 2727   4.993   3.365   5.292  0.4451 -0.8053 -0.0946
  749SOL    HW2 2728   4.946   3.440   5.328  0.1212 -0.0300 -2.0005
  749SOL    HW3 2729   5.067   3.403   5.245  0.1650 -1.6391 -1.2647
  749SOL    MW4 2730   4.997   3.379   5.290  0.1475 -0.2730  0.1041
  750SOL     OW 2731   5.839   1.452   1.743 -0.0033  0.4919  0.0857
  750SOL    HW2 2732   5.771   1.450   1.811 -0.0211  0.4739  0.0680
  750SOL    HW3 2733   5.797   1.412   1.667 -0.1552  0.9842 -0.0917
  750SOL    MW4 2734   5.824   1.446   1.742 -0.2450  0.2530 -0.4626
  751SOL     OW 2735   5.084   0.740   2.621 -0.5480 -0.1842 -0.5268
  751SOL    HW2 2736   5.136   0.687   2.561  0.8694  0.3288  0.1963
  751SOL    HW3 2737   5.058   0.680   2.691  0.2038 -0.1558 -0.2194
  751SOL    MW4 2738   5.087   0.725   2.622  0.5391 -0.5324  0.2201
  752SOL     OW 2739   0.665   3.175   6.157 -0.1867  0.4008 -0.0949
  752SOL    HW2 2740   0.701   3.105   6.103 -0.4987  0.5410 -0.4957
  752SOL    HW3 2741   0.581   3.140   6.187 -0.3719  0.6247 -0.3486
  752SOL    MW4 2742   0.658   3.161   6.154 -0.3025 -0.0242  0.4576
  753SOL     OW 2743   0.082   1.683   5.973 -0.1720  0.4404  0.4111
  753SOL    HW2 2744   0.131   1.755   6.013  2.9664 -1.1606 -0.2169
  753SOL    HW3 2745   0.149   1.631   5.928 -2.7624 -0.9289 -2.1920
  753SOL    MW4 2746   0.098   1.686   5.972 -0.1324  0.0321 -0.1025
  754SOL     OW 2747   2.728   0.332   6.199 -0.1456  0.3325 -0.4803
  754SOL    HW2 2748   2.690   0.269   6.261  0.6814 -0.5403 -0.8279
  754SOL    HW3 2749   2.791   0.280   6.148  0.5953  1.4650 -0.7494
  754SOL    MW4 2750   2.731   0.317   6.200 -0.4301 -0.0371  0.0469
  755SOL     OW 2751   5.911   0.279   1.771 -0.0778 -0.2730  0.3237
  755SOL    HW2 2752   5.858   0.285   1.691 -1.7246  0.0759  1.3875
  755SOL    HW3 2753   5.966   0.202   1.757  0.6417  0.5240 -1.6748
  755SOL    MW4 2754   5.911   0.270   1.758  0.6392 -0.3475 -0.6024
  756SOL     OW 2755   1.846   5.089   1.641  0.0877 -0.2498 -0.1505
  756SOL    HW2 2756   1.824   5.030   1.568 -1.9828 -0.3980  0.5445
  756SOL    HW3 2757   1.776   5.077   1.704  1.7648 -0.0441  1.8716
  756SOL    MW4 2758   1.834   5.079   1.640  0.2911  0.1110  0.0216
  757SOL     OW 2759   6.298   3.137   2.950  0.1206  0.0656 -0.1029
  757SOL    HW2 2760   6.347   3.055   2.949  0.0800 -0.0129  1.4989
  757SOL    HW3 2761   6.358   3.199   2.993 -0.4628  0.4417  0.1811
  757SOL    MW4 2762   6.313   3.135   2.956  0.0017  0.2243 -0.1748
  758SOL     OW 2763   1.795   0.060   3.056  0.7315  0.3596 -0.2912
  758SOL    HW2 2764   1.746   0.139   3.078  1.9144  0.5661  1.9690
  758SOL    HW3 2765   1.824   0.026   3.141  1.7245 -1.5399 -1.3211
  758SOL    MW4 2766   1.793   0.066   3.070  0.0210 -0.1801  0.3652
  759SOL     OW 2767   4.393   4.515   2.236  0.2418 -0.2931  0.5959
  759SOL    HW2 2768   4.324   4.581   2.227 -0.3411 -0.8567  0.8251
  759SOL    HW3 2769   4.465   4.548   2.183 -0.8531 -0.5493 -1.1137
  759SOL    MW4 2770   4.394   4.528   2.228  0.3053  0.2720  0.0578
  760SOL     OW 2771   4.863   3.238   4.442  0.1011  0.0992  0.8430
  760SOL    HW2 2772   4.781   3.192   4.422  0.9484 -1.4012  0.7025
  760SOL    HW3 2773   4.841   3.331   4.433 -1.6817 -0.2474  1.1711
  760SOL    MW4 2774   4.849   3.244   4.438  0.2247 -0.3175  0.0555
  761SOL     OW 2775   5.340   1.955   3.094 -0.0071 -0.2512 -0.0741
  761SOL    HW2 2776   5.266   2.014   3.110  0.0690 -0.4242  1.0542
  761SOL    HW3 2777   5.411   1.992   3.147  0.8635  0.1656 -1.4977
  761SOL    MW4 2778   5.339   1.967   3.103 -0.2827  0.4901  0.8946
  762SOL     OW 2779   0.150   0.248   0.254 -0.5126  0.8968  0.2750
  762SOL    HW2 2780   0.204   0.327   0.241  0.3165  0.7924  2.5542
  762SOL    HW3 2781   0.193   0.181   0.201  0.8474  1.1564  1.0032
  762SOL    MW4 2782   0.163   0.250   0.245 -0.0214  0.9298  0.1762
  763SOL     OW 2783   2.593   5.930   0.166  0.4910 -0.2768  0.0231
  763SOL    HW2 2784   2.627   5.868   0.102 -0.9201 -0.6673 -0.3918
  763SOL    HW3 2785   2.516   5.969   0.123  0.8401  1.1286  0.6053
  763SOL    MW4 2786   2.587   5.927   0.152  0.5782  0.4012  0.5135
  764SOL     OW 2787   2.970   1.892   5.709  0.3224 -0.5903  0.1143
  764SOL    HW2 2788   3.056   1.865   5.741 -0.1769 -0.1820  1.8753
  764SOL    HW3 2789   2.959   1.981   5.742 -0.7591 -0.6208 -0.1306
  764SOL    MW4 2790   2.980   1.901   5.717 -0.3764  0.0909  0.5499
  765SOL     OW 2791   1.441   2.024   5.192 -0.7192  0.4335  0.2675
  765SOL    HW2 2792   1.510   2.090   5.199 -1.0968  0.8690 -0.0426
  765SOL    HW3 2793   1.389   2.052   5.117  1.0330 -2.0208 -2.0198
  765SOL    MW4 2794   1.443   2.036   5.183 -0.4375  0.0940  0.1756
  766SOL     OW 2795   2.508   3.308   1.454 -0.0013 -0.5580  0.8914
  766SOL    HW2 2796   2.459   3.236   1.414 -1.1830 -0.2221  1.6532
  766SOL    HW3 2797   2.598   3.296   1.425 -0.2921 -1.9837  0.5209
  766SOL    MW4 2798   2.513   3.297   1.445  0.3854 -0.4107 -0.0749
  767SOL     OW 2799   3.349   4.231   4.215  0.4159  0.3625  0.9870
  767SOL    HW2 2800   3.355   4.146   4.259  1.4064 -0.3557 -0.4753
  767SOL    HW3 2801   3.360   4.212   4.122  2.8555  2.2949  0.7565
  767SOL    MW4 2802   3.351   4.218   4.209  0.2402 -0.9664 -0.0175
  768SOL     OW 2803   4.372   4.153   2.232  0.3179  0.0715  0.8456
  768SOL    HW2 2804   4.307   4.123   2.295  0.2928 -2.7045 -0.3596
  768SOL    HW3 2805   4.325   4.157   2.149  1.4648 -1.4119  0.0726
  768SOL    MW4 2806   4.357   4.150   2.229 -0.2165 -0.0021 -0.3583
  769SOL     OW 2807   2.734   0.584   3.984 -0.0181  0.1865 -0.1798
  769SOL    HW2 2808   2.815   0.576   4.034 -0.0874 -1.4720 -0.2587
  769SOL    HW3 2809   2.708   0.493   3.966 -1.8348  0.6831 -0.2654
  769SOL    MW4 2810   2.741   0.571   3.988  0.4107 -0.3454 -0.5559
  770SOL     OW 2811   5.992   0.033   0.907  0.4562  0.4480 -0.3068
  770SOL    HW2 2812   6.055   0.104   0.907  0.8343  0.1185 -0.2103
  770SOL    HW3 2813   6.045  -0.046   0.894  0.3340 -0.0865  2.0604
  770SOL    MW4 2814   6.007   0.032   0.905  0.2654  0.2461  0.1269
  771SOL     OW 2815   4.613   5.425   4.256  0.5434  0.0576 -0.2659
  771SOL    HW2 2816   4.555   5.483   4.206 -2.9251  0.4568  3.7291
  771SOL    HW3 2817   4.580   5.337   4.239 -0.9764  0.2320  1.4709
  771SOL    MW4 2818   4.601   5.421   4.247 -0.4393  0.3989 -0.2697
  772SOL     OW 2819   2.285   1.801   2.240 -0.7472  0.0940 -0.5116
  772SOL    HW2 2820   2.221   1.840   2.300 -1.6876 -0.7485 -0.9323
  772SOL    HW3 2821   2.291   1.864   2.167  0.1565  0.9610  0.2865
  772SOL    MW4 2822   2.277   1.815   2.238  0.1685  0.1448 -0.4921
  773SOL     OW 2823   0.243   3.533   1.797  0.4360  0.3500  1.0570
  773SOL    HW2 2824   0.153   3.563   1.811  0.2421  0.3446 -0.0289
  773SOL    HW3 2825   0.274   3.585   1.722  0.6784 -0.9379  0.2241
  773SOL    MW4 2826   0.235   3.544   1.789  0.2156  0.4028  0.0427
  774SOL     OW 2827   4.896   1.421   5.337 -0.1495 -0.2458  0.0486
  774SOL    HW2 2828   4.986   1.445   5.315  0.1439  0.4133  1.7887
  774SOL    HW3 2829   4.867   1.367   5.264  1.7741 -0.7472 -0.4046
  774SOL    MW4 2830   4.904   1.417   5.325  0.0073 -0.1937 -0.4005
  775SOL     OW 2831   2.897   3.006   2.972 -0.0946 -0.1374  0.1913
  775SOL    HW2 2832   2.883   2.948   2.898  0.6323  0.4852 -0.4547
  775SOL    HW3 2833   2.864   3.091   2.942 -0.9824 -0.1493  1.0563
  775SOL    MW4 2834   2.891   3.010   2.958  0.1399  0.0689 -0.3859
  776SOL     OW 2835   6.412   5.266   5.556 -0.3245  0.0537  0.1217
  776SOL    HW2 2836   6.370   5.350   5.575  1.9898  1.1348  0.9534
  776SOL    HW3 2837   6.421   5.223   5.641 -1.1522 -0.8929 -0.2506
  776SOL    MW4 2838   6.408   5.271   5.570  0.0929  0.0152  0.0340
  777SOL     OW 2839   2.076   6.297   5.625 -0.2675  0.0049  1.0024
  777SOL    HW2 2840   2.103   6.209   5.653 -1.6729 -0.8252 -0.1164
  777SOL    HW3 2841   1.982   6.289   5.606 -0.0561  1.2731 -0.8964
  777SOL    MW4 2842   2.067   6.284   5.626  0.5598  0.3364 -0.0900
  778SOL     OW 2843   3.748   2.497   6.110  0.0398  0.1737 -0.1139
  778SOL    HW2 2844   3.694   2.432   6.065  0.8584 -0.5071 -0.1305
  778SOL    HW3 2845   3.802   2.446   6.171 -0.3298  0.9782  0.9291
  778SOL    MW4 2846   3.748   2.482   6.112 -0.7780  0.2766 -0.3943
  779SOL     OW 2847   0.119   2.526   0.021 -0.0749 -0.0667  0.1916
  779SOL    HW2 2848   0.047   2.526   0.084 -0.8563  2.7003 -0.5776
  779SOL    HW3 2849   0.169   2.605   0.041  0.6637 -0.0441 -1.5528
  779SOL    MW4 2850   0.116   2.536   0.032 -0.1712 -0.5062  0.2964
  780SOL     OW 2851   2.529   1.483   5.842 -0.4008 -1.2033 -0.0295
  780SOL    HW2 2852   2.453   1.470   5.785 -0.1746 -0.8268 -0.4302
  780SOL    HW3 2853   2.597   1.516   5.783 -0.0628 -1.1074  0.4085
  780SOL    MW4 2854   2.528   1.485   5.826 -0.0634  0.5878 -0.7953
  781SOL     OW 2855   4.071   1.936   3.095  0.2721  0.0873  0.7417
  781SOL    HW2 2856   4.084   1.996   3.168  2.0551 -0.6264  1.0548
  781SOL    HW3 2857   4.123   1.859   3.118 -1.0676 -1.1517 -0.1589
  781SOL    MW4 2858   4.079   1.933   3.108 -0.0422 -0.0291  0.0690
  782SOL     OW 2859   6.396   5.213   0.740 -0.3197 -0.1106 -0.4819
  782SOL    HW2 2860   6.445   5.147   0.692 -0.3799  0.9773 -2.1397
  782SOL    HW3 2861   6.454   5.290   0.742 -0.7540  0.2139  0.2459
  782SOL    MW4 2862   6.410   5.215   0.734 -0.1624  0.0278  0.3012
  783SOL     OW 2863   5.983   0.420   2.525  0.1750 -0.7194  0.5614
  783SOL    HW2 2864   5.979   0.360   2.600 -1.3498 -0.8977  0.3728
  783SOL    HW3 2865   5.892   0.434   2.501  0.6092 -0.1044 -0.8291
  783SOL    MW4 2866   5.971   0.414   2.531 -0.0082  0.2210 -0.1944
  784SOL     OW 2867   2.098   2.344   0.144  0.0382  0.1188  0.2062
  784SOL    HW2 2868   2.050   2.427   0.148  0.2849  0.4732 -2.3868
  784SOL    HW3 2869   2.031   2.279   0.123  0.0520 -0.1514  0.9583
  784SOL    MW4 2870   2.083   2.346   0.142 -0.2565 -0.0422  0.3621
  785SOL     OW 2871   4.422   6.194   6.175 -0.0072 -0.6578  0.4447
  785SOL    HW2 2872   4.345   6.138   6.170  0.8538 -1.8270 -0.1205
  785SOL    HW3 2873   4.415   6.251   6.098 -1.9219  1.4838  2.0620
  785SOL    MW4 2874   4.411   6.194   6.164 -0.5734  0.3761 -0.4270
  786SOL     OW 2875   5.676   2.610   4.251  0.8059 -0.4362 -0.6276
  786SOL    HW2 2876   5.660   2.530   4.200 -0.3605  0.5492 -1.8943
  786SOL    HW3 2877   5.615   2.605   4.324  0.0997 -0.3131 -1.1936
  786SOL    MW4 2878   5.666   2.598   4.254 -0.8338  0.5225  0.3429
  787SOL     OW 2879   3.805   1.910   1.679  0.0871  0.1772  0.0150
  787SOL    HW2 2880   3.765   1.958   1.751  1.1031 -1.2388  1.6014
  787SOL    HW3 2881   3.743   1.840   1.659 -0.2013  0.5783 -0.5178
  787SOL    MW4 2882   3.792   1.907   1.686  1.0604  0.3073  0.2312
  788SOL     OW 2883   4.885   5.976   6.060  0.1781  0.5186  0.0403
  788SOL    HW2 2884   4.877   5.933   6.145 -1.8227 -0.5936 -0.6472
  788SOL    HW3 2885   4.974   6.010   6.059  1.1224 -1.6464  1.5897
  788SOL    MW4 2886   4.896   5.975   6.071 -0.2654  0.3158  0.1684
  789SOL     OW 2887   2.811   4.132   5.630  0.3239 -0.5257 -0.6803
  789SOL    HW2 2888   2.860   4.163   5.706  0.5491  2.2877 -1.8602
  789SOL    HW3 2889   2.876   4.124   5.561 -0.4572  1.3175 -1.7227
  789SOL    MW4 2890   2.826   4.135   5.631  0.1840  0.2178 -0.5825
  790SOL     OW 2891   3.826   1.230   0.215 -0.1835 -0.1116 -0.1814
  790SOL    HW2 2892   3.763   1.258   0.149 -0.2925  0.0386 -0.0170
  790SOL    HW3 2893   3.877   1.161   0.173  0.5678  0.8341 -0.8424
  790SOL    MW4 2894   3.824   1.224   0.201 -0.4815 -0.6160 -0.3229
  791SOL     OW 2895   1.821   3.043   5.274 -0.1371 -0.1283 -0.8062
  791SOL    HW2 2896   1.894   3.042   5.336 -0.1088  1.5536 -0.7753
  791SOL    HW3 2897   1.820   3.132   5.238 -3.1470  0.4278  0.3616
  791SOL    MW4 2898   1.830   3.055   5.277  0.4917  0.3049 -0.7240
  792SOL     OW 2899   1.334   2.270   6.309 -0.2182  0.4288  0.0159
  792SOL    HW2 2900   1.356   2.196   6.365 -2.8014 -0.3390  0.1686
  792SOL    HW3 2901   1.321   2.232   6.222 -1.1223  0.7501 -0.0002
  792SOL    MW4 2902   1.335   2.256   6.305 -0.5437 -0.0033  0.2469
  793SOL     OW 2903   2.606   1.786   5.232 -0.0193  0.0228 -0.4328
  793SOL    HW2 2904   2.530   1.820   5.279 -0.1187  1.4298 -1.5394
  793SOL    HW3 2905   2.569   1.734   5.161  0.0974 -0.5575 -0.0758
  793SOL    MW4 2906   2.591   1.783   5.229 -0.9387  0.1123 -0.6188
  794SOL     OW 2907   5.153   6.185   5.691 -0.3916 -0.0871 -0.2321
  794SOL    HW2 2908   5.138   6.279   5.682 -0.2523  0.4579  3.5254
  794SOL    HW3 2909   5.246   6.174   5.674 -0.1310  0.7032  0.6281
  794SOL    MW4 2910   5.163   6.196   5.687  0.4459 -0.1058  0.5417
  795SOL     OW 2911   5.890   2.987   1.325  0.3307  0.1845  0.3178
  795SOL    HW2 2912   5.913   2.923   1.258  0.9120  2.5282 -1.8703
  795SOL    HW3 2913   5.974   3.020   1.357  0.0522  0.9623  0.2683
  795SOL    MW4 2914   5.904   2.983   1.320 -0.3681 -0.4130 -0.7863
  796SOL     OW 2915   5.086   0.584   5.792 -0.8618  0.3903  0.1767
  796SOL    HW2 2916   5.032   0.564   5.868 -0.0843 -0.6263  0.4849
  796SOL    HW3 2917   5.113   0.498   5.758  2.1096  0.8111  1.1777
  796SOL    MW4 2918   5.082   0.570   5.797 -0.4908  0.3875 -0.1682
  797SOL     OW 2919   3.888   6.120   2.918 -0.2676 -0.5867  0.2233
  797SOL    HW2 2920   3.852   6.043   2.964 -2.5858 -0.4526 -1.2096
  797SOL    HW3 2921   3.877   6.099   2.825  2.4591 -0.0068 -0.3051
  797SOL    MW4 2922   3.882   6.107   2.912  0.8256  0.8000 -0.3328
  798SOL     OW 2923   1.278   2.325   5.777 -0.0560 -0.7073  0.1892
  798SOL    HW2 2924   1.289   2.230   5.783 -1.4477 -0.8588  0.7668
  798SOL    HW3 2925   1.197   2.337   5.729  0.2707  0.2061 -0.1540
  798SOL    MW4 2926   1.269   2.314   5.772 -0.1580  0.6753  0.4178
  799SOL     OW 2927   0.296   4.270   4.130  0.2133  0.3228  0.2966
  799SOL    HW2 2928   0.331   4.256   4.218  2.2492  1.9722 -0.1479
  799SOL    HW3 2929   0.293   4.183   4.091  1.0125 -0.2301  1.4124
  799SOL    MW4 2930   0.300   4.257   4.137 -0.7754 -0.6051  0.3458
  800SOL     OW 2931   3.173   0.221   0.265  0.0559 -0.2858 -0.4254
  800SOL    HW2 2932   3.130   0.205   0.181  0.0324  0.5636 -0.5859
  800SOL    HW3 2933   3.262   0.248   0.241 -0.4410  1.6521 -0.2917
  800SOL    MW4 2934   3.179   0.223   0.251  0.7864  0.7429  0.0678
  801SOL     OW 2935   0.939   3.201   4.601 -0.2968  0.2211  0.2145
  801SOL    HW2 2936   0.911   3.271   4.659 -0.5886 -0.5476  1.0085
  801SOL    HW3 2937   0.870   3.195   4.535  0.5402  1.8133 -0.8884
  801SOL    MW4 2938   0.926   3.210   4.600  0.4926 -0.9572 -0.0156
  802SOL     OW 2939   0.309   1.263   2.537  0.1603 -0.2835  0.1443
  802SOL    HW2 2940   0.324   1.325   2.466  0.4575 -0.3880  0.1152
  802SOL    HW3 2941   0.327   1.177   2.499 -3.8881 -0.8563 -0.9652
  802SOL    MW4 2942   0.313   1.260   2.523  0.3708  0.4790 -0.5385
  803SOL     OW 2943   1.544   6.373   0.337 -0.4078  0.9272 -0.0077
  803SOL    HW2 2944   1.475   6.315   0.372  0.1324  1.0837  1.3849
  803SOL    HW3 2945   1.503   6.418   0.264 -1.2282 -0.3144 -0.3410
  803SOL    MW4 2946   1.529   6.371   0.332 -0.1953  0.1778  0.0010
  804SOL     OW 2947   1.247   3.465   3.950  0.8625  0.3053 -0.2346
  804SOL    HW2 2948   1.153   3.461   3.934  0.5036 -0.7221  1.7172
  804SOL    HW3 2949   1.285   3.501   3.870 -1.4567  3.6604 -0.0085
  804SOL    MW4 2950   1.240   3.469   3.937 -0.0175  0.3144  0.2006
  805SOL     OW 2951   1.074   3.845   5.795  0.1127  0.1421 -0.4185
  805SOL    HW2 2952   1.073   3.784   5.722  0.0744  0.1092 -0.3900
  805SOL    HW3 2953   1.167   3.859   5.812  0.1221 -0.0662 -0.2927
  805SOL    MW4 2954   1.086   3.839   5.788 -0.5062 -0.4022 -0.2474
  806SOL     OW 2955   0.364   3.741   5.934  0.1949 -0.0352 -0.2612
  806SOL    HW2 2956   0.449   3.753   5.978  1.0674  1.0777 -2.1324
  806SOL    HW3 2957   0.310   3.697   6.000  1.9840 -0.1359  1.2537
  806SOL    MW4 2958   0.368   3.737   5.949  0.1833 -0.5071  0.5796
  807SOL     OW 2959   0.571   2.366   2.216 -0.1231 -0.3072 -0.2833
  807SOL    HW2 2960   0.590   2.302   2.285 -0.1474  0.3092  0.2967
  807SOL    HW3 2961   0.566   2.450   2.261 -0.2836  0.0844 -1.0161
  807SOL    MW4 2962   0.573   2.368   2.231 -0.5557 -0.1785  0.3804
  808SOL     OW 2963   1.966   5.666   4.469 -0.2630 -0.7951 -0.2070
  808SOL    HW2 2964   2.012   5.747   4.493 -0.6949 -0.4155 -0.6200
  808SOL    HW3 2965   1.879   5.675   4.509 -0.4115 -0.9127 -0.4949
  808SOL    MW4 2966   1.960   5.678   4.477 -0.3326 -0.0915  0.2981
  809SOL     OW 2967   0.405   2.839   2.791  0.0022  0.0418  0.4293
  809SOL    HW2 2968   0.440   2.789   2.718  0.0088  0.7877 -0.0851
  809SOL    HW3 2969   0.475   2.838   2.856  0.2404 -0.0724  0.1701
  809SOL    MW4 2970   0.419   2.832   2.790 -0.5215  0.4749  0.5520
  810SOL     OW 2971   5.365   0.420   3.350 -0.1231 -0.2779  0.6109
  810SOL    HW2 2972   5.393   0.336   3.314 -1.0760 -1.2166  1.9780
  810SOL    HW3 2973   5.288   0.444   3.299  0.0617 -0.2957  0.3188
  810SOL    MW4 2974   5.359   0.412   3.339  0.1069  0.1947 -0.1875
  811SOL     OW 2975   2.072   1.527   5.982  0.0354 -0.2016 -0.7434
  811SOL    HW2 2976   2.104   1.440   5.957 -0.2273  0.0084 -1.8704
  811SOL    HW3 2977   1.984   1.511   6.014  0.6327 -0.5701  0.8297
  811SOL    MW4 2978   2.065   1.513   5.983  0.4719  0.1048  0.0291
  812SOL     OW 2979   2.438   1.114   1.431 -0.4765 -0.2575 -0.3387
  812SOL    HW2 2980   2.374   1.043   1.429 -1.5455  0.6980 -2.2278
  812SOL    HW3 2981   2.504   1.089   1.366 -0.8978  0.5073 -1.0646
  812SOL    MW4 2982   2.438   1.101   1.422  1.0173 -0.2310 -0.0272
  813SOL     OW 2983   1.693   5.078   1.220 -0.1247 -0.2597  0.1921
  813SOL    HW2 2984   1.630   5.034   1.277  0.9808  0.4513  2.0369
  813SOL    HW3 2985   1.770   5.022   1.222 -0.1007 -0.2849 -0.7527
  813SOL    MW4 2986   1.694   5.065   1.228  0.2847  0.0318 -0.2399
  814SOL     OW 2987   2.556   5.926   3.335  0.0755 -0.2095  0.0519
  814SOL    HW2 2988   2.471   5.964   3.312  1.1704  2.0736 -0.5216
  814SOL    HW3 2989   2.577   5.963   3.421  2.7874  3.7251 -2.0319
  814SOL    MW4 2990   2.548   5.936   3.343 -0.1326  0.9142  0.3745
  815SOL     OW 2991   4.932   0.510   0.616 -0.1753 -0.3534  0.0005
  815SOL    HW2 2992   4.910   0.420   0.593 -1.3130 -0.2922  0.7274
  815SOL    HW3 2993   5.027   0.516   0.605 -0.1762 -1.4465 -0.6925
  815SOL    MW4 2994   4.942   0.499   0.612  0.4647  0.3632  0.4086
  816SOL     OW 2995   3.825   5.201   1.905  0.9319  0.6965 -0.2050
  816SOL    HW2 2996   3.861   5.164   1.825  1.9960 -0.8392  0.9248
  816SOL    HW3 2997   3.786   5.127   1.951 -0.5688  1.7191  0.2691
  816SOL    MW4 2998   3.824   5.187   1.901 -0.3057  0.4193 -0.2507
  817SOL     OW 2999   0.708   3.901   4.033 -0.3375 -0.4490  0.6464
  817SOL    HW2 3000   0.639   3.870   4.092 -2.4108 -3.0762 -2.8205
  817SOL    HW3 3001   0.663   3.954   3.968  1.2294 -0.5381 -0.5961
  817SOL    MW4 3002   0.693   3.904   4.032  0.0140 -0.3896 -0.0815
  818SOL     OW 3003   4.319   4.694   2.878  0.5067 -0.4235 -0.6197
  818SOL    HW2 3004   4.363   4.742   2.808 -0.1619  0.0069 -0.7531
  818SOL    HW3 3005   4.255   4.638   2.833  0.6011 -0.7082 -0.4034
  818SOL    MW4 3006   4.316   4.693   2.863  0.0135 -0.1245  0.9926
  819SOL     OW 3007   2.074   1.484   0.693  0.0249  0.5163 -0.0043
  819SOL    HW2 3008   2.056   1.565   0.739 -1.9586  1.2289 -1.8714
  819SOL    HW3 3009   2.043   1.499   0.604 -0.0850 -2.1722 -0.5140
  819SOL    MW4 3010   2.068   1.497   0.687  0.8648 -0.1234  0.4574
  820SOL     OW 3011   3.475   1.598   2.823  0.3422  0.2165 -0.3457
  820SOL    HW2 3012   3.444   1.513   2.854 -1.3862  0.0041 -2.4564
  820SOL    HW3 3013   3.531   1.577   2.748  0.8436  0.8997 -0.1751
  820SOL    MW4 3014   3.479   1.584   2.817  0.3600  0.7984  0.4338
  821SOL     OW 3015   2.582   3.499   0.537  0.1425 -0.0144 -0.3848
  821SOL    HW2 3016   2.494   3.535   0.533  0.1110  0.1183  0.9036
  821SOL    HW3 3017   2.593   3.453   0.454 -2.0580 -2.1033  0.3578
  821SOL    MW4 3018   2.572   3.497   0.526 -0.1731  0.3825  0.5218
  822SOL     OW 3019   0.888   5.866   6.024  0.4497 -0.3049  0.0470
  822SOL    HW2 3020   0.832   5.813   6.080  1.1092 -0.3203  0.7145
  822SOL    HW3 3021   0.957   5.806   5.994  1.3449  0.2103  1.0097
  822SOL    MW4 3022   0.890   5.851   6.027  0.0398 -0.4763  0.5797
  823SOL     OW 3023   1.132   1.748   0.488 -0.1439  0.3164  0.1274
  823SOL    HW2 3024   1.094   1.815   0.545 -0.1063  1.1619 -0.8216
  823SOL    HW3 3025   1.211   1.788   0.453 -0.5869  0.1087 -1.1422
  823SOL    MW4 3026   1.137   1.762   0.491  0.9846 -0.1741 -0.2850
  824SOL     OW 3027   3.992   0.940   1.003 -0.0795 -0.3090 -0.5171
  824SOL    HW2 3028   4.059   0.948   1.070 -1.2660 -1.1938  0.8201
  824SOL    HW3 3029   3.970   1.031   0.979  0.3401  0.0086  0.2902
  824SOL    MW4 3030   3.998   0.953   1.008 -0.5294 -0.2464 -0.1844
  825SOL     OW 3031   2.518   2.657   2.545  0.0822  0.3804  0.0162
  825SOL    HW2 3032   2.493   2.742   2.580 -0.4404 -0.3768  1.5761
  825SOL    HW3 3033   2.435   2.610   2.535  0.3884 -0.0609 -0.5057
  825SOL    MW4 3034   2.504   2.662   2.548  0.1548  0.9568  0.2627
  826SOL     OW 3035   6.145   0.509   3.567 -0.1035 -0.6647 -0.1301
  826SOL    HW2 3036   6.219   0.448   3.568  1.2159  0.7637 -2.2566
  826SOL    HW3 3037   6.174   0.583   3.620 -0.1182 -0.2481 -0.6896
  826SOL    MW4 3038   6.159   0.511   3.574  0.2651 -0.1957  0.2808
  827SOL     OW 3039   4.792   0.697   4.916 -0.3434 -0.7996 -0.2539
  827SOL    HW2 3040   4.780   0.639   4.841 -2.4177 -3.0311  1.6274
  827SOL    HW3 3041   4.739   0.774   4.895 -2.3401 -2.1431 -0.4389
  827SOL    MW4 3042   4.783   0.700   4.903  0.4968  0.4525 -0.6022
  828SOL     OW 3043   1.792   2.500   2.373 -0.1726 -1.0594 -0.2691
  828SOL    HW2 3044   1.855   2.540   2.313  0.7982 -0.2634  1.2162
  828SOL    HW3 3045   1.739   2.573   2.405 -1.4882 -1.6430 -1.0427
  828SOL    MW4 3046   1.793   2.515   2.369 -0.0851  0.8527  0.0875
  829SOL     OW 3047   5.753   2.338   5.016 -0.1189 -0.3021  0.2294
  829SOL    HW2 3048   5.679   2.282   5.038 -0.7428  0.6588  0.6509
  829SOL    HW3 3049   5.783   2.373   5.100 -1.6566  2.3287 -0.2000
  829SOL    MW4 3050   5.747   2.335   5.030  0.5874 -0.4985 -0.5156
  830SOL     OW 3051   2.107   0.702   4.539  0.2613  0.6041 -0.1489
  830SOL    HW2 3052   2.122   0.794   4.517 -0.6513  0.9469  0.6016
  830SOL    HW3 3053   2.045   0.671   4.473  1.7282  0.0532 -1.3552
  830SOL    MW4 3054   2.101   0.710   4.527 -0.1917 -0.2511  0.1841
  831SOL     OW 3055   0.333   1.209   3.904  0.3142  0.3109 -0.6262
  831SOL    HW2 3056   0.417   1.202   3.858  0.2641 -0.4930 -0.6118
  831SOL    HW3 3057   0.320   1.123   3.943 -0.5003  0.4373 -0.6000
  831SOL    MW4 3058   0.343   1.197   3.903 -0.4958 -0.0525 -0.7423
  832SOL     OW 3059   0.665   1.835   0.757  0.0510 -0.0151  0.5729
  832SOL    HW2 3060   0.728   1.767   0.733 -0.6108 -0.5062  0.1770
  832SOL    HW3 3061   0.664   1.835   0.853  1.2368  0.5626  0.5975
  832SOL    MW4 3062   0.673   1.826   0.766 -0.4439 -0.2196  0.2618
  833SOL     OW 3063   2.042   5.932   1.074  0.4938 -0.5129  0.6546
  833SOL    HW2 3064   2.115   5.912   1.015 -0.4228 -0.1346 -0.6437
  833SOL    HW3 3065   2.064   6.018   1.110 -0.7246  1.1496 -2.1843
  833SOL    MW4 3066   2.055   5.941   1.071 -0.2709 -0.2776  0.1357
  834SOL     OW 3067   5.944   1.947   5.408  0.0417  0.1363 -0.3720
  834SOL    HW2 3068   5.895   1.945   5.490 -1.7284  0.8543 -1.3606
  834SOL    HW3 3069   5.936   1.859   5.373 -0.2694  0.1646 -0.3734
  834SOL    MW4 3070   5.937   1.935   5.415 -0.1151  0.4736 -0.3931
  835SOL     OW 3071   5.216   2.009   5.291  0.3840  0.2941  0.1775
  835SOL    HW2 3072   5.122   2.017   5.274  0.5119  0.4401 -0.4577
  835SOL    HW3 3073   5.258   2.035   5.210  1.0068  1.0804  0.7388
  835SOL    MW4 3074   5.209   2.013   5.278 -0.2502 -0.5410 -0.2198
  836SOL     OW 3075   2.512   2.642   0.892 -0.0156 -0.3697  0.5059
  836SOL    HW2 3076   2.507   2.661   0.798  0.1720 -0.4542  0.4782
  836SOL    HW3 3077   2.606   2.645   0.912  0.0685 -1.7481  0.4001
  836SOL    MW4 3078   2.524   2.645   0.882  0.6815  0.3938 -0.2592
  837SOL     OW 3079   5.842   0.638   4.049  0.3759  0.1501  0.4170
  837SOL    HW2 3080   5.893   0.561   4.022  0.3398 -0.2758  1.5061
  837SOL    HW3 3081   5.902   0.688   4.103  0.5265  1.1216 -0.6081
  837SOL    MW4 3082   5.857   0.634   4.052 -0.1028 -0.3918 -0.2478
  838SOL     OW 3083   1.736   1.728   3.064 -0.0510  0.2369 -0.3923
  838SOL    HW2 3084   1.676   1.778   3.118 -0.8534 -0.3373 -0.7295
  838SOL    HW3 3085   1.823   1.758   3.090 -0.4836  1.2085 -0.0204
  838SOL    MW4 3086   1.740   1.738   3.074 -0.2670 -0.4503  0.2287
  839SOL     OW 3087   1.509   1.194   4.563  0.4340  0.1542  0.2135
  839SOL    HW2 3088   1.563   1.199   4.485  0.4841  1.6220  0.3164
  839SOL    HW3 3089   1.453   1.271   4.559  0.1466  0.0365  1.4089
  839SOL    MW4 3090   1.509   1.204   4.552 -0.2330 -0.4523 -0.2033
  840SOL     OW 3091   3.494   2.666   3.943  0.6370  0.7381  0.4523
  840SOL    HW2 3092   3.560   2.615   3.896  0.4373 -0.9046  1.8651
  840SOL    HW3 3093   3.413   2.619   3.929  0.2497  1.2372  0.9561
  840SOL    MW4 3094   3.492   2.653   3.935 -0.5673 -0.3243 -0.0558
  841SOL     OW 3095   4.046   1.235   6.185  0.2196  0.3838  0.0223
  841SOL    HW2 3096   3.950   1.233   6.182  0.0636  0.6371  2.4243
  841SOL    HW3 3097   4.073   1.166   6.124 -1.4729  0.3156 -0.7216
  841SOL    MW4 3098   4.037   1.225   6.177 -0.3005 -0.6191 -0.1280
  842SOL     OW 3099   6.325   2.836   4.813 -0.1425 -0.0289  0.2584
  842SOL    HW2 3100   6.376   2.757   4.798  0.2779  0.4594 -1.0686
  842SOL    HW3 3101   6.366   2.878   4.889  1.0587  0.0354 -0.4078
  842SOL    MW4 3102   6.337   2.831   4.821 -0.0291 -0.4916  0.3677
  843SOL     OW 3103   0.981   2.464   3.060 -0.2911  0.0932 -0.5983
  843SOL    HW2 3104   1.061   2.439   3.014  0.7916  1.5476  0.3774
  843SOL    HW3 3105   0.990   2.424   3.146 -0.7394  0.0399 -0.5769
  843SOL    MW4 3106   0.993   2.456   3.065  0.2515 -0.6711  0.1006
  844SOL     OW 3107   1.248   0.062   2.227 -0.9453  0.1432  0.3146
  844SOL    HW2 3108   1.191   0.010   2.284 -0.6345 -0.6414 -0.0716
  844SOL    HW3 3109   1.289  -0.003   2.170  0.2807  0.6992  0.5428
  844SOL    MW4 3110   1.246   0.047   2.227  0.4355 -0.2413 -0.3564
  845SOL     OW 3111   1.649   5.455   4.636  0.2003  0.2872  0.1986
  845SOL    HW2 3112   1.714   5.406   4.686  0.1891  0.6702  0.5919
  845SOL    HW3 3113   1.674   5.546   4.646 -0.5763  0.4679  0.6252
  845SOL    MW4 3114   1.661   5.460   4.644  0.0200  0.3041  0.5076
  846SOL     OW 3115   0.652   2.038   3.295  0.5558 -0.1483 -0.1605
  846SOL    HW2 3116   0.635   1.944   3.284 -0.6726  0.0428 -0.0567
  846SOL    HW3 3117   0.670   2.069   3.206 -0.8562 -0.1729 -0.4842
  846SOL    MW4 3118   0.652   2.029   3.282 -0.0248  0.6607 -0.2258
  847SOL     OW 3119   1.546   3.167   2.541 -0.6085  0.2679  0.3497
  847SOL    HW2 3120   1.465   3.208   2.512  0.8738  1.8450 -1.8680
  847SOL    HW3 3121   1.595   3.237   2.585  0.1809 -0.2500  0.3296
  847SOL    MW4 3122   1.542   3.182   2.543 -0.4015  0.0995 -0.4396
  848SOL     OW 3123   4.920   2.450   0.955  0.0962 -0.0668 -0.1707
  848SOL    HW2 3124   4.934   2.542   0.976 -1.7601  0.8360 -2.3657
  848SOL    HW3 3125   4.908   2.449   0.860 -1.3709 -2.3480 -0.0477
  848SOL    MW4 3126   4.920   2.462   0.945 -0.5523  0.3161 -0.2505
  849SOL     OW 3127   2.137   3.236   6.363  0.2781 -0.5368 -0.4826
  849SOL    HW2 3128   2.167   3.326   6.368  0.8259 -0.7645  0.5613
  849SOL    HW3 3129   2.181   3.191   6.435  0.4862 -1.7748 -1.3304
  849SOL    MW4 3130   2.147   3.242   6.373 -0.7150  0.1720 -0.6460
  850SOL     OW 3131   3.440   1.962   2.354  0.0277  0.2218  0.4351
  850SOL    HW2 3132   3.528   1.979   2.386  0.8830 -2.1891 -0.3666
  850SOL    HW3 3133   3.385   1.967   2.432  0.7333  2.2962  0.8545
  850SOL    MW4 3134   3.444   1.965   2.368  0.0880  0.3247  0.5254
  851SOL     OW 3135   2.087   4.683   4.358 -0.1162 -0.5442 -0.0877
  851SOL    HW2 3136   2.003   4.683   4.404 -0.7944 -0.3975 -1.2631
  851SOL    HW3 3137   2.079   4.755   4.295  1.4258  0.3583  0.6798
  851SOL    MW4 3138   2.075   4.693   4.355  0.6237  0.1070 -0.5588
  852SOL     OW 3139   0.211   3.061   0.837 -0.3399  0.0897 -0.2267
  852SOL    HW2 3140   0.303   3.037   0.844 -0.4095 -0.1393 -0.0879
  852SOL    HW3 3141   0.194   3.113   0.915 -0.5560 -0.6270  0.2166
  852SOL    MW4 3142   0.221   3.065   0.848 -0.2058 -0.1246 -0.0061
  853SOL     OW 3143   3.025   3.726   0.493  0.1675  0.3612  0.1900
  853SOL    HW2 3144   2.948   3.717   0.437  1.0501 -0.2471 -0.9741
  853SOL    HW3 3145   3.053   3.637   0.511  1.1338  0.5706 -0.1864
  853SOL    MW4 3146   3.018   3.713   0.488  0.0814 -0.2017  0.4658
  854SOL     OW 3147   4.475   5.204   3.306  0.3866  0.0845  0.4895
  854SOL    HW2 3148   4.560   5.235   3.274  1.1428 -1.4255  0.9072
  854SOL    HW3 3149   4.497   5.134   3.368 -1.1552 -2.9324 -2.0584
  854SOL    MW4 3150   4.489   5.199   3.310  0.0359  0.2897 -0.3854
  855SOL     OW 3151   2.514   3.542   4.080  0.4124 -0.2427 -0.2427
  855SOL    HW2 3152   2.563   3.536   4.162  0.5143 -0.4228 -0.3150
  855SOL    HW3 3153   2.564   3.489   4.018  1.0022  0.8806 -0.7543
  855SOL    MW4 3154   2.527   3.534   4.083  0.3325  0.7421  0.3779
  856SOL     OW 3155   5.332   3.501   5.409  0.2374 -0.1026 -0.0243
  856SOL    HW2 3156   5.382   3.430   5.448  0.5965 -0.0568 -0.3999
  856SOL    HW3 3157   5.268   3.457   5.352 -1.9781 -0.3353  2.4253
  856SOL    MW4 3158   5.330   3.486   5.407  0.3185  0.3587 -0.0477
  857SOL     OW 3159   3.454   2.125   5.683 -0.0726 -0.3339 -0.0418
  857SOL    HW2 3160   3.538   2.108   5.726 -0.2103 -0.1862  0.2902
  857SOL    HW3 3161   3.389   2.094   5.745 -0.3016  0.7080  0.2569
  857SOL    MW4 3162   3.457   2.119   5.697 -0.1085 -0.2158 -0.6266
  858SOL     OW 3163   5.900   3.686   2.057 -0.1889  0.2108 -0.3215
  858SOL    HW2 3164   5.940   3.679   2.144  0.3295  0.2681 -0.5572
  858SOL    HW3 3165   5.872   3.597   2.036  1.3090 -0.1473 -0.8721
  858SOL    MW4 3166   5.901   3.673   2.066  0.2679  0.2019 -0.0988
  859SOL     OW 3167   4.447   3.098   0.496  0.0622  0.4873  0.1537
  859SOL    HW2 3168   4.474   3.011   0.526  0.5184  0.7774  0.5983
  859SOL    HW3 3169   4.385   3.080   0.425  0.1955 -0.1995  0.1983
  859SOL    MW4 3170   4.443   3.084   0.491 -0.0200 -0.3069  0.5883
  860SOL     OW 3171   2.938   3.074   3.246  0.8265 -0.1488 -0.1264
  860SOL    HW2 3172   2.918   3.044   3.157  0.6178 -0.0301 -0.1195
  860SOL    HW3 3173   2.870   3.138   3.265  0.6937 -0.3958  0.2328
  860SOL    MW4 3174   2.926   3.078   3.237  0.0352  0.1528  0.0867
  861SOL     OW 3175   3.875   5.759   2.085 -0.0361 -0.4085 -0.5438
  861SOL    HW2 3176   3.910   5.674   2.109 -1.9345 -1.2468 -0.5166
  861SOL    HW3 3177   3.839   5.795   2.167 -0.8426 -0.4156 -0.8800
  861SOL    MW4 3178   3.875   5.753   2.099  0.2816 -0.3414  0.0414
  862SOL     OW 3179   4.309   5.822   4.007 -0.4670  0.2747 -0.2000
  862SOL    HW2 3180   4.261   5.779   3.936  0.5274 -1.0988 -0.0604
  862SOL    HW3 3181   4.358   5.891   3.963 -0.8353  0.2586 -0.6589
  862SOL    MW4 3182   4.309   5.825   3.992  0.8208  0.0377  0.0699
  863SOL     OW 3183   2.024   4.448   4.207  0.3058  0.6465 -0.0577
  863SOL    HW2 3184   2.039   4.424   4.115 -0.5217  1.6536 -0.4844
  863SOL    HW3 3185   2.052   4.540   4.212 -0.0756  0.7301  0.5817
  863SOL    MW4 3186   2.029   4.457   4.195 -0.1219  0.2148  0.3104
  864SOL     OW 3187   0.447   0.180   1.799 -0.3736 -0.1763 -0.2856
  864SOL    HW2 3188   0.461   0.187   1.704 -0.2928  0.0607 -0.2575
  864SOL    HW3 3189   0.354   0.164   1.809 -0.2815 -0.8489 -0.4361
  864SOL    MW4 3190   0.437   0.179   1.788 -0.3092  0.4272  0.2301
  865SOL     OW 3191   6.377   5.753   2.483  0.5925  0.0483  0.2807
  865SOL    HW2 3192   6.324   5.673   2.484  2.6047 -1.3688  1.2168
  865SOL    HW3 3193   6.361   5.793   2.568  1.5645 -0.8322  0.9180
  865SOL    MW4 3194   6.368   5.747   2.495 -0.3642  0.0832 -0.0157
  866SOL     OW 3195   3.536   4.842   0.899 -0.2252  0.2432 -0.1334
  866SOL    HW2 3196   3.565   4.911   0.959 -0.3563  0.3593 -0.2044
  866SOL    HW3 3197   3.590   4.853   0.821 -2.1676  2.0919 -1.3190
  866SOL    MW4 3198   3.547   4.852   0.897  0.0155 -0.2057  0.2555
  867SOL     OW 3199   2.857   4.051   0.009 -0.2103 -0.3095  0.2078
  867SOL    HW2 3200   2.762   4.061   0.003 -0.1132 -0.1733 -3.7659
  867SOL    HW3 3201   2.870   3.968   0.054 -2.3302 -1.2885 -0.8522
  867SOL    MW4 3202   2.846   4.041   0.014 -0.0661  0.6167 -0.5256
  868SOL     OW 3203   2.561   4.050   4.838  0.6491  0.2038  0.3304
  868SOL    HW2 3204   2.556   3.965   4.881 -0.6508 -0.8560 -1.7729
  868SOL    HW3 3205   2.645   4.086   4.867  1.5561 -2.0733  0.7651
  868SOL    MW4 3206   2.572   4.044   4.848 -0.2634  0.2083 -0.5312
  869SOL     OW 3207   5.539   6.015   3.342  0.0537  0.5653 -0.1449
  869SOL    HW2 3208   5.564   5.953   3.273 -2.1689 -1.1381  0.4735
  869SOL    HW3 3209   5.622   6.054   3.370  1.2717 -0.3505 -2.1941
  869SOL    MW4 3210   5.553   6.012   3.336  0.1058 -0.0997  0.0875
  870SOL     OW 3211   4.356   1.898   1.527 -0.1834 -0.4739  0.4048
  870SOL    HW2 3212   4.275   1.906   1.578 -0.6178  2.4185 -0.5384
  870SOL    HW3 3213   4.424   1.933   1.583 -0.6240  2.4859 -0.7204
  870SOL    MW4 3214   4.354   1.904   1.541  0.1315  0.0531  0.8883
  871SOL     OW 3215   2.767   1.828   5.853  0.0598 -0.3343 -0.0152
  871SOL    HW2 3216   2.761   1.901   5.914 -2.0846  1.4611 -2.1953
  871SOL    HW3 3217   2.842   1.848   5.798  0.3231 -0.5432  0.2596
  871SOL    MW4 3218   2.776   1.840   5.854 -0.0134 -0.1826 -0.8757
  872SOL     OW 3219   6.309   2.457   0.940 -0.2088  0.2901 -0.4430
  872SOL    HW2 3220   6.394   2.449   0.895 -0.4624 -1.0989 -0.7150
  872SOL    HW3 3221   6.316   2.540   0.988  0.6983  0.9904 -1.7145
  872SOL    MW4 3222   6.321   2.467   0.941  0.6724 -0.5615 -0.1212
  873SOL     OW 3223   5.785   3.043   5.911  0.2967 -0.1794  0.3035
  873SOL    HW2 3224   5.726   2.987   5.861  1.4534 -1.3205  0.1522
  873SOL    HW3 3225   5.809   3.113   5.851 -0.8067  0.2403  0.3362
  873SOL    MW4 3226   5.780   3.045   5.897  0.4572  0.5314 -0.1430
  874SOL     OW 3227   2.097   4.701   1.485 -0.3519  0.2303 -0.4617
  874SOL    HW2 3228   2.103   4.649   1.405 -0.7590 -1.5162  0.5906
  874SOL    HW3 3229   2.024   4.760   1.470 -2.0034 -1.7173 -0.5296
  874SOL    MW4 3230   2.088   4.702   1.473 -0.0374  0.1530  0.5296
  875SOL     OW 3231   3.849   3.004   5.044  0.3286  0.1225 -0.6920
  875SOL    HW2 3232   3.933   3.046   5.025  0.7261 -1.0233 -1.6266
  875SOL    HW3 3233   3.871   2.934   5.106 -0.0541  0.2472 -0.4126
  875SOL    MW4 3234   3.863   3.000   5.050 -0.2452 -0.9800 -0.3287
  876SOL     OW 3235   0.457   6.094   0.198 -0.1921 -0.3245  0.2282
  876SOL    HW2 3236   0.538   6.145   0.201 -0.0824 -0.4106 -0.8081
  876SOL    HW3 3237   0.485   6.007   0.168 -0.6077 -0.4922  0.3194
  876SOL    MW4 3238   0.472   6.089   0.195 -0.1375 -0.2559  0.4397
  877SOL     OW 3239   5.545   3.181   1.983  0.0005  0.5187 -0.5659
  877SOL    HW2 3240   5.454   3.188   2.012  0.0747 -2.4035  0.7231
  877SOL    HW3 3241   5.597   3.188   2.063  0.8226  0.4849 -1.0790
  877SOL    MW4 3242   5.540   3.183   1.997  0.4370  0.5658  0.0777
  878SOL     OW 3243   5.090   0.869   0.368  0.3828 -0.2602 -0.1065
  878SOL    HW2 3244   5.089   0.888   0.461 -0.8644  0.3684 -0.2322
  878SOL    HW3 3245   5.027   0.798   0.357  0.2649 -0.0973 -0.5074
  878SOL    MW4 3246   5.082   0.862   0.379  0.8473  0.5809  0.8835
  879SOL     OW 3247   2.828   2.414   1.117  0.5064 -0.3870  0.3330
  879SOL    HW2 3248   2.918   2.402   1.146  0.6157  0.5775  0.4378
  879SOL    HW3 3249   2.790   2.477   1.179 -0.5850 -1.5995  0.9443
  879SOL    MW4 3250   2.835   2.421   1.129 -0.3523 -0.9115  0.1371
  880SOL     OW 3251   3.785   0.527   5.361  0.3900  0.0195 -0.1383
  880SOL    HW2 3252   3.802   0.483   5.278 -2.4151 -0.6301 -0.4798
  880SOL    HW3 3253   3.860   0.505   5.416  0.6583 -2.4924 -1.3751
  880SOL    MW4 3254   3.797   0.519   5.357 -0.3596 -0.2691  0.1419
  881SOL     OW 3255   0.027   2.316   0.421  0.1519 -0.3001 -0.1529
  881SOL    HW2 3256  -0.052   2.369   0.420 -0.8033 -1.6924 -0.5183
  881SOL    HW3 3257   0.071   2.336   0.339 -0.6877 -0.7652 -0.7305
  881SOL    MW4 3258   0.023   2.325   0.410 -0.2216 -0.1672 -0.2751
  882SOL     OW 3259   2.859   3.610   4.477  0.1779 -1.1658  0.0531
  882SOL    HW2 3260   2.877   3.623   4.570  0.5801 -0.0964 -0.1537
  882SOL    HW3 3261   2.854   3.515   4.466 -0.0060 -1.3030  1.1830
  882SOL    MW4 3262   2.860   3.600   4.488  0.3945  0.0012 -0.0555
  883SOL     OW 3263   2.993   4.429   4.120 -0.3820  0.1854 -0.3920
  883SOL    HW2 3264   3.023   4.338   4.129  1.4316  0.8304  0.4813
  883SOL    HW3 3265   2.917   4.423   4.061 -0.5986 -1.9343  0.0185
  883SOL    MW4 3266   2.987   4.416   4.113  0.4393  0.3458 -0.2443
  884SOL     OW 3267   3.331   5.718   0.364  0.1025  0.2346  0.4317
  884SOL    HW2 3268   3.399   5.652   0.362 -2.0645 -2.1294 -0.7685
  884SOL    HW3 3269   3.344   5.764   0.448  2.0431 -1.2841  1.0215
  884SOL    MW4 3270   3.341   5.716   0.375 -0.2405  0.5866  0.7758
  885SOL     OW 3271   5.799   1.957   3.280 -0.2325  0.3680 -0.4697
  885SOL    HW2 3272   5.828   1.866   3.269  1.7589  0.9293 -0.2484
  885SOL    HW3 3273   5.784   1.966   3.374 -2.3054 -0.2167 -0.7002
  885SOL    MW4 3274   5.801   1.946   3.291 -0.3780 -0.3340  0.1300
  886SOL     OW 3275   3.401   2.842   4.868  0.4113 -0.3431  0.2697
  886SOL    HW2 3276   3.445   2.784   4.931  1.6998  0.6110  0.3042
  886SOL    HW3 3277   3.461   2.845   4.793 -0.0771  0.2206 -0.1035
  886SOL    MW4 3278   3.415   2.834   4.867  0.3631 -0.6590 -1.1803
  887SOL     OW 3279   2.415   5.537   2.104  0.3821  1.1694 -0.4075
  887SOL    HW2 3280   2.396   5.529   2.010  5.5260 -1.4623 -1.6026
  887SOL    HW3 3281   2.419   5.447   2.135  1.1244  1.8921  1.7492
  887SOL    MW4 3282   2.413   5.524   2.096 -0.1232  0.0441  0.2997
  888SOL     OW 3283   0.688   5.576   5.392  0.1592  0.3277  0.7138
  888SOL    HW2 3284   0.696   5.510   5.323 -0.2739  1.1082 -0.1165
  888SOL    HW3 3285   0.775   5.615   5.398  0.1278  0.4592  0.3777
  888SOL    MW4 3286   0.700   5.573   5.383 -0.1394 -0.2925  0.5561
  889SOL     OW 3287   2.340   3.188   0.504  0.2126  0.6209  0.2673
  889SOL    HW2 3288   2.337   3.280   0.478 -0.9297  0.7030  0.6270
  889SOL    HW3 3289   2.428   3.159   0.481  0.5441  1.7696  0.0409
  889SOL    MW4 3290   2.351   3.196   0.498  0.2168  0.1377  0.2073
  890SOL     OW 3291   1.362   4.808   5.241  0.1641 -0.7123 -0.5177
  890SOL    HW2 3292   1.344   4.728   5.190 -0.0826  0.6813 -2.7506
  890SOL    HW3 3293   1.303   4.873   5.204  1.4514  0.9078  0.1724
  890SOL    MW4 3294   1.352   4.806   5.229  0.4530 -0.0422 -0.1305
  891SOL     OW 3295   1.771   6.333   4.485  0.2748 -0.1377  0.1190
  891SOL    HW2 3296   1.762   6.249   4.529 -0.0073  0.3574  1.0346
  891SOL    HW3 3297   1.708   6.390   4.530  1.1844  0.8269  0.1980
  891SOL    MW4 3298   1.761   6.330   4.497  0.0642 -0.1126  0.6174
  892SOL     OW 3299   2.070   3.090   1.048 -0.3279  0.1808  0.1191
  892SOL    HW2 3300   1.975   3.077   1.044 -0.3751  0.8998 -2.0111
  892SOL    HW3 3301   2.104   3.044   0.972  1.1480 -0.6140  1.2048
  892SOL    MW4 3302   2.062   3.083   1.038 -0.5933  0.0157 -0.3381
  893SOL     OW 3303   2.273   4.878   0.898 -0.5117 -0.2221  0.5782
  893SOL    HW2 3304   2.227   4.818   0.839 -1.1807 -0.5360  1.3981
  893SOL    HW3 3305   2.312   4.944   0.840  1.1207 -1.9891 -0.4539
  893SOL    MW4 3306   2.272   4.879   0.883  0.3036  0.1950 -0.2179
  894SOL     OW 3307   4.277   3.713   3.342  0.2545 -0.1715  0.5462
  894SOL    HW2 3308   4.278   3.792   3.397  0.5792 -0.1736  0.5458
  894SOL    HW3 3309   4.208   3.659   3.380 -0.8107  0.6258 -0.1815
  894SOL    MW4 3310   4.268   3.717   3.354 -0.2519  0.2173 -0.4806
  895SOL     OW 3311   0.077   0.313   4.152 -0.2487 -0.2071  0.2746
  895SOL    HW2 3312  -0.007   0.333   4.195 -1.9861 -0.6022 -2.7048
  895SOL    HW3 3313   0.069   0.222   4.125  0.8816 -0.0517 -0.6476
  895SOL    MW4 3314   0.065   0.304   4.154 -0.2184  0.3084  0.0043
  896SOL     OW 3315   2.766   5.463   4.916  0.0829  0.4222 -0.2558
  896SOL    HW2 3316   2.844   5.496   4.871  0.1049  0.8741  0.1088
  896SOL    HW3 3317   2.776   5.492   5.007 -0.4684  0.4152 -0.1884
  896SOL    MW4 3318   2.778   5.471   4.922  0.1736 -0.3164 -0.0990
  897SOL     OW 3319   4.833   6.353   5.196  0.0628 -0.8084  0.1399
  897SOL    HW2 3320   4.863   6.412   5.264 -2.2413  0.2044  0.3860
  897SOL    HW3 3321   4.740   6.340   5.215 -0.3380 -1.5775 -2.0342
  897SOL    MW4 3322   4.825   6.359   5.207  0.2939  0.2186  0.3753
  898SOL     OW 3323   0.815   0.375   5.426  0.4462  0.4103  0.3584
  898SOL    HW2 3324   0.754   0.307   5.456 -0.0234  0.4930 -0.3952
  898SOL    HW3 3325   0.887   0.372   5.489 -0.6719  0.8056  1.6962
  898SOL    MW4 3326   0.816   0.366   5.438 -0.4983 -0.1526 -0.1121
  899SOL     OW 3327   1.478   1.831   4.802  0.2465  0.1844 -0.0305
  899SOL    HW2 3328   1.491   1.831   4.707  1.2192 -1.9636  0.0530
  899SOL    HW3 3329   1.413   1.901   4.817  0.5423  1.0049 -2.1719
  899SOL    MW4 3330   1.471   1.841   4.791  0.3570  0.7651  0.6225
  900SOL     OW 3331   2.437   3.367   3.220  0.3160 -0.2103  0.2332
  900SOL    HW2 3332   2.375   3.333   3.285  2.1864 -1.3716  1.5077
  900SOL    HW3 3333   2.465   3.290   3.172  0.6395  0.3368 -0.4737
  900SOL    MW4 3334   2.432   3.352   3.222 -0.1562 -0.4756  0.6537
  901SOL     OW 3335   2.442   1.313   6.179  0.0605  0.0081  0.3442
  901SOL    HW2 3336   2.388   1.391   6.192  0.8185  0.9473 -1.7537
  901SOL    HW3 3337   2.531   1.347   6.171  0.1420 -0.6200 -3.4234
  901SOL    MW4 3338   2.447   1.328   6.180 -0.2431  0.1864 -0.3192
  902SOL     OW 3339   0.209   4.131   5.808 -0.2966  0.4556  0.1717
  902SOL    HW2 3340   0.186   4.218   5.774  0.2055  0.9018  0.9379
  902SOL    HW3 3341   0.193   4.072   5.735  2.7212  1.6229 -1.6354
  902SOL    MW4 3342   0.204   4.135   5.794  0.2446 -0.3084  0.1089
  903SOL     OW 3343   3.513   4.903   3.430  0.0972  0.1405 -0.0364
  903SOL    HW2 3344   3.472   4.982   3.395  0.1869  0.4328  0.5074
  903SOL    HW3 3345   3.604   4.909   3.403  0.5750  1.2285  1.6526
  903SOL    MW4 3346   3.519   4.914   3.422  0.3653  0.6418  0.2850
  904SOL     OW 3347   5.225   0.160   4.578  0.5549  0.1221  0.1874
  904SOL    HW2 3348   5.278   0.165   4.498 -0.7059  4.7512 -0.6892
  904SOL    HW3 3349   5.150   0.106   4.554  3.7995 -5.7435  1.1682
  904SOL    MW4 3350   5.222   0.154   4.564  0.0610  0.3365 -0.4945
  905SOL     OW 3351   1.967   1.333   5.418  0.1526 -0.2467 -0.2625
  905SOL    HW2 3352   1.896   1.361   5.360  0.2786  0.0475 -0.2760
  905SOL    HW3 3353   2.019   1.412   5.433 -0.7665  0.0626  1.5313
  905SOL    MW4 3354   1.965   1.347   5.413 -0.3575  0.1355 -0.5763
  906SOL     OW 3355   3.575   1.499   0.619 -0.3217  0.0137  0.0837
  906SOL    HW2 3356   3.667   1.485   0.637 -0.0205 -0.7086 -1.7555
  906SOL    HW3 3357   3.551   1.575   0.673  0.8778 -0.8095  1.8600
  906SOL    MW4 3358   3.584   1.507   0.628  0.5575  0.2876 -0.0277
  907SOL     OW 3359   3.124   5.848   5.362 -0.2455  0.2944 -0.1712
  907SOL    HW2 3360   3.076   5.839   5.280  0.0322 -2.8477 -0.1032
  907SOL    HW3 3361   3.216   5.855   5.335 -0.1552 -0.7279 -0.1752
  907SOL    MW4 3362   3.130   5.848   5.348  0.3491 -0.0533  0.9074
  908SOL     OW 3363   5.143   4.483   6.174 -0.4139 -0.2402 -0.1503
  908SOL    HW2 3364   5.198   4.529   6.237 -0.3771 -0.1664 -0.2364
  908SOL    HW3 3365   5.097   4.552   6.127  0.9456 -0.1748 -1.4858
  908SOL    MW4 3366   5.145   4.498   6.176 -0.8209  0.2882 -0.1550
  909SOL     OW 3367   5.905   2.307   3.545  0.6523  0.2250 -0.0130
  909SOL    HW2 3368   5.956   2.388   3.537  0.4119  0.5816  1.6141
  909SOL    HW3 3369   5.814   2.336   3.538  0.6159 -0.1986 -1.4174
  909SOL    MW4 3370   5.899   2.322   3.543  0.1154 -0.6865 -0.1539
  910SOL     OW 3371   5.768   2.891   2.219  0.1701  0.4005  0.1093
  910SOL    HW2 3372   5.687   2.864   2.262 -0.1444 -0.1204 -0.7742
  910SOL    HW3 3373   5.834   2.828   2.250 -0.0376  0.0744 -0.1002
  910SOL    MW4 3374   5.766   2.879   2.229 -0.2022 -0.4424  1.0057
  911SOL     OW 3375   3.272   3.142   5.939 -0.3822  0.4039  0.2068
  911SOL    HW2 3376   3.227   3.227   5.933 -1.1621 -0.0381 -0.4928
  911SOL    HW3 3377   3.236   3.101   6.018 -0.2547  0.5893  0.3602
  911SOL    MW4 3378   3.261   3.148   5.949  0.0928  0.3219 -0.2626
  912SOL     OW 3379   6.158   2.129   1.474 -0.4122 -0.3477 -0.0464
  912SOL    HW2 3380   6.065   2.109   1.471 -0.5263  0.1950 -0.3143
  912SOL    HW3 3381   6.175   2.179   1.393 -0.2417  0.9817  0.7750
  912SOL    MW4 3382   6.148   2.133   1.463  0.1305 -0.2882 -0.4042
  913SOL     OW 3383   0.610   1.606   2.670  0.6447  0.0234  0.3551
  913SOL    HW2 3384   0.608   1.510   2.667  0.6895  0.0221  0.3560
  913SOL    HW3 3385   0.685   1.626   2.726  0.4410  0.0570  0.6156
  913SOL    MW4 3386   0.620   1.596   2.677  0.0521  0.0506  0.2415
  914SOL     OW 3387   0.696   3.417   1.674  0.5823  0.2125 -0.9337
  914SOL    HW2 3388   0.787   3.392   1.656  0.6065 -0.7342  0.3278
  914SOL    HW3 3389   0.644   3.356   1.623  0.6113  1.7333 -2.8828
  914SOL    MW4 3390   0.701   3.406   1.665  0.6971  0.0312  0.3099
  915SOL     OW 3391   6.413   0.200   4.618 -0.1285 -0.2998  0.2854
  915SOL    HW2 3392   6.494   0.251   4.622 -0.7081  0.6682  0.1004
  915SOL    HW3 3393   6.426   0.140   4.544  0.9660 -1.1725  1.1465
  915SOL    MW4 3394   6.426   0.199   4.609  0.6759 -0.6247 -0.1963
  916SOL     OW 3395   4.565   3.914   4.507  0.3953  0.2680 -0.5188
  916SOL    HW2 3396   4.644   3.865   4.529  1.8419  1.7462 -2.0590
  916SOL    HW3 3397   4.503   3.894   4.578  2.5429 -0.0475  1.3922
  916SOL    MW4 3398   4.567   3.905   4.519  0.0949  0.0083  0.3182
  917SOL     OW 3399   5.026   0.361   4.313  0.0073 -0.3076  0.2843
  917SOL    HW2 3400   5.021   0.351   4.408 -0.7120 -0.2572  0.2645
  917SOL    HW3 3401   4.934   0.356   4.284  0.3761 -3.0515 -0.7060
  917SOL    MW4 3402   5.013   0.359   4.322  0.7499  0.3957 -0.2367
  918SOL     OW 3403   4.187   2.342   2.957 -0.4026 -0.5897  0.0978
  918SOL    HW2 3404   4.248   2.354   2.885 -0.2968 -0.1804  0.2537
  918SOL    HW3 3405   4.158   2.430   2.980  0.3661 -0.6094  1.2377
  918SOL    MW4 3406   4.191   2.355   2.951  0.2093  0.0647 -0.7156
  919SOL     OW 3407   5.958   5.536   4.017  0.1788 -0.5665  0.2625
  919SOL    HW2 3408   5.945   5.467   3.952  2.4873  0.2692 -1.2433
  919SOL    HW3 3409   6.025   5.502   4.076  0.6809 -0.0031  0.0398
  919SOL    MW4 3410   5.965   5.523   4.016  0.0268  0.2085 -0.4199
  920SOL     OW 3411   3.055   6.376   4.550 -0.0292  0.0510  0.1305
  920SOL    HW2 3412   2.988   6.374   4.481 -0.5417 -3.2938  0.5414
  920SOL    HW3 3413   3.006   6.384   4.632  0.1555 -0.8698  0.3455
  920SOL    MW4 3414   3.040   6.376   4.552 -0.0810  0.1548  0.0754
  921SOL     OW 3415   0.069   5.006   0.580 -0.3841  0.3694  0.3258
  921SOL    HW2 3416   0.124   4.927   0.587  0.5460  1.0708  1.1825
  921SOL    HW3 3417   0.050   5.012   0.486  2.1866  0.8428 -0.2562
  921SOL    MW4 3418   0.074   4.996   0.568  0.6321  0.3213 -0.2198
  922SOL     OW 3419   1.879   1.186   1.065  0.1070 -0.0900  0.2067
  922SOL    HW2 3420   1.905   1.217   0.979 -1.6203  1.1869  0.1032
  922SOL    HW3 3421   1.797   1.138   1.050 -0.3650  0.3962  1.1565
  922SOL    MW4 3422   1.872   1.184   1.052  0.8446 -0.2757 -0.9484
  923SOL     OW 3423   3.752   3.459   4.049 -0.6869  0.4582  0.3341
  923SOL    HW2 3424   3.832   3.447   4.100 -1.1748  2.3905  1.6887
  923SOL    HW3 3425   3.707   3.375   4.054  0.7354 -0.3224  0.4683
  923SOL    MW4 3426   3.756   3.446   4.057  0.3379  0.5483  0.4722
  924SOL     OW 3427   5.025   3.065   3.576  0.1261  0.5399 -0.3462
  924SOL    HW2 3428   5.069   3.090   3.658  0.3212  0.5961 -0.4677
  924SOL    HW3 3429   4.940   3.109   3.580  0.0058  0.2798 -0.0237
  924SOL    MW4 3430   5.020   3.074   3.588 -0.4860 -0.0608  0.7347
  925SOL     OW 3431   3.552   1.689   4.569  0.3620  0.4635 -0.0622
  925SOL    HW2 3432   3.579   1.698   4.660 -0.5535  2.2814  0.0788
  925SOL    HW3 3433   3.633   1.698   4.519  1.0273 -1.5834  0.5633
  925SOL    MW4 3434   3.566   1.691   4.574 -0.1623  0.0276  0.2584
  926SOL     OW 3435   2.929   6.383   3.942 -0.3234  0.1037 -0.8332
  926SOL    HW2 3436   2.966   6.312   3.995 -1.1366 -0.1244 -0.5576
  926SOL    HW3 3437   2.977   6.379   3.859 -0.2742 -0.6826 -0.7697
  926SOL    MW4 3438   2.940   6.373   3.938 -0.1139 -0.2800 -0.3305
  927SOL     OW 3439   4.531   2.179   4.244  0.1593  0.2376  0.2686
  927SOL    HW2 3440   4.502   2.260   4.203  0.8458  0.1243 -0.4607
  927SOL    HW3 3441   4.557   2.123   4.171 -2.3418 -1.4826  0.5784
  927SOL    MW4 3442   4.531   2.182   4.229 -0.0973  0.4296 -0.1797
  928SOL     OW 3443   2.942   2.744   2.228  0.3842 -0.3694  0.5543
  928SOL    HW2 3444   2.880   2.710   2.164  0.3846  0.2578  0.2079
  928SOL    HW3 3445   2.893   2.809   2.277  0.6045 -0.2850  0.6669
  928SOL    MW4 3446   2.928   2.748   2.226 -0.5095 -0.0511  0.0457
  929SOL     OW 3447   0.846   3.454   1.117  0.1123  0.1770 -0.6225
  929SOL    HW2 3448   0.828   3.520   1.184  2.2780  0.7331 -0.5016
  929SOL    HW3 3449   0.768   3.398   1.116 -0.7098  1.2127  1.0892
  929SOL    MW4 3450   0.833   3.455   1.126 -0.1787  0.0609 -0.3290
  930SOL     OW 3451   4.375   5.015   2.266  0.0167 -0.0408  0.3913
  930SOL    HW2 3452   4.362   5.021   2.361  1.2410 -0.1351  0.5886
  930SOL    HW3 3453   4.417   5.098   2.243  0.3702 -0.3129  0.0541
  930SOL    MW4 3454   4.379   5.027   2.276  0.2084  1.0784 -0.2532
  931SOL     OW 3455   6.336   2.928   5.488 -0.2113 -0.1278 -0.2450
  931SOL    HW2 3456   6.262   2.890   5.536 -0.7454  0.2854 -0.7144
  931SOL    HW3 3457   6.339   2.878   5.407  0.0288 -0.1479 -0.2217
  931SOL    MW4 3458   6.326   2.916   5.484 -0.0617  0.1366 -0.1610
  932SOL     OW 3459   4.713   3.005   5.955 -0.3213 -0.5962 -0.0478
  932SOL    HW2 3460   4.716   3.062   6.031  1.3808 -1.2900  0.4364
  932SOL    HW3 3461   4.639   3.039   5.903 -0.1600  1.2238  0.8319
  932SOL    MW4 3462   4.703   3.017   5.958 -0.9930 -0.3359  0.3794
  933SOL     OW 3463   1.419   2.198   4.180 -0.2005 -0.0362 -0.2154
  933SOL    HW2 3464   1.372   2.158   4.107  1.7677 -0.8300 -1.1269
  933SOL    HW3 3465   1.351   2.238   4.234 -2.0599 -2.4620 -0.5907
  933SOL    MW4 3466   1.404   2.198   4.178  0.3598  0.2608  0.0125
  934SOL     OW 3467   4.120   5.446   0.964 -0.0381 -0.2753 -0.8108
  934SOL    HW2 3468   4.056   5.480   1.026  1.4404 -0.5995  1.0271
  934SOL    HW3 3469   4.118   5.351   0.978  1.4667 -0.2200  0.0078
  934SOL    MW4 3470   4.112   5.438   0.974  0.2776 -0.0428  0.4516
  935SOL     OW 3471   0.568   3.078   0.488  0.2684 -0.0057 -0.7046
  935SOL    HW2 3472   0.595   3.023   0.562  2.6752  2.1644  0.2064
  935SOL    HW3 3473   0.484   3.115   0.514  0.6274 -0.0354  0.5590
  935SOL    MW4 3474   0.561   3.076   0.501  0.2112  0.0714 -0.0822
  936SOL     OW 3475   0.045   1.951   3.709  0.2452  0.0632  0.5578
  936SOL    HW2 3476   0.131   1.914   3.728 -0.3532 -1.2448  0.8803
  936SOL    HW3 3477   0.043   2.034   3.755  0.8309 -0.5346  1.7055
  936SOL    MW4 3478   0.056   1.957   3.717  0.1163  0.7433  0.6811
  937SOL     OW 3479   3.793   2.248   4.405 -0.0166 -0.6990 -0.3175
  937SOL    HW2 3480   3.715   2.236   4.460 -0.7812  1.9186 -0.7155
  937SOL    HW3 3481   3.761   2.290   4.326  1.7500  0.1982 -0.6116
  937SOL    MW4 3482   3.779   2.252   4.402 -0.7148 -0.6312  0.4525
  938SOL     OW 3483   6.168   1.551   2.602 -0.2141  0.2177 -0.0693
  938SOL    HW2 3484   6.091   1.502   2.572 -1.7739  1.6328  1.3945
  938SOL    HW3 3485   6.195   1.602   2.526 -0.9267 -0.0363 -0.5022
  938SOL    MW4 3486   6.161   1.551   2.588  0.1515  0.3707  0.0744
  939SOL     OW 3487   4.568   5.547   5.790  0.5876 -0.2746  0.3006
  939SOL    HW2 3488   4.542   5.638   5.777  0.5527 -0.4421 -0.8792
  939SOL    HW3 3489   4.660   5.544   5.766 -0.1580 -1.1491 -2.8519
  939SOL    MW4 3490   4.576   5.558   5.785  0.3163 -0.1749 -0.5083
  940SOL     OW 3491   5.443   3.181   4.504 -0.2509  0.6624 -0.0595
  940SOL    HW2 3492   5.404   3.101   4.537 -0.1859  1.4898  2.2543
  940SOL    HW3 3493   5.434   3.244   4.576  1.5136  2.1299 -1.0088
  940SOL    MW4 3494   5.437   3.179   4.518  0.1171  0.0551  0.4796
  941SOL     OW 3495   5.419   2.435   1.906  0.2576  0.2831 -0.1787
  941SOL    HW2 3496   5.359   2.434   1.980  0.6924  1.5119  0.2265
  941SOL    HW3 3497   5.463   2.350   1.909 -0.4260 -0.0617  0.3755
  941SOL    MW4 3498   5.417   2.424   1.916 -0.3973  0.5036 -0.5591
  942SOL     OW 3499   1.384   0.108   1.905  0.0776  0.0117 -0.4408
  942SOL    HW2 3500   1.411   0.141   1.991 -0.0888 -1.8886  0.3718
  942SOL    HW3 3501   1.361   0.187   1.856  0.6427  1.1761  1.0863
  942SOL    MW4 3502   1.385   0.123   1.910 -0.3854  0.0078 -0.3147
  943SOL     OW 3503   5.228   4.180   5.064  0.3691 -0.3364  0.6447
  943SOL    HW2 3504   5.307   4.145   5.023 -0.8738 -2.3316 -0.2161
  943SOL    HW3 3505   5.172   4.205   4.990 -0.8212 -1.4107  1.1499
  943SOL    MW4 3506   5.231   4.179   5.048 -0.4207 -0.1985 -0.3956
  944SOL     OW 3507   3.897   4.385   1.311  0.3166 -0.1055  0.1007
  944SOL    HW2 3508   3.974   4.348   1.354  0.9272  1.1810  0.1567
  944SOL    HW3 3509   3.868   4.455   1.369  1.1608  1.6731 -1.4984
  944SOL    MW4 3510   3.904   4.389   1.324  0.0463 -0.4855  0.1391
  945SOL     OW 3511   2.824   4.467   5.597 -0.1954 -0.6160  0.1622
  945SOL    HW2 3512   2.796   4.378   5.619 -0.6955  0.0141  2.3571
  945SOL    HW3 3513   2.918   4.468   5.614 -0.2597 -0.6412  0.5365
  945SOL    MW4 3514   2.833   4.456   5.602 -0.4257 -0.4759 -0.4690
  946SOL     OW 3515   2.337   2.027   0.282 -0.1287  0.4146  0.3819
  946SOL    HW2 3516   2.260   1.971   0.269 -0.6616  1.3006 -0.3463
  946SOL    HW3 3517   2.340   2.083   0.205  0.4039  1.3992  1.0932
  946SOL    MW4 3518   2.327   2.027   0.270  0.1963 -0.2756  0.3243
  947SOL     OW 3519   1.810   5.962   5.794  0.4357  0.1198  0.2860
  947SOL    HW2 3520   1.838   5.916   5.715  3.9463  2.4139  0.0010
  947SOL    HW3 3521   1.770   6.043   5.763  0.1756  0.2113  0.8411
  947SOL    MW4 3522   1.808   5.966   5.780 -0.1403 -0.0224  0.0959
  948SOL     OW 3523   0.730   4.606   3.257 -0.3507 -0.0333  0.3798
  948SOL    HW2 3524   0.746   4.617   3.163  2.3514 -1.4448  0.5628
  948SOL    HW3 3525   0.793   4.665   3.298  2.0335 -2.9340  1.2188
  948SOL    MW4 3526   0.741   4.616   3.250 -0.5827 -0.8676 -0.0798
  949SOL     OW 3527   3.098   0.946   4.494  0.2357 -0.3702 -0.1332
  949SOL    HW2 3528   3.137   0.880   4.436  0.7039 -0.4934  0.3181
  949SOL    HW3 3529   3.021   0.903   4.531  1.0059 -0.9717  0.8052
  949SOL    MW4 3530   3.093   0.932   4.491 -0.1649  0.3691 -0.3857
  950SOL     OW 3531   0.664   2.730   3.937  0.4596 -0.0142 -0.2109
  950SOL    HW2 3532   0.599   2.720   4.006 -0.4203 -1.1215 -1.1374
  950SOL    HW3 3533   0.687   2.640   3.914  0.9290  0.3350 -1.1580
  950SOL    MW4 3534   0.658   2.716   3.943 -0.1448 -0.2686  0.2926
  951SOL     OW 3535   3.192   0.929   2.931  0.1053 -0.5727  0.6955
  951SOL    HW2 3536   3.121   0.992   2.936 -1.4960 -2.3763  2.0711
  951SOL    HW3 3537   3.234   0.933   3.016 -1.2756 -2.6528  1.5624
  951SOL    MW4 3538   3.188   0.937   2.943  0.0331 -0.1906  0.2376
  952SOL     OW 3539   5.758   3.277   4.672  0.1050  0.9915  0.0506
  952SOL    HW2 3540   5.748   3.194   4.626 -0.8305  0.3637  1.3158
  952SOL    HW3 3541   5.799   3.254   4.756 -0.8793  1.6660  0.7435
  952SOL    MW4 3542   5.762   3.263   4.677  0.1412  0.0246 -0.3798
  953SOL     OW 3543   0.894   2.058   1.331  0.3387  0.3863 -0.1292
  953SOL    HW2 3544   0.803   2.082   1.345  0.6305  0.7959  1.2606
  953SOL    HW3 3545   0.895   1.962   1.339 -0.1977  0.2292 -1.7186
  953SOL    MW4 3546   0.882   2.049   1.334  0.0301  0.8121 -1.1124
  954SOL     OW 3547   0.009   6.046   3.828  0.5647  0.2520 -0.5876
  954SOL    HW2 3548  -0.035   5.962   3.818  0.5956  0.3292 -1.4229
  954SOL    HW3 3549   0.078   6.045   3.761  1.3191  0.4636  0.1628
  954SOL    MW4 3550   0.013   6.034   3.818  0.0214  0.0452 -0.2618
  955SOL     OW 3551   2.690   2.765   5.854 -0.0573 -0.5071  0.3626
  955SOL    HW2 3552   2.717   2.830   5.790 -0.0433 -1.0452 -0.1871
  955SOL    HW3 3553   2.748   2.780   5.929  1.0161 -0.8886 -0.3606
  955SOL    MW4 3554   2.701   2.775   5.856 -0.2365  0.0909  0.2285
  956SOL     OW 3555   5.003   5.548   1.610  0.3127  0.0361 -0.2284
  956SOL    HW2 3556   5.008   5.636   1.646  0.1201 -0.7511  1.8645
  956SOL    HW3 3557   4.997   5.561   1.515 -1.5534  2.3163  0.1169
  956SOL    MW4 3558   5.003   5.561   1.602 -0.5265 -0.4230  0.0610
  957SOL     OW 3559   6.425   4.838   1.111 -0.2233  0.3238  0.3142
  957SOL    HW2 3560   6.427   4.797   1.197  0.5821  0.0186  0.1553
  957SOL    HW3 3561   6.433   4.932   1.129 -1.6148  0.3980  0.6494
  957SOL    MW4 3562   6.427   4.845   1.125  0.0377 -0.3694 -0.8270
  958SOL     OW 3563   5.717   2.065   2.948 -0.0871  0.2346  0.1106
  958SOL    HW2 3564   5.648   2.024   3.000 -0.1644  0.4696  0.1928
  958SOL    HW3 3565   5.774   1.992   2.923 -1.6541 -0.3901 -1.9899
  958SOL    MW4 3566   5.715   2.050   2.951 -0.0445 -0.0678 -0.0845
  959SOL     OW 3567   2.488   3.746   0.886  0.1882 -0.3150 -0.1384
  959SOL    HW2 3568   2.529   3.815   0.834 -1.8294  0.1250 -1.2171
  959SOL    HW3 3569   2.424   3.791   0.941 -0.9784 -1.2768 -0.6622
  959SOL    MW4 3570   2.485   3.761   0.886 -0.2506 -0.3654  0.0467
  960SOL     OW 3571   0.197   3.251   0.658 -0.0402 -0.0543 -0.2284
  960SOL    HW2 3572   0.210   3.185   0.727 -0.5566  0.7726  0.6854
  960SOL    HW3 3573   0.133   3.312   0.695  2.2689  2.4079  0.0193
  960SOL    MW4 3574   0.190   3.250   0.672 -0.2546  0.3779 -0.5012
  961SOL     OW 3575   4.079   5.951   2.009 -0.7698  0.0269  0.1483
  961SOL    HW2 3576   4.031   6.034   2.013 -1.3473 -0.3414  0.9724
  961SOL    HW3 3577   4.014   5.884   2.029 -0.0697 -0.5424  0.5580
  961SOL    MW4 3578   4.064   5.953   2.012 -0.1176 -0.0955 -0.1062
  962SOL     OW 3579   3.778   5.747   0.022 -0.0501 -0.3711 -0.4239
  962SOL    HW2 3580   3.709   5.806  -0.008  1.0875  1.1130 -0.2493
  962SOL    HW3 3581   3.735   5.662   0.030 -1.6945  0.3689 -0.9143
  962SOL    MW4 3582   3.763   5.743   0.019  0.5068  0.5948 -0.5661
  963SOL     OW 3583   1.777   3.919   4.385  0.0654 -0.0518 -0.1653
  963SOL    HW2 3584   1.751   3.959   4.302 -4.0433 -0.2257  0.8302
  963SOL    HW3 3585   1.758   3.826   4.374  2.3702 -0.6257  0.0810
  963SOL    MW4 3586   1.771   3.912   4.373 -0.2975  0.2191  0.2623
  964SOL     OW 3587   2.956   5.407   2.700  0.4945  0.4148 -0.2342
  964SOL    HW2 3588   2.929   5.431   2.612 -0.0997 -3.2238 -1.1867
  964SOL    HW3 3589   2.875   5.403   2.750  0.8331  2.5139  0.5819
  964SOL    MW4 3590   2.942   5.410   2.695 -0.8160  0.4715 -0.1142
  965SOL     OW 3591   1.855   0.796   1.524  0.6533 -0.3270 -0.4705
  965SOL    HW2 3592   1.818   0.884   1.518  1.9380  0.3304  0.7017
  965SOL    HW3 3593   1.784   0.742   1.557  0.3511  0.6365  0.4977
  965SOL    MW4 3594   1.841   0.800   1.527 -0.4874  0.1948 -0.7471
  966SOL     OW 3595   3.065   2.211   3.306 -0.3389 -0.0459  0.0981
  966SOL    HW2 3596   3.078   2.258   3.223  0.6997  0.4703  0.5460
  966SOL    HW3 3597   2.974   2.228   3.328 -0.1407  1.2762 -0.0509
  966SOL    MW4 3598   3.055   2.219   3.298 -0.7128 -0.0862  0.0024
  967SOL     OW 3599   3.895   5.807   5.100  0.2187  0.2637  0.1882
  967SOL    HW2 3600   3.925   5.851   5.021 -1.4109  0.6844 -0.2377
  967SOL    HW3 3601   3.924   5.716   5.089 -0.9010  0.0535 -1.4354
  967SOL    MW4 3602   3.903   5.801   5.088  0.5792 -0.2405  0.3358
  968SOL     OW 3603   4.051   0.534   1.888  0.3312 -0.4198  0.6947
  968SOL    HW2 3604   3.979   0.536   1.952  1.1318  0.0902  1.6216
  968SOL    HW3 3605   4.034   0.608   1.830 -0.5066 -0.9984  0.1974
  968SOL    MW4 3606   4.040   0.544   1.889  0.0517 -0.7216 -0.3034
  969SOL     OW 3607   3.539   5.859   3.154 -0.1209 -0.8212  0.3746
  969SOL    HW2 3608   3.542   5.763   3.157 -1.4855 -0.8750  1.4838
  969SOL    HW3 3609   3.451   5.878   3.120 -0.6643 -0.0096  2.1108
  969SOL    MW4 3610   3.528   5.849   3.150 -0.4101 -0.7142 -0.4125
  970SOL     OW 3611   0.399   3.173   0.090 -0.3246 -0.6562  0.0867
  970SOL    HW2 3612   0.441   3.106   0.144 -0.5514 -0.4790  0.4806
  970SOL    HW3 3613   0.437   3.256   0.120 -0.5590 -0.5437  0.0733
  970SOL    MW4 3614   0.409   3.175   0.101  0.5838 -0.5108  0.0526
  971SOL     OW 3615   3.935   1.547   3.217  0.5155 -0.0473 -0.3931
  971SOL    HW2 3616   3.880   1.614   3.258  1.4347  1.4595 -1.5394
  971SOL    HW3 3617   3.899   1.464   3.250 -0.9971  0.9594  0.6472
  971SOL    MW4 3618   3.923   1.545   3.227  0.1244 -0.3617 -0.7555
  972SOL     OW 3619   4.591   5.720   1.014  0.2170  0.2272 -0.1943
  972SOL    HW2 3620   4.584   5.697   0.921  0.4033  0.0894 -0.1763
  972SOL    HW3 3621   4.527   5.664   1.058 -0.6569  1.0649 -0.3589
  972SOL    MW4 3622   4.582   5.709   1.008 -0.3733  0.1488 -0.2631
  973SOL     OW 3623   1.207   0.224   6.010 -0.2902 -0.3197  0.4264
  973SOL    HW2 3624   1.125   0.259   5.975  1.0206  1.4471 -1.1179
  973SOL    HW3 3625   1.261   0.301   6.026  2.1691 -1.4772 -1.5834
  973SOL    MW4 3626   1.203   0.239   6.007  0.3020  0.4002 -0.2106
  974SOL     OW 3627   1.936   5.857   1.626 -0.1312  0.3956  0.0972
  974SOL    HW2 3628   1.854   5.846   1.674 -0.5076  2.0015 -0.1016
  974SOL    HW3 3629   1.909   5.862   1.534  0.1439  1.1505  0.0496
  974SOL    MW4 3630   1.921   5.857   1.620 -0.5058 -0.3202 -0.3515
  975SOL     OW 3631   6.131   4.451   1.181 -0.5243 -0.2043  0.2697
  975SOL    HW2 3632   6.079   4.507   1.238 -0.7919 -0.9970  0.8248
  975SOL    HW3 3633   6.171   4.387   1.240  0.8840  0.2384 -0.1805
  975SOL    MW4 3634   6.129   4.450   1.196 -0.7034 -0.3855  0.0458
  976SOL     OW 3635   6.363   3.611   1.270  0.0533  0.2716  0.6184
  976SOL    HW2 3636   6.454   3.582   1.264 -0.1250 -0.2252  0.2362
  976SOL    HW3 3637   6.343   3.606   1.364 -0.3762 -2.2062  0.4652
  976SOL    MW4 3638   6.372   3.606   1.282 -0.7835  0.0818 -0.2084
  977SOL     OW 3639   6.127   1.318   2.235 -0.7770 -0.3669 -0.0441
  977SOL    HW2 3640   6.158   1.259   2.167  0.8315 -0.3746  0.6502
  977SOL    HW3 3641   6.108   1.261   2.310 -1.2471 -0.2135 -0.0388
  977SOL    MW4 3642   6.129   1.303   2.236  0.7566  0.3124 -0.3037
  978SOL     OW 3643   1.123   1.872   3.120 -0.3099 -0.3463 -0.4855
  978SOL    HW2 3644   1.033   1.905   3.111 -0.5155  0.3650  2.7171
  978SOL    HW3 3645   1.178   1.951   3.117 -0.1406 -0.4068  0.6268
  978SOL    MW4 3646   1.118   1.887   3.119  0.0203 -0.6457 -0.0045
  979SOL     OW 3647   0.392   2.335   4.969  0.2042 -0.2578 -0.6692
  979SOL    HW2 3648   0.320   2.295   5.017 -0.1561  1.0278 -0.1224
  979SOL    HW3 3649   0.398   2.283   4.889 -1.9622  0.2060 -1.1830
  979SOL    MW4 3650   0.383   2.323   4.965  0.7787 -0.2542  0.0322
  980SOL     OW 3651   5.219   3.492   3.690 -0.2593 -0.3878 -0.2709
  980SOL    HW2 3652   5.174   3.571   3.661  0.4896 -0.0795 -0.6315
  980SOL    HW3 3653   5.256   3.455   3.610 -0.2051 -0.8364 -0.0372
  980SOL    MW4 3654   5.218   3.498   3.675  0.0693  0.1366 -0.2083
  981SOL     OW 3655   1.242   4.996   3.881  0.0894 -0.3054  0.1363
  981SOL    HW2 3656   1.264   5.074   3.932 -0.4760 -1.6762  2.6184
  981SOL    HW3 3657   1.154   5.014   3.849 -0.0106  0.1223  0.6234
  981SOL    MW4 3658   1.233   5.009   3.884 -0.2313 -0.4387  0.2989
  982SOL     OW 3659   1.230   2.603   4.002 -0.2153 -0.4180  0.1741
  982SOL    HW2 3660   1.321   2.572   4.005  0.3531  0.9687 -1.4477
  982SOL    HW3 3661   1.216   2.642   4.088  0.0279 -2.4013  1.1743
  982SOL    MW4 3662   1.240   2.604   4.014 -0.5732  0.3780 -0.5679
  983SOL     OW 3663   3.652   2.788   5.726  0.1175  0.2375 -0.5304
  983SOL    HW2 3664   3.692   2.721   5.781  0.0256  2.3775  2.3222
  983SOL    HW3 3665   3.694   2.870   5.753 -2.5015  1.8865 -1.1030
  983SOL    MW4 3666   3.663   2.790   5.737 -0.3078  0.4814 -0.4082
  984SOL     OW 3667   5.123   2.002   2.220 -0.1099  0.1227 -0.3416
  984SOL    HW2 3668   5.191   2.027   2.157 -0.4914  1.2401 -0.3434
  984SOL    HW3 3669   5.065   2.079   2.224 -1.2908 -0.7489 -0.2328
  984SOL    MW4 3670   5.124   2.016   2.212 -0.2401 -0.6491  0.1702
  985SOL     OW 3671   2.361   1.262   5.478 -0.0944 -0.1762  0.5592
  985SOL    HW2 3672   2.319   1.187   5.519 -0.9074 -0.3138 -0.4718
  985SOL    HW3 3673   2.363   1.240   5.385 -0.2900  1.0404  0.2481
  985SOL    MW4 3674   2.355   1.249   5.471 -0.0159 -0.6800  0.8190
  986SOL     OW 3675   0.707   5.911   6.380  0.2686  0.2327 -0.0186
  986SOL    HW2 3676   0.797   5.879   6.381  0.0898 -0.2709  0.2068
  986SOL    HW3 3677   0.666   5.872   6.457  0.1723  1.3809  0.5262
  986SOL    MW4 3678   0.713   5.902   6.390 -0.1192 -0.6760 -0.0817
  987SOL     OW 3679   2.244   5.732   0.032 -0.4013 -0.0426 -0.2339
  987SOL    HW2 3680   2.264   5.826   0.024  0.6550  0.2090  3.5205
  987SOL    HW3 3681   2.152   5.729   0.058 -0.0223  0.0794  1.1528
  987SOL    MW4 3682   2.235   5.744   0.034 -0.6019  0.2080 -0.3283
  988SOL     OW 3683   4.745   0.524   1.692  0.6599  0.1212 -0.5841
  988SOL    HW2 3684   4.829   0.542   1.649  1.0637  1.3311  0.6522
  988SOL    HW3 3685   4.713   0.610   1.718 -0.2784 -0.4652  0.2470
  988SOL    MW4 3686   4.752   0.538   1.690  0.1496  0.0649  0.0072
  989SOL     OW 3687   5.155   5.281   2.604 -0.2981 -0.5847 -0.0054
  989SOL    HW2 3688   5.238   5.252   2.565  0.2595  1.4132 -0.4166
  989SOL    HW3 3689   5.095   5.286   2.530  0.3065  1.5984 -0.4313
  989SOL    MW4 3690   5.158   5.278   2.589  0.1592 -0.1696 -0.1761
  990SOL     OW 3691   0.537   2.352   3.913  0.1331 -0.0910 -0.6229
  990SOL    HW2 3692   0.489   2.368   3.832 -0.2689  3.0052  0.1121
  990SOL    HW3 3693   0.475   2.373   3.983  0.7848 -1.7263  0.5262
  990SOL    MW4 3694   0.523   2.357   3.912 -0.9587 -0.4656  0.2409
  991SOL     OW 3695   3.299   5.426   6.416 -0.8636  0.1020 -0.3520
  991SOL    HW2 3696   3.317   5.374   6.495 -0.0160  1.3679  0.3082
  991SOL    HW3 3697   3.206   5.450   6.425 -0.6370  0.6941  0.5522
  991SOL    MW4 3698   3.289   5.422   6.428  0.0781 -0.0947 -0.5716
  992SOL     OW 3699   4.781   6.440   4.929  0.2021  0.1886  0.1875
  992SOL    HW2 3700   4.797   6.421   5.021  0.7500  0.8585  0.2350
  992SOL    HW3 3701   4.746   6.529   4.928 -2.1183 -0.6660 -0.0611
  992SOL    MW4 3702   4.779   6.449   4.941 -0.0367  0.0243  0.2830
  993SOL     OW 3703   3.137   2.739   2.690 -0.2355  0.2122  0.3038
  993SOL    HW2 3704   3.207   2.680   2.721  0.1038 -0.7313 -2.0270
  993SOL    HW3 3705   3.184   2.812   2.650 -0.5690  0.0330 -0.4344
  993SOL    MW4 3706   3.152   2.741   2.689 -0.2070 -0.4500 -0.7744
  994SOL     OW 3707   5.472   5.412   1.320  0.7617  0.0748 -0.0760
  994SOL    HW2 3708   5.410   5.432   1.390  1.0295 -1.5264  0.6934
  994SOL    HW3 3709   5.419   5.376   1.249  0.4968  1.6313 -0.6957
  994SOL    MW4 3710   5.457   5.410   1.320 -0.0271 -0.0602 -0.4743
  995SOL     OW 3711   1.699   2.844   4.965  0.2173  0.4124  0.0321
  995SOL    HW2 3712   1.653   2.796   5.033  1.2090 -0.2419  0.2595
  995SOL    HW3 3713   1.788   2.854   4.998  0.9146 -0.5205 -1.4218
  995SOL    MW4 3714   1.704   2.839   4.978 -0.1832 -0.0066  0.4400
  996SOL     OW 3715   2.060   4.374   3.940  0.0269  0.4722 -0.0966
  996SOL    HW2 3716   2.101   4.294   3.907 -0.1373  0.1691  0.4266
  996SOL    HW3 3717   2.100   4.444   3.888  2.2885  0.3457  1.3253
  996SOL    MW4 3718   2.071   4.373   3.929  0.0750  0.4980  0.1852
  997SOL     OW 3719   2.817   1.699   4.802 -1.0020  0.2943  0.6083
  997SOL    HW2 3720   2.783   1.672   4.716  0.8125 -0.6970  0.1289
  997SOL    HW3 3721   2.748   1.676   4.864 -0.0110 -5.2027  0.1978
  997SOL    MW4 3722   2.803   1.692   4.799 -0.2231 -0.5904 -0.1761
  998SOL     OW 3723   3.824   2.160   3.105 -0.0963 -0.1642  0.2673
  998SOL    HW2 3724   3.901   2.148   3.161 -0.4788  1.0044  1.0767
  998SOL    HW3 3725   3.860   2.178   3.019  0.5208 -0.6290  0.4170
  998SOL    MW4 3726   3.839   2.161   3.101 -0.4527  0.6678 -0.0326
  999SOL     OW 3727   6.370   2.270   3.536 -0.5215  0.1581  0.1066
  999SOL    HW2 3728   6.423   2.190   3.532  0.1031  0.5928 -1.4695
  999SOL    HW3 3729   6.312   2.258   3.610  0.9590 -0.8809  1.1513
  999SOL    MW4 3730   6.369   2.258   3.545  0.4577 -0.1488  0.2438
 1000SOL     OW 3731   3.279   5.039   5.474  0.1915 -1.1086 -0.2999
 1000SOL    HW2 3732   3.346   5.093   5.432 -1.7226  0.0447 -2.0496
 1000SOL    HW3 3733   3.305   4.949   5.455  1.4386 -0.7006 -0.6070
 1000SOL    MW4 3734   3.291   5.034   5.466  0.1569 -0.1433  0.3668
 1001SOL     OW 3735   4.488   1.687   3.525  0.5267  0.4367  0.3836
 1001SOL    HW2 3736   4.488   1.730   3.610 -1.9281 -0.5447  0.9760
 1001SOL    HW3 3737   4.481   1.594   3.545  0.1424  0.1740 -0.8632
 1001SOL    MW4 3738   4.487   1.680   3.539  0.8299 -0.2049 -0.2116
 1002SOL     OW 3739   4.495   5.899   1.806  0.4462 -0.1750 -0.0210
 1002SOL    HW2 3740   4.456   5.936   1.727  1.2694  0.4940 -0.1230
 1002SOL    HW3 3741   4.582   5.938   1.811 -0.3614  1.5477  2.4471
 1002SOL    MW4 3742   4.501   5.909   1.796 -0.2143 -0.3475 -0.0341
 1003SOL     OW 3743   0.467   1.235   0.473  0.4081  0.2949 -0.1607
 1003SOL    HW2 3744   0.485   1.320   0.433 -1.8789  0.2462 -1.4332
 1003SOL    HW3 3745   0.417   1.255   0.552 -0.2402  0.1609 -0.5261
 1003SOL    MW4 3746   0.463   1.249   0.478 -0.2863  0.4887  0.1783
 1004SOL     OW 3747   4.041   1.423   2.385  0.5177 -0.8654  0.0136
 1004SOL    HW2 3748   4.116   1.401   2.439  1.3172 -1.0020 -1.1163
 1004SOL    HW3 3749   4.023   1.343   2.335  0.0404 -0.6314 -0.1957
 1004SOL    MW4 3750   4.048   1.409   2.385 -0.5870 -0.0081  0.2047
 1005SOL     OW 3751   3.297   1.373   5.334 -0.1443 -0.3282 -0.1012
 1005SOL    HW2 3752   3.203   1.355   5.333 -0.3452  0.6012  0.5895
 1005SOL    HW3 3753   3.332   1.319   5.404 -0.3860  0.2784  0.4996
 1005SOL    MW4 3754   3.289   1.364   5.343 -0.4519 -0.6117  0.1246
 1006SOL     OW 3755   5.550   4.120   1.441  0.1000  0.4669 -0.3345
 1006SOL    HW2 3756   5.523   4.030   1.422 -0.0274  0.2412  0.8490
 1006SOL    HW3 3757   5.630   4.111   1.493  0.0678  1.0337 -0.1812
 1006SOL    MW4 3758   5.557   4.107   1.445 -0.0722 -0.1350 -0.0410
 1007SOL     OW 3759   3.462   0.321   4.956  0.2453  0.1924  0.1165
 1007SOL    HW2 3760   3.518   0.326   4.879 -0.2762 -0.2696 -0.3065
 1007SOL    HW3 3761   3.374   0.307   4.920 -0.2896  1.8269  0.7127
 1007SOL    MW4 3762   3.457   0.320   4.941  0.3100 -0.4851 -0.1974
 1008SOL     OW 3763   2.429   3.971   5.782  0.1229  0.2584  0.0967
 1008SOL    HW2 3764   2.465   4.004   5.700  2.4914 -1.3763  0.3978
 1008SOL    HW3 3765   2.350   3.923   5.755  1.6239 -1.4872 -1.4918
 1008SOL    MW4 3766   2.423   3.969   5.767 -0.6200  0.8625 -0.4510
 1009SOL     OW 3767   6.194   2.805   2.158  0.2678  0.2556 -0.3636
 1009SOL    HW2 3768   6.192   2.840   2.069 -1.8480  2.1263  0.3015
 1009SOL    HW3 3769   6.239   2.872   2.210 -0.0072 -0.0113  0.2386
 1009SOL    MW4 3770   6.199   2.819   2.153 -0.0587 -0.5033  0.1449
 1010SOL     OW 3771   6.001   0.530   0.997 -0.1431  0.0079  0.2976
 1010SOL    HW2 3772   6.051   0.458   0.958 -0.9845 -0.3825 -0.1121
 1010SOL    HW3 3773   5.920   0.532   0.945  0.4325  2.1534 -0.6186
 1010SOL    MW4 3774   5.997   0.521   0.985 -0.2667 -0.0726  0.0633
 1011SOL     OW 3775   2.270   5.379   4.441 -0.7415 -0.0318  0.3092
 1011SOL    HW2 3776   2.333   5.315   4.407 -0.8063 -0.4845  1.0149
 1011SOL    HW3 3777   2.310   5.464   4.423 -1.6427 -0.1218 -2.6265
 1011SOL    MW4 3778   2.284   5.382   4.434 -0.0575 -0.2953 -0.2826
 1012SOL     OW 3779   3.754   4.007   4.367 -0.4168  0.0683  0.6445
 1012SOL    HW2 3780   3.701   3.969   4.437  0.1993 -1.6194  0.2373
 1012SOL    HW3 3781   3.809   3.935   4.336  0.8991  1.3395 -0.0939
 1012SOL    MW4 3782   3.754   3.993   4.372 -0.6154 -0.0256  0.1966
 1013SOL     OW 3783   0.016   0.524   5.612 -0.0759 -0.1277  0.2279
 1013SOL    HW2 3784   0.079   0.452   5.619 -2.2199 -2.2573 -1.3385
 1013SOL    HW3 3785   0.027   0.558   5.523  2.1569  2.8837  1.4420
 1013SOL    MW4 3786   0.026   0.519   5.602  0.1199 -0.1138  0.0939
 1014SOL     OW 3787   0.223   2.823   5.137 -0.1648  0.1629  0.0578
 1014SOL    HW2 3788   0.199   2.809   5.229  1.8759  0.0962  0.6349
 1014SOL    HW3 3789   0.238   2.735   5.103  1.8695  0.2581  0.5362
 1014SOL    MW4 3790   0.222   2.809   5.145 -0.3546 -0.2140  0.1510
 1015SOL     OW 3791   0.055   4.044   0.484 -0.1352 -0.8346  0.2057
 1015SOL    HW2 3792   0.117   4.021   0.553 -0.4718 -0.2466  0.7208
 1015SOL    HW3 3793   0.060   4.140   0.479  0.8670 -0.9544 -1.5307
 1015SOL    MW4 3794   0.064   4.054   0.493 -0.1615  0.3434 -0.1957
 1016SOL     OW 3795   0.440   1.214   1.363  0.0905  0.6490 -0.1717
 1016SOL    HW2 3796   0.415   1.241   1.274  1.3401 -0.4811 -0.9125
 1016SOL    HW3 3797   0.377   1.258   1.420 -1.6723  0.2598 -1.7106
 1016SOL    MW4 3798   0.428   1.223   1.358 -0.3286  0.3685  0.5249
 1017SOL     OW 3799   0.256   2.423   0.624  0.3147  0.0166 -0.4516
 1017SOL    HW2 3800   0.211   2.398   0.544 -0.1693  1.0965 -0.5456
 1017SOL    HW3 3801   0.226   2.360   0.690 -1.8546  1.0341 -0.3712
 1017SOL    MW4 3802   0.246   2.412   0.622  0.0614  0.1502 -0.0166
 1018SOL     OW 3803   6.040   0.617   3.318 -0.3258  0.5580  0.4689
 1018SOL    HW2 3804   6.066   0.601   3.409  1.2634  1.3314  0.2002
 1018SOL    HW3 3805   6.048   0.712   3.307 -1.5776  0.6082 -0.1869
 1018SOL    MW4 3806   6.045   0.628   3.328 -0.7214  0.7002  0.3424
 1019SOL     OW 3807   5.325   2.050   0.765  0.3638 -0.0369 -0.2212
 1019SOL    HW2 3808   5.304   2.005   0.847  2.0855  0.5789  0.6172
 1019SOL    HW3 3809   5.341   2.141   0.792 -0.1900  0.4304 -1.4324
 1019SOL    MW4 3810   5.324   2.056   0.780  0.6252 -0.0876 -0.1117
 1020SOL     OW 3811   4.529   0.411   3.438 -0.0177 -0.2652  0.0322
 1020SOL    HW2 3812   4.452   0.466   3.423 -0.2414 -0.5461  0.1492
 1020SOL    HW3 3813   4.529   0.394   3.532 -0.9253 -1.8745 -0.2251
 1020SOL    MW4 3814   4.519   0.416   3.448  0.5674 -0.1986  0.3475
 1021SOL     OW 3815   3.795   5.041   4.304 -0.0248  0.1430 -0.4414
 1021SOL    HW2 3816   3.877   5.047   4.254 -0.0063 -1.5334 -0.6577
 1021SOL    HW3 3817   3.730   5.081   4.246  0.5361  1.0824 -0.4569
 1021SOL    MW4 3818   3.798   5.047   4.290 -0.0121  0.3751  0.0719
 1022SOL     OW 3819   4.879   4.202   6.361 -0.4199  0.0578  0.0963
 1022SOL    HW2 3820   4.862   4.138   6.430 -1.2087  1.3928  1.2092
 1022SOL    HW3 3821   4.973   4.199   6.348 -0.3363 -0.6845  0.7635
 1022SOL    MW4 3822   4.889   4.193   6.369  0.6752  0.4243  0.4471
 1023SOL     OW 3823   5.929   4.904   2.995  0.4302 -0.3742 -0.1692
 1023SOL    HW2 3824   5.884   4.902   2.910  0.2310  2.4933 -0.2329
 1023SOL    HW3 3825   5.889   4.833   3.045 -1.9597  0.0471 -1.3198
 1023SOL    MW4 3826   5.917   4.894   2.990  0.0816  0.0121  0.4668
 1024SOL     OW 3827   5.246   3.725   1.003  0.0019 -0.2333  0.1743
 1024SOL    HW2 3828   5.214   3.635   1.000  1.5564 -0.8063 -0.1161
 1024SOL    HW3 3829   5.271   3.745   0.913  0.5065  0.1733  0.4010
 1024SOL    MW4 3830   5.245   3.716   0.991  0.8627 -0.2041  0.1258
 1025SOL     OW 3831   0.057   6.021   4.978  0.7674 -0.3970 -0.2048
 1025SOL    HW2 3832  -0.030   5.982   4.976  0.4465  0.3268 -0.3151
 1025SOL    HW3 3833   0.101   5.985   4.901  0.0988  0.3171 -0.9361
 1025SOL    MW4 3834   0.052   6.011   4.968  0.3061 -0.0040  0.5438
 1026SOL     OW 3835   0.289   4.221   0.113  0.1712 -0.3087  0.1696
 1026SOL    HW2 3836   0.378   4.246   0.135  0.8898 -1.4277 -1.3065
 1026SOL    HW3 3837   0.296   4.178   0.027 -1.7099 -0.8231  0.2202
 1026SOL    MW4 3838   0.301   4.218   0.105 -0.7214 -0.0824  0.3932
 1027SOL     OW 3839   5.525   5.314   2.066  0.1325  0.3081 -0.1399
 1027SOL    HW2 3840   5.579   5.298   1.988  2.1985 -0.4545  1.3304
 1027SOL    HW3 3841   5.440   5.276   2.044  0.9262 -0.7158 -1.6829
 1027SOL    MW4 3842   5.521   5.307   2.053  0.3692  0.2948  0.1940
 1028SOL     OW 3843   0.931   5.750   5.719  0.4549 -0.2779  0.1265
 1028SOL    HW2 3844   0.989   5.731   5.794 -3.0389  0.8981  3.4686
 1028SOL    HW3 3845   0.952   5.840   5.695  0.6837 -0.1948  0.6241
 1028SOL    MW4 3846   0.942   5.759   5.726 -0.0023 -0.1766  1.1686
 1029SOL     OW 3847   0.801   5.267   1.569  0.0700 -0.5794 -0.2803
 1029SOL    HW2 3848   0.889   5.249   1.536  0.5734  2.3852 -0.9183
 1029SOL    HW3 3849   0.753   5.301   1.493  0.2891  3.3903  1.1115
 1029SOL    MW4 3850   0.806   5.269   1.555 -0.3905 -0.3049 -0.0320
 1030SOL     OW 3851   1.733   2.750   1.429  0.0356 -0.7128 -0.1723
 1030SOL    HW2 3852   1.786   2.826   1.454  0.7906 -1.0665 -0.6817
 1030SOL    HW3 3853   1.753   2.735   1.337 -1.5416 -0.3875 -0.6048
 1030SOL    MW4 3854   1.743   2.758   1.420  0.1367  0.1849 -0.7131
 1031SOL     OW 3855   0.636   4.656   2.245 -0.0486  0.6324  0.0151
 1031SOL    HW2 3856   0.582   4.720   2.291 -0.4624  1.0559 -1.0418
 1031SOL    HW3 3857   0.711   4.707   2.213  0.9547  0.0819  1.3426
 1031SOL    MW4 3858   0.639   4.671   2.247  0.7947 -0.6874  0.2963
 1032SOL     OW 3859   2.595   6.118   1.368  0.8548 -0.5220 -0.0496
 1032SOL    HW2 3860   2.519   6.064   1.346  0.3691  0.2777 -0.3688
 1032SOL    HW3 3861   2.559   6.187   1.425  0.7410  1.5837 -2.4911
 1032SOL    MW4 3862   2.580   6.120   1.373  0.4909  0.3370 -0.0430
 1033SOL     OW 3863   1.361   1.707   0.097 -0.2745 -0.0153  0.2856
 1033SOL    HW2 3864   1.380   1.707   0.003 -2.0524  1.5977 -0.1342
 1033SOL    HW3 3865   1.312   1.625   0.110 -0.3173 -0.0841 -0.2588
 1033SOL    MW4 3866   1.357   1.696   0.086 -0.2313 -0.0443  0.0868
 1034SOL     OW 3867   0.243   1.983   1.652  0.0045  0.5038  0.5557
 1034SOL    HW2 3868   0.189   2.049   1.695  0.0314  0.5201  0.5651
 1034SOL    HW3 3869   0.266   1.923   1.723 -0.5980  0.0954  0.4082
 1034SOL    MW4 3870   0.239   1.984   1.667 -0.0728  0.4039  0.3642
 1035SOL     OW 3871   2.699   6.038   5.835  0.4722  0.1225 -0.1040
 1035SOL    HW2 3872   2.691   5.943   5.843 -0.5298  0.2311  0.2567
 1035SOL    HW3 3873   2.770   6.050   5.771  1.0772 -0.8538  0.3490
 1035SOL    MW4 3874   2.707   6.027   5.828  0.5982 -0.3357  0.9391
 1036SOL     OW 3875   4.386   2.931   2.165  0.6581  0.2279 -0.1580
 1036SOL    HW2 3876   4.412   2.997   2.101  1.6456  1.0316  1.0413
 1036SOL    HW3 3877   4.360   2.981   2.242 -2.9783 -0.5731 -0.6547
 1036SOL    MW4 3878   4.386   2.946   2.167  0.3607  0.3727  0.1088
 1037SOL     OW 3879   2.920   3.820   5.621  0.1815 -0.1196  0.2649
 1037SOL    HW2 3880   2.844   3.834   5.564 -0.0833 -2.3603  0.0026
 1037SOL    HW3 3881   2.885   3.771   5.696  1.1958 -0.3322  0.6099
 1037SOL    MW4 3882   2.905   3.816   5.624 -0.0230  0.0768  0.5483
 1038SOL     OW 3883   0.254   1.299   1.564 -0.1621  0.1654  0.4025
 1038SOL    HW2 3884   0.315   1.323   1.634 -0.2892  0.7457  0.3218
 1038SOL    HW3 3885   0.223   1.383   1.529 -1.1299 -0.1148  0.5482
 1038SOL    MW4 3886   0.258   1.314   1.569  0.1481  0.3498 -0.2098
 1039SOL     OW 3887   2.941   4.659   1.061  0.0436 -0.2590  0.0178
 1039SOL    HW2 3888   2.937   4.726   1.130 -0.3488  0.1094 -0.3551
 1039SOL    HW3 3889   3.008   4.598   1.091 -0.6313 -0.5104  1.0912
 1039SOL    MW4 3890   2.949   4.660   1.074  0.2253  0.2219 -0.2706
 1040SOL     OW 3891   0.072   6.430   3.310  0.1234 -0.3208 -0.0860
 1040SOL    HW2 3892  -0.014   6.471   3.318  0.0994 -0.6973  2.6902
 1040SOL    HW3 3893   0.053   6.340   3.283 -0.2897 -0.1398 -0.4009
 1040SOL    MW4 3894   0.058   6.424   3.308  0.9464  0.4581  0.0764
 1041SOL     OW 3895   2.412   1.175   4.501  0.3165 -0.4988 -0.4903
 1041SOL    HW2 3896   2.425   1.267   4.480 -0.0138 -0.9530 -3.0725
 1041SOL    HW3 3897   2.366   1.176   4.585  1.7918  1.5957  0.3739
 1041SOL    MW4 3898   2.407   1.187   4.509 -0.2371  0.4246 -0.6943
 1042SOL     OW 3899   4.559   4.305   3.389 -0.1547  0.1794  0.6055
 1042SOL    HW2 3900   4.570   4.221   3.434  0.6204  0.3182  0.6799
 1042SOL    HW3 3901   4.516   4.361   3.454 -1.9102 -0.5268  0.1218
 1042SOL    MW4 3902   4.554   4.302   3.404 -0.7704 -0.8177  0.0321
 1043SOL     OW 3903   2.503   4.356   0.499 -0.3633  0.1308  0.1477
 1043SOL    HW2 3904   2.541   4.274   0.465  0.8502 -0.2383  2.2093
 1043SOL    HW3 3905   2.560   4.424   0.463  0.7393 -0.2281  1.1468
 1043SOL    MW4 3906   2.516   4.354   0.489 -0.0103  0.5993 -0.5847
 1044SOL     OW 3907   5.483   3.242   3.871  0.0430  0.1532  0.1111
 1044SOL    HW2 3908   5.532   3.178   3.922 -1.2368 -0.4184  0.6487
 1044SOL    HW3 3909   5.532   3.248   3.788  0.2570 -1.4359  0.0820
 1044SOL    MW4 3910   5.496   3.234   3.867  0.0615  0.1353  0.2545
 1045SOL     OW 3911   4.064   6.281   2.731  0.3098  0.3579  0.0784
 1045SOL    HW2 3912   3.989   6.237   2.770  0.2630 -0.1049 -0.5213
 1045SOL    HW3 3913   4.065   6.368   2.771 -0.6525  0.4332 -0.0487
 1045SOL    MW4 3914   4.054   6.287   2.741  0.0894  0.3532 -0.0977
 1046SOL     OW 3915   0.540   6.190   5.898 -0.0531  0.0620  0.0587
 1046SOL    HW2 3916   0.486   6.111   5.909  0.9947 -0.6329  0.3306
 1046SOL    HW3 3917   0.478   6.262   5.908 -0.9446 -0.7111  0.3380
 1046SOL    MW4 3918   0.525   6.189   5.901  0.4857 -0.3483 -0.4484
 1047SOL     OW 3919   4.254   4.244   3.593 -0.2427  0.3877  0.1654
 1047SOL    HW2 3920   4.262   4.157   3.633  0.1855  0.0908 -0.5604
 1047SOL    HW3 3921   4.177   4.237   3.536  0.4926  0.1009 -0.8272
 1047SOL    MW4 3922   4.245   4.232   3.591  0.0718 -0.0080 -0.3151
 1048SOL     OW 3923   0.698   5.886   1.932  0.1386 -0.1363  0.7683
 1048SOL    HW2 3924   0.640   5.962   1.934 -1.9791 -1.5088 -1.8583
 1048SOL    HW3 3925   0.786   5.922   1.933 -0.7645  2.5069 -1.7232
 1048SOL    MW4 3926   0.702   5.901   1.932 -0.7887  0.5327  0.3364
 1049SOL     OW 3927   2.635   5.165   2.440  0.6204 -0.1463  0.2686
 1049SOL    HW2 3928   2.722   5.142   2.408  0.2179 -2.0974  0.4427
 1049SOL    HW3 3929   2.630   5.124   2.527  0.2348  1.6506  1.1433
 1049SOL    MW4 3930   2.646   5.157   2.447 -0.5555 -0.2170  0.2332
 1050SOL     OW 3931   1.519   5.439   2.546  0.1685 -0.0662 -0.7801
 1050SOL    HW2 3932   1.433   5.482   2.550  0.8590  1.2624  0.6167
 1050SOL    HW3 3933   1.532   5.401   2.633  0.4263 -1.4856 -1.4064
 1050SOL    MW4 3934   1.509   5.440   2.558  0.4056  0.3363  0.2339
 1051SOL     OW 3935   6.320   2.360   1.849 -0.6218 -0.0632 -0.2414
 1051SOL    HW2 3936   6.258   2.320   1.910  0.8248 -0.6013  0.9656
 1051SOL    HW3 3937   6.371   2.286   1.815 -1.0654  0.2921 -1.7270
 1051SOL    MW4 3938   6.319   2.345   1.853 -0.3120 -0.1749 -0.2090
 1052SOL     OW 3939   0.992   2.730   6.260 -0.3033  0.5350  0.4481
 1052SOL    HW2 3940   0.995   2.800   6.325  1.0557 -0.5443  1.6165
 1052SOL    HW3 3941   1.075   2.737   6.212 -1.5096  1.6605 -1.6324
 1052SOL    MW4 3942   1.003   2.740   6.262  0.6227  0.1518  0.0854
 1053SOL     OW 3943   3.385   2.113   3.038 -0.1535 -0.0400 -0.0458
 1053SOL    HW2 3944   3.416   2.112   2.947 -2.5997  1.4076 -0.9945
 1053SOL    HW3 3945   3.320   2.042   3.042 -0.0705 -0.0862  0.5560
 1053SOL    MW4 3946   3.380   2.103   3.026  0.3836 -0.2524  0.6511
 1054SOL     OW 3947   1.913   2.359   0.622  0.4286 -0.0367 -0.5161
 1054SOL    HW2 3948   1.872   2.273   0.636 -0.8330  0.4340 -1.1494
 1054SOL    HW3 3949   1.872   2.392   0.542 -0.7863  2.1028  0.8789
 1054SOL    MW4 3950   1.902   2.352   0.613  0.0606  0.0016  0.0778
 1055SOL     OW 3951   4.209   0.586   4.293 -0.2178  0.2325 -0.1272
 1055SOL    HW2 3952   4.164   0.615   4.372  0.3037 -0.2158  0.3423
 1055SOL    HW3 3953   4.300   0.574   4.320 -0.1255 -0.3771 -0.6794
 1055SOL    MW4 3954   4.215   0.588   4.307  0.1368 -0.5428  0.2314
 1056SOL     OW 3955   6.237   6.206   6.197  0.1016 -0.6715 -0.6666
 1056SOL    HW2 3956   6.203   6.290   6.230  0.9122 -0.3633 -0.5905
 1056SOL    HW3 3957   6.275   6.227   6.112  0.6285 -0.8858 -0.4892
 1056SOL    MW4 3958   6.237   6.220   6.190  0.0740  0.0314 -0.1108
 1057SOL     OW 3959   5.691   0.893   4.989  0.4918 -0.3609  0.1101
 1057SOL    HW2 3960   5.718   0.954   5.057  0.5854 -1.5594  1.1831
 1057SOL    HW3 3961   5.599   0.914   4.973  0.6510  0.3655  0.1106
 1057SOL    MW4 3962   5.682   0.904   4.996  0.1896  0.1585 -0.6358
 1058SOL     OW 3963   3.429   6.085   0.125 -0.5450 -0.1189 -0.3667
 1058SOL    HW2 3964   3.463   6.071   0.214  0.6205  1.2134 -0.5616
 1058SOL    HW3 3965   3.507   6.086   0.069 -1.1433  0.3142 -1.2224
 1058SOL    MW4 3966   3.444   6.084   0.129 -0.0682  0.1130 -0.5852
 1059SOL     OW 3967   4.744   2.990   4.818  0.2741 -0.0596  0.4580
 1059SOL    HW2 3968   4.761   2.929   4.746  3.8357 -0.9605  1.8749
 1059SOL    HW3 3969   4.792   3.069   4.795 -1.8451  1.2006  0.0736
 1059SOL    MW4 3970   4.752   2.992   4.806  0.5182  0.9090  0.2840
 1060SOL     OW 3971   0.803   3.464   6.423  0.3283  0.5443  0.0680
 1060SOL    HW2 3972   0.810   3.507   6.509  0.2786  1.3152 -0.3047
 1060SOL    HW3 3973   0.884   3.490   6.378  1.1971 -1.2672  0.4904
 1060SOL    MW4 3974   0.815   3.473   6.428 -0.4658  0.2139  0.0249
 1061SOL     OW 3975   1.349   2.155   0.642 -0.0254 -0.4712  0.6156
 1061SOL    HW2 3976   1.265   2.121   0.610  0.4209 -1.6994  0.7092
 1061SOL    HW3 3977   1.372   2.098   0.716 -0.1147  1.1534  1.9539
 1061SOL    MW4 3978   1.341   2.143   0.648  0.1916 -0.1980  0.0578
 1062SOL     OW 3979   4.503   3.985   3.726  0.0437  0.0256  0.7391
 1062SOL    HW2 3980   4.561   3.909   3.727  2.6489  1.6768 -2.8548
 1062SOL    HW3 3981   4.553   4.054   3.768 -0.0155  1.0296 -0.7759
 1062SOL    MW4 3982   4.517   3.984   3.732  0.1908  0.7989  0.4632
 1063SOL     OW 3983   1.148   2.891   2.260  0.0556 -0.0180  0.1705
 1063SOL    HW2 3984   1.228   2.887   2.206  1.0665  1.8582  1.3895
 1063SOL    HW3 3985   1.079   2.857   2.203  1.4565 -0.2218 -1.5040
 1063SOL    MW4 3986   1.150   2.886   2.245  0.0151  0.1913  0.6003
 1064SOL     OW 3987   3.275   5.216   6.229 -0.0471  0.1652 -0.6218
 1064SOL    HW2 3988   3.337   5.249   6.164  1.1973 -0.4733  0.1990
 1064SOL    HW3 3989   3.269   5.287   6.294 -0.4294  0.3594 -0.8704
 1064SOL    MW4 3990   3.283   5.230   6.229 -0.3009  0.3629 -0.0101
 1065SOL     OW 3991   5.504   0.997   0.822 -0.2386  0.0056  0.0380
 1065SOL    HW2 3992   5.480   1.056   0.893  1.4685  0.4641  0.2741
 1065SOL    HW3 3993   5.442   0.925   0.829 -2.8274  2.0377 -0.6882
 1065SOL    MW4 3994   5.493   0.995   0.832  0.1323  0.4168 -0.0196
 1066SOL     OW 3995   5.642   5.050   2.118 -0.4260  0.3226 -0.4378
 1066SOL    HW2 3996   5.631   5.146   2.120  0.2575  0.4074  1.8742
 1066SOL    HW3 3997   5.693   5.030   2.196  0.1488 -1.8888 -1.2942
 1066SOL    MW4 3998   5.647   5.060   2.128 -0.2295  0.7250 -0.7781
 1067SOL     OW 3999   0.510   2.118   0.560  0.0389  0.5747  0.3087
 1067SOL    HW2 4000   0.526   2.171   0.638  2.6735  0.3125  0.0357
 1067SOL    HW3 4001   0.596   2.110   0.518 -1.0856 -0.2574 -2.0154
 1067SOL    MW4 4002   0.523   2.124   0.565 -0.1740 -0.1939 -0.2041
 1068SOL     OW 4003   5.587   3.372   2.567  0.0421 -0.8314 -1.0078
 1068SOL    HW2 4004   5.528   3.448   2.561 -1.1589 -1.5687  0.6795
 1068SOL    HW3 4005   5.642   3.379   2.489 -1.1162  0.8653 -1.7536
 1068SOL    MW4 4006   5.586   3.383   2.556  0.2066 -0.1936  0.3011
 1069SOL     OW 4007   3.495   5.476   5.751 -0.3174  0.5152 -0.7395
 1069SOL    HW2 4008   3.538   5.398   5.785 -0.6810  0.8186  0.4702
 1069SOL    HW3 4009   3.411   5.444   5.717 -1.5070  0.6284  1.8440
 1069SOL    MW4 4010   3.489   5.462   5.751  0.4255  0.0246  0.4607
 1070SOL     OW 4011   4.201   5.666   4.844 -0.0006 -0.2818 -0.5256
 1070SOL    HW2 4012   4.241   5.718   4.775 -1.8215 -0.1736 -1.5738
 1070SOL    HW3 4013   4.112   5.701   4.853  1.0049  1.9110  4.2049
 1070SOL    MW4 4014   4.195   5.677   4.836 -0.1113  0.3338 -0.0433
 1071SOL     OW 4015   4.285   5.795   2.653 -0.2969  0.2448  0.1895
 1071SOL    HW2 4016   4.353   5.859   2.675 -2.9116  3.2549  0.2870
 1071SOL    HW3 4017   4.237   5.836   2.581 -2.0312 -1.7318  0.1361
 1071SOL    MW4 4018   4.288   5.809   2.646 -0.5652  0.1034 -0.0886
 1072SOL     OW 4019   4.124   1.384   2.000  0.0031  0.8910  0.4999
 1072SOL    HW2 4020   4.195   1.338   2.045 -1.7333 -1.9329  0.6430
 1072SOL    HW3 4021   4.141   1.370   1.907 -0.8335 -0.7196  0.5517
 1072SOL    MW4 4022   4.135   1.376   1.994  0.4082 -0.1311  0.0621
 1073SOL     OW 4023   1.224   2.658   4.786  0.4280  0.1476 -0.3583
 1073SOL    HW2 4024   1.247   2.686   4.875  0.0828 -0.2956 -0.1267
 1073SOL    HW3 4025   1.306   2.627   4.748  0.6244  0.5597 -0.2827
 1073SOL    MW4 4026   1.238   2.658   4.793  0.1093  0.4273  0.0807
 1074SOL     OW 4027   5.439   4.753   5.390  0.0138 -0.0097 -0.1900
 1074SOL    HW2 4028   5.477   4.826   5.341 -0.3637 -0.4498 -1.1674
 1074SOL    HW3 4029   5.514   4.699   5.415  0.2952  0.6946  0.5360
 1074SOL    MW4 4030   5.454   4.756   5.387  0.2212 -0.1319 -0.4890
 1075SOL     OW 4031   6.360   3.604   3.890 -0.2561 -0.0192  0.2800
 1075SOL    HW2 4032   6.387   3.631   3.978 -1.8005  0.7785  0.5427
 1075SOL    HW3 4033   6.316   3.681   3.853 -0.3110 -0.5916 -0.9046
 1075SOL    MW4 4034   6.358   3.618   3.897 -0.0229  0.3088 -0.5979
 1076SOL     OW 4035   5.722   1.627   3.273 -0.5633 -0.6263  0.3233
 1076SOL    HW2 4036   5.657   1.560   3.252 -2.0167  1.6049 -3.2219
 1076SOL    HW3 4037   5.673   1.697   3.314  0.3102 -0.3101  0.8604
 1076SOL    MW4 4038   5.707   1.627   3.276 -0.4615  0.2089  0.5409
 1077SOL     OW 4039   0.567   5.314   1.903  0.5404  0.1678 -0.0648
 1077SOL    HW2 4040   0.597   5.231   1.941  1.9355  0.7562  0.1716
 1077SOL    HW3 4041   0.499   5.344   1.963 -1.7154 -1.9182 -1.4048
 1077SOL    MW4 4042   0.562   5.307   1.916  0.6226 -0.0981  0.2095
 1078SOL     OW 4043   6.000   3.287   1.073  0.5096  0.8115 -0.1540
 1078SOL    HW2 4044   5.993   3.215   1.010 -0.5220 -0.1544  1.0117
 1078SOL    HW3 4045   6.027   3.363   1.020 -0.4857  0.0779 -1.7907
 1078SOL    MW4 4046   6.002   3.288   1.057  0.7374 -0.4999 -0.4740
 1079SOL     OW 4047   2.865   5.913   3.500  0.2406 -0.4265  0.4181
 1079SOL    HW2 4048   2.951   5.937   3.535  0.8508 -2.2564  0.2467
 1079SOL    HW3 4049   2.883   5.845   3.435 -1.2679 -0.1892 -0.2998
 1079SOL    MW4 4050   2.878   5.907   3.496 -0.8354  0.4631 -0.1609
 1080SOL     OW 4051   5.421   5.277   2.471  0.1723  0.2198  0.0292
 1080SOL    HW2 4052   5.456   5.342   2.409  1.1198 -1.7511 -1.6640
 1080SOL    HW3 4053   5.403   5.200   2.417 -0.0996 -1.2255  2.0533
 1080SOL    MW4 4054   5.424   5.275   2.456  0.3347  0.4311  0.0416
 1081SOL     OW 4055   3.182   3.429   4.917 -0.4597  0.2191  0.6698
 1081SOL    HW2 4056   3.094   3.401   4.941  0.0994 -3.1065 -0.7252
 1081SOL    HW3 4057   3.233   3.421   4.998 -1.2544  1.7191  1.3663
 1081SOL    MW4 4058   3.177   3.424   4.931  0.0792  0.2070 -0.7809
 1082SOL     OW 4059   6.070   0.606   2.327  0.2288 -0.4809  0.8394
 1082SOL    HW2 4060   6.141   0.660   2.361  0.3021 -1.4466  2.3329
 1082SOL    HW3 4061   6.068   0.530   2.386 -0.9347 -1.2930 -0.2014
 1082SOL    MW4 4062   6.079   0.603   2.339 -0.5622  0.0166 -0.0248
 1083SOL     OW 4063   5.099   5.044   4.911 -0.0076  0.3842  0.3303
 1083SOL    HW2 4064   5.088   5.136   4.886 -0.7566  0.6844  1.6478
 1083SOL    HW3 4065   5.053   5.037   4.995 -1.9380 -1.7243 -0.8069
 1083SOL    MW4 4066   5.092   5.056   4.919  0.2300 -0.9604  0.1203
 1084SOL     OW 4067   0.947   5.065   2.780  0.1186  0.2895  0.0077
 1084SOL    HW2 4068   1.027   5.116   2.782  0.6793 -0.5649  1.2508
 1084SOL    HW3 4069   0.976   4.974   2.792 -0.9513 -0.1657 -0.6347
 1084SOL    MW4 4070   0.961   5.059   2.782 -0.0446 -0.1975 -0.0965
 1085SOL     OW 4071   0.500   4.171   5.031  0.5703  0.0037 -0.0839
 1085SOL    HW2 4072   0.588   4.199   5.007  0.5877 -0.0781 -0.1180
 1085SOL    HW3 4073   0.500   4.077   5.013  0.2559  0.1237 -0.7431
 1085SOL    MW4 4074   0.512   4.162   5.025  0.7634 -0.1728 -0.4741
 1086SOL     OW 4075   5.924   6.376   4.886 -0.0115  0.0947  0.1129
 1086SOL    HW2 4076   5.875   6.319   4.826  1.0143 -1.0906  0.3656
 1086SOL    HW3 4077   5.985   6.424   4.829  0.7767 -0.8342  0.1456
 1086SOL    MW4 4078   5.926   6.374   4.871  0.3160 -0.4052  0.5827
 1087SOL     OW 4079   3.336   4.677   0.806  0.1442  0.2456 -0.1138
 1087SOL    HW2 4080   3.397   4.737   0.849 -0.1009  1.2544 -1.1236
 1087SOL    HW3 4081   3.250   4.699   0.844  0.2553 -0.5280  0.6183
 1087SOL    MW4 4082   3.332   4.688   0.817 -0.5144 -0.0690 -0.3168
 1088SOL     OW 4083   5.741   5.991   2.806 -0.7399 -0.6243 -0.5513
 1088SOL    HW2 4084   5.695   6.029   2.732  0.5173 -0.4481 -1.2723
 1088SOL    HW3 4085   5.743   6.061   2.872 -2.9670 -1.1857  0.2019
 1088SOL    MW4 4086   5.735   6.005   2.805 -0.2830 -0.5907 -0.1331
 1089SOL     OW 4087   0.580   1.444   4.603  0.0958  0.3495  0.3731
 1089SOL    HW2 4088   0.650   1.502   4.572  0.3578  0.6202  1.4045
 1089SOL    HW3 4089   0.508   1.503   4.624 -0.8830 -0.0213 -1.7035
 1089SOL    MW4 4090   0.580   1.459   4.602  0.2359 -0.2674  0.3086
 1090SOL     OW 4091   0.727   2.987   4.752 -0.7545 -0.7178 -0.1071
 1090SOL    HW2 4092   0.769   2.911   4.791  0.4051 -0.2346 -0.3478
 1090SOL    HW3 4093   0.796   3.055   4.753 -2.7826  1.6337  3.7196
 1090SOL    MW4 4094   0.742   2.986   4.757 -0.7241  0.1168 -0.4557
 1091SOL     OW 4095   6.418   4.855   3.438  0.1321  0.0618 -0.2581
 1091SOL    HW2 4096   6.505   4.824   3.462  0.2812  0.4944 -0.2507
 1091SOL    HW3 4097   6.395   4.804   3.360  0.5029  0.1484 -0.4230
 1091SOL    MW4 4098   6.426   4.844   3.431  0.8982  0.3478  0.0307
 1092SOL     OW 4099   4.430   4.666   4.546  0.3745 -0.6945 -0.0923
 1092SOL    HW2 4100   4.427   4.686   4.452 -1.1621 -1.2815 -0.1948
 1092SOL    HW3 4101   4.391   4.579   4.553  1.1390 -0.9768  1.0343
 1092SOL    MW4 4102   4.425   4.657   4.534 -0.2575 -0.5013  0.1001
 1093SOL     OW 4103   0.672   1.402   2.340  0.3833 -0.2228  0.5257
 1093SOL    HW2 4104   0.744   1.458   2.369 -0.8062  1.4736  0.3707
 1093SOL    HW3 4105   0.696   1.314   2.368  2.8091  0.1778 -0.1001
 1093SOL    MW4 4106   0.684   1.398   2.348 -0.4957  0.8810 -0.3344
 1094SOL     OW 4107   0.175   6.054   6.180 -0.0208 -0.8072  0.3779
 1094SOL    HW2 4108   0.191   6.005   6.261 -0.1658 -1.6203 -0.0752
 1094SOL    HW3 4109   0.116   5.999   6.129  1.9050 -1.4529 -1.3088
 1094SOL    MW4 4110   0.170   6.041   6.184  0.3377 -0.3356 -0.4696
 1095SOL     OW 4111   6.376   5.719   2.104 -0.3351 -0.1936  0.0034
 1095SOL    HW2 4112   6.468   5.742   2.096 -1.0769  2.9279 -0.7810
 1095SOL    HW3 4113   6.342   5.775   2.173 -1.7567 -1.0153  0.0320
 1095SOL    MW4 4114   6.383   5.729   2.112 -0.5420  0.0410 -0.1588
 1096SOL     OW 4115   3.483   5.668   0.653 -0.5681 -0.3973  0.2437
 1096SOL    HW2 4116   3.422   5.628   0.715 -0.5004  0.3589  0.8151
 1096SOL    HW3 4117   3.460   5.761   0.653 -0.9711 -0.4676 -1.3410
 1096SOL    MW4 4118   3.472   5.675   0.661 -0.3273  0.5193  0.3178
 1097SOL     OW 4119   2.701   5.751   6.075  0.5324 -0.1692  0.2391
 1097SOL    HW2 4120   2.737   5.812   6.140 -0.2572 -0.9238  1.4244
 1097SOL    HW3 4121   2.622   5.716   6.116 -0.2380 -0.3426 -1.3297
 1097SOL    MW4 4122   2.695   5.755   6.089 -0.9907  0.0144  0.4915
 1098SOL     OW 4123   2.187   4.382   3.586 -0.9085  0.0041  0.0897
 1098SOL    HW2 4124   2.260   4.408   3.641 -0.4347 -2.3825  0.7094
 1098SOL    HW3 4125   2.209   4.415   3.499  2.2501 -2.7018 -0.3329
 1098SOL    MW4 4126   2.199   4.390   3.581 -0.3656 -0.2196 -0.1472
 1099SOL     OW 4127   5.069   4.783   2.780 -0.1157  0.5768 -0.0215
 1099SOL    HW2 4128   4.986   4.768   2.826  0.8259 -0.5062  1.4094
 1099SOL    HW3 4129   5.048   4.768   2.688 -1.5542  0.4958  0.2925
 1099SOL    MW4 4130   5.055   4.779   2.774  0.7130 -0.2455 -0.3733
 1100SOL     OW 4131   2.928   2.968   0.432 -0.1807  0.0614  0.0531
 1100SOL    HW2 4132   2.996   3.009   0.378  0.2696 -0.5352  0.1555
 1100SOL    HW3 4133   2.975   2.937   0.510 -0.1475 -2.1844 -0.7749
 1100SOL    MW4 4134   2.943   2.969   0.435 -0.5715  0.9438 -0.0433
 1101SOL     OW 4135   0.762   0.826   1.294  0.2570  0.0482  0.4261
 1101SOL    HW2 4136   0.685   0.769   1.287 -0.2248  0.7542 -0.2163
 1101SOL    HW3 4137   0.809   0.794   1.371 -0.5292 -0.5725  0.6594
 1101SOL    MW4 4138   0.758   0.814   1.303 -0.1602  0.0671  0.0679
 1102SOL     OW 4139   3.783   4.900   0.409 -0.0578 -0.0189  0.3517
 1102SOL    HW2 4140   3.731   4.971   0.371  0.9581 -0.0426 -1.1761
 1102SOL    HW3 4141   3.784   4.832   0.342  1.8392 -0.0550  0.3731
 1102SOL    MW4 4142   3.776   4.900   0.395  0.1150 -0.4814 -0.3228
 1103SOL     OW 4143   4.518   6.313   1.091 -0.5673 -0.1505 -0.6454
 1103SOL    HW2 4144   4.425   6.290   1.097 -0.6931  0.5885  2.7474
 1103SOL    HW3 4145   4.519   6.408   1.082 -0.1684 -0.1373 -0.5090
 1103SOL    MW4 4146   4.506   6.322   1.091  0.5073 -0.0277  0.0963
 1104SOL     OW 4147   5.768   2.944   3.592  0.2697  0.2502  0.4730
 1104SOL    HW2 4148   5.847   2.942   3.647 -0.4019 -0.8316  1.4372
 1104SOL    HW3 4149   5.801   2.933   3.503  1.1216 -1.9373  0.9811
 1104SOL    MW4 4150   5.783   2.943   3.588  0.0472  0.5699 -0.2528
 1105SOL     OW 4151   0.980   3.682   5.311  0.0048  0.5483  0.3624
 1105SOL    HW2 4152   0.977   3.587   5.300 -0.6709  0.5009  0.9129
 1105SOL    HW3 4153   1.041   3.712   5.244 -1.5263 -0.0442 -1.3632
 1105SOL    MW4 4154   0.988   3.674   5.301  0.1059  0.2417  0.1067
 1106SOL     OW 4155   3.500   6.005   1.172  0.2507  0.6562 -0.8031
 1106SOL    HW2 4156   3.571   5.974   1.228  0.3858  0.4993 -1.0548
 1106SOL    HW3 4157   3.442   6.052   1.230  0.1803  0.1488 -0.4526
 1106SOL    MW4 4158   3.502   6.007   1.187 -0.4677 -0.4298  0.3975
 1107SOL     OW 4159   3.108   0.865   2.560  0.7094  0.5602  0.1864
 1107SOL    HW2 4160   3.180   0.841   2.619 -0.6779 -1.1132  1.2817
 1107SOL    HW3 4161   3.102   0.792   2.499  0.7453  1.3007 -0.7324
 1107SOL    MW4 4162   3.117   0.853   2.559  0.2655 -0.2462 -0.5334
 1108SOL     OW 4163   3.897   5.681   2.684 -0.5042  0.0629  0.5570
 1108SOL    HW2 4164   3.969   5.708   2.740 -0.3261 -0.6014  0.6571
 1108SOL    HW3 4165   3.939   5.638   2.610 -0.7642  0.4263  0.1910
 1108SOL    MW4 4166   3.912   5.679   2.682 -0.5884 -0.0683  0.4227
 1109SOL     OW 4167   1.733   4.549   1.218  0.1568  0.8875 -0.4114
 1109SOL    HW2 4168   1.646   4.585   1.198  0.1762  0.9284 -0.4228
 1109SOL    HW3 4169   1.734   4.542   1.314 -1.2003 -2.4787 -0.5060
 1109SOL    MW4 4170   1.722   4.553   1.228  0.3558 -0.2384  0.0857
 1110SOL     OW 4171   6.126   5.553   0.864 -0.3972  0.5059  0.0237
 1110SOL    HW2 4172   6.139   5.460   0.842 -0.0129  0.7249 -0.6918
 1110SOL    HW3 4173   6.211   5.581   0.899 -0.7275  0.4067  0.9272
 1110SOL    MW4 4174   6.139   5.544   0.865 -0.1206 -0.0629 -0.0572
 1111SOL     OW 4175   4.761   0.785   0.706  0.2178 -0.0270  0.3285
 1111SOL    HW2 4176   4.731   0.699   0.678 -0.2036 -0.0558  0.8707
 1111SOL    HW3 4177   4.750   0.786   0.801 -0.5254  0.8984  0.2512
 1111SOL    MW4 4178   4.756   0.774   0.715  0.9221 -0.4066  0.6546
 1112SOL     OW 4179   0.705   3.979   4.347  0.4148  0.2407  0.2521
 1112SOL    HW2 4180   0.761   4.049   4.312 -0.3166  0.8124  0.2099
 1112SOL    HW3 4181   0.750   3.898   4.322  0.7537  0.6697 -0.5841
 1112SOL    MW4 4182   0.719   3.977   4.339 -0.4572 -0.4823 -0.5734
 1113SOL     OW 4183   0.981   5.660   0.189 -0.6978 -0.1738 -0.2674
 1113SOL    HW2 4184   0.982   5.675   0.284 -1.6400 -0.4050 -0.2137
 1113SOL    HW3 4185   0.934   5.578   0.179 -1.9159  0.5990 -1.0419
 1113SOL    MW4 4186   0.975   5.651   0.201 -0.3581 -0.8336  0.3541
 1114SOL     OW 4187   0.221   3.991   0.688 -0.4586  0.0826  0.0364
 1114SOL    HW2 4188   0.309   4.028   0.684  0.2708 -1.6436 -2.0981
 1114SOL    HW3 4189   0.233   3.901   0.719 -1.4666 -0.1521 -0.2045
 1114SOL    MW4 4190   0.234   3.984   0.691 -0.0813 -0.2204 -0.4513
 1115SOL     OW 4191   5.147   0.491   3.190 -0.1575  0.5388 -0.2866
 1115SOL    HW2 4192   5.057   0.460   3.177  0.5185 -0.9067 -1.8999
 1115SOL    HW3 4193   5.155   0.566   3.131 -0.4748  1.1304  0.3913
 1115SOL    MW4 4194   5.136   0.497   3.181  0.1222  0.1243 -0.1290
 1116SOL     OW 4195   2.855   4.137   4.591 -0.5940 -0.0240 -0.8269
 1116SOL    HW2 4196   2.901   4.212   4.552 -1.0156  1.3050  1.0642
 1116SOL    HW3 4197   2.926   4.080   4.622 -0.2580  0.0491 -1.4343
 1116SOL    MW4 4198   2.871   4.139   4.590  0.8811  0.0508  0.2129
 1117SOL     OW 4199   3.418   3.957   0.945 -0.0750  0.8904  0.2035
 1117SOL    HW2 4200   3.477   4.024   0.911  0.8058  0.0183 -0.0265
 1117SOL    HW3 4201   3.392   3.906   0.869 -0.2219  0.5590  0.4739
 1117SOL    MW4 4202   3.422   3.959   0.931  0.1852 -0.1097  0.2994
 1118SOL     OW 4203   1.327   4.834   4.407 -0.0751  0.2869 -0.3176
 1118SOL    HW2 4204   1.241   4.865   4.376 -0.7093  0.3116  1.3722
 1118SOL    HW3 4205   1.362   4.906   4.458 -0.0180 -0.4902  0.7742
 1118SOL    MW4 4206   1.320   4.848   4.410  0.3465 -0.4458  0.3441
 1119SOL     OW 4207   4.718   0.476   5.790 -0.2249  0.0251  0.1590
 1119SOL    HW2 4208   4.649   0.442   5.733  0.7024 -2.4257  0.3846
 1119SOL    HW3 4209   4.742   0.560   5.750 -2.8832  0.6965 -0.2430
 1119SOL    MW4 4210   4.712   0.483   5.777  0.3698 -0.3532  0.3974
 1120SOL     OW 4211   0.897   1.441   2.503  0.2572  0.3857 -0.0507
 1120SOL    HW2 4212   0.919   1.532   2.484  0.7548  0.4123  0.6193
 1120SOL    HW3 4213   0.925   1.428   2.594  0.0359 -0.3860 -0.0865
 1120SOL    MW4 4214   0.904   1.451   2.513  0.0135  0.0762  0.3426
 1121SOL     OW 4215   5.471   1.888   4.351 -0.0734 -0.3344  0.2670
 1121SOL    HW2 4216   5.485   1.795   4.333  0.0654 -0.3518  0.4689
 1121SOL    HW3 4217   5.376   1.900   4.341 -0.4583 -0.9922  2.4599
 1121SOL    MW4 4218   5.460   1.878   4.348  0.3412 -0.4972 -0.1854
 1122SOL     OW 4219   6.177   4.921   4.049 -0.5201 -0.3884 -0.0166
 1122SOL    HW2 4220   6.098   4.973   4.034 -1.4735 -1.4534  1.0365
 1122SOL    HW3 4221   6.184   4.914   4.144  1.9768  1.2748  0.0092
 1122SOL    MW4 4222   6.167   4.927   4.060 -0.1772  0.2343  0.1050
 1123SOL     OW 4223   1.906   1.244   3.465 -0.2014 -0.4487 -0.1077
 1123SOL    HW2 4224   1.843   1.276   3.400 -1.4684 -0.8531  0.8837
 1123SOL    HW3 4225   1.984   1.223   3.414 -0.7768  0.2770 -1.3452
 1123SOL    MW4 4226   1.908   1.246   3.450 -0.3595  0.5847  0.1927
 1124SOL     OW 4227   3.290   3.581   2.666 -0.5070  0.1357 -0.3534
 1124SOL    HW2 4228   3.266   3.492   2.689  0.2567 -0.0443 -0.2327
 1124SOL    HW3 4229   3.310   3.623   2.750  0.9597 -0.1322 -0.5308
 1124SOL    MW4 4230   3.290   3.575   2.680 -0.1291 -0.5450 -0.2369
 1125SOL     OW 4231   0.570   2.374   1.601  0.2264 -0.3414  0.0887
 1125SOL    HW2 4232   0.665   2.376   1.593  0.1440 -0.2194 -0.9944
 1125SOL    HW3 4233   0.548   2.281   1.604  0.2901 -0.3975 -0.9783
 1125SOL    MW4 4234   0.580   2.362   1.601  0.5240 -0.2929  0.2717
 1126SOL     OW 4235   0.527   5.220   3.897  0.3982 -0.1806 -0.2373
 1126SOL    HW2 4236   0.520   5.307   3.937  2.2242 -0.3377  0.5027
 1126SOL    HW3 4237   0.483   5.230   3.813 -3.1604  0.2958  1.4680
 1126SOL    MW4 4238   0.520   5.233   3.891  0.4669 -0.0593  0.2741
 1127SOL     OW 4239   5.149   3.372   3.943  0.4722 -0.5213 -0.8550
 1127SOL    HW2 4240   5.183   3.390   3.855  1.9259 -0.5763 -0.3141
 1127SOL    HW3 4241   5.180   3.283   3.963 -0.4520 -0.7873 -0.5554
 1127SOL    MW4 4242   5.157   3.362   3.934  0.0005  0.5102  0.1094
 1128SOL     OW 4243   4.324   2.639   1.339 -0.4566 -0.0032 -0.2814
 1128SOL    HW2 4244   4.387   2.709   1.351  0.9271 -0.9395 -1.6305
 1128SOL    HW3 4245   4.338   2.580   1.413 -1.7952  1.2175  0.9885
 1128SOL    MW4 4246   4.334   2.640   1.350  0.8958  0.0605  0.1168
 1129SOL     OW 4247   4.351   4.239   4.437 -0.2241 -0.1048  0.2481
 1129SOL    HW2 4248   4.325   4.299   4.367  0.3038  0.7550  0.7721
 1129SOL    HW3 4249   4.446   4.234   4.429 -0.1625  0.0009  0.8971
 1129SOL    MW4 4250   4.360   4.246   4.427  0.2074  0.4635 -0.1370
 1130SOL     OW 4251   1.952   5.541   6.173 -0.2660  0.4769  0.1415
 1130SOL    HW2 4252   1.940   5.530   6.078  0.2467  2.0636 -0.1452
 1130SOL    HW3 4253   1.879   5.598   6.200 -2.0420 -2.1348  1.2747
 1130SOL    MW4 4254   1.941   5.547   6.164 -0.0356  0.0880 -0.1819
 1131SOL     OW 4255   3.928   4.632   0.632 -1.0998  0.0623  0.2445
 1131SOL    HW2 4256   4.010   4.583   0.640  0.2034  2.2613  1.8362
 1131SOL    HW3 4257   3.867   4.586   0.689 -0.8231 -1.3275 -0.5576
 1131SOL    MW4 4258   3.931   4.620   0.641 -0.2560 -0.0994  0.4804
 1132SOL     OW 4259   4.009   3.898   3.383 -0.1416  0.0967 -0.4669
 1132SOL    HW2 4260   3.987   3.862   3.469 -0.2901  0.1767 -0.4703
 1132SOL    HW3 4261   4.063   3.974   3.402  0.3522 -0.2509 -0.4670
 1132SOL    MW4 4262   4.013   3.903   3.397  0.3261  0.2218  0.3039
 1133SOL     OW 4263   3.424   5.891   4.990  0.1475  0.0954 -0.0741
 1133SOL    HW2 4264   3.370   5.820   4.955 -0.0314  0.5900 -0.8311
 1133SOL    HW3 4265   3.447   5.943   4.913  0.2794  0.8605  0.4757
 1133SOL    MW4 4266   3.420   5.888   4.975  0.5733 -0.7949  0.1834
 1134SOL     OW 4267   2.867   5.138   5.029  0.1065  0.3332  0.2047
 1134SOL    HW2 4268   2.832   5.052   5.005 -4.8251  1.9852  0.4732
 1134SOL    HW3 4269   2.930   5.158   4.960  0.1582 -2.7224 -0.8027
 1134SOL    MW4 4270   2.871   5.129   5.017 -0.1092 -0.6032 -0.3908
 1135SOL     OW 4271   1.086   4.513   2.047  0.4181 -0.2718 -0.4770
 1135SOL    HW2 4272   1.147   4.439   2.046  1.4848  0.4948  1.5527
 1135SOL    HW3 4273   1.134   4.585   2.007  2.0204  1.0514  3.3906
 1135SOL    MW4 4274   1.100   4.513   2.042  0.0015 -0.0720  0.2215
 1136SOL     OW 4275   2.593   3.275   3.865  0.5887 -0.0268 -0.0229
 1136SOL    HW2 4276   2.570   3.337   3.796 -0.6165  0.9130  1.1742
 1136SOL    HW3 4277   2.512   3.227   3.882  0.9436 -0.4219  0.5766
 1136SOL    MW4 4278   2.579   3.277   3.858 -0.0804  0.0219 -0.0843
 1137SOL     OW 4279   4.884   0.833   2.378  0.0458  0.0745 -0.0729
 1137SOL    HW2 4280   4.946   0.804   2.312 -0.0073 -0.5254  0.1399
 1137SOL    HW3 4281   4.936   0.885   2.439 -0.1107  1.6403 -1.2058
 1137SOL    MW4 4282   4.899   0.836   2.378 -0.3696  0.2204  0.5350
 1138SOL     OW 4283   3.459   5.608   4.101 -0.1015 -0.0687  0.1247
 1138SOL    HW2 4284   3.393   5.584   4.166  0.3029 -0.3543  0.4374
 1138SOL    HW3 4285   3.529   5.649   4.152  0.0326  0.0905 -0.1831
 1138SOL    MW4 4286   3.459   5.610   4.117  0.3891 -0.0934  0.1344
 1139SOL     OW 4287   5.825   3.577   3.306 -0.1107 -0.3931  0.3548
 1139SOL    HW2 4288   5.883   3.537   3.242 -0.1403 -0.4803  0.3809
 1139SOL    HW3 4289   5.761   3.626   3.255  0.2246  0.0315  0.3409
 1139SOL    MW4 4290   5.824   3.578   3.291  0.5829 -0.4380 -0.0309
 1140SOL     OW 4291   3.661   3.991   0.614 -0.0674 -0.1434  0.1117
 1140SOL    HW2 4292   3.639   4.013   0.704 -1.7261  1.0334 -0.5468
 1140SOL    HW3 4293   3.624   4.062   0.561  1.6144 -0.3508 -1.4505
 1140SOL    MW4 4294   3.653   4.003   0.619 -0.9034 -0.3500  0.0175
 1141SOL     OW 4295   0.500   4.123   5.665 -0.3959 -0.0489 -0.5481
 1141SOL    HW2 4296   0.454   4.049   5.704  0.5149 -1.0468 -1.3198
 1141SOL    HW3 4297   0.567   4.084   5.610  1.3260  1.3361  0.4327
 1141SOL    MW4 4298   0.503   4.108   5.663 -0.2563  0.3261  0.4823
 1142SOL     OW 4299   3.506   3.310   2.547 -0.1062 -0.2180  0.0314
 1142SOL    HW2 4300   3.524   3.384   2.605 -1.0163 -0.6285  0.8522
 1142SOL    HW3 4301   3.533   3.341   2.460  0.0536  0.8700  0.4531
 1142SOL    MW4 4302   3.512   3.324   2.543 -0.9300 -0.2669  0.5829
 1143SOL     OW 4303   5.632   2.852   6.275 -0.3327  0.3974  0.0216
 1143SOL    HW2 4304   5.550   2.813   6.305  0.0015 -0.6666 -0.3769
 1143SOL    HW3 4305   5.611   2.944   6.261 -1.3743  0.2079  0.2260
 1143SOL    MW4 4306   5.619   2.859   6.277 -0.5442  0.3541 -0.0533
 1144SOL     OW 4307   3.731   3.476   3.179  0.0113  0.1490 -0.1368
 1144SOL    HW2 4308   3.758   3.392   3.216  0.5000  0.4512  0.2017
 1144SOL    HW3 4309   3.766   3.476   3.090  0.2688  0.1185 -0.0368
 1144SOL    MW4 4310   3.739   3.465   3.172  0.5626 -0.2195  0.8882
 1145SOL     OW 4311   2.692   0.966   4.184 -0.4935  0.0735  0.0922
 1145SOL    HW2 4312   2.717   1.024   4.256  1.1039  1.9030 -1.7897
 1145SOL    HW3 4313   2.765   0.904   4.177 -0.8721 -0.4018  0.3370
 1145SOL    MW4 4314   2.705   0.966   4.193  0.8942  0.0884  0.1822
 1146SOL     OW 4315   3.002   0.366   0.976 -0.4370  0.2568  0.3055
 1146SOL    HW2 4316   2.950   0.287   0.964 -1.9143  1.0577  1.0999
 1146SOL    HW3 4317   3.027   0.392   0.888  0.2444 -1.1866  0.0468
 1146SOL    MW4 4318   2.998   0.359   0.963 -0.3000  0.5407  0.3769
 1147SOL     OW 4319   3.077   2.318   2.678 -0.2980 -0.0981  0.0072
 1147SOL    HW2 4320   3.166   2.332   2.646  0.2661  0.4677  1.7319
 1147SOL    HW3 4321   3.076   2.226   2.705  0.4328  0.3587  1.7935
 1147SOL    MW4 4322   3.089   2.308   2.677  0.4587 -0.1322 -0.6757
 1148SOL     OW 4323   4.673   3.813   2.182  0.5923  0.0342  0.2240
 1148SOL    HW2 4324   4.668   3.885   2.245 -1.8592  0.3824 -0.2781
 1148SOL    HW3 4325   4.767   3.796   2.172  1.1186  0.9230  2.8611
 1148SOL    MW4 4326   4.685   3.820   2.189  0.1343  0.0252  0.7918
 1149SOL     OW 4327   3.013   5.811   4.360 -0.0757 -0.1494 -0.0324
 1149SOL    HW2 4328   3.101   5.799   4.324 -0.8224  0.7373 -2.3594
 1149SOL    HW3 4329   3.012   5.901   4.391  0.1693 -0.5284  1.1343
 1149SOL    MW4 4330   3.025   5.821   4.359 -0.0489  0.3324  0.2916
 1150SOL     OW 4331   4.328   4.646   3.970  0.2992 -0.4170  0.1154
 1150SOL    HW2 4332   4.344   4.739   3.951 -1.2174  0.0475  0.9088
 1150SOL    HW3 4333   4.248   4.625   3.922  1.3960 -1.7454 -1.2064
 1150SOL    MW4 4334   4.319   4.656   3.961  0.1957 -0.3064  0.2030
 1151SOL     OW 4335   3.014   4.046   3.581 -0.0333 -0.4406  0.2823
 1151SOL    HW2 4336   3.066   3.966   3.576 -0.7560 -0.8788 -0.6654
 1151SOL    HW3 4337   2.944   4.032   3.517  0.4918  1.4342 -0.7907
 1151SOL    MW4 4338   3.012   4.034   3.572  0.2991  0.1119  0.2370
 1152SOL     OW 4339   5.482   5.347   3.508  0.2271 -0.1979 -1.1833
 1152SOL    HW2 4340   5.452   5.422   3.457 -0.3612  0.4736  0.1219
 1152SOL    HW3 4341   5.424   5.344   3.584  0.8374 -1.4142 -0.7358
 1152SOL    MW4 4342   5.471   5.356   3.511 -0.1177 -0.2988  0.1465
 1153SOL     OW 4343   2.448   6.321   3.850  0.0253  0.0146 -0.1311
 1153SOL    HW2 4344   2.484   6.309   3.938 -0.9311 -0.5550  0.1939
 1153SOL    HW3 4345   2.383   6.251   3.841 -2.7291  2.3741  0.1798
 1153SOL    MW4 4346   2.444   6.310   3.860 -0.5582 -0.2184 -0.7877
 1154SOL     OW 4347   6.021   4.537   2.401 -0.5487  0.3008 -0.2853
 1154SOL    HW2 4348   5.989   4.447   2.397  1.5034 -0.4712 -0.8196
 1154SOL    HW3 4349   6.013   4.571   2.312 -0.4927  0.3319 -0.2790
 1154SOL    MW4 4350   6.016   4.530   2.389 -0.6490 -0.2091  0.3847
 1155SOL     OW 4351   0.783   5.416   5.007 -0.3769 -0.2856 -0.0731
 1155SOL    HW2 4352   0.866   5.455   5.034  0.2820 -1.8053  0.2483
 1155SOL    HW3 4353   0.718   5.484   5.022  0.4055  0.0124  2.4937
 1155SOL    MW4 4354   0.785   5.430   5.013  0.4434  0.9688  0.5611
 1156SOL     OW 4355   0.910   1.360   3.502  0.2713  0.2197  0.0563
 1156SOL    HW2 4356   1.003   1.381   3.488  0.5786 -1.4504 -0.5986
 1156SOL    HW3 4357   0.872   1.442   3.534  2.1189  0.7516  1.0624
 1156SOL    MW4 4358   0.917   1.374   3.505  0.3846 -0.5931 -0.3488
 1157SOL     OW 4359   5.214   3.848   3.739 -0.4596 -0.5201  0.0230
 1157SOL    HW2 4360   5.226   3.931   3.784 -0.5820 -0.0734 -0.7642
 1157SOL    HW3 4361   5.119   3.833   3.740 -0.5769  0.0816 -1.1259
 1157SOL    MW4 4362   5.203   3.857   3.745  0.5659 -0.4523 -0.0480
 1158SOL     OW 4363   5.201   6.418   3.183 -0.1522  0.1383 -0.1609
 1158SOL    HW2 4364   5.123   6.447   3.231 -1.9029 -0.0590 -2.6431
 1158SOL    HW3 4365   5.261   6.493   3.187 -0.4355  0.3083  1.7764
 1158SOL    MW4 4366   5.199   6.432   3.190  0.5937  0.1527 -0.0922
 1159SOL     OW 4367   0.043   4.576   5.923 -0.4634 -0.3882  0.4335
 1159SOL    HW2 4368  -0.022   4.538   5.981 -0.1592 -1.2425  0.2228
 1159SOL    HW3 4369   0.107   4.616   5.982 -0.6651 -0.3944  0.6592
 1159SOL    MW4 4370   0.043   4.576   5.938  0.2068  0.4884 -0.0817
 1160SOL     OW 4371   5.388   4.697   1.952  0.2485  0.0348  0.0927
 1160SOL    HW2 4372   5.479   4.683   1.978  0.9947 -0.8192 -2.7049
 1160SOL    HW3 4373   5.370   4.788   1.975  1.7627  0.1862  0.7755
 1160SOL    MW4 4374   5.397   4.707   1.959 -0.0761  0.2689 -0.2548
 1161SOL     OW 4375   5.570   2.406   2.230 -0.4433 -0.2965  0.3679
 1161SOL    HW2 4376   5.619   2.459   2.293 -0.6847 -1.1087  1.2553
 1161SOL    HW3 4377   5.625   2.329   2.216  1.0641  1.1611 -2.7343
 1161SOL    MW4 4378   5.584   2.403   2.236 -0.3089 -0.5300  0.3705
 1162SOL     OW 4379   0.542   0.843   3.477  0.0288  0.3096  0.1702
 1162SOL    HW2 4380   0.526   0.880   3.390 -3.1900 -0.0713  0.4741
 1162SOL    HW3 4381   0.634   0.864   3.496  0.2106  2.2904 -2.3909
 1162SOL    MW4 4382   0.552   0.851   3.468  0.1465 -0.3238  0.1687
 1163SOL     OW 4383   2.811   4.680   4.318  0.4120  0.3605 -0.0632
 1163SOL    HW2 4384   2.862   4.678   4.237 -2.5849 -0.7908 -2.1185
 1163SOL    HW3 4385   2.774   4.768   4.321 -0.4198  0.0444 -0.6451
 1163SOL    MW4 4386   2.813   4.691   4.307 -0.0732 -0.1378  0.2368
 1164SOL     OW 4387   0.838   3.180   0.256  0.5692 -0.1326  0.3883
 1164SOL    HW2 4388   0.825   3.161   0.163 -2.5577  0.3683  0.5969
 1164SOL    HW3 4389   0.825   3.095   0.300  0.7778 -0.1419  0.4302
 1164SOL    MW4 4390   0.834   3.166   0.250  0.0562 -0.3051 -0.3909
 1165SOL     OW 4391   4.479   2.682   2.795 -0.0631 -0.4680 -0.0854
 1165SOL    HW2 4392   4.567   2.644   2.789  0.1888  0.2424 -1.3630
 1165SOL    HW3 4393   4.421   2.611   2.768  0.1341 -0.8845  0.5786
 1165SOL    MW4 4394   4.483   2.667   2.790 -0.4227 -0.4850  0.4965
 1166SOL     OW 4395   3.603   5.273   6.133 -0.4538 -0.0241 -0.1874
 1166SOL    HW2 4396   3.612   5.272   6.228 -0.2838  0.4612 -0.1971
 1166SOL    HW3 4397   3.590   5.365   6.110 -0.5134 -0.1374 -0.6328
 1166SOL    MW4 4398   3.602   5.285   6.142 -0.0513 -0.4827 -0.3625
 1167SOL     OW 4399   6.125   5.588   4.509  0.0995 -0.6865  0.3181
 1167SOL    HW2 4400   6.211   5.584   4.467  1.9641  0.4260  3.6463
 1167SOL    HW3 4401   6.141   5.636   4.591 -3.7724 -0.2248  0.9816
 1167SOL    MW4 4402   6.138   5.594   4.514 -0.7745  0.3384  0.3155
 1168SOL     OW 4403   5.775   4.612   0.204 -0.4505 -0.3337  0.3398
 1168SOL    HW2 4404   5.746   4.656   0.284 -0.3648 -1.7417  1.1710
 1168SOL    HW3 4405   5.777   4.519   0.227  3.1245 -0.4931 -0.1397
 1168SOL    MW4 4406   5.771   4.606   0.217  0.5583 -0.7335 -0.0483
 1169SOL     OW 4407   0.226   1.666   3.947 -0.1867  0.0378  0.4709
 1169SOL    HW2 4408   0.254   1.682   3.857 -0.4337  1.6611  0.6536
 1169SOL    HW3 4409   0.300   1.697   4.000 -0.7522  0.7502  0.8554
 1169SOL    MW4 4410   0.240   1.672   3.942  0.7191  0.4514 -0.7516
 1170SOL     OW 4411   5.715   2.303   1.550  1.0153 -0.2572  0.2293
 1170SOL    HW2 4412   5.691   2.257   1.470  0.4396 -1.4285  1.0408
 1170SOL    HW3 4413   5.774   2.373   1.522 -0.3352  0.2966 -1.3774
 1170SOL    MW4 4414   5.720   2.306   1.536 -0.2666  0.5042 -0.3790
 1171SOL     OW 4415   3.438   6.382   3.722 -0.2534  0.0681  0.1335
 1171SOL    HW2 4416   3.364   6.327   3.747 -0.5958  0.5787  0.2644
 1171SOL    HW3 4417   3.515   6.332   3.748 -0.5445 -0.6247 -0.3347
 1171SOL    MW4 4418   3.438   6.368   3.729 -0.0809  0.9407 -0.5629
 1172SOL     OW 4419   4.587   1.962   1.662  0.4974 -0.3032 -0.0868
 1172SOL    HW2 4420   4.547   2.006   1.737  0.8822  0.3299 -0.2403
 1172SOL    HW3 4421   4.658   1.910   1.698  0.5542 -0.1577  0.0105
 1172SOL    MW4 4422   4.591   1.961   1.676  0.1983  0.0385 -0.6388
 1173SOL     OW 4423   4.983   3.237   3.353  0.4252  0.2273 -0.8750
 1173SOL    HW2 4424   5.033   3.214   3.274  1.1138  2.0498 -1.0107
 1173SOL    HW3 4425   5.017   3.178   3.420  3.1697  1.6403 -0.8561
 1173SOL    MW4 4426   4.994   3.226   3.351 -0.7098  0.2759 -0.4032
 1174SOL     OW 4427   5.686   0.364   6.334  0.1155  0.1642  0.0406
 1174SOL    HW2 4428   5.606   0.401   6.371  0.3650 -0.7408  1.6101
 1174SOL    HW3 4429   5.688   0.395   6.244 -2.0978  0.0370 -0.1015
 1174SOL    MW4 4430   5.676   0.373   6.327 -0.6432  0.1364  0.0884
 1175SOL     OW 4431   2.802   1.592   1.348 -0.6524 -0.3907 -0.8115
 1175SOL    HW2 4432   2.851   1.627   1.422  1.2163  0.0184 -2.1503
 1175SOL    HW3 4433   2.712   1.588   1.378 -0.1679  1.0438  1.0141
 1175SOL    MW4 4434   2.797   1.596   1.362 -0.1103  0.7430 -0.0994
 1176SOL     OW 4435   5.248   3.740   5.170  0.0008  0.1834  0.2052
 1176SOL    HW2 4436   5.228   3.833   5.177 -0.8743 -0.0026  0.2693
 1176SOL    HW3 4437   5.332   3.737   5.125  0.7641  1.0478  1.4947
 1176SOL    MW4 4438   5.256   3.752   5.165  0.3284 -0.1641  0.0084
 1177SOL     OW 4439   4.630   5.400   4.569  0.0550 -0.4384  0.0010
 1177SOL    HW2 4440   4.675   5.352   4.499  0.1618 -0.2595 -0.0538
 1177SOL    HW3 4441   4.556   5.442   4.525 -1.6474 -2.7041  0.5081
 1177SOL    MW4 4442   4.627   5.399   4.554 -0.2783 -0.4883  0.2180
 1178SOL     OW 4443   0.717   1.549   5.320  0.4344 -0.3936  0.1062
 1178SOL    HW2 4444   0.699   1.488   5.249 -0.4806  1.5991 -1.4722
 1178SOL    HW3 4445   0.754   1.495   5.390 -0.3491 -2.7180 -1.1843
 1178SOL    MW4 4446   0.720   1.534   5.320  0.3833  0.1500 -0.1783
 1179SOL     OW 4447   3.434   4.636   5.627  0.3205  0.3839 -0.5125
 1179SOL    HW2 4448   3.437   4.556   5.574 -1.3254  0.8105 -1.3420
 1179SOL    HW3 4449   3.482   4.701   5.575 -0.2933  0.5000 -0.9483
 1179SOL    MW4 4450   3.441   4.634   5.613 -0.1054  0.4219 -0.2255
 1180SOL     OW 4451   4.348   2.757   3.097 -0.1582  0.5362  0.3821
 1180SOL    HW2 4452   4.298   2.677   3.086 -2.0538  1.7876 -0.7499
 1180SOL    HW3 4453   4.439   2.730   3.092 -0.7408 -1.5435  0.2116
 1180SOL    MW4 4454   4.353   2.743   3.095  0.1717 -0.3484 -0.2731
 1181SOL     OW 4455   3.714   1.700   2.041  0.5255 -0.4570  0.5369
 1181SOL    HW2 4456   3.743   1.751   1.966 -0.7069 -1.1642 -0.4477
 1181SOL    HW3 4457   3.769   1.622   2.040  0.5619 -0.4298  0.4275
 1181SOL    MW4 4458   3.725   1.697   2.031 -0.6592 -0.6761 -0.2709
 1182SOL     OW 4459   5.875   1.880   1.077 -0.3793  0.0089  0.2428
 1182SOL    HW2 4460   5.880   1.806   1.017 -0.0683  0.4700 -0.3111
 1182SOL    HW3 4461   5.823   1.945   1.031 -1.8501 -0.3780  1.3012
 1182SOL    MW4 4462   5.869   1.879   1.063  0.8372 -0.6930  0.1812
 1183SOL     OW 4463   0.923   2.128   2.234  0.2391 -0.4569  0.0011
 1183SOL    HW2 4464   0.850   2.161   2.286  0.4312  1.7471 -1.0105
 1183SOL    HW3 4465   0.891   2.046   2.198 -0.1177 -1.7660  2.9982
 1183SOL    MW4 4466   0.909   2.122   2.236 -0.0278 -0.8785 -0.1786
 1184SOL     OW 4467   0.217   0.208   6.296  0.1013  0.3686 -0.2883
 1184SOL    HW2 4468   0.167   0.167   6.226  0.9674 -0.2112 -0.5822
 1184SOL    HW3 4469   0.246   0.136   6.351 -0.7331  0.8377  0.7917
 1184SOL    MW4 4470   0.214   0.193   6.294  0.2116 -0.4863 -0.0338
 1185SOL     OW 4471   3.164   0.207   3.592 -0.0063  0.0671 -0.0784
 1185SOL    HW2 4472   3.187   0.177   3.680  0.0388 -1.8897 -0.7211
 1185SOL    HW3 4473   3.231   0.169   3.535 -1.2294 -0.4855 -1.2078
 1185SOL    MW4 4474   3.176   0.198   3.596 -0.2213  1.0348 -0.0180
 1186SOL     OW 4475   5.617   3.139   6.260  0.0059  0.0854  0.5223
 1186SOL    HW2 4476   5.595   3.148   6.168 -0.6616  0.0813  0.6784
 1186SOL    HW3 4477   5.641   3.227   6.288  2.1490 -0.2196 -0.1187
 1186SOL    MW4 4478   5.617   3.151   6.252  0.6876 -0.1651  0.0018
 1187SOL     OW 4479   3.898   4.281   1.772 -0.1202 -0.1472 -0.3427
 1187SOL    HW2 4480   3.951   4.358   1.750 -2.5523  1.4622 -1.0147
 1187SOL    HW3 4481   3.831   4.277   1.703 -0.8040 -2.1493  0.3541
 1187SOL    MW4 4482   3.896   4.291   1.760  0.3793  0.2762 -0.5461
 1188SOL     OW 4483   1.093   6.295   2.896  0.1146  0.0722  0.5268
 1188SOL    HW2 4484   1.117   6.286   2.803 -0.5789 -0.0589  0.3547
 1188SOL    HW3 4485   1.172   6.270   2.944  0.8145  1.1304 -0.0315
 1188SOL    MW4 4486   1.107   6.291   2.890 -0.2395  0.5882  0.1218
 1189SOL     OW 4487   3.684   1.688   4.811 -0.1900  0.5545 -0.0246
 1189SOL    HW2 4488   3.758   1.746   4.795  0.3675 -0.4546 -1.3918
 1189SOL    HW3 4489   3.716   1.627   4.878  0.8251 -0.7715 -1.6068
 1189SOL    MW4 4490   3.698   1.687   4.818 -0.2344  0.0672 -0.2874
 1190SOL     OW 4491   0.174   0.825   2.277  0.1542  0.4143 -0.5196
 1190SOL    HW2 4492   0.130   0.864   2.353  0.0027  1.2314 -1.0170
 1190SOL    HW3 4493   0.228   0.755   2.314  0.2364  0.9284  0.3590
 1190SOL    MW4 4494   0.175   0.821   2.292  0.8622 -0.1458  0.3457
 1191SOL     OW 4495   5.118   0.375   2.325 -0.1683 -0.1959 -0.3796
 1191SOL    HW2 4496   5.033   0.359   2.366 -0.1788 -0.3886 -0.4737
 1191SOL    HW3 4497   5.180   0.323   2.376 -0.0342  0.3000 -0.0315
 1191SOL    MW4 4498   5.115   0.366   2.337  0.3901 -0.0656 -0.2035
 1192SOL     OW 4499   6.338   6.117   2.611 -0.3363 -0.7479 -0.0021
 1192SOL    HW2 4500   6.319   6.194   2.664 -2.1919 -0.5462 -0.8770
 1192SOL    HW3 4501   6.397   6.149   2.543 -0.5335 -0.2485  0.0529
 1192SOL    MW4 4502   6.343   6.131   2.609 -0.0890  0.3264  0.7385
 1193SOL     OW 4503   0.373   0.107   2.910 -0.3621  0.0667 -0.1307
 1193SOL    HW2 4504   0.340   0.197   2.899 -0.4888 -0.1349 -1.7081
 1193SOL    HW3 4505   0.337   0.060   2.835  0.5631 -1.0488  0.1059
 1193SOL    MW4 4506   0.364   0.113   2.899  0.2831 -0.1891  0.8060
 1194SOL     OW 4507   2.128   3.269   1.716 -0.3821 -0.5000 -0.7309
 1194SOL    HW2 4508   2.181   3.347   1.730 -2.9216  1.3036 -0.4176
 1194SOL    HW3 4509   2.111   3.267   1.622  0.4623 -1.2716 -0.8817
 1194SOL    MW4 4510   2.132   3.279   1.706 -0.1560 -0.3938 -0.3643
 1195SOL     OW 4511   3.207   0.585   3.684  0.0441 -0.3799  0.1684
 1195SOL    HW2 4512   3.112   0.584   3.675  0.2337  0.5424 -2.8357
 1195SOL    HW3 4513   3.238   0.515   3.627  1.2209  0.2001  0.0487
 1195SOL    MW4 4514   3.199   0.576   3.676  0.6420 -0.9278  0.1980
 1196SOL     OW 4515   3.628   4.761   0.632 -0.2404 -0.1046  0.4208
 1196SOL    HW2 4516   3.703   4.776   0.574  0.6707 -1.6213  1.1214
 1196SOL    HW3 4517   3.554   4.746   0.573 -0.0471  1.5418 -0.2871
 1196SOL    MW4 4518   3.628   4.761   0.617 -0.3670  0.5185 -0.3074
 1197SOL     OW 4519   0.064   4.881   4.352 -0.0962 -0.6995 -0.6626
 1197SOL    HW2 4520   0.139   4.873   4.294 -0.6160 -0.6468 -1.3598
 1197SOL    HW3 4521   0.087   4.952   4.411 -0.3663  0.6564 -2.1063
 1197SOL    MW4 4522   0.077   4.889   4.352 -0.2980 -0.1824  0.5780
 1198SOL     OW 4523   6.389   4.134   3.012 -0.1680 -0.5197 -0.0015
 1198SOL    HW2 4524   6.442   4.108   3.088  1.5196 -0.7148 -1.1883
 1198SOL    HW3 4525   6.417   4.224   2.993 -1.1138 -0.2080  0.0293
 1198SOL    MW4 4526   6.400   4.142   3.020 -0.5177  0.2249  0.3522
 1199SOL     OW 4527   5.646   1.755   1.175 -0.2184  0.2495 -0.3760
 1199SOL    HW2 4528   5.729   1.796   1.149  1.1474 -1.9749  0.2068
 1199SOL    HW3 4529   5.601   1.739   1.092  0.7438 -0.0823 -0.8529
 1199SOL    MW4 4530   5.651   1.758   1.160  0.4708  0.0872  0.4408
 1200SOL     OW 4531   0.328   5.439   3.274 -0.7667  0.0009  0.2185
 1200SOL    HW2 4532   0.349   5.355   3.315  0.5001  0.8906  1.5042
 1200SOL    HW3 4533   0.255   5.473   3.326 -1.1711 -0.2309 -0.1977
 1200SOL    MW4 4534   0.322   5.432   3.287  0.0733  0.7099  0.3122
 1201SOL     OW 4535   4.994   3.638   6.185  0.0226 -0.3375 -0.8245
 1201SOL    HW2 4536   5.040   3.701   6.129  1.3624  0.0908  0.6888
 1201SOL    HW3 4537   5.063   3.596   6.236 -1.0223 -1.8199 -0.5758
 1201SOL    MW4 4538   5.009   3.641   6.184  0.4280 -0.0038 -0.1403
 1202SOL     OW 4539   3.260   0.300   1.111 -0.4738 -0.1423  0.7525
 1202SOL    HW2 4540   3.307   0.224   1.077  0.9095  2.0606 -2.9272
 1202SOL    HW3 4541   3.168   0.280   1.096 -0.3161 -1.8982  1.8783
 1202SOL    MW4 4542   3.254   0.287   1.104 -0.2247  0.0675  0.2303
 1203SOL     OW 4543   5.650   5.593   0.693 -0.0845 -0.1224 -0.5926
 1203SOL    HW2 4544   5.708   5.548   0.754 -0.5035  1.3003  0.9575
 1203SOL    HW3 4545   5.563   5.583   0.732 -0.4285  0.3808 -1.2193
 1203SOL    MW4 4546   5.646   5.586   0.706 -0.7067  0.2666  0.3428
 1204SOL     OW 4547   1.328   3.950   2.070 -0.3619 -0.2528 -0.1596
 1204SOL    HW2 4548   1.250   4.005   2.078 -0.4931 -0.3792 -0.5447
 1204SOL    HW3 4549   1.296   3.861   2.080 -0.2785 -0.3097 -0.3947
 1204SOL    MW4 4550   1.313   3.945   2.072 -0.3110 -0.3523  0.2134
 1205SOL     OW 4551   5.461   1.310   4.312 -0.2550 -0.5099  0.6662
 1205SOL    HW2 4552   5.370   1.330   4.289 -0.3635 -0.0328  1.4694
 1205SOL    HW3 4553   5.511   1.343   4.237 -0.8457 -2.5426 -0.7084
 1205SOL    MW4 4554   5.455   1.317   4.299 -0.1476 -0.4821 -0.3988
 1206SOL     OW 4555   6.435   2.953   5.034 -0.9977 -0.5075  0.0492
 1206SOL    HW2 4556   6.366   2.929   5.096  0.1548 -0.3145  1.4726
 1206SOL    HW3 4557   6.512   2.905   5.065 -0.3717 -0.3531 -1.2235
 1206SOL    MW4 4558   6.436   2.944   5.046  0.3492  0.3489 -0.2155
 1207SOL     OW 4559   6.280   1.972   3.145  0.4073 -0.0315  0.2100
 1207SOL    HW2 4560   6.316   1.909   3.208  0.0044 -1.2249 -0.7093
 1207SOL    HW3 4561   6.186   1.968   3.159  0.3693  0.2154  0.0214
 1207SOL    MW4 4562   6.273   1.963   3.155 -0.0787 -0.3631  0.6936
 1208SOL     OW 4563   5.778   6.149   4.461 -0.0516 -0.1068  0.5860
 1208SOL    HW2 4564   5.764   6.222   4.401 -0.3715 -0.6376  0.0050
 1208SOL    HW3 4565   5.694   6.103   4.463  0.0807 -0.3364  1.1196
 1208SOL    MW4 4566   5.765   6.153   4.453 -0.5438 -0.1170 -0.0591
 1209SOL     OW 4567   5.355   2.999   0.913 -0.4092 -0.0019  0.2642
 1209SOL    HW2 4568   5.435   3.050   0.900 -1.1668  1.1097 -0.1561
 1209SOL    HW3 4569   5.308   3.044   0.982 -0.9866 -0.2632  0.0523
 1209SOL    MW4 4570   5.359   3.011   0.920 -0.1384 -0.1983 -0.0386
 1210SOL     OW 4571   0.476   5.886   1.326 -0.1346  0.0181  0.0517
 1210SOL    HW2 4572   0.508   5.961   1.376 -1.9843  1.6777 -1.1075
 1210SOL    HW3 4573   0.396   5.917   1.284 -1.7909 -3.0557  0.6524
 1210SOL    MW4 4574   0.470   5.900   1.327  0.2845  0.4016  0.4027
 1211SOL     OW 4575   1.074   5.613   3.410  0.1370 -0.1481  0.0616
 1211SOL    HW2 4576   1.044   5.575   3.327 -1.4310 -0.7700  0.8746
 1211SOL    HW3 4577   1.024   5.695   3.418  0.9615  0.3760 -0.0326
 1211SOL    MW4 4578   1.063   5.619   3.400  0.3316  0.1225  0.0449
 1212SOL     OW 4579   1.524   1.867   4.534  0.2865  0.2491  0.1634
 1212SOL    HW2 4580   1.549   1.942   4.479 -1.3554  0.7688  0.0687
 1212SOL    HW3 4581   1.520   1.793   4.473 -1.8794  0.8953 -0.5561
 1212SOL    MW4 4582   1.527   1.867   4.519 -0.7387  0.0120  0.3345
 1213SOL     OW 4583   1.483   0.847   1.558  0.7190  0.4145  0.3015
 1213SOL    HW2 4584   1.538   0.780   1.598 -0.4006 -1.2748 -0.8378
 1213SOL    HW3 4585   1.545   0.909   1.519  1.8063 -0.6984  0.2075
 1213SOL    MW4 4586   1.498   0.847   1.558 -0.6433 -0.1667  0.3234
 1214SOL     OW 4587   3.678   6.300   3.844  0.3209  0.2418 -0.2496
 1214SOL    HW2 4588   3.706   6.213   3.815 -1.5758 -0.1622 -0.9709
 1214SOL    HW3 4589   3.662   6.289   3.938 -1.6894 -0.7369 -0.6510
 1214SOL    MW4 4590   3.680   6.287   3.852 -0.1798 -0.3753 -0.0206
 1215SOL     OW 4591   3.730   4.591   3.086 -0.2071  0.0880  0.3356
 1215SOL    HW2 4592   3.793   4.655   3.053 -0.2052 -0.0039  0.1589
 1215SOL    HW3 4593   3.679   4.565   3.008 -0.0848 -0.2616  0.3719
 1215SOL    MW4 4594   3.731   4.596   3.071  0.7154  0.4966 -0.1947
 1216SOL     OW 4595   0.939   5.443   5.596 -0.2502 -0.3356  0.1793
 1216SOL    HW2 4596   0.857   5.413   5.635  0.1658  1.3011  2.5489
 1216SOL    HW3 4597   0.939   5.538   5.610  0.9880  0.0440 -1.9478
 1216SOL    MW4 4598   0.928   5.452   5.603 -0.1542 -0.0381 -0.1229
 1217SOL     OW 4599   1.103   5.020   4.312  0.2971  0.5509 -0.4177
 1217SOL    HW2 4600   1.100   5.097   4.254  0.1877  0.1146 -1.0009
 1217SOL    HW3 4601   1.087   5.056   4.399  0.5581  1.2331 -0.6401
 1217SOL    MW4 4602   1.100   5.035   4.316 -0.3984 -0.3845  0.1463
 1218SOL     OW 4603   0.312   4.636   5.183  0.2647  0.5705  0.1541
 1218SOL    HW2 4604   0.255   4.649   5.259 -1.9175  0.9365 -1.4390
 1218SOL    HW3 4605   0.395   4.679   5.207  0.1478 -0.5027  2.7986
 1218SOL    MW4 4606   0.316   4.644   5.196 -0.0136  0.2198  0.4249
 1219SOL     OW 4607   1.241   3.021   3.077  0.7656 -0.4283  0.4956
 1219SOL    HW2 4608   1.333   3.033   3.101  0.9843  0.0431 -0.5158
 1219SOL    HW3 4609   1.225   3.087   3.009  0.0796 -1.4255 -0.3449
 1219SOL    MW4 4610   1.251   3.031   3.071 -0.2516  0.0603  0.0455
 1220SOL     OW 4611   4.698   0.577   2.831 -0.2399 -0.1945  0.1035
 1220SOL    HW2 4612   4.683   0.669   2.811 -0.2954 -0.4944 -1.3715
 1220SOL    HW3 4613   4.626   0.531   2.788  1.1760 -1.1136 -1.4255
 1220SOL    MW4 4614   4.687   0.583   2.823  0.4545  0.4661 -0.3118
 1221SOL     OW 4615   5.795   1.667   4.499  0.4334 -0.9472 -0.4218
 1221SOL    HW2 4616   5.809   1.616   4.578  0.3375 -1.2223 -0.5787
 1221SOL    HW3 4617   5.700   1.661   4.483  0.3047 -0.0975 -0.0263
 1221SOL    MW4 4618   5.784   1.659   4.507 -0.2740  0.1267  0.4389
 1222SOL     OW 4619   1.786   5.739   6.266 -0.0865  0.0760 -0.5892
 1222SOL    HW2 4620   1.858   5.793   6.234  0.8756 -1.9820 -2.1531
 1222SOL    HW3 4621   1.711   5.764   6.212  0.5154 -0.5716 -1.7501
 1222SOL    MW4 4622   1.785   5.750   6.255  0.3199 -0.3195  0.3082
 1223SOL     OW 4623   0.737   4.247   4.912  0.7037 -0.7854  0.2418
 1223SOL    HW2 4624   0.686   4.286   4.841  0.3907 -0.4164  0.6602
 1223SOL    HW3 4625   0.782   4.322   4.952 -0.3378 -0.7507  1.4108
 1223SOL    MW4 4626   0.736   4.262   4.908  0.5497 -0.1435  0.3158
 1224SOL     OW 4627   3.938   0.143   1.437 -0.2505  0.3074  0.1734
 1224SOL    HW2 4628   3.904   0.218   1.487 -1.5034 -0.8405  1.1357
 1224SOL    HW3 4629   3.860   0.090   1.418  0.7855 -1.6485  1.0981
 1224SOL    MW4 4630   3.923   0.146   1.441 -0.1570  0.0737  0.0678
 1225SOL     OW 4631   0.398   0.257   2.149  0.0657  0.4226  0.0446
 1225SOL    HW2 4632   0.337   0.284   2.080 -0.1861  1.7137  0.7401
 1225SOL    HW3 4633   0.382   0.163   2.160 -2.0242  0.7699  0.4085
 1225SOL    MW4 4634   0.388   0.248   2.141  0.0849  0.2585 -0.0712
 1226SOL     OW 4635   6.055   4.627   2.107 -0.2941 -0.3568 -0.4613
 1226SOL    HW2 4636   6.055   4.672   2.022 -1.9620  0.2347 -0.1746
 1226SOL    HW3 4637   6.037   4.536   2.085 -0.0123 -0.3332 -0.8006
 1226SOL    MW4 4638   6.053   4.621   2.093 -0.4765  0.4306 -0.8494
 1227SOL     OW 4639   1.436   5.904   2.004 -0.5968  0.7111 -0.6029
 1227SOL    HW2 4640   1.521   5.948   2.000 -0.6253  0.7203 -1.2348
 1227SOL    HW3 4641   1.383   5.947   1.937 -1.1541  0.8070 -0.1086
 1227SOL    MW4 4642   1.440   5.915   1.995  0.4077  0.0317 -0.5640
 1228SOL     OW 4643   5.536   4.396   4.572  0.5033  0.3345  0.3907
 1228SOL    HW2 4644   5.535   4.492   4.581 -1.2324  0.2656  1.2894
 1228SOL    HW3 4645   5.571   4.381   4.484  1.5841  1.7436  0.5371
 1228SOL    MW4 4646   5.541   4.407   4.561 -1.0872  0.2849 -0.3333
 1229SOL     OW 4647   2.092   1.689   0.023 -0.3579 -0.0964  0.4497
 1229SOL    HW2 4648   2.047   1.722  -0.054  5.0866  0.0506 -3.2194
 1229SOL    HW3 4649   2.064   1.598   0.030 -1.3461  0.0197 -1.3929
 1229SOL    MW4 4650   2.082   1.681   0.014  0.1618  0.0228 -0.6786
 1230SOL     OW 4651   3.478   0.611   1.566 -0.7566  0.4141 -0.1361
 1230SOL    HW2 4652   3.475   0.601   1.470  0.3296 -0.2882 -0.1144
 1230SOL    HW3 4653   3.477   0.706   1.580 -0.9514  0.5254 -0.8418
 1230SOL    MW4 4654   3.478   0.622   1.555  0.0619  0.2627 -0.0688
 1231SOL     OW 4655   0.021   5.156   4.899 -0.6545  0.4247 -0.1227
 1231SOL    HW2 4656   0.050   5.070   4.928  1.3737  0.6506 -1.2335
 1231SOL    HW3 4657  -0.015   5.197   4.977  0.7166 -0.5092  1.0693
 1231SOL    MW4 4658   0.020   5.150   4.913 -0.2600 -0.2406 -0.0100
 1232SOL     OW 4659   3.939   2.720   2.932 -0.0758 -0.1475  0.0336
 1232SOL    HW2 4660   3.846   2.701   2.938  0.2536 -1.7437  0.5173
 1232SOL    HW3 4661   3.948   2.808   2.968 -1.3776 -0.0049  0.0522
 1232SOL    MW4 4662   3.928   2.729   2.937  0.3433 -0.2433 -0.8494
 1233SOL     OW 4663   0.549   4.505   2.049  0.3826 -0.0083  0.2024
 1233SOL    HW2 4664   0.641   4.485   2.029  1.0798 -2.2944  4.5536
 1233SOL    HW3 4665   0.554   4.569   2.121 -1.5181  0.5266 -0.0934
 1233SOL    MW4 4666   0.562   4.511   2.056 -0.1083 -0.4072  0.3360
 1234SOL     OW 4667   0.207   0.720   3.841  0.2812 -0.0225  0.5858
 1234SOL    HW2 4668   0.238   0.647   3.895  4.4812  0.8204 -0.3119
 1234SOL    HW3 4669   0.239   0.798   3.887 -1.2294  1.0913 -0.1784
 1234SOL    MW4 4670   0.215   0.721   3.854  0.1793  0.5247 -0.0946
 1235SOL     OW 4671   5.567   0.490   1.627 -0.2273 -0.4476 -0.0893
 1235SOL    HW2 4672   5.513   0.472   1.703  0.8839 -0.1308  0.7902
 1235SOL    HW3 4673   5.559   0.585   1.614  2.1098  0.0732  1.6484
 1235SOL    MW4 4674   5.559   0.500   1.635 -0.0194 -0.5165  0.1380
 1236SOL     OW 4675   0.096   6.404   1.233  0.1993 -0.1310 -0.3003
 1236SOL    HW2 4676   0.133   6.470   1.291  0.0097 -0.7627  0.5584
 1236SOL    HW3 4677   0.079   6.329   1.290 -0.7625 -0.4767 -1.0163
 1236SOL    MW4 4678   0.099   6.403   1.248 -0.2974  0.0382  0.5986
 1237SOL     OW 4679   6.129   3.711   5.602  0.0858 -0.1108  0.1932
 1237SOL    HW2 4680   6.110   3.798   5.636  0.2163  0.9470 -2.2531
 1237SOL    HW3 4681   6.083   3.707   5.519 -0.0388 -2.4650  0.3035
 1237SOL    MW4 4682   6.121   3.722   5.596  0.0539 -0.3942  0.2182
 1238SOL     OW 4683   4.607   5.470   0.068 -0.5333  0.3724 -0.0995
 1238SOL    HW2 4684   4.627   5.534  -0.001 -0.9604 -1.6666 -2.2215
 1238SOL    HW3 4685   4.598   5.523   0.148 -0.9113  2.9488 -1.7391
 1238SOL    MW4 4686   4.609   5.486   0.070 -0.2290 -0.0429 -0.7514
 1239SOL     OW 4687   0.359   6.391   2.135  0.1621 -0.1549  0.1157
 1239SOL    HW2 4688   0.303   6.333   2.084  1.0590  0.7881 -2.0823
 1239SOL    HW3 4689   0.445   6.349   2.133  0.0358 -0.5908  1.7719
 1239SOL    MW4 4690   0.363   6.378   2.128 -0.2671  0.9821  0.2861
 1240SOL     OW 4691   6.358   0.116   4.886  0.0073  0.5876 -0.4320
 1240SOL    HW2 4692   6.381   0.128   4.794  1.2520  2.4265  0.0605
 1240SOL    HW3 4693   6.376   0.023   4.904  1.3331  0.5792 -1.6328
 1240SOL    MW4 4694   6.364   0.105   4.877  0.3367 -0.0436 -0.4449
 1241SOL     OW 4695   0.729   3.958   1.203  0.0191  0.1914 -0.4277
 1241SOL    HW2 4696   0.776   4.040   1.215  0.1860  0.0941 -0.4231
 1241SOL    HW3 4697   0.721   3.949   1.108  0.1749  0.1123 -0.4330
 1241SOL    MW4 4698   0.734   3.968   1.192 -0.1046  0.3392 -0.5566
 1242SOL     OW 4699   4.135   5.642   3.424  0.3132 -0.1209 -0.2605
 1242SOL    HW2 4700   4.174   5.716   3.378 -0.3228  0.0028 -0.6119
 1242SOL    HW3 4701   4.202   5.573   3.420  1.6967  0.9830  1.6843
 1242SOL    MW4 4702   4.149   5.643   3.418  0.4649  0.3689  0.3564
 1243SOL     OW 4703   4.562   5.869   5.064  0.0567  0.0194  0.1073
 1243SOL    HW2 4704   4.643   5.882   5.114  0.6352  0.1740 -0.8409
 1243SOL    HW3 4705   4.565   5.936   4.996 -0.6173 -0.3132 -0.2616
 1243SOL    MW4 4706   4.573   5.880   5.062 -0.0560 -0.4703  0.0443
 1244SOL     OW 4707   2.183   3.026   1.832  0.0827 -0.3869  0.3448
 1244SOL    HW2 4708   2.278   3.018   1.831  0.0822 -0.3672 -0.7167
 1244SOL    HW3 4709   2.165   3.112   1.795 -0.3374 -0.1328  1.1082
 1244SOL    MW4 4710   2.193   3.036   1.827  0.2024  0.6837  0.0147
 1245SOL     OW 4711   3.571   3.180   5.720 -0.1683 -0.0313 -0.0831
 1245SOL    HW2 4712   3.512   3.104   5.725 -0.9274  0.5233 -0.4330
 1245SOL    HW3 4713   3.566   3.208   5.629  3.0688 -1.8362 -0.9652
 1245SOL    MW4 4714   3.562   3.173   5.709 -0.4472  0.0179 -0.2845
 1246SOL     OW 4715   3.118   3.528   3.299  0.0709  0.3086 -0.5065
 1246SOL    HW2 4716   3.187   3.472   3.264 -1.7051 -1.1124 -1.9120
 1246SOL    HW3 4717   3.068   3.472   3.358 -0.0610  1.2542  0.3193
 1246SOL    MW4 4718   3.120   3.513   3.302  0.2508  0.6795 -0.1204
 1247SOL     OW 4719   5.893   5.395   0.491  0.4309 -0.2758  0.1733
 1247SOL    HW2 4720   5.809   5.438   0.478 -0.6411 -2.0162  0.9547
 1247SOL    HW3 4721   5.936   5.446   0.561 -0.0754  0.4610 -0.0467
 1247SOL    MW4 4722   5.888   5.408   0.499 -0.2658 -0.0107 -0.3953
 1248SOL     OW 4723   5.088   5.176   4.116 -0.3739  0.0107  0.8319
 1248SOL    HW2 4724   5.097   5.130   4.200  0.6622  1.4813  1.5721
 1248SOL    HW3 4725   5.002   5.149   4.084 -0.3478 -1.4329  1.8229
 1248SOL    MW4 4726   5.078   5.166   4.123  0.0903  0.3312 -0.5756
 1249SOL     OW 4727   4.292   5.207   4.001  0.0463  0.4998  0.2054
 1249SOL    HW2 4728   4.386   5.221   3.988  0.7119 -1.4150  2.2312
 1249SOL    HW3 4729   4.269   5.265   4.074 -0.6620  1.8277 -1.0355
 1249SOL    MW4 4730   4.301   5.216   4.009 -0.2177  0.5759 -0.0094
 1250SOL     OW 4731   6.421   0.681   0.583  0.0675 -0.1872  0.7699
 1250SOL    HW2 4732   6.407   0.774   0.563  1.7107  0.1292  0.9740
 1250SOL    HW3 4733   6.484   0.652   0.517  1.5563 -0.4746  2.2619
 1250SOL    MW4 4734   6.428   0.689   0.571  0.0663 -0.4597 -0.0081
 1251SOL     OW 4735   6.151   0.728   0.071 -0.2939 -0.1359  0.0628
 1251SOL    HW2 4736   6.148   0.654   0.133  0.9187 -0.8387 -0.6657
 1251SOL    HW3 4737   6.177   0.688  -0.012 -1.0045  0.9297 -0.6989
 1251SOL    MW4 4738   6.154   0.713   0.069 -0.0946 -0.9250  0.0103
 1252SOL     OW 4739   5.261   6.166   3.313 -0.4811  0.2928  0.0848
 1252SOL    HW2 4740   5.254   6.242   3.255  0.8571 -0.8989 -1.7523
 1252SOL    HW3 4741   5.349   6.132   3.297 -0.3078 -0.5031  2.3588
 1252SOL    MW4 4742   5.272   6.171   3.303 -0.5846  0.3492  0.4231
 1253SOL     OW 4743   0.751   6.440   4.844  0.3863 -0.4207  0.8575
 1253SOL    HW2 4744   0.708   6.356   4.861  0.7247 -0.7342  0.1806
 1253SOL    HW3 4745   0.683   6.505   4.862  0.4949 -0.7486  2.6846
 1253SOL    MW4 4746   0.736   6.438   4.849  0.0554  0.0993 -0.5601
 1254SOL     OW 4747   2.111   4.048   5.508 -0.1617 -0.5656 -0.2630
 1254SOL    HW2 4748   2.025   4.086   5.490 -0.0218 -0.7855 -1.4399
 1254SOL    HW3 4749   2.148   4.105   5.575  0.0257  1.3859 -1.9141
 1254SOL    MW4 4750   2.104   4.060   5.515 -0.0303  0.0355 -0.6016
 1255SOL     OW 4751   1.418   1.270   6.199  0.1239 -0.0446 -0.1923
 1255SOL    HW2 4752   1.475   1.196   6.220 -0.1967 -0.1715  0.2565
 1255SOL    HW3 4753   1.349   1.266   6.265  0.5465  1.1386  0.3455
 1255SOL    MW4 4754   1.417   1.260   6.211 -0.0515 -0.0192 -0.4448
 1256SOL     OW 4755   0.078   3.997   3.844  0.2585  0.1062  0.0540
 1256SOL    HW2 4756   0.084   4.024   3.752  0.6034  0.2712  0.1220
 1256SOL    HW3 4757   0.023   4.063   3.885 -2.3033 -1.4945 -0.6077
 1256SOL    MW4 4758   0.072   4.009   3.837  0.1989  0.2151  0.1416
 1257SOL     OW 4759   2.071   4.065   3.891 -0.1271  0.2625 -0.2411
 1257SOL    HW2 4760   2.108   4.003   3.829  3.1357 -1.7649  3.2819
 1257SOL    HW3 4761   2.003   4.016   3.936 -1.1068  1.0443 -0.8437
 1257SOL    MW4 4762   2.067   4.050   3.889  0.1570 -0.3507  0.0427
 1258SOL     OW 4763   0.269   2.750   0.036  0.3137  0.2864 -0.1314
 1258SOL    HW2 4764   0.241   2.817  -0.026 -0.1585 -1.7464 -2.2499
 1258SOL    HW3 4765   0.362   2.737   0.016  0.5668  0.7220  0.7146
 1258SOL    MW4 4766   0.278   2.757   0.025  0.6403  0.7554 -0.0745
 1259SOL     OW 4767   2.860   5.924   6.227 -0.0629 -0.4463  0.1605
 1259SOL    HW2 4768   2.953   5.901   6.235 -0.4755 -1.4883  3.0121
 1259SOL    HW3 4769   2.857   5.985   6.153  2.7622 -0.9658 -0.4923
 1259SOL    MW4 4770   2.872   5.929   6.218 -0.1175  0.0753  0.6374
 1260SOL     OW 4771   0.510   4.305   1.267  0.3604 -0.3219  0.1124
 1260SOL    HW2 4772   0.594   4.351   1.258 -0.3336  1.0717  0.4386
 1260SOL    HW3 4773   0.462   4.355   1.334 -1.4095 -0.0322 -1.2977
 1260SOL    MW4 4774   0.515   4.318   1.275 -0.4180 -0.1589  0.5398
 1261SOL     OW 4775   4.516   0.614   5.506  0.2065  0.5434 -0.2516
 1261SOL    HW2 4776   4.536   0.546   5.441 -0.2784 -0.3163  0.4664
 1261SOL    HW3 4777   4.505   0.694   5.455  2.9140  0.5852 -0.9489
 1261SOL    MW4 4778   4.517   0.615   5.491 -0.0830  0.7307 -0.0110
 1262SOL     OW 4779   6.097   0.274   5.187 -0.0756  0.0562 -0.3133
 1262SOL    HW2 4780   6.091   0.338   5.257  0.0122  1.3461 -1.4524
 1262SOL    HW3 4781   6.036   0.204   5.212 -0.1970  0.5885  0.9223
 1262SOL    MW4 4782   6.088   0.273   5.199  0.1097 -0.1750 -0.2385
 1263SOL     OW 4783   4.570   5.261   5.428  0.6888  0.1610 -0.0557
 1263SOL    HW2 4784   4.485   5.233   5.462  0.6046  1.4270  0.8662
 1263SOL    HW3 4785   4.574   5.225   5.339 -0.3562 -0.7795  0.2622
 1263SOL    MW4 4786   4.559   5.253   5.420 -0.5452  0.9528 -0.5412
 1264SOL     OW 4787   1.284   3.030   3.495 -0.2170  0.6103 -0.1569
 1264SOL    HW2 4788   1.302   3.093   3.426 -1.3781 -0.8258 -1.8492
 1264SOL    HW3 4789   1.197   2.996   3.476 -0.8387  0.5580  2.3679
 1264SOL    MW4 4790   1.275   3.034   3.484 -0.2375 -0.2923  0.5245
 1265SOL     OW 4791   4.355   5.839   0.460 -0.3715 -0.3016 -0.2140
 1265SOL    HW2 4792   4.337   5.907   0.524  0.0745  0.5924 -1.0045
 1265SOL    HW3 4793   4.310   5.762   0.493 -0.4028  0.2191  1.0047
 1265SOL    MW4 4794   4.347   5.838   0.473 -0.2214 -0.0732  0.1231
 1266SOL     OW 4795   1.562   5.652   5.040  0.0205 -0.3486  0.0245
 1266SOL    HW2 4796   1.564   5.679   4.949  1.3558  0.0612  0.1582
 1266SOL    HW3 4797   1.519   5.724   5.086 -1.7234 -1.0542 -0.4018
 1266SOL    MW4 4798   1.556   5.665   5.034 -0.8911  0.1054  0.4694
 1267SOL     OW 4799   2.129   0.956   3.791  0.0013  0.0982  0.1657
 1267SOL    HW2 4800   2.138   1.050   3.781 -0.8075  0.2182  0.5133
 1267SOL    HW3 4801   2.195   0.932   3.855  0.7499  0.3004 -0.5104
 1267SOL    MW4 4802   2.139   0.965   3.798  0.0295 -0.0645  0.0996
 1268SOL     OW 4803   4.625   5.239   3.699  0.6556  0.0946  0.3467
 1268SOL    HW2 4804   4.716   5.211   3.685  0.4084 -0.3461 -0.4433
 1268SOL    HW3 4805   4.574   5.158   3.698  0.2674  0.3255  0.9472
 1268SOL    MW4 4806   4.631   5.225   3.697 -0.3857 -0.4162  0.4486
 1269SOL     OW 4807   2.565   2.701   3.309  0.3651 -0.3384  0.0500
 1269SOL    HW2 4808   2.629   2.704   3.380 -1.3700  1.1838  1.6708
 1269SOL    HW3 4809   2.585   2.777   3.255 -0.1572  0.2453  0.6634
 1269SOL    MW4 4810   2.576   2.711   3.311 -0.9068  0.6398 -0.0762
 1270SOL     OW 4811   1.164   2.083   0.950 -0.8786  0.1658 -0.6241
 1270SOL    HW2 4812   1.117   2.167   0.942  0.4542  1.1740  1.3113
 1270SOL    HW3 4813   1.103   2.026   0.996 -2.0525 -0.1852 -2.5401
 1270SOL    MW4 4814   1.150   2.087   0.955  0.1040  0.1580  0.4575
 1271SOL     OW 4815   1.883   2.078   4.685 -1.0511  0.8212 -0.2565
 1271SOL    HW2 4816   1.800   2.072   4.732 -0.4058  0.4044  0.8870
 1271SOL    HW3 4817   1.934   2.142   4.735 -0.6614  1.0250 -0.9059
 1271SOL    MW4 4818   1.879   2.086   4.698 -0.0439 -0.1106 -0.2236
 1272SOL     OW 4819   6.360   0.969   0.587 -0.6372  0.0259 -0.3296
 1272SOL    HW2 4820   6.414   0.975   0.666 -0.3359 -1.3620 -0.4093
 1272SOL    HW3 4821   6.423   0.966   0.515 -0.8838  0.2530 -0.5575
 1272SOL    MW4 4822   6.376   0.969   0.588 -0.6004  0.2910 -0.1185
 1273SOL     OW 4823   5.570   3.627   4.928 -0.0803 -0.0595 -0.3003
 1273SOL    HW2 4824   5.520   3.547   4.942  1.4763 -1.0322 -0.0331
 1273SOL    HW3 4825   5.607   3.617   4.840 -0.8598  0.9559 -0.7644
 1273SOL    MW4 4826   5.568   3.615   4.918 -0.2292 -0.6805  0.0702
 1274SOL     OW 4827   4.073   6.332   1.803  0.0235  0.0484 -0.2069
 1274SOL    HW2 4828   4.069   6.392   1.878  0.4392 -0.1736  0.0027
 1274SOL    HW3 4829   4.002   6.270   1.818  0.6189 -0.4897  0.4486
 1274SOL    MW4 4830   4.063   6.332   1.815  0.3895 -1.1701 -0.0587
 1275SOL     OW 4831   0.815   3.212   3.910 -0.5838  0.1867  0.1600
 1275SOL    HW2 4832   0.759   3.143   3.946 -0.0674  0.0837  0.7835
 1275SOL    HW3 4833   0.856   3.173   3.833 -1.7101  0.4124 -0.5783
 1275SOL    MW4 4834   0.813   3.198   3.905  0.8946 -0.3943 -0.4569
 1276SOL     OW 4835   2.366   6.126   3.273  0.2723 -0.1431  0.0149
 1276SOL    HW2 4836   2.417   6.187   3.326 -1.3184 -0.0263  1.5348
 1276SOL    HW3 4837   2.325   6.180   3.206 -0.2894  0.3186  0.7074
 1276SOL    MW4 4838   2.367   6.141   3.271 -0.2751 -0.8364  0.0069
 1277SOL     OW 4839   1.327   4.880   5.841 -0.1929 -0.5183 -0.3673
 1277SOL    HW2 4840   1.342   4.879   5.936 -1.8572 -0.5575 -0.0840
 1277SOL    HW3 4841   1.389   4.815   5.807  0.6089 -0.3201  0.6514
 1277SOL    MW4 4842   1.337   4.871   5.849 -0.0502  0.2714  0.0924
 1278SOL     OW 4843   3.128   3.658   5.733  0.1001 -0.4929  0.2364
 1278SOL    HW2 4844   3.137   3.747   5.768 -0.0949 -1.3304  2.5528
 1278SOL    HW3 4845   3.082   3.671   5.650  0.0050  1.5633  0.5380
 1278SOL    MW4 4846   3.123   3.672   5.726  0.0607  0.2480  0.7542
 1279SOL     OW 4847   6.061   1.472   0.362 -0.0301 -0.5696  0.3797
 1279SOL    HW2 4848   6.145   1.438   0.394  0.3711  1.3439  1.4801
 1279SOL    HW3 4849   6.084   1.541   0.300 -0.7938 -0.5041  0.1537
 1279SOL    MW4 4850   6.075   1.476   0.358 -0.3952  0.1843  0.3570
 1280SOL     OW 4851   6.107   2.022   6.342 -0.0375 -0.0598  0.2681
 1280SOL    HW2 4852   6.064   1.949   6.388  0.8930 -0.9174 -0.1873
 1280SOL    HW3 4853   6.178   2.048   6.401  0.0139  0.0778  0.1455
 1280SOL    MW4 4854   6.111   2.016   6.356 -0.5838 -0.8241  0.1394
 1281SOL     OW 4855   2.206   3.595   3.382 -0.0697 -0.0252  0.4976
 1281SOL    HW2 4856   2.212   3.499   3.383 -2.1779 -0.2197 -0.5441
 1281SOL    HW3 4857   2.238   3.622   3.469  0.8496 -1.6246  0.6938
 1281SOL    MW4 4858   2.211   3.586   3.394 -0.3562  0.3522 -0.0563
 1282SOL     OW 4859   3.918   5.582   1.136 -0.1278 -0.2497  0.1079
 1282SOL    HW2 4860   3.869   5.621   1.064 -0.8870  1.3381  1.4144
 1282SOL    HW3 4861   3.978   5.652   1.165  1.0508 -1.2733  0.2367
 1282SOL    MW4 4862   3.920   5.597   1.131  0.0627  0.1659 -0.0236
 1283SOL     OW 4863   3.263   3.089   4.218  0.6030  0.5189 -0.2513
 1283SOL    HW2 4864   3.226   3.010   4.178  1.8020 -0.6595  0.8613
 1283SOL    HW3 4865   3.244   3.158   4.155 -0.6785 -0.5999 -1.1691
 1283SOL    MW4 4866   3.255   3.087   4.204 -0.6577 -0.2687  0.3591
 1284SOL     OW 4867   2.360   3.663   1.255 -0.0074 -0.2865 -0.0326
 1284SOL    HW2 4868   2.386   3.692   1.343 -1.3641 -1.3983  0.7682
 1284SOL    HW3 4869   2.413   3.584   1.240 -0.0978 -0.3454 -0.0376
 1284SOL    MW4 4870   2.371   3.656   1.265 -0.0908 -0.0108 -0.5276
 1285SOL     OW 4871   4.828   3.433   3.820  0.2108 -0.1461 -0.0881
 1285SOL    HW2 4872   4.734   3.416   3.811  0.3008 -0.7377  0.0368
 1285SOL    HW3 4873   4.868   3.346   3.821  0.7285  0.0886  0.1987
 1285SOL    MW4 4874   4.821   3.419   3.819 -0.5152  0.2279  0.2180
 1286SOL     OW 4875   3.065   5.146   0.857  0.2595  0.6900  0.4610
 1286SOL    HW2 4876   3.153   5.110   0.871 -0.2406 -0.7795  0.0299
 1286SOL    HW3 4877   3.080   5.236   0.829  1.5967  0.6885  1.0955
 1286SOL    MW4 4878   3.079   5.153   0.855 -0.3826 -0.2166  0.0470
 1287SOL     OW 4879   5.849   0.652   5.480  0.4116  0.0772  0.3254
 1287SOL    HW2 4880   5.810   0.625   5.563 -1.6137  0.5414 -0.4118
 1287SOL    HW3 4881   5.874   0.744   5.493  1.6492 -0.3309  0.9201
 1287SOL    MW4 4882   5.847   0.661   5.492 -0.2504  0.8753  0.6413
 1288SOL     OW 4883   1.583   4.984   3.246 -0.4716  0.2701 -0.2879
 1288SOL    HW2 4884   1.665   4.991   3.198  0.0179 -1.4938  0.2191
 1288SOL    HW3 4885   1.518   4.963   3.179 -0.3549  0.7926 -0.5698
 1288SOL    MW4 4886   1.585   4.982   3.231 -0.0972  0.1508 -0.2858
 1289SOL     OW 4887   2.445   5.634   5.818 -0.5353 -0.2324 -0.2321
 1289SOL    HW2 4888   2.505   5.700   5.783  0.2681 -1.2716 -0.8753
 1289SOL    HW3 4889   2.399   5.679   5.889  0.5389  0.7922 -0.1441
 1289SOL    MW4 4890   2.447   5.649   5.823 -0.9306 -0.2890  0.1155
 1290SOL     OW 4891   2.794   3.993   1.892 -0.6630  0.3904  0.0289
 1290SOL    HW2 4892   2.875   4.022   1.934  0.8957  0.4892 -2.7378
 1290SOL    HW3 4893   2.756   4.072   1.854 -1.7987  0.2604  0.8478
 1290SOL    MW4 4894   2.800   4.007   1.892  0.0483  0.4900  0.3407
 1291SOL     OW 4895   3.987   3.258   4.985  0.2895  0.5868  0.0839
 1291SOL    HW2 4896   4.049   3.291   5.050  0.8233  0.6202 -0.4343
 1291SOL    HW3 4897   3.929   3.331   4.968 -0.5805  0.2331  1.3677
 1291SOL    MW4 4898   3.988   3.272   4.991 -0.1177 -0.0391  0.2315
 1292SOL     OW 4899   6.421   0.087   4.372 -0.1233 -0.0821 -0.4013
 1292SOL    HW2 4900   6.367   0.070   4.294 -0.9356 -1.8654  0.4885
 1292SOL    HW3 4901   6.504   0.044   4.352  0.5603  1.5583 -1.2440
 1292SOL    MW4 4902   6.425   0.079   4.359 -0.0819 -0.3198  0.3481
 1293SOL     OW 4903   0.549   2.726   3.471  0.6470 -0.2471 -0.0890
 1293SOL    HW2 4904   0.529   2.633   3.456  0.6121 -0.3747  0.7147
 1293SOL    HW3 4905   0.510   2.771   3.397 -1.6991 -0.5930  0.8540
 1293SOL    MW4 4906   0.541   2.719   3.459 -0.4365 -0.2163  0.0949
 1294SOL     OW 4907   2.853   3.377   5.447  1.0864 -0.2585 -0.6230
 1294SOL    HW2 4908   2.846   3.328   5.529  0.5910  0.6240 -0.1318
 1294SOL    HW3 4909   2.926   3.437   5.462  1.0050 -0.1083 -0.8388
 1294SOL    MW4 4910   2.862   3.378   5.460  0.6081  0.1180 -0.6251
 1295SOL     OW 4911   1.740   1.819   1.016  0.3273 -0.2759 -0.6883
 1295SOL    HW2 4912   1.790   1.879   1.072  1.1181  0.2024 -1.8862
 1295SOL    HW3 4913   1.805   1.775   0.963 -0.2291 -2.3562  0.2562
 1295SOL    MW4 4914   1.755   1.821   1.017 -0.2710  0.6338 -0.3233
 1296SOL     OW 4915   5.573   3.284   0.372 -0.8119 -0.2199 -0.7125
 1296SOL    HW2 4916   5.565   3.379   0.361  1.3058  0.0839 -0.1061
 1296SOL    HW3 4917   5.501   3.260   0.430 -1.0545  1.0979 -0.4427
 1296SOL    MW4 4918   5.562   3.294   0.378 -0.3124  0.6240 -0.1154
 1297SOL     OW 4919   3.243   1.469   4.063 -0.8802  0.5800  0.1468
 1297SOL    HW2 4920   3.162   1.421   4.049 -1.1576  1.0281  0.2067
 1297SOL    HW3 4921   3.227   1.521   4.142 -0.0096 -0.4601  1.0457
 1297SOL    MW4 4922   3.231   1.469   4.071  0.1130  0.7053 -0.3791
 1298SOL     OW 4923   4.825   3.667   0.742  0.1479 -0.0550 -0.2652
 1298SOL    HW2 4924   4.776   3.670   0.824  0.6808 -1.7617  0.1471
 1298SOL    HW3 4925   4.893   3.733   0.752  0.3927 -0.4537  0.8056
 1298SOL    MW4 4926   4.828   3.676   0.754 -0.4235  0.3193 -0.0414
 1299SOL     OW 4927   0.751   0.082   2.367  0.8303  0.1815  0.0349
 1299SOL    HW2 4928   0.746   0.093   2.272  0.1519  1.5056  0.1957
 1299SOL    HW3 4929   0.667   0.042   2.391  2.1494 -3.0537 -0.2021
 1299SOL    MW4 4930   0.739   0.078   2.357  0.2454 -0.2082 -0.0176
 1300SOL     OW 4931   5.159   4.295   3.968  0.7665 -0.1842 -0.0413
 1300SOL    HW2 4932   5.078   4.315   4.013  0.1377 -2.8765  0.2292
 1300SOL    HW3 4933   5.153   4.342   3.885 -1.1293 -0.3592 -0.0537
 1300SOL    MW4 4934   5.148   4.304   3.963 -0.2300 -0.3959 -0.4165
 1301SOL     OW 4935   2.554   1.708   2.349  0.2060 -0.6246  0.2288
 1301SOL    HW2 4936   2.608   1.784   2.329  1.6103 -1.1134  1.9594
 1301SOL    HW3 4937   2.467   1.731   2.315  0.4139  2.0187  1.2740
 1301SOL    MW4 4938   2.550   1.721   2.342 -0.3823  0.2751  0.5046
 1302SOL     OW 4939   1.741   3.716   1.780  0.0045  0.1503 -0.1327
 1302SOL    HW2 4940   1.804   3.686   1.715  1.0795  0.7371  0.5980
 1302SOL    HW3 4941   1.732   3.810   1.763 -0.5219  0.1063 -0.1046
 1302SOL    MW4 4942   1.748   3.724   1.769 -0.3171  0.5164  0.4321
 1303SOL     OW 4943   2.741   3.800   3.950 -0.4476 -0.3498 -0.9233
 1303SOL    HW2 4944   2.814   3.860   3.931  0.0415 -0.8072 -0.5345
 1303SOL    HW3 4945   2.770   3.752   4.028 -0.4378 -1.7514 -1.7660
 1303SOL    MW4 4946   2.755   3.802   3.958  0.5077  0.6019  0.0998
 1304SOL     OW 4947   6.347   4.264   0.902 -0.3086 -0.1474 -0.0195
 1304SOL    HW2 4948   6.323   4.259   0.809  2.3567 -1.6695 -0.7273
 1304SOL    HW3 4949   6.340   4.174   0.933  3.1317 -0.5592 -0.0514
 1304SOL    MW4 4950   6.343   4.252   0.894  0.3437  0.1012 -0.0495
 1305SOL     OW 4951   4.023   1.915   3.457  0.3517  0.3337 -0.3067
 1305SOL    HW2 4952   3.998   1.906   3.549  0.6636 -2.5942 -0.4091
 1305SOL    HW3 4953   3.954   1.869   3.409  1.3063 -0.0808 -1.3293
 1305SOL    MW4 4954   4.011   1.908   3.463  0.4375  0.1028 -0.0559
 1306SOL     OW 4955   2.374   4.746   0.412 -0.4650 -0.4490 -0.5326
 1306SOL    HW2 4956   2.357   4.670   0.357 -1.8262  0.7179 -1.7861
 1306SOL    HW3 4957   2.292   4.794   0.414 -0.9980 -1.0775  3.7212
 1306SOL    MW4 4958   2.361   4.742   0.405 -0.1168  0.1741 -0.0818
 1307SOL     OW 4959   4.605   6.078   4.887 -0.3883  0.3233 -0.1210
 1307SOL    HW2 4960   4.563   6.100   4.804 -1.3839  2.3157  0.8404
 1307SOL    HW3 4961   4.691   6.120   4.882 -0.6713  0.9380  0.0601
 1307SOL    MW4 4962   4.611   6.086   4.875  0.3955 -0.5463 -0.3275
 1308SOL     OW 4963   2.583   5.121   2.718  0.2343  0.2157  0.6602
 1308SOL    HW2 4964   2.622   5.201   2.753 -0.1112  0.1281  1.2628
 1308SOL    HW3 4965   2.649   5.053   2.735  0.5920  0.3893  0.0129
 1308SOL    MW4 4966   2.597   5.122   2.725 -0.5797  0.2455 -0.3977
 1309SOL     OW 4967   1.936   4.693   0.374  0.2312  0.0512  0.2889
 1309SOL    HW2 4968   1.955   4.615   0.425 -0.3085 -0.2260  0.0805
 1309SOL    HW3 4969   1.945   4.665   0.283  2.6779  0.9173  0.1902
 1309SOL    MW4 4970   1.940   4.679   0.368 -0.3455 -0.2373  0.3667
 1310SOL     OW 4971   2.771   3.829   2.848  0.3036 -0.8464 -0.3449
 1310SOL    HW2 4972   2.805   3.746   2.816  1.3532 -0.8962  0.7990
 1310SOL    HW3 4973   2.838   3.861   2.908 -0.5820  0.2908  0.0906
 1310SOL    MW4 4974   2.784   3.822   2.852 -0.2684  0.2296 -0.0526
 1311SOL     OW 4975   1.669   2.779   6.146 -0.4291 -0.2008  0.0339
 1311SOL    HW2 4976   1.592   2.748   6.099 -2.6766  0.9331  2.6553
 1311SOL    HW3 4977   1.661   2.740   6.233  0.5442  1.9473  1.1653
 1311SOL    MW4 4978   1.658   2.770   6.152 -0.0415  0.3064 -0.2671
 1312SOL     OW 4979   4.814   5.311   5.530 -0.1010  0.3554 -0.2184
 1312SOL    HW2 4980   4.829   5.404   5.547  0.0379  0.3293 -0.2018
 1312SOL    HW3 4981   4.719   5.305   5.518 -0.4320  0.1194  2.1504
 1312SOL    MW4 4982   4.803   5.323   5.531  0.1298 -0.5363  0.2946
 1313SOL     OW 4983   5.378   5.991   6.298 -0.1584 -0.5513 -1.1468
 1313SOL    HW2 4984   5.292   6.028   6.318  0.2554 -0.2048  0.0828
 1313SOL    HW3 4985   5.416   5.971   6.383  1.5480  0.6210 -1.5686
 1313SOL    MW4 4986   5.372   5.993   6.312 -0.2756 -0.1008  0.2403
 1314SOL     OW 4987   0.403   3.192   5.321 -0.7223  0.0901  0.4321
 1314SOL    HW2 4988   0.436   3.219   5.406  1.3675  0.9908 -0.5944
 1314SOL    HW3 4989   0.321   3.146   5.340  0.8836 -1.9158  3.1232
 1314SOL    MW4 4990   0.396   3.190   5.334 -0.2608 -0.0911 -0.2531
 1315SOL     OW 4991   3.812   3.476   2.917 -0.3657 -0.1392 -0.4611
 1315SOL    HW2 4992   3.890   3.420   2.922  0.5364  1.1375  0.1661
 1315SOL    HW3 4993   3.845   3.564   2.900 -1.7588  0.2659 -1.3280
 1315SOL    MW4 4994   3.826   3.480   2.915 -0.2935  0.2291 -0.7745
 1316SOL     OW 4995   0.322   1.949   1.366  0.0336  0.1859  0.1098
 1316SOL    HW2 4996   0.370   1.875   1.404 -1.7299 -1.1115 -0.0766
 1316SOL    HW3 4997   0.284   1.993   1.442  0.9999  0.8730  0.2130
 1316SOL    MW4 4998   0.323   1.945   1.381  0.3344  0.2775 -0.6852
 1317SOL     OW 4999   2.704   5.063   6.124 -0.6266  0.5092 -0.3410
 1317SOL    HW2 5000   2.650   4.998   6.168 -2.3997  0.9323 -1.7473
 1317SOL    HW3 5001   2.642   5.113   6.071  0.9967  1.8940 -1.0229
 1317SOL    MW4 5002   2.689   5.061   6.123 -0.1576  0.3990  0.0780
 1318SOL     OW 5003   0.170   0.022   2.679 -0.0816  0.7826 -0.0723
 1318SOL    HW2 5004   0.199  -0.023   2.600  2.8218  0.0753  1.2775
 1318SOL    HW3 5005   0.075   0.005   2.682  0.5334 -4.1926 -0.4089
 1318SOL    MW4 5006   0.161   0.014   2.669 -0.1626  0.1978  0.0787
 1319SOL     OW 5007   0.188   0.995   4.385 -0.0735 -0.2314  0.1475
 1319SOL    HW2 5008   0.113   0.970   4.331  0.5956  1.8137 -1.8801
 1319SOL    HW3 5009   0.264   0.973   4.333  0.6281  1.0062  0.6037
 1319SOL    MW4 5010   0.188   0.989   4.371  0.0710 -0.2412  0.3756
 1320SOL     OW 5011   5.951   5.848   5.910 -0.1847 -0.3531  0.3500
 1320SOL    HW2 5012   6.022   5.843   5.973  0.6825 -0.7743 -0.6312
 1320SOL    HW3 5013   5.891   5.913   5.946  0.3237 -0.5251  1.5558
 1320SOL    MW4 5014   5.952   5.856   5.923 -0.0233 -0.4308 -0.3023
 1321SOL     OW 5015   3.618   5.252   5.851  0.1584  0.4140 -0.3227
 1321SOL    HW2 5016   3.707   5.285   5.841  1.0298 -1.6090  0.2969
 1321SOL    HW3 5017   3.604   5.248   5.946 -1.4645  2.7584 -0.3687
 1321SOL    MW4 5018   3.628   5.255   5.863 -0.1107 -0.0891  0.1519
 1322SOL     OW 5019   2.275   0.220   2.603  0.0076 -0.7183  0.2669
 1322SOL    HW2 5020   2.244   0.197   2.515 -1.0911 -0.2201  0.5120
 1322SOL    HW3 5021   2.205   0.193   2.661  0.0494  0.3584  0.8436
 1322SOL    MW4 5022   2.262   0.213   2.599  0.4034 -0.8528  0.0174
 1323SOL     OW 5023   0.749   4.555   2.488  0.0868  0.2944  0.3389
 1323SOL    HW2 5024   0.832   4.517   2.458  1.9062  1.5307  3.3165
 1323SOL    HW3 5025   0.713   4.597   2.410  2.7414  0.4809 -0.9027
 1323SOL    MW4 5026   0.755   4.556   2.474  0.2422 -0.0376 -0.0860
 1324SOL     OW 5027   0.174   3.269   6.388 -0.0764 -0.1587 -0.3548
 1324SOL    HW2 5028   0.238   3.240   6.454  0.3216  0.5693 -0.4170
 1324SOL    HW3 5029   0.095   3.287   6.439 -0.7287 -2.4333 -0.4370
 1324SOL    MW4 5030   0.172   3.267   6.404  0.1194 -0.5488  0.1290
 1325SOL     OW 5031   0.874   1.099   5.111 -0.1896 -0.2338 -0.2118
 1325SOL    HW2 5032   0.795   1.124   5.063 -1.1592 -1.2372  0.7975
 1325SOL    HW3 5033   0.864   1.140   5.197  0.3865 -0.3963 -0.0584
 1325SOL    MW4 5034   0.863   1.108   5.116  0.7062  0.6466  0.0718
 1326SOL     OW 5035   1.940   2.385   2.704 -0.4321  0.2242  0.1621
 1326SOL    HW2 5036   1.953   2.395   2.798 -0.9571 -0.6720  0.3424
 1326SOL    HW3 5037   1.845   2.384   2.692 -0.4516 -2.1371 -0.0399
 1326SOL    MW4 5038   1.929   2.386   2.715 -0.1762 -0.4504 -0.2619
 1327SOL     OW 5039   1.549   2.229   2.873 -0.3611 -0.2521 -0.2501
 1327SOL    HW2 5040   1.606   2.292   2.830  1.3279 -1.0526  0.7071
 1327SOL    HW3 5041   1.463   2.243   2.834  0.1653  1.9776 -0.7311
 1327SOL    MW4 5042   1.545   2.239   2.862  0.4911 -0.2093 -0.4966
 1328SOL     OW 5043   4.432   4.589   6.073  0.5719  0.0040  0.0806
 1328SOL    HW2 5044   4.524   4.579   6.096  0.4695 -0.1788  0.4231
 1328SOL    HW3 5045   4.386   4.594   6.157  0.1883 -0.6892 -0.0730
 1328SOL    MW4 5046   4.438   4.588   6.087 -0.2043  0.0436  0.1982
 1329SOL     OW 5047   4.132   4.507   2.758 -0.3768  0.2535 -0.0929
 1329SOL    HW2 5048   4.114   4.496   2.664  0.6145  1.0980 -0.4085
 1329SOL    HW3 5049   4.181   4.429   2.782  0.4926  0.6236 -0.6060
 1329SOL    MW4 5050   4.136   4.496   2.748 -0.5764 -0.1522 -0.4752
 1330SOL     OW 5051   3.941   2.907   5.543 -0.3935 -0.1508 -0.0336
 1330SOL    HW2 5052   3.965   2.989   5.501  0.3915 -0.0764  0.5308
 1330SOL    HW3 5053   3.871   2.871   5.489  0.5776 -0.0521 -1.4008
 1330SOL    MW4 5054   3.935   2.913   5.531 -1.0470  0.1042  0.6375
 1331SOL     OW 5055   1.454   4.896   6.079 -0.0536 -0.2955  0.0158
 1331SOL    HW2 5056   1.525   4.832   6.076 -0.8548 -1.2467  0.5317
 1331SOL    HW3 5057   1.456   4.931   6.168 -0.8723 -1.1003  0.3623
 1331SOL    MW4 5058   1.463   4.892   6.090  0.5403  0.1773  0.3097
 1332SOL     OW 5059   4.398   0.752   0.584 -0.0755 -0.0910 -0.3363
 1332SOL    HW2 5060   4.424   0.845   0.586 -0.3178 -0.0346  0.4614
 1332SOL    HW3 5061   4.479   0.704   0.602 -0.3758  0.0626  1.5610
 1332SOL    MW4 5062   4.412   0.758   0.586 -0.1904  0.1022 -0.5464
 1333SOL     OW 5063   2.974   1.065   1.337 -0.1249  0.3615  0.0201
 1333SOL    HW2 5064   2.928   1.149   1.333  0.3808  0.6722  0.6178
 1333SOL    HW3 5065   3.066   1.088   1.343  0.0577 -0.2527 -0.3062
 1333SOL    MW4 5066   2.980   1.079   1.337 -0.2706  0.2142 -0.2901
 1334SOL     OW 5067   5.001   0.897   3.473 -0.0719 -0.0353  0.7897
 1334SOL    HW2 5068   4.969   0.965   3.414 -0.3996 -0.6206  0.2840
 1334SOL    HW3 5069   4.995   0.816   3.423 -1.5923 -0.7567  2.0490
 1334SOL    MW4 5070   4.996   0.896   3.459  0.4478 -0.4475  0.2233
 1335SOL     OW 5071   1.724   4.120   5.259 -0.5531 -0.2292  0.3175
 1335SOL    HW2 5072   1.704   4.129   5.165  0.8620 -0.6202 -0.0480
 1335SOL    HW3 5073   1.670   4.046   5.287 -1.8840  0.6133  0.1216
 1335SOL    MW4 5074   1.714   4.111   5.250  0.2986 -0.5485  0.3755
 1336SOL     OW 5075   1.227   2.867   5.611 -0.0402  0.7957 -0.0196
 1336SOL    HW2 5076   1.189   2.879   5.698  0.3637 -0.6077  0.3648
 1336SOL    HW3 5077   1.192   2.940   5.560 -0.9253  1.1838  1.0956
 1336SOL    MW4 5078   1.217   2.878   5.616  0.4940  0.1694  0.1554
 1337SOL     OW 5079   3.176   3.210   1.257  0.0974  0.0142  0.3915
 1337SOL    HW2 5080   3.208   3.295   1.288 -0.1699  0.6067 -0.8970
 1337SOL    HW3 5081   3.120   3.231   1.182  0.1581 -1.3093 -0.0523
 1337SOL    MW4 5082   3.173   3.224   1.251 -0.4955 -0.2564 -0.0672
 1338SOL     OW 5083   5.211   6.183   4.323 -0.1564 -0.0148  0.4532
 1338SOL    HW2 5084   5.143   6.177   4.391 -0.9423 -1.8950 -0.4078
 1338SOL    HW3 5085   5.175   6.244   4.259 -0.0557  0.6497  1.0161
 1338SOL    MW4 5086   5.197   6.190   4.324 -0.1566 -0.2755  0.0471
 1339SOL     OW 5087   5.002   1.325   3.085  0.0881  0.3446  0.2283
 1339SOL    HW2 5088   5.059   1.384   3.035  1.4917  0.2894  1.6607
 1339SOL    HW3 5089   4.924   1.376   3.103  0.2843  0.9422 -0.5534
 1339SOL    MW4 5090   5.000   1.340   3.081  0.5715  0.7408  0.3887
 1340SOL     OW 5091   4.354   3.923   0.369  0.4313 -0.0285  0.8203
 1340SOL    HW2 5092   4.431   3.890   0.416 -0.2163  0.1618  2.0291
 1340SOL    HW3 5093   4.281   3.906   0.427 -0.2274  1.4218  0.4630
 1340SOL    MW4 5094   4.355   3.916   0.383  0.3960  0.5100  0.4549
 1341SOL     OW 5095   3.828   4.893   1.685 -0.3952  0.6660  0.1009
 1341SOL    HW2 5096   3.745   4.887   1.637 -0.6963 -0.3231  0.7162
 1341SOL    HW3 5097   3.868   4.973   1.653 -0.4528 -0.0974 -2.0476
 1341SOL    MW4 5098   3.822   4.903   1.674  0.2884  0.4409  0.2959
 1342SOL     OW 5099   1.233   3.412   5.459 -0.0836  0.0525  0.6782
 1342SOL    HW2 5100   1.302   3.379   5.401 -0.3588 -1.0456  0.9570
 1342SOL    HW3 5101   1.268   3.398   5.547 -0.1586  0.6265  0.8018
 1342SOL    MW4 5102   1.247   3.405   5.463 -0.2325  0.0688  0.5340
 1343SOL     OW 5103   4.797   6.238   2.723 -0.2057  0.2030  0.3942
 1343SOL    HW2 5104   4.716   6.242   2.671 -3.5476  0.5961  4.9831
 1343SOL    HW3 5105   4.807   6.145   2.745  1.5761 -0.0626 -1.3076
 1343SOL    MW4 5106   4.787   6.226   2.719  0.1560  0.1293  0.1644
 1344SOL     OW 5107   3.540   1.462   3.220 -0.3228  0.0684 -0.0243
 1344SOL    HW2 5108   3.574   1.379   3.185  1.2678  0.9312 -0.6537
 1344SOL    HW3 5109   3.586   1.529   3.169 -2.6786  1.3610 -0.5772
 1344SOL    MW4 5110   3.550   1.460   3.208 -0.3510 -0.2628  0.2938
 1345SOL     OW 5111   0.106   5.262   4.253 -0.1447  0.6278  0.0775
 1345SOL    HW2 5112   0.164   5.320   4.204  0.1507  0.4348  0.1940
 1345SOL    HW3 5113   0.065   5.207   4.186  2.1994 -1.4166  0.1811
 1345SOL    MW4 5114   0.108   5.262   4.238 -0.4457  0.1769  0.5749
 1346SOL     OW 5115   1.583   2.636   5.113 -0.6039  0.0504 -0.0906
 1346SOL    HW2 5116   1.634   2.591   5.181 -0.3859 -1.9501 -1.4918
 1346SOL    HW3 5117   1.599   2.586   5.033 -1.5289  1.8216 -1.4704
 1346SOL    MW4 5118   1.592   2.624   5.111 -0.2802  0.2104 -0.0031
 1347SOL     OW 5119   5.933   0.105   3.807  0.3536 -0.2386  0.4235
 1347SOL    HW2 5120   5.958   0.025   3.762 -0.0231  0.3858 -0.9597
 1347SOL    HW3 5121   5.952   0.175   3.744 -0.3352  0.6547  1.1755
 1347SOL    MW4 5122   5.939   0.104   3.793  0.0376 -0.4669 -0.4141
 1348SOL     OW 5123   0.646   3.778   5.972 -0.2591 -0.0897  0.0956
 1348SOL    HW2 5124   0.721   3.736   5.931 -0.1935  0.0919  0.0285
 1348SOL    HW3 5125   0.649   3.750   6.063 -1.4248 -1.9490 -0.3842
 1348SOL    MW4 5126   0.656   3.769   5.978  0.7625 -0.1565  0.2532
 1349SOL     OW 5127   3.956   1.398   0.368 -0.2213  0.1692  0.4122
 1349SOL    HW2 5128   4.044   1.413   0.335 -0.1187 -0.2128  0.5133
 1349SOL    HW3 5129   3.912   1.348   0.299  0.4621 -1.9781  1.4736
 1349SOL    MW4 5130   3.962   1.394   0.355  0.3302 -0.0395  0.3432
 1350SOL     OW 5131   2.532   3.122   4.305 -0.0710  0.2763 -0.5722
 1350SOL    HW2 5132   2.460   3.143   4.245 -0.5219 -0.3257 -0.2670
 1350SOL    HW3 5133   2.536   3.026   4.304 -1.0108  0.1594  1.3863
 1350SOL    MW4 5134   2.523   3.112   4.297 -0.2626 -0.6925  0.0657
 1351SOL     OW 5135   0.170   5.734   1.452 -0.0775  0.0324 -0.0383
 1351SOL    HW2 5136   0.143   5.697   1.367 -0.2389  1.4062 -0.6139
 1351SOL    HW3 5137   0.088   5.764   1.492  0.2065  1.1811 -0.2936
 1351SOL    MW4 5138   0.155   5.733   1.446 -0.0188 -0.2561 -0.1271
 1352SOL     OW 5139   2.884   6.122   1.441 -0.0269  0.3496 -0.1226
 1352SOL    HW2 5140   2.790   6.131   1.425 -0.0352  1.7527  0.5726
 1352SOL    HW3 5141   2.925   6.148   1.358 -0.2383 -1.5618 -0.8849
 1352SOL    MW4 5142   2.877   6.126   1.428  0.0562 -0.1667  0.2969
 1353SOL     OW 5143   3.797   4.170   5.629 -0.1510  0.0953  0.1122
 1353SOL    HW2 5144   3.798   4.265   5.614 -2.0761  0.4920  1.8721
 1353SOL    HW3 5145   3.885   4.141   5.607 -0.2830  1.7645 -3.3131
 1353SOL    MW4 5146   3.809   4.179   5.624  0.3242 -0.4202  0.0355
 1354SOL     OW 5147   6.375   5.435   1.381 -0.5293 -0.2955  0.3044
 1354SOL    HW2 5148   6.432   5.416   1.455  0.3875 -0.8727 -0.5153
 1354SOL    HW3 5149   6.419   5.506   1.334  0.2790 -1.6796 -1.1053
 1354SOL    MW4 5150   6.388   5.442   1.384  0.0430  0.4969  0.2383
 1355SOL     OW 5151   4.418   3.171   3.844  0.2559 -0.3800  0.7452
 1355SOL    HW2 5152   4.470   3.178   3.923  0.3281  1.2261  0.5932
 1355SOL    HW3 5153   4.344   3.116   3.868 -0.5934  1.3892  2.4541
 1355SOL    MW4 5154   4.415   3.165   3.857  0.4151  0.0853 -0.0620
 1356SOL     OW 5155   3.087   5.312   4.924 -0.1921 -0.1613  0.7816
 1356SOL    HW2 5156   3.156   5.257   4.886  0.1823 -1.2957  2.9716
 1356SOL    HW3 5157   3.100   5.306   5.018 -3.6173 -0.8893  1.3496
 1356SOL    MW4 5158   3.098   5.304   4.931  0.3711 -0.3967  0.4996
 1357SOL     OW 5159   0.087   3.814   4.589  0.1335  0.2294  0.1472
 1357SOL    HW2 5160   0.176   3.798   4.621  0.4522 -1.2853 -1.3306
 1357SOL    HW3 5161   0.098   3.885   4.525  0.4649 -0.5396 -0.6753
 1357SOL    MW4 5162   0.100   3.821   4.585  0.2038 -0.4019  0.4435
 1358SOL     OW 5163   3.591   1.402   4.668  0.8498 -0.0811  0.6099
 1358SOL    HW2 5164   3.539   1.403   4.749 -0.0482 -0.6550  0.0657
 1358SOL    HW3 5165   3.585   1.491   4.635  1.3215  0.1893  1.2284
 1358SOL    MW4 5166   3.583   1.414   4.675  0.7485  0.2461 -0.3981
 1359SOL     OW 5167   3.253   4.287   1.722  0.0794  0.9644  0.1676
 1359SOL    HW2 5168   3.168   4.302   1.763  0.4526  1.7578  0.6786
 1359SOL    HW3 5169   3.314   4.341   1.772  0.6904  1.3433 -0.9281
 1359SOL    MW4 5170   3.250   4.296   1.734  0.9385  0.0499 -0.0069
 1360SOL     OW 5171   5.794   2.730   0.590 -0.3939 -0.8652 -0.4044
 1360SOL    HW2 5172   5.709   2.772   0.601 -0.2764 -0.9055  0.8682
 1360SOL    HW3 5173   5.834   2.774   0.516 -0.7986  0.4075  0.1111
 1360SOL    MW4 5174   5.788   2.741   0.582 -0.5402  0.3024 -0.0179
 1361SOL     OW 5175   5.637   1.436   0.304  0.0927 -0.8862 -0.2715
 1361SOL    HW2 5176   5.623   1.425   0.398  1.1316  1.6772  0.2714
 1361SOL    HW3 5177   5.718   1.388   0.286  0.4590 -0.5386  0.3982
 1361SOL    MW4 5178   5.646   1.428   0.314 -0.9112 -0.1531 -0.0073
 1362SOL     OW 5179   3.273   3.569   5.235  0.1107  0.1739  0.2771
 1362SOL    HW2 5180   3.234   3.614   5.160  1.5115  1.5607  0.3436
 1362SOL    HW3 5181   3.342   3.628   5.266  0.3338 -0.8991  1.9445
 1362SOL    MW4 5182   3.277   3.583   5.229 -0.5617 -0.1955  0.2404
 1363SOL     OW 5183   1.109   3.987   3.489  0.1002  0.1259 -0.0885
 1363SOL    HW2 5184   1.094   4.080   3.508  0.2617  0.1386 -0.0197
 1363SOL    HW3 5185   1.060   3.941   3.557 -1.3703  0.1319 -1.1145
 1363SOL    MW4 5186   1.101   3.993   3.501 -0.0410  0.2153 -0.3051
 1364SOL     OW 5187   4.819   3.925   3.361 -0.7672 -0.3903 -0.2265
 1364SOL    HW2 5188   4.891   3.875   3.400 -1.1395  0.1254  1.1760
 1364SOL    HW3 5189   4.824   3.905   3.267  1.6189  0.1899 -0.2677
 1364SOL    MW4 5190   4.829   3.916   3.354  0.0080  0.1573 -0.4029
 1365SOL     OW 5191   2.174   4.072   3.534 -0.0520  0.6463  0.0208
 1365SOL    HW2 5192   2.243   4.049   3.472  1.8524  0.2756  2.1462
 1365SOL    HW3 5193   2.180   4.167   3.542 -1.1716  0.8549 -1.2554
 1365SOL    MW4 5194   2.184   4.081   3.527  0.4235  0.4546 -0.1622
 1366SOL     OW 5195   2.999   4.306   2.264 -0.2698 -0.1036  0.7875
 1366SOL    HW2 5196   3.049   4.329   2.185 -0.1210  0.6261  1.0823
 1366SOL    HW3 5197   3.060   4.256   2.318 -0.3690 -0.5967  0.4497
 1366SOL    MW4 5198   3.014   4.302   2.261 -0.4026 -0.6177 -0.5223
 1367SOL     OW 5199   4.795   4.554   4.245  0.3581  0.7600  0.3070
 1367SOL    HW2 5200   4.833   4.631   4.201  0.1701 -0.6048 -2.4901
 1367SOL    HW3 5201   4.721   4.529   4.189  0.5981 -1.6271  0.9490
 1367SOL    MW4 5202   4.790   4.561   4.231  0.0613 -0.4545 -0.0048
 1368SOL     OW 5203   4.140   5.965   2.469  0.2720  0.0668  0.4644
 1368SOL    HW2 5204   4.157   6.035   2.405 -0.9248  0.9406  1.0716
 1368SOL    HW3 5205   4.068   5.998   2.522 -1.4148 -2.2639 -0.2000
 1368SOL    MW4 5206   4.133   5.979   2.467  0.8967 -0.0852  0.6201
 1369SOL     OW 5207   3.521   2.233   5.382  0.2322  0.7447 -0.2643
 1369SOL    HW2 5208   3.605   2.189   5.388 -0.3139 -0.1416  2.1971
 1369SOL    HW3 5209   3.482   2.223   5.469 -2.4823  1.0145 -1.3371
 1369SOL    MW4 5210   3.527   2.226   5.395  0.4021  0.0857 -0.4123
 1370SOL     OW 5211   1.807   0.723   5.552 -0.1562  0.0746 -0.0046
 1370SOL    HW2 5212   1.852   0.674   5.484 -0.7868  1.2184 -1.3067
 1370SOL    HW3 5213   1.811   0.814   5.522 -1.0425  0.5234  1.1620
 1370SOL    MW4 5214   1.814   0.729   5.539 -0.0605  0.5042  0.2245
 1371SOL     OW 5215   3.853   0.544   6.194  0.2004 -0.4126 -0.2668
 1371SOL    HW2 5216   3.839   0.637   6.176  1.0996 -0.2279 -0.1074
 1371SOL    HW3 5217   3.773   0.501   6.165 -0.2997  0.4337 -0.1739
 1371SOL    MW4 5218   3.841   0.551   6.188  0.3830  0.0932  0.2770
 1372SOL     OW 5219   5.721   0.636   2.659  0.3615  0.0141 -0.4062
 1372SOL    HW2 5220   5.637   0.604   2.692 -0.5826  1.5070 -1.2266
 1372SOL    HW3 5221   5.781   0.626   2.733 -1.0334  0.7985  0.8872
 1372SOL    MW4 5222   5.717   0.630   2.673 -0.0724  0.1898 -0.1863
 1373SOL     OW 5223   3.241   0.644   5.080 -0.0838  0.0615 -0.2138
 1373SOL    HW2 5224   3.308   0.679   5.138  0.2760 -0.6067 -0.2152
 1373SOL    HW3 5225   3.207   0.567   5.126 -0.5268  0.1346 -0.4168
 1373SOL    MW4 5226   3.245   0.638   5.094  0.2150  0.3373  0.1159
 1374SOL     OW 5227   2.075   1.284   5.726 -0.0573  0.3606  0.0485
 1374SOL    HW2 5228   2.074   1.202   5.676 -1.5046 -0.6721  1.6293
 1374SOL    HW3 5229   2.124   1.262   5.806  1.1826  1.6270 -0.3229
 1374SOL    MW4 5230   2.081   1.270   5.730 -0.0321  0.2183 -0.3674
 1375SOL     OW 5231   0.420   4.142   2.116 -0.3034  0.1738 -0.4940
 1375SOL    HW2 5232   0.424   4.206   2.045  0.9698  2.2187  1.3040
 1375SOL    HW3 5233   0.342   4.090   2.096 -1.3097  2.1522 -2.1478
 1375SOL    MW4 5234   0.410   4.143   2.104 -0.0622  0.6735 -0.0503
 1376SOL     OW 5235   1.098   5.899   2.492  0.5524  0.1846  0.6559
 1376SOL    HW2 5236   1.181   5.947   2.491 -0.5116  2.2227  2.0981
 1376SOL    HW3 5237   1.097   5.854   2.576  0.8576 -1.1573 -0.0362
 1376SOL    MW4 5238   1.109   5.900   2.503  0.2865 -0.6396  0.0007
 1377SOL     OW 5239   5.476   5.978   0.623  0.6953 -0.0844 -0.1429
 1377SOL    HW2 5240   5.494   5.951   0.713  4.1713 -1.5566 -1.1037
 1377SOL    HW3 5241   5.562   6.002   0.588 -0.6270  1.0276 -2.9240
 1377SOL    MW4 5242   5.490   5.978   0.630  0.4120  0.2325 -0.6230
 1378SOL     OW 5243   3.883   5.468   4.818 -0.3361  0.0184 -0.4378
 1378SOL    HW2 5244   3.943   5.483   4.744  1.8346  2.9918  1.6712
 1378SOL    HW3 5245   3.819   5.539   4.812  1.2735  1.7954  1.6653
 1378SOL    MW4 5246   3.883   5.479   4.807  1.0141 -0.2213  0.0004
 1379SOL     OW 5247   6.191   0.331   4.508  0.0410  0.2287  0.1908
 1379SOL    HW2 5248   6.261   0.285   4.554 -0.2444  0.9248  1.3700
 1379SOL    HW3 5249   6.144   0.378   4.577  0.6864  2.7814 -0.9843
 1379SOL    MW4 5250   6.194   0.332   4.523  0.5506 -0.2186 -0.6141
 1380SOL     OW 5251   3.056   2.950   5.418  0.3137 -0.5006 -0.1766
 1380SOL    HW2 5252   3.068   3.016   5.486  1.3716 -1.7551  0.9421
 1380SOL    HW3 5253   3.137   2.899   5.421 -0.8555 -2.4664 -0.2560
 1380SOL    MW4 5254   3.068   2.952   5.427 -0.0261 -0.4546  0.3284
 1381SOL     OW 5255   1.982   3.372   2.915  0.1285  0.2350  0.0702
 1381SOL    HW2 5256   1.899   3.332   2.941  0.5517 -2.0732 -1.7880
 1381SOL    HW3 5257   1.989   3.353   2.822  1.8619  2.0781 -0.2316
 1381SOL    MW4 5258   1.972   3.364   2.906  0.0516  0.4824  0.2240
 1382SOL     OW 5259   1.845   1.808   4.938  0.3573  0.5513 -0.0820
 1382SOL    HW2 5260   1.772   1.746   4.940 -0.7863  1.8374  0.8889
 1382SOL    HW3 5261   1.918   1.760   4.900 -0.7804 -1.0362 -0.3318
 1382SOL    MW4 5262   1.845   1.794   4.934 -0.2228 -0.1814  0.7221
 1383SOL     OW 5263   5.121   4.503   0.417  0.5800 -0.3252 -0.0052
 1383SOL    HW2 5264   5.112   4.493   0.323 -0.2568 -0.2656  0.0610
 1383SOL    HW3 5265   5.199   4.557   0.428  0.4350  0.0252 -0.6732
 1383SOL    MW4 5266   5.130   4.508   0.406  0.0547 -0.2871 -0.3301
 1384SOL     OW 5267   4.705   0.063   3.611  0.4823 -0.2477 -0.2410
 1384SOL    HW2 5268   4.705   0.157   3.627 -1.8175  0.0070 -1.3543
 1384SOL    HW3 5269   4.613   0.039   3.603  0.9875 -2.6630  0.2574
 1384SOL    MW4 5270   4.693   0.072   3.612 -0.3273 -0.3761 -0.2825
 1385SOL     OW 5271   5.649   2.583   2.433 -0.2126 -0.3075 -0.2595
 1385SOL    HW2 5272   5.730   2.556   2.477 -0.9732  1.8812  2.8160
 1385SOL    HW3 5273   5.644   2.678   2.448 -2.9954 -0.2613 -0.9702
 1385SOL    MW4 5274   5.659   2.592   2.440  1.0195  0.1041  0.0160
 1386SOL     OW 5275   4.069   3.152   0.086  0.6240 -0.0201 -0.4646
 1386SOL    HW2 5276   4.006   3.080   0.094  2.9659 -2.1124  0.9272
 1386SOL    HW3 5277   4.029   3.225   0.133 -1.8516 -0.3080 -1.9301
 1386SOL    MW4 5278   4.056   3.152   0.093 -0.3478 -0.5744  0.9141
 1387SOL     OW 5279   3.890   3.552   2.345 -0.1310 -0.5039 -0.5576
 1387SOL    HW2 5280   3.960   3.557   2.411 -0.5220 -1.6588 -0.0179
 1387SOL    HW3 5281   3.877   3.458   2.332 -1.5835 -0.3128 -0.6284
 1387SOL    MW4 5282   3.898   3.540   2.352  0.0966  0.0614 -0.2275
 1388SOL     OW 5283   5.355   0.517   3.606  0.1426 -0.1745 -0.1164
 1388SOL    HW2 5284   5.352   0.454   3.534 -2.2422 -2.8241  2.0403
 1388SOL    HW3 5285   5.447   0.520   3.631  0.6674 -0.9530 -1.8038
 1388SOL    MW4 5286   5.366   0.509   3.600 -0.3843 -0.2837 -0.5064
 1389SOL     OW 5287   3.814   5.062   6.023 -0.6229 -0.2056 -0.0627
 1389SOL    HW2 5288   3.819   5.077   5.929 -0.6563  0.2628  0.0080
 1389SOL    HW3 5289   3.784   5.146   6.059  1.8924  0.4780  0.6313
 1389SOL    MW4 5290   3.811   5.075   6.015 -0.3875 -0.1269  0.6318
 1390SOL     OW 5291   0.764   4.303   5.225  0.1141 -0.2357 -0.0341
 1390SOL    HW2 5292   0.708   4.238   5.268 -0.6281  1.5788  1.9024
 1390SOL    HW3 5293   0.830   4.324   5.291  1.7809 -0.6576 -1.4766
 1390SOL    MW4 5294   0.765   4.297   5.240 -0.0551 -0.5564 -0.0764
 1391SOL     OW 5295   3.264   1.745   1.259 -0.1670  0.1121  0.0206
 1391SOL    HW2 5296   3.243   1.741   1.165  0.3720 -0.9863 -0.0664
 1391SOL    HW3 5297   3.274   1.654   1.285 -0.3599  0.4039  1.1734
 1391SOL    MW4 5298   3.262   1.733   1.250 -0.3054 -0.0704  0.3594
 1392SOL     OW 5299   4.938   5.199   3.697 -0.1182 -1.0329 -0.6164
 1392SOL    HW2 5300   4.950   5.250   3.617  0.3813 -2.4170 -1.4451
 1392SOL    HW3 5301   4.926   5.265   3.765  2.4497  0.2786 -1.3102
 1392SOL    MW4 5302   4.938   5.214   3.695  0.8907 -0.5609 -0.1050
 1393SOL     OW 5303   2.234   2.083   2.756  0.0733  0.3903  0.1723
 1393SOL    HW2 5304   2.311   2.048   2.711  0.1447 -0.5433  0.9880
 1393SOL    HW3 5305   2.165   2.084   2.690  0.3960 -0.1719 -0.1699
 1393SOL    MW4 5306   2.235   2.079   2.742  0.1186 -0.2363 -0.1817
 1394SOL     OW 5307   5.615   0.897   2.943 -0.6374 -0.3623  0.2901
 1394SOL    HW2 5308   5.693   0.864   2.988 -0.5115  0.8473  1.0058
 1394SOL    HW3 5309   5.612   0.990   2.965 -0.6993  0.2635 -2.0315
 1394SOL    MW4 5310   5.625   0.905   2.952  0.7782  0.0012 -0.0717
 1395SOL     OW 5311   0.561   3.552   4.659 -0.1657 -0.3109  0.0557
 1395SOL    HW2 5312   0.545   3.466   4.698 -0.5519 -0.0206  0.5365
 1395SOL    HW3 5313   0.568   3.534   4.565  0.7261 -1.0063  0.2341
 1395SOL    MW4 5314   0.560   3.538   4.652  0.0135  0.5773  0.0582
 1396SOL     OW 5315   2.110   3.128   2.289 -0.0804 -0.0144 -0.1415
 1396SOL    HW2 5316   2.200   3.151   2.311 -0.3981 -0.8419  2.4200
 1396SOL    HW3 5317   2.061   3.209   2.301 -0.3446 -0.5291  3.4025
 1396SOL    MW4 5318   2.115   3.142   2.294 -0.1151 -0.1309  0.3371
 1397SOL     OW 5319   1.108   1.432   1.718  0.0544  0.5148  0.8416
 1397SOL    HW2 5320   1.155   1.353   1.746 -0.8600  0.3241  1.9033
 1397SOL    HW3 5321   1.169   1.475   1.658  0.8503 -0.6377  0.7727
 1397SOL    MW4 5322   1.122   1.427   1.714  0.4839  0.2412 -0.4989
 1398SOL     OW 5323   3.769   1.233   5.175 -0.5689  0.1704  0.3594
 1398SOL    HW2 5324   3.759   1.149   5.219 -0.3500 -0.0141  0.0571
 1398SOL    HW3 5325   3.709   1.230   5.101 -0.7738  0.3951  0.5128
 1398SOL    MW4 5326   3.760   1.222   5.171  0.0547  0.1813 -0.3298
 1399SOL     OW 5327   5.969   5.380   0.200  0.1941  0.2023 -0.1431
 1399SOL    HW2 5328   5.940   5.471   0.197  0.1087  0.1704 -0.2999
 1399SOL    HW3 5329   5.972   5.358   0.293  2.2205  1.0069  0.0305
 1399SOL    MW4 5330   5.966   5.389   0.212 -0.2813 -0.3546  0.0870
 1400SOL     OW 5331   1.649   3.043   3.734  0.1637  0.2833 -0.2658
 1400SOL    HW2 5332   1.738   3.026   3.766  0.3652  2.1005  0.2411
 1400SOL    HW3 5333   1.661   3.066   3.642 -0.0218 -1.3001 -0.7212
 1400SOL    MW4 5334   1.662   3.043   3.726 -0.1327 -0.4198 -0.4146
 1401SOL     OW 5335   3.960   6.073   0.877  0.0128 -0.9720 -0.6098
 1401SOL    HW2 5336   3.870   6.066   0.909  0.5513 -2.9011  0.6470
 1401SOL    HW3 5337   4.006   6.122   0.946  0.1885 -1.0554 -0.6683
 1401SOL    MW4 5338   3.954   6.079   0.891 -0.1839 -0.0724  0.2918
 1402SOL     OW 5339   4.096   4.793   0.189  0.2992 -0.2087 -0.1620
 1402SOL    HW2 5340   4.117   4.702   0.167 -1.6937 -0.4427 -1.4021
 1402SOL    HW3 5341   4.083   4.835   0.104  0.5244  1.0762  0.4172
 1402SOL    MW4 5342   4.097   4.787   0.175  0.0393 -0.0003  0.1335
 1403SOL     OW 5343   3.735   0.924   1.163  0.5356  0.3834  0.5779
 1403SOL    HW2 5344   3.660   0.950   1.109 -0.8484 -0.0859  2.1856
 1403SOL    HW3 5345   3.807   0.913   1.101 -0.7165  0.8546 -1.0237
 1403SOL    MW4 5346   3.735   0.926   1.147  1.0467 -0.4182  0.2935
 1404SOL     OW 5347   6.210   0.260   0.352  0.4076  0.0055  0.4431
 1404SOL    HW2 5348   6.158   0.246   0.431  0.5098 -3.1955  0.0927
 1404SOL    HW3 5349   6.300   0.238   0.378  0.8655  1.2255 -0.0213
 1404SOL    MW4 5350   6.215   0.255   0.366  0.0552  0.2362 -0.2336
 1405SOL     OW 5351   1.162   0.974   6.146 -0.3347 -0.6194  0.0012
 1405SOL    HW2 5352   1.099   1.028   6.194  0.6059  0.0547  0.4938
 1405SOL    HW3 5353   1.124   0.886   6.149 -1.0318 -0.3114  0.6942
 1405SOL    MW4 5354   1.148   0.969   6.153  0.4282  0.2553  0.0641
 1406SOL     OW 5355   2.173   3.319   4.262  0.5723 -0.4229  0.1632
 1406SOL    HW2 5356   2.079   3.302   4.259  0.3786  0.3934  1.1319
 1406SOL    HW3 5357   2.184   3.403   4.217  0.5192  0.5984  1.9628
 1406SOL    MW4 5358   2.162   3.328   4.255 -0.4186 -0.4869 -0.4865
 1407SOL     OW 5359   5.153   2.622   4.190  0.1016 -0.5141  0.0943
 1407SOL    HW2 5360   5.197   2.537   4.184 -0.3453 -0.7995  0.6342
 1407SOL    HW3 5361   5.222   2.684   4.212  0.6054 -0.5525 -1.3022
 1407SOL    MW4 5362   5.168   2.619   4.192  0.0793 -0.2813  0.2139
 1408SOL     OW 5363   5.514   4.487   6.141 -0.2814 -0.6335 -0.2275
 1408SOL    HW2 5364   5.465   4.475   6.060 -0.0933  0.0446 -0.4500
 1408SOL    HW3 5365   5.574   4.559   6.122 -1.1905  0.4976  0.9321
 1408SOL    MW4 5366   5.515   4.495   6.128  0.0242  0.5428 -0.0481
 1409SOL     OW 5367   6.320   3.478   0.162  0.3027  0.1153  0.0364
 1409SOL    HW2 5368   6.321   3.384   0.142 -0.9979 -0.5023  2.5004
 1409SOL    HW3 5369   6.370   3.518   0.091  1.5110 -2.5124 -0.7161
 1409SOL    MW4 5370   6.327   3.471   0.150 -0.7826  0.1290 -0.4157
 1410SOL     OW 5371   0.658   2.295   5.096 -0.3817  0.4182  0.2134
 1410SOL    HW2 5372   0.681   2.285   5.188 -0.3510  3.1080  0.6025
 1410SOL    HW3 5373   0.566   2.270   5.091  0.1027 -1.5311  0.5570
 1410SOL    MW4 5374   0.649   2.291   5.107  0.1227 -0.4877 -0.7750
 1411SOL     OW 5375   5.212   1.284   4.672 -0.5237 -0.2458  0.0501
 1411SOL    HW2 5376   5.138   1.271   4.613  0.9041 -1.4230 -1.5809
 1411SOL    HW3 5377   5.204   1.215   4.737 -0.5080 -0.8007 -0.5264
 1411SOL    MW4 5378   5.201   1.273   4.673 -0.1250 -0.1807  0.0901
 1412SOL     OW 5379   2.630   1.108   0.125 -0.0896  0.4541 -0.0384
 1412SOL    HW2 5380   2.612   1.180   0.186  0.1990  1.1522 -0.7641
 1412SOL    HW3 5381   2.545   1.064   0.115 -0.1532  0.3576  0.8225
 1412SOL    MW4 5382   2.616   1.112   0.132  0.2952 -0.1145 -0.2372
 1413SOL     OW 5383   0.354   5.711   2.967  0.2007  0.0056  0.3723
 1413SOL    HW2 5384   0.262   5.696   2.943  0.1963 -0.3006  0.5714
 1413SOL    HW3 5385   0.380   5.787   2.915 -0.3037  0.3916  0.6716
 1413SOL    MW4 5386   0.345   5.719   2.957 -0.5278 -0.2362 -0.2662
 1414SOL     OW 5387   3.562   6.078   0.402 -0.4538 -0.0895 -0.2701
 1414SOL    HW2 5388   3.574   5.990   0.365 -1.1863  0.6002 -2.2951
 1414SOL    HW3 5389   3.638   6.127   0.372  0.0817 -0.0717  1.0689
 1414SOL    MW4 5390   3.573   6.073   0.393  0.3389 -0.1293 -0.0949
 1415SOL     OW 5391   1.781   6.290   3.572  0.2673  0.2376 -0.0642
 1415SOL    HW2 5392   1.690   6.270   3.594  0.1423  1.7070  0.8473
 1415SOL    HW3 5393   1.830   6.269   3.651  0.1826  2.9440  0.8123
 1415SOL    MW4 5394   1.775   6.285   3.585 -0.3674  0.1283 -0.3221
 1416SOL     OW 5395   2.369   3.381   2.107 -0.2646 -0.0053 -0.2102
 1416SOL    HW2 5396   2.375   3.291   2.075 -0.8690  0.2619 -1.0975
 1416SOL    HW3 5397   2.333   3.372   2.196 -1.0549 -0.6017 -0.5770
 1416SOL    MW4 5398   2.365   3.368   2.115 -0.1619 -0.4114 -0.0622
 1417SOL     OW 5399   1.701   3.632   0.270  0.6360  0.5696  0.4640
 1417SOL    HW2 5400   1.677   3.716   0.232  2.1387  2.5143  3.3758
 1417SOL    HW3 5401   1.781   3.606   0.223  0.8138  1.3889  0.3021
 1417SOL    MW4 5402   1.709   3.639   0.259  0.0018  0.5676  0.0001
 1418SOL     OW 5403   2.433   0.637   3.684  0.3997  0.0126 -0.0012
 1418SOL    HW2 5404   2.468   0.549   3.673  0.9345  0.3918 -1.7353
 1418SOL    HW3 5405   2.503   0.686   3.728 -0.4133 -0.6993  2.2211
 1418SOL    MW4 5406   2.447   0.632   3.688 -0.3574 -0.7614 -0.1001
 1419SOL     OW 5407   5.450   1.119   3.931  0.2682 -0.0274 -0.2526
 1419SOL    HW2 5408   5.371   1.151   3.974  0.4792  0.9575 -0.5807
 1419SOL    HW3 5409   5.427   1.030   3.903 -0.6380  0.1624 -0.1461
 1419SOL    MW4 5410   5.437   1.111   3.933 -0.1046 -0.5508 -0.1360
 1420SOL     OW 5411   0.014   6.320   1.890  0.2022  0.2089 -0.1004
 1420SOL    HW2 5412  -0.072   6.348   1.922  0.1034 -1.1972  0.9674
 1420SOL    HW3 5413  -0.003   6.236   1.848  0.8635  0.5324 -1.0372
 1420SOL    MW4 5414  -0.000   6.313   1.889  0.4828 -0.3156 -0.4268
 1421SOL     OW 5415   6.074   2.956   4.800  0.1434  0.4351 -0.1668
 1421SOL    HW2 5416   6.077   3.043   4.761 -1.6356  0.2808 -0.7243
 1421SOL    HW3 5417   6.165   2.925   4.796  0.4041  1.3268 -2.1199
 1421SOL    MW4 5418   6.087   2.963   4.794  0.4549 -0.2706 -0.2260
 1422SOL     OW 5419   4.198   5.286   4.623 -0.1726 -0.0732  0.2233
 1422SOL    HW2 5420   4.283   5.250   4.596  0.7485  1.6835  0.6163
 1422SOL    HW3 5421   4.137   5.258   4.555  1.0295 -0.0842 -0.8869
 1422SOL    MW4 5422   4.201   5.277   4.611 -0.3796  0.3292  0.2919
 1423SOL     OW 5423   4.243   2.768   1.686 -0.1960  0.1023  0.0017
 1423SOL    HW2 5424   4.178   2.819   1.734 -0.3199  0.5348 -0.6187
 1423SOL    HW3 5425   4.263   2.694   1.744 -2.3928 -0.9323 -0.4501
 1423SOL    MW4 5426   4.237   2.765   1.700  0.2838 -0.0529 -0.1749
 1424SOL     OW 5427   3.675   2.997   6.044  0.0464  0.2036  0.2993
 1424SOL    HW2 5428   3.712   3.021   5.960 -1.5325  0.4027 -0.3702
 1424SOL    HW3 5429   3.608   2.932   6.023 -1.1017  1.0266  1.2612
 1424SOL    MW4 5430   3.671   2.991   6.030 -0.1438  0.1747 -0.4475
 1425SOL     OW 5431   5.500   4.794   5.008 -0.3544  0.3976  0.2125
 1425SOL    HW2 5432   5.513   4.746   4.926 -0.4454  1.7265 -0.6065
 1425SOL    HW3 5433   5.422   4.753   5.047 -1.5322  1.0144 -1.3688
 1425SOL    MW4 5434   5.491   4.782   5.002 -0.6177 -0.3103  0.6186
 1426SOL     OW 5435   4.236   5.234   3.681 -0.1307  0.2491 -0.7322
 1426SOL    HW2 5436   4.302   5.165   3.679 -0.6678 -0.2856 -0.4317
 1426SOL    HW3 5437   4.243   5.277   3.596  0.8552  0.4458 -0.5573
 1426SOL    MW4 5438   4.245   5.230   3.669  0.1167 -0.3658  0.0412
 1427SOL     OW 5439   5.406   3.852   4.942 -0.4759  0.2606 -0.0951
 1427SOL    HW2 5440   5.435   3.932   4.899 -0.7753  0.1319 -0.5545
 1427SOL    HW3 5441   5.462   3.783   4.904  0.0417  0.2978  0.5792
 1427SOL    MW4 5442   5.417   3.853   4.931 -0.0912  0.1395  0.1296
 1428SOL     OW 5443   1.360   1.932   0.829  0.1238  0.0811  0.5089
 1428SOL    HW2 5444   1.369   1.888   0.913  0.1036  0.3244  0.6398
 1428SOL    HW3 5445   1.286   1.991   0.841 -1.5152 -1.6782 -0.4550
 1428SOL    MW4 5446   1.352   1.934   0.842  0.0876 -0.0926  0.0206
 1429SOL     OW 5447   2.256   3.551   5.729  0.0384  0.2827 -0.2101
 1429SOL    HW2 5448   2.205   3.528   5.806 -0.1977 -0.0287 -0.4563
 1429SOL    HW3 5449   2.261   3.470   5.678  0.5660  0.3717 -0.3087
 1429SOL    MW4 5450   2.250   3.537   5.732 -0.2782  0.5893 -0.0859
 1430SOL     OW 5451   3.351   4.192   0.699 -0.5214 -0.0009 -0.6732
 1430SOL    HW2 5452   3.357   4.284   0.674 -2.2812  0.3443  0.0194
 1430SOL    HW3 5453   3.325   4.147   0.618  2.6255 -0.3097 -1.6164
 1430SOL    MW4 5454   3.348   4.198   0.685  0.2092 -0.1305  0.0278
 1431SOL     OW 5455   5.318   5.290   0.927  0.2624  0.1347 -0.1380
 1431SOL    HW2 5456   5.382   5.235   0.974 -1.9528 -1.6022  1.0564
 1431SOL    HW3 5457   5.361   5.375   0.919  2.2252 -0.5783  1.7339
 1431SOL    MW4 5458   5.332   5.294   0.932 -0.4967 -0.3781  0.1069
 1432SOL     OW 5459   6.188   1.123   6.100  0.4905 -0.5604 -0.0604
 1432SOL    HW2 5460   6.165   1.210   6.068  0.2079 -0.6285 -0.0427
 1432SOL    HW3 5461   6.104   1.078   6.110  0.5943 -0.6439  0.4838
 1432SOL    MW4 5462   6.174   1.129   6.097  0.1996  0.4043 -0.2133
 1433SOL     OW 5463   4.199   6.141   5.048 -0.2294  0.0742 -0.8073
 1433SOL    HW2 5464   4.258   6.107   5.115  1.1391  1.1876 -1.4221
 1433SOL    HW3 5465   4.120   6.167   5.097  0.0134 -0.8316  0.1042
 1433SOL    MW4 5466   4.196   6.140   5.063 -0.3097  0.3856  0.2730
 1434SOL     OW 5467   5.631   4.616   2.116  0.0025  0.0862 -0.0194
 1434SOL    HW2 5468   5.651   4.690   2.174  0.1646 -0.3950  0.5396
 1434SOL    HW3 5469   5.625   4.541   2.174  2.6539 -0.8892 -0.8946
 1434SOL    MW4 5470   5.633   4.616   2.131  0.1824  0.4273 -0.6970
 1435SOL     OW 5471   3.757   0.551   0.968  0.2353 -0.0264  0.2122
 1435SOL    HW2 5472   3.676   0.601   0.955  0.4989  0.9422  1.9862
 1435SOL    HW3 5473   3.734   0.484   1.031  0.2309 -1.3627 -1.1522
 1435SOL    MW4 5474   3.743   0.549   0.974  0.3379 -0.3501 -0.0646
 1436SOL     OW 5475   2.464   3.923   3.451  0.0789  0.0221 -0.0024
 1436SOL    HW2 5476   2.486   4.015   3.463  0.8059 -0.1376 -0.0623
 1436SOL    HW3 5477   2.506   3.879   3.525  2.0846 -0.5987 -1.4053
 1436SOL    MW4 5478   2.473   3.929   3.462 -0.0674  0.0828 -0.5297
 1437SOL     OW 5479   4.542   2.037   4.004 -0.4371 -0.4148  0.1821
 1437SOL    HW2 5480   4.481   2.106   3.979  0.8532  0.8419  0.3823
 1437SOL    HW3 5481   4.540   1.976   3.931  0.1904  1.0794 -1.1488
 1437SOL    MW4 5482   4.534   2.038   3.991  0.1821 -0.3463  0.2719
 1438SOL     OW 5483   3.362   5.632   2.952  0.5478  0.0904 -0.5584
 1438SOL    HW2 5484   3.326   5.585   2.877 -1.4558  2.6919 -1.3925
 1438SOL    HW3 5485   3.314   5.715   2.953  3.2073  1.7645  1.2981
 1438SOL    MW4 5486   3.351   5.637   2.942  0.0976 -0.8988 -0.5086
 1439SOL     OW 5487   3.733   3.897   4.928  0.7753  0.0157 -0.7006
 1439SOL    HW2 5488   3.657   3.839   4.933  1.0444 -0.2580  0.8571
 1439SOL    HW3 5489   3.791   3.855   4.864 -0.5096  0.4277 -2.1871
 1439SOL    MW4 5490   3.731   3.884   4.920 -0.2553  0.2494  0.2712
 1440SOL     OW 5491   6.177   5.379   4.133 -0.4066 -0.4068 -0.6032
 1440SOL    HW2 5492   6.223   5.327   4.067  0.8409  0.4389 -0.4313
 1440SOL    HW3 5493   6.200   5.338   4.216  0.5098  0.3373 -0.4737
 1440SOL    MW4 5494   6.186   5.367   4.135 -0.0521 -0.0991 -0.1449
 1441SOL     OW 5495   4.812   1.412   5.611  0.0406  0.0640  0.1860
 1441SOL    HW2 5496   4.836   1.484   5.669 -0.2443  1.2446 -1.1119
 1441SOL    HW3 5497   4.836   1.443   5.524 -1.1731 -0.9389 -0.5293
 1441SOL    MW4 5498   4.819   1.425   5.607 -0.3207 -0.1831  0.2198
 1442SOL     OW 5499   3.580   0.081   3.307 -0.1167 -0.3091  0.8927
 1442SOL    HW2 5500   3.658   0.135   3.301 -0.3304 -0.1284 -0.3785
 1442SOL    HW3 5501   3.579   0.030   3.227 -0.7141 -1.1279  1.4011
 1442SOL    MW4 5502   3.590   0.081   3.296  0.1215 -0.1345  0.0299
 1443SOL     OW 5503   3.111   3.225   3.091 -0.0340 -0.3374  0.0425
 1443SOL    HW2 5504   3.059   3.178   3.157 -0.8775  1.8337  1.0227
 1443SOL    HW3 5505   3.179   3.269   3.141  1.1466 -1.0008 -0.9306
 1443SOL    MW4 5506   3.113   3.224   3.106  0.2138  0.1258  0.2258
 1444SOL     OW 5507   1.754   4.160   5.705  0.6092  0.0984  0.1028
 1444SOL    HW2 5508   1.824   4.218   5.734 -0.4941  0.0274  3.3746
 1444SOL    HW3 5509   1.780   4.073   5.735  0.3738 -0.4022 -1.1064
 1444SOL    MW4 5510   1.766   4.156   5.713 -0.0792 -0.2105  0.0296
 1445SOL     OW 5511   3.791   0.827   2.183 -0.5358  0.3633 -0.0282
 1445SOL    HW2 5512   3.843   0.784   2.252  0.9442  1.6536 -0.2862
 1445SOL    HW3 5513   3.740   0.756   2.144  1.2411 -1.0419  0.0693
 1445SOL    MW4 5514   3.791   0.812   2.187  0.4005  0.1584 -0.0924
 1446SOL     OW 5515   5.051   4.862   4.701 -0.6035  0.5311 -0.1275
 1446SOL    HW2 5516   5.051   4.916   4.779  1.3262 -0.1379  0.4010
 1446SOL    HW3 5517   5.053   4.772   4.734  0.7509  0.2462 -0.8885
 1446SOL    MW4 5518   5.051   4.857   4.716  0.9011 -0.0621  0.2017
 1447SOL     OW 5519   2.519   5.597   2.705 -0.6610  0.1087 -0.1976
 1447SOL    HW2 5520   2.516   5.589   2.800 -0.1856  2.3073  0.0571
 1447SOL    HW3 5521   2.434   5.563   2.676 -1.6840  1.3220  1.2110
 1447SOL    MW4 5522   2.507   5.591   2.714  0.3993  0.4401 -0.5298
 1448SOL     OW 5523   3.143   2.462   0.564 -0.4897  0.0584  0.3402
 1448SOL    HW2 5524   3.126   2.485   0.656 -0.4221 -1.0380  0.6489
 1448SOL    HW3 5525   3.229   2.498   0.546 -1.4206  2.2352 -0.0071
 1448SOL    MW4 5526   3.152   2.470   0.574 -0.3356 -0.2472 -0.5514
 1449SOL     OW 5527   1.820   0.404   3.508 -0.8877  0.4804  0.1535
 1449SOL    HW2 5528   1.781   0.319   3.531  0.5547 -0.6951 -1.4378
 1449SOL    HW3 5529   1.911   0.383   3.487 -0.2204  2.6241  0.6834
 1449SOL    MW4 5530   1.826   0.390   3.508  0.1527  0.3566  0.0796
 1450SOL     OW 5531   3.798   3.045   2.876  0.1498  0.1399 -0.2178
 1450SOL    HW2 5532   3.733   3.102   2.834 -0.4877  1.9574  2.9653
 1450SOL    HW3 5533   3.753   2.960   2.882 -0.5788  0.4360 -1.1865
 1450SOL    MW4 5534   3.783   3.041   2.871 -0.2073  0.4865  0.1535
 1451SOL     OW 5535   0.609   6.090   4.147  0.6537 -0.3637  0.4190
 1451SOL    HW2 5536   0.699   6.062   4.162  1.5208  2.6704  1.7698
 1451SOL    HW3 5537   0.604   6.106   4.053  1.3764 -0.9811  0.2705
 1451SOL    MW4 5538   0.620   6.089   4.137 -0.2861  0.2272  0.0783
 1452SOL     OW 5539   0.861   3.668   3.313  0.8584 -0.3137  0.1105
 1452SOL    HW2 5540   0.944   3.625   3.332  1.4431  0.3387 -0.8418
 1452SOL    HW3 5541   0.834   3.631   3.229 -0.0141 -0.8013  0.6017
 1452SOL    MW4 5542   0.869   3.657   3.304  0.6274  0.4815  0.3043
 1453SOL     OW 5543   4.308   5.731   5.105  0.7786 -0.7266  0.7880
 1453SOL    HW2 5544   4.388   5.782   5.100 -0.6165  1.7131  1.4461
 1453SOL    HW3 5545   4.276   5.727   5.014  0.6668 -0.0056  0.7947
 1453SOL    MW4 5546   4.314   5.737   5.092 -0.3295 -0.1739  0.0399
 1454SOL     OW 5547   2.782   2.437   4.477  0.9724 -0.4726 -0.0153
 1454SOL    HW2 5548   2.701   2.465   4.434  0.6290  0.7504  1.3418
 1454SOL    HW3 5549   2.771   2.343   4.489 -0.7263 -0.1855  1.0501
 1454SOL    MW4 5550   2.770   2.429   4.473  0.5070  0.2170  0.3951
 1455SOL     OW 5551   0.386   0.981   3.677  0.5244 -0.0041 -0.5809
 1455SOL    HW2 5552   0.398   0.967   3.771 -0.2694  1.6929 -0.1844
 1455SOL    HW3 5553   0.459   0.933   3.636  0.7526 -0.9602  0.8650
 1455SOL    MW4 5554   0.397   0.973   3.684 -0.0179 -0.0790 -0.3416
 1456SOL     OW 5555   0.094   4.584   4.947  0.3282  0.8811 -0.0958
 1456SOL    HW2 5556   0.151   4.567   4.873  0.1710  0.7775 -0.1931
 1456SOL    HW3 5557   0.152   4.582   5.023  0.7101  2.1925 -0.3148
 1456SOL    MW4 5558   0.109   4.582   4.948 -0.1524  0.4957  0.1445
 1457SOL     OW 5559   0.910   4.165   4.246 -0.3407  0.2725 -0.4114
 1457SOL    HW2 5560   0.916   4.166   4.150 -0.1341  1.4894 -0.4066
 1457SOL    HW3 5561   0.994   4.128   4.274  0.6671  2.2091 -0.6834
 1457SOL    MW4 5562   0.922   4.160   4.237 -0.0070  0.3013  0.0282
 1458SOL     OW 5563   2.020   5.483   0.297  0.2853 -0.3120  0.0614
 1458SOL    HW2 5564   2.019   5.396   0.257  0.0284  0.0971 -0.8513
 1458SOL    HW3 5565   1.999   5.542   0.225  0.5269  0.5139  0.6601
 1458SOL    MW4 5566   2.017   5.479   0.282 -0.0275 -0.0373 -0.1223
 1459SOL     OW 5567   2.546   5.334   3.184 -0.1449  0.8123 -0.0538
 1459SOL    HW2 5568   2.509   5.273   3.121  0.2426 -0.8559  1.2491
 1459SOL    HW3 5569   2.472   5.360   3.239 -0.2519  1.2613 -0.4105
 1459SOL    MW4 5570   2.531   5.329   3.183 -0.6157  0.0594 -0.2367
 1460SOL     OW 5571   4.329   2.286   1.945 -0.4025  0.5132  0.8357
 1460SOL    HW2 5572   4.249   2.266   1.898  0.1336  1.4389 -0.5214
 1460SOL    HW3 5573   4.393   2.222   1.914 -0.2135  0.7341  0.7601
 1460SOL    MW4 5574   4.327   2.275   1.935 -0.0685 -0.1371  0.1282
 1461SOL     OW 5575   2.155   0.706   4.815 -0.2654 -1.1242 -0.0618
 1461SOL    HW2 5576   2.126   0.695   4.725  2.6614 -0.6356 -1.1679
 1461SOL    HW3 5577   2.074   0.704   4.867 -2.2769  0.6631 -2.8566
 1461SOL    MW4 5578   2.140   0.704   4.810  0.3963  0.6577 -0.0019
 1462SOL     OW 5579   5.887   3.267   4.062 -0.5032  0.3458  0.1155
 1462SOL    HW2 5580   5.928   3.260   3.976 -0.8443 -0.2051 -0.0108
 1462SOL    HW3 5581   5.890   3.360   4.083  0.2561  0.3859 -0.1623
 1462SOL    MW4 5582   5.892   3.278   4.053 -0.0131 -0.3326  0.3296
 1463SOL     OW 5583   4.290   0.642   0.205  0.0100  0.3766 -0.3553
 1463SOL    HW2 5584   4.228   0.658   0.276  1.0645  1.1724  0.4220
 1463SOL    HW3 5585   4.272   0.711   0.141  1.1455  1.6685  0.6419
 1463SOL    MW4 5586   4.280   0.653   0.206  0.2516 -0.1695 -0.3768
 1464SOL     OW 5587   0.471   4.827   4.481 -0.3503  0.0996 -0.5783
 1464SOL    HW2 5588   0.410   4.844   4.410 -1.2196  0.2017  0.1758
 1464SOL    HW3 5589   0.539   4.893   4.471 -1.4860  1.3891 -0.1775
 1464SOL    MW4 5590   0.472   4.838   4.470  0.8817  0.0437 -0.2297
 1465SOL     OW 5591   1.461   4.730   3.330 -0.1397 -0.4206 -0.3409
 1465SOL    HW2 5592   1.485   4.823   3.326  0.0779 -0.4794 -0.4561
 1465SOL    HW3 5593   1.543   4.684   3.310  0.1721 -0.6800  1.3997
 1465SOL    MW4 5594   1.475   4.736   3.327 -0.2808  0.2435  0.1082
 1466SOL     OW 5595   1.109   1.298   0.345 -0.1075  1.0340  0.4086
 1466SOL    HW2 5596   1.018   1.284   0.317  0.7167  0.3694 -2.3277
 1466SOL    HW3 5597   1.119   1.243   0.422 -1.7082  0.0868 -0.0089
 1466SOL    MW4 5598   1.098   1.289   0.351  0.3951 -0.2152 -0.0518
 1467SOL     OW 5599   3.573   2.567   4.543 -0.5021 -1.0179 -0.1761
 1467SOL    HW2 5600   3.577   2.662   4.532  2.4733 -1.1654 -1.1174
 1467SOL    HW3 5601   3.580   2.553   4.637  1.5873 -0.3065 -0.1828
 1467SOL    MW4 5602   3.574   2.578   4.554  0.2631 -0.1840 -0.1680
 1468SOL     OW 5603   3.057   3.221   3.724  0.1596 -0.4925  0.2655
 1468SOL    HW2 5604   2.974   3.205   3.770 -0.0862 -1.6731 -0.5329
 1468SOL    HW3 5605   3.093   3.134   3.711  1.3684 -0.0025  0.2844
 1468SOL    MW4 5606   3.051   3.207   3.728  0.2947 -0.4326 -0.7395
 1469SOL     OW 5607   5.782   0.474   3.302  0.0985  0.4304  1.1996
 1469SOL    HW2 5608   5.722   0.546   3.280 -0.6582 -0.7188 -0.7755
 1469SOL    HW3 5609   5.864   0.518   3.323 -0.3393  1.9016  0.0659
 1469SOL    MW4 5610   5.785   0.490   3.302  0.0696  0.3458 -0.2225
 1470SOL     OW 5611   4.696   3.566   5.839 -0.5335 -0.6937 -0.5385
 1470SOL    HW2 5612   4.781   3.565   5.794 -0.4014  0.1399 -0.3261
 1470SOL    HW3 5613   4.662   3.654   5.823 -2.2691 -1.6064 -2.2747
 1470SOL    MW4 5614   4.703   3.578   5.831 -0.3538  0.4173  0.2704
 1471SOL     OW 5615   2.116   0.996   4.855  0.0883 -0.1933  0.3102
 1471SOL    HW2 5616   2.146   0.908   4.834  2.1787  0.2567  1.1923
 1471SOL    HW3 5617   2.042   1.011   4.796 -1.5964 -3.2070  1.4035
 1471SOL    MW4 5618   2.110   0.987   4.845 -0.4188 -0.8244  0.2906
 1472SOL     OW 5619   5.197   5.065   4.565 -0.0904 -0.2671  0.9339
 1472SOL    HW2 5620   5.168   5.142   4.613  1.7761 -1.1380  3.7348
 1472SOL    HW3 5621   5.146   4.993   4.603  1.6174 -1.0183  1.9314
 1472SOL    MW4 5622   5.186   5.065   4.577  0.3370  0.5093 -0.1344
 1473SOL     OW 5623   5.248   5.720   4.546 -0.1379  0.4529 -0.6148
 1473SOL    HW2 5624   5.303   5.647   4.574 -0.0425  0.4763 -0.7427
 1473SOL    HW3 5625   5.230   5.769   4.627 -0.4926  0.0911 -0.4749
 1473SOL    MW4 5626   5.253   5.717   4.560 -0.6390  0.5464 -0.3283
 1474SOL     OW 5627   5.225   0.273   2.993 -0.5741 -0.4261  0.3615
 1474SOL    HW2 5628   5.193   0.354   3.033  0.2277 -0.2009  0.5721
 1474SOL    HW3 5629   5.296   0.245   3.051  0.4749 -0.1980 -0.7812
 1474SOL    MW4 5630   5.230   0.280   3.006 -0.4095  0.1957 -0.4399
 1475SOL     OW 5631   3.880   3.050   4.018 -0.1194  0.0103  0.5135
 1475SOL    HW2 5632   3.864   3.064   3.925  2.4000 -0.6487 -0.1163
 1475SOL    HW3 5633   3.830   3.118   4.062 -2.6562 -0.6191 -1.1605
 1475SOL    MW4 5634   3.871   3.061   4.012  0.3147 -0.7607 -0.5698
 1476SOL     OW 5635   2.636   2.118   6.420 -0.0517 -0.0004 -0.0186
 1476SOL    HW2 5636   2.548   2.144   6.450  0.0303  0.4516 -0.1568
 1476SOL    HW3 5637   2.670   2.064   6.491  0.1030  0.9813  0.6689
 1476SOL    MW4 5638   2.629   2.114   6.433  0.0479 -0.5521 -0.2161
 1477SOL     OW 5639   5.052   1.491   1.449  0.1607 -0.3750  0.0095
 1477SOL    HW2 5640   5.037   1.438   1.370  1.0867 -0.3616 -0.1802
 1477SOL    HW3 5641   5.023   1.435   1.521  0.8285 -1.0212 -0.2165
 1477SOL    MW4 5642   5.046   1.477   1.448 -0.5858  0.1436  0.2202
 1478SOL     OW 5643   3.880   4.373   3.043 -0.9784  0.0456 -0.7657
 1478SOL    HW2 5644   3.848   4.315   3.113 -2.3188  0.1015 -1.2892
 1478SOL    HW3 5645   3.835   4.456   3.059  0.0186  0.5873 -0.7140
 1478SOL    MW4 5646   3.870   4.376   3.055  0.2821 -0.1949  0.3446
 1479SOL     OW 5647   4.067   6.131   0.270 -0.4617 -0.4746  0.1107
 1479SOL    HW2 5648   4.140   6.146   0.330  1.2381 -1.5022 -1.5813
 1479SOL    HW3 5649   4.085   6.188   0.195 -1.3064 -0.8805 -0.4223
 1479SOL    MW4 5650   4.079   6.141   0.268  0.6965 -0.0536 -0.4854
 1480SOL     OW 5651   3.377   4.745   1.768 -0.4058 -0.0977  0.5130
 1480SOL    HW2 5652   3.442   4.778   1.706 -1.0122 -0.7902 -0.5290
 1480SOL    HW3 5653   3.396   4.651   1.774 -2.2094 -0.6245 -1.0100
 1480SOL    MW4 5654   3.388   4.737   1.761  0.3361  0.0343 -0.0753
 1481SOL     OW 5655   4.083   2.659   5.824  0.2958 -0.0997 -0.4328
 1481SOL    HW2 5656   4.144   2.626   5.890  0.4545  0.5104 -0.2645
 1481SOL    HW3 5657   4.139   2.698   5.757  0.1112 -0.0373 -0.5507
 1481SOL    MW4 5658   4.098   2.660   5.824 -0.7334 -0.2807 -0.3995
 1482SOL     OW 5659   5.276   2.703   5.433 -0.1862  0.2536 -0.0507
 1482SOL    HW2 5660   5.241   2.622   5.468 -0.0481 -0.0045 -0.4964
 1482SOL    HW3 5661   5.199   2.754   5.409 -0.3641  1.3297  2.5333
 1482SOL    MW4 5662   5.261   2.699   5.434  0.1263  0.1810 -0.2057
 1483SOL     OW 5663   0.529   5.736   3.185  0.2763 -0.3666  0.4166
 1483SOL    HW2 5664   0.505   5.693   3.267 -0.3872  0.6240  0.7560
 1483SOL    HW3 5665   0.449   5.737   3.133  0.7045 -1.0389 -0.2915
 1483SOL    MW4 5666   0.515   5.731   3.189 -0.0512  0.5174 -0.4274
 1484SOL     OW 5667   1.698   4.171   4.993 -0.0609 -0.0540  0.0417
 1484SOL    HW2 5668   1.729   4.261   4.999 -0.7024  0.1430  0.4306
 1484SOL    HW3 5669   1.631   4.173   4.923  0.4245 -0.3741 -0.4414
 1484SOL    MW4 5670   1.693   4.183   4.984 -0.0742 -0.0010  0.4041
 1485SOL     OW 5671   5.292   2.385   4.151 -0.1370  0.5678  0.4055
 1485SOL    HW2 5672   5.261   2.371   4.061  2.1315 -0.0077 -0.3669
 1485SOL    HW3 5673   5.284   2.299   4.193  3.2808 -0.5416 -0.8472
 1485SOL    MW4 5674   5.287   2.372   4.144  0.3575  0.1247 -0.5285
 1486SOL     OW 5675   2.868   5.090   0.654 -0.7411 -0.1835  0.2859
 1486SOL    HW2 5676   2.872   5.006   0.698  1.1080 -1.1110 -1.4543
 1486SOL    HW3 5677   2.923   5.148   0.706 -1.4135 -0.2453  1.0774
 1486SOL    MW4 5678   2.876   5.087   0.666 -0.8172 -0.0133 -0.6145
 1487SOL     OW 5679   0.907   2.356   1.315 -0.1758  0.1486 -0.6080
 1487SOL    HW2 5680   0.998   2.332   1.295 -0.7539 -1.8286 -1.1534
 1487SOL    HW3 5681   0.899   2.343   1.409  0.3491  1.3135 -0.3868
 1487SOL    MW4 5682   0.918   2.351   1.324 -0.3552 -0.3352  0.1757
 1488SOL     OW 5683   1.238   1.003   5.515 -0.5738 -0.8628  0.0554
 1488SOL    HW2 5684   1.226   0.950   5.593 -0.7946 -1.6733 -0.5227
 1488SOL    HW3 5685   1.294   1.075   5.544 -1.2730 -0.7197  1.1455
 1488SOL    MW4 5686   1.243   1.006   5.529  0.4700 -0.2335  0.2238
 1489SOL     OW 5687   1.759   2.450   3.113 -0.6482 -0.1482 -0.4595
 1489SOL    HW2 5688   1.837   2.415   3.072 -1.7397 -1.7749 -1.2468
 1489SOL    HW3 5689   1.763   2.419   3.204 -1.4639 -2.2406 -1.0754
 1489SOL    MW4 5690   1.770   2.441   3.120  0.1326  0.2744 -0.4003
 1490SOL     OW 5691   4.228   3.305   1.775 -0.0297 -0.1944 -0.0207
 1490SOL    HW2 5692   4.255   3.306   1.684 -1.2871  0.2769 -0.4064
 1490SOL    HW3 5693   4.298   3.258   1.820  1.4884  1.0930 -0.9292
 1490SOL    MW4 5694   4.241   3.299   1.769 -0.3870  0.0934  0.1500
 1491SOL     OW 5695   3.140   2.140   4.472  0.0698 -0.1369 -0.1324
 1491SOL    HW2 5696   3.145   2.045   4.460  0.4884 -0.2028  0.4882
 1491SOL    HW3 5697   3.126   2.151   4.566  1.0789  0.4424 -0.0390
 1491SOL    MW4 5698   3.139   2.129   4.483 -0.3495 -1.0986  0.2518
 1492SOL     OW 5699   2.577   6.183   5.151  0.2860 -0.0183  0.6021
 1492SOL    HW2 5700   2.548   6.218   5.235 -0.2551  0.2226  0.3249
 1492SOL    HW3 5701   2.498   6.183   5.097  0.4254 -1.0260  0.3759
 1492SOL    MW4 5702   2.563   6.187   5.155  0.2269 -0.1353 -0.0617
 1493SOL     OW 5703   4.558   3.811   5.825  0.4906  0.8927 -0.2414
 1493SOL    HW2 5704   4.471   3.787   5.859  0.8069  1.8671  1.3564
 1493SOL    HW3 5705   4.604   3.848   5.901  2.3120  0.4092 -1.0637
 1493SOL    MW4 5706   4.552   3.813   5.840 -0.3121  0.1224 -0.5204
 1494SOL     OW 5707   5.786   2.451   5.271 -0.1654  0.2357 -0.2127
 1494SOL    HW2 5708   5.868   2.475   5.316  1.3333 -2.3519 -1.3557
 1494SOL    HW3 5709   5.730   2.418   5.340  1.5183 -2.2246  0.0958
 1494SOL    MW4 5710   5.790   2.450   5.286  0.0720  0.1799  0.2111
 1495SOL     OW 5711   5.528   5.076   3.711  0.7463 -0.2359 -0.1852
 1495SOL    HW2 5712   5.507   4.999   3.764  0.9833  0.9203  1.6822
 1495SOL    HW3 5713   5.546   5.145   3.775 -1.3924  1.9371 -1.7309
 1495SOL    MW4 5714   5.527   5.075   3.726 -0.1996 -0.0177 -0.7476
 1496SOL     OW 5715   3.175   5.635   1.778 -0.5773  0.1092 -0.1187
 1496SOL    HW2 5716   3.223   5.580   1.840 -1.4792  0.2038  0.6928
 1496SOL    HW3 5717   3.238   5.700   1.748  0.0046 -0.2525  0.3193
 1496SOL    MW4 5718   3.189   5.636   1.782 -0.0172  0.1440  0.0753
 1497SOL     OW 5719   0.206   0.683   1.094  0.4279  0.3372 -0.0689
 1497SOL    HW2 5720   0.112   0.698   1.100  0.1529 -1.1462 -0.4862
 1497SOL    HW3 5721   0.224   0.682   1.000  1.3180  3.0992 -0.0268
 1497SOL    MW4 5722   0.196   0.685   1.082 -0.9995 -0.1543 -0.3064
 1498SOL     OW 5723   4.665   4.332   1.326  0.2089  0.2803 -0.3277
 1498SOL    HW2 5724   4.595   4.309   1.387  1.3576 -0.5226  0.7350
 1498SOL    HW3 5725   4.726   4.383   1.378  0.0399  1.6866 -1.4633
 1498SOL    MW4 5726   4.663   4.335   1.341 -0.6259 -0.3530  0.4346
 1499SOL     OW 5727   2.182   0.848   1.198 -0.0706  0.2972 -0.7869
 1499SOL    HW2 5728   2.145   0.770   1.237 -0.1727  0.4808 -0.5126
 1499SOL    HW3 5729   2.242   0.882   1.264 -1.1973  1.3171 -0.2477
 1499SOL    MW4 5730   2.185   0.843   1.212  0.4451 -0.5054 -1.0046
 1500SOL     OW 5731   0.925   5.256   0.350 -0.2524  0.0277 -0.0981
 1500SOL    HW2 5732   0.903   5.284   0.261 -0.8219 -1.6038 -0.5215
 1500SOL    HW3 5733   1.006   5.302   0.371 -0.4886  0.9758 -1.1921
 1500SOL    MW4 5734   0.933   5.266   0.341 -0.3878  0.0522  0.3772
 1501SOL     OW 5735   1.283   6.276   3.520  0.3183 -0.6196  0.2435
 1501SOL    HW2 5736   1.205   6.273   3.577 -0.0835  0.9687 -0.1668
 1501SOL    HW3 5737   1.354   6.243   3.575 -0.2807 -0.1770  1.3163
 1501SOL    MW4 5738   1.282   6.272   3.535  0.2720  0.4958  0.2285
 1502SOL     OW 5739   0.807   4.190   1.942 -0.8358 -0.2041 -0.3101
 1502SOL    HW2 5740   0.795   4.153   1.855 -1.0371 -0.2088 -0.2805
 1502SOL    HW3 5741   0.768   4.125   2.001  0.0981 -0.6308 -0.1461
 1502SOL    MW4 5742   0.800   4.177   1.938  0.2054 -0.1664  0.0074
 1503SOL     OW 5743   2.292   2.139   2.403  0.1855  0.2602  0.0613
 1503SOL    HW2 5744   2.341   2.071   2.450 -0.1837  0.3231  0.5533
 1503SOL    HW3 5745   2.331   2.142   2.316  0.9540  0.1998  0.3940
 1503SOL    MW4 5746   2.304   2.131   2.398 -0.3297 -0.0071 -0.2883
 1504SOL     OW 5747   4.601   1.552   1.160  0.0371  0.1511 -0.1423
 1504SOL    HW2 5748   4.524   1.514   1.118  1.1320 -0.6384 -1.5280
 1504SOL    HW3 5749   4.623   1.627   1.105  0.0774  0.5605  0.4275
 1504SOL    MW4 5750   4.594   1.557   1.147  0.0752  0.0704 -0.0831
 1505SOL     OW 5751   4.348   5.911   2.050 -0.1608  0.2695 -0.1559
 1505SOL    HW2 5752   4.389   5.912   1.964 -0.1971 -1.7940 -0.2598
 1505SOL    HW3 5753   4.255   5.927   2.033 -0.1640 -0.1174 -0.5067
 1505SOL    MW4 5754   4.341   5.913   2.037  0.1969  0.1341 -0.1728
 1506SOL     OW 5755   2.906   3.955   5.050  0.0978  0.4886  0.7539
 1506SOL    HW2 5756   2.941   3.893   4.987  1.1186  1.4010  0.4019
 1506SOL    HW3 5757   2.976   3.968   5.113 -0.5516  0.3647  1.5166
 1506SOL    MW4 5758   2.920   3.949   5.050 -0.5235  0.3795 -0.1684
 1507SOL     OW 5759   0.498   0.329   6.385 -0.5405  0.8172  0.1157
 1507SOL    HW2 5760   0.543   0.245   6.384 -0.8401  0.6598 -0.3021
 1507SOL    HW3 5761   0.406   0.308   6.368 -0.5672  1.2512 -0.3285
 1507SOL    MW4 5762   0.492   0.315   6.382  0.1232  0.1304 -0.1704
 1508SOL     OW 5763   4.820   4.945   1.430 -0.1767  0.0792 -0.4558
 1508SOL    HW2 5764   4.911   4.917   1.420 -0.0057  0.8185 -1.1291
 1508SOL    HW3 5765   4.769   4.864   1.435  0.5693 -0.3446  0.4819
 1508SOL    MW4 5766   4.825   4.931   1.430 -0.0875 -0.0518 -0.4589
 1509SOL     OW 5767   3.169   3.133   2.284  0.1911  0.1784 -0.0128
 1509SOL    HW2 5768   3.218   3.200   2.236  1.1087  0.6180  1.4613
 1509SOL    HW3 5769   3.143   3.177   2.366  0.9129 -1.2905  1.0327
 1509SOL    MW4 5770   3.172   3.148   2.289 -0.0838  0.1521 -0.1543
 1510SOL     OW 5771   1.685   4.047   2.758  0.2398  0.1423 -0.3557
 1510SOL    HW2 5772   1.764   4.042   2.704  0.8773  2.1862  0.2964
 1510SOL    HW3 5773   1.620   3.997   2.710  1.4409 -0.0645 -1.8345
 1510SOL    MW4 5774   1.687   4.040   2.745  0.3261 -0.6007 -0.0465
 1511SOL     OW 5775   4.254   1.378   2.549 -0.0980  0.3612  0.2320
 1511SOL    HW2 5776   4.303   1.450   2.509 -0.6921  0.0871 -1.0265
 1511SOL    HW3 5777   4.312   1.346   2.619  1.2022  0.5247 -0.7273
 1511SOL    MW4 5778   4.268   1.384   2.553  0.5961 -0.3998  0.2579
 1512SOL     OW 5779   6.241   3.882   0.460  0.0698 -0.1161 -0.3801
 1512SOL    HW2 5780   6.307   3.950   0.449  0.9281 -1.0235 -0.8928
 1512SOL    HW3 5781   6.205   3.898   0.548  0.5493  0.7376 -0.3318
 1512SOL    MW4 5782   6.245   3.893   0.470  0.3484 -0.6906  0.7031
 1513SOL     OW 5783   1.325   0.919   6.385 -0.6631 -0.3967  0.1554
 1513SOL    HW2 5784   1.264   0.950   6.318 -0.3942  3.6687  1.5001
 1513SOL    HW3 5785   1.409   0.913   6.339 -0.9055  0.0809 -0.3696
 1513SOL    MW4 5786   1.328   0.922   6.370 -0.0929 -0.6234 -0.9786
 1514SOL     OW 5787   1.746   3.210   2.020 -0.1222  0.0582  0.2262
 1514SOL    HW2 5788   1.727   3.252   1.936 -0.2116  0.9918  0.6961
 1514SOL    HW3 5789   1.841   3.217   2.029 -0.1056 -0.0979  0.1786
 1514SOL    MW4 5790   1.756   3.216   2.010 -0.3321 -0.1930 -0.3539
 1515SOL     OW 5791   2.087   1.801   2.501 -0.6237 -0.2484 -0.1495
 1515SOL    HW2 5792   2.157   1.767   2.557  0.6563  0.2324 -1.3827
 1515SOL    HW3 5793   2.060   1.726   2.448  0.3783  0.0000 -1.0518
 1515SOL    MW4 5794   2.093   1.787   2.501 -0.1840 -0.5572  0.2079
 1516SOL     OW 5795   6.050   2.791   4.187  0.7607  0.3541  0.4088
 1516SOL    HW2 5796   6.137   2.829   4.172  1.5914 -0.8947  1.6776
 1516SOL    HW3 5797   6.016   2.838   4.263 -0.8997  2.6702 -1.6290
 1516SOL    MW4 5798   6.057   2.802   4.195 -0.2607  0.0674  0.3671
 1517SOL     OW 5799   5.506   1.270   2.354  0.3872 -0.7410 -0.0627
 1517SOL    HW2 5800   5.596   1.244   2.374  0.3571 -0.1981  0.8511
 1517SOL    HW3 5801   5.453   1.194   2.380  0.5145 -0.7311  0.2407
 1517SOL    MW4 5802   5.511   1.257   2.360 -0.6771 -0.0366 -0.7493
 1518SOL     OW 5803   5.395   0.518   1.925 -0.3199 -0.1348  0.2985
 1518SOL    HW2 5804   5.346   0.441   1.900 -0.2147  0.6020 -2.4308
 1518SOL    HW3 5805   5.328   0.586   1.938 -0.3810 -0.5173  2.2954
 1518SOL    MW4 5806   5.379   0.517   1.924  0.7295 -0.2197 -0.4081
 1519SOL     OW 5807   6.255   2.942   4.389  0.3393 -0.8270  0.6613
 1519SOL    HW2 5808   6.299   2.961   4.473  1.8613 -1.9945  0.1819
 1519SOL    HW3 5809   6.306   2.870   4.352 -1.6041 -1.7708 -0.3008
 1519SOL    MW4 5810   6.268   2.935   4.395  0.1075 -0.4061  0.2028
 1520SOL     OW 5811   1.268   5.620   5.774 -0.0045 -0.5670  0.1855
 1520SOL    HW2 5812   1.271   5.716   5.777  1.2304 -0.5569 -0.4356
 1520SOL    HW3 5813   1.351   5.593   5.813  1.9791 -1.1987 -3.9793
 1520SOL    MW4 5814   1.280   5.629   5.780 -0.4645  0.3347  0.1888
 1521SOL     OW 5815   4.808   1.033   4.067  0.5423 -0.1786 -0.0587
 1521SOL    HW2 5816   4.811   1.044   3.972  0.2871  0.8195  0.0449
 1521SOL    HW3 5817   4.779   0.942   4.079 -0.4078 -0.0089 -0.9317
 1521SOL    MW4 5818   4.805   1.022   4.056  0.5498 -0.2075 -0.4720
 1522SOL     OW 5819   6.042   5.655   2.250  0.5290 -0.3101 -0.1332
 1522SOL    HW2 5820   5.997   5.672   2.332  2.8017  1.1881  0.9125
 1522SOL    HW3 5821   6.024   5.732   2.196  0.6178 -0.4123 -0.3118
 1522SOL    MW4 5822   6.034   5.667   2.254 -0.2223  0.3732  0.5750
 1523SOL     OW 5823   1.026   5.686   2.962 -0.0699 -0.5948 -0.0247
 1523SOL    HW2 5824   1.115   5.660   2.987 -0.8194 -1.9514  1.3864
 1523SOL    HW3 5825   1.009   5.765   3.014  0.3599 -0.2393 -0.4182
 1523SOL    MW4 5826   1.036   5.693   2.972  0.0701 -0.2066 -0.2527
 1524SOL     OW 5827   2.739   2.022   1.710  0.3548  0.2107 -0.6550
 1524SOL    HW2 5828   2.702   2.020   1.622  0.8860  0.2413 -0.8865
 1524SOL    HW3 5829   2.723   1.935   1.745  0.2895  0.1443 -0.8486
 1524SOL    MW4 5830   2.732   2.010   1.703  0.7168 -0.4530 -0.2844
 1525SOL     OW 5831   2.826   3.232   0.454  0.3688  0.2294 -0.2652
 1525SOL    HW2 5832   2.788   3.242   0.542 -3.2124  0.0784 -1.6107
 1525SOL    HW3 5833   2.869   3.147   0.457  1.5673  0.8369  1.7003
 1525SOL    MW4 5834   2.826   3.222   0.466  0.1684 -0.1426  0.0441
 1526SOL     OW 5835   1.201   5.167   0.268  0.2950  0.3185  0.1426
 1526SOL    HW2 5836   1.135   5.148   0.202  0.6029  0.1128 -0.1079
 1526SOL    HW3 5837   1.256   5.235   0.229 -0.7473  1.7123  0.9930
 1526SOL    MW4 5838   1.200   5.174   0.254 -0.6897  0.4883  0.5082
 1527SOL     OW 5839   4.834   0.273   5.939  0.0876  0.0048 -0.0057
 1527SOL    HW2 5840   4.769   0.266   6.009 -0.0034  0.4625 -0.0394
 1527SOL    HW3 5841   4.818   0.359   5.900 -0.7545 -0.7955 -1.4961
 1527SOL    MW4 5842   4.823   0.284   5.943 -0.3876  0.4151  0.5780
 1528SOL     OW 5843   0.064   2.633   1.678  0.4192 -0.2455 -0.2425
 1528SOL    HW2 5844   0.054   2.562   1.615 -3.6266 -1.0060  0.9331
 1528SOL    HW3 5845   0.038   2.712   1.629  2.2648  0.0388 -0.8161
 1528SOL    MW4 5846   0.059   2.634   1.663 -0.1179 -0.1525 -0.1793
 1529SOL     OW 5847   4.777   1.613   4.854  0.1001  0.0253  0.0409
 1529SOL    HW2 5848   4.730   1.695   4.850  1.0558  0.6004  0.2846
 1529SOL    HW3 5849   4.841   1.624   4.924 -1.7072 -1.9888  2.1570
 1529SOL    MW4 5850   4.780   1.625   4.862  0.1761 -0.0532  0.4680
 1530SOL     OW 5851   5.489   5.147   1.217 -0.2099  0.2276  0.1573
 1530SOL    HW2 5852   5.508   5.167   1.308  0.6531 -0.1117  0.0700
 1530SOL    HW3 5853   5.492   5.051   1.212  0.3716  0.2596 -0.3359
 1530SOL    MW4 5854   5.492   5.137   1.228  0.2371 -0.4014  0.6369
 1531SOL     OW 5855   1.682   6.055   1.271 -0.1479  0.6514  0.0832
 1531SOL    HW2 5856   1.696   6.098   1.188  0.0441  1.2010  0.3977
 1531SOL    HW3 5857   1.607   5.997   1.256  0.8675 -0.4465 -0.8994
 1531SOL    MW4 5858   1.674   6.053   1.258 -0.3640  0.3073 -0.2604
 1532SOL     OW 5859   5.474   2.626   4.455  0.3112 -0.2869 -0.2221
 1532SOL    HW2 5860   5.526   2.673   4.520 -0.3498 -1.4118  1.1838
 1532SOL    HW3 5861   5.385   2.657   4.468  0.3357  0.4093 -1.4959
 1532SOL    MW4 5862   5.469   2.636   4.465 -0.3643 -0.6963  0.2143
 1533SOL     OW 5863   1.961   0.439   0.208  0.8890  0.0724  0.3846
 1533SOL    HW2 5864   1.997   0.352   0.222  1.1088  0.1565  0.3456
 1533SOL    HW3 5865   2.022   0.481   0.148  0.7664  0.2415  0.3765
 1533SOL    MW4 5866   1.974   0.433   0.202 -0.2254 -0.3702 -1.1345
 1534SOL     OW 5867   0.740   4.820   1.809 -0.4125  0.5080 -0.2307
 1534SOL    HW2 5868   0.671   4.804   1.873  0.2727  0.4992  0.5159
 1534SOL    HW3 5869   0.709   4.896   1.760 -1.3732 -0.0515 -0.5182
 1534SOL    MW4 5870   0.727   4.828   1.811 -0.2117  0.1648  0.1213
 1535SOL     OW 5871   1.299   4.825   2.404 -0.3777 -0.2242  0.5064
 1535SOL    HW2 5872   1.271   4.827   2.313  0.2450 -0.8621  0.2882
 1535SOL    HW3 5873   1.271   4.739   2.436 -2.0077  0.5894  1.4024
 1535SOL    MW4 5874   1.291   4.814   2.396 -0.3348 -0.0083 -0.3399
 1536SOL     OW 5875   4.000   4.107   1.199 -0.7289 -0.7826  0.3064
 1536SOL    HW2 5876   4.008   4.016   1.170 -1.7021 -0.9976  0.6673
 1536SOL    HW3 5877   4.083   4.147   1.175 -0.6757 -1.5048 -0.8145
 1536SOL    MW4 5878   4.012   4.100   1.192 -0.1855  0.6278  0.1621
 1537SOL     OW 5879   1.985   3.944   5.205 -0.2635 -0.1088  0.2080
 1537SOL    HW2 5880   1.931   3.864   5.197  0.4289 -0.4970 -0.7526
 1537SOL    HW3 5881   1.924   4.015   5.187 -0.4429 -0.5581 -1.0984
 1537SOL    MW4 5882   1.970   3.943   5.201 -0.4695  0.4922 -0.2285
 1538SOL     OW 5883   6.090   1.050   0.650 -0.3274  0.3169 -0.3564
 1538SOL    HW2 5884   6.174   1.029   0.610 -0.1397  0.7106 -0.1708
 1538SOL    HW3 5885   6.034   0.974   0.631 -0.5976  0.9695 -2.3235
 1538SOL    MW4 5886   6.093   1.037   0.643  0.0026 -0.0491 -0.0133
 1539SOL     OW 5887   3.904   5.663   3.266  0.6875  0.0395 -0.2878
 1539SOL    HW2 5888   3.830   5.611   3.298 -0.9944  3.4329  1.9364
 1539SOL    HW3 5889   3.976   5.639   3.324  0.0232 -0.0638  0.5213
 1539SOL    MW4 5890   3.903   5.653   3.278  0.0022 -0.9427 -0.3627
 1540SOL     OW 5891   0.537   5.188   3.229  0.2966  0.4473 -0.2127
 1540SOL    HW2 5892   0.571   5.118   3.284  2.7619 -0.5904 -2.8140
 1540SOL    HW3 5893   0.461   5.150   3.186  0.9435 -0.3082 -0.7362
 1540SOL    MW4 5894   0.532   5.174   3.230  0.6911  0.0766 -0.3269
 1541SOL     OW 5895   3.242   0.424   2.381  0.4746  1.0369 -0.4572
 1541SOL    HW2 5896   3.187   0.502   2.383 -0.9110  0.2015 -2.7449
 1541SOL    HW3 5897   3.186   0.355   2.346  2.1708 -0.5923 -0.1659
 1541SOL    MW4 5898   3.228   0.425   2.377  0.2184 -0.2772  0.8357
 1542SOL     OW 5899   5.250   0.764   5.973  0.3655  0.0790 -0.7902
 1542SOL    HW2 5900   5.210   0.791   6.056  0.6831 -1.5113 -0.0902
 1542SOL    HW3 5901   5.179   0.720   5.926  0.3261  0.5267 -1.1619
 1542SOL    MW4 5902   5.235   0.762   5.978  0.5493 -0.5213 -0.1828
 1543SOL     OW 5903   3.807   0.508   2.102  0.2520  0.1093 -0.7362
 1543SOL    HW2 5904   3.742   0.555   2.049  1.0334  3.4791  1.0159
 1543SOL    HW3 5905   3.761   0.487   2.183  0.0007 -2.0316 -1.3935
 1543SOL    MW4 5906   3.792   0.512   2.105 -0.5299 -0.2886 -0.4376
 1544SOL     OW 5907   0.228   4.758   0.605 -0.2716 -0.4401 -0.3310
 1544SOL    HW2 5908   0.313   4.739   0.644  1.0720  1.1130 -2.2810
 1544SOL    HW3 5909   0.165   4.723   0.667  1.7493 -0.6067  1.7686
 1544SOL    MW4 5910   0.231   4.751   0.618 -0.1943  0.2282 -0.4178
 1545SOL     OW 5911   5.038   3.119   1.876  0.2172  0.2213 -0.4866
 1545SOL    HW2 5912   4.952   3.091   1.845  0.5536 -0.7692 -0.5618
 1545SOL    HW3 5913   5.034   3.214   1.876 -0.4350  0.2145 -1.7566
 1545SOL    MW4 5914   5.026   3.128   1.872 -0.1080 -0.4576 -0.0193
 1546SOL     OW 5915   0.547   0.913   0.887  0.1605 -0.2847  0.0491
 1546SOL    HW2 5916   0.543   0.818   0.901  0.6032 -0.1710  1.0952
 1546SOL    HW3 5917   0.640   0.934   0.897  0.0884  0.2308 -0.3649
 1546SOL    MW4 5918   0.559   0.903   0.890 -0.9403  0.1897 -0.1792
 1547SOL     OW 5919   5.541   4.475   0.819 -0.1513  0.5556  0.0523
 1547SOL    HW2 5920   5.512   4.565   0.837 -1.5541 -0.0071  0.8436
 1547SOL    HW3 5921   5.468   4.436   0.771 -0.2306 -0.5940  1.0560
 1547SOL    MW4 5922   5.527   4.481   0.815  0.2165  0.1847 -0.3006
 1548SOL     OW 5923   4.156   3.047   2.594 -0.2500 -0.7531 -0.2161
 1548SOL    HW2 5924   4.226   3.061   2.530  1.2192 -0.5236  1.3519
 1548SOL    HW3 5925   4.199   3.001   2.666 -1.3497  0.7159  1.4638
 1548SOL    MW4 5926   4.171   3.043   2.595  0.2206  0.1427  0.2253
 1549SOL     OW 5927   4.320   3.984   1.481  0.0189  0.0033  0.3637
 1549SOL    HW2 5928   4.339   3.961   1.390 -0.2529 -0.1791  0.3529
 1549SOL    HW3 5929   4.375   3.925   1.533  0.9853  0.8327  0.3080
 1549SOL    MW4 5930   4.330   3.973   1.476  0.2218  0.2746  0.5379
 1550SOL     OW 5931   4.398   1.176   5.640 -0.0342 -0.6107  0.1232
 1550SOL    HW2 5932   4.452   1.228   5.700  0.9360 -0.3881 -0.9112
 1550SOL    HW3 5933   4.368   1.102   5.693 -1.6529  1.0837  1.7002
 1550SOL    MW4 5934   4.402   1.173   5.655 -0.2338 -0.4249 -0.0387
 1551SOL     OW 5935   0.659   0.066   0.665 -0.5076  0.4394  0.1745
 1551SOL    HW2 5936   0.633   0.029   0.581 -2.6599  0.4778  0.7703
 1551SOL    HW3 5937   0.670  -0.010   0.722  2.6814  0.2630 -0.4770
 1551SOL    MW4 5938   0.657   0.051   0.661 -0.0921 -0.2338  0.3248
 1552SOL     OW 5939   0.181   4.371   4.552  0.1142 -0.2975 -0.2757
 1552SOL    HW2 5940   0.219   4.438   4.609 -2.0558 -0.5374  1.5591
 1552SOL    HW3 5941   0.137   4.421   4.483 -0.2639  0.1163  0.2597
 1552SOL    MW4 5942   0.180   4.387   4.550 -0.2361 -0.1850  0.0856
 1553SOL     OW 5943   4.303   4.808   5.953 -0.4057 -0.1894 -0.4742
 1553SOL    HW2 5944   4.360   4.734   5.974 -0.5890 -0.3397 -0.5018
 1553SOL    HW3 5945   4.223   4.767   5.920 -1.2916 -0.0391  1.3998
 1553SOL    MW4 5946   4.300   4.793   5.951 -0.3857 -0.3939 -0.0413
 1554SOL     OW 5947   3.333   2.009   5.381  0.1201  0.6386 -0.2954
 1554SOL    HW2 5948   3.262   2.018   5.317  1.0269 -0.4639 -1.5183
 1554SOL    HW3 5949   3.398   2.074   5.354 -0.6635  2.1794  1.2709
 1554SOL    MW4 5950   3.332   2.019   5.369  0.3155 -0.3491 -0.4360
 1555SOL     OW 5951   5.725   2.955   1.953  0.2165 -0.4252 -0.3385
 1555SOL    HW2 5952   5.669   3.032   1.964 -0.6030 -1.1376  0.5969
 1555SOL    HW3 5953   5.734   2.919   2.041  1.4259 -0.8375 -0.6154
 1555SOL    MW4 5954   5.719   2.961   1.966 -0.6498  0.1574 -0.2015
 1556SOL     OW 5955   3.802   1.295   2.863  0.9951 -0.1735  0.4870
 1556SOL    HW2 5956   3.869   1.354   2.897  1.2567 -0.5083  0.5622
 1556SOL    HW3 5957   3.803   1.310   2.769  2.6690 -1.6711  0.2094
 1556SOL    MW4 5958   3.811   1.305   2.855  0.3600  0.4709 -0.0678
 1557SOL     OW 5959   4.123   4.238   3.073  0.0065 -0.2909 -0.5183
 1557SOL    HW2 5960   4.087   4.150   3.062  2.0881 -1.3363  0.4364
 1557SOL    HW3 5961   4.049   4.296   3.056 -1.3059 -2.1844 -1.7261
 1557SOL    MW4 5962   4.108   4.234   3.070 -0.6072 -0.5491  0.1539
 1558SOL     OW 5963   2.837   5.122   3.024 -0.4982 -0.6135  0.5600
 1558SOL    HW2 5964   2.844   5.060   2.952 -2.0792 -0.7047  0.4497
 1558SOL    HW3 5965   2.919   5.172   3.021 -0.5454 -0.5726 -1.3448
 1558SOL    MW4 5966   2.849   5.120   3.014  0.1677 -0.2039  0.0830
 1559SOL     OW 5967   5.408   5.558   0.854  0.4232  0.0815 -0.4140
 1559SOL    HW2 5968   5.454   5.622   0.909 -2.0986 -0.1125  2.1620
 1559SOL    HW3 5969   5.348   5.610   0.801  0.6951  0.0594 -0.7457
 1559SOL    MW4 5970   5.406   5.573   0.854  0.4716  0.3082  0.1902
 1560SOL     OW 5971   5.605   0.304   2.694  0.5451 -0.2628 -0.2272
 1560SOL    HW2 5972   5.617   0.356   2.614  0.6698 -0.1907 -0.1625
 1560SOL    HW3 5973   5.515   0.320   2.720  0.5808 -0.0842 -0.2124
 1560SOL    MW4 5974   5.595   0.313   2.686  0.0354  0.0133 -0.1122
 1561SOL     OW 5975   4.113   5.706   2.858 -0.3450  0.0234 -0.1664
 1561SOL    HW2 5976   4.176   5.719   2.788 -0.8249  2.9747 -0.1796
 1561SOL    HW3 5977   4.092   5.795   2.888 -4.4314 -0.7756 -0.1187
 1561SOL    MW4 5978   4.118   5.719   2.853 -0.3583 -0.4381  0.1209
 1562SOL     OW 5979   3.617   2.879   3.526  0.5094 -0.0385  0.3455
 1562SOL    HW2 5980   3.522   2.865   3.534  0.3234  1.5837  1.4367
 1562SOL    HW3 5981   3.653   2.842   3.606  0.9023 -1.2412 -0.3621
 1562SOL    MW4 5982   3.609   2.872   3.538  0.0575  0.0294  0.1542
 1563SOL     OW 5983   5.192   2.337   3.309  0.1372 -0.1136 -0.3595
 1563SOL    HW2 5984   5.124   2.321   3.374 -0.8715  0.5132 -1.2377
 1563SOL    HW3 5985   5.168   2.281   3.235 -0.4890  1.4720 -1.4011
 1563SOL    MW4 5986   5.180   2.328   3.307 -0.1195  0.2862  0.2997
 1564SOL     OW 5987   3.730   5.729   0.947  0.5359 -0.2496 -0.7328
 1564SOL    HW2 5988   3.738   5.711   0.854 -0.8969 -0.1911 -0.8792
 1564SOL    HW3 5989   3.726   5.824   0.953  0.7618 -0.2485 -0.6012
 1564SOL    MW4 5990   3.731   5.739   0.936  0.1973 -0.0404 -0.2193
 1565SOL     OW 5991   0.464   4.659   1.078  0.2121  0.3111 -0.3517
 1565SOL    HW2 5992   0.395   4.723   1.062 -1.2090 -1.3638 -1.3379
 1565SOL    HW3 5993   0.532   4.680   1.013 -0.4688  0.4998 -1.0131
 1565SOL    MW4 5994   0.464   4.670   1.067 -0.1836  0.0881 -0.2300
 1566SOL     OW 5995   3.486   3.719   5.282  0.7030  0.0664  0.4821
 1566SOL    HW2 5996   3.516   3.693   5.195 -0.2012  0.3548  0.0716
 1566SOL    HW3 5997   3.523   3.807   5.295 -0.9601  0.9869 -0.5764
 1566SOL    MW4 5998   3.495   3.727   5.272 -0.3478 -0.5893 -1.3645
 1567SOL     OW 5999   1.953   3.184   2.693  0.7040 -0.6171  0.1490
 1567SOL    HW2 6000   1.870   3.151   2.728  0.7478 -1.9637 -0.9472
 1567SOL    HW3 6001   1.929   3.220   2.607  1.1136 -0.2054  0.2056
 1567SOL    MW4 6002   1.939   3.185   2.686  0.0345 -0.4150 -0.1044
 1568SOL     OW 6003   5.380   4.621   0.306 -0.2903  0.3699 -0.0362
 1568SOL    HW2 6004   5.464   4.657   0.336 -1.2633  2.0901  0.8091
 1568SOL    HW3 6005   5.334   4.697   0.270 -1.2714 -0.6690 -1.0380
 1568SOL    MW4 6006   5.385   4.636   0.305  0.3867 -0.3091  0.4293
 1569SOL     OW 6007   2.512   1.724   0.063 -0.2039 -0.0809  0.2651
 1569SOL    HW2 6008   2.448   1.749  -0.003 -0.9635 -0.7380  0.7373
 1569SOL    HW3 6009   2.520   1.629   0.054  1.8508  0.1308 -0.8030
 1569SOL    MW4 6010   2.505   1.715   0.053 -0.8868 -0.0443 -0.1950
 1570SOL     OW 6011   3.679   3.988   2.174  0.0744 -0.1043 -0.0125
 1570SOL    HW2 6012   3.760   4.005   2.125  0.2578  3.0937  1.1844
 1570SOL    HW3 6013   3.610   3.989   2.107  0.8545 -2.2461 -0.9597
 1570SOL    MW4 6014   3.681   3.990   2.159  0.0830  0.0288  0.1660
 1571SOL     OW 6015   3.637   3.083   3.105  0.6675  0.5920  0.1324
 1571SOL    HW2 6016   3.651   3.002   3.154 -0.9433  0.6345  0.7244
 1571SOL    HW3 6017   3.691   3.074   3.027 -0.1505 -1.4562 -0.2637
 1571SOL    MW4 6018   3.646   3.072   3.101  0.1634 -0.0174 -0.3097
 1572SOL     OW 6019   4.615   3.676   1.207 -0.0809 -0.0686  0.3242
 1572SOL    HW2 6020   4.611   3.703   1.115  1.0445  1.2325  0.6403
 1572SOL    HW3 6021   4.691   3.619   1.211 -0.4732 -0.6011  0.3520
 1572SOL    MW4 6022   4.624   3.672   1.195 -0.1000  0.2536 -0.1309
 1573SOL     OW 6023   6.192   0.407   6.280 -0.7758 -0.3692 -0.0661
 1573SOL    HW2 6024   6.225   0.366   6.200  0.5599 -0.4697  0.5125
 1573SOL    HW3 6025   6.235   0.359   6.351 -1.7431 -0.1162  0.7230
 1573SOL    MW4 6026   6.202   0.395   6.279 -0.7057  0.3786  0.1895
 1574SOL     OW 6027   2.289   1.611   5.223 -0.5663  0.4894  0.0147
 1574SOL    HW2 6028   2.245   1.630   5.140  1.3984  1.1699 -0.9624
 1574SOL    HW3 6029   2.330   1.695   5.247  0.2332 -0.1084  0.7973
 1574SOL    MW4 6030   2.289   1.625   5.215 -0.4534  0.2684  0.0364
 1575SOL     OW 6031   2.636   3.933   0.737 -0.0971 -0.5048  0.2098
 1575SOL    HW2 6032   2.704   3.998   0.753  1.2822 -1.5881 -0.9370
 1575SOL    HW3 6033   2.684   3.855   0.708 -1.7649 -1.6703  0.4477
 1575SOL    MW4 6034   2.651   3.931   0.735 -0.1577 -0.1487 -0.3183
 1576SOL     OW 6035   4.026   5.092   2.386  0.1582  0.2338  0.2232
 1576SOL    HW2 6036   4.085   5.166   2.372 -0.4801  0.9820  1.3057
 1576SOL    HW3 6037   3.953   5.107   2.326 -0.0624  0.5954  0.5783
 1576SOL    MW4 6038   4.024   5.104   2.376 -0.0615  0.8407 -0.5621
 1577SOL     OW 6039   4.193   0.305   4.880  0.6681  0.2281 -0.1988
 1577SOL    HW2 6040   4.233   0.220   4.900 -0.0204  0.0817  0.6329
 1577SOL    HW3 6041   4.259   0.351   4.828  1.0592 -0.8000 -0.6417
 1577SOL    MW4 6042   4.207   0.300   4.876 -0.2534 -0.3081 -0.3826
 1578SOL     OW 6043   4.413   5.844   6.057  0.0599  0.5133 -0.3149
 1578SOL    HW2 6044   4.416   5.892   5.974 -0.5437  2.3550  0.6847
 1578SOL    HW3 6045   4.348   5.891   6.110  1.1856  0.0282  1.5951
 1578SOL    MW4 6046   4.404   5.857   6.053 -0.0589  0.1920  0.7031
 1579SOL     OW 6047   4.327   2.507   1.767 -0.6487  0.1994  0.3309
 1579SOL    HW2 6048   4.351   2.426   1.811 -0.4625 -0.3951 -0.8171
 1579SOL    HW3 6049   4.231   2.506   1.764 -0.7375  0.9279  1.9166
 1579SOL    MW4 6050   4.317   2.496   1.772  0.1349  0.5495  0.0882
 1580SOL     OW 6051   0.459   0.351   0.462 -0.6458  0.2114  0.0954
 1580SOL    HW2 6052   0.452   0.446   0.465  2.5435  0.6756 -1.9172
 1580SOL    HW3 6053   0.502   0.327   0.544 -2.0757  0.3753  0.9128
 1580SOL    MW4 6054   0.464   0.360   0.473 -0.3941 -0.4740 -0.2808
 1581SOL     OW 6055   4.147   5.053   5.235 -0.3276  0.3821  0.7356
 1581SOL    HW2 6056   4.123   5.103   5.158  0.4627  0.0713  0.2787
 1581SOL    HW3 6057   4.121   4.963   5.215 -0.5288  0.3762  1.0124
 1581SOL    MW4 6058   4.140   5.047   5.222  0.1145 -0.0555 -0.2988
 1582SOL     OW 6059   1.289   0.515   6.022  0.2407  0.6806  0.5081
 1582SOL    HW2 6060   1.278   0.508   6.116  0.2311 -1.3963  0.4059
 1582SOL    HW3 6061   1.375   0.556   6.011  1.2678 -1.0910  1.4747
 1582SOL    MW4 6062   1.299   0.519   6.033 -0.5380 -0.3181  0.3302
 1583SOL     OW 6063   5.924   3.013   5.567 -0.2057  0.1667 -0.4131
 1583SOL    HW2 6064   5.845   3.063   5.545  0.5124  1.7226  0.3497
 1583SOL    HW3 6065   5.891   2.937   5.615 -1.2233  1.5915  1.3085
 1583SOL    MW4 6066   5.909   3.010   5.571 -0.3019  0.2639 -0.7518
 1584SOL     OW 6067   5.086   0.255   3.924  0.1362 -0.4263  0.1192
 1584SOL    HW2 6068   5.100   0.349   3.914  0.7624 -0.5036  0.1897
 1584SOL    HW3 6069   5.140   0.230   4.000 -1.5792 -0.5059  1.3599
 1584SOL    MW4 6070   5.095   0.264   3.933  0.4755  0.5135 -0.3540
 1585SOL     OW 6071   2.780   2.105   5.222  0.0405 -0.1860  0.3550
 1585SOL    HW2 6072   2.813   2.077   5.307 -0.2690 -0.0829  0.5117
 1585SOL    HW3 6073   2.690   2.131   5.239  0.2535  0.6982  0.1780
 1585SOL    MW4 6074   2.773   2.105   5.235  0.4413  0.0652  0.1943
 1586SOL     OW 6075   0.036   1.747   1.620 -0.1460 -0.5165 -0.1752
 1586SOL    HW2 6076   0.027   1.686   1.693  0.0587 -0.0309  0.2558
 1586SOL    HW3 6077   0.011   1.832   1.656  4.0106  0.6114  0.5867
 1586SOL    MW4 6078   0.031   1.750   1.634 -0.6517  0.1107  0.1044
 1587SOL     OW 6079   6.247   5.717   3.462 -0.3336  0.3801  0.0741
 1587SOL    HW2 6080   6.271   5.807   3.483 -0.1482  0.6883 -1.3259
 1587SOL    HW3 6081   6.152   5.719   3.452 -0.3255  0.4379  0.0064
 1587SOL    MW4 6082   6.238   5.729   3.464 -0.3337 -0.4993  0.1112
 1588SOL     OW 6083   2.889   2.520   1.838 -0.3022  0.1953  0.1814
 1588SOL    HW2 6084   2.938   2.600   1.816  0.0057 -0.2914 -0.9944
 1588SOL    HW3 6085   2.955   2.451   1.839 -0.7042 -0.1923  0.3087
 1588SOL    MW4 6086   2.904   2.521   1.835 -0.1084  0.1903 -0.0498
 1589SOL     OW 6087   5.478   3.356   1.782  0.4650  0.3701 -0.2628
 1589SOL    HW2 6088   5.486   3.302   1.860 -0.2422 -0.5837 -0.8209
 1589SOL    HW3 6089   5.483   3.293   1.709  0.4496  1.1566 -0.9572
 1589SOL    MW4 6090   5.480   3.340   1.783 -0.0241 -0.0922 -0.1597
 1590SOL     OW 6091   5.358   0.954   4.532 -0.3564  0.3213 -0.2224
 1590SOL    HW2 6092   5.400   1.030   4.572 -2.0438  0.1348  2.1355
 1590SOL    HW3 6093   5.398   0.879   4.576 -0.4092 -0.0427 -0.7830
 1590SOL    MW4 6094   5.369   0.954   4.543 -0.0361 -0.0762  0.1460
 1591SOL     OW 6095   4.636   4.210   6.047 -0.1661  0.9180 -0.3397
 1591SOL    HW2 6096   4.563   4.178   5.995  0.3230  0.4155 -0.7201
 1591SOL    HW3 6097   4.660   4.136   6.104  0.2578  0.9638 -0.4517
 1591SOL    MW4 6098   4.630   4.196   6.048 -0.4741 -0.3316 -0.2499
 1592SOL     OW 6099   0.421   1.779   5.128  0.2484 -0.5421 -0.0668
 1592SOL    HW2 6100   0.436   1.727   5.207  0.8242 -1.5829 -0.8411
 1592SOL    HW3 6101   0.476   1.739   5.061 -1.2105 -0.5137 -1.3479
 1592SOL    MW4 6102   0.430   1.767   5.129 -0.2454 -0.1085 -0.7902
 1593SOL     OW 6103   4.419   0.270   5.914  0.1629 -0.6882 -0.2672
 1593SOL    HW2 6104   4.494   0.275   5.974  0.5731  0.3325 -0.8373
 1593SOL    HW3 6105   4.459   0.262   5.827 -0.3305  1.0674 -0.6957
 1593SOL    MW4 6106   4.434   0.270   5.910 -0.2460  0.3198  0.9708
 1594SOL     OW 6107   2.005   1.158   3.045 -0.1613  0.2680 -0.0507
 1594SOL    HW2 6108   2.031   1.208   2.967  1.9851 -1.3371 -0.4701
 1594SOL    HW3 6109   1.964   1.079   3.010  2.7077 -1.4877  0.2353
 1594SOL    MW4 6110   2.003   1.154   3.030 -0.1737 -0.1226 -0.2291
 1595SOL     OW 6111   2.406   4.652   3.935 -0.2297  0.0904 -1.0313
 1595SOL    HW2 6112   2.410   4.731   3.881 -1.7201 -0.0055 -1.3323
 1595SOL    HW3 6113   2.490   4.649   3.981 -0.2877  2.0595 -0.7183
 1595SOL    MW4 6114   2.417   4.662   3.934  0.0149 -0.4254 -0.3678
 1596SOL     OW 6115   4.872   1.771   6.131  0.0940  0.5354 -0.0882
 1596SOL    HW2 6116   4.919   1.815   6.060  1.3439  0.9553  0.9585
 1596SOL    HW3 6117   4.926   1.693   6.150 -0.7542 -0.1033 -0.2459
 1596SOL    MW4 6118   4.886   1.766   6.124  0.2453  0.0620  0.4093
 1597SOL     OW 6119   3.078   0.570   2.647  0.1277  0.5532  0.1167
 1597SOL    HW2 6120   3.057   0.564   2.554  1.4408 -0.5088 -0.1432
 1597SOL    HW3 6121   3.172   0.590   2.649  0.6826 -1.7956  1.1624
 1597SOL    MW4 6122   3.088   0.572   2.635  0.0112 -0.1324  0.0379
 1598SOL     OW 6123   4.160   4.401   1.447  0.1609  0.2500 -0.3957
 1598SOL    HW2 6124   4.118   4.386   1.532 -0.3454  0.6484 -0.5674
 1598SOL    HW3 6125   4.172   4.496   1.444  0.3359  0.2182 -0.6966
 1598SOL    MW4 6126   4.156   4.412   1.458  0.5246  0.2312 -0.4680
 1599SOL     OW 6127   2.492   5.005   4.978  0.1160 -0.1187  0.6432
 1599SOL    HW2 6128   2.493   5.078   4.916 -0.3291  0.1413  0.9407
 1599SOL    HW3 6129   2.577   4.962   4.965 -1.3698 -2.4125 -2.9558
 1599SOL    MW4 6130   2.504   5.009   4.968 -0.1264 -0.8760 -0.5451
 1600SOL     OW 6131   6.114   3.579   6.022 -0.2576 -0.0383 -0.1445
 1600SOL    HW2 6132   6.120   3.669   6.054 -0.9855  0.5042 -1.4616
 1600SOL    HW3 6133   6.051   3.537   6.079 -2.2724  1.1809 -1.3668
 1600SOL    MW4 6134   6.107   3.586   6.034 -0.0572 -0.0702 -0.5152
 1601SOL     OW 6135   0.967   5.422   0.684 -0.1187 -0.1531  0.2015
 1601SOL    HW2 6136   1.001   5.346   0.731  1.2408  1.0370  1.2376
 1601SOL    HW3 6137   0.961   5.491   0.750 -1.4984  0.6056 -0.6734
 1601SOL    MW4 6138   0.971   5.421   0.699 -0.2760  0.5647 -0.0705
 1602SOL     OW 6139   3.010   2.266   1.811  0.5802 -0.0264 -0.0389
 1602SOL    HW2 6140   2.974   2.207   1.877  1.1105 -0.8653 -0.4761
 1602SOL    HW3 6141   3.098   2.287   1.843  0.8033 -0.3599 -0.4201
 1602SOL    MW4 6142   3.017   2.261   1.823 -0.8482  0.3032 -0.0499
 1603SOL     OW 6143   3.168   3.003   2.900  0.1522 -0.4459 -0.4619
 1603SOL    HW2 6144   3.078   3.019   2.928 -0.0769 -1.7417 -0.4057
 1603SOL    HW3 6145   3.220   3.012   2.979  0.0864  0.2490 -0.4840
 1603SOL    MW4 6146   3.163   3.007   2.914  0.2008  0.1183 -0.0593
 1604SOL     OW 6147   5.573   4.403   1.677  0.0322  0.5344  0.1689
 1604SOL    HW2 6148   5.631   4.427   1.749  0.0515  0.9872  0.0053
 1604SOL    HW3 6149   5.603   4.455   1.603  0.5357 -0.5274 -0.3997
 1604SOL    MW4 6150   5.584   4.413   1.677 -0.6096  0.0795  0.1947
 1605SOL     OW 6151   4.813   2.716   5.221  0.0304  0.4641  0.1064
 1605SOL    HW2 6152   4.778   2.653   5.284 -0.4606  0.1297 -0.4862
 1605SOL    HW3 6153   4.895   2.746   5.260 -0.3139  0.3377  0.9446
 1605SOL    MW4 6154   4.819   2.712   5.234 -0.5378  0.4573  0.7180
 1606SOL     OW 6155   4.182   4.348   2.520 -0.3493 -0.2007  0.0272
 1606SOL    HW2 6156   4.205   4.257   2.538 -0.0609 -0.2676 -0.6578
 1606SOL    HW3 6157   4.266   4.391   2.501 -0.7006 -0.3367 -2.0162
 1606SOL    MW4 6158   4.196   4.342   2.520  0.5355  0.0083  0.3538
 1607SOL     OW 6159   1.258   5.292   2.346 -0.4152  0.1513 -0.5532
 1607SOL    HW2 6160   1.212   5.297   2.262  0.0710  1.0965 -0.7769
 1607SOL    HW3 6161   1.212   5.353   2.403  0.4239  0.9629 -0.7228
 1607SOL    MW4 6162   1.246   5.300   2.342  1.2138  0.0367 -0.5852
 1608SOL     OW 6163   3.275   2.190   0.441 -0.3744 -0.6503 -0.3882
 1608SOL    HW2 6164   3.245   2.250   0.510  2.0712  0.0681  0.1571
 1608SOL    HW3 6165   3.312   2.116   0.489  1.4927 -0.0717 -0.8372
 1608SOL    MW4 6166   3.276   2.188   0.457  0.2957 -0.4633 -0.1345
 1609SOL     OW 6167   0.179   0.903   4.658  0.4913  0.1930 -0.4030
 1609SOL    HW2 6168   0.178   0.941   4.570  1.8946  1.0970 -0.0653
 1609SOL    HW3 6169   0.226   0.820   4.648 -0.1639 -0.1581 -0.6516
 1609SOL    MW4 6170   0.185   0.897   4.645 -0.2427 -0.3210 -0.0296
 1610SOL     OW 6171   1.442   2.025   2.351 -0.4109  0.0235  0.4549
 1610SOL    HW2 6172   1.503   1.954   2.331  0.5015  0.7655  0.5548
 1610SOL    HW3 6173   1.433   2.072   2.269  0.0146  0.5637  0.7148
 1610SOL    MW4 6174   1.449   2.022   2.338 -0.3273 -0.4822 -0.3293
 1611SOL     OW 6175   5.368   4.859   2.627  0.4854 -0.5300  0.2634
 1611SOL    HW2 6176   5.330   4.913   2.557  0.1553  1.7603  2.0676
 1611SOL    HW3 6177   5.294   4.807   2.659  0.4238 -0.9007 -0.4624
 1611SOL    MW4 6178   5.353   4.860   2.622  0.2254 -0.5699  0.2451
 1612SOL     OW 6179   4.707   2.901   0.537  0.2049  0.4133 -0.4344
 1612SOL    HW2 6180   4.767   2.826   0.534 -0.0488  0.0202  1.9492
 1612SOL    HW3 6181   4.742   2.963   0.473  2.0652 -0.6006 -0.4705
 1612SOL    MW4 6182   4.720   2.899   0.528  0.4059 -0.0483  0.4714
 1613SOL     OW 6183   4.657   1.688   0.667 -0.0713  0.0707  0.2361
 1613SOL    HW2 6184   4.685   1.599   0.647 -2.9851 -0.9686  0.2959
 1613SOL    HW3 6185   4.561   1.685   0.660 -0.3577  2.8591  1.6052
 1613SOL    MW4 6186   4.648   1.676   0.664  0.2714 -0.1896 -0.1627
 1614SOL     OW 6187   0.052   2.156   1.761  0.0597  0.5534  0.2903
 1614SOL    HW2 6188   0.053   2.221   1.691  0.0708  0.6825  0.4093
 1614SOL    HW3 6189  -0.024   2.101   1.741 -0.7876  1.4368  0.9355
 1614SOL    MW4 6190   0.042   2.158   1.749  0.1377 -0.0474  0.3807
 1615SOL     OW 6191   3.529   4.519   3.275 -0.0021  0.2297  0.6648
 1615SOL    HW2 6192   3.588   4.494   3.346  0.2376  0.6570  0.6149
 1615SOL    HW3 6193   3.586   4.553   3.206 -0.3885  1.8131  1.1018
 1615SOL    MW4 6194   3.544   4.520   3.275  0.1046 -0.7440  0.3426
 1616SOL     OW 6195   0.596   0.656   3.161 -0.2623 -0.0266 -0.2929
 1616SOL    HW2 6196   0.628   0.616   3.242  0.1232  1.5481  0.3676
 1616SOL    HW3 6197   0.580   0.582   3.103 -2.6597 -1.4258  1.9264
 1616SOL    MW4 6198   0.598   0.641   3.164 -0.6612 -0.4934  0.2859
 1617SOL     OW 6199   1.356   2.748   2.055 -0.1976 -0.2047  0.0496
 1617SOL    HW2 6200   1.336   2.675   2.113  1.6109 -1.4360 -0.7963
 1617SOL    HW3 6201   1.422   2.799   2.102 -0.3863  0.0761  0.0146
 1617SOL    MW4 6202   1.362   2.745   2.069  0.1818 -0.1740 -0.0108
 1618SOL     OW 6203   0.761   3.444   5.571  0.1214  0.4527  0.4483
 1618SOL    HW2 6204   0.748   3.442   5.666  1.2029  0.4027  0.6129
 1618SOL    HW3 6205   0.804   3.528   5.554 -0.8877  0.8729 -0.1284
 1618SOL    MW4 6206   0.765   3.455   5.581  0.1587  0.4317 -0.1043
 1619SOL     OW 6207   3.405   1.464   4.867 -0.3054  0.1378 -0.1756
 1619SOL    HW2 6208   3.367   1.535   4.920  0.4116 -0.3691  1.0632
 1619SOL    HW3 6209   3.331   1.428   4.818 -0.7064  1.6600 -0.7562
 1619SOL    MW4 6210   3.390   1.469   4.868  0.0628  0.1552  0.2424
 1620SOL     OW 6211   5.020   0.109   1.694  0.7894 -0.0273  0.1988
 1620SOL    HW2 6212   4.971   0.181   1.733  3.5065  1.8511  0.4398
 1620SOL    HW3 6213   5.055   0.061   1.769  0.2853 -0.6669  0.0312
 1620SOL    MW4 6214   5.018   0.112   1.709 -0.0963 -0.1534 -0.3992
 1621SOL     OW 6215   3.983   0.379   5.986  0.8978  0.0264 -0.0315
 1621SOL    HW2 6216   3.986   0.391   5.891  1.3884 -1.2961 -0.2082
 1621SOL    HW3 6217   3.937   0.456   6.018 -0.8669 -0.3239 -1.5245
 1621SOL    MW4 6218   3.977   0.390   5.978 -0.5801 -0.3304  0.5038
 1622SOL     OW 6219   2.294   3.438   3.000 -0.0764 -0.4497 -0.4771
 1622SOL    HW2 6220   2.351   3.412   3.073  0.2841 -2.8126 -1.5127
 1622SOL    HW3 6221   2.287   3.533   3.009  1.6113 -0.4185  1.4351
 1622SOL    MW4 6222   2.301   3.447   3.011 -0.5440 -0.0114  0.4461
 1623SOL     OW 6223   1.488   3.509   2.202  0.4623 -0.0962  0.1679
 1623SOL    HW2 6224   1.571   3.488   2.159  0.7195 -1.8567  1.4211
 1623SOL    HW3 6225   1.441   3.425   2.206 -0.7765  0.5964  0.7617
 1623SOL    MW4 6226   1.493   3.495   2.197 -0.2687 -0.6125 -0.3509
 1624SOL     OW 6227   4.150   4.074   1.692  0.0213  0.2645 -0.0066
 1624SOL    HW2 6228   4.079   4.011   1.701  0.2071  0.2535  1.6474
 1624SOL    HW3 6229   4.207   4.037   1.625 -0.0366 -1.1715  0.7124
 1624SOL    MW4 6230   4.148   4.061   1.684 -0.1620  0.3707 -0.1048
 1625SOL     OW 6231   2.830   5.579   5.148  0.0092  0.9049 -0.2948
 1625SOL    HW2 6232   2.900   5.534   5.196  0.0551  1.2950  0.0070
 1625SOL    HW3 6233   2.862   5.669   5.137  0.0476  0.8032 -1.1461
 1625SOL    MW4 6234   2.844   5.585   5.153 -0.6129 -0.6158 -0.0168
 1626SOL     OW 6235   5.942   5.890   6.303  0.3449 -0.3806 -0.5266
 1626SOL    HW2 6236   5.964   5.797   6.301  0.1628 -0.4264 -2.5591
 1626SOL    HW3 6237   5.846   5.892   6.301  0.3336 -0.1469  0.1062
 1626SOL    MW4 6238   5.932   5.878   6.303 -0.6092 -0.3914  0.3222
 1627SOL     OW 6239   4.433   2.241   0.776 -0.3217  0.0328 -0.3133
 1627SOL    HW2 6240   4.372   2.173   0.746 -0.7762 -0.2309  1.1276
 1627SOL    HW3 6241   4.475   2.203   0.853  0.3402  0.9213 -0.2231
 1627SOL    MW4 6242   4.430   2.227   0.782  0.0392 -0.0101 -0.3556
 1628SOL     OW 6243   2.651   5.073   5.405 -0.5102 -0.2470 -0.0081
 1628SOL    HW2 6244   2.724   5.054   5.463  1.1829 -1.1753 -2.3125
 1628SOL    HW3 6245   2.620   5.159   5.433  2.4380  0.8827  0.1038
 1628SOL    MW4 6246   2.656   5.082   5.417  0.1500  0.0441 -0.2679
 1629SOL     OW 6247   3.820   6.414   0.444 -0.1135 -0.5775 -0.2606
 1629SOL    HW2 6248   3.829   6.384   0.534 -0.4639  0.8444  0.2879
 1629SOL    HW3 6249   3.827   6.335   0.391 -0.7322 -1.5652  1.0605
 1629SOL    MW4 6250   3.822   6.400   0.449  0.2250 -0.0210 -0.1177
 1630SOL     OW 6251   3.348   3.047   1.825  0.4725 -0.7276  0.3342
 1630SOL    HW2 6252   3.423   3.106   1.835  0.8120 -1.1295  0.1626
 1630SOL    HW3 6253   3.276   3.105   1.801  1.2089 -0.5632 -1.7040
 1630SOL    MW4 6254   3.349   3.063   1.823  0.1351 -0.8253  0.2490
 1631SOL     OW 6255   0.258   3.362   5.562  0.2166 -0.4889  0.6207
 1631SOL    HW2 6256   0.353   3.352   5.571  0.4579  0.4778 -0.5082
 1631SOL    HW3 6257   0.229   3.400   5.645  0.6084 -1.9507  1.4591
 1631SOL    MW4 6258   0.267   3.365   5.574 -0.4065  0.5461 -0.3680
 1632SOL     OW 6259   2.303   4.839   4.843  0.4996 -0.0804  0.3865
 1632SOL    HW2 6260   2.246   4.795   4.906  1.0737  0.2937  1.1832
 1632SOL    HW3 6261   2.357   4.898   4.896  0.6527  0.6105 -0.5172
 1632SOL    MW4 6262   2.303   4.841   4.858  0.8199  0.1769 -0.9566
 1633SOL     OW 6263   3.862   2.015   4.278  0.1698 -0.0670  0.1094
 1633SOL    HW2 6264   3.952   1.990   4.300  0.3450 -1.9187 -2.2144
 1633SOL    HW3 6265   3.841   2.085   4.339  2.4704 -0.9138  2.0618
 1633SOL    MW4 6266   3.871   2.021   4.289  0.5359 -0.7618 -0.6075
 1634SOL     OW 6267   0.555   1.193   2.898  0.2370  0.1665  0.2605
 1634SOL    HW2 6268   0.589   1.261   2.956 -0.3211  0.6390  0.0418
 1634SOL    HW3 6269   0.473   1.166   2.939 -0.0616  0.3656 -0.1992
 1634SOL    MW4 6270   0.549   1.198   2.911 -0.2885  0.4313 -0.0437
 1635SOL     OW 6271   0.273   1.349   3.161  0.2806  0.4743 -0.1546
 1635SOL    HW2 6272   0.230   1.358   3.246  0.9690  2.7728  0.0010
 1635SOL    HW3 6273   0.348   1.408   3.165  1.8840 -1.3248 -1.4538
 1635SOL    MW4 6274   0.277   1.358   3.173 -0.2103  0.1834 -0.2703
 1636SOL     OW 6275   5.102   1.246   5.089  0.0374 -0.0686 -0.3299
 1636SOL    HW2 6276   5.131   1.201   5.009 -1.2085  1.5510 -1.7965
 1636SOL    HW3 6277   5.107   1.180   5.158  1.3813 -1.4717 -1.7010
 1636SOL    MW4 6278   5.106   1.232   5.087 -0.4456  0.1130  0.3480
 1637SOL     OW 6279   5.904   4.590   5.967 -0.2280  0.6555 -0.5581
 1637SOL    HW2 6280   5.902   4.575   6.062  0.0913  1.0577 -0.4868
 1637SOL    HW3 6281   5.987   4.551   5.939  0.1140  1.3501 -0.5297
 1637SOL    MW4 6282   5.915   4.583   5.976 -0.1204 -0.4224  0.0969
 1638SOL     OW 6283   3.483   6.274   3.088  0.0491  0.4174 -0.2959
 1638SOL    HW2 6284   3.496   6.190   3.044 -0.5832 -0.5830  1.3575
 1638SOL    HW3 6285   3.408   6.313   3.042 -0.4635 -0.5105 -0.2806
 1638SOL    MW4 6286   3.475   6.268   3.076  0.3668 -0.2454  0.1643
 1639SOL     OW 6287   1.839   2.038   2.951 -0.2798  0.8047 -0.2465
 1639SOL    HW2 6288   1.875   2.113   2.903 -1.1834  0.2882 -1.7674
 1639SOL    HW3 6289   1.836   1.967   2.887  1.5970 -0.9226  1.4345
 1639SOL    MW4 6290   1.844   2.039   2.936  0.2800 -0.3207  0.0551
 1640SOL     OW 6291   0.695   4.577   3.713 -0.3155 -0.1027  0.2775
 1640SOL    HW2 6292   0.729   4.490   3.694 -0.7611 -0.1364 -0.3788
 1640SOL    HW3 6293   0.771   4.625   3.748  0.3989 -0.2124 -1.0787
 1640SOL    MW4 6294   0.710   4.572   3.715  1.1389 -0.3243 -0.1033
 1641SOL     OW 6295   4.928   1.841   4.356  0.5795 -0.3051  0.3828
 1641SOL    HW2 6296   4.929   1.779   4.430  0.9614  0.1518  0.7714
 1641SOL    HW3 6297   5.020   1.848   4.331  0.5214  0.0168  0.2660
 1641SOL    MW4 6298   4.941   1.833   4.363  0.1514 -0.2180  0.0270
 1642SOL     OW 6299   1.359   4.377   2.266 -0.1532  0.0203 -0.6432
 1642SOL    HW2 6300   1.416   4.434   2.214 -0.3127  0.7978  0.0181
 1642SOL    HW3 6301   1.300   4.338   2.201  0.2308  0.2728 -1.1568
 1642SOL    MW4 6302   1.359   4.379   2.250 -0.4059 -0.1011  0.3460
 1643SOL     OW 6303   1.846   3.027   3.298  0.1421  0.1877 -0.5182
 1643SOL    HW2 6304   1.820   2.976   3.374  2.7631 -0.2654  0.1831
 1643SOL    HW3 6305   1.830   2.969   3.223  1.2038 -0.9258  0.0848
 1643SOL    MW4 6306   1.840   3.013   3.298 -0.2049  0.0224  0.2051
 1644SOL     OW 6307   0.320   6.340   4.873  0.0092  0.0330 -0.1497
 1644SOL    HW2 6308   0.364   6.282   4.935  1.1334  1.0838  0.0653
 1644SOL    HW3 6309   0.232   6.302   4.863  0.7371 -1.7511 -0.1172
 1644SOL    MW4 6310   0.314   6.327   4.880  0.3238  0.7354 -0.1610
 1645SOL     OW 6311   2.079   3.541   2.198 -0.2544 -0.2156  0.2952
 1645SOL    HW2 6312   2.092   3.605   2.128 -1.9037 -0.6960 -0.5080
 1645SOL    HW3 6313   2.128   3.576   2.272  0.5614  0.9164 -0.7385
 1645SOL    MW4 6314   2.087   3.554   2.198 -0.2624  0.1901 -0.3391
 1646SOL     OW 6315   0.741   4.094   5.481  0.0702 -0.4308 -0.7394
 1646SOL    HW2 6316   0.771   4.038   5.410  0.2929  0.7824 -1.6160
 1646SOL    HW3 6317   0.679   4.155   5.440 -0.1535 -0.0110  0.1910
 1646SOL    MW4 6318   0.737   4.095   5.466  0.0453 -0.6868  0.2731
 1647SOL     OW 6319   2.077   3.154   4.493  0.3501 -0.1695  0.2397
 1647SOL    HW2 6320   2.095   3.104   4.573 -1.1894 -0.9340  0.1561
 1647SOL    HW3 6321   2.098   3.093   4.422 -1.3794 -0.6790  0.1333
 1647SOL    MW4 6322   2.082   3.139   4.494 -0.0495 -0.4835  0.1247
 1648SOL     OW 6323   5.505   3.855   6.238  0.5799 -0.4074  0.0855
 1648SOL    HW2 6324   5.581   3.816   6.195  0.9355  0.3398  0.0135
 1648SOL    HW3 6325   5.542   3.912   6.305  0.0329 -1.6147  1.4613
 1648SOL    MW4 6326   5.520   3.858   6.241  0.9424  0.0823  0.1043
 1649SOL     OW 6327   3.831   1.610   4.018 -0.4981 -0.5757 -0.1550
 1649SOL    HW2 6328   3.840   1.594   4.112 -1.1398 -1.0133 -0.1604
 1649SOL    HW3 6329   3.766   1.547   3.989  0.9596 -1.6525 -1.2431
 1649SOL    MW4 6330   3.824   1.600   4.027  0.0887 -0.0645  0.7182
 1650SOL     OW 6331   4.042   2.271   4.547  0.4091  0.0778 -0.7838
 1650SOL    HW2 6332   4.041   2.195   4.605 -1.6382  1.8369  1.6726
 1650SOL    HW3 6333   3.961   2.265   4.497  0.3660  0.5374 -0.7701
 1650SOL    MW4 6334   4.031   2.260   4.548 -0.0354 -0.2298 -0.3117
 1651SOL     OW 6335   3.578   3.304   1.537  0.2545  0.5978  0.2109
 1651SOL    HW2 6336   3.547   3.299   1.447 -0.5747  1.3439  0.4429
 1651SOL    HW3 6337   3.616   3.218   1.554  1.4731  0.8075 -1.2097
 1651SOL    MW4 6338   3.579   3.292   1.527  0.7830  0.0629 -0.3211
 1652SOL     OW 6339   4.167   3.673   4.180 -0.2734  0.2542  0.0762
 1652SOL    HW2 6340   4.137   3.585   4.160  1.8829 -0.2724 -1.1734
 1652SOL    HW3 6341   4.194   3.709   4.095  1.1276  1.1949  0.8794
 1652SOL    MW4 6342   4.167   3.666   4.166  0.4174  0.0141  0.5790
 1653SOL     OW 6343   0.679   2.549   4.193  0.5898  0.2419 -0.1725
 1653SOL    HW2 6344   0.710   2.594   4.272 -0.1071  0.0459  0.2212
 1653SOL    HW3 6345   0.595   2.590   4.174  1.2085  0.9880 -1.4185
 1653SOL    MW4 6346   0.672   2.560   4.201 -0.1910 -0.2560 -0.4237
 1654SOL     OW 6347   5.704   0.470   4.290 -0.6654 -0.0373  0.1070
 1654SOL    HW2 6348   5.625   0.486   4.239 -1.3586 -2.3493  0.3669
 1654SOL    HW3 6349   5.690   0.384   4.330  3.1334 -1.9131 -2.0912
 1654SOL    MW4 6350   5.692   0.461   4.288 -0.1890 -0.6006 -0.4359
 1655SOL     OW 6351   3.249   4.063   5.370  0.2281 -0.1733  0.0095
 1655SOL    HW2 6352   3.296   4.032   5.447  0.1644 -0.3705 -0.0324
 1655SOL    HW3 6353   3.312   4.118   5.324 -0.5682  2.3898  1.7126
 1655SOL    MW4 6354   3.263   4.066   5.374 -0.1004 -0.0606 -0.0259
 1656SOL     OW 6355   2.388   0.687   4.575 -0.1131 -0.3311 -0.7342
 1656SOL    HW2 6356   2.383   0.727   4.662  0.3959  0.2718 -0.9659
 1656SOL    HW3 6357   2.299   0.689   4.542 -0.3094 -0.5656 -0.2224
 1656SOL    MW4 6358   2.376   0.693   4.582  0.3439 -0.4141  0.0372
 1657SOL     OW 6359   2.770   5.089   1.843  0.3422  0.6305 -0.2087
 1657SOL    HW2 6360   2.726   5.011   1.878 -0.9952  1.2981 -0.3623
 1657SOL    HW3 6361   2.847   5.100   1.900 -0.1756 -0.0317  0.6469
 1657SOL    MW4 6362   2.775   5.080   1.855 -0.1001  0.1003 -0.9334
 1658SOL     OW 6363   1.448   2.470   5.490  0.1861 -0.5565  0.1410
 1658SOL    HW2 6364   1.454   2.393   5.548 -0.6967 -0.1993  0.7403
 1658SOL    HW3 6365   1.531   2.516   5.502  0.1604 -0.6815  0.8599
 1658SOL    MW4 6366   1.459   2.466   5.500 -0.3878 -0.3161 -0.2256
 1659SOL     OW 6367   4.681   0.796   4.106 -0.2639  0.2531  0.3842
 1659SOL    HW2 6368   4.597   0.781   4.062 -0.2644  0.1934  0.4056
 1659SOL    HW3 6369   4.681   0.735   4.179 -0.5604  0.8154  0.8699
 1659SOL    MW4 6370   4.670   0.786   4.110 -0.2878  0.0115 -0.3368
 1660SOL     OW 6371   6.280   2.558   3.710 -0.6403 -0.0498 -0.4407
 1660SOL    HW2 6372   6.293   2.643   3.753 -2.5553 -0.4801  1.1284
 1660SOL    HW3 6373   6.190   2.562   3.678 -0.3934 -1.1091 -1.3185
 1660SOL    MW4 6374   6.270   2.570   3.711 -0.0721 -0.3379 -0.1665
 1661SOL     OW 6375   6.053   0.918   5.217  0.7550 -0.1856 -0.0443
 1661SOL    HW2 6376   6.098   0.955   5.142  2.8384 -1.9893  0.1990
 1661SOL    HW3 6377   6.117   0.923   5.288 -0.4161 -0.4202  1.0609
 1661SOL    MW4 6378   6.067   0.923   5.217  0.4155  0.0574 -0.3391
 1662SOL     OW 6379   2.312   1.795   6.319 -0.0732  0.2194  0.1549
 1662SOL    HW2 6380   2.299   1.718   6.263  0.8136  0.2022 -0.0483
 1662SOL    HW3 6381   2.264   1.774   6.400  0.8288 -0.9233  0.4311
 1662SOL    MW4 6382   2.304   1.782   6.323  0.4378  0.0557 -0.2099
 1663SOL     OW 6383   2.689   2.043   2.074 -0.1959 -0.1606 -0.4370
 1663SOL    HW2 6384   2.716   2.014   2.161  0.8573 -0.5853 -0.8830
 1663SOL    HW3 6385   2.647   1.966   2.036 -0.4499 -0.0459 -0.3891
 1663SOL    MW4 6386   2.687   2.029   2.081  0.3557 -0.6610  0.0555
 1664SOL     OW 6387   6.406   4.389   6.222 -0.2376 -0.0320 -0.3074
 1664SOL    HW2 6388   6.383   4.298   6.203 -1.2164  0.4947 -1.8691
 1664SOL    HW3 6389   6.501   4.389   6.232 -0.2658 -1.2776  0.1198
 1664SOL    MW4 6390   6.415   4.377   6.221  0.2023 -0.4628  0.4711
 1665SOL     OW 6391   6.245   6.158   2.887  0.5355  0.4746 -0.5713
 1665SOL    HW2 6392   6.221   6.068   2.868  0.9270  0.0618  0.8055
 1665SOL    HW3 6393   6.340   6.162   2.873  0.8063  0.2036  1.0234
 1665SOL    MW4 6394   6.254   6.147   2.883  0.1013  0.2469 -0.6362
 1666SOL     OW 6395   4.359   2.210   6.353 -0.3045 -0.1606  0.0295
 1666SOL    HW2 6396   4.365   2.297   6.392  1.5027 -0.2172 -0.0585
 1666SOL    HW3 6397   4.409   2.153   6.411  0.1174 -0.7669 -0.8932
 1666SOL    MW4 6398   4.366   2.214   6.366  0.0643  0.0705 -0.1080
 1667SOL     OW 6399   5.282   1.017   5.621 -0.5326  0.2030  0.6221
 1667SOL    HW2 6400   5.224   0.942   5.628 -0.1745 -0.0561  0.8432
 1667SOL    HW3 6401   5.353   0.987   5.565 -1.1898  0.8888 -0.6264
 1667SOL    MW4 6402   5.284   1.003   5.614  0.0003 -0.7326  0.3042
 1668SOL     OW 6403   2.892   4.707   6.314 -0.3307  0.2134 -0.1066
 1668SOL    HW2 6404   2.823   4.707   6.248 -0.1403  3.0945 -0.4323
 1668SOL    HW3 6405   2.861   4.766   6.382  0.4591 -0.9606  1.3444
 1668SOL    MW4 6406   2.879   4.714   6.315  0.0133 -0.0558 -0.3386
 1669SOL     OW 6407   0.576   0.623   2.493  0.1670  0.1338 -0.2497
 1669SOL    HW2 6408   0.572   0.541   2.445 -2.1902 -0.5603  0.9652
 1669SOL    HW3 6409   0.666   0.628   2.526  0.4033 -1.8873 -0.4881
 1669SOL    MW4 6410   0.587   0.613   2.491 -0.7390  0.1211 -0.0010
 1670SOL     OW 6411   0.145   2.742   0.280 -0.0935  0.3590 -0.4077
 1670SOL    HW2 6412   0.194   2.661   0.295 -1.8015 -0.5338  0.7281
 1670SOL    HW3 6413   0.168   2.768   0.191  2.0219 -0.2604 -0.1125
 1670SOL    MW4 6414   0.154   2.735   0.270 -0.2087 -0.2422 -0.4627
 1671SOL     OW 6415   5.465   6.290   4.380  0.0144 -0.0176  0.2248
 1671SOL    HW2 6416   5.386   6.244   4.351 -2.3914  3.8654 -0.1070
 1671SOL    HW3 6417   5.469   6.274   4.474  0.1407 -1.9685 -0.0744
 1671SOL    MW4 6418   5.455   6.282   4.388 -0.1176  0.4310 -0.0157
 1672SOL     OW 6419   1.503   5.412   3.657  0.2155  0.4745 -0.1492
 1672SOL    HW2 6420   1.586   5.381   3.620  0.2335 -0.3348  0.5347
 1672SOL    HW3 6421   1.436   5.364   3.608  0.2835 -1.8966  1.9334
 1672SOL    MW4 6422   1.505   5.402   3.645  0.5869  0.1603 -0.1984
 1673SOL     OW 6423   0.275   4.199   3.578 -0.0116 -0.6371 -0.2405
 1673SOL    HW2 6424   0.198   4.141   3.574 -0.3329 -0.1672 -2.1322
 1673SOL    HW3 6425   0.328   4.173   3.502 -0.3177  1.6773 -1.3485
 1673SOL    MW4 6426   0.272   4.188   3.567 -0.0607  0.1334 -0.5850
 1674SOL     OW 6427   2.419   3.792   6.178 -0.4589 -0.2364  0.0908
 1674SOL    HW2 6428   2.391   3.865   6.234  0.2518  1.1036 -1.2425
 1674SOL    HW3 6429   2.337   3.756   6.144 -0.9253 -1.2452  2.1254
 1674SOL    MW4 6430   2.404   3.797   6.181  0.1527 -0.0815 -0.4221
 1675SOL     OW 6431   1.697   5.910   2.973 -0.1878 -0.3413  0.3972
 1675SOL    HW2 6432   1.749   5.901   2.893 -1.5186  0.3929 -0.6054
 1675SOL    HW3 6433   1.629   5.844   2.965  0.7663 -1.5833  1.9003
 1675SOL    MW4 6434   1.695   5.900   2.961 -0.2208  0.1605  0.4200
 1676SOL     OW 6435   4.085   4.221   5.725  0.0523  0.1206  0.0167
 1676SOL    HW2 6436   4.141   4.277   5.671 -0.3029  0.7031  0.2486
 1676SOL    HW3 6437   4.022   4.281   5.765 -1.3110 -0.6342 -0.9235
 1676SOL    MW4 6438   4.084   4.236   5.723 -0.0461  0.4086  0.0903
 1677SOL     OW 6439   3.378   5.942   0.688  0.0984  0.5468 -0.5965
 1677SOL    HW2 6440   3.308   5.962   0.625 -0.2478 -0.0419 -0.4077
 1677SOL    HW3 6441   3.363   6.003   0.760  1.4875  2.3803 -1.7722
 1677SOL    MW4 6442   3.367   5.953   0.689  0.5018 -0.2692  0.2806
 1678SOL     OW 6443   3.641   3.180   0.185 -0.0933 -0.4860 -0.4837
 1678SOL    HW2 6444   3.552   3.188   0.218 -0.1830 -0.0524 -0.8137
 1678SOL    HW3 6445   3.695   3.168   0.264 -0.1638  1.7198 -0.0285
 1678SOL    MW4 6446   3.636   3.180   0.200  0.0543  0.8269  0.5167
 1679SOL     OW 6447   3.313   1.833   4.163 -0.1189 -0.4642 -0.0781
 1679SOL    HW2 6448   3.382   1.846   4.098  0.9928 -2.4594  0.6121
 1679SOL    HW3 6449   3.307   1.917   4.208 -0.9540  0.9903 -2.6910
 1679SOL    MW4 6450   3.321   1.846   4.161 -0.8559  0.1890 -0.2943
 1680SOL     OW 6451   3.098   3.038   0.842 -0.3504 -0.9186  0.5195
 1680SOL    HW2 6452   3.173   3.024   0.899  0.9798  0.7205 -0.7225
 1680SOL    HW3 6453   3.117   2.985   0.764 -0.2746 -0.2077  0.0442
 1680SOL    MW4 6454   3.110   3.029   0.839 -0.4423  0.2570 -0.9308
 1681SOL     OW 6455   2.496   4.930   1.201  0.1190  0.3988  0.2508
 1681SOL    HW2 6456   2.566   4.950   1.263 -0.2968  3.1135 -0.0329
 1681SOL    HW3 6457   2.431   4.882   1.253  0.5628  1.0942  1.4955
 1681SOL    MW4 6458   2.497   4.927   1.216 -0.0625 -0.0621 -0.0041
 1682SOL     OW 6459   0.465   4.399   3.132 -0.1292 -0.1023 -0.0557
 1682SOL    HW2 6460   0.384   4.349   3.139 -0.1781 -0.2012 -1.1682
 1682SOL    HW3 6461   0.463   4.437   3.044  1.8600 -1.6098 -0.8446
 1682SOL    MW4 6462   0.454   4.397   3.121 -0.5962  0.6070 -0.3905
 1683SOL     OW 6463   2.972   5.316   4.373  0.6507 -0.6575  0.6079
 1683SOL    HW2 6464   2.886   5.278   4.393 -0.3058  0.9685 -0.1949
 1683SOL    HW3 6465   2.976   5.316   4.277  1.3662 -0.3232  0.6311
 1683SOL    MW4 6466   2.961   5.311   4.363  0.5209  0.0690 -0.6246
 1684SOL     OW 6467   1.581   0.928   2.219  0.4474  0.8031 -0.3028
 1684SOL    HW2 6468   1.489   0.910   2.198  0.5092 -2.0972  1.3811
 1684SOL    HW3 6469   1.578   0.995   2.287 -0.4215  0.7195 -0.2483
 1684SOL    MW4 6470   1.569   0.935   2.225 -0.4864 -0.5613  0.1120
 1685SOL     OW 6471   1.909   3.682   6.177 -0.6757 -0.1995  0.2737
 1685SOL    HW2 6472   1.939   3.596   6.206  1.4761 -0.9071 -3.3566
 1685SOL    HW3 6473   1.828   3.663   6.129 -0.2644 -0.2303 -0.4252
 1685SOL    MW4 6474   1.902   3.668   6.174  0.0942 -0.0615  0.0991
 1686SOL     OW 6475   0.028   0.647   5.361  0.3491 -0.6036  0.2065
 1686SOL    HW2 6476   0.026   0.579   5.294 -0.1859 -1.2525  0.8657
 1686SOL    HW3 6477  -0.028   0.716   5.327 -0.4768 -1.2228  0.2856
 1686SOL    MW4 6478   0.020   0.647   5.348  0.2201 -0.7005 -0.5270
 1687SOL     OW 6479   5.718   5.071   6.280 -0.7576 -0.1976 -0.2839
 1687SOL    HW2 6480   5.791   5.019   6.247  1.1128  1.2866  1.3185
 1687SOL    HW3 6481   5.758   5.133   6.341 -3.3188  0.9429  0.3562
 1687SOL    MW4 6482   5.733   5.072   6.284 -0.2668  0.1564  0.0858
 1688SOL     OW 6483   1.900   3.793   4.641  0.4297 -0.2582  0.0310
 1688SOL    HW2 6484   1.819   3.817   4.684  0.4779 -0.4800  0.2449
 1688SOL    HW3 6485   1.969   3.816   4.703  0.6674  1.6396 -0.8516
 1688SOL    MW4 6486   1.899   3.799   4.655 -0.1612  0.9889  0.3790
 1689SOL     OW 6487   1.082   0.251   4.792 -0.1269  0.0461  0.2575
 1689SOL    HW2 6488   1.115   0.321   4.849  0.0351 -0.0424  0.2729
 1689SOL    HW3 6489   1.053   0.183   4.853 -1.0127  0.4161  0.2681
 1689SOL    MW4 6490   1.083   0.251   4.808  0.3510  0.2686 -0.1014
 1690SOL     OW 6491   3.266   1.846   4.724 -0.5177 -0.6785  0.1676
 1690SOL    HW2 6492   3.218   1.927   4.741  0.8238  0.5969 -1.7423
 1690SOL    HW3 6493   3.202   1.777   4.742 -1.0225  0.5776  4.1848
 1690SOL    MW4 6494   3.251   1.848   4.728 -0.1946 -0.4266 -0.5495
 1691SOL     OW 6495   4.154   2.930   3.527 -0.0169 -0.1252  0.1877
 1691SOL    HW2 6496   4.153   3.024   3.546  0.3559 -0.2479  0.8489
 1691SOL    HW3 6497   4.241   2.913   3.491  0.2912 -0.3818  1.0142
 1691SOL    MW4 6498   4.165   2.940   3.525 -0.3177  0.1389 -0.3530
 1692SOL     OW 6499   2.616   2.225   3.054  0.0191  0.1446 -0.0250
 1692SOL    HW2 6500   2.651   2.243   2.966 -0.5374  1.0690 -0.0733
 1692SOL    HW3 6501   2.573   2.307   3.080  0.1730 -0.1223  1.1136
 1692SOL    MW4 6502   2.615   2.238   3.046 -0.5631 -0.2267  0.0218
 1693SOL     OW 6503   2.995   4.106   1.605 -0.1933  0.2032  0.0901
 1693SOL    HW2 6504   3.080   4.138   1.574 -0.1951 -0.7172 -0.9755
 1693SOL    HW3 6505   2.932   4.137   1.539 -0.3969 -0.6929 -0.1568
 1693SOL    MW4 6506   2.998   4.114   1.592 -0.5336  1.0396  0.2544
 1694SOL     OW 6507   4.823   5.238   4.404  0.3932 -0.3714  0.3503
 1694SOL    HW2 6508   4.893   5.173   4.402 -0.0487 -0.9192  1.8840
 1694SOL    HW3 6509   4.862   5.316   4.363  1.6355 -0.8960  0.4857
 1694SOL    MW4 6510   4.837   5.239   4.398 -0.2897  0.1938 -0.1287
 1695SOL     OW 6511   5.962   4.538   4.651 -0.0881 -0.8044  0.0543
 1695SOL    HW2 6512   6.018   4.600   4.698 -1.1504 -0.1780  0.5304
 1695SOL    HW3 6513   5.942   4.471   4.716 -0.8371 -0.4042  0.2428
 1695SOL    MW4 6514   5.967   4.538   4.666 -0.4182 -0.1494  0.2749
 1696SOL     OW 6515   1.694   5.150   3.451 -0.4505 -0.1700 -0.1039
 1696SOL    HW2 6516   1.626   5.123   3.389  0.5505 -1.0026 -0.8698
 1696SOL    HW3 6517   1.720   5.237   3.421 -0.3677 -0.3344 -0.5141
 1696SOL    MW4 6518   1.688   5.158   3.439  0.1092 -0.2165 -0.1309
 1697SOL     OW 6519   6.168   5.087   5.864 -0.0846 -0.1024 -0.2537
 1697SOL    HW2 6520   6.174   5.101   5.958  0.5914 -1.3499 -0.0926
 1697SOL    HW3 6521   6.119   5.006   5.854  2.0428 -1.3916 -0.8446
 1697SOL    MW4 6522   6.163   5.078   5.875 -0.4944 -0.2499 -0.5635
 1698SOL     OW 6523   1.834   0.439   3.799 -0.2334  0.1238  0.3864
 1698SOL    HW2 6524   1.905   0.502   3.812  1.5644 -1.7485  0.2483
 1698SOL    HW3 6525   1.794   0.464   3.716  0.2586  1.2312  0.4737
 1698SOL    MW4 6526   1.838   0.450   3.790 -0.1152 -0.3892  0.0262
 1699SOL     OW 6527   3.724   3.219   4.192  0.0034 -0.2194 -0.3193
 1699SOL    HW2 6528   3.688   3.297   4.236  1.7418 -0.4902  1.7379
 1699SOL    HW3 6529   3.655   3.153   4.200 -0.3546  0.2484  0.5570
 1699SOL    MW4 6530   3.710   3.221   4.199 -0.2303 -0.4720  0.1522
 1700SOL     OW 6531   4.643   2.797   3.302  0.1728  0.3328  0.6233
 1700SOL    HW2 6532   4.709   2.754   3.356  0.3838 -0.2825 -0.1155
 1700SOL    HW3 6533   4.683   2.879   3.275  0.1657  0.5236  1.1722
 1700SOL    MW4 6534   4.657   2.802   3.306 -0.1556 -0.0531  0.1265
 1701SOL     OW 6535   1.174   3.878   2.394 -0.8075  0.4874  0.2454
 1701SOL    HW2 6536   1.264   3.905   2.375 -1.0134  0.0995 -1.5211
 1701SOL    HW3 6537   1.180   3.783   2.407 -1.0789  0.2900 -0.9462
 1701SOL    MW4 6538   1.187   3.869   2.393 -0.0619  0.2983  1.0307
 1702SOL     OW 6539   3.538   0.982   4.791 -0.7159  0.1357 -0.2091
 1702SOL    HW2 6540   3.473   0.921   4.827  0.5871 -2.1327 -1.4608
 1702SOL    HW3 6541   3.494   1.022   4.716 -0.7002 -1.5687 -1.2007
 1702SOL    MW4 6542   3.524   0.979   4.785 -0.3615 -0.3577  0.2452
 1703SOL     OW 6543   0.108   1.268   4.698 -0.0942 -0.1559 -0.4376
 1703SOL    HW2 6544   0.160   1.196   4.734  0.5539  0.7525  0.5026
 1703SOL    HW3 6545   0.123   1.263   4.603 -0.5254 -1.5909 -0.4632
 1703SOL    MW4 6546   0.116   1.258   4.690  0.0885 -0.4092  0.0375
 1704SOL     OW 6547   2.868   2.960   1.806 -0.0927  0.4049  0.1360
 1704SOL    HW2 6548   2.859   3.028   1.874 -0.3265 -1.0868  1.6521
 1704SOL    HW3 6549   2.951   2.918   1.825  0.0345  0.2214 -0.7826
 1704SOL    MW4 6550   2.878   2.964   1.818  0.0554 -0.3461 -0.6149
 1705SOL     OW 6551   4.534   1.292   2.357 -0.1435  0.0438 -0.3455
 1705SOL    HW2 6552   4.578   1.212   2.329  0.2543  0.7841 -1.9556
 1705SOL    HW3 6553   4.449   1.290   2.314 -0.2534  0.3470 -0.1514
 1705SOL    MW4 6554   4.528   1.281   2.348  0.1598 -0.1703  0.7521
 1706SOL     OW 6555   2.003   1.903   3.388 -0.0040  0.1992  0.2594
 1706SOL    HW2 6556   1.946   1.883   3.462 -0.3038 -0.7381 -0.2055
 1706SOL    HW3 6557   2.073   1.838   3.394 -0.0380  0.1092 -0.2832
 1706SOL    MW4 6558   2.005   1.892   3.399  0.4502 -0.3789 -0.3609
 1707SOL     OW 6559   3.932   0.437   2.823  0.3899  0.2617 -0.5416
 1707SOL    HW2 6560   3.854   0.384   2.838  2.0121 -1.5570  2.4026
 1707SOL    HW3 6561   3.939   0.443   2.727 -1.8179 -1.8211 -0.9268
 1707SOL    MW4 6562   3.923   0.431   2.812 -1.0679 -0.4736 -0.0400
 1708SOL     OW 6563   1.874   2.713   1.171  0.3358 -0.8517 -0.2399
 1708SOL    HW2 6564   1.950   2.666   1.137  1.7552 -1.0314  2.8299
 1708SOL    HW3 6565   1.900   2.805   1.168  0.8079 -0.9323  1.0362
 1708SOL    MW4 6566   1.887   2.719   1.166  0.6144  0.0044 -0.3875
 1709SOL     OW 6567   1.570   3.053   1.164  0.5552 -0.0410  0.0723
 1709SOL    HW2 6568   1.520   3.104   1.100  0.1138 -0.5977 -0.0301
 1709SOL    HW3 6569   1.529   2.967   1.164  1.2177 -0.3668  0.3357
 1709SOL    MW4 6570   1.558   3.048   1.156  0.1482  0.0309  0.0049
 1710SOL     OW 6571   5.946   5.989   3.894 -0.2003 -0.7914  0.2850
 1710SOL    HW2 6572   5.998   5.920   3.935  0.1385 -0.0040  1.2108
 1710SOL    HW3 6573   5.993   6.070   3.915 -0.6394 -0.2622 -0.7068
 1710SOL    MW4 6574   5.959   5.990   3.902  0.1404  0.3529 -0.4858
 1711SOL     OW 6575   3.601   3.801   1.069 -0.1219  0.9215 -0.3591
 1711SOL    HW2 6576   3.525   3.844   1.030  0.0205  2.0120  0.5111
 1711SOL    HW3 6577   3.608   3.838   1.157 -0.3979 -1.3996  0.7356
 1711SOL    MW4 6578   3.592   3.811   1.075  0.0707 -0.5298 -0.4180
 1712SOL     OW 6579   1.124   1.289   5.878 -0.2098 -0.1214 -0.4159
 1712SOL    HW2 6580   1.098   1.316   5.790  1.2598  1.3171 -0.4501
 1712SOL    HW3 6581   1.047   1.306   5.932 -0.8998 -0.3864 -1.2851
 1712SOL    MW4 6582   1.110   1.295   5.873  0.0690 -0.4114  0.2674
 1713SOL     OW 6583   3.355   4.882   4.375 -0.9770  0.2404 -0.8265
 1713SOL    HW2 6584   3.389   4.872   4.464  0.8290 -0.1580 -1.5184
 1713SOL    HW3 6585   3.379   4.801   4.330 -3.4963 -0.3612 -1.2240
 1713SOL    MW4 6586   3.363   4.870   4.380 -0.2240  0.5278 -0.5037
 1714SOL     OW 6587   0.467   1.344   1.764 -0.3447 -0.3354 -0.0679
 1714SOL    HW2 6588   0.553   1.301   1.758 -0.0014  0.3912 -0.5654
 1714SOL    HW3 6589   0.471   1.394   1.845  0.0296  0.3743 -0.5175
 1714SOL    MW4 6590   0.479   1.345   1.774  0.2142 -0.0623 -0.4006
 1715SOL     OW 6591   1.196   3.596   1.074 -0.4370 -0.2080  0.5288
 1715SOL    HW2 6592   1.248   3.619   1.151 -2.1443  0.3728  1.5831
 1715SOL    HW3 6593   1.144   3.674   1.056  0.1569 -0.2384 -1.4383
 1715SOL    MW4 6594   1.196   3.609   1.082 -0.4477  0.1827  0.1066
 1716SOL     OW 6595   6.370   5.620   3.184 -0.3941  0.3837  0.1399
 1716SOL    HW2 6596   6.423   5.695   3.210  1.0893 -0.9030  0.9768
 1716SOL    HW3 6597   6.306   5.610   3.255 -0.2202  0.5178  0.3165
 1716SOL    MW4 6598   6.369   5.629   3.197 -0.1779 -0.4833 -0.1483
 1717SOL     OW 6599   2.481   6.297   0.428  0.1378  0.5182 -0.3661
 1717SOL    HW2 6600   2.393   6.266   0.450 -0.2831 -0.4460 -3.0403
 1717SOL    HW3 6601   2.530   6.218   0.407  0.9335  1.2045 -1.1952
 1717SOL    MW4 6602   2.476   6.283   0.428  0.6603 -0.4163  0.2802
 1718SOL     OW 6603   3.011   6.382   3.672 -0.5060  0.0430 -0.1871
 1718SOL    HW2 6604   3.064   6.313   3.632  0.5309  0.1462  0.9411
 1718SOL    HW3 6605   3.041   6.463   3.631 -1.0272 -0.0644 -0.7959
 1718SOL    MW4 6606   3.022   6.383   3.661 -0.3303 -0.1840  0.5761
 1719SOL     OW 6607   3.354   0.659   2.648 -0.0052 -0.6109  0.2230
 1719SOL    HW2 6608   3.393   0.572   2.637 -0.2862 -1.0071  2.0596
 1719SOL    HW3 6609   3.330   0.663   2.741 -0.9767  1.0299 -0.0638
 1719SOL    MW4 6610   3.356   0.648   2.659  0.2176  0.3466 -0.0741
 1720SOL     OW 6611   5.537   5.426   5.730  0.0978 -0.3207 -0.2830
 1720SOL    HW2 6612   5.626   5.448   5.758  0.6143 -1.1333 -1.2191
 1720SOL    HW3 6613   5.516   5.491   5.663  0.4960 -0.8609 -0.9569
 1720SOL    MW4 6614   5.546   5.437   5.725  0.1342  0.1206 -0.0171
 1721SOL     OW 6615   2.633   3.639   4.316 -0.4862 -0.6359 -0.1694
 1721SOL    HW2 6616   2.574   3.714   4.311  0.2519 -0.0835 -1.0417
 1721SOL    HW3 6617   2.685   3.656   4.395 -0.4315 -0.2995 -0.2729
 1721SOL    MW4 6618   2.632   3.651   4.326 -0.5766 -0.1003 -0.2485
 1722SOL     OW 6619   1.345   6.254   2.095 -0.0577  0.3539 -0.3157
 1722SOL    HW2 6620   1.412   6.265   2.027  1.6072 -1.0976  1.0297
 1722SOL    HW3 6621   1.390   6.212   2.168 -2.4024 -0.5106  0.7351
 1722SOL    MW4 6622   1.359   6.250   2.095  0.3924  0.4761  0.2027
 1723SOL     OW 6623   3.466   5.336   4.450  0.1091  0.7841 -0.0058
 1723SOL    HW2 6624   3.396   5.284   4.411 -0.2090 -0.7536  2.4146
 1723SOL    HW3 6625   3.539   5.275   4.460  0.8317  1.6362  0.1249
 1723SOL    MW4 6626   3.467   5.321   4.446  1.1809 -0.4709  0.3208
 1724SOL     OW 6627   3.897   4.380   5.857 -0.0898 -0.0980  0.2147
 1724SOL    HW2 6628   3.905   4.390   5.952  1.0481 -1.0152  0.2359
 1724SOL    HW3 6629   3.803   4.384   5.840 -0.4625 -1.7668  1.6199
 1724SOL    MW4 6630   3.885   4.382   5.867  0.0377 -0.4008 -0.0894
 1725SOL     OW 6631   0.122   1.344   4.058 -0.3595 -0.3013 -0.1533
 1725SOL    HW2 6632   0.216   1.339   4.043 -0.2952  0.0846  0.1229
 1725SOL    HW3 6633   0.086   1.378   3.976 -0.2334 -0.2145 -0.1731
 1725SOL    MW4 6634   0.129   1.348   4.045 -0.6657  0.1170 -0.4720
 1726SOL     OW 6635   6.202   3.154   4.178 -0.0612  0.3082  0.4813
 1726SOL    HW2 6636   6.180   3.245   4.199  1.2866  0.5734  0.8321
 1726SOL    HW3 6637   6.137   3.102   4.226 -1.6636  1.0881 -0.7519
 1726SOL    MW4 6638   6.190   3.159   4.187 -0.3951  0.3916  0.4392
 1727SOL     OW 6639   5.481   3.584   3.348  0.0806 -0.4149 -0.9196
 1727SOL    HW2 6640   5.538   3.589   3.424  0.7270  0.9286 -1.4648
 1727SOL    HW3 6641   5.393   3.597   3.383  0.3824  0.2923 -0.4068
 1727SOL    MW4 6642   5.477   3.586   3.362 -0.0599  0.4080 -0.0034
 1728SOL     OW 6643   4.301   2.974   2.905  0.2182 -0.3110 -0.0951
 1728SOL    HW2 6644   4.366   3.016   2.849  0.7441 -0.3820  0.4603
 1728SOL    HW3 6645   4.339   2.889   2.928 -0.3528 -0.6299 -0.2918
 1728SOL    MW4 6646   4.315   2.968   2.901  0.0629  0.6318 -0.2802
 1729SOL     OW 6647   4.259   0.910   2.242  0.0057  0.7678  0.0078
 1729SOL    HW2 6648   4.350   0.929   2.220  0.9712 -0.8010  2.2222
 1729SOL    HW3 6649   4.209   0.935   2.165  2.4923  0.1902 -1.8963
 1729SOL    MW4 6650   4.264   0.916   2.229 -0.2021 -0.0567  0.2676
 1730SOL     OW 6651   5.974   4.939   2.283 -0.1508 -0.1260  0.4368
 1730SOL    HW2 6652   6.027   4.941   2.204 -0.8302 -1.3569 -0.0797
 1730SOL    HW3 6653   6.035   4.917   2.353  0.5826  1.6393  0.4040
 1730SOL    MW4 6654   5.989   4.936   2.282  0.2989 -0.0679  0.3349
 1731SOL     OW 6655   2.950   6.388   5.649 -0.5431 -0.0013 -0.0771
 1731SOL    HW2 6656   2.894   6.458   5.681 -0.1231  0.3319 -0.0637
 1731SOL    HW3 6657   2.982   6.420   5.564 -2.3063 -1.2151 -1.2631
 1731SOL    MW4 6658   2.947   6.401   5.642 -0.5758  0.1505  0.2628
 1732SOL     OW 6659   2.625   5.155   1.605 -0.1440 -0.6863 -0.2189
 1732SOL    HW2 6660   2.674   5.146   1.687  0.6142 -0.8338 -0.6752
 1732SOL    HW3 6661   2.613   5.249   1.594 -0.7860 -0.6945  0.3655
 1732SOL    MW4 6662   2.630   5.166   1.615 -0.0403 -0.8396  0.5535
 1733SOL     OW 6663   5.365   1.993   5.050  0.1048 -0.2433  0.1276
 1733SOL    HW2 6664   5.288   1.950   5.012 -0.0412 -0.9537  1.1688
 1733SOL    HW3 6665   5.437   1.933   5.032  0.1637 -0.2352  0.3342
 1733SOL    MW4 6666   5.364   1.979   5.042  0.1265 -0.5775  0.4476
 1734SOL     OW 6667   5.684   3.716   0.989  0.1330 -0.2337 -0.7084
 1734SOL    HW2 6668   5.738   3.636   0.984 -0.2605 -0.5013 -0.7416
 1734SOL    HW3 6669   5.617   3.702   0.922 -0.8283 -0.5424  0.3018
 1734SOL    MW4 6670   5.682   3.703   0.980  0.6242 -0.2840  0.2562
 1735SOL     OW 6671   4.369   2.990   4.422 -0.2877 -0.1532  0.0306
 1735SOL    HW2 6672   4.306   3.061   4.435  1.1005  1.2859 -0.6202
 1735SOL    HW3 6673   4.358   2.934   4.499 -3.3211 -0.8156 -0.7604
 1735SOL    MW4 6674   4.360   2.992   4.434  0.0066 -0.2376 -0.1304
 1736SOL     OW 6675   3.623   1.400   3.928 -0.2816 -0.1461  0.0740
 1736SOL    HW2 6676   3.649   1.344   3.855 -3.8071 -0.8238 -0.8499
 1736SOL    HW3 6677   3.588   1.479   3.887 -0.4815  0.3321  1.1404
 1736SOL    MW4 6678   3.622   1.403   3.913 -0.0479 -0.2755  0.1951
 1737SOL     OW 6679   2.158   4.060   6.122 -0.3880  0.5795  0.8930
 1737SOL    HW2 6680   2.072   4.089   6.093 -0.4576 -0.8915 -0.4912
 1737SOL    HW3 6681   2.159   3.966   6.104  1.0944  0.3565  1.9580
 1737SOL    MW4 6682   2.147   4.051   6.116 -0.0439  0.3682  0.0214
 1738SOL     OW 6683   0.516   3.431   5.214 -1.1303  0.3585 -0.1355
 1738SOL    HW2 6684   0.492   3.344   5.245 -1.6541  0.5222 -0.0785
 1738SOL    HW3 6685   0.592   3.416   5.157 -0.7398 -0.0491  0.4751
 1738SOL    MW4 6686   0.523   3.417   5.211 -0.1099  0.0555  0.6063
 1739SOL     OW 6687   5.033   3.542   0.536  0.1665 -0.2031  0.3824
 1739SOL    HW2 6688   4.993   3.456   0.542  0.1150 -0.3304 -1.3440
 1739SOL    HW3 6689   4.972   3.600   0.582 -0.7077 -0.8000 -0.0031
 1739SOL    MW4 6690   5.020   3.538   0.543 -1.0060  0.4546  0.2619
 1740SOL     OW 6691   4.700   4.392   5.599 -0.2547  0.2132  0.4289
 1740SOL    HW2 6692   4.614   4.401   5.640 -0.1291 -1.3224  1.0908
 1740SOL    HW3 6693   4.758   4.363   5.669  0.4784 -0.2131 -0.3352
 1740SOL    MW4 6694   4.696   4.390   5.613  0.7276 -0.5486 -0.2761
 1741SOL     OW 6695   2.726   6.150   1.024  0.3071  0.9126 -0.4190
 1741SOL    HW2 6696   2.787   6.085   1.060 -0.6379 -1.3534 -2.6120
 1741SOL    HW3 6697   2.640   6.109   1.033 -0.4571  2.3424 -0.9285
 1741SOL    MW4 6698   2.722   6.136   1.030 -0.0106 -0.5664 -0.1817
 1742SOL     OW 6699   5.964   1.684   5.338  0.0675 -0.5794  0.0532
 1742SOL    HW2 6700   5.881   1.647   5.366  0.7543 -2.3324 -0.1426
 1742SOL    HW3 6701   5.983   1.642   5.254  1.2375 -0.3601  0.1902
 1742SOL    MW4 6702   5.956   1.674   5.331 -0.2280 -0.5362  0.2162
 1743SOL     OW 6703   5.334   2.051   2.051 -0.1670 -0.3112  0.3461
 1743SOL    HW2 6704   5.340   1.963   2.014 -1.1151  0.4711 -1.8370
 1743SOL    HW3 6705   5.391   2.104   1.995 -1.0033  0.7859  0.5030
 1743SOL    MW4 6706   5.343   2.047   2.039 -0.3647 -0.0643  0.0026
 1744SOL     OW 6707   3.769   2.389   1.925 -0.9633 -0.0971 -0.0437
 1744SOL    HW2 6708   3.798   2.429   2.008  0.4277 -1.0107 -0.0588
 1744SOL    HW3 6709   3.762   2.463   1.865 -3.0493  0.7417  1.1286
 1744SOL    MW4 6710   3.772   2.404   1.928  0.0844 -0.5637 -0.2534
 1745SOL     OW 6711   4.500   2.680   1.908  0.0879 -0.1541  0.5040
 1745SOL    HW2 6712   4.433   2.696   1.974 -1.2332 -1.3975 -0.4737
 1745SOL    HW3 6713   4.456   2.629   1.841  1.9314 -0.7139 -0.3535
 1745SOL    MW4 6714   4.486   2.675   1.908 -0.1175  0.3156 -0.3792
 1746SOL     OW 6715   2.143   2.911   3.685 -0.0430  0.1585 -0.5507
 1746SOL    HW2 6716   2.137   2.863   3.603  1.3600 -0.3263 -0.4087
 1746SOL    HW3 6717   2.211   2.977   3.669 -0.2732  0.5340 -0.0132
 1746SOL    MW4 6718   2.151   2.914   3.672  0.0187 -0.0437  0.3372
 1747SOL     OW 6719   2.601   1.423   3.120  0.3836  0.4130 -0.2840
 1747SOL    HW2 6720   2.513   1.401   3.152  0.5008 -4.1116 -2.3285
 1747SOL    HW3 6721   2.586   1.484   3.048 -1.0972 -0.1679 -0.5062
 1747SOL    MW4 6722   2.587   1.428   3.115 -0.6664  0.6004 -0.1289
 1748SOL     OW 6723   1.337   5.495   5.020 -0.0134 -0.1289 -0.1058
 1748SOL    HW2 6724   1.423   5.534   5.035 -0.2004  0.3118 -0.1615
 1748SOL    HW3 6725   1.348   5.403   5.042  0.4802 -0.0791 -0.1360
 1748SOL    MW4 6726   1.350   5.488   5.025 -0.4613 -0.3801  0.2346
 1749SOL     OW 6727   0.400   5.135   0.605 -0.2493 -1.3092 -0.5355
 1749SOL    HW2 6728   0.496   5.137   0.600 -0.2197 -0.3154  0.1669
 1749SOL    HW3 6729   0.381   5.093   0.689 -0.3990 -0.4957 -0.1536
 1749SOL    MW4 6730   0.410   5.130   0.615  0.5885  0.1441  0.1944
 1750SOL     OW 6731   1.460   4.367   3.604 -0.0837 -0.3662 -0.3119
 1750SOL    HW2 6732   1.449   4.280   3.566 -1.6037 -0.2216 -0.2557
 1750SOL    HW3 6733   1.402   4.423   3.552  0.5795  0.5409 -0.0941
 1750SOL    MW4 6734   1.451   4.363   3.592  0.4743 -0.5367 -0.8103
 1751SOL     OW 6735   5.375   6.150   3.999 -0.0354 -0.4836  0.6865
 1751SOL    HW2 6736   5.364   6.127   3.907  0.4126  1.0908  0.2227
 1751SOL    HW3 6737   5.338   6.075   4.046 -0.4270 -1.2399 -0.7553
 1751SOL    MW4 6738   5.369   6.137   3.993  0.2091 -0.0049  0.1110
 1752SOL     OW 6739   3.991   6.219   2.103 -0.0248 -0.1289  0.1457
 1752SOL    HW2 6740   3.928   6.189   2.168 -0.3061  0.5298  0.1930
 1752SOL    HW3 6741   3.995   6.314   2.116 -0.6409  0.1083 -1.2837
 1752SOL    MW4 6742   3.983   6.228   2.113 -0.6293 -0.2764 -0.4554
 1753SOL     OW 6743   1.906   3.660   1.568  0.4867  0.3521 -0.3530
 1753SOL    HW2 6744   1.988   3.628   1.529  0.2073 -2.2054  0.9633
 1753SOL    HW3 6745   1.837   3.614   1.520 -0.1099  1.0931 -0.2259
 1753SOL    MW4 6746   1.908   3.650   1.557 -0.6801 -0.6065 -0.1270
 1754SOL     OW 6747   5.525   4.963   0.900 -0.3289  0.1878  0.4935
 1754SOL    HW2 6748   5.573   5.044   0.914 -1.4551  0.5706  2.4686
 1754SOL    HW3 6749   5.525   4.951   0.805  0.5818  2.0267  0.2189
 1754SOL    MW4 6750   5.531   4.972   0.889 -0.1256 -0.0365 -0.3804
 1755SOL     OW 6751   0.447   6.096   0.935  0.0906 -0.1344 -0.0368
 1755SOL    HW2 6752   0.369   6.138   0.973  0.4559  0.7241 -0.2196
 1755SOL    HW3 6753   0.489   6.053   1.010  0.2244  0.6407  0.3493
 1755SOL    MW4 6754   0.442   6.096   0.950 -0.1387 -0.4097  0.1449
 1756SOL     OW 6755   6.112   2.531   2.066 -0.1715 -0.2655 -0.3130
 1756SOL    HW2 6756   6.134   2.445   2.030  0.3038 -0.0342 -0.5788
 1756SOL    HW3 6757   6.168   2.539   2.143  0.5044  0.2214 -0.8515
 1756SOL    MW4 6758   6.122   2.520   2.071 -0.4881 -0.0122  0.6017
 1757SOL     OW 6759   4.085   2.810   5.116  0.2201 -0.3510  0.6782
 1757SOL    HW2 6760   4.123   2.888   5.156 -0.3549 -0.4733  1.4837
 1757SOL    HW3 6761   4.147   2.786   5.047 -1.2121  2.8256 -1.9885
 1757SOL    MW4 6762   4.098   2.817   5.112  0.4997 -0.1517  0.4707
 1758SOL     OW 6763   4.306   2.418   0.948 -0.0764  0.2734  0.2206
 1758SOL    HW2 6764   4.247   2.359   0.996 -0.5429 -0.0083 -0.6673
 1758SOL    HW3 6765   4.344   2.363   0.880  1.3657  0.4155  0.8905
 1758SOL    MW4 6766   4.303   2.403   0.945  0.7829  0.1938 -0.8762
 1759SOL     OW 6767   0.252   4.826   1.052 -0.0237 -1.0714  0.1112
 1759SOL    HW2 6768   0.280   4.882   0.980 -1.5780  2.6298  2.1481
 1759SOL    HW3 6769   0.157   4.830   1.051 -0.0941 -0.9556  2.3118
 1759SOL    MW4 6770   0.243   4.834   1.042 -0.1339 -0.9578 -0.5292
 1760SOL     OW 6771   5.241   4.940   0.894 -0.3491 -0.8822  0.8318
 1760SOL    HW2 6772   5.335   4.955   0.904 -0.5783  0.4565  1.1499
 1760SOL    HW3 6773   5.235   4.852   0.858  1.0143 -1.1066  1.0865
 1760SOL    MW4 6774   5.252   4.930   0.891 -0.5260  0.1143 -0.5071
 1761SOL     OW 6775   1.366   5.935   3.968 -0.2350  0.0947 -0.2880
 1761SOL    HW2 6776   1.332   5.984   4.043  0.3434  0.5592 -0.3198
 1761SOL    HW3 6777   1.366   5.844   3.998  0.0590  0.2827  0.3058
 1761SOL    MW4 6778   1.361   5.929   3.982  0.0338 -0.2892  0.3286
 1762SOL     OW 6779   3.127   3.138   5.226 -0.1763 -0.3586 -0.0358
 1762SOL    HW2 6780   3.119   3.070   5.293  1.4504 -0.3826  0.1742
 1762SOL    HW3 6781   3.194   3.197   5.259  2.5671 -1.7027 -2.6328
 1762SOL    MW4 6782   3.135   3.137   5.239 -0.0160  0.0421 -0.3942
 1763SOL     OW 6783   6.183   4.325   4.476 -0.4527 -0.0767  0.6250
 1763SOL    HW2 6784   6.094   4.289   4.471 -0.1314 -0.9113  0.7512
 1763SOL    HW3 6785   6.172   4.419   4.460 -1.1400 -0.4511 -1.4648
 1763SOL    MW4 6786   6.170   4.333   4.473  0.2009  0.0185  0.6253
 1764SOL     OW 6787   2.447   0.237   2.810  0.3238 -0.0420  0.3662
 1764SOL    HW2 6788   2.398   0.247   2.728  1.1247  0.4549 -0.0644
 1764SOL    HW3 6789   2.432   0.146   2.835 -0.6454  0.0379  0.1396
 1764SOL    MW4 6790   2.438   0.226   2.802  0.2130  0.2797  0.2290
 1765SOL     OW 6791   6.362   4.004   2.029  0.4005 -0.4710 -0.5986
 1765SOL    HW2 6792   6.314   4.031   1.951 -0.5238 -0.7058 -0.1267
 1765SOL    HW3 6793   6.318   3.924   2.058  1.4597 -1.0276 -0.4835
 1765SOL    MW4 6794   6.350   3.997   2.023 -0.5412 -0.4083  0.4727
 1766SOL     OW 6795   2.831   4.405   1.115 -0.1013 -0.8141 -0.3768
 1766SOL    HW2 6796   2.779   4.425   1.193 -1.7126 -0.1292 -1.5712
 1766SOL    HW3 6797   2.873   4.488   1.092 -0.7215 -0.6599 -0.9931
 1766SOL    MW4 6798   2.829   4.418   1.122 -0.0774  0.0797 -0.2784
 1767SOL     OW 6799   4.549   4.686   4.971 -0.1380 -0.0406 -0.2440
 1767SOL    HW2 6800   4.580   4.775   4.987  0.0690 -0.2350  0.4510
 1767SOL    HW3 6801   4.466   4.697   4.925  0.5802  0.4954 -1.4634
 1767SOL    MW4 6802   4.542   4.699   4.967 -0.3917  0.4273  0.3491
 1768SOL     OW 6803   4.369   4.057   2.707 -0.0306 -0.5251  0.0596
 1768SOL    HW2 6804   4.369   3.966   2.736 -0.4815 -0.3649  0.5849
 1768SOL    HW3 6805   4.289   4.065   2.655  0.3210 -0.5810 -0.4976
 1768SOL    MW4 6806   4.358   4.046   2.704  0.1722 -0.3470 -0.5065
 1769SOL     OW 6807   3.822   0.379   0.514  0.1767  0.8724 -0.2850
 1769SOL    HW2 6808   3.772   0.301   0.537 -0.5635  1.7326  1.2428
 1769SOL    HW3 6809   3.776   0.416   0.438  0.5936 -0.2030 -1.0784
 1769SOL    MW4 6810   3.809   0.374   0.507  0.0443 -0.1201  0.2588
 1770SOL     OW 6811   3.889   0.634   3.488 -0.5840  0.0544 -0.5997
 1770SOL    HW2 6812   3.872   0.674   3.403 -0.6227  0.3265 -0.4651
 1770SOL    HW3 6813   3.841   0.551   3.486 -1.5459  0.5880 -0.4086
 1770SOL    MW4 6814   3.881   0.628   3.477 -0.0054 -0.0425  0.2574
 1771SOL     OW 6815   1.798   0.919   0.028  0.1209 -0.1626 -0.0859
 1771SOL    HW2 6816   1.804   0.890   0.119  0.2353 -2.3388 -0.7105
 1771SOL    HW3 6817   1.830   0.843  -0.022  1.2640  1.4203 -1.8862
 1771SOL    MW4 6818   1.803   0.905   0.033 -0.2038 -0.8145  0.2878
 1772SOL     OW 6819   5.822   3.436   1.952 -0.0262  0.0372 -0.0598
 1772SOL    HW2 6820   5.861   3.440   1.864 -0.0188  1.1920 -0.0201
 1772SOL    HW3 6821   5.731   3.463   1.939  0.1529  0.8975  0.3735
 1772SOL    MW4 6822   5.815   3.440   1.939  0.5148 -0.7920 -0.0358
 1773SOL     OW 6823   4.346   2.261   3.161 -0.0848  0.2601  0.1868
 1773SOL    HW2 6824   4.280   2.270   3.092 -0.7478  0.7930  0.8802
 1773SOL    HW3 6825   4.423   2.306   3.126 -0.4117  0.5216 -0.2094
 1773SOL    MW4 6826   4.347   2.268   3.147 -0.0252  0.0755  0.0352
 1774SOL     OW 6827   6.290   4.040   4.788 -0.2312 -0.3939  0.4792
 1774SOL    HW2 6828   6.330   3.953   4.796 -1.9116 -1.3068 -0.4977
 1774SOL    HW3 6829   6.336   4.081   4.715  0.1379 -0.7152  0.5267
 1774SOL    MW4 6830   6.301   4.034   4.780  0.2931 -0.1665 -0.2473
 1775SOL     OW 6831   5.607   1.961   2.252  0.4812  0.2579  0.1267
 1775SOL    HW2 6832   5.538   1.936   2.314  0.9554 -1.3033  0.0678
 1775SOL    HW3 6833   5.678   1.900   2.271  1.3090  0.9423 -0.7572
 1775SOL    MW4 6834   5.607   1.949   2.263  0.2364 -0.0800 -0.3323
 1776SOL     OW 6835   3.837   4.666   0.249  0.2946 -0.4150 -0.3510
 1776SOL    HW2 6836   3.857   4.582   0.289  0.1132 -0.5499 -0.5421
 1776SOL    HW3 6837   3.923   4.702   0.225  0.4135 -0.2600  0.2989
 1776SOL    MW4 6838   3.851   4.660   0.251  0.1315 -0.1202 -0.0149
 1777SOL     OW 6839   2.879   6.110   5.648  0.2352  0.1008  0.8193
 1777SOL    HW2 6840   2.963   6.078   5.615  0.8269 -0.7587  2.9438
 1777SOL    HW3 6841   2.894   6.204   5.663  0.4933  0.1513  0.2552
 1777SOL    MW4 6842   2.892   6.118   5.646 -0.1688 -0.2200  0.0642
 1778SOL     OW 6843   5.057   0.591   4.125 -0.0616  0.4678  0.3974
 1778SOL    HW2 6844   5.131   0.585   4.065  0.1311  0.5893  0.6203
 1778SOL    HW3 6845   5.060   0.510   4.176 -1.8731 -0.9927 -1.6165
 1778SOL    MW4 6846   5.067   0.579   4.124 -0.4554 -0.1460 -0.4878
 1779SOL     OW 6847   4.604   0.221   3.203  0.3200  0.4203 -0.0775
 1779SOL    HW2 6848   4.523   0.250   3.245  0.0637  0.4560 -0.5868
 1779SOL    HW3 6849   4.584   0.133   3.171  1.0916 -0.3648  1.4628
 1779SOL    MW4 6850   4.591   0.213   3.204  0.0368 -0.2799  0.5525
 1780SOL     OW 6851   0.672   2.419   5.887 -0.0063  0.0414 -0.1528
 1780SOL    HW2 6852   0.657   2.359   5.813  1.5068 -0.5898  0.0318
 1780SOL    HW3 6853   0.595   2.406   5.943 -2.8470  2.7576 -2.9604
 1780SOL    MW4 6854   0.660   2.410   5.885  0.3121  0.3141 -0.0157
 1781SOL     OW 6855   5.004   1.118   6.163 -0.1586  0.6277  0.0159
 1781SOL    HW2 6856   5.017   1.152   6.075 -0.3875  1.7063  0.3743
 1781SOL    HW3 6857   4.912   1.091   6.166  0.1882 -0.6785 -0.4683
 1781SOL    MW4 6858   4.993   1.119   6.152 -1.2122 -0.5090  0.4725
 1782SOL     OW 6859   4.304   2.310   5.937  0.2562 -0.0076 -0.2396
 1782SOL    HW2 6860   4.319   2.261   5.856  0.8439 -3.0332  1.5337
 1782SOL    HW3 6861   4.388   2.309   5.982 -0.0424  1.6850  0.4336
 1782SOL    MW4 6862   4.317   2.303   5.932 -0.1418 -0.0823  0.2465
 1783SOL     OW 6863   0.896   0.264   5.883  0.2442  0.0321  0.0736
 1783SOL    HW2 6864   0.890   0.188   5.940 -1.6526  0.4290  0.4613
 1783SOL    HW3 6865   0.890   0.339   5.943 -0.6612  0.4547 -0.5207
 1783SOL    MW4 6866   0.894   0.264   5.899 -0.3068  0.2217 -0.0425
 1784SOL     OW 6867   1.352   3.854   5.534  0.4723 -0.2993 -0.2477
 1784SOL    HW2 6868   1.341   3.924   5.469 -0.6009 -1.4317 -1.3377
 1784SOL    HW3 6869   1.263   3.826   5.554  0.5677  1.4557  3.4588
 1784SOL    MW4 6870   1.339   3.860   5.528  0.1464  0.4762  0.2701
 1785SOL     OW 6871   6.020   4.004   3.839 -0.6272  0.1566 -0.1692
 1785SOL    HW2 6872   5.928   4.033   3.839 -0.4305  0.8106  0.0641
 1785SOL    HW3 6873   6.040   3.990   3.747 -1.0015 -0.1089 -0.2104
 1785SOL    MW4 6874   6.010   4.006   3.827  0.0667  0.1562 -0.0099
 1786SOL     OW 6875   0.651   0.533   5.675  0.2105 -0.4066 -0.3053
 1786SOL    HW2 6876   0.569   0.566   5.639 -0.0284 -1.2455 -0.5474
 1786SOL    HW3 6877   0.639   0.439   5.679  0.8914 -0.4682  0.3546
 1786SOL    MW4 6878   0.639   0.525   5.670 -0.3362  0.0592  0.2369
 1787SOL     OW 6879   0.652   6.053   1.124 -0.3373 -0.4965 -0.3978
 1787SOL    HW2 6880   0.635   6.140   1.162 -2.2876 -1.2039  0.5183
 1787SOL    HW3 6881   0.747   6.043   1.128 -0.2640  0.0139  3.3353
 1787SOL    MW4 6882   0.662   6.063   1.130 -0.2920  0.5882 -0.5126
 1788SOL     OW 6883   3.946   3.507   3.803 -0.8624  0.1094  0.1578
 1788SOL    HW2 6884   3.871   3.530   3.749 -1.7707  0.1927  1.4263
 1788SOL    HW3 6885   3.909   3.472   3.884  0.4467  0.5671  1.0031
 1788SOL    MW4 6886   3.931   3.505   3.807  0.2476  0.2377  0.7078
 1789SOL     OW 6887   3.953   3.495   5.851 -0.5628 -0.2848 -0.5598
 1789SOL    HW2 6888   3.930   3.428   5.915 -1.8359 -0.8838 -1.6072
 1789SOL    HW3 6889   4.049   3.496   5.851 -0.5341 -1.2610  0.3275
 1789SOL    MW4 6890   3.963   3.487   5.859  0.3842 -0.2426  0.0433
 1790SOL     OW 6891   2.478   4.796   1.815 -0.0931  0.7719  0.2905
 1790SOL    HW2 6892   2.413   4.729   1.837  0.0153  0.5870  0.0431
 1790SOL    HW3 6893   2.430   4.879   1.821 -1.0181  0.5039 -2.2990
 1790SOL    MW4 6894   2.463   4.799   1.819  0.1886 -0.5014 -0.3556
 1791SOL     OW 6895   5.017   3.760   3.471  0.0706  0.4675 -0.4658
 1791SOL    HW2 6896   4.987   3.683   3.422  0.4151  1.1657 -1.8466
 1791SOL    HW3 6897   4.971   3.755   3.555 -0.1880 -1.0376 -0.6643
 1791SOL    MW4 6898   5.007   3.749   3.475 -0.7662 -0.2692  0.2776
 1792SOL     OW 6899   1.360   6.101   4.238 -0.2821 -0.5022  0.1925
 1792SOL    HW2 6900   1.405   6.070   4.317 -1.9483  0.8039  1.7568
 1792SOL    HW3 6901   1.276   6.134   4.270 -1.3015 -0.5093 -2.2497
 1792SOL    MW4 6902   1.354   6.101   4.253  0.4438 -0.3089 -0.0639
 1793SOL     OW 6903   5.623   1.519   2.542 -0.0042 -0.7486 -0.2513
 1793SOL    HW2 6904   5.600   1.554   2.628 -2.6930 -0.2208 -1.0765
 1793SOL    HW3 6905   5.682   1.447   2.561  2.6262  1.6983  1.7576
 1793SOL    MW4 6906   5.627   1.514   2.556 -0.2075 -0.0482 -0.4495
 1794SOL     OW 6907   0.214   3.247   3.496 -0.0139  0.1729  0.0044
 1794SOL    HW2 6908   0.247   3.309   3.561  0.3445 -0.7937  0.7779
 1794SOL    HW3 6909   0.124   3.275   3.479 -0.6585 -0.4467  2.0946
 1794SOL    MW4 6910   0.207   3.259   3.503  0.1033  0.0774  0.2411
 1795SOL     OW 6911   2.113   2.831   6.163  0.6428  0.1829 -0.0941
 1795SOL    HW2 6912   2.099   2.788   6.248 -0.5262  1.4048  0.3710
 1795SOL    HW3 6913   2.027   2.830   6.122  0.6292  1.8624 -0.1472
 1795SOL    MW4 6914   2.100   2.825   6.169 -0.1554  0.5328  0.5200
 1796SOL     OW 6915   4.550   5.283   3.964 -0.4090 -0.3685 -0.4197
 1796SOL    HW2 6916   4.587   5.258   3.879 -1.8204 -0.2027 -1.1173
 1796SOL    HW3 6917   4.573   5.376   3.973 -0.8651 -0.1946 -0.9689
 1796SOL    MW4 6918   4.558   5.292   3.954  0.1355  0.4886 -0.6733
 1797SOL     OW 6919   0.379   5.344   4.975 -0.1634  0.3690 -0.6048
 1797SOL    HW2 6920   0.348   5.327   4.886 -0.0710 -0.7024 -0.4447
 1797SOL    HW3 6921   0.448   5.279   4.990  1.5309  2.0686 -0.5936
 1797SOL    MW4 6922   0.384   5.333   4.965 -0.5523  0.3145  0.3946
 1798SOL     OW 6923   2.163   2.890   0.770  0.2615 -0.0748  0.1172
 1798SOL    HW2 6924   2.191   2.982   0.761  0.5167 -0.1204  0.4502
 1798SOL    HW3 6925   2.221   2.854   0.837  0.6856 -0.6943 -0.5634
 1798SOL    MW4 6926   2.175   2.898   0.777  0.0292 -0.0185 -0.2052
 1799SOL     OW 6927   2.327   5.443   4.105  0.2392  0.3643  0.4479
 1799SOL    HW2 6928   2.312   5.499   4.181  0.5809  1.1968 -0.0714
 1799SOL    HW3 6929   2.402   5.484   4.060 -0.5609  0.4672 -0.8560
 1799SOL    MW4 6930   2.335   5.456   4.109 -0.0248 -0.5264  0.0352
 1800SOL     OW 6931   2.805   2.951   1.540  0.1253 -0.4256  0.1924
 1800SOL    HW2 6932   2.807   2.958   1.635 -0.0360 -1.9570  0.3476
 1800SOL    HW3 6933   2.715   2.926   1.520 -0.0478  0.6692 -0.4436
 1800SOL    MW4 6934   2.794   2.948   1.550 -0.4190  0.4163 -0.5351
 1801SOL     OW 6935   4.295   0.219   1.959  0.0251  0.4037  0.2768
 1801SOL    HW2 6936   4.354   0.247   1.889 -1.8265  1.8841 -0.7658
 1801SOL    HW3 6937   4.210   0.207   1.916 -1.1648  1.3369  2.2438
 1801SOL    MW4 6938   4.291   0.221   1.944  0.6677  0.0634 -0.9363
 1802SOL     OW 6939   2.724   5.175   4.113  0.1022  0.4187 -0.2236
 1802SOL    HW2 6940   2.701   5.164   4.021  0.1610 -1.1883 -0.0764
 1802SOL    HW3 6941   2.814   5.207   4.112  0.9781 -1.8682 -0.7528
 1802SOL    MW4 6942   2.733   5.178   4.101  0.0703  0.1560  0.1348
 1803SOL     OW 6943   3.872   4.090   5.294  0.3726  0.0707  0.2711
 1803SOL    HW2 6944   3.843   4.113   5.205 -0.1222 -0.7878  0.2065
 1803SOL    HW3 6945   3.932   4.161   5.318  0.6684  0.2109 -0.8242
 1803SOL    MW4 6946   3.876   4.103   5.285 -0.3487 -0.1322  0.1026
 1804SOL     OW 6947   3.388   3.992   4.367  0.4982  0.0219 -0.4221
 1804SOL    HW2 6948   3.326   3.960   4.433  0.4943  1.1204  0.1342
 1804SOL    HW3 6949   3.364   3.945   4.287 -2.8349  2.2042 -0.9239
 1804SOL    MW4 6950   3.376   3.982   4.365  0.0815  0.2700 -0.5024
 1805SOL     OW 6951   0.939   4.700   3.818 -0.2553  0.4254 -0.0341
 1805SOL    HW2 6952   0.901   4.775   3.864 -0.0006  1.5392 -1.5272
 1805SOL    HW3 6953   0.934   4.628   3.880 -0.4187  1.7014  1.5064
 1805SOL    MW4 6954   0.933   4.701   3.832 -0.0477 -0.0960  0.2089
 1806SOL     OW 6955   6.134   3.159   1.280 -0.4315 -0.2617 -0.0543
 1806SOL    HW2 6956   6.211   3.117   1.242  0.7341  0.8964  0.9099
 1806SOL    HW3 6957   6.090   3.199   1.205  0.7803  0.3822 -0.4570
 1806SOL    MW4 6958   6.138   3.159   1.265  0.0104 -1.0211  0.3379
 1807SOL     OW 6959   4.714   0.799   3.504 -0.4566  0.3288  0.0623
 1807SOL    HW2 6960   4.804   0.830   3.493 -0.7971  1.2605 -0.1519
 1807SOL    HW3 6961   4.720   0.734   3.574  0.7508 -1.2796 -1.4341
 1807SOL    MW4 6962   4.727   0.794   3.512  0.3741 -0.2069  0.1608
 1808SOL     OW 6963   1.845   2.174   5.847  0.2103 -0.4019  0.2246
 1808SOL    HW2 6964   1.821   2.136   5.763  0.8099  2.3568 -1.2971
 1808SOL    HW3 6965   1.768   2.223   5.874 -0.1907 -1.7257  1.6595
 1808SOL    MW4 6966   1.832   2.175   5.840  0.2382 -0.2554 -0.4628
 1809SOL     OW 6967   0.016   5.160   5.816  0.1708  0.2691  0.1671
 1809SOL    HW2 6968   0.050   5.097   5.880 -1.1722 -2.6547 -1.7550
 1809SOL    HW3 6969  -0.079   5.151   5.822  0.0014  0.4034 -1.7162
 1809SOL    MW4 6970   0.008   5.150   5.825  0.0654 -0.7353  0.6046
 1810SOL     OW 6971   6.291   0.679   4.994 -0.2036 -0.0491  0.0853
 1810SOL    HW2 6972   6.308   0.611   4.930 -0.4822  0.2658 -0.3271
 1810SOL    HW3 6973   6.226   0.641   5.054 -0.1131 -0.2595  0.0493
 1810SOL    MW4 6974   6.285   0.665   4.994  0.1034 -0.1671  0.0023
 1811SOL     OW 6975   3.586   5.563   0.342  0.0335 -0.1598  0.3688
 1811SOL    HW2 6976   3.598   5.527   0.430  0.9808 -0.6413  0.0531
 1811SOL    HW3 6977   3.605   5.657   0.352 -1.0097  0.0088  0.8989
 1811SOL    MW4 6978   3.590   5.571   0.355  0.1405  0.1536 -0.0169
 1812SOL     OW 6979   0.524   1.612   1.720  0.1792 -0.9504  0.5266
 1812SOL    HW2 6980   0.619   1.624   1.716  0.3156 -2.1556 -0.3769
 1812SOL    HW3 6981   0.511   1.518   1.708 -1.1845 -0.6378 -0.7021
 1812SOL    MW4 6982   0.535   1.602   1.718 -0.6489  0.2398  0.3491
 1813SOL     OW 6983   6.275   2.838   5.234 -0.5306  0.0422 -0.8932
 1813SOL    HW2 6984   6.189   2.846   5.276  0.3029  0.7647  0.8008
 1813SOL    HW3 6985   6.272   2.754   5.189 -1.7491 -0.4766  0.0863
 1813SOL    MW4 6986   6.263   2.828   5.234  0.7765  0.0073  0.0807
 1814SOL     OW 6987   2.014   4.911   4.192  0.3406 -0.0490 -0.7975
 1814SOL    HW2 6988   2.047   4.884   4.106  1.7160  0.7060 -0.5312
 1814SOL    HW3 6989   2.078   4.975   4.223  0.0880 -0.6014  0.9712
 1814SOL    MW4 6990   2.027   4.916   4.185  0.7483 -0.3348  0.3542
 1815SOL     OW 6991   3.933   3.808   4.273 -0.1776 -0.3515  0.7001
 1815SOL    HW2 6992   3.905   3.822   4.183  0.1467  2.2814  0.9215
 1815SOL    HW3 6993   4.020   3.770   4.266 -1.2565 -2.8422 -0.0220
 1815SOL    MW4 6994   3.941   3.805   4.260  0.2074 -0.2795 -0.1448
 1816SOL     OW 6995   4.661   0.331   4.599 -0.5470  0.2511  0.2120
 1816SOL    HW2 6996   4.637   0.299   4.686  1.0714 -0.6709  0.3604
 1816SOL    HW3 6997   4.757   0.330   4.598 -0.5245  0.3043 -1.5686
 1816SOL    MW4 6998   4.671   0.327   4.610 -0.0029  0.3976 -0.1729
 1817SOL     OW 6999   4.166   0.769   5.916  0.5201  0.5957  0.0047
 1817SOL    HW2 7000   4.090   0.757   5.859 -0.0917  2.1487  0.4526
 1817SOL    HW3 7001   4.216   0.687   5.906 -0.3997  0.1643 -1.4852
 1817SOL    MW4 7002   4.163   0.756   5.907 -0.1526  0.6964  0.3105
 1818SOL     OW 7003   4.568   6.047   3.066  0.1984 -0.0039  0.3123
 1818SOL    HW2 7004   4.491   6.103   3.061 -0.6180 -0.6404  3.3598
 1818SOL    HW3 7005   4.534   5.959   3.050  0.6814 -0.0878 -0.2837
 1818SOL    MW4 7006   4.554   6.043   3.063  0.1280  0.1763 -0.1098
 1819SOL     OW 7007   3.531   4.217   0.455 -0.3466 -0.4413  0.5378
 1819SOL    HW2 7008   3.552   4.310   0.455 -1.4500 -0.1571 -0.4633
 1819SOL    HW3 7009   3.522   4.195   0.362  2.0191 -2.0899  0.6103
 1819SOL    MW4 7010   3.533   4.226   0.442 -0.1137 -0.6385  0.0530
 1820SOL     OW 7011   0.905   4.194   1.190 -0.0255  0.5817 -0.1613
 1820SOL    HW2 7012   0.900   4.270   1.131 -0.2484  1.1233  0.5504
 1820SOL    HW3 7013   0.884   4.229   1.276  1.0597 -0.0658  0.3778
 1820SOL    MW4 7014   0.902   4.209   1.193 -0.0442 -0.2357  0.1878
 1821SOL     OW 7015   3.715   5.987   0.659 -0.3384  0.5307 -0.0395
 1821SOL    HW2 7016   3.653   6.007   0.589 -2.1197 -2.8436  0.3520
 1821SOL    HW3 7017   3.694   6.050   0.728 -1.4669  1.2136 -0.9568
 1821SOL    MW4 7018   3.704   5.998   0.659  0.2481  0.0431 -0.3000
 1822SOL     OW 7019   4.284   1.018   4.521 -0.6063 -0.5497  0.0607
 1822SOL    HW2 7020   4.239   0.951   4.571  0.2343 -0.0547  1.5553
 1822SOL    HW3 7021   4.257   1.101   4.561 -0.7900 -0.0515 -1.0491
 1822SOL    MW4 7022   4.275   1.020   4.533 -0.3925 -0.1613 -0.2099
 1823SOL     OW 7023   3.698   3.463   1.904 -0.0215 -0.3539 -0.0658
 1823SOL    HW2 7024   3.760   3.519   1.951  0.0360  0.3849 -0.9811
 1823SOL    HW3 7025   3.694   3.501   1.817  1.0465 -2.6026 -1.1675
 1823SOL    MW4 7026   3.705   3.476   1.899  0.7222 -0.0833  0.2852
 1824SOL     OW 7027   3.620   2.331   5.927  0.1338  0.2419 -0.4589
 1824SOL    HW2 7028   3.569   2.357   5.850 -2.0282  0.2527  0.8871
 1824SOL    HW3 7029   3.693   2.280   5.892 -1.8972 -1.5025 -2.4186
 1824SOL    MW4 7030   3.623   2.328   5.912 -0.2581 -0.8285 -0.2820
 1825SOL     OW 7031   1.275   4.846   1.205  0.4223  0.3898 -0.2688
 1825SOL    HW2 7032   1.279   4.847   1.109 -0.1989  1.3963 -0.2972
 1825SOL    HW3 7033   1.322   4.925   1.232 -1.3639  1.3434  0.1514
 1825SOL    MW4 7034   1.282   4.856   1.196  0.3588  0.5061  0.1019
 1826SOL     OW 7035   4.701   2.343   0.283 -0.4692  0.0297  0.1306
 1826SOL    HW2 7036   4.640   2.376   0.349 -0.4434  1.6147 -0.5861
 1826SOL    HW3 7037   4.784   2.386   0.303 -0.2329 -0.1763 -0.3964
 1826SOL    MW4 7038   4.704   2.353   0.294 -0.2711 -0.0905 -0.5675
 1827SOL     OW 7039   2.224   1.719   5.808  0.3082 -0.4227  0.0560
 1827SOL    HW2 7040   2.152   1.668   5.844  1.3160 -2.3760 -0.5342
 1827SOL    HW3 7041   2.246   1.674   5.726  0.9088  1.3111 -0.7885
 1827SOL    MW4 7042   2.217   1.706   5.802  0.5083 -0.5555 -0.2958
 1828SOL     OW 7043   2.006   1.819   4.666 -0.3283  0.2278  0.2123
 1828SOL    HW2 7044   2.092   1.835   4.627  0.2897 -0.8221  1.0865
 1828SOL    HW3 7045   1.964   1.905   4.666  1.0132  0.9187  0.4227
 1828SOL    MW4 7046   2.012   1.833   4.661  0.2714 -0.1472  0.5014
 1829SOL     OW 7047   0.509   2.902   1.125 -0.1276 -1.0136  0.8343
 1829SOL    HW2 7048   0.526   2.812   1.099  1.1231 -0.7659  0.7139
 1829SOL    HW3 7049   0.596   2.942   1.131 -0.6144 -0.0319  1.6634
 1829SOL    MW4 7050   0.523   2.896   1.122  0.1699  0.3287  0.3535
 1830SOL     OW 7051   0.987   1.548   1.957  0.4361 -0.0431  0.8090
 1830SOL    HW2 7052   1.038   1.510   1.885  0.6093 -0.7622  1.2983
 1830SOL    HW3 7053   0.944   1.473   1.997  0.2327  0.3731  1.3723
 1830SOL    MW4 7054   0.988   1.533   1.952 -0.0827  0.2572  0.2822
 1831SOL     OW 7055   5.527   0.058   5.472  0.6369  0.0617 -0.0785
 1831SOL    HW2 7056   5.617   0.079   5.495  1.0690 -3.3565  2.0667
 1831SOL    HW3 7057   5.475   0.087   5.547 -0.3324  2.7916 -1.6522
 1831SOL    MW4 7058   5.532   0.065   5.485 -0.0395  0.1333  0.3090
 1832SOL     OW 7059   1.341   4.824   3.575  0.1583 -0.1407  0.3683
 1832SOL    HW2 7060   1.363   4.916   3.587 -0.9662  0.2950 -0.7557
 1832SOL    HW3 7061   1.408   4.791   3.516 -0.6783  0.5436 -1.0144
 1832SOL    MW4 7062   1.353   4.832   3.569  0.3853 -0.6009 -0.5800
 1833SOL     OW 7063   3.107   4.880   4.930 -0.1044 -0.3559  0.1531
 1833SOL    HW2 7064   3.023   4.885   4.976  0.3166 -0.3138  0.9303
 1833SOL    HW3 7065   3.122   4.786   4.918 -0.4457 -0.3499 -0.3300
 1833SOL    MW4 7066   3.098   4.868   4.935 -0.2165 -0.3523 -0.1116
 1834SOL     OW 7067   0.438   0.853   5.632 -0.4080 -0.1706  0.0457
 1834SOL    HW2 7068   0.410   0.762   5.623 -2.1327  0.4409 -1.2085
 1834SOL    HW3 7069   0.409   0.879   5.719 -0.1319 -0.7219  0.3122
 1834SOL    MW4 7070   0.431   0.844   5.642  0.1505 -0.5301 -0.0298
 1835SOL     OW 7071   3.614   6.424   2.525 -0.3064  0.2190  0.5256
 1835SOL    HW2 7072   3.560   6.502   2.512  0.1646  0.5475  0.5473
 1835SOL    HW3 7073   3.652   6.434   2.612  2.0583  1.4043 -0.5568
 1835SOL    MW4 7074   3.612   6.435   2.535  0.2520 -0.2568 -0.0967
 1836SOL     OW 7075   4.526   2.844   1.360  0.0958  0.0229 -0.2921
 1836SOL    HW2 7076   4.526   2.906   1.288  1.1990  0.5241  0.1233
 1836SOL    HW3 7077   4.619   2.826   1.378 -0.1746 -0.8786  0.3320
 1836SOL    MW4 7078   4.538   2.850   1.353 -0.0964 -0.4393 -0.2671
 1837SOL     OW 7079   2.706   1.951   2.356 -0.5615 -0.0334 -0.0126
 1837SOL    HW2 7080   2.796   1.920   2.366 -0.8072 -0.8485 -0.2595
 1837SOL    HW3 7081   2.710   2.044   2.380  0.5122  0.1711 -0.8538
 1837SOL    MW4 7082   2.719   1.959   2.360 -0.4624  0.0016 -0.2673
 1838SOL     OW 7083   5.026   1.487   5.895  0.2164 -0.0911 -0.4182
 1838SOL    HW2 7084   5.070   1.407   5.866  2.1675  1.0222 -0.6681
 1838SOL    HW3 7085   5.054   1.554   5.833  0.5511  1.2937  1.1501
 1838SOL    MW4 7086   5.035   1.485   5.883  0.2356  0.3142 -0.1413
 1839SOL     OW 7087   1.996   3.848   2.876  0.0496 -0.2989  0.1419
 1839SOL    HW2 7088   1.945   3.907   2.931  1.9140  0.5841  1.0088
 1839SOL    HW3 7089   1.992   3.888   2.789 -2.0464 -1.1511 -0.2343
 1839SOL    MW4 7090   1.988   3.861   2.872  0.0038  0.1657 -0.2739
 1840SOL     OW 7091   0.636   4.381   4.701 -0.0268  0.2825  0.2629
 1840SOL    HW2 7092   0.581   4.305   4.683 -0.6883  0.9343 -0.5594
 1840SOL    HW3 7093   0.635   4.432   4.620  1.9122  0.2569  0.1827
 1840SOL    MW4 7094   0.629   4.378   4.688 -0.1796  0.5932  0.1660
 1841SOL     OW 7095   4.127   3.179   5.945  0.4326 -0.3896  0.2980
 1841SOL    HW2 7096   4.124   3.084   5.958 -0.1581 -0.2402  1.3637
 1841SOL    HW3 7097   4.216   3.203   5.973  0.5066 -0.6001  0.2484
 1841SOL    MW4 7098   4.139   3.170   5.951  0.5529 -0.4390  0.4387
 1842SOL     OW 7099   5.474   4.732   1.049  0.1457 -0.6157  0.7942
 1842SOL    HW2 7100   5.495   4.806   0.992  0.0876 -1.5606 -0.5010
 1842SOL    HW3 7101   5.559   4.696   1.073  0.1752 -0.1303  1.4511
 1842SOL    MW4 7102   5.488   4.737   1.045 -0.1125 -0.1654 -0.4103
 1843SOL     OW 7103   4.567   2.590   4.955  0.3183  0.3503 -0.0338
 1843SOL    HW2 7104   4.584   2.684   4.963  0.3848  0.6487 -2.8836
 1843SOL    HW3 7105   4.519   2.581   4.873 -0.1108 -2.0763  0.4210
 1843SOL    MW4 7106   4.563   2.601   4.945  0.2418 -0.5468 -0.0723
 1844SOL     OW 7107   5.659   4.092   0.680  0.2190  0.2622  0.3324
 1844SOL    HW2 7108   5.606   4.119   0.755 -1.7490  1.0733 -1.2543
 1844SOL    HW3 7109   5.595   4.074   0.611  1.9970  1.3267 -1.7105
 1844SOL    MW4 7110   5.643   4.093   0.681 -0.3383 -0.2514 -0.2233
 1845SOL     OW 7111   3.006   2.094   0.086  1.0713 -0.4240 -0.4189
 1845SOL    HW2 7112   3.074   2.029   0.107  1.4429  0.4686  1.3272
 1845SOL    HW3 7113   2.972   2.121   0.171 -1.4965 -0.8227 -1.2496
 1845SOL    MW4 7114   3.011   2.089   0.100  0.1740 -0.1728  0.7807
 1846SOL     OW 7115   5.965   5.104   1.750  0.1729  0.0567 -0.1647
 1846SOL    HW2 7116   5.894   5.056   1.793  1.3771 -0.9336  0.8167
 1846SOL    HW3 7117   6.038   5.042   1.748  1.8920  1.8562  1.3930
 1846SOL    MW4 7118   5.965   5.090   1.756  0.5413  0.5065 -0.6105
 1847SOL     OW 7119   1.046   6.177   3.970  0.0919 -0.0301 -0.4051
 1847SOL    HW2 7120   1.062   6.181   4.065 -0.0256 -0.5366 -0.3618
 1847SOL    HW3 7121   0.975   6.239   3.955 -1.7015 -1.8302  0.2344
 1847SOL    MW4 7122   1.039   6.186   3.981  0.1627  0.4559  0.5177
 1848SOL     OW 7123   2.266   0.969   3.508 -0.3269  0.3066 -0.7842
 1848SOL    HW2 7124   2.237   0.950   3.597  0.5858  1.0957 -0.3042
 1848SOL    HW3 7125   2.325   0.897   3.487  0.7300  0.9594 -0.1231
 1848SOL    MW4 7126   2.270   0.957   3.517 -0.2047  0.2585  0.3456
 1849SOL     OW 7127   5.350   3.623   1.520  0.2000 -0.6375  0.3500
 1849SOL    HW2 7128   5.349   3.533   1.487 -0.0006 -0.0945 -1.1810
 1849SOL    HW3 7129   5.270   3.662   1.486  0.2563  0.1186  1.0543
 1849SOL    MW4 7130   5.339   3.616   1.511 -0.0416 -0.6815 -0.8223
 1850SOL     OW 7131   1.197   0.249   1.329 -0.4960 -0.3212 -0.2485
 1850SOL    HW2 7132   1.161   0.215   1.246  0.0131 -1.3459 -0.0669
 1850SOL    HW3 7133   1.167   0.187   1.395 -0.9509  0.5266  0.3575
 1850SOL    MW4 7134   1.188   0.236   1.326 -0.2452  1.3138 -0.2433
 1851SOL     OW 7135   2.157   2.405   2.217  0.3219  0.0698  0.2133
 1851SOL    HW2 7136   2.124   2.495   2.217 -0.4199 -0.1838 -1.1340
 1851SOL    HW3 7137   2.126   2.369   2.300 -0.8228  0.5497  0.0167
 1851SOL    MW4 7138   2.148   2.412   2.228  0.1395 -0.0427  0.5752
 1852SOL     OW 7139   3.091   0.920   3.694 -0.0388 -0.0674  0.3610
 1852SOL    HW2 7140   3.165   0.949   3.640  0.2419 -0.7361  0.3829
 1852SOL    HW3 7141   3.089   0.984   3.765  1.5230 -0.9214  1.2310
 1852SOL    MW4 7142   3.101   0.932   3.696  0.4586 -0.9801 -0.2647
 1853SOL     OW 7143   0.606   6.260   2.206  0.0457 -0.6845 -0.6886
 1853SOL    HW2 7144   0.621   6.246   2.299  0.3772 -2.4784 -0.9731
 1853SOL    HW3 7145   0.673   6.208   2.162 -0.6639 -0.5944 -1.9409
 1853SOL    MW4 7146   0.617   6.252   2.212 -0.4280 -0.3935 -0.1227
 1854SOL     OW 7147   4.129   5.549   4.298 -0.1163 -0.1180  0.1153
 1854SOL    HW2 7148   4.071   5.559   4.373 -0.4145 -0.4968 -0.0616
 1854SOL    HW3 7149   4.139   5.454   4.288  0.4638 -0.0583  0.0931
 1854SOL    MW4 7150   4.123   5.537   4.307  0.3818 -0.2197  0.3448
 1855SOL     OW 7151   1.410   0.450   3.826 -0.0314  0.7042  0.7198
 1855SOL    HW2 7152   1.464   0.515   3.781  0.5727 -0.1194  0.2342
 1855SOL    HW3 7153   1.469   0.377   3.844 -0.2629  0.9383  2.7774
 1855SOL    MW4 7154   1.425   0.449   3.823 -0.1555 -0.2889  0.0178
 1856SOL     OW 7155   3.208   5.702   4.939 -0.3820  0.3474 -0.0964
 1856SOL    HW2 7156   3.119   5.668   4.924  0.1534 -0.3326 -1.9075
 1856SOL    HW3 7157   3.264   5.625   4.932  0.3358  0.6915  1.5429
 1856SOL    MW4 7158   3.203   5.687   4.936 -0.2692  0.0037 -0.0749
 1857SOL     OW 7159   2.842   0.222   4.602 -0.0723  0.3867 -0.1392
 1857SOL    HW2 7160   2.766   0.215   4.544  0.3165 -0.2877 -0.5866
 1857SOL    HW3 7161   2.918   0.210   4.544  0.3506  0.3904  0.3986
 1857SOL    MW4 7162   2.842   0.219   4.587 -0.1507 -0.3997 -0.4450
 1858SOL     OW 7163   1.644   5.116   3.994  0.1053 -0.0695  0.1754
 1858SOL    HW2 7164   1.614   5.101   4.083 -0.0339 -1.3979 -0.0792
 1858SOL    HW3 7165   1.713   5.182   4.002 -0.1907  0.1197  1.2074
 1858SOL    MW4 7166   1.649   5.123   4.006 -0.3500  0.6126  0.5921
 1859SOL     OW 7167   3.283   5.909   3.066 -1.1702 -0.0858 -0.0985
 1859SOL    HW2 7168   3.193   5.880   3.084 -0.9775 -0.9046 -0.4078
 1859SOL    HW3 7169   3.272   5.978   3.000 -1.7134  1.3824  1.4711
 1859SOL    MW4 7170   3.269   5.914   3.059 -0.3720  0.0044 -0.5032
 1860SOL     OW 7171   5.610   2.399   5.706  0.1002  0.3960  0.2779
 1860SOL    HW2 7172   5.553   2.338   5.753  2.2909 -1.0146  1.2424
 1860SOL    HW3 7173   5.551   2.466   5.673 -2.0511 -0.7720  1.5536
 1860SOL    MW4 7174   5.595   2.400   5.707 -0.0163  0.3600  0.1072
 1861SOL     OW 7175   4.382   3.363   4.209  0.3204  0.1093 -0.1240
 1861SOL    HW2 7176   4.318   3.308   4.255 -2.0097  2.3289 -0.4918
 1861SOL    HW3 7177   4.435   3.403   4.278  0.8255 -1.1328  0.2339
 1861SOL    MW4 7178   4.380   3.361   4.224  0.2972 -0.3903 -0.9800
 1862SOL     OW 7179   2.039   2.414   4.077 -0.3962  1.0126 -0.2828
 1862SOL    HW2 7180   1.994   2.481   4.128 -2.0313  1.1523 -1.7941
 1862SOL    HW3 7181   2.028   2.441   3.986 -0.4992 -0.9361 -0.9065
 1862SOL    MW4 7182   2.032   2.426   4.071  0.4119 -0.2736  0.6072
 1863SOL     OW 7183   4.787   3.744   6.333 -0.4142 -0.5100  0.0766
 1863SOL    HW2 7184   4.707   3.696   6.355 -0.6097  0.0682  0.6338
 1863SOL    HW3 7185   4.839   3.681   6.283 -0.8076 -1.1953  0.5193
 1863SOL    MW4 7186   4.783   3.729   6.329  0.0597 -0.3515 -0.1387
 1864SOL     OW 7187   4.403   3.467   5.622  0.3761 -0.1995  0.3548
 1864SOL    HW2 7188   4.321   3.419   5.609 -0.2629  1.0745 -0.5589
 1864SOL    HW3 7189   4.470   3.399   5.631 -0.7913 -1.2825  1.3299
 1864SOL    MW4 7190   4.401   3.452   5.622  0.1180 -0.4365 -0.4007
 1865SOL     OW 7191   3.313   5.446   3.361 -0.0414 -0.1666  0.5890
 1865SOL    HW2 7192   3.295   5.532   3.324  0.5634 -0.7366 -1.1704
 1865SOL    HW3 7193   3.400   5.423   3.327  0.6975 -0.6513  2.6507
 1865SOL    MW4 7194   3.322   5.454   3.351 -0.0585  0.3018 -0.2505
 1866SOL     OW 7195   2.092   3.018   5.712 -0.2642  0.0168 -0.0000
 1866SOL    HW2 7196   1.999   3.006   5.728 -0.0340  1.2011  2.7236
 1866SOL    HW3 7197   2.130   2.931   5.720 -1.2215 -0.7768 -2.7532
 1866SOL    MW4 7198   2.085   3.005   5.715 -0.3340 -0.4038 -0.6532
 1867SOL     OW 7199   6.304   3.210   1.915  0.1399 -0.0528 -0.4113
 1867SOL    HW2 7200   6.253   3.228   1.994  0.2053 -0.5783 -0.2484
 1867SOL    HW3 7201   6.296   3.116   1.902 -3.0770  0.4458 -3.2442
 1867SOL    MW4 7202   6.296   3.200   1.924  0.6586 -0.4565 -0.4917
 1868SOL     OW 7203   3.216   5.884   1.242 -0.2286 -0.8215  0.4993
 1868SOL    HW2 7204   3.130   5.887   1.286  0.8543 -0.7648  2.7380
 1868SOL    HW3 7205   3.272   5.940   1.296  1.0816 -0.2673 -1.3357
 1868SOL    MW4 7206   3.212   5.892   1.255  0.1387 -0.1009 -0.1226
 1869SOL     OW 7207   1.378   6.138   3.282  0.8067 -0.1244 -0.6779
 1869SOL    HW2 7208   1.351   6.202   3.348  1.0837 -0.4207 -0.2724
 1869SOL    HW3 7209   1.439   6.081   3.328 -0.8857 -1.8683 -0.4566
 1869SOL    MW4 7210   1.382   6.139   3.297 -0.4150  0.0516  0.6871
 1870SOL     OW 7211   1.848   1.688   4.457  0.0703 -0.0567  0.0346
 1870SOL    HW2 7212   1.893   1.730   4.530 -1.8741  2.5607 -0.1139
 1870SOL    HW3 7213   1.850   1.753   4.387 -1.5417 -0.8908 -0.8411
 1870SOL    MW4 7214   1.854   1.702   4.458 -0.4895  0.3545  0.6959
 1871SOL     OW 7215   3.726   0.358   4.101 -0.5989  0.0313  0.1172
 1871SOL    HW2 7216   3.759   0.410   4.028 -0.3712 -1.6574 -1.0293
 1871SOL    HW3 7217   3.792   0.371   4.170 -0.0103  0.4135 -0.5022
 1871SOL    MW4 7218   3.739   0.367   4.101  0.0809  0.3663 -0.2945
 1872SOL     OW 7219   1.908   2.124   1.568 -0.0639 -0.2297  0.0279
 1872SOL    HW2 7220   1.962   2.199   1.593 -0.4482 -0.3096  1.1378
 1872SOL    HW3 7221   1.902   2.130   1.472 -0.9592  1.7702  0.1494
 1872SOL    MW4 7222   1.915   2.135   1.558 -0.0607  0.0885 -0.8566
 1873SOL     OW 7223   4.162   0.648   3.202 -0.0282 -0.3919  0.2350
 1873SOL    HW2 7224   4.186   0.627   3.292 -1.3084 -1.3264  0.3807
 1873SOL    HW3 7225   4.066   0.658   3.204  0.0229  0.5624 -0.8337
 1873SOL    MW4 7226   4.152   0.647   3.214 -0.6729  0.0016 -0.1849
 1874SOL     OW 7227   1.013   0.327   4.269  0.3006 -0.0579 -0.1492
 1874SOL    HW2 7228   1.100   0.357   4.297  0.9930 -0.7228 -1.4577
 1874SOL    HW3 7229   0.962   0.320   4.349  0.9175  2.0012  0.4834
 1874SOL    MW4 7230   1.018   0.330   4.283 -0.1454 -0.5705 -0.2650
 1875SOL     OW 7231   6.116   5.116   3.686 -0.2403 -0.1949  0.1584
 1875SOL    HW2 7232   6.202   5.076   3.697  0.6180  1.7195  0.7385
 1875SOL    HW3 7233   6.054   5.043   3.691  1.2774 -1.4760  0.7086
 1875SOL    MW4 7234   6.119   5.101   3.688  0.0066 -0.4242 -0.2073
 1876SOL     OW 7235   0.042   4.507   0.974 -0.1515  0.0845  0.5938
 1876SOL    HW2 7236   0.126   4.496   0.928 -0.4669 -2.4703  0.4816
 1876SOL    HW3 7237  -0.009   4.430   0.950 -0.9682 -0.5910  3.9104
 1876SOL    MW4 7238   0.046   4.495   0.965  0.4599  0.2811 -0.0227
 1877SOL     OW 7239   3.591   3.978   5.319  0.6693 -0.2182 -0.1551
 1877SOL    HW2 7240   3.557   4.050   5.371 -1.8383 -0.6518 -1.0678
 1877SOL    HW3 7241   3.685   3.995   5.313  0.6210  1.2772  2.1890
 1877SOL    MW4 7242   3.599   3.990   5.325 -0.4874  0.4790 -0.2809
 1878SOL     OW 7243   0.557   5.595   4.254  0.3902  0.0375  0.2936
 1878SOL    HW2 7244   0.611   5.558   4.324  0.4927 -0.6668 -0.1453
 1878SOL    HW3 7245   0.478   5.542   4.255  0.2420  0.2543  0.1034
 1878SOL    MW4 7246   0.554   5.583   4.263  0.0747  0.1631  0.1104
 1879SOL     OW 7247   5.101   0.354   4.803 -0.4541 -0.1485  0.4252
 1879SOL    HW2 7248   5.174   0.295   4.784 -1.7612 -1.4991 -0.6164
 1879SOL    HW3 7249   5.143   0.436   4.831  1.4596 -0.7050 -0.6441
 1879SOL    MW4 7250   5.116   0.357   4.804  0.2617  0.4454 -0.2042
 1880SOL     OW 7251   3.379   4.735   3.256 -0.1917  0.3516  0.0152
 1880SOL    HW2 7252   3.412   4.791   3.326 -0.2335  0.1417  0.2053
 1880SOL    HW3 7253   3.433   4.656   3.260 -2.4447 -1.2719  2.2129
 1880SOL    MW4 7254   3.390   4.732   3.266  0.2107 -0.8911  0.1973
 1881SOL     OW 7255   0.087   5.605   1.223 -0.7080  0.4750  0.4544
 1881SOL    HW2 7256   0.038   5.618   1.142 -0.1804  2.6108  0.4449
 1881SOL    HW3 7257   0.156   5.543   1.200 -0.7462  0.8364 -0.6553
 1881SOL    MW4 7258   0.089   5.598   1.209 -0.0419 -0.3413  0.2754
 1882SOL     OW 7259   1.004   3.950   6.224  0.3486 -0.8661 -0.2970
 1882SOL    HW2 7260   1.040   4.009   6.290 -0.9431 -0.5644  0.1686
 1882SOL    HW3 7261   0.997   4.004   6.145  1.0384 -0.9750 -0.4422
 1882SOL    MW4 7262   1.008   3.965   6.222 -0.0318  0.8292 -0.2685
 1883SOL     OW 7263   0.038   1.085   1.744 -0.5205 -0.2413 -0.9369
 1883SOL    HW2 7264  -0.041   1.136   1.723 -0.5379  0.8679  1.4063
 1883SOL    HW3 7265   0.094   1.148   1.789  0.6563 -1.6469 -0.3956
 1883SOL    MW4 7266   0.035   1.100   1.747  0.3290 -0.6133  0.1250
 1884SOL     OW 7267   5.820   4.901   1.215 -0.0378 -0.5148 -0.4412
 1884SOL    HW2 7268   5.910   4.886   1.185  1.4809 -0.3368  3.4105
 1884SOL    HW3 7269   5.771   4.824   1.185  2.1014 -2.0473 -0.2353
 1884SOL    MW4 7270   5.825   4.889   1.207  0.8625  0.3911  0.2453
 1885SOL     OW 7271   4.717   4.887   1.679 -0.2624 -0.3798 -0.2573
 1885SOL    HW2 7272   4.632   4.930   1.675  0.1554  0.4123 -0.8670
 1885SOL    HW3 7273   4.768   4.927   1.608  1.6645  1.4643  1.9695
 1885SOL    MW4 7274   4.713   4.898   1.669  0.3469 -0.6916 -0.6587
 1886SOL     OW 7275   2.169   0.196   6.151 -0.4212 -0.2597 -0.3743
 1886SOL    HW2 7276   2.189   0.249   6.073  0.5774 -1.5695 -1.0399
 1886SOL    HW3 7277   2.076   0.209   6.165 -0.2537  1.4858 -0.6537
 1886SOL    MW4 7278   2.160   0.205   6.142 -0.2086  0.3621  0.2901
 1887SOL     OW 7279   6.315   5.892   5.555  0.3021  0.0553 -0.8590
 1887SOL    HW2 7280   6.304   5.821   5.492  0.5493  0.3937 -1.2806
 1887SOL    HW3 7281   6.357   5.851   5.631  2.6380  0.1986 -1.9919
 1887SOL    MW4 7282   6.319   5.877   5.557 -0.1919  0.1443 -0.0500
 1888SOL     OW 7283   3.131   1.417   0.139  0.4827  0.2440 -0.2057
 1888SOL    HW2 7284   3.046   1.437   0.100  0.4733 -0.2246 -0.4308
 1888SOL    HW3 7285   3.195   1.442   0.073  0.6241  2.2996  0.6520
 1888SOL    MW4 7286   3.129   1.423   0.125 -0.0389 -0.1129 -0.0006
 1889SOL     OW 7287   4.979   4.026   2.235  0.8220  0.0930  0.6047
 1889SOL    HW2 7288   4.970   3.970   2.157  2.5370  0.1492  0.3302
 1889SOL    HW3 7289   5.006   3.966   2.304 -0.0073  0.1618  0.9980
 1889SOL    MW4 7290   4.981   4.010   2.233 -0.0749  0.0830  0.0901
 1890SOL     OW 7291   2.975   0.319   3.965 -0.4580 -0.2422  0.1466
 1890SOL    HW2 7292   2.920   0.289   3.893 -1.9011 -1.8971  1.8353
 1890SOL    HW3 7293   3.027   0.242   3.989  0.6962  0.5506  0.3068
 1890SOL    MW4 7294   2.975   0.305   3.959 -0.6458  0.7708  0.3453
 1891SOL     OW 7295   3.756   1.788   2.411  0.0598  0.0235 -0.2254
 1891SOL    HW2 7296   3.840   1.752   2.381  0.1671 -0.8181  1.0012
 1891SOL    HW3 7297   3.693   1.755   2.347  0.4775 -0.5149 -0.3753
 1891SOL    MW4 7298   3.759   1.779   2.398  0.5195 -0.0050  0.0189
 1892SOL     OW 7299   3.224   3.033   3.350 -0.0896  0.4736  0.1269
 1892SOL    HW2 7300   3.134   3.007   3.332  0.2189 -1.8365  1.4584
 1892SOL    HW3 7301   3.265   3.038   3.264 -0.9630 -0.7159 -0.3870
 1892SOL    MW4 7302   3.218   3.030   3.336 -0.5910 -0.2028  0.0192
 1893SOL     OW 7303   3.081   2.571   0.820  0.1290  0.1294  0.3772
 1893SOL    HW2 7304   3.166   2.582   0.862  0.9459  0.9028 -1.3595
 1893SOL    HW3 7305   3.036   2.655   0.832 -0.0953 -0.0230  0.6337
 1893SOL    MW4 7306   3.086   2.584   0.827 -0.0343 -0.1712  0.1930
 1894SOL     OW 7307   1.861   0.988   4.393  0.0659 -0.3669 -0.0578
 1894SOL    HW2 7308   1.929   0.943   4.342 -0.0283 -0.4753 -0.0890
 1894SOL    HW3 7309   1.880   0.965   4.484  0.0011 -0.4955 -0.0758
 1894SOL    MW4 7310   1.872   0.979   4.398 -0.0328  0.7233 -0.2586
 1895SOL     OW 7311   2.255   1.848   4.564 -0.0079 -0.3527  0.5205
 1895SOL    HW2 7312   2.301   1.877   4.642  0.1853 -0.2654  0.3753
 1895SOL    HW3 7313   2.257   1.753   4.568 -0.6375 -0.3568  0.9966
 1895SOL    MW4 7314   2.261   1.840   4.575  0.6015 -0.1965 -0.1796
 1896SOL     OW 7315   0.761   0.087   1.254  0.2694  0.0243 -0.3976
 1896SOL    HW2 7316   0.704   0.164   1.252 -0.7590 -0.7266 -1.7506
 1896SOL    HW3 7317   0.700   0.013   1.265  1.3497 -0.5425  2.8431
 1896SOL    MW4 7318   0.745   0.087   1.255  0.0320  0.2154  0.8806
 1897SOL     OW 7319   2.470   2.785   5.992 -0.2959  0.4211 -0.0603
 1897SOL    HW2 7320   2.548   2.798   5.938  0.6163 -0.7192  0.9352
 1897SOL    HW3 7321   2.439   2.698   5.969 -0.5867  0.3980  0.4098
 1897SOL    MW4 7322   2.476   2.775   5.982 -0.2475 -0.1612  0.6563
 1898SOL     OW 7323   0.046   1.079   5.150 -0.1941  0.0067 -0.0707
 1898SOL    HW2 7324   0.068   0.987   5.134  0.1813  0.3958 -2.0186
 1898SOL    HW3 7325  -0.040   1.090   5.108  0.4206  0.8809 -1.1224
 1898SOL    MW4 7326   0.037   1.068   5.142 -0.6473 -0.6510  0.6732
 1899SOL     OW 7327   1.413   5.010   6.353  0.1776 -0.2908  0.3682
 1899SOL    HW2 7328   1.388   4.920   6.370  1.1129 -0.5916  0.2227
 1899SOL    HW3 7329   1.498   5.019   6.396  0.1296  0.4976  0.3114
 1899SOL    MW4 7330   1.421   5.000   6.361  0.0518  0.0119 -0.3103
 1900SOL     OW 7331   6.412   0.609   0.186 -0.3087  0.2325  0.0737
 1900SOL    HW2 7332   6.464   0.599   0.266  0.1341  3.0144  0.2319
 1900SOL    HW3 7333   6.448   0.544   0.126 -0.9118 -2.2075  2.2128
 1900SOL    MW4 7334   6.424   0.599   0.189  0.3060  0.1916  0.3348
 1901SOL     OW 7335   3.072   6.054   0.851  0.0809  0.2188 -0.3667
 1901SOL    HW2 7336   3.146   6.110   0.872 -0.8929  1.8463 -1.1159
 1901SOL    HW3 7337   3.016   6.107   0.794 -1.2930 -1.2300 -0.4550
 1901SOL    MW4 7338   3.074   6.068   0.846  0.1706 -0.5113  0.1344
 1902SOL     OW 7339   3.324   0.900   0.501 -0.6633  0.0142 -0.0529
 1902SOL    HW2 7340   3.233   0.895   0.531 -0.8220  0.3451 -0.4669
 1902SOL    HW3 7341   3.373   0.929   0.578 -0.3965 -3.1685  1.1021
 1902SOL    MW4 7342   3.318   0.903   0.515  0.1995 -0.1496  0.1028
 1903SOL     OW 7343   3.991   5.891   4.856  0.4628 -0.3033 -0.2774
 1903SOL    HW2 7344   4.042   5.963   4.821 -0.1611 -0.5273 -1.7206
 1903SOL    HW3 7345   3.902   5.906   4.824 -0.4956  0.1785  2.3231
 1903SOL    MW4 7346   3.986   5.902   4.847  0.1788 -0.1495 -0.0216
 1904SOL     OW 7347   3.320   5.516   4.610 -0.7718  0.6102  0.6213
 1904SOL    HW2 7348   3.236   5.471   4.614  0.3054 -1.4920  1.0392
 1904SOL    HW3 7349   3.377   5.458   4.559  1.0532  0.8130  2.2796
 1904SOL    MW4 7350   3.317   5.503   4.604  0.4116  1.0575  0.6162
 1905SOL     OW 7351   5.890   2.495   2.205 -0.0476  0.1898 -0.0715
 1905SOL    HW2 7352   5.809   2.537   2.177 -1.3448 -3.0064 -1.6110
 1905SOL    HW3 7353   5.947   2.500   2.128 -0.3186 -0.9896 -0.3717
 1905SOL    MW4 7354   5.887   2.501   2.191 -0.0103 -0.5917  0.1722
 1906SOL     OW 7355   6.411   0.114   5.233 -0.1277 -0.2226 -0.1416
 1906SOL    HW2 7356   6.348   0.080   5.170 -0.7642  1.2203 -0.3258
 1906SOL    HW3 7357   6.375   0.088   5.318 -1.4503  1.2567 -0.1989
 1906SOL    MW4 7358   6.398   0.106   5.236  0.3326  0.2511 -0.1322
 1907SOL     OW 7359   1.534   5.950   3.497  0.3186  0.2052  0.4528
 1907SOL    HW2 7360   1.457   5.893   3.489  0.2612  0.4243 -0.7154
 1907SOL    HW3 7361   1.545   5.962   3.591 -0.1755 -1.0503  0.6977
 1907SOL    MW4 7362   1.525   5.944   3.508  0.4681  0.0459 -0.3908
 1908SOL     OW 7363   0.504   1.454   3.539 -0.1516  0.7276  0.7436
 1908SOL    HW2 7364   0.483   1.528   3.481 -1.8364 -0.2550  0.0513
 1908SOL    HW3 7365   0.558   1.397   3.485  0.5726  1.1003  1.0573
 1908SOL    MW4 7366   0.509   1.457   3.524  0.2707  0.6992 -0.5509
 1909SOL     OW 7367   0.379   5.187   5.415  0.1330 -0.3207  0.1738
 1909SOL    HW2 7368   0.354   5.129   5.486 -0.1389  1.0327  1.2160
 1909SOL    HW3 7369   0.444   5.246   5.454 -0.3383  0.7160 -0.5771
 1909SOL    MW4 7370   0.384   5.187   5.429 -0.5994 -0.1254 -0.7877
 1910SOL     OW 7371   5.845   3.972   0.992  0.0225 -0.7307 -0.2198
 1910SOL    HW2 7372   5.847   3.881   0.964 -0.1537 -0.3643 -1.4888
 1910SOL    HW3 7373   5.901   4.018   0.929  0.0628  0.0522  0.3617
 1910SOL    MW4 7374   5.853   3.966   0.980  0.5276  0.9294 -0.3823
 1911SOL     OW 7375   3.691   1.756   5.895  0.4918 -0.0521 -0.2119
 1911SOL    HW2 7376   3.704   1.680   5.839  0.5060 -0.2952  0.1190
 1911SOL    HW3 7377   3.757   1.747   5.964  2.2509  1.5963 -1.5576
 1911SOL    MW4 7378   3.701   1.745   5.897 -0.5189  0.4843 -0.1527
 1912SOL     OW 7379   1.648   2.938   4.354 -0.4301 -0.1940  0.2362
 1912SOL    HW2 7380   1.708   3.010   4.373 -0.5218 -0.2995  0.9315
 1912SOL    HW3 7381   1.634   2.944   4.259 -0.5531  0.7883  0.3042
 1912SOL    MW4 7382   1.654   2.949   4.344  0.4277 -0.8112 -0.8321
 1913SOL     OW 7383   5.096   0.527   3.702 -0.3678 -0.9170  0.3384
 1913SOL    HW2 7384   5.187   0.516   3.673  0.3323  0.6106  1.7500
 1913SOL    HW3 7385   5.043   0.508   3.625  1.2538  0.3217 -1.1700
 1913SOL    MW4 7386   5.101   0.523   3.688  0.1586 -0.1301 -0.0647
 1914SOL     OW 7387   2.533   6.309   1.562 -0.2976 -0.2646  0.2476
 1914SOL    HW2 7388   2.466   6.261   1.611 -0.5481 -0.5261 -0.3494
 1914SOL    HW3 7389   2.599   6.331   1.628 -0.8882 -0.1447  0.8093
 1914SOL    MW4 7390   2.533   6.306   1.578 -0.2591 -0.5342 -0.2034
 1915SOL     OW 7391   3.443   5.278   4.836 -0.2292  0.4088 -0.5035
 1915SOL    HW2 7392   3.415   5.274   4.744 -0.2169  0.7394 -0.5226
 1915SOL    HW3 7393   3.416   5.193   4.873 -1.1899  0.6737 -0.5480
 1915SOL    MW4 7394   3.436   5.266   4.829  0.1197 -0.0299 -0.1459
 1916SOL     OW 7395   5.410   1.901   0.408  0.5303 -0.2059 -0.2759
 1916SOL    HW2 7396   5.369   1.842   0.471 -1.0959  1.0149 -0.0937
 1916SOL    HW3 7397   5.458   1.964   0.462 -1.4632  1.2850 -0.0872
 1916SOL    MW4 7398   5.411   1.902   0.424 -0.4049 -0.1494  0.2189
 1917SOL     OW 7399   5.475   5.032   4.568 -0.6660 -0.1052  0.0507
 1917SOL    HW2 7400   5.509   5.097   4.630  0.7682 -0.1618 -0.6358
 1917SOL    HW3 7401   5.380   5.040   4.575 -0.5257  1.3859  0.6852
 1917SOL    MW4 7402   5.467   5.041   4.577  0.3335 -0.2851 -0.0667
 1918SOL     OW 7403   5.892   2.124   0.193 -0.3721  0.7632  0.1627
 1918SOL    HW2 7404   5.832   2.130   0.267  0.2862  2.8917  0.5726
 1918SOL    HW3 7405   5.835   2.116   0.117 -1.0726 -0.4669  0.7827
 1918SOL    MW4 7406   5.877   2.123   0.193 -0.1159 -0.1998  0.4979
 1919SOL     OW 7407   6.329   5.765   5.076 -0.0339 -0.0096 -0.4143
 1919SOL    HW2 7408   6.344   5.744   5.168 -1.3310 -0.4986 -0.2993
 1919SOL    HW3 7409   6.336   5.681   5.030  0.9786  0.2804 -0.8424
 1919SOL    MW4 7410   6.332   5.751   5.082 -0.8770 -0.2418  0.1722
 1920SOL     OW 7411   5.413   5.298   0.455 -0.1925 -0.7036  0.1851
 1920SOL    HW2 7412   5.364   5.327   0.532 -1.7760 -1.0884 -0.6349
 1920SOL    HW3 7413   5.470   5.372   0.433 -1.0693  0.1249  0.6460
 1920SOL    MW4 7414   5.414   5.311   0.462  0.5399  0.2508 -0.0638
 1921SOL     OW 7415   4.184   3.321   6.289  0.4751 -0.4610 -0.4773
 1921SOL    HW2 7416   4.098   3.354   6.262  0.9696  0.4763 -0.9229
 1921SOL    HW3 7417   4.164   3.258   6.358 -0.5727 -0.2301 -0.5523
 1921SOL    MW4 7418   4.170   3.317   6.295  0.6073  0.3990  0.2302
 1922SOL     OW 7419   0.901   0.476   6.083  0.3544 -0.4245 -0.0401
 1922SOL    HW2 7420   0.973   0.539   6.092 -0.1332  0.0902  0.3229
 1922SOL    HW3 7421   0.869   0.463   6.172 -0.5673  0.0218 -0.3030
 1922SOL    MW4 7422   0.907   0.483   6.096  0.0550  0.5417  0.2134
 1923SOL     OW 7423   3.763   4.353   4.457  0.3245 -0.1395  0.0041
 1923SOL    HW2 7424   3.733   4.434   4.499  2.6853  0.9410 -0.2028
 1923SOL    HW3 7425   3.695   4.289   4.476 -0.3102  1.1730  2.5995
 1923SOL    MW4 7426   3.750   4.356   4.465 -0.0246 -0.5233  0.2241
 1924SOL     OW 7427   1.731   3.583   3.189  0.0158  0.3593  0.4492
 1924SOL    HW2 7428   1.685   3.667   3.194 -0.7296  0.1287 -1.4186
 1924SOL    HW3 7429   1.812   3.603   3.142  0.6636  0.3116  1.5156
 1924SOL    MW4 7430   1.735   3.597   3.183 -0.0046  0.4985 -0.6258
 1925SOL     OW 7431   6.023   0.875   5.547 -0.0194  0.5341  0.4527
 1925SOL    HW2 7432   6.116   0.897   5.548  0.0029  0.4436  0.5829
 1925SOL    HW3 7433   5.978   0.957   5.527  0.1422  0.3616 -0.6524
 1925SOL    MW4 7434   6.029   0.888   5.545  0.3070  0.2453 -0.2521
 1926SOL     OW 7435   1.813   4.266   1.275 -0.0343 -0.2003  0.4096
 1926SOL    HW2 7436   1.732   4.248   1.227  0.3026 -0.6008 -0.0160
 1926SOL    HW3 7437   1.826   4.360   1.263  0.6818 -0.4780 -1.3396
 1926SOL    MW4 7438   1.804   4.276   1.267  0.0592 -0.5151  0.3785
 1927SOL     OW 7439   1.432   2.822   3.606  0.0191  0.1089  0.2101
 1927SOL    HW2 7440   1.354   2.791   3.652 -0.9157  1.3868 -0.4411
 1927SOL    HW3 7441   1.399   2.888   3.545  1.6555  0.9130  0.1410
 1927SOL    MW4 7442   1.417   2.827   3.604 -0.2851 -0.4209  0.2648
 1928SOL     OW 7443   1.202   5.776   1.471 -0.3621 -0.6528  0.2103
 1928SOL    HW2 7444   1.148   5.746   1.545  0.1850 -0.3120  0.7502
 1928SOL    HW3 7445   1.217   5.697   1.419 -1.1079 -0.8166  0.2238
 1928SOL    MW4 7446   1.197   5.762   1.474 -0.5744  0.0547 -0.0936
 1929SOL     OW 7447   2.288   3.297   3.858 -0.7096 -0.2194 -0.0945
 1929SOL    HW2 7448   2.297   3.247   3.778 -0.5574  2.9009 -2.2175
 1929SOL    HW3 7449   2.195   3.290   3.880 -1.8205  2.2770 -3.1774
 1929SOL    MW4 7450   2.277   3.290   3.850 -0.7649 -0.0956 -0.1665
 1930SOL     OW 7451   2.497   1.153   3.796 -0.1255 -0.2389 -0.3567
 1930SOL    HW2 7452   2.571   1.104   3.831  0.4285  0.9502  0.1815
 1930SOL    HW3 7453   2.535   1.211   3.730 -0.4578  0.8560  0.3951
 1930SOL    MW4 7454   2.512   1.154   3.792  0.4552  0.3107 -0.2644
 1931SOL     OW 7455   1.604   4.680   5.216 -0.7493  0.1572  0.2545
 1931SOL    HW2 7456   1.617   4.693   5.122  2.0197  0.8158  0.6367
 1931SOL    HW3 7457   1.528   4.734   5.237 -0.2828  1.5388 -1.3132
 1931SOL    MW4 7458   1.596   4.689   5.206  0.1047 -0.5907  0.0791
 1932SOL     OW 7459   1.977   5.825   5.297 -0.1124 -0.3028 -0.6157
 1932SOL    HW2 7460   1.956   5.914   5.270 -0.3842 -0.4564 -0.9201
 1932SOL    HW3 7461   1.910   5.771   5.255  0.5689 -0.7410 -1.1623
 1932SOL    MW4 7462   1.966   5.830   5.288  0.2930  0.2591 -0.4205
 1933SOL     OW 7463   1.785   3.449   2.160 -0.7689  0.2876 -0.1874
 1933SOL    HW2 7464   1.877   3.466   2.142 -0.7638 -0.5821 -1.0376
 1933SOL    HW3 7465   1.768   3.363   2.121 -2.3824  1.2221 -1.7024
 1933SOL    MW4 7466   1.795   3.440   2.152  0.1224  0.2399  0.3575
 1934SOL     OW 7467   4.504   1.254   2.640 -0.1076 -0.2860  1.0724
 1934SOL    HW2 7468   4.514   1.269   2.546  0.4077  1.3116  1.3530
 1934SOL    HW3 7469   4.589   1.276   2.677  0.7196 -3.9040  1.6534
 1934SOL    MW4 7470   4.516   1.259   2.632  0.0267  0.0835  0.0078
 1935SOL     OW 7471   4.012   0.414   2.543  0.1192  0.3371  0.0341
 1935SOL    HW2 7472   4.072   0.346   2.515 -0.2553 -0.1700  0.4355
 1935SOL    HW3 7473   4.063   0.495   2.541  1.0677 -0.2083  1.2011
 1935SOL    MW4 7474   4.026   0.416   2.539  0.1679  0.2121  0.2064
 1936SOL     OW 7475   2.304   5.232   5.508 -0.8269  0.2122  0.3209
 1936SOL    HW2 7476   2.390   5.274   5.518 -2.1785  3.1484  0.7758
 1936SOL    HW3 7477   2.273   5.261   5.422 -1.4525 -0.6529  0.2465
 1936SOL    MW4 7478   2.312   5.241   5.498  0.1191  0.3542  1.1723
 1937SOL     OW 7479   5.197   3.473   4.640 -0.0423 -0.3026 -0.0723
 1937SOL    HW2 7480   5.288   3.489   4.663  0.6278  0.8939 -3.0305
 1937SOL    HW3 7481   5.202   3.421   4.560 -1.6347  3.4775 -2.9495
 1937SOL    MW4 7482   5.210   3.469   4.632  0.1125  0.3100 -0.1805
 1938SOL     OW 7483   5.725   5.084   4.095  0.1769  0.1952 -0.0992
 1938SOL    HW2 7484   5.806   5.074   4.044  1.3533  2.3738  1.1820
 1938SOL    HW3 7485   5.684   5.162   4.059 -1.2924 -0.7403 -0.5546
 1938SOL    MW4 7486   5.731   5.093   4.084 -0.1621 -0.2424  0.3974
 1939SOL     OW 7487   0.432   0.913   4.271  0.2653 -0.2650 -0.1941
 1939SOL    HW2 7488   0.426   0.817   4.269 -0.9385 -0.2034 -0.4943
 1939SOL    HW3 7489   0.465   0.933   4.358 -2.3339 -0.8734  1.0554
 1939SOL    MW4 7490   0.435   0.903   4.282 -0.6198  0.1509 -0.4441
 1940SOL     OW 7491   3.546   0.621   3.445 -0.2262 -0.5148  0.4130
 1940SOL    HW2 7492   3.567   0.708   3.411 -2.7108 -0.2894 -0.7203
 1940SOL    HW3 7493   3.624   0.569   3.426  1.3488  1.4333  1.1960
 1940SOL    MW4 7494   3.559   0.625   3.438 -0.2246 -0.1355  0.3324
 1941SOL     OW 7495   2.573   4.784   2.951  0.1670  0.0257  0.1448
 1941SOL    HW2 7496   2.566   4.826   3.037  2.3132  2.5072 -0.7761
 1941SOL    HW3 7497   2.634   4.711   2.965 -0.4872 -0.3828  0.9506
 1941SOL    MW4 7498   2.581   4.780   2.964  0.1599  0.1745 -0.0481
 1942SOL     OW 7499   2.783   4.467   3.957  0.2458 -0.0914 -0.4577
 1942SOL    HW2 7500   2.697   4.505   3.977 -1.2515 -3.2050 -0.3950
 1942SOL    HW3 7501   2.803   4.498   3.869 -0.7578  1.0122 -0.3244
 1942SOL    MW4 7502   2.774   4.476   3.948 -0.2319  0.1308 -0.3454
 1943SOL     OW 7503   5.116   2.422   0.121 -0.0934  0.7310  0.1832
 1943SOL    HW2 7504   5.181   2.381   0.064 -0.6985  1.7035 -1.2552
 1943SOL    HW3 7505   5.166   2.484   0.175  0.2518  1.0632 -0.5107
 1943SOL    MW4 7506   5.131   2.425   0.121  0.0983 -0.0121  0.6906
 1944SOL     OW 7507   5.654   0.327   2.180 -0.5862 -0.4244  0.4776
 1944SOL    HW2 7508   5.559   0.335   2.190 -0.8605 -2.7682  0.1928
 1944SOL    HW3 7509   5.667   0.312   2.087 -0.0036 -0.9758  0.6478
 1944SOL    MW4 7510   5.643   0.326   2.169  0.0884 -0.5231  0.9252
 1945SOL     OW 7511   3.614   0.205   3.593  0.0558 -0.5012 -0.3763
 1945SOL    HW2 7512   3.544   0.144   3.568  0.8891 -1.1987 -1.0642
 1945SOL    HW3 7513   3.577   0.254   3.667 -0.2326 -2.7192  1.0666
 1945SOL    MW4 7514   3.600   0.203   3.600 -0.1515 -0.1298  0.2626
 1946SOL     OW 7515   6.216   2.539   2.331 -0.1755  0.1811 -0.1120
 1946SOL    HW2 7516   6.227   2.477   2.403  1.5122 -0.2759 -0.7130
 1946SOL    HW3 7517   6.133   2.584   2.350 -0.8954 -1.4806  0.9102
 1946SOL    MW4 7518   6.206   2.536   2.343  0.1780 -0.2262  0.8272
 1947SOL     OW 7519   4.434   1.432   3.626 -0.4280 -0.5171 -0.1212
 1947SOL    HW2 7520   4.422   1.347   3.584  0.2214 -0.0997 -1.1999
 1947SOL    HW3 7521   4.358   1.442   3.683 -0.8106 -1.5636 -0.4304
 1947SOL    MW4 7522   4.423   1.422   3.628  0.4280  0.0442 -0.1557
 1948SOL     OW 7523   5.605   0.035   2.673 -0.4161 -0.1341  0.2515
 1948SOL    HW2 7524   5.599   0.130   2.681 -0.0350 -0.1580  0.9890
 1948SOL    HW3 7525   5.686   0.020   2.626  0.0881 -0.1107  1.0904
 1948SOL    MW4 7526   5.615   0.046   2.668 -0.4145 -0.5535 -0.1269
 1949SOL     OW 7527   6.211   5.520   2.512 -0.0367  0.0475 -0.8647
 1949SOL    HW2 7528   6.180   5.497   2.600  0.7964 -0.8320 -0.7821
 1949SOL    HW3 7529   6.136   5.562   2.470 -0.9171 -0.8380 -0.2287
 1949SOL    MW4 7530   6.197   5.523   2.518  0.3209  0.3857  0.0814
 1950SOL     OW 7531   5.294   2.041   6.398 -0.1325  0.1520  0.0172
 1950SOL    HW2 7532   5.321   1.967   6.453  0.2839  0.5574  0.3671
 1950SOL    HW3 7533   5.199   2.042   6.404 -0.1233 -0.1697  0.2537
 1950SOL    MW4 7534   5.285   2.031   6.406  0.0485  0.1911 -0.6675
 1951SOL     OW 7535   4.224   0.549   0.916 -0.2574  0.3873  0.2491
 1951SOL    HW2 7536   4.138   0.592   0.912  1.0997  3.2714 -1.4406
 1951SOL    HW3 7537   4.227   0.494   0.838 -0.8455 -0.3684  0.7487
 1951SOL    MW4 7538   4.213   0.548   0.905  0.2978 -0.1869 -0.1084
 1952SOL     OW 7539   1.220   4.360   0.228  0.1141 -0.0350 -0.8526
 1952SOL    HW2 7540   1.234   4.268   0.204 -1.1556 -0.6922  0.7830
 1952SOL    HW3 7541   1.167   4.356   0.307 -3.9484  2.1389 -3.1519
 1952SOL    MW4 7542   1.215   4.347   0.235  0.2329 -0.3330 -0.0134
 1953SOL     OW 7543   2.675   2.897   2.263 -0.1391 -0.6757 -0.0791
 1953SOL    HW2 7544   2.722   2.922   2.343 -0.5012  0.7211 -0.2772
 1953SOL    HW3 7545   2.669   2.978   2.212 -1.5631 -1.1143 -0.6699
 1953SOL    MW4 7546   2.680   2.911   2.267  0.5014 -0.2322 -0.5550
 1954SOL     OW 7547   0.364   4.287   5.464  0.1815  0.1245  0.4454
 1954SOL    HW2 7548   0.404   4.227   5.527  0.5458  1.0297  1.1058
 1954SOL    HW3 7549   0.292   4.238   5.426 -0.9094 -0.0448  2.5546
 1954SOL    MW4 7550   0.360   4.273   5.467  0.1015  0.4190  0.1872
 1955SOL     OW 7551   5.176   4.534   1.866 -0.2271 -0.7136 -0.2408
 1955SOL    HW2 7552   5.255   4.580   1.896 -1.0446  1.1937 -0.8401
 1955SOL    HW3 7553   5.177   4.544   1.771 -2.5328  1.8388 -0.1190
 1955SOL    MW4 7554   5.186   4.542   1.857  0.3281  0.1650  0.0373
 1956SOL     OW 7555   4.060   0.063   5.705  0.4163 -0.1532  0.3331
 1956SOL    HW2 7556   4.100  -0.016   5.742 -0.5472 -0.6315  0.3795
 1956SOL    HW3 7557   4.066   0.128   5.775 -0.8182 -0.8638  1.1439
 1956SOL    MW4 7558   4.066   0.061   5.719  0.3942  0.3068  0.1744
 1957SOL     OW 7559   4.800   6.394   2.244 -0.0504 -0.0908 -0.0037
 1957SOL    HW2 7560   4.706   6.375   2.249 -0.1274  0.4055  0.6040
 1957SOL    HW3 7561   4.833   6.334   2.178 -0.1958 -2.6480  2.0721
 1957SOL    MW4 7562   4.792   6.384   2.236 -0.3259  0.0999  0.4154
 1958SOL     OW 7563   3.168   1.172   6.402 -0.2805 -0.1511  0.2301
 1958SOL    HW2 7564   3.165   1.100   6.466 -2.4209 -0.4950 -0.1739
 1958SOL    HW3 7565   3.173   1.251   6.455  0.1733 -0.5132  0.7429
 1958SOL    MW4 7566   3.168   1.173   6.417  0.1504  0.1176  0.0470
 1959SOL     OW 7567   1.959   0.593   4.316  0.1441 -0.2071  0.5593
 1959SOL    HW2 7568   2.011   0.620   4.240  0.2111 -0.9444  0.3323
 1959SOL    HW3 7569   1.958   0.497   4.311 -2.4150 -0.2002 -0.2286
 1959SOL    MW4 7570   1.966   0.584   4.305 -0.7254  0.1711 -0.1077
 1960SOL     OW 7571   4.506   3.068   5.777  0.7233 -0.5298 -0.1759
 1960SOL    HW2 7572   4.525   3.160   5.755  0.0388 -0.4676 -0.5378
 1960SOL    HW3 7573   4.410   3.064   5.784  0.6263 -1.5186 -1.6047
 1960SOL    MW4 7574   4.496   3.080   5.775  0.1322 -0.2085  0.8158
 1961SOL     OW 7575   1.333   3.204   0.804 -0.4795 -0.5093  0.0807
 1961SOL    HW2 7576   1.325   3.109   0.800 -1.8394 -0.3978 -0.6413
 1961SOL    HW3 7577   1.291   3.235   0.723 -2.1691  0.7794  1.3555
 1961SOL    MW4 7578   1.326   3.196   0.792 -0.4619 -0.1267  0.4083
 1962SOL     OW 7579   0.940   1.097   1.164  0.2153 -0.0240 -0.5210
 1962SOL    HW2 7580   1.002   1.044   1.213 -0.2726 -1.0891 -1.0174
 1962SOL    HW3 7581   0.877   1.127   1.229  0.9230  0.5968 -0.1107
 1962SOL    MW4 7582   0.940   1.094   1.179  0.2239  0.1992 -0.4505
 1963SOL     OW 7583   2.759   5.808   2.926  0.2380  0.3196 -0.2383
 1963SOL    HW2 7584   2.791   5.835   2.840 -0.6988  2.3441  0.0003
 1963SOL    HW3 7585   2.720   5.887   2.964  0.3060 -0.5968  1.9167
 1963SOL    MW4 7586   2.758   5.822   2.920  0.0175 -0.1624  0.0601
 1964SOL     OW 7587   5.501   4.565   2.452  0.0607  0.5581  0.1286
 1964SOL    HW2 7588   5.512   4.558   2.547  0.4249  0.5983  0.0925
 1964SOL    HW3 7589   5.422   4.617   2.441 -1.8683 -2.1340  0.4012
 1964SOL    MW4 7590   5.492   4.571   2.463 -0.2319  0.4085  0.1287
 1965SOL     OW 7591   3.653   0.996   4.417  0.1328 -0.0654  0.1882
 1965SOL    HW2 7592   3.622   0.915   4.456 -0.3050  0.1532  0.2985
 1965SOL    HW3 7593   3.594   1.012   4.343  0.8913 -0.4272 -0.5223
 1965SOL    MW4 7594   3.641   0.988   4.412 -0.2453  0.0833 -0.6350
 1966SOL     OW 7595   0.035   4.653   4.522 -0.1740  0.0921 -0.1742
 1966SOL    HW2 7596   0.076   4.720   4.468  1.7489 -1.6628 -1.0196
 1966SOL    HW3 7597   0.060   4.676   4.612  0.4782  0.4848 -0.4512
 1966SOL    MW4 7598   0.044   4.665   4.527  0.8464  0.8009 -0.1127
 1967SOL     OW 7599   1.530   6.242   1.901 -0.1487  0.1362  0.1688
 1967SOL    HW2 7600   1.561   6.223   1.812 -0.1149  1.9241 -0.2366
 1967SOL    HW3 7601   1.602   6.215   1.957  0.7794  1.0978 -0.5273
 1967SOL    MW4 7602   1.544   6.236   1.896 -0.1427 -0.1108 -0.2562
 1968SOL     OW 7603   4.467   0.069   4.083 -0.2901 -0.6049  0.0155
 1968SOL    HW2 7604   4.561   0.049   4.072 -0.2163  0.4525 -1.6754
 1968SOL    HW3 7605   4.427   0.036   4.002 -0.8333  1.9259 -0.8192
 1968SOL    MW4 7606   4.474   0.062   4.071  0.4801 -0.3760  0.9234
 1969SOL     OW 7607   4.106   4.885   6.355 -0.1349 -0.0414 -0.6353
 1969SOL    HW2 7608   4.191   4.893   6.312  0.4560  0.0354  0.5015
 1969SOL    HW3 7609   4.044   4.923   6.293  0.6811  0.0646 -1.4094
 1969SOL    MW4 7610   4.109   4.891   6.341 -0.6459  0.2038  0.2946
 1970SOL     OW 7611   4.465   1.438   5.132  0.4031  0.0025 -0.1583
 1970SOL    HW2 7612   4.551   1.456   5.170 -0.7816  1.1530  2.2338
 1970SOL    HW3 7613   4.449   1.346   5.153  0.6419  0.0644  0.3142
 1970SOL    MW4 7614   4.474   1.428   5.140 -0.4524 -0.4440  0.1277
 1971SOL     OW 7615   4.934   1.773   0.151 -0.1490 -0.2278 -0.2527
 1971SOL    HW2 7616   4.902   1.815   0.230  0.9747  0.9922 -0.4155
 1971SOL    HW3 7617   4.897   1.684   0.154  1.0407 -0.7172  2.3863
 1971SOL    MW4 7618   4.925   1.766   0.162  0.3597  0.0064  0.1148
 1972SOL     OW 7619   5.766   0.491   0.830 -0.1816 -0.4946 -0.2059
 1972SOL    HW2 7620   5.727   0.573   0.860 -0.5172 -0.6959 -0.0904
 1972SOL    HW3 7621   5.741   0.486   0.737  0.2603 -0.2233 -0.3452
 1972SOL    MW4 7622   5.757   0.501   0.822 -0.3874  0.4660 -0.1688
 1973SOL     OW 7623   0.771   2.749   0.150 -0.0584  0.0509 -0.0528
 1973SOL    HW2 7624   0.781   2.663   0.190 -0.8032 -0.5895 -1.2012
 1973SOL    HW3 7625   0.860   2.781   0.140  0.1889 -0.1528  1.2522
 1973SOL    MW4 7626   0.784   2.742   0.154 -0.8123  0.2045  0.7836
 1974SOL     OW 7627   3.393   4.737   0.100 -0.2156  0.8461  0.6520
 1974SOL    HW2 7628   3.343   4.743   0.019  0.3908 -1.4243  0.0195
 1974SOL    HW3 7629   3.336   4.690   0.160  0.2750  0.2376  0.6619
 1974SOL    MW4 7630   3.379   4.731   0.097 -0.4420  0.1041  0.0219
 1975SOL     OW 7631   5.531   5.641   0.001 -0.1851  0.4333 -0.7655
 1975SOL    HW2 7632   5.453   5.642  -0.054  1.2144  1.6721 -2.9225
 1975SOL    HW3 7633   5.593   5.586  -0.048  0.6281  0.3294  0.3527
 1975SOL    MW4 7634   5.529   5.634  -0.013 -0.1836 -0.5542  0.2306
 1976SOL     OW 7635   5.229   1.059   2.894  0.7895 -0.0226 -0.5709
 1976SOL    HW2 7636   5.256   1.135   2.946  0.0892 -1.6623  2.4422
 1976SOL    HW3 7637   5.133   1.060   2.898  0.7347 -0.4151 -1.5453
 1976SOL    MW4 7638   5.220   1.069   2.902 -0.0035  0.8174 -0.4068
 1977SOL     OW 7639   4.960   1.156   5.596 -0.5229 -0.1620  0.2237
 1977SOL    HW2 7640   4.927   1.240   5.627 -1.2682 -0.4880  0.3168
 1977SOL    HW3 7641   5.010   1.121   5.669  0.3480  0.4879 -0.0367
 1977SOL    MW4 7642   4.963   1.163   5.610  0.1533 -0.0129  0.5853
 1978SOL     OW 7643   0.604   1.807   2.988 -0.2830  0.0916  0.2422
 1978SOL    HW2 7644   0.688   1.789   2.946  1.1831  1.6841  2.2982
 1978SOL    HW3 7645   0.579   1.894   2.955  0.8930  1.3682  2.4711
 1978SOL    MW4 7646   0.612   1.816   2.978  0.0901  0.2386  0.2078
 1979SOL     OW 7647   2.722   0.023   4.807  0.3209  0.1125  1.1542
 1979SOL    HW2 7648   2.645  -0.010   4.762  0.4224 -0.0639  1.1089
 1979SOL    HW3 7649   2.757   0.090   4.748  0.2309  0.1595  1.1533
 1979SOL    MW4 7650   2.716   0.027   4.793  0.6381  0.3614  0.0122
 1980SOL     OW 7651   3.637   5.887   4.435 -0.2658  0.0400  0.2749
 1980SOL    HW2 7652   3.584   5.946   4.382  0.4525  0.6479  0.2228
 1980SOL    HW3 7653   3.574   5.822   4.467 -0.8920  0.2542 -0.4677
 1980SOL    MW4 7654   3.621   5.886   4.432  0.1069 -0.1960  0.3459
 1981SOL     OW 7655   6.061   0.614   5.168 -0.3106 -0.1307 -0.4849
 1981SOL    HW2 7656   5.995   0.570   5.115 -0.2854  0.2726 -0.8528
 1981SOL    HW3 7657   6.034   0.706   5.168 -0.4630 -0.1674  0.4241
 1981SOL    MW4 7658   6.048   0.621   5.161  0.0569  0.2949 -0.3265
 1982SOL     OW 7659   0.366   5.000   0.857  0.1900 -0.4594 -0.1096
 1982SOL    HW2 7660   0.382   5.080   0.907  0.3775 -0.6653  0.1624
 1982SOL    HW3 7661   0.452   4.958   0.851  0.4128  0.1297 -1.6059
 1982SOL    MW4 7662   0.380   5.005   0.863  0.2395  0.3376  0.7567
 1983SOL     OW 7663   0.856   1.543   3.196  0.2402 -0.4309 -0.4597
 1983SOL    HW2 7664   0.917   1.564   3.125 -0.3965  0.6002 -0.7340
 1983SOL    HW3 7665   0.912   1.532   3.273  0.7525  0.8545 -0.6256
 1983SOL    MW4 7666   0.872   1.544   3.197 -0.8167  0.1744  0.5612
 1984SOL     OW 7667   3.141   4.500   1.135  0.1713 -0.1526  0.3585
 1984SOL    HW2 7668   3.226   4.496   1.092 -0.1991  0.4066 -0.4620
 1984SOL    HW3 7669   3.111   4.409   1.138  0.7726 -0.3442  0.6039
 1984SOL    MW4 7670   3.148   4.488   1.130 -0.5744 -0.2831 -0.6041
 1985SOL     OW 7671   1.013   0.311   5.606 -0.0977 -0.2038 -0.6721
 1985SOL    HW2 7672   1.012   0.217   5.590 -1.4796 -0.0404 -1.6252
 1985SOL    HW3 7673   0.970   0.321   5.691  1.4937 -0.5284  0.2210
 1985SOL    MW4 7674   1.008   0.300   5.615 -0.4463 -0.0519 -0.4034
 1986SOL     OW 7675   0.371   2.394   4.147  0.0701 -0.0386  0.1247
 1986SOL    HW2 7676   0.300   2.453   4.122 -1.2127 -0.8590  1.6433
 1986SOL    HW3 7677   0.333   2.306   4.138  1.5874 -0.6232 -1.0467
 1986SOL    MW4 7678   0.356   2.390   4.143  0.3787  0.2539 -0.0698
 1987SOL     OW 7679   3.227   4.424   5.216 -0.0921  1.0523  0.3955
 1987SOL    HW2 7680   3.167   4.481   5.263 -0.4311  1.3183 -0.3525
 1987SOL    HW3 7681   3.171   4.372   5.158  0.5010  2.4517 -1.5363
 1987SOL    MW4 7682   3.212   4.424   5.214  0.7846 -0.0069 -0.5158
 1988SOL     OW 7683   5.450   2.209   6.067 -0.1057  0.2483 -0.2173
 1988SOL    HW2 7684   5.445   2.208   5.971 -0.5729 -0.7733 -0.1964
 1988SOL    HW3 7685   5.413   2.125   6.094 -0.6039  0.8036  0.8998
 1988SOL    MW4 7686   5.445   2.197   6.058 -0.1836  0.3022 -0.6624
 1989SOL     OW 7687   6.410   5.628   0.925 -0.4494  0.1145  0.1490
 1989SOL    HW2 7688   6.394   5.712   0.882  0.5553 -0.4880 -1.4894
 1989SOL    HW3 7689   6.457   5.577   0.860 -0.9687 -1.7044  1.1405
 1989SOL    MW4 7690   6.414   5.633   0.910 -0.2712  0.1304 -0.1054
 1990SOL     OW 7691   3.164   2.846   4.112  0.3811 -0.2529 -0.3961
 1990SOL    HW2 7692   3.139   2.798   4.192  1.6680  0.9155  0.7615
 1990SOL    HW3 7693   3.141   2.787   4.041  2.1429 -2.7568  0.9532
 1990SOL    MW4 7694   3.158   2.832   4.113 -0.4542 -0.1840  0.0521
 1991SOL     OW 7695   1.863   5.886   2.726 -0.2022  0.0765  0.1255
 1991SOL    HW2 7696   1.955   5.912   2.720 -0.2277  0.4625  1.3081
 1991SOL    HW3 7697   1.829   5.898   2.637  0.9238 -0.2085 -0.3510
 1991SOL    MW4 7698   1.871   5.891   2.713  0.5124  0.6673 -0.2551
 1992SOL     OW 7699   2.428   5.557   0.175 -0.6812  1.3417  0.2743
 1992SOL    HW2 7700   2.390   5.470   0.161  1.0352  0.8387 -1.6517
 1992SOL    HW3 7701   2.365   5.617   0.135 -0.7612  0.7559 -0.5120
 1992SOL    MW4 7702   2.414   5.554   0.168 -0.1540 -0.6852 -0.3186
 1993SOL     OW 7703   1.549   0.619   4.097  0.1972  0.0177  0.2840
 1993SOL    HW2 7704   1.613   0.689   4.111  0.2354 -0.3542  2.2228
 1993SOL    HW3 7705   1.484   0.658   4.038  0.7930  1.3113  0.4376
 1993SOL    MW4 7706   1.549   0.634   4.091 -0.4295 -0.1655  0.0263
 1994SOL     OW 7707   0.572   0.802   2.881 -0.3306  0.4565  0.3119
 1994SOL    HW2 7708   0.497   0.797   2.941  0.2217  0.4340  1.0067
 1994SOL    HW3 7709   0.639   0.850   2.929  0.6624 -0.8499  0.2828
 1994SOL    MW4 7710   0.571   0.807   2.895  0.0931  0.1986  0.1872
 1995SOL     OW 7711   5.618   0.085   1.513 -0.4812  0.3649  0.2598
 1995SOL    HW2 7712   5.623   0.073   1.418 -1.3694 -0.2709  0.2829
 1995SOL    HW3 7713   5.701   0.048   1.546 -0.2332  0.4614 -0.2539
 1995SOL    MW4 7714   5.630   0.078   1.505  0.4500  0.1651  0.0658
 1996SOL     OW 7715   6.104   0.889   4.878 -0.7870 -0.0089 -0.3153
 1996SOL    HW2 7716   6.171   0.834   4.918 -0.2387  0.8615 -0.0006
 1996SOL    HW3 7717   6.141   0.914   4.793 -2.9292 -3.8340 -2.6620
 1996SOL    MW4 7718   6.118   0.885   4.872  0.2929 -0.0816  0.6202
 1997SOL     OW 7719   6.014   0.787   4.180 -0.1152 -0.2832  0.7610
 1997SOL    HW2 7720   6.076   0.748   4.242  0.5099  0.5873  0.6929
 1997SOL    HW3 7721   5.990   0.871   4.219 -1.2492 -0.5967  0.7761
 1997SOL    MW4 7722   6.019   0.793   4.194  0.3629  0.5238  0.0445
 1998SOL     OW 7723   0.952   3.053   3.119  0.3422  0.0202  1.1550
 1998SOL    HW2 7724   0.920   2.963   3.109 -0.9106  0.4399  1.2865
 1998SOL    HW3 7725   1.047   3.043   3.128  0.4315 -1.1468 -0.5683
 1998SOL    MW4 7726   0.961   3.039   3.119 -0.2160  0.1367  0.0723
 1999SOL     OW 7727   3.951   1.857   0.182 -0.1381 -0.2452 -0.0207
 1999SOL    HW2 7728   3.980   1.901   0.102  1.3960 -0.4007  0.4091
 1999SOL    HW3 7729   3.932   1.929   0.243 -2.7731 -0.0691 -0.9325
 1999SOL    MW4 7730   3.952   1.873   0.180  0.0619  0.1994 -0.2991
 2000SOL     OW 7731   5.808   0.187   5.058  0.5791 -0.1602  0.6186
 2000SOL    HW2 7732   5.869   0.132   5.009 -0.6461  0.7845 -2.1770
 2000SOL    HW3 7733   5.850   0.272   5.063  0.3595 -0.0447  0.5117
 2000SOL    MW4 7734   5.821   0.191   5.052  0.4882 -0.4255 -0.1743
 2001SOL     OW 7735   3.301   2.823   5.417  0.7285 -0.2405 -0.3585
 2001SOL    HW2 7736   3.351   2.890   5.371  2.9230  0.6830  3.0061
 2001SOL    HW3 7737   3.309   2.745   5.361  1.3605  1.2759 -2.5242
 2001SOL    MW4 7738   3.309   2.821   5.404  0.1410  0.1983  0.4684
 2002SOL     OW 7739   0.517   2.098   1.637  0.2668 -0.4588 -0.1630
 2002SOL    HW2 7740   0.429   2.060   1.634  0.7025 -1.4324 -2.1445
 2002SOL    HW3 7741   0.548   2.079   1.726 -1.2569 -0.6857  0.3514
 2002SOL    MW4 7742   0.509   2.091   1.648  0.3597  0.1658 -0.1073
 2003SOL     OW 7743   0.071   6.338   0.264  0.0290  0.4803 -0.2638
 2003SOL    HW2 7744   0.059   6.404   0.332 -0.6504 -0.7140  0.8330
 2003SOL    HW3 7745   0.026   6.373   0.188 -0.1015  1.3895  0.2130
 2003SOL    MW4 7746   0.064   6.351   0.263 -0.5171 -0.1329  0.3202
 2004SOL     OW 7747   3.460   0.601   0.657 -0.3686  0.2969 -0.1410
 2004SOL    HW2 7748   3.383   0.653   0.679 -0.3572  0.3070 -0.1240
 2004SOL    HW3 7749   3.516   0.661   0.606 -0.9495 -0.0975 -1.2673
 2004SOL    MW4 7750   3.458   0.616   0.653 -0.7716 -0.3275  0.5674
 2005SOL     OW 7751   3.009   6.171   0.295 -0.1394  0.3944 -0.0759
 2005SOL    HW2 7752   3.039   6.262   0.296  2.4281 -0.2278  3.5082
 2005SOL    HW3 7753   3.022   6.142   0.205  3.9651  2.2674 -0.3340
 2005SOL    MW4 7754   3.015   6.179   0.284 -0.3664 -0.2031  0.5087
 2006SOL     OW 7755   1.218   2.094   1.747 -0.2348 -0.0424 -0.2428
 2006SOL    HW2 7756   1.249   2.003   1.740  1.6612  0.7166 -3.0655
 2006SOL    HW3 7757   1.277   2.134   1.811 -0.5938 -0.5565  0.4341
 2006SOL    MW4 7758   1.230   2.087   1.755 -0.9450  0.8431 -0.0951
 2007SOL     OW 7759   4.398   4.179   0.801  0.3110 -0.1002  0.5958
 2007SOL    HW2 7760   4.328   4.120   0.771 -0.0740 -1.1423  3.3261
 2007SOL    HW3 7761   4.354   4.263   0.815  0.5196  0.4599 -1.6148
 2007SOL    MW4 7762   4.383   4.182   0.799  0.8229 -0.1933  0.0030
 2008SOL     OW 7763   3.596   5.347   3.384  0.0787 -0.6414 -0.3185
 2008SOL    HW2 7764   3.606   5.321   3.475 -0.1680 -0.0547 -0.1194
 2008SOL    HW3 7765   3.626   5.271   3.334  0.9352 -0.6876  0.2517
 2008SOL    MW4 7766   3.601   5.333   3.389  0.1258  0.0870 -0.1003
 2009SOL     OW 7767   2.407   0.527   1.631 -0.7167  0.3613  0.1027
 2009SOL    HW2 7768   2.397   0.485   1.716 -0.1934  1.7943  0.9006
 2009SOL    HW3 7769   2.496   0.507   1.604 -1.3049 -1.2490 -0.7938
 2009SOL    MW4 7770   2.417   0.519   1.639 -0.2298 -0.0658  0.0711
 2010SOL     OW 7771   0.542   5.590   0.038  0.0302  0.5489 -0.4285
 2010SOL    HW2 7772   0.553   5.515   0.097 -0.2792  1.4547  0.8322
 2010SOL    HW3 7773   0.608   5.578  -0.029 -0.9826 -1.6498 -1.1370
 2010SOL    MW4 7774   0.552   5.578   0.037 -0.5637  0.0688  0.2061
 2011SOL     OW 7775   5.668   3.013   0.366  0.0675 -0.2320 -0.6991
 2011SOL    HW2 7776   5.760   2.990   0.375  0.2870  0.2752 -1.5338
 2011SOL    HW3 7777   5.663   3.103   0.397 -0.4249 -0.7231  0.7054
 2011SOL    MW4 7778   5.679   3.022   0.371 -0.3558  0.0277  0.2384
 2012SOL     OW 7779   2.669   5.518   3.475  0.2927 -0.3475  0.5976
 2012SOL    HW2 7780   2.583   5.551   3.500  0.0947  0.5883 -1.1340
 2012SOL    HW3 7781   2.731   5.571   3.525 -0.1118  0.1300  0.5971
 2012SOL    MW4 7782   2.666   5.529   3.485 -0.3119  0.5101  0.1618
 2013SOL     OW 7783   4.930   3.841   1.281  0.1350 -0.2722 -0.4068
 2013SOL    HW2 7784   4.849   3.828   1.331 -0.5669 -0.7188 -1.5986
 2013SOL    HW3 7785   4.928   3.934   1.257  1.2884  0.3478  1.6884
 2013SOL    MW4 7786   4.919   3.852   1.284  0.0803  0.1533  0.1077
 2014SOL     OW 7787   5.215   4.603   1.061 -0.2716 -0.4073 -0.3887
 2014SOL    HW2 7788   5.217   4.535   1.129 -0.1856  1.8703  2.0443
 2014SOL    HW3 7789   5.307   4.626   1.048 -0.3815  0.0959 -0.2816
 2014SOL    MW4 7790   5.228   4.597   1.068 -0.2020  0.1580 -0.0611
 2015SOL     OW 7791   4.929   4.134   0.611  0.2445 -0.0444  0.5173
 2015SOL    HW2 7792   4.887   4.220   0.600  0.0482 -0.1825  0.1817
 2015SOL    HW3 7793   4.906   4.107   0.700  0.3091  0.2499  0.6255
 2015SOL    MW4 7794   4.921   4.142   0.621  0.0996  0.2907  0.0927
 2016SOL     OW 7795   5.178   5.229   5.490 -0.6977  0.3429  0.0831
 2016SOL    HW2 7796   5.106   5.184   5.533 -0.9265 -0.3172 -0.9460
 2016SOL    HW3 7797   5.161   5.217   5.396  1.5405 -1.1853 -0.2126
 2016SOL    MW4 7798   5.166   5.221   5.483 -0.3874 -0.8707 -0.2236
 2017SOL     OW 7799   3.736   6.189   5.851 -0.4736  0.1376 -0.5071
 2017SOL    HW2 7800   3.732   6.277   5.813 -1.8373 -0.1018 -0.9931
 2017SOL    HW3 7801   3.778   6.201   5.936  1.6137  0.8693 -1.5823
 2017SOL    MW4 7802   3.741   6.203   5.857 -0.2382 -0.3468  0.0404
 2018SOL     OW 7803   3.016   4.175   5.441 -0.1060  0.0748  0.4181
 2018SOL    HW2 7804   3.066   4.245   5.485  0.4044 -0.2239  0.3195
 2018SOL    HW3 7805   3.082   4.112   5.415 -0.6542 -0.9567  1.4193
 2018SOL    MW4 7806   3.031   4.176   5.444  0.1606  0.0656 -0.1553
 2019SOL     OW 7807   1.005   2.734   4.627  0.5036  0.0749  0.2859
 2019SOL    HW2 7808   1.045   2.805   4.576  0.2588  0.6679  0.8997
 2019SOL    HW3 7809   1.079   2.694   4.674  0.8986 -1.1745 -1.3158
 2019SOL    MW4 7810   1.020   2.738   4.627 -0.1032 -0.4521  0.0435
 2020SOL     OW 7811   1.442   5.397   0.799  0.0231 -0.2355 -0.0624
 2020SOL    HW2 7812   1.484   5.474   0.760  1.7483 -0.6047  0.9589
 2020SOL    HW3 7813   1.515   5.341   0.825 -1.1516 -1.2903  1.0746
 2020SOL    MW4 7814   1.457   5.400   0.797  0.1140  0.0406 -0.1626
 2021SOL     OW 7815   2.019   2.396   1.251 -0.5562  0.1811  0.1880
 2021SOL    HW2 7816   1.964   2.320   1.271 -0.9852  0.4686  0.1015
 2021SOL    HW3 7817   1.987   2.465   1.310  1.1914 -0.2819  1.7779
 2021SOL    MW4 7818   2.007   2.395   1.262  0.1852 -0.0203  0.2553
 2022SOL     OW 7819   5.683   4.035   5.802 -0.4302 -0.2010  0.2328
 2022SOL    HW2 7820   5.613   3.971   5.816 -1.0631  0.4527  0.1009
 2022SOL    HW3 7821   5.678   4.092   5.879  1.0302 -1.1123  1.0388
 2022SOL    MW4 7822   5.673   4.034   5.814  0.1826  0.0626 -0.5341
 2023SOL     OW 7823   6.350   1.836   0.102 -0.4355 -0.4159 -0.1197
 2023SOL    HW2 7824   6.301   1.761   0.134 -0.7246  0.4871  1.7038
 2023SOL    HW3 7825   6.316   1.910   0.152  1.3923  0.5542 -0.2240
 2023SOL    MW4 7826   6.339   1.836   0.113 -0.3027  0.2924 -0.7357
 2024SOL     OW 7827   5.378   5.784   0.454 -0.2602 -0.0392 -0.1739
 2024SOL    HW2 7828   5.404   5.862   0.502  0.0923 -1.0781  1.4027
 2024SOL    HW3 7829   5.444   5.775   0.385  0.7361  0.0663  0.7477
 2024SOL    MW4 7830   5.390   5.793   0.451 -0.3361  0.0871 -0.4722
 2025SOL     OW 7831   5.115   2.369   3.899  0.0305  0.3571  0.3464
 2025SOL    HW2 7832   5.031   2.404   3.931 -0.2256  0.6191 -0.5738
 2025SOL    HW3 7833   5.130   2.416   3.817 -0.0940 -1.3519 -0.6922
 2025SOL    MW4 7834   5.106   2.380   3.893 -0.1321  0.2316 -0.7748
 2026SOL     OW 7835   3.835   2.312   0.774  0.2840 -0.4505 -0.1609
 2026SOL    HW2 7836   3.789   2.391   0.806  2.1328  0.7199 -0.2599
 2026SOL    HW3 7837   3.901   2.346   0.713  1.6348 -2.0099  0.3802
 2026SOL    MW4 7838   3.837   2.327   0.770  0.6729  0.3684 -0.2557
 2027SOL     OW 7839   2.574   4.805   6.235  0.1296 -0.2509 -0.0084
 2027SOL    HW2 7840   2.531   4.797   6.321  1.2003  0.3847  0.6199
 2027SOL    HW3 7841   2.540   4.732   6.184 -3.0775  1.1819 -0.1996
 2027SOL    MW4 7842   2.564   4.794   6.240 -0.3493 -0.2062 -0.2827
 2028SOL     OW 7843   0.460   5.876   4.218  0.6272  0.7097  0.0490
 2028SOL    HW2 7844   0.509   5.948   4.177  1.8147 -1.2443 -2.1731
 2028SOL    HW3 7845   0.517   5.800   4.209 -2.0655 -1.3093 -1.0420
 2028SOL    MW4 7846   0.474   5.876   4.211  1.3074  0.2482  0.4969
 2029SOL     OW 7847   4.263   0.246   3.602 -0.7364 -0.1495  0.0958
 2029SOL    HW2 7848   4.333   0.301   3.638 -1.1784 -0.6333  1.7773
 2029SOL    HW3 7849   4.210   0.222   3.678 -1.8474 -1.0584 -0.9308
 2029SOL    MW4 7850   4.265   0.250   3.617 -0.8985 -0.2640 -0.3601
 2030SOL     OW 7851   1.585   0.213   3.822  0.1546  0.0478  0.5773
 2030SOL    HW2 7852   1.618   0.193   3.734  0.5782  2.4053  0.1543
 2030SOL    HW3 7853   1.626   0.146   3.877  0.9700 -0.6647 -0.8155
 2030SOL    MW4 7854   1.595   0.201   3.817  0.2248  0.7451  0.3183
 2031SOL     OW 7855   2.427   4.483   3.700  0.0063  0.5992  0.2636
 2031SOL    HW2 7856   2.516   4.450   3.691  0.9200  3.1951 -1.3390
 2031SOL    HW3 7857   2.429   4.538   3.778 -0.7543 -0.7534  1.2907
 2031SOL    MW4 7858   2.439   4.486   3.709  0.6779 -0.0559  0.2804
 2032SOL     OW 7859   4.601   4.276   2.104  0.0704 -0.1232 -0.5119
 2032SOL    HW2 7860   4.509   4.267   2.128 -0.0652  0.6082 -0.7501
 2032SOL    HW3 7861   4.621   4.195   2.056 -1.0815  0.6996 -2.4691
 2032SOL    MW4 7862   4.592   4.264   2.101 -0.4972  0.1616 -1.0310
 2033SOL     OW 7863   1.599   0.872   0.793  0.3725 -0.0139 -0.0116
 2033SOL    HW2 7864   1.654   0.861   0.871 -0.5050 -1.5682  0.4237
 2033SOL    HW3 7865   1.526   0.926   0.823  0.9514  0.9048 -0.2364
 2033SOL    MW4 7866   1.597   0.878   0.807 -0.1918 -0.0382  0.2703
 2034SOL     OW 7867   2.411   4.934   5.497 -0.0500  0.5125  0.3363
 2034SOL    HW2 7868   2.495   4.942   5.453  0.4626 -0.2387  1.1521
 2034SOL    HW3 7869   2.363   5.013   5.472 -0.1176 -0.2486 -2.1977
 2034SOL    MW4 7870   2.415   4.946   5.488 -0.4067 -0.0607 -0.4543
 2035SOL     OW 7871   0.938   0.385   4.547 -0.4906  0.4827  0.2679
 2035SOL    HW2 7872   0.983   0.312   4.591 -0.7365 -0.5166 -1.0892
 2035SOL    HW3 7873   1.000   0.458   4.553  1.5701 -0.9520 -1.8852
 2035SOL    MW4 7874   0.952   0.385   4.554  0.1990  0.0562 -0.3053
 2036SOL     OW 7875   6.029   5.438   3.576 -0.1971  0.1834 -0.2130
 2036SOL    HW2 7876   5.948   5.405   3.537  1.2343 -1.7028 -1.8245
 2036SOL    HW3 7877   6.075   5.481   3.504  0.7777  0.1248  0.3557
 2036SOL    MW4 7878   6.024   5.439   3.561 -0.2434 -0.6860  0.0905
 2037SOL     OW 7879   1.907   4.965   3.907  0.2117  0.3030  0.5641
 2037SOL    HW2 7880   1.853   4.958   3.828  0.5200 -1.5834  0.4728
 2037SOL    HW3 7881   1.869   5.038   3.956  0.1337  1.6708 -1.3946
 2037SOL    MW4 7882   1.895   4.974   3.903 -0.1357 -0.2749 -0.2795
 2038SOL     OW 7883   2.776   2.139   0.275  0.5659 -0.7729  0.0590
 2038SOL    HW2 7884   2.764   2.230   0.248  0.6376 -1.0418 -0.9064
 2038SOL    HW3 7885   2.692   2.114   0.313  0.1076 -0.6939 -0.8775
 2038SOL    MW4 7886   2.763   2.148   0.276  0.1696 -0.3851  0.2384
 2039SOL     OW 7887   2.647   6.014   3.081 -0.1965 -0.7973 -0.1945
 2039SOL    HW2 7888   2.652   6.109   3.084  0.8191 -0.8295 -0.6467
 2039SOL    HW3 7889   2.633   5.988   3.172  0.8956 -0.2873  0.1295
 2039SOL    MW4 7890   2.645   6.023   3.094  0.8366  0.0045  0.5360
 2040SOL     OW 7891   5.930   2.265   6.329 -0.5063 -0.1587 -0.0127
 2040SOL    HW2 7892   5.970   2.190   6.373 -1.6531 -0.1712  1.0705
 2040SOL    HW3 7893   5.879   2.226   6.258 -1.0305 -0.4020  0.4929
 2040SOL    MW4 7894   5.929   2.250   6.326  0.3058 -0.1304  0.1036
 2041SOL     OW 7895   3.713   2.521   0.920  0.1009 -0.1381  0.9500
 2041SOL    HW2 7896   3.640   2.519   0.858 -0.1228  0.8705  1.1523
 2041SOL    HW3 7897   3.670   2.528   1.006  0.4147 -1.0454  1.1830
 2041SOL    MW4 7898   3.697   2.522   0.923  0.0434 -0.0625  0.5320
 2042SOL     OW 7899   0.724   5.913   4.628  0.0899 -0.5924  0.6457
 2042SOL    HW2 7900   0.701   5.865   4.708 -3.8473 -0.8217 -0.4481
 2042SOL    HW3 7901   0.732   6.004   4.656 -1.2080 -0.6717  1.3280
 2042SOL    MW4 7902   0.722   5.918   4.642  0.0242  0.6494  0.6667
 2043SOL     OW 7903   6.344   3.689   0.786 -0.2986  0.4196 -0.4260
 2043SOL    HW2 7904   6.297   3.755   0.838 -0.1388  0.7572 -0.7026
 2043SOL    HW3 7905   6.276   3.636   0.746 -0.4300  0.4280 -0.2134
 2043SOL    MW4 7906   6.329   3.691   0.788 -0.1529 -0.3360 -0.1389
 2044SOL     OW 7907   4.165   1.027   6.041 -0.6392 -0.0489  0.2299
 2044SOL    HW2 7908   4.230   1.090   6.011 -1.7130  0.7144 -0.5821
 2044SOL    HW3 7909   4.201   0.942   6.017  1.5566  0.0656  2.7188
 2044SOL    MW4 7910   4.178   1.024   6.034  0.2328  0.1237 -0.2074
 2045SOL     OW 7911   5.780   6.282   6.359 -0.0381  0.4369 -0.2078
 2045SOL    HW2 7912   5.692   6.248   6.373  0.0096  0.5116  0.3185
 2045SOL    HW3 7913   5.767   6.365   6.313 -0.4820  2.0818  2.6591
 2045SOL    MW4 7914   5.767   6.288   6.355 -0.4506  0.0720 -0.3901
 2046SOL     OW 7915   3.460   5.957   4.697 -0.1106 -0.1560 -0.2289
 2046SOL    HW2 7916   3.432   6.044   4.668  0.4941 -0.0224 -0.4197
 2046SOL    HW3 7917   3.555   5.964   4.704 -0.0863 -0.7300 -0.0016
 2046SOL    MW4 7918   3.469   5.970   4.694 -0.0912 -0.5254 -0.5621
 2047SOL     OW 7919   0.439   4.378   0.474  0.3492  0.5284 -0.7535
 2047SOL    HW2 7920   0.473   4.423   0.397  0.6680 -3.6097 -3.3340
 2047SOL    HW3 7921   0.345   4.367   0.456 -0.2721  2.2265  1.0725
 2047SOL    MW4 7922   0.431   4.383   0.462 -0.2527 -0.5499  0.0666
 2048SOL     OW 7923   4.890   0.636   0.021  0.0275  0.1965  0.4605
 2048SOL    HW2 7924   4.861   0.704  -0.040 -0.0718 -1.2034 -1.0980
 2048SOL    HW3 7925   4.815   0.624   0.080 -1.5161 -1.2126 -1.6386
 2048SOL    MW4 7926   4.876   0.644   0.021  0.6301 -0.2542 -0.1910
 2049SOL     OW 7927   0.577   2.576   5.173  0.0186 -0.4535  0.5512
 2049SOL    HW2 7928   0.500   2.554   5.225  0.5904 -0.3054  1.4818
 2049SOL    HW3 7929   0.636   2.501   5.184  0.5122 -0.0282  0.8574
 2049SOL    MW4 7930   0.575   2.563   5.181  0.0283  0.2891 -0.2464
 2050SOL     OW 7931   3.796   3.020   5.787 -0.4035  0.2494 -0.0662
 2050SOL    HW2 7932   3.746   3.097   5.762 -0.5886 -0.0067 -0.4920
 2050SOL    HW3 7933   3.850   3.000   5.711  0.0744  0.3000  0.2520
 2050SOL    MW4 7934   3.796   3.028   5.774  0.2465 -0.1916  0.3099
 2051SOL     OW 7935   3.250   1.707   0.996 -0.9714 -0.0516  0.2596
 2051SOL    HW2 7936   3.213   1.702   0.907 -2.4119 -1.7645  0.8889
 2051SOL    HW3 7937   3.301   1.627   1.005 -2.9046 -1.2036  1.7741
 2051SOL    MW4 7938   3.252   1.696   0.985 -0.1848  0.4694  0.8850
 2052SOL     OW 7939   5.898   4.302   2.425  0.3511  0.1459  0.2473
 2052SOL    HW2 7940   5.933   4.260   2.346  0.3107  0.2126  0.1948
 2052SOL    HW3 7941   5.821   4.350   2.395  1.4761  1.8522 -0.0561
 2052SOL    MW4 7942   5.893   4.303   2.411 -0.2697  0.0375  0.4389
 2053SOL     OW 7943   2.193   5.171   3.766 -0.4037  0.1381 -0.6263
 2053SOL    HW2 7944   2.246   5.142   3.692 -0.1161 -0.9764 -0.0065
 2053SOL    HW3 7945   2.143   5.093   3.791 -0.1797  0.3695  0.6045
 2053SOL    MW4 7946   2.193   5.157   3.760 -0.4717  0.0426 -0.4588
 2054SOL     OW 7947   2.498   2.275   2.550 -0.4715 -0.6746 -0.3261
 2054SOL    HW2 7948   2.417   2.276   2.500 -0.4892 -1.5917 -0.3319
 2054SOL    HW3 7949   2.554   2.341   2.508 -1.4234  0.4065  0.0557
 2054SOL    MW4 7950   2.495   2.284   2.538  0.5188 -0.0376  0.0337
 2055SOL     OW 7951   4.850   6.412   3.822 -0.3585 -0.1997 -0.2965
 2055SOL    HW2 7952   4.847   6.487   3.881  2.1554  0.2031 -0.5895
 2055SOL    HW3 7953   4.800   6.440   3.745 -1.6838  0.1417  0.6638
 2055SOL    MW4 7954   4.843   6.426   3.820 -0.0284  0.3926  0.5225
 2056SOL     OW 7955   0.125   5.608   2.805 -0.1389  0.0268  0.1605
 2056SOL    HW2 7956   0.118   5.525   2.852 -0.0064 -0.5873 -0.8713
 2056SOL    HW3 7957   0.042   5.652   2.821  0.6414  0.7751  2.6359
 2056SOL    MW4 7958   0.113   5.602   2.814  0.1058 -0.1821  0.0845
 2057SOL     OW 7959   4.890   4.171   4.542 -0.4551 -0.0657  0.0561
 2057SOL    HW2 7960   4.872   4.162   4.636  0.0829 -2.1166  0.0183
 2057SOL    HW3 7961   4.955   4.103   4.523 -0.5273  0.3242 -1.8031
 2057SOL    MW4 7962   4.896   4.161   4.552 -0.3819  0.1881  0.9006
 2058SOL     OW 7963   1.159   1.281   4.221 -0.2850 -0.0187  0.2543
 2058SOL    HW2 7964   1.068   1.305   4.240 -0.1123 -0.6577  2.0800
 2058SOL    HW3 7965   1.171   1.196   4.264  0.5111 -1.1264 -1.9785
 2058SOL    MW4 7966   1.149   1.273   4.229  0.4127  0.1816 -0.0868
 2059SOL     OW 7967   0.248   5.731   5.119  0.0439  0.5844  0.3163
 2059SOL    HW2 7968   0.183   5.791   5.156 -0.4638  0.3916 -0.2540
 2059SOL    HW3 7969   0.298   5.785   5.057 -0.1384  0.5189  0.1133
 2059SOL    MW4 7970   0.246   5.746   5.116  0.4084  0.2784 -0.1789
 2060SOL     OW 7971   1.901   4.410   0.467  0.0212  0.1700  0.1228
 2060SOL    HW2 7972   1.863   4.430   0.552  0.1108  1.9140 -0.2043
 2060SOL    HW3 7973   1.826   4.393   0.410 -0.2427  1.9901 -0.1331
 2060SOL    MW4 7974   1.886   4.411   0.471 -0.1625  0.0585  0.2648
 2061SOL     OW 7975   5.325   1.631   0.458 -0.1183 -0.3967  0.4575
 2061SOL    HW2 7976   5.308   1.633   0.364 -0.6451 -2.0342  0.4892
 2061SOL    HW3 7977   5.238   1.625   0.497  0.1434 -0.6436  1.0063
 2061SOL    MW4 7978   5.311   1.630   0.451  0.0146 -0.5073 -0.1442
 2062SOL     OW 7979   3.286   0.176   3.838  0.0331  0.1721 -0.6236
 2062SOL    HW2 7980   3.339   0.099   3.818  0.9533 -0.2066  2.6716
 2062SOL    HW3 7981   3.347   0.249   3.833  0.1831  0.1196  0.2703
 2062SOL    MW4 7982   3.301   0.176   3.835 -1.0579 -0.6403  0.0320
 2063SOL     OW 7983   4.356   4.202   0.346  0.7314  0.0781 -0.3105
 2063SOL    HW2 7984   4.433   4.229   0.295  0.5358 -1.3502 -1.4597
 2063SOL    HW3 7985   4.370   4.108   0.360  0.1178  0.1831  1.1782
 2063SOL    MW4 7986   4.368   4.193   0.341  0.1390  0.2269 -0.5904
 2064SOL     OW 7987   3.896   4.172   0.695  0.1701 -0.2816 -0.0732
 2064SOL    HW2 7988   3.847   4.136   0.621 -1.4529  0.1503  0.7473
 2064SOL    HW3 7989   3.835   4.168   0.769  1.5857 -0.2644  1.1522
 2064SOL    MW4 7990   3.882   4.167   0.695 -0.2704 -0.1040 -0.1017
 2065SOL     OW 7991   0.456   1.622   5.358  0.5236  0.4977 -0.3139
 2065SOL    HW2 7992   0.412   1.547   5.317  0.3711 -0.1288  0.9499
 2065SOL    HW3 7993   0.548   1.596   5.362  0.3262 -0.0818  1.0353
 2065SOL    MW4 7994   0.462   1.608   5.353 -0.1680  0.3059 -0.2348
 2066SOL     OW 7995   1.012   5.383   3.543 -0.1845 -0.1974 -0.4877
 2066SOL    HW2 7996   0.916   5.376   3.544 -0.2463  0.2893 -1.7798
 2066SOL    HW3 7997   1.030   5.458   3.487  1.0261 -2.3124 -3.1821
 2066SOL    MW4 7998   1.001   5.392   3.536  0.9736  0.3742 -0.0552
 2067SOL     OW 7999   2.383   0.418   3.430  0.6706 -0.0842 -0.1594
 2067SOL    HW2 8000   2.408   0.472   3.354 -0.7357 -0.5302 -0.9807
 2067SOL    HW3 8001   2.288   0.427   3.435  0.3707 -2.4644 -0.3406
 2067SOL    MW4 8002   2.374   0.426   3.420  0.0406  0.2056  0.4316
 2068SOL     OW 8003   1.911   6.425   6.402 -0.0991  0.0806 -0.2352
 2068SOL    HW2 8004   1.989   6.395   6.448 -0.6570  0.9820  1.3806
 2068SOL    HW3 8005   1.838   6.386   6.451 -0.7052  0.6859 -0.6392
 2068SOL    MW4 8006   1.911   6.416   6.415  0.4978  0.1720  0.4422
 2069SOL     OW 8007   5.363   0.430   0.906 -0.1009 -0.0836 -0.3595
 2069SOL    HW2 8008   5.323   0.349   0.873 -0.4894 -0.5578  1.1852
 2069SOL    HW3 8009   5.289   0.482   0.938  0.3221 -0.2626  1.0132
 2069SOL    MW4 8010   5.348   0.426   0.906  0.4736 -0.1320  0.2507
 2070SOL     OW 8011   2.766   5.462   0.937  0.3380  0.2864  0.3445
 2070SOL    HW2 8012   2.806   5.548   0.923 -0.8125  1.1565  2.0330
 2070SOL    HW3 8013   2.693   5.458   0.875  0.4008  0.5190  0.2555
 2070SOL    MW4 8014   2.762   5.473   0.927 -0.0861  0.1513 -0.0605
 2071SOL     OW 8015   1.488   2.565   3.769 -0.6155 -0.1357 -0.2619
 2071SOL    HW2 8016   1.478   2.502   3.698  0.0400  0.5836 -1.0051
 2071SOL    HW3 8017   1.545   2.633   3.734 -1.1689  0.7975  0.5765
 2071SOL    MW4 8018   1.494   2.566   3.755 -0.1466  0.8189  0.2639
 2072SOL     OW 8019   5.043   1.899   5.916 -0.7028 -0.3599 -0.2728
 2072SOL    HW2 8020   5.123   1.847   5.909 -0.3025  0.0128  1.2149
 2072SOL    HW3 8021   5.007   1.899   5.827 -0.6312 -3.0203 -0.4001
 2072SOL    MW4 8022   5.049   1.892   5.903 -0.6522 -0.6804 -0.2090
 2073SOL     OW 8023   1.064   3.247   3.333  0.1573  0.0801  0.2553
 2073SOL    HW2 8024   1.080   3.232   3.426  0.5577 -0.6251  0.0835
 2073SOL    HW3 8025   1.060   3.342   3.324 -0.9035  0.1434  1.1561
 2073SOL    MW4 8026   1.065   3.258   3.344 -0.3257 -0.1560 -0.4399
 2074SOL     OW 8027   3.250   6.122   2.892 -0.0843 -0.3562  0.7210
 2074SOL    HW2 8028   3.304   6.179   2.838 -0.7005  1.3750  1.8145
 2074SOL    HW3 8029   3.161   6.137   2.860 -0.3093 -0.2807  1.3702
 2074SOL    MW4 8030   3.245   6.131   2.881  0.2177 -0.1764  0.0382
 2075SOL     OW 8031   5.539   0.667   2.389 -0.6293 -0.2185 -0.0800
 2075SOL    HW2 8032   5.461   0.616   2.366 -0.4380 -0.8583  0.6221
 2075SOL    HW3 8033   5.508   0.730   2.454 -0.6582 -0.1507 -0.1598
 2075SOL    MW4 8034   5.524   0.668   2.395  0.5446  0.7115  0.3240
 2076SOL     OW 8035   4.471   6.368   0.721  0.6183  0.3254 -0.0603
 2076SOL    HW2 8036   4.466   6.428   0.646 -0.9148  0.3203  0.0119
 2076SOL    HW3 8037   4.527   6.297   0.690  2.1128  1.5466 -0.3007
 2076SOL    MW4 8038   4.478   6.367   0.707 -0.0010 -0.7866  0.6197
 2077SOL     OW 8039   1.532   2.802   2.270  0.2987  0.0076  0.7227
 2077SOL    HW2 8040   1.460   2.815   2.331 -1.0027 -0.4991 -0.6352
 2077SOL    HW3 8041   1.606   2.776   2.325 -0.9554 -0.9235  2.0541
 2077SOL    MW4 8042   1.533   2.800   2.285 -0.4873  0.2594 -0.3131
 2078SOL     OW 8043   2.604   1.272   1.217 -0.1531 -0.3102  0.3113
 2078SOL    HW2 8044   2.680   1.283   1.274 -1.0554 -0.9738  1.7183
 2078SOL    HW3 8045   2.606   1.348   1.158  2.6651 -1.3104 -1.0420
 2078SOL    MW4 8046   2.614   1.284   1.217 -0.0225  0.7410 -0.3307
 2079SOL     OW 8047   2.773   4.928   2.832  0.2758  0.2139  0.0143
 2079SOL    HW2 8048   2.841   4.876   2.789  0.3969 -0.1136  0.6022
 2079SOL    HW3 8049   2.704   4.864   2.854 -0.0120  0.4646 -0.1451
 2079SOL    MW4 8050   2.773   4.912   2.829  0.4784  0.0585 -0.2506
 2080SOL     OW 8051   5.037   3.340   2.197 -0.2721  0.0126 -0.5316
 2080SOL    HW2 8052   4.963   3.280   2.187 -0.6713  0.0860  1.4384
 2080SOL    HW3 8053   5.023   3.407   2.130 -2.3967  0.3877  0.2123
 2080SOL    MW4 8054   5.025   3.341   2.187  0.0571 -0.0566  0.3549
 2081SOL     OW 8055   1.380   0.784   3.933  0.9759  0.2359 -0.4783
 2081SOL    HW2 8056   1.301   0.732   3.948  1.1257  0.4633  1.3224
 2081SOL    HW3 8057   1.378   0.804   3.839 -0.4795 -0.7413 -0.6896
 2081SOL    MW4 8058   1.369   0.780   3.922  0.0077  0.1764 -0.3301
 2082SOL     OW 8059   2.087   6.026   2.929 -0.2665  0.3997  0.3094
 2082SOL    HW2 8060   2.039   6.030   3.012 -2.0631 -1.1177 -0.5805
 2082SOL    HW3 8061   2.174   5.994   2.952 -0.9479 -0.6240  1.5380
 2082SOL    MW4 8062   2.092   6.022   2.943 -0.1610  0.2026  0.0556
 2083SOL     OW 8063   1.753   3.748   5.036  0.1525  0.3634 -0.8514
 2083SOL    HW2 8064   1.688   3.743   4.965 -1.1180 -0.1521  0.3038
 2083SOL    HW3 8065   1.705   3.789   5.109  0.3965 -2.0726  0.7725
 2083SOL    MW4 8066   1.738   3.753   5.036  0.2091  0.0902  0.4045
 2084SOL     OW 8067   3.505   4.889   4.087 -0.0079 -0.2598  0.0893
 2084SOL    HW2 8068   3.591   4.854   4.067  0.4055 -0.0644  1.4376
 2084SOL    HW3 8069   3.520   4.982   4.105 -0.8562  0.3203 -1.8817
 2084SOL    MW4 8070   3.518   4.897   4.086 -0.0865 -0.3571  0.4713
 2085SOL     OW 8071   5.905   5.074   0.745  0.4500  0.1404  0.3458
 2085SOL    HW2 8072   5.890   5.007   0.678  2.3624  0.2137 -0.2271
 2085SOL    HW3 8073   5.818   5.108   0.766 -0.6221 -2.6043  0.7522
 2085SOL    MW4 8074   5.892   5.069   0.739 -0.7241 -0.4701 -0.0116
 2086SOL     OW 8075   2.964   4.962   4.143  0.0908 -0.9281 -0.2145
 2086SOL    HW2 8076   2.973   4.976   4.237 -1.7557 -0.7995 -0.0271
 2086SOL    HW3 8077   2.979   4.868   4.132 -0.6996 -1.1316  0.3603
 2086SOL    MW4 8078   2.967   4.952   4.154  0.1852 -0.2725  0.4050
 2087SOL     OW 8079   1.138   1.517   3.390 -0.0900  0.3132 -0.3175
 2087SOL    HW2 8080   1.192   1.588   3.357 -0.3250  0.0389 -1.3246
 2087SOL    HW3 8081   1.184   1.437   3.366 -0.4664  0.0978 -0.3384
 2087SOL    MW4 8082   1.151   1.516   3.382 -0.4888  0.0068  0.9714
 2088SOL     OW 8083   3.064   0.984   1.672 -0.6627  0.2678  0.8371
 2088SOL    HW2 8084   3.099   1.001   1.584 -2.6359  0.5352  0.0461
 2088SOL    HW3 8085   3.000   1.054   1.686 -1.8133 -0.9069  1.6442
 2088SOL    MW4 8086   3.060   0.996   1.662 -0.0229 -0.3709  0.0034
 2089SOL     OW 8087   3.788   4.145   6.095  0.1444  0.4335  0.1061
 2089SOL    HW2 8088   3.808   4.239   6.090  0.7672  0.3011  0.0232
 2089SOL    HW3 8089   3.778   4.118   6.003  1.8219  0.0412  0.0076
 2089SOL    MW4 8090   3.789   4.154   6.082 -0.2862  0.2820  0.0313
 2090SOL     OW 8091   3.202   2.332   3.067 -0.1587 -0.6444 -0.0649
 2090SOL    HW2 8092   3.259   2.368   3.135 -0.8554 -1.2223  0.8376
 2090SOL    HW3 8093   3.253   2.260   3.030  0.7885  0.5177 -1.1351
 2090SOL    MW4 8094   3.217   2.327   3.071  0.3134 -0.4088  0.2073
 2091SOL     OW 8095   2.701   2.742   5.394 -0.3995  0.0092 -0.0824
 2091SOL    HW2 8096   2.757   2.754   5.471  0.0294  0.4180 -0.4518
 2091SOL    HW3 8097   2.694   2.829   5.355 -0.3966 -0.2389 -0.6572
 2091SOL    MW4 8098   2.708   2.755   5.399  0.0540  0.5378 -0.4265
 2092SOL     OW 8099   3.946   0.679   2.997  0.2652  0.7281 -0.5808
 2092SOL    HW2 8100   3.926   0.613   2.931  0.1071  0.0892  0.0989
 2092SOL    HW3 8101   4.030   0.716   2.969  0.5922 -0.0881 -0.7082
 2092SOL    MW4 8102   3.954   0.676   2.984 -0.1465  0.4722  0.5024
 2093SOL     OW 8103   1.808   5.871   4.947 -0.1397  0.4799  0.1164
 2093SOL    HW2 8104   1.855   5.788   4.955 -3.0705 -1.2729  0.7950
 2093SOL    HW3 8105   1.820   5.914   5.032 -0.9093 -0.6781  0.8508
 2093SOL    MW4 8106   1.815   5.866   4.960 -0.3971 -0.1965 -0.0117
 2094SOL     OW 8107   3.272   1.023   3.182 -0.2925 -0.2271 -0.2364
 2094SOL    HW2 8108   3.179   1.043   3.193 -0.3026 -1.0667  1.3897
 2094SOL    HW3 8109   3.317   1.080   3.245  0.0283 -1.9148  1.1307
 2094SOL    MW4 8110   3.266   1.033   3.192  0.0973  0.1499 -0.1008
 2095SOL     OW 8111   3.100   4.962   5.742  0.0271  0.1797  0.3482
 2095SOL    HW2 8112   3.180   4.967   5.793  0.0084 -0.6914  0.4785
 2095SOL    HW3 8113   3.100   4.874   5.705 -0.2188  0.6201 -0.7341
 2095SOL    MW4 8114   3.110   4.951   5.744 -0.7857  0.2520 -0.5272
 2096SOL     OW 8115   0.895   5.760   4.006 -0.0242 -0.3820 -0.3012
 2096SOL    HW2 8116   0.961   5.798   3.947 -0.9406  0.9991 -0.4744
 2096SOL    HW3 8117   0.815   5.760   3.955 -0.7086  0.3109  0.7354
 2096SOL    MW4 8118   0.893   5.765   3.992 -0.4742 -0.3497 -0.4312
 2097SOL     OW 8119   3.245   4.204   0.195 -0.5807 -0.2187  0.7564
 2097SOL    HW2 8120   3.278   4.115   0.181  0.1893  0.0405  0.9302
 2097SOL    HW3 8121   3.157   4.202   0.157  0.6953 -0.0774 -2.5062
 2097SOL    MW4 8122   3.238   4.192   0.188 -0.2573 -0.1934  0.3791
 2098SOL     OW 8123   6.423   3.396   0.832  0.4753  0.3783 -0.1479
 2098SOL    HW2 8124   6.414   3.491   0.832 -3.0582  0.2881  2.8102
 2098SOL    HW3 8125   6.342   3.364   0.791  0.6112 -1.3175  0.7950
 2098SOL    MW4 8126   6.411   3.404   0.826  0.0082  1.1926  0.1586
 2099SOL     OW 8127   2.255   6.130   3.817 -0.1755 -0.0807 -0.3013
 2099SOL    HW2 8128   2.253   6.114   3.911  0.1905 -0.3260 -0.3359
 2099SOL    HW3 8129   2.292   6.050   3.779  1.0412  0.5683 -0.5285
 2099SOL    MW4 8130   2.260   6.117   3.824  0.5474 -0.2425 -0.2745
 2100SOL     OW 8131   1.628   2.363   0.881 -0.1483 -0.2272 -0.4769
 2100SOL    HW2 8132   1.675   2.443   0.858  0.8268 -0.5499  0.3446
 2100SOL    HW3 8133   1.621   2.315   0.799  2.0438 -0.7288 -0.4168
 2100SOL    MW4 8134   1.633   2.367   0.867 -0.3447  0.0283 -0.4292
 2101SOL     OW 8135   5.724   2.193   2.154  0.0482  0.0997  0.6836
 2101SOL    HW2 8136   5.810   2.199   2.196  0.1702 -2.1587  0.8642
 2101SOL    HW3 8137   5.677   2.126   2.203 -1.2137  0.1021 -0.4458
 2101SOL    MW4 8138   5.729   2.185   2.166 -0.4971 -0.2429  0.3983
 2102SOL     OW 8139   1.115   6.348   1.678 -0.2333 -0.5631  0.2368
 2102SOL    HW2 8140   1.037   6.324   1.628 -1.0067  1.2327  0.4655
 2102SOL    HW3 8141   1.080   6.371   1.765  0.7978 -1.4552  0.9086
 2102SOL    MW4 8142   1.100   6.348   1.683 -0.0860 -0.4905  0.1636
 2103SOL     OW 8143   3.733   6.387   5.156  0.3224 -0.5209 -0.0452
 2103SOL    HW2 8144   3.720   6.436   5.074  0.8696  2.8098  1.6927
 2103SOL    HW3 8145   3.651   6.397   5.203 -0.7565 -4.1446 -0.8242
 2103SOL    MW4 8146   3.721   6.395   5.151  0.0852  0.0484 -0.1813
 2104SOL     OW 8147   3.428   4.636   4.222 -0.3483 -0.3506  0.5462
 2104SOL    HW2 8148   3.491   4.565   4.234  0.4444  0.1951 -0.2306
 2104SOL    HW3 8149   3.468   4.693   4.156 -1.6232  0.0467  0.0687
 2104SOL    MW4 8150   3.441   4.634   4.215 -0.6551 -0.6814  0.5116
 2105SOL     OW 8151   0.925   3.272   2.093 -0.0737 -0.0600  0.0281
 2105SOL    HW2 8152   0.872   3.329   2.036 -0.5505  0.3250  0.8414
 2105SOL    HW3 8153   1.007   3.319   2.106 -0.4744  0.4647  0.7142
 2105SOL    MW4 8154   0.929   3.286   2.087 -0.1113  0.1392 -0.1909
 2106SOL     OW 8155   5.755   3.761   5.086 -0.1639 -0.5004 -0.0159
 2106SOL    HW2 8156   5.712   3.749   5.171  0.8392 -2.2355  0.2955
 2106SOL    HW3 8157   5.698   3.715   5.024  0.4115 -1.4439  0.1443
 2106SOL    MW4 8158   5.742   3.753   5.089 -0.3180 -0.7368 -0.4611
 2107SOL     OW 8159   0.090   4.156   1.723 -0.8263 -0.2897 -0.2966
 2107SOL    HW2 8160   0.071   4.201   1.805  1.1089  0.3783 -0.1509
 2107SOL    HW3 8161   0.095   4.226   1.658  2.4735 -0.1170 -0.0227
 2107SOL    MW4 8162   0.089   4.171   1.725  0.3356  0.2196  0.0106
 2108SOL     OW 8163   3.002   3.915   4.629  0.8780 -0.4727 -0.1578
 2108SOL    HW2 8164   2.924   3.860   4.623  0.3311  0.3401 -0.8297
 2108SOL    HW3 8165   3.060   3.881   4.561 -0.2811  0.9766 -1.9879
 2108SOL    MW4 8166   2.999   3.903   4.619 -0.3715 -0.4989 -0.5143
 2109SOL     OW 8167   1.952   3.471   4.831 -0.3815 -0.2250  0.0153
 2109SOL    HW2 8168   2.015   3.444   4.765  0.6905 -0.3660  1.0549
 2109SOL    HW3 8169   1.888   3.524   4.784  0.4750 -0.1411 -1.0810
 2109SOL    MW4 8170   1.952   3.474   4.816 -0.2556  0.0340  0.0479
 2110SOL     OW 8171   6.318   0.029   3.657 -0.3627  0.0652 -0.0642
 2110SOL    HW2 8172   6.401  -0.002   3.621 -0.2256  1.9003 -1.4685
 2110SOL    HW3 8173   6.339   0.061   3.744  0.8864  2.3474 -1.1290
 2110SOL    MW4 8174   6.331   0.029   3.663  0.0955  0.3423  0.0070
 2111SOL     OW 8175   2.236   5.672   6.190  0.4424 -0.5844 -0.2550
 2111SOL    HW2 8176   2.145   5.641   6.186 -0.9121  2.9778 -1.2400
 2111SOL    HW3 8177   2.253   5.686   6.283 -1.6201  2.4338 -0.1841
 2111SOL    MW4 8178   2.226   5.670   6.202  0.1626 -0.2120  0.0953
 2112SOL     OW 8179   4.670   2.422   1.074 -0.0820 -0.2117  0.0253
 2112SOL    HW2 8180   4.745   2.448   1.020 -0.1277 -0.4836 -0.1727
 2112SOL    HW3 8181   4.602   2.486   1.053 -0.2911 -0.6537 -0.6791
 2112SOL    MW4 8182   4.671   2.434   1.064  0.2625  0.1813  0.2628
 2113SOL     OW 8183   1.667   1.112   5.725 -0.3424 -0.5253 -0.0284
 2113SOL    HW2 8184   1.714   1.063   5.657 -0.8332 -1.4642  0.3008
 2113SOL    HW3 8185   1.716   1.195   5.732  1.5758 -1.6391  0.6315
 2113SOL    MW4 8186   1.680   1.116   5.717 -0.3019 -0.3241 -0.4197
 2114SOL     OW 8187   2.285   1.971   1.551  0.4066 -0.2713  0.0968
 2114SOL    HW2 8188   2.258   1.954   1.641  0.8156 -0.2211  0.2330
 2114SOL    HW3 8189   2.276   2.065   1.540  0.2499 -0.2917  0.0492
 2114SOL    MW4 8190   2.281   1.981   1.561  0.4310 -0.5151 -0.2657
 2115SOL     OW 8191   0.366   5.868   4.907  0.1128 -0.9379 -0.1615
 2115SOL    HW2 8192   0.453   5.843   4.875 -0.9440 -1.8157 -2.5970
 2115SOL    HW3 8193   0.310   5.864   4.829 -1.9848  0.2611  1.2004
 2115SOL    MW4 8194   0.370   5.864   4.892 -0.3857  0.1170 -0.4397
 2116SOL     OW 8195   3.920   1.038   2.054 -0.0667 -0.0039 -0.1993
 2116SOL    HW2 8196   3.991   0.986   2.015 -1.0369 -0.7072 -1.0790
 2116SOL    HW3 8197   3.856   0.973   2.081 -0.3368  0.6234  0.6977
 2116SOL    MW4 8198   3.921   1.022   2.052  0.1444 -0.9383 -0.1170
 2117SOL     OW 8199   1.825   1.534   6.123  0.4032 -0.4675  0.0309
 2117SOL    HW2 8200   1.765   1.527   6.049  0.2666 -1.1269  0.1970
 2117SOL    HW3 8201   1.778   1.493   6.196 -0.5205  2.3661  1.1740
 2117SOL    MW4 8202   1.811   1.528   6.123 -0.3329  0.1879 -0.6735
 2118SOL     OW 8203   3.632   0.968   3.633 -0.4548  0.1525 -0.1398
 2118SOL    HW2 8204   3.709   0.912   3.649  0.5740  0.8202 -2.3888
 2118SOL    HW3 8205   3.560   0.906   3.624  0.4076 -0.7701 -1.1268
 2118SOL    MW4 8206   3.633   0.952   3.634  0.1549 -0.2988 -0.6009
 2119SOL     OW 8207   3.663   3.811   2.998  0.5845  0.2600 -0.9197
 2119SOL    HW2 8208   3.652   3.900   2.967  0.5532 -0.1467 -2.1282
 2119SOL    HW3 8209   3.695   3.820   3.088  1.1897  1.4833 -1.2441
 2119SOL    MW4 8210   3.666   3.824   3.006 -0.8417  0.1973 -0.4616
 2120SOL     OW 8211   3.368   5.119   3.349  0.0292 -0.3764  0.3847
 2120SOL    HW2 8212   3.423   5.198   3.355  0.3094 -0.2507 -2.4726
 2120SOL    HW3 8213   3.331   5.109   3.437 -0.8168  3.5020  0.6331
 2120SOL    MW4 8214   3.371   5.128   3.362  0.2736 -0.2864  0.7554
 2121SOL     OW 8215   0.137   5.417   3.826  0.2834  0.3149  0.3946
 2121SOL    HW2 8216   0.119   5.353   3.756  0.7469 -0.6311  1.1221
 2121SOL    HW3 8217   0.218   5.459   3.799  1.4941 -1.3662  1.2416
 2121SOL    MW4 8218   0.145   5.414   3.813  0.2559 -0.5443  0.3072
 2122SOL     OW 8219   3.243   6.059   5.142  0.3828  0.0442 -0.1751
 2122SOL    HW2 8220   3.175   6.066   5.074 -0.2972  2.5650  0.6433
 2122SOL    HW3 8221   3.306   5.998   5.106 -1.5123 -1.1648 -1.6847
 2122SOL    MW4 8222   3.242   6.052   5.128  0.1068  0.0488  0.5233
 2123SOL     OW 8223   3.403   0.679   0.337  0.1402  0.2458 -0.3719
 2123SOL    HW2 8224   3.407   0.738   0.413 -1.0985  1.5967 -1.2811
 2123SOL    HW3 8225   3.468   0.612   0.355 -0.0499  0.5655  1.8446
 2123SOL    MW4 8226   3.412   0.678   0.349 -0.1699 -0.0281  0.5395
 2124SOL     OW 8227   3.138   1.710   0.171 -0.3518 -0.3321  0.2096
 2124SOL    HW2 8228   3.128   1.718   0.076  2.1160 -0.4224 -0.1203
 2124SOL    HW3 8229   3.163   1.618   0.185  1.7219  0.2517  0.6345
 2124SOL    MW4 8230   3.140   1.699   0.160  0.2532 -0.3631 -0.0086
 2125SOL     OW 8231   5.033   1.543   6.178 -0.0470 -0.6551  0.3847
 2125SOL    HW2 8232   5.037   1.496   6.095 -1.2711 -0.8610  0.4310
 2125SOL    HW3 8233   4.987   1.484   6.237  0.3017 -0.2714  1.0551
 2125SOL    MW4 8234   5.028   1.529   6.175 -0.0680  0.2877  0.2816
 2126SOL     OW 8235   1.597   2.103   4.396  0.2585  0.2558  0.1745
 2126SOL    HW2 8236   1.571   2.164   4.466 -0.7864  0.1478 -0.0986
 2126SOL    HW3 8237   1.548   2.133   4.320  1.9632  0.8350 -0.7367
 2126SOL    MW4 8238   1.587   2.115   4.395  0.0569 -0.3526 -0.4192
 2127SOL     OW 8239   0.758   5.620   1.513  0.2996  0.2745  0.0630
 2127SOL    HW2 8240   0.718   5.634   1.599  1.4728  1.8683  0.3857
 2127SOL    HW3 8241   0.853   5.622   1.530  0.5514  1.0175 -1.3259
 2127SOL    MW4 8242   0.765   5.622   1.527  0.0057 -0.0216  0.4388
 2128SOL     OW 8243   4.396   3.496   0.528  0.2996 -0.1180 -0.3876
 2128SOL    HW2 8244   4.307   3.524   0.550  0.7627  0.3894  0.9312
 2128SOL    HW3 8245   4.392   3.476   0.435 -1.1646  0.0206 -0.3786
 2128SOL    MW4 8246   4.384   3.497   0.519 -0.0424 -0.3963  0.0850
 2129SOL     OW 8247   5.217   5.509   2.349 -0.1724 -0.0439 -0.0294
 2129SOL    HW2 8248   5.211   5.545   2.438 -1.0473 -1.8270  0.6868
 2129SOL    HW3 8249   5.169   5.571   2.295  0.3958  1.0921  0.7308
 2129SOL    MW4 8250   5.210   5.522   2.354 -0.2167  0.4033 -0.4957
 2130SOL     OW 8251   4.241   4.001   1.952 -0.3041 -0.1379 -0.0216
 2130SOL    HW2 8252   4.171   3.937   1.964  0.5343 -1.1816 -0.5282
 2130SOL    HW3 8253   4.213   4.052   1.875  0.6680 -2.2568 -1.8878
 2130SOL    MW4 8254   4.228   4.000   1.943  0.4212 -0.1602 -0.5714
 2131SOL     OW 8255   5.312   5.887   2.095 -0.1245 -0.9426 -0.2680
 2131SOL    HW2 8256   5.277   5.918   2.178 -2.2493 -0.8494 -1.1460
 2131SOL    HW3 8257   5.269   5.803   2.080  0.1760 -0.9301 -1.3060
 2131SOL    MW4 8258   5.302   5.880   2.104 -0.5817  0.3088  0.5045
 2132SOL     OW 8259   0.268   4.543   3.805 -0.1897 -0.3511 -0.2524
 2132SOL    HW2 8260   0.257   4.514   3.714 -0.9208 -1.8266  0.2773
 2132SOL    HW3 8261   0.338   4.487   3.839 -1.7982 -1.7626  0.8718
 2132SOL    MW4 8262   0.276   4.532   3.797  0.3364 -0.0821 -0.3172
 2133SOL     OW 8263   6.120   2.703   4.611  0.3108  0.5878 -0.1752
 2133SOL    HW2 8264   6.058   2.666   4.549 -0.8115  1.9421  0.0699
 2133SOL    HW3 8265   6.085   2.791   4.629  1.9225  1.1176  0.5207
 2133SOL    MW4 8266   6.107   2.710   4.605  0.0643 -0.3619 -0.8381
 2134SOL     OW 8267   6.162   1.405   4.577  0.8045 -0.6349 -0.3669
 2134SOL    HW2 8268   6.237   1.462   4.563  2.0562 -2.5590 -2.0945
 2134SOL    HW3 8269   6.099   1.430   4.510  1.2922 -1.1423 -1.0274
 2134SOL    MW4 8270   6.163   1.416   4.567  0.1960  0.1591  0.0504
 2135SOL     OW 8271   5.940   2.231   3.226 -0.6930  0.4369  0.6676
 2135SOL    HW2 8272   6.020   2.252   3.274 -0.8603  1.1543  0.6397
 2135SOL    HW3 8273   5.892   2.174   3.285 -1.0025  1.4959  1.4723
 2135SOL    MW4 8274   5.944   2.226   3.240 -0.4236 -0.1385 -0.2316
 2136SOL     OW 8275   5.805   4.424   3.315 -0.4687 -0.4644  0.6678
 2136SOL    HW2 8276   5.817   4.405   3.222 -0.1475  0.9667  0.3913
 2136SOL    HW3 8277   5.725   4.475   3.319 -0.3600 -0.3268  1.1488
 2136SOL    MW4 8278   5.796   4.428   3.303 -0.5401  0.4835 -0.2111
 2137SOL     OW 8279   6.384   2.813   6.262 -0.3525 -0.1465  0.4506
 2137SOL    HW2 8280   6.343   2.861   6.189 -0.9847  0.0051  0.8996
 2137SOL    HW3 8281   6.442   2.750   6.219 -1.6302 -0.8932 -0.2300
 2137SOL    MW4 8282   6.386   2.811   6.247 -0.1219 -0.2842 -0.0139
 2138SOL     OW 8283   4.602   5.936   6.259  0.7230  0.5445  0.1227
 2138SOL    HW2 8284   4.549   5.935   6.180  0.2603 -1.9028  0.3808
 2138SOL    HW3 8285   4.637   5.847   6.266  1.7604  1.0307  2.0135
 2138SOL    MW4 8286   4.600   5.924   6.250  0.6016 -0.0273 -0.3540
 2139SOL     OW 8287   4.655   3.266   6.418 -0.2545 -0.1752  0.0355
 2139SOL    HW2 8288   4.601   3.231   6.488 -0.5951 -0.4909 -0.3769
 2139SOL    HW3 8289   4.743   3.272   6.455 -0.4302 -0.3499  0.4807
 2139SOL    MW4 8290   4.659   3.262   6.432 -0.3709  0.0607 -0.2278
 2140SOL     OW 8291   1.257   1.472   0.512  0.1556  0.4001 -0.2915
 2140SOL    HW2 8292   1.214   1.556   0.529 -0.9414 -0.0414 -0.8063
 2140SOL    HW3 8293   1.195   1.423   0.459  0.0355 -1.3796  1.3596
 2140SOL    MW4 8294   1.243   1.477   0.507 -0.1391  0.0302  0.0964
 2141SOL     OW 8295   6.049   4.262   0.236  0.1222 -0.2292 -0.2750
 2141SOL    HW2 8296   5.988   4.228   0.170 -0.6584  0.7155 -0.0552
 2141SOL    HW3 8297   6.124   4.292   0.185  0.2533 -1.0659 -0.5833
 2141SOL    MW4 8298   6.051   4.262   0.220 -0.2817  0.9415  0.3690
 2142SOL     OW 8299   0.593   0.671   1.015  0.2944  0.1790  0.2776
 2142SOL    HW2 8300   0.578   0.681   1.109 -0.3297  0.8463  0.1155
 2142SOL    HW3 8301   0.606   0.577   1.003 -1.4615 -0.1785  0.7940
 2142SOL    MW4 8302   0.593   0.659   1.026  1.3084 -0.2021  0.3633
 2143SOL     OW 8303   0.360   1.877   3.612  0.1220 -0.1157  0.1804
 2143SOL    HW2 8304   0.356   1.803   3.551 -0.7695 -0.1185  0.2261
 2143SOL    HW3 8305   0.424   1.937   3.574  0.9701 -0.9805  0.2209
 2143SOL    MW4 8306   0.368   1.875   3.599 -0.0342 -0.1897  0.3409
 2144SOL     OW 8307   3.426   3.704   5.709  0.9494  0.5503  0.3715
 2144SOL    HW2 8308   3.482   3.627   5.713  1.0859  0.6936  2.8298
 2144SOL    HW3 8309   3.338   3.670   5.724  0.8810  0.7746  0.4796
 2144SOL    MW4 8310   3.422   3.690   5.711  0.2259  0.1888  0.0845
 2145SOL     OW 8311   0.348   2.420   1.766 -0.2140  0.2623 -0.5629
 2145SOL    HW2 8312   0.335   2.515   1.768  1.0799  0.5286 -2.3296
 2145SOL    HW3 8313   0.433   2.408   1.723 -0.7952 -1.7271 -1.2966
 2145SOL    MW4 8314   0.358   2.431   1.761  0.0043 -0.3074  0.0075
 2146SOL     OW 8315   4.836   5.355   5.879  0.0859  0.2031  0.2239
 2146SOL    HW2 8316   4.821   5.427   5.941  1.8503 -0.2021  1.1750
 2146SOL    HW3 8317   4.922   5.320   5.903 -0.5876 -2.0349 -0.4139
 2146SOL    MW4 8318   4.845   5.360   5.890 -0.4605 -0.7260  0.2535
 2147SOL     OW 8319   4.178   3.150   0.339 -0.6308  0.6331  0.5785
 2147SOL    HW2 8320   4.141   3.080   0.393  0.1601 -0.2589  0.0015
 2147SOL    HW3 8321   4.147   3.132   0.251 -1.4544  1.7590  0.6193
 2147SOL    MW4 8322   4.169   3.138   0.335  0.2539  0.3380 -0.0648
 2148SOL     OW 8323   0.433   1.547   1.044  0.4156 -0.1445  0.3394
 2148SOL    HW2 8324   0.364   1.604   1.079 -0.3546 -1.3745  0.9066
 2148SOL    HW3 8325   0.399   1.458   1.057  2.1855 -0.7993  0.7612
 2148SOL    MW4 8326   0.419   1.542   1.050  0.1535  0.3708 -0.3225
 2149SOL     OW 8327   1.857   5.183   4.438  0.0663  0.1034 -0.1914
 2149SOL    HW2 8328   1.910   5.233   4.376  0.2464 -1.3976 -1.2977
 2149SOL    HW3 8329   1.767   5.211   4.421  0.1587  0.0045 -0.8532
 2149SOL    MW4 8330   1.852   5.194   4.428 -0.6990  0.0709 -0.4562
 2150SOL     OW 8331   5.668   1.297   5.438 -0.2533 -0.0817  0.1099
 2150SOL    HW2 8332   5.646   1.323   5.527 -1.3522  1.0582 -0.4432
 2150SOL    HW3 8333   5.690   1.380   5.394  1.3773 -0.7554 -0.4012
 2150SOL    MW4 8334   5.668   1.312   5.444  0.3515 -1.0886  0.2035
 2151SOL     OW 8335   4.970   5.336   3.427 -0.1877  0.2578  0.6143
 2151SOL    HW2 8336   5.004   5.416   3.465 -0.1858 -0.1958  1.6075
 2151SOL    HW3 8337   5.033   5.313   3.359 -1.1933  2.1054 -1.0329
 2151SOL    MW4 8338   4.982   5.343   3.423 -0.2401  0.5937  0.1023
 2152SOL     OW 8339   0.431   3.288   5.925  0.2453 -0.4620 -0.0192
 2152SOL    HW2 8340   0.383   3.257   6.002 -0.1433  0.3400  0.0636
 2152SOL    HW3 8341   0.469   3.208   5.888  0.2929 -0.8840  0.8969
 2152SOL    MW4 8342   0.430   3.273   5.930 -0.2711  0.3841  0.3293
 2153SOL     OW 8343   5.420   5.488   4.598 -0.0208  0.5062  0.2078
 2153SOL    HW2 8344   5.439   5.425   4.668  0.9272  0.6325  0.0690
 2153SOL    HW3 8345   5.506   5.515   4.566 -0.4359  0.2992 -1.1503
 2153SOL    MW4 8346   5.434   5.483   4.603  0.6459 -0.0417  0.1138
 2154SOL     OW 8347   4.413   2.743   2.370  0.5622 -0.0403 -0.0230
 2154SOL    HW2 8348   4.421   2.805   2.297  0.6332 -1.1697 -1.0104
 2154SOL    HW3 8349   4.441   2.793   2.447 -0.6716  1.5735 -0.5487
 2154SOL    MW4 8350   4.417   2.758   2.370  0.4779  0.3059 -0.1570
 2155SOL     OW 8351   3.535   0.747   4.028  0.0378 -0.0683  0.2893
 2155SOL    HW2 8352   3.496   0.730   3.942  0.0601  2.2249 -0.2162
 2155SOL    HW3 8353   3.493   0.683   4.086 -1.1007 -0.6519 -1.1101
 2155SOL    MW4 8354   3.525   0.736   4.024  0.3003 -0.4838  0.5002
 2156SOL     OW 8355   5.449   3.293   1.041 -0.3053  0.1266 -0.3538
 2156SOL    HW2 8356   5.447   3.386   1.064 -0.1169  0.3442 -1.1956
 2156SOL    HW3 8357   5.376   3.255   1.090  0.6275  0.3899  1.3383
 2156SOL    MW4 8358   5.439   3.301   1.051 -0.2836 -0.1101 -0.1278
 2157SOL     OW 8359   3.128   5.279   2.363  0.3606 -0.1276  0.1276
 2157SOL    HW2 8360   3.101   5.370   2.370  0.2876 -0.0650 -0.8693
 2157SOL    HW3 8361   3.049   5.229   2.383  0.1138  0.0358 -0.4448
 2157SOL    MW4 8362   3.114   5.284   2.367 -0.1978 -0.3869 -0.2478
 2158SOL     OW 8363   0.950   3.048   3.712  0.0009 -0.2105 -0.1560
 2158SOL    HW2 8364   0.983   2.997   3.787 -0.3446 -1.8682 -1.0885
 2158SOL    HW3 8365   0.927   2.982   3.647 -0.5588  1.1661 -1.3914
 2158SOL    MW4 8366   0.952   3.032   3.714 -0.3576  0.2385 -0.2001
 2159SOL     OW 8367   2.207   6.289   3.568 -0.0588  0.1028  0.0875
 2159SOL    HW2 8368   2.299   6.272   3.547 -0.3668 -2.1327  0.2497
 2159SOL    HW3 8369   2.192   6.242   3.650 -1.4519  0.0212 -0.1835
 2159SOL    MW4 8370   2.217   6.281   3.576 -0.0825 -0.4108 -0.2284
 2160SOL     OW 8371   6.227   5.977   4.731 -0.3896 -0.3553  0.5412
 2160SOL    HW2 8372   6.178   6.016   4.658 -0.0692 -1.4642 -0.2756
 2160SOL    HW3 8373   6.185   6.014   4.809 -1.6102 -0.1788 -0.1673
 2160SOL    MW4 8374   6.215   5.987   4.732  0.2565  0.5686 -0.6049
 2161SOL     OW 8375   0.465   4.289   2.382  0.4987  0.4094  0.0376
 2161SOL    HW2 8376   0.483   4.279   2.289 -0.0665 -0.8239  0.0326
 2161SOL    HW3 8377   0.551   4.287   2.424  0.7050  0.0897 -0.3938
 2161SOL    MW4 8378   0.479   4.287   2.375  0.8270 -0.2416  0.0025
 2162SOL     OW 8379   1.249   1.093   5.037 -0.2570 -0.3319 -0.9554
 2162SOL    HW2 8380   1.260   1.060   5.127  0.9469  1.0472 -0.5521
 2162SOL    HW3 8381   1.175   1.153   5.042  0.4064  0.4873 -0.6291
 2162SOL    MW4 8382   1.241   1.096   5.050  0.8948 -0.2790 -0.0466
 2163SOL     OW 8383   3.554   4.903   3.081  0.7025  0.2308 -0.4332
 2163SOL    HW2 8384   3.499   4.931   3.008  0.0805 -1.9248 -0.8502
 2163SOL    HW3 8385   3.494   4.860   3.142  1.6267 -0.4750  0.0171
 2163SOL    MW4 8386   3.539   4.901   3.079 -0.1914  0.1937 -0.2622
 2164SOL     OW 8387   3.604   2.217   1.100  0.3765  0.2603 -0.0224
 2164SOL    HW2 8388   3.574   2.218   1.191 -1.5044 -0.8821 -0.5665
 2164SOL    HW3 8389   3.599   2.125   1.075  0.2000  0.6504 -1.4777
 2164SOL    MW4 8390   3.600   2.205   1.109  0.3701  0.0352  0.3355
 2165SOL     OW 8391   0.956   2.464   6.038  0.0103  0.3626  0.2265
 2165SOL    HW2 8392   0.889   2.417   5.989  1.6561 -0.1019 -1.6885
 2165SOL    HW3 8393   0.998   2.397   6.092 -0.1612  0.3935  0.4003
 2165SOL    MW4 8394   0.953   2.449   6.039  0.6139  0.3564  0.2911
 2166SOL     OW 8395   2.282   4.686   6.327  0.2978  0.0951  0.0837
 2166SOL    HW2 8396   2.283   4.649   6.238 -1.9531  1.3150 -0.5277
 2166SOL    HW3 8397   2.193   4.720   6.338  0.7632  0.7083  2.5274
 2166SOL    MW4 8398   2.270   4.685   6.316 -0.4621 -0.7483 -0.1618
 2167SOL     OW 8399   4.979   5.957   0.341  0.0578 -0.3445 -0.0937
 2167SOL    HW2 8400   4.922   5.893   0.297  1.0732  0.2069 -2.3363
 2167SOL    HW3 8401   4.923   6.033   0.356 -0.1385 -0.2910 -1.0746
 2167SOL    MW4 8402   4.964   5.958   0.337  0.2149  0.0715 -0.5169
 2168SOL     OW 8403   4.391   3.928   1.225  0.4960  0.2470 -0.6031
 2168SOL    HW2 8404   4.349   3.997   1.173  0.8441 -0.1295 -1.4031
 2168SOL    HW3 8405   4.476   3.965   1.250  0.2011  0.5450 -0.0344
 2168SOL    MW4 8406   4.397   3.942   1.221 -0.4125 -0.0973 -0.7369
 2169SOL     OW 8407   2.285   0.608   1.034 -0.1948  0.6978  0.0276
 2169SOL    HW2 8408   2.315   0.674   1.096 -0.4152  1.8619 -1.0553
 2169SOL    HW3 8409   2.248   0.538   1.088  2.2715  0.2896  1.3149
 2169SOL    MW4 8410   2.284   0.607   1.049 -0.3595 -0.2041 -0.1853
 2170SOL     OW 8411   5.177   0.678   1.936  0.3377  0.0804 -0.2410
 2170SOL    HW2 8412   5.150   0.736   1.864 -1.2239  0.8043  0.8701
 2170SOL    HW3 8413   5.097   0.633   1.962  0.9923 -0.5706  0.7023
 2170SOL    MW4 8414   5.163   0.680   1.930 -0.0760 -0.2482  0.0378
 2171SOL     OW 8415   1.997   5.105   6.178 -0.0225  0.5369  0.1035
 2171SOL    HW2 8416   1.923   5.144   6.224 -0.7300 -0.7559  0.1064
 2171SOL    HW3 8417   1.958   5.056   6.106  0.7947 -0.4038  0.2762
 2171SOL    MW4 8418   1.982   5.104   6.175  0.3517 -0.2738  0.7690
 2172SOL     OW 8419   3.512   2.926   0.477 -0.5339  0.7078 -0.0548
 2172SOL    HW2 8420   3.431   2.879   0.460  0.8675 -1.1248 -2.3383
 2172SOL    HW3 8421   3.561   2.870   0.537  0.4280 -0.0129 -1.4428
 2172SOL    MW4 8422   3.508   2.913   0.483  0.3012  0.1479  0.1296
 2173SOL     OW 8423   4.805   5.735   0.146 -0.1857 -0.0145  0.5560
 2173SOL    HW2 8424   4.728   5.789   0.166 -0.4968  0.7746 -2.2934
 2173SOL    HW3 8425   4.835   5.767   0.060  0.4189 -3.4704 -0.6955
 2173SOL    MW4 8426   4.799   5.746   0.137 -0.5405 -0.3889 -0.6321
 2174SOL     OW 8427   5.398   6.372   1.219 -0.2356 -0.2903  0.4411
 2174SOL    HW2 8428   5.473   6.430   1.208 -0.3356 -0.2296  0.0643
 2174SOL    HW3 8429   5.357   6.400   1.301 -0.8328  0.8039 -0.2089
 2174SOL    MW4 8430   5.403   6.383   1.228 -0.6365  0.3959 -0.5589
 2175SOL     OW 8431   4.098   3.608   0.893  0.0152 -0.3001 -0.2449
 2175SOL    HW2 8432   4.073   3.534   0.948 -1.8197 -0.0168 -0.6362
 2175SOL    HW3 8433   4.167   3.652   0.943  0.1024 -1.4297  0.6718
 2175SOL    MW4 8434   4.104   3.604   0.907 -0.0901  0.3362 -0.4659
 2176SOL     OW 8435   2.469   1.595   1.679  0.2782 -0.2506  0.2989
 2176SOL    HW2 8436   2.428   1.607   1.765 -0.9613  1.3755 -0.4478
 2176SOL    HW3 8437   2.416   1.649   1.620 -0.3012 -3.0230 -1.9431
 2176SOL    MW4 8438   2.456   1.604   1.683  0.5722  0.0813  0.2326
 2177SOL     OW 8439   4.181   2.179   4.189  0.1889 -0.5219 -0.0749
 2177SOL    HW2 8440   4.227   2.216   4.264  0.1335  0.3593 -0.4618
 2177SOL    HW3 8441   4.239   2.195   4.115 -0.2943 -0.2883 -0.4111
 2177SOL    MW4 8442   4.195   2.186   4.189 -0.3227 -0.3411 -0.2579
 2178SOL     OW 8443   0.381   5.797   1.625  0.7031 -0.1744 -0.6633
 2178SOL    HW2 8444   0.323   5.776   1.552  0.8560 -0.3426 -0.7384
 2178SOL    HW3 8445   0.403   5.713   1.664  2.0079 -0.2594 -1.5050
 2178SOL    MW4 8446   0.376   5.783   1.620  0.3250 -0.0303 -0.2771
 2179SOL     OW 8447   3.098   4.390   5.610 -0.1564 -0.0561  0.4456
 2179SOL    HW2 8448   3.178   4.379   5.558 -0.3364 -0.6747  0.2997
 2179SOL    HW3 8449   3.118   4.347   5.693 -0.7324 -1.2084  0.0032
 2179SOL    MW4 8450   3.111   4.383   5.614 -0.0064 -0.2449 -0.1530
 2180SOL     OW 8451   1.352   2.343   0.991 -0.1314  0.3803  0.4475
 2180SOL    HW2 8452   1.444   2.344   0.963 -0.3975 -0.4266 -0.4912
 2180SOL    HW3 8453   1.340   2.427   1.035  1.3077  0.1290  1.4203
 2180SOL    MW4 8454   1.363   2.354   0.993 -0.0983  0.1480  0.3326
 2181SOL     OW 8455   1.355   2.016   2.618 -0.1364  0.0043  0.6348
 2181SOL    HW2 8456   1.311   2.100   2.629  0.1637  0.2939 -0.3173
 2181SOL    HW3 8457   1.381   2.014   2.526 -0.8827 -1.4946  0.4279
 2181SOL    MW4 8458   1.352   2.027   2.607 -0.5926  0.2371  0.3863
 2182SOL     OW 8459   5.604   0.989   5.745 -0.5713  0.0790  0.0101
 2182SOL    HW2 8460   5.570   0.977   5.657  1.3121 -0.5750 -0.6617
 2182SOL    HW3 8461   5.526   1.002   5.799 -1.7493  0.6239 -1.7494
 2182SOL    MW4 8462   5.589   0.989   5.741  0.1170  0.3515 -0.3567
 2183SOL     OW 8463   5.265   5.025   6.185  0.6305  0.2736  0.4720
 2183SOL    HW2 8464   5.261   5.004   6.091  2.0203 -0.2497  0.5050
 2183SOL    HW3 8465   5.300   5.114   6.188 -2.2042  1.4810  0.4396
 2183SOL    MW4 8466   5.269   5.034   6.173  0.3282  0.5026  0.0467
 2184SOL     OW 8467   1.754   4.729   0.626 -0.2652 -0.1608 -0.2375
 2184SOL    HW2 8468   1.843   4.714   0.661 -0.1654 -0.0714 -0.4515
 2184SOL    HW3 8469   1.742   4.823   0.631 -0.3662 -0.1773 -0.1662
 2184SOL    MW4 8470   1.765   4.739   0.631  0.4121 -0.3065  0.0814
 2185SOL     OW 8471   4.456   3.660   6.241 -0.3478 -0.1682  0.1646
 2185SOL    HW2 8472   4.502   3.600   6.183  0.9456 -0.1173  1.0926
 2185SOL    HW3 8473   4.483   3.634   6.329 -1.8660  0.0815  0.7347
 2185SOL    MW4 8474   4.466   3.649   6.245  0.3967  0.3955  0.0463
 2186SOL     OW 8475   4.457   2.007   3.212 -0.2759 -0.3435  0.7295
 2186SOL    HW2 8476   4.409   2.085   3.183 -0.8670 -0.5587  1.1249
 2186SOL    HW3 8477   4.398   1.963   3.273  0.9159  0.0662  2.2296
 2186SOL    MW4 8478   4.443   2.012   3.216 -0.5777  0.0895 -0.1933
 2187SOL     OW 8479   0.126   6.185   5.192 -0.2088 -0.6472  0.2439
 2187SOL    HW2 8480   0.108   6.140   5.275 -0.4029  0.8131  1.0198
 2187SOL    HW3 8481   0.102   6.121   5.125  0.3666 -2.0313  1.2925
 2187SOL    MW4 8482   0.121   6.170   5.194 -0.2865  0.1090 -0.0182
 2188SOL     OW 8483   1.586   1.424   2.705  0.4102  0.0983 -0.6696
 2188SOL    HW2 8484   1.492   1.443   2.701  0.0950 -1.3175 -0.4492
 2188SOL    HW3 8485   1.607   1.392   2.618  0.3743 -0.8880 -0.3294
 2188SOL    MW4 8486   1.576   1.422   2.693 -0.2442 -0.1699 -0.0627
 2189SOL     OW 8487   4.867   3.381   0.946 -0.5339  0.4090 -0.1520
 2189SOL    HW2 8488   4.820   3.428   1.015 -0.5283  1.0327 -0.5678
 2189SOL    HW3 8489   4.800   3.360   0.881 -0.6551 -0.7236  0.3177
 2189SOL    MW4 8490   4.852   3.385   0.947  0.4839 -0.5974 -0.0060
 2190SOL     OW 8491   4.482   3.097   4.731 -0.5135 -0.2212 -0.4988
 2190SOL    HW2 8492   4.565   3.049   4.731 -0.1639  0.2334  2.0629
 2190SOL    HW3 8493   4.505   3.183   4.696  0.1158 -0.0972  0.1915
 2190SOL    MW4 8494   4.496   3.102   4.726 -0.2621  0.0234 -0.4617
 2191SOL     OW 8495   0.754   5.914   3.214  0.2156  0.2117  0.4520
 2191SOL    HW2 8496   0.676   5.867   3.185  0.0819  0.5376  0.2754
 2191SOL    HW3 8497   0.721   6.000   3.241  0.4329  0.1460  0.9317
 2191SOL    MW4 8498   0.739   5.919   3.214 -0.6392 -0.2199  0.1147
 2192SOL     OW 8499   2.915   3.931   2.620 -0.1135  0.6226  0.2318
 2192SOL    HW2 8500   2.855   3.907   2.691 -0.3361  1.2643  0.2653
 2192SOL    HW3 8501   2.989   3.973   2.664  1.3574 -1.9235  0.3961
 2192SOL    MW4 8502   2.917   3.933   2.635  0.3735 -1.1463 -0.3179
 2193SOL     OW 8503   4.465   0.506   0.385  0.7709 -0.2989 -0.1401
 2193SOL    HW2 8504   4.418   0.568   0.329 -1.2489 -1.6242 -0.0192
 2193SOL    HW3 8505   4.462   0.424   0.336  0.7061 -1.0155  1.0269
 2193SOL    MW4 8506   4.458   0.503   0.371 -0.3285 -0.6476  0.1124
 2194SOL     OW 8507   5.295   3.252   2.103  0.6498 -0.2966  0.0767
 2194SOL    HW2 8508   5.205   3.267   2.132  0.7395 -0.3764  0.3982
 2194SOL    HW3 8509   5.347   3.317   2.150  0.8334 -0.6086  0.3105
 2194SOL    MW4 8510   5.290   3.262   2.113  0.0463  0.6443 -0.1613
 2195SOL     OW 8511   6.359   3.211   0.140 -0.3207 -0.0507 -0.5131
 2195SOL    HW2 8512   6.284   3.158   0.114 -0.5333  0.0962 -0.2094
 2195SOL    HW3 8513   6.418   3.150   0.182 -0.8364  0.0478  0.3895
 2195SOL    MW4 8514   6.357   3.196   0.142 -0.5547  0.2816  0.4788
 2196SOL     OW 8515   3.967   4.723   2.955  0.0944  0.2519  0.2230
 2196SOL    HW2 8516   4.021   4.692   2.882 -1.3825 -0.5944 -0.5446
 2196SOL    HW3 8517   4.014   4.694   3.033  1.8183  1.3651 -0.3426
 2196SOL    MW4 8518   3.981   4.715   2.956 -0.6488  0.1062 -0.7329
 2197SOL     OW 8519   5.837   3.577   0.392 -0.3826  0.4551  0.3418
 2197SOL    HW2 8520   5.930   3.596   0.402 -0.5218  1.3084  0.0309
 2197SOL    HW3 8521   5.832   3.481   0.390  0.8146  0.3624 -2.4122
 2197SOL    MW4 8522   5.848   3.567   0.393 -0.2411  0.5847  0.4922
 2198SOL     OW 8523   5.927   4.249   4.456  0.0554 -0.2121  0.8271
 2198SOL    HW2 8524   5.908   4.310   4.385 -3.2315 -2.8391 -0.8721
 2198SOL    HW3 8525   5.858   4.265   4.521 -0.2786 -1.4478  0.7951
 2198SOL    MW4 8526   5.915   4.259   4.455 -0.4276 -0.0746  0.2535
 2199SOL     OW 8527   2.041   4.433   1.652  0.0656 -0.4078 -0.7083
 2199SOL    HW2 8528   2.113   4.433   1.589 -0.1826  1.1458 -1.0310
 2199SOL    HW3 8529   1.986   4.360   1.625 -0.1925  0.3916 -2.5110
 2199SOL    MW4 8530   2.044   4.424   1.640  0.2943  0.5103 -0.2964
 2200SOL     OW 8531   3.178   1.330   0.780  0.1301  0.0049 -0.1342
 2200SOL    HW2 8532   3.096   1.300   0.818  0.7750 -1.3281  0.2543
 2200SOL    HW3 8533   3.194   1.270   0.707  0.0219  1.1738 -1.1524
 2200SOL    MW4 8534   3.170   1.318   0.775 -0.2201  0.0129  0.5101
 2201SOL     OW 8535   2.793   4.556   1.372  0.0325  0.3010  0.0212
 2201SOL    HW2 8536   2.700   4.544   1.388 -0.0310 -1.4524 -1.3803
 2201SOL    HW3 8537   2.797   4.623   1.304 -0.1645  0.7065  0.4029
 2201SOL    MW4 8538   2.782   4.564   1.365 -0.2902  0.0550 -0.2011
 2202SOL     OW 8539   4.367   2.883   0.185  0.2686 -0.0353  0.1876
 2202SOL    HW2 8540   4.303   2.906   0.117  0.4520 -1.5248 -0.5388
 2202SOL    HW3 8541   4.437   2.838   0.137  1.8659  1.4927  0.9754
 2202SOL    MW4 8542   4.368   2.880   0.170  0.1190 -0.1637 -0.1162
 2203SOL     OW 8543   2.024   1.934   5.970  0.2555  0.0426  0.1688
 2203SOL    HW2 8544   2.096   1.992   5.991 -0.3461  0.7034  0.4270
 2203SOL    HW3 8545   2.020   1.873   6.043  1.7709 -1.2380 -0.7407
 2203SOL    MW4 8546   2.033   1.933   5.982 -0.0354 -0.1630 -0.1802
 2204SOL     OW 8547   2.922   0.496   1.721  0.1311 -0.4704 -0.0806
 2204SOL    HW2 8548   2.974   0.427   1.681 -2.3880 -0.5421 -3.7186
 2204SOL    HW3 8549   2.943   0.575   1.670 -0.4400  0.3759  0.9510
 2204SOL    MW4 8550   2.931   0.497   1.709 -0.3086  0.7353 -0.5509
 2205SOL     OW 8551   2.696   0.508   2.526  0.2048  0.1413  0.6923
 2205SOL    HW2 8552   2.636   0.465   2.465  1.0791 -1.1051  0.6628
 2205SOL    HW3 8553   2.771   0.533   2.473  0.4442  0.1449  1.0263
 2205SOL    MW4 8554   2.698   0.506   2.511 -0.1956 -0.0324  0.1570
 2206SOL     OW 8555   3.333   5.362   0.633  0.2856  0.3387 -0.1216
 2206SOL    HW2 8556   3.261   5.404   0.586  0.7550  0.8358 -0.4240
 2206SOL    HW3 8557   3.322   5.269   0.617 -1.5995  0.1917  1.7337
 2206SOL    MW4 8558   3.322   5.355   0.624  0.3274 -0.1392  0.1277
 2207SOL     OW 8559   0.680   1.425   3.981 -0.1828 -0.2701 -0.1365
 2207SOL    HW2 8560   0.654   1.367   3.910 -0.3111  0.5827 -0.8001
 2207SOL    HW3 8561   0.775   1.437   3.969  0.3168 -2.2152  1.4178
 2207SOL    MW4 8562   0.689   1.419   3.970  0.4775 -0.3342  0.0628
 2208SOL     OW 8563   4.718   0.456   0.299 -0.5344  0.2763  0.6429
 2208SOL    HW2 8564   4.631   0.472   0.335  0.2781  1.1851  2.3706
 2208SOL    HW3 8565   4.763   0.540   0.307 -0.0653  0.3606 -2.0299
 2208SOL    MW4 8566   4.713   0.469   0.305  0.4816 -0.9335  0.4303
 2209SOL     OW 8567   6.323   5.308   4.610 -0.4694 -0.1630 -0.3037
 2209SOL    HW2 8568   6.400   5.251   4.620 -1.4087 -1.7417 -1.5569
 2209SOL    HW3 8569   6.255   5.265   4.663 -1.2357 -0.3041 -1.3867
 2209SOL    MW4 8570   6.325   5.295   4.619 -0.2772  0.1412  0.3425
 2210SOL     OW 8571   0.883   4.446   1.051  0.0409 -0.3896 -0.2292
 2210SOL    HW2 8572   0.825   4.493   1.110  0.1682 -0.2971 -0.1765
 2210SOL    HW3 8573   0.945   4.512   1.020 -0.1211 -0.4052 -0.5889
 2210SOL    MW4 8574   0.884   4.461   1.055 -0.0800 -0.3679 -0.0702
 2211SOL     OW 8575   3.640   4.067   2.903 -0.2961 -0.1532  0.3878
 2211SOL    HW2 8576   3.624   4.091   2.812 -0.4950  1.0496  0.7283
 2211SOL    HW3 8577   3.581   4.123   2.954  0.6859  0.0768  1.3128
 2211SOL    MW4 8578   3.630   4.078   2.898  0.0200 -0.3207  0.3725
 2212SOL     OW 8579   0.792   1.497   1.005 -0.2439  0.5395  0.4124
 2212SOL    HW2 8580   0.821   1.532   0.921  0.9160 -0.3667  0.4072
 2212SOL    HW3 8581   0.718   1.440   0.983 -0.2530  0.6783  0.0799
 2212SOL    MW4 8582   0.786   1.494   0.991 -0.3129 -1.3971 -0.1891
 2213SOL     OW 8583   1.405   3.305   4.766 -0.2258 -0.2662 -0.2599
 2213SOL    HW2 8584   1.418   3.214   4.741 -1.8568 -0.2410 -1.3352
 2213SOL    HW3 8585   1.319   3.307   4.808 -0.6249  0.9161 -1.0686
 2213SOL    MW4 8586   1.395   3.293   4.769 -0.1196  0.2752 -0.1341
 2214SOL     OW 8587   4.895   1.360   6.359  0.6790  0.7279 -0.1070
 2214SOL    HW2 8588   4.966   1.295   6.357 -0.2528 -0.3454  0.6170
 2214SOL    HW3 8589   4.855   1.349   6.445 -0.2905  1.4065 -0.4590
 2214SOL    MW4 8590   4.899   1.350   6.370 -0.3505 -0.1927 -0.1902
 2215SOL     OW 8591   2.865   5.479   3.808 -0.0988 -0.4302 -0.2607
 2215SOL    HW2 8592   2.922   5.527   3.748  0.1945  0.4318  0.6779
 2215SOL    HW3 8593   2.838   5.401   3.759  0.4273  0.0638 -1.3655
 2215SOL    MW4 8594   2.869   5.475   3.793  0.5209 -0.2154 -0.1042
 2216SOL     OW 8595   6.170   4.525   3.061 -0.2444  0.9336  0.5119
 2216SOL    HW2 8596   6.201   4.477   2.984  0.9486 -0.2314  1.6570
 2216SOL    HW3 8597   6.250   4.548   3.108 -0.9705  1.1529  1.6763
 2216SOL    MW4 8598   6.185   4.522   3.057  0.2371  0.0479  0.1195
 2217SOL     OW 8599   5.432   6.046   5.607  0.4882  0.0912  0.4334
 2217SOL    HW2 8600   5.480   5.979   5.560  1.2041  0.5392  0.5095
 2217SOL    HW3 8601   5.471   6.047   5.695 -1.4273 -1.3663  1.3841
 2217SOL    MW4 8602   5.443   6.038   5.613  0.2660 -0.3966 -0.0282
 2218SOL     OW 8603   5.023   4.711   2.509  0.4180 -0.5175  0.2172
 2218SOL    HW2 8604   4.964   4.664   2.450  0.5811 -0.5285  0.0609
 2218SOL    HW3 8605   5.001   4.803   2.498 -0.5171 -0.6009  1.1856
 2218SOL    MW4 8606   5.013   4.717   2.500 -0.2710 -0.2485  0.2733
 2219SOL     OW 8607   2.310   3.866   1.063 -0.6819 -0.0229  0.0823
 2219SOL    HW2 8608   2.320   3.785   1.112 -0.2791 -0.1492 -0.2025
 2219SOL    HW3 8609   2.345   3.934   1.120 -0.5211 -0.1249  0.1058
 2219SOL    MW4 8610   2.316   3.865   1.077 -0.2114  0.5027  0.4524
 2220SOL     OW 8611   0.466   1.348   4.369  0.3747 -0.1332  0.1698
 2220SOL    HW2 8612   0.516   1.393   4.437  1.0231 -2.0379  1.0097
 2220SOL    HW3 8613   0.390   1.312   4.415  0.1830 -0.4191 -0.3590
 2220SOL    MW4 8614   0.462   1.349   4.384 -0.3802  0.6147 -0.0421
 2221SOL     OW 8615   0.467   4.440   3.423 -0.7155 -0.5582  0.0187
 2221SOL    HW2 8616   0.551   4.469   3.460 -1.2188 -0.5435  1.1642
 2221SOL    HW3 8617   0.485   4.431   3.329  0.1374  1.0193 -0.0061
 2221SOL    MW4 8618   0.481   4.443   3.415 -0.0544  0.8849 -0.0211
 2222SOL     OW 8619   2.264   5.892   0.895 -0.0143 -0.5312  0.3668
 2222SOL    HW2 8620   2.221   5.828   0.839 -0.7092  0.1894  0.0523
 2222SOL    HW3 8621   2.306   5.840   0.963 -0.1817 -1.3451 -0.1362
 2222SOL    MW4 8622   2.264   5.877   0.896  0.0681 -0.1106 -0.4148
 2223SOL     OW 8623   5.505   1.636   6.229 -0.5229 -0.4242  0.5825
 2223SOL    HW2 8624   5.426   1.665   6.184  0.2843  1.1259  0.1050
 2223SOL    HW3 8625   5.509   1.542   6.211 -0.2826  0.0900 -2.5593
 2223SOL    MW4 8626   5.495   1.627   6.221 -0.1263 -0.6035  0.0420
 2224SOL     OW 8627   0.780   4.680   2.954 -0.0091  0.3292 -0.1742
 2224SOL    HW2 8628   0.737   4.763   2.972 -0.2401  0.4169 -1.0985
 2224SOL    HW3 8629   0.713   4.626   2.912 -0.0538 -0.5632  0.9787
 2224SOL    MW4 8630   0.765   4.684   2.951 -0.4341  0.1699 -0.4386
 2225SOL     OW 8631   1.562   1.702   0.754 -0.1032 -0.3901 -0.1664
 2225SOL    HW2 8632   1.646   1.658   0.745  0.4112  0.9118 -2.7221
 2225SOL    HW3 8633   1.583   1.786   0.796 -0.2653 -0.3891 -0.0856
 2225SOL    MW4 8634   1.576   1.707   0.758  0.4836  0.2244 -0.0798
 2226SOL     OW 8635   2.120   3.070   3.196 -0.8017 -0.7711 -0.2790
 2226SOL    HW2 8636   2.052   3.019   3.239  1.1417 -3.3245  0.0007
 2226SOL    HW3 8637   2.199   3.055   3.249 -0.2933  3.9078  0.7913
 2226SOL    MW4 8638   2.121   3.062   3.209  0.1946  0.7327  0.1838
 2227SOL     OW 8639   6.367   1.713   0.450 -0.8098 -0.3035 -0.3169
 2227SOL    HW2 8640   6.287   1.765   0.459 -0.5640 -0.0329  0.3229
 2227SOL    HW3 8641   6.418   1.733   0.528 -0.1759 -0.5839 -0.6495
 2227SOL    MW4 8642   6.363   1.722   0.461  0.1596  0.2774  0.1895
 2228SOL     OW 8643   5.117   5.285   5.920 -0.3917  0.6149 -0.0390
 2228SOL    HW2 8644   5.161   5.200   5.911 -1.3156  0.0199  0.7743
 2228SOL    HW3 8645   5.183   5.349   5.893  0.1303 -0.3804 -1.2992
 2228SOL    MW4 8646   5.131   5.282   5.915 -0.2207 -0.0206  0.0810
 2229SOL     OW 8647   2.806   0.240   4.295  0.1095 -0.0401 -0.0441
 2229SOL    HW2 8648   2.731   0.293   4.321  0.2643  0.8892 -1.4213
 2229SOL    HW3 8649   2.874   0.304   4.271  1.3198 -0.8531  1.0362
 2229SOL    MW4 8650   2.805   0.255   4.295  0.2055 -0.2540  0.0556
 2230SOL     OW 8651   4.124   2.207   0.495  0.6048  0.3691 -0.3149
 2230SOL    HW2 8652   4.093   2.278   0.552 -0.2318 -0.7343  0.6559
 2230SOL    HW3 8653   4.045   2.158   0.473  1.0526  0.2420 -1.7158
 2230SOL    MW4 8654   4.109   2.210   0.500 -0.9317  0.2546 -0.0222
 2231SOL     OW 8655   0.178   3.498   5.328  0.3413 -0.4648  0.0718
 2231SOL    HW2 8656   0.182   3.456   5.414  0.4515  0.0069  0.2985
 2231SOL    HW3 8657   0.119   3.573   5.340 -0.1935 -0.7914 -0.4355
 2231SOL    MW4 8658   0.171   3.502   5.340 -0.0256 -0.0127 -0.8928
 2232SOL     OW 8659   1.276   4.558   3.455 -0.0419 -0.9382  0.1439
 2232SOL    HW2 8660   1.323   4.637   3.429  0.2426 -0.9343  0.6615
 2232SOL    HW3 8661   1.223   4.585   3.530 -0.0638 -1.2041  0.2240
 2232SOL    MW4 8662   1.275   4.572   3.461 -0.0915 -0.5553  0.0208
 2233SOL     OW 8663   1.580   4.794   1.797 -0.2161  0.1733 -0.4780
 2233SOL    HW2 8664   1.623   4.877   1.817  1.1381 -0.3858 -0.9864
 2233SOL    HW3 8665   1.647   4.728   1.813 -1.3989 -0.8731  0.3354
 2233SOL    MW4 8666   1.595   4.797   1.802 -0.2896 -0.2618  0.3489
 2234SOL     OW 8667   6.357   3.855   5.947 -0.3411 -0.8573 -0.2512
 2234SOL    HW2 8668   6.307   3.838   6.028 -0.8786  0.0764 -0.3741
 2234SOL    HW3 8669   6.438   3.895   5.977 -0.7315 -0.0931 -0.1826
 2234SOL    MW4 8670   6.361   3.858   5.962 -0.2986 -0.1911  0.0797
 2235SOL     OW 8671   6.419   0.086   0.458  0.1411 -0.2558 -0.3242
 2235SOL    HW2 8672   6.345   0.025   0.459  0.0937 -0.2385 -1.3958
 2235SOL    HW3 8673   6.430   0.112   0.549 -0.4061 -1.1849  0.0261
 2235SOL    MW4 8674   6.411   0.081   0.470 -0.2948 -0.5036 -0.1342
 2236SOL     OW 8675   0.996   5.735   2.030  0.1405 -0.4977  0.4495
 2236SOL    HW2 8676   1.014   5.794   1.957 -1.7195  0.5544  0.7549
 2236SOL    HW3 8677   0.994   5.791   2.107  0.8427 -1.3952  1.1505
 2236SOL    MW4 8678   0.998   5.750   2.030 -0.0792 -0.1618  0.5447
 2237SOL     OW 8679   6.183   0.594   1.579 -0.5606 -0.0419 -1.0030
 2237SOL    HW2 8680   6.177   0.577   1.674 -0.7481 -0.2256 -1.0452
 2237SOL    HW3 8681   6.132   0.523   1.540 -1.0729  0.4367 -1.2094
 2237SOL    MW4 8682   6.175   0.582   1.587 -0.4325 -0.2242 -0.0863
 2238SOL     OW 8683   4.669   0.933   4.857  0.7342  0.6862 -0.0098
 2238SOL    HW2 8684   4.577   0.916   4.837  0.6110  0.9478  0.3196
 2238SOL    HW3 8685   4.707   0.959   4.773  0.9252 -1.1314 -0.5199
 2238SOL    MW4 8686   4.662   0.935   4.843  0.0786  0.5380 -0.1858
 2239SOL     OW 8687   5.178   4.062   4.242  0.2948  0.6062 -0.2199
 2239SOL    HW2 8688   5.236   4.136   4.259  2.0568 -1.1593  2.1390
 2239SOL    HW3 8689   5.225   4.009   4.178 -0.5500  1.0203 -1.2164
 2239SOL    MW4 8690   5.192   4.065   4.236  0.1088  0.4715 -0.3650
 2240SOL     OW 8691   5.710   5.632   4.844  0.3494 -0.0150 -0.7922
 2240SOL    HW2 8692   5.662   5.688   4.782 -2.0276 -0.6283  0.3814
 2240SOL    HW3 8693   5.738   5.692   4.913  1.0991  0.3057 -1.3583
 2240SOL    MW4 8694   5.707   5.647   4.845  0.5716 -0.1444 -0.4406
 2241SOL     OW 8695   3.028   1.982   1.679 -0.6044 -0.1878  0.2276
 2241SOL    HW2 8696   3.021   1.917   1.749 -1.2736  1.0107  1.2951
 2241SOL    HW3 8697   2.939   2.015   1.668 -0.1717  0.9692  0.1019
 2241SOL    MW4 8698   3.016   1.978   1.686  0.4852 -0.1428 -0.4202
 2242SOL     OW 8699   2.300   1.573   6.166 -0.3973  0.3128  0.4710
 2242SOL    HW2 8700   2.370   1.611   6.113 -0.3492 -0.4126  0.0034
 2242SOL    HW3 8701   2.225   1.568   6.106 -0.7038  0.6215  0.8258
 2242SOL    MW4 8702   2.300   1.578   6.151  0.2624  0.6546  0.2025
 2243SOL     OW 8703   1.719   5.708   4.636 -0.4989  0.0388  0.2362
 2243SOL    HW2 8704   1.658   5.695   4.562 -0.0454  1.8217 -0.5123
 2243SOL    HW3 8705   1.665   5.749   4.704 -0.6985 -0.7338  0.5535
 2243SOL    MW4 8706   1.704   5.712   4.635 -0.5341  0.4186  0.8066
 2244SOL     OW 8707   6.327   3.635   4.480 -0.3125  1.2151 -0.1191
 2244SOL    HW2 8708   6.280   3.684   4.412 -0.6296  1.9503  0.6098
 2244SOL    HW3 8709   6.372   3.703   4.531 -0.6753  0.7377  0.8497
 2244SOL    MW4 8710   6.327   3.651   4.477  0.4775 -0.4195 -0.5149
 2245SOL     OW 8711   5.547   5.869   5.425  0.2564  0.1948 -0.1779
 2245SOL    HW2 8712   5.637   5.858   5.395  0.8580 -2.5793  2.2134
 2245SOL    HW3 8713   5.493   5.848   5.349  1.6763 -1.6312 -0.7510
 2245SOL    MW4 8714   5.552   5.865   5.411  0.1523  0.8950 -0.5616
 2246SOL     OW 8715   1.997   1.856   3.106 -0.0651  0.2718  0.2822
 2246SOL    HW2 8716   1.956   1.917   3.046 -1.9031 -0.1680  1.0241
 2246SOL    HW3 8717   1.952   1.871   3.190  0.0909 -1.4272  0.7034
 2246SOL    MW4 8718   1.986   1.866   3.109  0.5696 -0.6047 -0.3292
 2247SOL     OW 8719   6.063   3.897   5.307  0.0963 -0.6343 -0.1942
 2247SOL    HW2 8720   6.042   3.961   5.239  0.5080 -0.6445 -0.3308
 2247SOL    HW3 8721   6.045   3.812   5.267  0.9347 -0.6721 -0.5092
 2247SOL    MW4 8722   6.058   3.894   5.293  0.1208  0.0728  0.0783
 2248SOL     OW 8723   3.317   3.902   4.930  0.4654 -0.0474  0.0519
 2248SOL    HW2 8724   3.308   3.874   4.838  2.0841  0.2715 -0.2329
 2248SOL    HW3 8725   3.300   3.996   4.928 -1.5190 -0.3607  0.4422
 2248SOL    MW4 8726   3.314   3.911   4.917  0.1784 -0.2269  0.2072
 2249SOL     OW 8727   0.987   5.274   5.376  0.0400 -0.0124  0.2847
 2249SOL    HW2 8728   0.973   5.343   5.441 -1.2223 -1.3999  1.5327
 2249SOL    HW3 8729   0.919   5.209   5.394 -0.5763 -0.3037 -2.6640
 2249SOL    MW4 8730   0.976   5.275   5.387  0.1278  0.1220  0.6013
 2250SOL     OW 8731   4.359   2.161   5.686  0.0371 -0.4017 -0.0535
 2250SOL    HW2 8732   4.354   2.082   5.633  2.4004 -0.5470 -0.1709
 2250SOL    HW3 8733   4.423   2.216   5.641  0.4135  0.4287  1.4088
 2250SOL    MW4 8734   4.367   2.158   5.673  0.2564  0.1853 -0.3275
 2251SOL     OW 8735   1.063   5.256   4.178  0.1911  0.2147  0.2712
 2251SOL    HW2 8736   0.982   5.255   4.126 -0.5805  1.2318  1.4059
 2251SOL    HW3 8737   1.078   5.348   4.197  2.4792  0.2138 -1.1620
 2251SOL    MW4 8738   1.054   5.268   4.174  0.1277 -0.2747 -0.4220
 2252SOL     OW 8739   0.848   0.951   0.943 -0.6513  0.1558 -0.1490
 2252SOL    HW2 8740   0.865   0.864   0.981  0.4107  0.2526 -0.3794
 2252SOL    HW3 8741   0.858   1.011   1.017 -0.3802  0.1725 -0.1975
 2252SOL    MW4 8742   0.851   0.947   0.958 -0.6749 -0.3159 -0.2575
 2253SOL     OW 8743   1.334   4.390   5.520 -0.2316 -0.1361  0.1946
 2253SOL    HW2 8744   1.257   4.345   5.484 -0.0144 -0.0653 -0.3756
 2253SOL    HW3 8745   1.344   4.355   5.608 -1.7042  0.8181  0.7693
 2253SOL    MW4 8746   1.325   4.379   5.527  0.2833 -0.1038  0.4753
 2254SOL     OW 8747   3.453   3.647   2.449 -0.5505 -0.2704  0.4624
 2254SOL    HW2 8748   3.410   3.625   2.532 -1.0089  2.9660  1.1950
 2254SOL    HW3 8749   3.546   3.648   2.470 -0.5663 -0.8210  0.5705
 2254SOL    MW4 8750   3.459   3.644   2.463  0.0866  0.2764  0.1039
 2255SOL     OW 8751   2.765   5.005   3.527  0.1513  0.1313 -0.0999
 2255SOL    HW2 8752   2.734   4.987   3.438  1.0500 -0.7693 -0.2418
 2255SOL    HW3 8753   2.749   4.925   3.576  2.4151 -0.4671 -0.2399
 2255SOL    MW4 8754   2.759   4.992   3.522  0.1895  0.3475  0.3760
 2256SOL     OW 8755   5.985   6.264   2.285  0.0445 -0.0227 -0.2073
 2256SOL    HW2 8756   5.990   6.223   2.371  1.0261  2.4505  0.9919
 2256SOL    HW3 8757   6.061   6.230   2.238  0.1394 -0.5254  0.2930
 2256SOL    MW4 8758   5.996   6.254   2.290  0.6441 -0.0588 -0.1129
 2257SOL     OW 8759   2.273   0.580   6.218  0.7823  0.1108 -0.2971
 2257SOL    HW2 8760   2.319   0.502   6.186  1.3844  0.1485  0.4611
 2257SOL    HW3 8761   2.342   0.646   6.227  0.5598  0.2081  0.7307
 2257SOL    MW4 8762   2.288   0.579   6.215  0.1463  0.2021 -0.1269
 2258SOL     OW 8763   1.168   3.113   2.814 -0.3199 -0.3190 -0.1412
 2258SOL    HW2 8764   1.188   3.155   2.730 -1.2686 -1.5097 -0.9986
 2258SOL    HW3 8765   1.155   3.021   2.793 -1.3768 -0.5133  1.1822
 2258SOL    MW4 8766   1.169   3.107   2.800  0.0468  0.0933 -0.1164
 2259SOL     OW 8767   5.784   4.919   4.986 -0.5041  0.0337 -0.4081
 2259SOL    HW2 8768   5.754   4.967   4.909  2.4172  0.0263 -1.6803
 2259SOL    HW3 8769   5.765   4.976   5.060 -2.6635  0.3830 -1.1803
 2259SOL    MW4 8770   5.778   4.933   4.985 -0.0631 -0.3771 -0.2058
 2260SOL     OW 8771   2.055   2.808   1.697 -0.2236  0.4956 -0.4941
 2260SOL    HW2 8772   2.118   2.736   1.686 -0.0169  0.6427 -0.2900
 2260SOL    HW3 8773   2.106   2.878   1.738 -0.9073  0.0427  1.2007
 2260SOL    MW4 8774   2.070   2.808   1.701  0.1422 -0.1510 -0.4675
 2261SOL     OW 8775   5.343   2.317   0.025  0.8149  0.1417 -0.4364
 2261SOL    HW2 8776   5.402   2.322   0.100 -0.2063  0.0224  0.3948
 2261SOL    HW3 8777   5.326   2.224   0.013  1.3088  0.1274 -1.1021
 2261SOL    MW4 8778   5.349   2.306   0.033  0.5716 -0.6869 -0.0536
 2262SOL     OW 8779   1.928   5.597   3.822 -0.8461 -0.6451  0.0921
 2262SOL    HW2 8780   1.985   5.526   3.850  0.0661 -0.8746 -2.1103
 2262SOL    HW3 8781   1.840   5.567   3.844 -0.3677 -1.7869  0.5482
 2262SOL    MW4 8782   1.924   5.584   3.828  0.8854  0.3591 -0.3682
 2263SOL     OW 8783   4.284   5.800   0.843 -0.4135  0.0769  0.2943
 2263SOL    HW2 8784   4.364   5.820   0.794 -2.3096 -0.6605 -3.3727
 2263SOL    HW3 8785   4.309   5.728   0.901  1.6468  0.0707 -0.5226
 2263SOL    MW4 8786   4.298   5.793   0.844 -0.6173  0.0652 -0.7043
 2264SOL     OW 8787   4.982   2.395   5.213 -0.1295  0.1127 -0.2372
 2264SOL    HW2 8788   5.078   2.397   5.213 -0.1284  0.5227  0.9770
 2264SOL    HW3 8789   4.957   2.479   5.174  0.0036 -0.0001 -0.5697
 2264SOL    MW4 8790   4.992   2.406   5.208 -0.2010 -0.5007  0.4732
 2265SOL     OW 8791   5.188   2.823   1.544 -0.1701 -0.2959  0.3135
 2265SOL    HW2 8792   5.221   2.735   1.562 -0.2587 -0.5288 -0.6104
 2265SOL    HW3 8793   5.096   2.820   1.571 -0.4405 -0.7953 -0.6047
 2265SOL    MW4 8794   5.180   2.811   1.550 -0.4337 -0.1074 -0.5041
 2266SOL     OW 8795   5.208   6.315   5.279 -0.7936 -0.3379 -0.4940
 2266SOL    HW2 8796   5.246   6.360   5.203 -1.4674 -0.4622 -0.9164
 2266SOL    HW3 8797   5.283   6.276   5.324 -0.5215 -1.7207 -2.0470
 2266SOL    MW4 8798   5.223   6.316   5.274 -0.2763 -0.1005 -0.0759
 2267SOL     OW 8799   2.406   2.647   1.259  0.2206  0.1568 -0.0037
 2267SOL    HW2 8800   2.411   2.699   1.179 -1.0338  0.5799  0.1608
 2267SOL    HW3 8801   2.323   2.675   1.300 -0.9755 -2.5902 -0.3634
 2267SOL    MW4 8802   2.396   2.658   1.254 -0.1798 -0.0378 -0.1757
 2268SOL     OW 8803   2.662   4.931   4.275 -0.4872 -0.7812  0.2636
 2268SOL    HW2 8804   2.712   5.008   4.247 -0.7096  0.3613  2.7132
 2268SOL    HW3 8805   2.586   4.968   4.321 -0.2996 -2.4212  2.0154
 2268SOL    MW4 8806   2.659   4.946   4.277  0.0174 -0.1343 -0.1400
 2269SOL     OW 8807   6.277   4.329   0.639 -0.0874 -0.1459  0.2421
 2269SOL    HW2 8808   6.218   4.284   0.579 -2.0952  1.6504  0.7249
 2269SOL    HW3 8809   6.266   4.422   0.619  1.9565  0.3216  0.9795
 2269SOL    MW4 8810   6.268   4.335   0.629 -0.3016  0.6969  0.2887
 2270SOL     OW 8811   0.748   1.368   1.295  0.4598  0.6542 -0.3411
 2270SOL    HW2 8812   0.699   1.448   1.316 -0.1339  0.5880 -1.4160
 2270SOL    HW3 8813   0.839   1.398   1.285  0.7809  0.7033  2.1171
 2270SOL    MW4 8814   0.754   1.383   1.296  0.6548  0.3023 -0.0826
 2271SOL     OW 8815   1.126   0.704   5.461  0.0149 -0.2756 -0.5364
 2271SOL    HW2 8816   1.167   0.721   5.546 -1.0791 -2.2976  0.4655
 2271SOL    HW3 8817   1.035   0.682   5.482 -0.4460 -0.1905 -2.3037
 2271SOL    MW4 8818   1.119   0.703   5.475 -0.4418  0.4203  0.1552
 2272SOL     OW 8819   2.836   0.911   0.144  0.1268 -0.2902 -0.1695
 2272SOL    HW2 8820   2.779   0.987   0.156 -0.4543 -0.7643  0.1185
 2272SOL    HW3 8821   2.911   0.945   0.095 -0.2310  0.4183 -0.2392
 2272SOL    MW4 8822   2.838   0.925   0.139  0.1411 -0.9089  0.4513
 2273SOL     OW 8823   5.965   1.056   1.614  0.1478  0.6943  0.2494
 2273SOL    HW2 8824   5.929   1.118   1.551 -1.0674  1.6507  1.8206
 2273SOL    HW3 8825   6.011   0.991   1.561  0.1312  2.0785 -1.5283
 2273SOL    MW4 8826   5.967   1.055   1.599  0.1809 -0.2679  0.0056
 2274SOL     OW 8827   5.370   4.662   3.885 -0.2257  0.7351 -0.4822
 2274SOL    HW2 8828   5.414   4.659   3.800  0.0308 -0.6709 -0.3211
 2274SOL    HW3 8829   5.415   4.597   3.938 -2.7269 -1.0993 -0.4437
 2274SOL    MW4 8830   5.381   4.653   3.880  0.0520 -0.6641  0.5910
 2275SOL     OW 8831   4.490   5.633   1.621  0.2510 -0.2509 -0.7514
 2275SOL    HW2 8832   4.544   5.624   1.542 -0.1781 -0.2820 -1.0483
 2275SOL    HW3 8833   4.508   5.721   1.653  1.9533 -0.9376  0.2697
 2275SOL    MW4 8834   4.499   5.644   1.615  0.1774 -0.0836 -0.4970
 2276SOL     OW 8835   2.606   3.561   3.346 -0.1797  0.0137  0.1574
 2276SOL    HW2 8836   2.623   3.651   3.320 -1.2009  0.2001  0.0751
 2276SOL    HW3 8837   2.548   3.527   3.278 -0.2628 -0.5238  0.4891
 2276SOL    MW4 8838   2.600   3.568   3.334  0.6823 -0.1915  0.3152
 2277SOL     OW 8839   5.778   6.195   5.242  0.0708 -0.7283 -0.0597
 2277SOL    HW2 8840   5.844   6.133   5.211 -0.7583 -1.9196  0.4861
 2277SOL    HW3 8841   5.696   6.146   5.239 -0.3581 -0.2203  1.9750
 2277SOL    MW4 8842   5.776   6.181   5.238  0.8046  0.3465  0.2320
 2278SOL     OW 8843   1.458   3.212   3.827  0.6216  0.0153  0.0362
 2278SOL    HW2 8844   1.413   3.151   3.885  0.3072  1.1115  0.9855
 2278SOL    HW3 8845   1.527   3.160   3.786 -0.7524 -1.4111 -0.5628
 2278SOL    MW4 8846   1.461   3.197   3.829 -0.6464  0.3095 -0.2009
 2279SOL     OW 8847   6.231   1.095   5.031 -0.0173 -0.1498 -0.4976
 2279SOL    HW2 8848   6.204   1.184   5.010 -0.8195 -0.0287  0.9134
 2279SOL    HW3 8849   6.193   1.041   4.961  2.4964  0.8064 -2.7523
 2279SOL    MW4 8850   6.222   1.099   5.019 -0.0357  0.2726 -0.5497
 2280SOL     OW 8851   3.013   4.710   4.057  0.5741  0.2863 -0.2497
 2280SOL    HW2 8852   3.038   4.618   4.063  0.0162  0.1721  0.4906
 2280SOL    HW3 8853   2.986   4.722   3.966 -0.4106 -0.5764 -0.0926
 2280SOL    MW4 8854   3.013   4.699   4.046 -0.0641 -0.2678 -0.6859
 2281SOL     OW 8855   0.449   3.107   3.545  0.5625 -0.3369  0.4811
 2281SOL    HW2 8856   0.427   3.089   3.636  0.5128  0.6960  0.6763
 2281SOL    HW3 8857   0.381   3.167   3.514  0.9381 -0.1690 -0.0426
 2281SOL    MW4 8858   0.437   3.112   3.553  0.0461  0.4371  0.0132
 2282SOL     OW 8859   5.218   0.503   0.522 -0.1854  0.3573 -0.0769
 2282SOL    HW2 8860   5.253   0.553   0.596 -0.5705 -1.7567  1.6182
 2282SOL    HW3 8861   5.286   0.439   0.502  1.1591  2.6020 -3.5126
 2282SOL    MW4 8862   5.232   0.501   0.529  0.0546 -0.6683 -0.4336
 2283SOL     OW 8863   3.825   4.924   3.788 -0.0256 -0.3382  0.2198
 2283SOL    HW2 8864   3.888   4.981   3.830  0.3979  0.3786 -1.3151
 2283SOL    HW3 8865   3.869   4.892   3.709 -0.6927 -1.8162  0.4056
 2283SOL    MW4 8866   3.839   4.927   3.783 -0.7154  0.7098  0.0525
 2284SOL     OW 8867   1.193   2.370   2.938 -0.2544 -0.3372  0.3564
 2284SOL    HW2 8868   1.190   2.353   2.843 -4.4112 -0.6142  0.3221
 2284SOL    HW3 8869   1.204   2.284   2.978  1.4386 -0.2280  0.1991
 2284SOL    MW4 8870   1.194   2.357   2.930  0.3133  0.1591  0.5523
 2285SOL     OW 8871   5.339   5.585   3.978  0.7270 -0.1345 -0.1726
 2285SOL    HW2 8872   5.306   5.632   3.901 -0.9129 -0.1536  0.4823
 2285SOL    HW3 8873   5.395   5.648   4.022 -0.0629  0.6449 -0.2379
 2285SOL    MW4 8874   5.342   5.599   3.974 -0.4657  1.0131 -0.2767
 2286SOL     OW 8875   0.077   3.352   3.870 -0.3561 -0.0796 -0.4073
 2286SOL    HW2 8876   0.072   3.445   3.850 -1.5523  0.1201  0.7002
 2286SOL    HW3 8877   0.123   3.347   3.953 -1.6526 -0.3353  0.3219
 2286SOL    MW4 8878   0.083   3.364   3.878  0.0612 -0.1633 -0.0645
 2287SOL     OW 8879   5.710   4.811   2.314  0.0964  0.0191 -0.0437
 2287SOL    HW2 8880   5.792   4.846   2.280 -1.3378  1.2031 -2.6120
 2287SOL    HW3 8881   5.684   4.871   2.384  0.7394  0.4614 -0.1794
 2287SOL    MW4 8882   5.717   4.823   2.319 -0.1444 -0.3102 -0.4313
 2288SOL     OW 8883   1.298   5.225   0.630  0.1930 -0.7590  0.2733
 2288SOL    HW2 8884   1.321   5.290   0.697  0.6590 -1.8188  1.1754
 2288SOL    HW3 8885   1.379   5.177   0.613  0.0892 -0.4872 -1.1049
 2288SOL    MW4 8886   1.311   5.227   0.637  0.0755 -0.0696  0.2193
 2289SOL     OW 8887   1.217   4.628   4.664 -0.1301  0.2403 -0.6924
 2289SOL    HW2 8888   1.145   4.567   4.678 -0.9372  1.5237  1.2965
 2289SOL    HW3 8889   1.229   4.631   4.569 -3.5956  0.9430 -1.2275
 2289SOL    MW4 8890   1.209   4.620   4.653 -0.3592  0.1292  0.2772
 2290SOL     OW 8891   6.144   3.792   0.970 -0.1035  0.5730  0.1090
 2290SOL    HW2 8892   6.120   3.803   0.878  0.2886 -0.2181 -0.0912
 2290SOL    HW3 8893   6.167   3.881   0.999 -1.0552  0.9645 -0.3127
 2290SOL    MW4 8894   6.144   3.806   0.962 -0.0630  0.3593 -0.4074
 2291SOL     OW 8895   3.626   1.410   4.358 -0.2878  0.3016  0.2966
 2291SOL    HW2 8896   3.676   1.379   4.433  0.7202 -1.8746 -1.1791
 2291SOL    HW3 8897   3.536   1.417   4.391  0.2598  0.2791  1.9075
 2291SOL    MW4 8898   3.620   1.407   4.372  0.1152 -0.2031 -0.2737
 2292SOL     OW 8899   2.651   6.308   3.072  0.3239  0.0795  0.4089
 2292SOL    HW2 8900   2.740   6.307   3.036  0.9823 -2.3140  1.8800
 2292SOL    HW3 8901   2.596   6.330   2.997  1.7183 -3.3901 -1.9388
 2292SOL    MW4 8902   2.656   6.311   3.057 -0.2343 -0.1932 -0.2113
 2293SOL     OW 8903   3.287   2.573   3.551 -0.6545 -0.4628 -0.0982
 2293SOL    HW2 8904   3.215   2.510   3.541  0.7588 -1.8759 -2.2378
 2293SOL    HW3 8905   3.363   2.519   3.575  0.6647  0.3274 -2.2415
 2293SOL    MW4 8906   3.288   2.558   3.553 -0.0287  0.4810 -0.6484
 2294SOL     OW 8907   1.684   5.763   1.728 -0.6322 -0.1924  0.2198
 2294SOL    HW2 8908   1.689   5.668   1.720  0.2937 -0.0349 -1.5682
 2294SOL    HW3 8909   1.620   5.789   1.662 -0.0666  0.4909 -0.0745
 2294SOL    MW4 8910   1.676   5.754   1.718 -0.5426  0.0910 -0.4773
 2295SOL     OW 8911   5.042   1.083   1.338  0.4678 -0.1497 -0.3066
 2295SOL    HW2 8912   5.137   1.084   1.355  0.4728 -1.0033 -0.2595
 2295SOL    HW3 8913   5.003   1.055   1.421  0.0696  1.4767  0.0809
 2295SOL    MW4 8914   5.050   1.079   1.351  0.0621 -0.7790 -0.3618
 2296SOL     OW 8915   3.871   1.327   2.587 -0.2542  0.3573  0.1970
 2296SOL    HW2 8916   3.817   1.269   2.534 -0.2577  1.4856 -1.0827
 2296SOL    HW3 8917   3.946   1.348   2.531  0.7546  0.0272  1.3793
 2296SOL    MW4 8918   3.874   1.322   2.573  0.3709 -0.0709 -0.4497
 2297SOL     OW 8919   5.084   5.605   4.070  0.4269  0.4174 -0.1042
 2297SOL    HW2 8920   5.066   5.536   4.134  0.2950  0.0035 -0.5807
 2297SOL    HW3 8921   5.177   5.594   4.050  1.0157  1.8787  1.5627
 2297SOL    MW4 8922   5.094   5.594   4.076 -0.1859  0.4020 -0.7648
 2298SOL     OW 8923   4.223   2.554   3.561 -0.6438  0.2379  0.2207
 2298SOL    HW2 8924   4.201   2.479   3.506 -0.1600  0.8782 -0.8748
 2298SOL    HW3 8925   4.310   2.581   3.533  0.2491 -0.2669  2.2774
 2298SOL    MW4 8926   4.232   2.548   3.550  0.0360 -0.0576  0.5306
 2299SOL     OW 8927   4.690   0.461   1.389  0.6160 -0.5312 -0.0806
 2299SOL    HW2 8928   4.708   0.454   1.483 -0.7659 -0.3796  0.2126
 2299SOL    HW3 8929   4.650   0.377   1.367 -0.7935  0.1329 -0.1170
 2299SOL    MW4 8930   4.687   0.449   1.399  0.0235 -0.0741 -0.0712
 2300SOL     OW 8931   0.526   3.915   1.654 -0.3474  0.1302  0.0378
 2300SOL    HW2 8932   0.439   3.930   1.692 -0.1950 -0.9441  0.8741
 2300SOL    HW3 8933   0.509   3.899   1.561 -0.8851  1.3164 -0.0857
 2300SOL    MW4 8934   0.512   3.914   1.647  0.0694 -0.3147 -0.2923
 2301SOL     OW 8935   0.830   2.633   1.703 -0.3978 -0.2679 -0.0050
 2301SOL    HW2 8936   0.881   2.697   1.654 -1.5020  0.4087 -0.3201
 2301SOL    HW3 8937   0.748   2.678   1.724 -0.6169 -1.0973  1.0390
 2301SOL    MW4 8938   0.826   2.647   1.699 -0.5174 -0.2783 -0.1866
 2302SOL     OW 8939   0.178   0.366   1.975 -0.7619  0.6049  0.1924
 2302SOL    HW2 8940   0.147   0.428   2.042 -1.0330  0.0538  0.5787
 2302SOL    HW3 8941   0.178   0.418   1.894 -2.1505  0.7911  0.2841
 2302SOL    MW4 8942   0.174   0.381   1.974  0.4516 -0.2984  0.3038
 2303SOL     OW 8943   3.861   0.039   6.230  0.0359 -0.0542 -0.1045
 2303SOL    HW2 8944   3.934   0.061   6.288  0.0343  0.1564 -0.1829
 2303SOL    HW3 8945   3.842   0.120   6.183 -2.6421  1.0554  2.4966
 2303SOL    MW4 8946   3.868   0.052   6.232  0.4408 -0.2984  0.1444
 2304SOL     OW 8947   2.926   1.961   4.933 -0.5781 -0.0700  0.2476
 2304SOL    HW2 8948   2.905   1.897   4.866 -3.0601 -0.3849  1.2173
 2304SOL    HW3 8949   2.923   1.912   5.015  0.4706  0.7049  0.7748
 2304SOL    MW4 8950   2.923   1.946   4.935 -0.1358  0.4479 -0.0957
 2305SOL     OW 8951   5.893   0.732   1.858  0.1278  0.0704  0.2651
 2305SOL    HW2 8952   5.949   0.738   1.935  1.3153 -2.7656 -0.2455
 2305SOL    HW3 8953   5.806   0.712   1.894 -0.1831  2.4208  0.9632
 2305SOL    MW4 8954   5.889   0.730   1.873 -0.7526  0.4672  0.2190
 2306SOL     OW 8955   2.631   0.302   3.173  0.6260  0.2172  0.0401
 2306SOL    HW2 8956   2.639   0.209   3.194  1.5840  0.4686  0.8909
 2306SOL    HW3 8957   2.708   0.320   3.119  0.8616  0.6727  0.5213
 2306SOL    MW4 8958   2.642   0.292   3.169  0.0416 -0.3135  0.0278
 2307SOL     OW 8959   0.385   3.307   1.888 -0.2271  0.0599  0.1224
 2307SOL    HW2 8960   0.347   3.393   1.871  0.3962  0.0467 -1.5024
 2307SOL    HW3 8961   0.310   3.247   1.890 -0.6866  0.6361  1.4963
 2307SOL    MW4 8962   0.370   3.310   1.886  0.6665  0.1611 -0.4736
 2308SOL     OW 8963   3.425   1.064   0.276  0.0016  0.0272 -0.2062
 2308SOL    HW2 8964   3.498   1.027   0.226 -0.0111 -0.0271 -0.1841
 2308SOL    HW3 8965   3.395   0.993   0.332 -0.0060  0.0787 -0.1449
 2308SOL    MW4 8966   3.430   1.050   0.277 -0.2359 -0.4964  0.0425
 2309SOL     OW 8967   6.197   6.065   0.641 -0.3955 -0.3850  0.2725
 2309SOL    HW2 8968   6.289   6.062   0.669  0.6434 -0.0288 -2.7409
 2309SOL    HW3 8969   6.154   6.119   0.708  1.7997  0.2702  1.2619
 2309SOL    MW4 8970   6.204   6.072   0.653  0.0663  0.4026 -0.1082
 2310SOL     OW 8971   5.373   5.181   1.722  0.2657 -0.5388  0.8870
 2310SOL    HW2 8972   5.351   5.103   1.670  0.4209 -2.0011  2.9002
 2310SOL    HW3 8973   5.308   5.246   1.697 -0.1634 -1.4584 -0.5051
 2310SOL    MW4 8974   5.362   5.179   1.712  0.4639 -0.8469 -0.0954
 2311SOL     OW 8975   1.931   2.480   5.791 -0.3069  0.2616 -0.4568
 2311SOL    HW2 8976   1.962   2.477   5.881  0.7449 -1.4823 -0.8341
 2311SOL    HW3 8977   1.848   2.433   5.792 -0.0534 -0.1971 -0.4629
 2311SOL    MW4 8978   1.924   2.474   5.803  0.0741 -0.1762 -0.0978
 2312SOL     OW 8979   0.672   4.319   5.737 -0.4518  0.1206  0.2309
 2312SOL    HW2 8980   0.617   4.397   5.723 -0.8984 -0.5093 -1.8727
 2312SOL    HW3 8981   0.615   4.245   5.718  1.0005 -0.5653 -1.8025
 2312SOL    MW4 8982   0.658   4.320   5.733 -0.4667 -0.0901 -0.7155
 2313SOL     OW 8983   2.005   4.749   0.776  0.3985 -0.1282 -0.0530
 2313SOL    HW2 8984   2.072   4.684   0.758  0.3548 -0.5766  1.2630
 2313SOL    HW3 8985   1.965   4.720   0.858 -0.7077  0.6919 -0.2751
 2313SOL    MW4 8986   2.008   4.737   0.785 -0.0660 -0.2466  0.5827
 2314SOL     OW 8987   3.056   4.690   5.645  0.0761 -0.0253  0.1837
 2314SOL    HW2 8988   2.996   4.701   5.719 -1.1612  0.5563 -0.8727
 2314SOL    HW3 8989   3.100   4.606   5.662 -0.3198  0.0097  1.4704
 2314SOL    MW4 8990   3.054   4.680   5.657 -0.5326  0.8692  0.2486
 2315SOL     OW 8991   2.808   0.394   1.207  0.4771 -0.2635 -0.5141
 2315SOL    HW2 8992   2.865   0.453   1.256 -0.3237 -0.1611  0.3195
 2315SOL    HW3 8993   2.860   0.368   1.131  0.9403  1.3401 -0.7919
 2315SOL    MW4 8994   2.822   0.398   1.204  0.6488 -0.2632 -0.5123
 2316SOL     OW 8995   3.950   1.099   5.015 -0.1100 -0.5273  0.3976
 2316SOL    HW2 8996   3.909   1.131   4.935  0.8376 -0.9101 -0.2476
 2316SOL    HW3 8997   3.909   1.151   5.085 -0.0875  0.6382 -0.4356
 2316SOL    MW4 8998   3.939   1.110   5.014  0.4130 -0.0967 -0.1647
 2317SOL     OW 8999   2.594   6.017   3.613 -0.4495  0.2771  0.4411
 2317SOL    HW2 9000   2.667   6.069   3.648  0.0644 -1.4785  2.1129
 2317SOL    HW3 9001   2.561   5.967   3.688 -0.8045 -1.9380 -1.0942
 2317SOL    MW4 9002   2.599   6.017   3.628 -0.0745  0.2958 -0.5875
 2318SOL     OW 9003   4.287   2.296   4.404 -0.0505  0.1103  0.0479
 2318SOL    HW2 9004   4.269   2.386   4.377 -1.3979  0.4462  1.8127
 2318SOL    HW3 9005   4.218   2.276   4.467  1.1728 -1.5813  0.9504
 2318SOL    MW4 9006   4.276   2.305   4.409 -0.2222  0.4454  0.0845
 2319SOL     OW 9007   1.037   5.074   0.961 -0.0992 -0.7154  0.0305
 2319SOL    HW2 9008   1.026   5.102   0.870 -0.6800 -4.0241 -1.0537
 2319SOL    HW3 9009   1.118   5.023   0.961  1.2747  1.2661  2.0250
 2319SOL    MW4 9010   1.046   5.071   0.949  0.1273  0.1222  0.0864
 2320SOL     OW 9011   1.074   2.687   0.452  0.3420  0.3878  0.1604
 2320SOL    HW2 9012   1.096   2.654   0.539  2.5098  0.0854 -0.4613
 2320SOL    HW3 9013   1.080   2.611   0.395 -0.5680  0.6888 -0.3632
 2320SOL    MW4 9014   1.078   2.673   0.456 -0.0040 -0.1512 -0.6652
 2321SOL     OW 9015   1.566   1.707   6.026 -0.0822  1.0530 -0.1969
 2321SOL    HW2 9016   1.636   1.758   5.984  1.0769 -0.2277  0.1181
 2321SOL    HW3 9017   1.577   1.619   5.991 -1.6685  0.8644 -0.2622
 2321SOL    MW4 9018   1.577   1.702   6.016  0.1404  0.7105  0.4771
 2322SOL     OW 9019   0.819   5.406   1.137 -0.2308  0.2268  0.5210
 2322SOL    HW2 9020   0.759   5.390   1.210 -3.0817 -0.5678 -1.7836
 2322SOL    HW3 9021   0.812   5.327   1.083  1.3677  0.9753 -0.8708
 2322SOL    MW4 9022   0.810   5.393   1.139  0.3034  0.3164  0.6469
 2323SOL     OW 9023   1.065   2.047   5.028 -0.6061  0.1932  0.3362
 2323SOL    HW2 9024   0.983   2.069   4.984  0.3533  0.3577 -1.4584
 2323SOL    HW3 9025   1.042   1.974   5.086 -1.8412 -0.3839 -0.8245
 2323SOL    MW4 9026   1.051   2.040   5.030  0.0878 -0.3415  0.1399
 2324SOL     OW 9027   1.630   0.290   3.092 -0.0734  0.4086  0.4017
 2324SOL    HW2 9028   1.637   0.346   3.169 -1.1484 -1.1158  1.6642
 2324SOL    HW3 9029   1.583   0.343   3.027 -0.7167  1.1045  1.4175
 2324SOL    MW4 9030   1.625   0.305   3.093 -0.7110  0.2862  0.5267
 2325SOL     OW 9031   3.164   0.541   0.243 -0.2674 -0.7503  0.6830
 2325SOL    HW2 9032   3.253   0.576   0.238  0.2737 -2.2311 -0.7893
 2325SOL    HW3 9033   3.111   0.615   0.274  1.2011  0.6450 -0.0158
 2325SOL    MW4 9034   3.168   0.556   0.246 -0.1649  1.0690  0.3190
 2326SOL     OW 9035   2.479   1.244   0.319  0.3133  0.4834  0.5316
 2326SOL    HW2 9036   2.478   1.340   0.323  0.3530  0.4841  0.5282
 2326SOL    HW3 9037   2.511   1.217   0.406  1.6676  0.5125  0.0687
 2326SOL    MW4 9038   2.483   1.253   0.331  0.8928 -0.9373  0.2495
 2327SOL     OW 9039   1.615   0.952   5.262 -0.0942  0.0849  0.3181
 2327SOL    HW2 9040   1.519   0.949   5.257 -0.2390  2.4002  0.6384
 2327SOL    HW3 9041   1.641   1.002   5.185  0.7506  0.4780  0.8438
 2327SOL    MW4 9042   1.605   0.958   5.251  0.1115  0.1237 -0.6343
 2328SOL     OW 9043   4.620   5.838   5.445  0.0957 -0.3704 -0.2991
 2328SOL    HW2 9044   4.572   5.759   5.472  0.1229  0.4426  2.4137
 2328SOL    HW3 9045   4.559   5.910   5.461  2.1269  0.7531  3.7622
 2328SOL    MW4 9046   4.606   5.837   5.451  0.3059  0.0018 -0.0202
 2329SOL     OW 9047   2.544   1.447   0.015  0.0897  0.1869 -0.0277
 2329SOL    HW2 9048   2.632   1.430   0.047  0.2311  0.7176 -0.1271
 2329SOL    HW3 9049   2.497   1.365   0.030  0.0297  0.5329  1.9341
 2329SOL    MW4 9050   2.549   1.434   0.022  0.4939  0.4106 -0.6164
 2330SOL     OW 9051   3.320   3.051   5.676  1.0325 -0.0630 -0.4523
 2330SOL    HW2 9052   3.329   2.956   5.672  0.2982 -0.2062  0.6544
 2330SOL    HW3 9053   3.287   3.068   5.765  0.3703  1.1556 -0.9042
 2330SOL    MW4 9054   3.317   3.040   5.687  0.5699 -0.2787 -0.3987
 2331SOL     OW 9055   0.574   5.498   3.977 -0.3061  0.3613  0.1191
 2331SOL    HW2 9056   0.666   5.513   3.952 -0.6404  2.6816  0.0459
 2331SOL    HW3 9057   0.570   5.527   4.068 -0.4902 -2.0010  0.9143
 2331SOL    MW4 9058   0.586   5.504   3.986 -0.9095 -0.3023  0.0796
 2332SOL     OW 9059   2.420   1.104   2.884  0.2206  0.6122 -0.2245
 2332SOL    HW2 9060   2.375   1.065   2.958  3.0034 -1.1486  0.7138
 2332SOL    HW3 9061   2.388   1.056   2.808 -0.0606 -0.0528  0.3063
 2332SOL    MW4 9062   2.410   1.093   2.883  0.2874  0.2548  0.3658
 2333SOL     OW 9063   5.955   2.141   2.791 -0.0623 -0.3608 -0.0916
 2333SOL    HW2 9064   5.861   2.123   2.788  0.0471 -1.1426  0.7221
 2333SOL    HW3 9065   5.987   2.089   2.865  0.9345  0.2712 -0.0623
 2333SOL    MW4 9066   5.946   2.132   2.800  0.0792  0.3902  0.2685
 2334SOL     OW 9067   2.768   1.230   5.619 -0.1829 -0.8256  0.8897
 2334SOL    HW2 9068   2.860   1.213   5.636  0.8121 -1.5173 -3.8020
 2334SOL    HW3 9069   2.732   1.146   5.592 -2.4396 -0.6940  3.1572
 2334SOL    MW4 9070   2.775   1.217   5.617 -0.0357  0.3582  0.2643
 2335SOL     OW 9071   5.230   1.820   3.760 -0.0068  0.1672 -0.0046
 2335SOL    HW2 9072   5.198   1.874   3.687 -0.0951  0.4288  0.2293
 2335SOL    HW3 9073   5.151   1.781   3.797  0.0293  0.1170  0.0205
 2335SOL    MW4 9074   5.215   1.822   3.755 -0.6852 -0.4373  0.5096
 2336SOL     OW 9075   2.614   5.185   0.238 -0.3740  0.0179 -0.0567
 2336SOL    HW2 9076   2.590   5.260   0.292  0.8223  0.2541  0.1745
 2336SOL    HW3 9077   2.567   5.112   0.277 -0.8133  0.4787  0.2976
 2336SOL    MW4 9078   2.605   5.186   0.250  0.5674 -0.1082 -0.1555
 2337SOL     OW 9079   0.419   0.905   5.909 -0.1888  0.1202  0.1278
 2337SOL    HW2 9080   0.359   0.954   5.965 -0.9587  0.9282 -1.3624
 2337SOL    HW3 9081   0.498   0.959   5.904  1.4393 -1.6388  3.3499
 2337SOL    MW4 9082   0.422   0.918   5.916 -0.0694  0.1277  0.0015
 2338SOL     OW 9083   5.470   2.278   3.896 -0.0431 -0.3253  0.2213
 2338SOL    HW2 9084   5.458   2.201   3.951  0.2421  0.0461  0.8148
 2338SOL    HW3 9085   5.474   2.351   3.957  2.1128 -0.0858 -0.1268
 2338SOL    MW4 9086   5.469   2.277   3.911 -0.0919  0.0545 -0.5188
 2339SOL     OW 9087   4.699   1.419   1.396  0.1685 -0.1787 -0.1412
 2339SOL    HW2 9088   4.611   1.429   1.432 -0.0561 -1.9584 -0.1199
 2339SOL    HW3 9089   4.697   1.468   1.314 -0.7736 -0.0066 -0.0266
 2339SOL    MW4 9090   4.687   1.427   1.390  0.3958  0.2835 -0.7516
 2340SOL     OW 9091   2.438   1.504   3.684  0.4820  0.7704  0.4412
 2340SOL    HW2 9092   2.389   1.456   3.618  1.5283 -0.2348  0.3804
 2340SOL    HW3 9093   2.375   1.567   3.718  0.2640  2.2398 -2.3924
 2340SOL    MW4 9094   2.423   1.506   3.680  0.0972 -0.0796  0.3690
 2341SOL     OW 9095   4.096   4.227   6.102  0.0236 -0.0797  0.1105
 2341SOL    HW2 9096   4.122   4.166   6.032 -0.1017 -1.0212  0.8723
 2341SOL    HW3 9097   4.103   4.314   6.061 -3.3242 -0.6956 -2.2256
 2341SOL    MW4 9098   4.100   4.230   6.087  0.1770 -0.2886 -0.3917
 2342SOL     OW 9099   5.937   6.190   3.226  0.1722  0.2246  0.2808
 2342SOL    HW2 9100   5.861   6.203   3.169 -0.1811  0.8214  0.8768
 2342SOL    HW3 9101   5.900   6.166   3.311  0.7192 -1.6014  0.0397
 2342SOL    MW4 9102   5.922   6.189   3.230  0.1304 -0.3726 -0.6429
 2343SOL     OW 9103   3.353   5.019   4.897 -0.5118 -0.3159  0.3802
 2343SOL    HW2 9104   3.374   4.968   4.818  0.3401 -1.8092  1.5197
 2343SOL    HW3 9105   3.266   4.989   4.921 -0.2850 -0.7683  0.6650
 2343SOL    MW4 9106   3.344   5.008   4.889 -0.0154 -0.1410  0.0294
 2344SOL     OW 9107   4.408   0.762   3.700  0.5884  0.1500  0.3202
 2344SOL    HW2 9108   4.477   0.825   3.679  1.0103 -0.7389 -1.1097
 2344SOL    HW3 9109   4.334   0.789   3.646  0.0656  0.6424  1.2715
 2344SOL    MW4 9110   4.407   0.774   3.690 -0.4606  0.2758  0.1458
 2345SOL     OW 9111   2.627   3.028   3.699  0.7122  0.1707 -0.5332
 2345SOL    HW2 9112   2.636   3.067   3.613  0.7969 -0.4494 -0.8122
 2345SOL    HW3 9113   2.689   3.076   3.754 -1.2854  2.4459 -0.1173
 2345SOL    MW4 9114   2.636   3.040   3.695  0.2722 -0.1299  0.0955
 2346SOL     OW 9115   0.390   4.233   1.031  0.0715 -0.1765  0.6489
 2346SOL    HW2 9116   0.415   4.257   1.120 -0.2139 -1.1166  0.9913
 2346SOL    HW3 9117   0.309   4.183   1.041 -1.1999  1.5882 -0.3259
 2346SOL    MW4 9118   0.383   4.230   1.044 -0.9096  0.3871  1.0067
 2347SOL     OW 9119   3.280   0.617   4.608  0.5448  0.2885 -0.0097
 2347SOL    HW2 9120   3.293   0.634   4.701  1.5943 -3.3868  0.6776
 2347SOL    HW3 9121   3.188   0.592   4.601 -0.0600  2.3919 -0.4110
 2347SOL    MW4 9122   3.269   0.616   4.619  0.4655 -0.0006 -0.2148
 2348SOL     OW 9123   1.097   1.471   5.658  0.1871  0.6819 -0.4324
 2348SOL    HW2 9124   1.096   1.563   5.685  2.5047  0.8981 -0.8743
 2348SOL    HW3 9125   1.012   1.458   5.615  0.6809  3.3416 -2.5147
 2348SOL    MW4 9126   1.086   1.481   5.656  0.2815 -0.1269  0.0147
 2349SOL     OW 9127   1.756   4.333   1.807 -0.0968 -0.4169  0.3427
 2349SOL    HW2 9128   1.703   4.286   1.743 -0.6626 -0.4637  0.8337
 2349SOL    HW3 9129   1.820   4.268   1.837 -2.3499 -1.7012  2.7691
 2349SOL    MW4 9130   1.757   4.318   1.802  0.5584 -0.1380 -0.3541
 2350SOL     OW 9131   5.771   4.913   5.613  0.1401 -0.7093  0.7342
 2350SOL    HW2 9132   5.802   4.832   5.573 -0.8729 -0.5844 -0.3728
 2350SOL    HW3 9133   5.806   4.982   5.556  0.2438 -0.4183  1.1500
 2350SOL    MW4 9134   5.780   4.911   5.600 -0.3335  0.4099  0.5601
 2351SOL     OW 9135   3.074   4.341   0.619 -0.4745 -0.5900  0.0291
 2351SOL    HW2 9136   3.116   4.352   0.704  0.7496 -2.3799 -0.2826
 2351SOL    HW3 9137   2.980   4.332   0.639 -0.5235  1.4595  0.9199
 2351SOL    MW4 9138   3.067   4.341   0.633  0.3795 -0.3431  0.1705
 2352SOL     OW 9139   5.512   2.805   0.537 -0.0393  0.1138  0.3691
 2352SOL    HW2 9140   5.517   2.889   0.492 -2.0591 -0.2820 -0.6783
 2352SOL    HW3 9141   5.542   2.741   0.472 -0.3198 -0.1814  0.5286
 2352SOL    MW4 9142   5.517   2.807   0.522  0.2115  0.2257  0.3605
 2353SOL     OW 9143   1.147   0.316   2.278  0.4759  0.7020  0.5222
 2353SOL    HW2 9144   1.194   0.236   2.255  1.2007  1.2306  0.0974
 2353SOL    HW3 9145   1.085   0.328   2.206  1.1669  1.1255 -0.0260
 2353SOL    MW4 9146   1.145   0.307   2.265 -0.0038  0.1362  0.3481
 2354SOL     OW 9147   4.373   5.341   0.332  0.1589  0.0622 -0.5172
 2354SOL    HW2 9148   4.282   5.330   0.307 -0.1086  1.6488 -0.3708
 2354SOL    HW3 9149   4.392   5.266   0.389 -1.5804  0.5660  0.8265
 2354SOL    MW4 9150   4.364   5.330   0.336 -0.1470  0.2030 -0.1096
 2355SOL     OW 9151   2.365   0.645   5.562  0.1385 -0.5196 -0.2279
 2355SOL    HW2 9152   2.300   0.691   5.507  0.1506  0.3005  0.4286
 2355SOL    HW3 9153   2.445   0.648   5.510  0.2600  0.6258 -0.0165
 2355SOL    MW4 9154   2.367   0.652   5.548  0.1230 -0.1326  0.0479
 2356SOL     OW 9155   3.363   3.579   0.416 -0.1483 -0.2600  0.0795
 2356SOL    HW2 9156   3.349   3.672   0.432  0.6677 -0.1209  0.0077
 2356SOL    HW3 9157   3.407   3.547   0.494  0.3196 -0.4032 -0.2386
 2356SOL    MW4 9158   3.367   3.587   0.428 -0.0832  0.1627 -0.2723
 2357SOL     OW 9159   0.727   1.449   5.056  0.0652  0.3235  0.1414
 2357SOL    HW2 9160   0.796   1.508   5.027  2.5890 -1.9541  1.1108
 2357SOL    HW3 9161   0.723   1.381   4.989 -0.3145 -0.2539  0.7304
 2357SOL    MW4 9162   0.735   1.448   5.043  0.2629 -0.2879  0.3790
 2358SOL     OW 9163   3.614   6.014   2.695 -0.2399 -0.1329 -0.2481
 2358SOL    HW2 9164   3.585   6.106   2.697  0.2440  0.0990 -2.0877
 2358SOL    HW3 9165   3.539   5.966   2.660 -0.1881 -0.3098 -0.1176
 2358SOL    MW4 9166   3.600   6.020   2.690 -0.1382 -0.5300  0.0335
 2359SOL     OW 9167   6.249   4.641   5.600 -0.2009  0.1418  0.4233
 2359SOL    HW2 9168   6.206   4.564   5.637  0.4029  0.4655  1.9010
 2359SOL    HW3 9169   6.268   4.618   5.509 -0.4037 -1.2820  0.7254
 2359SOL    MW4 9170   6.246   4.628   5.593 -0.1775 -0.0458 -0.2841
 2360SOL     OW 9171   5.644   4.531   6.387  0.3604 -0.4599  0.0939
 2360SOL    HW2 9172   5.684   4.575   6.462 -0.6833  4.2954 -1.7503
 2360SOL    HW3 9173   5.550   4.534   6.404  0.2400 -3.2914  0.3778
 2360SOL    MW4 9174   5.637   4.537   6.399 -0.2237  0.7655 -0.1792
 2361SOL     OW 9175   1.511   5.396   2.251 -0.2546  0.2946  0.4762
 2361SOL    HW2 9176   1.428   5.376   2.294 -1.3651  4.0704  0.5045
 2361SOL    HW3 9177   1.578   5.362   2.310 -1.7758 -0.4071  1.8649
 2361SOL    MW4 9178   1.509   5.389   2.265 -0.2897  0.2283  0.4662
 2362SOL     OW 9179   6.230   5.272   3.872  0.3940 -0.3212  0.2094
 2362SOL    HW2 9180   6.247   5.355   3.827  0.0626 -0.3300  0.0649
 2362SOL    HW3 9181   6.177   5.222   3.810  0.1717 -0.4446  0.4986
 2362SOL    MW4 9182   6.226   5.276   3.858  0.0767 -0.4908  0.7206
 2363SOL     OW 9183   2.551   5.234   5.974 -0.1254 -0.7085 -0.8260
 2363SOL    HW2 9184   2.473   5.183   5.954 -1.7868  1.3060  0.1184
 2363SOL    HW3 9185   2.524   5.295   6.043  2.7644 -1.0235  0.7529
 2363SOL    MW4 9186   2.537   5.236   5.980 -0.0953  0.9923 -0.2577
 2364SOL     OW 9187   3.726   1.840   1.222  0.2638 -0.1767 -0.5564
 2364SOL    HW2 9188   3.780   1.763   1.241 -0.3503 -0.2843  0.8927
 2364SOL    HW3 9189   3.773   1.913   1.262 -0.4324 -0.2109  0.3531
 2364SOL    MW4 9190   3.739   1.839   1.230 -0.6106 -0.9268 -0.8042
 2365SOL     OW 9191   3.618   6.347   1.186  0.1556  0.0480  0.1172
 2365SOL    HW2 9192   3.693   6.379   1.135 -0.6000 -0.5840 -1.4491
 2365SOL    HW3 9193   3.657   6.316   1.268  1.7402 -0.9491 -0.9399
 2365SOL    MW4 9194   3.633   6.347   1.190 -0.0969 -0.4205 -0.1175
 2366SOL     OW 9195   0.677   0.161   3.253  0.1096  0.1470 -0.4137
 2366SOL    HW2 9196   0.632   0.237   3.217  0.6069  0.9731  0.6466
 2366SOL    HW3 9197   0.763   0.162   3.211  0.7368  1.1854  0.8310
 2366SOL    MW4 9198   0.682   0.171   3.243  0.9349 -0.5875 -0.2290
 2367SOL     OW 9199   2.804   2.321   6.248  0.0073 -0.0673  0.1903
 2367SOL    HW2 9200   2.772   2.352   6.163 -1.3505  0.1043  0.7269
 2367SOL    HW3 9201   2.749   2.245   6.268  0.6605 -0.4174  0.6897
 2367SOL    MW4 9202   2.792   2.315   6.239 -0.9144  0.2334  0.2733
 2368SOL     OW 9203   6.090   2.443   1.714 -0.2366 -0.0157  0.1352
 2368SOL    HW2 9204   6.075   2.526   1.758 -0.2049  0.1841 -0.2223
 2368SOL    HW3 9205   6.172   2.410   1.752 -0.1830  0.1775  0.1884
 2368SOL    MW4 9206   6.099   2.450   1.725 -0.2868 -0.4927  0.1562
 2369SOL     OW 9207   1.077   1.870   1.586 -0.6662 -0.6565 -0.1412
 2369SOL    HW2 9208   1.012   1.886   1.654  2.1502 -1.2646  2.9953
 2369SOL    HW3 9209   1.048   1.790   1.542 -1.4484 -1.6536  2.0414
 2369SOL    MW4 9210   1.065   1.862   1.589  0.4829  0.7050  0.4356
 2370SOL     OW 9211   4.735   3.105   5.428  0.3248  0.4923  0.2023
 2370SOL    HW2 9212   4.753   3.023   5.474  0.2093  1.7147  2.5777
 2370SOL    HW3 9213   4.776   3.173   5.482 -0.0622  2.0640 -1.3856
 2370SOL    MW4 9214   4.743   3.103   5.441 -0.1762 -0.6446 -0.2326
 2371SOL     OW 9215   4.008   3.957   6.196  0.2188 -0.0566  0.3935
 2371SOL    HW2 9216   3.996   3.973   6.290 -0.1484 -0.7538  0.4716
 2371SOL    HW3 9217   4.013   4.045   6.158  0.0112  0.2382  1.0171
 2371SOL    MW4 9218   4.007   3.971   6.204  0.1571 -0.6560  0.1248
 2372SOL     OW 9219   2.589   5.873   4.349  0.8966  0.0661 -0.8496
 2372SOL    HW2 9220   2.673   5.902   4.314  1.6570 -0.8353  0.1898
 2372SOL    HW3 9221   2.601   5.780   4.367 -0.8225 -0.4612 -2.1115
 2372SOL    MW4 9222   2.602   5.864   4.347  0.4286 -0.1070 -0.3036
 2373SOL     OW 9223   3.490   1.926   6.054  0.3003  0.5142  0.5160
 2373SOL    HW2 9224   3.553   1.875   6.003  1.5335  0.4480  2.0368
 2373SOL    HW3 9225   3.425   1.955   5.989  1.7098  0.3425 -1.0468
 2373SOL    MW4 9226   3.489   1.923   6.038  0.0109  0.3078 -0.0030
 2374SOL     OW 9227   5.230   5.593   5.551  0.5816 -0.1126  0.9341
 2374SOL    HW2 9228   5.196   5.549   5.474  3.1785  0.3835 -0.6315
 2374SOL    HW3 9229   5.206   5.685   5.539  1.0708 -0.0188  0.6294
 2374SOL    MW4 9230   5.222   5.599   5.539 -0.1582 -0.5142  0.1207
 2375SOL     OW 9231   1.032   6.220   0.629  0.2649 -0.0073  0.8587
 2375SOL    HW2 9232   1.003   6.299   0.675 -1.5909 -0.5045  0.6402
 2375SOL    HW3 9233   1.045   6.155   0.699  0.8113  0.2037  0.9552
 2375SOL    MW4 9234   1.030   6.221   0.644  0.0240  0.5277 -0.0917
 2376SOL     OW 9235   3.002   6.331   6.231 -0.1422 -0.1482  0.1982
 2376SOL    HW2 9236   2.963   6.294   6.152  0.4575 -1.5084  0.5146
 2376SOL    HW3 9237   3.090   6.356   6.206 -0.0858 -0.2084  0.3330
 2376SOL    MW4 9238   3.008   6.329   6.217 -0.7467  0.3874  0.1307
 2377SOL     OW 9239   5.908   4.432   0.990 -0.1441 -0.2572  0.1489
 2377SOL    HW2 9240   5.842   4.363   0.996  0.3901 -1.1128 -2.4488
 2377SOL    HW3 9241   5.973   4.409   1.056 -0.6062 -1.5246  0.1896
 2377SOL    MW4 9242   5.908   4.419   1.000  0.3946  0.2403  0.4785
 2378SOL     OW 9243   0.769   6.330   5.908  0.0530 -0.4464  0.5676
 2378SOL    HW2 9244   0.688   6.281   5.896 -1.2937  1.7554  0.2345
 2378SOL    HW3 9245   0.802   6.345   5.819  0.8647 -1.3228  0.6983
 2378SOL    MW4 9246   0.763   6.326   5.895  0.6452 -0.3256 -0.1784
 2379SOL     OW 9247   5.877   3.293   0.408  0.6532 -0.3343  0.1350
 2379SOL    HW2 9248   5.954   3.246   0.377  1.1386 -0.8447  1.9817
 2379SOL    HW3 9249   5.889   3.299   0.503  0.8682  3.9940  0.0240
 2379SOL    MW4 9250   5.889   3.288   0.417  0.0283 -0.8057 -0.2968
 2380SOL     OW 9251   0.311   6.428   5.627  0.0339 -0.0854 -0.1023
 2380SOL    HW2 9252   0.349   6.434   5.715  1.3059 -1.8659 -0.4686
 2380SOL    HW3 9253   0.349   6.348   5.590 -1.0898  0.1919 -1.9877
 2380SOL    MW4 9254   0.321   6.418   5.633 -0.5712 -0.1774  0.1644
 2381SOL     OW 9255   0.914   2.026   3.054 -0.1604  0.2216  0.4361
 2381SOL    HW2 9256   0.830   2.071   3.047  0.8564  2.1574  0.0277
 2381SOL    HW3 9257   0.948   2.023   2.965 -0.5637 -2.2178  0.2975
 2381SOL    MW4 9258   0.907   2.032   3.041  0.1679  0.2001 -0.6828
 2382SOL     OW 9259   2.080   5.894   4.529 -0.0339 -0.1175 -0.1859
 2382SOL    HW2 9260   2.158   5.934   4.492  0.0174  0.4282  0.4875
 2382SOL    HW3 9261   2.103   5.877   4.621 -0.5205 -0.4463 -0.1208
 2382SOL    MW4 9262   2.093   5.897   4.536 -0.2754 -0.3441 -0.0416
 2383SOL     OW 9263   0.145   3.118   5.394  0.7941  0.0584 -0.4599
 2383SOL    HW2 9264   0.162   3.185   5.460  1.4672  0.0279 -0.6009
 2383SOL    HW3 9265   0.127   3.039   5.444 -0.6770  0.4716 -0.2723
 2383SOL    MW4 9266   0.145   3.117   5.409  0.5736  0.0063  0.3633
 2384SOL     OW 9267   0.023   6.230   4.593 -0.1891 -0.3293  0.1889
 2384SOL    HW2 9268   0.102   6.262   4.548 -1.1156  3.0620  0.7299
 2384SOL    HW3 9269  -0.005   6.155   4.540  1.5387  0.4134 -1.9611
 2384SOL    MW4 9270   0.030   6.224   4.580  0.3356 -0.5403 -0.3314
 2385SOL     OW 9271   4.456   0.827   5.334 -0.1782 -0.1579  0.0821
 2385SOL    HW2 9272   4.478   0.911   5.375 -2.0741  0.1197  0.6294
 2385SOL    HW3 9273   4.361   0.830   5.323 -0.1702 -1.8707 -0.7306
 2385SOL    MW4 9274   4.447   0.839   5.338 -0.2863 -0.0537 -0.2553
 2386SOL     OW 9275   5.501   4.238   2.662 -0.3994  0.4814 -0.1736
 2386SOL    HW2 9276   5.519   4.203   2.749 -0.8411  1.7367  0.4408
 2386SOL    HW3 9277   5.417   4.284   2.671 -0.3879  0.7452 -1.2270
 2386SOL    MW4 9278   5.492   4.240   2.674 -0.5300  0.5310  0.5606
 2387SOL     OW 9279   6.402   4.678   1.346  0.4417  0.1522 -0.1265
 2387SOL    HW2 9280   6.337   4.632   1.400 -0.0668  0.6996 -0.2714
 2387SOL    HW3 9281   6.463   4.609   1.320  0.2181 -0.2735  0.4480
 2387SOL    MW4 9282   6.401   4.663   1.350  0.2153 -0.7855  0.6791
 2388SOL     OW 9283   3.492   0.720   0.083 -0.2344 -0.4143  0.5304
 2388SOL    HW2 9284   3.522   0.629   0.076  1.9002  0.1030  1.7439
 2388SOL    HW3 9285   3.458   0.728   0.172 -0.3765 -0.0197  0.4463
 2388SOL    MW4 9286   3.492   0.709   0.094  0.3322  0.7667 -0.2015
 2389SOL     OW 9287   5.233   0.614   2.413 -0.1050 -0.3199  0.6006
 2389SOL    HW2 9288   5.194   0.673   2.349 -0.5037  1.0131  2.0155
 2389SOL    HW3 9289   5.185   0.531   2.402  1.3659 -0.9216 -2.3414
 2389SOL    MW4 9290   5.222   0.610   2.403 -0.6133  0.1576 -0.0830
 2390SOL     OW 9291   1.863   4.438   0.778  0.4582  0.0992  0.3562
 2390SOL    HW2 9292   1.771   4.414   0.774  0.7890 -1.4612  1.1740
 2390SOL    HW3 9293   1.907   4.359   0.809  2.1118  0.7245 -0.2905
 2390SOL    MW4 9294   1.857   4.425   0.782 -0.3707  1.0184 -0.0239
 2391SOL     OW 9295   0.158   2.140   4.620 -0.4186 -0.3799  0.0869
 2391SOL    HW2 9296   0.150   2.219   4.565 -0.6598 -1.0927 -0.9279
 2391SOL    HW3 9297   0.078   2.140   4.673 -0.0268  0.4967  0.7083
 2391SOL    MW4 9298   0.146   2.151   4.620 -0.3910 -0.1133  0.3823
 2392SOL     OW 9299   1.708   6.427   3.953 -0.6547  0.1455 -0.2515
 2392SOL    HW2 9300   1.666   6.341   3.965  0.3520 -0.4500 -0.8623
 2392SOL    HW3 9301   1.799   6.406   3.934 -0.1539  1.4036  0.6681
 2392SOL    MW4 9302   1.714   6.413   3.952  0.0288  0.4719 -0.0399
 2393SOL     OW 9303   4.656   4.810   5.399  0.6343  0.3981 -0.1622
 2393SOL    HW2 9304   4.623   4.801   5.488  0.5762  1.7268 -0.0359
 2393SOL    HW3 9305   4.599   4.752   5.347  1.0506 -0.8459  0.7210
 2393SOL    MW4 9306   4.644   4.801   5.404 -0.3707  0.0937 -0.4688
 2394SOL     OW 9307   4.602   0.577   6.036  0.2173 -0.5877 -0.6263
 2394SOL    HW2 9308   4.621   0.526   5.958 -1.0929  0.3181 -1.5909
 2394SOL    HW3 9309   4.679   0.567   6.092  0.1151 -3.3774 -0.8665
 2394SOL    MW4 9310   4.615   0.569   6.033  0.5133 -0.4228  0.1853
 2395SOL     OW 9311   4.275   0.592   5.634 -0.2358 -0.5880  0.5627
 2395SOL    HW2 9312   4.293   0.576   5.726 -0.4899 -1.4663  0.4695
 2395SOL    HW3 9313   4.362   0.596   5.593 -0.0752  0.9081  0.9941
 2395SOL    MW4 9314   4.289   0.591   5.641 -0.5826 -0.1325 -0.4750
 2396SOL     OW 9315   5.102   2.082   1.722  0.2250 -0.3421 -0.1594
 2396SOL    HW2 9316   5.088   1.988   1.708  0.7345 -0.6358  1.1124
 2396SOL    HW3 9317   5.186   2.100   1.680  0.6834 -0.7241  0.5715
 2396SOL    MW4 9318   5.111   2.072   1.714 -0.3703  0.4883  0.6840
 2397SOL     OW 9319   5.801   1.061   5.170 -0.3120 -0.1552 -0.0859
 2397SOL    HW2 9320   5.808   1.157   5.176 -0.9253 -0.1701  1.0367
 2397SOL    HW3 9321   5.888   1.029   5.196 -0.6944  0.0432  1.4971
 2397SOL    MW4 9322   5.814   1.070   5.174 -0.5993  0.0353 -0.0857
 2398SOL     OW 9323   4.881   2.455   4.022 -0.8774  0.7629  0.0453
 2398SOL    HW2 9324   4.837   2.371   4.011 -0.1637  0.3625  0.1605
 2398SOL    HW3 9325   4.823   2.518   3.980 -1.8559  0.3481  0.7376
 2398SOL    MW4 9326   4.868   2.452   4.015  0.2638  0.5236  0.6666
 2399SOL     OW 9327   2.935   1.887   3.223  0.3581 -0.4399  0.6495
 2399SOL    HW2 9328   2.863   1.944   3.197  1.4657  2.3745  3.2138
 2399SOL    HW3 9329   2.908   1.800   3.194 -1.9459  1.1326 -2.5105
 2399SOL    MW4 9330   2.922   1.883   3.216 -0.5706 -0.1449  0.2660
 2400SOL     OW 9331   5.165   3.635   4.349  0.1839  0.0751 -0.6586
 2400SOL    HW2 9332   5.114   3.622   4.269 -1.1753  0.6367  0.0769
 2400SOL    HW3 9333   5.255   3.611   4.325 -0.6177 -2.2159 -1.6436
 2400SOL    MW4 9334   5.170   3.630   4.335 -0.0818  0.7756 -0.2587
 2401SOL     OW 9335   0.531   0.729   3.903  0.3736  0.2152  0.4357
 2401SOL    HW2 9336   0.534   0.638   3.874 -2.0967 -0.1899  1.2238
 2401SOL    HW3 9337   0.623   0.755   3.911  1.1345 -1.7094 -1.2543
 2401SOL    MW4 9338   0.544   0.720   3.900 -0.1774  0.1561  0.4040
 2402SOL     OW 9339   4.468   1.541   4.032 -0.7420 -0.2216  0.2574
 2402SOL    HW2 9340   4.380   1.577   4.018  0.3828  2.2597 -0.9704
 2402SOL    HW3 9341   4.482   1.482   3.958 -0.8518  0.4956 -0.3477
 2402SOL    MW4 9342   4.458   1.538   4.021  0.2289 -0.0643 -0.0225
 2403SOL     OW 9343   0.686   5.681   3.588  0.1557 -0.4177 -0.3760
 2403SOL    HW2 9344   0.708   5.591   3.565  0.4229 -0.0336 -1.7360
 2403SOL    HW3 9345   0.742   5.734   3.531 -0.6753  0.5937 -0.2744
 2403SOL    MW4 9346   0.696   5.676   3.577 -0.8520 -0.5294  0.2777
 2404SOL     OW 9347   2.178   4.744   3.474 -0.0944 -0.0238  0.0739
 2404SOL    HW2 9348   2.125   4.801   3.418 -0.0074 -1.2728 -1.3220
 2404SOL    HW3 9349   2.121   4.726   3.550 -0.4499  1.1684  0.1115
 2404SOL    MW4 9350   2.163   4.749   3.477 -0.6187  0.4974  0.5116
 2405SOL     OW 9351   0.152   5.934   0.509  0.4568 -0.0184  0.0637
 2405SOL    HW2 9352   0.126   5.983   0.430  0.2384  0.4199  0.4041
 2405SOL    HW3 9353   0.245   5.917   0.497  0.4514  0.1569 -0.2330
 2405SOL    MW4 9354   0.160   5.938   0.497 -0.5064 -1.1575  0.2840
 2406SOL     OW 9355   1.041   6.178   5.188 -0.1971 -0.4088  0.9626
 2406SOL    HW2 9356   1.116   6.209   5.238 -1.1229 -1.2286  2.9543
 2406SOL    HW3 9357   0.968   6.235   5.214 -0.2426  0.6654 -1.2772
 2406SOL    MW4 9358   1.041   6.189   5.198 -0.0418 -0.2454 -0.2616
 2407SOL     OW 9359   0.102   3.495   4.312  0.3456 -1.0654 -0.3574
 2407SOL    HW2 9360   0.040   3.489   4.385  0.4500  0.0095 -0.1606
 2407SOL    HW3 9361   0.172   3.551   4.344  0.0385  0.0371 -1.5244
 2407SOL    MW4 9362   0.103   3.501   4.326 -0.2015  0.5044  0.2251
 2408SOL     OW 9363   5.018   6.440   3.389  0.3245  0.1114  0.3767
 2408SOL    HW2 9364   4.995   6.347   3.399  0.3863 -0.1080 -1.2041
 2408SOL    HW3 9365   5.053   6.465   3.474  0.7784 -1.4615  0.6986
 2408SOL    MW4 9366   5.020   6.431   3.401 -0.4424  0.0969  0.2724
 2409SOL     OW 9367   4.427   3.072   5.004  0.0502  0.3415 -0.1899
 2409SOL    HW2 9368   4.438   3.088   4.910  0.2256 -0.1809 -0.2593
 2409SOL    HW3 9369   4.481   2.995   5.022 -1.3722 -0.6569 -0.0072
 2409SOL    MW4 9370   4.436   3.064   4.994  0.1967 -0.1167 -0.2018
 2410SOL     OW 9371   4.459   2.372   5.516  0.2286 -0.3039  0.5771
 2410SOL    HW2 9372   4.416   2.457   5.528  1.4200  0.4323 -0.1336
 2410SOL    HW3 9373   4.427   2.342   5.431  0.4526 -0.1573  0.4392
 2410SOL    MW4 9374   4.449   2.379   5.506  0.4595 -0.1229 -0.4852
 2411SOL     OW 9375   6.337   4.838   2.289  0.1938  0.1831 -0.3305
 2411SOL    HW2 9376   6.287   4.800   2.361  0.2309  0.9471  0.1097
 2411SOL    HW3 9377   6.347   4.767   2.226 -2.5502  0.3196 -1.0336
 2411SOL    MW4 9378   6.332   4.824   2.290 -0.3762  0.0298 -0.1251
 2412SOL     OW 9379   5.824   0.765   3.117 -0.0424 -0.3708  0.3501
 2412SOL    HW2 9380   5.868   0.760   3.202 -0.4229  0.5625  0.6178
 2412SOL    HW3 9381   5.867   0.698   3.064  1.6245  0.4099  0.6434
 2412SOL    MW4 9382   5.836   0.756   3.122 -0.4469  0.8181  0.2264
 2413SOL     OW 9383   1.488   6.242   0.823  0.5661  0.3979 -0.2720
 2413SOL    HW2 9384   1.573   6.284   0.831  0.0382  1.5526 -0.3845
 2413SOL    HW3 9385   1.496   6.182   0.750  1.4740 -0.0220  0.1610
 2413SOL    MW4 9386   1.500   6.240   0.815  0.7853 -0.0948 -0.4148
 2414SOL     OW 9387   6.255   1.052   3.420  0.3732  0.0018  0.2840
 2414SOL    HW2 9388   6.201   1.124   3.386 -1.4200 -1.9430 -1.2343
 2414SOL    HW3 9389   6.231   1.046   3.512  0.0154  0.8946  0.2595
 2414SOL    MW4 9390   6.245   1.061   3.428  0.1337  0.3035  0.5461
 2415SOL     OW 9391   5.253   4.889   2.955 -0.3762 -0.2950 -0.1092
 2415SOL    HW2 9392   5.261   4.980   2.925 -0.3972 -0.3566 -0.2986
 2415SOL    HW3 9393   5.189   4.850   2.897 -2.7232  0.3863  1.8498
 2415SOL    MW4 9394   5.246   4.896   2.944 -0.4185  0.0024  0.2814
 2416SOL     OW 9395   1.854   6.007   4.388  0.3022  0.3259  0.0954
 2416SOL    HW2 9396   1.876   6.047   4.303 -1.5612  2.9017  0.6984
 2416SOL    HW3 9397   1.936   5.968   4.418  1.3372  0.4968 -2.2641
 2416SOL    MW4 9398   1.868   6.007   4.381 -0.0770 -0.1181  0.2371
 2417SOL     OW 9399   2.268   4.200   1.970  0.1788 -0.4888  0.4697
 2417SOL    HW2 9400   2.210   4.177   2.042 -0.2237  0.8639  0.6188
 2417SOL    HW3 9401   2.353   4.218   2.012  1.3386 -4.2066  0.0769
 2417SOL    MW4 9402   2.272   4.200   1.985 -0.0115 -0.5689  0.3143
 2418SOL     OW 9403   1.580   3.529   1.907 -0.3582  0.2367 -0.1445
 2418SOL    HW2 9404   1.643   3.462   1.881  0.3135  1.5051 -2.0651
 2418SOL    HW3 9405   1.623   3.612   1.884 -2.1439  1.2186 -0.1355
 2418SOL    MW4 9406   1.594   3.531   1.901  0.2368  0.2726  0.5067
 2419SOL     OW 9407   0.143   1.750   0.652  0.4458 -0.5652  0.5344
 2419SOL    HW2 9408   0.202   1.823   0.670 -0.3152 -0.3062  2.0588
 2419SOL    HW3 9409   0.089   1.742   0.730 -3.3337  0.8233 -1.6617
 2419SOL    MW4 9410   0.144   1.759   0.664  0.2420  0.5879 -0.2063
 2420SOL     OW 9411   3.325   5.045   0.718 -0.1012 -0.0547 -0.6579
 2420SOL    HW2 9412   3.332   4.951   0.739  0.7995 -0.1186 -1.2124
 2420SOL    HW3 9413   3.247   5.051   0.663 -0.6506 -0.3472  0.0626
 2420SOL    MW4 9414   3.315   5.033   0.714 -0.0540 -0.3541 -0.7626
 2421SOL     OW 9415   3.551   1.729   3.408  0.2592  0.3440  0.3448
 2421SOL    HW2 9416   3.550   1.635   3.426  1.6373  0.0053 -1.0927
 2421SOL    HW3 9417   3.569   1.769   3.493 -1.0925 -0.6030  1.1269
 2421SOL    MW4 9418   3.553   1.722   3.422 -0.0362  0.0677 -0.1834
 2422SOL     OW 9419   3.490   5.623   1.570  0.0930  0.2438  0.2931
 2422SOL    HW2 9420   3.422   5.616   1.503  1.4298  1.8437 -1.3354
 2422SOL    HW3 9421   3.453   5.681   1.636 -0.8277 -0.4331  0.3871
 2422SOL    MW4 9422   3.476   5.630   1.570  0.4929  0.0930  0.1950
 2423SOL     OW 9423   3.506   4.419   2.498  0.2457 -0.8726 -0.4584
 2423SOL    HW2 9424   3.556   4.360   2.442 -1.9065 -1.2934 -2.0920
 2423SOL    HW3 9425   3.563   4.494   2.511  1.1479 -1.1071 -2.6191
 2423SOL    MW4 9426   3.520   4.421   2.492 -0.5445 -0.9219  0.4816
 2424SOL     OW 9427   5.112   5.497   5.308  0.3590  0.1853  0.5310
 2424SOL    HW2 9428   5.093   5.569   5.248  1.4207  0.9170  1.0300
 2424SOL    HW3 9429   5.202   5.472   5.287  0.4000 -0.2075  1.1573
 2424SOL    MW4 9430   5.121   5.503   5.297  0.0911  0.1858 -0.7564
 2425SOL     OW 9431   0.538   0.451   3.882  0.1710  0.2608 -0.0861
 2425SOL    HW2 9432   0.456   0.412   3.854  0.3639  0.1362 -0.4898
 2425SOL    HW3 9433   0.568   0.394   3.953 -0.7733  1.1035  1.0156
 2425SOL    MW4 9434   0.532   0.438   3.888  0.5106  0.0367  0.1998
 2426SOL     OW 9435   5.767   1.116   3.215 -0.1545 -0.2936  0.3043
 2426SOL    HW2 9436   5.855   1.102   3.180 -0.5455  1.0030 -1.3125
 2426SOL    HW3 9437   5.746   1.034   3.260  1.2858 -1.1892 -0.5710
 2426SOL    MW4 9438   5.776   1.103   3.217  0.2778 -0.2535 -0.2754
 2427SOL     OW 9439   6.231   0.016   4.162  0.3538 -0.2235  0.4135
 2427SOL    HW2 9440   6.166  -0.031   4.215 -0.3716 -1.1649 -1.2448
 2427SOL    HW3 9441   6.274  -0.052   4.110  1.4377  0.6102  0.1914
 2427SOL    MW4 9442   6.228   0.001   4.162  0.1881  0.2339 -0.1449
 2428SOL     OW 9443   3.583   2.749   2.540  0.8109 -0.2527  0.0671
 2428SOL    HW2 9444   3.670   2.710   2.545  1.8812  1.4258 -2.8395
 2428SOL    HW3 9445   3.599   2.840   2.518 -1.6872  0.2715  0.1430
 2428SOL    MW4 9446   3.597   2.756   2.538  0.5273  0.2857 -0.3832
 2429SOL     OW 9447   5.972   1.015   4.329 -0.8461 -0.3147  0.3161
 2429SOL    HW2 9448   5.900   0.972   4.375 -1.1331 -0.5897 -0.3759
 2429SOL    HW3 9449   6.031   1.045   4.398 -1.9851  0.5792  0.9410
 2429SOL    MW4 9450   5.970   1.014   4.344 -0.5049 -0.1752  0.4627
 2430SOL     OW 9451   3.194   4.523   2.364 -0.1709  0.3095 -0.1467
 2430SOL    HW2 9452   3.234   4.558   2.443 -0.0500  1.4003 -0.6659
 2430SOL    HW3 9453   3.267   4.490   2.313 -0.1956  0.0642 -0.0236
 2430SOL    MW4 9454   3.209   4.523   2.368  0.4023 -0.1553  0.4965
 2431SOL     OW 9455   6.405   1.251   6.136 -0.3144 -0.1757 -0.4589
 2431SOL    HW2 9456   6.346   1.177   6.118 -1.1492  0.2358  0.4643
 2431SOL    HW3 9457   6.357   1.328   6.105 -0.9211  0.3218  1.5385
 2431SOL    MW4 9458   6.391   1.251   6.130 -0.5089 -0.4710 -0.0391
 2432SOL     OW 9459   2.341   4.119   3.986 -0.5443  0.5685  0.1980
 2432SOL    HW2 9460   2.353   4.141   4.078  2.3898 -1.6634  0.4823
 2432SOL    HW3 9461   2.249   4.094   3.979 -0.6940  0.2478  2.6320
 2432SOL    MW4 9462   2.330   4.119   3.997  0.1100 -0.2563 -0.8131
 2433SOL     OW 9463   2.993   0.822   4.977 -0.9474 -0.3825 -0.2671
 2433SOL    HW2 9464   3.060   0.783   5.033 -1.0828  1.7128  1.4875
 2433SOL    HW3 9465   3.043   0.864   4.906 -0.5162 -0.2745  0.0940
 2433SOL    MW4 9466   3.009   0.823   4.975 -0.1801 -0.1976  0.0261
 2434SOL     OW 9467   2.297   6.154   2.558  0.1577 -0.1989  0.1704
 2434SOL    HW2 9468   2.319   6.210   2.483  0.0112 -0.8408 -0.3681
 2434SOL    HW3 9469   2.368   6.169   2.621  0.0765  0.6422  0.0660
 2434SOL    MW4 9470   2.310   6.163   2.556  0.2098  0.6134  0.6114
 2435SOL     OW 9471   3.404   4.243   3.514 -0.0806  0.3572 -0.0907
 2435SOL    HW2 9472   3.392   4.194   3.595 -0.8960 -0.0225 -0.4375
 2435SOL    HW3 9473   3.411   4.335   3.543 -0.0761  0.1970  0.4285
 2435SOL    MW4 9474   3.404   4.249   3.528 -0.4955  0.0336  0.1632
 2436SOL     OW 9475   0.929   3.858   1.621  0.3941  0.2240 -0.1238
 2436SOL    HW2 9476   0.856   3.798   1.607  1.9595 -1.3567 -2.2701
 2436SOL    HW3 9477   0.978   3.819   1.694  1.0249 -0.8104 -1.0621
 2436SOL    MW4 9478   0.926   3.845   1.629 -0.3627 -0.4388  0.3311
 2437SOL     OW 9479   2.720   2.129   1.144 -0.2967 -0.3049  0.1429
 2437SOL    HW2 9480   2.738   2.132   1.238 -1.4784  0.1080  0.3731
 2437SOL    HW3 9481   2.755   2.212   1.111 -0.0510 -0.3663  0.2407
 2437SOL    MW4 9482   2.727   2.140   1.152 -0.1054 -0.2605 -0.0122
 2438SOL     OW 9483   4.610   5.125   5.801  0.4737 -0.0441  0.0576
 2438SOL    HW2 9484   4.585   5.135   5.709  2.5704 -1.4406 -0.7224
 2438SOL    HW3 9485   4.673   5.194   5.816  0.2353  0.0956  0.4267
 2438SOL    MW4 9486   4.615   5.135   5.790 -0.0028  0.2885  0.1637
 2439SOL     OW 9487   4.125   5.429   5.596 -0.0611  0.0620  0.3271
 2439SOL    HW2 9488   4.179   5.396   5.524  0.0552  1.0432 -0.0515
 2439SOL    HW3 9489   4.178   5.412   5.674  0.4087  0.2002  0.0460
 2439SOL    MW4 9490   4.139   5.422   5.597 -0.1531 -0.2933 -0.8051
 2440SOL     OW 9491   5.051   1.687   0.411 -0.2244  0.5224  0.6186
 2440SOL    HW2 9492   5.077   1.634   0.336 -0.0681  1.1480  0.2261
 2440SOL    HW3 9493   4.961   1.714   0.393 -1.0707 -1.3247  1.8001
 2440SOL    MW4 9494   5.043   1.684   0.399 -0.4152 -0.3273  0.0833
 2441SOL     OW 9495   4.091   3.322   0.560  0.1442  0.5038  0.0897
 2441SOL    HW2 9496   4.097   3.318   0.465  0.3988 -0.2464  0.1325
 2441SOL    HW3 9497   4.165   3.270   0.591  0.3518  1.1455  0.7032
 2441SOL    MW4 9498   4.102   3.315   0.552 -0.3560  0.3021  0.0121
 2442SOL     OW 9499   5.408   4.948   5.721 -0.4863 -0.1158  0.5644
 2442SOL    HW2 9500   5.447   5.002   5.652  0.3113  0.1995  1.2529
 2442SOL    HW3 9501   5.481   4.899   5.758 -1.0138 -0.7584  0.7810
 2442SOL    MW4 9502   5.423   4.949   5.716 -0.1170 -0.5970  0.1435
 2443SOL     OW 9503   4.405   4.259   1.493  0.6476 -0.1662  0.7710
 2443SOL    HW2 9504   4.398   4.170   1.459  1.4167  0.0049  0.1180
 2443SOL    HW3 9505   4.317   4.296   1.482  0.6491 -0.4163 -0.2340
 2443SOL    MW4 9506   4.393   4.252   1.487 -0.2012 -0.0875  0.4259
 2444SOL     OW 9507   0.832   0.079   6.114  0.3444 -0.0052 -0.6334
 2444SOL    HW2 9508   0.896   0.029   6.164  0.3500  0.6320  0.0074
 2444SOL    HW3 9509   0.787   0.013   6.060  0.5477 -0.6571 -0.0237
 2444SOL    MW4 9510   0.834   0.064   6.114 -0.4487  0.3149 -0.2692
 2445SOL     OW 9511   4.017   4.246   2.129 -0.3176  0.7739  0.5608
 2445SOL    HW2 9512   3.969   4.184   2.074 -1.4860  0.6003  1.7170
 2445SOL    HW3 9513   4.010   4.210   2.217  1.8718  0.8154  0.8203
 2445SOL    MW4 9514   4.010   4.233   2.133  0.9091 -0.9403  0.0794
 2446SOL     OW 9515   1.797   2.242   3.939 -0.4172  0.4308 -0.2308
 2446SOL    HW2 9516   1.758   2.155   3.947 -0.5993  0.5428  0.1322
 2446SOL    HW3 9517   1.794   2.261   3.845  1.4366 -0.7669 -0.5885
 2446SOL    MW4 9518   1.791   2.233   3.928  0.5654 -0.4459  0.1009
 2447SOL     OW 9519   3.776   3.218   3.765 -0.2690  0.0393  0.2174
 2447SOL    HW2 9520   3.828   3.269   3.703  0.8158 -1.1467  0.0989
 2447SOL    HW3 9521   3.707   3.179   3.711 -0.3489  0.3773  0.0746
 2447SOL    MW4 9522   3.774   3.219   3.749 -0.1195 -0.3946  0.1036
 2448SOL     OW 9523   6.349   1.754   5.536 -0.3396  0.1211 -0.6353
 2448SOL    HW2 9524   6.362   1.708   5.620  0.0495  0.8001 -0.3201
 2448SOL    HW3 9525   6.435   1.786   5.512 -0.6509  0.9057 -0.7258
 2448SOL    MW4 9526   6.362   1.752   5.544  0.2924  0.1859 -0.1745
 2449SOL     OW 9527   2.585   3.465   1.690 -0.0126  0.0425 -0.0521
 2449SOL    HW2 9528   2.602   3.450   1.597  1.1732  0.0315  0.1549
 2449SOL    HW3 9529   2.493   3.493   1.693 -0.5806 -1.5457 -1.0469
 2449SOL    MW4 9530   2.575   3.467   1.678  0.4021  0.4261  0.1195
 2450SOL     OW 9531   1.533   1.234   5.056 -0.4288 -0.2994  0.4613
 2450SOL    HW2 9532   1.531   1.235   5.152 -0.8119  0.4342  0.4460
 2450SOL    HW3 9533   1.565   1.320   5.031 -0.5137 -0.4209 -0.0800
 2450SOL    MW4 9534   1.537   1.245   5.066  0.5206 -0.1138 -0.3349
 2451SOL     OW 9535   0.987   1.714   2.458  0.0814  0.0048 -0.2725
 2451SOL    HW2 9536   1.052   1.739   2.524 -0.6501 -0.9139  0.8559
 2451SOL    HW3 9537   1.037   1.704   2.377  0.8461  2.1563 -0.1191
 2451SOL    MW4 9538   1.002   1.716   2.456  0.1751  0.0753 -0.6222
 2452SOL     OW 9539   6.319   3.724   2.540 -0.2767  0.0995  0.0473
 2452SOL    HW2 9540   6.232   3.745   2.574 -0.3285  0.3605 -0.2363
 2452SOL    HW3 9541   6.376   3.791   2.576  0.0555 -0.7917  1.2564
 2452SOL    MW4 9542   6.315   3.735   2.549  0.0562 -0.8296 -0.0672
 2453SOL     OW 9543   4.072   0.914   4.688  0.1095  0.0656  0.2987
 2453SOL    HW2 9544   3.977   0.916   4.681  0.0831  0.1062  0.6143
 2453SOL    HW3 9545   4.094   0.992   4.740  0.3903  0.5407 -0.5147
 2453SOL    MW4 9546   4.062   0.924   4.694  0.1865 -0.0164 -0.3653
 2454SOL     OW 9547   1.813   1.366   5.718  0.3891 -0.3572 -0.1128
 2454SOL    HW2 9548   1.821   1.454   5.680  0.7132  1.0295  2.8987
 2454SOL    HW3 9549   1.902   1.341   5.740  0.1030 -0.5022  0.9370
 2454SOL    MW4 9550   1.826   1.374   5.716  0.0768 -0.0826  0.1029
 2455SOL     OW 9551   5.630   3.575   2.883 -0.3117 -0.4874 -0.7938
 2455SOL    HW2 9552   5.694   3.643   2.901  0.0368 -1.1468  0.6573
 2455SOL    HW3 9553   5.682   3.499   2.856 -0.6521 -0.3616 -1.8237
 2455SOL    MW4 9554   5.645   3.574   2.882  0.1300 -0.2717 -0.5927
 2456SOL     OW 9555   6.363   3.521   0.426 -0.0040 -0.4160  0.3414
 2456SOL    HW2 9556   6.449   3.559   0.443 -0.7560  2.3051 -1.3543
 2456SOL    HW3 9557   6.363   3.503   0.332 -2.7333  4.2306 -0.8529
 2456SOL    MW4 9558   6.374   3.524   0.416 -0.0502  0.8966 -0.0765
 2457SOL     OW 9559   2.351   5.769   1.130  0.6533  0.2986  0.3226
 2457SOL    HW2 9560   2.334   5.681   1.163 -0.8595  0.2430 -0.4914
 2457SOL    HW3 9561   2.352   5.825   1.208  0.2536 -0.2533  0.7298
 2457SOL    MW4 9562   2.349   5.765   1.144 -0.4149  0.4993 -0.0757
 2458SOL     OW 9563   0.324   3.600   2.488  0.9742  0.3314 -0.0378
 2458SOL    HW2 9564   0.382   3.527   2.511  1.3915  0.4005 -0.8237
 2458SOL    HW3 9565   0.341   3.615   2.395 -0.4351  0.2432 -0.3274
 2458SOL    MW4 9566   0.334   3.592   2.479 -0.6801 -0.0905  0.3816
 2459SOL     OW 9567   4.113   1.088   2.692 -0.5015  0.6780 -0.1099
 2459SOL    HW2 9568   4.135   1.138   2.771 -0.9092  1.6406 -0.5982
 2459SOL    HW3 9569   4.177   1.116   2.627  2.0451 -2.5320  0.7091
 2459SOL    MW4 9570   4.124   1.098   2.694  0.1212 -0.4019 -0.7398
 2460SOL     OW 9571   6.088   0.063   1.728 -0.2315  0.2005 -0.0225
 2460SOL    HW2 9572   6.128  -0.014   1.688 -0.3038  0.9134 -1.5103
 2460SOL    HW3 9573   6.104   0.052   1.822  0.2283 -1.3451 -0.2540
 2460SOL    MW4 9574   6.095   0.052   1.735  0.4967 -0.1866  0.3764
 2461SOL     OW 9575   3.497   3.436   5.771 -0.5254 -0.4205 -0.5750
 2461SOL    HW2 9576   3.538   3.352   5.750 -0.1950  0.0297 -1.8329
 2461SOL    HW3 9577   3.523   3.455   5.861  0.1743 -1.2132 -0.6086
 2461SOL    MW4 9578   3.506   3.428   5.780 -0.0416  0.5186  0.4312
 2462SOL     OW 9579   0.535   0.637   2.138  0.0240 -0.6185 -0.2955
 2462SOL    HW2 9580   0.528   0.720   2.185 -0.0050 -1.1853  0.7380
 2462SOL    HW3 9581   0.475   0.647   2.063  0.6812  0.5938 -0.6879
 2462SOL    MW4 9582   0.526   0.649   2.134  0.4259  0.0160 -0.3106
 2463SOL     OW 9583   5.131   1.209   0.742  0.5487  0.3504 -0.1721
 2463SOL    HW2 9584   5.150   1.183   0.833  0.9111  2.2015  0.3337
 2463SOL    HW3 9585   5.213   1.193   0.695  0.5281 -0.1148 -0.0534
 2463SOL    MW4 9586   5.145   1.203   0.748  0.1657 -0.4419 -0.5063
 2464SOL     OW 9587   2.595   0.176   4.481  0.7850 -0.0177  1.2613
 2464SOL    HW2 9588   2.581   0.112   4.411 -1.8500  2.4607 -0.7474
 2464SOL    HW3 9589   2.556   0.135   4.559 -0.4528 -1.0577  0.1506
 2464SOL    MW4 9590   2.588   0.162   4.482 -0.2488  0.1756  0.9199
 2465SOL     OW 9591   5.502   5.470   2.286  0.4397  0.0713 -0.7123
 2465SOL    HW2 9592   5.409   5.492   2.291  0.2430 -0.9224  0.4118
 2465SOL    HW3 9593   5.511   5.425   2.202 -0.0014  0.5544 -1.0245
 2465SOL    MW4 9594   5.491   5.467   2.276  0.0147 -0.4746  0.0040
 2466SOL     OW 9595   2.439   1.403   5.107 -0.0310 -0.5507 -0.0642
 2466SOL    HW2 9596   2.529   1.425   5.132  0.3465 -0.3994 -1.4401
 2466SOL    HW3 9597   2.385   1.464   5.157  0.7273  0.2996 -0.2439
 2466SOL    MW4 9598   2.444   1.414   5.117 -0.1617 -0.3805 -0.3300
 2467SOL     OW 9599   5.485   5.979   1.341 -0.3886 -0.4339  0.4255
 2467SOL    HW2 9600   5.477   5.891   1.303  0.9047  0.1618 -1.3826
 2467SOL    HW3 9601   5.511   6.034   1.268  0.2939  1.1943  1.8266
 2467SOL    MW4 9602   5.488   5.974   1.326  0.0239 -0.2081  0.5161
 2468SOL     OW 9603   2.541   5.195   4.651  0.0378 -0.5052  0.0892
 2468SOL    HW2 9604   2.461   5.237   4.681  1.4203  1.2254  1.6232
 2468SOL    HW3 9605   2.563   5.240   4.569 -2.9163 -4.1878 -3.0686
 2468SOL    MW4 9606   2.534   5.207   4.644  0.2779  0.1436  0.0619
 2469SOL     OW 9607   1.821   0.843   5.855 -0.0776 -0.5660 -0.3460
 2469SOL    HW2 9608   1.842   0.776   5.920 -1.7190 -0.0376  0.7820
 2469SOL    HW3 9609   1.759   0.800   5.796 -1.3718  0.0166  0.5587
 2469SOL    MW4 9610   1.815   0.828   5.856  0.0742  0.6587  0.0046
 2470SOL     OW 9611   4.530   1.069   6.281  0.5513  0.8755  0.3006
 2470SOL    HW2 9612   4.568   1.141   6.232 -0.3919  2.0131  1.1741
 2470SOL    HW3 9613   4.598   1.044   6.343  1.7898 -0.6376 -1.5543
 2470SOL    MW4 9614   4.544   1.075   6.283  0.5869 -0.6013 -0.0351
 2471SOL     OW 9615   4.458   1.015   2.996 -0.6945  0.6546  0.2574
 2471SOL    HW2 9616   4.432   0.998   2.906  2.3257 -1.7008 -0.3465
 2471SOL    HW3 9617   4.438   0.935   3.043  0.4758  0.7192  0.9279
 2471SOL    MW4 9618   4.452   1.002   2.990  0.6516 -0.0338 -0.3965
 2472SOL     OW 9619   4.039   0.043   4.547  0.2089  0.0890  0.4894
 2472SOL    HW2 9620   4.104   0.005   4.487 -0.4389 -0.6206  0.2271
 2472SOL    HW3 9621   4.036   0.135   4.522  0.0743 -0.1586 -0.4684
 2472SOL    MW4 9622   4.047   0.050   4.536  0.1473  0.3752 -0.5154
 2473SOL     OW 9623   3.840   5.937   1.658 -0.4822  0.2335 -0.0480
 2473SOL    HW2 9624   3.813   5.871   1.595  0.3952 -0.0917 -0.0948
 2473SOL    HW3 9625   3.935   5.926   1.666 -0.5312  0.4819  1.0861
 2473SOL    MW4 9626   3.849   5.927   1.651  0.5794 -0.5446 -0.3228
 2474SOL     OW 9627   5.467   3.187   3.014 -0.1857  0.1171  0.3829
 2474SOL    HW2 9628   5.414   3.202   2.935  0.3631  0.0796  0.0067
 2474SOL    HW3 9629   5.508   3.272   3.032  0.0352  0.0118  0.3767
 2474SOL    MW4 9630   5.465   3.200   3.006 -0.2567  0.5432  0.5481
 2475SOL     OW 9631   5.870   4.526   1.733  0.2165  0.0093  0.1236
 2475SOL    HW2 9632   5.837   4.482   1.811 -0.1597 -0.0841 -0.0854
 2475SOL    HW3 9633   5.902   4.455   1.677 -1.5068 -0.1269 -0.7428
 2475SOL    MW4 9634   5.870   4.511   1.736  0.6897  0.2569 -0.0459
 2476SOL     OW 9635   1.239   2.308   4.365 -0.2595  0.3143  0.3575
 2476SOL    HW2 9636   1.145   2.301   4.348 -0.3015  1.0852  0.2287
 2476SOL    HW3 9637   1.247   2.292   4.459 -0.3363 -1.2581  0.1168
 2476SOL    MW4 9638   1.228   2.305   4.375  0.2671  0.1619  0.3072
 2477SOL     OW 9639   0.266   1.503   5.857  0.2709  0.6206  0.6109
 2477SOL    HW2 9640   0.250   1.441   5.928  0.3452  0.2304  0.2919
 2477SOL    HW3 9641   0.249   1.453   5.777  1.8501  0.5291  0.2829
 2477SOL    MW4 9642   0.262   1.488   5.856  0.0704  0.9729 -0.3112
 2478SOL     OW 9643   3.641   0.947   5.180  0.2947 -0.3066  0.6762
 2478SOL    HW2 9644   3.668   0.909   5.264  2.4700  0.6144  0.4637
 2478SOL    HW3 9645   3.681   0.890   5.114  0.4974  0.2486  0.3109
 2478SOL    MW4 9646   3.650   0.934   5.182 -0.2865  0.4326 -0.2403
 2479SOL     OW 9647   5.241   3.781   5.454  0.7590  0.0710 -0.5538
 2479SOL    HW2 9648   5.224   3.802   5.362  0.5808  0.9881 -0.3179
 2479SOL    HW3 9649   5.258   3.687   5.454  0.5691  0.0271 -1.4992
 2479SOL    MW4 9650   5.241   3.771   5.442 -0.2103  0.1537 -0.6167
 2480SOL     OW 9651   1.335   1.469   2.620  1.0082 -0.4196 -0.6127
 2480SOL    HW2 9652   1.277   1.468   2.695  2.2862 -0.1529  0.4110
 2480SOL    HW3 9653   1.328   1.381   2.583  0.2116 -0.4875 -0.3135
 2480SOL    MW4 9654   1.326   1.458   2.625  0.1207 -0.3038 -0.0489
 2481SOL     OW 9655   3.108   1.442   1.543 -0.2297  0.0117  0.5994
 2481SOL    HW2 9656   3.104   1.419   1.451 -0.6931 -2.0632  1.0922
 2481SOL    HW3 9657   3.045   1.513   1.553 -0.3252  0.1161 -0.6337
 2481SOL    MW4 9658   3.099   1.448   1.532 -0.1472 -0.4009 -0.7688
 2482SOL     OW 9659   1.095   1.732   5.744  0.0316  0.4544  0.2555
 2482SOL    HW2 9660   1.182   1.748   5.780 -0.5459  1.7278  1.1612
 2482SOL    HW3 9661   1.084   1.800   5.677 -0.8715  1.3486  1.2821
 2482SOL    MW4 9662   1.105   1.743   5.740 -0.1765  0.1524 -0.2746
 2483SOL     OW 9663   2.269   2.855   5.338 -0.1001 -0.0323 -0.3212
 2483SOL    HW2 9664   2.309   2.823   5.419 -2.2221  0.0720  0.8367
 2483SOL    HW3 9665   2.298   2.792   5.272  0.3030 -1.1379  0.8392
 2483SOL    MW4 9666   2.278   2.842   5.340 -0.0610  0.4326  0.2613
 2484SOL     OW 9667   1.894   2.522   6.299  0.0809 -0.3227  0.7898
 2484SOL    HW2 9668   1.963   2.566   6.350 -1.0474  2.0590  0.3915
 2484SOL    HW3 9669   1.859   2.456   6.358  0.2308  0.9505  2.3719
 2484SOL    MW4 9670   1.899   2.519   6.313  0.4675  0.2625 -0.2035
 2485SOL     OW 9671   4.986   5.753   3.671  0.5281  0.2995  0.7017
 2485SOL    HW2 9672   4.929   5.677   3.664  0.9348  0.0434 -0.0240
 2485SOL    HW3 9673   5.065   5.721   3.715  1.0532  0.0723 -0.3657
 2485SOL    MW4 9674   4.989   5.739   3.676 -0.8723  0.3750 -0.0635
 2486SOL     OW 9675   0.331   3.237   4.488  0.1368  0.0521 -0.2437
 2486SOL    HW2 9676   0.342   3.180   4.565 -1.2773  1.0136  0.7110
 2486SOL    HW3 9677   0.286   3.315   4.522 -1.5369  0.0299 -2.2344
 2486SOL    MW4 9678   0.327   3.240   4.503 -0.1536  0.2455  0.2401
 2487SOL     OW 9679   4.442   2.664   5.223  0.3817 -0.1568 -0.3410
 2487SOL    HW2 9680   4.420   2.752   5.252 -1.8114 -0.8560  0.3110
 2487SOL    HW3 9681   4.427   2.665   5.128  0.7715  0.2721 -0.3984
 2487SOL    MW4 9682   4.438   2.676   5.214 -0.3455 -0.0636 -0.2802
 2488SOL     OW 9683   3.591   3.513   2.711 -0.3424  0.1087  0.1570
 2488SOL    HW2 9684   3.633   3.571   2.648 -1.5287 -1.1947 -1.9445
 2488SOL    HW3 9685   3.662   3.484   2.768  0.9550  0.6320 -1.1378
 2488SOL    MW4 9686   3.606   3.516   2.711  0.3979 -0.6797  0.2786
 2489SOL     OW 9687   1.047   2.844   0.084 -0.5131  0.4555 -0.2206
 2489SOL    HW2 9688   1.069   2.922   0.032  0.6432 -0.5648 -1.3343
 2489SOL    HW3 9689   1.132   2.806   0.107 -0.9876  0.7530  2.3024
 2489SOL    MW4 9690   1.061   2.849   0.080  0.4049  0.2388  0.0310
 2490SOL     OW 9691   1.542   3.884   3.080  0.4727 -0.5773  0.1160
 2490SOL    HW2 9692   1.459   3.873   3.033  0.1819 -0.2247  0.5361
 2490SOL    HW3 9693   1.516   3.908   3.169  1.0319  0.7752 -0.0583
 2490SOL    MW4 9694   1.528   3.885   3.086 -0.1541 -0.6917  0.3462
 2491SOL     OW 9695   4.367   4.765   3.291  0.3990  0.2989 -0.2330
 2491SOL    HW2 9696   4.404   4.710   3.222 -1.3841 -1.4827  0.1441
 2491SOL    HW3 9697   4.312   4.828   3.245 -1.0627 -1.1047 -0.4821
 2491SOL    MW4 9698   4.365   4.766   3.276 -0.4727  0.2802  0.0541
 2492SOL     OW 9699   6.103   0.157   4.767 -0.5764 -0.5270  0.6772
 2492SOL    HW2 9700   6.168   0.143   4.835 -1.0106  0.8955  1.4049
 2492SOL    HW3 9701   6.138   0.110   4.691  1.2607  0.1424  1.0595
 2492SOL    MW4 9702   6.116   0.149   4.766 -0.2824  0.3342 -0.0582
 2493SOL     OW 9703   1.679   2.026   4.877  0.0923 -0.0131  0.4777
 2493SOL    HW2 9704   1.749   1.976   4.920 -0.8519 -1.5045  0.3552
 2493SOL    HW3 9705   1.624   1.959   4.836 -0.8043  1.1953 -0.3543
 2493SOL    MW4 9706   1.681   2.011   4.877 -0.1424  0.4977  0.2038
 2494SOL     OW 9707   3.898   3.715   2.886 -0.2962  0.0020  0.3724
 2494SOL    HW2 9708   3.953   3.736   2.962 -1.3460  1.0738  0.8635
 2494SOL    HW3 9709   3.816   3.762   2.902 -0.8332 -0.4106 -1.0403
 2494SOL    MW4 9710   3.895   3.724   2.898 -0.2710  0.2785 -0.4568
 2495SOL     OW 9711   5.396   5.574   3.106  0.0604 -0.0236 -0.1719
 2495SOL    HW2 9712   5.406   5.664   3.076  0.6112  0.5576  1.6376
 2495SOL    HW3 9713   5.486   5.541   3.116 -0.1117 -0.3702  0.3009
 2495SOL    MW4 9714   5.409   5.581   3.103 -0.1669  0.3053 -0.0430
 2496SOL     OW 9715   5.728   0.085   6.253  0.4172  0.7787 -0.4869
 2496SOL    HW2 9716   5.716   0.096   6.159  2.2346  1.0066 -0.7206
 2496SOL    HW3 9717   5.691   0.165   6.291 -1.9381 -0.0615 -0.8005
 2496SOL    MW4 9718   5.721   0.097   6.246  0.3755 -0.1758 -0.1555
 2497SOL     OW 9719   6.041   4.151   0.857 -0.2544 -0.5871 -0.2787
 2497SOL    HW2 9720   6.083   4.201   0.928 -2.0489 -0.9599  1.1181
 2497SOL    HW3 9721   5.986   4.216   0.813 -1.0130 -0.8749  0.2347
 2497SOL    MW4 9722   6.039   4.166   0.861 -0.2223  0.2509 -0.2937
 2498SOL     OW 9723   6.259   4.643   6.252  0.2338  0.5131 -0.1205
 2498SOL    HW2 9724   6.231   4.688   6.172  0.1047  0.9982  0.1901
 2498SOL    HW3 9725   6.312   4.569   6.221 -0.4146  0.2660 -0.6824
 2498SOL    MW4 9726   6.262   4.639   6.237 -0.2159 -0.0600 -0.0254
 2499SOL     OW 9727   3.437   4.181   5.210 -0.0051 -0.0960  0.4445
 2499SOL    HW2 9728   3.398   4.189   5.122  2.0953 -0.0633 -0.5449
 2499SOL    HW3 9729   3.488   4.100   5.206  2.0548  1.1166  0.7831
 2499SOL    MW4 9730   3.439   4.172   5.198  0.3255  0.0359 -0.3222
 2500SOL     OW 9731   0.945   0.104   3.179  0.3459  0.5644  0.1684
 2500SOL    HW2 9732   1.028   0.149   3.195  1.0294 -0.7239  0.4313
 2500SOL    HW3 9733   0.948   0.081   3.086 -1.1798  3.2894 -0.6273
 2500SOL    MW4 9734   0.957   0.107   3.169 -0.5136  0.0846  0.0245
 2501SOL     OW 9735   0.496   4.092   0.641  0.4910 -0.5444  0.3172
 2501SOL    HW2 9736   0.564   4.056   0.584  0.2040 -0.3202 -0.1757
 2501SOL    HW3 9737   0.473   4.176   0.601  0.1009 -0.5044  0.6173
 2501SOL    MW4 9738   0.502   4.098   0.628  0.7237 -0.4149  0.1023
 2502SOL     OW 9739   4.048   0.326   4.565  0.3823  0.1604  0.4920
 2502SOL    HW2 9740   4.012   0.347   4.652 -1.0162  0.6073 -0.1682
 2502SOL    HW3 9741   3.999   0.382   4.505  1.8359  0.3985 -0.5380
 2502SOL    MW4 9742   4.037   0.336   4.569  0.1477  0.1593  0.1459
 2503SOL     OW 9743   4.481   2.965   1.788 -0.3764 -0.3411 -0.5142
 2503SOL    HW2 9744   4.409   2.949   1.727 -0.5572  0.0985 -0.4124
 2503SOL    HW3 9745   4.498   2.880   1.828 -1.3579 -0.2772  0.0451
 2503SOL    MW4 9746   4.474   2.952   1.785  0.8873  0.1006 -0.3753
 2504SOL     OW 9747   6.430   5.874   6.064 -0.2951 -0.0939  0.6432
 2504SOL    HW2 9748   6.340   5.872   6.098 -0.3239  1.7845  0.8106
 2504SOL    HW3 9749   6.464   5.786   6.079 -1.3646 -0.2246  2.6701
 2504SOL    MW4 9750   6.423   5.862   6.071  0.3126  0.2264 -0.3321
 2505SOL     OW 9751   1.820   0.110   0.467  0.6463  0.5912  0.3325
 2505SOL    HW2 9752   1.807   0.016   0.485  1.4922  0.2912 -0.5660
 2505SOL    HW3 9753   1.768   0.127   0.389  0.7386  0.7937  0.3152
 2505SOL    MW4 9754   1.812   0.100   0.459  0.9807  0.1227 -0.2730
 2506SOL     OW 9755   3.613   1.854   5.402 -0.2627  0.2015 -0.3277
 2506SOL    HW2 9756   3.539   1.823   5.454  0.1021 -1.6914 -0.8485
 2506SOL    HW3 9757   3.573   1.891   5.323 -0.6958  0.5510  0.0470
 2506SOL    MW4 9758   3.598   1.855   5.399 -0.4759 -0.2566 -0.0252
 2507SOL     OW 9759   1.478   0.925   4.960 -0.6701 -0.3673 -0.3017
 2507SOL    HW2 9760   1.427   0.891   4.886 -1.4523  0.8536 -0.3488
 2507SOL    HW3 9761   1.416   0.978   5.010 -0.3700 -1.8465  1.7330
 2507SOL    MW4 9762   1.463   0.928   4.957  0.8442  0.8513  0.1042
 2508SOL     OW 9763   1.336   4.801   4.062 -0.6070 -0.3557  0.0860
 2508SOL    HW2 9764   1.289   4.860   4.003  2.2875  0.3948 -1.7181
 2508SOL    HW3 9765   1.405   4.763   4.008  1.2813 -0.8402  2.6186
 2508SOL    MW4 9766   1.339   4.804   4.047  0.0366  0.4717 -0.4991
 2509SOL     OW 9767   4.858   5.705   2.993  0.1622  0.4772  0.1410
 2509SOL    HW2 9768   4.803   5.654   3.053  0.1018 -2.4171 -2.1521
 2509SOL    HW3 9769   4.797   5.740   2.928  0.5732  0.8786 -0.0332
 2509SOL    MW4 9770   4.842   5.703   2.992 -0.1415 -0.2861 -0.2942
 2510SOL     OW 9771   6.032   0.788   5.808 -0.7708 -0.0030  0.2101
 2510SOL    HW2 9772   6.111   0.766   5.858 -0.7085 -0.9275 -0.2700
 2510SOL    HW3 9773   6.057   0.775   5.717 -1.2872  0.3351  0.0156
 2510SOL    MW4 9774   6.046   0.783   5.803 -0.4939 -0.1952  0.1719
 2511SOL     OW 9775   3.191   1.751   5.745  0.0432 -0.1489 -0.5240
 2511SOL    HW2 9776   3.210   1.690   5.816 -0.1534 -1.4500 -1.5383
 2511SOL    HW3 9777   3.128   1.704   5.690 -1.7337  1.7857 -0.2798
 2511SOL    MW4 9778   3.185   1.736   5.747  0.1075  0.2879  0.1670
 2512SOL     OW 9779   5.937   5.396   2.911 -0.4191 -0.7411  0.3128
 2512SOL    HW2 9780   5.970   5.309   2.931  0.6110 -0.4367  0.0355
 2512SOL    HW3 9781   5.873   5.382   2.841  1.4877 -1.0965 -1.4974
 2512SOL    MW4 9782   5.933   5.383   2.904  0.4580 -0.2999 -0.6480
 2513SOL     OW 9783   1.077   2.484   0.253 -0.0605 -0.0440 -0.6734
 2513SOL    HW2 9784   1.012   2.470   0.184  0.0928 -3.4862 -0.2808
 2513SOL    HW3 9785   1.157   2.444   0.220  0.8303  0.8117  0.3709
 2513SOL    MW4 9786   1.079   2.477   0.239 -0.0452 -0.1174  0.2507
 2514SOL     OW 9787   5.198   2.182   1.431  0.4998 -0.5353 -0.1572
 2514SOL    HW2 9788   5.111   2.216   1.451  0.9724 -0.0591  1.2565
 2514SOL    HW3 9789   5.245   2.257   1.393  0.6566 -0.4128  0.2618
 2514SOL    MW4 9790   5.193   2.197   1.429 -0.1273 -0.2214  0.1484
 2515SOL     OW 9791   1.111   5.931   3.853  0.5859 -0.1683  0.1016
 2515SOL    HW2 9792   1.203   5.944   3.878  0.4798  0.4884  0.1627
 2515SOL    HW3 9793   1.069   6.015   3.871  0.1132 -0.2508 -0.5658
 2515SOL    MW4 9794   1.118   5.944   3.859 -0.3815  0.2980  0.3137
 2516SOL     OW 9795   2.522   3.814   0.411  0.9634 -0.9321 -0.2662
 2516SOL    HW2 9796   2.614   3.789   0.403  1.5955  1.2997 -0.5555
 2516SOL    HW3 9797   2.491   3.820   0.321  1.4284  1.2422 -0.3271
 2516SOL    MW4 9798   2.530   3.811   0.398  0.2536 -0.3291  0.1255
 2517SOL     OW 9799   1.642   2.455   4.900 -0.5208 -0.0610 -0.7005
 2517SOL    HW2 9800   1.726   2.424   4.933 -0.3429  0.7511 -0.3634
 2517SOL    HW3 9801   1.580   2.386   4.922 -0.2233  0.0379  0.4948
 2517SOL    MW4 9802   1.645   2.442   4.907 -0.0738 -0.7914 -0.5024
 2518SOL     OW 9803   3.429   4.972   0.257  0.0874 -0.2215 -0.2480
 2518SOL    HW2 9804   3.433   4.892   0.204 -2.1259 -0.7593  0.3025
 2518SOL    HW3 9805   3.343   5.009   0.238  1.3314  2.5481 -1.1098
 2518SOL    MW4 9806   3.418   4.966   0.247 -0.0914  0.3180  0.4680
 2519SOL     OW 9807   3.634   5.571   3.188 -0.4080  0.5591 -0.4351
 2519SOL    HW2 9808   3.647   5.565   3.094 -1.7796 -0.8672 -0.5897
 2519SOL    HW3 9809   3.571   5.502   3.207  1.8134 -0.9762  1.9369
 2519SOL    MW4 9810   3.627   5.561   3.178 -0.3723 -0.2816  0.5914
 2520SOL     OW 9811   0.305   3.710   3.674  0.1848 -0.1280  0.4421
 2520SOL    HW2 9812   0.356   3.787   3.648 -1.5930  2.0780  2.9345
 2520SOL    HW3 9813   0.238   3.701   3.606  2.5380 -1.9238 -1.8587
 2520SOL    MW4 9814   0.303   3.719   3.661 -0.0035  0.6064 -0.2024
 2521SOL     OW 9815   5.715   0.434   2.453 -0.2845 -0.8263 -0.1578
 2521SOL    HW2 9816   5.691   0.425   2.360  1.8700 -1.5642 -0.7140
 2521SOL    HW3 9817   5.680   0.519   2.479 -1.2105 -0.7492 -1.5636
 2521SOL    MW4 9818   5.707   0.444   2.444 -0.3267  0.0801  0.3330
 2522SOL     OW 9819   4.715   1.987   3.358 -0.1654  0.4345 -0.3167
 2522SOL    HW2 9820   4.623   1.993   3.334 -0.0419  2.9353 -0.3685
 2522SOL    HW3 9821   4.716   2.000   3.453  0.2017  1.3318 -0.4385
 2522SOL    MW4 9822   4.703   1.989   3.368 -0.7356 -0.0301  0.6740
 2523SOL     OW 9823   5.018   1.765   3.329  0.0319 -0.7858  0.2590
 2523SOL    HW2 9824   5.100   1.721   3.304 -0.0530 -0.2929 -0.9642
 2523SOL    HW3 9825   4.952   1.696   3.328  0.0636 -0.8118 -0.7778
 2523SOL    MW4 9826   5.020   1.750   3.326 -0.4260 -0.4645 -0.6530
 2524SOL     OW 9827   4.160   6.050   3.613  0.0997  0.0753  0.4164
 2524SOL    HW2 9828   4.161   6.136   3.656  0.0455  0.5291 -0.4587
 2524SOL    HW3 9829   4.124   5.991   3.679 -1.2230  0.9866  0.5542
 2524SOL    MW4 9830   4.156   6.054   3.628  0.0176 -0.1983 -0.1759
 2525SOL     OW 9831   0.730   5.407   3.518  0.3034 -0.0219 -0.1103
 2525SOL    HW2 9832   0.658   5.352   3.550 -0.1071  1.4292  1.6205
 2525SOL    HW3 9833   0.710   5.421   3.426 -0.9844 -0.6340  0.0548
 2525SOL    MW4 9834   0.718   5.402   3.510  0.2682 -0.1971  0.3194
 2526SOL     OW 9835   6.350   6.274   3.976  0.1203  0.2213 -0.0662
 2526SOL    HW2 9836   6.372   6.206   3.913  1.6129  0.1151  0.5334
 2526SOL    HW3 9837   6.407   6.347   3.953 -0.1476  0.5958  0.4425
 2526SOL    MW4 9838   6.360   6.275   3.965 -0.0503 -0.0195 -0.1356
 2527SOL     OW 9839   2.394   5.542   1.813  0.0350  0.5881 -0.2558
 2527SOL    HW2 9840   2.339   5.469   1.785  0.6264  0.3739 -0.9062
 2527SOL    HW3 9841   2.477   5.526   1.769  0.1544  1.6801 -0.4327
 2527SOL    MW4 9842   2.398   5.530   1.803  0.2376 -0.0327 -0.2880
 2528SOL     OW 9843   3.114   4.006   5.732  0.2295  0.3819 -0.3700
 2528SOL    HW2 9844   3.058   4.073   5.772 -0.6911 -0.5519 -0.0238
 2528SOL    HW3 9845   3.053   3.951   5.683  0.9649 -0.1887 -0.6544
 2528SOL    MW4 9846   3.098   4.008   5.731 -0.0521 -0.4559  0.2344
 2529SOL     OW 9847   5.187   4.060   0.555  0.6656 -0.0269  0.3906
 2529SOL    HW2 9848   5.116   4.100   0.605  0.6697  0.3855  0.0718
 2529SOL    HW3 9849   5.147   3.983   0.514  0.6352 -0.3064  0.9372
 2529SOL    MW4 9850   5.172   4.056   0.556  0.4362  0.2571  0.1446
 2530SOL     OW 9851   3.689   5.824   0.330 -0.4208  0.4329 -0.0279
 2530SOL    HW2 9852   3.707   5.798   0.240  0.5717  0.3018  0.1912
 2530SOL    HW3 9853   3.776   5.826   0.371 -1.0606 -2.5189  1.7446
 2530SOL    MW4 9854   3.703   5.821   0.323 -0.1767  0.3847  0.7953
 2531SOL     OW 9855   3.053   5.689   0.621 -0.5974 -0.3007  0.0455
 2531SOL    HW2 9856   2.978   5.701   0.562  0.1577 -1.1093 -1.1411
 2531SOL    HW3 9857   3.080   5.598   0.607  0.1881 -0.2269  0.9637
 2531SOL    MW4 9858   3.046   5.678   0.611  0.2673 -0.3368 -0.4161
 2532SOL     OW 9859   1.724   2.162   0.384  0.1677  0.0966 -0.1898
 2532SOL    HW2 9860   1.767   2.114   0.313 -1.3303  0.5217 -1.4334
 2532SOL    HW3 9861   1.631   2.162   0.361 -0.4767 -0.3289  2.1483
 2532SOL    MW4 9862   1.718   2.156   0.372  0.3657 -0.0630  0.1854
 2533SOL     OW 9863   1.493   1.626   0.490  0.3606  0.2697 -0.0126
 2533SOL    HW2 9864   1.515   1.667   0.573  0.9963  0.5928 -0.3356
 2533SOL    HW3 9865   1.434   1.554   0.513  0.8305  0.1280  0.7431
 2533SOL    MW4 9866   1.488   1.622   0.504  0.1234  0.2933  0.0023
 2534SOL     OW 9867   4.496   1.708   4.563  0.2432  0.0495 -0.2275
 2534SOL    HW2 9868   4.552   1.631   4.558 -0.7888 -0.7482  0.1779
 2534SOL    HW3 9869   4.417   1.678   4.608 -0.3853  1.2230 -0.4948
 2534SOL    MW4 9870   4.493   1.694   4.568 -0.5177 -0.0966 -0.2123
 2535SOL     OW 9871   4.257   4.112   1.074 -0.3871 -0.1081 -0.0917
 2535SOL    HW2 9872   4.267   4.203   1.103  1.2929 -0.8117  1.7591
 2535SOL    HW3 9873   4.289   4.111   0.984 -0.5401  1.1464 -0.1748
 2535SOL    MW4 9874   4.262   4.124   1.066  0.2375  0.2894  0.2944
 2536SOL     OW 9875   2.117   3.423   4.613 -0.2774  0.2034 -0.2053
 2536SOL    HW2 9876   2.083   3.493   4.556 -2.6233  0.2930  1.1595
 2536SOL    HW3 9877   2.117   3.345   4.558 -2.3143  0.3285 -0.4811
 2536SOL    MW4 9878   2.112   3.422   4.598 -0.2129  0.3056 -0.1379
 2537SOL     OW 9879   3.465   1.830   4.923  0.1249 -0.4780 -0.2412
 2537SOL    HW2 9880   3.400   1.837   4.853  1.2583  2.8842 -1.1355
 2537SOL    HW3 9881   3.538   1.783   4.884 -0.3398 -1.1107 -0.3685
 2537SOL    MW4 9882   3.466   1.824   4.909  0.2107  0.1197  0.5487
 2538SOL     OW 9883   5.468   3.582   1.126 -0.1431 -0.1735 -0.3274
 2538SOL    HW2 9884   5.410   3.648   1.087  0.5375  0.9147  0.4391
 2538SOL    HW3 9885   5.556   3.616   1.110  0.1880 -0.3870  0.9739
 2538SOL    MW4 9886   5.472   3.595   1.119  0.3127 -0.5495  0.2114
 2539SOL     OW 9887   2.869   0.733   2.748 -0.6900 -0.0004 -0.2407
 2539SOL    HW2 9888   2.932   0.684   2.695 -1.5370 -0.7722 -0.5638
 2539SOL    HW3 9889   2.875   0.694   2.835  0.9745  1.5171  0.3864
 2539SOL    MW4 9890   2.878   0.722   2.752  0.0228 -0.1590 -0.6320
 2540SOL     OW 9891   5.563   6.308   0.767 -0.2846  0.1559  0.1349
 2540SOL    HW2 9892   5.550   6.279   0.677  1.0943 -1.1214  0.3082
 2540SOL    HW3 9893   5.475   6.325   0.799 -0.7613  1.4225 -1.6777
 2540SOL    MW4 9894   5.550   6.306   0.759  0.0664 -0.3039  0.2331
 2541SOL     OW 9895   4.559   3.408   3.758  0.4581 -0.3662  0.1540
 2541SOL    HW2 9896   4.513   3.442   3.681  0.3551 -1.2491 -0.1832
 2541SOL    HW3 9897   4.499   3.343   3.795  1.0860 -0.9295  0.1876
 2541SOL    MW4 9898   4.545   3.404   3.753 -0.0644 -0.1698 -0.1274
 2542SOL     OW 9899   3.278   5.429   1.962  0.0614 -0.2600 -0.5647
 2542SOL    HW2 9900   3.328   5.382   1.895 -0.5455 -0.4378 -0.8945
 2542SOL    HW3 9901   3.285   5.373   2.040  1.1323  0.1591 -0.3363
 2542SOL    MW4 9902   3.286   5.416   1.964 -0.2621 -0.3560  0.0840
 2543SOL     OW 9903   5.459   0.606   2.784  0.1994 -0.6054 -0.3649
 2543SOL    HW2 9904   5.434   0.607   2.876  1.9267  0.1982  0.1311
 2543SOL    HW3 9905   5.440   0.695   2.753  0.1943 -0.6970 -0.6301
 2543SOL    MW4 9906   5.453   0.618   2.792 -0.3321 -0.2274  0.2517
 2544SOL     OW 9907   5.620   6.143   3.881  0.2077 -0.2044 -0.2232
 2544SOL    HW2 9908   5.660   6.058   3.897 -0.4430 -0.4069  0.3875
 2544SOL    HW3 9909   5.549   6.148   3.945  0.3892  0.8989 -0.0908
 2544SOL    MW4 9910   5.616   6.132   3.892  0.4592  0.0237 -0.2002
 2545SOL     OW 9911   1.351   1.077   2.828 -0.1326  0.2632  0.2568
 2545SOL    HW2 9912   1.351   1.053   2.735 -2.1946 -1.6048  0.6617
 2545SOL    HW3 9913   1.439   1.112   2.843  0.5352 -0.1421 -2.2009
 2545SOL    MW4 9914   1.362   1.078   2.818  0.1672  0.1097  0.0474
 2546SOL     OW 9915   2.784   3.338   3.269 -0.7016 -0.7181 -0.3421
 2546SOL    HW2 9916   2.711   3.401   3.269  0.0029  0.1425  0.5231
 2546SOL    HW3 9917   2.846   3.375   3.332  0.6589 -1.2264 -1.3492
 2546SOL    MW4 9918   2.783   3.351   3.278  0.4105  0.3075  0.2595
 2547SOL     OW 9919   4.618   5.588   1.381 -0.5504  0.5669  0.4150
 2547SOL    HW2 9920   4.695   5.546   1.343 -1.4446  0.0808 -0.9339
 2547SOL    HW3 9921   4.636   5.682   1.374 -0.0151  0.4551  0.2657
 2547SOL    MW4 9922   4.630   5.595   1.375 -0.5241  0.4896 -0.6601
 2548SOL     OW 9923   2.771   0.517   5.540  0.0796 -0.3663  0.1932
 2548SOL    HW2 9924   2.716   0.532   5.617  0.7538  0.7006  0.4816
 2548SOL    HW3 9925   2.793   0.604   5.508  0.2811 -0.7933 -0.8805
 2548SOL    MW4 9926   2.767   0.530   5.546  0.5265  0.1634  0.1539
 2549SOL     OW 9927   2.509   5.144   6.387 -0.7515 -0.1845  0.2353
 2549SOL    HW2 9928   2.555   5.179   6.463  0.8711 -0.2722 -0.6559
 2549SOL    HW3 9929   2.513   5.215   6.323 -1.8937 -0.1959  0.1397
 2549SOL    MW4 9930   2.516   5.158   6.389 -0.2158  0.3975 -0.2125
 2550SOL     OW 9931   5.447   3.573   4.241 -0.6505 -0.0642  0.2095
 2550SOL    HW2 9932   5.464   3.551   4.149  2.7398 -0.7543  0.8863
 2550SOL    HW3 9933   5.527   3.616   4.271 -1.1324 -1.0458  3.1952
 2550SOL    MW4 9934   5.459   3.576   4.233  0.5978 -0.2962 -0.4365
 2551SOL     OW 9935   5.730   1.550   5.323  0.0456  0.3628  0.2675
 2551SOL    HW2 9936   5.680   1.616   5.275  2.3556  0.6986 -1.8944
 2551SOL    HW3 9937   5.764   1.492   5.255  3.5679  0.9045  1.3622
 2551SOL    MW4 9938   5.728   1.551   5.308 -0.5235  0.4320 -0.1651
 2552SOL     OW 9939   4.922   2.325   1.255  0.1463 -0.0591  0.4396
 2552SOL    HW2 9940   4.850   2.358   1.201 -0.5081  0.8955  1.8255
 2552SOL    HW3 9941   4.881   2.305   1.340  1.4455  0.1929  1.1549
 2552SOL    MW4 9942   4.907   2.327   1.259  0.5309  0.0871 -0.5646
 2553SOL     OW 9943   5.056   6.308   4.890 -0.1013  0.1237 -0.0625
 2553SOL    HW2 9944   5.049   6.401   4.912  0.4609  0.3467 -0.7898
 2553SOL    HW3 9945   4.968   6.273   4.905  0.0996  0.3588  1.9562
 2553SOL    MW4 9946   5.043   6.315   4.895 -0.9385  0.1788 -0.5269
 2554SOL     OW 9947   2.155   0.320   0.770  0.0840 -0.5397 -0.4884
 2554SOL    HW2 9948   2.166   0.375   0.692  0.4318 -1.1646 -0.8899
 2554SOL    HW3 9949   2.194   0.371   0.841 -0.8572  0.3375 -0.5829
 2554SOL    MW4 9950   2.161   0.334   0.769  0.0604 -0.4554  0.2015
 2555SOL     OW 9951   0.255   5.602   6.377 -0.2909 -0.0234  0.5477
 2555SOL    HW2 9952   0.202   5.591   6.456  0.8174  3.4306  1.9615
 2555SOL    HW3 9953   0.345   5.585   6.405  0.0082  0.1438 -0.2636
 2555SOL    MW4 9954   0.260   5.598   6.391  0.1659 -0.2048 -0.0210
 2556SOL     OW 9955   5.669   2.688   5.154 -0.2973  0.0146  0.7107
 2556SOL    HW2 9956   5.611   2.670   5.080 -0.0854  2.2127 -0.0415
 2556SOL    HW3 9957   5.703   2.602   5.179  0.1589 -0.7343 -2.1820
 2556SOL    MW4 9958   5.666   2.674   5.148 -0.1306 -0.4442  0.9613
 2557SOL     OW 9959   5.506   2.481   1.641  0.1628  0.7140  0.5467
 2557SOL    HW2 9960   5.462   2.444   1.718  0.7358  0.5387  0.7997
 2557SOL    HW3 9961   5.576   2.418   1.621 -0.9181 -0.0460 -1.0774
 2557SOL    MW4 9962   5.509   2.468   1.649 -0.6639  0.5555  0.1321
 2558SOL     OW 9963   6.346   0.520   4.770 -0.1868 -0.0810  0.5158
 2558SOL    HW2 9964   6.289   0.456   4.813 -0.4867 -0.6603 -0.7066
 2558SOL    HW3 9965   6.290   0.562   4.705  0.3426  0.5665  0.4633
 2558SOL    MW4 9966   6.331   0.517   4.767 -0.2273  0.4564 -0.1671
 2559SOL     OW 9967   2.755   6.169   0.114  0.2423  0.3701 -0.4410
 2559SOL    HW2 9968   2.712   6.083   0.120  1.0067 -0.0281 -0.5791
 2559SOL    HW3 9969   2.830   6.154   0.058  0.5929  1.0556 -0.1619
 2559SOL    MW4 9970   2.759   6.156   0.108  0.6737  0.1232 -0.0166
 2560SOL     OW 9971   2.930   1.687   0.701  0.0805 -0.1857 -0.8059
 2560SOL    HW2 9972   2.958   1.775   0.675 -1.3442 -0.2245 -2.7056
 2560SOL    HW3 9973   2.910   1.643   0.618  0.1928 -2.1265  0.1385
 2560SOL    MW4 9974   2.931   1.693   0.686  0.1103 -0.4217  0.5560
 2561SOL     OW 9975   3.810   1.826   3.842 -0.0852 -0.3731 -0.0651
 2561SOL    HW2 9976   3.801   1.908   3.891  2.5535 -0.2098  0.2503
 2561SOL    HW3 9977   3.821   1.759   3.910  2.8315 -0.2449 -0.3010
 2561SOL    MW4 9978   3.810   1.828   3.858 -0.1234 -0.6686  0.1890
 2562SOL     OW 9979   1.150   3.305   6.376  0.4062 -0.0717  0.0236
 2562SOL    HW2 9980   1.100   3.376   6.335  0.6413 -0.4638 -0.9885
 2562SOL    HW3 9981   1.241   3.323   6.351  0.6012 -0.1364  0.6684
 2562SOL    MW4 9982   1.155   3.317   6.367 -0.2422  0.1505 -0.8074
 2563SOL     OW 9983   2.895   2.674   5.126 -0.2355  0.5162 -0.2431
 2563SOL    HW2 9984   2.830   2.742   5.145 -0.3437  0.6967 -1.2010
 2563SOL    HW3 9985   2.898   2.670   5.031  2.0166  1.3317 -0.2470
 2563SOL    MW4 9986   2.887   2.682   5.116  0.7973  0.1185  0.3855
 2564SOL     OW 9987   1.730   0.390   4.039 -0.6186 -0.4202 -0.1250
 2564SOL    HW2 9988   1.759   0.401   3.949  2.6372  0.9730  0.9472
 2564SOL    HW3 9989   1.672   0.464   4.054  0.3921  0.4827 -0.5480
 2564SOL    MW4 9990   1.726   0.401   4.029 -0.5599 -0.9067  0.4931
 2565SOL     OW 9991   5.347   4.227   2.095  0.4463  0.2398 -0.4099
 2565SOL    HW2 9992   5.330   4.307   2.145  1.3835  0.1392  0.0880
 2565SOL    HW3 9993   5.281   4.228   2.026 -0.8496  0.4059  0.7927
 2565SOL    MW4 9994   5.336   4.238   2.092 -0.3030  0.5765  0.0128
 2566SOL     OW 9995   1.525   5.628   4.386 -0.8445 -0.5416 -0.0035
 2566SOL    HW2 9996   1.553   5.710   4.347 -1.2204  0.0281  0.8979
 2566SOL    HW3 9997   1.531   5.564   4.315 -1.1175  0.3832 -0.8722
 2566SOL    MW4 9998   1.529   5.630   4.372  0.5432  0.1095  0.1313
 2567SOL     OW 9999   0.277   0.992   6.126 -0.7762  0.4645 -0.2974
 2567SOL    HW210000   0.281   1.048   6.204 -2.5605  0.4501 -0.1437
 2567SOL    HW310001   0.215   0.923   6.150 -0.9841  0.1917 -1.5655
 2567SOL    MW410002   0.269   0.990   6.140  0.4431 -0.6940 -0.2634
 2568SOL     OW10003   0.709   5.014   6.191 -0.0540 -1.0959 -0.6790
 2568SOL    HW210004   0.668   5.097   6.215  1.2844 -0.9253  1.4073
 2568SOL    HW310005   0.780   5.038   6.132  0.4665 -0.6763  0.0913
 2568SOL    MW410006   0.713   5.028   6.187  0.1554  0.3265 -0.3529
 2569SOL     OW10007   0.554   0.991   4.988 -0.0270 -0.3259 -0.0201
 2569SOL    HW210008   0.473   0.997   4.936  0.3207 -2.1314 -0.8455
 2569SOL    HW310009   0.596   0.910   4.958 -0.3486 -2.1671  3.8344
 2569SOL    MW410010   0.548   0.981   4.977  0.0730  0.1491 -0.2398
 2570SOL     OW10011   6.315   2.683   0.313 -0.3092 -0.2759  0.3085
 2570SOL    HW210012   6.408   2.693   0.292 -0.6793  1.5451 -0.6712
 2570SOL    HW310013   6.289   2.602   0.269  0.1817  0.7135 -1.9772
 2570SOL    MW410014   6.324   2.673   0.304 -0.0843  0.2996  0.0578
 2571SOL     OW10015   3.464   2.188   3.965  0.1660  0.2725  0.2898
 2571SOL    HW210016   3.505   2.229   4.041  0.8789  0.5907 -0.2611
 2571SOL    HW310017   3.472   2.094   3.982 -0.3193  0.3399  0.9402
 2571SOL    MW410018   3.471   2.181   3.977  0.0796  0.7937  0.3621
 2572SOL     OW10019   1.894   4.684   3.999 -0.1218  0.2179 -0.2204
 2572SOL    HW210020   1.815   4.650   4.042  0.4179 -0.6847  0.0753
 2572SOL    HW310021   1.874   4.777   3.983 -0.4413  0.5338  1.7407
 2572SOL    MW410022   1.881   4.692   4.003  0.2890  0.2817 -0.2295
 2573SOL     OW10023   0.733   3.226   2.672 -0.1243 -0.1007 -0.4718
 2573SOL    HW210024   0.733   3.241   2.767 -0.7995 -1.3665 -0.2528
 2573SOL    HW310025   0.641   3.225   2.648 -0.0380 -1.4056 -0.8466
 2573SOL    MW410026   0.721   3.228   2.682  0.1922  0.2497 -0.0357
 2574SOL     OW10027   1.531   5.526   6.262 -0.0090 -0.4339  0.0133
 2574SOL    HW210028   1.537   5.609   6.216  0.9381  0.7381  2.1091
 2574SOL    HW310029   1.566   5.462   6.199  1.4508  1.1028 -0.8428
 2574SOL    MW410030   1.537   5.528   6.247 -0.6994 -0.0097  0.0253
 2575SOL     OW10031   4.133   0.132   1.626  0.4078  0.3176 -0.3468
 2575SOL    HW210032   4.063   0.127   1.561 -0.5861 -0.4391  0.7275
 2575SOL    HW310033   4.121   0.053   1.679  1.1366  0.9378  0.7841
 2575SOL    MW410034   4.122   0.121   1.624 -0.2254 -0.3220 -0.1304
 2576SOL     OW10035   0.956   1.026   3.783  0.0055  0.1245 -0.1357
 2576SOL    HW210036   1.050   1.042   3.769  0.1069 -0.0624  0.2890
 2576SOL    HW310037   0.925   0.991   3.700  0.0291  1.3963 -0.7024
 2576SOL    MW410038   0.964   1.023   3.770  0.1918 -0.1124 -0.6379
 2577SOL     OW10039   4.307   1.748   4.238 -0.4140 -0.2607  0.3008
 2577SOL    HW210040   4.294   1.654   4.247  1.4277 -0.6565 -0.7400
 2577SOL    HW310041   4.402   1.760   4.237 -0.5952  1.5883  0.1553
 2577SOL    MW410042   4.318   1.737   4.239 -0.1903  0.5029  0.1195
 2578SOL     OW10043   3.594   3.403   2.227 -0.3083 -0.0086  0.2232
 2578SOL    HW210044   3.614   3.496   2.231  0.6496 -0.2436  1.3361
 2578SOL    HW310045   3.618   3.377   2.138  1.6470  0.3307  0.6231
 2578SOL    MW410046   3.599   3.412   2.216 -0.0227 -0.0531 -1.3151
 2579SOL     OW10047   4.284   0.452   1.364 -0.8914 -0.7514 -0.2570
 2579SOL    HW210048   4.298   0.395   1.289 -0.9403 -0.4025 -0.5299
 2579SOL    HW310049   4.310   0.398   1.440 -1.6673 -1.4002 -0.4393
 2579SOL    MW410050   4.290   0.437   1.364 -0.4329  0.1507 -0.2285
 2580SOL     OW10051   4.036   2.939   0.487 -0.0631 -0.7974 -0.3392
 2580SOL    HW210052   3.966   2.929   0.553 -0.6436  0.3363 -0.7702
 2580SOL    HW310053   4.009   2.881   0.415 -1.0253  0.2749 -0.8678
 2580SOL    MW410054   4.023   2.930   0.486 -0.5141 -0.3355  0.0568
 2581SOL     OW10055   5.599   4.830   4.084  0.5727 -0.3571  0.1912
 2581SOL    HW210056   5.648   4.906   4.113 -0.1585 -0.4210  1.6691
 2581SOL    HW310057   5.545   4.863   4.011  2.7830 -0.3187 -1.5384
 2581SOL    MW410058   5.598   4.845   4.078  0.2425  0.1982  0.2791
 2582SOL     OW10059   2.397   4.477   1.195  0.4973  0.0882  0.2914
 2582SOL    HW210060   2.416   4.403   1.138 -1.3290 -0.6420  0.5566
 2582SOL    HW310061   2.395   4.553   1.136  3.1127  0.1019  0.1302
 2582SOL    MW410062   2.399   4.477   1.180 -0.7553 -0.6056 -0.0653
 2583SOL     OW10063   4.803   1.283   5.940 -0.8108  0.1677  0.6305
 2583SOL    HW210064   4.861   1.358   5.955  1.4403 -0.8803 -1.8927
 2583SOL    HW310065   4.742   1.285   6.014  1.6827  2.0802  2.8676
 2583SOL    MW410066   4.803   1.293   5.952  0.9398 -0.0652 -0.4442
 2584SOL     OW10067   3.545   5.493   5.274 -0.1388 -0.2694 -0.0840
 2584SOL    HW210068   3.580   5.467   5.359  1.5316  1.0472 -0.3183
 2584SOL    HW310069   3.535   5.588   5.280 -1.3493 -0.3313 -0.8950
 2584SOL    MW410070   3.548   5.502   5.286  0.0142 -0.0652  0.2187
 2585SOL     OW10071   0.230   4.791   3.539 -0.2582 -0.2862 -0.5877
 2585SOL    HW210072   0.262   4.788   3.629 -2.1361 -0.6630  0.1046
 2585SOL    HW310073   0.308   4.809   3.487  0.7598  0.6446  1.1644
 2585SOL    MW410074   0.245   4.793   3.544 -0.0986 -0.7883 -0.5159
 2586SOL     OW10075   6.140   5.134   6.176 -0.1258  0.0364  0.2904
 2586SOL    HW210076   6.084   5.100   6.246  0.4893 -0.8973  0.3504
 2586SOL    HW310077   6.138   5.229   6.187 -0.8710 -0.0424  0.9219
 2586SOL    MW410078   6.132   5.142   6.186  0.0423  0.1450 -0.3408
 2587SOL     OW10079   0.582   2.215   4.560  0.3269  0.2198  0.7863
 2587SOL    HW210080   0.601   2.231   4.467 -0.2170 -0.6938  0.5026
 2587SOL    HW310081   0.625   2.287   4.606 -1.1290  1.8793 -0.3175
 2587SOL    MW410082   0.590   2.227   4.554  0.4050 -0.7850  0.4684
 2588SOL     OW10083   2.062   5.606   1.272  0.1458  0.2668  0.2711
 2588SOL    HW210084   2.073   5.643   1.360 -0.7580 -0.0421  0.5201
 2588SOL    HW310085   2.126   5.535   1.268  0.8053  0.8341  0.3506
 2588SOL    MW410086   2.072   5.602   1.283  0.1748  0.3195 -0.0169
 2589SOL     OW10087   3.670   4.223   1.620 -0.4726 -0.3122 -0.6715
 2589SOL    HW210088   3.711   4.156   1.566 -0.2179  0.8787 -2.0171
 2589SOL    HW310089   3.653   4.296   1.560 -1.1345  0.6732  0.6422
 2589SOL    MW410090   3.673   4.224   1.605 -0.0987  0.1477  0.3710
 2590SOL     OW10091   5.642   3.674   0.059  0.1262 -0.0709  0.3669
 2590SOL    HW210092   5.724   3.705   0.099 -0.3043  0.9336  0.4970
 2590SOL    HW310093   5.601   3.753   0.024 -0.8130 -0.5583  0.3388
 2590SOL    MW410094   5.648   3.689   0.060 -0.2358  0.0312 -0.2906
 2591SOL     OW10095   0.865   1.591   3.662 -0.0703 -0.1407 -0.4951
 2591SOL    HW210096   0.777   1.605   3.696 -0.5289 -0.4810 -1.5129
 2591SOL    HW310097   0.913   1.552   3.735  0.2882  3.2681  1.3166
 2591SOL    MW410098   0.860   1.588   3.676  0.6719  0.6371 -0.7796
 2592SOL     OW10099   4.532   1.666   1.575  0.3389 -0.2566  0.0062
 2592SOL    HW210100   4.477   1.737   1.541 -0.0687 -0.2591  0.6345
 2592SOL    HW310101   4.493   1.645   1.660  0.2213 -1.4820 -0.3241
 2592SOL    MW410102   4.519   1.673   1.582 -0.5751 -0.3397 -0.5923
 2593SOL     OW10103   5.098   1.258   2.008 -0.1721 -0.8765 -0.0028
 2593SOL    HW210104   5.129   1.274   2.097  0.2785  0.4955 -0.3832
 2593SOL    HW310105   5.174   1.275   1.952 -0.9889  0.3839 -0.7898
 2593SOL    MW410106   5.112   1.262   2.012 -0.2073  0.3207  0.2503
 2594SOL     OW10107   3.883   1.288   3.279  0.0728  0.2929 -0.5969
 2594SOL    HW210108   3.948   1.239   3.227  0.2825 -2.6981  2.1694
 2594SOL    HW310109   3.800   1.242   3.263 -0.0101 -0.1588  0.9758
 2594SOL    MW410110   3.881   1.275   3.270  0.9716 -0.2299  0.6186
 2595SOL     OW10111   1.292   3.050   0.312  0.2084  0.0637  0.3294
 2595SOL    HW210112   1.341   3.036   0.231 -1.4961 -0.5571 -0.6451
 2595SOL    HW310113   1.224   3.113   0.288 -1.2223 -1.2125  0.8557
 2595SOL    MW410114   1.289   3.057   0.298  0.0249  0.0394 -0.1107
 2596SOL     OW10115   1.866   1.204   1.474  0.9779 -0.4057 -0.2866
 2596SOL    HW210116   1.791   1.146   1.465  0.6200 -0.3426  1.8648
 2596SOL    HW310117   1.933   1.165   1.418  0.2477 -2.0238 -0.0971
 2596SOL    MW410118   1.865   1.191   1.465  0.9066  0.0353 -0.6294
 2597SOL     OW10119   5.353   4.533   6.358  0.0149 -0.2672  0.4387
 2597SOL    HW210120   5.394   4.510   6.274 -0.8619 -1.2763  0.2684
 2597SOL    HW310121   5.352   4.629   6.359  1.4586 -0.2155  0.0118
 2597SOL    MW410122   5.358   4.542   6.347 -0.1917 -0.1197 -0.2163
 2598SOL     OW10123   3.497   3.211   6.092  0.5523  0.1799  0.9284
 2598SOL    HW210124   3.428   3.193   6.029  2.5009 -0.0073 -1.2645
 2598SOL    HW310125   3.559   3.140   6.081  1.4722  0.7321  2.3120
 2598SOL    MW410126   3.496   3.199   6.082  0.2327 -0.1441 -0.1362
 2599SOL     OW10127   2.791   2.049   6.035  0.1851 -0.0667  0.1871
 2599SOL    HW210128   2.708   2.085   6.067 -0.4087  0.5096 -1.8685
 2599SOL    HW310129   2.835   2.017   6.114 -1.5540  0.4913  1.4446
 2599SOL    MW410130   2.786   2.050   6.050 -0.7902 -0.2892 -0.8985
 2600SOL     OW10131   0.311   5.959   1.852  0.6691  0.2961 -0.2555
 2600SOL    HW210132   0.397   5.993   1.876  1.3141 -0.2697 -1.6371
 2600SOL    HW310133   0.329   5.897   1.781 -0.8661  0.0246 -0.4424
 2600SOL    MW410134   0.325   5.955   1.846  0.0665  0.0781 -0.2489
 2601SOL     OW10135   4.903   4.818   5.244  0.8759  0.6111 -0.4646
 2601SOL    HW210136   4.842   4.799   5.315 -2.2412 -1.4869 -3.3818
 2601SOL    HW310137   4.973   4.752   5.254  1.3326  1.3187  1.4034
 2601SOL    MW410138   4.905   4.806   5.255  0.4115  0.2756  0.9339
 2602SOL     OW10139   5.459   2.516   3.039  0.2985  0.0164 -0.3761
 2602SOL    HW210140   5.374   2.529   3.083 -0.6579 -1.9568 -1.4874
 2602SOL    HW310141   5.445   2.549   2.950  0.7135 -0.2998 -0.5591
 2602SOL    MW410142   5.446   2.522   3.033 -0.6973 -0.4441  0.0431
 2603SOL     OW10143   2.518   1.528   1.079 -0.5250  0.0111  0.5102
 2603SOL    HW210144   2.511   1.599   1.015  0.7397  1.2005  1.6689
 2603SOL    HW310145   2.455   1.462   1.047 -0.4804  0.8806 -1.5269
 2603SOL    MW410146   2.508   1.528   1.066  0.2904  0.6574  0.3703
 2604SOL     OW10147   5.755   0.968   0.221  0.2809 -0.2605  0.0853
 2604SOL    HW210148   5.824   0.999   0.280 -0.4763  1.1402  0.2570
 2604SOL    HW310149   5.762   1.024   0.144 -0.0625 -0.7323 -0.2958
 2604SOL    MW410150   5.765   0.979   0.218 -0.3647  0.4488 -0.0549
 2605SOL     OW10151   1.175   1.018   4.324 -0.1526  0.3959 -0.1123
 2605SOL    HW210152   1.205   1.003   4.414 -0.5549 -0.8804 -0.1792
 2605SOL    HW310153   1.234   0.967   4.270  0.9411  2.2189 -0.7377
 2605SOL    MW410154   1.186   1.009   4.329  0.2607  0.3670 -0.3013
 2606SOL     OW10155   2.772   6.060   4.177 -1.3612  0.3978  0.1588
 2606SOL    HW210156   2.855   6.026   4.143 -0.4332  3.2963 -0.8015
 2606SOL    HW310157   2.792   6.083   4.268 -1.0262  1.1586 -0.0909
 2606SOL    MW410158   2.786   6.059   4.185  0.7941  0.0412 -0.5632
 2607SOL     OW10159   0.317   5.441   4.287  0.5082  0.2881 -0.1028
 2607SOL    HW210160   0.254   5.469   4.221 -0.5561 -0.3992  0.6006
 2607SOL    HW310161   0.270   5.444   4.370  0.9460 -1.5515  0.2696
 2607SOL    MW410162   0.303   5.445   4.289  0.3406 -0.1201 -0.1359
 2608SOL     OW10163   3.915   5.421   3.919  0.6548  0.3394  0.3746
 2608SOL    HW210164   3.931   5.444   3.827 -0.2891 -0.3983  0.0118
 2608SOL    HW310165   3.827   5.385   3.920  0.6731  0.2860  1.5729
 2608SOL    MW410166   3.906   5.419   3.907 -0.6391 -0.0669  0.1121
 2609SOL     OW10167   2.452   0.983   0.937  0.6873  0.3548  0.5404
 2609SOL    HW210168   2.474   0.972   1.030  0.8729 -1.8240  0.2680
 2609SOL    HW310169   2.373   1.037   0.938  2.2108  2.7577  1.8158
 2609SOL    MW410170   2.445   0.989   0.950 -0.5378 -0.0893 -0.7798
 2610SOL     OW10171   3.511   0.055   5.360 -0.0867 -0.3027  0.1282
 2610SOL    HW210172   3.417   0.068   5.363 -0.0247 -0.1053  1.6097
 2610SOL    HW310173   3.523  -0.040   5.370 -0.1327 -0.3743 -0.4538
 2610SOL    MW410174   3.500   0.044   5.361 -0.3722 -0.1703 -0.2654
 2611SOL     OW10175   4.977   3.078   2.578  0.0238  0.1621 -0.4493
 2611SOL    HW210176   4.960   3.109   2.667 -0.3890  0.9148 -0.7814
 2611SOL    HW310177   4.935   2.992   2.574  0.8835 -0.3189  0.3777
 2611SOL    MW410178   4.969   3.071   2.589 -0.0851  0.2866 -0.4372
 2612SOL     OW10179   6.023   6.325   0.193 -0.5218  0.0071  0.5088
 2612SOL    HW210180   6.119   6.335   0.188 -0.7798  2.3565 -1.8791
 2612SOL    HW310181   6.006   6.239   0.155  0.6825 -1.2733  2.6540
 2612SOL    MW410182   6.034   6.315   0.188  0.2169  0.5674 -0.3099
 2613SOL     OW10183   4.162   1.432   4.910  0.2021  0.2223  0.2754
 2613SOL    HW210184   4.084   1.440   4.966 -0.5054 -0.4598 -0.5705
 2613SOL    HW310185   4.235   1.433   4.971 -0.4724  0.8231  1.1045
 2613SOL    MW410186   4.161   1.433   4.926  0.4245  0.1184  0.2490
 2614SOL     OW10187   3.635   2.766   4.297 -0.1133  0.0431 -0.2479
 2614SOL    HW210188   3.575   2.691   4.295 -1.1101  0.7872  0.8784
 2614SOL    HW310189   3.599   2.827   4.233 -0.2554  0.2667  0.0451
 2614SOL    MW410190   3.623   2.764   4.288 -0.0544  0.4702  0.0715
 2615SOL     OW10191   6.298   4.476   5.095 -0.1663 -0.0922  1.3180
 2615SOL    HW210192   6.249   4.416   5.038  0.5986  0.3389  0.1737
 2615SOL    HW310193   6.347   4.532   5.035  0.3108  0.6955  2.4009
 2615SOL    MW410194   6.298   4.476   5.080  0.3734  0.4893  0.1967
 2616SOL     OW10195   3.647   4.046   6.320  0.1244  0.8330  0.0307
 2616SOL    HW210196   3.720   4.098   6.285 -0.4974  0.7155 -1.5480
 2616SOL    HW310197   3.678   3.956   6.318 -0.0372  0.7810 -0.6612
 2616SOL    MW410198   3.661   4.041   6.315 -0.2875  0.7338  0.4530
 2617SOL     OW10199   3.625   1.674   1.566  0.2258  0.5004  0.5867
 2617SOL    HW210200   3.614   1.739   1.498 -1.5711 -2.4396 -2.2178
 2617SOL    HW310201   3.537   1.643   1.585  1.0284 -1.5297  1.3248
 2617SOL    MW410202   3.612   1.678   1.560 -0.0234  0.0866  0.0033
 2618SOL     OW10203   4.837   3.838   3.084 -0.6943  0.2007 -0.4915
 2618SOL    HW210204   4.743   3.843   3.064 -0.7399  1.4445 -0.0336
 2618SOL    HW310205   4.855   3.744   3.086 -1.8997 -0.0622 -0.7195
 2618SOL    MW410206   4.827   3.826   3.082 -0.0568 -0.2444  0.4763
 2619SOL     OW10207   3.433   1.471   0.374 -0.0918 -0.0547  0.8975
 2619SOL    HW210208   3.371   1.543   0.388  1.8557  1.6551  1.2867
 2619SOL    HW310209   3.489   1.473   0.452  0.5442 -1.4664  0.5023
 2619SOL    MW410210   3.432   1.481   0.386 -0.1693  0.2320  0.3043
 2620SOL     OW10211   4.382   2.141   3.533 -0.3721 -0.2966  0.6444
 2620SOL    HW210212   4.344   2.069   3.483  0.3686 -0.2703  0.0396
 2620SOL    HW310213   4.427   2.195   3.468  0.6163 -0.2669  1.3297
 2620SOL    MW410214   4.383   2.139   3.518  0.1759  0.2874 -0.0226
 2621SOL     OW10215   0.496   2.049   5.175  0.1337 -0.0917  0.5039
 2621SOL    HW210216   0.478   1.962   5.138  0.0174  0.6970 -1.3858
 2621SOL    HW310217   0.567   2.034   5.238  0.8219 -1.3876 -0.5314
 2621SOL    MW410218   0.503   2.035   5.179 -0.0430  0.3063 -0.2284
 2622SOL     OW10219   1.705   0.254   5.622 -0.1386 -1.2720  0.5980
 2622SOL    HW210220   1.724   0.165   5.649 -0.7064 -2.2377 -1.9062
 2622SOL    HW310221   1.790   0.297   5.618  0.3566 -2.2729  0.0142
 2622SOL    MW410222   1.718   0.248   5.625  0.0884  0.3878 -0.6216
 2623SOL     OW10223   1.859   0.442   6.381  0.0758 -0.0740 -0.6205
 2623SOL    HW210224   1.865   0.413   6.472  2.7871 -2.0684 -1.3063
 2623SOL    HW310225   1.860   0.362   6.330 -3.4809  0.8714 -2.4881
 2623SOL    MW410226   1.860   0.428   6.386 -0.0788 -0.0927 -0.1554
 2624SOL     OW10227   4.721   2.727   3.971 -0.0349  0.3606  0.6992
 2624SOL    HW210228   4.646   2.680   3.936  0.5177 -0.2135  0.2628
 2624SOL    HW310229   4.745   2.789   3.903  0.3484  0.0189  0.5182
 2624SOL    MW410230   4.714   2.729   3.957  0.4234 -0.0851  0.2668
 2625SOL     OW10231   2.398   0.659   0.163 -0.4251 -0.4399  0.2876
 2625SOL    HW210232   2.493   0.667   0.158  0.0543 -4.5219  0.0960
 2625SOL    HW310233   2.383   0.598   0.236 -2.6265 -2.3855 -1.6520
 2625SOL    MW410234   2.408   0.652   0.172 -0.1040  0.2860 -0.1042
 2626SOL     OW10235   6.069   1.430   4.098  0.4784 -0.0234  0.3092
 2626SOL    HW210236   6.054   1.340   4.068  0.3378  0.5033 -1.2683
 2626SOL    HW310237   6.163   1.444   4.085  0.2296  0.5647 -0.9480
 2626SOL    MW410238   6.080   1.420   4.092  0.1118  0.1463 -0.0686
 2627SOL     OW10239   3.155   1.612   4.272  0.2213 -0.0266  0.0967
 2627SOL    HW210240   3.197   1.692   4.242  1.9605 -1.1178 -0.5727
 2627SOL    HW310241   3.223   1.565   4.320 -0.9229 -0.8405  0.9920
 2627SOL    MW410242   3.169   1.616   4.274 -0.2878 -0.3251  0.3059
 2628SOL     OW10243   4.028   2.824   3.754 -0.5759 -0.4673  0.0966
 2628SOL    HW210244   4.071   2.846   3.672  0.6307  1.6456  1.1872
 2628SOL    HW310245   4.054   2.733   3.771  0.6579 -0.3506 -0.9804
 2628SOL    MW410246   4.037   2.815   3.746  0.0508  0.3302 -0.5421
 2629SOL     OW10247   2.235   4.125   3.233 -0.3870 -0.1224  0.0494
 2629SOL    HW210248   2.249   4.064   3.160  2.6956 -1.1548  1.3681
 2629SOL    HW310249   2.239   4.212   3.192  1.7016 -0.6593 -1.0129
 2629SOL    MW410250   2.237   4.128   3.218 -0.1246 -0.6813 -0.3392
 2630SOL     OW10251   4.777   0.342   4.221  0.1642 -0.2914 -0.6542
 2630SOL    HW210252   4.749   0.418   4.273 -0.6911 -0.3959 -0.9517
 2630SOL    HW310253   4.764   0.267   4.280  0.9478 -0.2308 -0.3836
 2630SOL    MW410254   4.772   0.342   4.236  0.2572  0.0639 -0.3241
 2631SOL     OW10255   2.756   2.961   6.302 -0.4923  0.2511  0.1663
 2631SOL    HW210256   2.781   2.926   6.217  2.2226 -0.8358  1.3150
 2631SOL    HW310257   2.672   2.919   6.322 -0.7471 -0.1217 -1.5756
 2631SOL    MW410258   2.748   2.951   6.294 -0.2771 -0.4346 -0.1479
 2632SOL     OW10259   4.663   3.175   1.298  0.3506  0.0961 -0.5715
 2632SOL    HW210260   4.668   3.093   1.250 -0.2163 -0.2429 -0.0716
 2632SOL    HW310261   4.603   3.230   1.248 -0.8237 -0.5263  0.1113
 2632SOL    MW410262   4.656   3.172   1.285 -0.1035 -0.1769  0.0980
 2633SOL     OW10263   2.382   4.995   6.128 -0.0880 -0.0507  0.5591
 2633SOL    HW210264   2.444   4.928   6.156  0.8856 -0.4379 -2.2208
 2633SOL    HW310265   2.332   4.954   6.057  0.0032  1.8697 -0.7022
 2633SOL    MW410266   2.384   4.981   6.122 -0.2893 -0.2397 -0.0459
 2634SOL     OW10267   0.912   5.740   5.435 -0.0412  0.1101  0.2598
 2634SOL    HW210268   0.905   5.746   5.531  2.9751 -0.6353  0.6375
 2634SOL    HW310269   1.005   5.757   5.417 -0.7301  1.3251 -2.6776
 2634SOL    MW410270   0.924   5.743   5.446  0.0182  0.4126  0.2799
 2635SOL     OW10271   2.912   3.499   1.551  0.7529 -0.0309 -0.6207
 2635SOL    HW210272   2.975   3.551   1.502  1.2592  2.5370  2.4554
 2635SOL    HW310273   2.833   3.552   1.553  1.3977  1.1048  2.9030
 2635SOL    MW410274   2.910   3.513   1.545  1.0131 -0.4586  0.3091
 2636SOL     OW10275   0.121   1.041   2.133 -0.0697  0.2148  0.1074
 2636SOL    HW210276   0.152   0.964   2.180  0.5881 -0.8141 -1.8721
 2636SOL    HW310277   0.192   1.104   2.140  0.0579  0.0364  0.4186
 2636SOL    MW410278   0.134   1.039   2.140  0.0967  0.2443  0.0225
 2637SOL     OW10279   2.398   0.651   5.922  0.7433  0.3569  0.3435
 2637SOL    HW210280   2.304   0.634   5.911  0.8887  0.1414 -0.7086
 2637SOL    HW310281   2.426   0.590   5.990  0.4285 -0.7185 -0.4655
 2637SOL    MW410282   2.389   0.641   5.930  0.0072  0.2469  0.8414
 2638SOL     OW10283   5.718   0.757   0.054  0.3082  0.0908  0.5984
 2638SOL    HW210284   5.630   0.742   0.087  0.2089  1.0047  0.7713
 2638SOL    HW310285   5.747   0.837   0.098  1.9411 -1.1765  1.9689
 2638SOL    MW410286   5.710   0.765   0.064  0.0727 -0.5129  0.3629
 2639SOL     OW10287   1.348   1.719   5.335  0.6862  0.6838 -0.0781
 2639SOL    HW210288   1.425   1.748   5.286 -0.4844  1.9076 -1.3115
 2639SOL    HW310289   1.340   1.626   5.314  0.1931  1.1807 -2.3399
 2639SOL    MW410290   1.357   1.711   5.326  0.3916 -0.1711  0.0416
 2640SOL     OW10291   4.263   5.921   0.118 -0.4357 -0.2133 -0.0765
 2640SOL    HW210292   4.216   5.994   0.159  0.4295 -0.8099  2.1397
 2640SOL    HW310293   4.332   5.963   0.066 -0.9285  0.5766 -0.1000
 2640SOL    MW410294   4.266   5.936   0.117  0.7653 -0.2753 -0.0976
 2641SOL     OW10295   6.272   5.208   1.640 -0.4051 -0.5535  0.5063
 2641SOL    HW210296   6.351   5.256   1.617 -0.0426 -1.1138  0.5620
 2641SOL    HW310297   6.210   5.276   1.668 -1.0776  0.2587 -2.5745
 2641SOL    MW410298   6.274   5.223   1.640  0.2282 -0.1276 -0.0744
 2642SOL     OW10299   1.823   5.436   1.055  0.4670 -0.3587  0.3230
 2642SOL    HW210300   1.864   5.516   1.023 -1.3498  0.2558 -0.6123
 2642SOL    HW310301   1.809   5.452   1.149  0.4531  0.2754  0.2169
 2642SOL    MW410302   1.827   5.449   1.063 -0.5403 -0.3074 -0.4695
 2643SOL     OW10303   4.513   3.439   2.250  0.1668 -0.5916  0.7147
 2643SOL    HW210304   4.577   3.488   2.300 -0.0492 -0.6181  1.0171
 2643SOL    HW310305   4.564   3.394   2.183  0.5427 -1.1358  1.3582
 2643SOL    MW410306   4.528   3.440   2.247 -0.0454 -0.1352 -0.2098
 2644SOL     OW10307   1.365   4.306   2.731  0.0873  0.2434 -0.1371
 2644SOL    HW210308   1.430   4.317   2.661 -0.0587 -2.1372 -0.7208
 2644SOL    HW310309   1.413   4.262   2.801 -1.0096 -2.3621 -0.9137
 2644SOL    MW410310   1.380   4.302   2.731  0.1131  0.4681 -1.3483
 2645SOL     OW10311   2.143   5.648   1.536 -0.1827  0.2683  0.5565
 2645SOL    HW210312   2.188   5.579   1.586  0.5278  0.1478 -0.2452
 2645SOL    HW310313   2.089   5.693   1.602 -1.4531 -1.6782  0.9450
 2645SOL    MW410314   2.142   5.644   1.551 -0.0527 -0.4714  0.0482
 2646SOL     OW10315   0.022   5.786   5.801  0.3127  0.3846 -0.7289
 2646SOL    HW210316   0.037   5.822   5.888 -0.5942 -1.5964  0.3034
 2646SOL    HW310317   0.105   5.798   5.756  0.7646  1.5559  0.3467
 2646SOL    MW410318   0.035   5.793   5.807  0.5833 -0.1344 -0.2807
 2647SOL     OW10319   0.286   0.197   4.933  0.5779  0.4332 -0.0561
 2647SOL    HW210320   0.217   0.233   4.877  0.7031  0.5786 -0.1176
 2647SOL    HW310321   0.291   0.104   4.908  1.4981  0.7579 -1.1962
 2647SOL    MW410322   0.277   0.189   4.922 -0.5781  0.2888 -0.1437
 2648SOL     OW10323   3.369   0.968   2.702 -0.0048  0.4317  0.0161
 2648SOL    HW210324   3.304   0.980   2.771 -0.4248  0.0954 -0.3127
 2648SOL    HW310325   3.364   1.048   2.650 -1.9741 -0.5788 -1.4958
 2648SOL    MW410326   3.360   0.980   2.705  0.3696 -0.3304 -0.2051
 2649SOL     OW10327   2.079   3.224   1.445 -0.1495 -0.0262 -0.5439
 2649SOL    HW210328   2.002   3.266   1.407 -0.6076  1.5157  1.8761
 2649SOL    HW310329   2.098   3.151   1.386 -2.8096  0.1762 -1.7963
 2649SOL    MW410330   2.071   3.219   1.432  0.5017 -0.6187 -0.1025
 2650SOL     OW10331   3.584   3.916   1.337 -0.3112 -0.0546  0.6578
 2650SOL    HW210332   3.497   3.933   1.372 -0.7572 -2.1554  0.6932
 2650SOL    HW310333   3.636   3.992   1.362 -2.2213  1.4494  0.2518
 2650SOL    MW410334   3.580   3.928   1.345 -0.4785 -0.3040 -0.0265
 2651SOL     OW10335   3.669   1.622   3.034  0.1058  0.5799  0.3784
 2651SOL    HW210336   3.628   1.621   2.947  0.9268  1.7702 -0.0441
 2651SOL    HW310337   3.707   1.710   3.041  0.9013  0.1527  1.5461
 2651SOL    MW410338   3.668   1.634   3.023 -0.2199 -0.0495 -0.0599
 2652SOL     OW10339   1.394   0.901   4.188 -0.7400 -0.4910  0.1186
 2652SOL    HW210340   1.472   0.954   4.175 -1.1734  0.1716  0.1273
 2652SOL    HW310341   1.378   0.860   4.103  0.3097 -1.6210  0.4440
 2652SOL    MW410342   1.402   0.903   4.175  0.2135  0.4827 -0.0572
 2653SOL     OW10343   3.358   2.840   3.518  0.0248  0.1027 -0.2430
 2653SOL    HW210344   3.308   2.759   3.511 -1.2387  0.8220  0.2733
 2653SOL    HW310345   3.321   2.898   3.451 -1.7479  1.6071  1.9074
 2653SOL    MW410346   3.347   2.837   3.508 -0.4890 -0.5204 -0.3652
 2654SOL     OW10347   3.365   6.118   5.639  0.2427 -0.6519 -0.0539
 2654SOL    HW210348   3.295   6.056   5.618  1.0059 -1.5442 -0.0439
 2654SOL    HW310349   3.406   6.082   5.718 -1.0132  1.3438  1.5986
 2654SOL    MW410350   3.361   6.105   5.647  0.6182  0.4713  0.0548
 2655SOL     OW10351   2.264   1.925   3.976 -0.7187  0.5259  0.5131
 2655SOL    HW210352   2.209   1.880   4.041 -0.2723  0.6563  0.9900
 2655SOL    HW310353   2.242   2.017   3.985  0.9945  0.8375  2.1365
 2655SOL    MW410354   2.254   1.931   3.986 -0.0265  0.4542  0.4990
 2656SOL     OW10355   3.271   4.171   3.937 -0.3267  0.2147  0.3944
 2656SOL    HW210356   3.256   4.214   3.853 -0.4172  0.8226  0.7201
 2656SOL    HW310357   3.184   4.145   3.966 -0.1735 -1.1840 -0.3147
 2656SOL    MW410358   3.258   4.173   3.929 -0.1854  0.4745 -0.3744
 2657SOL     OW10359   0.073   4.187   4.955 -0.2831  0.3137 -0.3116
 2657SOL    HW210360   0.141   4.227   5.010 -0.4201 -0.9708  0.8315
 2657SOL    HW310361   0.008   4.256   4.944  0.1329  0.8510  0.4660
 2657SOL    MW410362   0.074   4.202   4.961  0.1838  0.2659  0.4617
 2658SOL     OW10363   3.233   0.039   2.705 -0.1450 -0.2035 -0.0119
 2658SOL    HW210364   3.195  -0.044   2.675 -2.0073  0.3366  0.7172
 2658SOL    HW310365   3.247   0.026   2.798  0.7754 -0.1233 -0.1359
 2658SOL    MW410366   3.230   0.026   2.713 -0.6824  0.2401 -0.0043
 2659SOL     OW10367   2.025   2.962   5.448 -0.3137  0.3772 -0.3529
 2659SOL    HW210368   2.063   2.983   5.533 -1.0151 -2.2739  0.7160
 2659SOL    HW310369   2.101   2.946   5.392  0.1738 -0.0084  0.3967
 2659SOL    MW410370   2.040   2.963   5.452  0.2179 -0.5576 -0.1595
 2660SOL     OW10371   6.075   1.542   3.016 -0.0953 -0.0779 -0.0463
 2660SOL    HW210372   6.109   1.590   2.940  0.5927  3.9063  2.4803
 2660SOL    HW310373   6.153   1.504   3.057 -0.1715 -0.3797 -0.1829
 2660SOL    MW410374   6.090   1.543   3.012 -0.2653  0.4817 -0.0213
 2661SOL     OW10375   2.951   0.472   4.194  0.1147  0.2568  0.6620
 2661SOL    HW210376   3.034   0.520   4.204  0.8872 -1.1696  1.4177
 2661SOL    HW310377   2.966   0.414   4.120  1.0184 -2.2977  2.6971
 2661SOL    MW410378   2.964   0.471   4.186  0.1891  0.1124  0.3747
 2662SOL     OW10379   5.899   0.019   1.183 -0.4385  0.4603 -0.5496
 2662SOL    HW210380   5.964   0.045   1.248  0.3478 -2.0381 -0.2217
 2662SOL    HW310381   5.942   0.033   1.099  0.1610 -0.2136 -0.3638
 2662SOL    MW410382   5.913   0.024   1.180 -0.5267 -0.2104 -0.4801
 2663SOL     OW10383   3.890   2.686   1.972 -0.4128  0.0657  0.5836
 2663SOL    HW210384   3.862   2.696   2.064 -0.7412  0.4874  0.4426
 2663SOL    HW310385   3.812   2.707   1.921  0.1139  1.1105  0.1839
 2663SOL    MW410386   3.876   2.690   1.978 -0.3320  0.6066 -0.4607
 2664SOL     OW10387   3.080   5.014   6.299 -0.1966 -0.5441  0.0016
 2664SOL    HW210388   2.997   5.061   6.308  0.5498  1.3222 -1.9030
 2664SOL    HW310389   3.138   5.077   6.256  1.3547 -2.7403 -1.3142
 2664SOL    MW410390   3.077   5.029   6.294 -0.0603 -0.3823  0.0358
 2665SOL     OW10391   1.523   2.568   0.229 -0.9935  0.3318 -0.0598
 2665SOL    HW210392   1.548   2.577   0.321 -1.2015  0.8315 -0.0489
 2665SOL    HW310393   1.568   2.640   0.186  1.2883 -1.4090 -0.8109
 2665SOL    MW410394   1.533   2.579   0.236 -0.2350 -0.5377 -0.3936
 2666SOL     OW10395   3.893   6.036   2.623  0.3096  0.0566  0.4064
 2666SOL    HW210396   3.803   6.026   2.654  0.5590 -1.1648  0.7884
 2666SOL    HW310397   3.889   6.109   2.561 -1.0080 -0.2019  0.1602
 2666SOL    MW410398   3.881   6.045   2.619  0.3853  0.5552  0.4683
 2667SOL     OW10399   4.087   0.720   4.496 -0.2599 -0.5929 -0.6724
 2667SOL    HW210400   4.110   0.753   4.583 -4.3023 -3.0073  1.6481
 2667SOL    HW310401   4.030   0.788   4.460  2.2653  0.9135 -2.1127
 2667SOL    MW410402   4.083   0.734   4.503 -0.2388  0.5008  0.5807
 2668SOL     OW10403   3.732   5.615   3.588  0.0861 -0.4832  0.6071
 2668SOL    HW210404   3.683   5.601   3.669  1.0627 -1.0787  1.1157
 2668SOL    HW310405   3.791   5.539   3.582  1.3587  0.4798  0.3355
 2668SOL    MW410406   3.734   5.603   3.598 -0.4512 -0.2570 -0.4030
 2669SOL     OW10407   4.687   4.789   0.519  0.5776  0.1105  0.0769
 2669SOL    HW210408   4.774   4.779   0.560  1.0176 -0.8967 -1.0572
 2669SOL    HW310409   4.630   4.732   0.570  1.1493 -1.2302 -0.7505
 2669SOL    MW410410   4.691   4.780   0.531 -0.1476 -0.2605  0.3172
 2670SOL     OW10411   3.539   0.763   2.840  0.3678 -0.1991 -0.1431
 2670SOL    HW210412   3.623   0.797   2.808  0.1159 -0.5641 -1.2527
 2670SOL    HW310413   3.480   0.773   2.765 -0.2293 -1.1737  0.1853
 2670SOL    MW410414   3.542   0.769   2.826 -0.0076  0.0156 -0.0257
 2671SOL     OW10415   6.124   1.254   3.676 -0.0263  0.4776  0.1680
 2671SOL    HW210416   6.033   1.286   3.678 -0.6186 -0.6097 -2.9897
 2671SOL    HW310417   6.116   1.159   3.676  1.0395  0.3629 -0.8590
 2671SOL    MW410418   6.111   1.246   3.676 -0.2491  0.0808  0.0942
 2672SOL     OW10419   0.197   1.939   6.001 -0.7663  0.1855  0.3833
 2672SOL    HW210420   0.117   1.992   6.006  0.2204  1.8995 -1.0026
 2672SOL    HW310421   0.267   1.999   6.027  0.3717 -0.4801 -1.0584
 2672SOL    MW410422   0.195   1.954   6.005 -0.2377  0.3015  0.3831
 2673SOL     OW10423   2.809   3.046   4.837  0.2446  0.0431 -0.2051
 2673SOL    HW210424   2.723   3.061   4.876  0.8141  4.2490 -0.0476
 2673SOL    HW310425   2.868   3.036   4.912  0.1498 -1.4202 -0.2936
 2673SOL    MW410426   2.805   3.047   4.852 -0.3485  0.2938 -0.3185
 2674SOL     OW10427   4.317   1.139   1.109  0.1508  0.0253  0.5175
 2674SOL    HW210428   4.395   1.111   1.157  0.2067  0.1458  0.4970
 2674SOL    HW310429   4.245   1.090   1.149  0.3565 -0.7625 -0.0506
 2674SOL    MW410430   4.317   1.129   1.121  0.3039 -0.0910  0.1290
 2675SOL     OW10431   0.125   3.935   5.602 -0.1991  0.0616 -0.3757
 2675SOL    HW210432   0.073   3.856   5.617  1.0904 -1.4445 -3.1247
 2675SOL    HW310433   0.077   3.984   5.535  1.7920 -1.4601 -3.1173
 2675SOL    MW410434   0.112   3.931   5.595 -0.2483  0.3354  0.0119
 2676SOL     OW10435   0.734   5.946   5.035  0.1123  0.4321 -0.8443
 2676SOL    HW210436   0.711   6.038   5.028 -0.1785  0.3019 -1.7848
 2676SOL    HW310437   0.829   5.945   5.036  0.1332  0.8542  1.1759
 2676SOL    MW410438   0.743   5.958   5.034 -0.1176 -0.1018 -0.4958
 2677SOL     OW10439   5.339   3.855   4.126  0.3729 -0.0837  0.0226
 2677SOL    HW210440   5.298   3.778   4.086 -1.8080  1.0176  0.0020
 2677SOL    HW310441   5.342   3.920   4.056  1.1485  0.2483  0.3515
 2677SOL    MW410442   5.334   3.853   4.112 -0.5576 -0.0317 -0.7940
 2678SOL     OW10443   5.110   0.875   6.230  0.1919  0.4647 -0.7426
 2678SOL    HW210444   5.190   0.896   6.277 -0.8083  0.6497  0.9501
 2678SOL    HW310445   5.071   0.961   6.211  0.5373  0.3891 -1.8640
 2678SOL    MW410446   5.115   0.889   6.234 -0.5745  0.3124  0.3503
 2679SOL     OW10447   4.088   6.291   0.055  0.6875 -0.4665  0.5980
 2679SOL    HW210448   4.138   6.327  -0.019  1.1127  0.9325  1.5313
 2679SOL    HW310449   4.086   6.362   0.119  1.0172 -1.9150  2.2770
 2679SOL    MW410450   4.095   6.305   0.054  0.3388 -0.7868 -0.5220
 2680SOL     OW10451   5.367   3.733   0.505  0.4295 -0.3701 -0.0443
 2680SOL    HW210452   5.284   3.764   0.469  1.9454  2.0870 -1.7142
 2680SOL    HW310453   5.406   3.683   0.432  1.5400  0.7461 -0.2305
 2680SOL    MW410454   5.361   3.730   0.490 -0.2614  0.8411 -0.3357
 2681SOL     OW10455   2.230   2.095   5.423 -0.6271  0.0097 -0.6234
 2681SOL    HW210456   2.199   2.017   5.469 -1.8520  0.9558  0.2221
 2681SOL    HW310457   2.204   2.168   5.479  0.4521  1.0450 -1.4117
 2681SOL    MW410458   2.222   2.095   5.437  0.4489  0.0011  0.3516
 2682SOL     OW10459   1.769   0.532   5.966  0.2973 -0.2336 -0.1106
 2682SOL    HW210460   1.681   0.565   5.951  1.5626  2.9520 -1.3439
 2682SOL    HW310461   1.792   0.561   6.054  0.2653 -0.7111  0.0583
 2682SOL    MW410462   1.761   0.540   5.976  0.1966 -0.0800 -0.5513
 2683SOL     OW10463   3.647   3.646   1.362  0.8791  0.3617 -0.4172
 2683SOL    HW210464   3.606   3.601   1.288  0.2655  2.1865 -1.2179
 2683SOL    HW310465   3.614   3.735   1.359  0.8567  0.5235  2.0638
 2683SOL    MW410466   3.637   3.652   1.352 -0.0303 -0.0282 -0.0535
 2684SOL     OW10467   1.084   3.187   5.129 -0.2074  0.1496 -0.4368
 2684SOL    HW210468   1.082   3.214   5.037 -0.5772  1.1011 -0.1563
 2684SOL    HW310469   1.173   3.153   5.142 -0.0133  0.4174 -1.0252
 2684SOL    MW410470   1.095   3.186   5.118 -0.1942  0.0440  0.0264
 2685SOL     OW10471   3.001   5.560   4.037 -0.3613 -0.3538 -0.2864
 2685SOL    HW210472   2.929   5.600   4.085 -0.0767 -1.6125  1.2793
 2685SOL    HW310473   2.968   5.549   3.948 -2.0584 -0.7987  0.3703
 2685SOL    MW410474   2.987   5.564   4.032  0.6939  0.0549  0.0437
 2686SOL     OW10475   4.542   0.161   1.095 -0.9946  0.0210 -0.4718
 2686SOL    HW210476   4.579   0.179   1.182  0.1131  0.5089 -1.0133
 2686SOL    HW310477   4.467   0.220   1.088 -0.4330  0.7793 -0.2491
 2686SOL    MW410478   4.537   0.171   1.105 -0.2550 -0.0682 -0.1330
 2687SOL     OW10479   4.303   2.442   0.084 -0.3518  0.0113 -0.1924
 2687SOL    HW210480   4.373   2.506   0.095  1.2349 -1.4337 -1.3429
 2687SOL    HW310481   4.258   2.442   0.168  1.8369  0.0826  1.0598
 2687SOL    MW410482   4.307   2.451   0.096 -0.7058 -0.5721  0.0837
 2688SOL     OW10483   4.652   1.938   5.603 -0.2027 -0.4429 -0.0132
 2688SOL    HW210484   4.636   1.861   5.548 -0.1117  0.4228 -1.2783
 2688SOL    HW310485   4.572   1.948   5.654 -0.6806 -0.6885 -0.6994
 2688SOL    MW410486   4.640   1.929   5.603 -0.4479 -0.1454  0.1357
 2689SOL     OW10487   6.149   5.192   4.787  0.1563  0.0186 -0.1942
 2689SOL    HW210488   6.164   5.210   4.880  1.1436  1.9642 -0.6651
 2689SOL    HW310489   6.059   5.220   4.771  0.2168  0.3494  0.0374
 2689SOL    MW410490   6.139   5.198   4.797 -0.0372  0.4287 -0.0296
 2690SOL     OW10491   0.696   4.143   3.352  0.4547 -0.0714 -0.2890
 2690SOL    HW210492   0.756   4.071   3.375 -1.2715 -0.6001  3.0685
 2690SOL    HW310493   0.696   4.200   3.428 -1.2378  1.4129 -1.3254
 2690SOL    MW410494   0.704   4.141   3.365 -0.3899 -0.0462  0.1911
 2691SOL     OW10495   0.243   3.318   4.102  0.5596 -0.1366  0.2405
 2691SOL    HW210496   0.199   3.348   4.181  2.1816 -1.0282  1.5385
 2691SOL    HW310497   0.235   3.223   4.105  0.0497 -0.1631 -1.0614
 2691SOL    MW410498   0.236   3.309   4.113  0.4523  0.1798  0.3361
 2692SOL     OW10499   3.818   2.005   4.943  0.3569 -0.1300  0.5310
 2692SOL    HW210500   3.809   1.993   5.038  0.1546 -1.1734  0.3964
 2692SOL    HW310501   3.859   1.923   4.913  1.1597  0.5190 -0.1799
 2692SOL    MW410502   3.822   1.992   4.951 -0.4950  0.4660  0.3938
 2693SOL     OW10503   5.229   3.545   6.347 -0.4683  0.5296 -0.5376
 2693SOL    HW210504   5.193   3.467   6.389  0.0673  0.1918 -0.6956
 2693SOL    HW310505   5.285   3.511   6.277  2.0260  0.9168  1.1190
 2693SOL    MW410506   5.232   3.530   6.343  0.3527  0.4718 -0.0036
 2694SOL     OW10507   1.560   0.347   0.390 -0.0892 -0.3943  0.3183
 2694SOL    HW210508   1.606   0.293   0.327 -0.4493  1.2657 -1.4789
 2694SOL    HW310509   1.624   0.414   0.416 -0.4763 -0.0231  0.3360
 2694SOL    MW410510   1.575   0.349   0.386 -0.2612 -0.2111 -0.5161
 2695SOL     OW10511   4.464   5.598   5.478 -0.3260  0.0379 -0.4248
 2695SOL    HW210512   4.442   5.570   5.389  1.0562  1.2787 -1.2015
 2695SOL    HW310513   4.538   5.542   5.503 -0.6891 -0.2857 -0.0378
 2695SOL    MW410514   4.471   5.587   5.470  0.2110 -0.5417 -0.4019
 2696SOL     OW10515   0.263   3.795   5.387 -0.2216  0.4223 -0.3705
 2696SOL    HW210516   0.241   3.852   5.460  0.7154  0.4992 -0.1402
 2696SOL    HW310517   0.229   3.840   5.310 -0.1804  0.9036 -0.1056
 2696SOL    MW410518   0.255   3.808   5.386 -1.0124 -0.4694 -0.0351
 2697SOL     OW10519   2.235   3.325   3.406 -0.0688  0.1697  0.6170
 2697SOL    HW210520   2.174   3.339   3.334  0.7818 -0.9455 -0.3615
 2697SOL    HW310521   2.190   3.264   3.464  0.4676 -1.4362 -0.6047
 2697SOL    MW410522   2.221   3.319   3.405 -0.0335  0.6711  0.3974
 2698SOL     OW10523   4.799   2.650   1.775 -0.1636  0.0833 -0.1921
 2698SOL    HW210524   4.731   2.597   1.733  0.2648  0.8975 -1.9913
 2698SOL    HW310525   4.879   2.598   1.766 -0.4315 -0.7020  1.5849
 2698SOL    MW410526   4.801   2.636   1.768  0.0546  0.4668 -0.3052
 2699SOL     OW10527   5.773   5.587   4.205  0.2392  0.2821 -0.6398
 2699SOL    HW210528   5.693   5.535   4.200  0.7871 -0.4990 -1.5236
 2699SOL    HW310529   5.830   5.551   4.137  2.1149 -0.4588  1.1973
 2699SOL    MW410530   5.770   5.576   4.196  0.2668 -1.0544  0.4401
 2700SOL     OW10531   1.506   3.622   5.594  0.1286 -0.4470 -0.0551
 2700SOL    HW210532   1.434   3.574   5.633 -0.3276  0.4192  0.2056
 2700SOL    HW310533   1.469   3.708   5.574  1.2939  0.2940  0.8252
 2700SOL    MW410534   1.492   3.627   5.596 -0.4641  0.8035 -0.0591
 2701SOL     OW10535   1.867   0.601   1.015 -0.3716  0.0793  0.3141
 2701SOL    HW210536   1.785   0.561   0.985 -0.7495  0.7731  0.4017
 2701SOL    HW310537   1.924   0.598   0.938 -0.7107  0.1983  0.0531
 2701SOL    MW410538   1.864   0.595   1.001 -0.0727  0.0007 -0.2981
 2702SOL     OW10539   0.613   2.786   2.954 -0.3152 -0.4510  0.4060
 2702SOL    HW210540   0.665   2.806   3.031  1.8033 -0.1304 -1.0260
 2702SOL    HW310541   0.677   2.768   2.885 -2.1186 -1.4193 -1.1167
 2702SOL    MW410542   0.628   2.786   2.955 -0.3555  0.0235 -0.2473
 2703SOL     OW10543   5.647   6.103   2.531  0.0491  0.0697 -0.2868
 2703SOL    HW210544   5.627   6.172   2.468 -2.7014  0.1848  0.5742
 2703SOL    HW310545   5.622   6.022   2.487  0.0567 -0.0508 -0.0706
 2703SOL    MW410546   5.641   6.102   2.517  0.5060 -0.0155  0.3481
 2704SOL     OW10547   1.593   5.430   1.997 -0.3426 -0.3763  0.6014
 2704SOL    HW210548   1.687   5.415   1.992  0.1498  2.4463 -0.4723
 2704SOL    HW310549   1.573   5.431   2.091  0.8094 -0.4278  0.8583
 2704SOL    MW410550   1.603   5.428   2.009 -0.1112 -0.2763 -0.1129
 2705SOL     OW10551   0.901   6.379   3.423  0.6933 -0.1131  0.1159
 2705SOL    HW210552   0.852   6.314   3.372  1.5442  0.1408 -1.0599
 2705SOL    HW310553   0.920   6.449   3.361 -0.9437  1.7323  1.5525
 2705SOL    MW410554   0.897   6.380   3.408  0.0828  0.3940  0.1975
 2706SOL     OW10555   1.606   0.471   4.812 -0.0931  0.5149  0.7292
 2706SOL    HW210556   1.603   0.540   4.878  0.6470  0.3605  0.9262
 2706SOL    HW310557   1.683   0.490   4.760  0.3952 -0.4231  1.0813
 2706SOL    MW410558   1.615   0.482   4.814 -0.1274 -0.3714 -0.7090
 2707SOL     OW10559   5.992   5.924   3.167  0.1898 -0.0372  0.2955
 2707SOL    HW210560   5.945   6.005   3.184  0.9164  0.6277 -0.7633
 2707SOL    HW310561   5.979   5.872   3.247 -0.6894  0.9058  0.7966
 2707SOL    MW410562   5.984   5.928   3.180 -0.1661 -0.0857 -0.3294
 2708SOL     OW10563   1.232   0.480   6.285 -0.3149  0.3346  0.5687
 2708SOL    HW210564   1.317   0.446   6.313 -0.4114  0.1108  0.5950
 2708SOL    HW310565   1.170   0.411   6.309 -0.3027 -0.2600 -0.9910
 2708SOL    MW410566   1.235   0.466   6.292  0.3478  0.0875  0.2994
 2709SOL     OW10567   1.068   1.665   2.203  0.0820 -0.0697 -0.4409
 2709SOL    HW210568   1.027   1.614   2.133  0.0112 -2.8413  1.4635
 2709SOL    HW310569   1.162   1.656   2.187  0.1045 -1.9056  0.5504
 2709SOL    MW410570   1.075   1.657   2.191 -0.4639  0.5178  0.5308
 2710SOL     OW10571   1.609   3.296   4.236 -0.4209 -0.0876  0.0732
 2710SOL    HW210572   1.555   3.238   4.290  0.9824 -4.4587 -2.7015
 2710SOL    HW310573   1.562   3.304   4.153  0.4017  1.1240 -0.3070
 2710SOL    MW410574   1.596   3.289   4.232 -0.1878  0.2011 -0.6926
 2711SOL     OW10575   0.312   6.130   3.852 -0.0621 -0.2642  0.6148
 2711SOL    HW210576   0.285   6.050   3.896 -2.3472  0.6721  1.0485
 2711SOL    HW310577   0.313   6.197   3.920  1.4871  0.2011  0.1970
 2711SOL    MW410578   0.309   6.129   3.867 -0.1236 -0.0901 -0.1069
 2712SOL     OW10579   5.250   0.234   2.521  0.8297  0.8059  0.1659
 2712SOL    HW210580   5.279   0.291   2.592 -0.0104  0.7091  0.6040
 2712SOL    HW310581   5.194   0.169   2.563 -0.1781  1.1038 -0.6448
 2712SOL    MW410582   5.246   0.233   2.536  0.2680 -0.1666 -0.1709
 2713SOL     OW10583   2.259   5.990   0.420 -0.0449 -0.2357 -0.4486
 2713SOL    HW210584   2.319   5.918   0.400  0.6348 -0.2580  1.4818
 2713SOL    HW310585   2.294   6.029   0.500 -1.6882  0.8128 -0.1962
 2713SOL    MW410586   2.272   5.986   0.428 -0.2443  0.2066  0.4126
 2714SOL     OW10587   6.081   3.430   3.263  0.1466  0.2836  0.3170
 2714SOL    HW210588   6.064   3.434   3.168 -0.4548  0.3931  0.4232
 2714SOL    HW310589   6.074   3.337   3.284  1.6218  0.0826  0.0294
 2714SOL    MW410590   6.078   3.418   3.253  0.0890 -0.3974 -0.2915
 2715SOL     OW10591   0.627   3.688   6.271 -0.8247  0.3168  0.2699
 2715SOL    HW210592   0.638   3.593   6.267 -1.3178  0.3030 -1.2478
 2715SOL    HW310593   0.707   3.720   6.312  0.3790 -0.5801 -1.2854
 2715SOL    MW410594   0.639   3.680   6.276 -0.3153  0.3177 -0.2536
 2716SOL     OW10595   4.194   1.745   0.292 -0.1186 -0.2808 -0.6032
 2716SOL    HW210596   4.111   1.772   0.252 -0.4990 -0.2700  0.1774
 2716SOL    HW310597   4.260   1.767   0.227 -0.6568  0.3703 -0.9428
 2716SOL    MW410598   4.192   1.751   0.278 -0.6434 -0.0325  0.1823
 2717SOL     OW10599   4.578   5.797   3.813  0.4773 -0.2512  0.2437
 2717SOL    HW210600   4.518   5.852   3.763  0.4465 -0.1725  0.3651
 2717SOL    HW310601   4.658   5.849   3.818  0.5322 -0.3263  0.1406
 2717SOL    MW410602   4.580   5.811   3.807 -0.2040 -0.2496 -0.1231
 2718SOL     OW10603   5.278   2.158   0.304 -0.5548 -0.5257  0.1546
 2718SOL    HW210604   5.299   2.078   0.351 -1.8790 -0.8553  0.2244
 2718SOL    HW310605   5.212   2.133   0.241 -2.2780  0.7968  1.3258
 2718SOL    MW410606   5.272   2.144   0.302  0.0211 -0.8057 -0.2104
 2719SOL     OW10607   3.564   0.460   0.015 -0.0902 -0.1156 -0.2033
 2719SOL    HW210608   3.543   0.403  -0.059  0.7601 -3.1736  1.7575
 2719SOL    HW310609   3.652   0.432   0.042  0.8315  2.9003  0.2688
 2719SOL    MW410610   3.573   0.449   0.009 -0.8170  0.1434 -0.0102
 2720SOL     OW10611   4.349   2.069   2.351  0.1319 -0.2881  0.0565
 2720SOL    HW210612   4.386   2.075   2.439 -0.7087  1.8301  0.3258
 2720SOL    HW310613   4.394   2.137   2.301 -0.7406 -0.1686 -0.6047
 2720SOL    MW410614   4.360   2.079   2.356 -0.3298  0.3073 -0.4088
 2721SOL     OW10615   4.557   4.339   2.728  0.4609  0.0849  0.5177
 2721SOL    HW210616   4.480   4.313   2.778 -0.1901  0.9967  0.0076
 2721SOL    HW310617   4.522   4.379   2.648  1.4746 -0.6422 -0.3159
 2721SOL    MW410618   4.542   4.341   2.724  0.3031 -0.1173 -0.1485
 2722SOL     OW10619   6.022   5.023   6.396 -1.1915  0.1363  0.2354
 2722SOL    HW210620   6.002   4.929   6.399 -1.3354  0.1662  2.7118
 2722SOL    HW310621   5.962   5.062   6.459  1.4811  1.2846  2.3114
 2722SOL    MW410622   6.012   5.016   6.405  0.3207  0.5335  0.3836
 2723SOL     OW10623   4.003   3.633   5.311  0.0838 -0.0492 -0.6167
 2723SOL    HW210624   4.097   3.651   5.312  0.5153 -2.0954 -0.1809
 2723SOL    HW310625   3.971   3.671   5.393  0.5547  0.4552 -0.6580
 2723SOL    MW410626   4.011   3.641   5.322  0.6256 -0.1799  0.0351
 2724SOL     OW10627   3.777   1.266   4.140 -0.3308  0.2991  0.3971
 2724SOL    HW210628   3.755   1.299   4.053 -0.5515  0.3353  0.4664
 2724SOL    HW310629   3.699   1.283   4.192 -0.1742  0.3355  0.6185
 2724SOL    MW410630   3.764   1.273   4.135 -0.5441  0.3257 -0.3337
 2725SOL     OW10631   3.193   0.389   2.825  0.1490  0.1831 -0.0809
 2725SOL    HW210632   3.213   0.475   2.864  0.1563  0.1927 -0.1061
 2725SOL    HW310633   3.137   0.409   2.751 -1.1248  0.0496  0.8158
 2725SOL    MW410634   3.188   0.403   2.820  0.2321 -0.1152  0.1055
 2726SOL     OW10635   4.110   4.317   0.512  0.4137  0.9887 -0.3887
 2726SOL    HW210636   4.174   4.249   0.532 -0.2195  0.3088 -0.6026
 2726SOL    HW310637   4.033   4.269   0.481 -0.7434  1.6771  1.2692
 2726SOL    MW410638   4.108   4.302   0.511  0.2310 -0.1609 -0.1930
 2727SOL     OW10639   2.122   4.874   0.434  0.9578  1.1114 -0.8432
 2727SOL    HW210640   2.050   4.817   0.406  0.7125  1.6001 -1.2186
 2727SOL    HW310641   2.140   4.930   0.359  1.1342  1.5915 -0.4521
 2727SOL    MW410642   2.115   4.874   0.421  0.6762 -0.1076 -0.0466
 2728SOL     OW10643   5.398   3.904   2.996  0.2616 -0.4876  0.4794
 2728SOL    HW210644   5.342   3.982   2.990  0.7630  0.0747  2.3560
 2728SOL    HW310645   5.391   3.877   3.088  2.0205 -1.1736  0.4465
 2728SOL    MW410646   5.390   3.911   3.007  0.2433 -0.8573 -0.1691
 2729SOL     OW10647   2.291   3.522   6.147 -0.0190  0.4447 -0.5584
 2729SOL    HW210648   2.314   3.430   6.159  0.4832  0.6405  0.0358
 2729SOL    HW310649   2.229   3.522   6.074  0.1427 -0.3371 -0.7027
 2729SOL    MW410650   2.286   3.510   6.139 -0.4656 -0.4533 -0.1562
 2730SOL     OW10651   4.876   2.632   5.636  0.6902 -0.1990  0.5404
 2730SOL    HW210652   4.792   2.661   5.670 -0.2093  0.4232 -2.0073
 2730SOL    HW310653   4.854   2.569   5.567  2.3362 -0.6105  0.3344
 2730SOL    MW410654   4.862   2.627   5.631 -0.0344 -0.1065  0.2858
 2731SOL     OW10655   2.942   3.732   5.309  0.3561 -0.3095 -0.3238
 2731SOL    HW210656   2.896   3.690   5.237 -0.0093 -0.3553 -0.0675
 2731SOL    HW310657   3.018   3.774   5.268 -1.5678  2.4985 -1.3132
 2731SOL    MW410658   2.946   3.732   5.294 -0.3740 -0.0536  0.4491
 2732SOL     OW10659   0.903   6.147   2.524 -0.2225  0.0151  0.4721
 2732SOL    HW210660   0.965   6.083   2.490 -0.6286  0.9335 -2.2229
 2732SOL    HW310661   0.894   6.124   2.616  1.2230 -2.4704  0.0972
 2732SOL    MW410662   0.910   6.135   2.532  0.2167 -0.1189  0.3576
 2733SOL     OW10663   0.917   4.149   0.257  0.3500  1.2467  0.4983
 2733SOL    HW210664   0.885   4.059   0.247 -0.0261  1.0776  2.7040
 2733SOL    HW310665   1.009   4.139   0.281  0.3340  1.4384  0.6423
 2733SOL    MW410666   0.925   4.136   0.259 -0.0178 -0.2778  0.0811
 2734SOL     OW10667   0.884   6.374   0.965 -0.1181  0.2233  0.2021
 2734SOL    HW210668   0.940   6.407   1.035 -1.6907  1.9735  0.6913
 2734SOL    HW310669   0.915   6.419   0.886 -1.8208  2.5556  0.7547
 2734SOL    MW410670   0.895   6.384   0.964  0.1206 -0.2841 -0.6804
 2735SOL     OW10671   4.598   6.043   4.129 -0.0953 -0.1537  0.6475
 2735SOL    HW210672   4.547   6.041   4.048 -0.4105 -0.0238  0.8416
 2735SOL    HW310673   4.628   5.953   4.140  0.1188 -0.1307  0.2800
 2735SOL    MW410674   4.596   6.031   4.120 -0.1127 -0.2197 -0.6446
 2736SOL     OW10675   2.952   2.095   2.003  0.1292  0.3194 -0.2769
 2736SOL    HW210676   2.860   2.071   2.014  0.4274 -0.3170  0.9938
 2736SOL    HW310677   2.965   2.168   2.063  0.1500  1.3119 -1.4344
 2736SOL    MW410678   2.942   2.101   2.012  0.0548  0.2620 -0.0021
 2737SOL     OW10679   6.404   0.588   3.904 -0.0855  0.7521 -0.5980
 2737SOL    HW210680   6.465   0.660   3.887 -1.4076  1.5549 -2.2096
 2737SOL    HW310681   6.325   0.630   3.935  0.0469 -0.2681  1.2553
 2737SOL    MW410682   6.402   0.603   3.906 -0.1265  0.4247 -0.4821
 2738SOL     OW10683   0.255   2.329   1.337 -0.2508  0.7849 -0.3424
 2738SOL    HW210684   0.291   2.271   1.269 -2.5202  0.3040 -1.2390
 2738SOL    HW310685   0.251   2.415   1.296  2.7719  1.6358  0.8675
 2738SOL    MW410686   0.259   2.332   1.323  0.2365 -0.4428 -0.0077
 2739SOL     OW10687   0.628   0.438   2.300 -0.3420 -0.1271  0.9281
 2739SOL    HW210688   0.580   0.372   2.249 -1.7921  0.6794  1.1940
 2739SOL    HW310689   0.607   0.521   2.258  1.0246  0.2431  0.9389
 2739SOL    MW410690   0.619   0.440   2.288  0.2481  0.0113  0.0910
 2740SOL     OW10691   3.647   1.183   5.658 -0.2214 -0.3840 -0.0913
 2740SOL    HW210692   3.663   1.088   5.661  1.5516 -0.1007  1.3557
 2740SOL    HW310693   3.720   1.219   5.608 -0.1590  0.3314  0.4959
 2740SOL    MW410694   3.659   1.175   5.652 -0.1961 -0.4063  0.1817
 2741SOL     OW10695   2.050   2.919   2.087  0.5162 -0.1126 -0.4720
 2741SOL    HW210696   2.048   2.988   2.153  0.2755 -0.8759  0.3245
 2741SOL    HW310697   2.119   2.946   2.026  2.2247 -0.4593  1.2333
 2741SOL    MW410698   2.059   2.932   2.087 -0.0259  0.1464  0.1399
 2742SOL     OW10699   6.354   0.789   3.016 -0.5647  0.0997  0.0420
 2742SOL    HW210700   6.270   0.827   3.042 -0.4829 -0.6416  1.5041
 2742SOL    HW310701   6.408   0.792   3.096  0.5343 -0.1405 -0.6602
 2742SOL    MW410702   6.350   0.794   3.030  0.2109 -0.4073  0.6239
 2743SOL     OW10703   1.734   2.476   1.715 -0.5936  0.5472  0.1051
 2743SOL    HW210704   1.661   2.442   1.662 -0.8932  1.9980 -0.4621
 2743SOL    HW310705   1.712   2.568   1.729  0.2437  0.5531  1.4965
 2743SOL    MW410706   1.721   2.484   1.710  0.1065 -0.3654  0.2248
 2744SOL     OW10707   4.511   2.867   2.606 -0.4194 -0.4939  0.4026
 2744SOL    HW210708   4.602   2.852   2.582 -0.8480 -0.1892 -1.5823
 2744SOL    HW310709   4.494   2.804   2.676  0.8172 -1.8152 -0.4300
 2744SOL    MW410710   4.521   2.857   2.612 -0.5480  0.2558  0.7817
 2745SOL     OW10711   2.196   3.967   0.423 -1.0930 -0.0294  0.3726
 2745SOL    HW210712   2.180   4.061   0.421 -0.8808  0.0028 -1.7759
 2745SOL    HW310713   2.274   3.957   0.478  0.8744  1.4279 -1.9827
 2745SOL    MW410714   2.204   3.978   0.430 -0.1874 -0.1761 -0.5652
 2746SOL     OW10715   3.215   1.366   1.267  0.3109 -0.3614  0.6697
 2746SOL    HW210716   3.169   1.382   1.185  0.1933 -0.6965  0.6699
 2746SOL    HW310717   3.307   1.355   1.241  0.0091 -2.4357  0.3376
 2746SOL    MW410718   3.221   1.367   1.253  0.3043 -0.4691  0.2413
 2747SOL     OW10719   5.882   2.817   2.575  0.6142 -0.0955 -0.2743
 2747SOL    HW210720   5.895   2.771   2.492  1.9011 -1.2927  0.5482
 2747SOL    HW310721   5.838   2.753   2.631  1.0558  0.1739  0.3982
 2747SOL    MW410722   5.878   2.802   2.572  1.0714  0.3928 -0.6088
 2748SOL     OW10723   0.746   5.181   1.001  0.1772 -0.0931 -0.6870
 2748SOL    HW210724   0.739   5.221   0.914  1.8459  1.9521  0.0533
 2748SOL    HW310725   0.793   5.098   0.985 -1.7399 -1.0055 -1.9995
 2748SOL    MW410726   0.751   5.175   0.987  0.0587  0.0807 -0.1381
 2749SOL     OW10727   2.574   4.281   1.294 -0.0618 -0.4460  0.0693
 2749SOL    HW210728   2.529   4.363   1.273  1.4307  0.2096 -0.7369
 2749SOL    HW310729   2.566   4.228   1.215  2.1278  0.4378 -0.8326
 2749SOL    MW410730   2.567   4.285   1.281 -0.0860  0.2171 -0.2699
 2750SOL     OW10731   4.005   2.447   0.594 -0.3615 -0.0471 -0.4649
 2750SOL    HW210732   3.924   2.451   0.543 -0.7878 -1.2083  0.0751
 2750SOL    HW310733   4.011   2.532   0.637 -1.3830  0.0097 -0.4067
 2750SOL    MW410734   3.995   2.459   0.593 -0.0718 -0.0459  1.0797
 2751SOL     OW10735   3.679   4.624   5.993  0.0912 -0.4677  0.0408
 2751SOL    HW210736   3.650   4.594   6.079 -0.4246  0.2537  0.1202
 2751SOL    HW310737   3.652   4.554   5.933 -1.5960  0.0627  0.1422
 2751SOL    MW410738   3.672   4.611   5.996  0.0459 -0.1545 -0.1620
 2752SOL     OW10739   5.406   3.575   0.269 -0.1132  0.0173  0.2923
 2752SOL    HW210740   5.330   3.518   0.276  0.1880 -0.6782 -1.5847
 2752SOL    HW310741   5.404   3.609   0.179  2.0574 -0.4708 -0.0114
 2752SOL    MW410742   5.396   3.572   0.258 -0.3252 -0.1645  0.1785
 2753SOL     OW10743   4.259   6.074   3.341  0.3425  0.7709  0.0006
 2753SOL    HW210744   4.219   6.056   3.426 -0.8002  2.2966 -0.1683
 2753SOL    HW310745   4.284   6.167   3.345  1.9666  0.3994 -0.6774
 2753SOL    MW410746   4.257   6.084   3.353 -0.2004  0.1537 -0.6228
 2754SOL     OW10747   1.476   0.127   0.047  0.1700  0.1020  0.0680
 2754SOL    HW210748   1.384   0.152   0.047  0.6447  2.1040  0.7996
 2754SOL    HW310749   1.522   0.209   0.027  1.7833 -0.9079 -0.5390
 2754SOL    MW410750   1.470   0.141   0.044  0.3463  0.4674  0.3378
 2755SOL     OW10751   3.999   3.447   1.762  0.1565 -0.0785  0.1549
 2755SOL    HW210752   3.962   3.427   1.676  0.1263  0.9164 -0.0747
 2755SOL    HW310753   4.079   3.394   1.767 -0.4194 -0.9809 -0.0211
 2755SOL    MW410754   4.005   3.437   1.751  0.0335  0.2633  0.4559
 2756SOL     OW10755   1.008   1.303   1.017 -0.3565  0.3332 -0.4991
 2756SOL    HW210756   0.984   1.227   1.069 -0.3578 -0.4732 -1.6336
 2756SOL    HW310757   0.930   1.358   1.017  0.3432  1.4788  2.1885
 2756SOL    MW410758   0.995   1.300   1.024 -0.3131  0.1927 -0.0840
 2757SOL     OW10759   3.567   1.051   3.994  0.2747  0.7044  0.2895
 2757SOL    HW210760   3.576   0.961   3.962 -0.5583  0.5446  0.4736
 2757SOL    HW310761   3.650   1.093   3.973  0.3228  0.1564 -0.6446
 2757SOL    MW410762   3.579   1.045   3.987 -0.2129  0.2916  0.6359
 2758SOL     OW10763   1.571   2.488   2.052 -0.3839  0.8608 -0.2688
 2758SOL    HW210764   1.544   2.569   2.095  1.6995  0.6263  1.6843
 2758SOL    HW310765   1.665   2.500   2.035 -0.1047 -0.9857 -0.2500
 2758SOL    MW410766   1.580   2.500   2.055 -0.4551 -0.6397  0.3833
 2759SOL     OW10767   5.689   3.976   0.029 -0.0943 -0.4123 -0.5524
 2759SOL    HW210768   5.682   4.012   0.117  0.0192 -1.0641 -0.2726
 2759SOL    HW310769   5.717   4.050  -0.025 -2.0989  0.5273 -0.4277
 2759SOL    MW410770   5.692   3.991   0.033 -0.0629 -0.1737 -0.1490
 2760SOL     OW10771   2.322   5.713   5.395  0.1266 -0.1144  0.2010
 2760SOL    HW210772   2.306   5.667   5.478  1.6789 -0.0714  0.5503
 2760SOL    HW310773   2.398   5.669   5.357  2.0734  2.4963  0.8464
 2760SOL    MW410774   2.330   5.701   5.401 -0.3831  0.7142 -0.5864
 2761SOL     OW10775   1.366   0.966   1.776  0.4633  0.2697  0.4238
 2761SOL    HW210776   1.299   0.903   1.801  0.3535  0.6127  1.0153
 2761SOL    HW310777   1.401   0.933   1.693 -0.3662  0.0434  0.1607
 2761SOL    MW410778   1.362   0.953   1.769 -0.1069 -0.2747  0.3517
 2762SOL     OW10779   3.433   5.873   2.541 -0.8274  0.1005  0.1219
 2762SOL    HW210780   3.509   5.816   2.534 -0.0554  1.2107 -1.0863
 2762SOL    HW310781   3.363   5.826   2.495 -0.8358 -0.8099  1.0215
 2762SOL    MW410782   3.434   5.859   2.534 -0.2609 -0.2140  0.1921
 2763SOL     OW10783   3.902   6.078   6.341 -0.0367  0.4646  0.1906
 2763SOL    HW210784   3.937   5.990   6.355 -0.4528  0.3898  0.7790
 2763SOL    HW310785   3.965   6.136   6.383  0.1700  0.4408 -0.0838
 2763SOL    MW410786   3.915   6.074   6.348 -0.2252  0.0031  0.4193
 2764SOL     OW10787   3.525   5.566   6.131  0.3315  0.2840 -0.1680
 2764SOL    HW210788   3.441   5.583   6.088  0.2899  0.5260  0.0045
 2764SOL    HW310789   3.509   5.587   6.223  1.1515  2.4572 -0.4557
 2764SOL    MW410790   3.512   5.571   6.137 -0.3774  0.2633  0.4471
 2765SOL     OW10791   0.325   2.767   4.713  0.4105  0.0945  0.1767
 2765SOL    HW210792   0.386   2.746   4.643  0.3200 -1.4658  0.5276
 2765SOL    HW310793   0.360   2.721   4.790  0.3380  1.4974  1.0869
 2765SOL    MW410794   0.338   2.758   4.714 -0.0910  0.1189 -0.0802
 2766SOL     OW10795   4.001   2.812   0.245  1.1158  0.1972  0.1886
 2766SOL    HW210796   3.938   2.829   0.175  0.0522 -0.4820  0.9543
 2766SOL    HW310797   4.045   2.731   0.219 -0.7913 -1.2550  1.3016
 2766SOL    MW410798   3.999   2.804   0.232 -0.5934 -0.3916 -0.3469
 2767SOL     OW10799   0.548   1.564   6.157  0.2382 -0.2907 -0.2797
 2767SOL    HW210800   0.517   1.484   6.198 -0.6399  1.3779  2.6368
 2767SOL    HW310801   0.599   1.608   6.226 -1.4013  2.7730 -0.8489
 2767SOL    MW410802   0.551   1.560   6.171 -0.0519  0.4617  0.0693
 2768SOL     OW10803   4.591   1.048   3.499 -0.1382  0.0422  0.0528
 2768SOL    HW210804   4.510   1.013   3.461  0.3417  0.0610 -1.0550
 2768SOL    HW310805   4.649   0.972   3.505  0.5309  0.4078 -1.3264
 2768SOL    MW410806   4.588   1.033   3.494 -0.2854  0.9494  0.3511
 2769SOL     OW10807   4.601   0.674   0.093  0.2546  0.1490  0.4804
 2769SOL    HW210808   4.613   0.762   0.129 -0.1485  0.5652 -0.3600
 2769SOL    HW310809   4.531   0.635   0.146  1.2880 -0.1427  1.6597
 2769SOL    MW410810   4.593   0.680   0.105 -0.3457  0.4126  0.2469
 2770SOL     OW10811   2.328   1.362   0.670  0.0189 -0.0788 -0.7660
 2770SOL    HW210812   2.265   1.351   0.599 -0.3743  1.5438 -0.7094
 2770SOL    HW310813   2.276   1.396   0.744  0.5105 -1.2210  0.1345
 2770SOL    MW410814   2.312   1.365   0.671  0.3808  0.6920  0.2691
 2771SOL     OW10815   0.882   0.593   3.946  0.3550  0.1503  0.0425
 2771SOL    HW210816   0.822   0.662   3.917 -1.4181 -0.9567  0.8468
 2771SOL    HW310817   0.912   0.551   3.866  0.7797  1.3081 -0.4138
 2771SOL    MW410818   0.878   0.597   3.932 -0.2864  0.8121 -0.3827
 2772SOL     OW10819   0.103   1.313   0.565  0.2896  0.2465  0.4568
 2772SOL    HW210820   0.167   1.382   0.581  0.5287 -0.1165  1.0769
 2772SOL    HW310821   0.032   1.357   0.518  2.0170  0.1956 -2.4491
 2772SOL    MW410822   0.102   1.328   0.561 -0.1289  0.2254  0.2050
 2773SOL     OW10823   3.026   1.119   3.210  0.2630  0.4227 -0.5443
 2773SOL    HW210824   2.942   1.073   3.203  0.8256 -0.7854  0.2092
 2773SOL    HW310825   3.003   1.212   3.214 -0.8686  0.3152 -3.0320
 2773SOL    MW410826   3.012   1.125   3.210 -0.0050 -0.4667  0.6033
 2774SOL     OW10827   1.130   0.810   1.832  0.3153  0.4492  0.7704
 2774SOL    HW210828   1.155   0.753   1.905 -0.9431 -0.6350  0.3764
 2774SOL    HW310829   1.147   0.758   1.754  0.7367  1.2493  0.3117
 2774SOL    MW410830   1.136   0.796   1.831 -0.2441  0.4518  0.4975
 2775SOL     OW10831   1.262   5.213   4.685  0.0644  0.6876 -0.3613
 2775SOL    HW210832   1.344   5.175   4.653  0.3432  1.1410 -0.2151
 2775SOL    HW310833   1.286   5.304   4.706 -0.1437  0.4635  0.9358
 2775SOL    MW410834   1.276   5.220   4.684 -0.3155 -0.0227  0.1323
 2776SOL     OW10835   4.161   4.047   0.652 -0.1897  0.5888 -0.4691
 2776SOL    HW210836   4.137   3.954   0.648  1.3001  0.1884 -1.0168
 2776SOL    HW310837   4.079   4.093   0.666 -1.0078 -0.7895 -0.5687
 2776SOL    MW410838   4.147   4.041   0.654  0.0065 -0.3669 -0.0504
 2777SOL     OW10839   5.884   3.388   4.446 -0.2280  0.4708  0.3370
 2777SOL    HW210840   5.898   3.294   4.436 -0.3798  0.6337 -2.0798
 2777SOL    HW310841   5.830   3.397   4.525  0.1015 -1.4124  0.8194
 2777SOL    MW410842   5.879   3.377   4.455  0.4843 -0.1761 -0.8302
 2778SOL     OW10843   5.111   2.688   4.785  0.0066 -0.3204 -0.2236
 2778SOL    HW210844   5.170   2.723   4.851  0.6047  1.0107 -1.4047
 2778SOL    HW310845   5.024   2.710   4.816  0.2483 -0.2612  0.4211
 2778SOL    MW410846   5.107   2.696   4.797  0.6247 -0.3532 -0.2170
 2779SOL     OW10847   5.139   0.708   3.001 -0.3898 -0.2524 -0.1351
 2779SOL    HW210848   5.222   0.754   2.988  0.1041 -0.8216  0.8373
 2779SOL    HW310849   5.087   0.767   3.055  0.2274 -0.7820  1.0785
 2779SOL    MW410850   5.143   0.722   3.006 -0.0993 -0.5046 -0.3465
 2780SOL     OW10851   2.608   5.845   1.818 -0.0935 -0.4029  0.2453
 2780SOL    HW210852   2.676   5.819   1.756 -0.7753 -0.8512 -0.3307
 2780SOL    HW310853   2.533   5.869   1.763 -0.2943  0.4352  0.8570
 2780SOL    MW410854   2.607   5.845   1.803 -0.1571 -0.6556  0.4855
 2781SOL     OW10855   5.564   2.066   3.215 -0.1342 -0.0104 -0.1125
 2781SOL    HW210856   5.601   2.148   3.185 -0.7016  1.1569  2.1795
 2781SOL    HW310857   5.639   2.013   3.242  0.1071  0.9113  1.0922
 2781SOL    MW410858   5.579   2.070   3.215 -0.2679 -0.1563 -0.1000
 2782SOL     OW10859   1.149   4.177   5.383  0.3596 -0.9676  0.4196
 2782SOL    HW210860   1.137   4.147   5.473  0.0812 -1.4436  0.2260
 2782SOL    HW310861   1.075   4.235   5.367 -0.1807 -1.7270  0.1437
 2782SOL    MW410862   1.138   4.180   5.393 -0.3497  0.1999  0.3836
 2783SOL     OW10863   0.509   3.372   4.873  0.4064 -0.3538  0.3872
 2783SOL    HW210864   0.497   3.280   4.897  1.9841  0.0223  2.9099
 2783SOL    HW310865   0.446   3.420   4.926 -0.0320  0.1125 -0.5167
 2783SOL    MW410866   0.499   3.366   4.883  1.2668  0.5424 -0.1443
 2784SOL     OW10867   3.344   0.156   0.604  0.6777  0.1953  0.0188
 2784SOL    HW210868   3.385   0.199   0.680 -0.1240  0.3918  0.3547
 2784SOL    HW310869   3.303   0.228   0.556  1.5410  0.1295 -0.8539
 2784SOL    MW410870   3.344   0.171   0.608 -0.2411 -0.6285  0.8388
 2785SOL     OW10871   1.258   5.569   2.542  0.3073 -0.3696 -0.4492
 2785SOL    HW210872   1.212   5.632   2.597 -1.7968 -2.9388  0.9880
 2785SOL    HW310873   1.258   5.608   2.455 -1.4618  1.3344  0.2444
 2785SOL    MW410874   1.252   5.582   2.538  0.0025  0.4443 -0.2394
 2786SOL     OW10875   0.091   5.379   5.947 -0.0714  0.2794 -0.1416
 2786SOL    HW210876   0.078   5.296   5.900  2.6213  0.2149 -0.9504
 2786SOL    HW310877   0.014   5.431   5.925 -1.4702 -1.6990 -0.2313
 2786SOL    MW410878   0.079   5.375   5.938  0.2652  0.6532  1.0125
 2787SOL     OW10879   3.532   0.443   2.611  0.5215 -0.4383  0.0782
 2787SOL    HW210880   3.593   0.479   2.547 -0.8737 -2.2197 -2.5090
 2787SOL    HW310881   3.491   0.369   2.565 -3.2307  0.3442  1.7157
 2787SOL    MW410882   3.534   0.438   2.596 -0.4199  0.3889 -0.5279
 2788SOL     OW10883   0.170   6.060   3.532 -0.2768 -0.0560 -0.1587
 2788SOL    HW210884   0.253   6.034   3.492 -0.1082 -1.2639  0.9151
 2788SOL    HW310885   0.186   6.149   3.564  0.2296  0.1409 -0.9329
 2788SOL    MW410886   0.183   6.069   3.531 -0.2600 -0.5762  0.2890
 2789SOL     OW10887   4.855   5.970   2.727  0.0706 -0.6182  0.5741
 2789SOL    HW210888   4.874   5.952   2.635 -1.4952 -0.6268  0.2221
 2789SOL    HW310889   4.784   5.910   2.750 -1.2383  1.0213  1.0604
 2789SOL    MW410890   4.848   5.960   2.718  0.1991 -0.7450  0.0446
 2790SOL     OW10891   4.969   0.026   4.474 -0.8781 -0.2864 -0.3773
 2790SOL    HW210892   4.877   0.040   4.449 -1.4247 -1.8105  0.6567
 2790SOL    HW310893   4.973  -0.066   4.498  0.9795 -0.2713 -0.5389
 2790SOL    MW410894   4.957   0.016   4.474 -0.1724 -0.1618  0.3574
 2791SOL     OW10895   3.571   5.163   4.182  0.2291 -0.2557 -0.3848
 2791SOL    HW210896   3.575   5.239   4.124 -0.3344 -1.4084 -2.0046
 2791SOL    HW310897   3.496   5.181   4.239  0.3978  0.6180 -0.4147
 2791SOL    MW410898   3.562   5.176   4.182  0.1584  0.4305 -0.5390
 2792SOL     OW10899   1.210   1.163   2.135 -0.4883 -0.2254 -0.2874
 2792SOL    HW210900   1.154   1.159   2.058 -1.3746 -0.8493  0.3635
 2792SOL    HW310901   1.153   1.196   2.205 -0.3315 -1.7719  0.6154
 2792SOL    MW410902   1.195   1.167   2.134 -0.0792  0.3022 -0.2298
 2793SOL     OW10903   2.021   5.487   3.591  0.3590 -0.3635 -0.1298
 2793SOL    HW210904   1.960   5.523   3.655 -0.5895 -1.0067 -0.6327
 2793SOL    HW310905   2.060   5.564   3.549  0.5738  0.0561  0.8261
 2793SOL    MW410906   2.018   5.502   3.594 -0.2150  0.0150 -0.4933
 2794SOL     OW10907   5.041   5.860   4.153  0.0050  0.3454 -0.6115
 2794SOL    HW210908   5.042   5.920   4.079  0.3919 -0.4804 -1.2870
 2794SOL    HW310909   5.054   5.773   4.115 -1.8271 -0.3450  0.1952
 2794SOL    MW410910   5.043   5.856   4.139  0.1639 -0.0357  0.0497
 2795SOL     OW10911   1.694   1.548   2.352  0.3432 -0.0231 -0.4349
 2795SOL    HW210912   1.611   1.590   2.375 -0.9383 -2.3816 -0.4012
 2795SOL    HW310913   1.692   1.464   2.399  1.6570 -1.1682 -2.2816
 2795SOL    MW410914   1.682   1.542   2.361 -0.0628 -0.1018  0.1165
 2796SOL     OW10915   0.415   0.121   1.281  0.3073 -0.2844 -0.5032
 2796SOL    HW210916   0.362   0.199   1.296  2.6507  1.0750  1.4848
 2796SOL    HW310917   0.447   0.131   1.191 -0.2293  0.5253 -0.6176
 2796SOL    MW410918   0.412   0.133   1.271  0.2230 -0.4126 -0.0163
 2797SOL     OW10919   5.109   4.849   0.504  0.1932 -0.4243 -0.1808
 2797SOL    HW210920   5.053   4.829   0.429  1.9994  0.0303 -1.7138
 2797SOL    HW310921   5.198   4.836   0.472  1.0063 -1.1744  2.1930
 2797SOL    MW410922   5.114   4.845   0.490 -0.1597 -0.5177  0.1842
 2798SOL     OW10923   0.269   2.172   1.071 -0.1133  0.6504 -0.0736
 2798SOL    HW210924   0.314   2.097   1.033 -0.9435 -0.2247  0.6109
 2798SOL    HW310925   0.328   2.246   1.056  1.4619 -0.4178  0.6405
 2798SOL    MW410926   0.283   2.172   1.064  0.0289 -0.1216 -0.3398
 2799SOL     OW10927   2.687   3.847   5.399  0.0363 -0.1066  0.2588
 2799SOL    HW210928   2.779   3.828   5.381  0.4546  2.1258 -0.3018
 2799SOL    HW310929   2.657   3.893   5.321 -1.1261  0.5282  1.0546
 2799SOL    MW410930   2.695   3.850   5.386  0.4098 -0.2887 -0.2090
 2800SOL     OW10931   4.565   0.732   5.105  0.0220  0.5773 -0.6654
 2800SOL    HW210932   4.513   0.788   5.047  1.5479  2.1680 -0.5794
 2800SOL    HW310933   4.541   0.761   5.193  0.0865  0.3892 -0.5862
 2800SOL    MW410934   4.555   0.743   5.109 -0.2920  1.1033  0.3154
 2801SOL     OW10935   0.286   5.379   2.535  0.0841 -0.3230  0.0106
 2801SOL    HW210936   0.202   5.415   2.507  0.4920  0.4024 -0.3109
 2801SOL    HW310937   0.340   5.379   2.456 -0.0150 -2.0257 -0.0999
 2801SOL    MW410938   0.282   5.384   2.521  0.0040 -0.1579 -0.2018
 2802SOL     OW10939   3.534   0.749   2.436  0.7453 -0.0022 -0.1067
 2802SOL    HW210940   3.588   0.827   2.448  1.3847 -0.3627 -0.6087
 2802SOL    HW310941   3.495   0.733   2.522  0.4084  1.0099 -0.0604
 2802SOL    MW410942   3.536   0.757   2.449  0.1676  0.7722  0.1088
 2803SOL     OW10943   5.392   2.268   0.950 -0.4520 -0.4247 -0.0599
 2803SOL    HW210944   5.312   2.315   0.975 -0.7665 -0.6519 -0.6337
 2803SOL    HW310945   5.430   2.242   1.034  0.0356  1.3202  0.3181
 2803SOL    MW410946   5.386   2.271   0.965  0.5712 -0.1229 -0.3477
 2804SOL     OW10947   4.439   1.569   5.755 -0.3165  0.1145 -0.0234
 2804SOL    HW210948   4.355   1.613   5.767 -0.0208  0.7740 -0.3648
 2804SOL    HW310949   4.501   1.620   5.805  0.2661  0.8452 -1.4325
 2804SOL    MW410950   4.436   1.581   5.763 -0.4324  0.5094  0.8170
 2805SOL     OW10951   4.656   2.298   2.514  0.1521 -0.4677 -0.0572
 2805SOL    HW210952   4.740   2.312   2.471  0.0068 -0.2317 -0.2632
 2805SOL    HW310953   4.593   2.347   2.461 -0.1527 -0.8394 -0.0369
 2805SOL    MW410954   4.659   2.306   2.502  0.6472 -0.5505  0.1966
 2806SOL     OW10955   5.814   1.052   6.385 -0.3718  0.3169 -0.1568
 2806SOL    HW210956   5.754   1.113   6.342 -0.1384  1.0736  0.5718
 2806SOL    HW310957   5.896   1.101   6.395  0.4826 -0.7821 -1.3686
 2806SOL    MW410958   5.817   1.066   6.381  0.5883 -0.5279 -0.6654
 2807SOL     OW10959   1.468   2.369   3.588  0.2768  0.2862  0.6308
 2807SOL    HW210960   1.495   2.304   3.522 -0.6165  0.3937  0.1483
 2807SOL    HW310961   1.373   2.367   3.587  0.2393  1.1835  1.0363
 2807SOL    MW410962   1.459   2.360   3.579 -0.1247  0.1300 -0.4398
 2808SOL     OW10963   1.381   4.493   5.934 -0.6574  0.2208 -0.4611
 2808SOL    HW210964   1.329   4.431   5.881 -0.5571 -0.1254 -0.1582
 2808SOL    HW310965   1.316   4.538   5.988 -0.4541 -2.1384  1.9399
 2808SOL    MW410966   1.365   4.491   5.934  0.1133 -0.0360  0.2648
 2809SOL     OW10967   1.751   6.410   5.714 -0.0757  0.0529  0.0882
 2809SOL    HW210968   1.713   6.342   5.770 -0.4097  0.8185  0.8151
 2809SOL    HW310969   1.702   6.403   5.632  0.3872 -1.0505 -0.1203
 2809SOL    MW410970   1.740   6.400   5.711 -0.2544 -0.0044  0.6822
 2810SOL     OW10971   3.558   2.299   4.216  0.1615  0.1156  0.4574
 2810SOL    HW210972   3.540   2.392   4.228  0.1423 -0.1091  2.4555
 2810SOL    HW310973   3.489   2.254   4.265 -0.2527 -0.9912 -1.0800
 2810SOL    MW410974   3.547   2.305   4.224  0.0883 -0.1717  0.2321
 2811SOL     OW10975   2.628   4.817   2.256 -0.3021 -0.3658 -0.2293
 2811SOL    HW210976   2.622   4.846   2.164 -2.5829 -2.2768 -0.7724
 2811SOL    HW310977   2.714   4.776   2.262  0.7195  1.5104 -0.9074
 2811SOL    MW410978   2.638   4.816   2.244 -0.4137  0.2074 -0.1379
 2812SOL     OW10979   1.080   4.350   3.062  0.2261 -0.3470 -0.2124
 2812SOL    HW210980   1.002   4.375   3.112 -0.8284 -1.5812 -1.1585
 2812SOL    HW310981   1.154   4.374   3.119 -0.8988 -1.0313  1.6317
 2812SOL    MW410982   1.080   4.356   3.076  0.4127 -0.3057 -0.0597
 2813SOL     OW10983   5.913   2.365   5.749  0.5203 -0.1924  0.2112
 2813SOL    HW210984   5.970   2.320   5.687 -0.0562 -1.2706  0.4429
 2813SOL    HW310985   5.831   2.377   5.701  1.3596  2.8027 -0.7044
 2813SOL    MW410986   5.910   2.361   5.734 -0.1230  0.1555  0.0239
 2814SOL     OW10987   5.844   1.359   5.169 -0.1763 -0.5697  0.1801
 2814SOL    HW210988   5.933   1.328   5.182 -0.4314 -1.0888  0.7767
 2814SOL    HW310989   5.830   1.355   5.074  1.0529  1.3175 -0.1218
 2814SOL    MW410990   5.854   1.354   5.158  0.7355 -0.1566 -0.4727
 2815SOL     OW10991   6.049   6.274   4.282 -0.1609 -0.2676 -0.2457
 2815SOL    HW210992   6.046   6.181   4.303 -0.7093 -0.5392 -1.4190
 2815SOL    HW310993   5.958   6.303   4.289  0.3435  0.9564  3.1436
 2815SOL    MW410994   6.036   6.266   4.285  0.0804 -0.4577 -0.1562
 2816SOL     OW10995   1.668   4.094   4.161 -0.5588 -0.0697  0.2186
 2816SOL    HW210996   1.721   4.060   4.089 -1.6587  0.2000 -0.7438
 2816SOL    HW310997   1.588   4.041   4.160 -2.5771  2.7206 -1.6814
 2816SOL    MW410998   1.664   4.082   4.151 -0.2112  0.5945  0.1138
 2817SOL     OW10999   4.432   4.451   2.513 -0.2519  0.1140 -0.6136
 2817SOL    HW211000   4.424   4.468   2.420  1.1439 -1.0154 -0.9773
 2817SOL    HW311001   4.405   4.532   2.555  0.4692  1.1354 -2.0446
 2817SOL    MW411002   4.428   4.464   2.507 -0.0394  0.4100 -0.3547
 2818SOL     OW11003   5.967   5.928   2.664  0.4314 -0.2416 -0.1135
 2818SOL    HW211004   6.014   5.931   2.747  0.0705  0.8568  0.0656
 2818SOL    HW311005   5.875   5.931   2.689  0.3418  1.3731 -0.5881
 2818SOL    MW411006   5.961   5.928   2.678  0.0750 -0.9090  0.3980
 2819SOL     OW11007   6.222   4.524   0.300  0.0861  0.1348  0.1191
 2819SOL    HW211008   6.269   4.443   0.280 -0.8408 -0.5089  0.4667
 2819SOL    HW311009   6.285   4.594   0.283  1.5084 -0.7410  1.5759
 2819SOL    MW411010   6.236   4.523   0.295 -0.7097  0.6543  0.2839
 2820SOL     OW11011   2.455   3.869   4.245  0.2428 -0.1413  0.5931
 2820SOL    HW211012   2.435   3.963   4.246  2.5139  0.3961  1.0820
 2820SOL    HW311013   2.462   3.848   4.152 -0.5917  0.0830  0.4690
 2820SOL    MW411014   2.453   3.879   4.232 -0.4607  0.2357 -0.4612
 2821SOL     OW11015   6.027   5.170   3.043  0.3605  0.4234 -0.7416
 2821SOL    HW211016   6.122   5.172   3.044  0.4776 -1.7510 -1.6860
 2821SOL    HW311017   6.005   5.078   3.029 -1.9788  0.0999  3.4902
 2821SOL    MW411018   6.036   5.158   3.041  0.0972 -0.6622 -0.7325
 2822SOL     OW11019   3.423   6.020   1.953 -0.1907  0.4193  0.4805
 2822SOL    HW211020   3.497   6.073   1.924  0.3401 -0.1721  0.7418
 2822SOL    HW311021   3.429   6.019   2.048  0.3848 -0.9210  0.4468
 2822SOL    MW411022   3.433   6.027   1.962 -0.2330 -0.6204 -0.1311
 2823SOL     OW11023   6.054   0.836   1.491 -0.3650  0.2835 -0.7221
 2823SOL    HW211024   6.091   0.834   1.403  2.1462  0.8846  0.2345
 2823SOL    HW311025   6.087   0.758   1.534 -2.3598 -0.5259 -0.5287
 2823SOL    MW411026   6.063   0.826   1.485  0.3258  0.0654  0.3238
 2824SOL     OW11027   1.461   3.885   4.111  0.0327 -0.0834 -0.0305
 2824SOL    HW211028   1.429   3.799   4.139 -1.2208 -0.0057 -1.1355
 2824SOL    HW311029   1.504   3.869   4.027 -0.5573  0.4026 -0.4415
 2824SOL    MW411030   1.462   3.872   4.103 -0.2554 -0.1010 -0.8354
 2825SOL     OW11031   4.609   0.235   6.106 -0.1326  0.4131 -0.2451
 2825SOL    HW211032   4.559   0.227   6.187 -1.4170  0.6779 -0.9816
 2825SOL    HW311033   4.628   0.145   6.081 -1.4583  0.2234 -0.6599
 2825SOL    MW411034   4.604   0.222   6.114  0.1246 -0.3191  0.6552
 2826SOL     OW11035   3.877   4.920   5.513  0.2010 -0.5090  0.2497
 2826SOL    HW211036   3.889   4.962   5.428  0.1718 -2.1108 -0.5606
 2826SOL    HW311037   3.787   4.886   5.511 -0.2265  0.4407  1.4053
 2826SOL    MW411038   3.866   4.921   5.502 -0.1812  0.0361 -0.8207
 2827SOL     OW11039   0.394   3.944   2.328 -0.0607 -0.1700  0.3570
 2827SOL    HW211040   0.370   3.871   2.271  0.4930  0.3003 -0.4939
 2827SOL    HW311041   0.431   4.009   2.269  1.1697  0.0586  1.3386
 2827SOL    MW411042   0.395   3.943   2.312 -0.3964 -0.9566 -0.3533
 2828SOL     OW11043   3.238   1.403   2.558  1.3400 -0.2354  0.2215
 2828SOL    HW211044   3.255   1.492   2.587 -0.6507  0.1165  0.4641
 2828SOL    HW311045   3.218   1.412   2.464 -1.8435  0.1060  0.8201
 2828SOL    MW411046   3.238   1.416   2.549 -0.2477  0.3367  0.0537
 2829SOL     OW11047   1.974   6.373   2.580  0.1532  0.3762 -0.0741
 2829SOL    HW211048   1.998   6.444   2.639  0.2738 -1.0952  1.7330
 2829SOL    HW311049   2.055   6.325   2.566 -0.0973  0.0940 -0.5767
 2829SOL    MW411050   1.988   6.376   2.586 -0.2046  0.8930 -0.0211
 2830SOL     OW11051   4.025   0.892   3.925 -0.5110 -0.0467 -0.3147
 2830SOL    HW211052   4.033   0.985   3.944 -0.8072 -0.3191  1.2468
 2830SOL    HW311053   4.091   0.850   3.980 -1.8604 -0.9337  0.7033
 2830SOL    MW411054   4.035   0.899   3.935 -0.0889  0.0235 -0.4052
 2831SOL     OW11055   1.021   3.080   0.762 -0.8514 -0.4175 -0.1236
 2831SOL    HW211056   1.041   3.125   0.844 -0.1429 -0.5488 -0.2233
 2831SOL    HW311057   0.930   3.105   0.743 -1.0135 -0.3629  0.6823
 2831SOL    MW411058   1.011   3.089   0.770  0.3726  0.3018 -0.2189
 2832SOL     OW11059   3.535   4.529   0.371  0.8072  0.0524  0.1384
 2832SOL    HW211060   3.546   4.492   0.283  1.1577 -0.4425  0.3814
 2832SOL    HW311061   3.487   4.611   0.357  1.0706  0.1011 -0.5385
 2832SOL    MW411062   3.530   4.535   0.357  0.5282 -0.1404 -0.5709
 2833SOL     OW11063   5.028   2.556   2.676  0.3704 -0.3371  0.1957
 2833SOL    HW211064   5.119   2.528   2.676  0.3087 -0.7060 -1.6189
 2833SOL    HW311065   5.002   2.553   2.583 -1.7444 -1.1377  0.7356
 2833SOL    MW411066   5.036   2.552   2.664 -0.0881 -0.9675 -0.1486
 2834SOL     OW11067   3.544   0.576   3.721  0.2989 -0.3564 -0.3285
 2834SOL    HW211068   3.539   0.601   3.629 -0.7284 -1.6146 -0.6441
 2834SOL    HW311069   3.621   0.621   3.754  1.2307 -0.6144 -2.0430
 2834SOL    MW411070   3.553   0.585   3.713  0.1653 -0.4247  0.0604
 2835SOL     OW11071   0.169   1.687   5.058  0.1597  0.5354  0.3180
 2835SOL    HW211072   0.153   1.597   5.088  1.1318  0.4308  0.5438
 2835SOL    HW311073   0.260   1.705   5.082  0.6046  0.8828 -1.4296
 2835SOL    MW411074   0.179   1.677   5.065  0.7666  0.5519 -0.2087
 2836SOL     OW11075   5.410   0.099   5.716 -0.5265  0.0863 -0.0342
 2836SOL    HW211076   5.403   0.145   5.800 -0.3824  1.3307 -0.6797
 2836SOL    HW311077   5.319   0.080   5.693 -0.5346 -0.7675  0.6634
 2836SOL    MW411078   5.397   0.103   5.724 -0.0082 -0.0770 -0.1966
 2837SOL     OW11079   3.015   1.039   5.543  0.1956 -1.2446 -0.2236
 2837SOL    HW211080   2.945   0.973   5.550  0.9598 -1.9778  1.0243
 2837SOL    HW311081   3.057   1.020   5.460  0.3766 -2.3489  0.0972
 2837SOL    MW411082   3.011   1.028   5.533  0.2317  0.1887  0.2599
 2838SOL     OW11083   0.970   1.518   1.239  0.2679  0.1044 -0.1694
 2838SOL    HW211084   0.913   1.524   1.163  0.1713 -1.0306 -0.2160
 2838SOL    HW311085   1.056   1.497   1.202  0.6873  1.6160 -0.0890
 2838SOL    MW411086   0.974   1.516   1.224 -0.9850 -0.0406 -0.4672
 2839SOL     OW11087   3.474   0.461   2.214 -0.3814 -0.0283  0.0677
 2839SOL    HW211088   3.395   0.456   2.267  0.0364 -0.7807  0.6454
 2839SOL    HW311089   3.443   0.462   2.124 -1.2272  3.2340  0.2693
 2839SOL    MW411090   3.460   0.461   2.209  0.0618  0.2130 -0.0283
 2840SOL     OW11091   1.265   2.026   5.459 -0.1580  0.0921  0.0198
 2840SOL    HW211092   1.217   2.105   5.435 -0.4440  0.4587  1.7127
 2840SOL    HW311093   1.322   2.010   5.384 -0.0328  1.9526 -0.3361
 2840SOL    MW411094   1.266   2.034   5.446  0.0311  0.0333 -0.0594
 2841SOL     OW11095   4.882   5.012   0.362  0.2068 -0.2245  0.3033
 2841SOL    HW211096   4.808   4.992   0.305  2.4405 -1.9067 -2.2347
 2841SOL    HW311097   4.938   5.068   0.309  1.1751  0.2847  1.8262
 2841SOL    MW411098   4.880   5.017   0.347 -0.3358 -0.2704 -0.2671
 2842SOL     OW11099   1.509   0.681   6.007 -0.0029 -0.5293 -0.1090
 2842SOL    HW211100   1.513   0.702   6.100  1.8791 -2.2603  0.2814
 2842SOL    HW311101   1.509   0.766   5.963  0.1212  0.3078  1.4513
 2842SOL    MW411102   1.510   0.695   6.014 -0.0780  0.3667 -0.5228
 2843SOL     OW11103   1.932   6.427   3.289  0.4260  0.0379 -1.0801
 2843SOL    HW211104   1.931   6.332   3.301 -0.8066 -0.1559 -2.3713
 2843SOL    HW311105   2.017   6.446   3.251  0.7497 -0.5232 -0.6516
 2843SOL    MW411106   1.943   6.417   3.286  0.2154  0.3516 -0.1965
 2844SOL     OW11107   4.279   1.145   3.834  0.8247  0.6500 -0.0678
 2844SOL    HW211108   4.367   1.118   3.858 -0.5546 -2.1092  2.4669
 2844SOL    HW311109   4.245   1.073   3.782  0.1444  1.8892 -1.4282
 2844SOL    MW411110   4.286   1.132   3.830 -0.1185  0.2959 -0.0489
 2845SOL     OW11111   0.710   0.753   6.387 -0.2290  0.4995 -0.2289
 2845SOL    HW211112   0.684   0.799   6.308 -0.5375 -0.7885 -0.9142
 2845SOL    HW311113   0.711   0.660   6.362  0.1160  0.0964  1.1480
 2845SOL    MW411114   0.706   0.747   6.374 -0.0916  0.9109  0.0333
 2846SOL     OW11115   1.772   1.599   3.898  0.1837 -0.5677 -0.0699
 2846SOL    HW211116   1.741   1.534   3.835  0.5382 -0.7075 -0.1048
 2846SOL    HW311117   1.736   1.682   3.867 -1.4139 -0.9273  0.7464
 2846SOL    MW411118   1.763   1.601   3.886  0.1730  0.0520  0.7672
 2847SOL     OW11119   6.386   5.600   4.393  0.0331  0.6239  0.1322
 2847SOL    HW211120   6.445   5.526   4.405 -1.5157 -0.4801  1.2401
 2847SOL    HW311121   6.431   5.674   4.432  1.3923  0.1754 -0.5432
 2847SOL    MW411122   6.399   5.600   4.399  0.5970  0.1971 -0.0763
 2848SOL     OW11123   0.504   3.080   4.890  0.4270 -0.2539 -0.0810
 2848SOL    HW211124   0.581   3.050   4.841  0.9748  0.7859  0.1050
 2848SOL    HW311125   0.494   3.016   4.960 -0.8861 -2.2454 -1.9936
 2848SOL    MW411126   0.513   3.068   4.893 -0.6587  0.0431 -0.6717
 2849SOL     OW11127   2.142   3.968  -0.001  0.4928  0.1364 -0.0756
 2849SOL    HW211128   2.069   3.919   0.038 -0.5970 -0.0766 -2.2590
 2849SOL    HW311129   2.121   3.972  -0.094  2.3832  1.6723 -0.4864
 2849SOL    MW411130   2.130   3.962  -0.008  0.0384  0.8619 -0.2484
 2850SOL     OW11131   3.666   3.967   2.453  0.4670 -0.3025  0.0410
 2850SOL    HW211132   3.644   4.042   2.509 -1.4007 -0.4100 -0.4875
 2850SOL    HW311133   3.652   3.998   2.364  0.2651 -1.0999 -0.2162
 2850SOL    MW411134   3.662   3.981   2.449 -0.0816  0.5435  0.1948
 2851SOL     OW11135   5.144   1.704   0.724  0.4093  0.1794 -0.2751
 2851SOL    HW211136   5.180   1.618   0.744 -0.7774 -0.2656  0.0274
 2851SOL    HW311137   5.073   1.687   0.662 -0.3684  0.8404  0.4003
 2851SOL    MW411138   5.139   1.691   0.718  0.0961  0.3957  0.1510
 2852SOL     OW11139   0.202   1.588   0.023  0.4842  0.3147 -0.1027
 2852SOL    HW211140   0.220   1.643   0.100 -0.7148  1.1020 -0.3507
 2852SOL    HW311141   0.108   1.569   0.029  0.4601  0.0442 -1.1596
 2852SOL    MW411142   0.192   1.593   0.034  0.5651 -0.2997 -0.0684
 2853SOL     OW11143   3.553   3.740   6.120  0.2273  0.4550  0.1442
 2853SOL    HW211144   3.508   3.802   6.062 -0.8271 -1.2848 -0.9704
 2853SOL    HW311145   3.516   3.757   6.207 -0.5485  0.9077 -0.2622
 2853SOL    MW411146   3.542   3.751   6.124  0.4966 -0.1179  0.2689
 2854SOL     OW11147   2.948   2.296   1.521 -0.1099  0.3232 -0.4246
 2854SOL    HW211148   2.974   2.258   1.605 -1.0100  1.0933  0.2254
 2854SOL    HW311149   2.905   2.225   1.475  0.0938 -0.0142 -0.1008
 2854SOL    MW411150   2.946   2.282   1.526 -0.3042 -0.3282 -0.4159
 2855SOL     OW11151   4.317   6.350   3.335  0.1665  0.1400 -0.8208
 2855SOL    HW211152   4.388   6.341   3.271 -0.7642 -1.5889 -1.6794
 2855SOL    HW311153   4.254   6.408   3.291 -0.0334 -0.2598 -1.0617
 2855SOL    MW411154   4.318   6.357   3.321 -0.0386 -0.1623 -0.1860
 2856SOL     OW11155   3.560   1.448   3.499  0.2694 -0.3430 -0.1586
 2856SOL    HW211156   3.473   1.437   3.536 -0.2665  2.0820 -0.5325
 2856SOL    HW311157   3.551   1.420   3.408 -0.3350  0.5831 -0.3951
 2856SOL    MW411158   3.547   1.443   3.492  0.1385  0.2718 -0.0296
 2857SOL     OW11159   5.392   4.918   3.903  0.1970 -0.3155 -0.0473
 2857SOL    HW211160   5.370   4.826   3.890 -1.9977  0.2725 -1.0149
 2857SOL    HW311161   5.311   4.958   3.934  0.5417  1.6184 -1.4255
 2857SOL    MW411162   5.379   4.911   3.905  0.2739 -0.1055  1.0967
 2858SOL     OW11163   5.033   5.073   6.377  0.2115  0.2004  0.0190
 2858SOL    HW211164   4.973   5.012   6.334  0.3209 -0.6074  0.9716
 2858SOL    HW311165   5.074   5.121   6.306 -1.6457  0.8716 -0.6631
 2858SOL    MW411166   5.030   5.071   6.362  0.0157  0.1633 -0.4248
 2859SOL     OW11167   4.564   4.814   5.735  0.6398  0.9582 -0.4678
 2859SOL    HW211168   4.536   4.723   5.731 -0.3616  1.2806 -1.1359
 2859SOL    HW311169   4.660   4.809   5.734  0.6060 -0.1002  0.1734
 2859SOL    MW411170   4.573   4.801   5.734 -0.1379 -0.2816 -0.0355
 2860SOL     OW11171   2.778   3.808   2.335 -0.3341 -0.6912  0.0766
 2860SOL    HW211172   2.726   3.839   2.409  0.4788 -1.6304  1.0772
 2860SOL    HW311173   2.753   3.716   2.324  0.0798 -0.7603 -0.3497
 2860SOL    MW411174   2.768   3.800   2.343 -0.4200 -0.1249 -0.0418
 2861SOL     OW11175   4.880   1.963   1.393  0.1594  0.3414 -0.7656
 2861SOL    HW211176   4.948   1.898   1.375 -0.6957 -0.4009 -1.3584
 2861SOL    HW311177   4.816   1.952   1.322 -0.5455  1.0837 -0.2636
 2861SOL    MW411178   4.881   1.953   1.381 -0.6240  0.1405 -0.0128
 2862SOL     OW11179   3.365   4.478   1.889  0.3348  0.3931 -0.1208
 2862SOL    HW211180   3.318   4.454   1.969  0.6610  0.8677  0.2178
 2862SOL    HW311181   3.457   4.457   1.908  0.3478  0.0482 -0.5517
 2862SOL    MW411182   3.371   4.472   1.902 -0.2111  0.2459 -0.0072
 2863SOL     OW11183   2.217   5.087   6.365 -0.0976  0.0447  0.2201
 2863SOL    HW211184   2.275   5.065   6.292  0.8715 -1.0733  1.2793
 2863SOL    HW311185   2.139   5.125   6.323 -0.1855 -1.8718 -1.5194
 2863SOL    MW411186   2.214   5.089   6.350  0.6269 -0.4852  0.0485
 2864SOL     OW11187   1.532   4.472   3.002  0.0501 -0.1417 -0.1177
 2864SOL    HW211188   1.464   4.518   3.051 -3.3632 -2.5597 -2.1031
 2864SOL    HW311189   1.558   4.534   2.934 -0.9009  0.5400  0.1138
 2864SOL    MW411190   1.527   4.486   2.999 -0.0298  0.2384 -0.2113
 2865SOL     OW11191   4.302   2.226   5.234 -0.5709  0.0636 -0.0989
 2865SOL    HW211192   4.345   2.286   5.173  2.2123 -0.6630  0.9950
 2865SOL    HW311193   4.358   2.148   5.236 -1.8285 -0.8912  1.6161
 2865SOL    MW411194   4.315   2.223   5.227 -0.5207  0.1409  0.8002
 2866SOL     OW11195   6.425   4.681   0.741  0.9127 -0.0414 -0.1338
 2866SOL    HW211196   6.357   4.648   0.682 -0.1836  2.7361 -0.6067
 2866SOL    HW311197   6.412   4.633   0.822 -0.2021 -1.1045 -0.9019
 2866SOL    MW411198   6.414   4.670   0.744  0.1701  0.1031 -0.0327
 2867SOL     OW11199   0.772   4.370   0.310 -0.0557 -0.0494  0.4840
 2867SOL    HW211200   0.786   4.402   0.399 -0.3047 -0.2839  0.6093
 2867SOL    HW311201   0.825   4.290   0.305  0.5979  0.3901  0.1593
 2867SOL    MW411202   0.781   4.364   0.321 -0.3162  0.3390  0.2099
 2868SOL     OW11203   1.314   0.388   0.507 -0.1993  0.2507  0.6371
 2868SOL    HW211204   1.262   0.393   0.426 -0.0840  1.6906  0.6377
 2868SOL    HW311205   1.398   0.350   0.479 -0.7774 -0.9263  0.4207
 2868SOL    MW411206   1.318   0.383   0.492  0.6118  0.4686 -0.7264
 2869SOL     OW11207   2.048   1.464   4.348 -0.3245 -0.0847 -0.3016
 2869SOL    HW211208   1.971   1.450   4.293 -0.5929 -0.4408  0.1586
 2869SOL    HW311209   2.062   1.380   4.391  2.2389 -1.0654 -2.7447
 2869SOL    MW411210   2.040   1.451   4.346 -0.0355 -0.0795  0.5166
 2870SOL     OW11211   5.899   3.086   2.638  0.3969 -0.3056 -0.2940
 2870SOL    HW211212   5.886   2.993   2.619 -2.0099  0.2165 -1.5966
 2870SOL    HW311213   5.860   3.098   2.724  1.0429 -0.5433  0.0408
 2870SOL    MW411214   5.892   3.075   2.647  0.1049 -0.1892  0.0039
 2871SOL     OW11215   5.517   0.636   3.301  0.3675 -0.1053  0.5064
 2871SOL    HW211216   5.482   0.713   3.346 -0.3943 -0.1964  0.0976
 2871SOL    HW311217   5.449   0.569   3.313  1.2814 -0.9106  1.3681
 2871SOL    MW411218   5.503   0.637   3.309 -0.8613 -0.4556  0.1129
 2872SOL     OW11219   3.793   0.799   1.505  0.5682  0.4202 -0.0502
 2872SOL    HW211220   3.759   0.741   1.573  2.6972 -0.8727 -0.0156
 2872SOL    HW311221   3.788   0.748   1.425  0.0908  1.1508 -0.4974
 2872SOL    MW411222   3.788   0.785   1.504  0.6914 -0.1141  0.1580
 2873SOL     OW11223   1.750   1.757   1.932 -0.2596 -0.4570 -0.1875
 2873SOL    HW211224   1.806   1.780   1.858 -0.3253 -2.4529 -0.9211
 2873SOL    HW311225   1.677   1.708   1.893 -0.8811 -0.5731  1.0749
 2873SOL    MW411226   1.748   1.753   1.917  0.2813 -0.3198  0.3467
 2874SOL     OW11227   6.310   1.251   6.391 -0.1212 -0.0983  0.6500
 2874SOL    HW211228   6.352   1.180   6.438  1.6712  1.2638  1.2272
 2874SOL    HW311229   6.352   1.251   6.305  1.5634  1.5969  1.4042
 2874SOL    MW411230   6.321   1.242   6.386  0.4321 -0.5223 -0.1460
 2875SOL     OW11231   1.041   2.387   0.594  0.7394  0.1322 -0.1169
 2875SOL    HW211232   1.010   2.363   0.682  1.0378  1.8382  0.4956
 2875SOL    HW311233   1.130   2.418   0.608  0.9184  0.0765 -1.0917
 2875SOL    MW411234   1.049   2.387   0.608  0.1052  0.1907  0.4249
 2876SOL     OW11235   1.442   0.878   3.354  0.0088  0.4813  0.0265
 2876SOL    HW211236   1.369   0.884   3.293 -1.0548 -2.4294  0.8572
 2876SOL    HW311237   1.480   0.792   3.338  0.5078  0.1474  2.5508
 2876SOL    MW411238   1.438   0.867   3.344 -0.3279 -0.1991 -0.0853
 2877SOL     OW11239   5.860   1.214   1.417 -0.4325  0.1171  0.4127
 2877SOL    HW211240   5.889   1.301   1.389 -0.6199  0.8141  2.2556
 2877SOL    HW311241   5.822   1.175   1.339  0.4773  1.3330 -0.6801
 2877SOL    MW411242   5.859   1.220   1.403  0.3829  0.5359  0.2992
 2878SOL     OW11243   0.078   3.213   3.152 -0.4130  0.7665  0.1350
 2878SOL    HW211244   0.102   3.122   3.173  1.6242  1.4869  1.2441
 2878SOL    HW311245   0.020   3.239   3.223  1.2104  1.1383  1.3896
 2878SOL    MW411246   0.074   3.204   3.164  0.0855  0.0231 -0.5521
 2879SOL     OW11247   5.032   2.102   1.086 -0.1426 -0.0989 -0.4469
 2879SOL    HW211248   5.014   2.180   1.140 -0.4952  0.8444 -1.8776
 2879SOL    HW311249   5.120   2.076   1.112 -0.2342  0.4208  0.4682
 2879SOL    MW411250   5.041   2.109   1.097  0.0386 -0.4561 -0.0803
 2880SOL     OW11251   1.228   4.192   0.639 -0.0897  0.0873  0.2815
 2880SOL    HW211252   1.308   4.222   0.596 -1.2530  0.3776 -1.8202
 2880SOL    HW311253   1.226   4.240   0.722  2.0841 -0.2330  0.5687
 2880SOL    MW411254   1.238   4.202   0.644  0.8616 -0.0208 -0.2842
 2881SOL     OW11255   3.116   5.114   3.278  0.0316  0.0655  0.0031
 2881SOL    HW211256   3.208   5.107   3.304 -0.1607 -0.6902  0.4941
 2881SOL    HW311257   3.078   5.175   3.340  0.0369 -0.1925  0.2638
 2881SOL    MW411258   3.123   5.121   3.289 -0.4342  0.0844 -0.3156
 2882SOL     OW11259   5.737   1.823   0.497 -0.2634  0.2614 -0.0265
 2882SOL    HW211260   5.726   1.745   0.551  1.6226  0.7244  1.1190
 2882SOL    HW311261   5.665   1.880   0.524  0.7166  0.5639  2.2592
 2882SOL    MW411262   5.726   1.820   0.508  0.2920  0.1676  0.7189
 2883SOL     OW11263   1.721   2.074   2.658  0.2301 -0.1565  0.3167
 2883SOL    HW211264   1.733   2.152   2.604 -0.8781 -0.9188 -1.1043
 2883SOL    HW311265   1.652   2.098   2.720 -0.0472  0.0458 -0.0621
 2883SOL    MW411266   1.713   2.087   2.659 -0.1776 -0.0864  0.6412
 2884SOL     OW11267   5.453   0.491   0.022  0.5400 -0.0266 -0.7451
 2884SOL    HW211268   5.385   0.424   0.015 -0.0068  0.6054 -1.7239
 2884SOL    HW311269   5.451   0.518   0.114 -1.1953  0.6391 -0.9449
 2884SOL    MW411270   5.444   0.486   0.033  0.3215  0.2465  0.4705
 2885SOL     OW11271   2.041   2.179   3.288 -0.1069  0.4883 -0.1392
 2885SOL    HW211272   2.037   2.086   3.314 -1.6013 -0.1322 -2.3372
 2885SOL    HW311273   2.102   2.181   3.215 -0.4018  1.1543 -0.3747
 2885SOL    MW411274   2.048   2.167   3.282 -0.3401  0.0371  0.6059
 2886SOL     OW11275   2.632   5.156   3.871  0.0455  0.4382  0.6650
 2886SOL    HW211276   2.545   5.139   3.907 -1.2450  2.8992 -0.9975
 2886SOL    HW311277   2.619   5.230   3.813  3.4901  1.5624  1.1315
 2886SOL    MW411278   2.619   5.163   3.868 -0.2192  0.0712  0.1251
 2887SOL     OW11279   2.600   2.839   4.274  0.0373  0.4903  0.2715
 2887SOL    HW211280   2.687   2.852   4.311  0.3593  1.0839 -0.6505
 2887SOL    HW311281   2.616   2.796   4.190 -0.6919 -1.0679  0.8808
 2887SOL    MW411282   2.614   2.835   4.268  0.2353  0.4590 -0.6082
 2888SOL     OW11283   1.203   3.317   1.017  0.3337 -0.0614  0.2311
 2888SOL    HW211284   1.260   3.266   0.960  0.6877  1.0037 -0.3911
 2888SOL    HW311285   1.215   3.407   0.989 -1.2814  0.2471  0.4172
 2888SOL    MW411286   1.212   3.322   1.006  0.6200 -0.0838  0.5731
 2889SOL     OW11287   1.543   5.560   5.856 -0.1683  0.0234  0.5621
 2889SOL    HW211288   1.615   5.519   5.903  0.3413 -0.3605 -0.5113
 2889SOL    HW311289   1.564   5.654   5.855 -0.2466  0.0527  1.1697
 2889SOL    MW411290   1.555   5.567   5.862 -0.1428  0.5023 -0.0518
 2890SOL     OW11291   1.635   0.511   0.943 -0.3463 -0.0773 -0.3890
 2890SOL    HW211292   1.638   0.418   0.967 -0.5054  0.4858  2.1496
 2890SOL    HW311293   1.545   0.525   0.913 -0.7671 -0.4856  0.6228
 2890SOL    MW411294   1.623   0.501   0.942 -0.3285 -0.0832  0.4563
 2891SOL     OW11295   0.331   4.261   2.769  0.2310  0.2817  0.2814
 2891SOL    HW211296   0.306   4.238   2.680 -0.6592 -0.1903  0.6416
 2891SOL    HW311297   0.325   4.179   2.818  0.7212  0.5332  0.7754
 2891SOL    MW411298   0.327   4.248   2.764  0.0461  0.4314  0.8249
 2892SOL     OW11299   4.734   5.218   1.447  0.6869 -0.0823  0.1816
 2892SOL    HW211300   4.643   5.213   1.418  0.9966  1.8160 -1.3464
 2892SOL    HW311301   4.772   5.134   1.423 -0.6171 -0.8604  0.7629
 2892SOL    MW411302   4.727   5.207   1.440  0.0994  0.3813 -0.4287
 2893SOL     OW11303   4.174   5.279   0.144  0.2648 -0.0847  0.1209
 2893SOL    HW211304   4.226   5.199   0.149 -1.2292 -1.1012  0.1235
 2893SOL    HW311305   4.221   5.335   0.083  0.7090 -1.4588 -0.8429
 2893SOL    MW411306   4.187   5.276   0.137 -0.0811 -0.6317 -0.1997
 2894SOL     OW11307   0.952   4.495   3.983 -0.4324  0.1194 -0.2876
 2894SOL    HW211308   0.897   4.471   4.058  1.1899 -1.3974  0.4973
 2894SOL    HW311309   1.034   4.526   4.023 -0.3103  1.3374 -1.4307
 2894SOL    MW411310   0.955   4.496   3.999  1.0272  0.0817  0.4229
 2895SOL     OW11311   0.712   5.497   4.463 -0.2275  0.0711  0.5660
 2895SOL    HW211312   0.734   5.405   4.455  0.4538  0.1337  1.5607
 2895SOL    HW311313   0.782   5.543   4.417 -0.2731  0.1075  0.5334
 2895SOL    MW411314   0.724   5.491   4.456  0.3309  0.1560  0.2105
 2896SOL     OW11315   5.328   3.352   1.418  0.1947 -0.4059  0.0553
 2896SOL    HW211316   5.277   3.322   1.494 -0.0756  0.8910  0.4001
 2896SOL    HW311317   5.413   3.309   1.429 -0.7610 -2.6141 -0.5316
 2896SOL    MW411318   5.332   3.342   1.430  0.1487  0.3388  0.0056
 2897SOL     OW11319   3.944   5.146   3.270 -0.1639  0.3640 -0.8047
 2897SOL    HW211320   3.999   5.069   3.258 -0.4065  0.2155 -0.9777
 2897SOL    HW311321   4.002   5.220   3.249  1.4317  0.6148  3.5650
 2897SOL    MW411322   3.959   5.146   3.265 -0.4974  0.2426  0.4765
 2898SOL     OW11323   2.748   2.629   2.064 -0.5243  0.1238 -0.3454
 2898SOL    HW211324   2.793   2.580   1.995  1.2810  1.4676 -0.1899
 2898SOL    HW311325   2.729   2.564   2.131  1.5440 -0.4897 -0.2793
 2898SOL    MW411326   2.752   2.614   2.064  0.2985 -0.6053  0.4062
 2899SOL     OW11327   2.155   3.524   1.453 -0.2593  0.3269  0.0598
 2899SOL    HW211328   2.195   3.580   1.387  0.7577  0.2148  0.5696
 2899SOL    HW311329   2.147   3.439   1.411  1.4495 -0.0478  0.4368
 2899SOL    MW411330   2.159   3.520   1.439  0.0276 -0.2109 -0.6144
 2900SOL     OW11331   5.601   2.606   3.382  0.3941  0.4864  0.1177
 2900SOL    HW211332   5.562   2.520   3.369 -0.0048  0.2514  2.4108
 2900SOL    HW311333   5.545   2.666   3.333 -3.1724  0.2017  3.3997
 2900SOL    MW411334   5.589   2.602   3.374  0.4731  0.7513 -0.3354
 2901SOL     OW11335   3.031   3.417   1.803 -0.1092  0.3909  0.1293
 2901SOL    HW211336   2.976   3.447   1.731 -2.7756 -2.4247  0.7607
 2901SOL    HW311337   3.083   3.345   1.766  0.0028  0.2621  0.5213
 2901SOL    MW411338   3.031   3.411   1.789  0.0930  0.0375 -0.1988
 2902SOL     OW11339   2.707   5.572   5.383  0.0998 -0.5710 -0.4909
 2902SOL    HW211340   2.779   5.593   5.442 -0.5467  0.6983 -0.1139
 2902SOL    HW311341   2.748   5.564   5.297  0.8198 -0.7747 -0.1341
 2902SOL    MW411342   2.722   5.574   5.380 -0.2633 -1.4134  0.2102
 2903SOL     OW11343   2.232   4.319   6.211  0.5530  0.3867  0.1462
 2903SOL    HW211344   2.249   4.372   6.134  1.6763  0.3089  0.3278
 2903SOL    HW311345   2.238   4.228   6.180  1.0515  0.3554  0.3345
 2903SOL    MW411346   2.235   4.314   6.197 -0.1434  0.6792  0.7539
 2904SOL     OW11347   0.893   1.796   1.362  0.2282 -0.0862  0.1988
 2904SOL    HW211348   0.962   1.806   1.296  1.8235  0.2034  1.8244
 2904SOL    HW311349   0.858   1.708   1.346  2.4337 -1.1068  0.5816
 2904SOL    MW411350   0.898   1.785   1.351 -0.1028 -0.4408 -0.0898
 2905SOL     OW11351   3.506   6.075   4.283  0.1251  0.0136  0.1212
 2905SOL    HW211352   3.558   6.152   4.261  1.3876 -0.8661 -0.0729
 2905SOL    HW311353   3.451   6.103   4.357  0.2294  1.2125 -0.2381
 2905SOL    MW411354   3.505   6.089   4.290  0.5986  0.2266  0.3625
 2906SOL     OW11355   1.277   2.309   3.286 -0.0299 -0.2210  0.0220
 2906SOL    HW211356   1.363   2.271   3.268  0.1488  0.2221 -0.0613
 2906SOL    HW311357   1.247   2.263   3.365 -0.1798 -1.1194 -0.5399
 2906SOL    MW411358   1.284   2.298   3.294 -0.9641 -0.2843  0.0327
 2907SOL     OW11359   6.378   2.308   6.254 -0.2576 -0.2163  0.2129
 2907SOL    HW211360   6.373   2.253   6.333  1.7793  0.1306  0.6308
 2907SOL    HW311361   6.303   2.367   6.262 -0.2716 -0.3927  1.7483
 2907SOL    MW411362   6.367   2.309   6.266 -0.6000  0.0557 -0.5525
 2908SOL     OW11363   3.168   6.193   3.523 -0.3116 -0.2484  0.2433
 2908SOL    HW211364   3.144   6.101   3.537  0.0221 -0.3002  0.4633
 2908SOL    HW311365   3.217   6.192   3.441  3.0532 -0.8601  2.1035
 2908SOL    MW411366   3.171   6.181   3.514  0.2504  0.6378 -0.6411
 2909SOL     OW11367   4.323   0.533   5.900  0.3934  0.0490  0.4308
 2909SOL    HW211368   4.322   0.437   5.897 -1.2520  0.0029  1.2793
 2909SOL    HW311369   4.382   0.554   5.973  0.7423 -0.3066  0.2568
 2909SOL    MW411370   4.331   0.523   5.909  0.0620 -0.2362  0.2564
 2910SOL     OW11371   4.053   3.353   2.954  0.0518  0.1170  0.5352
 2910SOL    HW211372   4.136   3.323   2.916 -0.6673 -0.9967 -0.2012
 2910SOL    HW311373   4.075   3.377   3.044  1.2595  0.2925  0.2079
 2910SOL    MW411374   4.067   3.353   2.961 -0.2544 -0.1830  0.5175
 2911SOL     OW11375   6.350   3.571   3.215 -0.3686  0.8042  0.2087
 2911SOL    HW211376   6.286   3.500   3.219  0.5586 -0.1691 -1.3577
 2911SOL    HW311377   6.302   3.649   3.244 -2.0931  0.0094 -0.4009
 2911SOL    MW411378   6.335   3.572   3.220 -0.3327  0.2629  0.1043
 2912SOL     OW11379   1.680   0.301   4.433 -0.0337 -0.0707 -0.0603
 2912SOL    HW211380   1.720   0.256   4.359 -1.7306 -0.1877 -0.9635
 2912SOL    HW311381   1.632   0.374   4.394 -0.7427  0.0305  0.9571
 2912SOL    MW411382   1.679   0.305   4.418 -0.0894 -0.3537  0.3583
 2913SOL     OW11383   0.879   5.822   3.442 -0.1611 -0.5170 -0.5969
 2913SOL    HW211384   0.909   5.898   3.493  0.3374 -0.3766 -1.0891
 2913SOL    HW311385   0.863   5.856   3.354  1.2976 -1.2060 -1.1609
 2913SOL    MW411386   0.881   5.837   3.437  0.5165  0.4266 -0.2444
 2914SOL     OW11387   0.097   6.185   2.867  0.0431  0.4193  0.5702
 2914SOL    HW211388   0.129   6.263   2.913  0.3722 -0.0409  1.1333
 2914SOL    HW311389   0.107   6.114   2.930  0.6395 -0.2549 -0.2598
 2914SOL    MW411390   0.103   6.186   2.881 -0.6009  0.1692 -0.3331
 2915SOL     OW11391   5.467   0.642   0.717 -0.0052  0.2778 -0.2723
 2915SOL    HW211392   5.421   0.714   0.760 -0.3323  0.6652 -1.2300
 2915SOL    HW311393   5.462   0.570   0.779 -0.2034  0.8991  0.4536
 2915SOL    MW411394   5.460   0.642   0.730 -0.0471  0.2148  0.4248
 2916SOL     OW11395   4.695   0.639   2.080  0.2062  0.1427  0.1892
 2916SOL    HW211396   4.693   0.734   2.066 -0.5393 -0.1610 -2.0580
 2916SOL    HW311397   4.656   0.627   2.167  2.3796  1.9917  1.5475
 2916SOL    MW411398   4.690   0.650   2.090  0.1563 -0.2728 -0.0873
 2917SOL     OW11399   1.905   3.417   4.304  0.0826 -0.3501  0.4037
 2917SOL    HW211400   1.843   3.453   4.241 -1.2823 -0.5468  1.5814
 2917SOL    HW311401   1.973   3.484   4.312  0.1804 -0.2532 -1.1163
 2917SOL    MW411402   1.906   3.431   4.297  0.2983 -0.2538 -0.2014
 2918SOL     OW11403   2.870   0.793   4.613  0.3904 -0.2776  0.4115
 2918SOL    HW211404   2.919   0.713   4.594  1.3301  0.6792 -1.4211
 2918SOL    HW311405   2.788   0.782   4.566  0.7611  0.0552 -0.3353
 2918SOL    MW411406   2.866   0.781   4.604 -0.3524  0.6710 -0.2072
 2919SOL     OW11407   0.045   6.262   4.858 -0.6161 -0.3486  0.3086
 2919SOL    HW211408   0.043   6.179   4.906 -1.2068 -0.1157  0.6906
 2919SOL    HW311409   0.017   6.238   4.769  2.0659 -1.0816 -0.4449
 2919SOL    MW411410   0.041   6.248   4.852 -0.0956  0.1522 -0.0821
 2920SOL     OW11411   5.726   0.453   6.069  0.2592 -0.4291 -0.1571
 2920SOL    HW211412   5.751   0.536   6.030 -0.0427  0.1465  0.8501
 2920SOL    HW311413   5.631   0.449   6.057  0.3022 -0.7564 -0.4236
 2920SOL    MW411414   5.717   0.463   6.062 -0.3018 -0.3417 -0.3607
 2921SOL     OW11415   5.925   3.129   4.286  0.2264 -0.1985 -0.5138
 2921SOL    HW211416   5.916   3.177   4.204 -0.1817 -0.5818 -0.6943
 2921SOL    HW311417   5.843   3.146   4.333  0.5817  0.2693 -0.0504
 2921SOL    MW411418   5.913   3.138   4.281 -0.1853 -0.2751  0.3902
 2922SOL     OW11419   5.098   2.630   2.250 -0.2466  0.4655  0.6085
 2922SOL    HW211420   5.131   2.546   2.218  1.2891  1.5267 -0.7754
 2922SOL    HW311421   5.002   2.621   2.246 -0.1346 -1.4822  1.2950
 2922SOL    MW411422   5.089   2.618   2.245  0.2690 -0.2238  0.1965
 2923SOL     OW11423   1.763   1.358   3.696  0.2745  0.9891 -0.0210
 2923SOL    HW211424   1.785   1.354   3.603 -0.3130  1.6725 -0.2020
 2923SOL    HW311425   1.687   1.301   3.706  0.4269  0.7998  0.0744
 2923SOL    MW411426   1.756   1.350   3.685  0.2639  0.0865  0.4340
 2924SOL     OW11427   2.360   3.014   3.331 -0.4417 -0.3305 -0.0992
 2924SOL    HW211428   2.454   3.021   3.315 -0.4076 -0.0998  0.1930
 2924SOL    HW311429   2.347   2.923   3.357 -0.2907 -0.3498 -0.0909
 2924SOL    MW411430   2.370   3.003   3.333 -0.2232 -0.6348  0.2038
 2925SOL     OW11431   2.280   2.771   3.401 -0.3280 -0.6212 -0.0806
 2925SOL    HW211432   2.252   2.697   3.454  0.1638 -1.8612 -1.4950
 2925SOL    HW311433   2.341   2.734   3.338 -1.0023  0.7612 -1.6190
 2925SOL    MW411434   2.284   2.756   3.400  0.2198  0.2291  0.1707
 2926SOL     OW11435   5.608   0.135   0.641 -0.9762 -0.2959 -0.3315
 2926SOL    HW211436   5.695   0.147   0.602 -0.5226 -1.5596  0.2425
 2926SOL    HW311437   5.615   0.053   0.689 -1.6553  0.9377  2.0240
 2926SOL    MW411438   5.621   0.126   0.642 -0.1825 -0.1085  0.0025
 2927SOL     OW11439   5.303   2.225   5.481 -0.0703 -0.1217  0.6713
 2927SOL    HW211440   5.267   2.163   5.418 -1.6591  0.8319  0.5751
 2927SOL    HW311441   5.384   2.256   5.440 -1.3286  0.8701 -1.2241
 2927SOL    MW411442   5.309   2.221   5.467 -0.1990  0.3666  0.3344
 2928SOL     OW11443   5.269   3.173   5.604  0.2593  0.6191  0.4584
 2928SOL    HW211444   5.290   3.226   5.681  1.2767  0.3974  0.3406
 2928SOL    HW311445   5.345   3.183   5.546 -0.0483 -0.0412 -0.0720
 2928SOL    MW411446   5.281   3.181   5.606  0.2171 -0.3428 -0.8078
 2929SOL     OW11447   4.439   0.639   6.280  0.7548  0.5467  0.0583
 2929SOL    HW211448   4.516   0.627   6.224  0.4535 -0.5560 -0.1482
 2929SOL    HW311449   4.475   0.659   6.366  1.2474  1.1706 -0.2868
 2929SOL    MW411450   4.454   0.640   6.284  0.8419 -0.0220 -0.3516
 2930SOL     OW11451   4.316   6.362   3.834  0.0871 -1.0138 -0.2401
 2930SOL    HW211452   4.366   6.374   3.753  0.5217 -2.3815 -0.1972
 2930SOL    HW311453   4.225   6.364   3.806  0.2126 -0.6403 -0.6352
 2930SOL    MW411454   4.311   6.364   3.819 -0.0092 -0.2854  0.0139
 2931SOL     OW11455   6.182   1.987   5.535  0.2141  0.2520  0.0000
 2931SOL    HW211456   6.114   1.958   5.474  0.0865  0.4103  0.0627
 2931SOL    HW311457   6.242   1.914   5.541  0.4547  0.3895 -0.6407
 2931SOL    MW411458   6.181   1.974   5.528 -0.1134 -0.1487 -0.5151
 2932SOL     OW11459   0.734   4.783   6.350 -0.0717  0.1765  0.3618
 2932SOL    HW211460   0.660   4.804   6.407 -1.8838  0.8136 -2.0111
 2932SOL    HW311461   0.744   4.861   6.295  0.5570 -0.9396 -1.1630
 2932SOL    MW411462   0.725   4.796   6.350  0.0872 -0.0700 -0.2225
 2933SOL     OW11463   1.197   0.862   3.187  0.0204  0.3844  0.3994
 2933SOL    HW211464   1.125   0.816   3.229 -0.2837  1.4133  1.0361
 2933SOL    HW311465   1.155   0.919   3.123  0.3217  0.5169  0.3184
 2933SOL    MW411466   1.182   0.863   3.184  0.3387  0.3907 -0.0779
 2934SOL     OW11467   5.495   4.680   1.524 -0.2972 -0.0829 -0.6100
 2934SOL    HW211468   5.420   4.646   1.572  1.6791 -1.2490  1.9326
 2934SOL    HW311469   5.542   4.734   1.588  0.0533  2.2615 -2.6894
 2934SOL    MW411470   5.491   4.683   1.539 -0.2780  0.4901  0.2394
 2935SOL     OW11471   5.399   0.781   0.137  0.1945 -0.4957 -0.0431
 2935SOL    HW211472   5.328   0.718   0.149 -0.7779  0.7719  1.1317
 2935SOL    HW311473   5.416   0.815   0.225  0.7968  0.7504 -0.6175
 2935SOL    MW411474   5.392   0.777   0.150 -0.0617  0.4123 -0.2851
 2936SOL     OW11475   2.045   6.223   0.325  0.1037 -0.3258  0.0588
 2936SOL    HW211476   2.122   6.217   0.381 -0.5605 -1.3335  0.9036
 2936SOL    HW311477   2.071   6.282   0.254  1.3411  0.0567  0.8083
 2936SOL    MW411478   2.059   6.230   0.323  0.0643  0.3288  0.1105
 2937SOL     OW11479   3.091   2.364   5.783 -0.3875 -0.9308  0.3438
 2937SOL    HW211480   3.138   2.421   5.844 -2.1285 -0.6100  1.4525
 2937SOL    HW311481   3.032   2.423   5.735 -0.4165 -1.4518 -0.2733
 2937SOL    MW411482   3.089   2.379   5.785  0.0546 -0.5215  0.1500
 2938SOL     OW11483   4.922   6.161   0.880  0.4602  0.3715 -0.0565
 2938SOL    HW211484   4.921   6.065   0.878 -0.9530  0.3834 -0.6184
 2938SOL    HW311485   4.832   6.187   0.861  0.7650  1.8169  0.3569
 2938SOL    MW411486   4.910   6.152   0.877  0.6082  0.0180  0.2018
 2939SOL     OW11487   3.296   4.185   4.964  0.3441  0.2671  0.3865
 2939SOL    HW211488   3.209   4.217   4.985  0.7009 -0.5893  3.7417
 2939SOL    HW311489   3.321   4.233   4.885 -2.1348  2.3811  0.7469
 2939SOL    MW411490   3.288   4.195   4.956  0.0565  0.5245 -0.3954
 2940SOL     OW11491   3.914   4.960   2.822 -0.2475 -0.0756 -0.4082
 2940SOL    HW211492   3.891   5.038   2.873  2.0391  0.4907 -0.1343
 2940SOL    HW311493   3.915   4.889   2.886 -0.5642  0.0247 -0.2914
 2940SOL    MW411494   3.911   4.961   2.837 -0.5097  0.2204  0.4672
 2941SOL     OW11495   2.849   2.795   3.179 -0.4496  0.4699 -0.1249
 2941SOL    HW211496   2.903   2.837   3.246 -0.4975 -1.0544  0.9115
 2941SOL    HW311497   2.912   2.767   3.112 -0.1487  0.2428  0.2450
 2941SOL    MW411498   2.865   2.797   3.179  0.0598 -0.2639 -0.1488
 2942SOL     OW11499   5.108   5.939   0.605 -0.2553  0.0123 -0.0495
 2942SOL    HW211500   5.034   5.913   0.660 -1.0532 -1.6968 -1.8280
 2942SOL    HW311501   5.076   5.934   0.515  1.0253  2.6682 -0.7725
 2942SOL    MW411502   5.094   5.935   0.601 -0.6029 -0.4459  0.2985
 2943SOL     OW11503   1.209   4.560   2.428 -0.0782 -0.4314  0.1772
 2943SOL    HW211504   1.261   4.498   2.378 -1.0220 -0.3618 -0.9314
 2943SOL    HW311505   1.121   4.554   2.391 -0.5120  0.5635  0.9761
 2943SOL    MW411506   1.204   4.551   2.417  0.3577 -0.2595 -1.1611
 2944SOL     OW11507   3.581   1.633   0.211 -0.0211  0.0925 -0.2991
 2944SOL    HW211508   3.523   1.569   0.251  0.8223  0.0975  1.0169
 2944SOL    HW311509   3.659   1.583   0.187  1.0611  0.7322  1.6593
 2944SOL    MW411510   3.584   1.618   0.214  0.0414 -0.4783 -0.1819
 2945SOL     OW11511   0.678   4.913   5.892  0.5141 -0.1566  0.1798
 2945SOL    HW211512   0.724   4.846   5.943  0.1659 -0.9285 -0.5161
 2945SOL    HW311513   0.747   4.975   5.867  0.7731 -0.0424  1.1373
 2945SOL    MW411514   0.694   4.912   5.896 -0.2924  0.1035  0.2113
 2946SOL     OW11515   3.801   1.309   6.045  0.1440  0.1649  0.2020
 2946SOL    HW211516   3.734   1.252   6.007 -0.7019  2.4324 -2.0556
 2946SOL    HW311517   3.762   1.343   6.125 -0.4740 -0.3180  0.1081
 2946SOL    MW411518   3.787   1.306   6.051 -0.0688  0.0997 -0.0777
 2947SOL     OW11519   0.980   5.684   0.824 -0.4028  0.1302 -0.1080
 2947SOL    HW211520   0.975   5.683   0.919  0.0889  3.6959  0.1203
 2947SOL    HW311521   1.067   5.720   0.805 -1.0522  0.9225 -1.8354
 2947SOL    MW411522   0.991   5.689   0.834  0.0132  0.0173  0.6617
 2948SOL     OW11523   3.101   5.565   6.203 -0.1776 -0.2252  1.1078
 2948SOL    HW211524   3.089   5.544   6.295 -1.3496  0.6629  1.1707
 2948SOL    HW311525   3.018   5.543   6.162  0.4861 -1.0711  0.1574
 2948SOL    MW411526   3.089   5.559   6.209 -0.2282 -0.1851 -0.7701
 2949SOL     OW11527   3.018   3.567   2.266 -0.3922  0.4139  0.1710
 2949SOL    HW211528   2.933   3.592   2.232 -0.0282  0.1743 -0.9736
 2949SOL    HW311529   3.040   3.634   2.331 -1.4155  0.5026  0.4326
 2949SOL    MW411530   3.010   3.579   2.270 -0.5533 -0.2865  0.2480
 2950SOL     OW11531   4.952   2.253   1.846  0.0409  0.5097  0.0268
 2950SOL    HW211532   4.977   2.339   1.812  0.3287  0.6428  0.5684
 2950SOL    HW311533   5.010   2.192   1.802  0.9632  0.7601  0.8633
 2950SOL    MW411534   4.963   2.257   1.836 -0.2669 -0.0852  0.9198
 2951SOL     OW11535   4.968   5.570   4.613 -0.1468 -0.7374 -0.6067
 2951SOL    HW211536   4.902   5.604   4.553  0.3282 -0.1099 -0.7709
 2951SOL    HW311537   5.050   5.574   4.564 -0.1716 -2.8092 -0.9082
 2951SOL    MW411538   4.970   5.575   4.599  0.0166 -0.0313  0.0228
 2952SOL     OW11539   2.605   2.363   1.490  0.3224  0.4312  0.0535
 2952SOL    HW211540   2.520   2.323   1.473  0.8940 -0.7568 -0.1088
 2952SOL    HW311541   2.633   2.326   1.574  1.2054 -0.1437 -0.4699
 2952SOL    MW411542   2.598   2.353   1.499 -0.2831  0.9360  0.0176
 2953SOL     OW11543   2.283   2.569   5.273  0.3630  0.1348 -0.0782
 2953SOL    HW211544   2.302   2.546   5.182  0.7113  1.6797 -0.4290
 2953SOL    HW311545   2.348   2.521   5.325 -0.3666 -1.4273 -0.5290
 2953SOL    MW411546   2.294   2.559   5.268  0.0156 -0.0076  0.1433
 2954SOL     OW11547   2.688   0.751   3.743 -0.5590 -0.2762  0.0574
 2954SOL    HW211548   2.685   0.830   3.798 -0.2810  0.5934 -1.1519
 2954SOL    HW311549   2.718   0.682   3.803  1.2289  0.9537  0.6602
 2954SOL    MW411550   2.692   0.752   3.758 -0.2864 -0.3799 -0.4994
 2955SOL     OW11551   2.918   2.142   5.803 -0.1631 -0.5868 -0.0921
 2955SOL    HW211552   2.984   2.211   5.805  0.0928 -0.7040 -2.1989
 2955SOL    HW311553   2.886   2.136   5.893  0.1527  1.9271  0.2478
 2955SOL    MW411554   2.922   2.150   5.815 -0.5011 -0.6843 -0.1097
 2956SOL     OW11555   3.000   3.810   1.611  0.2393  0.4436  0.1497
 2956SOL    HW211556   2.921   3.786   1.660  0.1553 -0.2687 -0.3230
 2956SOL    HW311557   2.995   3.905   1.603 -0.1934  0.4796  0.7639
 2956SOL    MW411558   2.989   3.819   1.617  0.7642  0.1197 -0.4965
 2957SOL     OW11559   4.330   2.153   2.626  0.0186 -0.0673 -0.1338
 2957SOL    HW211560   4.292   2.238   2.604  1.9316  0.7418 -0.4940
 2957SOL    HW311561   4.271   2.116   2.693 -2.0082  0.5617 -1.4921
 2957SOL    MW411562   4.317   2.159   2.632 -0.1683  0.3205  0.0551
 2958SOL     OW11563   0.092   1.591   4.270  0.1913 -0.4009  0.5039
 2958SOL    HW211564   0.126   1.672   4.308  0.7603 -1.4159  2.2705
 2958SOL    HW311565   0.168   1.551   4.227 -0.0571 -0.0996 -0.2404
 2958SOL    MW411566   0.107   1.597   4.269  0.4117  0.2393  0.0036
 2959SOL     OW11567   4.792   2.497   0.686 -0.1462  0.2842 -0.2227
 2959SOL    HW211568   4.737   2.427   0.650 -1.1205 -0.3466  2.2796
 2959SOL    HW311569   4.814   2.551   0.610 -0.9255 -1.6627 -1.9512
 2959SOL    MW411570   4.787   2.495   0.671  0.2414  0.1140  0.2959
 2960SOL     OW11571   3.874   5.273   5.573 -0.2940  1.1205  0.0389
 2960SOL    HW211572   3.864   5.201   5.635  1.3760 -0.6480 -1.6045
 2960SOL    HW311573   3.948   5.324   5.606  1.2888 -0.4249 -0.9379
 2960SOL    MW411574   3.882   5.270   5.585  0.8425  0.1698  0.5802
 2961SOL     OW11575   1.303   3.765   3.454  0.3930 -0.1737 -0.4781
 2961SOL    HW211576   1.243   3.836   3.477  1.9692  1.0222  0.1810
 2961SOL    HW311577   1.386   3.809   3.437  1.5179 -1.8873  0.2950
 2961SOL    MW411578   1.306   3.780   3.455  0.2319 -0.2406  0.0843
 2962SOL     OW11579   1.216   2.666   4.294 -0.1994 -0.0535 -0.3208
 2962SOL    HW211580   1.149   2.613   4.337  0.7598 -0.4230  0.7817
 2962SOL    HW311581   1.298   2.622   4.316  0.4416  0.6648 -1.2350
 2962SOL    MW411582   1.218   2.653   4.303  0.0157  1.1328 -0.3917
 2963SOL     OW11583   5.441   3.458   2.234 -0.2357  0.0961 -0.5350
 2963SOL    HW211584   5.359   3.507   2.226  0.4826  1.4351 -0.0721
 2963SOL    HW311585   5.476   3.485   2.319 -0.5228 -2.3854  0.4307
 2963SOL    MW411586   5.435   3.468   2.244 -0.5433 -0.0287  0.7746
 2964SOL     OW11587   4.316   1.739   2.702 -0.1616 -0.3229  0.2760
 2964SOL    HW211588   4.404   1.741   2.664  0.1248 -1.6316  0.8130
 2964SOL    HW311589   4.310   1.818   2.754  0.1186  0.5667 -0.9851
 2964SOL    MW411590   4.327   1.749   2.704 -0.3820  0.2269 -0.2765
 2965SOL     OW11591   1.767   0.044   2.398 -0.0671  0.1624 -0.3339
 2965SOL    HW211592   1.804   0.113   2.342 -1.2477  0.3120 -0.9638
 2965SOL    HW311593   1.839   0.019   2.456  0.5268  1.5887 -0.4174
 2965SOL    MW411594   1.781   0.050   2.398  0.0420  0.1417  0.2994
 2966SOL     OW11595   6.013   6.111   0.010  0.4554 -0.3014  0.3522
 2966SOL    HW211596   5.982   6.021   0.003  0.1263 -0.2835  1.3552
 2966SOL    HW311597   5.946   6.164  -0.033  1.2708 -0.6125 -1.4049
 2966SOL    MW411598   6.000   6.106   0.004 -0.0433  0.0802 -0.1582
 2967SOL     OW11599   3.385   1.546   1.578 -0.0106  0.1521 -1.0419
 2967SOL    HW211600   3.435   1.470   1.609 -0.5141  0.1020 -0.3185
 2967SOL    HW311601   3.294   1.519   1.584 -0.1915  0.7810 -0.8463
 2967SOL    MW411602   3.380   1.533   1.583  0.0010 -0.0137 -0.2713
 2968SOL     OW11603   2.143   2.216   6.203  0.4425 -0.3579  0.0704
 2968SOL    HW211604   2.051   2.209   6.228 -0.3703 -0.7951 -2.7397
 2968SOL    HW311605   2.169   2.304   6.230 -1.1223  0.1668 -0.0623
 2968SOL    MW411606   2.134   2.227   6.210 -0.1375  0.0616  0.0548
 2969SOL     OW11607   1.927   6.142   3.407 -0.1945  0.3328 -0.0233
 2969SOL    HW211608   1.882   6.095   3.336 -1.2494  0.1594  0.7276
 2969SOL    HW311609   1.857   6.190   3.451  0.1629 -0.8014  1.8702
 2969SOL    MW411610   1.912   6.142   3.403  0.2021 -0.1014 -0.2650
 2970SOL     OW11611   0.987   6.045   0.162  0.3953  0.1216 -0.3156
 2970SOL    HW211612   0.909   6.020   0.211  1.0774  0.4985  0.9905
 2970SOL    HW311613   0.997   6.138   0.180  1.0238  0.1219 -0.6612
 2970SOL    MW411614   0.978   6.054   0.171  0.4839  0.0918 -0.0471
 2971SOL     OW11615   5.857   3.865   0.669  0.2533  0.8324  0.1674
 2971SOL    HW211616   5.791   3.934   0.668  0.9228  1.4858 -0.1729
 2971SOL    HW311617   5.807   3.783   0.678 -0.5138  1.3919  1.1092
 2971SOL    MW411618   5.842   3.863   0.670  0.0571  0.4881  0.2576
 2972SOL     OW11619   0.454   3.110   3.037  0.7055 -0.6885 -0.0455
 2972SOL    HW211620   0.372   3.101   2.988  0.9431  0.2632 -0.6526
 2972SOL    HW311621   0.446   3.195   3.080  0.9796 -1.0184  0.6744
 2972SOL    MW411622   0.442   3.120   3.036  0.1991  0.2015 -0.2862
 2973SOL     OW11623   3.022   2.216   5.394  0.1340  0.2545 -0.3190
 2973SOL    HW211624   3.090   2.265   5.440 -0.5065 -0.1022  1.0859
 2973SOL    HW311625   2.941   2.239   5.440 -0.6611  0.4062 -1.7325
 2973SOL    MW411626   3.020   2.225   5.406 -0.2523 -0.1028  0.5482
 2974SOL     OW11627   3.272   5.268   4.094 -0.0667  0.4969  0.0040
 2974SOL    HW211628   3.239   5.355   4.116  0.8698  0.8792 -0.0640
 2974SOL    HW311629   3.266   5.218   4.175  0.1366  0.8614  0.2418
 2974SOL    MW411630   3.267   5.273   4.107 -0.7105 -0.0470  0.2997
 2975SOL     OW11631   6.182   1.953   0.469  0.2757 -0.2323  0.6764
 2975SOL    HW211632   6.273   1.984   0.465  0.0406  1.2064  3.5348
 2975SOL    HW311633   6.130   2.034   0.471 -1.1124 -1.0378 -0.8378
 2975SOL    MW411634   6.187   1.968   0.469 -0.5228  0.2176 -0.2895
 2976SOL     OW11635   0.414   6.017   3.406 -0.4794 -0.3177 -0.1794
 2976SOL    HW211636   0.404   6.062   3.321  1.6233 -1.8664 -1.3634
 2976SOL    HW311637   0.461   6.080   3.460 -1.5139  0.5543 -0.2600
 2976SOL    MW411638   0.419   6.031   3.402 -0.2011 -0.6270 -0.5469
 2977SOL     OW11639   5.961   6.025   1.619  0.4105 -0.0234 -0.5819
 2977SOL    HW211640   5.895   5.983   1.564 -0.0756  0.3785 -0.3081
 2977SOL    HW311641   5.948   5.987   1.706  0.4164  0.1904 -0.4857
 2977SOL    MW411642   5.950   6.014   1.623 -0.4052 -0.6171 -0.6461
 2978SOL     OW11643   4.702   3.058   0.771 -0.6899  0.0788  0.5163
 2978SOL    HW211644   4.623   3.022   0.812 -1.4222 -0.9353 -1.6734
 2978SOL    HW311645   4.713   3.007   0.691  1.0408  1.5591 -0.2439
 2978SOL    MW411646   4.693   3.047   0.766 -0.3994  0.0236 -0.4535
 2979SOL     OW11647   2.298   6.221   1.916 -0.1453  0.1886 -0.1260
 2979SOL    HW211648   2.253   6.225   2.000 -1.1673  1.5571 -0.7078
 2979SOL    HW311649   2.327   6.311   1.900  2.2238 -0.4873 -0.1152
 2979SOL    MW411650   2.296   6.233   1.925 -0.3928  0.2221 -0.4827
 2980SOL     OW11651   4.028   2.969   3.018  0.0271  0.0902 -0.8582
 2980SOL    HW211652   4.112   2.962   2.973 -0.0048 -0.1232 -0.8840
 2980SOL    HW311653   3.981   3.037   2.969  0.1981  0.2366 -0.8208
 2980SOL    MW411654   4.033   2.977   3.006 -0.1801 -0.1772  0.1600
 2981SOL     OW11655   0.419   4.135   4.358  0.2896  0.2866 -0.3097
 2981SOL    HW211656   0.462   4.057   4.322  1.1888 -0.0881  1.4597
 2981SOL    HW311657   0.333   4.105   4.387  0.3376  0.1449 -0.3177
 2981SOL    MW411658   0.413   4.121   4.357  0.0060  0.0905 -0.0726
 2982SOL     OW11659   2.097   4.637   3.826 -0.1101 -0.0661  0.1914
 2982SOL    HW211660   2.187   4.656   3.849  0.0126 -0.4822  0.0685
 2982SOL    HW311661   2.049   4.642   3.909 -0.0437  0.5478  0.1922
 2982SOL    MW411662   2.102   4.640   3.840  0.1072 -0.0092 -0.3304
 2983SOL     OW11663   5.272   6.414   3.922  0.7932 -0.3663 -0.3256
 2983SOL    HW211664   5.334   6.345   3.944  0.1565 -0.6416  0.6621
 2983SOL    HW311665   5.220   6.378   3.850  0.5781 -0.8553  0.0699
 2983SOL    MW411666   5.274   6.400   3.915  0.5452 -0.2275 -0.0280
 2984SOL     OW11667   3.448   4.091   1.691 -0.1231 -0.0171 -0.7224
 2984SOL    HW211668   3.376   4.149   1.714 -0.8069 -1.6163  1.4216
 2984SOL    HW311669   3.521   4.150   1.673 -1.4880  1.5735 -1.2979
 2984SOL    MW411670   3.448   4.107   1.691  0.2546 -0.0088 -0.2811
 2985SOL     OW11671   3.216   1.131   1.439  0.1154  0.3709  0.6648
 2985SOL    HW211672   3.272   1.089   1.374  0.7612  2.2207 -0.0589
 2985SOL    HW311673   3.196   1.217   1.401 -3.3010 -0.1922  0.8801
 2985SOL    MW411674   3.221   1.137   1.426  0.4272  1.3040  0.2371
 2986SOL     OW11675   3.705   5.184   4.524  0.0761 -0.1090  0.0998
 2986SOL    HW211676   3.728   5.106   4.474  1.4091 -0.2091  0.8117
 2986SOL    HW311677   3.685   5.151   4.612  2.2189  0.4429  0.8581
 2986SOL    MW411678   3.706   5.169   4.529 -0.1211  0.1024 -0.4335
 2987SOL     OW11679   3.867   1.530   4.272  0.2430 -0.0685  0.2169
 2987SOL    HW211680   3.792   1.471   4.269  0.0875  0.1452 -2.1841
 2987SOL    HW311681   3.835   1.606   4.320 -1.1233  0.0167 -0.7606
 2987SOL    MW411682   3.853   1.532   4.278  0.7576  0.4277  0.1143
 2988SOL     OW11683   5.581   4.606   3.288  0.1453  0.1965 -0.8149
 2988SOL    HW211684   5.617   4.661   3.219 -2.2516  2.1178 -0.6495
 2988SOL    HW311685   5.534   4.536   3.241  1.7101 -0.7729 -1.0261
 2988SOL    MW411686   5.580   4.604   3.273 -0.1601 -0.3959  0.2963
 2989SOL     OW11687   0.046   3.696   4.128 -0.1732 -0.7449  0.2769
 2989SOL    HW211688   0.047   3.619   4.184 -1.5482 -1.9051 -1.1967
 2989SOL    HW311689   0.124   3.686   4.073 -0.2034 -0.9481  0.2703
 2989SOL    MW411690   0.057   3.685   4.128 -0.2860 -0.7760 -0.1906
 2990SOL     OW11691   5.528   3.395   4.701  0.3232 -0.2917  0.2415
 2990SOL    HW211692   5.499   3.336   4.771  0.7003 -0.6575  0.0950
 2990SOL    HW311693   5.615   3.362   4.677  0.2112 -0.1385 -0.3694
 2990SOL    MW411694   5.536   3.383   4.707  0.0600 -0.1205  0.8823
 2991SOL     OW11695   5.193   3.474   5.141  0.2476 -0.3348  0.4996
 2991SOL    HW211696   5.188   3.569   5.156 -0.5672 -0.4060  0.7080
 2991SOL    HW311697   5.146   3.460   5.059  0.1201 -0.5965  0.6169
 2991SOL    MW411698   5.187   3.485   5.132  0.7087  0.1308  0.1614
 2992SOL     OW11699   2.743   5.334   2.853 -0.7180  0.7077  0.2484
 2992SOL    HW211700   2.785   5.253   2.882 -0.0522  0.8350 -0.3433
 2992SOL    HW311701   2.741   5.389   2.932  0.1861  0.6787  0.3004
 2992SOL    MW411702   2.748   5.331   2.867 -0.1699  0.5335  0.3384
 2993SOL     OW11703   4.994   2.494   5.868  0.3804  0.1543  0.2079
 2993SOL    HW211704   4.961   2.405   5.853  0.5019  0.1704 -0.1596
 2993SOL    HW311705   4.938   2.549   5.814 -0.1192  0.3799  0.9356
 2993SOL    MW411706   4.982   2.490   5.859 -0.8265  0.2401  0.4195
 2994SOL     OW11707   1.957   4.395   6.163 -0.0016 -0.3182  0.1025
 2994SOL    HW211708   1.891   4.387   6.232 -0.8194  2.0285 -0.3337
 2994SOL    HW311709   2.035   4.353   6.200 -1.3896 -2.2162  1.0470
 2994SOL    MW411710   1.959   4.388   6.177 -0.1846  0.0100 -0.5313
 2995SOL     OW11711   1.668   3.616   2.805 -0.1791  0.0393 -0.0066
 2995SOL    HW211712   1.637   3.602   2.894 -0.2425 -0.1647 -0.0617
 2995SOL    HW311713   1.614   3.688   2.772 -1.3125 -0.9906 -0.4633
 2995SOL    MW411714   1.657   3.624   2.812  0.2572  0.2451 -0.2576
 2996SOL     OW11715   3.531   2.983   5.285 -0.2678 -0.0127 -0.2911
 2996SOL    HW211716   3.552   3.065   5.331  0.5285 -0.9094  0.9948
 2996SOL    HW311717   3.468   3.009   5.217  0.1979  1.7123 -0.1079
 2996SOL    MW411718   3.526   2.998   5.282 -0.0458  0.0420 -0.1916
 2997SOL     OW11719   2.217   6.056   5.688 -0.3758 -0.5778 -0.1095
 2997SOL    HW211720   2.195   5.995   5.758  0.2962 -0.5351  0.1509
 2997SOL    HW311721   2.260   6.001   5.622  3.0058 -0.0050  1.4151
 2997SOL    MW411722   2.220   6.040   5.688 -0.4827  0.2577 -0.6335
 2998SOL     OW11723   3.996   0.780   1.733  0.0862 -0.4732  0.0362
 2998SOL    HW211724   4.002   0.749   1.643  0.5674 -1.9135  0.5274
 2998SOL    HW311725   3.903   0.786   1.751 -0.0148  0.0982 -0.6324
 2998SOL    MW411726   3.985   0.776   1.724  0.2976  0.1618  0.3659
 2999SOL     OW11727   2.966   1.549   1.971  0.2291 -0.6460  0.1083
 2999SOL    HW211728   2.926   1.505   1.895 -0.9679  0.8289 -0.1498
 2999SOL    HW311729   2.958   1.642   1.953 -0.5360 -0.2297  2.2632
 2999SOL    MW411730   2.959   1.555   1.959 -0.0074 -0.0808 -0.3140
 3000SOL     OW11731   5.196   1.277   5.873 -0.0617  0.7934  0.1809
 3000SOL    HW211732   5.268   1.339   5.862 -0.5671  1.2818 -0.5348
 3000SOL    HW311733   5.238   1.192   5.885  0.6536  1.3006  1.4978
 3000SOL    MW411734   5.211   1.274   5.873 -0.2999 -0.5953 -0.2240
 3001SOL     OW11735   1.599   2.683   5.770 -0.3486 -0.9565  0.0546
 3001SOL    HW211736   1.628   2.710   5.683 -1.6713 -2.1900 -0.8296
 3001SOL    HW311737   1.505   2.669   5.761 -0.3524 -2.1540  1.3931
 3001SOL    MW411738   1.590   2.685   5.758 -0.2213 -0.0659 -0.0311
 3002SOL     OW11739   3.695   0.710   5.023  0.1801  0.2587  0.6723
 3002SOL    HW211740   3.670   0.623   5.056  0.4788  0.0729  0.4144
 3002SOL    HW311741   3.791   0.709   5.024  0.1898  0.3901  0.1610
 3002SOL    MW411742   3.704   0.698   5.028 -0.1978  0.1596 -0.7111
 3003SOL     OW11743   5.661   5.200   0.969 -0.2637 -0.4859  0.3999
 3003SOL    HW211744   5.733   5.263   0.976  1.0860 -2.0433  1.3997
 3003SOL    HW311745   5.631   5.188   1.059 -0.8356 -0.8813  0.1606
 3003SOL    MW411746   5.667   5.207   0.981 -0.9561 -0.3175 -0.1505
 3004SOL     OW11747   0.995   4.087   5.965 -0.0707 -0.0047  0.1368
 3004SOL    HW211748   0.981   4.018   5.901 -0.1929  1.5215 -1.5806
 3004SOL    HW311749   0.912   4.135   5.967  0.8070  1.6298 -0.6923
 3004SOL    MW411750   0.982   4.084   5.957  0.1557  0.0812  0.0779
 3005SOL     OW11751   5.521   5.039   5.335  0.6385  0.3632 -0.1655
 3005SOL    HW211752   5.501   5.107   5.399  0.5868  0.8838 -0.7336
 3005SOL    HW311753   5.449   5.042   5.273 -0.0641 -1.1090  0.5216
 3005SOL    MW411754   5.509   5.048   5.335 -0.0845 -0.3669  0.1143
 3006SOL     OW11755   2.905   3.541   6.080 -0.2062 -0.5195  0.1631
 3006SOL    HW211756   2.889   3.620   6.028  1.1367 -1.3871 -1.6762
 3006SOL    HW311757   2.818   3.511   6.106 -0.7219  2.0319  1.7275
 3006SOL    MW411758   2.891   3.548   6.077  0.0953  0.4745 -0.0643
 3007SOL     OW11759   5.136   1.587   5.621  0.1368  0.0084 -0.0563
 3007SOL    HW211760   5.145   1.504   5.575  0.6050 -1.2467  2.1747
 3007SOL    HW311761   5.043   1.609   5.614 -0.1506 -1.1367  0.0042
 3007SOL    MW411762   5.125   1.579   5.614 -0.3070 -0.2361 -1.0747
 3008SOL     OW11763   6.409   0.396   3.522 -0.0182  0.4014  0.4306
 3008SOL    HW211764   6.426   0.338   3.447  0.6015  2.0701 -0.7867
 3008SOL    HW311765   6.438   0.482   3.492 -1.9288  1.5844  1.7703
 3008SOL    MW411766   6.415   0.400   3.508  0.2299  0.4879 -0.0133
 3009SOL     OW11767   5.105   3.119   5.352 -0.4278  0.8740 -0.0853
 3009SOL    HW211768   5.055   3.196   5.325 -1.5305  0.0342 -0.4689
 3009SOL    HW311769   5.145   3.145   5.435  0.8953  2.5748 -1.1633
 3009SOL    MW411770   5.104   3.133   5.359  0.5325 -0.3469 -0.4604
 3010SOL     OW11771   1.522   5.129   1.010 -0.5777 -0.3643 -0.3005
 3010SOL    HW211772   1.587   5.174   0.955  0.2543 -2.9345 -1.5659
 3010SOL    HW311773   1.572   5.101   1.087 -1.2652  1.3825  0.8549
 3010SOL    MW411774   1.537   5.131   1.013  0.1728 -0.1096  0.1186
 3011SOL     OW11775   3.198   6.336   5.752 -0.1526 -0.2585  0.4864
 3011SOL    HW211776   3.223   6.260   5.700 -0.5246  0.8072 -1.3339
 3011SOL    HW311777   3.114   6.364   5.714 -0.5292  0.4507  1.7926
 3011SOL    MW411778   3.190   6.330   5.740 -0.2985  0.2559  0.4020
 3012SOL     OW11779   2.658   1.618   2.615  0.0653 -0.2482  0.0958
 3012SOL    HW211780   2.664   1.523   2.605 -0.8533 -0.3803  0.6699
 3012SOL    HW311781   2.603   1.647   2.543 -1.5457 -0.4530  1.1994
 3012SOL    MW411782   2.652   1.609   2.604  0.0725 -0.3717  0.3234
 3013SOL     OW11783   0.502   1.660   4.050  0.0053  0.0255  0.2083
 3013SOL    HW211784   0.539   1.580   4.011  0.2202  0.3586 -0.2843
 3013SOL    HW311785   0.491   1.639   4.142 -1.8529 -1.2839 -0.2625
 3013SOL    MW411786   0.506   1.647   4.057  0.0911  0.0357 -0.0187
 3014SOL     OW11787   1.616   6.110   5.359  0.2953  0.6001 -0.4060
 3014SOL    HW211788   1.625   6.199   5.391  2.0828  0.3398 -0.0429
 3014SOL    HW311789   1.570   6.118   5.276 -1.4969  1.6142  0.6223
 3014SOL    MW411790   1.611   6.123   5.352 -0.6629 -0.3264  0.2291
 3015SOL     OW11791   1.165   5.985   3.347  0.0302  0.4406 -0.2902
 3015SOL    HW211792   1.236   6.045   3.322  0.9525 -0.2806  0.5671
 3015SOL    HW311793   1.103   5.991   3.274  0.9346  1.1268 -1.0323
 3015SOL    MW411794   1.166   5.994   3.334 -0.0155  0.2654 -0.5699
 3016SOL     OW11795   0.700   3.070   1.395 -0.1273 -0.0163  0.4419
 3016SOL    HW211796   0.645   2.992   1.404 -0.3764  0.0064 -0.6886
 3016SOL    HW311797   0.743   3.079   1.480 -1.7346 -0.1382  1.3216
 3016SOL    MW411798   0.698   3.061   1.407  0.6172  0.4822 -0.6680
 3017SOL     OW11799   2.016   0.590   5.161 -0.2572  0.1627  0.0409
 3017SOL    HW211800   1.980   0.588   5.249 -0.7684  0.4219 -0.1627
 3017SOL    HW311801   2.045   0.500   5.145  2.3868  0.6340  1.5092
 3017SOL    MW411802   2.015   0.578   5.170  0.0442  0.7812  0.2919
 3018SOL     OW11803   0.723   1.442   5.821  0.7061  0.3023  0.2854
 3018SOL    HW211804   0.679   1.521   5.852  0.9992  0.5092  0.1772
 3018SOL    HW311805   0.658   1.397   5.767  0.2298  0.0101  1.0711
 3018SOL    MW411806   0.709   1.446   5.818  0.1635  0.4182 -0.2362
 3019SOL     OW11807   6.275   5.806   3.844  0.5700 -0.0867  0.1804
 3019SOL    HW211808   6.219   5.801   3.921 -1.5388  0.7561 -1.2102
 3019SOL    HW311809   6.258   5.725   3.797 -2.4234  1.5960 -2.0244
 3019SOL    MW411810   6.265   5.795   3.848 -0.5189  0.2977 -0.0130
 3020SOL     OW11811   1.374   4.203   4.281  0.1738 -0.1142  0.0937
 3020SOL    HW211812   1.422   4.140   4.335 -0.1748 -0.1393  0.3807
 3020SOL    HW311813   1.415   4.288   4.301 -0.3904 -0.0192  0.9319
 3020SOL    MW411814   1.385   4.206   4.291 -0.0335 -0.1059  0.1764
 3021SOL     OW11815   6.271   5.779   1.846 -0.7250  0.0107  0.1450
 3021SOL    HW211816   6.183   5.743   1.845 -0.8154  0.1731  1.0877
 3021SOL    HW311817   6.306   5.754   1.932  0.7495 -1.4396 -0.8282
 3021SOL    MW411818   6.264   5.771   1.857  0.0906  0.7075  0.1197
 3022SOL     OW11819   4.626   2.445   0.033 -0.1945  0.0694 -0.3250
 3022SOL    HW211820   4.653   2.418   0.120  0.1911 -0.4406 -0.5960
 3022SOL    HW311821   4.601   2.537   0.042  0.9680  0.3634  0.0783
 3022SOL    MW411822   4.626   2.453   0.046 -0.5729  0.3490  0.3509
 3023SOL     OW11823   1.437   1.667   2.439  0.1711  0.4353  0.2016
 3023SOL    HW211824   1.507   1.715   2.482  0.4646  0.2339 -0.0399
 3023SOL    HW311825   1.398   1.613   2.508 -1.0758  2.0237  0.7938
 3023SOL    MW411826   1.441   1.666   2.453 -0.5896  0.2531  0.1250
 3024SOL     OW11827   2.861   0.995   1.974 -0.6959 -0.3832  0.1350
 3024SOL    HW211828   2.884   1.039   1.892  1.1652 -0.3001  0.6535
 3024SOL    HW311829   2.768   1.012   1.985 -0.3227  2.3733 -0.3272
 3024SOL    MW411830   2.852   1.003   1.965 -0.2097  0.2632 -0.2534
 3025SOL     OW11831   4.383   5.036   3.107  0.6808  0.2487 -0.0402
 3025SOL    HW211832   4.442   4.982   3.055  2.1921  1.6402  0.1751
 3025SOL    HW311833   4.440   5.083   3.168 -0.8579  0.1160  1.5785
 3025SOL    MW411834   4.398   5.035   3.108 -0.2930 -0.4828 -0.1025
 3026SOL     OW11835   5.589   1.115   4.609  0.3846  0.1441 -0.1748
 3026SOL    HW211836   5.659   1.054   4.635  0.9641  0.5021 -0.8748
 3026SOL    HW311837   5.561   1.155   4.691  2.2482  1.3195 -0.0730
 3026SOL    MW411838   5.594   1.112   4.623 -0.4122 -0.1567 -0.2692
 3027SOL     OW11839   1.787   2.125   5.561  0.2929 -0.6797 -0.0280
 3027SOL    HW211840   1.821   2.172   5.485 -0.9334 -1.1767 -0.9267
 3027SOL    HW311841   1.701   2.165   5.577  0.4536 -0.7164  0.9783
 3027SOL    MW411842   1.780   2.137   5.553 -0.1960 -0.0397 -0.4135
 3028SOL     OW11843   5.361   4.429   4.072 -0.1354 -0.0037  0.4604
 3028SOL    HW211844   5.287   4.378   4.040 -0.6860  0.5341  0.8474
 3028SOL    HW311845   5.323   4.489   4.136  0.6888  0.0494  0.9151
 3028SOL    MW411846   5.347   4.430   4.076 -0.6061 -0.1656  0.0193
 3029SOL     OW11847   3.937   0.777   5.776 -0.3164 -0.3876  0.7591
 3029SOL    HW211848   3.855   0.751   5.733 -0.0680  0.0546  0.0004
 3029SOL    HW311849   3.910   0.840   5.843 -0.4305  1.7067 -1.1039
 3029SOL    MW411850   3.922   0.782   5.779  0.5343  0.4511  0.2691
 3030SOL     OW11851   4.496   4.329   0.554  0.3297 -0.3312  0.1040
 3030SOL    HW211852   4.498   4.267   0.627  0.5780  0.0785  0.4474
 3030SOL    HW311853   4.451   4.281   0.484  0.0380 -0.7079  0.5403
 3030SOL    MW411854   4.490   4.314   0.554  0.2056 -0.2225 -0.5699
 3031SOL     OW11855   4.131   5.120   2.746  0.0064 -0.6900  0.6541
 3031SOL    HW211856   4.075   5.060   2.795  0.2182 -0.7368  0.8416
 3031SOL    HW311857   4.071   5.171   2.693 -0.1462 -1.3287  0.2027
 3031SOL    MW411858   4.116   5.119   2.746 -0.2487  0.6606  0.1507
 3032SOL     OW11859   5.947   6.438   5.295  0.2966  0.2063  0.0184
 3032SOL    HW211860   6.026   6.395   5.329 -0.8236 -0.2508  2.2123
 3032SOL    HW311861   5.892   6.366   5.264 -1.2452 -0.0246  2.9700
 3032SOL    MW411862   5.950   6.423   5.295 -0.3575  0.5878  0.5213
 3033SOL     OW11863   4.429   2.460   1.519 -0.4372  0.1133  0.5200
 3033SOL    HW211864   4.447   2.372   1.485 -0.0796  0.1260  0.6700
 3033SOL    HW311865   4.392   2.445   1.606  0.8642  0.1302  1.1073
 3033SOL    MW411866   4.427   2.446   1.526  0.3920  0.6362 -0.2250
 3034SOL     OW11867   1.404   3.228   3.306 -0.4531  0.0289  0.1339
 3034SOL    HW211868   1.426   3.195   3.219 -4.4144 -0.0190 -1.0414
 3034SOL    HW311869   1.319   3.269   3.295 -0.0378  2.2151  3.5648
 3034SOL    MW411870   1.396   3.229   3.293  0.2081 -0.2907 -0.1208
 3035SOL     OW11871   2.001   3.350   0.336  0.1376  0.2288 -0.0330
 3035SOL    HW211872   1.975   3.417   0.400  0.5509 -0.2396  0.6300
 3035SOL    HW311873   1.919   3.305   0.315  0.1004 -0.0748  0.7107
 3035SOL    MW411874   1.986   3.353   0.342  0.3927  0.2075  0.4281
 3036SOL     OW11875   2.983   1.453   4.537 -0.5529  0.0795  0.1693
 3036SOL    HW211876   2.970   1.417   4.449  1.5624 -2.0657  0.6075
 3036SOL    HW311877   3.040   1.528   4.524 -2.9486  1.8818 -0.5305
 3036SOL    MW411878   2.989   1.458   4.524  0.1272 -0.5493  0.2286
 3037SOL     OW11879   4.452   5.059   6.074 -0.0970  0.2499  0.3492
 3037SOL    HW211880   4.385   5.123   6.096 -0.9438 -0.3126 -0.5309
 3037SOL    HW311881   4.534   5.109   6.076 -0.8375  1.6327 -1.3305
 3037SOL    MW411882   4.454   5.074   6.078 -0.4634  0.2916  0.2325
 3038SOL     OW11883   0.302   5.573   5.595 -0.3331  0.2823  0.2543
 3038SOL    HW211884   0.233   5.536   5.540 -0.7651  1.3800  0.0177
 3038SOL    HW311885   0.280   5.666   5.600  0.9956  0.6000  0.3949
 3038SOL    MW411886   0.290   5.581   5.589  0.1646  0.4865 -0.4861
 3039SOL     OW11887   4.874   3.229   5.636  0.3536 -0.0776 -0.5081
 3039SOL    HW211888   4.903   3.317   5.659  3.2209 -0.7673 -1.0974
 3039SOL    HW311889   4.919   3.171   5.697 -0.8582 -1.2113 -0.6345
 3039SOL    MW411890   4.884   3.233   5.647  0.3902  0.2183  0.0921
 3040SOL     OW11891   1.159   1.399   4.794 -0.0768 -0.2432  0.3539
 3040SOL    HW211892   1.230   1.336   4.804  1.2987  1.3641  1.3671
 3040SOL    HW311893   1.095   1.375   4.861  0.7709 -0.1630  1.2136
 3040SOL    MW411894   1.160   1.388   4.804  0.4565  0.1425 -0.0164
 3041SOL     OW11895   4.956   2.046   4.525  0.2094 -0.0621 -0.2008
 3041SOL    HW211896   4.877   2.099   4.521 -0.2578 -0.7219  0.1245
 3041SOL    HW311897   4.938   1.971   4.469  0.7322 -0.0540 -0.3847
 3041SOL    MW411898   4.943   2.043   4.517 -0.1562  0.1520 -0.1494
 3042SOL     OW11899   0.908   4.155   3.717  0.4316 -0.1702  0.2175
 3042SOL    HW211900   0.970   4.196   3.657 -0.9727  0.1884 -1.0580
 3042SOL    HW311901   0.953   4.153   3.801  1.0071  3.0208  0.1010
 3042SOL    MW411902   0.922   4.160   3.720  0.0336 -0.1008  0.4571
 3043SOL     OW11903   1.440   0.049   2.696 -0.4894 -0.1936  0.1006
 3043SOL    HW211904   1.418   0.142   2.694  3.3784  0.8984  0.2216
 3043SOL    HW311905   1.447   0.023   2.604  1.0969  0.4623  0.0043
 3043SOL    MW411906   1.438   0.057   2.684 -0.1549 -0.4618 -0.0892
 3044SOL     OW11907   4.254   4.001   4.385  0.5193  0.1043  0.1735
 3044SOL    HW211908   4.302   4.084   4.390  0.2767  0.2592 -0.0042
 3044SOL    HW311909   4.166   4.027   4.357  0.8303 -0.3684 -1.2879
 3044SOL    MW411910   4.248   4.016   4.382  0.0498  0.3604 -0.1240
 3045SOL     OW11911   4.061   4.308   4.048  0.2156  0.2871  0.1703
 3045SOL    HW211912   4.056   4.295   3.953 -1.8445 -2.4252  0.5243
 3045SOL    HW311913   3.970   4.311   4.076  0.7916  0.4002  2.1514
 3045SOL    MW411914   4.048   4.307   4.039 -0.2237  0.2639  0.0905
 3046SOL     OW11915   1.675   5.114   5.271 -0.0618  1.0355  0.0994
 3046SOL    HW211916   1.615   5.100   5.197  0.2249 -0.9376  0.1843
 3046SOL    HW311917   1.621   5.099   5.349  0.5676 -1.3301  0.1698
 3046SOL    MW411918   1.660   5.110   5.271 -0.2728  0.0838  0.2807
 3047SOL     OW11919   0.312   4.476   0.918 -0.8247 -0.2017  0.3642
 3047SOL    HW211920   0.366   4.537   0.969 -0.2375  0.2469 -0.7504
 3047SOL    HW311921   0.326   4.391   0.960 -0.0416  0.0879  0.7081
 3047SOL    MW411922   0.321   4.472   0.930 -0.3620  0.1439  0.4198
 3048SOL     OW11923   5.422   0.759   4.743  1.3202  0.1822  0.1096
 3048SOL    HW211924   5.373   0.677   4.750  0.3841  0.7040 -0.1149
 3048SOL    HW311925   5.513   0.732   4.735  1.2021 -0.7990  1.6101
 3048SOL    MW411926   5.427   0.744   4.743  0.0969 -0.3839  0.4419
 3049SOL     OW11927   2.164   5.857   5.875 -0.3827 -0.0941  0.1786
 3049SOL    HW211928   2.097   5.889   5.936 -1.5026 -2.7557  0.4706
 3049SOL    HW311929   2.237   5.833   5.932 -0.1188  0.5117  0.1049
 3049SOL    MW411930   2.165   5.858   5.891 -0.3335 -0.3096 -0.0881
 3050SOL     OW11931   0.551   5.847   0.163 -0.2904 -0.2502  0.3465
 3050SOL    HW211932   0.633   5.850   0.213 -0.4954 -1.6658  0.8244
 3050SOL    HW311933   0.543   5.755   0.137 -1.4003  0.0051 -0.2614
 3050SOL    MW411934   0.561   5.835   0.166 -0.3812  0.2944  0.6670
 3051SOL     OW11935   0.512   5.219   4.599  0.4004 -0.5270  0.5743
 3051SOL    HW211936   0.557   5.297   4.632 -1.1054  0.4962  0.3414
 3051SOL    HW311937   0.557   5.146   4.641  1.7255  0.4634  0.9733
 3051SOL    MW411938   0.524   5.220   4.609 -0.2925  0.6244 -0.3071
 3052SOL     OW11939   3.718   6.061   5.602  0.2681  0.2649 -0.4386
 3052SOL    HW211940   3.754   6.104   5.680  1.7062  0.0440 -0.9635
 3052SOL    HW311941   3.641   6.113   5.580  0.2136  0.7232  0.7365
 3052SOL    MW411942   3.712   6.074   5.609  0.0256 -0.3561 -0.4668
 3053SOL     OW11943   1.782   5.542   1.328 -0.5953  0.1317 -0.6195
 3053SOL    HW211944   1.873   5.569   1.316 -1.1193  1.8751 -0.9363
 3053SOL    HW311945   1.772   5.532   1.423 -0.3349  0.9512 -0.4997
 3053SOL    MW411946   1.792   5.544   1.339  0.2394 -0.1758 -0.4506
 3054SOL     OW11947   5.332   2.785   0.741 -0.2370  0.1038  0.1515
 3054SOL    HW211948   5.378   2.798   0.658  1.8585  0.8040  1.3328
 3054SOL    HW311949   5.348   2.867   0.790 -0.8529 -0.5368  1.4771
 3054SOL    MW411950   5.340   2.798   0.737  0.1045 -0.2539 -0.1604
 3055SOL     OW11951   5.675   2.146   1.032  1.0932  0.4623 -0.0455
 3055SOL    HW211952   5.652   2.085   0.963 -0.2429 -1.7204  2.1667
 3055SOL    HW311953   5.746   2.199   0.995  2.7560 -2.7866 -1.9463
 3055SOL    MW411954   5.681   2.145   1.018 -0.3728 -0.1106 -0.2264
 3056SOL     OW11955   0.512   1.452   0.326  1.0164 -0.4243  0.4565
 3056SOL    HW211956   0.535   1.463   0.234  1.1700 -1.4489  0.3695
 3056SOL    HW311957   0.569   1.515   0.372  1.0379 -0.0082 -0.1230
 3056SOL    MW411958   0.523   1.462   0.320 -0.7412  0.4041 -0.3739
 3057SOL     OW11959   6.307   3.355   1.674 -0.1982 -0.3007 -0.8729
 3057SOL    HW211960   6.257   3.306   1.608 -1.2593  0.4940 -0.6960
 3057SOL    HW311961   6.300   3.301   1.753  0.0230 -0.6495 -1.0862
 3057SOL    MW411962   6.299   3.341   1.676  0.1175  0.6756 -0.5625
 3058SOL     OW11963   4.449   4.641   0.971  0.0525 -0.0276 -0.5340
 3058SOL    HW211964   4.522   4.688   0.931  1.1846 -1.3132 -0.0672
 3058SOL    HW311965   4.484   4.554   0.989 -0.9114 -0.0014  1.7487
 3058SOL    MW411966   4.463   4.636   0.968 -0.2379 -0.0355 -0.1874
 3059SOL     OW11967   1.733   2.759   2.467  0.3441  0.1747  0.5759
 3059SOL    HW211968   1.723   2.854   2.471 -0.4175  0.0699  1.3697
 3059SOL    HW311969   1.751   2.733   2.558  0.8275 -0.4093  0.3191
 3059SOL    MW411970   1.734   2.768   2.480 -0.1054  0.4039 -0.3647
 3060SOL     OW11971   0.019   0.325   0.806  0.1078 -0.3476  0.1143
 3060SOL    HW211972   0.037   0.231   0.801 -1.0869 -0.6031  0.2610
 3060SOL    HW311973   0.056   0.361   0.726  0.8073 -0.8894  0.1768
 3060SOL    MW411974   0.027   0.317   0.795 -0.0702 -0.3767 -0.3750
 3061SOL     OW11975   6.106   1.858   1.891 -0.5082 -0.6518 -0.1956
 3061SOL    HW211976   6.044   1.922   1.926 -0.3938 -1.5054  1.6652
 3061SOL    HW311977   6.051   1.797   1.841 -1.0681 -0.9294  0.7465
 3061SOL    MW411978   6.090   1.858   1.889  0.3941 -0.4174  0.1679
 3062SOL     OW11979   3.559   4.089   3.334 -0.4170  0.0114 -0.2908
 3062SOL    HW211980   3.515   4.108   3.250 -0.4294 -0.8817 -0.4925
 3062SOL    HW311981   3.504   4.132   3.399  1.3605  3.6809 -0.9412
 3062SOL    MW411982   3.546   4.098   3.331  0.5121  0.1462 -0.0693
 3063SOL     OW11983   0.397   0.562   5.301  0.1273  0.1943 -0.3991
 3063SOL    HW211984   0.490   0.554   5.319  0.3346  0.8203 -1.1987
 3063SOL    HW311985   0.375   0.483   5.251  0.5232  0.7193 -1.4142
 3063SOL    MW411986   0.406   0.550   5.297 -0.5266 -0.1447  0.3417
 3064SOL     OW11987   1.929   3.512   0.121  0.1904  0.1880  0.1551
 3064SOL    HW211988   1.963   3.451   0.186 -0.7715  0.6219  1.0791
 3064SOL    HW311989   1.991   3.505   0.048 -0.6326 -2.9101 -0.3869
 3064SOL    MW411990   1.942   3.503   0.120 -0.3620 -0.6493  0.1908
 3065SOL     OW11991   4.292   3.810   5.951 -0.3366  0.1424 -0.0235
 3065SOL    HW211992   4.246   3.775   6.027  0.9217  1.7807  1.6085
 3065SOL    HW311993   4.238   3.883   5.921 -1.6221 -1.4444 -1.7577
 3065SOL    MW411994   4.279   3.815   5.957 -0.3406  0.0634 -0.2296
 3066SOL     OW11995   0.408   5.176   1.703 -0.3639  0.5238  0.3835
 3066SOL    HW211996   0.472   5.221   1.759 -1.5128  0.0934  2.1345
 3066SOL    HW311997   0.368   5.110   1.761 -2.5289  0.9136 -0.5674
 3066SOL    MW411998   0.411   5.173   1.718 -0.2642  0.2689 -0.5341
 3067SOL     OW11999   1.203   6.189   6.192 -0.2291 -0.5745  0.0372
 3067SOL    HW212000   1.110   6.196   6.173 -0.3501 -1.5709  0.1840
 3067SOL    HW312001   1.221   6.095   6.188  0.7220 -0.4123  0.2264
 3067SOL    MW412002   1.193   6.177   6.189 -0.7476 -0.7322 -0.0888
 3068SOL     OW12003   1.365   5.253   3.237 -0.6643 -0.1661 -0.4658
 3068SOL    HW212004   1.319   5.281   3.316  0.2467 -0.3138  0.1278
 3068SOL    HW312005   1.302   5.199   3.190 -2.6668  3.0955 -1.8566
 3068SOL    MW412006   1.351   5.250   3.241  0.1802  0.2412 -0.3129
 3069SOL     OW12007   1.075   0.589   2.013 -0.6154 -0.4049  0.2507
 3069SOL    HW212008   1.080   0.516   1.952  1.7888  0.2579 -0.4797
 3069SOL    HW312009   0.987   0.624   2.002 -0.4439 -0.6370 -2.5253
 3069SOL    MW412010   1.064   0.584   2.004  0.6288  0.5939 -0.0159
 3070SOL     OW12011   4.164   3.659   1.707 -0.5822 -0.3434 -0.9569
 3070SOL    HW212012   4.250   3.631   1.739 -0.0992  0.8502 -1.1505
 3070SOL    HW312013   4.103   3.596   1.744  0.2500 -0.5212  0.1743
 3070SOL    MW412014   4.167   3.647   1.716  0.4487  0.0424 -0.2636
 3071SOL     OW12015   1.261   0.082   6.255  0.0952  0.4970  0.1505
 3071SOL    HW212016   1.236   0.134   6.179  0.9681 -0.9059 -1.1609
 3071SOL    HW312017   1.354   0.063   6.241 -0.3514 -2.0167  0.1596
 3071SOL    MW412018   1.270   0.086   6.243 -0.1747  0.0816 -0.5623
 3072SOL     OW12019   5.019   3.511   2.420  0.2203  0.1806  0.4315
 3072SOL    HW212020   4.971   3.471   2.493  1.6611  1.4960  2.1816
 3072SOL    HW312021   5.020   3.443   2.352  0.0218 -1.6278  2.1471
 3072SOL    MW412022   5.013   3.497   2.420 -0.2449 -0.1334 -0.4076
 3073SOL     OW12023   1.063   3.433   5.818 -0.5540 -0.0674  0.0119
 3073SOL    HW212024   1.149   3.474   5.818 -0.7222  0.3052  0.6177
 3073SOL    HW312025   1.053   3.396   5.730 -0.6117  1.6461 -0.7248
 3073SOL    MW412026   1.073   3.433   5.806  0.7462  0.3443  0.0117
 3074SOL     OW12027   2.298   5.444   2.511  0.1124  0.1134  0.1488
 3074SOL    HW212028   2.325   5.509   2.446 -0.2944  0.3924  0.2603
 3074SOL    HW312029   2.206   5.464   2.530 -0.8625 -2.0820 -1.7662
 3074SOL    MW412030   2.289   5.455   2.505 -0.2600 -0.1868  0.2565
 3075SOL     OW12031   5.213   0.355   5.616 -0.0742  0.2040 -0.6063
 3075SOL    HW212032   5.162   0.307   5.681 -0.8406  0.2710 -1.1339
 3075SOL    HW312033   5.161   0.348   5.536  1.0835 -0.2853 -1.3289
 3075SOL    MW412034   5.199   0.348   5.614 -0.0108  0.5012 -0.4093
 3076SOL     OW12035   3.730   3.081   1.625 -0.2446 -0.0417  0.4087
 3076SOL    HW212036   3.662   3.021   1.656 -0.6347  0.2087  0.0503
 3076SOL    HW312037   3.759   3.126   1.704 -0.5634 -0.0863  0.5551
 3076SOL    MW412038   3.725   3.079   1.640  0.3424 -0.4344 -0.2352
 3077SOL     OW12039   3.365   0.760   4.857  0.3002 -0.4561  0.3689
 3077SOL    HW212040   3.329   0.709   4.930  1.6889 -0.8778  0.7862
 3077SOL    HW312041   3.451   0.722   4.841  1.6851  2.1192  1.1303
 3077SOL    MW412042   3.372   0.748   4.865 -0.1135 -0.4881 -0.2146
 3078SOL     OW12043   6.312   6.039   4.380 -0.3642 -0.4211  0.4583
 3078SOL    HW212044   6.218   6.044   4.361 -0.4492  2.4360  1.1215
 3078SOL    HW312045   6.354   6.044   4.295 -0.8445  0.2772  0.2464
 3078SOL    MW412046   6.305   6.041   4.366  0.4427 -0.0815 -0.2059
 3079SOL     OW12047   6.414   1.423   0.158 -0.3075 -0.0962 -0.0887
 3079SOL    HW212048   6.498   1.388   0.188 -0.1264 -0.1243 -0.6147
 3079SOL    HW312049   6.385   1.362   0.090 -1.2993 -0.7065  0.8553
 3079SOL    MW412050   6.421   1.410   0.153  0.4753 -0.2504 -0.3223
 3080SOL     OW12051   4.750   6.115   4.601 -0.4870  0.1330 -0.2855
 3080SOL    HW212052   4.708   6.202   4.599 -1.1835 -0.1822  0.2156
 3080SOL    HW312053   4.838   6.131   4.567 -0.3339  1.1889  0.5475
 3080SOL    MW412054   4.756   6.129   4.596 -0.0863  0.3707  0.1642
 3081SOL     OW12055   5.299   0.808   4.158 -0.3044  0.3240  0.4055
 3081SOL    HW212056   5.350   0.877   4.199  0.4149 -1.2718  2.4177
 3081SOL    HW312057   5.217   0.850   4.132  1.4384  2.6614 -1.7441
 3081SOL    MW412058   5.295   0.822   4.160  0.0988 -0.2004 -0.0218
 3082SOL     OW12059   1.289   0.700   5.226  0.0381  0.2647 -0.0950
 3082SOL    HW212060   1.236   0.691   5.147 -0.9586 -1.0103  0.6827
 3082SOL    HW312061   1.231   0.672   5.297  1.5251 -0.5022  0.8685
 3082SOL    MW412062   1.274   0.695   5.225 -0.3074 -0.7235  0.4547
 3083SOL     OW12063   5.182   4.981   1.170 -0.0948 -0.1512 -0.0518
 3083SOL    HW212064   5.192   4.954   1.079  0.2148 -1.7665  0.4266
 3083SOL    HW312065   5.267   4.963   1.210 -0.4101 -0.0288  0.6857
 3083SOL    MW412066   5.195   4.975   1.163  0.4968 -0.0467 -0.5469
 3084SOL     OW12067   0.219   2.793   5.424 -0.6350 -0.0249  0.0597
 3084SOL    HW212068   0.271   2.789   5.504  1.3135 -1.0486 -1.1732
 3084SOL    HW312069   0.140   2.744   5.444 -1.0709  1.3106  1.9060
 3084SOL    MW412070   0.215   2.786   5.437 -0.0725  0.1179  0.0918
 3085SOL     OW12071   4.023   3.431   4.152  0.3922 -0.5916 -0.2899
 3085SOL    HW212072   4.054   3.404   4.239  0.2713 -1.0045 -0.3706
 3085SOL    HW312073   4.052   3.361   4.094 -2.5327 -2.1638 -0.0626
 3085SOL    MW412074   4.031   3.418   4.156  0.2759 -0.4364 -0.2670
 3086SOL     OW12075   2.267   5.528   5.619 -0.6276  0.2382  0.2712
 3086SOL    HW212076   2.318   5.568   5.689 -0.0790 -0.4793  0.2854
 3086SOL    HW312077   2.272   5.434   5.636  2.0608 -0.2342 -2.3886
 3086SOL    MW412078   2.274   5.521   5.630  0.2584 -0.5329  0.3120
 3087SOL     OW12079   3.345   0.436   3.490 -0.5969  0.0685  0.4724
 3087SOL    HW212080   3.270   0.470   3.440  0.3117  0.7269 -0.4913
 3087SOL    HW312081   3.413   0.502   3.478  0.9439 -1.6455 -0.7250
 3087SOL    MW412082   3.344   0.450   3.482  0.2921  0.0504 -0.8469
 3088SOL     OW12083   5.839   5.996   1.885  0.1439  0.1471 -0.3724
 3088SOL    HW212084   5.759   5.962   1.846  0.1032 -1.1095  0.7168
 3088SOL    HW312085   5.837   6.090   1.867 -0.0105 -0.3098 -3.0347
 3088SOL    MW412086   5.828   6.004   1.878  0.4182 -0.0406  0.3213
 3089SOL     OW12087   2.769   2.854   4.648  0.3000  0.0899 -0.8248
 3089SOL    HW212088   2.788   2.922   4.713  1.1926 -0.5862 -0.3629
 3089SOL    HW312089   2.680   2.825   4.669 -0.4275  1.6485 -1.5344
 3089SOL    MW412090   2.760   2.859   4.659 -0.5577  0.0944 -0.1108
 3090SOL     OW12091   4.845   3.846   5.965  0.0947  0.2010  0.4609
 3090SOL    HW212092   4.837   3.894   6.048 -1.0175  0.0272  0.4716
 3090SOL    HW312093   4.840   3.754   5.991  2.3870  0.0251  0.4596
 3090SOL    MW412094   4.843   3.840   5.980 -0.3206 -0.1578  0.2714
 3091SOL     OW12095   3.827   3.776   0.568 -0.1750 -0.2770 -0.8543
 3091SOL    HW212096   3.909   3.810   0.532 -0.2718 -0.7313 -1.5216
 3091SOL    HW312097   3.777   3.854   0.592  0.8436 -0.0042  0.4852
 3091SOL    MW412098   3.831   3.791   0.566 -0.0579 -0.3732 -0.1566
 3092SOL     OW12099   1.911   1.752   0.812  0.7377 -0.3386 -0.1425
 3092SOL    HW212100   1.993   1.757   0.861  1.2392 -0.5453 -0.9329
 3092SOL    HW312101   1.909   1.833   0.761  0.4772 -0.3626 -0.1699
 3092SOL    MW412102   1.922   1.763   0.812 -0.2623  0.3180  0.5017
 3093SOL     OW12103   0.703   1.856   4.948  0.1144 -0.0700  0.3575
 3093SOL    HW212104   0.704   1.851   5.044 -0.3940 -0.4889  0.3460
 3093SOL    HW312105   0.744   1.775   4.919  1.4958  0.6490  0.2161
 3093SOL    MW412106   0.709   1.845   4.957 -0.2783 -0.4218  0.0498
 3094SOL     OW12107   0.724   0.072   4.370 -0.0439  0.1925 -0.2334
 3094SOL    HW212108   0.657   0.137   4.350 -0.3566  0.2955  1.0563
 3094SOL    HW312109   0.743   0.085   4.463  0.4823 -1.0057 -0.1552
 3094SOL    MW412110   0.718   0.082   4.380  0.2652  0.2414 -0.1203
 3095SOL     OW12111   0.701   2.528   0.764  0.4400  0.0658  0.4873
 3095SOL    HW212112   0.647   2.599   0.799 -0.0529 -0.3957  0.6803
 3095SOL    HW312113   0.740   2.487   0.841  0.7715  0.1535  0.3721
 3095SOL    MW412114   0.699   2.532   0.778  0.1981  0.8391 -0.3824
 3096SOL     OW12115   5.184   5.251   3.266  0.1765  0.0843 -0.4308
 3096SOL    HW212116   5.276   5.230   3.283 -0.1272 -0.0445  1.1966
 3096SOL    HW312117   5.183   5.282   3.176  2.2023  2.2998  0.2216
 3096SOL    MW412118   5.196   5.252   3.257 -0.4370 -0.0345 -0.3314
 3097SOL     OW12119   1.331   5.640   1.254 -0.0872 -0.1828  0.4694
 3097SOL    HW212120   1.287   5.692   1.188 -1.4975 -0.1415  1.3959
 3097SOL    HW312121   1.360   5.561   1.208  2.0370  1.3362 -0.9398
 3097SOL    MW412122   1.329   5.636   1.239 -0.2962 -0.3748  0.1870
 3098SOL     OW12123   5.096   5.279   1.708 -0.2568  0.1604  0.4599
 3098SOL    HW212124   5.056   5.350   1.658  0.4392  0.7401  0.7128
 3098SOL    HW312125   5.026   5.215   1.719  0.2097 -1.3190 -3.6053
 3098SOL    MW412126   5.082   5.280   1.703 -0.1853 -0.7733  0.2454
 3099SOL     OW12127   0.745   3.520   2.246 -0.0194 -1.1762  0.1879
 3099SOL    HW212128   0.704   3.452   2.192 -1.2121 -0.1494 -0.2514
 3099SOL    HW312129   0.734   3.489   2.336 -3.4617 -0.1531  0.2444
 3099SOL    MW412130   0.738   3.507   2.251  0.3621 -0.0500  0.2946
 3100SOL     OW12131   5.814   4.865   1.503 -0.3951  0.4672 -0.2607
 3100SOL    HW212132   5.894   4.824   1.537 -0.7098 -0.2685 -0.3751
 3100SOL    HW312133   5.833   4.883   1.411 -1.1266 -1.8460 -0.9269
 3100SOL    MW412134   5.827   4.862   1.496 -0.0212 -0.5924  0.0098
 3101SOL     OW12135   1.710   3.041   2.811  0.4355 -0.1995  0.0286
 3101SOL    HW212136   1.738   2.961   2.766  1.0164  0.7349 -1.3051
 3101SOL    HW312137   1.615   3.041   2.802  0.5743  0.3541 -1.9394
 3101SOL    MW412138   1.701   3.030   2.804 -0.3994 -0.0583  0.0765
 3102SOL     OW12139   3.460   1.097   4.251  0.0986  0.1854 -0.0674
 3102SOL    HW212140   3.425   1.185   4.267 -2.0587 -0.5777 -0.3235
 3102SOL    HW312141   3.477   1.095   4.157 -0.8114  0.0195 -0.2372
 3102SOL    MW412142   3.457   1.108   4.241 -0.2182 -0.2308 -0.5888
 3103SOL     OW12143   2.769   6.367   3.574  0.3290 -0.0294  0.2082
 3103SOL    HW212144   2.850   6.392   3.618  0.3464  1.2465 -0.5002
 3103SOL    HW312145   2.796   6.306   3.505  0.4558 -0.9705  1.0610
 3103SOL    MW412146   2.783   6.362   3.571 -0.1950 -0.5685  0.0574
 3104SOL     OW12147   3.217   4.326   5.863 -0.9015 -0.5804 -0.3481
 3104SOL    HW212148   3.301   4.287   5.837 -0.5625 -2.4401  2.9714
 3104SOL    HW312149   3.238   4.417   5.884  0.5288 -1.2111  1.1503
 3104SOL    MW412150   3.231   4.333   5.862  0.0207 -0.0284  0.5639
 3105SOL     OW12151   3.882   0.796   3.249 -0.0526 -0.1627  0.4205
 3105SOL    HW212152   3.879   0.789   3.153 -1.3830 -0.4296  0.4565
 3105SOL    HW312153   3.793   0.821   3.274 -0.2814 -2.0262  1.7052
 3105SOL    MW412154   3.870   0.798   3.239  0.0149 -0.2178 -0.1944
 3106SOL     OW12155   2.977   5.179   5.871  0.5357 -0.0114  0.0380
 3106SOL    HW212156   3.015   5.120   5.806  0.4054 -0.4218  0.3300
 3106SOL    HW312157   2.894   5.138   5.894  0.7933 -0.1208  0.8084
 3106SOL    MW412158   2.971   5.166   5.866 -0.7120  0.2565  0.3069
 3107SOL     OW12159   2.557   3.585   2.590  0.7083 -0.0295 -0.0915
 3107SOL    HW212160   2.527   3.563   2.502  1.4560 -0.5357 -0.2343
 3107SOL    HW312161   2.499   3.535   2.648 -0.3300  0.9580 -0.2461
 3107SOL    MW412162   2.546   3.575   2.586  0.3363 -0.0304 -0.0423
 3108SOL     OW12163   6.125   4.276   1.830 -0.1939  0.2307  0.0032
 3108SOL    HW212164   6.080   4.292   1.914 -0.0664  3.3815 -0.4086
 3108SOL    HW312165   6.196   4.340   1.829  1.8332 -1.8852 -1.1927
 3108SOL    MW412166   6.128   4.286   1.841  1.0325  0.0774  0.1699
 3109SOL     OW12167   2.920   1.363   3.348 -0.4302  0.6952 -0.4009
 3109SOL    HW212168   2.836   1.410   3.345 -1.3705 -0.9375 -0.5036
 3109SOL    HW312169   2.909   1.299   3.418 -0.1391 -1.1128 -1.9524
 3109SOL    MW412170   2.907   1.361   3.357 -0.5533  0.0259  0.3408
 3110SOL     OW12171   0.941   5.667   1.101 -0.2599 -0.3423  0.1998
 3110SOL    HW212172   0.936   5.572   1.094  0.1092 -0.5162  1.7898
 3110SOL    HW312173   0.871   5.690   1.163 -0.9804  0.5453 -0.8961
 3110SOL    MW412174   0.931   5.658   1.108 -0.6907 -0.3111  0.1544
 3111SOL     OW12175   3.545   1.233   3.689 -0.8284 -0.0748  0.2597
 3111SOL    HW212176   3.582   1.271   3.609 -1.9358 -0.2415 -0.3476
 3111SOL    HW312177   3.577   1.143   3.689  1.6202  0.6949  1.5893
 3111SOL    MW412178   3.554   1.226   3.678 -0.2421  0.1219  0.0170
 3112SOL     OW12179   1.320   6.291   0.053  0.2828  0.0676 -0.2488
 3112SOL    HW212180   1.276   6.278  -0.030  0.3976 -0.0570 -0.2909
 3112SOL    HW312181   1.407   6.324   0.029  0.1081  0.6091 -0.1551
 3112SOL    MW412182   1.326   6.293   0.039  0.1946 -0.7060  0.3830
 3113SOL     OW12183   2.806   1.744   0.265 -0.4089  0.3157  0.4649
 3113SOL    HW212184   2.712   1.762   0.266 -0.7274 -0.9987 -1.4719
 3113SOL    HW312185   2.825   1.720   0.175  2.2860  2.7965  0.2461
 3113SOL    MW412186   2.796   1.743   0.253  0.3084  0.0714  0.0877
 3114SOL     OW12187   5.985   3.123   3.439 -0.1900  0.2328  0.0711
 3114SOL    HW212188   5.924   3.097   3.371 -1.6931  0.1211  1.4102
 3114SOL    HW312189   6.034   3.043   3.460 -1.2033 -0.2670  0.5810
 3114SOL    MW412190   5.984   3.109   3.433 -0.6651  0.2457 -0.1281
 3115SOL     OW12191   0.527   3.402   3.125  0.2364  0.3960  0.5275
 3115SOL    HW212192   0.623   3.407   3.127  0.1877  3.1413 -0.3358
 3115SOL    HW312193   0.501   3.426   3.214  0.3490  1.7249  0.2223
 3115SOL    MW412194   0.536   3.406   3.137 -0.1839  0.0741 -0.4515
 3116SOL     OW12195   5.183   5.784   1.695  0.5538  0.2717  0.2254
 3116SOL    HW212196   5.247   5.718   1.723 -0.5818 -0.9615  0.0577
 3116SOL    HW312197   5.234   5.864   1.683  1.7419 -0.1501  1.9792
 3116SOL    MW412198   5.198   5.785   1.697 -0.1690 -0.3451  0.1160
 3117SOL     OW12199   4.449   1.361   1.002  0.2311 -0.0038  0.1443
 3117SOL    HW212200   4.406   1.292   1.054  0.7553 -2.1809 -2.1443
 3117SOL    HW312201   4.385   1.384   0.935  0.1313  1.6902  0.7814
 3117SOL    MW412202   4.435   1.355   1.000  0.3380  0.5326  0.3846
 3118SOL     OW12203   0.169   1.147   0.368  0.2620 -0.1045 -0.3625
 3118SOL    HW212204   0.234   1.193   0.315  1.3630 -0.8601  0.2955
 3118SOL    HW312205   0.144   1.210   0.436  2.9909 -0.9145  1.5479
 3118SOL    MW412206   0.174   1.162   0.370  0.3595  0.0369  0.2644
 3119SOL     OW12207   2.535   3.438   1.172  0.7092 -1.0754  0.3355
 3119SOL    HW212208   2.534   3.359   1.227  0.3789 -0.7528  0.8040
 3119SOL    HW312209   2.627   3.449   1.150  0.8682 -1.1568  0.9169
 3119SOL    MW412210   2.547   3.429   1.177 -0.1772 -0.4430 -0.4143
 3120SOL     OW12211   1.659   1.191   2.836  0.0307 -0.0109  0.3458
 3120SOL    HW212212   1.659   1.282   2.805 -0.4310 -0.6578 -1.6814
 3120SOL    HW312213   1.638   1.198   2.930 -0.3298  1.9336  0.1668
 3120SOL    MW412214   1.656   1.204   2.845  0.2781 -0.1162 -0.2456
 3121SOL     OW12215   3.918   3.648   0.006  0.3144  0.9221 -0.5089
 3121SOL    HW212216   3.862   3.691  -0.059 -0.2314  1.2453  0.1580
 3121SOL    HW312217   3.999   3.699   0.006  0.1281  1.2175 -0.5875
 3121SOL    MW412218   3.921   3.660  -0.002 -0.1976 -0.1354  0.3174
 3122SOL     OW12219   0.160   5.970   4.722  0.0291  0.1852 -0.0092
 3122SOL    HW212220   0.219   6.039   4.692  1.4279 -1.0998 -0.3484
 3122SOL    HW312221   0.131   5.927   4.641 -0.6286  0.2028  0.2127
 3122SOL    MW412222   0.164   5.973   4.707  0.4355 -0.3432 -0.1187
 3123SOL     OW12223   6.212   5.927   1.123  0.6016  0.0809  0.3748
 3123SOL    HW212224   6.291   5.926   1.069  0.2848 -2.2618 -0.1699
 3123SOL    HW312225   6.140   5.925   1.061  0.0689  1.7567  0.8817
 3123SOL    MW412226   6.213   5.926   1.108  0.5431 -0.6058 -1.0490
 3124SOL     OW12227   4.668   2.186   5.461  0.2538  0.0412  0.4554
 3124SOL    HW212228   4.667   2.096   5.493  0.8001  0.5802  2.0962
 3124SOL    HW312229   4.625   2.236   5.531  0.5935  1.1467 -0.1097
 3124SOL    MW412230   4.662   2.181   5.475 -0.2711 -0.1216 -0.0480
 3125SOL     OW12231   5.234   1.265   6.228  0.5628 -0.8073 -0.4332
 3125SOL    HW212232   5.162   1.210   6.199 -0.3313  0.0987 -0.0108
 3125SOL    HW312233   5.218   1.278   6.322  1.3079 -0.6417 -0.3226
 3125SOL    MW412234   5.222   1.260   6.237 -0.2988 -0.1190  0.5613
 3126SOL     OW12235   3.123   5.869   6.283 -0.4854 -0.6662  0.1238
 3126SOL    HW212236   3.139   5.797   6.222 -2.0506 -2.0349  1.2642
 3126SOL    HW312237   3.184   5.853   6.355 -0.1796 -0.2857 -0.0412
 3126SOL    MW412238   3.133   5.858   6.284  0.2860 -0.6695 -0.2913
 3127SOL     OW12239   6.381   3.498   6.062 -0.1031  0.4198  0.2384
 3127SOL    HW212240   6.295   3.537   6.047 -0.4322  0.0979  1.2131
 3127SOL    HW312241   6.363   3.408   6.090  0.6558 -0.5904 -2.2433
 3127SOL    MW412242   6.368   3.491   6.064 -0.0435 -0.7726 -0.3477
 3128SOL     OW12243   1.500   4.446   0.160  0.1818 -0.3903 -0.5316
 3128SOL    HW212244   1.423   4.411   0.203  0.2930 -1.4229 -1.1281
 3128SOL    HW312245   1.491   4.419   0.068  1.5456 -1.0887 -0.4879
 3128SOL    MW412246   1.489   4.438   0.153 -0.3209  0.3996  0.1774
 3129SOL     OW12247   5.310   4.024   2.723 -0.2477  0.0229  0.4640
 3129SOL    HW212248   5.385   4.067   2.681 -0.7009  0.0298 -0.3515
 3129SOL    HW312249   5.335   3.932   2.727  0.3144  0.1943  1.3295
 3129SOL    MW412250   5.324   4.018   2.718  0.3634  0.0283 -0.0193
 3130SOL     OW12251   3.672   1.599   0.913 -0.0612  0.3621 -0.7082
 3130SOL    HW212252   3.596   1.580   0.968 -0.4348  2.2659 -0.4704
 3130SOL    HW312253   3.639   1.659   0.846  1.0921  0.7832 -0.9313
 3130SOL    MW412254   3.658   1.605   0.912  0.6817  0.0747 -0.0297
 3131SOL     OW12255   2.592   4.091   0.355 -0.2321  0.1769 -0.1598
 3131SOL    HW212256   2.570   4.004   0.388 -1.7053  0.6297  0.0941
 3131SOL    HW312257   2.686   4.101   0.375 -0.2111 -1.0708  0.4348
 3131SOL    MW412258   2.602   4.081   0.362 -0.3313  0.1338  0.3607
 3132SOL     OW12259   0.481   4.527   0.242  0.0153  0.4978  0.0396
 3132SOL    HW212260   0.554   4.589   0.232  0.9616 -0.7145 -0.9640
 3132SOL    HW312261   0.478   4.481   0.158  0.2287 -1.7487  1.1984
 3132SOL    MW412262   0.490   4.529   0.229 -0.2506 -0.4750 -0.5422
 3133SOL     OW12263   4.337   0.363   2.939 -0.6030  0.3659 -0.0441
 3133SOL    HW212264   4.255   0.378   2.986 -0.2247 -0.5593  0.9445
 3133SOL    HW312265   4.404   0.404   2.993  0.0037 -1.8342  0.9872
 3133SOL    MW412266   4.335   0.370   2.952 -0.5270 -0.0456 -0.7468
 3134SOL     OW12267   3.807   3.242   5.210 -0.5635 -0.5889 -0.5976
 3134SOL    HW212268   3.713   3.220   5.210 -0.3087 -1.8135  0.4172
 3134SOL    HW312269   3.841   3.200   5.131 -1.1513  1.3901 -1.9781
 3134SOL    MW412270   3.799   3.233   5.200  0.3339  0.6784  0.1730
 3135SOL     OW12271   0.960   3.626   4.592  0.4494 -0.0178  0.6297
 3135SOL    HW212272   1.056   3.616   4.590  0.5667  1.0851 -0.2254
 3135SOL    HW312273   0.947   3.721   4.594 -0.6340 -0.1686  0.8751
 3135SOL    MW412274   0.971   3.637   4.592 -0.1173 -0.1651 -0.3434
 3136SOL     OW12275   2.692   2.479   5.318 -0.1440 -0.7461 -0.0676
 3136SOL    HW212276   2.706   2.573   5.328 -3.4543 -0.1533  0.0874
 3136SOL    HW312277   2.776   2.446   5.288  1.5256  2.0271  1.1237
 3136SOL    MW412278   2.705   2.487   5.315  0.4643 -0.0820 -0.2762
 3137SOL     OW12279   6.109   4.829   1.243 -0.1722  0.4001  0.0157
 3137SOL    HW212280   6.176   4.865   1.300  0.1881  1.2585 -0.9158
 3137SOL    HW312281   6.159   4.781   1.176 -0.6071 -1.1279  0.7262
 3137SOL    MW412282   6.125   4.827   1.241  0.6194  0.3194  0.2289
 3138SOL     OW12283   2.059   1.620   5.400  0.0462  0.1218 -0.0707
 3138SOL    HW212284   1.992   1.659   5.344 -0.0920 -0.9687 -0.6887
 3138SOL    HW312285   2.139   1.622   5.347  0.1683  0.0866  0.1110
 3138SOL    MW412286   2.061   1.625   5.386  0.3347 -0.0255  0.2831
 3139SOL     OW12287   1.848   5.801   5.558  0.5305  0.3032  0.5313
 3139SOL    HW212288   1.879   5.720   5.597 -0.1201 -1.0348 -1.5468
 3139SOL    HW312289   1.909   5.817   5.485 -0.7306  0.3318 -0.5553
 3139SOL    MW412290   1.860   5.793   5.553 -0.1351  0.1333 -0.2007
 3140SOL     OW12291   4.053   0.485   6.386 -0.0746  0.5024  0.0093
 3140SOL    HW212292   3.998   0.489   6.308 -1.3048  0.1118  0.8400
 3140SOL    HW312293   4.015   0.549   6.446  0.6157  0.5088  0.4600
 3140SOL    MW412294   4.041   0.494   6.384  0.9278  0.4472  0.3224
 3141SOL     OW12295   0.343   2.753   0.722 -0.1304  0.6263 -0.1422
 3141SOL    HW212296   0.265   2.707   0.752  1.1412 -0.5866  1.4932
 3141SOL    HW312297   0.317   2.793   0.639 -1.7060 -2.0165 -1.0618
 3141SOL    MW412298   0.330   2.752   0.715 -0.5946 -0.1025  0.0389
 3142SOL     OW12299   1.045   1.926   5.568  0.4657 -0.6811  0.4990
 3142SOL    HW212300   1.131   1.953   5.536  0.7132 -0.0611  1.6488
 3142SOL    HW312301   1.036   1.969   5.653  0.2252 -3.0340  1.7260
 3142SOL    MW412302   1.055   1.936   5.575 -0.2488 -0.3848  0.0471
 3143SOL     OW12303   3.524   0.983   0.700  0.3244 -0.3321 -0.1803
 3143SOL    HW212304   3.522   1.075   0.674  1.1880 -0.3322 -0.2555
 3143SOL    HW312305   3.601   0.947   0.656  0.6841 -0.7990  0.8088
 3143SOL    MW412306   3.534   0.991   0.691  0.3226  0.1056 -0.4085
 3144SOL     OW12307   0.780   4.347   0.822 -0.4919 -0.3806  0.1502
 3144SOL    HW212308   0.712   4.289   0.853  0.0544 -1.7805 -1.1548
 3144SOL    HW312309   0.806   4.398   0.900 -2.1774 -0.6273  0.9122
 3144SOL    MW412310   0.775   4.346   0.837  0.5300 -0.0967 -0.0928
 3145SOL     OW12311   2.754   2.470   6.031 -0.3919  0.3050  0.3556
 3145SOL    HW212312   2.846   2.496   6.029  0.1708 -1.5366 -1.6971
 3145SOL    HW312313   2.730   2.458   5.939 -3.5350  3.2358  0.5830
 3145SOL    MW412314   2.763   2.472   6.019 -0.1535  0.3587  0.2898
 3146SOL     OW12315   0.219   3.705   0.786  0.1925  0.2064 -0.5292
 3146SOL    HW212316   0.125   3.687   0.789  0.1899 -0.3197 -2.3899
 3146SOL    HW312317   0.248   3.696   0.877 -1.6460  1.0521  0.2103
 3146SOL    MW412318   0.210   3.702   0.799 -0.1491  0.5311  0.4754
 3147SOL     OW12319   1.103   2.117   0.533  0.0211 -0.1781 -0.2921
 3147SOL    HW212320   1.058   2.060   0.596 -0.5871 -0.9396 -1.3920
 3147SOL    HW312321   1.085   2.206   0.564  0.6623 -0.5309  1.2340
 3147SOL    MW412322   1.095   2.121   0.546 -0.0743 -0.6675  0.0905
 3148SOL     OW12323   0.185   3.646   6.152 -0.3736 -0.3621 -0.1420
 3148SOL    HW212324   0.239   3.583   6.199  0.4148 -0.7167 -1.4830
 3148SOL    HW312325   0.104   3.599   6.132 -1.1125  0.0780  1.6081
 3148SOL    MW412326   0.181   3.632   6.155 -0.0342  0.3876  0.3292
 3149SOL     OW12327   6.073   3.610   0.104  0.2473  0.3100  0.1641
 3149SOL    HW212328   6.151   3.569   0.140  1.7746  3.1913  0.4248
 3149SOL    HW312329   6.023   3.638   0.182 -1.3554 -1.8928  0.0115
 3149SOL    MW412330   6.076   3.608   0.119  0.4971 -0.0567 -0.2680
 3150SOL     OW12331   5.583   0.289   1.027 -0.2703  0.0081  0.1371
 3150SOL    HW212332   5.497   0.303   0.988 -0.9913  1.8477  2.2037
 3150SOL    HW312333   5.643   0.337   0.971 -0.6636 -0.6382 -0.8765
 3150SOL    MW412334   5.579   0.297   1.014 -0.4384 -0.4628  0.2025
 3151SOL     OW12335   0.349   1.133   3.438  0.0660 -0.3653 -0.6556
 3151SOL    HW212336   0.267   1.099   3.402  0.4656 -0.3347 -1.6332
 3151SOL    HW312337   0.349   1.104   3.529 -1.4791  0.4506 -0.3563
 3151SOL    MW412338   0.338   1.125   3.445 -0.1257 -0.0349  0.8982
 3152SOL     OW12339   0.392   0.956   3.993 -0.0949  0.0312  0.1868
 3152SOL    HW212340   0.432   0.874   3.964 -1.5829 -0.4300 -0.6456
 3152SOL    HW312341   0.415   0.962   4.086 -0.0522 -1.3966  0.2878
 3152SOL    MW412342   0.400   0.946   4.002 -0.3071 -0.4797  0.3552
 3153SOL     OW12343   5.077   4.778   2.109 -0.0416  0.4320  0.3567
 3153SOL    HW212344   5.150   4.778   2.170  0.3114 -0.8423 -0.0262
 3153SOL    HW312345   5.053   4.685   2.101  0.1427  0.5224 -1.6741
 3153SOL    MW412346   5.083   4.765   2.116 -0.0441 -0.2648 -0.0877
 3154SOL     OW12347   4.153   0.196   0.912 -0.2688 -0.3325 -0.5489
 3154SOL    HW212348   4.119   0.189   1.001 -2.1238  1.1600 -1.0605
 3154SOL    HW312349   4.076   0.182   0.856  0.4021  0.8508 -1.8515
 3154SOL    MW412350   4.138   0.193   0.916  0.4402 -0.7281  0.0089
 3155SOL     OW12351   2.222   1.418   3.526  0.0063  0.1471  0.2033
 3155SOL    HW212352   2.219   1.341   3.583 -0.8384  0.6544  0.8928
 3155SOL    HW312353   2.263   1.388   3.446 -0.4025 -1.0532  0.4221
 3155SOL    MW412354   2.227   1.404   3.523  0.0632  0.4405 -0.3662
 3156SOL     OW12355   2.110   5.949   2.622 -0.1959  0.1215  0.4353
 3156SOL    HW212356   2.057   5.984   2.550  1.7770  0.9986 -0.6746
 3156SOL    HW312357   2.153   6.026   2.659  1.8349 -0.7308 -0.0226
 3156SOL    MW412358   2.109   5.964   2.617 -0.0273  0.3052 -0.3803
 3157SOL     OW12359   6.216   1.528   1.962 -0.1488 -0.1909  0.3015
 3157SOL    HW212360   6.182   1.614   1.937  0.0176 -0.0745  0.4666
 3157SOL    HW312361   6.147   1.467   1.939 -0.2535 -0.0169  0.1459
 3157SOL    MW412362   6.203   1.531   1.956  0.0880 -1.0111  0.1911
 3158SOL     OW12363   2.281   1.270   6.410 -0.0627  0.0159  0.3527
 3158SOL    HW212364   2.297   1.188   6.455  0.1649 -0.1393 -0.0050
 3158SOL    HW312365   2.303   1.252   6.318 -1.7602 -0.0617 -0.0882
 3158SOL    MW412366   2.286   1.257   6.404  0.6274 -0.4246  0.0479
 3159SOL     OW12367   0.631   3.346   4.112  0.1958  0.3522  0.0092
 3159SOL    HW212368   0.721   3.312   4.107 -0.0172 -0.2479  0.2218
 3159SOL    HW312369   0.605   3.355   4.020 -0.0148 -0.7895 -0.0479
 3159SOL    MW412370   0.640   3.343   4.099 -0.2761  0.6233 -0.2692
 3160SOL     OW12371   4.769   3.517   4.878  0.1309  0.2222  0.0059
 3160SOL    HW212372   4.820   3.545   4.802 -1.3968  2.5201 -0.2401
 3160SOL    HW312373   4.684   3.559   4.868 -0.7472 -0.8961  2.0629
 3160SOL    MW412374   4.765   3.526   4.867  0.0054 -0.0074  0.1172
 3161SOL     OW12375   5.396   4.343   3.300  0.3933 -0.6129  0.2072
 3161SOL    HW212376   5.338   4.360   3.226  1.8361  0.6235 -0.6712
 3161SOL    HW312377   5.429   4.254   3.285 -1.6753 -1.6085  1.0593
 3161SOL    MW412378   5.393   4.333   3.288 -0.0599 -0.1888 -0.5127
 3162SOL     OW12379   2.293   5.322   0.081  0.2669 -0.1543 -0.0447
 3162SOL    HW212380   2.312   5.242   0.032 -0.7103 -1.1249  1.1204
 3162SOL    HW312381   2.204   5.345   0.056  0.0140 -0.2630  0.7496
 3162SOL    MW412382   2.284   5.315   0.071  0.3244  0.2684 -0.0375
 3163SOL     OW12383   0.976   4.383   5.386  0.4041  0.4380 -0.1969
 3163SOL    HW212384   0.964   4.474   5.359  0.0348  0.6997  0.8266
 3163SOL    HW312385   0.953   4.382   5.479  1.8682 -0.3938  0.1848
 3163SOL    MW412386   0.972   4.395   5.394  0.2605 -0.1982  0.0401
 3164SOL     OW12387   3.047   3.988   4.325  0.2125  0.1532 -0.6179
 3164SOL    HW212388   3.085   3.901   4.338  0.3020  0.3186  0.3341
 3164SOL    HW312389   2.955   3.978   4.347  0.4852  0.5741  0.8073
 3164SOL    MW412390   3.040   3.975   4.330  0.2700 -0.0671 -0.0706
 3165SOL     OW12391   3.959   4.813   0.861 -0.1160 -0.2362 -0.3071
 3165SOL    HW212392   3.954   4.742   0.798  1.2304  0.3522 -1.1086
 3165SOL    HW312393   4.033   4.791   0.918  0.3685  0.5580 -0.6202
 3165SOL    MW412394   3.968   4.801   0.861  0.6605 -0.8402  0.0535
 3166SOL     OW12395   4.419   4.246   5.848 -0.4988 -0.4784  0.1577
 3166SOL    HW212396   4.400   4.220   5.758 -0.2774 -0.0824 -0.0048
 3166SOL    HW312397   4.343   4.299   5.874  1.0390  2.5395 -1.0667
 3166SOL    MW412398   4.406   4.250   5.839 -0.2546 -0.4400  0.0261
 3167SOL     OW12399   0.490   3.858   5.721  0.4282  0.3016 -0.3101
 3167SOL    HW212400   0.429   3.814   5.780  1.7010  0.5857  1.3039
 3167SOL    HW312401   0.489   3.806   5.641 -1.0824 -0.3177  0.0804
 3167SOL    MW412402   0.482   3.846   5.718  0.3383 -0.2137 -0.1831
 3168SOL     OW12403   4.646   4.260   0.244  0.7024  0.4830  0.2625
 3168SOL    HW212404   4.693   4.193   0.195 -1.4654 -1.3367  0.5012
 3168SOL    HW312405   4.617   4.322   0.177  0.2647 -0.4015 -0.3884
 3168SOL    MW412406   4.648   4.259   0.228  0.2712 -0.3221  0.0735
 3169SOL     OW12407   1.384   5.346   0.146  0.4642 -0.2685 -0.4490
 3169SOL    HW212408   1.372   5.440   0.159 -1.7648 -0.7099  1.2758
 3169SOL    HW312409   1.349   5.329   0.059  1.1793  0.5099 -0.9081
 3169SOL    MW412410   1.378   5.356   0.136  0.6036  0.3548  0.0891
 3170SOL     OW12411   5.998   6.310   2.886  0.1614  0.6704 -0.3382
 3170SOL    HW212412   6.070   6.255   2.856  0.0970  0.8533 -0.8289
 3170SOL    HW312413   6.038   6.394   2.905  0.5048  0.0981  1.6971
 3170SOL    MW412414   6.013   6.314   2.885  0.2908  0.2626  0.1823
 3171SOL     OW12415   0.565   2.697   2.580  0.1144 -0.0377 -0.5108
 3171SOL    HW212416   0.653   2.733   2.566 -0.1169  0.5187 -0.5641
 3171SOL    HW312417   0.518   2.714   2.499 -0.0810 -0.2224 -0.4377
 3171SOL    MW412418   0.571   2.704   2.568 -0.2832 -0.2303 -0.0925
 3172SOL     OW12419   4.282   3.345   1.495 -0.0813 -0.7288 -0.1105
 3172SOL    HW212420   4.368   3.388   1.500  0.4841 -1.8882  0.6569
 3172SOL    HW312421   4.222   3.414   1.470  0.7922  0.5057  1.0635
 3172SOL    MW412422   4.286   3.360   1.492  0.0669  0.0134  0.4175
 3173SOL     OW12423   3.939   6.190   5.476 -0.0959  0.3285 -0.2326
 3173SOL    HW212424   4.006   6.123   5.492  0.9678  1.3839 -0.1375
 3173SOL    HW312425   3.858   6.149   5.504  0.5068 -0.9717 -0.2881
 3173SOL    MW412426   3.937   6.176   5.482  0.1275 -0.0811 -0.4996
 3174SOL     OW12427   5.846   1.644   2.415  0.5163  1.1075  0.2935
 3174SOL    HW212428   5.772   1.631   2.473  1.0930  1.0582  1.0302
 3174SOL    HW312429   5.859   1.559   2.373  0.8578  0.7978  1.0137
 3174SOL    MW412430   5.838   1.631   2.417  0.0182  0.3618  0.1498
 3175SOL     OW12431   2.683   3.436   0.284  0.1055 -0.1910  0.0331
 3175SOL    HW212432   2.626   3.395   0.219  1.1133  0.4171 -1.2935
 3175SOL    HW312433   2.729   3.364   0.325 -2.2689 -0.7891  1.8536
 3175SOL    MW412434   2.682   3.421   0.281  0.0286  0.1757 -0.0302
 3176SOL     OW12435   3.347   2.864   2.190  0.4197  0.2512 -0.2690
 3176SOL    HW212436   3.381   2.788   2.237  0.7719  0.3200 -0.4112
 3176SOL    HW312437   3.278   2.899   2.246  0.5893  0.1152  0.0221
 3176SOL    MW412438   3.342   2.858   2.203  0.1920 -0.4998  0.9336
 3177SOL     OW12439   1.216   5.561   1.759  0.3962 -0.1261  0.0848
 3177SOL    HW212440   1.291   5.586   1.814  0.6332  0.1604 -0.3657
 3177SOL    HW312441   1.254   5.542   1.674  0.0020 -0.3878 -0.0366
 3177SOL    MW412442   1.231   5.562   1.755 -0.7539  0.0272 -0.2486
 3178SOL     OW12443   2.559   4.186   3.494  0.6647 -0.5237 -0.2114
 3178SOL    HW212444   2.591   4.226   3.576 -2.7305 -1.0574  1.5693
 3178SOL    HW312445   2.535   4.261   3.439  1.2158 -0.1287  0.0792
 3178SOL    MW412446   2.560   4.201   3.498 -0.5125 -0.1818 -0.2982
 3179SOL     OW12447   6.373   3.276   3.384  0.4491 -0.0886 -0.0529
 3179SOL    HW212448   6.350   3.345   3.445  0.1783  0.2460 -0.5220
 3179SOL    HW312449   6.352   3.194   3.429  1.4660  0.0998  0.7908
 3179SOL    MW412450   6.367   3.274   3.398 -0.4927  0.9278  0.6040
 3180SOL     OW12451   0.277   2.395   5.791  0.2261 -0.4823 -0.1538
 3180SOL    HW212452   0.327   2.374   5.869 -1.4796 -0.8267  0.8857
 3180SOL    HW312453   0.185   2.389   5.818 -0.4313  2.3551 -1.3605
 3180SOL    MW412454   0.271   2.392   5.805 -0.3739 -0.1277 -0.3995
 3181SOL     OW12455   6.272   3.953   4.399 -0.1674 -0.0105  0.2105
 3181SOL    HW212456   6.226   3.937   4.317  0.2200 -0.0654  0.0019
 3181SOL    HW312457   6.224   3.901   4.464  0.0595 -0.6771 -0.1477
 3181SOL    MW412458   6.260   3.944   4.397  0.1726 -0.0980  0.2235
 3182SOL     OW12459   4.872   6.288   5.563 -0.5999 -0.1284  0.2127
 3182SOL    HW212460   4.843   6.368   5.607  1.8064  0.2101  1.3214
 3182SOL    HW312461   4.897   6.230   5.634 -0.3745 -1.0950 -0.6397
 3182SOL    MW412462   4.871   6.291   5.578  0.3878 -0.3322  0.1345
 3183SOL     OW12463   3.355   0.439   1.951 -0.1645  0.6226 -0.1420
 3183SOL    HW212464   3.291   0.378   1.988 -0.5903  1.3963  0.4285
 3183SOL    HW312465   3.322   0.525   1.976  0.6958  1.0621 -0.5105
 3183SOL    MW412466   3.342   0.442   1.959  0.3902 -0.5856  0.0817
 3184SOL     OW12467   2.193   0.187   2.342 -0.1200 -0.3476  0.2930
 3184SOL    HW212468   2.247   0.228   2.275  0.1372 -0.7218  0.2617
 3184SOL    HW312469   2.105   0.183   2.305 -0.4260  1.2652  0.7711
 3184SOL    MW412470   2.189   0.192   2.329 -0.0242  0.0445  0.0081
 3185SOL     OW12471   5.971   1.421   4.378  0.2962  0.5232  0.1582
 3185SOL    HW212472   5.898   1.363   4.401 -0.1257  1.5619  1.6022
 3185SOL    HW312473   5.932   1.507   4.369  1.0050  0.7157 -1.4260
 3185SOL    MW412474   5.957   1.425   4.380 -0.3563  0.0094  0.0056
 3186SOL     OW12475   3.389   0.818   3.615 -0.2789  0.4836  0.1555
 3186SOL    HW212476   3.340   0.749   3.659 -3.1111  1.6938 -0.8764
 3186SOL    HW312477   3.352   0.823   3.527  0.7264  2.4231 -0.2309
 3186SOL    MW412478   3.378   0.810   3.609 -0.1978 -0.1031  0.0368
 3187SOL     OW12479   2.141   6.366   0.105 -0.1170 -0.3754 -0.1701
 3187SOL    HW212480   2.226   6.372   0.062 -0.3558  0.3562 -0.5582
 3187SOL    HW312481   2.125   6.454   0.140 -0.7928 -0.4534 -0.2697
 3187SOL    MW412482   2.150   6.378   0.104 -0.4004 -0.1753  0.3901
 3188SOL     OW12483   1.856   4.929   0.143  0.1916 -0.1463  0.5670
 3188SOL    HW212484   1.873   5.022   0.159  0.8374 -0.4380  1.6692
 3188SOL    HW312485   1.925   4.902   0.082  1.0794 -0.3071  1.6279
 3188SOL    MW412486   1.867   4.938   0.137  0.2017  0.2412 -0.6873
 3189SOL     OW12487   5.517   3.457   3.101  0.2082  0.0282  0.4100
 3189SOL    HW212488   5.568   3.519   3.048  2.6774 -0.9428  1.4935
 3189SOL    HW312489   5.514   3.498   3.188  0.1028 -0.4403  0.6286
 3189SOL    MW412490   5.523   3.471   3.106 -0.3528 -0.3473 -0.6527
 3190SOL     OW12491   5.267   4.525   1.589 -0.2071 -0.4172 -0.6434
 3190SOL    HW212492   5.305   4.437   1.582  1.8792  0.3589  0.0875
 3190SOL    HW312493   5.208   4.532   1.514  1.7873 -1.4184 -2.4098
 3190SOL    MW412494   5.265   4.514   1.579 -0.2022 -0.1247 -0.0153
 3191SOL     OW12495   3.699   2.659   6.332 -0.5386  0.0240 -0.0809
 3191SOL    HW212496   3.709   2.574   6.375  2.1872 -0.6267 -1.7550
 3191SOL    HW312497   3.716   2.641   6.239  2.0152  2.5923 -0.2628
 3191SOL    MW412498   3.703   2.645   6.325 -0.1947 -0.4670  0.3342
 3192SOL     OW12499   2.319   1.095   2.357  0.1270  0.1345  0.1846
 3192SOL    HW212500   2.266   1.174   2.366 -0.0465  0.4593 -2.6601
 3192SOL    HW312501   2.261   1.031   2.317  0.8314 -0.7790  0.5750
 3192SOL    MW412502   2.305   1.097   2.353 -0.5739  0.0567 -0.3670
 3193SOL     OW12503   5.013   0.873   0.705  0.5543  0.8024  0.2532
 3193SOL    HW212504   4.923   0.842   0.698  1.0191 -0.2121 -2.6353
 3193SOL    HW312505   5.005   0.959   0.746 -1.5028  0.0306  1.6758
 3193SOL    MW412506   5.000   0.880   0.710 -0.4978 -0.7450  0.2515
 3194SOL     OW12507   5.446   1.401   4.581 -0.0705  0.2523  0.3515
 3194SOL    HW212508   5.478   1.367   4.498 -0.9135 -0.0407  0.1407
 3194SOL    HW312509   5.365   1.353   4.598 -1.5230  2.3521 -0.1452
 3194SOL    MW412510   5.439   1.390   4.573  0.7605 -0.1640  0.2780
 3195SOL     OW12511   0.423   2.365   6.021  0.0946 -0.0028 -0.5688
 3195SOL    HW212512   0.435   2.271   6.037  1.5535  0.2690  0.0377
 3195SOL    HW312513   0.379   2.397   6.100  2.1753  0.3035  0.5385
 3195SOL    MW412514   0.419   2.356   6.034  0.0057 -0.4359 -0.2290
 3196SOL     OW12515   6.294   0.882   4.636 -0.3985  0.3781  0.0505
 3196SOL    HW212516   6.277   0.962   4.587 -0.6399 -0.6256 -1.5938
 3196SOL    HW312517   6.388   0.865   4.623 -0.6844 -0.4802 -1.0486
 3196SOL    MW412518   6.304   0.890   4.628  0.3810 -0.3984 -0.6310
 3197SOL     OW12519   0.144   2.589   4.081 -0.1283  0.4594 -0.5747
 3197SOL    HW212520   0.111   2.658   4.139 -1.1534 -0.7957  0.3768
 3197SOL    HW312521   0.066   2.557   4.035  0.3658  0.0445 -1.1453
 3197SOL    MW412522   0.130   2.594   4.083 -0.0999  0.4650 -0.0618
 3198SOL     OW12523   1.187   1.454   0.131 -0.1504  0.3538 -0.0421
 3198SOL    HW212524   1.115   1.514   0.116  0.5715  0.8607 -1.6822
 3198SOL    HW312525   1.166   1.411   0.214 -0.4831  3.1389  1.4139
 3198SOL    MW412526   1.175   1.456   0.140  0.0173 -0.4289 -0.5697
 3199SOL     OW12527   1.019   3.775   3.659  0.3126  0.2271  0.2413
 3199SOL    HW212528   0.996   3.683   3.649  0.5269  0.3143 -1.3067
 3199SOL    HW312529   1.078   3.777   3.734  1.3508 -1.1046 -0.4928
 3199SOL    MW412530   1.024   3.763   3.668 -0.3982 -0.1096 -0.4464
 3200SOL     OW12531   0.623   1.799   1.041 -0.3373 -0.5109  0.2000
 3200SOL    HW212532   0.622   1.738   1.114 -0.8391 -0.4801  0.2237
 3200SOL    HW312533   0.535   1.836   1.039 -0.1617 -0.0914 -0.0686
 3200SOL    MW412534   0.611   1.796   1.050  0.1306  0.2389 -0.6030
 3201SOL     OW12535   3.802   0.338   0.122 -0.0273 -0.5227  0.6570
 3201SOL    HW212536   3.784   0.279   0.195  0.3724 -1.0053  0.3656
 3201SOL    HW312537   3.851   0.285   0.059  1.2727  0.3991  0.8502
 3201SOL    MW412538   3.806   0.323   0.123  0.4596  0.0122  0.3027
 3202SOL     OW12539   5.772   2.744   1.515 -0.2884  1.3363  0.0196
 3202SOL    HW212540   5.728   2.727   1.598  1.1953  0.8180  0.7366
 3202SOL    HW312541   5.800   2.835   1.521 -0.5176  1.4141 -0.0801
 3202SOL    MW412542   5.770   2.754   1.526 -0.7012  0.2882 -0.3251
 3203SOL     OW12543   4.668   1.831   2.014 -0.2114  0.5837  0.3779
 3203SOL    HW212544   4.710   1.821   2.100 -0.2304  0.6766  0.3986
 3203SOL    HW312545   4.575   1.828   2.032 -0.3265  3.5791  0.7881
 3203SOL    MW412546   4.662   1.829   2.028  0.1363  0.0517  0.3454
 3204SOL     OW12547   0.397   1.592   4.289 -0.1003  0.8988  0.5023
 3204SOL    HW212548   0.406   1.619   4.381  1.7339  1.4751  0.2045
 3204SOL    HW312549   0.410   1.497   4.291  2.5098  1.1810  0.6302
 3204SOL    MW412550   0.400   1.583   4.301  0.2676 -0.5125 -0.3377
 3205SOL     OW12551   3.003   1.856   4.339 -0.1864 -0.2374 -0.3048
 3205SOL    HW212552   2.956   1.841   4.256 -0.7432 -1.6488  0.2237
 3205SOL    HW312553   3.038   1.770   4.362  0.4658  0.2645  0.6341
 3205SOL    MW412554   3.001   1.843   4.331 -0.1275 -0.0435 -0.0097
 3206SOL     OW12555   6.124   2.530   4.180  0.4071 -0.4908  0.1524
 3206SOL    HW212556   6.116   2.625   4.167 -1.3858 -0.0228  3.6170
 3206SOL    HW312557   6.209   2.508   4.143  0.8539  2.4472 -0.8185
 3206SOL    MW412558   6.134   2.540   4.173  0.3815  0.0040  0.6639
 3207SOL     OW12559   5.430   3.859   1.329 -0.3924  0.0043  0.5509
 3207SOL    HW212560   5.399   3.783   1.379 -0.3485 -0.2358  0.2197
 3207SOL    HW312561   5.350   3.904   1.301 -0.4366 -0.2685  0.2238
 3207SOL    MW412562   5.415   3.855   1.332 -0.4712 -0.0489  0.1881
 3208SOL     OW12563   5.916   3.966   0.419 -0.1942 -0.0003  0.0736
 3208SOL    HW212564   5.922   3.920   0.503  1.5667  0.6370  0.3497
 3208SOL    HW312565   5.984   4.034   0.425 -0.1845  0.1907 -1.7797
 3208SOL    MW412566   5.926   3.969   0.431 -0.2659  0.4532 -0.1947
 3209SOL     OW12567   2.598   4.154   0.083  0.4056 -0.1933 -0.0149
 3209SOL    HW212568   2.592   4.249   0.074 -1.5946 -0.4705 -2.3462
 3209SOL    HW312569   2.591   4.139   0.178  1.3000  1.9506  0.4671
 3209SOL    MW412570   2.597   4.165   0.095  0.1767  0.0195  0.4091
 3210SOL     OW12571   5.481   0.086   2.956 -0.6461  0.0588  0.6299
 3210SOL    HW212572   5.546   0.156   2.962  0.8907 -1.2984  0.5340
 3210SOL    HW312573   5.496   0.045   2.871 -1.2739 -0.6099  0.8250
 3210SOL    MW412574   5.491   0.090   2.946  0.1364 -0.0143 -0.2088
 3211SOL     OW12575   4.054   4.793   4.422  0.2656  0.0642  1.2094
 3211SOL    HW212576   4.088   4.844   4.349  1.2481  1.2924  2.4735
 3211SOL    HW312577   4.082   4.703   4.404  0.8850  0.4221  0.3194
 3211SOL    MW412578   4.062   4.788   4.410  0.0372 -0.7976 -0.3585
 3212SOL     OW12579   2.448   4.974   4.498 -1.1367  0.3110  0.1554
 3212SOL    HW212580   2.469   4.910   4.565  0.4081 -0.2336 -0.7710
 3212SOL    HW312581   2.476   5.058   4.535  0.4443 -0.0857 -0.0611
 3212SOL    MW412582   2.455   4.977   4.512 -0.6770 -0.3245 -0.2230
 3213SOL     OW12583   1.599   3.113   4.955  0.0454 -0.1267  0.7371
 3213SOL    HW212584   1.588   3.125   4.860 -1.7327  1.1800  1.0517
 3213SOL    HW312585   1.640   3.027   4.963  2.5907  0.7466 -1.2888
 3213SOL    MW412586   1.603   3.103   4.943 -0.1695  0.5759  0.7862
 3214SOL     OW12587   3.540   4.737   1.245 -0.2919  0.4227  0.1537
 3214SOL    HW212588   3.456   4.737   1.200 -0.1286 -1.1869 -0.2352
 3214SOL    HW312589   3.524   4.685   1.324  0.2858  0.2628  0.1712
 3214SOL    MW412590   3.527   4.730   1.250 -0.5651 -0.1106 -0.5759
 3215SOL     OW12591   6.163   4.150   2.679 -0.2580  0.3580  0.1938
 3215SOL    HW212592   6.184   4.208   2.753  1.3226 -1.0985  0.9521
 3215SOL    HW312593   6.227   4.173   2.612 -0.0534 -0.0420  0.2496
 3215SOL    MW412594   6.174   4.161   2.680 -0.0138 -0.3120 -0.1129
 3216SOL     OW12595   3.454   4.239   3.113  0.4785  0.4335  0.1855
 3216SOL    HW212596   3.360   4.221   3.114  0.7092 -1.2234 -1.7115
 3216SOL    HW312597   3.462   4.325   3.155 -1.7446  0.1533  1.3323
 3216SOL    MW412598   3.442   4.248   3.119  0.2025  0.0602 -0.1748
 3217SOL     OW12599   0.433   0.017   5.869 -0.3968 -0.0590 -0.1221
 3217SOL    HW212600   0.389   0.035   5.952 -0.2866  0.2209 -0.1225
 3217SOL    HW312601   0.488   0.094   5.854 -0.4675 -0.0780 -0.4885
 3217SOL    MW412602   0.435   0.030   5.878 -0.6717  0.4074  0.2185
 3218SOL     OW12603   0.999   4.851  -0.004  0.3332 -0.0511  0.1286
 3218SOL    HW212604   1.056   4.820   0.066 -2.4959 -2.2851  1.6415
 3218SOL    HW312605   0.915   4.810   0.014 -2.3962  4.4587 -0.8290
 3218SOL    MW412606   0.996   4.842   0.008  0.2040  0.4542  0.0014
 3219SOL     OW12607   2.945   2.555   0.085  0.0141 -0.3807 -0.2383
 3219SOL    HW212608   3.002   2.632   0.091  0.2206 -0.6502  2.1177
 3219SOL    HW312609   3.001   2.485   0.052  0.9868 -0.5092  1.5623
 3219SOL    MW412610   2.960   2.556   0.082 -0.2104  0.0189  0.4018
 3220SOL     OW12611   4.290   1.877   3.929 -0.8191 -0.2373 -0.6500
 3220SOL    HW212612   4.216   1.877   3.870 -1.8037  0.5487  0.5273
 3220SOL    HW312613   4.252   1.886   4.016  0.4336 -3.3195  0.3551
 3220SOL    MW412614   4.275   1.878   3.933  0.0946  0.0209 -0.0854
 3221SOL     OW12615   1.131   4.110   4.412  0.1192 -0.0171 -0.4376
 3221SOL    HW212616   1.215   4.134   4.374  0.4914 -0.8768 -0.1829
 3221SOL    HW312617   1.124   4.016   4.397  0.3364 -0.4227  1.6822
 3221SOL    MW412618   1.141   4.101   4.405  0.5568  0.1333  0.0105
 3222SOL     OW12619   1.031   3.711   1.417  0.6457  0.2184 -0.4019
 3222SOL    HW212620   1.017   3.752   1.502 -0.0093  0.5624 -0.6661
 3222SOL    HW312621   0.944   3.682   1.390  1.1130 -1.5575 -0.1312
 3222SOL    MW412622   1.017   3.712   1.424  0.2061  0.3608  0.0810
 3223SOL     OW12623   0.380   1.659   4.558 -0.0524  0.7388  0.5895
 3223SOL    HW212624   0.296   1.619   4.576  0.2617  0.4386  1.4242
 3223SOL    HW312625   0.384   1.735   4.617 -0.0611  1.2117 -0.0003
 3223SOL    MW412626   0.370   1.664   4.568 -1.0445 -0.4028  0.6243
 3224SOL     OW12627   0.124   0.819   0.091 -0.0544  0.1138  0.0337
 3224SOL    HW212628   0.104   0.803  -0.001  1.4430 -0.2451 -0.2571
 3224SOL    HW312629   0.075   0.752   0.139 -0.9533  0.3900 -0.4731
 3224SOL    MW412630   0.115   0.808   0.085  0.4757  0.1676 -0.2057
 3225SOL     OW12631   0.067   4.392   4.243  0.1864 -0.0549  0.6012
 3225SOL    HW212632   0.148   4.353   4.210  1.3609  1.6845  1.2623
 3225SOL    HW312633   0.006   4.319   4.251  1.7894 -1.4687  0.3883
 3225SOL    MW412634   0.069   4.378   4.239 -0.0325  0.5851  0.0970
 3226SOL     OW12635   2.857   3.211   1.944  0.2168 -0.3032 -0.1544
 3226SOL    HW212636   2.911   3.272   1.894  1.4981 -0.5795  0.8403
 3226SOL    HW312637   2.919   3.165   2.000 -0.9196 -1.4639  0.1962
 3226SOL    MW412638   2.872   3.213   1.945 -0.2072  0.3515  0.5670
 3227SOL     OW12639   0.223   4.247   3.161  0.2193  0.1396 -0.7984
 3227SOL    HW212640   0.167   4.294   3.223 -0.2687 -1.1742 -0.2163
 3227SOL    HW312641   0.271   4.184   3.216  2.3436  1.2601 -1.2555
 3227SOL    MW412642   0.222   4.245   3.177  0.1267 -0.6263  0.0433
 3228SOL     OW12643   0.714   4.323   3.571  0.3127 -0.1687  0.5363
 3228SOL    HW212644   0.770   4.276   3.632 -0.1278 -0.6359  0.5935
 3228SOL    HW312645   0.628   4.325   3.614 -0.1488 -1.0062 -0.3107
 3228SOL    MW412646   0.710   4.317   3.585  0.2555 -0.6146  0.5489
 3229SOL     OW12647   4.196   5.329   1.851 -0.0664 -0.1765 -0.1385
 3229SOL    HW212648   4.224   5.303   1.764  1.6031  1.0128 -0.0255
 3229SOL    HW312649   4.111   5.370   1.838  0.9761  1.7091 -1.5562
 3229SOL    MW412650   4.189   5.331   1.838 -0.0493 -0.6371  0.4945
 3230SOL     OW12651   2.404   2.543   1.845  0.4633 -0.0806 -0.0999
 3230SOL    HW212652   2.416   2.615   1.907 -0.0516 -0.1213  0.0504
 3230SOL    HW312653   2.478   2.552   1.784  0.3566  0.6311 -0.1392
 3230SOL    MW412654   2.416   2.554   1.845  0.0527  0.4717 -0.7276
 3231SOL     OW12655   1.236   5.942   0.278 -0.0617  0.4812  0.2248
 3231SOL    HW212656   1.154   5.957   0.231  1.0110 -0.2817 -2.0057
 3231SOL    HW312657   1.255   6.027   0.319 -1.6995  0.7944  0.4290
 3231SOL    MW412658   1.228   5.955   0.277  0.2024 -0.1473 -0.0581
 3232SOL     OW12659   2.783   2.258   3.282 -0.8508 -0.1266 -0.2671
 3232SOL    HW212660   2.737   2.226   3.204 -1.0881  0.3950 -0.3450
 3232SOL    HW312661   2.805   2.349   3.261  0.6436 -0.4914 -0.4146
 3232SOL    MW412662   2.780   2.266   3.269 -0.4457 -0.0052 -0.0915
 3233SOL     OW12663   2.169   2.461   3.235 -0.1154 -0.1575 -0.6163
 3233SOL    HW212664   2.257   2.456   3.272 -0.4721  2.6558  0.8770
 3233SOL    HW312665   2.123   2.386   3.273  0.8572 -0.0259  0.8997
 3233SOL    MW412666   2.175   2.450   3.245 -0.2101 -0.0237  0.3404
 3234SOL     OW12667   3.299   0.523   5.785 -0.0265  0.2027 -0.0447
 3234SOL    HW212668   3.229   0.459   5.798  0.1785 -0.0619 -0.2178
 3234SOL    HW312669   3.254   0.603   5.759 -0.2568 -0.0200 -0.3503
 3234SOL    MW412670   3.284   0.525   5.783 -0.2880  0.3760 -0.3857
 3235SOL     OW12671   0.647   1.666   0.480 -0.1738  0.0987 -0.1995
 3235SOL    HW212672   0.585   1.720   0.430 -1.2350  0.1079  1.0898
 3235SOL    HW312673   0.613   1.666   0.569  0.9691 -0.9976  0.2639
 3235SOL    MW412674   0.634   1.673   0.485  0.0960 -0.0837  0.0579
 3236SOL     OW12675   0.035   0.865   1.396 -0.2166 -0.2177  0.3203
 3236SOL    HW212676   0.055   0.842   1.487 -1.8673 -0.5039  0.6330
 3236SOL    HW312677   0.021   0.960   1.398 -1.7067 -0.4277  0.6727
 3236SOL    MW412678   0.036   0.875   1.408 -0.3510 -0.1662  0.3513
 3237SOL     OW12679   0.604   1.264   3.365  0.6972 -0.3006 -0.2036
 3237SOL    HW212680   0.519   1.221   3.357  1.2319 -1.3978 -0.3045
 3237SOL    HW312681   0.616   1.312   3.283 -0.8556  1.8895  0.7718
 3237SOL    MW412682   0.595   1.264   3.353 -0.4612 -0.0101  0.1257
 3238SOL     OW12683   2.248   2.324   2.920  0.3716  0.1388  0.0300
 3238SOL    HW212684   2.244   2.243   2.869 -0.7551  0.4667 -0.4314
 3238SOL    HW312685   2.309   2.380   2.871 -1.0208  0.6124 -1.2653
 3238SOL    MW412686   2.256   2.321   2.907  0.2412 -0.3475 -0.1581
 3239SOL     OW12687   0.581   0.982   1.460 -0.0032  0.7840 -0.0869
 3239SOL    HW212688   0.539   1.060   1.425 -0.5416  0.2041 -0.7620
 3239SOL    HW312689   0.627   0.944   1.385  0.8971  0.8613  0.4096
 3239SOL    MW412690   0.582   0.987   1.445  0.3797 -0.4005  0.1271
 3240SOL     OW12691   2.598   2.146   4.688  0.3511  0.7401 -0.2233
 3240SOL    HW212692   2.611   2.146   4.783 -2.2750 -2.1257  0.2849
 3240SOL    HW312693   2.687   2.153   4.653  1.6986 -0.8596  2.5068
 3240SOL    MW412694   2.612   2.147   4.696 -0.6647  0.1241  0.0400
 3241SOL     OW12695   6.097   3.245   5.289 -0.0100  0.2057  0.0547
 3241SOL    HW212696   6.167   3.310   5.293  0.1178  0.0709 -0.0007
 3241SOL    HW312697   6.109   3.192   5.368  0.9310 -0.8244 -0.7546
 3241SOL    MW412698   6.108   3.247   5.300  0.0660  0.4118  0.0016
 3242SOL     OW12699   3.587   0.977   1.375 -0.2170  0.5918  0.4884
 3242SOL    HW212700   3.647   0.941   1.310  0.5784  1.1384  0.9048
 3242SOL    HW312701   3.504   0.989   1.328  0.4820  1.4435 -0.5574
 3242SOL    MW412702   3.584   0.974   1.360 -0.8891 -0.4412 -0.3993
 3243SOL     OW12703   0.676   5.724   6.153 -0.3061  0.9276  0.2679
 3243SOL    HW212704   0.655   5.779   6.228  2.0731 -1.2173  2.7385
 3243SOL    HW312705   0.664   5.635   6.185  2.5126 -0.1260 -1.2175
 3243SOL    MW412706   0.672   5.720   6.167  0.1683 -0.3700  0.8357
 3244SOL     OW12707   0.575   1.304   3.765 -0.1953 -0.1008 -0.2460
 3244SOL    HW212708   0.546   1.364   3.696 -0.7552 -0.0954 -0.0090
 3244SOL    HW312709   0.627   1.238   3.719 -0.7934 -0.2540 -0.7192
 3244SOL    MW412710   0.578   1.303   3.750  0.0040 -0.6177 -0.5393
 3245SOL     OW12711   5.434   6.309   0.279 -0.9854 -0.3241 -0.0433
 3245SOL    HW212712   5.367   6.261   0.229 -0.8333 -2.2130  1.4412
 3245SOL    HW312713   5.398   6.317   0.367  0.3568 -0.6170  0.5671
 3245SOL    MW412714   5.421   6.303   0.284 -0.0314  1.1096  0.2885
 3246SOL     OW12715   2.807   1.439   5.439  0.3835  0.5392  0.0651
 3246SOL    HW212716   2.783   1.384   5.514  1.3268 -0.0833 -0.0722
 3246SOL    HW312717   2.812   1.527   5.475  0.7352  0.2599  0.7152
 3246SOL    MW412718   2.804   1.443   5.454 -0.7981  0.2512 -0.0719
 3247SOL     OW12719   0.927   2.665   5.151  0.5843  0.3982  0.7385
 3247SOL    HW212720   0.930   2.589   5.093  3.6731 -0.0971  1.3500
 3247SOL    HW312721   0.894   2.736   5.097 -2.3230 -1.2766  0.1275
 3247SOL    MW412722   0.923   2.664   5.136 -0.3439  0.1890 -0.5119
 3248SOL     OW12723   3.271   4.791   6.269  1.0405  0.1097 -0.6568
 3248SOL    HW212724   3.344   4.851   6.286 -0.5761  1.5874  1.7424
 3248SOL    HW312725   3.193   4.843   6.286 -0.5351 -2.0132 -0.9486
 3248SOL    MW412726   3.271   4.806   6.273 -0.2602 -0.0648 -0.1964
 3249SOL     OW12727   1.872   2.614   4.195 -0.0513 -0.1406 -0.4183
 3249SOL    HW212728   1.872   2.658   4.280  0.1868  1.2113 -1.0885
 3249SOL    HW312729   1.798   2.553   4.199 -0.4306  0.3635  0.5286
 3249SOL    MW412730   1.862   2.612   4.206  0.1555  0.1535  0.4442
 3250SOL     OW12731   1.356   0.807   3.622  0.2051  0.4983 -0.1707
 3250SOL    HW212732   1.393   0.819   3.535 -2.4335  2.9334 -1.1111
 3250SOL    HW312733   1.284   0.745   3.608  0.2273  0.3280  0.4462
 3250SOL    MW412734   1.351   0.800   3.608 -0.1800 -0.7300 -0.1298
 3251SOL     OW12735   4.389   5.803   4.666 -0.1358 -0.7800 -0.1204
 3251SOL    HW212736   4.384   5.800   4.570  1.6226 -1.5195 -0.2270
 3251SOL    HW312737   4.439   5.725   4.690 -2.0624 -1.5879  1.5640
 3251SOL    MW412738   4.395   5.792   4.656 -0.3624  0.3609 -0.6904
 3252SOL     OW12739   4.398   5.497   5.220  0.4643  0.8398 -0.0812
 3252SOL    HW212740   4.361   5.572   5.175 -0.9234 -0.8877 -2.0040
 3252SOL    HW312741   4.434   5.442   5.151  1.2024 -0.4192  1.2321
 3252SOL    MW412742   4.398   5.499   5.205  0.2135  0.0530  0.1403
 3253SOL     OW12743   0.978   4.505   2.299 -0.1577  0.1279 -0.4128
 3253SOL    HW212744   0.919   4.429   2.300  0.6844 -0.5382 -0.5593
 3253SOL    HW312745   1.017   4.503   2.212  0.3921  0.3218 -0.1709
 3253SOL    MW412746   0.975   4.495   2.287  0.4935  0.4586 -0.3055
 3254SOL     OW12747   1.988   6.321   2.940 -0.5313 -0.4178 -0.1772
 3254SOL    HW212748   1.909   6.365   2.973  0.2310  2.0124 -1.3728
 3254SOL    HW312749   1.955   6.247   2.889 -1.9828  0.0017  0.1120
 3254SOL    MW412750   1.973   6.317   2.938 -0.1178 -0.0606 -0.0147
 3255SOL     OW12751   4.825   2.778   1.377  0.2456 -0.0798  0.2735
 3255SOL    HW212752   4.798   2.688   1.360  1.2500 -0.4865  0.7596
 3255SOL    HW312753   4.903   2.790   1.324 -1.3451  1.4014 -1.8925
 3255SOL    MW412754   4.832   2.768   1.368 -0.2894  0.3159 -0.0171
 3256SOL     OW12755   5.017   5.401   4.245  0.1189  0.2953 -0.2827
 3256SOL    HW212756   5.028   5.327   4.185  0.8254  1.0265 -1.0820
 3256SOL    HW312757   5.102   5.408   4.289 -0.7723 -1.0431  1.8085
 3256SOL    MW412758   5.030   5.392   4.243  0.4829  0.0924 -0.2349
 3257SOL     OW12759   1.629   3.782   1.299  0.4535  0.1968  0.5048
 3257SOL    HW212760   1.614   3.862   1.349  1.5061  0.1429  0.9193
 3257SOL    HW312761   1.564   3.785   1.229 -0.5810  0.6239  1.4530
 3257SOL    MW412762   1.618   3.793   1.296 -0.2603 -0.3886  0.0969
 3258SOL     OW12763   6.042   3.609   5.271 -0.0210  0.7237  0.2060
 3258SOL    HW212764   6.021   3.566   5.188 -1.7513  1.4663  0.2248
 3258SOL    HW312765   5.967   3.591   5.328  1.1608  0.1558  1.6762
 3258SOL    MW412766   6.030   3.601   5.268  0.3583 -0.2435  0.4774
 3259SOL     OW12767   6.373   5.901   4.159 -0.4256 -0.0572  0.3235
 3259SOL    HW212768   6.369   5.809   4.133 -1.2873  0.0264  0.1255
 3259SOL    HW312769   6.453   5.934   4.119  0.4717 -0.9764  1.2608
 3259SOL    MW412770   6.383   5.893   4.151  0.4938  0.0549 -0.1543
 3260SOL     OW12771   0.883   5.278   2.075  0.2479  0.2103 -0.1804
 3260SOL    HW212772   0.833   5.197   2.085 -2.2658  1.8016  0.9659
 3260SOL    HW312773   0.875   5.300   1.982 -0.9286  0.2613 -0.0754
 3260SOL    MW412774   0.875   5.270   2.064  0.4280 -0.9523  0.2897
 3261SOL     OW12775   5.705   0.140   5.965 -0.6390  0.0556  0.3210
 3261SOL    HW212776   5.712   0.062   5.910  1.0395 -0.1942  0.8120
 3261SOL    HW312777   5.767   0.202   5.928  0.5851 -0.1419  1.9137
 3261SOL    MW412778   5.714   0.138   5.953  0.1661 -0.4399 -0.3144
 3262SOL     OW12779   6.095   5.647   6.090  0.2720 -0.1253 -0.1353
 3262SOL    HW212780   6.014   5.609   6.057  1.3353 -1.8276 -0.9788
 3262SOL    HW312781   6.104   5.612   6.179  0.3785 -0.4907 -0.2836
 3262SOL    MW412782   6.086   5.637   6.097  0.4278 -0.1403  0.0749
 3263SOL     OW12783   3.657   0.782   0.548  0.5652 -0.5565 -0.0113
 3263SOL    HW212784   3.669   0.803   0.455  0.5069 -0.7467 -0.0632
 3263SOL    HW312785   3.745   0.767   0.581  0.8222  1.7885  0.5279
 3263SOL    MW412786   3.670   0.782   0.540  0.6041  0.1362  0.0301
 3264SOL     OW12787   1.896   0.736   2.488  0.6460  0.0144  0.2158
 3264SOL    HW212788   1.914   0.645   2.511 -1.3710  0.0208  2.1468
 3264SOL    HW312789   1.801   0.740   2.477  0.8438  1.5438 -1.6591
 3264SOL    MW412790   1.886   0.725   2.489  0.1495  0.0405  0.5722
 3265SOL     OW12791   3.338   1.228   3.373  0.7808  0.3843  0.2889
 3265SOL    HW212792   3.291   1.289   3.316  0.9376  1.9102  1.7280
 3265SOL    HW312793   3.292   1.233   3.457  0.7266 -1.6029  0.4222
 3265SOL    MW412794   3.326   1.237   3.377  0.2028  0.2586  0.2032
 3266SOL     OW12795   6.378   1.934   4.021  0.3904 -0.0170 -0.0564
 3266SOL    HW212796   6.431   1.854   4.016 -0.5892 -0.6060 -1.6226
 3266SOL    HW312797   6.301   1.909   4.071  1.2299  0.6812  1.6881
 3266SOL    MW412798   6.375   1.920   4.027 -0.4360 -0.4475  0.0743
 3267SOL     OW12799   5.817   1.447   3.660 -0.4761  0.1653 -0.2821
 3267SOL    HW212800   5.861   1.496   3.729  0.7376 -0.3091 -0.6852
 3267SOL    HW312801   5.850   1.485   3.579 -1.0992  0.0437 -0.5924
 3267SOL    MW412802   5.828   1.458   3.658 -1.3963 -0.4183  0.0118
 3268SOL     OW12803   1.995   5.648   4.911 -0.1878  0.5914 -0.7138
 3268SOL    HW212804   1.956   5.639   4.824  0.9785 -1.9525 -1.0649
 3268SOL    HW312805   2.062   5.579   4.915  0.9817  1.7345  1.5823
 3268SOL    MW412806   1.999   5.637   4.900 -0.0301  0.0692 -0.0688
 3269SOL     OW12807   5.728   6.423   3.242  0.1483 -0.1982 -0.1065
 3269SOL    HW212808   5.649   6.375   3.217  1.3532 -2.9101  0.9366
 3269SOL    HW312809   5.764   6.373   3.316  2.7374  1.0539 -0.4177
 3269SOL    MW412810   5.722   6.410   3.249 -0.0694 -0.8793 -0.4574
 3270SOL     OW12811   0.169   2.955   3.233 -0.1126  0.3606  0.1206
 3270SOL    HW212812   0.190   2.969   3.325 -0.1184  0.1528  0.1554
 3270SOL    HW312813   0.101   2.888   3.234 -0.4799  0.7333 -0.0144
 3270SOL    MW412814   0.163   2.948   3.245  0.1788  0.2339 -0.1987
 3271SOL     OW12815   3.976   5.881   0.421  0.1677 -0.4328 -0.0124
 3271SOL    HW212816   3.992   5.908   0.512 -1.0769 -0.0315  0.1091
 3271SOL    HW312817   4.000   5.958   0.370 -2.3683  0.6599  0.2621
 3271SOL    MW412818   3.981   5.895   0.427 -0.4066  0.0217 -0.0610
 3272SOL     OW12819   5.611   4.395   4.958 -0.0268 -0.2670 -0.0993
 3272SOL    HW212820   5.543   4.427   5.017 -0.2821  0.3134 -0.6981
 3272SOL    HW312821   5.611   4.457   4.886  2.4103  0.8452  0.7596
 3272SOL    MW412822   5.602   4.407   4.956 -0.2957 -0.1421  0.5629
 3273SOL     OW12823   6.426   5.588   4.729 -0.4530  0.3706 -0.3376
 3273SOL    HW212824   6.409   5.535   4.651 -0.5462  0.1687 -0.1801
 3273SOL    HW312825   6.496   5.648   4.702  0.0299 -0.1906 -0.3559
 3273SOL    MW412826   6.433   5.589   4.715 -0.2007  0.0809  0.3195
 3274SOL     OW12827   4.063   1.895   5.701  0.0308  0.0903  0.1197
 3274SOL    HW212828   3.989   1.926   5.649  0.0001 -0.0960  0.0493
 3274SOL    HW312829   4.036   1.807   5.730  1.3730 -1.2302 -2.3037
 3274SOL    MW412830   4.049   1.887   5.698  0.3156  0.0775 -0.0516
 3275SOL     OW12831   0.814   2.799   5.805 -0.3135 -0.1241  0.2605
 3275SOL    HW212832   0.831   2.857   5.730 -3.7816  1.0350  0.1462
 3275SOL    HW312833   0.782   2.858   5.873 -1.1219 -1.5692  1.1889
 3275SOL    MW412834   0.812   2.815   5.804  0.0136 -0.3740  0.4751
 3276SOL     OW12835   5.039   2.881   0.823 -0.9001  0.1336  0.2161
 3276SOL    HW212836   4.994   2.962   0.845  2.2617  2.4339 -0.9475
 3276SOL    HW312837   5.090   2.860   0.902  0.6153  1.0906 -0.4684
 3276SOL    MW412838   5.040   2.889   0.837  0.1995  0.6547  0.0895
 3277SOL     OW12839   4.259   2.028   0.666 -0.2029  0.2220  0.0088
 3277SOL    HW212840   4.201   2.075   0.607 -0.6809 -0.0717  0.2440
 3277SOL    HW312841   4.299   1.960   0.613 -0.2755  0.2526 -0.0842
 3277SOL    MW412842   4.257   2.025   0.651  0.0747 -0.4838  0.5477
 3278SOL     OW12843   1.835   2.938   5.696 -0.0006  0.7981 -0.3519
 3278SOL    HW212844   1.818   3.007   5.632  0.6928  0.6427 -0.7122
 3278SOL    HW312845   1.830   2.857   5.645 -1.1021  0.5538  0.1238
 3278SOL    MW412846   1.832   2.936   5.681 -0.2835  0.1237 -0.4563
 3279SOL     OW12847   3.385   5.637   2.149 -0.1485  0.2128 -0.1306
 3279SOL    HW212848   3.374   5.559   2.096  0.7712  0.7005 -1.0866
 3279SOL    HW312849   3.308   5.691   2.130 -1.2916 -0.8358  1.2828
 3279SOL    MW412850   3.374   5.634   2.140 -0.1652  0.3136 -0.0150
 3280SOL     OW12851   0.668   2.889   4.502  0.0531  0.2772  0.5795
 3280SOL    HW212852   0.746   2.912   4.452  1.2750 -0.8952  1.8211
 3280SOL    HW312853   0.686   2.922   4.591 -1.2210  0.6740  0.7144
 3280SOL    MW412854   0.681   2.896   4.507 -0.3147 -0.3725  0.1321
 3281SOL     OW12855   2.339   6.021   4.402  0.0255  0.6411 -0.3771
 3281SOL    HW212856   2.400   6.004   4.330  1.5263  1.3450  0.6822
 3281SOL    HW312857   2.297   6.104   4.379 -0.3250  0.3163 -0.9484
 3281SOL    MW412858   2.341   6.030   4.389  0.6508 -0.0834  0.0818
 3282SOL     OW12859   1.343   3.667   2.848  0.1345  0.1635 -0.5677
 3282SOL    HW212860   1.330   3.744   2.792  2.6547  0.8389 -0.3600
 3282SOL    HW312861   1.309   3.694   2.933  2.4910  1.8353 -0.0205
 3282SOL    MW412862   1.337   3.681   2.851 -0.1729  0.2852 -0.0940
 3283SOL     OW12863   1.936   5.132   0.517 -0.3229  0.0505 -0.3012
 3283SOL    HW212864   1.952   5.207   0.574 -1.2971  0.1063 -0.0720
 3283SOL    HW312865   2.021   5.089   0.508 -0.3662 -0.7466  2.3010
 3283SOL    MW412866   1.949   5.136   0.523  0.4654  0.2558  0.4289
 3284SOL     OW12867   1.627   6.164   5.788  0.1732 -0.1973 -0.2567
 3284SOL    HW212868   1.539   6.160   5.825 -0.6383 -1.3138 -2.1578
 3284SOL    HW312869   1.613   6.176   5.694  2.0866  0.3708 -0.5164
 3284SOL    MW412870   1.613   6.165   5.781 -0.5937  0.2626 -0.9365
 3285SOL     OW12871   0.858   1.555   4.581  0.0464 -0.0606 -0.5524
 3285SOL    HW212872   0.882   1.463   4.593  1.9330  0.4562 -0.0436
 3285SOL    HW312873   0.937   1.596   4.546  0.2400  1.9307  1.9459
 3285SOL    MW412874   0.871   1.548   4.578 -0.2797  0.4981 -0.2956
 3286SOL     OW12875   6.034   4.717   0.220 -0.6768  0.2610 -0.5520
 3286SOL    HW212876   6.079   4.636   0.245 -1.4842  0.1577  0.6579
 3286SOL    HW312877   5.941   4.693   0.219 -1.1533  1.6539  2.0353
 3286SOL    MW412878   6.028   4.703   0.223 -0.3376  0.4326  0.3602
 3287SOL     OW12879   1.169   2.422   1.812 -0.2288  0.3810 -0.0890
 3287SOL    HW212880   1.203   2.511   1.820 -0.6985  0.6019 -0.5252
 3287SOL    HW312881   1.235   2.367   1.855 -0.2327  0.9987  0.7231
 3287SOL    MW412882   1.182   2.426   1.819 -1.1292  0.2219  0.2133
 3288SOL     OW12883   2.807   1.011   4.784  0.5015  0.2233 -0.2183
 3288SOL    HW212884   2.838   1.079   4.725 -0.1671  0.6068 -0.1361
 3288SOL    HW312885   2.830   0.929   4.741 -0.3708  0.4978 -1.2264
 3288SOL    MW412886   2.814   1.009   4.771  0.2679 -0.0369 -0.1873
 3289SOL     OW12887   3.864   0.111   3.613 -0.0722 -0.5106  0.4196
 3289SOL    HW212888   3.877   0.046   3.544  0.4228 -1.6106  1.5231
 3289SOL    HW312889   3.769   0.125   3.615 -0.1927 -1.2859  0.2451
 3289SOL    MW412890   3.853   0.104   3.604 -0.0110 -0.0696 -0.5422
 3290SOL     OW12891   5.310   4.227   1.525  0.1048  0.0591 -0.3930
 3290SOL    HW212892   5.394   4.215   1.481 -0.0690 -1.6655 -0.3001
 3290SOL    HW312893   5.325   4.194   1.614 -0.9842 -1.4644 -0.7365
 3290SOL    MW412894   5.323   4.221   1.531 -0.1726 -0.0413 -0.1734
 3291SOL     OW12895   0.638   2.834   6.308 -0.0556  0.5939  0.6419
 3291SOL    HW212896   0.677   2.812   6.393 -1.7835  0.2011  1.3713
 3291SOL    HW312897   0.668   2.765   6.249 -0.2203 -0.0950  1.3512
 3291SOL    MW412898   0.647   2.822   6.312 -0.1405 -0.5443 -0.8280
 3292SOL     OW12899   2.101   0.368   3.475 -0.0956 -0.4776  0.3879
 3292SOL    HW212900   2.078   0.278   3.496 -1.6483 -0.2642 -0.2147
 3292SOL    HW312901   2.123   0.366   3.381  3.0016 -0.7464  1.0134
 3292SOL    MW412902   2.101   0.356   3.465 -0.0809  0.4684  0.1407
 3293SOL     OW12903   2.842   6.083   5.258 -0.8943 -0.0938 -0.3386
 3293SOL    HW212904   2.803   6.062   5.343 -2.1869  0.6519 -0.7213
 3293SOL    HW312905   2.769   6.116   5.206  0.3352  1.7523 -0.9671
 3293SOL    MW412906   2.827   6.084   5.262 -0.4694  0.1260 -0.1654
 3294SOL     OW12907   2.067   2.647   2.718  0.1798  0.2137 -0.2087
 3294SOL    HW212908   2.012   2.569   2.729  0.5451 -0.0318 -0.0997
 3294SOL    HW312909   2.080   2.679   2.807 -1.0589  1.1726 -0.3443
 3294SOL    MW412910   2.061   2.641   2.731 -0.1468 -0.5360 -0.5398
 3295SOL     OW12911   6.139   4.065   5.532  0.7346  0.0149  0.6969
 3295SOL    HW212912   6.094   4.009   5.469 -0.5499 -0.7878  2.2549
 3295SOL    HW312913   6.120   4.154   5.503 -2.1214 -0.2843  1.4007
 3295SOL    MW412914   6.131   4.069   5.520 -0.1959  0.5795 -0.0956
 3296SOL     OW12915   1.497   5.975   5.571 -0.3747  0.0161  0.1727
 3296SOL    HW212916   1.522   5.889   5.539  0.7369 -0.1743  1.4496
 3296SOL    HW312917   1.519   6.035   5.499  1.0919 -0.5086  0.1576
 3296SOL    MW412918   1.503   5.972   5.557  0.1917 -0.2328 -0.1762
 3297SOL     OW12919   6.091   3.204   6.269  0.0618 -0.7968 -0.5818
 3297SOL    HW212920   6.030   3.139   6.233 -0.8522  0.2675 -1.0010
 3297SOL    HW312921   6.035   3.274   6.303  0.9829 -0.7536  0.9613
 3297SOL    MW412922   6.076   3.205   6.269 -0.0908 -0.0754 -0.0006
 3298SOL     OW12923   5.353   3.153   6.365  0.2438 -0.8343  0.6573
 3298SOL    HW212924   5.445   3.153   6.339  0.3346 -2.4697  0.8265
 3298SOL    HW312925   5.354   3.119   6.455 -0.5308 -1.0488  0.5933
 3298SOL    MW412926   5.365   3.148   6.373 -0.6405 -0.1250 -0.0105
 3299SOL     OW12927   2.541   1.569   1.359  0.4079 -0.6577  0.2738
 3299SOL    HW212928   2.531   1.598   1.268 -0.2785 -1.1022  0.2005
 3299SOL    HW312929   2.525   1.475   1.356  1.5485 -0.8752  0.6791
 3299SOL    MW412930   2.537   1.560   1.346 -0.3421  0.1115 -0.0232
 3300SOL     OW12931   4.512   1.495   2.998 -0.5204 -0.2073 -0.1929
 3300SOL    HW212932   4.422   1.501   2.964 -0.6255 -1.1214 -0.0960
 3300SOL    HW312933   4.519   1.567   3.061 -1.7730 -1.1948  1.1369
 3300SOL    MW412934   4.501   1.505   3.001  0.0114  0.0430 -0.0461
 3301SOL     OW12935   5.256   4.376   1.200 -1.0206  0.2736  0.4278
 3301SOL    HW212936   5.343   4.347   1.227 -1.5574 -1.4718  0.4629
 3301SOL    HW312937   5.211   4.396   1.282 -0.3050  2.3991  0.3515
 3301SOL    MW412938   5.262   4.374   1.214 -0.0249 -0.5999 -0.4792
 3302SOL     OW12939   3.334   0.037   4.513  0.1663 -0.1982 -1.1873
 3302SOL    HW212940   3.357   0.058   4.423 -0.5242  2.2984 -0.8505
 3302SOL    HW312941   3.239   0.052   4.518  0.2246 -0.1388 -0.0025
 3302SOL    MW412942   3.324   0.042   4.502 -0.3839 -0.1041 -0.0127
 3303SOL     OW12943   3.035   5.374   3.411  0.5600  0.2381  0.6119
 3303SOL    HW212944   2.976   5.368   3.336  1.4619 -2.7620  0.0369
 3303SOL    HW312945   3.117   5.409   3.374  0.4167  0.5774  0.6084
 3303SOL    MW412946   3.038   5.378   3.396  0.4430  0.4885  0.7423
 3304SOL     OW12947   3.000   2.845   1.211  0.0187  0.3328  0.1387
 3304SOL    HW212948   2.952   2.804   1.283  0.6733  0.9374  0.9313
 3304SOL    HW312949   2.959   2.931   1.200  0.0243  0.3043 -0.1097
 3304SOL    MW412950   2.988   2.851   1.219  0.5737 -0.6337  0.0247
 3305SOL     OW12951   4.845   2.128   0.822  0.0769  0.4413 -0.2467
 3305SOL    HW212952   4.755   2.133   0.855  0.4203 -0.9216  1.0020
 3305SOL    HW312953   4.899   2.121   0.901  1.4679  2.7847 -0.8854
 3305SOL    MW412954   4.840   2.128   0.837 -0.5602  0.3796  0.2389
 3306SOL     OW12955   5.719   4.772   3.117  0.7418 -0.2929 -0.2939
 3306SOL    HW212956   5.746   4.856   3.154 -2.8599  1.6595 -1.5936
 3306SOL    HW312957   5.658   4.795   3.047 -0.2024 -4.0110 -0.9238
 3306SOL    MW412958   5.714   4.786   3.113  0.3535 -0.3299 -0.1931
 3307SOL     OW12959   0.718   0.162   3.518 -0.1070  0.4313 -0.3344
 3307SOL    HW212960   0.798   0.111   3.526 -0.9515 -0.9290 -0.3200
 3307SOL    HW312961   0.701   0.166   3.424  0.8720  2.1928 -0.4739
 3307SOL    MW412962   0.726   0.156   3.507 -0.3203 -0.0853  0.3300
 3308SOL     OW12963   0.388   1.773   2.657 -0.0494  0.3171 -0.0457
 3308SOL    HW212964   0.381   1.775   2.561  0.5064 -0.9171 -0.1390
 3308SOL    HW312965   0.457   1.709   2.674  0.9461  1.6701  1.1642
 3308SOL    MW412966   0.396   1.765   2.646  0.1920 -0.5051  0.4195
 3309SOL     OW12967   1.994   3.646   5.045 -0.1120 -0.0388 -0.3266
 3309SOL    HW212968   1.917   3.703   5.039  1.4091  2.0074 -1.8027
 3309SOL    HW312969   1.976   3.576   4.983 -2.5908 -2.0932  2.4436
 3309SOL    MW412970   1.982   3.645   5.036  0.9696 -0.6325  1.0055
 3310SOL     OW12971   0.808   5.421   1.845  0.3230  0.7853 -0.1533
 3310SOL    HW212972   0.722   5.394   1.876 -0.9460  2.8359 -1.5510
 3310SOL    HW312973   0.814   5.386   1.756  1.6037 -0.5679  0.4318
 3310SOL    MW412974   0.798   5.413   1.837 -0.2488  0.0468  0.2837
 3311SOL     OW12975   5.161   5.988   3.577 -0.3378 -0.4521  0.0700
 3311SOL    HW212976   5.111   5.909   3.600 -1.2124  0.3183  0.9445
 3311SOL    HW312977   5.217   5.961   3.505  0.5014 -2.2905  1.3315
 3311SOL    MW412978   5.162   5.974   3.571  0.7461 -0.0442 -0.6034
 3312SOL     OW12979   0.671   1.126   6.173  0.1595  0.2929  0.0927
 3312SOL    HW212980   0.637   1.043   6.142  1.0828 -0.2904  0.5719
 3312SOL    HW312981   0.599   1.188   6.162 -0.0027 -0.1787 -1.8433
 3312SOL    MW412982   0.657   1.123   6.168  0.1221 -0.5613 -0.2167
 3313SOL     OW12983   6.393   3.025   1.191  0.1320 -0.2716  0.1974
 3313SOL    HW212984   6.462   2.966   1.223  0.5082  0.3243  0.5095
 3313SOL    HW312985   6.440   3.093   1.144 -0.1201  0.8172  1.4595
 3313SOL    MW412986   6.409   3.026   1.189  0.0643 -0.6815 -0.0801
 3314SOL     OW12987   3.534   3.514   0.652 -0.1166 -0.1280 -0.1373
 3314SOL    HW212988   3.521   3.452   0.724 -0.0274  1.3361  1.1910
 3314SOL    HW312989   3.615   3.486   0.610 -0.3408 -1.2000  0.1200
 3314SOL    MW412990   3.543   3.502   0.656  0.5295 -0.1313  0.0239
 3315SOL     OW12991   4.263   6.386   1.253  0.3507 -0.0300  0.0340
 3315SOL    HW212992   4.178   6.346   1.233 -0.4908  2.5981 -2.2766
 3315SOL    HW312993   4.246   6.480   1.255  2.7685  0.4682  2.2153
 3315SOL    MW412994   4.250   6.393   1.250  0.1845 -0.3777 -0.0244
 3316SOL     OW12995   4.976   2.523   6.200 -0.3481 -0.2304 -0.2563
 3316SOL    HW212996   4.973   2.430   6.223  1.4784  0.1117  1.7252
 3316SOL    HW312997   4.994   2.567   6.283  0.5357  1.7420 -1.4320
 3316SOL    MW412998   4.978   2.516   6.214  0.2171 -0.0131  0.4788
 3317SOL     OW12999   2.341   1.095   4.261 -0.0420  0.2303 -0.0097
 3317SOL    HW213000   2.405   1.133   4.200  0.5664  0.2631  0.6432
 3317SOL    HW313001   2.374   1.118   4.348  0.8074 -2.4980  0.4733
 3317SOL    MW413002   2.354   1.103   4.264  0.2668 -0.2165  0.1104
 3318SOL     OW13003   4.410   0.073   2.854 -0.0033 -0.2615 -0.2927
 3318SOL    HW213004   4.383   0.164   2.841 -1.5553 -0.6330  0.0785
 3318SOL    HW313005   4.434   0.068   2.946  0.4017 -0.1482 -0.3929
 3318SOL    MW413006   4.409   0.084   2.864  0.4969  0.0724 -0.2215
 3319SOL     OW13007   3.890   4.049   1.980  0.5060  0.3879  1.0004
 3319SOL    HW213008   3.943   3.971   1.960  0.2454  0.0010  1.7764
 3319SOL    HW313009   3.837   4.063   1.902  0.1695 -0.5412  1.0490
 3319SOL    MW413010   3.890   4.040   1.967  0.4146  0.2614  0.2922
 3320SOL     OW13011   0.199   5.446   4.524 -0.3101  0.5600  0.1742
 3320SOL    HW213012   0.244   5.522   4.560  1.5157 -0.1396 -0.5408
 3320SOL    HW313013   0.206   5.379   4.592  0.3602  0.2335 -0.2088
 3320SOL    MW413014   0.206   5.447   4.538  0.2630  0.2967 -0.0591
 3321SOL     OW13015   1.958   1.780   6.215  0.0935  0.2359 -0.1698
 3321SOL    HW213016   1.893   1.819   6.272 -0.9791 -0.4928 -0.8648
 3321SOL    HW313017   1.922   1.694   6.192  1.5750 -0.4384 -0.0843
 3321SOL    MW413018   1.945   1.774   6.219 -0.3468  0.2483  0.4783
 3322SOL     OW13019   6.347   2.063   2.249  0.2578 -0.2761 -0.1727
 3322SOL    HW213020   6.253   2.066   2.266  0.0212  1.8266 -1.4971
 3322SOL    HW313021   6.354   2.032   2.159  0.8084 -0.0931 -0.1938
 3322SOL    MW413022   6.335   2.060   2.239  0.0186  0.3042  0.1207
 3323SOL     OW13023   4.577   4.970   2.686  0.2653 -0.4013  0.1149
 3323SOL    HW213024   4.638   5.044   2.693 -0.8334  0.5492 -0.1988
 3323SOL    HW313025   4.588   4.923   2.769  0.1649  0.7427  0.7989
 3323SOL    MW413026   4.587   4.973   2.698 -0.0391  0.4693 -0.3957
 3324SOL     OW13027   3.306   3.916   1.447 -0.2439  0.2658 -0.1165
 3324SOL    HW213028   3.311   3.907   1.543  0.1266 -0.6596 -0.2185
 3324SOL    HW313029   3.249   3.844   1.419 -0.3598  0.5410 -0.5940
 3324SOL    MW413030   3.299   3.905   1.456  0.5662  0.6502 -0.2226
 3325SOL     OW13031   5.344   2.397   4.535 -0.0491  0.3696  0.5580
 3325SOL    HW213032   5.404   2.385   4.609  2.2908  2.2419 -0.8874
 3325SOL    HW313033   5.393   2.450   4.472 -2.2637 -0.3623 -1.9827
 3325SOL    MW413034   5.358   2.403   4.537 -0.7489 -1.2232  0.1721
 3326SOL     OW13035   2.791   2.489   3.095  0.2173 -0.0032 -0.3912
 3326SOL    HW213036   2.702   2.519   3.079 -0.3655 -1.4330 -0.0341
 3326SOL    HW313037   2.833   2.489   3.009 -1.1855 -2.4285 -1.1926
 3326SOL    MW413038   2.785   2.493   3.081 -0.5251 -0.0200  0.2135
 3327SOL     OW13039   1.539   4.179   4.776 -0.4219  0.4160  0.3601
 3327SOL    HW213040   1.531   4.123   4.699  0.8706 -0.3513  0.7585
 3327SOL    HW313041   1.539   4.268   4.741 -1.9216  0.1754 -0.3298
 3327SOL    MW413042   1.538   4.184   4.761  0.1909  0.1664 -0.6904
 3328SOL     OW13043   1.197   1.173   1.800 -0.0701 -0.0410 -0.5607
 3328SOL    HW213044   1.121   1.145   1.852 -0.1879  0.2484 -0.5748
 3328SOL    HW313045   1.256   1.098   1.802  0.4776  0.4036  1.0113
 3328SOL    MW413046   1.195   1.159   1.807 -0.3667  0.3627  0.7096
 3329SOL     OW13047   0.261   3.189   6.116 -0.1300 -0.0645 -0.5777
 3329SOL    HW213048   0.209   3.234   6.183  3.3381  1.5962  1.2435
 3329SOL    HW313049   0.316   3.128   6.165  2.6128  1.2772 -1.7715
 3329SOL    MW413050   0.261   3.187   6.131 -0.9357  0.5339 -0.3393
 3330SOL     OW13051   2.585   3.425   5.438  0.6870 -0.4461 -0.6971
 3330SOL    HW213052   2.678   3.412   5.457  0.5391  0.1418  0.5169
 3330SOL    HW313053   2.559   3.497   5.496 -0.6115 -0.8329 -0.7796
 3330SOL    MW413054   2.594   3.433   5.448 -0.0360 -0.0168 -0.0576
 3331SOL     OW13055   0.982   1.080   4.519  1.0105 -0.4292  0.5144
 3331SOL    HW213056   1.005   1.071   4.427 -0.9358 -0.8441  0.0234
 3331SOL    HW313057   1.001   0.995   4.557  1.0460 -0.5126  0.3102
 3331SOL    MW413058   0.987   1.068   4.512 -0.2104  0.4835  0.5309
 3332SOL     OW13059   0.466   6.191   5.605  0.0273  0.5472  0.1761
 3332SOL    HW213060   0.514   6.217   5.684  0.7221 -0.5049  0.1175
 3332SOL    HW313061   0.460   6.096   5.610 -0.9433  0.5509 -0.4739
 3332SOL    MW413062   0.471   6.182   5.616  0.4964 -0.4717  0.2606
 3333SOL     OW13063   3.722   4.606   5.381 -0.0315  0.0250  0.7298
 3333SOL    HW213064   3.675   4.688   5.397 -1.0009 -0.7629  2.2295
 3333SOL    HW313065   3.656   4.547   5.344  0.7712  0.0270 -0.7925
 3333SOL    MW413066   3.707   4.609   5.378 -0.7473  0.4240 -0.3290
 3334SOL     OW13067   2.011   3.168   3.507 -0.1754 -0.1480  0.4762
 3334SOL    HW213068   1.947   3.136   3.444 -0.5072  0.5750  0.4427
 3334SOL    HW313069   2.002   3.110   3.582 -0.4351 -0.4308  0.2291
 3334SOL    MW413070   2.002   3.156   3.508 -0.0630 -0.4112  0.0907
 3335SOL     OW13071   5.541   2.617   4.863 -0.3803  0.0306  0.7805
 3335SOL    HW213072   5.526   2.708   4.839 -1.6572 -0.3434  0.0824
 3335SOL    HW313073   5.632   2.601   4.839 -0.0507  1.1891  1.1713
 3335SOL    MW413074   5.551   2.627   4.857  0.1288 -0.3414  0.8535
 3336SOL     OW13075   1.674   5.152   5.674 -0.1857  0.4916 -0.1290
 3336SOL    HW213076   1.686   5.239   5.636 -0.2447 -0.1531 -1.6900
 3336SOL    HW313077   1.604   5.113   5.622 -1.2054  0.0146  1.5019
 3336SOL    MW413078   1.666   5.159   5.662  0.0414  0.0487 -0.6390
 3337SOL     OW13079   3.695   0.030   2.779 -0.1727 -0.4756 -0.3936
 3337SOL    HW213080   3.682  -0.048   2.834 -1.0955  0.3471  0.6026
 3337SOL    HW313081   3.705   0.102   2.842  1.1437  0.1528 -1.2938
 3337SOL    MW413082   3.695   0.029   2.795  0.1559 -0.0696 -0.1362
 3338SOL     OW13083   5.615   5.574   2.746  0.1993  0.0959 -0.6526
 3338SOL    HW213084   5.544   5.532   2.795  0.7076 -0.4458 -0.3678
 3338SOL    HW313085   5.670   5.501   2.716  1.0038  0.5463 -0.2977
 3338SOL    MW413086   5.613   5.559   2.748  0.4721  0.5372  0.5016
 3339SOL     OW13087   3.999   1.435   1.218  0.0619  0.1710  0.6127
 3339SOL    HW213088   4.070   1.459   1.159  0.4298 -2.9061 -0.3112
 3339SOL    HW313089   4.043   1.407   1.298 -0.1141 -0.9482  0.3333
 3339SOL    MW413090   4.014   1.435   1.221  0.1551 -0.1806  0.3461
 3340SOL     OW13091   4.977   1.821   0.951  0.1921 -0.0450  0.0908
 3340SOL    HW213092   5.018   1.838   0.866  1.4416 -1.0436  0.4687
 3340SOL    HW313093   4.975   1.907   0.993  1.4448  0.1267 -0.1477
 3340SOL    MW413094   4.982   1.835   0.945  1.3377 -0.0432  0.0247
 3341SOL     OW13095   1.941   1.826   2.781  0.1016 -0.0204  0.5232
 3341SOL    HW213096   1.940   1.741   2.825  0.2197  0.2287  1.0209
 3341SOL    HW313097   1.973   1.808   2.693 -0.2448 -0.5481  0.5005
 3341SOL    MW413098   1.945   1.812   2.775 -0.2716 -0.4507  0.1035
 3342SOL     OW13099   4.510   3.930   6.156 -0.1943  0.1307  0.1276
 3342SOL    HW213100   4.449   3.927   6.083  0.3336 -0.5931 -0.2994
 3342SOL    HW313101   4.510   3.841   6.191  0.6110  0.1175  0.1123
 3342SOL    MW413102   4.502   3.918   6.151 -0.8161 -0.0083 -0.1757
 3343SOL     OW13103   6.080   1.626   1.154  0.6899  0.0819  0.2712
 3343SOL    HW213104   6.069   1.716   1.185  1.0426  0.7228 -1.3401
 3343SOL    HW313105   6.036   1.625   1.069  0.0519 -1.4951  0.5918
 3343SOL    MW413106   6.073   1.638   1.147 -0.4908  0.1091 -0.7507
 3344SOL     OW13107   4.469   0.053   2.117 -0.1517  0.1328 -0.4302
 3344SOL    HW213108   4.490   0.119   2.183 -1.0640  0.2297 -0.2373
 3344SOL    HW313109   4.402   0.094   2.062  0.2535 -0.1268 -1.1361
 3344SOL    MW413110   4.463   0.067   2.118  0.1721 -0.3319 -0.2103
 3345SOL     OW13111   4.123   1.662   1.442  0.3654 -0.3604 -0.2996
 3345SOL    HW213112   4.213   1.672   1.410  0.7115  0.6183  0.9227
 3345SOL    HW313113   4.116   1.568   1.461  1.2508 -0.3916 -0.0631
 3345SOL    MW413114   4.134   1.651   1.440 -0.0275 -0.3089  0.0059
 3346SOL     OW13115   6.258   4.314   0.053 -0.1835 -0.0668 -0.0023
 3346SOL    HW213116   6.269   4.365  -0.027  0.8124  0.8808  0.7070
 3346SOL    HW313117   6.288   4.227   0.030  1.6252  0.5837 -0.2616
 3346SOL    MW413118   6.263   4.310   0.039 -0.2543  0.2405 -0.2993
 3347SOL     OW13119   2.106   1.075   0.666 -0.8020  0.4504 -0.2209
 3347SOL    HW213120   2.154   1.081   0.584  0.9038 -3.5170  0.2343
 3347SOL    HW313121   2.173   1.084   0.734 -1.7348  0.9774  0.6461
 3347SOL    MW413122   2.121   1.077   0.664  0.2827  0.1481 -1.1765
 3348SOL     OW13123   0.051   2.150   1.253  0.1628  0.7505  0.3831
 3348SOL    HW213124   0.100   2.207   1.312  0.6936  0.9570 -0.2432
 3348SOL    HW313125   0.109   2.139   1.177  0.6126 -1.6180  1.0026
 3348SOL    MW413126   0.066   2.156   1.251 -0.1495 -1.0087  0.4392
 3349SOL     OW13127   1.240   3.146   6.117  0.3888  0.0539  0.3210
 3349SOL    HW213128   1.242   3.055   6.149 -0.3803 -0.2913 -0.5689
 3349SOL    HW313129   1.308   3.148   6.049  0.6436  0.2432  0.5804
 3349SOL    MW413130   1.249   3.134   6.112  0.1387  0.1392 -0.4375
 3350SOL     OW13131   4.386   4.733   1.836 -0.2212  0.1766 -0.0595
 3350SOL    HW213132   4.384   4.744   1.741 -2.8876 -2.2632 -0.4464
 3350SOL    HW313133   4.478   4.722   1.857  0.6094  2.5179 -2.0427
 3350SOL    MW413134   4.398   4.733   1.826 -0.0431 -0.4245 -0.1060
 3351SOL     OW13135   2.686   4.817   5.261  0.1790  0.4042  0.3988
 3351SOL    HW213136   2.601   4.786   5.229  0.8312 -0.7570 -0.2431
 3351SOL    HW313137   2.668   4.906   5.292 -1.4872 -0.1683  1.2276
 3351SOL    MW413138   2.672   4.825   5.261 -0.1087 -0.2883  0.0076
 3352SOL     OW13139   1.805   6.151   1.036 -0.4778  0.0329 -0.2199
 3352SOL    HW213140   1.759   6.195   0.964 -1.4056 -0.1276  0.2608
 3352SOL    HW313141   1.823   6.063   1.002  1.2037  0.6637 -1.1087
 3352SOL    MW413142   1.801   6.146   1.022 -0.1555 -0.4423 -0.6218
 3353SOL     OW13143   0.173   3.985   6.050 -0.2537 -0.0186  0.7128
 3353SOL    HW213144   0.198   4.024   5.966 -1.1544 -0.8720  0.0175
 3353SOL    HW313145   0.216   3.900   6.050  0.3979  0.3030  1.4904
 3353SOL    MW413146   0.182   3.979   6.039 -0.0699 -0.2763  0.1340
 3354SOL     OW13147   0.261   6.071   1.557 -0.0024  0.3193 -0.6197
 3354SOL    HW213148   0.274   6.011   1.631  0.1742  1.9328  0.7144
 3354SOL    HW313149   0.294   6.155   1.588 -2.9488  1.8593 -1.2930
 3354SOL    MW413150   0.267   6.074   1.571  0.2944  0.2643 -0.2647
 3355SOL     OW13151   0.571   0.440   1.713  0.1840 -0.3274  0.6348
 3355SOL    HW213152   0.565   0.369   1.776 -2.6691 -1.7131 -1.0126
 3355SOL    HW313153   0.534   0.516   1.759 -1.1752 -1.1293  0.9233
 3355SOL    MW413154   0.565   0.441   1.727 -0.5210  0.4883 -0.2834
 3356SOL     OW13155   0.220   3.966   2.047  0.0994 -0.0777  0.0790
 3356SOL    HW213156   0.128   3.993   2.047  0.0482 -0.2488 -0.0243
 3356SOL    HW313157   0.248   3.975   1.956 -0.0485 -0.7992 -0.0447
 3356SOL    MW413158   0.212   3.970   2.035  0.0249  0.2370 -0.0631
 3357SOL     OW13159   5.272   1.953   5.617  0.0918 -0.6746 -0.1754
 3357SOL    HW213160   5.259   2.029   5.672  0.8549 -1.2541  0.8434
 3357SOL    HW313161   5.358   1.966   5.577  0.6864 -1.4600  0.8038
 3357SOL    MW413162   5.282   1.964   5.619  0.0468  0.4281 -0.4770
 3358SOL     OW13163   3.031   0.395   5.541  0.4498 -0.1626 -0.3577
 3358SOL    HW213164   3.030   0.311   5.495  2.1573 -0.8002  0.6652
 3358SOL    HW313165   2.942   0.429   5.530 -0.4839 -2.3789 -0.3113
 3358SOL    MW413166   3.019   0.388   5.534  0.4689 -0.7603 -0.4719
 3359SOL     OW13167   4.603   3.741   3.724 -0.3763 -0.0263 -0.7944
 3359SOL    HW213168   4.637   3.697   3.646 -0.5227 -0.0601 -0.8399
 3359SOL    HW313169   4.644   3.695   3.797 -0.5663 -0.2724 -0.8410
 3359SOL    MW413170   4.613   3.729   3.723  0.6556 -0.1434  0.8850
 3360SOL     OW13171   0.199   6.175   2.041  0.5020 -0.0176  0.2434
 3360SOL    HW213172   0.225   6.127   1.962 -0.3764  0.7155 -0.5227
 3360SOL    HW313173   0.115   6.215   2.018 -0.2797 -0.5900  1.8944
 3360SOL    MW413174   0.191   6.174   2.028  0.2482 -0.0053 -0.8416
 3361SOL     OW13175   6.035   3.484   5.759  0.2187 -0.3565  0.0556
 3361SOL    HW213176   6.067   3.518   5.842  0.8392  0.0937 -0.3652
 3361SOL    HW313177   6.082   3.533   5.692 -0.4862 -0.5055 -0.5729
 3361SOL    MW413178   6.045   3.495   5.761 -0.0004  0.2736 -0.0614
 3362SOL     OW13179   5.748   3.778   6.113  0.0814  0.5825  0.0936
 3362SOL    HW213180   5.808   3.778   6.188 -0.9238 -0.6835  0.9539
 3362SOL    HW313181   5.805   3.784   6.036  1.0881  3.0511  0.9367
 3362SOL    MW413182   5.763   3.779   6.113  0.1360  0.0080 -0.5777
 3363SOL     OW13183   3.357   2.099   4.295 -0.1525  0.0370  0.3589
 3363SOL    HW213184   3.407   2.041   4.352 -2.5837 -0.5655  2.0437
 3363SOL    HW313185   3.284   2.129   4.349 -0.6981  2.2331 -1.4257
 3363SOL    MW413186   3.354   2.095   4.310  0.2114 -0.1516 -0.4410
 3364SOL     OW13187   2.560   4.349   4.480  0.2759  0.1583  0.3894
 3364SOL    HW213188   2.590   4.403   4.407  1.5707 -0.2596  0.5805
 3364SOL    HW313189   2.503   4.406   4.531 -0.2513  0.6042 -0.6606
 3364SOL    MW413190   2.556   4.363   4.477 -0.2378 -0.0112  0.4052
 3365SOL     OW13191   4.091   0.286   4.150 -0.1271 -0.5171 -0.3636
 3365SOL    HW213192   4.174   0.310   4.191 -0.5326 -0.2910  0.3537
 3365SOL    HW313193   4.043   0.368   4.143 -1.1426 -0.9280  1.2203
 3365SOL    MW413194   4.095   0.300   4.155  0.2813  0.0141 -0.0234
 3366SOL     OW13195   3.132   6.428   5.025  0.4714 -0.5904  0.1357
 3366SOL    HW213196   3.170   6.482   4.955  1.1156  0.1435  1.0294
 3366SOL    HW313197   3.060   6.482   5.060 -0.7012 -1.4947 -0.7879
 3366SOL    MW413198   3.127   6.442   5.020  0.1085 -0.7821 -0.2399
 3367SOL     OW13199   3.885   6.264   3.516  0.0151  0.6273 -0.1119
 3367SOL    HW213200   3.790   6.257   3.507  0.0814  0.1689 -0.5350
 3367SOL    HW313201   3.919   6.224   3.436  0.5709  0.2881  0.2888
 3367SOL    MW413202   3.877   6.258   3.504  0.1940 -0.1888  0.7218
 3368SOL     OW13203   4.627   3.341   3.294  0.3299  0.3294 -0.0482
 3368SOL    HW213204   4.555   3.290   3.332  1.3186  0.3273  1.9791
 3368SOL    HW313205   4.703   3.320   3.349  1.1729  2.6297 -0.2072
 3368SOL    MW413206   4.628   3.332   3.306 -0.3031 -0.3760  0.3856
 3369SOL     OW13207   1.481   5.859   0.798 -0.1375 -0.0756 -0.3375
 3369SOL    HW213208   1.386   5.846   0.797 -0.4684  1.9318 -0.4506
 3369SOL    HW313209   1.516   5.790   0.741 -1.6994  0.1226 -1.6121
 3369SOL    MW413210   1.473   5.849   0.790 -0.0533  0.2131  0.2269
 3370SOL     OW13211   4.163   6.106   4.398 -0.1765 -0.4060  0.7975
 3370SOL    HW213212   4.233   6.170   4.386 -0.2829 -0.2597  0.9663
 3370SOL    HW313213   4.207   6.021   4.392 -0.5864 -0.5502 -3.9205
 3370SOL    MW413214   4.178   6.103   4.396  0.0029  0.0768  0.3959
 3371SOL     OW13215   3.850   2.865   0.679 -0.2022 -0.2305  0.8414
 3371SOL    HW213216   3.770   2.892   0.724 -0.0059  0.2281  0.9248
 3371SOL    HW313217   3.893   2.805   0.739 -1.1155 -1.4978  0.2568
 3371SOL    MW413218   3.845   2.861   0.693 -0.2014  0.4413  0.3080
 3372SOL     OW13219   4.449   4.494   0.262  0.0084 -0.4100 -0.4681
 3372SOL    HW213220   4.539   4.480   0.291 -1.0737  0.4395  3.9018
 3372SOL    HW313221   4.444   4.587   0.243 -0.0271 -0.4403 -0.6146
 3372SOL    MW413222   4.460   4.504   0.263  0.0080 -0.1182  0.4843
 3373SOL     OW13223   5.517   5.973   4.514 -1.0732  0.3293 -0.1359
 3373SOL    HW213224   5.480   5.924   4.441 -0.4725 -0.5223  0.1107
 3373SOL    HW313225   5.496   5.920   4.592 -0.9272  0.7650  0.2050
 3373SOL    MW413226   5.509   5.960   4.515  0.7692 -0.4158  0.3867
 3374SOL     OW13227   0.924   4.783   3.338 -0.4263 -0.0385 -0.4923
 3374SOL    HW213228   0.993   4.780   3.271 -1.2519 -2.5604 -1.3435
 3374SOL    HW313229   0.964   4.741   3.414  0.2525  2.1383  0.4208
 3374SOL    MW413230   0.938   4.777   3.339  0.4304 -0.3726  0.9429
 3375SOL     OW13231   3.219   4.422   4.543 -0.4669 -0.1614 -0.6280
 3375SOL    HW213232   3.142   4.377   4.507 -1.1336 -0.9958  1.6799
 3375SOL    HW313233   3.238   4.376   4.625 -0.4472  2.9687  1.2983
 3375SOL    MW413234   3.211   4.410   4.549 -0.3926 -0.0783 -0.1861
 3376SOL     OW13235   4.426   0.970   2.722 -0.4684  0.0411  0.3162
 3376SOL    HW213236   4.411   0.926   2.638  0.2424  1.8822 -0.8481
 3376SOL    HW313237   4.455   1.058   2.698 -0.9385  0.8664  2.5186
 3376SOL    MW413238   4.428   0.975   2.708 -0.3728  0.0100 -0.0586
 3377SOL     OW13239   4.646   1.392   3.829  0.2821  0.0344 -0.3622
 3377SOL    HW213240   4.586   1.408   3.757 -0.8752  0.6942  0.7062
 3377SOL    HW313241   4.728   1.367   3.787 -0.4071  0.2282 -1.8850
 3377SOL    MW413242   4.649   1.391   3.814  0.2203 -0.1627 -0.0368
 3378SOL     OW13243   5.748   2.612   3.885 -0.4300 -0.0178 -0.5435
 3378SOL    HW213244   5.750   2.627   3.790  0.4242 -0.3289 -0.5786
 3378SOL    HW313245   5.663   2.648   3.912 -0.4499  0.5765 -1.3349
 3378SOL    MW413246   5.737   2.619   3.876 -0.0794 -0.6483  0.2504
 3379SOL     OW13247   0.823   3.930   4.608 -0.7818 -0.3350 -0.8931
 3379SOL    HW213248   0.774   3.972   4.537 -0.6053  0.6963 -0.4186
 3379SOL    HW313249   0.867   4.002   4.653  0.1093 -1.1126 -0.4943
 3379SOL    MW413250   0.822   3.945   4.605  0.1964  0.4410  0.1735
 3380SOL     OW13251   2.285   4.869   5.894 -0.0184  0.9732  0.3764
 3380SOL    HW213252   2.368   4.876   5.847  0.4017 -0.1879  0.8943
 3380SOL    HW313253   2.229   4.936   5.855  0.6714  0.7744 -1.0185
 3380SOL    MW413254   2.289   4.879   5.883 -0.1454  0.0050  0.2892
 3381SOL     OW13255   4.329   4.881   5.418 -0.3851 -0.4147  0.1923
 3381SOL    HW213256   4.382   4.816   5.371  1.3288  0.4338  0.8940
 3381SOL    HW313257   4.308   4.947   5.352  0.1878 -0.3123  0.1093
 3381SOL    MW413258   4.333   4.881   5.403 -0.0660  0.0486  1.1217
 3382SOL     OW13259   1.096   1.017   2.959 -0.1801  0.3587 -0.3519
 3382SOL    HW213260   1.158   1.057   2.898 -1.0211  0.9226 -0.8677
 3382SOL    HW313261   1.014   1.064   2.943 -0.5586  0.1076  0.8108
 3382SOL    MW413262   1.093   1.028   2.949 -0.2616 -0.1223  0.7932
 3383SOL     OW13263   0.017   0.527   6.112  0.2156 -0.1545 -0.2672
 3383SOL    HW213264  -0.036   0.455   6.078 -2.7682  1.9014 -0.3499
 3383SOL    HW313265   0.069   0.556   6.036 -0.2339 -0.7566 -0.8213
 3383SOL    MW413266   0.017   0.521   6.097 -0.0030  0.0301  0.2504
 3384SOL     OW13267   0.691   5.911   5.387  0.2659  0.1024 -0.1011
 3384SOL    HW213268   0.774   5.864   5.389 -0.3696 -1.0215  0.8891
 3384SOL    HW313269   0.632   5.854   5.337  0.2125  1.1541 -1.3016
 3384SOL    MW413270   0.694   5.898   5.380  0.0557  0.4950  0.3178
 3385SOL     OW13271   1.361   0.025   3.826 -0.2081 -0.1976  0.3965
 3385SOL    HW213272   1.315   0.016   3.910 -1.6390 -2.1895 -0.5207
 3385SOL    HW313273   1.432   0.087   3.844 -1.0758  0.2065  2.8043
 3385SOL    MW413274   1.364   0.032   3.839  0.0832 -0.5030  0.0169
 3386SOL     OW13275   6.217   5.385   3.337  0.1601 -0.3839  0.6421
 3386SOL    HW213276   6.173   5.305   3.365  2.4285 -1.9102  0.1680
 3386SOL    HW313277   6.254   5.363   3.252  2.6651  0.3588  1.4558
 3386SOL    MW413278   6.216   5.371   3.329  0.2530  0.2342  0.1228
 3387SOL     OW13279   6.058   2.095   1.061  0.2324  0.1920  0.5156
 3387SOL    HW213280   6.099   2.074   0.978  0.3207  0.3390  0.5209
 3387SOL    HW313281   6.027   2.011   1.096  2.5623 -0.2888  1.6237
 3387SOL    MW413282   6.059   2.081   1.055  0.3031 -0.0226  0.1539
 3388SOL     OW13283   6.286   1.965   1.701  0.6132  0.3631 -0.0201
 3388SOL    HW213284   6.215   1.942   1.761  1.0581 -1.7859 -0.2347
 3388SOL    HW313285   6.242   2.001   1.624 -0.3492 -1.6439 -0.4644
 3388SOL    MW413286   6.271   1.967   1.698 -0.0055  0.2324  0.2148
 3389SOL     OW13287   2.021   0.586   0.482  0.1308 -0.5064 -1.0602
 3389SOL    HW213288   2.020   0.540   0.398  0.0355 -1.0589 -0.7685
 3389SOL    HW313289   1.939   0.559   0.524 -0.1497  0.3097 -1.0709
 3389SOL    MW413290   2.010   0.576   0.476  0.7334  0.0652  0.3172
 3390SOL     OW13291   3.848   3.455   1.221  0.8772  0.1690  0.5132
 3390SOL    HW213292   3.801   3.515   1.279  1.5915 -0.2977  1.6166
 3390SOL    HW313293   3.822   3.481   1.133 -1.4550 -0.0862  1.0605
 3390SOL    MW413294   3.838   3.466   1.217  0.4733  0.2405 -0.1240
 3391SOL     OW13295   5.721   6.109   4.923 -0.0922  0.0923 -0.6437
 3391SOL    HW213296   5.793   6.046   4.928 -0.8024 -0.6261  1.3635
 3391SOL    HW313297   5.674   6.098   5.005 -2.4188  0.6545 -1.8303
 3391SOL    MW413298   5.725   6.099   4.934 -0.0630  0.5173 -0.0712
 3392SOL     OW13299   5.661   4.731   6.128 -0.1716 -0.2075  0.1175
 3392SOL    HW213300   5.745   4.776   6.138 -0.4963  0.3879  0.2093
 3392SOL    HW313301   5.605   4.769   6.195  0.0465 -1.9830  1.3598
 3392SOL    MW413302   5.665   4.742   6.138  0.5191 -0.2296 -0.1210
 3393SOL     OW13303   1.783   5.289   2.375 -0.3309  0.3065 -0.5914
 3393SOL    HW213304   1.820   5.278   2.462  0.6307  2.9338 -0.5540
 3393SOL    HW313305   1.851   5.258   2.315 -0.7031 -0.8336 -0.4359
 3393SOL    MW413306   1.797   5.284   2.378 -0.2438  0.2425  0.0864
 3394SOL     OW13307   5.996   2.710   2.321  0.6236  0.0407  0.0462
 3394SOL    HW213308   5.966   2.630   2.277  1.3204  0.1229 -0.6133
 3394SOL    HW313309   6.061   2.747   2.261 -0.0373  1.3684  0.1232
 3394SOL    MW413310   6.001   2.704   2.307 -0.5944 -0.0770  0.3554
 3395SOL     OW13311   2.378   3.940   2.293 -0.6448 -0.1912  0.2477
 3395SOL    HW213312   2.311   4.003   2.264 -0.4555 -0.1404 -0.0864
 3395SOL    HW313313   2.449   3.951   2.231  0.5870  1.2864  1.8105
 3395SOL    MW413314   2.378   3.950   2.281  0.2641  0.2508  0.3346
 3396SOL     OW13315   3.605   0.216   1.578  0.7497 -0.6984 -0.4188
 3396SOL    HW213316   3.577   0.183   1.493  2.2577  1.5032 -1.9126
 3396SOL    HW313317   3.527   0.256   1.616  0.4297 -0.0763 -1.6721
 3396SOL    MW413318   3.591   0.217   1.572  0.1455  0.1877 -0.5470
 3397SOL     OW13319   2.119   0.564   5.855 -0.0855 -0.2365  0.1050
 3397SOL    HW213320   2.113   0.629   5.785  0.2966 -1.2637 -0.9249
 3397SOL    HW313321   2.089   0.610   5.933 -0.1355  1.0701 -0.6475
 3397SOL    MW413322   2.114   0.578   5.856 -0.2698  0.1251  0.7023
 3398SOL     OW13323   2.396   1.941   2.584  0.5758 -0.0995  0.4967
 3398SOL    HW213324   2.479   1.950   2.632 -1.4146 -0.8654  4.5650
 3398SOL    HW313325   2.372   1.849   2.596 -1.6545  0.4988  0.9530
 3398SOL    MW413326   2.404   1.930   2.592  0.2948 -0.5228  0.1084
 3399SOL     OW13327   4.342   5.410   2.071 -0.3670  0.0797 -0.0896
 3399SOL    HW213328   4.308   5.402   1.983 -0.2372 -0.9222 -0.0540
 3399SOL    HW313329   4.416   5.471   2.063 -1.6215  1.6375 -0.2950
 3399SOL    MW413330   4.348   5.417   2.059  0.1302  0.1925  0.4529
 3400SOL     OW13331   0.512   0.698   1.294 -0.2908  1.0159  0.1240
 3400SOL    HW213332   0.432   0.751   1.302 -0.1919  1.1713  0.0891
 3400SOL    HW313333   0.484   0.609   1.317 -0.2790  1.2263  0.9715
 3400SOL    MW413334   0.498   0.693   1.298  0.6704  0.1924  0.1278
 3401SOL     OW13335   3.200   3.220   1.654  0.6945  0.0482 -0.4357
 3401SOL    HW213336   3.163   3.156   1.593  0.3638 -0.2350  0.0548
 3401SOL    HW313337   3.224   3.295   1.599  2.2882 -0.9858 -1.2102
 3401SOL    MW413338   3.198   3.222   1.639 -0.2252  0.7399  0.3343
 3402SOL     OW13339   0.130   4.835   2.467 -0.6317 -1.0683  0.0996
 3402SOL    HW213340   0.135   4.751   2.512 -0.7470 -0.9349  0.3679
 3402SOL    HW313341   0.062   4.823   2.401 -0.6958 -1.1668  0.1835
 3402SOL    MW413342   0.121   4.823   2.464  0.1058  0.0707 -0.7043
 3403SOL     OW13343   5.774   0.339   1.521 -0.5496  0.1862  0.2754
 3403SOL    HW213344   5.705   0.401   1.545 -1.5055 -0.0912 -1.5773
 3403SOL    HW313345   5.727   0.264   1.485  0.6809 -0.4050 -0.1446
 3403SOL    MW413346   5.759   0.337   1.519  0.3352 -0.2642  0.1901
 3404SOL     OW13347   4.372   3.996   4.151 -0.0306  0.2155  0.1904
 3404SOL    HW213348   4.437   3.926   4.155  0.0553  0.3460  1.5766
 3404SOL    HW313349   4.345   4.008   4.241 -0.1097  1.9161 -0.0369
 3404SOL    MW413350   4.377   3.988   4.163 -0.8612  0.7636  0.2211
 3405SOL     OW13351   2.526   2.791   1.981  0.1757 -0.6486 -0.3918
 3405SOL    HW213352   2.606   2.747   2.010  0.5028  0.2286  0.0597
 3405SOL    HW313353   2.488   2.826   2.061 -0.2111 -0.3220 -0.7179
 3405SOL    MW413354   2.532   2.790   1.995 -0.2684 -0.1415 -0.1680
 3406SOL     OW13355   4.917   3.736   0.194  0.3088 -0.0429 -0.4036
 3406SOL    HW213356   4.982   3.806   0.199 -0.9894  1.1104  1.2428
 3406SOL    HW313357   4.880   3.744   0.106  1.1455  0.4494 -0.7183
 3406SOL    MW413358   4.921   3.746   0.183 -0.4840 -0.1557  0.0642
 3407SOL     OW13359   3.527   3.680   3.250 -0.0260 -0.1422  0.0183
 3407SOL    HW213360   3.559   3.591   3.267 -0.8633 -0.4250  0.1749
 3407SOL    HW313361   3.601   3.736   3.271 -0.0517 -0.6916  1.7467
 3407SOL    MW413362   3.541   3.675   3.255 -0.5213 -0.7194 -0.3351
 3408SOL     OW13363   3.894   2.039   0.899 -0.2768  0.3511  1.0214
 3408SOL    HW213364   3.884   2.122   0.853  2.3593 -0.1206 -0.6184
 3408SOL    HW313365   3.972   2.050   0.953 -0.0185 -0.9760  0.9545
 3408SOL    MW413366   3.903   2.051   0.900  0.1012 -0.3098 -0.2745
 3409SOL     OW13367   5.583   1.232   6.395  0.0367  0.4176  0.5130
 3409SOL    HW213368   5.631   1.306   6.432 -1.2684  0.8975  1.2945
 3409SOL    HW313369   5.559   1.260   6.307 -1.4582  1.4364  1.2022
 3409SOL    MW413370   5.586   1.245   6.389 -0.1004 -0.1992 -0.6286
 3410SOL     OW13371   2.018   1.543   1.121 -0.4675  0.3479  0.1191
 3410SOL    HW213372   1.932   1.525   1.083 -1.7046  2.5456  1.7131
 3410SOL    HW313373   2.008   1.523   1.214  0.6411  1.0266  0.3972
 3410SOL    MW413374   2.006   1.538   1.128 -0.0643  0.2906  0.2010
 3411SOL     OW13375   3.613   2.569   3.162 -0.2674 -0.2280  0.2254
 3411SOL    HW213376   3.671   2.500   3.195 -0.3205 -0.4465 -0.1295
 3411SOL    HW313377   3.637   2.647   3.212  2.0077  0.2973 -1.5115
 3411SOL    MW413378   3.624   2.570   3.173 -0.3128 -0.6905 -0.4095
 3412SOL     OW13379   3.823   2.895   4.751 -0.2470 -0.0838  0.3387
 3412SOL    HW213380   3.796   2.928   4.837  0.1622 -2.1392  1.3314
 3412SOL    HW313381   3.890   2.830   4.771  1.6400  1.1002 -1.7273
 3412SOL    MW413382   3.828   2.890   4.765 -0.3609 -0.2796  0.3310
 3413SOL     OW13383   4.382   5.967   1.580  0.1888  0.2250  0.5097
 3413SOL    HW213384   4.390   5.955   1.485 -1.7730 -2.4692  0.5758
 3413SOL    HW313385   4.368   6.061   1.591  0.9834  0.6795 -1.7987
 3413SOL    MW413386   4.381   5.978   1.569  0.2776 -0.0433  0.6816
 3414SOL     OW13387   3.190   2.297   4.111 -0.4503 -0.2417 -0.1242
 3414SOL    HW213388   3.109   2.245   4.118 -0.2431 -0.4360  0.8750
 3414SOL    HW313389   3.259   2.238   4.139 -0.3281  0.8752  2.0899
 3414SOL    MW413390   3.188   2.282   4.115  0.0128  0.0007 -0.6636
 3415SOL     OW13391   0.174   1.856   4.436  0.3449  0.0731  0.4604
 3415SOL    HW213392   0.238   1.927   4.428  1.2680 -0.3950  2.8329
 3415SOL    HW313393   0.219   1.790   4.489 -1.0564 -1.6113 -0.3861
 3415SOL    MW413394   0.189   1.857   4.442 -0.0234 -0.2614 -0.3048
 3416SOL     OW13395   3.372   1.357   2.912 -0.7235  0.2727  0.4720
 3416SOL    HW213396   3.302   1.301   2.878  0.5957 -0.9201 -0.4063
 3416SOL    HW313397   3.422   1.300   2.970  0.3547  0.6736 -0.0475
 3416SOL    MW413398   3.369   1.342   2.915  0.5926  0.2882  0.1761
 3417SOL     OW13399   1.749   4.974   2.125 -0.1527 -0.4460 -0.0475
 3417SOL    HW213400   1.775   4.882   2.123 -1.2006 -0.7855  0.9158
 3417SOL    HW313401   1.709   4.986   2.211  1.7712  1.4351  0.6696
 3417SOL    MW413402   1.747   4.964   2.136 -0.0305  0.7358 -0.4206
 3418SOL     OW13403   0.277   1.300   1.126  0.2574  0.2635 -0.2929
 3418SOL    HW213404   0.191   1.335   1.151 -0.0704 -1.7437  1.6822
 3418SOL    HW313405   0.256   1.225   1.070  0.6141 -0.9085  1.0823
 3418SOL    MW413406   0.263   1.294   1.122  0.1068 -0.8979  0.7687
 3419SOL     OW13407   4.537   6.086   4.394  0.0850  0.1268  0.2797
 3419SOL    HW213408   4.563   6.093   4.303  0.6197  2.1797  0.5460
 3419SOL    HW313409   4.620   6.083   4.443 -0.1919 -0.0630  0.7449
 3419SOL    MW413410   4.551   6.087   4.389 -0.1698 -0.3392  0.0948
 3420SOL     OW13411   5.123   4.573   3.818 -0.0497  0.3962  0.4062
 3420SOL    HW213412   5.202   4.605   3.860  0.2114  0.5488 -0.1948
 3420SOL    HW313413   5.140   4.582   3.724 -0.2953 -0.6938  0.2391
 3420SOL    MW413414   5.136   4.578   3.811 -0.5729 -0.1507  0.1354
 3421SOL     OW13415   2.845   4.177   0.438 -0.9304  0.3074  0.6304
 3421SOL    HW213416   2.917   4.163   0.376 -1.1928 -1.0357  0.6034
 3421SOL    HW313417   2.823   4.270   0.428 -0.5405  0.2728 -0.8150
 3421SOL    MW413418   2.852   4.187   0.428 -0.5090  0.1259 -0.3777
 3422SOL     OW13419   3.206   1.207   4.513 -0.3412 -0.2233  0.4889
 3422SOL    HW213420   3.296   1.185   4.535  0.4612  2.9447  0.7980
 3422SOL    HW313421   3.168   1.125   4.481  2.1183 -2.0398  1.9185
 3422SOL    MW413422   3.213   1.193   4.512  0.3952  0.2726 -0.5908
 3423SOL     OW13423   0.821   1.447   5.566  0.3381  0.3477 -0.8357
 3423SOL    HW213424   0.790   1.471   5.653  2.2900 -0.6645  0.1906
 3423SOL    HW313425   0.795   1.355   5.556 -0.0571  0.5154 -1.4235
 3423SOL    MW413426   0.813   1.438   5.576  0.3675  1.2379 -0.1305
 3424SOL     OW13427   3.442   1.497   1.046  0.2175 -0.1428  0.1973
 3424SOL    HW213428   3.459   1.504   1.140 -1.7225 -0.6043  0.6180
 3424SOL    HW313429   3.403   1.410   1.035  1.9826 -0.8153 -1.3356
 3424SOL    MW413430   3.439   1.486   1.057  0.0143 -0.3673  0.6458
 3425SOL     OW13431   2.434   2.681   0.614  0.1657 -0.0831 -0.0524
 3425SOL    HW213432   2.455   2.591   0.587 -0.7882 -0.2171 -0.4096
 3425SOL    HW313433   2.352   2.700   0.568  1.4370  1.7563 -1.7336
 3425SOL    MW413434   2.426   2.672   0.604  0.1130 -0.4811 -0.5759
 3426SOL     OW13435   1.821   2.780   2.744  0.2047 -0.3770  0.4117
 3426SOL    HW213436   1.905   2.738   2.726  0.2956 -0.6920  1.5459
 3426SOL    HW313437   1.783   2.729   2.814 -0.6835  0.1188  0.3012
 3426SOL    MW413438   1.827   2.768   2.751  0.0519 -0.4876  0.0408
 3427SOL     OW13439   1.661   3.561   1.482 -0.0247 -0.3399  0.1047
 3427SOL    HW213440   1.582   3.549   1.534 -0.2877  0.8483  0.0010
 3427SOL    HW313441   1.643   3.637   1.427  1.4517  0.3862  0.5804
 3427SOL    MW413442   1.648   3.569   1.481  0.4583  0.2855 -0.1862
 3428SOL     OW13443   0.809   3.188   6.408  0.2576  0.1427  0.0533
 3428SOL    HW213444   0.768   3.176   6.323 -1.9217 -2.1984  1.3139
 3428SOL    HW313445   0.807   3.283   6.422  0.2366  0.5343 -2.2470
 3428SOL    MW413446   0.803   3.199   6.399 -0.0414 -0.6084 -0.1576
 3429SOL     OW13447   6.393   2.122   6.029 -0.1812  0.0880 -0.0595
 3429SOL    HW213448   6.393   2.188   6.098 -2.8159 -0.1499  0.2413
 3429SOL    HW313449   6.335   2.157   5.962 -1.0821 -1.6008 -0.2081
 3429SOL    MW413450   6.386   2.136   6.029  0.1809  0.0578 -0.4473
 3430SOL     OW13451   4.674   4.905   3.876  0.5754  0.4020  0.6026
 3430SOL    HW213452   4.693   4.871   3.788  1.2925  0.4804  0.7220
 3430SOL    HW313453   4.744   4.967   3.893 -0.7578  2.0463  0.3585
 3430SOL    MW413454   4.685   4.909   3.866 -0.1482  0.7194 -0.0332
 3431SOL     OW13455   1.251   4.572   4.393 -0.2483  0.5435 -0.3803
 3431SOL    HW213456   1.325   4.515   4.377 -0.0746  0.1066  1.8200
 3431SOL    HW313457   1.287   4.661   4.387  0.5129  0.3333  0.8903
 3431SOL    MW413458   1.265   4.576   4.390  0.2802  0.7073 -0.1049
 3432SOL     OW13459   2.752   2.689   3.521  0.2538 -0.0824 -0.2885
 3432SOL    HW213460   2.760   2.596   3.501  0.4532  0.1643 -1.3939
 3432SOL    HW313461   2.832   2.729   3.488 -0.2871  0.6300 -0.7918
 3432SOL    MW413462   2.763   2.682   3.514 -0.4646 -0.4726 -0.2543
 3433SOL     OW13463   3.929   4.056   4.649 -0.0405 -0.7779  0.2349
 3433SOL    HW213464   3.926   4.063   4.554  2.6295  1.5452  0.1871
 3433SOL    HW313465   3.881   4.133   4.681 -1.2780 -1.7557  0.8542
 3433SOL    MW413466   3.922   4.067   4.641  0.1433 -0.1794  0.1537
 3434SOL     OW13467   6.043   5.888   0.260 -0.8267 -0.1378  0.0702
 3434SOL    HW213468   6.074   5.888   0.351 -1.5690  2.0683  0.3924
 3434SOL    HW313469   6.111   5.937   0.212 -0.9348 -0.4058 -0.3617
 3434SOL    MW413470   6.056   5.895   0.266  0.1295  0.2832 -0.1842
 3435SOL     OW13471   0.307   3.059   4.697 -0.3052  1.0862 -0.0287
 3435SOL    HW213472   0.314   2.967   4.674 -1.9072  1.2431 -1.3293
 3435SOL    HW313473   0.354   3.067   4.780 -2.0376 -1.3682  1.3016
 3435SOL    MW413474   0.314   3.048   4.705  0.2457 -0.1849  0.1209
 3436SOL     OW13475   3.022   2.695   3.489 -0.2087  0.2315  0.2474
 3436SOL    HW213476   3.081   2.680   3.414  0.1105 -0.0690  0.5543
 3436SOL    HW313477   2.988   2.609   3.510  0.1507  0.2211  0.8098
 3436SOL    MW413478   3.026   2.682   3.482  0.0219 -0.1876  0.1362
 3437SOL     OW13479   0.877   1.643   4.878 -0.1103 -0.3555 -0.2225
 3437SOL    HW213480   0.870   1.617   4.786 -0.3272 -2.8305  0.3991
 3437SOL    HW313481   0.966   1.677   4.887  0.3446 -1.2523 -1.1172
 3437SOL    MW413482   0.888   1.644   4.867  0.8948  0.0908 -0.0233
 3438SOL     OW13483   1.253   3.241   2.589 -0.3981 -0.0234 -0.4614
 3438SOL    HW213484   1.178   3.259   2.531  0.1358  2.8943 -0.3851
 3438SOL    HW313485   1.289   3.328   2.610  1.4882 -1.1898  1.5503
 3438SOL    MW413486   1.248   3.255   2.584 -0.4503  0.0776 -0.5505
 3439SOL     OW13487   2.484   4.210   1.044  0.0752 -0.4062  0.0037
 3439SOL    HW213488   2.500   4.203   0.950 -1.7439  1.7029 -0.5603
 3439SOL    HW313489   2.393   4.184   1.055  0.3291 -0.8306  1.2247
 3439SOL    MW413490   2.474   4.206   1.033  0.2655 -0.4336  0.1603
 3440SOL     OW13491   4.438   5.225   1.381  0.1896 -0.0985  0.1610
 3440SOL    HW213492   4.387   5.146   1.366 -0.1385 -0.1847  1.5599
 3440SOL    HW313493   4.454   5.261   1.294 -3.6780  0.8070 -0.3322
 3440SOL    MW413494   4.434   5.220   1.368  0.5922 -0.1646  0.4629
 3441SOL     OW13495   0.435   2.996   2.480 -0.5024 -0.1759  0.1702
 3441SOL    HW213496   0.374   2.935   2.521  0.9471 -0.5743  1.8738
 3441SOL    HW313497   0.411   3.081   2.517  0.4315 -0.4502  1.4810
 3441SOL    MW413498   0.423   2.999   2.491  0.3549 -0.4215 -0.0990
 3442SOL     OW13499   2.997   5.900   3.094 -0.2709  0.4708 -0.2561
 3442SOL    HW213500   2.985   5.851   3.012  0.8014  0.8700 -0.6704
 3442SOL    HW313501   2.959   5.844   3.161 -0.8131 -0.0470 -0.9737
 3442SOL    MW413502   2.990   5.886   3.092  0.8120 -0.1023 -0.4607
 3443SOL     OW13503   1.486   2.226   4.902  0.1136 -0.4178 -0.1044
 3443SOL    HW213504   1.405   2.179   4.921 -0.2923  0.1960 -0.3098
 3443SOL    HW313505   1.555   2.162   4.919 -0.3506 -0.6057  1.1614
 3443SOL    MW413506   1.485   2.211   4.907 -1.0415  0.4320  0.4852
 3444SOL     OW13507   1.956   6.094   6.199  0.0675  0.6720 -0.3594
 3444SOL    HW213508   1.927   6.064   6.285  1.4329 -2.2089 -0.7616
 3444SOL    HW313509   1.880   6.137   6.160 -1.7596 -1.2776  0.8722
 3444SOL    MW413510   1.942   6.096   6.205  0.5848  0.0225 -0.6218
 3445SOL     OW13511   3.164   1.358   4.756  0.1712 -0.2080 -0.2343
 3445SOL    HW213512   3.166   1.353   4.660 -0.7106 -1.1892 -0.2091
 3445SOL    HW313513   3.116   1.439   4.775 -0.4025 -0.4543 -0.6209
 3445SOL    MW413514   3.158   1.368   4.746 -0.6877 -0.0407  0.3451
 3446SOL     OW13515   4.461   1.041   0.572 -0.1023 -0.3508 -0.1683
 3446SOL    HW213516   4.453   1.039   0.668 -0.3540  1.0230 -0.1464
 3446SOL    HW313517   4.555   1.040   0.556 -0.0296  0.8644  0.1437
 3446SOL    MW413518   4.472   1.040   0.583  0.4034  0.0081 -0.1193
 3447SOL     OW13519   0.153   4.998   2.859  0.1839 -0.2622  0.4490
 3447SOL    HW213520   0.216   4.999   2.931  1.3655 -1.9525 -0.4996
 3447SOL    HW313521   0.190   5.059   2.794  0.8724 -1.2461 -0.1032
 3447SOL    MW413522   0.166   5.007   2.860 -0.2920  0.8446  0.0048
 3448SOL     OW13523   2.046   1.567   3.945 -0.4574 -0.0370 -0.2472
 3448SOL    HW213524   1.951   1.572   3.953 -0.5626 -2.0855  0.4055
 3448SOL    HW313525   2.079   1.616   4.021 -1.0224 -0.2031  0.1134
 3448SOL    MW413526   2.038   1.574   3.956  0.2524  0.4991  0.0895
 3449SOL     OW13527   0.719   2.459   4.630  0.3470 -0.1710  0.1910
 3449SOL    HW213528   0.738   2.542   4.675 -0.0883  1.4557 -2.4368
 3449SOL    HW313529   0.805   2.416   4.623  0.4667 -0.3751  2.2474
 3449SOL    MW413530   0.733   2.465   4.635  0.2980 -0.2938  0.0006
 3450SOL     OW13531   5.416   3.125   2.400 -0.8045 -0.5779  0.2904
 3450SOL    HW213532   5.365   3.194   2.441  0.1100  0.2004  0.1581
 3450SOL    HW313533   5.477   3.096   2.468 -0.4745 -0.5177  0.0221
 3450SOL    MW413534   5.418   3.130   2.414 -0.8021  0.2927  0.6116
 3451SOL     OW13535   5.784   5.932   1.382  0.1656 -0.2718  0.2556
 3451SOL    HW213536   5.812   6.023   1.370  1.1667 -0.2499  2.2764
 3451SOL    HW313537   5.689   5.937   1.394  0.4176  0.7816  2.2261
 3451SOL    MW413538   5.775   5.944   1.382  0.2972 -0.1443 -0.1558
 3452SOL     OW13539   0.208   0.086   1.859  0.0887  0.1579 -0.1962
 3452SOL    HW213540   0.162   0.152   1.911  0.3220 -0.7549  1.2311
 3452SOL    HW313541   0.151   0.009   1.861  0.6896 -0.2995 -0.1827
 3452SOL    MW413542   0.195   0.084   1.866  0.0667 -0.1135  0.1252
 3453SOL     OW13543   3.279   3.831   0.504 -0.3565 -0.0228 -0.0429
 3453SOL    HW213544   3.193   3.797   0.482 -0.6336  0.3995  0.3616
 3453SOL    HW313545   3.294   3.901   0.441 -0.4809  0.1645  0.1351
 3453SOL    MW413546   3.270   3.836   0.493 -0.4503 -0.7441  0.1057
 3454SOL     OW13547   5.647   5.180   0.529 -0.2212  0.4408  0.2904
 3454SOL    HW213548   5.552   5.189   0.517 -0.3684  1.9711  2.0634
 3454SOL    HW313549   5.683   5.266   0.506  0.4529  0.5675  1.7015
 3454SOL    MW413550   5.639   5.193   0.525  0.1813 -0.1045  0.8080
 3455SOL     OW13551   2.609   5.411   5.772 -0.5757  0.0354  0.1871
 3455SOL    HW213552   2.603   5.344   5.840 -1.5184 -1.4027 -1.2541
 3455SOL    HW313553   2.563   5.487   5.808 -1.8192 -0.9925  0.8322
 3455SOL    MW413554   2.602   5.412   5.786 -0.2205  0.5274  0.2424
 3456SOL     OW13555   6.000   2.671   1.847 -0.4173  0.3184  0.1952
 3456SOL    HW213556   6.044   2.672   1.932 -1.7645 -1.9375  0.9873
 3456SOL    HW313557   5.909   2.694   1.867 -0.7210 -0.1057 -0.6493
 3456SOL    MW413558   5.993   2.674   1.861  0.0780 -0.0635  0.1735
 3457SOL     OW13559   4.832   5.408   2.729 -0.1250 -0.7559 -0.7455
 3457SOL    HW213560   4.861   5.499   2.736 -1.0012 -0.5103 -0.1514
 3457SOL    HW313561   4.843   5.387   2.637  1.7485 -0.6251 -0.5801
 3457SOL    MW413562   4.837   5.418   2.718 -0.2350  0.1112 -0.4352
 3458SOL     OW13563   3.915   4.675   3.389  0.1492  0.3261  0.3153
 3458SOL    HW213564   3.854   4.732   3.342 -0.4568 -0.1515  0.5031
 3458SOL    HW313565   3.946   4.729   3.462  0.6648  0.8789 -0.2954
 3458SOL    MW413566   3.911   4.690   3.393  0.0948  0.5825 -0.1072
 3459SOL     OW13567   1.419   2.909   3.909 -0.4372  0.1413 -0.4807
 3459SOL    HW213568   1.433   2.914   3.815  0.1671 -1.1007 -0.4764
 3459SOL    HW313569   1.325   2.917   3.920 -0.5146  0.2626 -1.1865
 3459SOL    MW413570   1.409   2.911   3.898 -0.4510 -0.3875  0.5187
 3460SOL     OW13571   6.390   3.109   3.782  0.3590  0.2666 -0.4178
 3460SOL    HW213572   6.302   3.131   3.814  0.4405  0.8986 -0.6061
 3460SOL    HW313573   6.438   3.192   3.787  0.9800 -0.1067 -0.2100
 3460SOL    MW413574   6.385   3.123   3.787  0.2621 -0.6024  0.4047
 3461SOL     OW13575   2.285   2.139   0.628 -0.0906  0.0919  0.3817
 3461SOL    HW213576   2.228   2.172   0.559 -1.6348 -0.4373  1.3541
 3461SOL    HW313577   2.367   2.186   0.616 -0.8259  1.1130 -0.8747
 3461SOL    MW413578   2.288   2.150   0.618 -0.4755  0.5108 -0.0862
 3462SOL     OW13579   5.180   3.797   6.020  0.7205 -0.6532  0.1312
 3462SOL    HW213580   5.186   3.893   6.025  1.6375 -0.6175 -1.1413
 3462SOL    HW313581   5.260   3.766   6.063  0.3602 -0.8514  0.6570
 3462SOL    MW413582   5.192   3.806   6.026  0.3241 -0.3410 -0.0477
 3463SOL     OW13583   6.176   1.927   3.772  0.4404  0.0188 -0.3658
 3463SOL    HW213584   6.157   1.989   3.701  0.6930  0.4726 -0.0345
 3463SOL    HW313585   6.267   1.943   3.795  0.3454 -0.0925  0.1007
 3463SOL    MW413586   6.186   1.937   3.765  0.2893  0.1618 -0.4841
 3464SOL     OW13587   0.256   5.163   3.406  0.1740 -0.1203 -0.2020
 3464SOL    HW213588   0.311   5.085   3.415 -1.3292 -1.1914  0.1094
 3464SOL    HW313589   0.205   5.148   3.326  0.3712  0.8860 -0.5337
 3464SOL    MW413590   0.257   5.151   3.397  0.6897 -0.0322  0.6036
 3465SOL     OW13591   2.127   1.350   2.857  0.2706 -0.9153  0.1198
 3465SOL    HW213592   2.100   1.287   2.790  1.5398  1.0435 -2.4069
 3465SOL    HW313593   2.223   1.352   2.851  0.2657  1.3516 -0.0432
 3465SOL    MW413594   2.136   1.342   2.847  0.9895  0.1680  0.1366
 3466SOL     OW13595   1.047   3.809   0.998 -0.1105  0.4979 -0.1295
 3466SOL    HW213596   1.056   3.860   1.078 -0.9957 -0.2361  0.4691
 3466SOL    HW313597   0.954   3.819   0.974  0.0378  0.3296 -0.7973
 3466SOL    MW413598   1.036   3.817   1.005  0.0135  1.2447  0.0151
 3467SOL     OW13599   2.565   2.152   6.163 -0.5218 -0.3052  0.4224
 3467SOL    HW213600   2.481   2.109   6.149 -0.1675 -0.6218 -0.8818
 3467SOL    HW313601   2.583   2.140   6.256 -1.3576 -1.2840  0.4764
 3467SOL    MW413602   2.556   2.145   6.174 -0.1072  0.4510 -0.1362
 3468SOL     OW13603   3.031   4.156   4.111 -0.5131  0.2992  0.1375
 3468SOL    HW213604   2.935   4.151   4.118 -0.5591 -0.9589 -1.0498
 3468SOL    HW313605   3.062   4.103   4.184 -0.7855 -1.2710 -0.8410
 3468SOL    MW413606   3.022   4.149   4.122 -0.2393  0.0317 -0.0647
 3469SOL     OW13607   6.255   1.223   3.943  0.1930  0.2919  0.2844
 3469SOL    HW213608   6.320   1.236   3.874 -0.4070 -1.1550 -0.6154
 3469SOL    HW313609   6.170   1.226   3.897 -0.1950 -1.1918  0.8319
 3469SOL    MW413610   6.252   1.225   3.928  0.5145 -0.2682 -0.4517
 3470SOL     OW13611   3.650   4.651   0.051  0.0353  0.5234  0.1057
 3470SOL    HW213612   3.691   4.666   0.136 -0.5645 -1.7308  0.8372
 3470SOL    HW313613   3.560   4.683   0.062 -1.0916 -2.7262  1.5059
 3470SOL    MW413614   3.643   4.657   0.064  0.0364  0.4303  0.4800
 3471SOL     OW13615   3.143   4.193   3.380 -0.3087 -0.5801  0.1631
 3471SOL    HW213616   3.229   4.208   3.421  1.2002 -0.7356 -2.7087
 3471SOL    HW313617   3.102   4.126   3.435  1.0763 -0.0061  2.0077
 3471SOL    MW413618   3.149   4.186   3.393 -0.1380  0.1579 -0.1346
 3472SOL     OW13619   6.327   1.439   0.425 -0.2731  0.2645  0.2680
 3472SOL    HW213620   6.335   1.526   0.463  1.1306  0.2833 -0.0333
 3472SOL    HW313621   6.359   1.448   0.335 -0.9625 -0.3736 -0.0558
 3472SOL    MW413622   6.332   1.451   0.418 -0.0966  0.1499  0.2441
 3473SOL     OW13623   4.896   4.450   4.634 -0.1315  0.5448  0.3615
 3473SOL    HW213624   4.824   4.507   4.604  0.6915  1.2274 -0.3654
 3473SOL    HW313625   4.875   4.364   4.596 -0.9039  0.5745  0.6994
 3473SOL    MW413626   4.884   4.446   4.625  0.5578 -0.1194 -0.2282
 3474SOL     OW13627   0.027   4.399   3.279  0.3569 -0.4423 -0.6724
 3474SOL    HW213628   0.059   4.419   3.367  0.2108 -0.8796 -0.5181
 3474SOL    HW313629  -0.060   4.362   3.293  0.3873 -0.6354 -0.9941
 3474SOL    MW413630   0.019   4.397   3.293 -0.5764  0.2846 -0.3858
 3475SOL     OW13631   1.107   1.844   6.054 -0.6784 -0.4322 -0.5796
 3475SOL    HW213632   1.134   1.753   6.063  2.1928  0.3613 -0.1189
 3475SOL    HW313633   1.101   1.876   6.144 -2.4763 -0.3117 -0.7023
 3475SOL    MW413634   1.110   1.836   6.067 -0.0164 -0.0769  0.4639
 3476SOL     OW13635   4.035   4.423   4.639 -0.1883  0.4926 -0.3319
 3476SOL    HW213636   4.007   4.510   4.667 -0.2835  0.4453 -0.2789
 3476SOL    HW313637   4.118   4.408   4.684 -0.2692  0.4752 -0.1891
 3476SOL    MW413638   4.042   4.432   4.648  0.0094  0.4470  0.1726
 3477SOL     OW13639   5.271   3.104   3.763  0.2850  0.1195 -0.7047
 3477SOL    HW213640   5.340   3.153   3.809  0.0843 -1.6695  1.7367
 3477SOL    HW313641   5.319   3.041   3.708  0.6600 -0.6268  0.4271
 3477SOL    MW413642   5.287   3.102   3.762  0.0537  0.0883  0.0837
 3478SOL     OW13643   3.237   1.609   4.577  0.1256  0.0676  0.3636
 3478SOL    HW213644   3.309   1.664   4.608 -0.1516  1.1475 -0.8035
 3478SOL    HW313645   3.173   1.610   4.648  1.5040 -1.4667  1.7001
 3478SOL    MW413646   3.238   1.616   4.590 -0.1234  0.1260  0.6904
 3479SOL     OW13647   1.215   2.241   3.542 -0.0764 -0.0964 -0.7357
 3479SOL    HW213648   1.167   2.175   3.591  1.4652 -1.9734 -1.5665
 3479SOL    HW313649   1.164   2.321   3.550 -0.5733 -0.6294  2.7377
 3479SOL    MW413650   1.202   2.243   3.549  0.0946 -0.1672 -0.0978
 3480SOL     OW13651   2.665   5.918   2.428  0.6735  0.0826  0.5092
 3480SOL    HW213652   2.573   5.899   2.412  1.0606 -0.1895 -1.7021
 3480SOL    HW313653   2.710   5.836   2.408  1.4480  0.3581  1.0811
 3480SOL    MW413654   2.659   5.904   2.423 -0.6928  0.1090  0.3300
 3481SOL     OW13655   1.220   4.130   1.484 -0.7138  0.1641  0.0276
 3481SOL    HW213656   1.124   4.125   1.492 -0.6339 -1.6655  0.4907
 3481SOL    HW313657   1.249   4.039   1.492  1.0946  0.7071  0.1546
 3481SOL    MW413658   1.211   4.117   1.486 -0.1575  0.0015  0.1015
 3482SOL     OW13659   5.940   0.786   0.558  0.1831  0.2432  0.2081
 3482SOL    HW213660   5.856   0.827   0.579 -0.0580 -0.1035 -0.0748
 3482SOL    HW313661   5.920   0.728   0.484  0.5897 -0.1473  0.4067
 3482SOL    MW413662   5.926   0.784   0.551  0.4040  0.0523  0.0311
 3483SOL     OW13663   5.075   1.757   1.356  0.1738 -0.0363 -0.3343
 3483SOL    HW213664   5.154   1.794   1.394 -0.4066 -0.4303  1.3510
 3483SOL    HW313665   5.056   1.680   1.410 -1.6787  0.4035 -0.2734
 3483SOL    MW413666   5.083   1.752   1.368 -0.6460 -0.1330  0.2194
 3484SOL     OW13667   4.557   1.864   4.282  0.3824 -0.4245  0.4958
 3484SOL    HW213668   4.510   1.946   4.296  0.5428 -0.0386 -1.0217
 3484SOL    HW313669   4.544   1.815   4.363 -0.3195  0.7945  1.1621
 3484SOL    MW413670   4.549   1.868   4.294 -0.3665  0.1195 -0.1501
 3485SOL     OW13671   4.582   6.173   0.554 -0.0361  0.0100 -0.5661
 3485SOL    HW213672   4.558   6.099   0.609 -0.2524 -0.2123 -0.9571
 3485SOL    HW313673   4.535   6.158   0.472 -2.5202  2.0791  0.3281
 3485SOL    MW413674   4.572   6.162   0.551  0.6316  0.0606  0.1922
 3486SOL     OW13675   1.144   4.222   2.135 -0.1989 -0.2087  0.1499
 3486SOL    HW213676   1.122   4.181   2.219  3.7603 -1.2009  0.9227
 3486SOL    HW313677   1.110   4.160   2.069  0.8718 -2.0062  1.1991
 3486SOL    MW413678   1.137   4.208   2.137 -0.4556  0.2102 -0.0517
 3487SOL     OW13679   3.171   1.316   1.795  0.6695 -0.4828 -0.4303
 3487SOL    HW213680   3.123   1.327   1.713  0.2648 -0.7112 -0.2241
 3487SOL    HW313681   3.219   1.398   1.805 -1.1723  0.5699  0.3242
 3487SOL    MW413682   3.171   1.329   1.785 -0.0834 -0.1129 -0.8554
 3488SOL     OW13683   4.876   4.658   0.112 -0.3357  0.1212  0.1279
 3488SOL    HW213684   4.829   4.662   0.195  0.0590 -3.5942  0.7014
 3488SOL    HW313685   4.821   4.604   0.055  1.1332 -0.5417 -0.7342
 3488SOL    MW413686   4.863   4.652   0.115 -0.2836  0.2287 -0.0383
 3489SOL     OW13687   5.974   1.071   0.388  0.3327 -0.2999 -0.0304
 3489SOL    HW213688   6.032   1.084   0.463 -0.1562 -0.0227  0.3038
 3489SOL    HW313689   6.029   1.029   0.322  0.9167 -0.0296  0.2797
 3489SOL    MW413690   5.989   1.067   0.389 -0.1262 -0.1032  0.0171
 3490SOL     OW13691   3.570   3.143   2.769  0.3323  0.6910 -0.1296
 3490SOL    HW213692   3.507   3.158   2.839  0.6520  0.3234  0.2392
 3490SOL    HW313693   3.545   3.206   2.701 -0.6655  0.2819 -0.1540
 3490SOL    MW413694   3.558   3.154   2.769  0.1542  0.2107  0.8060
 3491SOL     OW13695   4.812   5.582   5.649  0.1356  0.0377  0.1435
 3491SOL    HW213696   4.858   5.665   5.653  2.1415 -0.9504 -1.0772
 3491SOL    HW313697   4.859   5.525   5.709 -0.0284 -0.7446 -0.4454
 3491SOL    MW413698   4.824   5.585   5.657  0.4752  0.2362 -0.0553
 3492SOL     OW13699   4.585   4.414   1.062 -0.1876  0.5377 -0.2566
 3492SOL    HW213700   4.623   4.394   1.148 -2.5909 -1.2373  0.4732
 3492SOL    HW313701   4.661   4.425   1.005  1.4581  0.3475  1.7724
 3492SOL    MW413702   4.600   4.413   1.066  0.5147 -0.2128  0.4535
 3493SOL     OW13703   0.963   3.709   2.215  0.2141  0.2600 -0.0419
 3493SOL    HW213704   0.976   3.753   2.299 -0.9167 -0.5340  0.5790
 3493SOL    HW313705   0.892   3.646   2.232  1.2167 -1.2066 -1.1036
 3493SOL    MW413706   0.955   3.706   2.228 -0.3083  0.0551 -0.5023
 3494SOL     OW13707   0.829   5.990   1.456 -0.1074  0.1312 -0.3328
 3494SOL    HW213708   0.771   5.966   1.528 -0.0010  0.8811  0.0111
 3494SOL    HW313709   0.808   5.928   1.386 -0.4137 -0.4157  0.2445
 3494SOL    MW413710   0.818   5.979   1.456 -0.6486 -0.4982 -0.4009
 3495SOL     OW13711   1.102   2.911   4.435  0.0002 -0.5141 -0.3093
 3495SOL    HW213712   1.152   2.864   4.368 -0.1072  0.4992 -1.1198
 3495SOL    HW313713   1.020   2.934   4.391 -0.4818 -0.6746  0.4834
 3495SOL    MW413714   1.098   2.908   4.420 -0.2365  0.0438  0.2645
 3496SOL     OW13715   0.372   0.246   5.419  0.1389  0.5467  0.4256
 3496SOL    HW213716   0.341   0.287   5.338  0.0671  0.0166  0.1848
 3496SOL    HW313717   0.345   0.155   5.412  1.5133  0.1284  0.3392
 3496SOL    MW413718   0.364   0.240   5.408 -0.1046  0.3619  0.2080
 3497SOL     OW13719   6.334   3.753   4.805 -0.0950 -0.1157  0.6134
 3497SOL    HW213720   6.403   3.767   4.740 -0.1038 -1.4426  0.2917
 3497SOL    HW313721   6.344   3.662   4.830 -1.7349 -0.3258  0.5693
 3497SOL    MW413722   6.345   3.743   4.799  0.4824  0.2048  0.5653
 3498SOL     OW13723   2.461   2.494   0.055  0.1001 -0.0096 -0.1278
 3498SOL    HW213724   2.549   2.512   0.020  0.5585 -1.5902  0.1499
 3498SOL    HW313725   2.444   2.567   0.114  0.6979  0.9645 -1.1125
 3498SOL    MW413726   2.470   2.506   0.058 -0.2540  0.0728  0.0247
 3499SOL     OW13727   2.577   0.914   0.503  0.5222  0.1278  0.0691
 3499SOL    HW213728   2.563   0.999   0.544  0.8281 -0.5910  1.7162
 3499SOL    HW313729   2.503   0.903   0.443 -0.0491  1.1213  0.5792
 3499SOL    MW413730   2.566   0.924   0.500  0.4259 -0.7157  0.0663
 3500SOL     OW13731   5.269   4.440   2.262 -0.7420  0.0717 -0.1425
 3500SOL    HW213732   5.301   4.529   2.246 -0.5496  0.2322  1.0242
 3500SOL    HW313733   5.249   4.439   2.356 -0.9971 -1.0343 -0.2029
 3500SOL    MW413734   5.271   4.452   2.272 -0.2840  0.4026  0.0516
 3501SOL     OW13735   5.071   2.111   3.798  0.1956  0.7748  0.1485
 3501SOL    HW213736   5.129   2.046   3.839  0.7041  0.4691 -1.0030
 3501SOL    HW313737   5.073   2.186   3.858  1.3875  0.5781  0.3953
 3501SOL    MW413738   5.079   2.112   3.811  0.1229 -0.6077  0.4367
 3502SOL     OW13739   1.714   5.774   4.109  0.5540  0.1349 -0.8676
 3502SOL    HW213740   1.657   5.826   4.165  0.1495  0.0894 -1.2257
 3502SOL    HW313741   1.793   5.759   4.161 -1.1876 -3.0748  1.2361
 3502SOL    MW413742   1.717   5.779   4.123 -0.0212  0.1980 -0.5857
 3503SOL     OW13743   1.337   4.187   6.103  0.3278  0.1356  0.4310
 3503SOL    HW213744   1.365   4.107   6.059  0.2610 -0.3132  1.1656
 3503SOL    HW313745   1.268   4.222   6.047  1.3104  0.4368 -0.6094
 3503SOL    MW413746   1.331   4.181   6.090 -0.1161  0.1737  0.3268
 3504SOL     OW13747   5.928   0.430   0.152  0.3740  0.4715  0.0219
 3504SOL    HW213748   5.881   0.359   0.195 -1.0078  1.8381  0.8577
 3504SOL    HW313749   6.012   0.435   0.197  0.3576 -0.3992  0.1656
 3504SOL    MW413750   5.933   0.421   0.163  0.3751  0.2571  0.0610
 3505SOL     OW13751   3.082   5.013   1.602 -0.3634 -0.2065  0.4384
 3505SOL    HW213752   3.001   5.061   1.584  0.4305  1.1262  0.3483
 3505SOL    HW313753   3.136   5.074   1.652  0.6481 -1.0332  0.3781
 3505SOL    MW413754   3.078   5.027   1.606 -0.7151  0.1523  0.6997
 3506SOL     OW13755   1.497   1.507   3.170 -0.1032  0.0183  0.2385
 3506SOL    HW213756   1.448   1.553   3.238 -0.4393 -0.8826  0.6312
 3506SOL    HW313757   1.558   1.572   3.136 -0.3271  0.6505  1.0037
 3506SOL    MW413758   1.499   1.521   3.174 -0.4463  0.0168 -0.2990
 3507SOL     OW13759   3.114   4.414   6.138 -0.3761  0.1257 -0.3459
 3507SOL    HW213760   3.061   4.440   6.062 -1.9270  1.9541  1.2544
 3507SOL    HW313761   3.200   4.452   6.122 -0.4362 -0.1708 -1.5085
 3507SOL    MW413762   3.118   4.422   6.126 -0.0861 -0.1615 -0.2385
 3508SOL     OW13763   1.017   3.414   5.309  0.4035 -0.1505  0.1302
 3508SOL    HW213764   1.090   3.403   5.370  1.4600 -1.8495 -1.3295
 3508SOL    HW313765   1.023   3.338   5.251 -1.6099  0.4872 -1.0052
 3508SOL    MW413766   1.027   3.403   5.309  0.9264  0.1266  0.1734
 3509SOL     OW13767   1.454   3.517   1.660 -0.2549 -0.0637 -0.4966
 3509SOL    HW213768   1.428   3.603   1.691  0.0606 -0.5001  1.0406
 3509SOL    HW313769   1.518   3.486   1.724 -0.7783 -1.6625 -0.6905
 3509SOL    MW413770   1.459   3.524   1.672 -0.3684 -0.3811 -0.2248
 3510SOL     OW13771   0.810   4.462   1.956  0.6502 -0.0284  0.5099
 3510SOL    HW213772   0.894   4.501   1.980  1.0947 -0.3853 -0.4075
 3510SOL    HW313773   0.826   4.368   1.956  0.7036 -0.0580 -1.1521
 3510SOL    MW413774   0.823   4.455   1.959  0.1521  0.0506 -0.0721
 3511SOL     OW13775   3.367   4.677   2.810 -0.0681 -0.4220 -0.4298
 3511SOL    HW213776   3.345   4.656   2.719  1.2317 -1.5992 -0.5158
 3511SOL    HW313777   3.282   4.686   2.853 -0.7767 -2.8421 -1.1262
 3511SOL    MW413778   3.353   4.675   2.803  0.0551 -0.6280 -0.1424
 3512SOL     OW13779   1.024   5.179   4.520  0.2902  0.0602 -0.2303
 3512SOL    HW213780   1.003   5.116   4.589 -0.1298  1.6863  1.1980
 3512SOL    HW313781   1.103   5.224   4.551  0.3949  0.4823 -1.0632
 3512SOL    MW413782   1.032   5.177   4.533  0.1153  0.0386  0.0122
 3513SOL     OW13783   1.813   5.402   0.635  0.1949 -0.1067 -0.2792
 3513SOL    HW213784   1.897   5.442   0.658  0.8727 -1.2927 -0.5957
 3513SOL    HW313785   1.790   5.441   0.550  1.1004 -0.7537 -0.8353
 3513SOL    MW413786   1.821   5.413   0.627  0.1848  0.1587 -0.3655
 3514SOL     OW13787   1.326   4.430   3.894  0.0050  0.1789  0.3293
 3514SOL    HW213788   1.307   4.492   3.964  1.1484  2.1629 -0.9961
 3514SOL    HW313789   1.406   4.386   3.922  0.8020  1.3988  0.0635
 3514SOL    MW413790   1.334   4.432   3.907 -0.3746  0.2109 -0.0423
 3515SOL     OW13791   1.778   0.865   1.029  0.2862  0.3232  0.1588
 3515SOL    HW213792   1.694   0.873   1.076  0.2999  2.0761 -0.0415
 3515SOL    HW313793   1.798   0.771   1.032 -2.3582 -0.3808 -0.9633
 3515SOL    MW413794   1.769   0.854   1.036  0.2166 -0.4217  0.4609
 3516SOL     OW13795   1.639   0.750   4.419  0.0568 -0.1596  0.0817
 3516SOL    HW213796   1.652   0.798   4.337 -1.2796 -1.1137 -0.7202
 3516SOL    HW313797   1.607   0.664   4.391  0.8120 -0.9474  1.5602
 3516SOL    MW413798   1.637   0.745   4.404 -0.0762 -0.3725 -0.0387
 3517SOL     OW13799   1.771   3.319   3.303 -0.1815 -0.1089 -0.5069
 3517SOL    HW213800   1.858   3.293   3.275  1.0304  2.0193  0.9796
 3517SOL    HW313801   1.749   3.395   3.249 -0.9456 -0.3900 -0.6076
 3517SOL    MW413802   1.780   3.326   3.292  0.1066  0.0962  0.0672
 3518SOL     OW13803   5.947   2.284   2.356  0.4437 -0.2784  0.6405
 3518SOL    HW213804   6.042   2.283   2.365  0.5118  0.3391  0.0004
 3518SOL    HW313805   5.929   2.350   2.290 -0.4156 -0.6223  0.5132
 3518SOL    MW413806   5.957   2.292   2.349 -0.0305  0.0436 -0.0298
 3519SOL     OW13807   1.488   2.952   5.712  0.1021  0.4565  0.0064
 3519SOL    HW213808   1.549   2.882   5.737  0.9281  0.8608 -0.8094
 3519SOL    HW313809   1.418   2.907   5.665  1.3380  0.2914 -1.7686
 3519SOL    MW413810   1.487   2.937   5.710 -0.5323 -0.1632 -0.1041
 3520SOL     OW13811   6.260   4.787   2.737 -0.9247 -0.2060 -1.3581
 3520SOL    HW213812   6.262   4.812   2.830 -0.9955 -0.1109 -1.3822
 3520SOL    HW313813   6.241   4.693   2.738  0.5425 -0.5249 -1.2264
 3520SOL    MW413814   6.257   4.777   2.750  0.3948 -0.1778 -0.2348
 3521SOL     OW13815   4.194   5.074   5.871 -0.3646  0.2977 -0.4151
 3521SOL    HW213816   4.161   5.099   5.957 -0.3035 -0.8567 -0.0444
 3521SOL    HW313817   4.206   5.157   5.825 -1.7584  0.8660  0.1792
 3521SOL    MW413818   4.191   5.088   5.876 -0.1056  0.2303  0.0364
 3522SOL     OW13819   2.962   4.352   4.406  0.1897 -0.1838 -0.1319
 3522SOL    HW213820   2.924   4.427   4.452  2.1806  0.5617  0.4317
 3522SOL    HW313821   2.985   4.385   4.319  0.4772 -0.3195 -0.1104
 3522SOL    MW413822   2.960   4.366   4.401 -0.8489  0.2671  0.3502
 3523SOL     OW13823   6.361   5.097   0.316  0.2771 -0.3509  0.1945
 3523SOL    HW213824   6.323   5.179   0.347  0.4310 -0.3746  0.4451
 3523SOL    HW313825   6.289   5.034   0.318  0.5287 -0.6224  1.5075
 3523SOL    MW413826   6.347   5.099   0.320  0.0312 -0.4002 -0.1132
 3524SOL     OW13827   3.329   3.323   2.157 -0.2018 -0.3013  0.1883
 3524SOL    HW213828   3.405   3.371   2.192  0.1299 -0.1620 -0.6890
 3524SOL    HW313829   3.282   3.388   2.104  0.2835 -0.9247 -1.0621
 3524SOL    MW413830   3.333   3.338   2.154  0.5692 -0.4120  0.4438
 3525SOL     OW13831   4.223   4.639   3.493  0.0288 -0.1014  0.2401
 3525SOL    HW213832   4.272   4.686   3.426  0.3666 -1.3660 -0.4311
 3525SOL    HW313833   4.166   4.580   3.443  0.1690 -0.9411  1.0642
 3525SOL    MW413834   4.222   4.638   3.477  0.0502  0.5800  0.0654
 3526SOL     OW13835   5.338   5.125   5.158  0.3359  0.0189  0.4981
 3526SOL    HW213836   5.245   5.101   5.164  0.0610  1.0435  0.4633
 3526SOL    HW313837   5.363   5.098   5.069  0.2863 -0.9483  0.7626
 3526SOL    MW413838   5.329   5.118   5.147 -0.6752  0.4987 -0.2272
 3527SOL     OW13839   4.925   3.575   4.641  0.0885  0.0536  0.6209
 3527SOL    HW213840   4.917   3.662   4.601  0.3717 -0.5522 -0.8012
 3527SOL    HW313841   5.018   3.555   4.636  0.0931 -0.1538  1.3839
 3527SOL    MW413842   4.936   3.584   4.635  0.6034 -0.0802 -0.0905
 3528SOL     OW13843   3.846   3.571   3.452  0.2958  0.0422 -0.0789
 3528SOL    HW213844   3.809   3.563   3.364  0.2877  1.3203 -0.2042
 3528SOL    HW313845   3.773   3.550   3.510  0.3702 -1.0720 -0.3618
 3528SOL    MW413846   3.831   3.567   3.448 -0.2156  0.1650 -0.6678
 3529SOL     OW13847   0.475   3.048   5.790 -0.1620  0.0366 -0.8125
 3529SOL    HW213848   0.499   2.985   5.722  0.0605 -1.1700  0.3361
 3529SOL    HW313849   0.382   3.032   5.805  0.4192 -1.9882  1.3301
 3529SOL    MW413850   0.466   3.037   5.783  0.8022  0.0905  0.2034
 3530SOL     OW13851   0.897   5.594   4.761  0.0849  0.1126 -0.0376
 3530SOL    HW213852   0.820   5.635   4.799 -0.7413 -0.4761 -1.0256
 3530SOL    HW313853   0.864   5.513   4.721  1.1789 -0.0644 -0.6287
 3530SOL    MW413854   0.882   5.589   4.761 -0.3928 -0.2146  0.1372
 3531SOL     OW13855   4.807   3.163   2.178  0.6106 -0.4068 -0.4409
 3531SOL    HW213856   4.878   3.099   2.167  1.0943 -0.0069  0.2430
 3531SOL    HW313857   4.764   3.135   2.259  2.3535  1.4973  1.2717
 3531SOL    MW413858   4.811   3.151   2.187  0.9272  0.1850  0.2435
 3532SOL     OW13859   0.253   3.047   4.070  0.0142 -0.3531 -0.4132
 3532SOL    HW213860   0.186   2.994   4.027 -0.5732  0.1144 -0.0841
 3532SOL    HW313861   0.243   3.029   4.163 -1.1039  1.3283 -0.1586
 3532SOL    MW413862   0.243   3.038   4.077 -0.3336 -0.3223 -0.0999
 3533SOL     OW13863   2.721   0.687   0.415  0.3333 -0.1676 -0.1172
 3533SOL    HW213864   2.706   0.688   0.320 -0.9832 -1.9615  0.0142
 3533SOL    HW313865   2.671   0.761   0.447 -0.1597 -0.2198 -0.7340
 3533SOL    MW413866   2.712   0.697   0.407 -0.0135  0.4794  0.1511
 3534SOL     OW13867   3.305   4.771   5.321  0.2982 -0.0036 -0.4905
 3534SOL    HW213868   3.327   4.771   5.228 -1.9299 -1.5621 -1.0952
 3534SOL    HW313869   3.220   4.727   5.326  0.7873 -0.8454  2.3981
 3534SOL    MW413870   3.297   4.766   5.310  0.6241  0.2414  0.1507
 3535SOL     OW13871   4.134   5.415   0.684 -0.7115  0.0529  0.5214
 3535SOL    HW213872   4.118   5.450   0.772  1.5053  2.6688  0.0377
 3535SOL    HW313873   4.061   5.447   0.632 -2.0111 -1.4623  1.3467
 3535SOL    MW413874   4.122   5.424   0.689  0.3113  0.6749  0.9217
 3536SOL     OW13875   3.961   1.785   4.872  0.4756 -0.0450  0.0796
 3536SOL    HW213876   4.031   1.781   4.938  1.3540 -2.6628 -0.8571
 3536SOL    HW313877   3.961   1.698   4.833 -2.6171  0.2184 -0.7574
 3536SOL    MW413878   3.971   1.773   4.876  0.9977  0.2926 -0.0592
 3537SOL     OW13879   0.170   2.378   5.453  0.1044 -0.4915  0.0389
 3537SOL    HW213880   0.112   2.449   5.480 -1.1145 -2.7486  4.1355
 3537SOL    HW313881   0.114   2.320   5.402  0.5368  0.3314 -1.4320
 3537SOL    MW413882   0.155   2.380   5.450 -0.2868  0.0006 -0.0277
 3538SOL     OW13883   5.399   5.612   4.985  0.5545 -0.1789 -0.0537
 3538SOL    HW213884   5.383   5.549   5.055 -0.3409 -1.2094 -1.1447
 3538SOL    HW313885   5.318   5.611   4.934  0.4251  2.0397  0.0237
 3538SOL    MW413886   5.386   5.604   4.988  0.2621 -0.6915 -0.3156
 3539SOL     OW13887   0.061   0.053   0.770  0.0252  0.0228  0.4763
 3539SOL    HW213888   0.123   0.062   0.843  0.0326 -1.7194  0.7370
 3539SOL    HW313889   0.093  -0.023   0.722 -0.7027  0.3978 -0.6327
 3539SOL    MW413890   0.074   0.044   0.773 -0.1910 -0.0375  0.5721
 3540SOL     OW13891   5.313   0.990   6.375 -0.2458 -0.4419  0.2259
 3540SOL    HW213892   5.367   0.929   6.425 -1.6603 -1.4621  0.5697
 3540SOL    HW313893   5.373   1.027   6.310  0.9869 -1.1006  0.9544
 3540SOL    MW413894   5.328   0.987   6.373  0.4316 -0.4574  0.2341
 3541SOL     OW13895   1.678   0.153   4.181  0.0796 -0.2570  0.0043
 3541SOL    HW213896   1.693   0.087   4.113 -0.6677 -1.1027  0.6270
 3541SOL    HW313897   1.694   0.237   4.138  0.0706 -0.7981 -1.0801
 3541SOL    MW413898   1.682   0.155   4.166  0.1322 -0.2765  0.0929
 3542SOL     OW13899   2.883   1.215   3.607 -0.7936  0.0962  0.2289
 3542SOL    HW213900   2.797   1.238   3.573 -0.9890  0.6749  1.0842
 3542SOL    HW313901   2.889   1.120   3.594 -1.7107 -0.0106  0.4798
 3542SOL    MW413902   2.872   1.206   3.601  0.3352  0.6991  0.2156
 3543SOL     OW13903   0.585   2.270   4.285 -0.1811  0.1519 -0.6958
 3543SOL    HW213904   0.497   2.289   4.251 -0.4726  1.4756  0.6739
 3543SOL    HW313905   0.639   2.341   4.250  0.1859 -0.2350 -0.9166
 3543SOL    MW413906   0.581   2.282   4.276 -0.0683 -0.2620 -0.2221
 3544SOL     OW13907   5.530   0.938   5.471 -0.6768 -0.4766  0.0446
 3544SOL    HW213908   5.556   1.012   5.415  0.2159 -0.6228  0.2524
 3544SOL    HW313909   5.554   0.860   5.421  2.0983 -0.6364  1.4311
 3544SOL    MW413910   5.537   0.938   5.457  0.5640  0.3358 -0.1704
 3545SOL     OW13911   2.012   2.500   2.955 -0.4532 -0.2935 -0.1333
 3545SOL    HW213912   1.998   2.565   3.023 -2.9189  0.5673 -1.3631
 3545SOL    HW313913   2.085   2.446   2.988 -0.4908  1.0626  2.3878
 3545SOL    MW413914   2.020   2.501   2.968 -0.3532  0.0766 -0.5666
 3546SOL     OW13915   3.082   3.027   4.984  0.2671 -0.5729  0.3882
 3546SOL    HW213916   3.103   2.934   4.986 -0.7609 -0.8116  2.4577
 3546SOL    HW313917   3.074   3.052   5.076 -0.8899  1.2273 -0.1458
 3546SOL    MW413918   3.084   3.018   4.997  0.1891  0.4056 -0.6362
 3547SOL     OW13919   3.882   2.204   0.085  0.8548 -0.2399 -0.6366
 3547SOL    HW213920   3.968   2.171   0.112  1.0158  0.4663 -0.2699
 3547SOL    HW313921   3.843   2.131   0.037  1.2677 -0.9167  0.0211
 3547SOL    MW413922   3.888   2.190   0.083  1.2098  0.1346  0.1512
 3548SOL     OW13923   4.743   1.656   5.178 -0.6651 -1.0317 -0.6576
 3548SOL    HW213924   4.787   1.735   5.210 -2.6900 -0.4950  0.9657
 3548SOL    HW313925   4.776   1.585   5.234  0.4523 -1.2360 -1.5205
 3548SOL    MW413926   4.753   1.657   5.190 -0.1762 -0.3228 -0.2347
 3549SOL     OW13927   5.980   5.239   2.013 -0.3127  0.4634 -0.6252
 3549SOL    HW213928   5.964   5.223   1.920 -0.1031  2.1411 -0.9984
 3549SOL    HW313929   6.027   5.162   2.043  0.8151  0.4566 -2.2553
 3549SOL    MW413930   5.984   5.227   2.004  0.3542  0.2223  0.2198
 3550SOL     OW13931   5.002   3.533   4.149  0.8902  0.1034 -0.0110
 3550SOL    HW213932   5.035   3.486   4.072  1.7591 -2.0150  1.5548
 3550SOL    HW313933   4.940   3.472   4.189 -1.7087  2.2670 -0.4656
 3550SOL    MW413934   4.998   3.519   4.144 -0.4031 -0.6071  0.0020
 3551SOL     OW13935   5.107   3.953   5.626 -0.7618 -0.0700  0.0278
 3551SOL    HW213936   5.170   4.005   5.677 -0.7301  0.2940 -0.3830
 3551SOL    HW313937   5.160   3.912   5.558 -0.3875 -2.3266  1.5494
 3551SOL    MW413938   5.122   3.954   5.624 -0.0839 -0.2449  0.4029
 3552SOL     OW13939   1.001   5.326   6.312 -0.2829  0.0309 -0.9184
 3552SOL    HW213940   1.094   5.308   6.328 -0.5163  1.3006  2.7163
 3552SOL    HW313941   0.998   5.356   6.221  3.0396  0.9162 -0.8782
 3552SOL    MW413942   1.013   5.327   6.302 -0.4087  0.1403 -0.2903
 3553SOL     OW13943   0.893   3.414   4.770 -0.2035  0.0573 -0.0707
 3553SOL    HW213944   0.895   3.478   4.698  1.2106 -0.6896 -0.7374
 3553SOL    HW313945   0.914   3.465   4.848 -1.2973  0.7906 -0.2258
 3553SOL    MW413946   0.896   3.429   4.771  0.2448  0.2171 -0.4166
 3554SOL     OW13947   3.114   2.350   3.579  0.7085  0.5703  0.1147
 3554SOL    HW213948   3.172   2.333   3.654 -1.9122  0.9260  2.3531
 3554SOL    HW313949   3.124   2.272   3.524  2.1621 -0.0563  1.1890
 3554SOL    MW413950   3.123   2.337   3.582  0.3720 -0.2933 -0.4717
 3555SOL     OW13951   1.436   4.373   0.526 -0.5976 -0.0253  0.2424
 3555SOL    HW213952   1.510   4.370   0.465 -2.1390 -0.0107 -1.6932
 3555SOL    HW313953   1.445   4.458   0.569  0.8806 -0.3074  0.5747
 3555SOL    MW413954   1.447   4.384   0.524 -0.2674  0.5141  0.0292
 3556SOL     OW13955   2.637   4.723   0.499  0.5053 -0.2707  0.2651
 3556SOL    HW213956   2.548   4.749   0.478  0.8379  0.6240 -0.0894
 3556SOL    HW313957   2.645   4.736   0.593  0.1563 -0.6976  0.3560
 3556SOL    MW413958   2.627   4.728   0.509 -0.5862 -0.4342  0.6021
 3557SOL     OW13959   6.038   4.650   4.006  0.3426  0.3398  0.3210
 3557SOL    HW213960   6.099   4.707   3.957  2.0650 -0.0008  1.9712
 3557SOL    HW313961   6.005   4.706   4.076  0.3971 -0.0998  0.6941
 3557SOL    MW413962   6.042   4.665   4.009  0.7570 -0.8399  0.1698
 3558SOL     OW13963   1.690   2.159   1.993  0.0712 -0.4497 -0.0044
 3558SOL    HW213964   1.721   2.249   1.995 -1.8438  0.2442  0.2056
 3558SOL    HW313965   1.680   2.140   1.900 -1.6634  0.3779 -0.0265
 3558SOL    MW413966   1.693   2.168   1.981 -0.3710  0.3836  0.1565
 3559SOL     OW13967   3.760   0.825   6.157  0.4568  0.5765 -0.0446
 3559SOL    HW213968   3.695   0.779   6.105  0.0048  0.7080  0.3930
 3559SOL    HW313969   3.798   0.889   6.097  1.5482 -0.7665 -0.8356
 3559SOL    MW413970   3.756   0.828   6.142  0.1709 -0.0141  0.5425
 3560SOL     OW13971   5.466   2.899   3.692 -0.0258  0.0090 -0.4131
 3560SOL    HW213972   5.552   2.938   3.675  0.1526 -0.7291 -1.3040
 3560SOL    HW313973   5.476   2.856   3.776 -0.0215  1.2772  0.2644
 3560SOL    MW413974   5.479   2.899   3.701 -0.1291  0.0191 -0.3429
 3561SOL     OW13975   5.417   3.389   4.982 -0.0038 -0.5673  0.3335
 3561SOL    HW213976   5.359   3.437   5.041 -0.0761 -0.0640 -0.1281
 3561SOL    HW313977   5.422   3.301   5.018 -0.0544 -0.2733  1.0766
 3561SOL    MW413978   5.410   3.384   4.994  0.1115  0.5306  0.1324
 3562SOL     OW13979   6.413   2.887   2.986  0.0854  0.7638 -1.0871
 3562SOL    HW213980   6.340   2.837   2.949  1.7008 -0.6482 -2.5731
 3562SOL    HW313981   6.434   2.841   3.067  1.0636 -0.5966 -2.0626
 3562SOL    MW413982   6.406   2.874   2.992 -0.1284 -0.0861 -0.6825
 3563SOL     OW13983   4.506   3.751   1.458 -0.4139  0.5030  0.0717
 3563SOL    HW213984   4.513   3.666   1.502  0.0237  0.5025  0.0021
 3563SOL    HW313985   4.542   3.737   1.371  0.8114  1.0479  0.4588
 3563SOL    MW413986   4.512   3.738   1.453 -0.1825  0.1420 -0.6885
 3564SOL     OW13987   2.954   2.165   4.140 -0.2669  0.3451  0.0475
 3564SOL    HW213988   2.903   2.245   4.154 -1.0474 -0.3110  1.0759
 3564SOL    HW313989   2.890   2.094   4.145  0.6241 -0.4429  0.6087
 3564SOL    MW413990   2.939   2.166   4.143 -0.7528 -0.0856 -0.4585
 3565SOL     OW13991   1.968   3.389   6.216 -0.0655  0.1931  0.5141
 3565SOL    HW213992   2.025   3.328   6.264 -0.4376  0.3717  1.1941
 3565SOL    HW313993   1.996   3.381   6.125 -0.1213 -1.0275  0.5864
 3565SOL    MW413994   1.980   3.380   6.211  0.0764 -0.2978  0.5266
 3566SOL     OW13995   3.976   1.669   2.677  0.3135  0.2599 -0.3780
 3566SOL    HW213996   4.022   1.589   2.653 -0.1433  0.2381 -1.2418
 3566SOL    HW313997   3.956   1.659   2.770 -0.0110 -0.7683 -0.5467
 3566SOL    MW413998   3.979   1.657   2.686  0.6015  0.2413 -0.0700
 3567SOL     OW13999   6.004   0.021   5.741  0.2021  0.6096  0.1014
 3567SOL    HW214000   5.969  -0.049   5.797 -0.5397  1.4643  0.7310
 3567SOL    HW314001   5.952   0.015   5.661  0.9628 -0.3244 -0.3515
 3567SOL    MW414002   5.992   0.011   5.738  0.6551 -0.3396 -0.3078
 3568SOL     OW14003   5.967   1.470   5.700 -0.0455 -0.0646  0.0183
 3568SOL    HW214004   5.904   1.539   5.680  2.0805  1.6417 -1.2815
 3568SOL    HW314005   6.015   1.457   5.618  0.3656 -2.3152  0.5591
 3568SOL    MW414006   5.965   1.478   5.686  0.2399 -0.4480 -0.0923
 3569SOL     OW14007   2.546   3.461   3.631 -0.5717 -0.7579  0.2565
 3569SOL    HW214008   2.552   3.446   3.537 -1.9002 -3.0178  0.4425
 3569SOL    HW314009   2.453   3.479   3.646 -0.4319 -0.7588  1.1598
 3569SOL    MW414010   2.535   3.461   3.621 -0.3874 -0.1367  0.3211
 3570SOL     OW14011   1.417   2.382   5.231  0.1283 -0.3093  0.2739
 3570SOL    HW214012   1.425   2.392   5.326 -0.1994 -2.2698  0.5666
 3570SOL    HW314013   1.327   2.409   5.212  0.0456 -0.3438  0.6050
 3570SOL    MW414014   1.406   2.387   5.241 -0.1911 -1.1065 -0.6136
 3571SOL     OW14015   5.596   0.410   5.421  0.0698 -0.2838  0.6140
 3571SOL    HW214016   5.567   0.361   5.343 -1.2827  0.7576  0.4272
 3571SOL    HW314017   5.612   0.499   5.389 -0.7912  0.2338  1.5722
 3571SOL    MW414018   5.594   0.415   5.406  0.3972  0.0532  0.2632
 3572SOL     OW14019   3.556   1.963   5.151 -0.6435  0.1375  0.3854
 3572SOL    HW214020   3.584   2.043   5.107 -1.5930  0.8450  1.0199
 3572SOL    HW314021   3.528   1.905   5.080  2.1449 -0.5742 -0.2830
 3572SOL    MW414022   3.556   1.966   5.136  0.4675 -0.0684 -0.5464
 3573SOL     OW14023   0.272   0.880   1.261 -0.0066 -0.3062 -0.3678
 3573SOL    HW214024   0.194   0.876   1.315  0.8415 -2.4935  0.8438
 3573SOL    HW314025   0.264   0.807   1.200 -0.3117  1.3200 -2.4131
 3573SOL    MW414026   0.261   0.870   1.260  0.4979 -0.5030 -0.0054
 3574SOL     OW14027   4.747   5.786   1.618  0.0639  0.0360 -0.1661
 3574SOL    HW214028   4.742   5.881   1.613 -0.2963 -0.0216 -1.5129
 3574SOL    HW314029   4.771   5.759   1.529 -0.3424 -1.1444  0.0647
 3574SOL    MW414030   4.749   5.795   1.605  0.0012 -0.4347  0.0878
 3575SOL     OW14031   5.201   4.236   1.870  0.2085  0.5312 -0.7841
 3575SOL    HW214032   5.187   4.331   1.871  0.7452  0.6176  0.4950
 3575SOL    HW314033   5.292   4.226   1.842  1.1917  0.6128  2.0248
 3575SOL    MW414034   5.211   4.248   1.867 -0.1574  0.1355  0.1197
 3576SOL     OW14035   0.993   3.486   2.565  0.2846 -0.1344  0.1687
 3576SOL    HW214036   0.905   3.451   2.572  0.0282  0.3509 -0.5897
 3576SOL    HW314037   0.998   3.551   2.636 -0.1534  0.2352 -0.1371
 3576SOL    MW414038   0.982   3.490   2.576 -0.1530  0.6179 -0.0837
 3577SOL     OW14039   1.472   4.047   4.510  0.3781  0.5208  0.3834
 3577SOL    HW214040   1.563   4.078   4.511  0.3182  0.6936  0.5882
 3577SOL    HW314041   1.478   3.955   4.484  0.5276  0.7994 -0.6400
 3577SOL    MW414042   1.485   4.039   4.506 -0.6888 -0.0710 -0.1060
 3578SOL     OW14043   2.176   2.794   4.732  0.0246  0.1085 -0.3305
 3578SOL    HW214044   2.218   2.783   4.647  1.2725  0.7414  0.1859
 3578SOL    HW314045   2.164   2.889   4.741  1.5396  0.2133  0.9485
 3578SOL    MW414046   2.180   2.805   4.722 -0.4184  0.0728  0.0793
 3579SOL     OW14047   2.076   0.871   4.250  0.7228  0.3588  0.5567
 3579SOL    HW214048   2.048   0.896   4.162  0.4289 -0.2171  0.4837
 3579SOL    HW314049   2.145   0.806   4.236  0.5964  0.1822  0.7536
 3579SOL    MW414050   2.081   0.866   4.237  0.2832 -0.1079  0.3125
 3580SOL     OW14051   3.070   5.957   1.751 -0.2836 -0.5251 -0.2338
 3580SOL    HW214052   3.098   6.015   1.821 -1.1476 -0.2741 -0.0874
 3580SOL    HW314053   3.142   5.958   1.688 -0.4510  1.0269 -0.4337
 3580SOL    MW414054   3.083   5.965   1.752  0.1689  0.1117  0.2169
 3581SOL     OW14055   0.848   1.353   0.279  0.2948  0.2333 -0.0981
 3581SOL    HW214056   0.868   1.446   0.293 -3.7365  1.3965 -0.9597
 3581SOL    HW314057   0.838   1.344   0.185 -1.6815 -0.4471  0.1338
 3581SOL    MW414058   0.850   1.364   0.269 -0.3724 -0.3395  0.6722
 3582SOL     OW14059   2.572   0.127   6.359 -0.8040 -0.2715  0.5420
 3582SOL    HW214060   2.666   0.110   6.361 -1.0233 -1.5919  1.1280
 3582SOL    HW314061   2.544   0.115   6.450 -1.4874  0.4289  0.4335
 3582SOL    MW414062   2.581   0.123   6.371 -0.4980 -0.1394 -0.4186
 3583SOL     OW14063   0.255   1.748   3.152 -0.0181  0.6125  0.3282
 3583SOL    HW214064   0.270   1.837   3.120  1.1795 -0.0609 -1.0968
 3583SOL    HW314065   0.226   1.699   3.075  1.0667 -0.6189  0.6645
 3583SOL    MW414066   0.253   1.753   3.138 -0.0273  0.7649 -0.2793
 3584SOL     OW14067   5.668   3.165   2.225 -0.0098  0.2505  0.3306
 3584SOL    HW214068   5.703   3.076   2.225 -0.9431 -0.1246  0.1746
 3584SOL    HW314069   5.593   3.162   2.285  0.7807  1.2743  1.4250
 3584SOL    MW414070   5.663   3.153   2.233 -0.2165  0.2503 -0.0164
 3585SOL     OW14071   2.260   3.953   5.276 -0.2720  0.3340 -0.1365
 3585SOL    HW214072   2.196   3.946   5.205  0.0098 -1.3822 -0.2522
 3585SOL    HW314073   2.207   3.970   5.354 -0.9454 -1.5039 -0.1595
 3585SOL    MW414074   2.244   3.955   5.277 -0.1319 -0.2146  0.4374
 3586SOL     OW14075   0.138   2.656   6.100 -0.3679 -0.3972  0.4692
 3586SOL    HW214076   0.210   2.715   6.077 -0.6783 -0.1669  0.0609
 3586SOL    HW314077   0.180   2.582   6.144  0.3347 -1.1351 -1.3408
 3586SOL    MW414078   0.153   2.654   6.103 -0.1030  0.1858 -0.2280
 3587SOL     OW14079   5.927   3.467   3.051  0.1486  0.4763 -0.0867
 3587SOL    HW214080   5.991   3.499   2.986 -0.4015 -0.2836 -1.0229
 3587SOL    HW314081   5.910   3.377   3.025 -0.5547  0.3574  0.7634
 3587SOL    MW414082   5.933   3.460   3.039  0.1049 -0.6247 -0.4554
 3588SOL     OW14083   1.389   1.970   3.758  0.0961 -0.1035 -0.1308
 3588SOL    HW214084   1.465   1.913   3.745 -0.1157 -0.9268  1.9227
 3588SOL    HW314085   1.318   1.925   3.712  0.4778 -0.1813 -0.6582
 3588SOL    MW414086   1.389   1.956   3.750  0.5807 -0.5469  0.4053
 3589SOL     OW14087   4.161   3.298   3.906  0.1039  0.0428 -0.2151
 3589SOL    HW214088   4.243   3.338   3.933 -1.0229  2.2260  0.1890
 3589SOL    HW314089   4.135   3.346   3.828 -0.6746 -0.7811 -0.4775
 3589SOL    MW414090   4.168   3.309   3.899  0.5958  0.5463 -0.2699
 3590SOL     OW14091   6.136   4.150   5.967 -0.1009  0.1289 -0.4862
 3590SOL    HW214092   6.222   4.140   6.009 -0.1428 -0.2150 -0.4788
 3590SOL    HW314093   6.139   4.091   5.893 -0.3511  0.0805 -0.4572
 3590SOL    MW414094   6.148   4.141   5.963  0.1646 -0.0426  0.3604
 3591SOL     OW14095   2.156   1.153   3.297  0.7432 -0.0823  0.0480
 3591SOL    HW214096   2.103   1.123   3.223  0.3362  2.6672 -0.8932
 3591SOL    HW314097   2.162   1.077   3.355 -2.9425 -0.9770 -0.5123
 3591SOL    MW414098   2.150   1.139   3.295  0.6284 -1.4230  0.0841
 3592SOL     OW14099   4.895   0.901   5.309  0.3785 -0.2496  0.4421
 3592SOL    HW214100   4.840   0.925   5.384 -0.5835 -0.4698 -0.1759
 3592SOL    HW314101   4.892   0.805   5.307  1.6967 -0.3345  1.0495
 3592SOL    MW414102   4.888   0.891   5.319  0.0177 -0.7838  0.2581
 3593SOL     OW14103   3.741   4.942   1.976  0.4170 -0.5784  0.0186
 3593SOL    HW214104   3.779   4.877   2.035  2.4525  1.3481  1.0237
 3593SOL    HW314105   3.765   4.912   1.889  1.8316 -0.9353  0.4886
 3593SOL    MW414106   3.749   4.930   1.973 -0.3646  0.0536  0.4005
 3594SOL     OW14107   4.645   0.263   2.795  0.7652  0.2982 -0.5150
 3594SOL    HW214108   4.720   0.322   2.792  0.8033  0.3092  0.4067
 3594SOL    HW314109   4.679   0.183   2.834  0.6684 -0.2790 -1.5821
 3594SOL    MW414110   4.659   0.261   2.799  0.7168 -0.4779 -0.5092
 3595SOL     OW14111   2.025   4.747   2.405 -0.2982 -0.9243 -0.3742
 3595SOL    HW214112   1.938   4.715   2.428 -0.5961  0.9000  1.3236
 3595SOL    HW314113   2.028   4.836   2.441  2.8070 -1.4822  1.0679
 3595SOL    MW414114   2.014   4.755   2.413 -0.5949 -0.1413  0.3092
 3596SOL     OW14115   3.624   0.405   6.141  0.6324 -0.1570 -0.4067
 3596SOL    HW214116   3.541   0.436   6.105  1.7250  0.9869 -2.0461
 3596SOL    HW314117   3.648   0.331   6.086  0.6104 -0.6318  0.2079
 3596SOL    MW414118   3.616   0.399   6.129 -0.0825  0.3345  0.0621
 3597SOL     OW14119   0.945   1.468   6.218  0.0455 -0.6573  0.0815
 3597SOL    HW214120   0.910   1.403   6.156  0.8341 -2.3352  1.3015
 3597SOL    HW314121   0.932   1.427   6.304  0.0301  1.1059  0.9533
 3597SOL    MW414122   0.939   1.454   6.221 -0.3050  0.4144 -0.3139
 3598SOL     OW14123   5.282   1.947   1.034 -0.0804 -0.0598  0.0591
 3598SOL    HW214124   5.353   1.988   1.084 -0.8479 -0.1547  1.2483
 3598SOL    HW314125   5.306   1.855   1.029  0.0208 -0.0424  0.2216
 3598SOL    MW414126   5.295   1.940   1.040  0.0145 -0.1187  0.1045
 3599SOL     OW14127   2.537   0.356   4.231 -0.2227 -0.7391 -0.3597
 3599SOL    HW214128   2.502   0.441   4.259  0.1315 -0.6477 -0.1954
 3599SOL    HW314129   2.518   0.352   4.137 -0.2884 -0.5013 -0.3571
 3599SOL    MW414130   2.530   0.367   4.222 -0.1539  0.0226 -0.4805
 3600SOL     OW14131   4.138   4.034   5.906  0.0092  0.3355 -0.3602
 3600SOL    HW214132   4.142   4.104   5.841 -1.7561  0.9331  0.1181
 3600SOL    HW314133   4.047   4.004   5.905  0.2494 -0.5647  0.8900
 3600SOL    MW414134   4.126   4.039   5.897 -0.2463  0.0683 -0.1308
 3601SOL     OW14135   3.769   6.440   4.440 -0.3392 -0.1162  0.0149
 3601SOL    HW214136   3.797   6.412   4.352  1.4058  2.7361 -0.4831
 3601SOL    HW314137   3.851   6.452   4.488 -1.2650 -1.4326  2.0274
 3601SOL    MW414138   3.784   6.438   4.435  0.7869 -0.2164 -0.3293
 3602SOL     OW14139   3.083   0.810   6.026 -0.4749 -0.1666  0.8805
 3602SOL    HW214140   3.069   0.841   5.936  0.5981  0.1129  0.7964
 3602SOL    HW314141   3.173   0.835   6.046 -0.5212 -0.7265  1.8426
 3602SOL    MW414142   3.093   0.818   6.017  0.5296 -0.2938 -0.0978
 3603SOL     OW14143   5.208   1.108   4.884 -0.0384 -0.6287  0.5036
 3603SOL    HW214144   5.173   1.056   4.812  0.8623 -2.6928  1.4798
 3603SOL    HW314145   5.293   1.068   4.903  2.1247  2.9628 -0.5251
 3603SOL    MW414146   5.215   1.096   4.877  0.0890  0.5892 -0.1765
 3604SOL     OW14147   4.330   5.063   0.109 -0.7454  0.2382  0.2768
 3604SOL    HW214148   4.299   5.004   0.040 -0.3262 -1.3817  1.4109
 3604SOL    HW314149   4.412   5.099   0.075 -1.2414  0.5554 -0.6232
 3604SOL    MW414150   4.336   5.060   0.095 -0.0968 -0.4629  0.0089
 3605SOL     OW14151   5.682   1.089   1.974 -0.2384 -0.1596 -0.6554
 3605SOL    HW214152   5.591   1.118   1.972 -0.0369  0.4974 -0.5295
 3605SOL    HW314153   5.702   1.068   1.882 -0.0230  1.3165 -0.9860
 3605SOL    MW414154   5.673   1.090   1.961 -0.0822 -0.3963  0.3578
 3606SOL     OW14155   2.269   4.621   0.710 -0.3823 -0.3694 -0.1695
 3606SOL    HW214156   2.265   4.526   0.718  1.4510 -0.3263  2.4176
 3606SOL    HW314157   2.275   4.637   0.616 -3.4079 -2.6021 -0.9044
 3606SOL    MW414158   2.269   4.610   0.699 -0.4600  0.1763 -0.2480
 3607SOL     OW14159   0.365   1.811   1.848 -0.1499  0.2088 -0.1396
 3607SOL    HW214160   0.394   1.735   1.797 -1.2859  1.2680 -2.5373
 3607SOL    HW314161   0.441   1.869   1.850 -0.3346  0.5383 -1.4969
 3607SOL    MW414162   0.379   1.809   1.841  1.0091 -0.4087  0.6337
 3608SOL     OW14163   2.452   4.707   5.178  0.3424  0.0714  0.0707
 3608SOL    HW214164   2.370   4.752   5.201 -1.2014 -2.0080 -1.0123
 3608SOL    HW314165   2.463   4.642   5.248  0.8539  0.0889  0.0049
 3608SOL    MW414166   2.443   4.704   5.190 -0.6221 -0.1112 -0.8646
 3609SOL     OW14167   2.567   1.464   4.853 -0.0407  0.1615 -0.1004
 3609SOL    HW214168   2.649   1.415   4.855 -0.8100 -1.2618 -1.2721
 3609SOL    HW314169   2.509   1.417   4.913 -1.2579 -1.4014 -2.3289
 3609SOL    MW414170   2.570   1.451   4.861  0.3053  0.1776 -0.3899
 3610SOL     OW14171   6.051   0.564   0.678  0.0246  0.1103 -0.3640
 3610SOL    HW214172   6.035   0.545   0.770  1.1976 -1.1096 -0.3735
 3610SOL    HW314173   5.994   0.639   0.658  0.0459  0.6473  1.4339
 3610SOL    MW414174   6.041   0.571   0.687 -0.7779  0.1401 -0.0602
 3611SOL     OW14175   4.656   1.209   0.781 -1.1099  0.2601  0.4839
 3611SOL    HW214176   4.706   1.262   0.844 -0.8906  0.4244  0.1766
 3611SOL    HW314177   4.572   1.194   0.824 -0.2259 -1.4788  1.7650
 3611SOL    MW414178   4.651   1.214   0.795 -0.0527 -0.2014  0.0855
 3612SOL     OW14179   4.876   0.737   6.189 -0.6752 -0.4096  0.0497
 3612SOL    HW214180   4.970   0.752   6.189 -0.4318 -1.8079  0.2145
 3612SOL    HW314181   4.837   0.824   6.193  0.6018  0.2042 -0.7074
 3612SOL    MW414182   4.883   0.750   6.190  0.5018  0.6398 -0.2298
 3613SOL     OW14183   5.001   2.363   2.915  0.8518 -0.2989  0.4971
 3613SOL    HW214184   4.930   2.307   2.884  1.9880 -1.9266  0.7218
 3613SOL    HW314185   5.044   2.393   2.835 -0.9705  1.9907  0.2845
 3613SOL    MW414186   4.997   2.360   2.900 -0.1340  0.2050  0.2747
 3614SOL     OW14187   2.774   2.202   2.815 -0.0003 -0.3628 -0.1193
 3614SOL    HW214188   2.722   2.146   2.758 -1.6016  0.2343  0.6899
 3614SOL    HW314189   2.807   2.271   2.757  0.7584 -1.2963 -0.8295
 3614SOL    MW414190   2.771   2.204   2.800 -0.2038 -0.4679 -0.4253
 3615SOL     OW14191   1.420   1.332   4.096 -0.0525  0.3101  0.7803
 3615SOL    HW214192   1.411   1.427   4.090  0.6364  0.3065 -0.9927
 3615SOL    HW314193   1.331   1.300   4.114 -0.7079  1.1765 -0.7315
 3615SOL    MW414194   1.407   1.340   4.098 -0.6003  0.0532  0.1127
 3616SOL     OW14195   2.458   4.393   5.603  0.4688 -0.4975  0.0187
 3616SOL    HW214196   2.519   4.369   5.673  1.0778  0.1090 -0.2988
 3616SOL    HW314197   2.445   4.487   5.612 -0.1313 -0.5555 -0.1543
 3616SOL    MW414198   2.464   4.402   5.613 -0.0513 -0.0179 -0.1932
 3617SOL     OW14199   0.855   0.563   4.205 -0.5390 -0.2979 -0.2814
 3617SOL    HW214200   0.861   0.573   4.110  0.2481  1.9531 -0.0467
 3617SOL    HW314201   0.911   0.488   4.225 -0.6316 -0.7272 -1.5649
 3617SOL    MW414202   0.863   0.555   4.195 -0.0991  0.1211 -0.0658
 3618SOL     OW14203   6.108   3.554   0.705 -0.2606 -0.2582  0.4483
 3618SOL    HW214204   6.078   3.551   0.614  1.5265  1.1154 -0.2398
 3618SOL    HW314205   6.133   3.463   0.725  0.4163 -0.3694 -0.8254
 3618SOL    MW414206   6.107   3.541   0.696  0.4697 -0.3108  0.0757
 3619SOL     OW14207   4.986   0.159   1.346 -0.7593 -0.5753  0.1175
 3619SOL    HW214208   4.912   0.113   1.386 -0.7188 -0.8394 -0.1080
 3619SOL    HW314209   4.978   0.140   1.252  0.0439 -1.2612  0.1776
 3619SOL    MW414210   4.975   0.150   1.338 -0.0355 -0.0434 -0.3375
 3620SOL     OW14211   2.523   3.190   3.021  0.0388 -0.6217  0.4500
 3620SOL    HW214212   2.566   3.108   3.044  1.6366 -0.7030 -2.3837
 3620SOL    HW314213   2.432   3.165   3.002  0.5286 -1.7828 -0.4815
 3620SOL    MW414214   2.517   3.176   3.022 -0.7957  0.1384  0.3362
 3621SOL     OW14215   3.455   3.199   0.529 -0.4042 -0.0793  0.5454
 3621SOL    HW214216   3.470   3.107   0.506 -0.3337 -1.0988  4.1306
 3621SOL    HW314217   3.538   3.228   0.565 -1.2657  0.3646  2.2949
 3621SOL    MW414218   3.468   3.190   0.531 -0.5431  0.3193 -0.3234
 3622SOL     OW14219   2.508   0.741   4.095 -0.4182 -0.2103  0.4137
 3622SOL    HW214220   2.573   0.701   4.037 -0.6842 -0.1321  0.0539
 3622SOL    HW314221   2.559   0.799   4.152 -0.4237  2.3822 -1.9762
 3622SOL    MW414222   2.523   0.743   4.095  0.4618  0.3730 -0.1630
 3623SOL     OW14223   0.456   4.688   4.042 -0.6769  0.1280  0.4490
 3623SOL    HW214224   0.523   4.736   4.091 -0.4715 -1.3049  1.6540
 3623SOL    HW314225   0.490   4.599   4.036 -1.4095 -0.0828 -1.0109
 3623SOL    MW414226   0.469   4.682   4.048 -0.1171  0.1234 -0.0277
 3624SOL     OW14227   5.598   1.171   3.009  0.4302  0.1821 -0.3221
 3624SOL    HW214228   5.631   1.158   3.098 -0.5632 -3.1874 -0.2966
 3624SOL    HW314229   5.505   1.191   3.020  0.3841  0.1098 -0.5619
 3624SOL    MW414230   5.590   1.172   3.022  0.2949 -0.7771 -0.1205
 3625SOL     OW14231   2.320   3.718   4.442 -0.1851  0.5483 -0.0277
 3625SOL    HW214232   2.363   3.744   4.361  0.1117 -0.6937 -0.2859
 3625SOL    HW314233   2.374   3.647   4.476 -1.2485 -0.0885  0.3697
 3625SOL    MW414234   2.333   3.712   4.436 -0.4368 -0.3383 -0.5079
 3626SOL     OW14235   2.046   3.360   3.206  0.7744 -0.5049 -0.0661
 3626SOL    HW214236   2.056   3.265   3.211  0.9791 -0.5909 -1.5962
 3626SOL    HW314237   2.045   3.379   3.112  1.6452  1.0991  0.2133
 3626SOL    MW414238   2.047   3.350   3.194  0.3032 -0.2171 -0.6050
 3627SOL     OW14239   5.360   4.158   4.654 -0.0294 -0.5604  0.1237
 3627SOL    HW214240   5.399   4.080   4.615 -1.0708 -0.3812 -1.3709
 3627SOL    HW314241   5.405   4.231   4.612 -0.0623 -0.3656  0.4303
 3627SOL    MW414242   5.371   4.157   4.643 -0.6241  0.0854  0.0069
 3628SOL     OW14243   4.449   1.424   0.682 -0.0631 -0.4252  0.2615
 3628SOL    HW214244   4.433   1.379   0.599 -0.6482  0.0248  0.1253
 3628SOL    HW314245   4.536   1.393   0.709  0.1406 -0.5700 -0.5175
 3628SOL    MW414246   4.459   1.414   0.675 -0.2361  0.6087 -0.0876
 3629SOL     OW14247   6.079   2.184   4.136  0.0767  0.0574  0.0044
 3629SOL    HW214248   5.995   2.143   4.116 -0.7498  0.6801  1.9207
 3629SOL    HW314249   6.086   2.257   4.074 -1.2030  0.4768  0.3088
 3629SOL    MW414250   6.069   2.188   4.125  0.4514 -0.3819 -0.6914
 3630SOL     OW14251   5.884   4.892   6.167  0.1159  0.7596  0.2112
 3630SOL    HW214252   5.934   4.924   6.092 -0.2089 -0.4102 -0.5540
 3630SOL    HW314253   5.950   4.862   6.230  0.4755 -1.6384 -1.1712
 3630SOL    MW414254   5.899   4.892   6.165 -0.2015 -0.0161  0.2379
 3631SOL     OW14255   1.934   0.449   3.023 -0.1278  0.2171 -0.2967
 3631SOL    HW214256   1.894   0.485   3.102  1.4788  0.7613  0.3096
 3631SOL    HW314257   1.981   0.523   2.984 -0.1407 -0.2688 -1.2702
 3631SOL    MW414258   1.935   0.464   3.028  0.7619 -0.3365  0.7456
 3632SOL     OW14259   3.419   2.647   2.332 -0.0236 -0.3243  0.9760
 3632SOL    HW214260   3.488   2.659   2.398  0.2170 -1.8757  1.0342
 3632SOL    HW314261   3.341   2.623   2.382 -0.3469  0.3721  0.8228
 3632SOL    MW414262   3.418   2.645   2.347  0.6129  0.4615  0.0720
 3633SOL     OW14263   2.249   0.317   5.922 -0.5405  0.2377  0.1010
 3633SOL    HW214264   2.273   0.255   5.853  0.8778 -1.3571  1.9091
 3633SOL    HW314265   2.196   0.383   5.878 -1.4293 -1.8023 -2.1034
 3633SOL    MW414266   2.245   0.317   5.908  0.0928 -0.5008 -0.4059
 3634SOL     OW14267   4.349   3.831   2.154  0.0206  0.6801 -0.6168
 3634SOL    HW214268   4.338   3.883   2.074 -0.2835  0.9512 -0.3996
 3634SOL    HW314269   4.444   3.821   2.162  0.0302  0.0064 -1.4211
 3634SOL    MW414270   4.360   3.837   2.145  0.5374 -0.0193 -0.3965
 3635SOL     OW14271   5.091   2.377   0.635  0.1916  0.5169 -0.2262
 3635SOL    HW214272   5.062   2.463   0.667  0.0642  0.6713 -0.7485
 3635SOL    HW314273   5.010   2.329   0.620  0.2478  0.5071 -0.4895
 3635SOL    MW414274   5.077   2.382   0.637  0.0341 -0.0487 -0.5904
 3636SOL     OW14275   2.209   1.141   0.930 -0.7162  0.7456  0.4727
 3636SOL    HW214276   2.189   1.214   0.990 -1.1289  0.4437  0.7039
 3636SOL    HW314277   2.144   1.074   0.951  0.9624 -0.5762  1.7973
 3636SOL    MW414278   2.198   1.142   0.941 -0.5867 -0.1256  0.0108
 3637SOL     OW14279   1.371   5.454   4.732 -0.2372 -0.6230 -0.2335
 3637SOL    HW214280   1.464   5.464   4.713  0.4783 -3.5922  1.1466
 3637SOL    HW314281   1.358   5.502   4.814 -0.5407  1.7258 -1.5604
 3637SOL    MW414282   1.381   5.462   4.740  0.1049 -0.3134  0.2324
 3638SOL     OW14283   3.008   6.179   3.133 -0.4562 -0.4079  0.1504
 3638SOL    HW214284   2.967   6.237   3.069  0.0751  0.8069  0.8681
 3638SOL    HW314285   2.978   6.091   3.109 -1.5276  0.1884 -0.7871
 3638SOL    MW414286   2.998   6.175   3.122  0.1786 -0.2926  0.5979
 3639SOL     OW14287   3.120   5.154   0.504 -0.5297  0.1806 -0.2667
 3639SOL    HW214288   3.028   5.130   0.506 -0.7614  0.9878 -0.9610
 3639SOL    HW314289   3.155   5.110   0.427 -0.8741  1.6917 -1.3344
 3639SOL    MW414290   3.113   5.145   0.494 -0.4159  0.4681 -0.4054
 3640SOL     OW14291   2.234   4.387   3.117 -0.2427  0.3364 -0.0742
 3640SOL    HW214292   2.266   4.452   3.054 -1.2732  2.0287  1.0577
 3640SOL    HW314293   2.241   4.431   3.202 -0.1144 -1.4056  0.8578
 3640SOL    MW414294   2.239   4.401   3.120 -0.4923 -0.0430 -0.1027
 3641SOL     OW14295   4.952   0.302   4.571  0.6657  0.0748  0.3063
 3641SOL    HW214296   4.999   0.327   4.650  0.0323  0.1651  0.6554
 3641SOL    HW314297   4.976   0.210   4.557  2.2564  0.5711 -0.4585
 3641SOL    MW414298   4.962   0.293   4.579  0.0628  0.2573  0.0228
 3642SOL     OW14299   2.150   0.347   4.689 -0.2653 -0.9209 -0.0195
 3642SOL    HW214300   2.211   0.326   4.618  0.7711  2.3684 -0.3070
 3642SOL    HW314301   2.203   0.396   4.752 -2.5622  2.6188 -0.5507
 3642SOL    MW414302   2.165   0.351   4.688 -0.1164 -0.3283 -0.2882
 3643SOL     OW14303   6.249   1.349   1.423  0.4446 -0.1923  0.4674
 3643SOL    HW214304   6.189   1.310   1.360  0.4482  1.4355 -0.5844
 3643SOL    HW314305   6.204   1.340   1.508 -0.7674 -0.0161 -0.1358
 3643SOL    MW414306   6.235   1.343   1.426  0.0059 -0.0116  0.4654
 3644SOL     OW14307   0.671   2.263   1.197 -0.0414 -0.1859  0.3201
 3644SOL    HW214308   0.629   2.209   1.264  1.6468 -2.2819 -0.2178
 3644SOL    HW314309   0.755   2.287   1.235 -1.1065  3.0936  0.9699
 3644SOL    MW414310   0.676   2.259   1.211  0.0918  0.2850 -0.1896
 3645SOL     OW14311   4.833   5.391   3.052  0.3370  0.2498 -0.1422
 3645SOL    HW214312   4.795   5.386   2.965  1.7684  0.5339 -0.8129
 3645SOL    HW314313   4.919   5.351   3.043  0.0054 -0.9408  1.4742
 3645SOL    MW414314   4.839   5.385   3.040 -0.4529  0.3275 -0.3912
 3646SOL     OW14315   6.270   0.329   6.032 -0.4205  0.2999  0.5365
 3646SOL    HW214316   6.199   0.383   5.999  0.0681  1.0927  0.7651
 3646SOL    HW314317   6.254   0.242   5.995 -0.8334  0.7607 -0.3769
 3646SOL    MW414318   6.259   0.324   6.023 -0.7471  0.0686 -0.6975
 3647SOL     OW14319   3.108   5.295   3.811 -0.4653  0.3824  1.0045
 3647SOL    HW214320   3.090   5.205   3.837  0.6890 -0.3956 -0.7072
 3647SOL    HW314321   3.034   5.319   3.755  0.6190 -0.6107 -0.9598
 3647SOL    MW414322   3.096   5.287   3.807  0.0690  0.3207 -0.0736
 3648SOL     OW14323   3.891   2.232   5.860 -0.7459  0.4149 -0.4283
 3648SOL    HW214324   3.935   2.235   5.945 -1.5513 -0.1516  0.0205
 3648SOL    HW314325   3.959   2.257   5.797  0.4019 -1.0740  0.1675
 3648SOL    MW414326   3.906   2.236   5.863 -0.4356 -0.5045  0.2886
 3649SOL     OW14327   1.024   1.273   2.324 -0.1006  0.2257 -0.2658
 3649SOL    HW214328   0.994   1.338   2.387 -1.1235 -1.1442  0.7224
 3649SOL    HW314329   0.961   1.277   2.252 -1.7389 -1.4149  0.9906
 3649SOL    MW414330   1.012   1.282   2.323  0.2895 -0.0911 -0.2434
 3650SOL     OW14331   0.239   1.443   2.736 -0.2232 -0.0667 -0.3433
 3650SOL    HW214332   0.153   1.464   2.699  0.0861  0.2289 -0.9052
 3650SOL    HW314333   0.271   1.369   2.684 -0.0062  0.0166 -0.3311
 3650SOL    MW414334   0.232   1.436   2.724 -0.2883  0.0873 -0.1360
 3651SOL     OW14335   1.581   2.133   0.085  0.2939 -0.0527 -0.0091
 3651SOL    HW214336   1.600   2.081   0.008 -2.2906  1.4158 -1.7727
 3651SOL    HW314337   1.505   2.091   0.125  0.4416  0.2912  0.6472
 3651SOL    MW414338   1.574   2.121   0.080  0.4025  0.2271 -0.4471
 3652SOL     OW14339   4.629   0.903   0.264 -0.0706 -0.0321  0.1793
 3652SOL    HW214340   4.537   0.921   0.278  0.0300 -0.3266  1.2743
 3652SOL    HW314341   4.671   0.924   0.347  0.7916 -0.2840 -0.1799
 3652SOL    MW414342   4.623   0.908   0.277  0.2791  0.1078 -0.1840
 3653SOL     OW14343   0.199   4.965   6.026  0.4659 -0.0260 -0.2092
 3653SOL    HW214344   0.108   4.948   6.054  0.7904 -0.1325  0.8414
 3653SOL    HW314345   0.245   4.985   6.108  1.3218  0.3509 -0.7777
 3653SOL    MW414346   0.193   4.965   6.041  0.0859  0.1090 -0.3280
 3654SOL     OW14347   5.694   1.746   1.983  0.1835  1.1567  0.6046
 3654SOL    HW214348   5.718   1.746   2.075  2.6330  0.9938  0.0202
 3654SOL    HW314349   5.749   1.814   1.943 -0.8174  1.2145 -0.7594
 3654SOL    MW414350   5.704   1.755   1.990  0.1110  0.1615  0.2149
 3655SOL     OW14351   3.983   1.631   5.720 -0.3768  0.1288  0.4251
 3655SOL    HW214352   3.887   1.630   5.723 -0.3544 -0.5680  2.0260
 3655SOL    HW314353   4.009   1.549   5.762  0.9341 -1.6401 -3.3618
 3655SOL    MW414354   3.974   1.620   5.726 -0.3292  0.2010 -0.3863
 3656SOL     OW14355   2.085   1.988   4.261  0.6451  0.0384 -0.2984
 3656SOL    HW214356   2.090   1.895   4.285 -2.4738 -0.8510 -2.3889
 3656SOL    HW314357   2.004   2.019   4.302  0.1320  0.9840 -1.9182
 3656SOL    MW414358   2.075   1.979   4.269  0.0866  0.0442  0.4974
 3657SOL     OW14359   0.734   5.353   0.500 -0.1782  0.0176  0.0561
 3657SOL    HW214360   0.806   5.323   0.445 -1.0036  0.5781 -1.3786
 3657SOL    HW314361   0.772   5.424   0.552  0.2989  0.3708 -0.7517
 3657SOL    MW414362   0.749   5.359   0.500 -0.4426  0.6215  0.5543
 3658SOL     OW14363   4.255   5.001   1.227 -0.0295  0.1131  0.2150
 3658SOL    HW214364   4.244   5.068   1.160 -0.5066  0.8685  1.0208
 3658SOL    HW314365   4.176   4.946   1.220 -0.9924  1.2795  1.3165
 3658SOL    MW414366   4.243   5.002   1.217  0.4355 -0.0554 -0.1446
 3659SOL     OW14367   4.985   3.399   1.902  0.4365 -0.4881  0.1110
 3659SOL    HW214368   4.891   3.415   1.896  0.3772  0.9318  2.9704
 3659SOL    HW314369   5.024   3.465   1.844 -0.2964  0.4457  0.6443
 3659SOL    MW414370   4.978   3.410   1.893 -0.2374  0.2319  0.2180
 3660SOL     OW14371   1.510   5.403   2.867 -0.1287 -0.1882 -0.0249
 3660SOL    HW214372   1.490   5.406   2.961 -0.2410  0.2929 -0.0626
 3660SOL    HW314373   1.597   5.442   2.861  0.2137 -0.9294 -0.0346
 3660SOL    MW414374   1.519   5.409   2.879  0.3035 -0.0835  0.1966
 3661SOL     OW14375   0.109   4.934   5.050 -0.1383 -0.1028  0.3255
 3661SOL    HW214376   0.163   4.956   5.126  1.0354 -1.4254 -0.0925
 3661SOL    HW314377   0.046   4.870   5.084 -0.6566  0.5167  0.5387
 3661SOL    MW414378   0.108   4.928   5.064  0.8734  0.7192 -0.5328
 3662SOL     OW14379   0.419   2.243   2.570 -0.2770 -0.5699 -0.0774
 3662SOL    HW214380   0.346   2.306   2.575  0.0597 -0.2639  1.4295
 3662SOL    HW314381   0.493   2.296   2.540 -0.3953 -0.6251 -0.4705
 3662SOL    MW414382   0.419   2.258   2.567  0.0743 -0.2459  0.4341
 3663SOL     OW14383   4.805   4.306   5.828  0.1080  0.0796  0.3473
 3663SOL    HW214384   4.736   4.282   5.890 -1.2715  0.6954 -0.8709
 3663SOL    HW314385   4.839   4.222   5.796 -1.4059 -0.2872 -0.4072
 3663SOL    MW414386   4.800   4.292   5.832 -0.1696  0.2291 -0.5727
 3664SOL     OW14387   5.168   3.435   0.302 -0.2335 -1.1605  0.8685
 3664SOL    HW214388   5.077   3.463   0.313 -0.0653  0.6026 -1.3425
 3664SOL    HW314389   5.167   3.384   0.220  0.8161 -0.7698  0.6038
 3664SOL    MW414390   5.156   3.432   0.292 -0.2531 -0.4435 -0.0329
 3665SOL     OW14391   5.106   4.037   3.309  0.0402 -0.0817 -0.7927
 3665SOL    HW214392   5.011   4.028   3.319 -0.0041  1.2355  0.1411
 3665SOL    HW314393   5.117   4.071   3.221 -0.4447  0.8807 -0.4968
 3665SOL    MW414394   5.095   4.040   3.299 -0.1070  0.1094  0.3005
 3666SOL     OW14395   0.225   5.889   4.002  0.1724  0.5486  0.2948
 3666SOL    HW214396   0.200   5.823   3.938 -1.2158  0.3207  1.0380
 3666SOL    HW314397   0.276   5.841   4.068 -0.8115  0.1899  0.8195
 3666SOL    MW414398   0.229   5.874   4.003  0.0164 -0.8516 -0.3543
 3667SOL     OW14399   6.089   6.105   5.854 -0.0860 -0.3417  0.3428
 3667SOL    HW214400   6.093   6.033   5.917 -1.2037 -1.4391 -0.7893
 3667SOL    HW314401   6.005   6.147   5.870 -0.2426 -0.4368 -0.2008
 3667SOL    MW414402   6.079   6.102   5.865  0.1306 -0.7662  0.2643
 3668SOL     OW14403   1.649   5.051   2.362 -0.2521 -0.0657  0.2487
 3668SOL    HW214404   1.674   5.142   2.383 -1.8259  0.4381  0.0211
 3668SOL    HW314405   1.621   5.014   2.445  0.9550 -0.5686  0.4606
 3668SOL    MW414406   1.649   5.058   2.375  0.2278 -0.1016  0.8906
 3669SOL     OW14407   4.340   0.924   3.393  0.6350 -0.1847  0.4935
 3669SOL    HW214408   4.245   0.929   3.387  0.7061  1.5869  0.4504
 3669SOL    HW314409   4.366   0.874   3.316 -0.2475 -0.7078  0.5181
 3669SOL    MW414410   4.331   0.918   3.382  0.6596 -0.3850 -0.1328
 3670SOL     OW14411   6.252   1.700   2.379 -0.1025 -0.4367  0.0514
 3670SOL    HW214412   6.337   1.744   2.387  0.6320 -2.0693  2.2289
 3670SOL    HW314413   6.272   1.617   2.335 -1.1275  0.4178 -2.1540
 3670SOL    MW414414   6.266   1.695   2.374 -0.0832 -0.3280 -0.5205
 3671SOL     OW14415   3.374   4.488   1.009  0.0094  0.2044 -0.0069
 3671SOL    HW214416   3.326   4.419   0.963  2.7000 -1.5408 -0.3584
 3671SOL    HW314417   3.367   4.564   0.951  0.1840 -0.8842 -1.5023
 3671SOL    MW414418   3.367   4.489   0.995 -0.4023  0.2985  0.7986
 3672SOL     OW14419   2.156   5.292   5.966 -0.2767  0.5821 -0.4974
 3672SOL    HW214420   2.174   5.257   5.879  3.3664  0.9852 -0.0276
 3672SOL    HW314421   2.144   5.215   6.021  1.3275  0.1852 -0.6651
 3672SOL    MW414422   2.157   5.277   5.961  1.4988 -0.3105 -0.0220
 3673SOL     OW14423   0.250   1.806   4.812  0.3064  0.5435 -0.1773
 3673SOL    HW214424   0.340   1.838   4.815  1.5841 -2.6847 -0.6781
 3673SOL    HW314425   0.230   1.785   4.903  1.7131 -2.6059 -0.4693
 3673SOL    MW414426   0.259   1.808   4.825 -0.2380  0.1626  0.1080
 3674SOL     OW14427   4.042   1.734   1.194 -0.0092  0.1702  0.3967
 3674SOL    HW214428   4.077   1.698   1.276 -1.1187 -1.7989  0.0770
 3674SOL    HW314429   4.007   1.657   1.148 -1.6292  1.5703 -0.8167
 3674SOL    MW414430   4.042   1.719   1.199 -0.3460  0.3356 -0.3635
 3675SOL     OW14431   0.755   6.097   5.652  0.2164  0.2683 -0.2519
 3675SOL    HW214432   0.781   6.186   5.628  1.9138 -0.3092 -0.6603
 3675SOL    HW314433   0.691   6.072   5.585  1.4458  0.3548 -1.4853
 3675SOL    MW414434   0.750   6.106   5.640  0.4471  0.4965 -0.0910
 3676SOL     OW14435   0.230   5.755   2.428 -0.5207 -0.2931 -0.5356
 3676SOL    HW214436   0.282   5.723   2.502  1.3008  1.8770 -0.7684
 3676SOL    HW314437   0.139   5.737   2.453  0.2070 -3.6988  0.1462
 3676SOL    MW414438   0.224   5.748   2.441 -0.4359  0.1509  0.2237
 3677SOL     OW14439   1.445   6.067   0.625  0.2449 -0.0616 -0.0566
 3677SOL    HW214440   1.497   6.025   0.557  0.2550 -0.6308  0.2918
 3677SOL    HW314441   1.429   5.997   0.689 -1.0097  0.0743 -0.1907
 3677SOL    MW414442   1.449   6.052   0.625 -0.0572 -0.2381  0.0809
 3678SOL     OW14443   2.230   4.105   2.635 -0.1054  0.2059  0.0784
 3678SOL    HW214444   2.194   4.192   2.618 -2.1217 -0.4608  0.7070
 3678SOL    HW314445   2.267   4.112   2.723 -2.8358 -0.2569  1.3712
 3678SOL    MW414446   2.230   4.117   2.644 -0.3994 -0.1013 -0.0190
 3679SOL     OW14447   0.309   0.318   3.774  0.1022  0.3465  0.1806
 3679SOL    HW214448   0.216   0.333   3.794  0.3389  0.8284  0.9491
 3679SOL    HW314449   0.312   0.227   3.743 -0.2362 -0.7242  2.9662
 3679SOL    MW414450   0.297   0.308   3.772  0.5641 -0.5214  0.4282
 3680SOL     OW14451   4.832   3.238   4.737 -0.3735 -0.3150 -0.6405
 3680SOL    HW214452   4.873   3.256   4.652 -1.1115  0.4730 -0.8492
 3680SOL    HW314453   4.877   3.296   4.798  0.5313 -1.2783 -0.3790
 3680SOL    MW414454   4.843   3.248   4.734  0.4712  0.6814  0.5959
 3681SOL     OW14455   4.220   2.533   4.273  0.3998 -0.0067  0.1856
 3681SOL    HW214456   4.153   2.559   4.209 -0.2293 -1.1271  0.3731
 3681SOL    HW314457   4.226   2.609   4.332  0.5242  0.7824 -0.8087
 3681SOL    MW414458   4.212   2.547   4.273  0.0258  0.1332 -0.2501
 3682SOL     OW14459   0.407   6.014   2.198  0.3539 -0.5883 -0.6712
 3682SOL    HW214460   0.344   6.041   2.132 -0.1088 -1.1913 -0.4764
 3682SOL    HW314461   0.474   6.083   2.196 -0.6072  0.3860 -0.4577
 3682SOL    MW414462   0.408   6.027   2.189 -0.1108 -0.1775 -0.3463
 3683SOL     OW14463   4.751   3.194   3.567 -0.4226  0.0145 -0.4419
 3683SOL    HW214464   4.686   3.125   3.573 -1.2202  0.7834  0.0695
 3683SOL    HW314465   4.716   3.265   3.622  0.1624  0.9766 -1.2686
 3683SOL    MW414466   4.738   3.194   3.575  0.1247  0.0033  0.2534
 3684SOL     OW14467   1.074   3.367   4.396  0.3267 -0.1759 -0.1431
 3684SOL    HW214468   1.057   3.460   4.408  1.9854 -0.0100  1.3362
 3684SOL    HW314469   1.058   3.328   4.482  0.5364 -1.1060 -0.5157
 3684SOL    MW414470   1.070   3.374   4.409 -0.1860 -0.0587  1.0509
 3685SOL     OW14471   2.915   5.738   3.289 -0.4617  0.2898 -0.2684
 3685SOL    HW214472   2.828   5.723   3.254  0.4832 -0.5713 -2.4321
 3685SOL    HW314473   2.966   5.663   3.259  1.5961  1.9308 -1.1789
 3685SOL    MW414474   2.911   5.726   3.280  0.2955  0.3233  0.7080
 3686SOL     OW14475   2.613   1.874   5.629 -0.2795  0.1469 -0.0203
 3686SOL    HW214476   2.662   1.808   5.580  0.4521  1.0783 -0.6062
 3686SOL    HW314477   2.644   1.865   5.719  1.0794  0.7419 -0.3829
 3686SOL    MW414478   2.624   1.864   5.634 -0.3100  0.0399 -0.6117
 3687SOL     OW14479   4.774   4.388   3.225 -0.0727  0.7105  0.6821
 3687SOL    HW214480   4.696   4.358   3.271  0.1793  1.4158  1.6095
 3687SOL    HW314481   4.758   4.365   3.134 -0.5392 -0.8243  1.1221
 3687SOL    MW414482   4.761   4.381   3.219 -0.7893  0.8423  0.2680
 3688SOL     OW14483   1.676   4.483   3.760 -0.6302  0.0177  0.5202
 3688SOL    HW214484   1.610   4.431   3.713  0.3724 -1.2466  0.4340
 3688SOL    HW314485   1.727   4.418   3.807  1.2177  0.8440 -0.2620
 3688SOL    MW414486   1.674   4.467   3.760 -0.0271 -0.1795 -0.3639
 3689SOL     OW14487   3.757   0.518   5.760 -0.5558 -0.7101 -0.2556
 3689SOL    HW214488   3.711   0.563   5.831 -0.5881 -0.7079 -0.2786
 3689SOL    HW314489   3.690   0.501   5.694 -0.1902  0.8578 -1.0747
 3689SOL    MW414490   3.742   0.522   5.761 -0.1604 -0.1926 -0.0780
 3690SOL     OW14491   2.855   1.800   2.679 -0.4312  0.0850  0.3105
 3690SOL    HW214492   2.910   1.803   2.601  0.8926 -1.7614  1.1151
 3690SOL    HW314493   2.790   1.732   2.660 -0.0303 -0.4550  0.8447
 3690SOL    MW414494   2.854   1.791   2.666 -0.2809  0.1589  0.2622
 3691SOL     OW14495   5.144   5.718   1.005 -0.7015  0.1026  0.3034
 3691SOL    HW214496   5.185   5.795   0.966 -0.4089  0.4481  1.2728
 3691SOL    HW314497   5.065   5.752   1.047 -2.4296 -0.6409 -2.0825
 3691SOL    MW414498   5.139   5.733   1.005 -0.0791 -0.5048  0.9318
 3692SOL     OW14499   0.923   6.415   4.195 -0.3526 -0.6314  0.3066
 3692SOL    HW214500   0.855   6.447   4.254 -0.5336 -0.4357 -0.0060
 3692SOL    HW314501   0.928   6.481   4.125  1.3723  0.2763  1.2196
 3692SOL    MW414502   0.915   6.428   4.193 -0.6064 -0.1860  0.0053
 3693SOL     OW14503   6.308   3.299   0.598 -0.3524 -0.3407 -0.2758
 3693SOL    HW214504   6.337   3.373   0.544  0.1505  0.7092  1.3471
 3693SOL    HW314505   6.216   3.287   0.576 -0.0496 -0.2457 -1.6680
 3693SOL    MW414506   6.300   3.307   0.588  0.0725 -0.0592  0.1005
 3694SOL     OW14507   3.614   2.511   4.805 -0.2788  0.2516 -0.1566
 3694SOL    HW214508   3.615   2.554   4.890  0.4849 -0.7236  0.3579
 3694SOL    HW314509   3.663   2.429   4.819 -1.1867 -0.5088 -1.2233
 3694SOL    MW414510   3.621   2.506   4.818  0.0768 -0.5740  0.2825
 3695SOL     OW14511   4.209   3.017   3.915  0.5239  0.0720 -0.7707
 3695SOL    HW214512   4.160   2.962   3.855  0.1556 -1.2406  0.6657
 3695SOL    HW314513   4.162   3.100   3.916 -2.4600 -1.4735  1.3778
 3695SOL    MW414514   4.196   3.021   3.907  0.0133  0.3004  0.3587
 3696SOL     OW14515   5.035   5.001   3.229  0.0227  0.1662 -0.3571
 3696SOL    HW214516   5.103   4.935   3.236  1.5494  1.4906 -1.8231
 3696SOL    HW314517   5.078   5.083   3.255 -1.9125  0.6186  1.8071
 3696SOL    MW414518   5.049   5.003   3.234 -0.1464 -0.8614 -0.5671
 3697SOL     OW14519   4.220   5.261   1.567  0.0682  0.3265 -0.2970
 3697SOL    HW214520   4.144   5.304   1.528  0.8570  2.8440  0.7577
 3697SOL    HW314521   4.288   5.268   1.501 -0.1096 -0.3705 -0.5639
 3697SOL    MW414522   4.219   5.267   1.553 -0.1553 -0.2508 -0.2017
 3698SOL     OW14523   2.772   5.000   5.864  0.4359  0.2132 -0.3805
 3698SOL    HW214524   2.750   5.018   5.956  0.8594 -2.1297  0.2513
 3698SOL    HW314525   2.691   4.963   5.827  1.0103 -1.3821 -0.1394
 3698SOL    MW414526   2.758   4.997   5.871 -0.2274 -1.0025 -0.1692
 3699SOL     OW14527   2.902   2.704   1.422  0.1063  0.0558 -0.5923
 3699SOL    HW214528   2.821   2.660   1.397  0.4676 -0.0463 -1.6305
 3699SOL    HW314529   2.873   2.783   1.469 -0.5735 -0.3379 -0.3327
 3699SOL    MW414530   2.887   2.709   1.425 -0.0505  0.4107  0.3218
 3700SOL     OW14531   3.912   1.527   2.943 -0.0251 -0.0790 -0.0064
 3700SOL    HW214532   3.818   1.542   2.958 -0.3178 -0.4979 -1.2937
 3700SOL    HW314533   3.951   1.531   3.030 -1.1631  0.6224  0.4966
 3700SOL    MW414534   3.905   1.529   2.956 -0.3281 -0.2762  0.4982
 3701SOL     OW14535   5.865   5.506   6.029 -0.6090  0.1930 -0.0483
 3701SOL    HW214536   5.843   5.550   5.947 -0.9997 -1.6039 -0.9566
 3701SOL    HW314537   5.847   5.413   6.013 -1.1745 -0.1656  2.2430
 3701SOL    MW414538   5.860   5.499   6.016  0.4738  0.0470 -0.8516
 3702SOL     OW14539   2.031   5.534   2.485  0.5816 -0.1882  0.2551
 3702SOL    HW214540   1.975   5.549   2.409  0.5825 -0.5929  0.1692
 3702SOL    HW314541   1.986   5.577   2.558  1.8648  2.5273 -0.4282
 3702SOL    MW414542   2.018   5.542   2.485  0.0562  0.3435  0.6063
 3703SOL     OW14543   5.498   4.893   6.301  0.4910 -0.2107  0.3521
 3703SOL    HW214544   5.424   4.949   6.279 -0.0216 -0.8812  0.3515
 3703SOL    HW314545   5.575   4.947   6.284  0.0325  0.1616 -0.6007
 3703SOL    MW414546   5.499   4.907   6.296  0.1125  0.4805  0.1996
 3704SOL     OW14547   4.989   2.475   1.706 -0.0781  0.4990  0.3098
 3704SOL    HW214548   5.072   2.506   1.743  0.1759  0.1494  0.0481
 3704SOL    HW314549   4.999   2.490   1.612 -0.8470  1.6885  0.3957
 3704SOL    MW414550   5.002   2.481   1.698 -0.1356 -0.5598 -0.3274
 3705SOL     OW14551   3.757   5.484   0.156 -0.4342  0.1810 -0.1912
 3705SOL    HW214552   3.695   5.502   0.226  0.2809 -0.5910  0.6748
 3705SOL    HW314553   3.829   5.437   0.199 -0.4292 -1.2032 -1.6216
 3705SOL    MW414554   3.758   5.481   0.171 -0.2647 -0.2711 -0.0376
 3706SOL     OW14555   0.294   2.604   4.399 -0.1857  0.0084  0.0519
 3706SOL    HW214556   0.376   2.614   4.448  0.3960 -2.0513 -0.4214
 3706SOL    HW314557   0.320   2.609   4.307 -0.5400 -0.8108 -0.1071
 3706SOL    MW414558   0.308   2.606   4.394 -0.1817 -0.4080  0.5694
 3707SOL     OW14559   6.020   3.803   3.085 -0.0743  0.0762 -0.4066
 3707SOL    HW214560   6.063   3.878   3.044 -0.8784  1.4502  1.1410
 3707SOL    HW314561   6.058   3.727   3.042  0.4105  1.3706 -2.3827
 3707SOL    MW414562   6.031   3.803   3.074 -0.1999 -0.1313 -0.6167
 3708SOL     OW14563   2.847   2.195   4.528 -0.3274 -0.5521  0.5085
 3708SOL    HW214564   2.939   2.219   4.512  0.2463  0.2418  4.1638
 3708SOL    HW314565   2.827   2.133   4.458  2.6149  0.0825 -1.0870
 3708SOL    MW414566   2.857   2.190   4.516  0.3656 -0.4347 -0.4148
 3709SOL     OW14567   2.305   0.479   4.912 -0.3002  0.2125  0.5223
 3709SOL    HW214568   2.252   0.549   4.875  0.2632  0.1910 -0.3356
 3709SOL    HW314569   2.395   0.511   4.907 -0.2153  0.2833  2.0372
 3709SOL    MW414570   2.310   0.492   4.907 -0.1933 -0.0893 -0.2246
 3710SOL     OW14571   0.538   6.346   4.261 -0.5445  0.3099 -0.2261
 3710SOL    HW214572   0.623   6.378   4.294 -0.5531 -0.1270  0.2425
 3710SOL    HW314573   0.557   6.258   4.228 -0.6030  0.6297 -1.1178
 3710SOL    MW414574   0.552   6.338   4.261 -0.1505  0.3497  0.2712
 3711SOL     OW14575   6.104   5.257   1.090  0.1486  0.1944 -0.2504
 3711SOL    HW214576   6.095   5.259   0.995  1.3804 -0.1789 -0.3954
 3711SOL    HW314577   6.026   5.210   1.121  0.1338 -0.3846 -1.1332
 3711SOL    MW414578   6.092   5.251   1.081 -0.1530  0.4750  0.1449
 3712SOL     OW14579   1.086   1.128   0.601  0.0362  0.5044  0.2497
 3712SOL    HW214580   1.018   1.064   0.622 -0.2299  1.2897  1.9603
 3712SOL    HW314581   1.168   1.079   0.612 -0.1810  0.2834  0.9702
 3712SOL    MW414582   1.088   1.113   0.605 -0.5839 -0.1281  0.4472
 3713SOL     OW14583   5.717   2.832   4.538 -0.2850 -0.1406  0.4366
 3713SOL    HW214584   5.740   2.865   4.624 -1.6492  0.8318  0.4588
 3713SOL    HW314585   5.801   2.808   4.498  0.6960  2.3799  0.8037
 3713SOL    MW414586   5.731   2.833   4.544 -0.0377 -0.1662  0.2378
 3714SOL     OW14587   5.360   5.212   0.174  0.1126 -0.1986  0.1329
 3714SOL    HW214588   5.332   5.290   0.127  1.0678 -0.2889 -0.6102
 3714SOL    HW314589   5.355   5.236   0.267 -1.5838  0.0537  0.0160
 3714SOL    MW414590   5.355   5.225   0.180  0.4827 -0.1311  0.9477
 3715SOL     OW14591   4.364   3.500   3.961 -0.1602 -0.6167  0.4325
 3715SOL    HW214592   4.369   3.483   4.055  1.2667 -1.3054  0.2533
 3715SOL    HW314593   4.455   3.505   3.932 -0.5744 -0.1077 -0.8703
 3715SOL    MW414594   4.377   3.498   3.970 -1.0013 -0.3471 -0.1287
 3716SOL     OW14595   6.321   6.419   5.499  0.0080  0.0556  0.3929
 3716SOL    HW214596   6.307   6.494   5.557 -1.0486 -0.0533  0.2896
 3716SOL    HW314597   6.389   6.367   5.544  1.8446  1.7696 -0.2326
 3716SOL    MW414598   6.328   6.422   5.513 -0.2213 -0.3507 -0.3016
 3717SOL     OW14599   3.336   5.125   2.654  0.0294 -1.2037  0.2420
 3717SOL    HW214600   3.387   5.204   2.638 -0.8521 -0.9455 -1.5154
 3717SOL    HW314601   3.386   5.077   2.721 -0.1965  1.5481  2.6116
 3717SOL    MW414602   3.349   5.129   2.661  0.5792 -0.2151 -0.5781
 3718SOL     OW14603   4.291   2.731   4.939  0.3531  0.1352 -0.2507
 3718SOL    HW214604   4.289   2.665   4.869 -0.3032  0.0533 -0.1574
 3718SOL    HW314605   4.302   2.814   4.893  0.7852  0.0050 -0.3933
 3718SOL    MW414606   4.293   2.733   4.924  0.3792 -0.0324  0.6370
 3719SOL     OW14607   6.046   0.882   3.303  0.0245  0.0980 -0.0976
 3719SOL    HW214608   6.111   0.922   3.361  0.1364 -0.3255  0.0763
 3719SOL    HW314609   6.075   0.905   3.215 -0.6283  1.4842  0.0239
 3719SOL    MW414610   6.059   0.890   3.299 -0.5774  0.1678  0.6023
 3720SOL     OW14611   4.231   2.729   4.509 -0.1700 -0.3005  0.0957
 3720SOL    HW214612   4.224   2.774   4.593  1.2060 -0.6846  0.4354
 3720SOL    HW314613   4.141   2.727   4.476 -0.6799  0.1914  1.3738
 3720SOL    MW414614   4.218   2.735   4.516  0.1857 -0.1453 -0.1927
 3721SOL     OW14615   6.006   2.148   0.515  0.5974  0.2805 -0.2316
 3721SOL    HW214616   5.983   2.067   0.559  2.6161 -1.7867 -2.6555
 3721SOL    HW314617   6.053   2.199   0.582 -0.3814 -0.6467  1.2257
 3721SOL    MW414618   6.009   2.144   0.530 -0.0615  0.3659  0.0656
 3722SOL     OW14619   2.073   5.439   4.693  0.4160  0.3095  0.0692
 3722SOL    HW214620   2.122   5.368   4.734 -0.8363 -0.8874 -0.4573
 3722SOL    HW314621   2.072   5.416   4.600  0.4617  1.3180 -0.1921
 3722SOL    MW414622   2.079   5.427   4.686  0.2543 -0.4484 -0.4516
 3723SOL     OW14623   0.069   1.799   1.313  0.0344  0.2787 -0.3663
 3723SOL    HW214624   0.013   1.869   1.278  1.4208  0.9474 -1.3470
 3723SOL    HW314625   0.147   1.845   1.344  0.3394 -0.7020  0.3450
 3723SOL    MW414626   0.072   1.814   1.313 -0.4105 -0.2660 -0.0499
 3724SOL     OW14627   3.089   1.637   4.813 -0.3654 -0.6045 -0.3781
 3724SOL    HW214628   2.996   1.659   4.816 -0.1129  0.4616  0.1561
 3724SOL    HW314629   3.118   1.643   4.904  0.2356 -0.8458 -0.5539
 3724SOL    MW414630   3.080   1.641   4.825 -0.2670 -0.4001  0.3107
 3725SOL     OW14631   0.097   0.790   5.094 -0.2206  0.5537 -0.3431
 3725SOL    HW214632   0.150   0.808   5.016 -0.7391  2.4148 -0.3213
 3725SOL    HW314633   0.027   0.733   5.062  0.1269  0.4980 -1.0267
 3725SOL    MW414634   0.094   0.785   5.079  0.0765  0.1920  0.1649
 3726SOL     OW14635   3.351   1.875   3.666 -0.2820  0.1037  0.0030
 3726SOL    HW214636   3.325   1.956   3.622  0.9062  0.8411  0.6115
 3726SOL    HW314637   3.279   1.857   3.727 -1.6736 -0.6080 -1.7477
 3726SOL    MW414638   3.338   1.884   3.668  0.4611  0.2891 -0.3372
 3727SOL     OW14639   2.011   3.423   3.667  0.4994  0.3469 -0.2722
 3727SOL    HW214640   1.971   3.463   3.589 -0.5136  1.1174  0.6107
 3727SOL    HW314641   2.014   3.329   3.647 -1.9111  0.2214 -0.3574
 3727SOL    MW414642   2.006   3.416   3.654 -0.0996 -0.3022  0.0436
 3728SOL     OW14643   0.638   0.518   6.221 -0.2446  0.1034  0.0090
 3728SOL    HW214644   0.614   0.443   6.276 -0.0374 -0.1241 -0.2042
 3728SOL    HW314645   0.617   0.489   6.132 -1.3145  0.7561  0.0264
 3728SOL    MW414646   0.632   0.504   6.216 -0.5308 -0.0042 -0.0524
 3729SOL     OW14647   2.542   4.064   4.552 -0.1926  0.1735  0.4335
 3729SOL    HW214648   2.551   4.089   4.645  2.3786 -0.2417  0.3906
 3729SOL    HW314649   2.543   4.147   4.505  0.2388  0.3305  0.7086
 3729SOL    MW414650   2.544   4.078   4.558 -0.5472  0.3470 -0.1789
 3730SOL     OW14651   1.341   4.392   1.110 -0.0169  0.7322 -0.1380
 3730SOL    HW214652   1.298   4.387   1.195  0.3117 -1.1047 -0.0409
 3730SOL    HW314653   1.433   4.371   1.128 -0.4073 -2.3750 -1.2221
 3730SOL    MW414654   1.348   4.389   1.123 -0.4126  0.3403  0.2752
 3731SOL     OW14655   5.139   6.218   2.916 -0.6608  0.3561  0.4550
 3731SOL    HW214656   5.120   6.304   2.954 -0.4189 -0.3562  2.2631
 3731SOL    HW314657   5.100   6.155   2.977 -2.0812 -0.8378 -1.5555
 3731SOL    MW414658   5.131   6.221   2.929  0.0357  0.6168  0.3787
 3732SOL     OW14659   5.026   3.129   1.258 -0.4895 -0.3362 -0.0241
 3732SOL    HW214660   4.945   3.090   1.225  0.2423 -1.6234 -0.3826
 3732SOL    HW314661   5.001   3.168   1.342 -1.9766  1.3736 -1.1872
 3732SOL    MW414662   5.012   3.129   1.265  0.1285  0.1833  0.5397
 3733SOL     OW14663   3.304   3.529   4.643  0.9985  0.0119 -0.1495
 3733SOL    HW214664   3.258   3.519   4.726  0.4232  0.4963 -0.4052
 3733SOL    HW314665   3.291   3.445   4.598  2.1147 -0.6055  0.6310
 3733SOL    MW414666   3.296   3.517   4.648 -0.7916 -0.0016 -0.1390
 3734SOL     OW14667   4.662   0.617   3.328  0.5085 -0.5650  0.2416
 3734SOL    HW214668   4.682   0.666   3.408  2.1574 -1.4101  0.3947
 3734SOL    HW314669   4.628   0.533   3.358  1.7960 -1.1594  0.1118
 3734SOL    MW414670   4.660   0.612   3.342  0.2202 -0.1118  0.3160
 3735SOL     OW14671   0.775   2.609   1.216  0.4165 -0.0381 -0.1639
 3735SOL    HW214672   0.692   2.589   1.260  0.0463  1.7468  0.0000
 3735SOL    HW314673   0.841   2.596   1.283  0.2504 -1.0587 -0.1760
 3735SOL    MW414674   0.772   2.604   1.230  0.3586  0.0777 -0.2931
 3736SOL     OW14675   5.733   3.417   1.049 -0.0748 -0.0865 -0.0021
 3736SOL    HW214676   5.823   3.407   1.077 -0.3506 -0.7950  0.6507
 3736SOL    HW314677   5.689   3.336   1.074 -1.2865  0.9032  1.2565
 3736SOL    MW414678   5.739   3.405   1.056  0.2375  0.4054  0.2988
 3737SOL     OW14679   6.178   2.240   2.061  0.4332 -0.0447 -0.4160
 3737SOL    HW214680   6.123   2.161   2.063  0.3101  0.0072 -1.2585
 3737SOL    HW314681   6.225   2.238   2.144 -1.9662  0.7353  1.0792
 3737SOL    MW414682   6.177   2.229   2.072 -0.1442 -0.4436  0.3980
 3738SOL     OW14683   2.283   4.430   5.964  0.2750 -0.3507  0.0026
 3738SOL    HW214684   2.355   4.483   5.997  0.6128 -0.1433 -1.0371
 3738SOL    HW314685   2.226   4.491   5.919 -2.1391  0.0079  3.2259
 3738SOL    MW414686   2.285   4.445   5.963  0.2514  0.6120  0.4892
 3739SOL     OW14687   4.717   4.043   0.987  0.2427 -0.0112  0.0711
 3739SOL    HW214688   4.812   4.054   0.984  0.0305  1.9577 -1.3276
 3739SOL    HW314689   4.683   4.105   0.923 -2.1226  0.9545  2.0715
 3739SOL    MW414690   4.725   4.053   0.978 -0.2532 -0.6311  0.3370
 3740SOL     OW14691   5.752   6.213   2.980 -0.4858 -0.3118  0.1043
 3740SOL    HW214692   5.828   6.268   2.963  0.0819 -1.8947 -3.1742
 3740SOL    HW314693   5.683   6.275   3.006  1.2847  1.3712  1.0952
 3740SOL    MW414694   5.753   6.229   2.981 -0.4608 -0.2916  0.0295
 3741SOL     OW14695   4.571   0.467   3.074  0.1654 -0.0393 -0.0836
 3741SOL    HW214696   4.590   0.390   3.129  0.2886  0.4291  0.5366
 3741SOL    HW314697   4.635   0.463   3.004 -0.8121 -1.3730 -0.9518
 3741SOL    MW414698   4.582   0.456   3.072 -0.4492 -0.0222  0.6029
 3742SOL     OW14699   4.581   0.728   1.416  0.3903 -0.1549 -0.4155
 3742SOL    HW214700   4.618   0.640   1.424  1.5846  0.3493 -0.2440
 3742SOL    HW314701   4.488   0.713   1.397  0.6744 -1.4521 -0.8913
 3742SOL    MW414702   4.573   0.715   1.414 -0.1423  0.2516  0.5166
 3743SOL     OW14703   5.557   5.750   1.012  0.2711 -0.4839  0.2051
 3743SOL    HW214704   5.546   5.831   0.964 -1.6090 -1.5207 -1.2430
 3743SOL    HW314705   5.648   5.752   1.043  1.6189  0.3042 -3.3412
 3743SOL    MW414706   5.567   5.761   1.010 -0.7376  0.0961  0.0408
 3744SOL     OW14707   1.171   5.076   2.497 -0.7014  0.5919 -0.7863
 3744SOL    HW214708   1.193   5.144   2.433 -1.6324  0.7338 -0.9678
 3744SOL    HW314709   1.217   4.998   2.467  0.7916  1.2420 -0.3040
 3744SOL    MW414710   1.180   5.075   2.485 -0.3242  0.0297  0.3253
 3745SOL     OW14711   5.417   1.162   1.951  0.8558 -0.0839 -0.2479
 3745SOL    HW214712   5.402   1.169   1.857 -0.4623 -0.1597 -0.0550
 3745SOL    HW314713   5.383   1.075   1.974 -0.8532  0.7663  0.6413
 3745SOL    MW414714   5.411   1.152   1.942  0.2885 -0.7317 -0.5479
 3746SOL     OW14715   2.343   2.128   5.748 -0.3050  0.0401 -0.2062
 3746SOL    HW214716   2.362   2.046   5.795  0.7043  0.2193 -0.2841
 3746SOL    HW314717   2.259   2.156   5.783  0.6406  0.4392  1.9012
 3746SOL    MW414718   2.335   2.121   5.759  0.1121 -0.6599  0.3104
 3747SOL     OW14719   5.305   1.147   1.397 -0.4335  0.1604 -0.2962
 3747SOL    HW214720   5.326   1.055   1.381 -0.4542  0.1366 -0.1933
 3747SOL    HW314721   5.371   1.196   1.348  0.0468  0.0840  0.2592
 3747SOL    MW414722   5.316   1.141   1.389  0.4573 -0.1263 -0.1002
 3748SOL     OW14723   6.164   0.670   6.213 -0.1781 -0.6774 -0.3532
 3748SOL    HW214724   6.157   0.575   6.224 -2.0493 -0.5541 -0.2151
 3748SOL    HW314725   6.074   0.700   6.203  0.3516  1.1327 -0.0517
 3748SOL    MW414726   6.151   0.662   6.213 -0.1965  0.1398  0.0514
 3749SOL     OW14727   2.204   2.589   1.647  0.5190  0.8918  0.5074
 3749SOL    HW214728   2.250   2.555   1.723 -0.1726 -1.6657 -0.1349
 3749SOL    HW314729   2.140   2.522   1.624 -1.4076  2.9093 -0.5364
 3749SOL    MW414730   2.201   2.576   1.654 -0.1574  0.2453 -0.2504
 3750SOL     OW14731   0.459   5.886   2.783 -0.3578  0.3640 -0.2578
 3750SOL    HW214732   0.423   5.956   2.728 -0.8637 -0.3713 -0.8942
 3750SOL    HW314733   0.441   5.806   2.733  1.1129 -0.1341 -0.0111
 3750SOL    MW414734   0.452   5.885   2.769 -0.0874 -1.0722 -0.2115
 3751SOL     OW14735   2.677   4.401   4.805  0.1710 -0.0205 -0.2661
 3751SOL    HW214736   2.718   4.322   4.840  1.0823  0.8487  0.6670
 3751SOL    HW314737   2.625   4.435   4.878  0.1550  0.4977 -0.5201
 3751SOL    MW414738   2.675   4.395   4.819 -0.2705  0.7917 -0.1021
 3752SOL     OW14739   5.994   5.206   5.176  0.0153 -0.1710 -0.3819
 3752SOL    HW214740   6.030   5.131   5.222 -0.0151  1.3042  2.2619
 3752SOL    HW314741   5.903   5.182   5.157 -0.0926 -0.6897  0.7327
 3752SOL    MW414742   5.986   5.193   5.179  0.2526  0.2483  0.2773
 3753SOL     OW14743   5.958   1.806   3.957  0.6212 -1.1456  0.7807
 3753SOL    HW214744   5.996   1.881   3.911  0.5161 -0.7149  1.3721
 3753SOL    HW314745   6.021   1.788   4.027  1.9631 -3.2567 -0.8468
 3753SOL    MW414746   5.972   1.813   3.960 -0.0214  1.2463  0.0711
 3754SOL     OW14747   5.335   5.931   6.046  0.1644 -0.1138 -0.5793
 3754SOL    HW214748   5.297   5.843   6.039  1.9153 -0.8622 -1.2461
 3754SOL    HW314749   5.359   5.940   6.138 -0.2918 -0.1899 -0.4463
 3754SOL    MW414750   5.333   5.920   6.057 -0.4036 -0.4399  0.2196
 3755SOL     OW14751   1.887   2.783   4.413 -0.2282 -0.6705  0.1088
 3755SOL    HW214752   1.891   2.795   4.508  0.4754  1.4651 -0.1437
 3755SOL    HW314753   1.803   2.822   4.388  0.3550  0.3381 -0.3208
 3755SOL    MW414754   1.876   2.789   4.422 -0.0679  0.3745  0.1414
 3756SOL     OW14755   0.343   6.190   3.200 -0.5730  0.3687 -0.2028
 3756SOL    HW214756   0.249   6.206   3.203 -0.6775 -0.2919  2.9011
 3756SOL    HW314757   0.382   6.277   3.196 -1.2908  0.7101  0.1400
 3756SOL    MW414758   0.336   6.203   3.200 -0.1345 -0.6203 -0.3080
 3757SOL     OW14759   3.690   1.013   2.514 -0.0245  0.2111  0.4660
 3757SOL    HW214760   3.694   1.048   2.425  1.6020  0.9057  0.7818
 3757SOL    HW314761   3.609   1.050   2.551 -0.0128  1.0065 -0.2828
 3757SOL    MW414762   3.680   1.023   2.507  0.7008 -0.2363  0.3009
 3758SOL     OW14763   5.274   2.425   0.426  0.8129 -0.3980  0.2241
 3758SOL    HW214764   5.282   2.334   0.399  0.8697 -0.5508  0.7392
 3758SOL    HW314765   5.210   2.424   0.497 -0.6958  0.2466 -1.0699
 3758SOL    MW414766   5.267   2.413   0.432  0.1388  0.1954  0.0643
 3759SOL     OW14767   5.299   2.874   4.213 -0.1560  0.2092 -0.0343
 3759SOL    HW214768   5.394   2.884   4.204 -0.3527  1.7963 -0.7562
 3759SOL    HW314769   5.283   2.885   4.307  0.4335 -0.8156  0.1980
 3759SOL    MW414770   5.309   2.877   4.224 -0.0582 -0.0155  0.0288
 3760SOL     OW14771   6.303   3.739   2.134 -0.0766  0.0561 -0.6086
 3760SOL    HW214772   6.244   3.704   2.067  0.3831 -1.8622 -0.0569
 3760SOL    HW314773   6.245   3.763   2.206 -0.3621  0.1150 -0.8501
 3760SOL    MW414774   6.287   3.738   2.134  0.5504 -0.0980  0.7036
 3761SOL     OW14775   0.503   4.294   1.626 -0.5092  0.4934 -0.0646
 3761SOL    HW214776   0.448   4.354   1.576 -1.9974 -1.5355 -0.9850
 3761SOL    HW314777   0.588   4.298   1.582 -0.9692  0.9185 -0.9502
 3761SOL    MW414778   0.507   4.302   1.614  0.3755 -0.4531  0.3894
 3762SOL     OW14779   4.250   2.607   6.047 -0.2175  0.9175 -0.4108
 3762SOL    HW214780   4.329   2.661   6.049  0.0573  0.5869  2.2625
 3762SOL    HW314781   4.284   2.517   6.038 -0.0228  0.6070  2.3286
 3762SOL    MW414782   4.265   2.602   6.046  0.2509  0.1334 -0.4009
 3763SOL     OW14783   1.730   4.138   4.541 -0.1181 -0.0033  0.3480
 3763SOL    HW214784   1.746   4.057   4.493 -1.6488  0.0790 -0.3645
 3763SOL    HW314785   1.764   4.121   4.629  1.2253 -0.7489 -0.2833
 3763SOL    MW414786   1.737   4.125   4.547 -0.4037  0.1015  0.1561
 3764SOL     OW14787   1.630   1.702   2.779 -0.9170 -0.1756 -0.0235
 3764SOL    HW214788   1.625   1.611   2.750 -1.8777 -0.2749  0.4313
 3764SOL    HW314789   1.674   1.697   2.864 -1.4299 -0.2780  0.2408
 3764SOL    MW414790   1.635   1.689   2.787  0.2503  0.0885 -0.4082
 3765SOL     OW14791   2.228   0.800   3.152  0.9873  0.2030 -0.2235
 3765SOL    HW214792   2.168   0.792   3.078 -0.0294  2.3309  0.2635
 3765SOL    HW314793   2.173   0.781   3.229  1.0812  1.4136  0.1727
 3765SOL    MW414794   2.213   0.797   3.152  0.0841  0.1674  0.2566
 3766SOL     OW14795   4.751   5.236   3.253  0.1500  0.4526  0.1572
 3766SOL    HW214796   4.770   5.301   3.185 -0.8536  1.0532  0.4349
 3766SOL    HW314797   4.812   5.256   3.323  0.1523  0.8143  0.0562
 3766SOL    MW414798   4.761   5.247   3.253  0.5585  0.1728 -0.0503
 3767SOL     OW14799   6.352   5.088   2.464  0.0931 -0.2978  0.0772
 3767SOL    HW214800   6.408   5.022   2.503  0.1469 -0.5779 -0.4699
 3767SOL    HW314801   6.344   5.063   2.372  1.5200  1.3896 -0.5708
 3767SOL    MW414802   6.358   5.076   2.457  0.1696 -0.5339 -0.4047
 3768SOL     OW14803   1.335   2.050   2.049 -0.4616 -0.0029  0.1018
 3768SOL    HW214804   1.411   1.992   2.057  0.4464  1.3335  1.5280
 3768SOL    HW314805   1.370   2.132   2.016 -1.3428  0.5608  0.5286
 3768SOL    MW414806   1.349   2.053   2.046  0.5354  0.5822  0.0278
 3769SOL     OW14807   3.427   4.324   2.752 -0.1235 -0.5820 -0.2285
 3769SOL    HW214808   3.471   4.388   2.808 -1.2105 -1.3050  1.5626
 3769SOL    HW314809   3.429   4.362   2.665 -1.3275  2.2566  0.8710
 3769SOL    MW414810   3.433   4.337   2.748  0.5805  0.0065  0.5206
 3770SOL     OW14811   1.636   4.152   6.154 -0.3631 -0.8492 -0.8571
 3770SOL    HW214812   1.728   4.147   6.130  0.3275  0.1793  1.2847
 3770SOL    HW314813   1.613   4.244   6.139 -0.3234 -0.5358  0.7995
 3770SOL    MW414814   1.645   4.164   6.149 -0.5742  0.1476  0.0060
 3771SOL     OW14815   1.280   3.569   5.054  0.0833 -0.5739  0.1041
 3771SOL    HW214816   1.285   3.644   5.113 -1.9923  0.2142 -0.6295
 3771SOL    HW314817   1.316   3.497   5.104  2.0357  0.8653  0.8785
 3771SOL    MW414818   1.285   3.570   5.068 -0.9733 -0.3973  0.5266
 3772SOL     OW14819   2.566   5.634   6.344 -0.1215  0.0375 -0.7799
 3772SOL    HW214820   2.649   5.664   6.381 -0.3870 -0.6828  0.4481
 3772SOL    HW314821   2.505   5.636   6.418 -1.6253  1.9848 -1.9461
 3772SOL    MW414822   2.569   5.638   6.359  0.2204 -0.5170 -0.3637
 3773SOL     OW14823   3.853   1.425   2.073  0.2061 -0.3234  0.6412
 3773SOL    HW214824   3.945   1.413   2.048  0.3676 -0.8844  1.4817
 3773SOL    HW314825   3.834   1.352   2.131 -0.5484  0.2292  1.1026
 3773SOL    MW414826   3.863   1.414   2.077 -0.1897  0.4016  1.0016
 3774SOL     OW14827   0.981   1.635   0.102  0.2738  0.4035  0.1820
 3774SOL    HW214828   0.953   1.629   0.194  0.5336  1.4678  0.3499
 3774SOL    HW314829   0.899   1.632   0.052  0.2169 -1.9217  0.3032
 3774SOL    MW414830   0.966   1.634   0.108 -0.1573 -0.1638  0.0358
 3775SOL     OW14831   1.477   1.593   1.907  0.3893  0.0325 -0.0156
 3775SOL    HW214832   1.438   1.564   1.990  0.7842  0.5938  0.3748
 3775SOL    HW314833   1.408   1.643   1.864  0.7909  1.4321  0.8902
 3775SOL    MW414834   1.463   1.595   1.913  0.3369 -0.2503 -0.2136
 3776SOL     OW14835   2.636   5.686   3.254 -0.2314  0.1610  0.3183
 3776SOL    HW214836   2.625   5.618   3.320 -1.8746 -0.4537 -0.5378
 3776SOL    HW314837   2.601   5.765   3.296  1.9577  0.6342  1.4255
 3776SOL    MW414838   2.630   5.688   3.268  0.3358 -0.0096  1.0236
 3777SOL     OW14839   2.821   3.426   0.808 -0.1300  0.6599  0.4639
 3777SOL    HW214840   2.799   3.513   0.777 -0.2367  0.2878 -0.5538
 3777SOL    HW314841   2.760   3.368   0.762  2.8828 -0.4382 -2.5591
 3777SOL    MW414842   2.810   3.430   0.798 -0.8444  0.4664  0.6455
 3778SOL     OW14843   0.673   6.252   0.160  0.0331  0.0531  0.7087
 3778SOL    HW214844   0.693   6.346   0.161 -1.0242  0.3028  0.1824
 3778SOL    HW314845   0.695   6.225   0.071  0.0558 -0.1247  0.7698
 3778SOL    MW414846   0.678   6.261   0.148 -0.5765 -0.0292 -0.6202
 3779SOL     OW14847   4.702   2.093   2.132  0.0727 -0.2105  0.2990
 3779SOL    HW214848   4.704   2.032   2.059  2.0387 -0.6631  0.6781
 3779SOL    HW314849   4.718   2.039   2.210  0.1067  0.5407  0.8312
 3779SOL    MW414850   4.704   2.078   2.133  0.1831 -0.5150 -0.4789
 3780SOL     OW14851   1.094   3.953   1.269 -0.0162 -0.1828 -0.4039
 3780SOL    HW214852   1.040   4.031   1.283 -3.0250 -2.0939 -0.3137
 3780SOL    HW314853   1.071   3.895   1.342 -0.6746 -2.4791 -2.2937
 3780SOL    MW414854   1.084   3.956   1.281  0.1306 -0.3926 -0.0609
 3781SOL     OW14855   3.254   5.446   2.778 -0.4991 -0.7188  0.1676
 3781SOL    HW214856   3.172   5.398   2.766 -0.5410 -1.0754  1.5904
 3781SOL    HW314857   3.305   5.428   2.699 -1.8981 -0.2433 -0.8766
 3781SOL    MW414858   3.250   5.437   2.766  0.0343 -0.2797 -0.2120
 3782SOL     OW14859   2.597   5.900   3.886 -0.0505  0.1007 -0.0919
 3782SOL    HW214860   2.662   5.842   3.846 -1.1453 -2.7785  1.8814
 3782SOL    HW314861   2.647   5.953   3.948  0.7968  0.0159 -0.6905
 3782SOL    MW414862   2.612   5.899   3.889 -0.5980 -0.4285 -0.1217
 3783SOL     OW14863   2.880   0.127   2.649 -0.4868  0.1797  0.0386
 3783SOL    HW214864   2.811   0.187   2.677 -1.3185 -0.8986  0.3970
 3783SOL    HW314865   2.927   0.174   2.581 -0.8326  1.3969  0.6154
 3783SOL    MW414866   2.877   0.141   2.644  0.6110 -0.4789  0.1647
 3784SOL     OW14867   3.773   5.713   1.835  0.3793  0.7568 -0.4382
 3784SOL    HW214868   3.762   5.795   1.787 -0.6193  0.7051 -0.3191
 3784SOL    HW314869   3.804   5.740   1.922  3.0603  0.7975 -1.3238
 3784SOL    MW414870   3.776   5.727   1.840  0.3275  0.0437 -0.6476
 3785SOL     OW14871   4.534   3.408   3.037  0.5789  0.2760  0.0652
 3785SOL    HW214872   4.585   3.391   3.116 -0.1341  2.9403  1.2359
 3785SOL    HW314873   4.585   3.473   2.989 -0.0224  0.3050 -0.5500
 3785SOL    MW414874   4.548   3.415   3.041 -0.7741  0.3902  0.0816
 3786SOL     OW14875   0.198   3.946   4.924  0.4004 -0.1106 -0.1514
 3786SOL    HW214876   0.154   4.030   4.923 -1.1437 -0.8595  0.6327
 3786SOL    HW314877   0.287   3.964   4.894  0.1064  1.7815  0.0366
 3786SOL    MW414878   0.204   3.959   4.920 -0.2186 -0.0211 -0.1218
 3787SOL     OW14879   2.339   0.375   4.466  0.0681 -0.0269  0.0567
 3787SOL    HW214880   2.355   0.468   4.448  0.0862 -0.2727 -1.3074
 3787SOL    HW314881   2.424   0.334   4.457 -0.2933 -0.4924 -1.6284
 3787SOL    MW414882   2.352   0.382   4.463 -0.5453 -0.3783  0.2913
 3788SOL     OW14883   1.677   2.382   0.063 -0.0909  0.0062  0.2031
 3788SOL    HW214884   1.650   2.290   0.069  0.1014 -0.0774 -0.1728
 3788SOL    HW314885   1.618   2.428   0.122 -0.8299 -0.2221 -0.3387
 3788SOL    MW414886   1.666   2.376   0.071  0.1720  0.5523  0.5057
 3789SOL     OW14887   5.846   0.113   0.523 -0.0869 -0.0716  0.2297
 3789SOL    HW214888   5.865   0.019   0.523 -0.1633 -0.1166 -1.3678
 3789SOL    HW314889   5.913   0.151   0.580  1.5321 -0.8433 -1.0347
 3789SOL    MW414890   5.858   0.106   0.530 -0.4070  0.1466  0.3778
 3790SOL     OW14891   6.383   4.038   5.418 -0.2918  0.0362 -0.2694
 3790SOL    HW214892   6.346   4.028   5.330 -0.9328 -0.4800  0.0526
 3790SOL    HW314893   6.307   4.047   5.475  0.0216 -1.7683  0.5045
 3790SOL    MW414894   6.368   4.038   5.414  0.0990  0.5558  0.3831
 3791SOL     OW14895   0.146   2.169   0.088  0.0099 -0.0963  0.3464
 3791SOL    HW214896   0.213   2.228   0.123  0.7740 -0.1770 -0.9235
 3791SOL    HW314897   0.196   2.098   0.047 -0.8781 -0.8095  0.4638
 3791SOL    MW414898   0.161   2.167   0.087  0.0729  0.1757 -0.5953
 3792SOL     OW14899   1.976   5.941   3.629 -0.0775  0.2412  0.1806
 3792SOL    HW214900   1.938   6.028   3.633 -2.1318 -0.6437  1.1322
 3792SOL    HW314901   2.023   5.931   3.712  0.3747  0.5229 -0.0392
 3792SOL    MW414902   1.977   5.951   3.641 -0.1164  0.3123 -0.6551
 3793SOL     OW14903   3.671   3.276   4.786  0.3270 -0.0728 -0.4506
 3793SOL    HW214904   3.757   3.316   4.802 -0.2539  1.5433 -1.1397
 3793SOL    HW314905   3.627   3.279   4.871 -0.2025  2.1000 -0.7426
 3793SOL    MW414906   3.676   3.282   4.799  0.0510  0.1115  0.0932
 3794SOL     OW14907   5.659   1.132   4.140  0.0771 -0.3554  0.1950
 3794SOL    HW214908   5.603   1.080   4.198 -0.6855  0.0951 -0.1156
 3794SOL    HW314909   5.618   1.124   4.054  0.2599  0.3087  0.0386
 3794SOL    MW414910   5.646   1.124   4.137  0.8664 -0.1410 -0.3835
 3795SOL     OW14911   4.177   5.384   4.880 -0.1011 -0.1319 -0.0676
 3795SOL    HW214912   4.198   5.343   4.796  1.0873 -1.1528  0.7028
 3795SOL    HW314913   4.195   5.477   4.865 -0.1496 -0.2600 -1.0177
 3795SOL    MW414914   4.182   5.391   4.867 -0.3628  0.7180  0.7387
 3796SOL     OW14915   5.820   5.591   1.452 -0.9287 -0.3190 -0.0959
 3796SOL    HW214916   5.803   5.535   1.377 -2.0445 -0.7498  0.4468
 3796SOL    HW314917   5.915   5.598   1.457 -0.8325  0.4514 -2.0684
 3796SOL    MW414918   5.830   5.585   1.443 -0.6659 -0.1031  0.4264
 3797SOL     OW14919   2.778   5.179   4.772  0.0100  0.5091  0.0061
 3797SOL    HW214920   2.690   5.198   4.738  0.2171 -0.6538 -1.2525
 3797SOL    HW314921   2.787   5.236   4.848 -1.4226  1.4355 -0.4815
 3797SOL    MW414922   2.768   5.189   4.777  0.3976 -0.5924 -0.8812
 3798SOL     OW14923   3.433   1.156   6.242 -0.2085  0.3829  0.3183
 3798SOL    HW214924   3.469   1.092   6.304 -0.3867  1.3386  1.4463
 3798SOL    HW314925   3.355   1.190   6.286 -2.1033 -1.0261 -1.6826
 3798SOL    MW414926   3.427   1.152   6.256  0.0009  0.0490 -0.5855
 3799SOL     OW14927   2.409   0.142   3.410 -0.1426 -0.1295 -0.7562
 3799SOL    HW214928   2.409   0.237   3.422  1.1144 -0.1276 -0.6107
 3799SOL    HW314929   2.495   0.123   3.373 -0.1475 -1.2859 -0.2039
 3799SOL    MW414930   2.420   0.152   3.407 -0.2897 -0.6691  0.0588
 3800SOL     OW14931   5.993   5.562   1.116 -0.0774  0.1300  0.1151
 3800SOL    HW214932   5.991   5.476   1.159  0.0294 -1.0549 -2.0745
 3800SOL    HW314933   6.064   5.555   1.052 -0.5657  1.5716 -0.6317
 3800SOL    MW414934   6.002   5.550   1.113 -0.1048  0.5292 -0.0749
 3801SOL     OW14935   0.620   5.771   4.851 -0.4880  0.1433 -0.1026
 3801SOL    HW214936   0.581   5.700   4.902  2.1777 -0.7234  0.9366
 3801SOL    HW314937   0.658   5.829   4.916  1.3944  0.0040 -0.9954
 3801SOL    MW414938   0.620   5.769   4.866  0.0681  0.4110  0.5270
 3802SOL     OW14939   5.454   3.785   2.756 -0.0675 -0.5545  0.4787
 3802SOL    HW214940   5.464   3.694   2.784  1.0136 -0.8238 -0.6972
 3802SOL    HW314941   5.445   3.834   2.838  2.6505 -1.3388  1.3714
 3802SOL    MW414942   5.455   3.779   2.771 -0.4346 -0.5483  0.3205
 3803SOL     OW14943   4.121   4.653   5.802  0.1217 -0.2184  0.0759
 3803SOL    HW214944   4.112   4.677   5.710  0.3582 -0.5306 -0.0321
 3803SOL    HW314945   4.044   4.689   5.844 -0.4754 -0.8817 -0.4195
 3803SOL    MW414946   4.110   4.661   5.795 -1.1876 -0.2493 -0.1924
 3804SOL     OW14947   4.500   1.160   5.188  0.0957 -0.5691 -0.2714
 3804SOL    HW214948   4.435   1.099   5.152  1.5998 -2.2929 -0.2240
 3804SOL    HW314949   4.583   1.128   5.153  1.4232 -1.0939  3.0682
 3804SOL    MW414950   4.502   1.148   5.178  0.5917  0.1271 -0.0710
 3805SOL     OW14951   3.622   2.141   3.545 -1.0116 -0.2087  0.0638
 3805SOL    HW214952   3.627   2.050   3.576 -1.2064 -0.1414  0.2996
 3805SOL    HW314953   3.598   2.134   3.453  1.3644 -0.4778 -0.6011
 3805SOL    MW414954   3.619   2.128   3.537  0.3899 -0.9339  0.0461
 3806SOL     OW14955   2.512   3.799   4.908 -0.2483 -0.0182 -0.1071
 3806SOL    HW214956   2.419   3.818   4.917 -0.4033 -0.5367 -0.5681
 3806SOL    HW314957   2.515   3.712   4.869  0.4390 -0.6572  1.3007
 3806SOL    MW414958   2.500   3.790   4.904 -0.1046 -0.1155 -0.0976
 3807SOL     OW14959   2.908   6.369   1.008 -0.8062 -0.2641 -0.3199
 3807SOL    HW214960   2.854   6.291   1.011 -0.1974 -0.6660  2.2573
 3807SOL    HW314961   2.994   6.338   0.981 -0.8927 -0.2484 -0.6194
 3807SOL    MW414962   2.912   6.355   1.005 -0.1917 -0.1087  0.2854
 3808SOL     OW14963   0.832   1.154   2.940 -0.0766  0.7624  0.0032
 3808SOL    HW214964   0.754   1.138   2.886  0.1024 -2.8137  0.5136
 3808SOL    HW314965   0.798   1.156   3.030  0.2626  0.2927  0.1481
 3808SOL    MW414966   0.817   1.152   2.945  0.2561 -0.1528  0.3897
 3809SOL     OW14967   0.749   5.148   2.296  0.1659  0.1755  0.5604
 3809SOL    HW214968   0.788   5.088   2.360 -0.5884 -0.4891  0.4285
 3809SOL    HW314969   0.810   5.221   2.290  1.0155 -0.4909  0.8812
 3809SOL    MW414970   0.762   5.150   2.304  0.0982 -0.5878  0.0911
 3810SOL     OW14971   4.671   0.375   0.947 -0.3212 -0.1310 -0.7121
 3810SOL    HW214972   4.665   0.296   1.001 -0.4572 -0.8954 -1.8310
 3810SOL    HW314973   4.765   0.397   0.947 -0.5596  1.3451  1.8498
 3810SOL    MW414974   4.683   0.367   0.954  0.3946 -0.5546  0.4092
 3811SOL     OW14975   4.281   2.195   1.659 -0.1866  0.0520 -0.6013
 3811SOL    HW214976   4.282   2.109   1.701 -2.1682  0.4554  0.3831
 3811SOL    HW314977   4.192   2.204   1.624  0.2448  1.3614 -1.4535
 3811SOL    MW414978   4.269   2.185   1.660 -0.1873 -0.2477  0.2199
 3812SOL     OW14979   2.094   5.365   2.829  0.0819  0.2293  0.9210
 3812SOL    HW214980   2.124   5.413   2.905  0.1011 -0.2849  1.2421
 3812SOL    HW314981   2.150   5.395   2.757 -0.6382  1.5072  0.8697
 3812SOL    MW414982   2.105   5.375   2.829 -0.8044  0.0640  0.2494
 3813SOL     OW14983   2.349   5.201   2.384  0.5842  0.0831 -0.4439
 3813SOL    HW214984   2.301   5.268   2.432  1.0964 -0.5241  0.9689
 3813SOL    HW314985   2.441   5.217   2.403  0.7945 -0.3145 -1.0497
 3813SOL    MW414986   2.355   5.212   2.393 -0.0141 -0.2398  0.2877
 3814SOL     OW14987   5.487   5.266   4.750  0.2075 -0.3018 -0.2184
 3814SOL    HW214988   5.440   5.196   4.796  0.2830  0.0338  0.3882
 3814SOL    HW314989   5.550   5.299   4.814  2.8294 -2.1610 -1.6814
 3814SOL    MW414990   5.489   5.261   4.765  0.2733 -0.1647  0.0265
 3815SOL     OW14991   5.851   2.084   4.299  0.2637  0.3621 -0.5403
 3815SOL    HW214992   5.822   2.061   4.211  0.2272 -1.7855 -0.0304
 3815SOL    HW314993   5.907   2.011   4.326  0.1428  0.8812  1.2661
 3815SOL    MW414994   5.854   2.071   4.291 -0.5595  0.4281  0.2494
 3816SOL     OW14995   3.347   1.005   1.234  0.7369  0.4581  0.1514
 3816SOL    HW214996   3.316   0.927   1.187  1.1764 -0.6500  1.6054
 3816SOL    HW314997   3.346   1.075   1.169  0.8614 -0.8887 -1.3565
 3816SOL    MW414998   3.343   1.004   1.219  0.5113  0.0318  0.0527
 3817SOL     OW14999   5.916   1.335   2.584 -0.1454  0.1913  0.0149
 3817SOL    HW215000   5.852   1.312   2.651 -0.1283  0.5651  0.1606
 3817SOL    HW315001   5.887   1.288   2.505  0.4463 -1.1379  0.5555
 3817SOL    MW415002   5.904   1.326   2.582 -0.5010  1.3302 -0.0503
 3818SOL     OW15003   1.874   2.374   5.055 -0.0915 -0.3475 -0.0368
 3818SOL    HW215004   1.947   2.372   4.992  0.0654 -0.9750  0.1654
 3818SOL    HW315005   1.894   2.449   5.112  1.6258 -1.8552  1.4724
 3818SOL    MW415006   1.886   2.384   5.054  0.3066 -0.2538  0.2457
 3819SOL     OW15007   0.754   6.196   6.319  0.2465 -0.5260  0.3799
 3819SOL    HW215008   0.845   6.214   6.296 -0.0191  1.9264  0.9172
 3819SOL    HW315009   0.750   6.101   6.329  2.6128 -0.7527 -0.1350
 3819SOL    MW415010   0.765   6.186   6.317 -0.2120 -0.1183  0.8459
 3820SOL     OW15011   5.615   1.863   4.887 -0.2401 -0.1386 -0.0499
 3820SOL    HW215012   5.641   1.955   4.879 -1.3820  0.3058  1.1475
 3820SOL    HW315013   5.549   1.850   4.819 -0.4297  0.0566  0.0982
 3820SOL    MW415014   5.610   1.873   4.877 -0.2466 -0.1839  0.2788
 3821SOL     OW15015   2.521   1.669   6.037 -0.6782 -0.7205  0.0181
 3821SOL    HW215016   2.500   1.755   5.998 -1.7566 -0.9918 -0.0393
 3821SOL    HW315017   2.525   1.610   5.962 -0.2580 -0.7841  0.0901
 3821SOL    MW415018   2.519   1.673   6.022  0.4592 -0.0375 -0.0386
 3822SOL     OW15019   1.407   5.944   1.148 -0.0058 -0.4224 -0.0701
 3822SOL    HW215020   1.329   5.900   1.115 -0.1136  0.8991 -1.6891
 3822SOL    HW315021   1.466   5.872   1.173 -1.2789 -1.4392  0.1203
 3822SOL    MW415022   1.405   5.928   1.147  0.3161 -0.5618  0.3004
 3823SOL     OW15023   2.248   1.947   3.003  0.0480 -0.3292 -0.6224
 3823SOL    HW215024   2.235   1.959   2.909 -2.1235  0.7387 -0.2456
 3823SOL    HW315025   2.163   1.916   3.035  0.7383 -0.6346  0.9934
 3823SOL    MW415026   2.235   1.945   2.995  0.2285  0.7760  0.1652
 3824SOL     OW15027   0.603   4.832   5.637 -0.1190  0.0425 -0.3118
 3824SOL    HW215028   0.525   4.881   5.611 -1.5731 -1.1768  1.5361
 3824SOL    HW315029   0.615   4.851   5.730  0.3352 -1.6427  0.0251
 3824SOL    MW415030   0.594   4.841   5.646 -0.0830 -0.0466 -0.0659
 3825SOL     OW15031   5.281   4.504   3.065  0.2393  0.1703  0.0340
 3825SOL    HW215032   5.200   4.468   3.027 -0.5571  1.1689  0.7210
 3825SOL    HW315033   5.337   4.522   2.990 -0.7321  0.7399 -0.5748
 3825SOL    MW415034   5.277   4.502   3.050 -0.9906  0.0190  0.1844
 3826SOL     OW15035   2.914   1.799   5.154  0.0407 -0.3920  0.0937
 3826SOL    HW215036   2.832   1.846   5.167  0.4097  0.8103 -1.4980
 3826SOL    HW315037   2.971   1.828   5.225  0.0877  1.2330 -0.5714
 3826SOL    MW415038   2.911   1.809   5.165  1.2264  0.2461  0.7922
 3827SOL     OW15039   0.323   1.949   5.744  0.0465 -0.2791 -0.7978
 3827SOL    HW215040   0.271   1.927   5.822 -1.2493  2.5547 -0.7160
 3827SOL    HW315041   0.351   1.865   5.709 -3.6146 -1.9880 -0.1335
 3827SOL    MW415042   0.319   1.935   5.750  0.3277  0.5332 -0.6795
 3828SOL     OW15043   0.054   1.851   2.372  0.1531 -0.1778  0.1796
 3828SOL    HW215044   0.076   1.860   2.465 -1.5025 -0.6162  0.6565
 3828SOL    HW315045   0.031   1.940   2.344  0.0995 -0.1433  0.3336
 3828SOL    MW415046   0.054   1.864   2.381 -0.0778 -0.2510 -0.3062
 3829SOL     OW15047   5.670   3.707   3.845  0.0201 -0.4183 -0.0887
 3829SOL    HW215048   5.652   3.786   3.896  0.4284  1.0182 -2.0377
 3829SOL    HW315049   5.619   3.639   3.887 -0.3452  0.8791  1.6762
 3829SOL    MW415050   5.661   3.709   3.857  0.3415  0.0943  0.1815
 3830SOL     OW15051   1.203   1.259   6.374 -0.1765 -0.4900 -0.4486
 3830SOL    HW215052   1.129   1.200   6.390 -0.5728 -0.1818 -1.1096
 3830SOL    HW315053   1.184   1.335   6.429 -0.6766 -0.1490 -1.0770
 3830SOL    MW415054   1.191   1.261   6.383  0.4646  0.2859  0.7038
 3831SOL     OW15055   5.116   0.774   2.221 -0.4854  0.0607 -0.1478
 3831SOL    HW215056   5.174   0.850   2.212  0.4316 -0.6309 -0.2946
 3831SOL    HW315057   5.130   0.724   2.140  0.1873 -1.0992  0.6574
 3831SOL    MW415058   5.126   0.777   2.209  0.3789 -1.1642  0.2211
 3832SOL     OW15059   1.983   5.346   4.249 -0.6982  0.5305 -0.1521
 3832SOL    HW215060   1.947   5.310   4.168  0.3267  0.0100 -0.3820
 3832SOL    HW315061   1.971   5.441   4.239 -0.0142  0.5249 -1.2013
 3832SOL    MW415062   1.977   5.354   4.237  0.5858  0.0329  0.3104
 3833SOL     OW15063   2.137   5.014   2.122  0.4367  0.3760  0.1236
 3833SOL    HW215064   2.180   4.931   2.142  1.0615  1.1536  2.2295
 3833SOL    HW315065   2.081   4.994   2.047  0.5589 -1.9478  0.5777
 3833SOL    MW415066   2.135   5.000   2.114  0.3649 -0.3334  0.4304
 3834SOL     OW15067   5.368   4.950   2.124 -0.2259 -0.5233 -0.2843
 3834SOL    HW215068   5.311   5.016   2.086 -0.5785  0.0633  1.1729
 3834SOL    HW315069   5.454   4.992   2.128 -0.0755 -0.7715 -0.8944
 3834SOL    MW415070   5.372   4.964   2.120 -0.0828  0.0620 -0.5162
 3835SOL     OW15071   3.503   1.696   2.228 -0.5571 -0.0448 -0.1546
 3835SOL    HW215072   3.559   1.686   2.151  0.2028  1.4182  0.1741
 3835SOL    HW315073   3.505   1.790   2.247  1.1538 -0.5467  2.9866
 3835SOL    MW415074   3.511   1.707   2.221 -0.3029 -0.0533  0.1238
 3836SOL     OW15075   4.749   3.105   0.365  0.1050 -0.1550  0.1501
 3836SOL    HW215076   4.712   3.165   0.430  0.1856 -0.8011  0.8098
 3836SOL    HW315077   4.771   3.160   0.291  0.2859  0.6495  0.7896
 3836SOL    MW415078   4.747   3.120   0.364 -0.0852 -0.1969 -0.2272
 3837SOL     OW15079   0.512   6.302   4.666 -0.0189  0.3629 -0.0501
 3837SOL    HW215080   0.512   6.383   4.616 -2.4908  0.1127 -0.5750
 3837SOL    HW315081   0.444   6.315   4.733  0.6112 -0.7131  0.8341
 3837SOL    MW415082   0.503   6.315   4.669  0.4887  0.7439 -0.1587
 3838SOL     OW15083   5.252   5.686   3.755  0.2355 -0.1198 -0.2897
 3838SOL    HW215084   5.315   5.728   3.696 -1.4630  1.2349 -1.2191
 3838SOL    HW315085   5.214   5.616   3.702  0.0526 -0.1170 -0.1629
 3838SOL    MW415086   5.256   5.682   3.740  0.0771 -0.2504 -0.4063
 3839SOL     OW15087   6.034   0.873   2.701 -0.2761 -0.2070 -0.2079
 3839SOL    HW215088   6.108   0.823   2.669  0.5263  0.5245  0.4491
 3839SOL    HW315089   5.982   0.893   2.623 -0.2491 -1.4402 -0.5645
 3839SOL    MW415090   6.037   0.869   2.687  0.6125  0.3021  0.0057
 3840SOL     OW15091   4.821   2.134   6.070  0.2834  0.5905 -0.4065
 3840SOL    HW215092   4.791   2.171   6.154 -1.2997  1.1992 -1.1971
 3840SOL    HW315093   4.869   2.055   6.095 -1.3807 -0.0357  1.0375
 3840SOL    MW415094   4.823   2.128   6.085 -0.3347  0.0642  0.4919
 3841SOL     OW15095   4.515   6.258   2.305 -0.0574  0.4577  0.0397
 3841SOL    HW215096   4.525   6.201   2.229 -0.2512  1.2189 -0.5690
 3841SOL    HW315097   4.445   6.319   2.280 -0.4208  0.4459  0.9932
 3841SOL    MW415098   4.507   6.259   2.292  0.2823 -0.5361 -0.3064
 3842SOL     OW15099   1.769   5.371   0.060  0.3955  0.9370  0.0267
 3842SOL    HW215100   1.790   5.330   0.144  0.2784  2.4058  0.8165
 3842SOL    HW315101   1.703   5.437   0.082  1.7215  2.6425 -0.8813
 3842SOL    MW415102   1.763   5.375   0.074 -0.0720  0.0173 -0.4809
 3843SOL     OW15103   2.578   1.158   2.258 -0.3189 -0.1096  0.1515
 3843SOL    HW215104   2.593   1.081   2.203 -2.4188  0.0832 -0.8211
 3843SOL    HW315105   2.487   1.149   2.286  0.1125  0.8387  1.9899
 3843SOL    MW415106   2.568   1.147   2.254 -0.4802 -0.3826  0.3400
 3844SOL     OW15107   4.400   5.853   1.318  0.3463 -0.2186 -0.3546
 3844SOL    HW215108   4.366   5.890   1.236 -2.3228 -1.6256 -0.0005
 3844SOL    HW315109   4.349   5.772   1.330  1.6013 -0.7254  2.0355
 3844SOL    MW415110   4.389   5.847   1.309 -0.0309 -0.4189  0.2312
 3845SOL     OW15111   6.114   5.837   4.061  0.6607 -0.4646  0.4818
 3845SOL    HW215112   6.174   5.899   4.103 -1.5673  0.6596  2.2255
 3845SOL    HW315113   6.078   5.785   4.133 -0.5100 -1.0368 -0.4679
 3845SOL    MW415114   6.117   5.839   4.076 -0.7095  0.2724 -0.0453
 3846SOL     OW15115   4.966   0.526   2.050 -0.2328  0.1368  0.4721
 3846SOL    HW215116   4.882   0.564   2.076 -0.7691 -1.1862  0.7577
 3846SOL    HW315117   4.995   0.478   2.127  0.5231  0.1382  0.1933
 3846SOL    MW415118   4.958   0.525   2.064 -0.2012  0.0714  0.0905
 3847SOL     OW15119   4.069   5.154   4.986  0.1933  0.0198 -0.3328
 3847SOL    HW215120   4.110   5.230   4.946 -0.2441 -0.2440 -1.3042
 3847SOL    HW315121   3.975   5.165   4.970 -0.6488  2.0717  4.2815
 3847SOL    MW415122   4.062   5.165   4.978  0.2725 -0.1361 -0.3668
 3848SOL     OW15123   3.663   3.854   4.610  0.1188  0.3157  0.1079
 3848SOL    HW215124   3.706   3.857   4.696 -0.7387 -0.2982  0.5667
 3848SOL    HW315125   3.688   3.769   4.574  1.3776  1.0239 -0.7399
 3848SOL    MW415126   3.672   3.843   4.617 -0.5209  0.0396 -0.1174
 3849SOL     OW15127   5.534   5.120   2.675  0.4637 -0.2176 -0.1210
 3849SOL    HW215128   5.496   5.190   2.622  0.5923  1.5554  2.0094
 3849SOL    HW315129   5.477   5.045   2.659 -1.8309  1.3432  0.1629
 3849SOL    MW415130   5.521   5.119   2.666  0.1195  0.0948 -0.6410
 3850SOL     OW15131   0.332   0.829   5.239  0.4605  0.3916 -0.2056
 3850SOL    HW215132   0.239   0.820   5.219 -0.1526  0.0539  2.4227
 3850SOL    HW315133   0.361   0.740   5.261  0.7524  0.8131  1.2960
 3850SOL    MW415134   0.324   0.816   5.240  0.0026 -0.5219 -0.2790
 3851SOL     OW15135   5.470   2.059   4.070 -0.3773 -0.1763 -0.5732
 3851SOL    HW215136   5.482   2.069   4.165  0.3328  3.3477 -0.9105
 3851SOL    HW315137   5.559   2.050   4.036 -0.6565 -1.9296 -0.9426
 3851SOL    MW415138   5.483   2.059   4.078  0.2777  0.3543 -0.0230
 3852SOL     OW15139   1.744   0.825   4.141  0.1152  0.4342  0.6057
 3852SOL    HW215140   1.813   0.876   4.099 -0.2177 -1.3468 -2.3967
 3852SOL    HW315141   1.790   0.776   4.209  1.3485  1.0665  0.2652
 3852SOL    MW415142   1.759   0.825   4.145  0.7470 -0.1992 -0.0031
 3853SOL     OW15143   4.368   2.961   1.542 -0.0037  0.1126  0.4258
 3853SOL    HW215144   4.321   2.883   1.571 -0.1325  0.1854  0.4128
 3853SOL    HW315145   4.428   2.929   1.474  0.5574 -0.1201  1.0215
 3853SOL    MW415146   4.370   2.947   1.537 -0.8569 -0.3237  0.7016
 3854SOL     OW15147   5.194   3.022   0.623  0.2039 -0.1011 -0.0233
 3854SOL    HW215148   5.110   3.063   0.601  0.4439  0.6436  0.4383
 3854SOL    HW315149   5.172   2.957   0.689 -0.2011 -0.8379 -0.8629
 3854SOL    MW415150   5.180   3.019   0.629 -0.5228  0.3059  0.7415
 3855SOL     OW15151   3.225   6.234   3.827  0.0143 -0.3796 -0.2541
 3855SOL    HW215152   3.251   6.245   3.918  0.5514 -1.0229 -0.3186
 3855SOL    HW315153   3.276   6.159   3.796 -1.0402 -0.9273 -0.7442
 3855SOL    MW415154   3.235   6.225   3.835 -0.1223  0.1627 -0.1289
 3856SOL     OW15155   0.015   0.434   3.089 -0.1748  0.0116  0.5872
 3856SOL    HW215156   0.009   0.355   3.035 -0.1919  2.2572 -3.0180
 3856SOL    HW315157  -0.075   0.464   3.098 -0.0334  0.4456  0.5818
 3856SOL    MW415158   0.002   0.428   3.083  0.0865  0.2186  0.2889
 3857SOL     OW15159   5.650   2.672   1.751  0.2934 -0.1125 -0.1924
 3857SOL    HW215160   5.598   2.742   1.791  0.4975 -0.0973  0.0499
 3857SOL    HW315161   5.585   2.607   1.723  0.1265  0.0272 -0.1336
 3857SOL    MW415162   5.634   2.672   1.752  0.1897 -0.0877 -0.4148
 3858SOL     OW15163   2.203   5.116   1.158  0.0071 -0.0889 -0.1790
 3858SOL    HW215164   2.124   5.135   1.106  1.3375 -0.9621 -2.6836
 3858SOL    HW315165   2.194   5.023   1.181  0.9616 -0.6406 -1.8437
 3858SOL    MW415166   2.191   5.106   1.154 -0.3342  0.3053  0.0144
 3859SOL     OW15167   0.271   6.398   4.353 -0.0444 -0.0944 -0.0645
 3859SOL    HW215168   0.363   6.371   4.346  0.3100  1.3633 -1.4923
 3859SOL    HW315169   0.275   6.486   4.391 -0.9971 -0.7323  1.6391
 3859SOL    MW415170   0.284   6.406   4.357 -0.3030  0.2016 -0.7691
 3860SOL     OW15171   6.401   5.910   0.933 -0.2010 -0.4829 -0.0161
 3860SOL    HW215172   6.491   5.893   0.960 -0.9638 -2.6738  1.4528
 3860SOL    HW315173   6.409   5.968   0.858  2.4858 -1.4317 -0.5869
 3860SOL    MW415174   6.414   5.915   0.926  0.5504 -0.4661 -0.6174
 3861SOL     OW15175   4.716   4.944   4.291  0.2149  0.3474  0.7070
 3861SOL    HW215176   4.767   4.959   4.370 -0.5768  2.1834  0.9144
 3861SOL    HW315177   4.766   4.879   4.242  1.6507  0.5251  1.8796
 3861SOL    MW415178   4.729   4.938   4.295 -0.1460  0.6599 -0.1669
 3862SOL     OW15179   3.511   1.863   3.966  0.0854 -0.2198  1.0659
 3862SOL    HW215180   3.501   1.775   3.930  0.4545  0.8836 -2.0437
 3862SOL    HW315181   3.601   1.888   3.944 -0.4601  1.4267  0.5517
 3862SOL    MW415182   3.522   1.855   3.958  0.0418 -0.1075 -0.0614
 3863SOL     OW15183   3.471   2.492   0.769 -0.0638  0.2802 -0.3586
 3863SOL    HW215184   3.460   2.493   0.674 -1.1683  1.6136 -0.2498
 3863SOL    HW315185   3.435   2.408   0.797 -1.8594  0.8048 -0.9380
 3863SOL    MW415186   3.465   2.481   0.760 -0.5601 -0.1937  0.0870
 3864SOL     OW15187   0.876   5.411   0.116 -0.2457 -0.0077 -0.0105
 3864SOL    HW215188   0.786   5.396   0.089 -0.2197 -0.8054  0.3193
 3864SOL    HW315189   0.928   5.390   0.038 -0.3747  1.1107 -0.4131
 3864SOL    MW415190   0.871   5.406   0.102  0.6012 -0.0571  0.5019
 3865SOL     OW15191   6.127   4.759   1.571  0.0767  0.1051 -0.2878
 3865SOL    HW215192   6.140   4.782   1.663 -0.0759  0.5482 -0.3730
 3865SOL    HW315193   6.144   4.841   1.524  1.5550 -0.4517 -0.7714
 3865SOL    MW415194   6.131   4.773   1.577  0.2149  0.5207  0.3522
 3866SOL     OW15195   1.473   6.427   2.405 -0.5897 -0.2913 -0.7465
 3866SOL    HW215196   1.406   6.462   2.347 -0.9818  0.6782  0.2419
 3866SOL    HW315197   1.554   6.468   2.375 -1.0089  1.3905  0.2594
 3866SOL    MW415198   1.475   6.437   2.394 -0.3069  0.6563  0.2600
 3867SOL     OW15199   0.739   3.211   2.956 -0.3587  0.3617  0.8947
 3867SOL    HW215200   0.795   3.147   2.999 -1.7058 -0.8699  0.9165
 3867SOL    HW315201   0.650   3.185   2.980 -1.1421  0.0966 -1.8823
 3867SOL    MW415202   0.735   3.199   2.965  0.1797  0.0841  0.4089
 3868SOL     OW15203   1.055   0.933   4.885 -0.2398  0.5383 -0.0294
 3868SOL    HW215204   1.139   0.978   4.893  0.3056 -0.0833 -1.8895
 3868SOL    HW315205   0.995   0.985   4.939  0.9100  2.0647 -0.1653
 3868SOL    MW415206   1.058   0.946   4.893  0.3325 -0.1365  0.0710
 3869SOL     OW15207   3.928   1.955   0.622 -0.8309  0.5793 -0.1872
 3869SOL    HW215208   3.984   1.877   0.622 -0.2066  1.0182 -0.2520
 3869SOL    HW315209   3.923   1.981   0.714 -0.9469  0.5227 -0.1781
 3869SOL    MW415210   3.935   1.948   0.634 -0.0589  0.1041 -0.0692
 3870SOL     OW15211   3.207   2.420   1.907  0.1923 -0.2762 -0.7626
 3870SOL    HW215212   3.292   2.454   1.879 -0.4318  0.3391 -1.9386
 3870SOL    HW315213   3.199   2.449   1.998  2.2139 -2.2529  0.1699
 3870SOL    MW415214   3.217   2.428   1.916 -0.7076  0.0007  0.0599
 3871SOL     OW15215   0.681   2.908   0.674  0.5970 -0.5032  0.1225
 3871SOL    HW215216   0.631   2.947   0.745  1.2161  0.1256  0.2219
 3871SOL    HW315217   0.740   2.847   0.717  2.1913  1.1367  0.3546
 3871SOL    MW415218   0.682   2.905   0.689  0.0592 -0.3742 -0.1513
 3872SOL     OW15219   0.693   1.781   3.816 -0.1859  0.1541  0.1584
 3872SOL    HW215220   0.671   1.852   3.756  1.3019  0.2799 -0.2799
 3872SOL    HW315221   0.616   1.772   3.872 -1.0966  0.9075 -0.9277
 3872SOL    MW415222   0.680   1.789   3.816 -0.0450 -0.3283 -0.0540
 3873SOL     OW15223   4.356   5.865   4.386 -0.2677  0.0646 -0.4511
 3873SOL    HW215224   4.353   5.801   4.315  0.7509 -0.8421  0.2867
 3873SOL    HW315225   4.412   5.935   4.352 -1.6571  0.7676 -1.3877
 3873SOL    MW415226   4.363   5.866   4.372 -0.1994 -0.3344 -0.0813
 3874SOL     OW15227   5.608   5.902   1.759  0.1793  0.1392  0.4365
 3874SOL    HW215228   5.600   5.849   1.680 -0.2660  0.6093  0.1541
 3874SOL    HW315229   5.566   5.849   1.827 -1.8610  0.8241 -0.1965
 3874SOL    MW415230   5.601   5.888   1.757 -0.6189 -0.0657 -0.8042
 3875SOL     OW15231   4.301   1.940   4.703  0.3887 -0.1378  0.1920
 3875SOL    HW215232   4.335   1.978   4.622 -1.1109  0.7528 -0.0551
 3875SOL    HW315233   4.319   2.006   4.770  2.4760 -1.2641  0.8323
 3875SOL    MW415234   4.308   1.954   4.701 -0.0408  0.7931  0.2617
 3876SOL     OW15235   2.214   5.514   3.033  0.1060 -0.1486  0.3997
 3876SOL    HW215236   2.271   5.585   3.065 -0.3107  0.7023 -0.6911
 3876SOL    HW315237   2.126   5.542   3.057 -0.0065 -0.6303  0.5513
 3876SOL    MW415238   2.210   5.527   3.040  0.4153 -0.1277  0.4968
 3877SOL     OW15239   4.941   5.662   2.677  0.0128 -0.1517  0.3483
 3877SOL    HW215240   4.952   5.726   2.607 -0.5285 -0.9391 -0.4886
 3877SOL    HW315241   4.980   5.703   2.754 -1.0421  1.5169  0.0379
 3877SOL    MW415242   4.947   5.676   2.678 -0.4257  0.2092 -0.2760
 3878SOL     OW15243   2.865   3.258   6.031 -0.1054 -0.5385  0.2020
 3878SOL    HW215244   2.931   3.325   6.045 -0.0515 -0.3183 -1.0544
 3878SOL    HW315245   2.830   3.241   6.119  1.1667 -0.2129  0.7926
 3878SOL    MW415246   2.869   3.265   6.045  0.1398 -0.4720  0.0116
 3879SOL     OW15247   2.025   2.549   3.828 -0.2575  0.3101 -0.2067
 3879SOL    HW215248   2.098   2.592   3.873 -0.3774 -1.5589  1.9706
 3879SOL    HW315249   1.953   2.611   3.833  0.3024  0.9245  0.4824
 3879SOL    MW415250   2.025   2.563   3.835  0.5964  0.2433  0.1536
 3880SOL     OW15251   3.599   4.126   0.834  0.6367 -0.1284 -0.3442
 3880SOL    HW215252   3.664   4.189   0.866  0.5671 -0.7439  1.0938
 3880SOL    HW315253   3.528   4.181   0.800  0.8117  0.5774  0.3937
 3880SOL    MW415254   3.598   4.142   0.834  0.1929  0.1143 -0.2257
 3881SOL     OW15255   2.619   5.731   2.059  0.5021 -0.2213  0.2786
 3881SOL    HW215256   2.560   5.655   2.055 -0.4942  0.5378  0.3571
 3881SOL    HW315257   2.616   5.767   1.970 -1.9904  1.9080  1.1184
 3881SOL    MW415258   2.611   5.726   2.046 -0.2791  0.5626 -0.3894
 3882SOL     OW15259   1.374   1.688   6.251 -0.0373 -0.3221 -0.0966
 3882SOL    HW215260   1.444   1.698   6.186  0.4652 -2.2030  0.0877
 3882SOL    HW315261   1.298   1.663   6.199 -0.7678  2.1787 -0.3491
 3882SOL    MW415262   1.374   1.686   6.236 -0.5245 -0.0684  0.1342
 3883SOL     OW15263   1.913   4.899   4.675 -0.0302  0.6171 -1.0113
 3883SOL    HW215264   1.993   4.922   4.628  0.7526 -1.2016 -0.6712
 3883SOL    HW315265   1.878   4.823   4.627 -0.2058 -0.1359  0.2524
 3883SOL    MW415266   1.919   4.892   4.662  0.2602 -0.4407  0.1689
 3884SOL     OW15267   2.681   0.481   1.587 -0.1340 -0.1300 -0.3514
 3884SOL    HW215268   2.694   0.407   1.529  0.4641 -1.3030  1.2061
 3884SOL    HW315269   2.757   0.479   1.646 -0.1225  1.7063 -0.2402
 3884SOL    MW415270   2.693   0.471   1.587 -0.3212  0.4139  0.1132
 3885SOL     OW15271   3.171   5.913   3.553 -0.1182 -0.1320  0.2017
 3885SOL    HW215272   3.192   5.846   3.618  0.9301  0.5886  0.6416
 3885SOL    HW315273   3.256   5.949   3.528 -0.6117  0.5209 -0.5784
 3885SOL    MW415274   3.185   5.909   3.558  0.4785  0.3501 -0.4384
 3886SOL     OW15275   1.607   5.893   4.341  0.0892  1.1444  0.3557
 3886SOL    HW215276   1.689   5.931   4.372  1.1162 -0.7593  0.1595
 3886SOL    HW315277   1.544   5.912   4.411  1.6921 -0.7146  2.4862
 3886SOL    MW415278   1.610   5.900   4.355 -0.4492  0.0808  0.3371
 3887SOL     OW15279   1.471   6.127   1.614 -0.3170  0.4533  0.6068
 3887SOL    HW215280   1.470   6.185   1.539  2.2974  0.5219  0.5238
 3887SOL    HW315281   1.488   6.040   1.577  3.5912  0.8324  1.1218
 3887SOL    MW415282   1.473   6.123   1.599  0.0902 -0.4843  0.2031
 3888SOL     OW15283   1.500   4.188   2.949  0.2123  0.0116 -0.1443
 3888SOL    HW215284   1.533   4.277   2.963 -0.9084  0.5545 -0.8455
 3888SOL    HW315285   1.568   4.146   2.897  1.0290  0.2498  0.6961
 3888SOL    MW415286   1.514   4.194   2.944  0.2405  0.3769 -0.0463
 3889SOL     OW15287   3.663   0.116   0.255  0.2112  0.8961  0.7258
 3889SOL    HW215288   3.704   0.082   0.335  1.2094  1.3518  0.4157
 3889SOL    HW315289   3.697   0.060   0.185 -1.7692 -0.4503  0.7355
 3889SOL    MW415290   3.673   0.104   0.257  0.3408  0.0913 -0.3731
 3890SOL     OW15291   5.795   5.235   6.013 -0.3619  0.3827  0.1731
 3890SOL    HW215292   5.763   5.188   6.091 -1.6700  1.2612  0.1944
 3890SOL    HW315293   5.731   5.214   5.945  2.3725 -2.9093 -1.6608
 3890SOL    MW415294   5.782   5.226   6.015 -0.1656 -0.0039 -0.0903
 3891SOL     OW15295   1.727   5.495   1.602 -0.5052 -0.1829 -0.0079
 3891SOL    HW215296   1.801   5.454   1.646 -0.9251 -1.2377 -0.2644
 3891SOL    HW315297   1.651   5.441   1.625 -1.0315  0.3029 -0.5459
 3891SOL    MW415298   1.727   5.483   1.611  0.0005 -0.2537  0.2043
 3892SOL     OW15299   0.708   2.989   1.868  0.4390  0.2060  0.0930
 3892SOL    HW215300   0.755   3.039   1.801  0.1922  0.5891  0.2076
 3892SOL    HW315301   0.676   3.055   1.929 -1.0221  0.0236 -0.4540
 3892SOL    MW415302   0.710   3.004   1.867 -0.5643  0.3599  0.4847
 3893SOL     OW15303   2.407   2.253   1.765 -0.3556 -0.6641 -0.2056
 3893SOL    HW215304   2.452   2.178   1.804  0.0117 -0.0432  0.5821
 3893SOL    HW315305   2.476   2.316   1.747 -0.8474  0.1346  0.6285
 3893SOL    MW415306   2.422   2.252   1.768  0.0330 -0.2717 -0.4363
 3894SOL     OW15307   3.631   2.067   0.359 -0.3169 -0.0914 -0.4743
 3894SOL    HW215308   3.624   1.974   0.381 -2.6514 -0.5313 -2.6458
 3894SOL    HW315309   3.610   2.113   0.441 -0.7263 -1.4786  0.2258
 3894SOL    MW415310   3.627   2.061   0.373 -0.0471  0.5360  0.1436
 3895SOL     OW15311   3.931   3.834   2.622 -0.2259  0.0395 -0.7942
 3895SOL    HW215312   3.925   3.786   2.704  0.9643 -0.3152 -0.9019
 3895SOL    HW315313   3.849   3.814   2.576 -0.4887 -0.4976 -0.0980
 3895SOL    MW415314   3.919   3.825   2.627 -0.2248 -0.4450  0.4410
 3896SOL     OW15315   2.408   5.075   3.600  0.0364  0.0048 -0.0894
 3896SOL    HW215316   2.477   5.141   3.599  0.7185 -0.6869  0.1083
 3896SOL    HW315317   2.390   5.057   3.508 -0.1434  0.4474 -0.1437
 3896SOL    MW415318   2.415   5.081   3.588  0.2702 -0.0953  0.1366
 3897SOL     OW15319   2.208   5.819   4.151  0.1693  0.5893  0.2881
 3897SOL    HW215320   2.143   5.807   4.082  0.0316 -1.4342  0.7029
 3897SOL    HW315321   2.230   5.912   4.148  0.6139  0.4784 -2.8383
 3897SOL    MW415322   2.202   5.830   4.142 -0.4718  0.0544  0.4585
 3898SOL     OW15323   3.779   6.236   4.813  0.0748  0.3384  0.5946
 3898SOL    HW215324   3.765   6.193   4.897 -0.4194  1.0072  0.8640
 3898SOL    HW315325   3.831   6.174   4.762 -0.2179 -0.3659  1.1428
 3898SOL    MW415326   3.784   6.222   4.817  0.2430 -0.6464 -0.3661
 3899SOL     OW15327   6.365   4.965   6.120 -0.2623 -0.5058 -0.1858
 3899SOL    HW215328   6.306   5.035   6.149 -1.0345 -1.0551 -0.3873
 3899SOL    HW315329   6.307   4.892   6.100  0.5558 -1.3160  0.3102
 3899SOL    MW415330   6.350   4.965   6.121 -0.2229 -0.0154  0.5138
 3900SOL     OW15331   6.294   3.478   3.551  0.2340  0.7343 -0.0466
 3900SOL    HW215332   6.222   3.522   3.507  0.1287  0.8926  0.2826
 3900SOL    HW315333   6.252   3.413   3.608  0.3911  0.1479 -0.5932
 3900SOL    MW415334   6.279   3.475   3.553  0.4286 -0.7638  0.0853
 3901SOL     OW15335   2.247   3.715   3.896 -0.4795 -0.0368  0.5354
 3901SOL    HW215336   2.204   3.771   3.831 -1.1419  1.2218  1.9825
 3901SOL    HW315337   2.335   3.753   3.905  0.9996 -2.4026 -2.1706
 3901SOL    MW415338   2.253   3.728   3.888  0.5691  0.0770 -0.0274
 3902SOL     OW15339   6.393   2.684   5.765 -0.4024 -0.3006 -0.0318
 3902SOL    HW215340   6.462   2.747   5.785 -1.9828  0.9512  1.8316
 3902SOL    HW315341   6.413   2.608   5.821  1.2056 -1.3406 -1.8951
 3902SOL    MW415342   6.405   2.682   5.775 -0.4345 -0.7878  0.0798
 3903SOL     OW15343   3.695   0.858   5.651 -0.9296  0.6428 -0.2285
 3903SOL    HW215344   3.670   0.843   5.560 -0.7754 -0.1506 -0.1545
 3903SOL    HW315345   3.612   0.860   5.698 -0.9889  0.6029 -0.3297
 3903SOL    MW415346   3.680   0.856   5.645 -0.0587  0.1370 -0.0626
 3904SOL     OW15347   3.819   3.527   0.949 -0.0828  0.2693  0.1929
 3904SOL    HW215348   3.846   3.617   0.936 -0.5366  0.2983 -0.6140
 3904SOL    HW315349   3.863   3.478   0.880  1.2293 -0.3658  1.4165
 3904SOL    MW415350   3.828   3.532   0.938 -0.5469  0.0926  0.3945
 3905SOL     OW15351   1.937   5.185   0.223 -0.0379 -1.1836 -0.1175
 3905SOL    HW215352   1.914   5.176   0.315 -1.2750 -0.3534 -0.3173
 3905SOL    HW315353   2.015   5.132   0.212 -0.7238 -2.4933  1.0729
 3905SOL    MW415354   1.944   5.177   0.233  0.4700  0.4880  0.2489
 3906SOL     OW15355   0.424   5.601   1.320 -0.8634 -0.1725 -0.5672
 3906SOL    HW215356   0.464   5.685   1.344 -1.2951 -0.4274  1.2079
 3906SOL    HW315357   0.439   5.593   1.226  0.0585  1.4255 -0.5918
 3906SOL    MW415358   0.431   5.611   1.311  0.4345 -0.1897 -0.4133
 3907SOL     OW15359   3.807   1.930   4.643 -0.1399 -0.3785  0.3745
 3907SOL    HW215360   3.882   1.940   4.702 -0.1588 -0.0189  0.3439
 3907SOL    HW315361   3.775   2.020   4.631 -0.0346 -0.4310 -0.3175
 3907SOL    MW415362   3.812   1.943   4.649 -0.4247  0.0304  0.0897
 3908SOL     OW15363   0.621   4.902   3.032 -0.5084 -0.0143  0.1676
 3908SOL    HW215364   0.685   4.970   3.053  0.8934 -0.6699 -1.7796
 3908SOL    HW315365   0.600   4.917   2.940 -2.4248 -0.4439  0.4931
 3908SOL    MW415366   0.626   4.913   3.022  0.1062  0.8140  0.0080
 3909SOL     OW15367   4.894   2.176   0.546 -0.0648 -0.0224 -0.5738
 3909SOL    HW215368   4.884   2.160   0.640  1.7565  0.6479 -0.2373
 3909SOL    HW315369   4.975   2.132   0.522  0.8092  1.8523 -1.2806
 3909SOL    MW415370   4.903   2.168   0.555 -0.1144 -0.4177  0.4268
 3910SOL     OW15371   5.893   2.357   1.918  0.2539 -0.0104 -0.0443
 3910SOL    HW215372   5.947   2.392   1.847  0.8818  1.6202  1.1785
 3910SOL    HW315373   5.840   2.431   1.946 -0.9206 -0.9736  0.3574
 3910SOL    MW415374   5.893   2.372   1.912 -0.8380  0.1088  0.5452
 3911SOL     OW15375   2.838   3.200   5.219 -0.4387 -0.1152  0.5281
 3911SOL    HW215376   2.823   3.262   5.289 -0.1161  1.0623 -0.4111
 3911SOL    HW315377   2.928   3.170   5.232  0.4821  1.9092 -0.6979
 3911SOL    MW415378   2.848   3.204   5.230 -0.5012  0.1667 -0.0344
 3912SOL     OW15379   1.895   6.173   3.777  0.1977 -0.5272  0.0509
 3912SOL    HW215380   1.971   6.225   3.803  0.0754  0.5135 -1.5347
 3912SOL    HW315381   1.865   6.131   3.858  1.5527  0.2345  0.9720
 3912SOL    MW415382   1.901   6.174   3.791  0.0591 -0.4442  0.2901
 3913SOL     OW15383   6.216   6.296   0.486  0.4208 -0.1612  0.3004
 3913SOL    HW215384   6.215   6.208   0.524 -0.5870 -0.1648  0.2870
 3913SOL    HW315385   6.125   6.314   0.464  1.1043 -0.8352 -3.7739
 3913SOL    MW415386   6.204   6.287   0.488  0.1534  0.6531 -0.3556
 3914SOL     OW15387   1.815   4.603   3.045 -0.1709  0.0007 -0.5769
 3914SOL    HW215388   1.858   4.520   3.024 -0.2603  0.0715 -1.0645
 3914SOL    HW315389   1.785   4.636   2.960  1.0765  1.2022 -0.5882
 3914SOL    MW415390   1.817   4.597   3.031  0.1365  0.0862 -0.1722
 3915SOL     OW15391   5.202   3.182   5.968  0.2428  0.3939  0.1987
 3915SOL    HW215392   5.277   3.124   5.981  1.4955  1.5773 -1.3386
 3915SOL    HW315393   5.240   3.262   5.930 -1.3841  2.2527  2.2063
 3915SOL    MW415394   5.217   3.185   5.965  0.0604 -0.2412 -0.1861
 3916SOL     OW15395   3.876   4.502   4.218  0.0001 -0.1960 -0.0113
 3916SOL    HW215396   3.967   4.512   4.244  0.5011 -1.1433 -1.2751
 3916SOL    HW315397   3.835   4.456   4.292  0.9589 -1.2567 -0.1059
 3916SOL    MW415398   3.882   4.497   4.231 -0.0456  0.4029  0.9189
 3917SOL     OW15399   3.981   0.947   2.490 -0.4548 -0.4324 -0.1403
 3917SOL    HW215400   3.901   0.999   2.493 -0.2465 -0.0922 -0.4763
 3917SOL    HW315401   4.037   0.985   2.557 -1.0578 -1.4881  1.0092
 3917SOL    MW415402   3.978   0.959   2.499 -0.2991  0.3657  0.0734
 3918SOL     OW15403   0.305   1.117   4.834 -0.0021 -0.1469  0.2771
 3918SOL    HW215404   0.263   1.033   4.819 -2.0083  1.2797 -3.1520
 3918SOL    HW315405   0.372   1.123   4.766  0.5669  0.7761  0.8948
 3918SOL    MW415406   0.308   1.107   4.823  0.1114  0.3853 -0.3500
 3919SOL     OW15407   0.241   3.701   2.144  0.1430  0.5358  0.0820
 3919SOL    HW215408   0.214   3.783   2.103 -0.6744  0.0180 -0.4481
 3919SOL    HW315409   0.320   3.675   2.096  0.9288  1.4589  0.8509
 3919SOL    MW415410   0.248   3.708   2.132 -0.2854  0.7118  0.1500
 3920SOL     OW15411   2.796   1.574   5.744  0.4840  0.2151  0.4278
 3920SOL    HW215412   2.785   1.604   5.654 -0.7595 -2.0898 -0.2551
 3920SOL    HW315413   2.803   1.655   5.795 -0.5761  1.6245 -1.5091
 3920SOL    MW415414   2.795   1.589   5.739  0.5938  0.0560 -0.1495
 3921SOL     OW15415   0.674   1.147   2.459 -0.5200 -0.0979 -0.5699
 3921SOL    HW215416   0.733   1.081   2.494  0.7805  0.7957 -0.9945
 3921SOL    HW315417   0.665   1.211   2.530 -0.5818  0.0147 -0.6794
 3921SOL    MW415418   0.681   1.147   2.473  0.3025 -0.3122  0.8146
 3922SOL     OW15419   1.918   6.237   1.368  0.1584 -0.4493 -0.1121
 3922SOL    HW215420   1.851   6.172   1.348  0.6840 -0.7250 -1.0808
 3922SOL    HW315421   1.907   6.255   1.461 -1.6554 -0.0066 -0.3751
 3922SOL    MW415422   1.908   6.231   1.377  1.0467 -0.6750  0.3800
 3923SOL     OW15423   2.390   0.225   5.399  0.2381  0.2829 -0.0284
 3923SOL    HW215424   2.481   0.233   5.428 -0.4370  0.9726  2.0873
 3923SOL    HW315425   2.371   0.306   5.353  0.6706  0.1318 -0.4861
 3923SOL    MW415426   2.399   0.237   5.397  0.4916  0.0480  0.3992
 3924SOL     OW15427   1.571   2.289   4.626 -0.0422  1.0493 -0.6759
 3924SOL    HW215428   1.595   2.318   4.714  0.1907  2.1362 -1.0805
 3924SOL    HW315429   1.590   2.364   4.570 -1.3138  0.7808 -1.4959
 3924SOL    MW415430   1.577   2.303   4.630 -0.4545  0.0425  0.4160
 3925SOL     OW15431   4.507   1.748   0.377  0.4669 -0.1303  0.0464
 3925SOL    HW215432   4.445   1.724   0.447  0.5292 -0.2128  0.0735
 3925SOL    HW315433   4.528   1.840   0.395  0.2132 -0.0484 -0.0689
 3925SOL    MW415434   4.501   1.757   0.389 -0.2512  0.1109 -0.0915
 3926SOL     OW15435   2.489   3.903   3.166 -0.6409 -0.2454 -0.1015
 3926SOL    HW215436   2.474   3.926   3.257  0.0834 -0.8462  0.1750
 3926SOL    HW315437   2.415   3.846   3.143 -0.5403 -0.5283  0.2700
 3926SOL    MW415438   2.477   3.898   3.175  0.6272  0.8590 -0.0067
 3927SOL     OW15439   2.395   5.641   2.359  0.1604  0.3806  0.8339
 3927SOL    HW215440   2.412   5.608   2.271  1.0191  0.2867  1.0303
 3927SOL    HW315441   2.480   5.670   2.391  0.1781 -1.1182  2.2649
 3927SOL    MW415442   2.408   5.641   2.352 -0.0933  0.2706 -0.0814
 3928SOL     OW15443   6.063   6.149   2.535  0.4399  0.0238 -0.0460
 3928SOL    HW215444   6.157   6.132   2.542  0.2525 -1.7428 -1.1891
 3928SOL    HW315445   6.022   6.088   2.595 -0.0532 -0.5236 -0.9177
 3928SOL    MW415446   6.070   6.139   2.544  0.1622 -0.1421 -0.2566
 3929SOL     OW15447   0.055   0.919   0.840  0.4447 -0.6466  0.2389
 3929SOL    HW215448   0.092   0.832   0.855  0.1788 -0.8335 -0.1597
 3929SOL    HW315449   0.064   0.964   0.923 -1.1670 -1.6911  1.0267
 3929SOL    MW415450   0.061   0.914   0.853 -0.0534 -0.0929 -0.1437
 3930SOL     OW15451   5.540   5.419   4.275 -0.1999 -0.5127 -0.6438
 3930SOL    HW215452   5.446   5.408   4.288 -0.0488 -1.0893  0.0251
 3930SOL    HW315453   5.577   5.334   4.299  0.6023  0.0790  0.2808
 3930SOL    MW415454   5.532   5.406   4.280  0.3179 -0.7044  0.2643
 3931SOL     OW15455   1.308   6.079   2.542  0.6413  0.3677 -0.1045
 3931SOL    HW215456   1.377   6.104   2.481 -0.1502 -0.0681 -1.1933
 3931SOL    HW315457   1.355   6.035   2.614  1.5190  0.3072 -0.7027
 3931SOL    MW415458   1.323   6.076   2.544  0.1608  0.3780  0.1564
 3932SOL     OW15459   3.012   4.381   1.803 -0.3102 -0.2539 -0.0899
 3932SOL    HW215460   2.940   4.324   1.777 -1.2848  0.5453  0.7575
 3932SOL    HW315461   3.016   4.448   1.736 -2.2000  1.2652  1.2123
 3932SOL    MW415462   3.003   4.382   1.791  0.2310  0.0049  0.1015
 3933SOL     OW15463   5.300   3.798   1.896 -0.6213  0.1618 -0.4499
 3933SOL    HW215464   5.363   3.823   1.828 -2.0414  1.0586 -1.5135
 3933SOL    HW315465   5.321   3.854   1.970 -0.3312  0.6605 -0.8969
 3933SOL    MW415466   5.311   3.809   1.897  0.1733  0.6094 -0.3848
 3934SOL     OW15467   3.677   5.682   4.241 -0.5790 -0.1589 -0.0054
 3934SOL    HW215468   3.681   5.761   4.295 -0.3366  1.4526 -2.2490
 3934SOL    HW315469   3.764   5.674   4.204  0.3267 -3.2321  2.3559
 3934SOL    MW415470   3.689   5.691   4.244 -0.1641 -0.3309 -0.7382
 3935SOL     OW15471   2.959   4.476   4.860 -0.4515  0.3547  0.1880
 3935SOL    HW215472   2.916   4.500   4.778 -1.5360  0.4507  0.7736
 3935SOL    HW315473   3.039   4.529   4.861  0.6041 -1.0706 -1.7233
 3935SOL    MW415474   2.964   4.486   4.849 -0.0464  0.2359 -0.2428
 3936SOL     OW15475   1.966   4.172   0.807  0.0521 -0.0818  0.3269
 3936SOL    HW215476   1.919   4.145   0.728  2.4192  0.8202 -1.5031
 3936SOL    HW315477   2.026   4.100   0.824  1.3166  0.7966 -0.2651
 3936SOL    MW415478   1.967   4.159   0.798 -0.3019  0.3395  0.2233
 3937SOL     OW15479   1.401   2.568   3.007 -0.1686  0.0096 -0.0397
 3937SOL    HW215480   1.384   2.571   3.101 -2.2007  0.2944 -0.3723
 3937SOL    HW315481   1.347   2.496   2.975 -1.4471  1.4421 -1.2957
 3937SOL    MW415482   1.391   2.559   3.015  0.1504  0.0695 -0.4671
 3938SOL     OW15483   4.740   2.872   1.939 -0.4747 -0.1401  0.1802
 3938SOL    HW215484   4.744   2.791   1.889  0.2789 -0.4151  0.6605
 3938SOL    HW315485   4.773   2.940   1.880  0.4175 -0.4629  0.2928
 3938SOL    MW415486   4.745   2.871   1.925  0.1000 -0.2072 -0.5461
 3939SOL     OW15487   4.691   5.972   1.061 -0.4109  0.0659  0.3530
 3939SOL    HW215488   4.781   5.950   1.085 -0.4459 -1.1009 -0.4997
 3939SOL    HW315489   4.646   5.888   1.058 -0.7382  0.2469 -2.3205
 3939SOL    MW415490   4.697   5.958   1.064 -0.0559  0.1025 -0.1787
 3940SOL     OW15491   1.821   5.341   4.796 -0.1293  0.2904  0.2736
 3940SOL    HW215492   1.812   5.338   4.892  0.0622  2.1492  0.3740
 3940SOL    HW315493   1.914   5.357   4.781 -0.2294  0.4251 -0.2164
 3940SOL    MW415494   1.832   5.343   4.807  0.0455  0.0951 -0.2946
 3941SOL     OW15495   4.477   0.140   4.434  0.2054  0.2700 -0.0414
 3941SOL    HW215496   4.455   0.202   4.366  2.6371 -0.4381 -1.6194
 3941SOL    HW315497   4.533   0.189   4.495  0.0589  0.2789  0.0856
 3941SOL    MW415498   4.482   0.154   4.433 -0.4154 -0.2650 -0.6690
 3942SOL     OW15499   5.784   0.943   4.731  0.1271  0.3163  0.0080
 3942SOL    HW215500   5.867   0.986   4.751  0.2799 -0.5606  1.3016
 3942SOL    HW315501   5.751   0.912   4.815 -1.4842  0.5711 -0.4868
 3942SOL    MW415502   5.791   0.945   4.745 -0.4645  0.1695  0.0610
 3943SOL     OW15503   5.750   3.261   3.272 -0.3142 -0.3594 -0.1827
 3943SOL    HW215504   5.659   3.243   3.296 -0.4698  1.4176  0.7063
 3943SOL    HW315505   5.753   3.356   3.258  1.5253 -0.2961  0.3880
 3943SOL    MW415506   5.739   3.271   3.273 -0.2541 -0.4191  0.1330
 3944SOL     OW15507   0.019   0.327   3.794 -0.2337 -0.3679  0.0718
 3944SOL    HW215508  -0.022   0.407   3.826  2.5944  1.2786 -0.0474
 3944SOL    HW315509   0.006   0.329   3.699  0.8842  0.6782 -0.0840
 3944SOL    MW415510   0.012   0.337   3.786 -0.0871 -0.5140  0.6129
 3945SOL     OW15511   2.681   5.433   2.510  0.4037 -0.1560 -0.2053
 3945SOL    HW215512   2.657   5.340   2.503 -1.7641  0.4219 -1.9681
 3945SOL    HW315513   2.604   5.474   2.549  0.2364  1.2123 -1.8470
 3945SOL    MW415514   2.668   5.426   2.514  0.3933  0.2932  0.6302
 3946SOL     OW15515   2.244   0.217  -0.000 -0.3704  0.0838 -0.0229
 3946SOL    HW215516   2.251   0.311   0.016 -2.3494  0.0810  1.1505
 3946SOL    HW315517   2.231   0.208  -0.094  2.9810  0.7144 -0.6699
 3946SOL    MW415518   2.243   0.228  -0.010 -0.0442  0.0752 -0.0914
 3947SOL     OW15519   3.270   3.782   3.316 -0.7061 -0.2962  0.6503
 3947SOL    HW215520   3.363   3.786   3.297 -0.5994  0.3522  1.2980
 3947SOL    HW315521   3.249   3.688   3.314 -0.7044 -0.3291 -2.5895
 3947SOL    MW415522   3.279   3.770   3.313 -0.5331 -0.6879 -0.1120
 3948SOL     OW15523   0.524   3.671   0.193 -0.1473 -0.0708 -0.1154
 3948SOL    HW215524   0.548   3.580   0.176 -1.2748 -0.3935 -0.0498
 3948SOL    HW315525   0.539   3.716   0.110 -0.1664 -0.4408 -0.3204
 3948SOL    MW415526   0.529   3.665   0.180  0.0908 -0.5430 -0.3602
 3949SOL     OW15527   3.409   0.250   2.931 -0.6826  0.8356  0.0653
 3949SOL    HW215528   3.423   0.270   3.023 -1.5118  0.3433  0.3075
 3949SOL    HW315529   3.335   0.304   2.905 -1.2162  0.1003  0.0157
 3949SOL    MW415530   3.401   0.260   2.939  0.0390  0.0772 -0.2676
 3950SOL     OW15531   5.618   2.309   3.633 -0.1421  0.3529 -0.1255
 3950SOL    HW215532   5.564   2.286   3.709  1.1854 -2.4769  0.0974
 3950SOL    HW315533   5.563   2.289   3.558  0.4478 -2.5929  0.0960
 3950SOL    MW415534   5.604   2.304   3.633 -0.4008  0.3738 -0.4423
 3951SOL     OW15535   5.765   5.330   3.582  0.6286 -0.2795 -0.4673
 3951SOL    HW215536   5.669   5.324   3.575  0.6070 -1.6652  0.6210
 3951SOL    HW315537   5.797   5.254   3.533  1.2090  0.3375 -1.0715
 3951SOL    MW415538   5.756   5.319   3.574  1.1985  0.2255 -0.1577
 3952SOL     OW15539   1.613   3.165   0.854 -0.4426  0.2637 -0.9841
 3952SOL    HW215540   1.603   3.071   0.844 -0.6431  0.1559  0.1182
 3952SOL    HW315541   1.528   3.201   0.826 -0.3633  0.1227 -1.4116
 3952SOL    MW415542   1.600   3.158   0.849 -0.3206  0.1305  0.0343
 3953SOL     OW15543   4.128   2.784   1.187  0.0011 -0.3379  0.2317
 3953SOL    HW215544   4.169   2.746   1.264  2.7812 -1.0490 -1.4689
 3953SOL    HW315545   4.043   2.740   1.182  0.2840 -1.2179  2.1281
 3953SOL    MW415546   4.122   2.773   1.196 -0.0775  0.0958 -0.0555
 3954SOL     OW15547   5.093   5.885   2.828  0.4311  0.2720  0.2837
 3954SOL    HW215548   5.133   5.871   2.742 -1.5441 -1.5875 -0.4267
 3954SOL    HW315549   5.003   5.911   2.809 -0.5668 -1.8166  1.7145
 3954SOL    MW415550   5.086   5.886   2.814  0.2725  0.2132 -0.3402
 3955SOL     OW15551   0.409   0.682   6.227 -0.2988 -0.3863  0.2150
 3955SOL    HW215552   0.479   0.616   6.228  0.5647  0.4763 -0.8777
 3955SOL    HW315553   0.399   0.708   6.318 -0.6022 -1.9469  0.6599
 3955SOL    MW415554   0.417   0.676   6.239 -0.4193  0.0565 -0.4640
 3956SOL     OW15555   1.758   4.591   2.346  0.7622 -0.1390  0.0653
 3956SOL    HW215556   1.701   4.637   2.408 -0.9567  0.1032 -1.5734
 3956SOL    HW315557   1.749   4.499   2.368  2.5109  0.0768  1.9884
 3956SOL    MW415558   1.749   4.585   2.357 -0.2526  0.7828 -0.0424
 3957SOL     OW15559   3.559   4.955   5.750 -0.2869  0.2300 -0.3423
 3957SOL    HW215560   3.485   4.954   5.811  0.1481  1.0058  0.2185
 3957SOL    HW315561   3.579   5.047   5.738  0.5347  0.0347 -0.5568
 3957SOL    MW415562   3.552   4.967   5.757  0.0338 -0.1194  0.2975
 3958SOL     OW15563   5.812   3.314   5.811  0.2347 -0.2210  0.0544
 3958SOL    HW215564   5.764   3.340   5.890  0.1854 -1.2162  0.3660
 3958SOL    HW315565   5.880   3.380   5.802 -0.0496  0.1673  0.6616
 3958SOL    MW415566   5.814   3.326   5.820  0.5638 -0.6351  0.3174
 3959SOL     OW15567   3.196   5.205   1.747  0.2604 -0.1573 -0.0297
 3959SOL    HW215568   3.171   5.275   1.687 -1.0817  1.5752  2.3948
 3959SOL    HW315569   3.290   5.218   1.761  0.2875  0.3194 -0.6147
 3959SOL    MW415570   3.205   5.216   1.741  0.2597 -0.0775  0.2736
 3960SOL     OW15571   0.641   4.967   4.739  0.0005  0.8622  0.2798
 3960SOL    HW215572   0.594   4.884   4.745  1.3374  0.0053 -0.5988
 3960SOL    HW315573   0.669   4.985   4.829 -0.5264  0.5160  0.5205
 3960SOL    MW415574   0.638   4.958   4.752 -0.7364 -0.5956  0.6951
 3961SOL     OW15575   4.678   1.472   4.533 -0.2431 -0.3457  0.3905
 3961SOL    HW215576   4.659   1.468   4.439  0.6073 -0.6479  0.2193
 3961SOL    HW315577   4.655   1.385   4.566 -2.5879  0.4125  0.8944
 3961SOL    MW415578   4.673   1.460   4.525 -0.1842  0.3629  0.0147
 3962SOL     OW15579   1.076   4.833   3.081  0.3560  0.3550  0.2461
 3962SOL    HW215580   1.032   4.808   2.999  0.4464 -1.0468  0.5882
 3962SOL    HW315581   1.067   4.928   3.086 -0.0382  0.4115 -1.1685
 3962SOL    MW415582   1.069   4.842   3.071  0.0488  0.3806  0.0220
 3963SOL     OW15583   0.121   3.476   5.779  0.5563  0.4711 -0.3531
 3963SOL    HW215584   0.111   3.509   5.869  0.7704  1.0238 -0.5285
 3963SOL    HW315585   0.082   3.544   5.724 -2.9171 -1.3841 -0.5345
 3963SOL    MW415586   0.114   3.489   5.784  0.8786 -0.0930 -0.3155
 3964SOL     OW15587   5.252   3.443   0.706 -0.2962 -0.3065  0.0356
 3964SOL    HW215588   5.186   3.474   0.645  1.5110 -0.7740 -2.2946
 3964SOL    HW315589   5.313   3.517   0.715  0.9462 -1.1533 -1.0087
 3964SOL    MW415590   5.252   3.457   0.699  0.4332  0.4928  0.1067
 3965SOL     OW15591   2.402   3.051   1.343 -0.0337  0.5870  0.4366
 3965SOL    HW215592   2.464   3.059   1.270 -0.2716  1.0288  0.2839
 3965SOL    HW315593   2.445   2.991   1.404  1.4866  2.4362  1.2967
 3965SOL    MW415594   2.416   3.044   1.341  0.3062  0.2244  0.0868
 3966SOL     OW15595   4.005   2.060   2.107  0.8635 -0.5651  0.0668
 3966SOL    HW215596   4.028   1.986   2.050 -0.4513  0.0137 -1.2691
 3966SOL    HW315597   4.041   2.136   2.063  0.4582 -0.1820  0.3926
 3966SOL    MW415598   4.013   2.060   2.094  0.5355  0.2529 -0.0555
 3967SOL     OW15599   4.547   4.519   4.088  0.1334  0.2859  0.2700
 3967SOL    HW215600   4.540   4.424   4.072  1.0505 -0.1710  2.2690
 3967SOL    HW315601   4.499   4.559   4.016 -0.6091 -1.7186 -0.4169
 3967SOL    MW415602   4.540   4.512   4.076  0.5771  0.3340 -0.1756
 3968SOL     OW15603   4.186   5.324   2.337  0.1227 -0.1435  0.0566
 3968SOL    HW215604   4.207   5.336   2.244 -0.9091 -0.3208 -0.2095
 3968SOL    HW315605   4.244   5.384   2.382  0.6572 -0.0683 -0.7035
 3968SOL    MW415606   4.196   5.333   2.330 -0.2466 -0.0810 -0.0083
 3969SOL     OW15607   2.853   1.572   0.474  0.4714  0.1135  0.1609
 3969SOL    HW215608   2.932   1.539   0.431  1.5475  2.2916  0.3303
 3969SOL    HW315609   2.828   1.648   0.421 -0.2847  0.6910  1.3154
 3969SOL    MW415610   2.860   1.578   0.461  0.2334 -0.4310  0.0467
 3970SOL     OW15611   6.121   3.461   3.934  0.3045  0.3403 -0.6306
 3970SOL    HW215612   6.191   3.526   3.938 -0.0677  0.8202 -1.6098
 3970SOL    HW315613   6.063   3.485   4.007  2.1943 -1.3722  1.6014
 3970SOL    MW415614   6.122   3.473   3.944 -0.3803  0.0827  0.8086
 3971SOL     OW15615   4.778   5.838   4.661 -0.6356  0.5286 -0.6238
 3971SOL    HW215616   4.790   5.829   4.566 -1.2022 -0.3487 -0.6283
 3971SOL    HW315617   4.781   5.932   4.677  0.3248  0.6401 -1.3924
 3971SOL    MW415618   4.780   5.849   4.650 -0.2469  0.0438 -0.0598
 3972SOL     OW15619   2.701   1.462   5.186  0.3253  0.1536  0.4400
 3972SOL    HW215620   2.780   1.459   5.133  0.3718 -3.3519  0.4697
 3972SOL    HW315621   2.732   1.462   5.277  0.5375 -3.5902  0.5318
 3972SOL    MW415622   2.715   1.462   5.191 -0.5526 -0.4204 -0.7469
 3973SOL     OW15623   2.545   1.516   0.729  0.3046  0.1217  0.0777
 3973SOL    HW215624   2.529   1.608   0.706  0.4051  0.1890  0.2782
 3973SOL    HW315625   2.460   1.473   0.716  0.5135  0.0217 -1.0697
 3973SOL    MW415626   2.532   1.523   0.724 -0.1569 -0.2618 -0.0811
 3974SOL     OW15627   5.552   4.000   4.293  0.5993 -0.0408  0.6312
 3974SOL    HW215628   5.481   3.945   4.261 -0.3668  1.2468  0.4684
 3974SOL    HW315629   5.626   3.979   4.236 -0.0599 -0.3788 -0.1259
 3974SOL    MW415630   5.552   3.990   4.281 -0.2118 -0.2786  0.6719
 3975SOL     OW15631   3.580   2.828   4.646 -0.1853  0.6968  0.3907
 3975SOL    HW215632   3.539   2.910   4.620 -0.7386  0.8144  1.6151
 3975SOL    HW315633   3.663   2.853   4.687  0.0600  0.5762 -0.0117
 3975SOL    MW415634   3.586   2.842   4.648  0.1040  0.2531  0.5908
 3976SOL     OW15635   6.423   4.372   3.644 -0.1101  0.8342  0.6018
 3976SOL    HW215636   6.504   4.406   3.605 -0.6805  1.3295 -0.1850
 3976SOL    HW315637   6.413   4.421   3.725  0.0624  1.2107  0.3990
 3976SOL    MW415638   6.432   4.383   3.649  0.7473 -0.0863  0.1731
 3977SOL     OW15639   0.314   3.880   3.155 -0.6873  0.1216  0.4908
 3977SOL    HW215640   0.311   3.819   3.082 -0.8433  2.1994 -1.3504
 3977SOL    HW315641   0.224   3.884   3.187 -0.9281  0.2677 -0.1832
 3977SOL    MW415642   0.302   3.873   3.150  0.7733 -0.4577 -0.6349
 3978SOL     OW15643   4.371   4.967   5.049  0.0468  0.6324 -0.0655
 3978SOL    HW215644   4.429   4.996   5.119  1.2491 -1.3028 -0.1941
 3978SOL    HW315645   4.287   5.010   5.068  0.6581  1.0486  1.9046
 3978SOL    MW415646   4.367   4.976   5.061 -0.2881 -0.4863 -0.3825
 3979SOL     OW15647   0.534   0.094   5.164 -0.0788  0.0991 -0.3131
 3979SOL    HW215648   0.450   0.049   5.174 -0.5792  1.0280 -0.2336
 3979SOL    HW315649   0.524   0.146   5.084  0.5558 -0.0639 -0.5035
 3979SOL    MW415650   0.521   0.094   5.155 -0.0686  0.1109  0.1222
 3980SOL     OW15651   1.661   2.407   5.832 -0.1319  0.4020  0.1896
 3980SOL    HW215652   1.686   2.414   5.924  0.5715  1.0208 -0.0375
 3980SOL    HW315653   1.643   2.497   5.805  1.2175  0.4436 -0.6814
 3980SOL    MW415654   1.662   2.420   5.840 -0.3836  0.0364 -0.3805
 3981SOL     OW15655   2.943   1.059   2.662  0.5950 -0.5243  0.2477
 3981SOL    HW215656   2.996   0.986   2.633  1.0718  0.2964 -1.0620
 3981SOL    HW315657   2.913   1.100   2.581 -1.7866 -0.7670  0.9341
 3981SOL    MW415658   2.946   1.055   2.647  0.2939 -0.3711 -0.1675
 3982SOL     OW15659   3.238   3.279   4.007 -0.1716  0.1432  0.0032
 3982SOL    HW215660   3.275   3.367   4.014 -1.0935  0.6798 -1.2728
 3982SOL    HW315661   3.143   3.293   4.002 -0.3858 -0.9836  0.5718
 3982SOL    MW415662   3.230   3.292   4.007 -0.2352  0.1229  0.4941
 3983SOL     OW15663   1.848   3.158   4.127  0.0327  0.3675 -1.0273
 3983SOL    HW215664   1.787   3.090   4.099 -1.4523  0.7088  1.1465
 3983SOL    HW315665   1.794   3.237   4.132  0.5696  0.6513  1.0923
 3983SOL    MW415666   1.833   3.160   4.124  0.0258 -0.1792 -0.1059
 3984SOL     OW15667   4.018   3.810   0.243 -0.6702 -0.4812 -0.3175
 3984SOL    HW215668   4.071   3.861   0.182  0.7707  0.2031  1.4051
 3984SOL    HW315669   3.929   3.843   0.230 -0.3390 -0.0736 -1.7323
 3984SOL    MW415670   4.013   3.821   0.233 -0.2001  0.5823 -0.0634
 3985SOL     OW15671   3.180   0.759   4.272 -0.5494  0.5250 -0.1142
 3985SOL    HW215672   3.094   0.787   4.240 -0.2196  2.1988  0.3371
 3985SOL    HW315673   3.242   0.815   4.224  0.3528 -1.0648 -0.8740
 3985SOL    MW415674   3.177   0.770   4.261  0.0106 -0.2367  0.3054
 3986SOL     OW15675   3.802   2.184   5.409  0.7397  0.5984 -0.6667
 3986SOL    HW215676   3.828   2.267   5.447  0.2459  0.7665 -0.6915
 3986SOL    HW315677   3.819   2.119   5.478  1.8769  0.6014 -0.9256
 3986SOL    MW415678   3.807   2.186   5.423 -0.1207 -0.2814  0.3346
 3987SOL     OW15679   4.973   0.315   2.734  0.4177  0.0284 -0.4312
 3987SOL    HW215680   5.024   0.258   2.792 -0.8307 -0.2187  0.4536
 3987SOL    HW315681   4.994   0.404   2.764  2.9434  0.1573 -2.2882
 3987SOL    MW415682   4.983   0.319   2.746  0.1918  0.3721 -0.0818
 3988SOL     OW15683   2.050   0.128   2.767  0.3124 -0.2063  0.3202
 3988SOL    HW215684   2.049   0.055   2.830 -1.1581  0.0637  0.6583
 3988SOL    HW315685   1.995   0.195   2.808 -1.3386 -0.3218 -1.5726
 3988SOL    MW415686   2.042   0.127   2.781 -0.2665  0.5864  0.0936
 3989SOL     OW15687   1.367   1.596   2.182  0.1020  0.0646  1.1005
 3989SOL    HW215688   1.381   1.612   2.276  0.8272  0.7576  0.8769
 3989SOL    HW315689   1.400   1.507   2.168  0.2981  0.0822  1.4375
 3989SOL    MW415690   1.373   1.586   2.193 -0.1654 -0.0868 -0.2364
 3990SOL     OW15691   4.269   3.349   2.318  0.3645  0.3393 -0.2794
 3990SOL    HW215692   4.355   3.392   2.319  0.6000 -0.1320 -0.1903
 3990SOL    HW315693   4.228   3.380   2.237  0.3625  1.0587 -0.0147
 3990SOL    MW415694   4.275   3.359   2.307 -0.3022 -0.0501 -0.4771
 3991SOL     OW15695   1.297   5.480   1.507 -0.4836 -0.3330 -0.0030
 3991SOL    HW215696   1.220   5.429   1.482  0.6220 -2.1694  0.0737
 3991SOL    HW315697   1.368   5.416   1.507  1.0373  1.2841 -0.0277
 3991SOL    MW415698   1.296   5.465   1.504 -0.0103  0.2955 -0.2601
 3992SOL     OW15699   5.285   4.070   5.801 -0.2490 -0.1693  0.0472
 3992SOL    HW215700   5.260   4.101   5.888 -0.7687 -1.7495  0.4842
 3992SOL    HW315701   5.314   4.149   5.755 -0.6890  0.8061  1.3948
 3992SOL    MW415702   5.286   4.085   5.806 -0.4337 -0.4227 -0.2604
 3993SOL     OW15703   5.969   5.522   4.921  0.2210 -0.1048 -0.3234
 3993SOL    HW215704   6.048   5.556   4.878 -0.1807 -0.4098 -1.3320
 3993SOL    HW315705   5.898   5.579   4.889 -0.0767 -0.2930 -0.0019
 3993SOL    MW415706   5.970   5.534   4.911  0.1008 -0.3785  0.0028
 3994SOL     OW15707   3.645   4.279   2.304 -0.0772 -0.2514  0.7574
 3994SOL    HW215708   3.709   4.243   2.243 -0.5948  0.3801 -0.1794
 3994SOL    HW315709   3.566   4.226   2.290 -0.4667  0.4482  0.2330
 3994SOL    MW415710   3.643   4.267   2.294  0.0872 -0.1265  0.0539
 3995SOL     OW15711   5.897   5.950   3.601  0.5879 -0.2276  0.0309
 3995SOL    HW215712   5.890   5.903   3.683  0.2042 -0.9976 -0.4299
 3995SOL    HW315713   5.991   5.970   3.592  0.4400  1.3179  1.4232
 3995SOL    MW415714   5.909   5.946   3.610 -0.1692 -0.4429  0.2030
 3996SOL     OW15715   1.906   3.384   5.445 -0.2517  0.3337 -0.1725
 3996SOL    HW215716   1.908   3.337   5.361 -0.8107  1.0357 -0.5963
 3996SOL    HW315717   1.950   3.466   5.427 -0.3830  0.4920  0.2221
 3996SOL    MW415718   1.912   3.388   5.431  0.2063  0.4015 -0.2346
 3997SOL     OW15719   5.665   3.892   3.461 -0.1773  0.4561 -0.0595
 3997SOL    HW215720   5.753   3.921   3.437  0.0322 -0.8575 -0.9924
 3997SOL    HW315721   5.680   3.808   3.505 -1.0159 -0.2797 -1.1355
 3997SOL    MW415722   5.679   3.885   3.464  0.2660  0.0028  0.4977
 3998SOL     OW15723   2.297   2.542   5.940  0.1707 -1.2576 -0.1461
 3998SOL    HW215724   2.352   2.500   6.006  0.3932  2.8045  2.6135
 3998SOL    HW315725   2.210   2.544   5.979 -0.3582 -1.2612 -1.2745
 3998SOL    MW415726   2.293   2.537   5.954 -0.2479 -0.2910  0.1880
 3999SOL     OW15727   2.303   0.622   1.412  0.3197  0.2145 -0.2531
 3999SOL    HW215728   2.328   0.598   1.501  1.2505  1.1627 -0.2427
 3999SOL    HW315729   2.207   0.614   1.411  0.3901 -0.8746  0.4945
 3999SOL    MW415730   2.294   0.618   1.424  0.2834  0.3747  0.6355
 4000SOL     OW15731   3.623   4.199   3.891 -0.4059 -0.0825 -0.1845
 4000SOL    HW215732   3.684   4.209   3.965  0.0089  0.2847 -0.5699
 4000SOL    HW315733   3.560   4.270   3.902 -1.4647 -1.1345  0.8555
 4000SOL    MW415734   3.623   4.210   3.902 -0.2851  0.4636  0.1348
 4001SOL     OW15735   2.618   2.954   3.197 -0.0730 -0.0829 -0.3943
 4001SOL    HW215736   2.568   2.929   3.120  0.3692  0.9570 -1.0552
 4001SOL    HW315737   2.700   2.905   3.190  0.3099  0.6267 -1.0530
 4001SOL    MW415738   2.622   2.945   3.186 -0.0239 -0.0939  0.2174
 4002SOL     OW15739   1.468   4.620   1.165 -0.0377  0.2009  0.8177
 4002SOL    HW215740   1.415   4.700   1.161 -0.0717  0.3321  2.8808
 4002SOL    HW315741   1.404   4.549   1.155 -0.8060  0.3437  3.7176
 4002SOL    MW415742   1.452   4.621   1.163 -0.0936  0.5592 -0.6798
 4003SOL     OW15743   1.785   0.990   5.473  0.3238  0.1554  0.5188
 4003SOL    HW215744   1.710   0.973   5.415  0.2951  0.6197  0.4122
 4003SOL    HW315745   1.854   1.021   5.414  1.0018 -1.4163  0.4563
 4003SOL    MW415746   1.784   0.992   5.457  0.1829  0.6155 -0.8910
 4004SOL     OW15747   1.289   1.833   1.755  0.1884 -0.1712 -0.4741
 4004SOL    HW215748   1.228   1.839   1.829  0.4171  1.7170 -0.4095
 4004SOL    HW315749   1.233   1.816   1.679 -0.1814 -0.6558 -0.1040
 4004SOL    MW415750   1.274   1.831   1.755 -0.6733  0.7577 -0.3246
 4005SOL     OW15751   4.529   0.250   2.287  0.4401 -0.2829 -0.1568
 4005SOL    HW215752   4.533   0.233   2.381  1.3368 -2.2228 -0.5007
 4005SOL    HW315753   4.619   0.243   2.257  0.0315 -0.8312 -1.3287
 4005SOL    MW415754   4.541   0.246   2.295 -0.2645  0.8631 -0.4279
 4006SOL     OW15755   1.881   4.630   3.639  0.1554 -0.2873  0.0637
 4006SOL    HW215756   1.808   4.571   3.660  1.4518 -1.4080  1.7258
 4006SOL    HW315757   1.947   4.612   3.707  0.5275  3.3385  0.8860
 4006SOL    MW415758   1.880   4.620   3.651  0.8169 -0.2076  0.2846
 4007SOL     OW15759   5.296   4.403   2.748  0.0333 -0.6128  0.1078
 4007SOL    HW215760   5.262   4.444   2.668 -1.9454 -0.1375  1.1372
 4007SOL    HW315761   5.388   4.431   2.752 -0.7545  2.3224 -0.1635
 4007SOL    MW415762   5.304   4.412   2.738 -0.2125 -0.8362 -0.2687
 4008SOL     OW15763   4.764   4.175   4.811 -0.0780  0.1112 -0.1739
 4008SOL    HW215764   4.811   4.222   4.879 -0.1810  1.7413 -1.1785
 4008SOL    HW315765   4.740   4.091   4.851  2.2382 -0.1124  0.8757
 4008SOL    MW415766   4.767   4.170   4.825  0.0121  0.2261 -0.0506
 4009SOL     OW15767   0.352   2.337   2.910  0.0817  0.3366 -0.4162
 4009SOL    HW215768   0.298   2.304   2.839 -0.8540  0.0942  0.3950
 4009SOL    HW315769   0.290   2.371   2.974  0.9472  1.5195 -0.1760
 4009SOL    MW415770   0.337   2.337   2.909 -0.2781  0.7264 -0.6170
 4010SOL     OW15771   4.975   5.105   5.636  0.2848 -0.2028 -0.2749
 4010SOL    HW215772   5.000   5.150   5.716  0.0090 -1.5313  0.5885
 4010SOL    HW315773   4.910   5.163   5.595 -0.1564  0.1268  0.8591
 4010SOL    MW415774   4.969   5.119   5.641  0.5430 -0.1508  0.1903
 4011SOL     OW15775   1.228   1.016   5.892  0.7058  0.6664  0.3363
 4011SOL    HW215776   1.198   1.008   5.983 -1.3869  1.3573 -0.2463
 4011SOL    HW315777   1.219   1.109   5.872 -0.1865  0.3284 -0.9726
 4011SOL    MW415778   1.223   1.027   5.902  0.3351 -0.0136 -0.3754
 4012SOL     OW15779   4.340   1.453   0.030 -0.3132 -0.2966 -0.3553
 4012SOL    HW215780   4.368   1.369   0.067 -0.2544 -0.5755 -1.0193
 4012SOL    HW315781   4.250   1.439   0.001  0.0689 -0.4957 -1.5207
 4012SOL    MW415782   4.332   1.440   0.031  0.0184 -0.2940  0.6015
 4013SOL     OW15783   3.787   4.303   4.743 -0.1103 -0.2255  0.4025
 4013SOL    HW215784   3.860   4.340   4.693 -0.8682 -1.0399 -1.4166
 4013SOL    HW315785   3.759   4.375   4.800  0.3721  1.0180 -0.8439
 4013SOL    MW415786   3.793   4.318   4.744 -0.6957 -0.1667  0.6539
 4014SOL     OW15787   2.689   1.072   4.446  0.1827 -0.5244  0.2476
 4014SOL    HW215788   2.753   1.121   4.498  0.1038  0.1676 -0.2876
 4014SOL    HW315789   2.604   1.104   4.477  0.1366  0.5268 -0.8480
 4014SOL    MW415790   2.686   1.083   4.457 -0.0862  0.1912  0.3514
 4015SOL     OW15791   2.023   5.878   0.397  0.4489  0.3320  0.9638
 4015SOL    HW215792   2.101   5.934   0.400  0.1281  0.7871  1.0214
 4015SOL    HW315793   1.965   5.914   0.464  0.3878 -0.3098  1.2553
 4015SOL    MW415794   2.025   5.890   0.406  0.1344 -0.0323 -0.6142
 4016SOL     OW15795   6.229   0.031   3.313 -1.0743 -0.3837  0.3757
 4016SOL    HW215796   6.145   0.047   3.355 -1.6691  2.0635 -1.5602
 4016SOL    HW315797   6.211  -0.035   3.246 -1.6260  0.5272 -0.3987
 4016SOL    MW415798   6.216   0.024   3.310 -0.6111  0.6981 -0.7312
 4017SOL     OW15799   0.504   1.933   2.123  0.3484 -0.0691  0.1131
 4017SOL    HW215800   0.409   1.943   2.111  0.2367  1.4942  1.8441
 4017SOL    HW315801   0.541   1.971   2.043 -0.4570 -0.5150 -0.4973
 4017SOL    MW415802   0.496   1.939   2.111  0.0202  0.0846 -0.0211
 4018SOL     OW15803   3.176   5.092   0.143  0.2362 -0.4886  0.0087
 4018SOL    HW215804   3.154   5.069   0.053  1.0917  0.0119 -0.3335
 4018SOL    HW315805   3.102   5.146   0.172 -1.0581 -2.3091  0.3259
 4018SOL    MW415806   3.163   5.096   0.135 -0.3357  0.1961 -0.1530
 4019SOL     OW15807   1.860   4.978   0.890  0.5214  0.3447 -0.1741
 4019SOL    HW215808   1.917   4.917   0.843 -0.4783 -1.6943  1.0967
 4019SOL    HW315809   1.784   4.990   0.833  1.1091  1.1225 -0.8056
 4019SOL    MW415810   1.857   4.972   0.877  0.0955 -0.0549  0.0018
 4020SOL     OW15811   3.116   0.325   1.592 -0.4430  0.2976  0.2661
 4020SOL    HW215812   3.105   0.231   1.605  0.9191  0.0481 -0.2268
 4020SOL    HW315813   3.200   0.345   1.632 -0.7695  1.3399  0.4575
 4020SOL    MW415814   3.125   0.315   1.599  0.7411  0.2686  0.2593
 4021SOL     OW15815   4.563   5.155   5.164 -0.0994  0.3914 -0.3389
 4021SOL    HW215816   4.625   5.090   5.132 -0.1183  0.5107 -0.6149
 4021SOL    HW315817   4.546   5.212   5.089  0.1907  0.9330  0.0015
 4021SOL    MW415818   4.569   5.154   5.150  0.4566 -0.2191  0.3771
 4022SOL     OW15819   1.751   3.420   0.608  0.0948 -0.2589 -0.5343
 4022SOL    HW215820   1.812   3.479   0.564  0.0954 -1.8856 -2.9658
 4022SOL    HW315821   1.668   3.469   0.609  0.6752  0.7418 -0.1564
 4022SOL    MW415822   1.748   3.435   0.602 -0.0197 -0.5987  0.2463
 4023SOL     OW15823   3.492   4.432   3.893  0.3530  0.2733  0.1969
 4023SOL    HW215824   3.415   4.466   3.938 -1.6788 -0.9875 -2.1299
 4023SOL    HW315825   3.528   4.508   3.847 -0.0348  0.6752  0.5521
 4023SOL    MW415826   3.487   4.447   3.893  0.0028  0.2421  0.2776
 4024SOL     OW15827   0.286   1.536   0.534 -0.4813  0.8942 -0.3847
 4024SOL    HW215828   0.345   1.518   0.607 -1.8896  1.9816  1.0722
 4024SOL    HW315829   0.240   1.616   0.558 -1.5418  0.8701 -2.1179
 4024SOL    MW415830   0.288   1.544   0.547  0.5834 -0.1149  0.0895
 4025SOL     OW15831   3.550   1.062   0.963 -0.9120  0.2978  0.5017
 4025SOL    HW215832   3.539   1.017   0.879 -0.0260 -0.1967  0.6362
 4025SOL    HW315833   3.613   1.131   0.946 -0.8469  0.2948  0.7245
 4025SOL    MW415834   3.556   1.065   0.950  0.0241 -0.2245 -0.1308
 4026SOL     OW15835   2.884   5.441   5.815  0.0157 -0.2108  0.0132
 4026SOL    HW215836   2.791   5.439   5.794  0.6200 -0.5242 -3.1821
 4026SOL    HW315837   2.908   5.349   5.825  0.0743 -0.1687  0.2481
 4026SOL    MW415838   2.875   5.428   5.813 -0.0398 -0.0314  0.1633
 4027SOL     OW15839   3.104   3.716   1.372 -0.4837  0.1318 -0.3205
 4027SOL    HW215840   3.051   3.767   1.310 -0.0374  0.5523 -0.3632
 4027SOL    HW315841   3.065   3.734   1.458 -1.6623 -1.1553 -0.5547
 4027SOL    MW415842   3.092   3.725   1.375  0.0440 -0.2117 -0.0302
 4028SOL     OW15843   4.333   2.250   1.357  0.2342 -0.1527 -0.0134
 4028SOL    HW215844   4.305   2.223   1.445  1.2995 -0.5781  0.2101
 4028SOL    HW315845   4.289   2.334   1.343  1.6958  1.0147  1.8215
 4028SOL    MW415846   4.323   2.258   1.367 -0.2277  0.2417  0.0955
 4029SOL     OW15847   0.558   0.209   4.911 -0.3605  0.0399  0.0004
 4029SOL    HW215848   0.578   0.301   4.930 -1.3980 -0.3786  4.0928
 4029SOL    HW315849   0.462   0.204   4.917 -0.2142 -1.6990  3.1313
 4029SOL    MW415850   0.548   0.221   4.914 -0.0360 -0.1877  0.0796
 4030SOL     OW15851   4.611   3.621   2.855  0.1975 -0.4952 -0.1885
 4030SOL    HW215852   4.701   3.655   2.855 -0.2769  0.9786 -1.9971
 4030SOL    HW315853   4.607   3.564   2.778 -0.7185  0.4661 -0.8827
 4030SOL    MW415854   4.622   3.618   2.845 -0.1234  0.1347  0.2902
 4031SOL     OW15855   3.537   2.897   1.696  0.1467 -0.3362  0.4526
 4031SOL    HW215856   3.486   2.833   1.647  1.1155 -1.3272  0.7065
 4031SOL    HW315857   3.473   2.962   1.725 -0.6005 -0.2755 -1.2232
 4031SOL    MW415858   3.522   2.897   1.693  0.5599  0.0376  0.4427
 4032SOL     OW15859   4.872   1.605   2.612  0.3911 -0.3364 -0.6902
 4032SOL    HW215860   4.823   1.579   2.690 -0.1034  2.0125 -0.1429
 4032SOL    HW315861   4.825   1.566   2.539 -0.6169 -0.5120  0.0342
 4032SOL    MW415862   4.859   1.597   2.613 -0.3573  0.0343  0.0563
 4033SOL     OW15863   1.164   4.522   6.391 -0.0901 -0.4362  0.0807
 4033SOL    HW215864   1.194   4.480   6.472 -0.2628 -0.2040  0.2666
 4033SOL    HW315865   1.068   4.518   6.395 -0.0969 -0.6750 -0.2471
 4033SOL    MW415866   1.155   4.516   6.402  0.1675 -0.4195  0.0424
 4034SOL     OW15867   0.661   4.008   2.906 -0.5690 -0.2362  0.3872
 4034SOL    HW215868   0.652   4.058   2.825  3.2268  0.0003 -0.0753
 4034SOL    HW315869   0.700   4.069   2.968  0.5061 -1.5176  1.0385
 4034SOL    MW415870   0.665   4.022   2.903 -0.3848  0.8016 -0.7266
 4035SOL     OW15871   1.906   6.202   0.585 -0.0241  0.1355 -0.2797
 4035SOL    HW215872   1.946   6.215   0.499  0.0375  2.0346 -0.0112
 4035SOL    HW315873   1.980   6.188   0.644  0.0631  0.6500 -0.2605
 4035SOL    MW415874   1.921   6.202   0.581  0.6379  0.9656 -0.4014
 4036SOL     OW15875   4.084   1.467   4.030 -0.5467 -0.0135  0.2623
 4036SOL    HW215876   4.138   1.520   4.088  0.4486  1.8967 -2.2117
 4036SOL    HW315877   4.008   1.523   4.011  0.7216  0.9031 -2.7297
 4036SOL    MW415878   4.081   1.482   4.035 -0.1377  0.4554 -0.8120
 4037SOL     OW15879   2.117   3.870   3.722  0.6071  0.0053  0.0644
 4037SOL    HW215880   2.118   3.914   3.637 -0.7793 -1.4067 -0.7235
 4037SOL    HW315881   2.027   3.843   3.734  0.9815 -0.6924  1.5542
 4037SOL    MW415882   2.106   3.872   3.712  0.3060  0.2654  0.2983
 4038SOL     OW15883   3.700   2.543   0.250 -0.6441 -0.2603 -0.4302
 4038SOL    HW215884   3.693   2.494   0.168 -3.9155 -1.5961  0.4910
 4038SOL    HW315885   3.664   2.630   0.229  3.8157  1.5652 -1.6853
 4038SOL    MW415886   3.694   2.548   0.236  0.1520 -0.0826  0.3872
 4039SOL     OW15887   5.615   0.646   5.084  0.1138 -0.3340  0.3528
 4039SOL    HW215888   5.545   0.639   5.020  0.8406 -1.2614 -0.3560
 4039SOL    HW315889   5.662   0.726   5.059 -0.6068  0.2357  0.7702
 4039SOL    MW415890   5.612   0.656   5.072  0.4769  0.1208  0.0969
 4040SOL     OW15891   3.389   0.473   0.922 -0.4114 -0.0558  0.1253
 4040SOL    HW215892   3.334   0.495   0.846 -0.6636 -1.6793 -0.2200
 4040SOL    HW315893   3.327   0.437   0.986  0.0489 -0.5906  0.2816
 4040SOL    MW415894   3.373   0.471   0.920 -0.2678  0.6281 -0.0026
 4041SOL     OW15895   0.632   3.060   3.332 -0.2622 -0.0174  0.6553
 4041SOL    HW215896   0.577   3.082   3.407 -1.0634  0.5719 -0.0911
 4041SOL    HW315897   0.705   3.122   3.336  0.3154 -0.7203  1.5723
 4041SOL    MW415898   0.635   3.071   3.343  0.5895 -0.6478  0.6408
 4042SOL     OW15899   2.622   3.144   3.424 -0.6052 -0.9094  0.2018
 4042SOL    HW215900   2.635   3.086   3.348 -0.4624 -0.2984 -0.2476
 4042SOL    HW315901   2.669   3.224   3.401  0.7311 -1.2671  1.5945
 4042SOL    MW415902   2.630   3.147   3.411 -0.2955 -0.3443  0.5027
 4043SOL     OW15903   1.539   4.458   4.662 -0.2259  0.2953 -1.0340
 4043SOL    HW215904   1.632   4.475   4.644 -0.5093  0.1900 -2.7752
 4043SOL    HW315905   1.503   4.544   4.682  0.7329  0.0271  2.4674
 4043SOL    MW415906   1.547   4.472   4.662 -0.4861 -0.1549  0.3418
 4044SOL     OW15907   0.046   6.047   0.239 -0.1217 -0.1205 -0.6265
 4044SOL    HW215908  -0.044   6.028   0.214 -0.6092  1.0503  0.1603
 4044SOL    HW315909   0.049   6.142   0.250  0.6512 -0.3349  1.3948
 4044SOL    MW415910   0.035   6.057   0.237  0.5042  0.6393 -0.0556
 4045SOL     OW15911   2.818   0.580   4.942  0.2337 -0.0631 -0.1442
 4045SOL    HW215912   2.856   0.665   4.965  1.1861 -1.1014  2.5443
 4045SOL    HW315913   2.726   0.598   4.925  0.5237  1.5653 -0.1320
 4045SOL    MW415914   2.811   0.593   4.943  0.2110 -0.3355 -0.4689
 4046SOL     OW15915   2.462   2.441   3.224 -0.3050  0.3252  0.3253
 4046SOL    HW215916   2.481   2.531   3.248  0.8918  0.0393  0.5135
 4046SOL    HW315917   2.514   2.388   3.286 -2.9950 -0.5720  1.9989
 4046SOL    MW415918   2.471   2.446   3.235 -0.3743 -0.2911  0.4377
 4047SOL     OW15919   4.057   0.538   4.064 -0.0224 -0.4325 -0.1647
 4047SOL    HW215920   4.102   0.550   4.148 -0.6224 -1.2321  0.2842
 4047SOL    HW315921   4.128   0.539   3.999  0.5921 -1.0856  0.4737
 4047SOL    MW415922   4.073   0.540   4.067  0.4822  0.0358  0.1101
 4048SOL     OW15923   2.241   5.613   2.766 -0.2551 -0.8793 -0.2197
 4048SOL    HW215924   2.239   5.608   2.861 -0.6229 -1.4687 -0.2522
 4048SOL    HW315925   2.301   5.685   2.747 -1.8740  0.7373  0.5062
 4048SOL    MW415926   2.248   5.622   2.776 -0.1758  0.1411  0.1847
 4049SOL     OW15927   2.707   0.887   6.210  0.2842 -0.1187 -0.1862
 4049SOL    HW215928   2.623   0.842   6.222 -0.9820  1.6507 -1.7603
 4049SOL    HW315929   2.772   0.825   6.241 -1.5947 -1.5641  1.1049
 4049SOL    MW415930   2.705   0.873   6.215 -0.6686  0.5983 -0.3152
 4050SOL     OW15931   0.898   3.648   5.881 -0.2694  0.1414  0.4552
 4050SOL    HW215932   0.935   3.568   5.844 -0.3567 -0.4377  1.5534
 4050SOL    HW315933   0.940   3.719   5.834  0.5260 -0.5438  0.1155
 4050SOL    MW415934   0.908   3.647   5.870 -0.3393 -0.4272  0.2416
 4051SOL     OW15935   0.994   2.093   3.699  0.1907 -0.3296  0.1161
 4051SOL    HW215936   0.941   2.085   3.620 -0.5801 -1.1105  0.6909
 4051SOL    HW315937   1.016   2.003   3.723 -0.1101 -0.1525  1.1221
 4051SOL    MW415938   0.990   2.080   3.692 -0.0763 -0.6596  0.5778
 4052SOL     OW15939   4.502   4.997   4.781 -0.6490 -0.1674 -0.6225
 4052SOL    HW215940   4.590   5.026   4.803 -1.2010  1.3700 -0.3015
 4052SOL    HW315941   4.460   4.980   4.865 -1.0654  0.4099 -0.7061
 4052SOL    MW415942   4.508   4.998   4.795 -0.2430 -0.2075 -0.5350
 4053SOL     OW15943   1.525   3.537   4.879  0.2584  0.2449 -0.0162
 4053SOL    HW215944   1.513   3.446   4.852  0.5017  0.3644 -0.5352
 4053SOL    HW315945   1.451   3.554   4.938  1.3146 -0.9006  1.7098
 4053SOL    MW415946   1.513   3.527   4.883 -0.1804  0.4253 -0.1419
 4054SOL     OW15947   1.793   2.247   3.632 -0.3657 -0.6049 -0.4548
 4054SOL    HW215948   1.868   2.190   3.652  0.0281  0.0914  0.0794
 4054SOL    HW315949   1.718   2.188   3.630  0.2652 -1.3994 -1.5159
 4054SOL    MW415950   1.793   2.232   3.634 -0.2588 -0.0282  0.1656
 4055SOL     OW15951   2.364   0.573   4.260  0.1134  0.6418  0.2073
 4055SOL    HW215952   2.411   0.637   4.207 -0.8732  1.0349 -0.2120
 4055SOL    HW315953   2.329   0.511   4.196  2.0183 -1.0350  0.6686
 4055SOL    MW415954   2.366   0.573   4.244  0.2265 -0.6198 -0.1608
 4056SOL     OW15955   3.128   4.728   2.930 -0.8019  0.3028 -0.3662
 4056SOL    HW215956   3.114   4.814   2.971  1.4452 -0.1676  1.6403
 4056SOL    HW315957   3.108   4.665   2.999  0.4367 -0.6428 -0.8264
 4056SOL    MW415958   3.124   4.731   2.945 -0.1975 -0.4046 -0.0409
 4057SOL     OW15959   0.711   0.416   3.648  0.0085  0.0897 -0.0049
 4057SOL    HW215960   0.706   0.327   3.613  0.7340 -0.3587  0.9764
 4057SOL    HW315961   0.661   0.413   3.729 -0.9798  0.9085 -0.5565
 4057SOL    MW415962   0.704   0.404   3.654  0.1807  0.1771 -0.1870
 4058SOL     OW15963   4.627   3.317   5.712 -0.0540  0.0164 -0.3517
 4058SOL    HW215964   4.649   3.404   5.743 -1.5137  0.1843  0.2939
 4058SOL    HW315965   4.712   3.277   5.691  0.6727  1.3743 -0.1304
 4058SOL    MW415966   4.641   3.323   5.714  0.3692 -0.1415  0.4620
 4059SOL     OW15967   4.912   4.605   5.553  0.5024  0.4081  0.1248
 4059SOL    HW215968   4.832   4.553   5.544  0.7412  0.4087 -2.7701
 4059SOL    HW315969   4.959   4.562   5.625 -3.1946  2.1117  3.9941
 4059SOL    MW415970   4.907   4.592   5.561 -0.5201  0.2415 -0.0009
 4060SOL     OW15971   1.888   0.266   0.694 -0.0184  0.2213  0.5445
 4060SOL    HW215972   1.866   0.200   0.627  0.4717 -0.0091  0.6048
 4060SOL    HW315973   1.983   0.261   0.702  0.0044  0.8069  0.6909
 4060SOL    MW415974   1.897   0.257   0.686 -0.3558 -0.0133  0.1531
 4061SOL     OW15975   5.548   0.107   4.104 -0.1657 -0.3469 -0.6532
 4061SOL    HW215976   5.607   0.055   4.049  1.0030  1.3178 -1.0471
 4061SOL    HW315977   5.506   0.168   4.043 -0.8086 -0.1964 -0.0764
 4061SOL    MW415978   5.550   0.108   4.089 -0.1635  0.1640 -0.0666
 4062SOL     OW15979   1.131   2.986   1.354  0.0742  0.6126 -0.7440
 4062SOL    HW215980   1.165   3.065   1.397 -0.7153  0.3961  0.3000
 4062SOL    HW315981   1.071   3.020   1.287  1.4333  0.9539 -1.8360
 4062SOL    MW415982   1.128   3.001   1.350 -0.1151 -0.3793  0.3751
 4063SOL     OW15983   1.693   5.043   1.856 -0.6145 -0.5639  0.6048
 4063SOL    HW215984   1.621   5.098   1.890 -0.8179 -1.1254  1.1018
 4063SOL    HW315985   1.738   5.013   1.934  0.4821  0.1818  0.2789
 4063SOL    MW415986   1.689   5.046   1.871 -0.1718 -0.1613 -0.3044
 4064SOL     OW15987   0.082   1.072   3.319 -0.0358 -0.3700  0.2252
 4064SOL    HW215988   0.103   0.993   3.270  0.2994  0.7152 -1.4388
 4064SOL    HW315989  -0.004   1.054   3.357  0.4711 -1.8955  0.7170
 4064SOL    MW415990   0.073   1.060   3.318 -0.3871 -0.0612 -0.2314
 4065SOL     OW15991   6.392   1.513   3.847 -0.0977 -0.0841  0.5075
 4065SOL    HW215992   6.326   1.558   3.794 -0.4788  0.3340  1.3151
 4065SOL    HW315993   6.475   1.553   3.822 -0.2486 -0.0350  0.0799
 4065SOL    MW415994   6.394   1.524   3.837  0.2349 -0.1391  0.3094
 4066SOL     OW15995   5.706   6.282   2.320  0.1447  0.1754  0.4413
 4066SOL    HW215996   5.696   6.369   2.357  0.0645  0.9052 -1.2345
 4066SOL    HW315997   5.795   6.279   2.286  0.0604 -0.3048  0.2456
 4066SOL    MW415998   5.716   6.293   2.321 -0.0431  0.5021  0.0487
 4067SOL     OW15999   1.854   2.156   6.196 -0.9795 -0.2894 -0.3888
 4067SOL    HW216000   1.803   2.228   6.158 -0.5762 -0.1227 -0.6191
 4067SOL    HW316001   1.895   2.113   6.122  2.1747  1.8173 -0.0588
 4067SOL    MW416002   1.853   2.160   6.181  0.2159  0.0404  0.2872
 4068SOL     OW16003   0.910   2.816   0.824 -0.0307 -0.3086  0.1076
 4068SOL    HW216004   0.914   2.811   0.920  1.6965 -2.1131 -0.0125
 4068SOL    HW316005   0.952   2.900   0.803  1.1014 -0.6652  0.8717
 4068SOL    MW416006   0.916   2.827   0.834  0.3501 -0.1175 -0.1147
 4069SOL     OW16007   6.435   2.046   0.481 -0.0994  0.4433  0.1229
 4069SOL    HW216008   6.508   2.009   0.431  1.8630  1.9682  1.7001
 4069SOL    HW316009   6.434   2.139   0.456  0.2154  0.9964  2.0009
 4069SOL    MW416010   6.445   2.053   0.471 -0.6195  0.1747  0.7152
 4070SOL     OW16011   2.241   1.114   0.444  0.3506 -0.0671 -0.0334
 4070SOL    HW216012   2.329   1.131   0.412 -0.2804  4.4869  0.0422
 4070SOL    HW316013   2.194   1.078   0.369  1.3483  1.1921 -1.3122
 4070SOL    MW416014   2.246   1.112   0.430  0.1261 -0.1532 -0.0035
 4071SOL     OW16015   5.244   2.632   0.255  0.0501  0.8775 -0.2492
 4071SOL    HW216016   5.327   2.618   0.209  0.2348  1.6462 -0.1601
 4071SOL    HW316017   5.249   2.573   0.331 -0.0052  0.0434 -0.8736
 4071SOL    MW416018   5.256   2.622   0.259  0.6989  0.5350  0.4404
 4072SOL     OW16019   4.574   3.472   6.081 -0.1314 -0.7607 -0.0783
 4072SOL    HW216020   4.490   3.429   6.064 -1.4476  2.0092 -1.2565
 4072SOL    HW316021   4.605   3.500   5.995  0.5431  0.7029  0.5951
 4072SOL    MW416022   4.567   3.470   6.068 -0.0716 -0.3140 -0.4116
 4073SOL     OW16023   0.964   2.343   4.614 -0.2736  0.7882  0.2942
 4073SOL    HW216024   0.961   2.247   4.604 -0.0416  0.7630  0.4756
 4073SOL    HW316025   1.030   2.358   4.682 -1.1467  1.0177  1.1121
 4073SOL    MW416026   0.972   2.332   4.621  0.7602 -0.1394 -0.0286
 4074SOL     OW16027   3.938   3.344   0.782  0.5609  0.1788 -0.0758
 4074SOL    HW216028   3.983   3.283   0.841  1.3720  1.3232  0.5255
 4074SOL    HW316029   3.996   3.351   0.706 -0.3447 -1.0679 -0.9339
 4074SOL    MW416030   3.951   3.337   0.780  0.5670  0.3829  0.6068
 4075SOL     OW16031   5.717   0.139   2.400 -0.2916  0.7993  0.1197
 4075SOL    HW216032   5.691   0.173   2.314  2.1643  3.4553  0.2707
 4075SOL    HW316033   5.746   0.216   2.449  1.8474 -1.0432  2.0137
 4075SOL    MW416034   5.718   0.153   2.395 -0.0486  0.3202 -0.1220
 4076SOL     OW16035   0.578   3.502   4.377 -0.3171  0.0097  0.2903
 4076SOL    HW216036   0.616   3.415   4.385 -0.8300 -0.2131  0.3853
 4076SOL    HW316037   0.649   3.558   4.345  0.4116 -0.1295  1.6174
 4076SOL    MW416038   0.592   3.498   4.374  0.0991 -0.5623 -0.1561
 4077SOL     OW16039   0.833   4.814   2.644 -0.0991  0.1803 -0.2304
 4077SOL    HW216040   0.752   4.854   2.677  0.2166 -1.4872  2.9541
 4077SOL    HW316041   0.803   4.736   2.596 -0.4158  0.5727 -0.6874
 4077SOL    MW416042   0.818   4.809   2.642 -0.1772  0.2925 -0.2835
 4078SOL     OW16043   6.030   2.026   3.033 -0.0099 -0.0596  0.1267
 4078SOL    HW216044   6.016   1.934   3.058  1.0046 -0.4704 -0.7227
 4078SOL    HW316045   5.981   2.076   3.098  0.1656 -1.1667  1.1568
 4078SOL    MW416046   6.021   2.020   3.045 -0.0259 -0.1881  0.0910
 4079SOL     OW16047   5.010   1.625   5.059 -0.0227  1.1829 -0.1609
 4079SOL    HW216048   5.068   1.611   5.134 -1.7051 -0.0097  0.9783
 4079SOL    HW316049   5.037   1.559   4.995 -0.1927  0.5373  0.4220
 4079SOL    MW416050   5.021   1.615   5.060  0.3588 -0.0202  0.0984
 4080SOL     OW16051   0.532   5.125   5.054  0.5031  0.4163 -0.2705
 4080SOL    HW216052   0.486   5.044   5.034  0.3000  0.9591 -2.1967
 4080SOL    HW316053   0.617   5.117   5.011  0.5629  1.1309 -0.3077
 4080SOL    MW416054   0.537   5.113   5.046  0.7446 -0.3677  0.3276
 4081SOL     OW16055   0.280   4.128   2.536 -0.1071  0.1629  0.0161
 4081SOL    HW216056   0.255   4.040   2.507 -1.0248  0.1526  0.8184
 4081SOL    HW316057   0.334   4.162   2.464  0.2601 -1.0461 -0.3041
 4081SOL    MW416058   0.284   4.121   2.522  0.1108 -0.6968 -0.2464
 4082SOL     OW16059   5.242   5.461   1.123 -0.0476 -0.2193  0.4781
 4082SOL    HW216060   5.238   5.389   1.060 -1.3084 -0.5849  0.9507
 4082SOL    HW316061   5.218   5.539   1.073 -0.4957 -0.4207  0.3777
 4082SOL    MW416062   5.239   5.462   1.108  0.5416 -0.3793 -0.1173
 4083SOL     OW16063   0.533   4.143   4.638 -0.4754  0.5250 -0.2855
 4083SOL    HW216064   0.448   4.177   4.667 -1.0199 -0.9282 -0.0651
 4083SOL    HW316065   0.529   4.147   4.542 -1.9203 -1.9455 -0.4189
 4083SOL    MW416066   0.521   4.148   4.629 -0.0705  0.4261  0.2471
 4084SOL     OW16067   5.849   3.779   0.209 -0.7100  0.1234 -0.3826
 4084SOL    HW216068   5.838   3.701   0.264  0.5513  0.2719  0.1157
 4084SOL    HW316069   5.864   3.850   0.271  0.2576  0.3808 -0.8919
 4084SOL    MW416070   5.850   3.778   0.225  0.3131  0.4211 -0.1731
 4085SOL     OW16071   4.140   1.856   5.082 -0.2745  0.1922  0.2971
 4085SOL    HW216072   4.216   1.816   5.040 -0.9378 -0.3100 -0.4680
 4085SOL    HW316073   4.145   1.949   5.057  0.5571  0.3426  0.9888
 4085SOL    MW416074   4.151   1.863   5.073  0.6208 -0.4933  0.2080
 4086SOL     OW16075   1.746   3.876   6.328  0.6860  0.1737 -0.1195
 4086SOL    HW216076   1.799   3.876   6.407  1.3076  0.5715 -0.5221
 4086SOL    HW316077   1.803   3.838   6.261  0.5230  0.7442 -0.5950
 4086SOL    MW416078   1.761   3.871   6.329  0.0970  0.1769 -0.0958
 4087SOL     OW16079   4.050   2.528   1.801  0.4865  0.0207 -0.3763
 4087SOL    HW216080   4.009   2.575   1.874 -1.7573 -1.0313 -0.8878
 4087SOL    HW316081   4.032   2.436   1.819  2.7192 -0.5231 -0.6448
 4087SOL    MW416082   4.043   2.522   1.813 -0.0042  0.2225  0.9663
 4088SOL     OW16083   4.101   1.212   0.532 -0.1717 -0.1594  0.3143
 4088SOL    HW216084   4.045   1.269   0.479 -1.4987 -1.8107 -0.1426
 4088SOL    HW316085   4.105   1.256   0.617  0.1374  1.3802 -0.4580
 4088SOL    MW416086   4.094   1.226   0.536 -0.4954 -0.7279 -0.2263
 4089SOL     OW16087   3.311   2.580   2.832 -0.4315  0.5107  1.0970
 4089SOL    HW216088   3.243   2.525   2.871 -1.4231  0.1161 -1.0832
 4089SOL    HW316089   3.358   2.522   2.772  0.3398  1.3779  0.8405
 4089SOL    MW416090   3.309   2.565   2.829  0.3382 -0.4431  0.0163
 4090SOL     OW16091   5.360   2.155   2.846  0.0139  0.4514  0.4149
 4090SOL    HW216092   5.360   2.115   2.932 -2.7575  1.2417  0.8645
 4090SOL    HW316093   5.344   2.082   2.785  0.1407  0.1678  0.7193
 4090SOL    MW416094   5.358   2.140   2.849 -0.7141 -0.4769 -0.8731
 4091SOL     OW16095   2.548   3.535   5.888  0.1578 -0.0421  0.2504
 4091SOL    HW216096   2.477   3.542   5.825 -0.2038 -1.5775  0.4376
 4091SOL    HW316097   2.548   3.618   5.935 -1.7938 -0.1593  0.5284
 4091SOL    MW416098   2.539   3.547   5.886 -0.1107 -0.1714  0.0324
 4092SOL     OW16099   0.045   1.401   1.251  0.1292  0.0041 -0.1266
 4092SOL    HW216100  -0.005   1.454   1.189  0.1948 -1.6535 -1.6775
 4092SOL    HW316101  -0.020   1.362   1.309 -0.2128 -0.4897 -0.8258
 4092SOL    MW416102   0.030   1.403   1.251 -0.0928 -0.0604  0.3167
 4093SOL     OW16103   4.910   6.258   0.281 -0.5099 -0.0914 -0.0530
 4093SOL    HW216104   4.993   6.283   0.240 -0.2594 -2.2407 -0.9858
 4093SOL    HW316105   4.915   6.294   0.369  1.0850  0.4570 -0.3424
 4093SOL    MW416106   4.922   6.266   0.287 -0.6986 -0.0961  0.6344
 4094SOL     OW16107   3.763   1.740   4.424  0.0180 -0.6170 -0.6234
 4094SOL    HW216108   3.811   1.766   4.502 -2.2887 -1.3419  1.1361
 4094SOL    HW316109   3.757   1.820   4.371 -1.0254  0.7284  1.4215
 4094SOL    MW416110   3.769   1.754   4.427  1.0263  0.5796 -0.0213
 4095SOL     OW16111   1.161   2.387   1.240 -0.3486  0.1479 -0.0424
 4095SOL    HW216112   1.241   2.387   1.291 -0.2766  0.0388 -0.1539
 4095SOL    HW316113   1.129   2.477   1.245 -0.8188 -0.0608  0.9351
 4095SOL    MW416114   1.167   2.398   1.247  0.4350  0.2063  0.3895
 4096SOL     OW16115   4.646   3.922   2.844 -0.0543  0.6112 -0.1521
 4096SOL    HW216116   4.662   3.986   2.774  0.9094  0.7495  0.1832
 4096SOL    HW316117   4.576   3.867   2.810  1.0146  0.0930 -1.6444
 4096SOL    MW416118   4.639   3.924   2.830 -0.6575  0.1148 -0.6943
 4097SOL     OW16119   1.607   4.318   1.563  0.0969  0.0662  0.4948
 4097SOL    HW216120   1.513   4.337   1.560  0.1166  0.2336  0.8322
 4097SOL    HW316121   1.650   4.402   1.544  0.1836 -0.3542 -1.3145
 4097SOL    MW416122   1.600   4.332   1.560  0.0625 -0.3028  0.4511
 4098SOL     OW16123   5.210   5.450   0.105 -0.2292  0.1988 -0.4623
 4098SOL    HW216124   5.220   5.513   0.177  0.1986  0.3360 -0.6367
 4098SOL    HW316125   5.117   5.453   0.082 -0.0129  1.5709 -1.2009
 4098SOL    MW416126   5.199   5.458   0.112  0.2310  0.0503 -0.5502
 4099SOL     OW16127   2.804   3.588   5.105  0.5236  0.1173 -0.5912
 4099SOL    HW216128   2.714   3.565   5.130 -0.2326  1.8771 -1.5482
 4099SOL    HW316129   2.838   3.508   5.066 -0.2909 -0.8596  0.5973
 4099SOL    MW416130   2.796   3.574   5.103  0.1331  0.0642 -0.0271
 4100SOL     OW16131   3.322   5.281   2.180  0.3675  0.1121 -0.5826
 4100SOL    HW216132   3.399   5.233   2.208 -0.8011 -1.4765  0.0649
 4100SOL    HW316133   3.253   5.255   2.241 -1.4744 -0.9665 -2.9416
 4100SOL    MW416134   3.323   5.271   2.192 -0.0784 -0.0418  0.5415
 4101SOL     OW16135   0.536   4.172   5.290 -0.5195 -0.6525 -0.6102
 4101SOL    HW216136   0.504   4.177   5.200 -0.9392 -0.1955 -0.4379
 4101SOL    HW316137   0.462   4.200   5.344 -0.0115 -0.1217 -0.1731
 4101SOL    MW416138   0.522   4.176   5.285 -0.1753 -0.8905  0.0004
 4102SOL     OW16139   3.502   0.100   6.128  0.0448 -0.2322  0.3857
 4102SOL    HW216140   3.457   0.091   6.044 -0.0851  2.2964  0.1084
 4102SOL    HW316141   3.595   0.095   6.107 -0.0066 -1.0831  0.3291
 4102SOL    MW416142   3.508   0.098   6.114 -0.1562  0.0523 -0.2950
 4103SOL     OW16143   3.444   4.821   5.081 -0.0885  0.0474 -0.3723
 4103SOL    HW216144   3.404   4.884   5.020 -3.0163  0.0024  1.3373
 4103SOL    HW316145   3.479   4.875   5.152 -1.0295 -0.1268  0.2376
 4103SOL    MW416146   3.444   4.837   5.082 -0.1001  0.3478  0.3356
 4104SOL     OW16147   3.268   1.707   0.492  0.1816 -0.1993  0.0711
 4104SOL    HW216148   3.194   1.767   0.489  0.9957  0.8639  0.3879
 4104SOL    HW316149   3.264   1.668   0.579 -0.0061 -0.1411  0.0885
 4104SOL    MW416150   3.258   1.710   0.503 -0.6011 -0.2313 -0.2697
 4105SOL     OW16151   4.804   3.068   1.715  0.6733 -0.5394  0.2326
 4105SOL    HW216152   4.710   3.072   1.698  0.4948 -0.3414  1.1756
 4105SOL    HW316153   4.839   3.009   1.648  0.1792  0.8387 -1.3044
 4105SOL    MW416154   4.796   3.061   1.704 -0.2806 -0.1334  0.4495
 4106SOL     OW16155   5.928   4.370   4.879  0.3744  0.6981  0.0749
 4106SOL    HW216156   5.935   4.447   4.935 -0.5139  2.3507 -1.9608
 4106SOL    HW316157   6.014   4.328   4.886  0.7642  1.6539  1.5117
 4106SOL    MW416158   5.940   4.375   4.887 -0.0715 -0.4214 -0.0588
 4107SOL     OW16159   6.436   0.201   2.928 -0.3842  0.4945 -0.0522
 4107SOL    HW216160   6.467   0.197   2.837  1.4173  2.7872  0.3733
 4107SOL    HW316161   6.479   0.127   2.971  0.1786  0.4495 -0.6749
 4107SOL    MW416162   6.446   0.191   2.922 -0.1998  0.1370 -0.1996
 4108SOL     OW16163   4.497   3.147   0.205  0.2165 -0.3141 -0.2572
 4108SOL    HW216164   4.459   3.061   0.185  1.7394 -0.7241 -1.5979
 4108SOL    HW316165   4.556   3.130   0.279  2.0028 -0.9054 -1.7350
 4108SOL    MW416166   4.500   3.133   0.212  0.2932  0.0915 -0.1365
 4109SOL     OW16167   0.947   6.135   6.058 -0.1886  0.5862  0.3052
 4109SOL    HW216168   0.863   6.166   6.025 -1.2762 -0.9436  1.4611
 4109SOL    HW316169   0.939   6.039   6.057  1.6583  0.3939  0.1872
 4109SOL    MW416170   0.935   6.126   6.054 -0.1384  0.5975  0.5820
 4110SOL     OW16171   2.334   2.533   4.196  0.1905  0.6234  0.3988
 4110SOL    HW216172   2.425   2.530   4.226  0.2252  0.2311  0.2657
 4110SOL    HW316173   2.282   2.540   4.276  0.3779  2.0067  0.4223
 4110SOL    MW416174   2.339   2.533   4.210  0.1439  0.5497  0.2189
 4111SOL     OW16175   4.010   5.091   0.790 -0.2833 -0.1574  0.0154
 4111SOL    HW216176   3.965   5.007   0.789  0.4447 -0.5851 -2.1054
 4111SOL    HW316177   3.993   5.129   0.704  0.0691  1.5072  0.6445
 4111SOL    MW416178   4.002   5.085   0.778  0.3610  0.2339 -0.2032
 4112SOL     OW16179   3.234   4.036   2.490 -0.2364  0.7260 -0.0985
 4112SOL    HW216180   3.186   3.961   2.455 -0.1272 -0.2178  1.6607
 4112SOL    HW316181   3.182   4.064   2.566 -0.3197  2.5041 -0.7709
 4112SOL    MW416182   3.221   4.030   2.495 -0.5836 -0.4288 -0.4143
 4113SOL     OW16183   4.970   3.072   5.846  0.1302 -0.6268 -0.2438
 4113SOL    HW216184   5.016   3.125   5.911  0.1266 -1.4234  0.4136
 4113SOL    HW316185   4.886   3.051   5.887 -1.1564  1.3317 -1.6593
 4113SOL    MW416186   4.965   3.076   5.860 -0.8360  0.0221 -0.3561
 4114SOL     OW16187   4.162   0.352   0.178 -0.2404 -0.2268  0.5619
 4114SOL    HW216188   4.111   0.417   0.130 -0.5393 -0.6386  0.3159
 4114SOL    HW316189   4.120   0.348   0.265  0.3450  0.5704  0.8955
 4114SOL    MW416190   4.150   0.360   0.183 -0.2927  0.5223 -0.3813
 4115SOL     OW16191   0.127   0.574   2.882  0.2851 -0.0396  0.5995
 4115SOL    HW216192   0.184   0.499   2.868 -1.1455 -0.8537 -1.2001
 4115SOL    HW316193   0.075   0.551   2.960  0.1570 -0.7242  0.3172
 4115SOL    MW416194   0.128   0.561   2.891  0.0235  0.2938 -0.3843
 4116SOL     OW16195   3.217   5.276   5.632 -0.6917 -0.3931  0.6998
 4116SOL    HW216196   3.228   5.193   5.585  1.1723  0.4513 -0.4730
 4116SOL    HW316197   3.134   5.310   5.599 -2.6731 -2.7023  2.8270
 4116SOL    MW416198   3.207   5.269   5.621 -0.0544 -0.3162 -0.5996
 4117SOL     OW16199   2.304   0.917   4.033  0.2388  0.3756  0.4362
 4117SOL    HW216200   2.381   0.859   4.038  0.5478  0.8996  1.9517
 4117SOL    HW316201   2.313   0.977   4.106 -1.2567  0.9277  0.2074
 4117SOL    MW416202   2.315   0.917   4.043 -0.2982 -0.5887 -0.7423
 4118SOL     OW16203   0.852   4.888   1.015 -0.1260 -0.6341 -0.0938
 4118SOL    HW216204   0.915   4.960   1.018 -1.9796  1.2022 -1.8217
 4118SOL    HW316205   0.849   4.855   1.105 -1.2495  3.3516  1.5467
 4118SOL    MW416206   0.860   4.894   1.027  0.0732 -0.5059  0.2838
 4119SOL     OW16207   3.399   2.239   0.852 -0.7236  0.3963  0.5694
 4119SOL    HW216208   3.439   2.232   0.938 -1.8919 -0.9962  1.0412
 4119SOL    HW316209   3.365   2.151   0.834 -1.4264  0.9242 -0.8572
 4119SOL    MW416210   3.400   2.226   0.861 -0.2315 -0.3199  0.1793
 4120SOL     OW16211   1.528   5.052   0.447  0.4917  0.1537  0.2028
 4120SOL    HW216212   1.434   5.037   0.434  0.5316  2.0376 -4.2137
 4120SOL    HW316213   1.568   4.966   0.439 -0.7697 -0.7015  2.2947
 4120SOL    MW416214   1.521   5.039   0.444  0.2513 -0.2521 -0.2425
 4121SOL     OW16215   4.674   3.557   0.542 -0.9045 -0.0948 -0.1740
 4121SOL    HW216216   4.581   3.545   0.556 -0.5055 -2.2020  1.0409
 4121SOL    HW316217   4.709   3.578   0.628 -0.2890  1.1388 -0.6945
 4121SOL    MW416218   4.667   3.558   0.555  0.3977 -0.6647  0.4583
 4122SOL     OW16219   5.416   0.248   0.476 -0.2568 -0.2817 -1.0028
 4122SOL    HW216220   5.435   0.215   0.388 -0.9454 -0.4426 -1.0982
 4122SOL    HW316221   5.489   0.218   0.530 -0.7752 -1.8496 -1.1144
 4122SOL    MW416222   5.428   0.240   0.471 -0.1300 -0.3953 -0.4048
 4123SOL     OW16223   4.681   3.922   1.510  0.0034  0.5054  0.3983
 4123SOL    HW216224   4.653   3.979   1.439  0.7198 -0.1855 -0.4570
 4123SOL    HW316225   4.627   3.844   1.502  1.3233 -0.3661 -0.5798
 4123SOL    MW416226   4.670   3.919   1.500 -0.3457  0.7187 -0.0828
 4124SOL     OW16227   3.050   5.130   2.643  0.4732 -0.0596 -0.3814
 4124SOL    HW216228   3.004   5.214   2.632  1.0266  0.3917  0.6507
 4124SOL    HW316229   3.142   5.154   2.649  0.7178 -0.8310 -0.8878
 4124SOL    MW416230   3.056   5.145   2.642 -0.0441  0.0775  0.0850
 4125SOL     OW16231   5.847   5.252   3.289 -0.7499  0.5236  0.3173
 4125SOL    HW216232   5.882   5.253   3.200  1.9004 -0.0376  1.2641
 4125SOL    HW316233   5.787   5.177   3.290  0.8215 -0.8028 -0.4429
 4125SOL    MW416234   5.843   5.243   3.277 -0.1474 -0.2549  0.1559
 4126SOL     OW16235   0.928   2.522   0.003 -0.2267  0.3135  0.2954
 4126SOL    HW216236   0.834   2.503   0.006 -0.3426  0.5136 -1.2317
 4126SOL    HW316237   0.935   2.593  -0.060  1.2387 -1.7108 -1.9828
 4126SOL    MW416238   0.916   2.529  -0.005 -0.1996 -0.0370 -0.8513
 4127SOL     OW16239   3.628   3.438   6.016  0.0496  0.0230  0.4738
 4127SOL    HW216240   3.576   3.370   6.059 -0.7838  1.1431  1.3243
 4127SOL    HW316241   3.717   3.404   6.016 -0.1144 -0.5237  2.0846
 4127SOL    MW416242   3.633   3.425   6.022  0.1454  0.0598 -0.6825
 4128SOL     OW16243   4.112   4.630   3.757  0.0979 -0.0357  0.7605
 4128SOL    HW216244   4.088   4.537   3.760 -1.5130  0.3688  0.9887
 4128SOL    HW316245   4.171   4.636   3.682 -2.5497 -0.6689 -1.5152
 4128SOL    MW416246   4.117   4.618   3.748 -0.1366  0.7756  0.3427
 4129SOL     OW16247   2.595   0.456   4.683  0.4436  0.0868 -0.1289
 4129SOL    HW216248   2.653   0.453   4.607  0.8093 -0.3465  0.1654
 4129SOL    HW316249   2.521   0.511   4.655 -0.6147 -1.9925 -1.6103
 4129SOL    MW416250   2.593   0.463   4.669 -0.2572  0.0423 -0.3908
 4130SOL     OW16251   2.867   2.885   4.377 -0.4958  0.3474 -0.2387
 4130SOL    HW216252   2.839   2.883   4.468 -2.3981 -0.6035 -0.8058
 4130SOL    HW316253   2.910   2.801   4.363 -0.8419  0.1991 -0.4106
 4130SOL    MW416254   2.869   2.874   4.387  0.2655 -0.5121 -1.0010
 4131SOL     OW16255   2.665   3.542   3.007 -0.0467  0.1775  0.5737
 4131SOL    HW216256   2.596   3.492   2.963  0.0435  0.3001  0.2872
 4131SOL    HW316257   2.746   3.493   2.988 -0.2266 -0.8134  2.1790
 4131SOL    MW416258   2.667   3.529   2.998  0.1878 -0.4532  0.2542
 4132SOL     OW16259   2.362   4.792   1.487 -0.3910 -0.1845  0.3569
 4132SOL    HW216260   2.271   4.763   1.485 -0.6069  0.4784 -1.2812
 4132SOL    HW316261   2.357   4.883   1.518 -0.3549  0.0155 -0.2114
 4132SOL    MW416262   2.349   4.800   1.491 -0.0402  0.5113  0.2588
 4133SOL     OW16263   5.497   2.516   0.850 -0.3924  0.2054  0.1508
 4133SOL    HW216264   5.414   2.558   0.872  0.0375  0.6955  0.8674
 4133SOL    HW316265   5.480   2.422   0.857 -0.8015  0.3109  0.5988
 4133SOL    MW416266   5.484   2.509   0.854  0.3939  1.1154  0.2308
 4134SOL     OW16267   1.123   3.342   0.536 -0.1644 -0.1763 -0.4403
 4134SOL    HW216268   1.090   3.401   0.603 -0.1571  0.2005 -0.7658
 4134SOL    HW316269   1.066   3.265   0.541  0.5122 -0.6350  0.7436
 4134SOL    MW416270   1.111   3.339   0.545 -0.4348  0.0662  0.0314
 4135SOL     OW16271   4.892   3.650   2.796  0.0202  0.1144  0.5805
 4135SOL    HW216272   4.939   3.648   2.879  1.3167  1.2435 -0.0899
 4135SOL    HW316273   4.915   3.735   2.757 -1.1021 -0.0951 -0.6276
 4135SOL    MW416274   4.901   3.661   2.802  0.1633 -0.4942 -0.1706
 4136SOL     OW16275   3.283   2.061   3.402  0.3840 -0.1799  0.1303
 4136SOL    HW216276   3.205   2.111   3.378 -0.1049 -0.6880  0.6326
 4136SOL    HW316277   3.269   1.974   3.364 -0.4758 -1.0527  2.2524
 4136SOL    MW416278   3.271   2.056   3.394 -0.2972  0.4509 -0.7996
 4137SOL     OW16279   1.600   0.676   3.268 -0.1364  0.2990 -0.3484
 4137SOL    HW216280   1.682   0.661   3.315 -0.5950 -3.5723 -0.4782
 4137SOL    HW316281   1.620   0.655   3.177 -1.1697 -0.3882 -0.4380
 4137SOL    MW416282   1.613   0.671   3.262 -0.0172 -0.3263  0.1510
 4138SOL     OW16283   5.206   1.947   4.032 -0.0596 -0.0188  0.0857
 4138SOL    HW216284   5.250   1.865   4.010  0.8695  0.5171 -0.1292
 4138SOL    HW316285   5.276   2.002   4.069 -0.5280  0.9072 -0.3809
 4138SOL    MW416286   5.221   1.943   4.034 -0.0744 -0.1616  0.4496
 4139SOL     OW16287   0.986   2.515   2.713 -0.3796  0.1709  0.3334
 4139SOL    HW216288   0.945   2.447   2.766  0.0671  0.9258  1.6919
 4139SOL    HW316289   0.969   2.596   2.762  0.5541  0.8110 -0.3801
 4139SOL    MW416290   0.978   2.517   2.727 -0.0885  0.1505  0.4094
 4140SOL     OW16291   2.742   4.567   2.969 -0.4601  0.5838  0.0042
 4140SOL    HW216292   2.788   4.597   3.047 -0.8595 -0.1095  0.5284
 4140SOL    HW316293   2.803   4.507   2.926 -1.2360 -1.2733  1.3329
 4140SOL    MW416294   2.756   4.563   2.974 -0.3619 -0.6111 -0.0537
 4141SOL     OW16295   5.441   0.704   3.039 -0.5346  0.0040  0.2348
 4141SOL    HW216296   5.507   0.766   3.009 -0.6641 -0.7563 -1.8651
 4141SOL    HW316297   5.468   0.679   3.127  1.3090  0.5956 -0.1271
 4141SOL    MW416298   5.453   0.709   3.046  0.7870 -0.4998  0.8560
 4142SOL     OW16299   0.255   1.348   0.162  0.5754  0.8668  0.1629
 4142SOL    HW216300   0.327   1.370   0.221  1.2100  1.1644 -0.7025
 4142SOL    HW316301   0.264   1.409   0.089 -1.1803  1.5874  0.5090
 4142SOL    MW416302   0.266   1.359   0.161  0.0852 -0.4533 -0.0857
 4143SOL     OW16303   5.144   2.183   4.876 -0.2257 -0.5994  0.6622
 4143SOL    HW216304   5.200   2.209   4.950 -1.3518 -0.0584  1.3511
 4143SOL    HW316305   5.122   2.265   4.833  0.1891 -0.8904 -0.1111
 4143SOL    MW416306   5.149   2.198   4.880  0.2793  0.3471 -0.0897
 4144SOL     OW16307   1.285   3.598   0.793 -0.3773  0.3713 -0.3167
 4144SOL    HW216308   1.292   3.584   0.888  0.2928  0.0296 -0.4041
 4144SOL    HW316309   1.192   3.592   0.774 -0.7428  2.3238  0.5933
 4144SOL    MW416310   1.274   3.595   0.803  0.3458 -0.4680 -1.1287
 4145SOL     OW16311   0.209   2.725   3.701 -0.0552  0.0643  0.3989
 4145SOL    HW216312   0.303   2.743   3.706 -0.2198  1.3238 -0.4979
 4145SOL    HW316313   0.203   2.630   3.693  1.1007 -0.0923  1.1317
 4145SOL    MW416314   0.221   2.715   3.701 -0.4122 -0.1728 -0.1149
 4146SOL     OW16315   3.193   1.724   2.309  0.2362 -0.2729  0.9810
 4146SOL    HW216316   3.284   1.701   2.323  0.3904 -0.6739 -0.4351
 4146SOL    HW316317   3.167   1.672   2.232 -0.9672  0.3762  0.9180
 4146SOL    MW416318   3.201   1.714   2.300 -0.3214 -0.0123  0.3089
 4147SOL     OW16319   3.162   1.945   3.044 -0.0083 -0.0537 -0.3250
 4147SOL    HW216320   3.123   1.884   2.981 -0.0109 -0.8505  0.4315
 4147SOL    HW316321   3.100   1.948   3.117  0.4944  0.0530  0.1054
 4147SOL    MW416322   3.148   1.938   3.045  0.6280  0.0782  0.3455
 4148SOL     OW16323   4.261   3.756   5.291 -0.4693 -0.0934  0.1020
 4148SOL    HW216324   4.306   3.698   5.229 -0.7120 -0.0744 -0.0967
 4148SOL    HW316325   4.249   3.838   5.242 -1.6047 -0.4199 -0.2135
 4148SOL    MW416326   4.265   3.759   5.276  0.2080 -0.4413 -0.1586
 4149SOL     OW16327   4.949   1.489   0.848 -0.4753 -0.3958 -0.7187
 4149SOL    HW216328   4.947   1.582   0.872 -1.1138 -0.5585 -0.1187
 4149SOL    HW316329   4.900   1.445   0.917 -0.9041 -1.0879 -1.4445
 4149SOL    MW416330   4.942   1.495   0.860 -0.3483  0.1413 -0.0412
 4150SOL     OW16331   1.755   4.440   4.973 -0.1138 -0.4726  0.3463
 4150SOL    HW216332   1.662   4.456   4.960 -0.1049 -0.5470  0.1904
 4150SOL    HW316333   1.798   4.514   4.930 -0.0533 -1.1847 -0.8487
 4150SOL    MW416334   1.749   4.452   4.966  0.0740 -0.4043 -0.6226
 4151SOL     OW16335   1.791   4.464   6.369 -0.1365 -0.5503 -0.1346
 4151SOL    HW216336   1.855   4.529   6.399  0.2782 -0.2988 -1.4835
 4151SOL    HW316337   1.711   4.514   6.354  0.4845 -0.0950 -2.2164
 4151SOL    MW416338   1.789   4.479   6.371 -0.5026  0.7479 -0.6585
 4152SOL     OW16339   0.513   1.583   4.937 -0.4098  0.1946 -0.4098
 4152SOL    HW216340   0.467   1.514   4.889  0.7654 -0.6062 -0.4192
 4152SOL    HW316341   0.579   1.537   4.988  0.6924  1.3407 -0.7464
 4152SOL    MW416342   0.516   1.568   4.937 -0.6164  0.0670 -0.3096
 4153SOL     OW16343   3.494   3.691   4.985 -0.0250  0.1777 -0.2578
 4153SOL    HW216344   3.423   3.753   4.965 -0.7606 -0.2848  0.8022
 4153SOL    HW316345   3.534   3.672   4.900 -1.0467  0.6084 -0.8547
 4153SOL    MW416346   3.490   3.697   4.971 -0.0525  0.6902 -0.8086
 4154SOL     OW16347   1.268   4.394   1.373 -0.8638 -0.6543  0.1786
 4154SOL    HW216348   1.263   4.305   1.408  0.0609 -1.0556 -0.6462
 4154SOL    HW316349   1.194   4.440   1.411 -0.1890 -1.1872  2.2564
 4154SOL    MW416350   1.258   4.388   1.383 -0.1141  0.6939  0.1048
 4155SOL     OW16351   3.397   4.958   2.863 -0.5463 -0.2139  0.1473
 4155SOL    HW216352   3.406   4.871   2.825 -0.8214  1.4365 -4.2649
 4155SOL    HW316353   3.303   4.966   2.880 -0.5207 -0.7189  0.5798
 4155SOL    MW416354   3.385   4.947   2.861 -0.3202 -0.0691  0.5372
 4156SOL     OW16355   3.226   4.002   6.241  0.3028  0.5706  0.3256
 4156SOL    HW216356   3.236   3.962   6.154 -0.5257  2.7859 -0.8699
 4156SOL    HW316357   3.303   4.057   6.250 -0.7825  2.2565 -0.1567
 4156SOL    MW416358   3.237   4.004   6.230  0.0266 -0.1845  0.2637
 4157SOL     OW16359   2.949   0.613   2.990  0.2120  0.3053 -0.2152
 4157SOL    HW216360   2.931   0.520   2.998 -0.3315  0.3509 -0.7908
 4157SOL    HW316361   3.044   0.619   2.976  0.3418 -0.1113  0.4777
 4157SOL    MW416362   2.959   0.602   2.989 -0.4901 -0.4291 -0.2768
 4158SOL     OW16363   3.843   1.240   4.807 -0.1716  0.5308 -0.3250
 4158SOL    HW216364   3.821   1.207   4.720  0.0005 -1.5399  0.3587
 4158SOL    HW316365   3.758   1.267   4.844 -0.2411  1.4434 -1.1022
 4158SOL    MW416366   3.829   1.239   4.800  0.1595 -0.8574  0.0282
 4159SOL     OW16367   3.339   6.168   4.511 -0.3973  0.1686  0.3782
 4159SOL    HW216368   3.328   6.263   4.508  0.9156  0.3724  1.0939
 4159SOL    HW316369   3.250   6.134   4.511 -0.8973  1.3317 -1.1803
 4159SOL    MW416370   3.326   6.176   4.511  0.3145 -0.1384 -0.1651
 4160SOL     OW16371   3.626   1.948   0.980 -0.2522  0.5901  0.1877
 4160SOL    HW216372   3.713   1.977   0.953 -0.0780  0.6225  0.7792
 4160SOL    HW316373   3.642   1.885   1.050 -0.7252  0.9871  0.6614
 4160SOL    MW416374   3.639   1.943   0.986  0.4762 -0.0493 -0.4629
 4161SOL     OW16375   1.886   2.015   0.719  0.1246  0.4545 -0.0086
 4161SOL    HW216376   1.810   2.033   0.775  0.8407  1.5368  0.6476
 4161SOL    HW316377   1.962   2.033   0.774  0.8780 -0.5642 -0.6727
 4161SOL    MW416378   1.886   2.020   0.734 -0.7721  0.0807 -0.5997
 4162SOL     OW16379   4.083   2.652   5.445  0.1861 -0.4864  0.0159
 4162SOL    HW216380   4.018   2.718   5.468  0.0859 -0.4205 -0.4620
 4162SOL    HW316381   4.048   2.609   5.367  0.9347 -0.1371 -0.5180
 4162SOL    MW416382   4.070   2.655   5.438 -0.4371 -0.2818 -0.0023
 4163SOL     OW16383   4.051   2.286   1.965 -0.1349 -0.1780  0.2637
 4163SOL    HW216384   4.090   2.353   2.020 -1.5262  0.2958  0.7071
 4163SOL    HW316385   3.957   2.293   1.981 -0.5822 -0.1607 -2.0098
 4163SOL    MW416386   4.044   2.295   1.974 -0.0040  0.1505  0.2675
 4164SOL     OW16387   0.512   0.177   0.217 -0.1722  0.2166 -0.0758
 4164SOL    HW216388   0.520   0.248   0.279  0.2908 -0.6752  0.9176
 4164SOL    HW316389   0.602   0.153   0.195 -0.3009  1.3098 -2.0717
 4164SOL    MW416390   0.525   0.183   0.222 -0.0222 -0.3533 -0.0934
 4165SOL     OW16391   3.730   6.384   0.049 -0.2071  0.0151 -0.2768
 4165SOL    HW216392   3.766   6.414  -0.034  0.3525  0.9896  0.2971
 4165SOL    HW316393   3.639   6.363   0.030  0.2362 -0.9581 -1.3953
 4165SOL    MW416394   3.723   6.386   0.036 -0.6255 -0.2368  0.1810
 4166SOL     OW16395   1.929   3.575   3.440  0.3589 -0.6144  0.1138
 4166SOL    HW216396   1.889   3.505   3.388 -0.3478 -0.1038 -0.0610
 4166SOL    HW316397   1.991   3.616   3.379  2.4109 -2.4110  0.8680
 4166SOL    MW416398   1.932   3.571   3.425 -0.3155  0.1520  0.3839
 4167SOL     OW16399   2.573   2.219   0.597  0.4779 -0.0361 -0.1025
 4167SOL    HW216400   2.571   2.208   0.692 -0.6207 -0.3753 -0.1449
 4167SOL    HW316401   2.565   2.314   0.584 -1.0078 -0.0976  0.1464
 4167SOL    MW416402   2.572   2.230   0.608  0.4610 -0.4699  0.0381
 4168SOL     OW16403   1.024   0.314   0.990 -0.2303 -0.2693 -0.7357
 4168SOL    HW216404   1.113   0.339   0.966 -0.0730  1.8571  1.6472
 4168SOL    HW316405   1.034   0.231   1.036  0.8080  0.7911  1.0428
 4168SOL    MW416406   1.037   0.307   0.993  0.2864  0.6089  0.3824
 4169SOL     OW16407   3.822   3.000   4.358  0.1388 -0.2332  0.5176
 4169SOL    HW216408   3.815   3.080   4.305  3.3237  1.0252  1.7816
 4169SOL    HW316409   3.739   2.997   4.407 -0.3769  1.8777 -0.1129
 4169SOL    MW416410   3.810   3.010   4.358 -0.2583  0.0503  0.6351
 4170SOL     OW16411   2.613   0.778   1.710  0.1377  0.7997  0.0615
 4170SOL    HW216412   2.518   0.770   1.712  0.1243  0.4547 -1.2079
 4170SOL    HW316413   2.642   0.752   1.798 -0.7377 -1.8648 -0.3576
 4170SOL    MW416414   2.604   0.774   1.722  0.0805 -0.6180 -0.6346
 4171SOL     OW16415   2.930   5.272   1.259  0.1998  0.1423  0.1307
 4171SOL    HW216416   2.874   5.265   1.336 -2.1157  1.4693 -1.3059
 4171SOL    HW316417   2.941   5.367   1.246  0.8533 -0.0602 -0.9500
 4171SOL    MW416418   2.924   5.284   1.267  0.3489 -0.2930  0.3690
 4172SOL     OW16419   1.215   1.056   3.631 -0.0207  0.3394 -0.1954
 4172SOL    HW216420   1.251   0.968   3.637 -1.8103 -0.3412  1.4643
 4172SOL    HW316421   1.146   1.049   3.565 -2.2016 -0.3648  1.9983
 4172SOL    MW416422   1.210   1.044   3.623  0.0192  0.0730  0.0560
 4173SOL     OW16423   0.566   0.996   5.279  0.0432 -0.0243 -0.1004
 4173SOL    HW216424   0.597   0.991   5.188  1.3423 -0.0180  0.3338
 4173SOL    HW316425   0.486   0.943   5.279 -0.4631  0.6772 -1.4372
 4173SOL    MW416426   0.559   0.989   5.267 -0.3647 -0.0899  0.1830
 4174SOL     OW16427   4.388   5.523   4.474 -0.3099  0.4989  0.0896
 4174SOL    HW216428   4.418   5.563   4.393  0.2481 -0.1008 -0.0086
 4174SOL    HW316429   4.301   5.489   4.454  0.4577 -1.0812 -0.7603
 4174SOL    MW416430   4.381   5.524   4.461 -0.0657 -0.3650 -0.6408
 4175SOL     OW16431   0.784   2.082   4.264 -0.1345 -0.4270  0.7756
 4175SOL    HW216432   0.710   2.143   4.256  0.1142 -0.2251 -0.0515
 4175SOL    HW316433   0.853   2.134   4.307 -0.2685 -0.4404  1.0117
 4175SOL    MW416434   0.783   2.097   4.269 -0.2768 -0.2745 -0.2563
 4176SOL     OW16435   2.318   0.494   3.942  0.5259 -0.5000 -0.1000
 4176SOL    HW216436   2.412   0.484   3.954  0.6152  0.1754 -0.1773
 4176SOL    HW316437   2.286   0.406   3.927  1.2248 -0.6825 -0.6043
 4176SOL    MW416438   2.326   0.481   3.941  0.3200 -0.2380  0.2778
 4177SOL     OW16439   1.314   6.355   5.101  0.2884  0.7417 -0.0655
 4177SOL    HW216440   1.378   6.408   5.151  0.5651 -0.2028  0.6127
 4177SOL    HW316441   1.337   6.265   5.122 -1.2912  0.3726  0.2077
 4177SOL    MW416442   1.326   6.350   5.110 -1.3297 -0.5780 -0.2691
 4178SOL     OW16443   3.060   4.281   5.038  0.1254  0.4123  0.0169
 4178SOL    HW216444   2.987   4.232   5.074  0.1093 -0.2980 -0.9380
 4178SOL    HW316445   3.020   4.347   4.981  0.2189  0.0128 -0.5192
 4178SOL    MW416446   3.045   4.283   5.035  0.1434 -0.4191 -0.1595
 4179SOL     OW16447   2.103   2.329   2.486  0.0831  0.2098  0.0843
 4179SOL    HW216448   2.038   2.353   2.552  0.0609 -1.3631  0.6817
 4179SOL    HW316449   2.141   2.247   2.518  0.9359  0.0374 -1.2638
 4179SOL    MW416450   2.099   2.321   2.499  0.8485  0.2809  0.6537
 4180SOL     OW16451   4.278   2.910   6.340  0.8792 -0.2445  0.5304
 4180SOL    HW216452   4.225   2.831   6.344 -1.3368  1.1854  1.3312
 4180SOL    HW316453   4.289   2.927   6.247 -1.1002 -0.0001  0.2913
 4180SOL    MW416454   4.272   2.902   6.328 -0.0839  0.4070  0.5608
 4181SOL     OW16455   0.452   3.041   6.265  0.2853 -0.4651  0.1602
 4181SOL    HW216456   0.423   3.062   6.354 -1.5702 -0.2458 -0.4465
 4181SOL    HW316457   0.523   2.978   6.277 -1.5582 -2.4053  1.7873
 4181SOL    MW416458   0.458   3.035   6.278 -0.3392  0.8636 -0.6057
 4182SOL     OW16459   1.038   6.292   3.640 -0.4271  0.2834 -0.2076
 4182SOL    HW216460   1.039   6.196   3.630 -1.0365  0.0416  1.6713
 4182SOL    HW316461   0.986   6.322   3.565 -1.1117 -0.9505 -0.2671
 4182SOL    MW416462   1.031   6.283   3.629  0.4950  0.4616 -0.3027
 4183SOL     OW16463   3.910   0.638   0.614 -0.4718  0.1333 -0.3929
 4183SOL    HW216464   3.954   0.643   0.698 -1.5487  0.1551  0.1922
 4183SOL    HW316465   3.882   0.547   0.607 -1.5796  0.4320 -0.0755
 4183SOL    MW416466   3.912   0.627   0.624  0.0732  0.0717 -0.4791
 4184SOL     OW16467   4.488   5.013   0.705 -0.0643 -0.3520 -0.4531
 4184SOL    HW216468   4.471   5.085   0.765  0.4576 -0.7059  0.1391
 4184SOL    HW316469   4.403   4.972   0.692 -0.5879  1.0729 -1.7446
 4184SOL    MW416470   4.475   5.017   0.711  0.1592  0.0229  0.0040
 4185SOL     OW16471   5.985   1.690   1.706  0.3581 -0.4383 -0.2671
 4185SOL    HW216472   6.059   1.653   1.659 -1.2820 -2.4629 -1.4191
 4185SOL    HW316473   5.920   1.620   1.710 -2.4426  1.8498 -1.4050
 4185SOL    MW416474   5.986   1.676   1.700 -0.8476 -0.5511 -0.1745
 4186SOL     OW16475   5.766   3.799   2.961 -0.1497  0.6339  0.0535
 4186SOL    HW216476   5.850   3.785   3.004 -1.2263 -3.0566  1.2874
 4186SOL    HW316477   5.704   3.815   3.033 -1.2162 -1.1832 -0.3980
 4186SOL    MW416478   5.769   3.799   2.977 -0.3786 -0.6973 -0.7848
 4187SOL     OW16479   1.015   6.424   4.954 -0.5709 -0.0076 -0.1832
 4187SOL    HW216480   1.037   6.424   5.048 -0.9985 -0.2920 -0.0787
 4187SOL    HW316481   0.920   6.428   4.952 -0.6204 -0.9705 -0.5770
 4187SOL    MW416482   1.006   6.424   4.966 -0.1218  0.5794 -0.9013
 4188SOL     OW16483   4.131   0.874   1.978  0.8454  0.5190 -0.5182
 4188SOL    HW216484   4.208   0.919   1.942  1.3631 -1.1329 -1.6035
 4188SOL    HW316485   4.079   0.850   1.902 -0.5144  1.1471  0.1790
 4188SOL    MW416486   4.134   0.877   1.963  0.1472 -0.2649  0.0820
 4189SOL     OW16487   4.172   5.024   0.383 -0.0136  0.0627  0.1701
 4189SOL    HW216488   4.098   5.075   0.416 -0.7335 -0.8846  0.0669
 4189SOL    HW316489   4.143   4.993   0.297  0.3830 -0.5467  0.2516
 4189SOL    MW416490   4.158   5.027   0.376 -0.1696 -0.0197  0.3274
 4190SOL     OW16491   2.240   3.696   2.346  0.1078  0.2108  0.2142
 4190SOL    HW216492   2.232   3.709   2.441 -0.1302  0.9402  0.1016
 4190SOL    HW316493   2.276   3.778   2.314 -1.6075  0.7129 -0.5525
 4190SOL    MW416494   2.244   3.709   2.354  0.1127 -0.1736 -0.7438
 4191SOL     OW16495   3.707   0.328   3.196  0.0061  0.1435  0.2204
 4191SOL    HW216496   3.652   0.379   3.136 -0.2448  0.6186  0.8433
 4191SOL    HW316497   3.773   0.289   3.140 -0.5304  0.1678 -0.4400
 4191SOL    MW416498   3.708   0.330   3.181  0.2423  0.5733  0.1702
 4192SOL     OW16499   5.068   5.046   0.711  0.4023  0.0280 -0.2888
 4192SOL    HW216500   5.095   4.984   0.644 -0.3314 -0.7534  0.1181
 4192SOL    HW316501   5.120   5.023   0.788  0.5798  0.3240 -0.3200
 4192SOL    MW416502   5.078   5.035   0.712 -0.8154 -0.1994  0.1363
 4193SOL     OW16503   5.214   5.886   4.778  0.0464  0.1811 -0.1535
 4193SOL    HW216504   5.196   5.979   4.775 -0.2838  0.1663  0.9613
 4193SOL    HW316505   5.297   5.879   4.826  1.0814  0.0067 -1.8975
 4193SOL    MW416506   5.223   5.897   4.784  0.0770 -0.1749  0.8581
 4194SOL     OW16507   5.708   6.305   4.699  0.2297  0.6285 -0.4718
 4194SOL    HW216508   5.753   6.273   4.620  1.4539  0.7015  0.1706
 4194SOL    HW316509   5.710   6.230   4.759 -1.3848  0.3205 -0.7629
 4194SOL    MW416510   5.714   6.291   4.696  0.2309  0.0260  0.8085
 4195SOL     OW16511   1.852   0.971   3.469  0.8907  0.0819 -0.0095
 4195SOL    HW216512   1.890   1.058   3.478  2.2195 -0.5180  0.3573
 4195SOL    HW316513   1.824   0.966   3.377 -0.1016  1.2213  0.2066
 4195SOL    MW416514   1.853   0.982   3.458 -0.0134  0.0027  0.2501
 4196SOL     OW16515   1.249   2.297   2.683 -0.3102 -0.0526  0.5029
 4196SOL    HW216516   1.290   2.353   2.618  0.4661  1.1194  1.9437
 4196SOL    HW316517   1.163   2.277   2.646 -1.1503  3.1320  0.4403
 4196SOL    MW416518   1.243   2.301   2.669 -0.2974  0.1223  0.0250
 4197SOL     OW16519   2.377   1.045   3.148  0.5722 -0.6438  0.1255
 4197SOL    HW216520   2.334   0.962   3.167 -0.9228 -0.4649 -2.0726
 4197SOL    HW316521   2.333   1.108   3.205  0.1027 -0.9951  0.1620
 4197SOL    MW416522   2.365   1.042   3.158 -0.0309 -0.4236  0.1266
 4198SOL     OW16523   0.650   2.009   1.885  0.4954  0.1511 -0.3288
 4198SOL    HW216524   0.721   1.984   1.827  0.4165 -2.2798  0.5074
 4198SOL    HW316525   0.680   2.091   1.925  0.9889  1.3258 -2.9392
 4198SOL    MW416526   0.664   2.016   1.883  0.2763 -0.3492 -0.3930
 4199SOL     OW16527   2.970   3.611   6.355 -0.7335  0.1425 -0.1781
 4199SOL    HW216528   2.946   3.603   6.263 -0.5315  0.3608 -0.2501
 4199SOL    HW316529   3.008   3.526   6.377 -0.1079  0.3310 -0.4976
 4199SOL    MW416530   2.972   3.599   6.346  0.1258  0.0159 -0.5986
 4200SOL     OW16531   1.281   2.091   6.026 -0.3602  0.5750 -0.3211
 4200SOL    HW216532   1.217   2.130   5.966 -0.6464 -0.3416 -0.6229
 4200SOL    HW316533   1.262   1.997   6.024  1.0012  0.2880 -0.4126
 4200SOL    MW416534   1.270   2.084   6.018 -0.7417  0.1584 -0.2049
 4201SOL     OW16535   1.493   5.300   1.585 -0.0907  0.2222  0.2125
 4201SOL    HW216536   1.488   5.215   1.630 -1.7446  0.2266  0.1009
 4201SOL    HW316537   1.534   5.281   1.501  4.0844  0.3739  1.9679
 4201SOL    MW416538   1.498   5.286   1.580  0.1275  0.0020  0.2465
 4202SOL     OW16539   3.954   2.415   6.294 -0.3213 -0.6362 -0.6072
 4202SOL    HW216540   3.963   2.352   6.365  0.0900 -0.6299 -0.6495
 4202SOL    HW316541   3.995   2.495   6.327  0.9092 -0.9641 -1.2533
 4202SOL    MW416542   3.961   2.417   6.308  0.3752 -0.4037 -0.5323
 4203SOL     OW16543   0.079   4.668   1.794 -0.3169  0.2285  0.0334
 4203SOL    HW216544   0.072   4.728   1.720  0.3531  2.2231  1.5197
 4203SOL    HW316545   0.173   4.652   1.803 -0.5192 -1.6732 -0.7644
 4203SOL    MW416546   0.090   4.674   1.785  0.2636  0.4870 -0.1805
 4204SOL     OW16547   0.041   2.713   2.137  0.8571  0.1137 -0.2735
 4204SOL    HW216548   0.055   2.642   2.073 -0.2475  0.8439 -1.3622
 4204SOL    HW316549  -0.053   2.713   2.152  1.1225 -0.1918  1.5866
 4204SOL    MW416550   0.030   2.703   2.130  0.4336 -0.1984 -0.0401
 4205SOL     OW16551   4.298   3.624   3.088  0.6206 -0.0458 -0.0763
 4205SOL    HW216552   4.297   3.668   3.173 -0.9756 -0.1644 -0.0050
 4205SOL    HW316553   4.383   3.580   3.085  1.3782  1.2821  0.7510
 4205SOL    MW416554   4.309   3.624   3.099 -0.6043  0.6406  0.0149
 4206SOL     OW16555   2.727   4.764   0.750 -0.3019 -0.2037  0.5445
 4206SOL    HW216556   2.700   4.835   0.810  1.1479 -0.2134  1.2502
 4206SOL    HW316557   2.715   4.684   0.801  0.6358 -0.2383  0.7274
 4206SOL    MW416558   2.722   4.763   0.765  0.2944 -0.5249  0.4697
 4207SOL     OW16559   3.769   3.696   5.860  0.0749 -0.2426 -0.1859
 4207SOL    HW216560   3.840   3.633   5.868 -0.0179 -0.4566 -1.0153
 4207SOL    HW316561   3.701   3.663   5.918 -0.0313 -0.9935 -0.7323
 4207SOL    MW416562   3.769   3.684   5.869 -0.1524 -0.2340 -0.2959
 4208SOL     OW16563   1.766   3.038   2.408  0.4067  0.1944 -0.2495
 4208SOL    HW216564   1.744   3.004   2.321  1.6359  1.0396 -0.9291
 4208SOL    HW316565   1.686   3.083   2.437 -0.8994 -2.2367  0.2251
 4208SOL    MW416566   1.752   3.039   2.400  0.4888  0.4534  0.5225
 4209SOL     OW16567   3.905   4.144   2.355 -0.0831 -0.2457  0.0588
 4209SOL    HW216568   3.847   4.081   2.396 -2.0054  0.5962 -1.2174
 4209SOL    HW316569   3.898   4.222   2.410 -0.9024  0.1453 -0.5741
 4209SOL    MW416570   3.897   4.146   2.368  0.1642  0.1392  0.2036
 4210SOL     OW16571   0.499   6.148   3.646 -0.4726 -0.2076  0.5565
 4210SOL    HW216572   0.441   6.170   3.719  1.2297  2.1884  1.2957
 4210SOL    HW316573   0.534   6.232   3.617  1.1092 -1.3847 -1.1619
 4210SOL    MW416574   0.496   6.162   3.652 -0.0905  0.0007  0.4388
 4211SOL     OW16575   3.829   2.293   3.913  0.3334  0.1102  0.1026
 4211SOL    HW216576   3.898   2.251   3.862 -0.1327  0.1747 -0.6052
 4211SOL    HW316577   3.868   2.311   3.998  0.6183 -1.5382  0.3479
 4211SOL    MW416578   3.843   2.290   3.917 -0.2798 -0.7103  0.1631
 4212SOL     OW16579   2.595   6.049   0.422 -0.0154  0.4789 -0.1842
 4212SOL    HW216580   2.688   6.062   0.439 -0.1933 -0.0098  1.3322
 4212SOL    HW316581   2.592   5.997   0.342  1.0126  0.4517 -0.2148
 4212SOL    MW416582   2.607   6.044   0.413  0.4921  0.3370 -0.9599
 4213SOL     OW16583   6.298   0.958   5.355 -0.1872  0.1862 -0.4879
 4213SOL    HW216584   6.326   1.021   5.289 -0.1579 -1.6892 -2.3515
 4213SOL    HW316585   6.259   1.012   5.425 -1.1633  2.2029 -2.4678
 4213SOL    MW416586   6.296   0.973   5.356  0.2161 -0.4677 -0.2306
 4214SOL     OW16587   3.960   3.832   3.699  0.2029 -0.3477 -0.3324
 4214SOL    HW216588   4.045   3.854   3.736  0.2783  1.0557 -1.2557
 4214SOL    HW316589   3.905   3.907   3.721 -1.4020 -2.0395  1.9125
 4214SOL    MW416590   3.964   3.845   3.707  0.1201 -0.2244  0.1714
 4215SOL     OW16591   4.644   3.324   2.018 -0.0960  0.4736  0.0961
 4215SOL    HW216592   4.687   3.364   1.943 -1.1332  0.6413 -0.4295
 4215SOL    HW316593   4.710   3.265   2.055  0.9087  1.4567 -0.0742
 4215SOL    MW416594   4.658   3.321   2.013  0.7461 -0.2684  0.5900
 4216SOL     OW16595   2.115   4.393   4.649  0.6765 -0.0559 -0.1143
 4216SOL    HW216596   2.138   4.328   4.583  0.9651  0.1975 -0.2708
 4216SOL    HW316597   2.111   4.344   4.731  0.0973 -0.4132 -0.3521
 4216SOL    MW416598   2.118   4.378   4.651 -0.6914  0.6245 -0.1458
 4217SOL     OW16599   6.001   3.258   2.422 -0.4247  0.3284  0.6324
 4217SOL    HW216600   5.973   3.208   2.498 -0.0027 -1.4902 -0.3667
 4217SOL    HW316601   6.095   3.270   2.434 -0.2979 -0.2620  0.2243
 4217SOL    MW416602   6.010   3.253   2.434  0.1383  0.2442 -0.2572
 4218SOL     OW16603   2.427   3.259   6.109  0.2662 -0.2003  0.1979
 4218SOL    HW216604   2.362   3.189   6.121  0.6017 -0.5865 -0.2019
 4218SOL    HW316605   2.457   3.249   6.019 -0.9021  1.5243 -0.4369
 4218SOL    MW416606   2.422   3.248   6.099 -0.3330 -0.6698 -0.4825
 4219SOL     OW16607   4.451   6.414   5.962  0.5091 -0.1963  0.3529
 4219SOL    HW216608   4.490   6.370   5.887 -2.6978 -2.3027 -0.3276
 4219SOL    HW316609   4.406   6.490   5.925  2.0617  0.9947  0.8096
 4219SOL    MW416610   4.450   6.418   5.948 -0.0667 -0.3516  0.4955
 4220SOL     OW16611   5.459   3.714   0.794 -0.0837 -0.4608  0.1812
 4220SOL    HW216612   5.403   3.781   0.755 -0.9867 -1.8629 -1.0785
 4220SOL    HW316613   5.515   3.686   0.722 -1.2966 -2.6112 -0.0153
 4220SOL    MW416614   5.459   3.719   0.779 -0.1512  0.1495 -0.0192
 4221SOL     OW16615   4.165   5.150   1.028  0.4891 -0.4207  0.3727
 4221SOL    HW216616   4.097   5.173   1.091 -0.6908 -1.2443 -0.5831
 4221SOL    HW316617   4.119   5.115   0.952  1.9095  0.0656 -0.7714
 4221SOL    MW416618   4.150   5.148   1.027  0.2622  0.0090  0.1918
 4222SOL     OW16619   2.379   3.256   4.770  0.3109 -1.0616 -0.2119
 4222SOL    HW216620   2.389   3.343   4.809  0.4803 -0.9374 -0.5287
 4222SOL    HW316621   2.374   3.273   4.676 -1.8935 -1.1871 -0.1732
 4222SOL    MW416622   2.379   3.270   4.763 -0.3856  0.1175  0.1773
 4223SOL     OW16623   2.499   4.782   2.677 -0.3587  0.2231 -0.0130
 4223SOL    HW216624   2.579   4.818   2.639  1.3963 -2.9063  0.3797
 4223SOL    HW316625   2.499   4.813   2.767  1.0506 -0.5778  0.2921
 4223SOL    MW416626   2.509   4.791   2.684  0.2240  0.4167  0.0137
 4224SOL     OW16627   3.189   4.572   0.175  0.0482  0.1156  0.6083
 4224SOL    HW216628   3.151   4.514   0.110  0.5978  0.0583  0.3282
 4224SOL    HW316629   3.165   4.534   0.259  0.0352 -0.2699  0.4304
 4224SOL    MW416630   3.181   4.560   0.178  0.1499 -0.0475  0.7389
 4225SOL     OW16631   4.181   0.017   4.146 -0.1445  0.1307 -0.0670
 4225SOL    HW216632   4.127   0.092   4.121 -0.4296 -0.5179 -1.5270
 4225SOL    HW316633   4.268   0.038   4.112  0.1188  0.4120  0.7662
 4225SOL    MW416634   4.185   0.030   4.138 -0.8750 -0.1402 -0.5321
 4226SOL     OW16635   6.072   0.507   1.815  0.1773 -0.2991 -0.2049
 4226SOL    HW216636   6.030   0.424   1.791  0.2083 -0.9364  1.8002
 4226SOL    HW316637   6.001   0.571   1.809 -0.5580 -0.9747  0.9388
 4226SOL    MW416638   6.057   0.505   1.811  0.0078 -0.8273 -0.9151
 4227SOL     OW16639   2.963   1.511   5.085 -0.0012  0.0840 -0.4512
 4227SOL    HW216640   2.959   1.601   5.115 -2.1515  0.0080 -0.3451
 4227SOL    HW316641   3.007   1.463   5.155  1.0231  1.0011 -0.4525
 4227SOL    MW416642   2.968   1.516   5.098  0.0632  0.2160  0.6883
 4228SOL     OW16643   5.055   0.618   4.520  0.5075  0.9281  0.8491
 4228SOL    HW216644   5.148   0.625   4.499  0.3227  0.4129 -0.2081
 4228SOL    HW316645   5.050   0.638   4.614  1.7272  0.5681  1.0056
 4228SOL    MW416646   5.067   0.622   4.530 -0.0051 -0.1021 -0.1399
 4229SOL     OW16647   1.493   2.658   2.674  0.3837 -0.2571 -0.1122
 4229SOL    HW216648   1.420   2.611   2.634 -0.1534 -0.9354  1.5678
 4229SOL    HW316649   1.496   2.742   2.629 -0.4603 -0.8124 -1.2390
 4229SOL    MW416650   1.484   2.663   2.663  0.3113 -0.3566 -0.2457
 4230SOL     OW16651   6.137   0.950   3.046 -0.3208 -0.4200  0.1268
 4230SOL    HW216652   6.071   0.971   2.981 -1.0361 -1.0326  0.6394
 4230SOL    HW316653   6.184   1.032   3.060 -0.4607 -0.1715 -0.8078
 4230SOL    MW416654   6.135   0.963   3.039 -0.0508  0.4471  0.2709
 4231SOL     OW16655   3.158   0.119   4.064 -0.1553  0.5432 -0.2039
 4231SOL    HW216656   3.199   0.138   3.980 -1.8974  2.3851 -0.7244
 4231SOL    HW316657   3.108   0.038   4.049 -0.0036  0.5551 -0.7769
 4231SOL    MW416658   3.157   0.111   4.051  0.6049 -0.5020  0.0019
 4232SOL     OW16659   2.194   5.973   3.437 -0.0967  0.2057 -0.4234
 4232SOL    HW216660   2.107   6.013   3.442 -0.1833  0.1760 -1.5705
 4232SOL    HW316661   2.243   6.029   3.377  0.8385  0.4996  0.5902
 4232SOL    MW416662   2.189   5.986   3.430  0.2828  0.1824 -0.2692
 4233SOL     OW16663   4.984   0.574   1.584 -0.1195  0.0572  0.7008
 4233SOL    HW216664   5.049   0.505   1.577 -0.2051  0.0215  0.2199
 4233SOL    HW316665   4.964   0.599   1.493 -0.2139  0.5946  0.8603
 4233SOL    MW416666   4.990   0.569   1.571 -0.0599 -1.2646 -0.2749
 4234SOL     OW16667   4.908   5.759   1.348 -0.5978  0.4835  0.0536
 4234SOL    HW216668   4.900   5.847   1.384 -0.7297 -0.2554  1.9733
 4234SOL    HW316669   5.002   5.744   1.340 -0.3856 -0.2222  2.6718
 4234SOL    MW416670   4.919   5.768   1.352 -0.4401  0.3563  0.2355
 4235SOL     OW16671   0.260   3.945   1.779  0.0742  0.3722  0.1280
 4235SOL    HW216672   0.189   3.881   1.778  1.4115 -1.2430 -2.7723
 4235SOL    HW316673   0.217   4.028   1.759 -1.2634 -0.1995  0.4942
 4235SOL    MW416674   0.245   3.948   1.776 -0.0974  0.1852 -0.4066
 4236SOL     OW16675   1.796   1.424   4.611  0.0241 -0.4562 -0.4714
 4236SOL    HW216676   1.830   1.492   4.553 -0.5682 -0.1951 -0.5248
 4236SOL    HW316677   1.759   1.358   4.553  0.2046 -0.6111 -0.4108
 4236SOL    MW416678   1.795   1.424   4.596  0.1729  0.2112  0.2425
 4237SOL     OW16679   3.472   4.149   5.883  0.0804 -0.2506  0.1471
 4237SOL    HW216680   3.452   4.055   5.880 -1.0796 -0.0127 -0.1157
 4237SOL    HW316681   3.469   4.171   5.976  0.2443 -0.4539  0.2008
 4237SOL    MW416682   3.469   4.140   5.895  0.3937  0.5956  0.6967
 4238SOL     OW16683   3.758   2.814   1.027 -0.3035  0.5338  0.2630
 4238SOL    HW216684   3.721   2.822   1.115  1.4771  0.0191  1.1101
 4238SOL    HW316685   3.754   2.720   1.008  1.2733  0.3499  0.7281
 4238SOL    MW416686   3.752   2.802   1.036  0.4904  0.4520  0.1390
 4239SOL     OW16687   5.706   0.767   3.845  0.1058 -0.0671 -0.3633
 4239SOL    HW216688   5.772   0.822   3.803  2.5803 -1.2505  1.6182
 4239SOL    HW316689   5.756   0.718   3.911 -2.4571 -2.5147 -0.0640
 4239SOL    MW416690   5.722   0.767   3.848 -0.5747  0.3714 -0.3950
 4240SOL     OW16691   6.402   3.515   1.925  0.4777  0.2877 -0.6844
 4240SOL    HW216692   6.307   3.520   1.922  0.5162  0.4104 -1.8150
 4240SOL    HW316693   6.421   3.491   2.016 -0.6136  0.4522 -0.3977
 4240SOL    MW416694   6.392   3.512   1.937 -0.9680  0.0451 -0.3430
 4241SOL     OW16695   2.915   2.683   4.826  0.4672  0.3161 -0.3495
 4241SOL    HW216696   2.867   2.735   4.762 -0.3238 -0.5572 -0.4844
 4241SOL    HW316697   3.007   2.694   4.803  0.3578  1.9809 -0.1210
 4241SOL    MW416698   2.921   2.692   4.815 -1.2683  0.3204 -0.2774
 4242SOL     OW16699   6.324   2.615   4.441 -0.2739 -0.4754 -0.0012
 4242SOL    HW216700   6.251   2.643   4.497 -0.1660  0.9212 -0.5114
 4242SOL    HW316701   6.394   2.592   4.502  0.2510  2.1426  0.5215
 4242SOL    MW416702   6.323   2.615   4.456  0.4401 -0.2868 -0.1260
 4243SOL     OW16703   2.737   5.744   3.690 -0.1297 -0.2597  0.3922
 4243SOL    HW216704   2.805   5.693   3.735  0.6059  0.0938 -0.3002
 4243SOL    HW316705   2.786   5.804   3.633 -1.0291 -0.0109 -0.1289
 4243SOL    MW416706   2.752   5.745   3.689 -0.0793  0.8068 -0.1337
 4244SOL     OW16707   2.218   2.017   2.036 -0.4376 -0.2600  0.0740
 4244SOL    HW216708   2.152   2.045   2.099 -2.1957 -1.5638 -1.1189
 4244SOL    HW316709   2.298   2.063   2.064 -1.7876  1.3138  1.5969
 4244SOL    MW416710   2.220   2.027   2.048  0.5277 -0.7062  0.6713
 4245SOL     OW16711   5.826   5.490   5.750  0.5786 -0.0697 -0.4508
 4245SOL    HW216712   5.856   5.569   5.706  2.3382  0.2815  1.2356
 4245SOL    HW316713   5.899   5.428   5.744  1.7059  0.6100  3.2784
 4245SOL    MW416714   5.839   5.492   5.744 -0.4048  0.7221  0.4105
 4246SOL     OW16715   3.220   6.438   5.313 -0.2670  0.0111 -0.0185
 4246SOL    HW216716   3.196   6.346   5.319  1.9050 -0.8020 -2.2732
 4246SOL    HW316717   3.219   6.457   5.219  0.4318  1.9699  0.3220
 4246SOL    MW416718   3.216   6.428   5.301 -0.1438  0.6990  0.0720
 4247SOL     OW16719   3.796   6.178   0.281 -0.4357 -0.0543  0.5617
 4247SOL    HW216720   3.885   6.146   0.274  0.5024  1.8995  2.2772
 4247SOL    HW316721   3.768   6.195   0.191  1.0818 -0.2826  0.0305
 4247SOL    MW416722   3.804   6.176   0.269  0.5158 -0.0049  0.0039
 4248SOL     OW16723   5.754   4.644   3.662  0.0562 -0.3787  0.2963
 4248SOL    HW216724   5.742   4.636   3.757 -1.7436  1.7302  0.3251
 4248SOL    HW316725   5.833   4.594   3.644  1.5231  0.6200  3.2163
 4248SOL    MW416726   5.763   4.637   3.673 -0.5065  0.4266 -0.2862
 4249SOL     OW16727   1.677   0.131   3.575 -0.4772 -1.0287 -0.5013
 4249SOL    HW216728   1.611   0.101   3.512  0.6487 -1.6444 -1.4253
 4249SOL    HW316729   1.722   0.051   3.602  0.1758 -0.5779 -0.2215
 4249SOL    MW416730   1.674   0.116   3.570  0.5331  0.1047 -0.5427
 4250SOL     OW16731   6.190   1.507   6.355  0.9077 -0.2304  0.2173
 4250SOL    HW216732   6.260   1.560   6.317 -0.2519  0.0344 -1.7163
 4250SOL    HW316733   6.234   1.430   6.391  2.4905  1.4023  1.9528
 4250SOL    MW416734   6.205   1.504   6.355  0.0954 -0.0947 -0.6152
 4251SOL     OW16735   4.476   0.616   2.310  0.1711 -0.2403  0.0882
 4251SOL    HW216736   4.413   0.609   2.238 -0.9117 -1.2757  1.0824
 4251SOL    HW316737   4.424   0.646   2.384  1.2830  0.8878  0.4454
 4251SOL    MW416738   4.461   0.619   2.310 -0.4937 -0.1335 -0.4283
 4252SOL     OW16739   2.069   4.386   1.926  0.2804  0.2436 -0.5956
 4252SOL    HW216740   2.064   4.418   1.836  1.7049  0.0597 -0.7678
 4252SOL    HW316741   2.154   4.342   1.931 -0.0288 -0.2659  0.6805
 4252SOL    MW416742   2.080   4.384   1.915 -0.7498 -0.6924 -0.1963
 4253SOL     OW16743   4.412   5.819   3.018  0.5042  0.5340  0.4225
 4253SOL    HW216744   4.460   5.755   2.966  0.0595  0.5605 -0.0217
 4253SOL    HW316745   4.320   5.802   2.999  0.4046  2.3670 -0.9998
 4253SOL    MW416746   4.406   5.808   3.009  0.4284 -0.2618 -0.7880
 4254SOL     OW16747   1.144   5.025   1.574  0.2421  0.5855  0.4264
 4254SOL    HW216748   1.091   5.034   1.654  0.7665  0.1937  0.8250
 4254SOL    HW316749   1.234   5.020   1.606  0.6133  2.0794 -0.2922
 4254SOL    MW416750   1.148   5.026   1.589 -0.0232 -0.2523 -0.2027
 4255SOL     OW16751   2.582   3.019   1.138 -0.1447  0.1703 -0.5363
 4255SOL    HW216752   2.677   3.022   1.142 -0.1115 -1.4305  0.5255
 4255SOL    HW316753   2.558   3.093   1.082  1.5066  2.5852  1.7480
 4255SOL    MW416754   2.591   3.029   1.131  0.1963 -0.6489 -0.5709
 4256SOL     OW16755   4.979   4.060   0.885 -0.2099  0.7733 -0.7351
 4256SOL    HW216756   4.982   3.967   0.908 -1.7321  1.0346  0.8048
 4256SOL    HW316757   5.071   4.087   0.882  0.2302 -0.2794  1.1563
 4256SOL    MW416758   4.991   4.051   0.888 -0.1049  0.1307  0.2417
 4257SOL     OW16759   3.438   5.539   4.930  0.0027  0.4855 -0.2947
 4257SOL    HW216760   3.493   5.556   5.007 -0.0075  2.0505 -0.6105
 4257SOL    HW316761   3.451   5.446   4.912  1.0283  0.3871  0.8128
 4257SOL    MW416762   3.447   5.529   4.938 -0.5869  0.3889  0.1467
 4258SOL     OW16763   5.413   1.829   0.131  0.0521  0.3089 -0.0247
 4258SOL    HW216764   5.505   1.828   0.105 -0.2440  0.3438 -1.1245
 4258SOL    HW316765   5.414   1.865   0.219  1.0641  0.6341 -0.1520
 4258SOL    MW416766   5.426   1.834   0.139  0.1559  1.2753 -0.1108
 4259SOL     OW16767   1.799   0.920   0.540  0.3038 -0.0628  0.1678
 4259SOL    HW216768   1.783   1.008   0.574  1.1951  0.2494 -0.1867
 4259SOL    HW316769   1.713   0.888   0.513  0.0462  0.9182 -0.2148
 4259SOL    MW416770   1.786   0.927   0.541 -0.5521 -0.1078  0.4144
 4260SOL     OW16771   0.577   6.381   1.884 -0.5195  0.4737 -1.2560
 4260SOL    HW216772   0.662   6.404   1.846  1.5521  0.8256  3.0446
 4260SOL    HW316773   0.528   6.464   1.885  0.6593  1.1909 -0.3039
 4260SOL    MW416774   0.582   6.395   1.879  0.1177  0.4880 -0.3205
 4261SOL     OW16775   3.005   2.291   2.200 -0.3082  0.2470 -0.4420
 4261SOL    HW216776   3.067   2.232   2.245 -1.7154  0.4746  1.9833
 4261SOL    HW316777   3.057   2.369   2.180  0.8550 -0.6457 -1.0379
 4261SOL    MW416778   3.020   2.293   2.204  0.2468  0.2931  0.2572
 4262SOL     OW16779   2.732   0.127   5.740 -0.5173 -0.3155  0.6132
 4262SOL    HW216780   2.644   0.099   5.762 -1.1974  1.3052  0.1336
 4262SOL    HW316781   2.767   0.164   5.821 -0.4809 -0.4791  0.6715
 4262SOL    MW416782   2.725   0.128   5.753 -0.4485  0.0551  0.6128
 4263SOL     OW16783   4.066   0.993   3.362 -0.0635 -0.2960 -0.4009
 4263SOL    HW216784   4.087   1.041   3.281  1.2023  0.4799  0.3652
 4263SOL    HW316785   4.004   0.925   3.333 -1.2318  1.2207 -1.6737
 4263SOL    MW416786   4.061   0.990   3.347  0.0366  0.2565 -0.4544
 4264SOL     OW16787   3.530   3.003   2.461  0.2607  0.1434 -0.0835
 4264SOL    HW216788   3.517   3.049   2.378  0.9367 -1.8281 -1.3499
 4264SOL    HW316789   3.445   2.963   2.479 -0.2460  1.5417  0.8770
 4264SOL    MW416790   3.517   3.004   2.452  0.3584  0.6521  0.0788
 4265SOL     OW16791   0.953   5.498   3.190 -0.5577  0.2064  0.0923
 4265SOL    HW216792   0.970   5.518   3.098  0.0203 -3.2715 -0.6716
 4265SOL    HW316793   0.858   5.490   3.196 -0.4723 -3.1297 -1.1835
 4265SOL    MW416794   0.943   5.500   3.179  0.2130 -0.6163 -0.2368
 4266SOL     OW16795   4.768   5.086   0.613  0.7554 -0.1393  0.3182
 4266SOL    HW216796   4.801   5.046   0.532  0.1417 -1.1358  0.5429
 4266SOL    HW316797   4.675   5.065   0.614 -0.2012  3.3305 -0.7316
 4266SOL    MW416798   4.760   5.078   0.602  0.4264  0.4134  1.0138
 4267SOL     OW16799   2.589   1.748   2.060  0.3951 -0.0523  0.2011
 4267SOL    HW216800   2.510   1.720   2.013 -0.1989  1.0509  0.4987
 4267SOL    HW316801   2.608   1.677   2.121 -1.4405  0.4071  1.3982
 4267SOL    MW416802   2.581   1.735   2.062  0.1739 -0.9293 -0.2627
 4268SOL     OW16803   1.275   2.946   1.036  0.2027  0.7511  0.0780
 4268SOL    HW216804   1.284   2.897   1.118  1.7177  0.3900 -0.2689
 4268SOL    HW316805   1.281   2.879   0.968  0.1194  1.1744 -0.3483
 4268SOL    MW416806   1.277   2.931   1.038 -0.2929 -0.3531  0.0923
 4269SOL     OW16807   0.785   5.125   3.095  0.4742 -0.9437 -0.0121
 4269SOL    HW216808   0.810   5.194   3.034  1.5221 -1.1546  0.1516
 4269SOL    HW316809   0.695   5.146   3.121  0.3578 -0.3220 -0.8823
 4269SOL    MW416810   0.776   5.137   3.091  0.2214  0.1755  0.0648
 4270SOL     OW16811   4.826   5.117   2.758  0.3454  0.2564  0.0425
 4270SOL    HW216812   4.822   5.103   2.853 -1.6195  0.6796  0.0711
 4270SOL    HW316813   4.842   5.211   2.748 -0.5344  0.4122 -0.0093
 4270SOL    MW416814   4.827   5.128   2.769 -0.1302  0.0285 -0.0900
 4271SOL     OW16815   1.013   5.940   1.796 -0.0809  0.4104 -0.6346
 4271SOL    HW216816   0.958   6.013   1.769 -0.1367  0.8280  0.5503
 4271SOL    HW316817   1.103   5.972   1.785 -0.1053  0.7296  0.0203
 4271SOL    MW416818   1.018   5.954   1.791 -0.6573 -0.0703  0.0291
 4272SOL     OW16819   1.143   3.288   4.868  0.5135 -0.3320  0.6410
 4272SOL    HW216820   1.084   3.360   4.847  1.0926  0.2300  0.9160
 4272SOL    HW316821   1.097   3.210   4.839 -0.6210  0.0434  1.3902
 4272SOL    MW416822   1.129   3.287   4.861  0.3439  1.0363  0.5853
 4273SOL     OW16823   3.896   4.815   2.594  0.4868  0.2746  0.7117
 4273SOL    HW216824   3.923   4.862   2.672  0.7994 -0.2802  0.9446
 4273SOL    HW316825   3.977   4.788   2.551  0.3668  1.9129 -0.6686
 4273SOL    MW416826   3.910   4.817   2.598  0.3684  0.4291  0.1749
 4274SOL     OW16827   0.337   6.131   2.728  0.7416 -0.5556 -0.3619
 4274SOL    HW216828   0.316   6.099   2.640  1.3529 -1.6671 -0.1146
 4274SOL    HW316829   0.251   6.152   2.766  0.5551  1.8967 -1.8954
 4274SOL    MW416830   0.323   6.130   2.722  0.4050 -0.3849  0.2168
 4275SOL     OW16831   3.095   1.854   3.771 -0.1721 -0.0609  0.3214
 4275SOL    HW216832   3.066   1.848   3.680 -1.5854  0.1970  0.7331
 4275SOL    HW316833   3.086   1.947   3.792 -0.9772 -0.2885  1.0591
 4275SOL    MW416834   3.090   1.866   3.762  0.7174  0.6445  0.6848
 4276SOL     OW16835   4.204   5.623   6.180  0.0434 -0.3486  0.3396
 4276SOL    HW216836   4.253   5.560   6.233 -0.7097 -1.7349 -0.5390
 4276SOL    HW316837   4.181   5.693   6.241  0.2141 -1.3170  1.5537
 4276SOL    MW416838   4.207   5.624   6.195  0.1957  0.1044  0.1155
 4277SOL     OW16839   4.121   0.918   5.576 -0.1152  0.6691 -0.0061
 4277SOL    HW216840   4.108   0.995   5.632 -0.9686 -0.1550  0.9623
 4277SOL    HW316841   4.081   0.846   5.625  2.0241 -0.6959 -0.1627
 4277SOL    MW416842   4.114   0.919   5.590  0.0312  0.6662 -0.5436
 4278SOL     OW16843   1.384   2.026   5.733  0.5853 -0.0871 -0.2867
 4278SOL    HW216844   1.378   1.935   5.764 -1.3336 -0.6081 -2.0163
 4278SOL    HW316845   1.349   2.024   5.644 -2.9476  2.9444  0.8000
 4278SOL    MW416846   1.379   2.014   5.725  0.0991 -0.0679  0.1840
 4279SOL     OW16847   5.211   1.212   4.032  0.1235  0.2430  0.2226
 4279SOL    HW216848   5.176   1.269   3.964  1.9874 -0.1833 -1.1688
 4279SOL    HW316849   5.163   1.130   4.022  0.2017  0.2740 -0.4268
 4279SOL    MW416850   5.200   1.209   4.022  0.6131 -0.6364  0.1235
 4280SOL     OW16851   5.438   5.183   5.544  0.0912  0.2353 -0.2075
 4280SOL    HW216852   5.463   5.263   5.591 -1.1180  0.7043 -0.3430
 4280SOL    HW316853   5.345   5.194   5.525 -0.2128 -1.4367  0.1941
 4280SOL    MW416854   5.429   5.195   5.548  0.1376  0.3840 -0.0808
 4281SOL     OW16855   0.966   1.846   3.840 -0.6664  0.4989  0.0794
 4281SOL    HW216856   0.877   1.847   3.804 -0.2890  0.7781 -0.8549
 4281SOL    HW316857   0.992   1.754   3.840 -0.7823  0.4666 -0.0773
 4281SOL    MW416858   0.958   1.834   3.835 -0.0717 -0.0625  0.1528
 4282SOL     OW16859   4.444   4.065   5.014 -0.2286 -0.6745  0.0046
 4282SOL    HW216860   4.505   4.020   5.073 -0.6455  0.8584  1.6883
 4282SOL    HW316861   4.360   4.023   5.030 -0.4910  0.2429  1.0952
 4282SOL    MW416862   4.441   4.053   5.024  0.2142  0.4369  0.4013
 4283SOL     OW16863   1.293   2.512   2.241  0.0443 -0.4320  0.4669
 4283SOL    HW216864   1.200   2.489   2.235 -0.0802  0.0500  0.5257
 4283SOL    HW316865   1.338   2.428   2.238 -0.3451 -0.6179 -0.5887
 4283SOL    MW416866   1.287   2.498   2.240  0.6198 -0.2882 -0.4417
 4284SOL     OW16867   2.595   5.370   0.432  0.0267 -0.0604  0.4997
 4284SOL    HW216868   2.502   5.390   0.436 -0.3712 -1.2593 -1.3484
 4284SOL    HW316869   2.636   5.449   0.396 -0.2690  0.4627  1.3010
 4284SOL    MW416870   2.588   5.383   0.428 -0.0956 -0.1041 -0.3561
 4285SOL     OW16871   1.809   4.408   4.599 -0.3386 -1.1102  0.0797
 4285SOL    HW216872   1.780   4.338   4.540 -0.2827  1.5281 -3.3553
 4285SOL    HW316873   1.904   4.394   4.608 -0.4062 -1.7493 -0.1404
 4285SOL    MW416874   1.818   4.397   4.593 -0.4486  0.2546  0.3658
 4286SOL     OW16875   0.776   2.187   0.521  0.2869  0.4861 -0.3888
 4286SOL    HW216876   0.786   2.162   0.613  2.0140  0.1464 -0.6235
 4286SOL    HW316877   0.838   2.259   0.509  1.3337 -0.5759 -1.6553
 4286SOL    MW416878   0.786   2.193   0.532  0.1471 -0.0461 -0.3820
 4287SOL     OW16879   5.434   1.399   2.100  0.3511  0.4895  0.1810
 4287SOL    HW216880   5.452   1.363   2.187 -1.6164  0.8807  0.8212
 4287SOL    HW316881   5.444   1.324   2.041  2.3676  0.3674  0.6189
 4287SOL    MW416882   5.437   1.384   2.104  0.2446  0.2624 -0.0687
 4288SOL     OW16883   3.826   3.822   0.912  0.5866 -0.3772  0.9433
 4288SOL    HW216884   3.800   3.826   0.820  0.6343  1.1333  0.9723
 4288SOL    HW316885   3.743   3.831   0.960  0.6397 -0.4896  1.0579
 4288SOL    MW416886   3.811   3.823   0.906  0.0792  0.4463  0.2227
 4289SOL     OW16887   4.044   6.278   3.753 -0.1552  0.5679 -0.3265
 4289SOL    HW216888   3.992   6.347   3.796  0.4368  0.8230 -0.0033
 4289SOL    HW316889   3.988   6.247   3.682 -2.2964 -1.6617  2.1200
 4289SOL    MW416890   4.030   6.283   3.749 -0.0330 -0.0144 -0.2345
 4290SOL     OW16891   4.212   4.329   1.764 -0.2414  0.3468  0.0227
 4290SOL    HW216892   4.183   4.340   1.855 -1.9784  1.0059 -0.5673
 4290SOL    HW316893   4.186   4.240   1.741  0.5601  0.0415  0.2890
 4290SOL    MW416894   4.204   4.319   1.773  0.3903 -0.0308 -0.0241
 4291SOL     OW16895   0.787   6.359   5.203 -0.1009  0.2413  0.1130
 4291SOL    HW216896   0.758   6.447   5.179 -0.7642  0.2492  0.8861
 4291SOL    HW316897   0.716   6.325   5.259  0.2326 -0.7079 -0.0150
 4291SOL    MW416898   0.774   6.366   5.207 -0.0143  0.6718 -0.1173
 4292SOL     OW16899   0.084   5.096   1.141  0.1888  0.4812  0.0469
 4292SOL    HW216900   0.048   5.119   1.055 -1.2268 -0.7011  0.2781
 4292SOL    HW316901   0.029   5.143   1.203 -0.5217 -0.7295  0.3782
 4292SOL    MW416902   0.072   5.105   1.138 -0.3204 -0.2063  0.1864
 4293SOL     OW16903   1.686   5.535   3.981  0.4946 -0.4262 -0.4545
 4293SOL    HW216904   1.631   5.577   3.913  1.9552  0.3140 -1.2247
 4293SOL    HW316905   1.705   5.606   4.042  1.6237 -0.3493 -0.8789
 4293SOL    MW416906   1.681   5.550   3.980  0.4300  0.2147 -0.0383
 4294SOL     OW16907   1.296   6.045   1.824 -0.2274 -0.4588  0.0408
 4294SOL    HW216908   1.288   6.128   1.871 -0.0347 -0.6711  0.4560
 4294SOL    HW316909   1.335   6.068   1.740 -2.0055  0.1364 -0.6688
 4294SOL    MW416910   1.300   6.059   1.819  0.1081 -0.9382  0.1322
 4295SOL     OW16911   6.235   5.262   5.062 -0.2655 -0.6114 -0.1786
 4295SOL    HW216912   6.150   5.261   5.107 -1.8145  1.0178 -2.7688
 4295SOL    HW316913   6.243   5.351   5.029  2.8869 -0.4958  0.5687
 4295SOL    MW416914   6.225   5.274   5.063  0.2524  0.0456 -0.5878
 4296SOL     OW16915   1.065   4.808   2.779 -0.3017  0.6864 -0.2558
 4296SOL    HW216916   0.988   4.798   2.723  0.6265  0.0434 -1.4529
 4296SOL    HW316917   1.083   4.720   2.811  0.8062  0.5610 -1.1820
 4296SOL    MW416918   1.057   4.795   2.776  0.2534 -0.3006  0.1248
 4297SOL     OW16919   6.042   2.216   4.491  0.2674 -0.4949  0.2105
 4297SOL    HW216920   6.102   2.274   4.442 -0.6263  1.1337  0.9505
 4297SOL    HW316921   5.974   2.194   4.427  0.4473 -0.4895  0.0121
 4297SOL    MW416922   6.041   2.221   4.476 -0.3346 -0.3048 -0.0075
 4298SOL     OW16923   4.985   5.831   2.475 -0.5193 -0.5093  0.7529
 4298SOL    HW216924   4.981   5.916   2.432  0.0812 -0.5370  0.6345
 4298SOL    HW316925   4.941   5.772   2.414 -2.1104 -0.0708  1.4145
 4298SOL    MW416926   4.978   5.834   2.461  0.1616 -0.0148  0.6111
 4299SOL     OW16927   1.510   3.082   3.092 -0.3749 -0.0294 -0.0490
 4299SOL    HW216928   1.553   3.007   3.132  0.4728  1.7255  2.6578
 4299SOL    HW316929   1.505   3.061   2.999  1.4048 -2.6404  0.3443
 4299SOL    MW416930   1.515   3.069   3.085  0.0126 -0.0837  0.3823
 4300SOL     OW16931   2.863   4.317   3.124  0.3821  0.5901 -0.0493
 4300SOL    HW216932   2.842   4.352   3.211 -0.5923  0.2209 -0.1243
 4300SOL    HW316933   2.813   4.235   3.118  0.7704  0.3947 -0.8022
 4300SOL    MW416934   2.854   4.310   3.135  0.1769  0.4163  0.8903
 4301SOL     OW16935   0.575   2.070   1.375 -0.1251  0.9731  0.0312
 4301SOL    HW216936   0.495   2.027   1.346  1.1276 -0.3494 -1.7533
 4301SOL    HW316937   0.567   2.076   1.470 -0.9745 -2.1146  0.2753
 4301SOL    MW416938   0.564   2.065   1.383  0.5226  0.1483  0.1244
 4302SOL     OW16939   3.761   4.566   1.952  0.0976 -0.4848  0.1337
 4302SOL    HW216940   3.745   4.471   1.950  1.6206 -0.7951  1.3060
 4302SOL    HW316941   3.837   4.578   1.896  0.4175 -0.0726  0.6500
 4302SOL    MW416942   3.769   4.555   1.944  0.2317  0.1671  0.2115
 4303SOL     OW16943   3.777   3.506   5.163 -0.4769 -0.0903 -0.1776
 4303SOL    HW216944   3.787   3.411   5.169 -0.8073 -0.2950 -2.0827
 4303SOL    HW316945   3.866   3.540   5.178 -0.1984 -0.7685 -0.2429
 4303SOL    MW416946   3.790   3.498   5.166  1.1808  0.1005 -0.5870
 4304SOL     OW16947   4.728   5.149   6.157  0.0678  0.4840  0.6547
 4304SOL    HW216948   4.782   5.228   6.151 -0.5576  0.8301 -2.2817
 4304SOL    HW316949   4.784   5.079   6.122 -0.6168  0.4350 -0.4074
 4304SOL    MW416950   4.743   5.150   6.151  0.3676 -0.4375  0.0118
 4305SOL     OW16951   1.564   6.194   4.047 -0.2137 -0.2147 -0.2050
 4305SOL    HW216952   1.491   6.163   4.101 -0.5821  1.2633  0.2221
 4305SOL    HW316953   1.631   6.126   4.054 -0.7386 -0.6232  1.1238
 4305SOL    MW416954   1.563   6.181   4.055 -0.4318  0.2665 -0.3426
 4306SOL     OW16955   5.629   4.224   5.365  0.0431 -0.2567 -0.0459
 4306SOL    HW216956   5.669   4.231   5.451 -0.3318  0.5157  0.0784
 4306SOL    HW316957   5.545   4.181   5.381 -1.3398  2.4240  0.4510
 4306SOL    MW416958   5.623   4.219   5.378  0.4887  0.2423  0.5024
 4307SOL     OW16959   5.280   1.638   4.034  0.1265  0.2468 -0.1437
 4307SOL    HW216960   5.193   1.628   3.995 -0.3185 -0.0162  0.8746
 4307SOL    HW316961   5.265   1.629   4.128  1.5801 -2.3054 -0.0626
 4307SOL    MW416962   5.266   1.635   4.041 -0.2848  0.0958  0.0304
 4308SOL     OW16963   2.599   0.276   1.377 -0.3828 -0.6115  0.1896
 4308SOL    HW216964   2.646   0.200   1.411  1.6954  1.1430  1.4930
 4308SOL    HW316965   2.656   0.310   1.308 -0.6656  0.4523  0.4679
 4308SOL    MW416966   2.613   0.270   1.372 -1.1184  0.4374  0.5725
 4309SOL     OW16967   1.327   3.641   5.965  0.0825 -0.0607 -0.3350
 4309SOL    HW216968   1.256   3.670   6.021  0.2593 -0.8397  0.3162
 4309SOL    HW316969   1.364   3.721   5.928  0.3895  0.5153  1.1828
 4309SOL    MW416970   1.323   3.655   5.967 -0.3702  0.3285  0.2808
 4310SOL     OW16971   0.469   3.911   0.962  0.5208  0.0700 -0.0025
 4310SOL    HW216972   0.513   3.996   0.947  1.0555 -0.4518 -1.6285
 4310SOL    HW316973   0.531   3.847   0.928 -0.6447 -0.8486 -0.4117
 4310SOL    MW416974   0.483   3.914   0.956  1.0227 -0.3133 -0.1064
 4311SOL     OW16975   2.974   1.944   5.423 -0.1530  0.0776  0.5368
 4311SOL    HW216976   2.997   1.925   5.514  0.1617  0.8262  0.6183
 4311SOL    HW316977   2.981   2.039   5.416 -0.9190  0.0997 -0.0675
 4311SOL    MW416978   2.978   1.954   5.434 -0.3175  0.1984  0.3330
 4312SOL     OW16979   0.773   2.693   4.770 -0.2504  0.2238  0.3228
 4312SOL    HW216980   0.791   2.662   4.858  0.1487  0.7171  0.4187
 4312SOL    HW316981   0.860   2.708   4.731 -0.4254  0.2599 -0.0628
 4312SOL    MW416982   0.787   2.691   4.776 -0.3671  0.0602 -0.4608
 4313SOL     OW16983   1.646   2.232   5.173 -0.3182  0.3880  0.3824
 4313SOL    HW216984   1.715   2.294   5.149 -0.9396  1.4468  1.2563
 4313SOL    HW316985   1.567   2.285   5.180 -1.0357 -0.6377  0.3865
 4313SOL    MW416986   1.645   2.247   5.171 -0.6891  0.7481 -0.6714
 4314SOL     OW16987   3.686   2.143   1.829  0.6670 -0.4118 -0.6668
 4314SOL    HW216988   3.713   2.222   1.876  2.3154 -1.7166  0.7483
 4314SOL    HW316989   3.595   2.128   1.856  0.3076  0.9970 -1.0169
 4314SOL    MW416990   3.678   2.152   1.839 -0.1461  0.2140 -0.0849
 4315SOL     OW16991   5.023   0.047   5.384 -0.3017 -0.2527 -0.2720
 4315SOL    HW216992   4.973  -0.015   5.437 -0.8021  0.8608  0.5898
 4315SOL    HW316993   5.097  -0.004   5.351  0.1772 -0.9199  1.7131
 4315SOL    MW416994   5.026   0.032   5.387 -0.0428 -0.7275 -0.1311
 4316SOL     OW16995   4.771   3.017   3.248 -0.5092  0.3557  0.3028
 4316SOL    HW216996   4.750   3.110   3.239 -1.7854 -0.0693 -1.8350
 4316SOL    HW316997   4.866   3.014   3.257 -0.2908  1.8131 -1.0743
 4316SOL    MW416998   4.781   3.029   3.248  0.0955  0.2194  0.3059
 4317SOL     OW16999   6.207   3.786   6.176 -1.1933 -0.1155 -0.0532
 4317SOL    HW217000   6.126   3.796   6.225 -1.5063 -1.5015 -0.2588
 4317SOL    HW317001   6.271   3.755   6.240 -0.4384  2.1927  0.4045
 4317SOL    MW417002   6.205   3.784   6.191 -0.5339  0.1764 -0.3234
 4318SOL     OW17003   5.338   5.301   4.004  0.8277  0.7435 -0.2252
 4318SOL    HW217004   5.258   5.270   4.048  0.4229 -0.7799 -1.8868
 4318SOL    HW317005   5.341   5.394   4.024  0.1672  0.3356  2.1730
 4318SOL    MW417006   5.328   5.309   4.013 -0.0755 -0.4759 -0.2052
 4319SOL     OW17007   5.039   6.092   4.000 -0.3169 -0.2945  0.1547
 4319SOL    HW217008   5.070   6.173   4.039 -0.0094 -0.4684  0.2724
 4319SOL    HW317009   5.002   6.118   3.916 -0.4899  0.0077  0.3231
 4319SOL    MW417010   5.038   6.106   3.994 -0.5270  0.3611 -0.0551
 4320SOL     OW17011   3.020   1.857   0.481  0.2716 -0.3755 -0.0180
 4320SOL    HW217012   2.985   1.930   0.533  0.8650  0.2347 -0.4597
 4320SOL    HW317013   2.963   1.852   0.405 -0.4714 -1.1356  0.5664
 4320SOL    MW417014   3.008   1.866   0.478 -0.3678  0.1620  0.2747
 4321SOL     OW17015   1.876   0.572   3.284  0.2881  0.4977  0.3915
 4321SOL    HW217016   1.861   0.516   3.360 -0.1992 -0.7277 -0.5635
 4321SOL    HW317017   1.933   0.642   3.316  1.3544 -0.8261  1.5376
 4321SOL    MW417018   1.882   0.574   3.298 -0.4187  0.7793  0.2896
 4322SOL     OW17019   3.918   1.229   3.563 -0.4404  0.6131 -0.1850
 4322SOL    HW217020   3.988   1.176   3.600 -0.0675  2.3833  1.8731
 4322SOL    HW317021   3.943   1.244   3.472 -0.1983 -2.0222 -0.6137
 4322SOL    MW417022   3.930   1.224   3.556 -0.6164  0.2797 -0.6863
 4323SOL     OW17023   5.355   6.257   0.550  0.3693  0.7008 -0.1312
 4323SOL    HW217024   5.271   6.268   0.595 -0.2522  0.9123 -1.2899
 4323SOL    HW317025   5.380   6.166   0.566 -0.8464  0.1840 -0.9856
 4323SOL    MW417026   5.347   6.247   0.558  0.3283  0.6172 -0.2336
 4324SOL     OW17027   6.285   1.371   4.808  0.6186 -0.8569 -0.2023
 4324SOL    HW217028   6.366   1.327   4.782  0.9330 -0.3588 -0.0955
 4324SOL    HW317029   6.225   1.359   4.734  1.6691  0.9984 -1.4354
 4324SOL    MW417030   6.288   1.364   4.795 -0.5511  0.3524  0.1017
 4325SOL     OW17031   4.092   2.459   1.370 -0.4791  0.4396  0.8778
 4325SOL    HW217032   4.107   2.540   1.420 -0.7098  1.1331 -0.1587
 4325SOL    HW317033   4.051   2.488   1.289  1.1035 -0.5137 -0.3139
 4325SOL    MW417034   4.089   2.474   1.366 -0.3588  0.7516  0.3237
 4326SOL     OW17035   4.597   1.790   2.853  0.0854  0.0014  0.5765
 4326SOL    HW217036   4.553   1.727   2.910  0.9137 -0.0398  1.1885
 4326SOL    HW317037   4.653   1.840   2.911  0.6813  0.1973 -0.1514
 4326SOL    MW417038   4.598   1.788   2.868  0.0322 -0.2494 -0.2362
 4327SOL     OW17039   1.030   5.135   0.698 -0.0391 -0.3024  0.3012
 4327SOL    HW217040   1.117   5.157   0.666  0.7561 -2.4369  0.8558
 4327SOL    HW317041   0.983   5.104   0.621 -0.0901  0.1581  0.1415
 4327SOL    MW417042   1.035   5.134   0.684  0.5793 -0.0035 -0.1064
 4328SOL     OW17043   0.586   4.934   2.719 -0.6359  0.5058 -0.0767
 4328SOL    HW217044   0.555   4.891   2.639  1.8439  0.3814 -1.0501
 4328SOL    HW317045   0.611   5.022   2.690  2.7324 -0.3492 -0.1023
 4328SOL    MW417046   0.585   4.940   2.704  0.2063  0.3957 -0.0328
 4329SOL     OW17047   2.159   2.467   0.572  0.3317 -0.4385  0.2063
 4329SOL    HW217048   2.209   2.423   0.503 -1.3800  1.6152 -2.5538
 4329SOL    HW317049   2.077   2.418   0.577 -0.9045  1.2605 -1.7160
 4329SOL    MW417050   2.154   2.455   0.564  0.4457 -0.0926  0.6327
 4330SOL     OW17051   4.242   0.286   2.216  0.5704 -1.1736  0.4181
 4330SOL    HW217052   4.246   0.249   2.128  1.3441  0.3152 -0.1907
 4330SOL    HW317053   4.334   0.293   2.243  0.4666  0.3833  0.4572
 4330SOL    MW417054   4.255   0.282   2.208 -0.3188  0.0350 -0.1878
 4331SOL     OW17055   5.441   0.915   1.290 -0.2594 -0.0120  0.5783
 4331SOL    HW217056   5.398   0.878   1.367 -0.5847 -0.1496  0.3332
 4331SOL    HW317057   5.480   0.840   1.246 -1.0476 -0.1016  0.0003
 4331SOL    MW417058   5.440   0.900   1.295 -0.1413  0.7209  0.5078
 4332SOL     OW17059   1.481   3.791   1.050  1.1044  0.1012  0.3855
 4332SOL    HW217060   1.556   3.842   1.021  1.1712  1.1477  2.2462
 4332SOL    HW317061   1.406   3.830   1.005  1.5360 -0.4548 -0.8759
 4332SOL    MW417062   1.481   3.803   1.040  0.0093 -0.0301  0.1078
 4333SOL     OW17063   3.458   2.107   0.162 -0.2733 -0.3437  0.7867
 4333SOL    HW217064   3.391   2.051   0.201  1.2112 -1.3567  2.0022
 4333SOL    HW317065   3.533   2.098   0.221  0.1770  2.5946  0.7782
 4333SOL    MW417066   3.459   2.098   0.175  0.4181 -0.1858 -0.2289
 4334SOL     OW17067   3.643   2.694   0.581  0.2564 -0.4593  0.6918
 4334SOL    HW217068   3.712   2.745   0.623  0.3499 -0.7593  0.9053
 4334SOL    HW317069   3.682   2.608   0.568  0.3538 -0.2764 -0.3279
 4334SOL    MW417070   3.658   2.689   0.584  0.1932 -0.0663 -0.2978
 4335SOL     OW17071   6.167   3.922   1.761 -0.0453 -0.2536  0.1051
 4335SOL    HW217072   6.205   3.978   1.694 -0.3799 -0.7063 -0.4705
 4335SOL    HW317073   6.076   3.951   1.768 -0.0865 -0.3909  0.1574
 4335SOL    MW417074   6.160   3.933   1.753 -0.1096 -0.0059  0.4185
 4336SOL     OW17075   2.443   2.709   5.533 -0.2982 -0.5346 -0.1519
 4336SOL    HW217076   2.530   2.709   5.492 -0.2012  1.0623  0.0007
 4336SOL    HW317077   2.403   2.627   5.504  0.9889 -0.9666 -0.7923
 4336SOL    MW417078   2.449   2.698   5.524  0.1939  0.2251 -0.1768
 4337SOL     OW17079   1.791   4.308   3.163  0.5238  0.1879  0.1580
 4337SOL    HW217080   1.858   4.318   3.096 -0.2087  0.0599 -0.6037
 4337SOL    HW317081   1.768   4.398   3.188  0.9690  0.2325  0.4296
 4337SOL    MW417082   1.797   4.322   3.158  0.4580  0.0196  0.2447
 4338SOL     OW17083   5.328   1.846   4.754  0.0312 -0.0141 -0.4407
 4338SOL    HW217084   5.302   1.931   4.717  0.5197  0.2609 -0.1553
 4338SOL    HW317085   5.271   1.835   4.831  1.0971  0.8393  0.5000
 4338SOL    MW417086   5.317   1.856   4.759 -0.3436 -0.5689  0.2061
 4339SOL     OW17087   4.964   5.643   0.795 -0.2427  0.0967 -0.6466
 4339SOL    HW217088   5.059   5.655   0.794  0.0186 -1.6991 -0.9294
 4339SOL    HW317089   4.946   5.603   0.880 -0.7967  0.6691 -0.4865
 4339SOL    MW417090   4.974   5.639   0.806  0.2543 -0.1589  0.4622
 4340SOL     OW17091   5.268   2.713   1.078 -0.0931  0.2099  0.6847
 4340SOL    HW217092   5.258   2.758   1.162 -1.7969  1.2439 -0.0184
 4340SOL    HW317093   5.329   2.767   1.028 -0.0184  0.2448  0.8137
 4340SOL    MW417094   5.275   2.726   1.082 -0.2596  0.5490 -0.2963
 4341SOL     OW17095   1.215   5.565   5.490 -0.0009 -0.1019  0.1833
 4341SOL    HW217096   1.268   5.487   5.474 -1.4311 -1.5249  1.9643
 4341SOL    HW317097   1.242   5.595   5.577 -0.2554  0.7379 -0.0173
 4341SOL    MW417098   1.226   5.559   5.500  0.5459 -0.1704  0.5220
 4342SOL     OW17099   1.669   3.643   6.022 -0.5533 -0.3075  0.4775
 4342SOL    HW217100   1.630   3.581   6.082  0.2960 -1.3440 -0.0038
 4342SOL    HW317101   1.631   3.728   6.046  2.0303 -0.0259  4.6389
 4342SOL    MW417102   1.659   3.646   6.033 -0.0115  0.6875  0.5238
 4343SOL     OW17103   0.420   5.052   5.852  0.1297  0.0179 -0.2491
 4343SOL    HW217104   0.487   4.995   5.891  0.2413 -0.4333 -1.0772
 4343SOL    HW317105   0.339   5.028   5.896 -0.0424 -1.6352 -1.4206
 4343SOL    MW417106   0.418   5.042   5.863  0.3685 -0.2357 -0.0607
 4344SOL     OW17107   4.202   4.932   1.617  0.2565  0.8682  0.1670
 4344SOL    HW217108   4.208   4.956   1.709  0.7139  0.4646  0.2486
 4344SOL    HW317109   4.217   5.014   1.570 -2.1952  1.5417  0.4364
 4344SOL    MW417110   4.205   4.946   1.623 -0.1571  0.3647 -0.0742
 4345SOL     OW17111   6.063   5.125   3.394 -0.5362  0.3536 -1.0657
 4345SOL    HW217112   5.997   5.187   3.367 -0.4603  1.0918  0.3455
 4345SOL    HW317113   6.052   5.117   3.489  0.6078 -0.4223 -0.9661
 4345SOL    MW417114   6.053   5.132   3.403 -0.8431 -0.0659 -0.3000
 4346SOL     OW17115   0.907   1.046   5.837 -0.3341  0.4971  0.0486
 4346SOL    HW217116   0.937   1.110   5.902 -0.9137 -0.1598  0.9903
 4346SOL    HW317117   0.974   0.977   5.839  0.4078  1.1582 -1.1270
 4346SOL    MW417118   0.920   1.045   5.846 -0.2702  0.1784  0.1854
 4347SOL     OW17119   0.609   4.001   0.407 -0.0890 -0.0980 -0.2552
 4347SOL    HW217120   0.534   3.944   0.392  1.0583 -1.6276 -0.4317
 4347SOL    HW317121   0.677   3.967   0.350  0.8031  1.1407  0.0301
 4347SOL    MW417122   0.608   3.989   0.398  0.2190  0.2742  0.0624
 4348SOL     OW17123   2.991   5.788   3.853  1.3459 -0.0365  0.3363
 4348SOL    HW217124   3.079   5.755   3.868  2.4956  2.1359 -1.0976
 4348SOL    HW317125   3.004   5.874   3.814 -1.4384  0.9103  1.2473
 4348SOL    MW417126   3.004   5.795   3.850  0.1764 -0.6291 -0.2859
 4349SOL     OW17127   5.800   1.559   4.771 -0.4167  0.5842 -0.3345
 4349SOL    HW217128   5.806   1.589   4.862 -1.7056  2.0163 -0.6679
 4349SOL    HW317129   5.707   1.568   4.749 -0.1503  0.1313 -1.7608
 4349SOL    MW417130   5.789   1.564   4.780  0.2546 -0.5340 -0.4467
 4350SOL     OW17131   5.747   0.962   2.221 -0.3769 -0.1153 -0.4470
 4350SOL    HW217132   5.737   1.016   2.143 -2.9132  1.4629  0.8212
 4350SOL    HW317133   5.817   0.901   2.200 -1.3055 -0.1338 -4.1573
 4350SOL    MW417134   5.755   0.961   2.208  0.0474  0.1902 -0.3323
 4351SOL     OW17135   4.857   1.067   3.283 -0.0755  0.1150 -0.0378
 4351SOL    HW217136   4.898   1.028   3.206  0.6189  0.6256  0.0626
 4351SOL    HW317137   4.770   1.093   3.253  0.0852  0.0548 -0.5725
 4351SOL    MW417138   4.851   1.065   3.269  0.4859 -0.1281 -0.0325
 4352SOL     OW17139   3.524   0.326   3.833 -0.1697 -0.0237 -0.1330
 4352SOL    HW217140   3.511   0.413   3.794 -0.3280 -0.3824 -0.8951
 4352SOL    HW317141   3.542   0.344   3.926  0.5500  0.8694 -0.4269
 4352SOL    MW417142   3.525   0.340   3.840  0.0739 -0.1933 -0.1965
 4353SOL     OW17143   4.945   1.039   2.599  0.1717  0.3586 -0.6536
 4353SOL    HW217144   5.016   1.104   2.589 -0.1650  1.0478  1.0653
 4353SOL    HW317145   4.980   0.976   2.662 -0.3305  0.0841 -0.6505
 4353SOL    MW417146   4.959   1.040   2.606 -0.1410  0.0018 -0.4786
 4354SOL     OW17147   6.186   4.579   0.559 -0.4214  0.1867 -0.3248
 4354SOL    HW217148   6.103   4.622   0.583 -0.4849  0.2081 -0.5797
 4354SOL    HW317149   6.184   4.576   0.463 -0.9143 -1.3415 -0.3037
 4354SOL    MW417150   6.175   4.584   0.549  0.2025  0.1173 -0.1438
 4355SOL     OW17151   3.368   2.599   5.251 -0.0368 -0.2025  0.1178
 4355SOL    HW217152   3.420   2.575   5.327 -0.4054 -2.0278 -0.1509
 4355SOL    HW317153   3.315   2.522   5.233 -1.0743  0.7442 -1.0682
 4355SOL    MW417154   3.368   2.585   5.258  0.0112  0.3721  0.1442
 4356SOL     OW17155   0.655   0.100   6.333 -0.0212  0.6101  0.0613
 4356SOL    HW217156   0.714   0.095   6.258  0.2907  2.5404  0.1192
 4356SOL    HW317157   0.714   0.116   6.408 -0.5658  2.7713  0.0918
 4356SOL    MW417158   0.671   0.102   6.333  0.5434 -0.2590 -0.5364
 4357SOL     OW17159   2.969   1.985   1.026 -0.2434  0.7571  0.1442
 4357SOL    HW217160   2.879   2.015   1.037  0.0883  1.4261  1.0714
 4357SOL    HW317161   2.969   1.896   1.061 -0.1835  1.3404  1.7079
 4357SOL    MW417162   2.957   1.977   1.032  0.2309 -0.5933 -0.3053
 4358SOL     OW17163   2.305   5.269   1.407 -0.5051 -0.4692  0.6809
 4358SOL    HW217164   2.272   5.215   1.335 -0.5501 -1.4679  1.4469
 4358SOL    HW317165   2.304   5.358   1.371 -0.5089 -0.9488 -0.5652
 4358SOL    MW417166   2.300   5.274   1.393 -0.1313  0.1073 -0.0549
 4359SOL     OW17167   0.559   4.856   1.439 -0.0047  0.7928 -0.0728
 4359SOL    HW217168   0.481   4.900   1.406 -2.0622 -1.7124  1.0856
 4359SOL    HW317169   0.597   4.919   1.501 -1.8216  1.6482  0.2521
 4359SOL    MW417170   0.554   4.870   1.443  0.1418  0.4895 -0.1936
 4360SOL     OW17171   2.363   5.652   4.351 -0.0792  0.5967 -0.1214
 4360SOL    HW217172   2.320   5.708   4.287 -2.8366 -2.0278 -0.8117
 4360SOL    HW317173   2.331   5.684   4.436 -0.2628  1.1198 -0.3863
 4360SOL    MW417174   2.353   5.664   4.354 -0.1795 -0.0773  0.1664
 4361SOL     OW17175   1.279   0.652   1.663  0.0899 -0.2741  0.1379
 4361SOL    HW217176   1.241   0.579   1.614  1.1690 -0.7652  0.0148
 4361SOL    HW317177   1.321   0.706   1.596  0.4559 -0.2600  0.3770
 4361SOL    MW417178   1.279   0.650   1.648 -0.4891 -0.1894  0.0242
 4362SOL     OW17179   1.347   2.872   1.699  0.2373  0.8750 -0.0579
 4362SOL    HW217180   1.371   2.792   1.745 -1.1959  0.0069 -0.7409
 4362SOL    HW317181   1.427   2.898   1.653  0.7423 -0.1556  0.1979
 4362SOL    MW417182   1.361   2.865   1.699 -0.2664  0.7716 -0.4342
 4363SOL     OW17183   2.202   3.844   5.689  0.0277 -0.5507  0.4699
 4363SOL    HW217184   2.130   3.890   5.647  0.1778 -0.8581 -0.1329
 4363SOL    HW317185   2.190   3.752   5.664  1.4593 -0.4032 -0.8617
 4363SOL    MW417186   2.191   3.838   5.680 -0.0027  0.5226  0.7685
 4364SOL     OW17187   5.162   5.326   6.205  0.2684  0.2642 -0.2514
 4364SOL    HW217188   5.154   5.310   6.111  0.0778 -0.3557 -0.1306
 4364SOL    HW317189   5.256   5.324   6.222  0.2194 -2.2417  0.0133
 4364SOL    MW417190   5.173   5.324   6.195 -0.1916 -0.3392  0.2502
 4365SOL     OW17191   1.869   3.664   1.142 -0.1871 -0.5447  0.0449
 4365SOL    HW217192   1.880   3.571   1.123 -2.5628 -1.3624  2.1419
 4365SOL    HW317193   1.792   3.668   1.200 -0.3906  2.7616 -0.2603
 4365SOL    MW417194   1.860   3.652   1.147  0.0465 -0.1050 -0.5255
 4366SOL     OW17195   1.998   5.653   2.003 -0.3428  0.4266  0.1000
 4366SOL    HW217196   1.915   5.700   1.993 -1.4028 -1.2920  0.3885
 4366SOL    HW317197   2.016   5.657   2.097 -0.3813  0.3497  0.1108
 4366SOL    MW417198   1.989   5.660   2.014  0.1948  0.5266 -0.3311
 4367SOL     OW17199   3.365   3.081   5.063  0.4516  0.2944 -0.6752
 4367SOL    HW217200   3.391   3.018   4.996 -0.5165 -3.8817  2.4611
 4367SOL    HW317201   3.270   3.072   5.070  0.2571  2.2932 -0.2040
 4367SOL    MW417202   3.356   3.071   5.055 -0.4558 -0.0315 -0.4161
 4368SOL     OW17203   6.061   6.229   3.962 -0.0831 -0.4749  0.6811
 4368SOL    HW217204   6.012   6.262   4.038 -0.9343 -0.3467  0.0909
 4368SOL    HW317205   6.152   6.251   3.981 -0.3372 -0.0581  1.4663
 4368SOL    MW417206   6.067   6.236   3.974  0.1806 -0.0067 -0.1378
 4369SOL     OW17207   4.821   0.859   4.567  0.2053  0.0238 -0.3075
 4369SOL    HW217208   4.851   0.838   4.479  0.6750 -0.8338  0.0492
 4369SOL    HW317209   4.795   0.775   4.604  1.2209  0.1885  0.8197
 4369SOL    MW417210   4.821   0.845   4.560 -0.5499  0.0535 -0.1683
 4370SOL     OW17211   6.128   1.928   5.789  0.0916  0.0159 -0.0675
 4370SOL    HW217212   6.147   1.953   5.698 -1.7592 -0.3672 -0.6031
 4370SOL    HW317213   6.178   1.848   5.802 -1.6301 -1.4060 -1.6762
 4370SOL    MW417214   6.137   1.921   5.778  0.1906  0.2852 -0.0998
 4371SOL     OW17215   2.910   5.123   2.338  0.0658 -0.6607  0.2740
 4371SOL    HW217216   2.964   5.076   2.274 -1.0228 -0.9740 -0.4413
 4371SOL    HW317217   2.874   5.197   2.289  0.7389  0.2043  1.0516
 4371SOL    MW417218   2.912   5.126   2.323 -0.2544  0.4015 -0.5233
 4372SOL     OW17219   5.038   1.673   3.880  0.2175 -0.8305  0.2201
 4372SOL    HW217220   5.051   1.583   3.851  0.1665 -0.8919  0.3828
 4372SOL    HW317221   4.944   1.678   3.899 -0.0464 -0.3278 -1.1585
 4372SOL    MW417222   5.027   1.661   3.879 -0.4140  0.5544  0.4898
 4373SOL     OW17223   4.027   2.265   1.558  0.0451  0.2379 -0.0927
 4373SOL    HW217224   3.942   2.290   1.593  0.1950  0.4144  0.1512
 4373SOL    HW317225   4.054   2.340   1.505  0.0375  0.1730 -0.1885
 4373SOL    MW417226   4.020   2.279   1.556 -0.1271 -0.3140 -0.4143
 4374SOL     OW17227   3.979   4.822   3.600 -0.4543 -0.1455  0.1062
 4374SOL    HW217228   4.036   4.892   3.568 -0.8243  0.4140  0.6565
 4374SOL    HW317229   4.038   4.762   3.647 -0.4341  0.9445  1.5330
 4374SOL    MW417230   3.994   4.823   3.602  0.4987 -0.1975  0.1024
 4375SOL     OW17231   6.301   4.070   1.554  0.3860  0.1123 -0.4382
 4375SOL    HW217232   6.358   4.135   1.595  0.8665 -0.8282  0.4268
 4375SOL    HW317233   6.244   4.121   1.496  0.7234  1.3027  0.2462
 4375SOL    MW417234   6.301   4.085   1.551  0.3652 -0.5793 -0.1179
 4376SOL     OW17235   3.429   3.750   6.376 -0.1530 -0.3624 -0.4294
 4376SOL    HW217236   3.337   3.777   6.371 -0.2647 -0.2834  1.3366
 4376SOL    HW317237   3.426   3.661   6.409  0.3989 -0.3421 -0.3117
 4376SOL    MW417238   3.416   3.742   6.380 -0.5727  0.3578 -0.7499
 4377SOL     OW17239   0.881   4.338   6.284  0.1646  0.3746 -0.4722
 4377SOL    HW217240   0.871   4.306   6.194  2.1354  0.7830 -0.8734
 4377SOL    HW317241   0.932   4.270   6.328 -0.3048  0.4457  0.2053
 4377SOL    MW417242   0.886   4.324   6.278  0.3821  0.3023 -0.0907
 4378SOL     OW17243   0.516   4.822   2.448 -0.0416  0.6418  0.0805
 4378SOL    HW217244   0.461   4.761   2.498 -1.9496  1.2050 -1.2254
 4378SOL    HW317245   0.455   4.889   2.417  1.6124  1.9627 -0.4630
 4378SOL    MW417246   0.501   4.822   2.451  0.3224 -0.0277 -0.0530
 4379SOL     OW17247   4.087   0.359   0.450  0.1329  0.2721 -0.3950
 4379SOL    HW217248   4.130   0.388   0.530  0.3242  0.2709 -0.4971
 4379SOL    HW317249   3.999   0.332   0.478  0.3732 -0.2187 -0.1031
 4379SOL    MW417250   4.081   0.359   0.464  0.3625 -0.0818  0.0098
 4380SOL     OW17251   5.967   4.749   1.884 -0.1398  0.3695 -0.3505
 4380SOL    HW217252   5.888   4.801   1.892 -0.6720 -0.5909  1.2523
 4380SOL    HW317253   5.947   4.684   1.816 -1.1163 -0.4658  0.7014
 4380SOL    MW417254   5.954   4.747   1.876 -0.4448  0.0018  0.3800
 4381SOL     OW17255   6.073   0.102   1.427  0.2543 -0.2554  0.6428
 4381SOL    HW217256   6.018   0.037   1.469  0.9487 -0.5109  1.1731
 4381SOL    HW317257   6.163   0.071   1.440  0.5296  0.0649 -0.3481
 4381SOL    MW417258   6.078   0.089   1.434 -0.7350 -0.4869 -0.1275
 4382SOL     OW17259   6.209   4.923   1.821 -0.3629  0.3252  0.2272
 4382SOL    HW217260   6.293   4.967   1.805  0.5294 -1.6998 -1.3011
 4382SOL    HW317261   6.192   4.935   1.914  1.0689  1.7330  0.3450
 4382SOL    MW417262   6.218   4.930   1.831  0.2993 -0.0922 -0.3705
 4383SOL     OW17263   0.927   1.284   4.690  0.1810 -0.4274  0.7231
 4383SOL    HW217264   0.945   1.218   4.623  0.3295  0.9061 -0.6055
 4383SOL    HW317265   1.013   1.313   4.719  0.1267 -0.2274  0.6887
 4383SOL    MW417266   0.941   1.280   4.685  0.1391  0.4468  0.0679
 4384SOL     OW17267   4.000   5.497   2.137  0.1368 -0.2160 -0.1112
 4384SOL    HW217268   4.094   5.515   2.145  0.2664 -0.7824 -0.3138
 4384SOL    HW317269   3.987   5.484   2.043  0.1345 -1.6030  0.0619
 4384SOL    MW417270   4.011   5.498   2.125 -0.3164 -0.2478  0.3450
 4385SOL     OW17271   3.330   1.449   6.386 -0.4028 -0.2971  1.1838
 4385SOL    HW217272   3.392   1.423   6.453 -1.2112 -0.0088  2.0722
 4385SOL    HW317273   3.383   1.486   6.316  0.6683 -2.7284  0.5852
 4385SOL    MW417274   3.345   1.450   6.386 -0.2417 -0.1087 -0.1070
 4386SOL     OW17275   2.484   3.862   3.931 -0.3038  0.3889  0.4220
 4386SOL    HW217276   2.575   3.835   3.942 -0.4950 -0.7852 -0.6694
 4386SOL    HW317277   2.489   3.945   3.883  0.1814 -0.0955 -0.3815
 4386SOL    MW417278   2.496   3.869   3.927  0.0057 -0.3451  0.0252
 4387SOL     OW17279   5.847   5.182   1.236  0.1890 -0.4118 -0.5044
 4387SOL    HW217280   5.825   5.088   1.229 -0.6697 -0.1171 -3.0309
 4387SOL    HW317281   5.907   5.187   1.310 -1.1089 -2.6991  0.8313
 4387SOL    MW417282   5.852   5.170   1.245 -0.5669  0.4469  0.7730
 4388SOL     OW17283   1.261   3.394   3.085  0.0748  0.4955 -0.3419
 4388SOL    HW217284   1.356   3.404   3.083  0.0201  1.3563  0.4385
 4388SOL    HW317285   1.238   3.356   3.001  1.4916 -3.3141  0.7807
 4388SOL    MW417286   1.270   3.390   3.074 -0.0107  0.0722 -0.4454
 4389SOL     OW17287   3.554   1.790   0.740 -0.8707  0.5193 -0.2439
 4389SOL    HW217288   3.536   1.861   0.802  2.9396  1.8623 -0.4165
 4389SOL    HW317289   3.576   1.835   0.658 -0.5363 -0.9776 -1.0140
 4389SOL    MW417290   3.554   1.805   0.737 -0.7446 -0.2229  0.3586
 4390SOL     OW17291   2.606   2.416   5.045  0.2179  0.2412 -0.1637
 4390SOL    HW217292   2.657   2.343   5.010 -0.0607 -0.0376  0.0033
 4390SOL    HW317293   2.652   2.441   5.126 -0.0019 -0.1179  0.0746
 4390SOL    MW417294   2.619   2.410   5.051  0.3772 -0.0390  0.0259
 4391SOL     OW17295   4.283   2.780   4.019 -0.0635 -0.2597 -0.1393
 4391SOL    HW217296   4.210   2.723   4.043 -0.8673  0.3388 -1.0381
 4391SOL    HW317297   4.243   2.867   4.010  1.0135  0.3325  0.5998
 4391SOL    MW417298   4.268   2.784   4.021  0.3831 -0.4106  0.6382
 4392SOL     OW17299   4.184   1.236   4.685 -0.7098  0.2874  0.0891
 4392SOL    HW217300   4.190   1.301   4.615 -1.0357 -0.3552 -0.5438
 4392SOL    HW317301   4.142   1.283   4.757  1.3407  1.5096  0.5671
 4392SOL    MW417302   4.179   1.251   4.685 -0.5728 -0.2137 -0.1208
 4393SOL     OW17303   0.180   1.810   5.468 -0.0632  0.0647  0.2268
 4393SOL    HW217304   0.193   1.901   5.495 -1.2783  0.0341  0.9621
 4393SOL    HW317305   0.268   1.773   5.469  0.2846  0.8500  1.3425
 4393SOL    MW417306   0.193   1.817   5.472  0.0812 -0.6215 -0.1022
 4394SOL     OW17307   2.290   6.364   2.322  0.0253  0.8168  0.1518
 4394SOL    HW217308   2.381   6.389   2.340  0.2150  0.3134 -0.1131
 4394SOL    HW317309   2.242   6.446   2.330  0.5581  1.1633 -0.0873
 4394SOL    MW417310   2.296   6.378   2.326 -0.1258 -0.3709  0.7127
 4395SOL     OW17311   0.633   1.886   5.698 -0.1791 -0.2793 -0.1593
 4395SOL    HW217312   0.702   1.834   5.739  0.8813  0.2083 -1.2300
 4395SOL    HW317313   0.576   1.821   5.656  2.0292 -0.6603 -2.8773
 4395SOL    MW417314   0.635   1.870   5.698 -0.6381 -0.0855 -0.0202
 4396SOL     OW17315   1.171   2.382   4.807 -0.4680  0.5133 -0.2380
 4396SOL    HW217316   1.186   2.370   4.901 -0.4052 -1.2509 -0.4404
 4396SOL    HW317317   1.178   2.477   4.794  0.2983  0.7254  1.3956
 4396SOL    MW417318   1.174   2.393   4.818 -0.3398 -0.5320 -0.2861
 4397SOL     OW17319   5.479   3.152   1.583  0.0519 -0.5968 -0.6219
 4397SOL    HW217320   5.561   3.129   1.628 -0.0887  0.7905  0.4337
 4397SOL    HW317321   5.411   3.111   1.636 -0.0177 -0.3757 -0.5385
 4397SOL    MW417322   5.481   3.144   1.596  0.2438 -0.5575  0.2997
 4398SOL     OW17323   3.051   3.416   0.494  0.5044  0.2998 -0.0198
 4398SOL    HW217324   2.976   3.361   0.473 -0.0658  1.0692 -0.0551
 4398SOL    HW317325   3.111   3.359   0.542  0.3089 -0.5683 -0.7767
 4398SOL    MW417326   3.049   3.401   0.497 -0.2519  0.5501  0.2334
 4399SOL     OW17327   3.324   1.098   5.862 -0.3206  0.3696  0.2265
 4399SOL    HW217328   3.231   1.076   5.860 -0.1801 -0.3432  1.0482
 4399SOL    HW317329   3.328   1.188   5.831 -1.2858  0.4101  0.1917
 4399SOL    MW417330   3.312   1.107   5.858 -0.2616  0.2134  0.0516
 4400SOL     OW17331   0.254   5.178   2.197 -0.0059 -0.6927  0.3280
 4400SOL    HW217332   0.288   5.120   2.265  2.6073 -0.6631 -0.8476
 4400SOL    HW317333   0.313   5.252   2.196 -1.6859  0.7065 -0.0708
 4400SOL    MW417334   0.266   5.180   2.206  0.1400 -0.3542 -0.0625
 4401SOL     OW17335   0.120   0.839   1.668 -0.2669 -0.1023 -0.5739
 4401SOL    HW217336   0.139   0.803   1.755  0.3340  0.5177 -0.4448
 4401SOL    HW317337   0.100   0.931   1.684  0.3632  0.1423 -1.1431
 4401SOL    MW417338   0.120   0.846   1.682 -0.3007  0.0338  0.5849
 4402SOL     OW17339   0.908   3.050   2.573  0.1024  0.2228 -0.1684
 4402SOL    HW217340   0.941   3.111   2.507  0.0749  0.6463  0.2016
 4402SOL    HW317341   0.863   3.106   2.636  1.3237 -0.0051  0.9471
 4402SOL    MW417342   0.906   3.065   2.573  0.1903 -0.2295 -0.4493
 4403SOL     OW17343   4.690   1.156   2.884 -0.4650 -0.4789  0.3612
 4403SOL    HW217344   4.681   1.248   2.910  0.0348 -0.2355 -0.2800
 4403SOL    HW317345   4.622   1.110   2.933 -0.1225  0.0902  1.3894
 4403SOL    MW417346   4.680   1.162   2.894 -0.9526 -0.4899  0.3663
 4404SOL     OW17347   3.523   5.938   2.232  0.3294 -0.0172  0.6271
 4404SOL    HW217348   3.519   6.023   2.275  2.0348  2.0585 -2.8325
 4404SOL    HW317349   3.439   5.897   2.251 -0.7050  2.5705  2.1264
 4404SOL    MW417350   3.512   5.943   2.240 -0.2327 -0.2309 -0.3466
 4405SOL     OW17351   5.351   3.022   3.399  0.0221  0.0491 -0.2577
 4405SOL    HW217352   5.374   2.929   3.403 -0.6086 -0.1031 -0.0369
 4405SOL    HW317353   5.277   3.031   3.460 -1.5083  0.2295 -2.0559
 4405SOL    MW417354   5.344   3.011   3.408  0.3155 -0.2753  0.2609
 4406SOL     OW17355   2.276   3.252   2.648  0.1453 -0.0772  0.2227
 4406SOL    HW217356   2.228   3.179   2.687 -0.7013  0.0945 -0.4664
 4406SOL    HW317357   2.208   3.316   2.626  0.5785 -0.1509 -1.4744
 4406SOL    MW417358   2.261   3.251   2.650 -0.3798 -0.0064  0.1706
 4407SOL     OW17359   6.212   0.050   0.729 -0.1399  0.2237  0.6062
 4407SOL    HW217360   6.215  -0.015   0.659  0.1660  1.4969 -0.5997
 4407SOL    HW317361   6.299   0.045   0.770 -0.7824 -1.5232  1.8974
 4407SOL    MW417362   6.224   0.041   0.725 -0.1687  0.1158  0.0077
 4408SOL     OW17363   0.866   1.108   1.475 -0.2465 -0.2994 -0.2031
 4408SOL    HW217364   0.774   1.085   1.457 -0.5867  1.1506 -0.4704
 4408SOL    HW317365   0.865   1.203   1.484  1.6415  0.0872 -2.8731
 4408SOL    MW417366   0.854   1.117   1.474  0.3043  0.2760 -0.2813
 4409SOL     OW17367   5.058   4.150   2.673 -0.5656  0.3822 -0.3092
 4409SOL    HW217368   5.001   4.207   2.620 -0.3567  1.4929  0.6072
 4409SOL    HW317369   5.144   4.156   2.631 -0.7884 -0.1680 -0.8657
 4409SOL    MW417370   5.062   4.158   2.660 -0.9082 -0.1359 -0.0732
 4410SOL     OW17371   1.395   1.840   2.854  0.3331 -0.2070  0.1479
 4410SOL    HW217372   1.478   1.798   2.832  0.9268  0.4358  1.0570
 4410SOL    HW317373   1.374   1.894   2.778  0.5736 -0.6319 -0.2244
 4410SOL    MW417374   1.403   1.842   2.841  0.4543  0.0192  0.0182
 4411SOL     OW17375   1.624   1.639   4.930 -0.2641  0.2836 -0.2874
 4411SOL    HW217376   1.596   1.654   5.020  4.0697  0.8274  1.1848
 4411SOL    HW317377   1.571   1.699   4.878 -1.9395  0.9462  2.0439
 4411SOL    MW417378   1.613   1.649   4.935 -0.2370 -0.6408 -0.5505
 4412SOL     OW17379   3.628   4.413   1.134 -0.3283  0.1257  0.3996
 4412SOL    HW217380   3.694   4.482   1.129 -0.9649  0.8172  1.3115
 4412SOL    HW317381   3.546   4.456   1.110 -0.8049 -0.1829  1.3993
 4412SOL    MW417382   3.626   4.427   1.130  0.2786 -0.4299  0.2233
 4413SOL     OW17383   4.862   2.664   4.930  0.1074  0.1370 -0.1086
 4413SOL    HW217384   4.885   2.702   5.015  3.6239 -1.4116 -0.1700
 4413SOL    HW317385   4.808   2.589   4.952 -0.3869  0.6823  0.6146
 4413SOL    MW417386   4.858   2.659   4.944  0.1289 -0.0589  0.4212
 4414SOL     OW17387   5.328   3.851   3.257 -0.6273  0.1163 -0.1545
 4414SOL    HW217388   5.356   3.801   3.333 -0.1753 -0.3651 -0.6297
 4414SOL    HW317389   5.247   3.893   3.284 -1.6228 -1.7681 -0.1060
 4414SOL    MW417390   5.321   3.850   3.271  0.0366  0.4512  0.6669
 4415SOL     OW17391   6.174   6.415   1.987 -0.0641 -0.1277 -0.1616
 4415SOL    HW217392   6.085   6.435   2.015 -0.1432  1.5635 -1.4714
 4415SOL    HW317393   6.226   6.489   2.020  0.7215 -0.6785 -0.1368
 4415SOL    MW417394   6.169   6.428   1.995  0.2948 -0.3425 -0.6063
 4416SOL     OW17395   0.016   1.160   2.372  0.0479 -0.3334 -0.2220
 4416SOL    HW217396  -0.009   1.251   2.356 -4.0705 -1.1514  0.4501
 4416SOL    HW317397   0.034   1.125   2.285 -2.9545  0.0647 -1.1121
 4416SOL    MW417398   0.015   1.168   2.358  0.3447 -0.2201  0.2827
 4417SOL     OW17399   6.027   4.083   1.188 -0.4171  0.0617  0.2839
 4417SOL    HW217400   5.997   4.021   1.255  0.1060 -3.1765 -2.1917
 4417SOL    HW317401   5.967   4.069   1.114  2.3150 -0.8378 -1.9397
 4417SOL    MW417402   6.015   4.073   1.187  0.0505 -0.1807  0.4607
 4418SOL     OW17403   5.530   4.076   0.935  0.6067  0.3068  0.3534
 4418SOL    HW217404   5.600   4.014   0.954  1.5541  0.2964 -2.6399
 4418SOL    HW317405   5.551   4.153   0.989  2.2484 -0.1486  0.4164
 4418SOL    MW417406   5.542   4.078   0.945 -0.1841 -0.1489  0.3041
 4419SOL     OW17407   5.556   3.545   1.984 -0.5437 -0.1377 -0.6103
 4419SOL    HW217408   5.510   3.497   1.915 -0.2210 -0.0026 -0.9219
 4419SOL    HW317409   5.515   3.514   2.065 -2.4773  1.3351 -0.9453
 4419SOL    MW417410   5.544   3.535   1.986  0.2174  0.2928  0.2323
 4420SOL     OW17411   1.386   6.141   5.915 -0.4001  0.0385 -0.2840
 4420SOL    HW217412   1.297   6.143   5.878 -0.4942  3.8439 -0.2231
 4420SOL    HW317413   1.377   6.179   6.002  1.3256  0.8844 -0.4385
 4420SOL    MW417414   1.373   6.146   5.921 -0.2741  0.3279 -0.5238
 4421SOL     OW17415   4.142   4.671   4.983 -0.0440  0.0805  0.2622
 4421SOL    HW217416   4.199   4.690   4.908 -0.4193 -0.8548 -0.2796
 4421SOL    HW317417   4.177   4.590   5.019 -1.4541 -0.9401 -0.5438
 4421SOL    MW417418   4.154   4.663   4.978  0.3294 -0.8944 -0.2905
 4422SOL     OW17419   3.377   0.064   4.246  0.0807  0.4730  0.0944
 4422SOL    HW217420   3.447   0.083   4.183  0.7855 -1.9598  0.0438
 4422SOL    HW317421   3.298   0.098   4.205  0.5848 -0.6805 -1.9628
 4422SOL    MW417422   3.376   0.071   4.232  0.2026  0.1936 -0.5630
 4423SOL     OW17423   3.499   2.604   5.502 -0.0371 -0.5450 -0.1522
 4423SOL    HW217424   3.592   2.628   5.500 -0.0535  0.4911  3.6365
 4423SOL    HW317425   3.453   2.688   5.501 -0.8702 -0.9915 -0.4083
 4423SOL    MW417426   3.505   2.618   5.501 -0.1922  0.3579 -0.1471
 4424SOL     OW17427   5.578   2.847   2.435  0.2495  0.2145 -0.7552
 4424SOL    HW217428   5.619   2.905   2.499 -1.3173  1.5014 -0.8698
 4424SOL    HW317429   5.487   2.841   2.462 -0.2379  0.0326 -2.3462
 4424SOL    MW417430   5.572   2.854   2.447 -0.2263 -0.3311  0.1509
 4425SOL     OW17431   2.906   5.733   5.499  0.0636 -0.2523 -0.3776
 4425SOL    HW217432   2.951   5.730   5.583 -0.2973 -4.1593 -0.1718
 4425SOL    HW317433   2.969   5.777   5.441  1.0142  0.9945  1.4907
 4425SOL    MW417434   2.921   5.738   5.502  0.4094 -0.1154 -0.0824
 4426SOL     OW17435   3.878   2.640   5.014 -0.7542  0.4840  0.0118
 4426SOL    HW217436   3.865   2.635   4.919 -1.8016  1.8116  0.0525
 4426SOL    HW317437   3.925   2.722   5.028 -1.1364  0.6024  0.6702
 4426SOL    MW417438   3.882   2.650   5.003  0.6589  0.3589 -0.0851
 4427SOL     OW17439   4.356   0.475   2.560  0.0553 -0.1498 -0.5019
 4427SOL    HW217440   4.449   0.463   2.582 -0.0516  0.3621  0.2799
 4427SOL    HW317441   4.315   0.392   2.582  0.3360 -0.4129 -0.9413
 4427SOL    MW417442   4.363   0.463   2.566 -0.0073 -0.0582 -0.5249
 4428SOL     OW17443   0.472   3.719   3.357  0.5893 -0.2960 -0.1475
 4428SOL    HW217444   0.412   3.751   3.289 -1.0950 -1.0375  0.9304
 4428SOL    HW317445   0.491   3.628   3.331  1.3147 -0.0550 -0.5019
 4428SOL    MW417446   0.467   3.711   3.345  0.6429 -0.3211  0.2902
 4429SOL     OW17447   3.207   0.423   1.337  0.8167  0.1670 -0.5514
 4429SOL    HW217448   3.192   0.366   1.413  2.4732  0.1731 -0.1878
 4429SOL    HW317449   3.234   0.363   1.268  2.2775  0.4339 -0.2506
 4429SOL    MW417450   3.209   0.407   1.338  0.2095 -0.0465  0.4508
 4430SOL     OW17451   3.590   1.111   6.007  0.1564  0.0350  0.2521
 4430SOL    HW217452   3.534   1.155   5.942  2.7286  2.3044 -0.6019
 4430SOL    HW317453   3.545   1.125   6.090 -1.4118  0.2357 -0.5841
 4430SOL    MW417454   3.576   1.119   6.009 -0.2920  0.0763 -0.2293
 4431SOL     OW17455   5.928   1.813   2.630 -0.3971  0.2757 -0.2305
 4431SOL    HW217456   5.909   1.899   2.594  0.7042  0.3862 -0.5620
 4431SOL    HW317457   5.906   1.752   2.559 -0.2510  0.3518 -0.3415
 4431SOL    MW417458   5.922   1.816   2.616 -0.3570  0.5129  0.4057
 4432SOL     OW17459   6.423   3.709   2.907  0.2149 -1.1860 -0.5910
 4432SOL    HW217460   6.431   3.778   2.842  0.2931 -1.8539 -1.3158
 4432SOL    HW317461   6.513   3.691   2.936  0.2085 -1.0778 -0.5053
 4432SOL    MW417462   6.436   3.716   2.902  0.1646 -0.1293  0.7210
 4433SOL     OW17463   5.132   6.152   1.467  0.2828  0.0045  0.0412
 4433SOL    HW217464   5.191   6.108   1.527  1.2912  1.7871  0.4405
 4433SOL    HW317465   5.137   6.245   1.492 -2.0801  0.3313 -0.4281
 4433SOL    MW417466   5.140   6.159   1.478  0.1898 -0.1256  0.3038
 4434SOL     OW17467   2.773   0.520   5.996  0.0725  0.1892 -0.2397
 4434SOL    HW217468   2.747   0.457   6.063 -0.2045 -1.4483 -1.8129
 4434SOL    HW317469   2.865   0.501   5.979  0.3110  1.0036  0.0731
 4434SOL    MW417470   2.782   0.510   6.003 -0.1816 -0.1296  0.0956
 4435SOL     OW17471   5.171   4.484   2.512  0.5068  0.2842 -0.0315
 4435SOL    HW217472   5.132   4.570   2.495  0.2359 -0.2445 -2.3349
 4435SOL    HW317473   5.097   4.424   2.515  0.7155  0.0651  1.3696
 4435SOL    MW417474   5.156   4.488   2.510  0.2433 -0.0504 -0.2132
 4436SOL     OW17475   0.140   4.236   1.273 -0.0313 -0.0101 -0.3249
 4436SOL    HW217476   0.208   4.195   1.326  0.0982  0.3860 -0.1772
 4436SOL    HW317477   0.121   4.173   1.204  0.2698 -0.2495 -0.1896
 4436SOL    MW417478   0.146   4.222   1.271  0.9647  0.1327 -0.2842
 4437SOL     OW17479   1.373   5.098   3.651  0.0075 -0.0042  0.3130
 4437SOL    HW217480   1.319   5.079   3.728 -0.2091  1.7272  0.6435
 4437SOL    HW317481   1.462   5.080   3.680  0.0363  1.6380  1.3653
 4437SOL    MW417482   1.377   5.093   3.665 -0.1607  0.1462 -0.6844
 4438SOL     OW17483   2.011   4.966   1.856 -0.6540 -0.1711 -0.0670
 4438SOL    HW217484   1.975   5.001   1.775  0.1670  0.4534 -0.1805
 4438SOL    HW317485   2.056   4.885   1.830  2.3865  1.6190 -0.8837
 4438SOL    MW417486   2.013   4.960   1.842  0.0568 -0.0547 -0.0849
 4439SOL     OW17487   0.977   5.830   6.403 -0.0603 -0.0151 -0.2944
 4439SOL    HW217488   0.976   5.776   6.482 -0.7559  0.2864 -0.0940
 4439SOL    HW317489   0.987   5.919   6.436  0.4726  0.0441 -0.5959
 4439SOL    MW417490   0.978   5.835   6.418  0.1915 -0.2267 -0.2906
 4440SOL     OW17491   6.374   3.029   0.479 -0.2893  0.5414 -0.2605
 4440SOL    HW217492   6.454   3.040   0.427 -0.7326 -1.5839 -1.4830
 4440SOL    HW317493   6.384   3.092   0.551  1.9363  1.1515 -1.0171
 4440SOL    MW417494   6.386   3.039   0.482  0.2025 -0.0797  0.5584
 4441SOL     OW17495   5.579   6.126   1.132 -0.2384 -0.2492 -0.3657
 4441SOL    HW217496   5.538   6.199   1.179 -1.1553 -0.2881 -1.0879
 4441SOL    HW317497   5.644   6.169   1.076  0.0743 -0.1017  0.1041
 4441SOL    MW417498   5.582   6.141   1.131 -0.0121 -0.1793  0.0110
 4442SOL     OW17499   5.049   3.048   3.116 -0.5638 -0.5899 -0.4119
 4442SOL    HW217500   5.027   2.994   3.040 -0.2936 -1.3615  0.0414
 4442SOL    HW317501   5.113   2.995   3.164  0.6822  0.6840 -0.6121
 4442SOL    MW417502   5.054   3.034   3.112 -0.2665 -0.0808  0.3382
 4443SOL     OW17503   5.192   5.697   6.028  0.0741  0.4185  0.2543
 4443SOL    HW217504   5.189   5.648   6.110 -0.5599  0.0024 -0.0100
 4443SOL    HW317505   5.220   5.633   5.963  0.2721  0.6721  0.0838
 4443SOL    MW417506   5.195   5.682   6.030 -0.0775  0.0592 -0.2526
 4444SOL     OW17507   2.264   2.543   2.551 -0.3094 -0.1755 -0.3695
 4444SOL    HW217508   2.201   2.605   2.588  1.0608  1.5095 -0.7077
 4444SOL    HW317509   2.211   2.469   2.523 -1.8939  0.3402  1.0658
 4444SOL    MW417510   2.249   2.541   2.552  0.1965  0.0045 -0.2789
 4445SOL     OW17511   2.836   6.183   3.363 -0.2349  0.1993  0.3241
 4445SOL    HW217512   2.841   6.093   3.397  0.4856 -0.0203 -0.3201
 4445SOL    HW317513   2.877   6.177   3.276  0.8555  1.3797  0.7322
 4445SOL    MW417514   2.842   6.170   3.356  0.4773  0.1082 -0.2364
 4446SOL     OW17515   5.285   2.812   5.066  0.7079 -0.1970 -0.0795
 4446SOL    HW217516   5.354   2.839   5.005 -0.1564  1.0060 -0.5698
 4446SOL    HW317517   5.222   2.884   5.065  1.1852  0.3941  3.1032
 4446SOL    MW417518   5.285   2.825   5.058  0.5557 -0.3431 -0.6206
 4447SOL     OW17519   4.168   3.049   5.171 -0.3563  0.2762  0.4017
 4447SOL    HW217520   4.225   3.055   5.094 -0.4273  1.3163  0.4135
 4447SOL    HW317521   4.165   3.138   5.206 -1.5122  0.1236  0.7518
 4447SOL    MW417522   4.175   3.062   5.165 -0.6634  0.0286  0.6199
 4448SOL     OW17523   1.572   1.317   1.219 -0.5225  0.5092 -0.3439
 4448SOL    HW217524   1.580   1.250   1.151  0.5666  0.3496 -0.0782
 4448SOL    HW317525   1.479   1.315   1.244 -1.0321  0.8635 -2.0915
 4448SOL    MW417526   1.561   1.308   1.214 -0.5929 -0.0549 -0.6656
 4449SOL     OW17527   2.090   3.957   4.806 -0.4970 -0.6284 -0.1738
 4449SOL    HW217528   2.144   3.979   4.731  0.2516 -1.8856 -0.0348
 4449SOL    HW317529   2.012   4.011   4.796  0.1935  0.2369 -1.1008
 4449SOL    MW417530   2.087   3.967   4.795  0.0613 -0.1898  0.4457
 4450SOL     OW17531   0.753   2.147   6.299  0.3957  0.4193 -0.7207
 4450SOL    HW217532   0.785   2.172   6.386 -0.5794 -0.4120 -0.0977
 4450SOL    HW317533   0.665   2.111   6.315 -0.0309  0.7719 -2.1250
 4450SOL    MW417534   0.745   2.145   6.313 -0.5405 -0.1652  0.0948
 4451SOL     OW17535   2.280   0.785   2.835  0.0240 -0.3057  0.0971
 4451SOL    HW217536   2.306   0.775   2.743 -0.6554  1.0756 -0.2641
 4451SOL    HW317537   2.339   0.726   2.883 -0.0677 -1.5887 -1.2757
 4451SOL    MW417538   2.291   0.776   2.829 -0.3574  0.2820 -0.1934
 4452SOL     OW17539   1.062   3.043   1.973  0.1351  0.0943  0.1829
 4452SOL    HW217540   1.024   2.957   1.989  0.3251 -0.5677 -2.4751
 4452SOL    HW317541   1.000   3.105   2.010 -0.5142 -1.1326  1.2146
 4452SOL    MW417542   1.049   3.040   1.980 -0.5801  0.0593 -0.1862
 4453SOL     OW17543   2.728   6.195   3.783  0.2466 -1.5542  0.2226
 4453SOL    HW217544   2.636   6.216   3.801  0.1626 -2.8638  1.5180
 4453SOL    HW317545   2.755   6.260   3.718 -1.5239 -1.0053 -0.0245
 4453SOL    MW417546   2.719   6.206   3.777  0.1972 -0.3089  0.1127
 4454SOL     OW17547   4.122   2.349   5.406  0.4965 -0.0678 -0.0307
 4454SOL    HW217548   4.041   2.354   5.356  1.1338  0.2448 -1.0710
 4454SOL    HW317549   4.183   2.303   5.349  1.7244  1.7140 -0.2438
 4454SOL    MW417550   4.120   2.344   5.392  0.1986  0.2132 -0.2632
 4455SOL     OW17551   0.562   2.877   5.576  0.0103 -0.0394  0.3311
 4455SOL    HW217552   0.588   2.785   5.585 -1.2173 -0.5850 -1.2309
 4455SOL    HW317553   0.603   2.905   5.494  0.8542  1.0083  1.0906
 4455SOL    MW417554   0.571   2.868   5.567 -0.4966 -0.4295  0.5725
 4456SOL     OW17555   3.185   2.983   3.695 -0.1526  0.5902 -0.0456
 4456SOL    HW217556   3.226   2.949   3.615 -0.2494 -0.6120  0.3975
 4456SOL    HW317557   3.254   3.037   3.736  0.6711 -0.6046  0.1858
 4456SOL    MW417558   3.200   2.986   3.690 -0.2782  0.0767 -0.2048
 4457SOL     OW17559   1.667   3.583   3.742 -0.0789  0.1193 -0.2782
 4457SOL    HW217560   1.654   3.528   3.664  0.0722  0.7389 -0.7501
 4457SOL    HW317561   1.627   3.533   3.813 -0.7123 -0.2122 -0.8480
 4457SOL    MW417562   1.660   3.569   3.741 -0.2243  0.4539  0.0709
 4458SOL     OW17563   2.242   1.470   5.651  0.2019 -0.2622  0.0715
 4458SOL    HW217564   2.282   1.431   5.573  1.0547 -2.3683  1.4525
 4458SOL    HW317565   2.187   1.400   5.686 -0.7139  0.8880  0.9899
 4458SOL    MW417566   2.240   1.455   5.645  0.1255 -0.0667  0.1847
 4459SOL     OW17567   4.722   2.962   2.867 -0.4226  0.3832  0.8043
 4459SOL    HW217568   4.787   3.028   2.842  0.2073 -0.3769  0.4116
 4459SOL    HW317569   4.640   2.993   2.828  0.0397  0.5103 -0.0699
 4459SOL    MW417570   4.720   2.975   2.859  0.5460  0.7982 -0.5733
 4460SOL     OW17571   0.489   2.763   3.731 -0.4064  0.1551 -0.2324
 4460SOL    HW217572   0.514   2.734   3.643 -2.9914 -0.6025 -0.8111
 4460SOL    HW317573   0.566   2.747   3.785  0.8866 -0.3761 -2.1461
 4460SOL    MW417574   0.502   2.757   3.726  0.0654 -0.2473  0.4866
 4461SOL     OW17575   2.447   2.354   3.858  0.3806  0.4482  0.2607
 4461SOL    HW217576   2.396   2.312   3.789  1.1402  1.4846 -0.9773
 4461SOL    HW317577   2.399   2.335   3.939 -0.8540 -0.2892 -0.6150
 4461SOL    MW417578   2.434   2.346   3.860 -0.1335  0.3992 -0.0734
 4462SOL     OW17579   4.902   0.881   1.212 -0.0497 -0.4110  0.7145
 4462SOL    HW217580   4.820   0.922   1.238  1.0230  0.8057  2.3988
 4462SOL    HW317581   4.969   0.945   1.235  1.6636 -2.7089  2.6600
 4462SOL    MW417582   4.900   0.895   1.219 -0.2944  0.3511 -0.5879
 4463SOL     OW17583   0.256   1.267   6.030 -0.7176  0.3470  0.1842
 4463SOL    HW217584   0.165   1.268   6.058 -0.4449 -1.4696  1.3410
 4463SOL    HW317585   0.268   1.181   5.990  0.4404  0.6187 -0.1014
 4463SOL    MW417586   0.246   1.256   6.029 -0.1511  0.1349 -0.1845
 4464SOL     OW17587   4.564   5.539   0.337 -0.3007  0.5614  0.5599
 4464SOL    HW217588   4.500   5.468   0.328 -0.6043  1.0289 -1.7044
 4464SOL    HW317589   4.635   5.502   0.389 -2.0939 -0.1779  2.6269
 4464SOL    MW417590   4.565   5.525   0.343  0.1495  0.4071 -0.0867
 4465SOL     OW17591   2.927   0.990   2.259 -0.4399 -0.2506 -0.0782
 4465SOL    HW217592   2.914   0.978   2.165  1.0527 -0.7504 -0.2513
 4465SOL    HW317593   2.894   1.078   2.277 -0.3163  0.0295 -1.1568
 4465SOL    MW417594   2.921   1.000   2.249 -0.1083 -0.2550  0.7193
 4466SOL     OW17595   1.170   1.091   1.506  0.2640 -0.1368 -0.2576
 4466SOL    HW217596   1.081   1.061   1.488  1.0043 -3.1111  0.4759
 4466SOL    HW317597   1.170   1.112   1.599  0.7020 -2.0208  0.2238
 4466SOL    MW417598   1.158   1.089   1.516  0.8119 -0.4814 -0.3265
 4467SOL     OW17599   3.559   2.655   5.042  0.3348 -0.1856 -0.6755
 4467SOL    HW217600   3.633   2.686   5.095 -0.5994  0.2749  0.4167
 4467SOL    HW317601   3.486   2.648   5.104 -0.1590 -2.1704 -1.3939
 4467SOL    MW417602   3.559   2.659   5.057 -0.4697 -0.0145 -0.2684
 4468SOL     OW17603   2.447   2.832   5.064 -0.4190 -0.3650  0.4542
 4468SOL    HW217604   2.385   2.765   5.034  1.9894 -1.9960 -1.2969
 4468SOL    HW317605   2.482   2.870   4.983  0.8528  0.4852  1.3624
 4468SOL    MW417606   2.444   2.828   5.049  0.4923 -0.3384 -0.0229
 4469SOL     OW17607   2.351   4.225   5.302  0.2444 -0.1456 -0.1480
 4469SOL    HW217608   2.322   4.140   5.269 -0.1467  0.1312 -0.5156
 4469SOL    HW317609   2.433   4.242   5.255 -0.7326  0.6312 -1.6147
 4469SOL    MW417610   2.358   4.216   5.291 -0.0939 -0.0494  0.5569
 4470SOL     OW17611   3.600   5.375   0.795 -0.3587  0.4902  0.5365
 4470SOL    HW217612   3.506   5.374   0.781 -0.0954 -0.2629 -1.4466
 4470SOL    HW317613   3.618   5.463   0.829 -1.7329  0.6770  0.8329
 4470SOL    MW417614   3.590   5.387   0.798 -0.0477 -0.4567 -0.1020
 4471SOL     OW17615   0.272   0.019   5.255 -0.2857 -0.1426 -0.2147
 4471SOL    HW217616   0.239  -0.071   5.261 -1.8430  0.4673  1.2181
 4471SOL    HW317617   0.208   0.065   5.201  0.5514  0.1108 -1.0189
 4471SOL    MW417618   0.259   0.013   5.249  0.5837  0.2607  0.3957
 4472SOL     OW17619   3.739   5.941   4.746 -0.2926 -0.3513  0.0816
 4472SOL    HW217620   3.711   5.849   4.739  0.9056 -0.7785  0.6607
 4472SOL    HW317621   3.788   5.957   4.666 -0.3879 -0.2512  0.0433
 4472SOL    MW417622   3.742   5.931   4.735 -0.1296 -0.1143  0.0208
 4473SOL     OW17623   6.030   6.151   4.634 -0.5520  0.6259 -0.2529
 4473SOL    HW217624   5.950   6.147   4.583  1.7416  0.1892 -4.2119
 4473SOL    HW317625   6.078   6.225   4.597  1.5641 -0.1426  0.7988
 4473SOL    MW417626   6.026   6.160   4.623  0.4232 -0.2292  0.5668
 4474SOL     OW17627   0.850   0.434   2.965 -0.3852 -0.0168 -0.1197
 4474SOL    HW217628   0.927   0.376   2.962 -1.3482 -1.2973 -1.6276
 4474SOL    HW317629   0.776   0.374   2.974 -1.2317  1.2142  1.5432
 4474SOL    MW417630   0.850   0.418   2.966 -0.1160  0.3277  0.4579
 4475SOL     OW17631   2.699   5.562   0.271  0.2755  0.6055 -0.1966
 4475SOL    HW217632   2.756   5.499   0.227  0.9131  1.0316  0.0025
 4475SOL    HW317633   2.618   5.562   0.220 -0.8533 -2.4072  1.3262
 4475SOL    MW417634   2.696   5.553   0.259  0.9482  0.2066 -0.3936
 4476SOL     OW17635   4.449   2.593   1.095  0.6504 -0.3369  0.2255
 4476SOL    HW217636   4.407   2.604   1.180 -1.9228  3.3455 -1.2337
 4476SOL    HW317637   4.395   2.527   1.051  0.3922 -0.3758  0.5921
 4476SOL    MW417638   4.436   2.586   1.100 -0.3014  0.0983  0.0463
 4477SOL     OW17639   5.686   3.063   3.996  0.3311 -0.0290 -0.3866
 4477SOL    HW217640   5.757   3.000   3.979  0.1324 -0.0315 -1.2670
 4477SOL    HW317641   5.731   3.140   4.030  0.3416 -1.7131  4.1184
 4477SOL    MW417642   5.702   3.065   3.998 -0.1834  0.0431  0.0406
 4478SOL     OW17643   5.581   6.243   2.054 -0.2120 -0.0693 -0.2170
 4478SOL    HW217644   5.622   6.269   2.136  2.3077 -0.7197 -1.1563
 4478SOL    HW317645   5.587   6.147   2.053 -0.3138 -0.0790 -1.0891
 4478SOL    MW417646   5.587   6.233   2.065 -0.5641 -0.0914 -0.2958
 4479SOL     OW17647   5.927   4.907   3.734 -0.1197  0.3856  0.2311
 4479SOL    HW217648   5.841   4.910   3.691 -0.8425 -0.6904  1.4799
 4479SOL    HW317649   5.960   4.819   3.714 -0.5491 -0.2083  1.8894
 4479SOL    MW417650   5.920   4.896   3.726  0.1526  0.5010  0.0380
 4480SOL     OW17651   1.716   1.235   4.372 -0.1520 -0.1222  0.6109
 4480SOL    HW217652   1.760   1.297   4.315 -1.1711  0.5378  0.5247
 4480SOL    HW317653   1.772   1.157   4.370  1.1827  0.8070  0.7911
 4480SOL    MW417654   1.729   1.233   4.364  0.3966  0.0675 -0.3150
 4481SOL     OW17655   5.817   5.840   5.343 -0.2238  0.2007  0.0851
 4481SOL    HW217656   5.861   5.915   5.383 -0.0978 -0.7351  1.7651
 4481SOL    HW317657   5.888   5.779   5.322 -0.5751 -0.7669  1.6224
 4481SOL    MW417658   5.832   5.842   5.345 -0.4344 -0.0669 -0.0892
 4482SOL     OW17659   0.474   1.832   0.306 -0.6072  0.1564  0.2636
 4482SOL    HW217660   0.398   1.878   0.341  0.2390 -0.6338  3.5415
 4482SOL    HW317661   0.541   1.900   0.296 -0.4921  0.2594  1.5285
 4482SOL    MW417662   0.473   1.847   0.309 -0.5286  0.1121 -0.5696
 4483SOL     OW17663   6.273   0.761   1.879  0.5943  0.0958  0.3130
 4483SOL    HW217664   6.237   0.681   1.916 -0.4982 -0.3786 -1.6121
 4483SOL    HW317665   6.367   0.747   1.878  0.3646 -1.7781 -1.1837
 4483SOL    MW417666   6.280   0.749   1.883 -0.5666  0.1515  0.1531
 4484SOL     OW17667   1.498   5.140   5.915  0.1270 -0.1345 -0.0457
 4484SOL    HW217668   1.474   5.054   5.950 -1.3852 -0.1900 -1.1055
 4484SOL    HW317669   1.559   5.121   5.844  2.7491 -0.0538  2.0361
 4484SOL    MW417670   1.503   5.126   5.910  0.6700  0.2472 -0.5055
 4485SOL     OW17671   3.638   5.982   6.368 -0.6868  0.5693 -0.0164
 4485SOL    HW217672   3.723   6.013   6.338 -0.0349 -1.1769 -0.0974
 4485SOL    HW317673   3.581   5.990   6.291 -0.0224 -0.2397 -0.6156
 4485SOL    MW417674   3.642   5.987   6.354  0.4291  0.4220 -0.5884
 4486SOL     OW17675   5.727   1.228   0.850  0.0893 -0.2971 -0.0866
 4486SOL    HW217676   5.722   1.136   0.878 -1.3669 -0.8268 -1.8641
 4486SOL    HW317677   5.729   1.278   0.931  1.2351 -1.8842  0.9371
 4486SOL    MW417678   5.727   1.222   0.864  0.6128 -0.1837 -0.1959
 4487SOL     OW17679   5.912   6.273   0.475  0.4259  0.6474  0.3856
 4487SOL    HW217680   5.864   6.191   0.493  1.1011  0.4036  1.1430
 4487SOL    HW317681   5.942   6.264   0.385  1.2797 -0.3568  0.7492
 4487SOL    MW417682   5.909   6.261   0.466  0.1941  0.1027 -0.2890
 4488SOL     OW17683   5.303   5.947   4.182 -0.0853  0.0708 -0.0736
 4488SOL    HW217684   5.216   5.908   4.174  0.0279 -0.1116 -0.4673
 4488SOL    HW317685   5.290   6.023   4.239 -0.6848  0.5777 -0.8591
 4488SOL    MW417686   5.290   5.952   4.188  0.9082  0.2742 -0.2291
 4489SOL     OW17687   1.898   0.981   4.672 -0.0946 -0.5280 -0.1689
 4489SOL    HW217688   1.819   1.012   4.718 -0.2001  0.3813 -0.9328
 4489SOL    HW317689   1.890   0.885   4.673 -0.1622 -0.5395  1.5613
 4489SOL    MW417690   1.886   0.972   4.679  0.6675 -0.2202  0.0752
 4490SOL     OW17691   6.404   1.003   4.040  0.8501  0.1393 -0.2383
 4490SOL    HW217692   6.486   1.051   4.047  0.2146  1.1862  0.5869
 4490SOL    HW317693   6.345   1.063   3.995 -0.6187  1.1838  2.7544
 4490SOL    MW417694   6.407   1.017   4.035  0.4409 -0.2181  0.0569
 4491SOL     OW17695   0.309   4.826   4.234 -0.0347  0.0805 -0.1932
 4491SOL    HW217696   0.316   4.887   4.161  0.5497 -1.4235 -1.4467
 4491SOL    HW317697   0.334   4.741   4.198 -2.2595 -1.2246  1.0740
 4491SOL    MW417698   0.313   4.822   4.220  0.0731  0.3900 -0.4212
 4492SOL     OW17699   6.177   3.682   4.245 -0.1265 -0.0877 -0.1834
 4492SOL    HW217700   6.091   3.721   4.262 -0.1341 -0.0981 -0.1986
 4492SOL    HW317701   6.204   3.720   4.161  0.6938  1.3031  0.6862
 4492SOL    MW417702   6.169   3.692   4.236 -0.2806  0.1959  0.1475
 4493SOL     OW17703   3.914   3.247   4.528  0.2880  0.1776 -0.0618
 4493SOL    HW217704   3.834   3.194   4.527  0.6835 -0.4494  0.4104
 4493SOL    HW317705   3.973   3.200   4.587  0.3969  1.5434  0.9561
 4493SOL    MW417706   3.911   3.234   4.536  0.1488  0.6100 -0.0682
 4494SOL     OW17707   1.490   1.905   1.583 -0.0348  0.0834  0.3995
 4494SOL    HW217708   1.431   1.888   1.657 -0.9477 -0.9759 -0.5273
 4494SOL    HW317709   1.515   1.818   1.552  3.1677  0.4479  1.5523
 4494SOL    MW417710   1.485   1.891   1.589  0.5161 -0.5460 -0.3638
 4495SOL     OW17711   3.789   4.679   1.077 -0.2398 -0.6090 -0.0169
 4495SOL    HW217712   3.719   4.730   1.118 -0.2205 -0.8192  0.2818
 4495SOL    HW317713   3.819   4.733   1.004  0.0019 -0.0393  0.4944
 4495SOL    MW417714   3.784   4.693   1.073 -0.1784 -0.3436 -0.4073
 4496SOL     OW17715   3.790   0.705   4.191 -0.3688 -0.3890  0.2393
 4496SOL    HW217716   3.855   0.774   4.184  0.0609 -0.5688  2.0000
 4496SOL    HW317717   3.717   0.735   4.138 -0.2073  1.4338  0.9950
 4496SOL    MW417718   3.789   0.718   4.183  0.1810 -0.4078 -0.4169
 4497SOL     OW17719   0.304   0.395   0.879  0.3061  0.4549  0.1038
 4497SOL    HW217720   0.380   0.432   0.835  1.8290 -0.5505  1.7562
 4497SOL    HW317721   0.231   0.451   0.852  1.5940  1.3899 -1.6094
 4497SOL    MW417722   0.304   0.407   0.870  0.1435  0.4378  0.9598
 4498SOL     OW17723   3.240   0.736   0.791  0.0891  0.0921 -0.1340
 4498SOL    HW217724   3.239   0.829   0.812  1.8914 -0.1418  1.2417
 4498SOL    HW317725   3.200   0.694   0.867  0.2228 -0.3312 -0.2967
 4498SOL    MW417726   3.235   0.743   0.804  0.1217  0.3069  0.0945
 4499SOL     OW17727   3.572   3.239   5.431 -0.0307  0.0207 -0.4910
 4499SOL    HW217728   3.623   3.319   5.429  0.0653 -0.0338 -0.3197
 4499SOL    HW317729   3.481   3.267   5.417 -0.1439  0.2911  0.6840
 4499SOL    MW417730   3.566   3.253   5.429  0.1853  0.1726  0.2052
 4500SOL     OW17731   4.772   4.343   0.491 -0.5867  0.4025  0.2099
 4500SOL    HW217732   4.772   4.290   0.411  1.3026  0.4633  0.1232
 4500SOL    HW317733   4.697   4.311   0.541  0.1976 -2.0822 -0.0471
 4500SOL    MW417734   4.762   4.331   0.487  0.2781 -0.4560  0.0010
 4501SOL     OW17735   3.250   3.632   0.967  0.2952 -0.7169 -0.0773
 4501SOL    HW217736   3.294   3.675   0.894 -0.7492 -2.6613 -1.9440
 4501SOL    HW317737   3.210   3.554   0.929 -0.9827 -1.3903  2.4256
 4501SOL    MW417738   3.251   3.628   0.953 -0.8502  0.6769  0.6074
 4502SOL     OW17739   5.241   1.898   2.699 -0.2548 -0.1245 -0.2869
 4502SOL    HW217740   5.212   1.810   2.675  0.0768 -0.2847 -0.0927
 4502SOL    HW317741   5.163   1.953   2.687 -0.3880 -0.3962 -0.6668
 4502SOL    MW417742   5.227   1.894   2.694  0.3521  0.2557 -0.1759
 4503SOL     OW17743   5.444   5.713   1.267  0.1537  0.3408 -0.2576
 4503SOL    HW217744   5.458   5.730   1.173  1.4206 -1.5335 -0.4549
 4503SOL    HW317745   5.451   5.618   1.276 -1.6034  0.3275  1.5138
 4503SOL    MW417746   5.447   5.703   1.255 -0.3324 -0.4328  0.2876
 4504SOL     OW17747   2.775   3.699   0.336  0.2774 -0.2199  0.4225
 4504SOL    HW217748   2.747   3.609   0.325  0.8021 -0.2953 -0.2938
 4504SOL    HW317749   2.809   3.725   0.251 -0.6033  0.9169  0.3918
 4504SOL    MW417750   2.776   3.691   0.324 -0.0976  0.7203  0.0812
 4505SOL     OW17751   0.731   1.149   3.591 -0.6298 -0.7006  0.5006
 4505SOL    HW217752   0.813   1.199   3.598 -0.3590 -1.0616 -0.0484
 4505SOL    HW317753   0.685   1.190   3.517  0.1388 -2.0030 -0.7616
 4505SOL    MW417754   0.736   1.161   3.582 -0.2609 -0.4451 -0.1773
 4506SOL     OW17755   2.228   1.215   3.798  0.0709 -0.1259 -0.1112
 4506SOL    HW217756   2.206   1.241   3.887 -0.2452  1.4183 -0.5895
 4506SOL    HW317757   2.319   1.188   3.802 -0.6028 -2.4345  1.1074
 4506SOL    MW417758   2.237   1.215   3.810  0.1064  0.2496 -0.1357
 4507SOL     OW17759   4.941   3.686   5.049 -0.6349 -0.1849 -0.2625
 4507SOL    HW217760   5.018   3.704   4.995 -0.6769  1.5821  0.2220
 4507SOL    HW317761   4.893   3.619   5.000  0.5866 -0.4307 -1.1690
 4507SOL    MW417762   4.945   3.679   5.035 -0.3059 -0.1879  1.1313
 4508SOL     OW17763   2.848   5.884   4.645 -0.0318 -0.3368 -0.5839
 4508SOL    HW217764   2.809   5.966   4.616  1.1357  0.1283 -0.9045
 4508SOL    HW317765   2.784   5.817   4.620 -1.5836  0.5431  0.8132
 4508SOL    MW417766   2.834   5.886   4.638  0.1658 -0.2057  0.1724
 4509SOL     OW17767   4.982   0.576   2.806 -0.2247  0.4620 -0.1090
 4509SOL    HW217768   4.889   0.587   2.827 -0.4061 -2.2503  1.0094
 4509SOL    HW317769   5.028   0.613   2.881 -0.5619 -0.6410  0.6795
 4509SOL    MW417770   4.975   0.582   2.819 -0.9312  0.2170  0.2190
 4510SOL     OW17771   5.062   4.839   3.947  0.1833 -0.3286  0.3635
 4510SOL    HW217772   5.091   4.904   3.883  0.8486 -0.5016  0.4814
 4510SOL    HW317773   5.083   4.755   3.907  0.3055 -0.4440  0.6691
 4510SOL    MW417774   5.069   4.836   3.933 -0.2921 -0.3492  0.0075
 4511SOL     OW17775   6.035   0.374   1.449 -0.0414  0.5411 -0.2091
 4511SOL    HW217776   6.057   0.282   1.431  0.7657  0.6284  0.2437
 4511SOL    HW317777   5.940   0.375   1.457 -0.1973  0.0251 -1.7224
 4511SOL    MW417778   6.026   0.362   1.448 -0.1907 -0.1040 -0.1336
 4512SOL     OW17779   3.888   0.244   5.528 -0.5873 -0.1228  0.0234
 4512SOL    HW217780   3.897   0.298   5.606 -0.3112 -0.2692  0.0928
 4512SOL    HW317781   3.956   0.177   5.537  1.8010  1.8033 -1.9184
 4512SOL    MW417782   3.898   0.242   5.539  0.2191  0.1093 -0.3047
 4513SOL     OW17783   1.937   5.869   6.030 -0.5860 -0.5820 -0.0483
 4513SOL    HW217784   1.951   5.950   6.079  0.8345  0.3426 -1.8258
 4513SOL    HW317785   1.889   5.897   5.952 -0.1903 -1.4715 -0.6248
 4513SOL    MW417786   1.932   5.883   6.026 -0.4795 -0.2873 -0.0345
 4514SOL     OW17787   0.670   3.410   1.950  0.0735  0.1236 -0.1521
 4514SOL    HW217788   0.651   3.391   1.858 -1.4570 -0.0577  0.1806
 4514SOL    HW317789   0.624   3.342   1.999  1.7123 -0.4055  0.7442
 4514SOL    MW417790   0.662   3.399   1.944 -0.2666 -0.0857 -0.1660
 4515SOL     OW17791   3.380   3.221   0.263  0.1027  0.1377  0.0233
 4515SOL    HW217792   3.405   3.230   0.354  1.2715 -1.3014 -0.1225
 4515SOL    HW317793   3.349   3.308   0.238  1.9124  1.1741  1.1487
 4515SOL    MW417794   3.379   3.234   0.271 -0.1121  0.0296 -0.4812
 4516SOL     OW17795   1.840   1.690   5.220  0.1360 -0.4484  0.0149
 4516SOL    HW217796   1.890   1.725   5.147  0.9663  1.4901  1.4275
 4516SOL    HW317797   1.826   1.598   5.197  2.4314 -0.5222 -1.4509
 4516SOL    MW417798   1.845   1.683   5.207  0.2214  0.2988  0.1751
 4517SOL     OW17799   4.567   5.857   0.292 -0.2659  0.5252  0.0784
 4517SOL    HW217800   4.491   5.847   0.349  0.6121  0.6294  1.3138
 4517SOL    HW317801   4.592   5.949   0.300  0.5369  0.2874  0.4159
 4517SOL    MW417802   4.560   5.868   0.300 -0.0885  0.2417 -0.5727
 4518SOL     OW17803   2.632   1.242   3.542  0.0634  0.1963  0.1245
 4518SOL    HW217804   2.618   1.163   3.490  2.1300  0.2363 -0.5474
 4518SOL    HW317805   2.612   1.314   3.483  0.5982  0.2176 -0.0274
 4518SOL    MW417806   2.627   1.241   3.528 -0.6364 -0.5744  0.2386
 4519SOL     OW17807   4.770   4.451   6.387  0.2533 -0.3172 -0.1523
 4519SOL    HW217808   4.679   4.424   6.399  0.3931 -0.2537  1.1419
 4519SOL    HW317809   4.817   4.369   6.371  0.0186 -0.3845 -0.5040
 4519SOL    MW417810   4.764   4.437   6.386  0.1290 -0.5204  0.8021
 4520SOL     OW17811   2.573   5.375   5.507 -0.4636  0.8957 -0.0808
 4520SOL    HW217812   2.630   5.434   5.456 -0.8085  1.0924 -0.2446
 4520SOL    HW317813   2.601   5.387   5.597  0.5275  0.1368 -0.2666
 4520SOL    MW417814   2.584   5.385   5.512 -0.2792  0.1702  0.2440
 4521SOL     OW17815   1.996   4.875   5.501 -0.4300  0.2137  0.3401
 4521SOL    HW217816   2.062   4.851   5.435 -0.9919 -1.5604  0.3847
 4521SOL    HW317817   1.914   4.875   5.453 -0.6125  0.7863  0.6489
 4521SOL    MW417818   1.994   4.872   5.486  0.2654  0.2103  0.0511
 4522SOL     OW17819   4.732   0.612   3.702 -0.2679  0.4386 -0.6180
 4522SOL    HW217820   4.737   0.519   3.681 -1.5705  0.2120 -0.0192
 4522SOL    HW317821   4.766   0.618   3.791 -0.2737  0.5203 -0.6213
 4522SOL    MW417822   4.737   0.601   3.711 -0.4121 -0.3610  0.4779
 4523SOL     OW17823   2.347   6.157   4.987  0.4138 -0.1900 -0.0353
 4523SOL    HW217824   2.275   6.109   5.026  0.4102  0.9565  1.5026
 4523SOL    HW317825   2.318   6.248   4.986  1.2733  0.0963 -0.7335
 4523SOL    MW417826   2.334   6.163   4.992 -0.1786  0.1101  0.3803
 4524SOL     OW17827   0.766   2.484   3.854 -0.2529  0.3818 -0.3146
 4524SOL    HW217828   0.690   2.428   3.870 -1.6627  1.8041 -1.6633
 4524SOL    HW317829   0.783   2.475   3.760 -0.1000  1.7007 -0.4331
 4524SOL    MW417830   0.758   2.475   3.843 -0.6649  0.0849 -0.2937
 4525SOL     OW17831   0.981   2.499   4.089 -0.1386  0.6271 -0.2063
 4525SOL    HW217832   0.920   2.459   4.026 -0.2353  0.0050  0.2774
 4525SOL    HW317833   1.057   2.523   4.036 -0.6569  1.1005 -0.7557
 4525SOL    MW417834   0.983   2.497   4.073  0.4890  0.3809 -0.3403
 4526SOL     OW17835   0.804   2.718   5.422  0.4724  0.5935 -0.5214
 4526SOL    HW217836   0.794   2.629   5.456 -0.3358  1.0171  0.3879
 4526SOL    HW317837   0.829   2.706   5.331  3.3191 -0.5995  0.2966
 4526SOL    MW417838   0.806   2.705   5.415  0.0850 -0.2839 -0.2872
 4527SOL     OW17839   4.827   2.653   2.159  0.1195  0.7605 -0.1461
 4527SOL    HW217840   4.831   2.715   2.086 -1.0954  0.8318 -0.1671
 4527SOL    HW317841   4.778   2.578   2.125 -0.1374  0.6373  0.4750
 4527SOL    MW417842   4.821   2.651   2.145  0.0328 -0.0175  0.2806
 4528SOL     OW17843   2.245   0.391   5.621  0.1655 -0.2929 -0.5527
 4528SOL    HW217844   2.271   0.337   5.546  2.4954  0.4219 -0.3565
 4528SOL    HW317845   2.290   0.474   5.607  0.0107  0.1440  1.2465
 4528SOL    MW417846   2.254   0.395   5.609  0.0821 -0.1479 -0.2726
 4529SOL     OW17847   3.279   3.893   0.231  0.1027  0.2957  0.1096
 4529SOL    HW217848   3.219   3.863   0.163 -1.3190  1.7116  0.6847
 4529SOL    HW317849   3.361   3.847   0.213 -0.4937 -0.0163 -2.0140
 4529SOL    MW417850   3.282   3.883   0.220  0.6714 -0.5169 -0.3773
 4530SOL     OW17851   0.067   0.450   6.395  0.0775  0.1857  0.4267
 4530SOL    HW217852   0.105   0.365   6.371 -3.6895 -1.3015 -1.0704
 4530SOL    HW317853   0.037   0.487   6.312 -1.0203  1.5497  1.3901
 4530SOL    MW417854   0.068   0.444   6.381 -0.2045  0.0501 -0.5359
 4531SOL     OW17855   2.273   4.441   1.485 -0.2398  0.4301  0.2816
 4531SOL    HW217856   2.247   4.351   1.463  1.0683  0.0645  0.1082
 4531SOL    HW317857   2.300   4.479   1.401 -1.3399  1.2060  0.2531
 4531SOL    MW417858   2.273   4.434   1.471  0.2952 -0.7635  0.0739
 4532SOL     OW17859   0.252   5.795   3.731 -0.4978  0.3026 -0.0566
 4532SOL    HW217860   0.261   5.888   3.710  0.8399 -0.1745 -1.8315
 4532SOL    HW317861   0.194   5.761   3.662  0.0824 -0.4198 -0.1880
 4532SOL    MW417862   0.245   5.803   3.719 -1.1069  0.5052  0.0528
 4533SOL     OW17863   4.826   2.925   3.802 -0.4634  0.0104 -0.4217
 4533SOL    HW217864   4.921   2.919   3.794 -0.4336  0.9051 -0.8184
 4533SOL    HW317865   4.810   3.012   3.839 -1.1023 -0.3828  0.2659
 4533SOL    MW417866   4.836   2.936   3.806 -0.0475 -0.0568  0.4016
 4534SOL     OW17867   0.145   6.170   5.862 -0.1165  0.1296 -0.1081
 4534SOL    HW217868   0.191   6.239   5.909 -0.0596 -0.4758  0.7377
 4534SOL    HW317869   0.180   6.088   5.897 -0.9271 -0.3373 -0.3525
 4534SOL    MW417870   0.156   6.168   5.873 -0.3570  0.4095  0.4784
 4535SOL     OW17871   4.501   5.981   2.710  0.1365 -0.5670  0.0545
 4535SOL    HW217872   4.463   6.067   2.725 -1.2663 -0.8625 -1.4233
 4535SOL    HW317873   4.558   5.993   2.634 -0.1659 -0.9332 -0.2410
 4535SOL    MW417874   4.503   5.994   2.702  0.6199  0.1130 -0.4939
 4536SOL     OW17875   1.751   5.774   1.999  0.2800  0.1250  0.4296
 4536SOL    HW217876   1.725   5.767   1.907 -0.8835 -0.4449  0.7743
 4536SOL    HW317877   1.734   5.866   2.021 -0.1953  0.0752  0.2858
 4536SOL    MW417878   1.745   5.785   1.989  0.3876  0.0547 -0.3705
 4537SOL     OW17879   2.135   3.783   6.055  0.2135 -0.0280 -0.8216
 4537SOL    HW217880   2.059   3.757   6.108 -0.1918  2.1850 -0.2234
 4537SOL    HW317881   2.107   3.770   5.965 -1.2273  1.4497 -0.6449
 4537SOL    MW417882   2.121   3.778   6.050  0.5072  0.3838  0.3063
 4538SOL     OW17883   0.746   0.083   1.532 -0.0467  0.1169 -0.4307
 4538SOL    HW217884   0.770   0.097   1.440 -0.9175  1.0378 -0.5381
 4538SOL    HW317885   0.654   0.111   1.537 -0.2441 -0.6595  0.5580
 4538SOL    MW417886   0.737   0.089   1.520 -0.1998  0.6345 -0.2375
 4539SOL     OW17887   5.436   1.531   1.207  0.4032 -0.3059  0.3297
 4539SOL    HW217888   5.342   1.535   1.195  0.5188 -1.4199 -1.2664
 4539SOL    HW317889   5.453   1.585   1.284 -1.4612  0.3536  0.3215
 4539SOL    MW417890   5.426   1.539   1.215  0.0902 -0.0692 -0.6436
 4540SOL     OW17891   0.790   5.227   4.357  0.0858  0.3611 -0.0548
 4540SOL    HW217892   0.813   5.213   4.265  1.5220  0.6320  0.2387
 4540SOL    HW317893   0.874   5.220   4.404 -0.7359 -0.6314  1.3392
 4540SOL    MW417894   0.804   5.224   4.351  0.8277 -0.2956 -0.0611
 4541SOL     OW17895   3.292   5.605   1.383 -0.2457  0.3162 -0.3768
 4541SOL    HW217896   3.250   5.686   1.358 -0.9231  0.1660  0.2352
 4541SOL    HW317897   3.338   5.576   1.304  0.9508  1.8540 -0.2934
 4541SOL    MW417898   3.293   5.612   1.369  0.1855 -0.3175  0.5442
 4542SOL     OW17899   2.669   4.886   1.980 -0.0537 -0.8089 -0.2817
 4542SOL    HW217900   2.739   4.823   1.998  0.1820 -0.7592 -0.9749
 4542SOL    HW317901   2.605   4.836   1.929  0.7870 -0.1612 -2.0610
 4542SOL    MW417902   2.670   4.871   1.975 -0.0358 -0.4160  0.1152
 4543SOL     OW17903   1.950   0.753   0.755  0.0044 -0.0331  0.1666
 4543SOL    HW217904   1.989   0.781   0.838  0.3866 -0.6774  0.2081
 4543SOL    HW317905   1.869   0.805   0.748  1.1478  1.7648 -0.2281
 4543SOL    MW417906   1.944   0.763   0.765 -0.0246 -0.2279  0.0914
 4544SOL     OW17907   1.325   1.335   3.047 -0.3134  0.2735  0.1336
 4544SOL    HW217908   1.370   1.251   3.033 -0.7128  0.0218  0.3363
 4544SOL    HW317909   1.391   1.392   3.086  0.2897  0.4098 -1.0405
 4544SOL    MW417910   1.340   1.331   3.051  0.4486  0.2691 -0.0405
 4545SOL     OW17911   5.100   2.669   0.676 -0.4269 -0.1365 -0.0144
 4545SOL    HW217912   5.052   2.727   0.735  0.9788  0.6818  0.3609
 4545SOL    HW317913   5.192   2.695   0.686  0.2676 -2.4763  0.2344
 4545SOL    MW417914   5.106   2.680   0.685 -0.2052 -1.1121  0.3287
 4546SOL     OW17915   0.947   4.544   4.819  0.5066  0.1815 -0.2829
 4546SOL    HW217916   0.993   4.467   4.853 -0.2600  0.0675  0.5164
 4546SOL    HW317917   0.917   4.516   4.732  1.9886  0.2863 -0.8593
 4546SOL    MW417918   0.949   4.530   4.812 -0.2488 -0.2688 -0.2163
 4547SOL     OW17919   4.276   4.463   5.144  0.7223  0.2510 -0.2524
 4547SOL    HW217920   4.307   4.399   5.207  1.4155  0.5778 -0.2504
 4547SOL    HW317921   4.218   4.414   5.086  1.1071 -0.3329 -0.1463
 4547SOL    MW417922   4.272   4.448   5.145  0.1831 -0.3067  0.0612
 4548SOL     OW17923   3.274   1.979   0.847  0.3649  0.0332  0.8301
 4548SOL    HW217924   3.179   1.985   0.842  0.4312  0.0267 -0.8462
 4548SOL    HW317925   3.291   1.919   0.920 -0.8374  1.7625  2.6027
 4548SOL    MW417926   3.264   1.972   0.856  0.0689  0.7133 -0.4705
 4549SOL     OW17927   2.875   5.719   0.399 -0.0871 -0.1074 -0.3590
 4549SOL    HW217928   2.853   5.812   0.405 -1.1852 -0.4179  1.1225
 4549SOL    HW317929   2.797   5.679   0.360  0.2119 -0.4643 -0.5933
 4549SOL    MW417930   2.861   5.726   0.395 -0.3021  0.3363 -0.6716
 4550SOL     OW17931   3.324   1.959   0.573  0.2501 -0.6119 -0.3925
 4550SOL    HW217932   3.344   1.866   0.562  1.3523 -0.3396 -0.8792
 4550SOL    HW317933   3.286   1.965   0.660 -0.7211 -1.6486 -0.7239
 4550SOL    MW417934   3.322   1.947   0.583  0.3866  0.2888 -0.2999
 4551SOL     OW17935   1.682   4.591   2.794  0.0135 -0.2029 -0.0104
 4551SOL    HW217936   1.723   4.660   2.741  1.9293 -1.5241 -0.3188
 4551SOL    HW317937   1.683   4.514   2.738 -2.5294 -0.4415  0.1668
 4551SOL    MW417938   1.688   4.590   2.779  0.5184 -0.0694 -0.0320
 4552SOL     OW17939   1.349   1.420   4.446  0.5320  0.7191 -0.4822
 4552SOL    HW217940   1.310   1.393   4.363 -1.6072  0.8048  0.4327
 4552SOL    HW317941   1.419   1.481   4.421  0.5227  0.0613 -2.2307
 4552SOL    MW417942   1.353   1.425   4.432 -0.5508 -0.2112 -0.9372
 4553SOL     OW17943   4.565   2.656   0.783  0.2060 -0.4970 -0.2105
 4553SOL    HW217944   4.488   2.631   0.731  1.0236 -2.8809 -0.3866
 4553SOL    HW317945   4.637   2.607   0.744  1.4983  0.3321  1.0531
 4553SOL    MW417946   4.564   2.646   0.771 -0.2450  0.0019  0.2533
 4554SOL     OW17947   2.480   0.604   2.904  0.3678 -0.0768  0.2055
 4554SOL    HW217948   2.562   0.613   2.953  0.5347 -1.6430  0.2670
 4554SOL    HW317949   2.435   0.530   2.946 -0.4443 -0.1104 -0.6944
 4554SOL    MW417950   2.485   0.595   2.916 -0.0566 -0.3545  0.5628
 4555SOL     OW17951   4.377   3.289   0.699  0.5956  0.2106  0.2352
 4555SOL    HW217952   4.405   3.220   0.637  2.3099  1.6074 -0.6345
 4555SOL    HW317953   4.366   3.367   0.644 -0.0521  0.9554  1.3924
 4555SOL    MW417954   4.380   3.290   0.683 -0.1343  0.0283 -1.2662
 4556SOL     OW17955   2.762   2.245   2.329 -0.0452 -0.0731  0.2879
 4556SOL    HW217956   2.829   2.270   2.266  0.4741  0.8698  1.1782
 4556SOL    HW317957   2.706   2.322   2.336  0.0513 -0.0673  1.1521
 4556SOL    MW417958   2.763   2.258   2.322 -0.0139 -0.1675 -0.0513
 4557SOL     OW17959   3.965   5.258   4.480  0.1559  0.8056  0.2475
 4557SOL    HW217960   3.958   5.346   4.517  0.1728  0.3468  1.4105
 4557SOL    HW317961   3.876   5.223   4.484 -0.3187  1.5213 -2.2898
 4557SOL    MW417962   3.952   5.265   4.486  0.5580  0.1173  0.1547
 4558SOL     OW17963   0.084   5.000   1.755  0.2791  0.4530  0.2449
 4558SOL    HW217964   0.118   4.956   1.677  1.5595  0.5587  0.7206
 4558SOL    HW317965   0.103   5.093   1.740 -0.6949  0.6381  0.0932
 4558SOL    MW417966   0.091   5.007   1.743 -0.0760 -0.2065 -0.0937
 4559SOL     OW17967   4.722   2.213   6.311  0.2304 -0.6128 -0.2248
 4559SOL    HW217968   4.811   2.245   6.328  0.1092 -0.4339  0.0667
 4559SOL    HW317969   4.665   2.282   6.345 -0.0191 -0.6282 -0.6077
 4559SOL    MW417970   4.727   2.226   6.318  0.2010 -0.4386 -0.1256
 4560SOL     OW17971   5.264   3.026   1.722 -0.2026  0.0149  0.1843
 4560SOL    HW217972   5.241   2.955   1.662 -2.1018  1.3060 -0.7127
 4560SOL    HW317973   5.183   3.043   1.771 -0.0034  1.9058 -0.0506
 4560SOL    MW417974   5.250   3.019   1.720  0.2068 -0.7382  0.5181
 4561SOL     OW17975   2.795   5.760   1.219 -0.2914  0.1078  0.3737
 4561SOL    HW217976   2.740   5.761   1.140 -1.6445  0.7019  1.2820
 4561SOL    HW317977   2.861   5.693   1.201  0.0184  0.8637 -1.6311
 4561SOL    MW417978   2.796   5.752   1.206  0.0512 -0.0106 -0.1586
 4562SOL     OW17979   4.532   1.163   3.948  0.2429 -0.2640  0.1555
 4562SOL    HW217980   4.588   1.235   3.917  0.3762 -0.6044 -0.3988
 4562SOL    HW317981   4.578   1.129   4.024  0.0151  0.4492  0.6235
 4562SOL    MW417982   4.546   1.168   3.954 -0.1794 -0.4550  0.2721
 4563SOL     OW17983   2.440   5.999   0.656  0.4217 -0.6770  0.0977
 4563SOL    HW217984   2.466   6.048   0.734  1.3200 -2.1429  0.7589
 4563SOL    HW317985   2.499   6.030   0.588  0.4474 -0.2512  0.3121
 4563SOL    MW417986   2.451   6.009   0.658  0.0722 -0.2088  0.1707
 4564SOL     OW17987   1.459   5.781   4.802  0.1202 -0.4609 -0.4628
 4564SOL    HW217988   1.493   5.868   4.782  0.8655 -0.9381 -1.3166
 4564SOL    HW317989   1.384   5.797   4.859  0.2351  0.7386 -0.6349
 4564SOL    MW417990   1.453   5.794   4.807  0.3227  0.5862  0.3873
 4565SOL     OW17991   5.294   3.421   5.784  0.2904 -0.2893  0.0797
 4565SOL    HW217992   5.240   3.500   5.777 -0.5098 -0.9286 -1.5434
 4565SOL    HW317993   5.383   3.453   5.795  0.4441  1.0084 -3.6318
 4565SOL    MW417994   5.298   3.435   5.785 -0.4598  0.1398  0.1568
 4566SOL     OW17995   1.780   5.395   5.472  0.7340  0.0325  0.0824
 4566SOL    HW217996   1.839   5.468   5.492  1.5515 -0.1108 -1.6218
 4566SOL    HW317997   1.834   5.334   5.422 -1.0243  0.2166 -2.1752
 4566SOL    MW417998   1.795   5.396   5.468 -0.6249 -0.2002 -0.0248
 4567SOL     OW17999   1.728   3.360   1.712  0.4809  0.5039  0.7885
 4567SOL    HW218000   1.756   3.420   1.644 -1.7920 -0.4897 -1.1968
 4567SOL    HW318001   1.724   3.274   1.669 -3.9366  0.3092  1.0946
 4567SOL    MW418002   1.731   3.356   1.698  0.2533  0.3468  0.1477
 4568SOL     OW18003   2.446   2.929   2.726 -0.5521  0.3354 -0.1238
 4568SOL    HW218004   2.504   2.989   2.679  0.1838 -0.7901 -0.7083
 4568SOL    HW318005   2.365   2.978   2.737  0.0078  1.4176 -0.6056
 4568SOL    MW418006   2.443   2.943   2.721  0.0321  0.2805  0.1252
 4569SOL     OW18007   4.645   4.946   6.401  0.2423 -0.1331  0.1420
 4569SOL    HW218008   4.641   5.041   6.389  0.5051  0.2144  2.4494
 4569SOL    HW318009   4.662   4.934   6.494  2.3130 -2.4245 -0.4281
 4569SOL    MW418010   4.647   4.957   6.411  0.4929  0.6230  0.1167
 4570SOL     OW18011   3.041   0.180   2.919  0.1562 -0.3504  0.4143
 4570SOL    HW218012   3.098   0.254   2.901  0.6247 -0.5690  0.9386
 4570SOL    HW318013   3.014   0.148   2.833  1.3657 -0.6456  0.1231
 4570SOL    MW418014   3.045   0.185   2.906 -0.5233 -0.4496 -0.0509
 4571SOL     OW18015   2.767   4.010   4.362  0.2191  0.0874 -0.0672
 4571SOL    HW218016   2.775   4.070   4.436 -2.1732  1.9307 -1.1487
 4571SOL    HW318017   2.678   3.974   4.370  0.6312 -1.2166 -0.9907
 4571SOL    MW418018   2.756   4.013   4.373 -0.1471 -0.2535 -0.0523
 4572SOL     OW18019   4.667   2.475   2.044  0.6675  0.2103  0.0356
 4572SOL    HW218020   4.700   2.420   1.973 -0.3387 -2.6988  1.6686
 4572SOL    HW318021   4.607   2.537   2.001 -0.8017 -2.1811 -1.6023
 4572SOL    MW418022   4.663   2.476   2.029  0.2025  0.3034 -0.1765
 4573SOL     OW18023   5.156   1.125   1.005 -0.1755 -0.1448 -0.3366
 4573SOL    HW218024   5.189   1.046   1.048  1.6439  0.6850 -0.0830
 4573SOL    HW318025   5.063   1.110   0.993 -0.1214 -1.7316  0.9931
 4573SOL    MW418026   5.148   1.113   1.009  1.0489  0.2498  0.4296
 4574SOL     OW18027   1.071   5.311   5.110 -0.1661  0.3102 -0.4413
 4574SOL    HW218028   1.035   5.286   5.194 -1.5885 -3.1965 -1.9241
 4574SOL    HW318029   1.073   5.407   5.113  1.5038  0.3855  4.1255
 4574SOL    MW418030   1.067   5.320   5.121 -0.7464  0.4486 -1.0220
 4575SOL     OW18031   5.068   0.096   0.691  0.0333  0.3739  0.0213
 4575SOL    HW218032   5.069   0.000   0.699  0.7735  0.0239 -3.0289
 4575SOL    HW318033   4.995   0.114   0.631 -0.5165  1.8233  1.0652
 4575SOL    MW418034   5.059   0.086   0.684 -0.0244  0.0209 -0.8735
 4576SOL     OW18035   6.431   5.449   2.136 -0.1069 -0.2534  0.3010
 4576SOL    HW218036   6.431   5.412   2.224  1.0733 -0.5804  0.1785
 4576SOL    HW318037   6.429   5.543   2.149  0.6045 -0.2892  0.6908
 4576SOL    MW418038   6.430   5.456   2.149 -0.0983 -0.1835 -0.0505
 4577SOL     OW18039   6.163   1.812   4.164  0.1263  0.3673 -0.4249
 4577SOL    HW218040   6.206   1.727   4.155 -0.7640 -0.0638 -0.7592
 4577SOL    HW318041   6.101   1.799   4.236  0.1438  0.8070 -0.3269
 4577SOL    MW418042   6.160   1.799   4.172  0.5184  0.2987  0.3817
 4578SOL     OW18043   2.056   5.060   2.426  0.2730  0.0940  0.0245
 4578SOL    HW218044   2.073   5.036   2.335 -0.2534 -0.3649  0.0393
 4578SOL    HW318045   2.128   5.019   2.476  0.7371  0.6128 -0.2143
 4578SOL    MW418046   2.068   5.051   2.421 -0.0044 -0.1553 -0.0896
 4579SOL     OW18047   4.293   0.430   0.658 -0.3545  0.7765  0.5205
 4579SOL    HW218048   4.338   0.483   0.592  0.4776  0.1728  0.5999
 4579SOL    HW318049   4.362   0.385   0.705 -1.0362 -0.3388  0.5022
 4579SOL    MW418050   4.308   0.431   0.655 -0.1147  0.5314 -0.2629
 4580SOL     OW18051   2.732   2.942   5.152 -0.0904 -0.1622  0.3501
 4580SOL    HW218052   2.767   3.027   5.179 -0.1781  0.8955 -2.4991
 4580SOL    HW318053   2.638   2.957   5.143  0.1076  0.0625 -1.9500
 4580SOL    MW418054   2.724   2.955   5.154  0.0277  0.4249  1.2883
 4581SOL     OW18055   0.157   5.509   4.081 -0.1363  0.2337 -0.6973
 4581SOL    HW218056   0.153   5.472   3.993 -0.0073 -1.1524 -0.1361
 4581SOL    HW318057   0.070   5.546   4.096 -0.3269 -0.0086 -1.1961
 4581SOL    MW418058   0.145   5.509   4.071 -0.7780 -0.0470  0.3106
 4582SOL     OW18059   1.750   3.497   0.897 -0.1574 -0.0268 -0.2747
 4582SOL    HW218060   1.775   3.586   0.872  0.4876 -0.1728 -0.1733
 4582SOL    HW318061   1.765   3.445   0.818  0.3840 -0.2073 -0.0635
 4582SOL    MW418062   1.755   3.502   0.883 -0.1572  0.1962 -0.5468
 4583SOL     OW18063   5.711   4.128   2.544  0.3275  0.6609 -0.3597
 4583SOL    HW218064   5.653   4.188   2.591 -0.1929 -0.1121  0.0066
 4583SOL    HW318065   5.768   4.185   2.493 -1.8552  1.4455 -2.0800
 4583SOL    MW418066   5.711   4.143   2.544 -0.1683  0.3749 -0.4170
 4584SOL     OW18067   2.674   4.347   3.691 -0.0407 -0.0716 -0.0968
 4584SOL    HW218068   2.760   4.385   3.674  0.9761 -2.3549 -0.5337
 4584SOL    HW318069   2.680   4.313   3.780 -0.0825 -1.1477 -0.4829
 4584SOL    MW418070   2.686   4.347   3.700  0.0063 -0.4899 -0.3629
 4585SOL     OW18071   4.364   0.901   5.001 -0.5487 -0.3030 -0.2324
 4585SOL    HW218072   4.310   0.826   4.976 -1.1313  0.4290 -1.2534
 4585SOL    HW318073   4.300   0.971   5.017  0.0557  0.4124 -0.8901
 4585SOL    MW418074   4.348   0.900   5.000  0.0531  0.0012  0.4962
 4586SOL     OW18075   0.994   5.626   5.090 -0.0160  0.4515  0.4397
 4586SOL    HW218076   1.031   5.668   5.011 -0.1071 -1.9374 -0.9596
 4586SOL    HW318077   1.059   5.643   5.158  0.6305  1.5907 -0.4103
 4586SOL    MW418078   1.007   5.634   5.088 -0.1559 -0.0035 -0.3693
 4587SOL     OW18079   4.913   4.068   2.947 -0.3110 -0.4991  0.3022
 4587SOL    HW218080   4.944   4.046   2.859 -1.6298 -0.0743 -0.2846
 4587SOL    HW318081   4.882   3.985   2.983 -0.2241 -0.5860  0.1781
 4587SOL    MW418082   4.913   4.054   2.940 -0.5010 -0.3388  0.0506
 4588SOL     OW18083   1.940   4.140   1.890  0.1265  0.7547 -0.0634
 4588SOL    HW218084   1.944   4.098   1.975  0.7701 -0.5575 -0.7166
 4588SOL    HW318085   1.981   4.226   1.904  3.1015 -0.6021  0.3402
 4588SOL    MW418086   1.946   4.146   1.903  0.1462  0.4318 -0.3912
 4589SOL     OW18087   6.326   4.472   1.831 -0.1069  0.1493 -0.5901
 4589SOL    HW218088   6.392   4.538   1.811  0.7120 -0.9202 -1.6076
 4589SOL    HW318089   6.371   4.410   1.888 -0.5616 -0.0319 -0.4281
 4589SOL    MW418090   6.340   4.472   1.836  0.4585 -0.1501  0.1519
 4590SOL     OW18091   5.987   0.140   4.403  0.0107  0.0547 -0.0671
 4590SOL    HW218092   5.953   0.180   4.323  0.4824 -0.2426 -0.4257
 4590SOL    HW318093   6.035   0.211   4.446  1.0199 -0.1485 -0.8056
 4590SOL    MW418094   5.989   0.155   4.398 -0.1354 -0.1815 -0.2643
 4591SOL     OW18095   0.847   4.458   0.564 -0.0573 -0.8979 -0.3735
 4591SOL    HW218096   0.840   4.553   0.576 -0.7420 -1.0882  0.9413
 4591SOL    HW318097   0.811   4.421   0.645  0.8788 -2.2747 -0.5575
 4591SOL    MW418098   0.841   4.466   0.576  0.0806  0.1922  0.5437
 4592SOL     OW18099   2.624   1.691   4.005 -0.1621  0.3148  0.5863
 4592SOL    HW218100   2.633   1.606   3.962 -0.0414  0.0093  1.2042
 4592SOL    HW318101   2.564   1.675   4.077  0.9191  0.4234  1.5496
 4592SOL    MW418102   2.618   1.678   4.009  0.2348 -0.0175 -0.6349
 4593SOL     OW18103   5.353   6.396   1.866  0.2042 -0.1788 -0.1420
 4593SOL    HW218104   5.418   6.462   1.842  1.7796 -0.5496  2.6958
 4593SOL    HW318105   5.402   6.314   1.869 -1.1670 -1.0719 -1.0941
 4593SOL    MW418106   5.368   6.394   1.863  0.2147 -0.2574  0.0238
 4594SOL     OW18107   4.445   0.243   6.322  0.0910  0.2611 -1.0384
 4594SOL    HW218108   4.376   0.307   6.305 -0.2701 -0.3057 -1.7963
 4594SOL    HW318109   4.497   0.281   6.393 -0.2626  1.2665 -1.3015
 4594SOL    MW418110   4.443   0.256   6.329  0.3552  0.8706  0.0988
 4595SOL     OW18111   1.994   2.690   3.161 -0.5008  0.0789 -0.2170
 4595SOL    HW218112   2.054   2.631   3.206  0.0425  0.5572 -0.2899
 4595SOL    HW318113   2.052   2.750   3.114 -1.0481  0.2873 -0.6306
 4595SOL    MW418114   2.010   2.690   3.161 -0.2204  0.6539 -0.2489
 4596SOL     OW18115   0.283   2.013   2.677 -0.4810  0.2525 -0.5215
 4596SOL    HW218116   0.337   2.069   2.622  0.9202 -0.8172 -0.2787
 4596SOL    HW318117   0.330   1.930   2.681 -2.5920 -1.0677 -1.0565
 4596SOL    MW418118   0.296   2.009   2.670 -0.4798  0.0509 -0.2828
 4597SOL     OW18119   6.004   2.599   5.476 -0.4412  0.2347  0.3220
 4597SOL    HW218120   5.955   2.620   5.555 -0.2526  0.8131  0.2920
 4597SOL    HW318121   6.004   2.680   5.425  0.9643  0.4143  0.5442
 4597SOL    MW418122   5.998   2.612   5.480  0.2716 -0.3927 -0.3171
 4598SOL     OW18123   1.122   2.975   5.832  0.2852 -0.6863  0.2349
 4598SOL    HW218124   1.164   3.060   5.844 -2.4820  0.8989 -0.5037
 4598SOL    HW318125   1.056   2.972   5.902 -1.8438 -0.6900 -1.6766
 4598SOL    MW418126   1.119   2.986   5.843 -0.0003 -0.1724  0.9790
 4599SOL     OW18127   0.075   3.188   5.841  0.5369  0.1694 -0.1293
 4599SOL    HW218128   0.131   3.265   5.828  1.0955  0.3200  2.5455
 4599SOL    HW318129  -0.014   3.224   5.844  0.6117  0.4255 -0.8167
 4599SOL    MW418130   0.070   3.203   5.840  0.1476  0.0237 -0.6208
 4600SOL     OW18131   1.446   2.112   0.352 -0.5070 -0.5811  0.9427
 4600SOL    HW218132   1.430   2.018   0.355  1.0637 -0.9476 -0.5293
 4600SOL    HW318133   1.417   2.144   0.438 -0.2485 -2.5431  1.8159
 4600SOL    MW418134   1.440   2.104   0.364 -0.0039 -0.1269  0.1592
 4601SOL     OW18135   1.776   1.297   0.066  0.1573 -0.4046  0.3087
 4601SOL    HW218136   1.701   1.242   0.089  0.2507  1.0276  5.0697
 4601SOL    HW318137   1.738   1.373   0.021 -1.7079  0.9929  3.8565
 4601SOL    MW418138   1.761   1.300   0.063  0.1436 -0.1453  0.1539
 4602SOL     OW18139   2.139   6.261   6.049 -0.3518  0.3496 -0.1833
 4602SOL    HW218140   2.077   6.232   6.116  1.6060  1.3495  2.2558
 4602SOL    HW318141   2.225   6.233   6.082  0.7468  1.2874 -2.0618
 4602SOL    MW418142   2.142   6.253   6.062 -0.0721 -0.2992  0.2679
 4603SOL     OW18143   0.723   3.472   2.524 -0.3026  0.0761  0.5096
 4603SOL    HW218144   0.668   3.544   2.557 -1.5075 -0.5311 -0.1142
 4603SOL    HW318145   0.708   3.400   2.585  0.0479  0.0114  0.5191
 4603SOL    MW418146   0.714   3.472   2.536  0.3454  0.1898  0.1337
 4604SOL     OW18147   1.487   0.131   5.202  0.5233  0.4234 -0.7483
 4604SOL    HW218148   1.528   0.145   5.287 -0.2485 -0.1663 -0.2548
 4604SOL    HW318149   1.559   0.116   5.141  1.0465 -0.1344  0.0003
 4604SOL    MW418150   1.502   0.131   5.205 -0.4757 -0.5126  0.1100
 4605SOL     OW18151   1.998   1.083   5.298  0.3366 -0.3872 -0.3440
 4605SOL    HW218152   1.984   1.172   5.332 -1.0923 -1.0506  0.8898
 4605SOL    HW318153   1.948   1.081   5.216 -1.0267 -0.5435  0.4704
 4605SOL    MW418154   1.989   1.095   5.291 -0.4525  0.0480 -0.2514
 4606SOL     OW18155   2.986   0.753   0.355  0.0050 -0.5194  0.2101
 4606SOL    HW218156   2.925   0.715   0.418  1.4233  0.2269  2.1498
 4606SOL    HW318157   2.930   0.788   0.285 -1.5973 -1.8847  0.7396
 4606SOL    MW418158   2.970   0.753   0.354  0.3506  0.4147  0.5538
 4607SOL     OW18159   6.399   3.509   4.961  0.0989  0.4464 -0.3016
 4607SOL    HW218160   6.339   3.438   4.984  0.1890  0.5092  0.1270
 4607SOL    HW318161   6.483   3.465   4.947 -0.0871  0.3317 -1.1031
 4607SOL    MW418162   6.402   3.494   4.962  0.2053  0.2505 -0.6853
 4608SOL     OW18163   2.545   1.853   4.715 -0.1688  0.1606 -0.4148
 4608SOL    HW218164   2.539   1.831   4.622  0.6364  1.5061 -0.8225
 4608SOL    HW318165   2.569   1.945   4.715 -0.4548  0.2479  1.1486
 4608SOL    MW418166   2.548   1.862   4.702 -0.1044 -0.8485  0.1919
 4609SOL     OW18167   2.856   2.770   0.694 -0.3207  0.0098 -0.2889
 4609SOL    HW218168   2.786   2.823   0.657 -0.9932 -0.2109  0.6133
 4609SOL    HW318169   2.828   2.754   0.785  0.8488 -0.1715  0.0562
 4609SOL    MW418170   2.843   2.775   0.701  0.4722  0.1567  0.0543
 4610SOL     OW18171   0.062   3.512   2.475 -0.2483 -0.0188  0.1093
 4610SOL    HW218172   0.021   3.598   2.473 -0.0976  0.0426 -0.8830
 4610SOL    HW318173   0.156   3.530   2.482  0.0446  0.0248 -2.7773
 4610SOL    MW418174   0.069   3.525   2.475  0.3294 -0.3896  0.5254
 4611SOL     OW18175   4.618   2.358   5.798  0.0626 -0.3326  0.6254
 4611SOL    HW218176   4.698   2.336   5.750 -0.2776 -0.2558  0.0068
 4611SOL    HW318177   4.575   2.422   5.742 -1.0219 -1.2656  0.3681
 4611SOL    MW418178   4.623   2.364   5.784  0.5290  0.3000  0.5425
 4612SOL     OW18179   5.141   3.301   0.045  0.0627  0.3605  0.1905
 4612SOL    HW218180   5.229   3.267   0.030 -0.4669 -1.3574  0.7205
 4612SOL    HW318181   5.090   3.272  -0.031  0.0758  1.9519 -0.4689
 4612SOL    MW418182   5.146   3.292   0.033  0.2230  0.7544 -0.3816
 4613SOL     OW18183   6.177   4.465   5.937 -0.1830 -0.5293 -0.1470
 4613SOL    HW218184   6.158   4.468   5.843 -1.2119  0.7034  0.0736
 4613SOL    HW318185   6.168   4.373   5.960  1.2315 -1.0546 -1.4522
 4613SOL    MW418186   6.173   4.453   5.927 -0.2103 -0.1435 -0.2844
 4614SOL     OW18187   6.168   2.508   6.010 -0.1106  0.1393 -0.2466
 4614SOL    HW218188   6.158   2.424   5.965  2.0246 -0.2803 -0.0742
 4614SOL    HW318189   6.127   2.572   5.951 -2.4518 -1.0503 -0.0182
 4614SOL    MW418190   6.161   2.506   5.996  0.4871 -0.1269 -0.6670
 4615SOL     OW18191   0.217   2.613   2.330  0.0335  0.4678  0.2453
 4615SOL    HW218192   0.231   2.526   2.294  0.5332  0.2387  0.9769
 4615SOL    HW318193   0.153   2.653   2.271 -1.2273 -0.8696  0.6547
 4615SOL    MW418194   0.210   2.607   2.317  0.2530  0.0306 -0.3161
 4616SOL     OW18195   4.296   4.382   1.124  0.1349 -0.8692  0.8265
 4616SOL    HW218196   4.298   4.398   1.030 -1.0913  0.2780  0.9752
 4616SOL    HW318197   4.388   4.380   1.150  0.4648 -0.4610 -0.2670
 4616SOL    MW418198   4.308   4.384   1.115  0.1291 -0.2675 -0.3880
 4617SOL     OW18199   2.829   2.357   2.569  0.5832 -0.1413 -0.5315
 4617SOL    HW218200   2.821   2.323   2.480  0.7343  1.5291 -1.2327
 4617SOL    HW318201   2.919   2.337   2.595  0.1155 -1.8824 -0.1865
 4617SOL    MW418202   2.840   2.350   2.561  0.3778 -0.3834 -0.0188
 4618SOL     OW18203   3.546   2.104   3.279  0.0302  0.5185 -0.2413
 4618SOL    HW218204   3.463   2.114   3.325 -0.3359 -2.4162 -0.0739
 4618SOL    HW318205   3.529   2.136   3.191 -1.1649  0.3882 -0.0691
 4618SOL    MW418206   3.533   2.109   3.273 -0.2247 -0.3428  0.2674
 4619SOL     OW18207   5.978   3.599   4.776 -0.1998 -0.8687  0.5556
 4619SOL    HW218208   6.068   3.572   4.757  0.0025  0.6780 -0.8215
 4619SOL    HW318209   5.987   3.679   4.828 -0.7608 -0.3655 -0.1010
 4619SOL    MW418210   5.991   3.606   4.781 -0.0483 -0.2288 -0.7965
 4620SOL     OW18211   2.132   1.765   0.984  0.4651  0.4613 -0.5038
 4620SOL    HW218212   2.167   1.825   1.050  0.9813  0.4252 -0.7379
 4620SOL    HW318213   2.089   1.696   1.034  2.3036 -0.4667 -0.1294
 4620SOL    MW418214   2.131   1.764   0.999  0.2705 -0.6768 -0.7947
 4621SOL     OW18215   5.696   4.264   5.634 -0.1602  0.2591  0.3738
 4621SOL    HW218216   5.700   4.187   5.691 -1.1651 -0.4837 -0.5218
 4621SOL    HW318217   5.608   4.298   5.647  0.4625  1.6479  1.2093
 4621SOL    MW418218   5.685   4.258   5.643  0.3424  0.2998  0.3829
 4622SOL     OW18219   6.101   3.637   0.430 -0.0586 -0.0175 -0.0932
 4622SOL    HW218220   6.179   3.585   0.414 -0.4485 -0.7957  0.4619
 4622SOL    HW318221   6.134   3.726   0.445  0.6271 -0.1272 -0.8640
 4622SOL    MW418222   6.115   3.642   0.430  0.0661  0.4449  0.2423
 4623SOL     OW18223   1.739   3.664   5.745 -0.1943 -0.4049  0.7454
 4623SOL    HW218224   1.656   3.649   5.699  1.5160 -1.1852 -2.4227
 4623SOL    HW318225   1.716   3.662   5.837 -3.3006 -3.3134  0.1314
 4623SOL    MW418226   1.725   3.662   5.751  0.1233 -0.0308  0.4176
 4624SOL     OW18227   3.671   4.707   4.936 -0.5268  0.0990 -0.0149
 4624SOL    HW218228   3.604   4.739   4.995 -0.1405  0.8454  0.0311
 4624SOL    HW318229   3.684   4.778   4.873 -1.4078 -0.9347 -1.4182
 4624SOL    MW418230   3.664   4.720   4.935 -0.8394 -0.0090 -0.0742
 4625SOL     OW18231   5.007   2.528   1.422  0.4377 -0.1361 -0.3533
 4625SOL    HW218232   5.081   2.588   1.419  1.2769 -1.0329  1.0617
 4625SOL    HW318233   5.015   2.476   1.342 -0.4373  1.7152 -1.7154
 4625SOL    MW418234   5.018   2.529   1.411  0.1555 -0.5443  0.2647
 4626SOL     OW18235   4.127   5.159   6.135  0.5269 -0.2006 -0.3784
 4626SOL    HW218236   4.053   5.182   6.192  0.9216 -2.6229  1.2195
 4626SOL    HW318237   4.196   5.219   6.161  0.3886 -0.6236  1.0677
 4626SOL    MW418238   4.126   5.170   6.146 -0.2021  0.3161  0.4130
 4627SOL     OW18239   1.299   2.206   4.635 -0.2066  0.4780 -0.4697
 4627SOL    HW218240   1.274   2.276   4.694 -0.8093 -0.5397  0.5315
 4627SOL    HW318241   1.392   2.222   4.617 -0.7256  2.4642 -1.6448
 4627SOL    MW418242   1.308   2.217   4.641 -0.0138  0.3450  0.3917
 4628SOL     OW18243   2.272   3.152   0.796  0.0594  0.5001 -0.1009
 4628SOL    HW218244   2.281   3.158   0.701 -0.1632  0.9153 -0.0988
 4628SOL    HW318245   2.215   3.225   0.819 -0.8684 -0.3054  0.2212
 4628SOL    MW418246   2.266   3.163   0.786 -0.2167 -0.4998  0.0994
 4629SOL     OW18247   2.163   5.112   5.744  0.4494  0.0753  0.1177
 4629SOL    HW218248   2.081   5.063   5.739  1.2711 -1.5355  1.3311
 4629SOL    HW318249   2.186   5.131   5.653 -0.7316 -0.3580 -0.2907
 4629SOL    MW418250   2.156   5.108   5.732  0.1250 -0.0317 -0.6354
 4630SOL     OW18251   4.264   2.936   4.743 -0.4211 -0.4522 -0.0972
 4630SOL    HW218252   4.186   2.988   4.762 -1.1458 -0.6108 -2.3197
 4630SOL    HW318253   4.333   3.000   4.729 -1.0328 -0.0754 -1.6464
 4630SOL    MW418254   4.262   2.951   4.744  0.3837 -0.1695  0.0129
 4631SOL     OW18255   6.335   5.070   3.311 -0.5684  0.1256  0.1342
 4631SOL    HW218256   6.257   5.082   3.365 -0.6473  0.7645 -0.1150
 4631SOL    HW318257   6.381   4.997   3.352 -0.0079  1.3461  1.8150
 4631SOL    MW418258   6.331   5.062   3.324  0.8404  0.4159  0.0948
 4632SOL     OW18259   1.003   5.077   3.790  0.1011 -0.0541 -0.2119
 4632SOL    HW218260   0.955   5.058   3.709 -0.7484 -2.4955  0.7485
 4632SOL    HW318261   0.947   5.040   3.859  2.3077 -0.9744  1.1751
 4632SOL    MW418262   0.989   5.070   3.788 -0.1702  0.3723 -0.1049
 4633SOL     OW18263   0.868   5.029   5.404  0.0177 -0.1109 -0.2747
 4633SOL    HW218264   0.875   4.936   5.428 -1.0165  0.5378  3.0824
 4633SOL    HW318265   0.793   5.033   5.345 -0.9489 -1.2756  0.7995
 4633SOL    MW418266   0.859   5.017   5.400  0.5366  0.3803 -0.2207
 4634SOL     OW18267   1.063   4.286   3.519 -0.0052  0.1060 -0.1302
 4634SOL    HW218268   1.013   4.343   3.460 -0.6637  0.3149  0.6180
 4634SOL    HW318269   1.102   4.346   3.583 -0.7530 -0.2703  0.7009
 4634SOL    MW418270   1.062   4.301   3.519 -0.2487 -0.0239 -0.1219
 4635SOL     OW18271   5.707   4.521   1.422  0.4386  0.1829 -0.5937
 4635SOL    HW218272   5.800   4.542   1.437  0.3285  0.2265  0.0735
 4635SOL    HW318273   5.660   4.595   1.461  0.0473 -1.0929  1.5219
 4635SOL    MW418274   5.713   4.534   1.429 -0.1291 -0.1646 -0.2929
 4636SOL     OW18275   5.761   5.077   0.154 -0.1352  0.2623 -0.2266
 4636SOL    HW218276   5.677   5.033   0.135  1.4782 -1.5999 -4.1610
 4636SOL    HW318277   5.749   5.166   0.120 -0.6599  0.1305 -0.4089
 4636SOL    MW418278   5.748   5.083   0.147  0.2155  0.4427 -0.2059
 4637SOL     OW18279   0.795   1.790   5.215 -0.0849 -0.0981  0.1115
 4637SOL    HW218280   0.889   1.783   5.202 -0.1875 -0.4439 -0.4703
 4637SOL    HW318281   0.773   1.715   5.270  0.0972  0.4487  0.9560
 4637SOL    MW418282   0.804   1.779   5.221  0.1993 -0.4523 -0.5911
 4638SOL     OW18283   2.427   0.746   0.783  0.4796  0.9781  0.1105
 4638SOL    HW218284   2.399   0.681   0.847  0.8522 -0.1257 -0.8098
 4638SOL    HW318285   2.445   0.825   0.834  0.7191  0.1411  1.3507
 4638SOL    MW418286   2.426   0.748   0.798 -0.2369  0.0296 -0.5925
 4639SOL     OW18287   3.147   2.099   4.816  0.5036  0.3048  0.1638
 4639SOL    HW218288   3.121   2.184   4.781  1.8169  0.5085 -0.3604
 4639SOL    HW318289   3.079   2.078   4.880  0.6198  2.1701  0.9756
 4639SOL    MW418290   3.134   2.107   4.820  0.1981 -0.4196 -0.0875
 4640SOL     OW18291   5.040   3.087   0.296  0.0079 -0.7277  0.5110
 4640SOL    HW218292   4.966   3.028   0.307 -0.0563 -0.8422 -0.4181
 4640SOL    HW318293   5.117   3.030   0.298  0.0848 -0.6061  1.4992
 4640SOL    MW418294   5.041   3.072   0.297 -0.1905 -0.3423  0.0954
 4641SOL     OW18295   6.215   2.965   0.995 -0.3504 -0.0514 -0.0167
 4641SOL    HW218296   6.281   3.004   1.054  0.6781 -0.8057 -0.6326
 4641SOL    HW318297   6.257   2.966   0.909 -1.4407  0.1020 -0.5567
 4641SOL    MW418298   6.229   2.970   0.991  0.0417 -0.0945  0.3248
 4642SOL     OW18299   6.116   3.074   0.130  0.4484  0.6213 -0.3655
 4642SOL    HW218300   6.094   2.988   0.166 -0.7085  0.2738 -1.7976
 4642SOL    HW318301   6.084   3.071   0.040  0.7851  2.4048 -0.5781
 4642SOL    MW418302   6.109   3.062   0.123  0.2329 -0.3735  0.1545
 4643SOL     OW18303   3.825   3.041   6.263 -0.0884  0.2900  0.1997
 4643SOL    HW218304   3.773   3.011   6.188 -0.7425  0.8556  0.4086
 4643SOL    HW318305   3.809   2.975   6.331  0.4188 -0.1647 -0.1160
 4643SOL    MW418306   3.816   3.028   6.262 -0.1203  0.7049  0.1880
 4644SOL     OW18307   2.140   4.634   5.836 -0.2854 -0.1702 -0.2198
 4644SOL    HW218308   2.190   4.712   5.862  0.8301 -0.7016 -0.6931
 4644SOL    HW318309   2.129   4.644   5.741  0.7225 -1.0411 -0.4483
 4644SOL    MW418310   2.145   4.646   5.827  0.8289 -0.0874 -0.9105
 4645SOL     OW18311   0.392   2.751   6.018 -0.0724 -0.2103 -0.7832
 4645SOL    HW218312   0.343   2.825   5.983  1.4243  1.2869  0.1394
 4645SOL    HW318313   0.439   2.715   5.943  1.6211  1.7771 -0.7718
 4645SOL    MW418314   0.392   2.756   6.003  0.2146 -0.1119 -0.1048
 4646SOL     OW18315   3.243   2.924   2.479 -0.5510 -0.4031  0.5074
 4646SOL    HW218316   3.284   2.935   2.565 -2.2838 -0.8337  1.4421
 4646SOL    HW318317   3.214   3.012   2.455 -0.5152 -0.3631  0.6083
 4646SOL    MW418318   3.244   2.937   2.487 -0.2914  0.1297 -0.9549
 4647SOL     OW18319   6.331   5.603   4.125 -0.3184  0.1250  0.3255
 4647SOL    HW218320   6.263   5.540   4.101 -0.5076  0.0554  1.0397
 4647SOL    HW318321   6.339   5.596   4.220  0.9398 -0.1225  0.2200
 4647SOL    MW418322   6.323   5.594   4.134  0.4013 -0.4505 -0.2855
 4648SOL     OW18323   5.179   2.450   1.026 -0.2991 -1.1783  0.4417
 4648SOL    HW218324   5.194   2.543   1.048  1.2604 -0.9553 -1.2812
 4648SOL    HW318325   5.087   2.446   1.000 -0.2516  0.0357 -0.0106
 4648SOL    MW418326   5.169   2.462   1.025 -0.3547  0.4262  0.0881
 4649SOL     OW18327   4.715   6.075   3.533  0.4133 -0.7781  0.5073
 4649SOL    HW218328   4.629   6.082   3.574 -0.2289  1.5729 -1.0476
 4649SOL    HW318329   4.699   6.027   3.451  0.0880  1.4149 -0.7977
 4649SOL    MW418330   4.702   6.070   3.527 -0.4827 -0.4388  0.2843
 4650SOL     OW18331   2.553   0.322   2.330  0.1452 -0.0710 -0.0426
 4650SOL    HW218332   2.484   0.323   2.263 -1.2631  0.5837  1.3531
 4650SOL    HW318333   2.635   0.326   2.280 -0.7977 -1.2474 -1.7650
 4650SOL    MW418334   2.555   0.323   2.315 -0.0779 -0.3397  0.2315
 4651SOL     OW18335   4.387   3.729   5.547  0.0212 -0.3884 -0.1458
 4651SOL    HW218336   4.356   3.711   5.459 -0.6102 -0.2780  0.0517
 4651SOL    HW318337   4.403   3.643   5.585  2.1710 -0.4417 -1.0005
 4651SOL    MW418338   4.385   3.715   5.541  0.8080  0.3531  0.3310
 4652SOL     OW18339   0.408   5.890   0.729  0.3332 -0.3367 -0.3787
 4652SOL    HW218340   0.474   5.891   0.660  1.8324 -0.0356  0.9904
 4652SOL    HW318341   0.429   5.965   0.784  0.6464 -1.8141  1.6642
 4652SOL    MW418342   0.420   5.900   0.727  0.0811  0.0539 -0.3385
 4653SOL     OW18343   2.531   1.173   0.600 -0.1623 -0.2287  0.1378
 4653SOL    HW218344   2.466   1.242   0.617 -2.1796 -2.0912  0.4836
 4653SOL    HW318345   2.611   1.220   0.577 -1.6926  2.2162 -0.5735
 4653SOL    MW418346   2.533   1.188   0.599  0.0049  0.3832 -0.5740
 4654SOL     OW18347   4.548   3.686   4.759 -0.3662  0.5283  0.1344
 4654SOL    HW218348   4.574   3.775   4.785 -0.1903  1.1304 -1.9648
 4654SOL    HW318349   4.455   3.694   4.737  0.0037  0.5841 -1.5384
 4654SOL    MW418350   4.539   3.699   4.760 -0.6313  0.1594 -0.1398
 4655SOL     OW18351   6.372   3.026   3.519  0.0374 -0.4856  0.4167
 4655SOL    HW218352   6.456   2.982   3.509 -0.9390 -2.7309  1.3214
 4655SOL    HW318353   6.372   3.058   3.609  0.8917  1.8416 -0.3474
 4655SOL    MW418354   6.383   3.024   3.529  0.4400 -0.0092 -0.3779
 4656SOL     OW18355   5.256   3.214   2.812  0.3307 -0.4067  0.2786
 4656SOL    HW218356   5.228   3.123   2.815 -0.5721 -0.1796 -0.5386
 4656SOL    HW318357   5.228   3.244   2.725  0.0518  0.8207  0.7777
 4656SOL    MW418358   5.249   3.206   2.801 -0.3781  0.5266 -0.0011
 4657SOL     OW18359   3.214   3.188   4.804  0.3665 -0.1662 -0.1319
 4657SOL    HW218360   3.216   3.275   4.844  1.6564 -1.0684  1.9507
 4657SOL    HW318361   3.171   3.132   4.869 -0.0766 -1.1871 -1.2509
 4657SOL    MW418362   3.209   3.192   4.818 -0.1066  0.9675  0.2343
 4658SOL     OW18363   4.198   6.014   6.157  0.4007 -0.0740  0.5278
 4658SOL    HW218364   4.156   6.010   6.070  0.9043 -1.1487  0.3300
 4658SOL    HW318365   4.133   5.978   6.217  0.5431 -0.5173  0.4136
 4658SOL    MW418366   4.183   6.009   6.153 -0.3647  0.0896 -0.3987
 4659SOL     OW18367   3.512   3.083   2.152 -0.2073 -0.0270  0.2236
 4659SOL    HW218368   3.452   3.143   2.107 -0.3507 -0.2567  0.1047
 4659SOL    HW318369   3.463   3.001   2.158  0.2237 -0.3170 -0.1797
 4659SOL    MW418370   3.497   3.080   2.147 -0.4749  0.5884  0.1678
 4660SOL     OW18371   0.998   3.855   3.965  0.2667  0.4788 -0.2183
 4660SOL    HW218372   0.907   3.887   3.969  1.1600  3.6383 -1.8905
 4660SOL    HW318373   1.051   3.935   3.968  3.0011 -1.2533  0.1683
 4660SOL    MW418374   0.993   3.870   3.966 -0.1248  0.1016 -0.7627
 4661SOL     OW18375   6.395   5.875   2.738  0.1735  0.9520 -0.7028
 4661SOL    HW218376   6.453   5.888   2.813 -1.1954  1.3925  0.3136
 4661SOL    HW318377   6.372   5.964   2.710 -1.0771  0.8115 -0.2061
 4661SOL    MW418378   6.400   5.889   2.744  0.0597 -0.0123 -0.0184
 4662SOL     OW18379   5.132   0.350   1.590 -0.2837  0.4375  0.1103
 4662SOL    HW218380   5.216   0.352   1.544 -0.5956 -1.7781 -0.6909
 4662SOL    HW318381   5.101   0.260   1.580 -2.8185  1.1952  0.2851
 4662SOL    MW418382   5.139   0.338   1.582 -0.6863  0.3637 -0.0808
 4663SOL     OW18383   4.772   0.958   5.579  0.0413 -0.5136 -0.3259
 4663SOL    HW218384   4.838   1.022   5.607 -0.4913 -0.0627 -0.0864
 4663SOL    HW318385   4.701   1.011   5.544 -1.2334 -0.8512  1.5720
 4663SOL    MW418386   4.771   0.974   5.578 -0.4925  0.8956  0.5144
 4664SOL     OW18387   5.575   5.726   0.281  0.5774  0.3620 -0.5642
 4664SOL    HW218388   5.545   5.717   0.191 -0.4909  1.0628 -0.3080
 4664SOL    HW318389   5.640   5.796   0.278  1.7791 -0.7483 -1.0345
 4664SOL    MW418390   5.579   5.734   0.269  0.6496  0.3485 -0.9003
 4665SOL     OW18391   0.523   0.371   3.132 -0.3238  0.6598 -0.4578
 4665SOL    HW218392   0.442   0.419   3.154 -0.5889 -0.2400  0.6225
 4665SOL    HW318393   0.519   0.360   3.037 -1.6470  0.3478 -0.3883
 4665SOL    MW418394   0.511   0.376   3.123 -0.0275 -1.0456 -0.1111
 4666SOL     OW18395   0.777   4.082   1.685  0.3852  0.4131  0.0377
 4666SOL    HW218396   0.824   3.998   1.687  1.0221  0.7269 -0.9264
 4666SOL    HW318397   0.687   4.058   1.664  0.6561 -0.0170 -0.6903
 4666SOL    MW418398   0.771   4.067   1.682 -0.4482  0.1469  0.2547
 4667SOL     OW18399   6.409   2.766   0.577  0.1645 -0.5279  0.1791
 4667SOL    HW218400   6.395   2.706   0.503 -0.4419 -1.1015  0.7363
 4667SOL    HW318401   6.401   2.853   0.539  1.5749 -0.7648 -0.7497
 4667SOL    MW418402   6.406   2.770   0.562  0.4747 -0.3737 -0.4229
 4668SOL     OW18403   5.134   5.554   4.881  0.6226  0.3762  0.1430
 4668SOL    HW218404   5.070   5.545   4.952  0.2929 -0.8553 -0.2786
 4668SOL    HW318405   5.083   5.550   4.801  1.2904 -2.6985 -0.2896
 4668SOL    MW418406   5.119   5.552   4.880 -0.7452  0.0831  0.0712
 4669SOL     OW18407   3.657   2.454   5.265  0.1553 -0.1717  0.5473
 4669SOL    HW218408   3.607   2.402   5.327  0.4157 -0.4146  0.5521
 4669SOL    HW318409   3.590   2.497   5.211 -0.0559 -1.0296  0.1097
 4669SOL    MW418410   3.641   2.453   5.266  0.1886  0.5958 -0.5362
 4670SOL     OW18411   4.730   0.898   2.003  0.0767  0.3391  0.0108
 4670SOL    HW218412   4.812   0.937   2.032  1.0164 -2.0886  0.8790
 4670SOL    HW318413   4.669   0.971   1.996  0.9030  1.6612  4.1689
 4670SOL    MW418414   4.733   0.912   2.006 -0.3455  0.1231 -0.1400
 4671SOL     OW18415   3.424   3.021   6.345 -0.7448 -0.2934  0.7561
 4671SOL    HW218416   3.506   3.066   6.364 -0.5321  0.3980 -1.4294
 4671SOL    HW318417   3.451   2.937   6.307 -0.9956  0.0237 -0.1697
 4671SOL    MW418418   3.438   3.016   6.342 -0.3984  0.2570  0.2093
 4672SOL     OW18419   5.231   1.357   3.288  0.7193 -0.1882  0.7934
 4672SOL    HW218420   5.241   1.277   3.340 -0.4172 -0.2649  0.9256
 4672SOL    HW318421   5.136   1.366   3.275  0.9287  0.1982 -0.7012
 4672SOL    MW418422   5.220   1.348   3.293 -0.3601  0.5675 -0.0360
 4673SOL     OW18423   4.519   3.405   1.135 -0.2860  0.4521 -0.3153
 4673SOL    HW218424   4.552   3.478   1.187 -0.9851  0.0705  0.6946
 4673SOL    HW318425   4.426   3.400   1.157 -0.1373 -1.0923  0.0778
 4673SOL    MW418426   4.511   3.414   1.145  0.0593  0.6467  0.3399
 4674SOL     OW18427   2.045   5.270   3.437 -0.3263 -0.3657  0.3319
 4674SOL    HW218428   1.953   5.280   3.411 -0.3574 -1.1448  0.1151
 4674SOL    HW318429   2.061   5.343   3.496 -1.1369 -0.3044  0.4911
 4674SOL    MW418430   2.035   5.281   3.441 -0.3667  0.0177  0.1371
 4675SOL     OW18431   0.549   5.408   0.251 -0.3421 -0.2547  0.2325
 4675SOL    HW218432   0.472   5.370   0.294 -1.0322  2.0597  1.1806
 4675SOL    HW318433   0.622   5.390   0.310 -0.6382 -0.1933  0.6151
 4675SOL    MW418434   0.548   5.401   0.264  0.0558  0.3904  0.3865
 4676SOL     OW18435   4.625   4.023   2.392 -0.0792 -0.3389 -0.2904
 4676SOL    HW218436   4.540   4.064   2.372 -0.1845  0.0886  0.9348
 4676SOL    HW318437   4.690   4.089   2.368 -0.1119 -0.5190 -0.8760
 4676SOL    MW418438   4.622   4.037   2.386 -0.2003  0.0388 -0.2372
 4677SOL     OW18439   4.217   4.000   3.749 -0.3032  0.7355  0.1717
 4677SOL    HW218440   4.308   3.980   3.770 -0.4265 -1.2313 -0.9377
 4677SOL    HW318441   4.176   4.015   3.834  0.3992 -1.5089  0.9780
 4677SOL    MW418442   4.223   3.999   3.763 -0.2762 -0.0745 -0.2604
 4678SOL     OW18443   2.868   2.829   5.589  0.0694 -0.0723 -0.3028
 4678SOL    HW218444   2.939   2.872   5.540  0.6907 -0.7860 -0.0474
 4678SOL    HW318445   2.904   2.744   5.613 -1.3480 -0.9853 -1.2859
 4678SOL    MW418446   2.882   2.823   5.586  0.2996  0.7900  0.3781
 4679SOL     OW18447   0.875   2.868   4.975  0.1295 -0.4626  0.3508
 4679SOL    HW218448   0.943   2.910   4.923  0.6066 -1.3693  0.2280
 4679SOL    HW318449   0.824   2.941   5.012 -0.3771  0.2204 -1.5622
 4679SOL    MW418450   0.877   2.883   4.973 -0.4448  0.4782  0.3758
 4680SOL     OW18451   2.064   1.412   4.757  0.6126 -0.3704 -0.3689
 4680SOL    HW218452   2.082   1.359   4.835  2.1580  0.2450 -0.2702
 4680SOL    HW318453   1.969   1.424   4.757  0.5373 -0.8018  1.1410
 4680SOL    MW418454   2.054   1.406   4.767 -0.0601  0.6241 -0.6164
 4681SOL     OW18455   5.841   0.924   3.590  0.1109  0.1305  0.5399
 4681SOL    HW218456   5.794   1.008   3.592  0.4440  0.3097  1.8917
 4681SOL    HW318457   5.823   0.889   3.503 -2.2810  0.3188  0.8985
 4681SOL    MW418458   5.832   0.931   3.579 -0.1262  0.5096  0.3462
 4682SOL     OW18459   0.013   4.506   3.947  0.9189  0.0816  0.5432
 4682SOL    HW218460   0.052   4.430   3.991  1.1824 -0.2299 -0.2035
 4682SOL    HW318461   0.081   4.535   3.886 -0.0722 -0.5962 -0.9353
 4682SOL    MW418462   0.027   4.500   3.945 -0.1391 -0.3840  0.1804
 4683SOL     OW18463   2.452   2.199   1.088  0.2529 -0.5598 -0.4454
 4683SOL    HW218464   2.547   2.202   1.083  0.2123  3.2307 -3.3060
 4683SOL    HW318465   2.428   2.273   1.143 -0.9901  0.9204 -2.8338
 4683SOL    MW418466   2.461   2.209   1.095 -0.0385  0.0506 -0.4435
 4684SOL     OW18467   4.523   3.470   1.558 -0.2118 -0.0211 -0.0772
 4684SOL    HW218468   4.553   3.381   1.572  3.0647  1.2017  1.5946
 4684SOL    HW318469   4.496   3.501   1.644  0.9099  1.3062 -0.1673
 4684SOL    MW418470   4.523   3.462   1.571 -0.0513 -0.5339 -0.1225
 4685SOL     OW18471   0.455   1.714   0.036  0.3386  0.0607  0.2789
 4685SOL    HW218472   0.463   1.736   0.129 -0.6326  0.8428  0.2019
 4685SOL    HW318473   0.363   1.730   0.016  0.2928 -1.1541 -0.5722
 4685SOL    MW418474   0.444   1.719   0.046  0.3233 -0.2210 -0.0241
 4686SOL     OW18475   3.054   5.154   1.974  0.3155 -0.3056 -0.0611
 4686SOL    HW218476   3.032   5.245   1.990  1.3804  0.0226 -0.3714
 4686SOL    HW318477   3.094   5.154   1.887 -3.7105 -1.7424 -2.1818
 4686SOL    MW418478   3.056   5.166   1.964 -0.0410  0.4883 -0.5724
 4687SOL     OW18479   5.078   4.334   5.953 -0.0140  0.1604 -0.9037
 4687SOL    HW218480   4.984   4.324   5.946 -0.0924 -1.8675  1.7569
 4687SOL    HW318481   5.091   4.387   6.032  1.1034  0.2594 -1.1291
 4687SOL    MW418482   5.068   4.340   5.962 -0.4843 -0.1116 -0.1889
 4688SOL     OW18483   4.533   4.586   0.664 -0.7092  0.2077 -0.0796
 4688SOL    HW218484   4.450   4.632   0.650 -1.6147 -1.1283  0.6735
 4688SOL    HW318485   4.523   4.504   0.616 -0.2972 -0.4607  0.9395
 4688SOL    MW418486   4.521   4.581   0.656  0.6756 -0.2194 -0.0603
 4689SOL     OW18487   5.198   3.831   0.757  0.0113  0.4824  0.2017
 4689SOL    HW218488   5.199   3.831   0.661  1.4765 -1.9100  0.1308
 4689SOL    HW318489   5.219   3.921   0.781 -1.1857  1.3361 -1.6826
 4689SOL    MW418490   5.201   3.843   0.748  0.5376  0.5705 -0.0897
 4690SOL     OW18491   4.442   1.406   1.507 -0.1586  0.6459 -0.3159
 4690SOL    HW218492   4.425   1.346   1.580 -2.1659  1.3333 -0.1527
 4690SOL    HW318493   4.454   1.491   1.549  1.1663  0.6419 -0.6524
 4690SOL    MW418494   4.441   1.409   1.523  0.0910  0.4206  0.2911
 4691SOL     OW18495   2.902   3.351   4.990 -0.2887  0.0342  0.4201
 4691SOL    HW218496   2.824   3.331   4.939  0.2035  0.2435 -0.4480
 4691SOL    HW318497   2.894   3.297   5.069 -0.8128 -0.7168 -0.1322
 4691SOL    MW418498   2.891   3.341   4.994 -0.0947  0.3068 -0.4002
 4692SOL     OW18499   5.953   5.993   1.001 -0.0953  0.6059  0.3903
 4692SOL    HW218500   5.918   5.939   1.072 -0.4646  1.4699  0.8718
 4692SOL    HW318501   5.893   6.067   0.995 -1.3761 -0.5029 -2.3045
 4692SOL    MW418502   5.940   5.995   1.010 -0.2365 -0.4151 -0.3933
 4693SOL     OW18503   4.175   0.079   0.490  0.4930 -0.0335  0.3126
 4693SOL    HW218504   4.175   0.165   0.531  2.2345 -0.1477  0.6336
 4693SOL    HW318505   4.150   0.095   0.399 -2.3098  0.3606  1.0606
 4693SOL    MW418506   4.172   0.092   0.483 -0.7437 -0.1810  0.7321
 4694SOL     OW18507   3.220   0.155   4.801  0.7734  0.2173  0.0082
 4694SOL    HW218508   3.200   0.181   4.711 -1.8683  1.1254  0.7692
 4694SOL    HW318509   3.263   0.069   4.792  0.5143  0.2482 -2.0858
 4694SOL    MW418510   3.223   0.147   4.788 -0.2837 -0.1151 -0.1192
 4695SOL     OW18511   3.559   0.477   5.165  0.0026  0.2061 -0.0458
 4695SOL    HW218512   3.528   0.423   5.092 -0.8261  1.3629 -0.5743
 4695SOL    HW318513   3.599   0.414   5.225 -0.5518 -0.9463 -0.8299
 4695SOL    MW418514   3.560   0.461   5.163  0.1783 -0.5046 -0.3371
 4696SOL     OW18515   6.242   0.403   4.212 -0.1825 -0.1077 -0.2230
 4696SOL    HW218516   6.201   0.373   4.293  0.6569  0.7877  0.5661
 4696SOL    HW318517   6.197   0.355   4.142 -0.2182 -1.6866  0.8319
 4696SOL    MW418518   6.231   0.393   4.213 -0.4790  0.3435  0.0315
 4697SOL     OW18519   3.724   1.331   1.210 -0.0613  0.3141  0.3321
 4697SOL    HW218520   3.802   1.386   1.213  0.2413 -0.0967  0.1767
 4697SOL    HW318521   3.741   1.262   1.274 -0.8747  0.9517  1.2655
 4697SOL    MW418522   3.737   1.329   1.218 -0.2055 -0.1014 -0.6925
 4698SOL     OW18523   3.362   1.123   1.679 -0.1009 -0.2553 -0.1397
 4698SOL    HW218524   3.294   1.170   1.727 -0.5167 -0.8738 -0.1135
 4698SOL    HW318525   3.320   1.095   1.598  0.8834  1.7046 -1.4113
 4698SOL    MW418526   3.348   1.125   1.675  0.8437 -0.0682  0.0407
 4699SOL     OW18527   5.948   2.963   6.123 -0.1731  0.0364 -0.1266
 4699SOL    HW218528   5.903   2.882   6.145 -2.4328  1.2464  0.0295
 4699SOL    HW318529   5.915   2.987   6.037  0.8548  0.5569 -0.3988
 4699SOL    MW418530   5.938   2.956   6.115 -0.4685  0.7198  0.2005
 4700SOL     OW18531   1.349   2.620   1.059 -0.0350  0.0701 -0.2344
 4700SOL    HW218532   1.424   2.636   1.116 -0.5462 -1.0446  0.8030
 4700SOL    HW318533   1.273   2.639   1.114 -0.5302 -0.0373 -0.8666
 4700SOL    MW418534   1.348   2.625   1.074 -0.4843 -0.4404 -0.2886
 4701SOL     OW18535   0.759   2.848   3.181  0.5601  0.3207 -0.3269
 4701SOL    HW218536   0.710   2.920   3.221  0.4335  0.5756 -0.9261
 4701SOL    HW318537   0.770   2.784   3.251 -3.0309 -1.0072 -0.7693
 4701SOL    MW418538   0.754   2.849   3.195  0.5085  0.0637 -0.5469
 4702SOL     OW18539   3.018   3.636   3.033 -0.0751 -0.3403 -0.0160
 4702SOL    HW218540   3.001   3.550   2.996 -0.7549 -0.5383  0.7293
 4702SOL    HW318541   2.999   3.626   3.126 -1.5983  0.9907 -0.1478
 4702SOL    MW418542   3.014   3.623   3.040 -0.8615 -0.5070 -0.2194
 4703SOL     OW18543   5.938   5.648   0.128 -0.1561 -0.2916 -0.2819
 4703SOL    HW218544   5.981   5.707   0.189  0.2932 -2.2046  1.3354
 4703SOL    HW318545   6.001   5.637   0.057  0.5358 -0.2712  0.3198
 4703SOL    MW418546   5.952   5.654   0.126 -0.4303 -0.1506 -0.6880
 4704SOL     OW18547   1.607   4.040   1.473 -0.0091  0.5604  0.2439
 4704SOL    HW218548   1.631   4.023   1.564 -1.1368  1.3020  0.6978
 4704SOL    HW318549   1.621   4.134   1.461  1.4856  0.2371 -0.7892
 4704SOL    MW418550   1.612   4.050   1.483 -0.0387  0.0985  0.2109
 4705SOL     OW18551   2.317   4.587   1.896  0.1714  0.4708 -0.2027
 4705SOL    HW218552   2.341   4.497   1.875 -2.4094 -0.6993  1.4331
 4705SOL    HW318553   2.225   4.595   1.870 -0.0310  2.2168  0.8586
 4705SOL    MW418554   2.308   4.576   1.889  0.5002  0.5686  0.2722
 4706SOL     OW18555   1.533   3.503   1.095 -0.1766  0.0985 -0.1255
 4706SOL    HW218556   1.492   3.587   1.074 -0.6975 -0.0649  0.2463
 4706SOL    HW318557   1.589   3.485   1.019 -0.3328  0.6069 -0.3675
 4706SOL    MW418558   1.535   3.512   1.082  0.2994 -0.1438  0.4307
 4707SOL     OW18559   3.806   0.670   2.510  0.0395 -0.6653 -0.5093
 4707SOL    HW218560   3.728   0.650   2.460  0.5552 -0.3424 -1.4611
 4707SOL    HW318561   3.865   0.596   2.493  0.0268 -0.8170  0.0597
 4707SOL    MW418562   3.804   0.657   2.501  0.0864 -0.2329 -0.4888
 4708SOL     OW18563   2.617   0.456   0.510 -0.1376  0.2379 -0.1308
 4708SOL    HW218564   2.666   0.526   0.466 -0.5894 -0.1528 -1.2965
 4708SOL    HW318565   2.617   0.481   0.602  1.2492  0.8485 -0.2703
 4708SOL    MW418566   2.624   0.468   0.516  0.0701 -0.3661 -0.3292
 4709SOL     OW18567   2.959   5.289   4.091  0.3284 -0.1779 -1.0828
 4709SOL    HW218568   2.979   5.381   4.071  1.1177 -0.2777 -0.7807
 4709SOL    HW318569   3.026   5.239   4.045  0.6621 -0.5290 -0.2478
 4709SOL    MW418570   2.971   5.295   4.082  0.0058  0.3827  0.0411
 4710SOL     OW18571   5.772   4.067   2.887 -0.1147  0.2910  0.1521
 4710SOL    HW218572   5.763   3.974   2.910 -0.8750  0.2363 -0.3137
 4710SOL    HW318573   5.814   4.067   2.801 -2.6223  0.2127 -1.1892
 4710SOL    MW418574   5.776   4.055   2.879  0.3095 -1.0998 -0.5969
 4711SOL     OW18575   6.126   6.213   0.920  0.4447 -0.0221 -0.7358
 4711SOL    HW218576   6.182   6.251   0.988  0.9385 -0.7840 -0.7074
 4711SOL    HW318577   6.076   6.145   0.964  0.3602 -0.1440 -1.0175
 4711SOL    MW418578   6.127   6.209   0.934  0.6030  0.6433  0.7459
 4712SOL     OW18579   3.816   0.784   3.750 -0.9223 -0.4651  0.3049
 4712SOL    HW218580   3.868   0.762   3.673 -1.8924 -0.1734 -0.4522
 4712SOL    HW318581   3.880   0.819   3.812 -0.1844 -0.2750 -0.5321
 4712SOL    MW418582   3.831   0.786   3.748 -0.4827 -0.0612 -0.8322
 4713SOL     OW18583   4.737   0.595   4.340 -0.0136 -0.3179  0.0911
 4713SOL    HW218584   4.646   0.593   4.371 -0.9111  0.0639 -2.3490
 4713SOL    HW318585   4.774   0.673   4.381 -0.2678 -1.2941  2.3231
 4713SOL    MW418586   4.730   0.605   4.350  0.1436 -0.1139  0.1978
 4714SOL     OW18587   1.274   1.219   1.043  0.1986  0.4172 -0.0567
 4714SOL    HW218588   1.252   1.148   1.104  0.5745 -0.9440 -1.4502
 4714SOL    HW318589   1.189   1.252   1.014 -0.0321  2.0156  2.1493
 4714SOL    MW418590   1.260   1.214   1.047 -0.4141  0.1143  0.0175
 4715SOL     OW18591   6.261   3.276   4.987  0.0652 -0.0344  0.0999
 4715SOL    HW218592   6.299   3.271   5.075 -2.2013 -2.8292  1.0900
 4715SOL    HW318593   6.329   3.238   4.930  0.6848 -0.3304  1.0107
 4715SOL    MW418594   6.275   3.270   4.991 -0.3954  0.5771 -0.4874
 4716SOL     OW18595   0.097   6.269   5.610 -0.4024  0.3109 -0.4738
 4716SOL    HW218596   0.106   6.215   5.688  0.5655 -1.4950 -1.7655
 4716SOL    HW318597   0.174   6.327   5.612 -0.0167 -0.1952 -0.4125
 4716SOL    MW418598   0.109   6.270   5.621 -0.1068 -0.0789 -0.3972
 4717SOL     OW18599   2.626   4.144   6.161 -0.4514  0.1978 -0.0933
 4717SOL    HW218600   2.565   4.156   6.089 -0.7374  0.0819  0.1289
 4717SOL    HW318601   2.591   4.070   6.210  0.5884 -0.7409 -0.7175
 4717SOL    MW418602   2.614   4.136   6.158  0.5745  0.1222  0.4990
 4718SOL     OW18603   0.135   2.746   1.040  0.0071  0.3276 -0.1234
 4718SOL    HW218604   0.137   2.700   0.956 -0.4465  0.7254 -0.3606
 4718SOL    HW318605   0.041   2.758   1.057  0.1088  0.5347  0.2800
 4718SOL    MW418606   0.123   2.741   1.031  0.0412 -0.0577  0.2376
 4719SOL     OW18607   0.628   6.235   2.471 -0.0671  0.0953  0.0390
 4719SOL    HW218608   0.716   6.242   2.508 -0.1891  0.8263  0.1937
 4719SOL    HW318609   0.605   6.142   2.482 -0.6982  0.5099  3.1567
 4719SOL    MW418610   0.637   6.224   2.477  0.2341  0.1062  0.6544
 4720SOL     OW18611   0.591   1.897   6.012 -0.6373 -0.2530  0.2374
 4720SOL    HW218612   0.635   1.876   6.094  1.6306  0.6931 -0.6534
 4720SOL    HW318613   0.570   1.812   5.973  0.4168 -0.7350  0.6989
 4720SOL    MW418614   0.594   1.883   6.018  0.1224 -0.0043  0.1476
 4721SOL     OW18615   4.629   0.464   5.271 -0.7059 -0.4227 -0.0005
 4721SOL    HW218616   4.717   0.475   5.233 -0.6690  0.3111  0.2820
 4721SOL    HW318617   4.600   0.379   5.239 -0.8062  0.2821 -1.9479
 4721SOL    MW418618   4.637   0.454   5.262 -0.4351 -0.0795  0.0139
 4722SOL     OW18619   0.780   6.119   0.564 -0.1419 -0.1901  0.2243
 4722SOL    HW218620   0.855   6.169   0.597 -0.5685 -0.4423  1.6795
 4722SOL    HW318621   0.716   6.185   0.538  0.0737  0.0284  0.2462
 4722SOL    MW418622   0.781   6.134   0.565 -0.5850 -0.1986 -0.4329
 4723SOL     OW18623   1.306   3.555   3.656  0.2839  0.0940 -0.8928
 4723SOL    HW218624   1.380   3.513   3.612  1.2600  0.7841  0.0370
 4723SOL    HW318625   1.289   3.633   3.603  1.1782  0.6961 -0.3252
 4723SOL    MW418626   1.314   3.560   3.643  0.8087  0.4227  0.0455
 4724SOL     OW18627   5.763   1.236   4.415  0.1763  0.0769 -0.2729
 4724SOL    HW218628   5.738   1.192   4.335  0.5176 -0.7393  0.0608
 4724SOL    HW318629   5.702   1.204   4.481 -0.4142  1.1108 -0.2956
 4724SOL    MW418630   5.752   1.226   4.413 -0.5367  0.0177  0.6342
 4725SOL     OW18631   0.294   0.051   0.091 -0.4097  0.2915  0.3465
 4725SOL    HW218632   0.285  -0.042   0.111  0.0653  0.5739  2.0238
 4725SOL    HW318633   0.372   0.079   0.140 -1.8181  2.0331  1.7562
 4725SOL    MW418634   0.303   0.042   0.100  0.4115 -0.2303  0.5416
 4726SOL     OW18635   3.518   6.005   5.851 -0.3224 -0.5215 -0.0910
 4726SOL    HW218636   3.581   6.076   5.858 -1.4649  0.5364 -0.2272
 4726SOL    HW318637   3.567   5.932   5.813  0.2369  1.0224 -2.5097
 4726SOL    MW418638   3.533   6.005   5.847  0.5148  0.0742  0.0948
 4727SOL     OW18639   3.266   5.700   2.403 -0.2896  0.0496 -1.1007
 4727SOL    HW218640   3.224   5.782   2.378  0.5309  1.4076  1.6755
 4727SOL    HW318641   3.339   5.691   2.342 -0.9620  0.8304 -2.0601
 4727SOL    MW418642   3.270   5.709   2.391  0.2926  0.1886  0.1098
 4728SOL     OW18643   0.730   3.766   3.037 -0.1380  0.0025 -0.4354
 4728SOL    HW218644   0.817   3.752   3.000  0.0483  0.2555 -0.0935
 4728SOL    HW318645   0.694   3.840   2.989  0.0543  0.2511 -0.1958
 4728SOL    MW418646   0.737   3.774   3.026 -0.0181 -0.1510  0.3528
 4729SOL     OW18647   4.477   5.350   4.978 -0.4143  0.6693 -0.2195
 4729SOL    HW218648   4.392   5.348   4.933  0.0425  1.4561 -1.1709
 4729SOL    HW318649   4.529   5.411   4.926  0.1874  1.5180  1.3273
 4729SOL    MW418650   4.472   5.358   4.965 -0.5273  0.2708  0.0605
 4730SOL     OW18651   4.472   2.942   0.867 -0.2788  0.8044 -0.0790
 4730SOL    HW218652   4.490   2.851   0.842  0.0784  0.9941 -0.5341
 4730SOL    HW318653   4.398   2.967   0.812 -1.1660  0.4150  0.9096
 4730SOL    MW418654   4.465   2.934   0.856 -0.0929 -0.0060 -0.7089
 4731SOL     OW18655   5.308   2.533   5.809  0.7256  0.0210 -0.1027
 4731SOL    HW218656   5.365   2.584   5.752 -1.0876  1.9610 -0.3062
 4731SOL    HW318657   5.239   2.501   5.752  0.7773 -1.0445  0.4033
 4731SOL    MW418658   5.307   2.536   5.794  0.7343 -0.0503 -0.5264
 4732SOL     OW18659   3.113   0.305   5.794  0.7830  0.3573  0.1501
 4732SOL    HW218660   3.065   0.343   5.720  0.3804  0.9437  0.6960
 4732SOL    HW318661   3.076   0.349   5.870  1.9077  0.5142  0.6184
 4732SOL    MW418662   3.102   0.316   5.794  0.0183 -0.0653 -0.1458
 4733SOL     OW18663   5.919   5.194   4.326  0.2653 -0.4685  0.0875
 4733SOL    HW218664   6.008   5.215   4.297  0.3983 -1.5352 -0.3127
 4733SOL    HW318665   5.866   5.203   4.247  0.0507 -0.0888  0.2701
 4733SOL    MW418666   5.924   5.198   4.312  0.2023  0.0817 -0.2083
 4734SOL     OW18667   0.433   5.736   3.469  0.3200  0.3713 -0.4196
 4734SOL    HW218668   0.452   5.826   3.443  1.5363  0.2571 -0.0062
 4734SOL    HW318669   0.511   5.708   3.516  0.5961 -1.3724 -1.8021
 4734SOL    MW418670   0.446   5.744   3.471 -0.0641  0.1655  0.2852
 4735SOL     OW18671   5.606   3.864   2.477  0.1688  0.6394  0.1960
 4735SOL    HW218672   5.659   3.943   2.465  1.2970 -0.2622 -1.1247
 4735SOL    HW318673   5.579   3.867   2.569  0.0146  2.6358  0.1366
 4735SOL    MW418674   5.610   3.875   2.488 -0.3463  0.3400 -0.3680
 4736SOL     OW18675   4.493   0.555   1.892  0.5770  0.4115 -0.1823
 4736SOL    HW218676   4.573   0.575   1.941  0.4002 -1.1945  0.8127
 4736SOL    HW318677   4.422   0.568   1.954  0.2813 -0.7938 -0.2553
 4736SOL    MW418678   4.494   0.560   1.906  0.4908  0.2974  0.4414
 4737SOL     OW18679   0.994   5.975   4.985 -0.4372 -0.1039  0.5118
 4737SOL    HW218680   1.011   6.030   4.908 -2.5545  2.2175  1.5833
 4737SOL    HW318681   1.006   6.033   5.060 -2.2545 -1.2228  1.7338
 4737SOL    MW418682   0.998   5.990   4.984 -0.3590 -0.2087  0.0174
 4738SOL     OW18683   0.558   5.484   2.943 -0.1860 -0.1232  0.9456
 4738SOL    HW218684   0.492   5.543   2.978  0.3569  0.1979  1.4615
 4738SOL    HW318685   0.618   5.540   2.894 -1.4372 -0.6902 -1.3514
 4738SOL    MW418686   0.557   5.499   2.941 -0.2659 -0.3424  0.0780
 4739SOL     OW18687   5.341   2.973   3.137 -0.2614  0.3469  0.1012
 4739SOL    HW218688   5.361   2.985   3.230  0.8113 -0.8553  0.0528
 4739SOL    HW318689   5.386   3.046   3.094  0.7636 -0.1136  0.3692
 4739SOL    MW418690   5.350   2.985   3.143 -0.2616 -0.4652  0.1213
 4740SOL     OW18691   5.772   4.572   3.958 -0.2111 -0.6694 -0.5232
 4740SOL    HW218692   5.868   4.576   3.966 -0.2375 -0.9611 -0.0048
 4740SOL    HW318693   5.741   4.636   4.023 -0.3634 -0.3664 -0.8915
 4740SOL    MW418694   5.781   4.581   3.968  0.0704  0.3268  0.4516
 4741SOL     OW18695   1.134   5.401   2.895 -0.3798 -0.1609  0.3795
 4741SOL    HW218696   1.199   5.350   2.847  0.0761 -0.4650  1.2844
 4741SOL    HW318697   1.085   5.448   2.828  0.4248 -0.3508 -0.3536
 4741SOL    MW418698   1.136   5.401   2.880  0.1143 -0.2342 -0.5809
 4742SOL     OW18699   6.232   4.202   3.528  0.6023  0.2854 -0.1350
 4742SOL    HW218700   6.203   4.250   3.451  0.0959  1.1665  0.5875
 4742SOL    HW318701   6.289   4.263   3.574 -0.1574  0.2474  0.8719
 4742SOL    MW418702   6.236   4.216   3.524 -0.0079 -0.2188  0.2519
 4743SOL     OW18703   2.742   1.443   1.813  0.4512 -0.8779 -0.2477
 4743SOL    HW218704   2.669   1.431   1.874  0.3088 -0.9335 -0.4247
 4743SOL    HW318705   2.702   1.434   1.726  0.7891 -1.6008 -0.3369
 4743SOL    MW418706   2.727   1.440   1.809  0.0561 -0.0964  0.2995
 4744SOL     OW18707   1.368   4.739   6.418  0.6034 -0.0298  0.9388
 4744SOL    HW218708   1.394   4.736   6.510  1.6374 -0.1674  0.6609
 4744SOL    HW318709   1.301   4.672   6.410  1.8435 -1.3546  1.2182
 4744SOL    MW418710   1.363   4.730   6.429 -0.1983 -0.2014  0.4595
 4745SOL     OW18711   2.583   4.210   5.145 -0.4625 -0.0364 -0.0139
 4745SOL    HW218712   2.583   4.116   5.126  0.4881 -0.2443  0.9630
 4745SOL    HW318713   2.673   4.231   5.166 -0.2926  1.4919 -1.9403
 4745SOL    MW418714   2.595   4.200   5.145 -0.3070  0.2013 -0.5228
 4746SOL     OW18715   0.595   4.392   2.638 -0.4119  0.1602  0.5760
 4746SOL    HW218716   0.661   4.434   2.584 -1.9373  1.0208 -0.6963
 4746SOL    HW318717   0.636   4.384   2.725  1.3676  0.5350 -0.1946
 4746SOL    MW418718   0.609   4.397   2.643 -0.1319 -0.2254 -0.1838
 4747SOL     OW18719   4.642   1.866   4.765 -0.1062 -0.2112  0.3421
 4747SOL    HW218720   4.566   1.915   4.796  0.7290  1.0180  0.4934
 4747SOL    HW318721   4.611   1.820   4.687 -0.6583  1.3574 -0.4033
 4747SOL    MW418722   4.628   1.866   4.759 -0.2074 -0.6229  0.0448
 4748SOL     OW18723   5.207   4.716   0.730  0.6140 -0.4653 -0.0769
 4748SOL    HW218724   5.172   4.627   0.732 -0.4462 -0.0753 -0.4966
 4748SOL    HW318725   5.145   4.765   0.676  1.2594  0.4993  0.0280
 4748SOL    MW418726   5.194   4.711   0.723 -0.0762  0.6315 -0.1244
 4749SOL     OW18727   6.122   1.310   3.390 -0.0397  0.2893  0.1697
 4749SOL    HW218728   6.144   1.307   3.484  0.1041  0.1385  0.1317
 4749SOL    HW318729   6.041   1.361   3.386 -0.0791  0.2444  0.3824
 4749SOL    MW418730   6.115   1.317   3.402  0.1176 -0.6065 -0.0024
 4750SOL     OW18731   5.104   4.810   4.229  0.2023 -0.0251 -0.0751
 4750SOL    HW218732   5.118   4.833   4.137 -0.0452  0.0074 -0.1044
 4750SOL    HW318733   5.136   4.720   4.237 -1.3935 -0.6625 -0.5962
 4750SOL    MW418734   5.110   4.801   4.218 -0.5769  0.7520 -0.1574
 4751SOL     OW18735   0.202   5.728   2.015 -0.0796  0.1299  0.5374
 4751SOL    HW218736   0.279   5.708   2.068  1.0013 -0.2726 -1.1069
 4751SOL    HW318737   0.226   5.809   1.969  0.3014 -1.1279 -1.6198
 4751SOL    MW418738   0.215   5.736   2.016 -0.7379  0.3081 -0.0038
 4752SOL     OW18739   4.081   5.636   0.324  0.2044 -0.3169  0.3673
 4752SOL    HW218740   4.043   5.722   0.342  0.0550 -0.2160 -0.4208
 4752SOL    HW318741   4.175   5.648   0.336  0.0343 -0.5763  2.3729
 4752SOL    MW418742   4.088   5.649   0.328  0.9454  0.3527 -0.4404
 4753SOL     OW18743   2.169   5.106   2.882 -0.1228  0.2213 -0.8770
 4753SOL    HW218744   2.121   5.186   2.857 -0.4602 -0.0919 -1.2436
 4753SOL    HW318745   2.125   5.036   2.834  0.0895 -0.2065 -0.4514
 4753SOL    MW418746   2.157   5.108   2.872 -0.2251 -0.5649 -0.2731
 4754SOL     OW18747   6.389   4.662   3.202 -0.7605  0.0058 -0.5022
 4754SOL    HW218748   6.461   4.694   3.147 -0.6232 -0.0568 -0.3575
 4754SOL    HW318749   6.418   4.577   3.233  0.0516  0.9142  1.3356
 4754SOL    MW418750   6.402   4.655   3.199  0.2152 -0.4350  0.2185
 4755SOL     OW18751   1.589   4.025   0.535 -0.3353  0.2119  0.8013
 4755SOL    HW218752   1.550   4.048   0.619  0.9160  0.1699  1.4044
 4755SOL    HW318753   1.604   3.931   0.541  0.7700  0.3858  0.9794
 4755SOL    MW418754   1.586   4.016   0.547  0.1891 -0.1666 -0.5958
 4756SOL     OW18755   1.993   4.599   0.089 -0.4416 -0.2555  0.6166
 4756SOL    HW218756   2.074   4.548   0.081  0.9076  1.2191  3.3806
 4756SOL    HW318757   2.013   4.683   0.048 -0.5706  0.0718  1.2103
 4756SOL    MW418758   2.006   4.603   0.083  0.3396  0.3195  0.3843
 4757SOL     OW18759   3.467   4.889   4.661  0.3924  0.9741 -0.1990
 4757SOL    HW218760   3.556   4.901   4.695  0.7238 -1.1004 -0.2194
 4757SOL    HW318761   3.461   4.795   4.643 -1.6464  1.1617 -0.6725
 4757SOL    MW418762   3.478   4.878   4.663 -0.4865 -0.4119 -0.1663
 4758SOL     OW18763   3.164   0.133  -0.001  0.7188 -0.4952 -0.4769
 4758SOL    HW218764   3.234   0.182  -0.045  0.5350  1.1884  0.9825
 4758SOL    HW318765   3.211   0.065   0.048  1.8341  2.2766  2.7376
 4758SOL    MW418766   3.180   0.131  -0.000 -0.2869  0.0478  0.5268
 4759SOL     OW18767   0.947   3.333   1.571 -0.0739 -0.1562 -0.3007
 4759SOL    HW218768   1.028   3.372   1.604  1.0669 -2.1313 -0.5558
 4759SOL    HW318769   0.961   3.324   1.477 -0.6198 -0.4382 -0.3595
 4759SOL    MW418770   0.960   3.337   1.563 -0.7233 -0.1985  0.4206
 4760SOL     OW18771   4.100   1.368   0.767  0.2410 -0.0974 -0.5440
 4760SOL    HW218772   4.038   1.324   0.825  0.7495  0.8942  0.8220
 4760SOL    HW318773   4.159   1.414   0.827  1.1570  0.4778 -1.8574
 4760SOL    MW418774   4.099   1.369   0.783  0.6874 -0.1806  0.0192
 4761SOL     OW18775   6.388   2.750   3.241  0.3649  0.2141  0.6317
 4761SOL    HW218776   6.296   2.775   3.249  0.6418  1.2837  0.7383
 4761SOL    HW318777   6.404   2.690   3.314  0.3672  2.0326  2.2078
 4761SOL    MW418778   6.378   2.746   3.251  0.3717 -0.5014 -0.0064
 4762SOL     OW18779   1.376   5.233   5.094  0.4920 -0.5308  0.3543
 4762SOL    HW218780   1.302   5.176   5.112 -0.4434  0.5423  0.0316
 4762SOL    HW318781   1.430   5.183   5.032 -0.8206 -0.6862 -0.7130
 4762SOL    MW418782   1.373   5.219   5.088 -0.4797  0.0828 -0.4734
 4763SOL     OW18783   2.654   0.042   3.325 -0.4757  0.1595  0.2630
 4763SOL    HW218784   2.700   0.007   3.402  0.5336  0.2201 -0.2946
 4763SOL    HW318785   2.654  -0.031   3.263  1.4485  1.0020 -0.8248
 4763SOL    MW418786   2.660   0.028   3.327  0.3311  0.2675  0.0403
 4764SOL     OW18787   2.354   3.519   4.914 -0.0984  0.0317 -0.0344
 4764SOL    HW218788   2.263   3.489   4.914 -0.3117  0.6598  0.3750
 4764SOL    HW318789   2.384   3.508   5.004 -0.1241  0.8702  0.0805
 4764SOL    MW418790   2.346   3.513   4.926  0.1496  0.0685 -0.2203
 4765SOL     OW18791   2.881   3.420   2.510 -0.3198 -0.3460  0.4359
 4765SOL    HW218792   2.953   3.464   2.465 -0.6304 -1.3749 -1.1766
 4765SOL    HW318793   2.859   3.477   2.583  1.0529  0.7939  0.0026
 4765SOL    MW418794   2.888   3.433   2.513 -0.3238  0.1556  0.5742
 4766SOL     OW18795   5.587   5.675   1.558 -0.0776 -0.1883  0.0508
 4766SOL    HW218796   5.671   5.682   1.511 -0.0409 -0.2810  0.1043
 4766SOL    HW318797   5.522   5.666   1.488 -0.1251  0.6609 -0.0293
 4766SOL    MW418798   5.589   5.675   1.542  0.3228 -0.2566  0.0750
 4767SOL     OW18799   0.712   3.385   0.451 -0.5771 -0.1660 -0.6031
 4767SOL    HW218800   0.632   3.388   0.504 -0.2369 -1.0449 -0.0103
 4767SOL    HW318801   0.708   3.300   0.407  0.0854 -0.2693 -0.4750
 4767SOL    MW418802   0.701   3.374   0.452  0.0381 -0.3208 -0.9052
 4768SOL     OW18803   1.980   6.132   4.795  0.0116 -0.0386 -0.5535
 4768SOL    HW218804   1.938   6.062   4.844  1.3841  0.2699  1.1655
 4768SOL    HW318805   1.976   6.208   4.853  2.3999  0.1331 -0.5152
 4768SOL    MW418806   1.974   6.133   4.809  0.0580 -0.1782 -0.1110
 4769SOL     OW18807   1.601   0.147   2.119  0.9763  0.2337 -0.8328
 4769SOL    HW218808   1.684   0.195   2.123  1.3671 -0.5216  1.1977
 4769SOL    HW318809   1.625   0.056   2.137 -0.4487  0.2693  1.6590
 4769SOL    MW418810   1.616   0.142   2.122  0.2927  0.3979  0.1423
 4770SOL     OW18811   2.032   2.906   2.432  0.0892 -0.2706 -0.0774
 4770SOL    HW218812   2.050   2.983   2.378 -1.6023  0.6228  0.5676
 4770SOL    HW318813   1.937   2.908   2.445 -0.2197 -3.2396 -1.1952
 4770SOL    MW418814   2.022   2.916   2.426  0.1786 -0.5584  0.2552
 4771SOL     OW18815   1.871   3.419   5.750 -0.0397 -0.3732 -0.1860
 4771SOL    HW218816   1.826   3.501   5.770  1.3802 -0.0159  1.9018
 4771SOL    HW318817   1.878   3.418   5.655 -1.1020  1.3549 -0.3300
 4771SOL    MW418818   1.866   3.430   5.740 -0.3741  0.0407 -0.4758
 4772SOL     OW18819   3.348   3.357   6.277 -0.1895 -0.0269  0.2895
 4772SOL    HW218820   3.368   3.280   6.224  0.2367 -0.8913  1.6283
 4772SOL    HW318821   3.432   3.403   6.285  0.0105 -0.4925  1.0704
 4772SOL    MW418822   3.362   3.353   6.271  0.5629  0.4528  0.0183
 4773SOL     OW18823   2.372   0.496   0.397  0.7039 -0.0822  0.0470
 4773SOL    HW218824   2.452   0.493   0.449  0.6022  1.1191  0.3012
 4773SOL    HW318825   2.335   0.408   0.405  0.5571  0.1166  2.2168
 4773SOL    MW418826   2.378   0.484   0.405 -0.4360  0.3964 -0.1716
 4774SOL     OW18827   4.477   0.101   0.502 -0.1229 -0.0437 -0.7916
 4774SOL    HW218828   4.509   0.087   0.413 -1.4771  2.4402 -1.7489
 4774SOL    HW318829   4.382   0.105   0.493 -0.3833 -0.9593  1.0112
 4774SOL    MW418830   4.469   0.099   0.489 -0.1047  0.5964  0.2377
 4775SOL     OW18831   4.009   2.631   3.335  0.1074  0.7915 -0.2709
 4775SOL    HW218832   3.920   2.599   3.353 -0.2748  1.6655 -0.5570
 4775SOL    HW318833   4.000   2.726   3.332  0.8500  0.8489 -1.3620
 4775SOL    MW418834   3.996   2.639   3.337 -0.4265 -0.6572 -0.1016
 4776SOL     OW18835   2.172   4.921   4.524 -0.1643  0.3199 -0.1616
 4776SOL    HW218836   2.162   4.841   4.472  2.0411 -0.7562  0.8978
 4776SOL    HW318837   2.259   4.953   4.501  0.6609  0.0995  2.3691
 4776SOL    MW418838   2.182   4.914   4.514  0.0189  0.3958  0.3384
 4777SOL     OW18839   3.926   3.889   1.679  0.0927  0.4935 -0.6959
 4777SOL    HW218840   3.832   3.897   1.696  0.2372  0.6538  0.0371
 4777SOL    HW318841   3.932   3.822   1.610 -0.6335  1.4357 -1.7048
 4777SOL    MW418842   3.915   3.881   1.672 -0.1531 -0.0319 -0.2651
 4778SOL     OW18843   1.780   5.431   3.417 -0.4094  0.3682  0.8403
 4778SOL    HW218844   1.852   5.475   3.462  0.5070  0.4782 -0.6399
 4778SOL    HW318845   1.720   5.502   3.393 -1.3938  0.2009  2.6631
 4778SOL    MW418846   1.782   5.446   3.420  0.5037  0.2441 -0.6323
 4779SOL     OW18847   5.363   0.029   5.108 -0.2759  0.2460  0.2050
 4779SOL    HW218848   5.442  -0.018   5.137 -0.8851 -0.0175  1.5089
 4779SOL    HW318849   5.384   0.057   5.019  1.1375 -0.1725  0.3708
 4779SOL    MW418850   5.376   0.026   5.100 -0.2256  0.0373 -0.8159
 4780SOL     OW18851   0.409   1.663   3.379  0.6774  0.3582  0.1056
 4780SOL    HW218852   0.494   1.682   3.339  0.3923 -0.9513 -1.2541
 4780SOL    HW318853   0.345   1.694   3.314  0.1589 -0.1529  0.3657
 4780SOL    MW418854   0.411   1.670   3.365 -0.4675  0.0472 -0.6135
 4781SOL     OW18855   5.585   6.279   3.613 -0.3843 -0.1750 -0.1848
 4781SOL    HW218856   5.489   6.284   3.612 -0.3541  1.0731  0.6640
 4781SOL    HW318857   5.606   6.243   3.699 -0.0922 -0.2564 -0.2912
 4781SOL    MW418858   5.575   6.275   3.624 -0.6351  0.4748 -0.2720
 4782SOL     OW18859   3.547   1.323   1.666  0.1522  0.2651 -0.1624
 4782SOL    HW218860   3.551   1.351   1.757  0.6185  0.8101 -0.3509
 4782SOL    HW318861   3.481   1.253   1.666 -1.1618  1.4600  0.2794
 4782SOL    MW418862   3.539   1.317   1.678 -0.2795 -0.1766  0.2531
 4783SOL     OW18863   6.234   5.462   5.655 -0.0170 -0.0919  0.7728
 4783SOL    HW218864   6.163   5.402   5.679 -0.6596  0.3662  0.1017
 4783SOL    HW318865   6.280   5.480   5.736  0.3028 -1.6273  0.9624
 4783SOL    MW418866   6.230   5.456   5.669  0.3970 -0.1191  0.1826
 4784SOL     OW18867   1.578   1.058   3.533  0.3124  0.3506 -0.0297
 4784SOL    HW218868   1.666   1.019   3.534  0.1266 -0.0920 -0.6854
 4784SOL    HW318869   1.527   1.001   3.476 -0.2539  0.9299 -0.1067
 4784SOL    MW418870   1.583   1.046   3.525 -0.1478  0.2996 -0.3964
 4785SOL     OW18871   2.434   0.188   0.226 -0.0158  0.0036 -0.2423
 4785SOL    HW218872   2.517   0.143   0.208  0.4803  1.1514 -0.9396
 4785SOL    HW318873   2.382   0.174   0.147 -0.3038 -0.2919 -0.0040
 4785SOL    MW418874   2.438   0.180   0.213  0.3142 -0.1533  0.0234
 4786SOL     OW18875   0.457   0.568   4.582 -0.4100 -0.3644  0.1646
 4786SOL    HW218876   0.550   0.552   4.566 -0.4441 -1.8877  1.3194
 4786SOL    HW318877   0.427   0.614   4.503  1.0891 -0.7652 -0.6748
 4786SOL    MW418878   0.465   0.572   4.569  0.4486  0.0765 -0.8389
 4787SOL     OW18879   2.766   1.141   6.308 -0.4077 -0.0270 -0.0323
 4787SOL    HW218880   2.740   1.141   6.400 -0.0863 -1.8333  0.0887
 4787SOL    HW318881   2.735   1.057   6.274  2.1718 -0.7673 -0.7576
 4787SOL    MW418882   2.758   1.130   6.315  0.4124 -0.1149 -0.1215
 4788SOL     OW18883   0.387   5.547   3.761 -0.2826  0.2330  0.0514
 4788SOL    HW218884   0.440   5.538   3.841  0.8436  0.1221 -0.6909
 4788SOL    HW318885   0.380   5.641   3.748  1.3456  0.2630 -0.8618
 4788SOL    MW418886   0.393   5.558   3.770  0.0867  0.2901  0.3510
 4789SOL     OW18887   0.619   1.005   1.735  0.7133  0.5510  0.4429
 4789SOL    HW218888   0.696   0.951   1.753  0.0313 -0.3241  0.8430
 4789SOL    HW318889   0.610   1.003   1.639  1.1384  0.5933  0.4014
 4789SOL    MW418890   0.628   0.997   1.724 -0.3361 -0.3761  0.4247
 4790SOL     OW18891   6.047   3.424   2.712  0.1943 -0.2005 -0.0971
 4790SOL    HW218892   6.113   3.482   2.751  0.2255 -0.2105 -0.1355
 4790SOL    HW318893   6.095   3.344   2.690  0.4384  0.2360 -1.2365
 4790SOL    MW418894   6.062   3.421   2.714  0.5393 -0.2562  0.4557
 4791SOL     OW18895   3.237   0.476   3.938  0.0659  0.3757  0.4204
 4791SOL    HW218896   3.252   0.500   3.846  0.9421 -0.8305  0.2247
 4791SOL    HW318897   3.151   0.433   3.937 -0.3408  1.1683  0.3374
 4791SOL    MW418898   3.227   0.474   3.926 -0.3962 -0.6157 -0.4416
 4792SOL     OW18899   5.404   1.549   4.913 -0.1118  0.6875 -0.3807
 4792SOL    HW218900   5.314   1.543   4.881  0.0640 -1.0853 -0.6560
 4792SOL    HW318901   5.455   1.571   4.835 -0.2371  1.0112 -0.3695
 4792SOL    MW418902   5.399   1.551   4.898 -0.0994 -0.3172  0.1102
 4793SOL     OW18903   1.208   5.787   0.512  0.6925  0.5066  0.3925
 4793SOL    HW218904   1.222   5.702   0.471  1.0043  0.7269  0.0260
 4793SOL    HW318905   1.219   5.850   0.440  0.8291  0.8767  0.7308
 4793SOL    MW418906   1.211   5.784   0.497  0.1635 -0.7585 -0.4685
 4794SOL     OW18907   4.135   5.971   2.984  0.8389  0.1302  0.1330
 4794SOL    HW218908   4.052   6.018   2.989  1.1454  0.7777 -0.7245
 4794SOL    HW318909   4.202   6.039   2.989  1.3155 -0.3491  0.3962
 4794SOL    MW418910   4.133   5.986   2.986  0.3689  0.1118  0.2103
 4795SOL     OW18911   2.498   1.770   0.643  0.0250 -0.2634 -0.0943
 4795SOL    HW218912   2.522   1.739   0.555 -1.2040 -2.1810  0.1937
 4795SOL    HW318913   2.407   1.798   0.634  0.5186  1.5655  0.1276
 4795SOL    MW418914   2.489   1.770   0.630 -0.6088 -0.4384 -0.8358
 4796SOL     OW18915   1.701   2.787   4.691  0.6360 -0.1846  0.3701
 4796SOL    HW218916   1.673   2.814   4.778  0.2088  1.2222 -0.1677
 4796SOL    HW318917   1.782   2.738   4.705  1.9911  2.1846  1.3842
 4796SOL    MW418918   1.708   2.784   4.704  0.0632 -0.1168 -0.1789
 4797SOL     OW18919   1.377   1.016   0.230  0.7210  0.0389 -0.3302
 4797SOL    HW218920   1.342   0.980   0.149  0.5828 -0.2014 -0.1618
 4797SOL    HW318921   1.420   1.098   0.203 -1.3191  1.1914 -0.3203
 4797SOL    MW418922   1.378   1.022   0.216 -0.2757 -0.5411  0.0620
 4798SOL     OW18923   3.383   2.567   6.040 -0.5622 -0.0476  0.4057
 4798SOL    HW218924   3.463   2.525   6.008  0.2272  0.5830  1.5053
 4798SOL    HW318925   3.325   2.494   6.060  0.3589 -0.6061  1.1618
 4798SOL    MW418926   3.386   2.552   6.039 -0.0967  0.0602 -0.4621
 4799SOL     OW18927   1.617   3.069   4.672  0.4263  0.3387  0.0079
 4799SOL    HW218928   1.632   2.975   4.683  0.1933  0.3330  0.2718
 4799SOL    HW318929   1.680   3.095   4.604 -2.2553 -0.7948 -3.1803
 4799SOL    MW418930   1.628   3.060   4.664 -0.2875 -0.3145  0.0692
 4800SOL     OW18931   1.381   2.632   1.811  0.0672  0.6843  0.0161
 4800SOL    HW218932   1.475   2.630   1.796 -0.1442  0.9234 -1.5410
 4800SOL    HW318933   1.371   2.667   1.900  1.4138  1.2301 -0.0228
 4800SOL    MW418934   1.392   2.636   1.821  0.0642 -0.1711  0.0002
 4801SOL     OW18935   0.350   4.975   5.604  0.4338  0.3813  0.0058
 4801SOL    HW218936   0.356   5.009   5.693  0.3077  1.2708 -0.3185
 4801SOL    HW318937   0.257   4.959   5.591  0.4739  0.0634  0.0966
 4801SOL    MW418938   0.339   4.977   5.614  0.6806  0.2182 -0.4102
 4802SOL     OW18939   2.991   1.940   0.762 -0.3320 -0.5036  0.4831
 4802SOL    HW218940   2.960   2.019   0.716  1.1028 -0.3451 -0.2963
 4802SOL    HW318941   2.972   1.956   0.854  0.5919  1.1245  0.4372
 4802SOL    MW418942   2.985   1.953   0.768  0.0557 -0.1492 -0.1761
 4803SOL     OW18943   6.279   0.767   3.627 -0.0096 -0.2325 -0.3056
 4803SOL    HW218944   6.334   0.812   3.691  0.6497 -0.5947 -0.6119
 4803SOL    HW318945   6.211   0.831   3.605  1.0443  0.7209 -0.9206
 4803SOL    MW418946   6.277   0.782   3.632  0.6533  0.2205 -0.3032
 4804SOL     OW18947   0.471   5.734   5.291  0.2522  0.4394  0.1016
 4804SOL    HW218948   0.378   5.723   5.271  0.5431  0.2824 -1.2609
 4804SOL    HW318949   0.491   5.662   5.352 -0.4410  0.3077  0.1836
 4804SOL    MW418950   0.462   5.723   5.297 -0.5961  0.1397 -0.0785
 4805SOL     OW18951   5.794   1.798   2.883  0.1447  0.6299 -0.4310
 4805SOL    HW218952   5.800   1.716   2.933  1.1375  0.8165 -0.2103
 4805SOL    HW318953   5.850   1.782   2.807  1.5672  1.6024  0.3620
 4805SOL    MW418954   5.802   1.785   2.880 -0.9870 -0.0933 -0.5086
 4806SOL     OW18955   0.932   2.246   1.807 -0.1939 -0.4868  0.0416
 4806SOL    HW218956   1.024   2.270   1.809  0.0254 -1.2742 -0.2789
 4806SOL    HW318957   0.890   2.304   1.871  0.2125  1.0807 -1.0583
 4806SOL    MW418958   0.938   2.257   1.816 -0.6222  0.1366 -0.4467
 4807SOL     OW18959   1.251   1.574   1.543 -0.1722 -0.5763 -0.0658
 4807SOL    HW218960   1.347   1.572   1.544 -0.1483 -0.4303 -0.9016
 4807SOL    HW318961   1.228   1.538   1.457 -0.8366  0.0686 -0.1694
 4807SOL    MW418962   1.261   1.569   1.532  0.0767 -0.0053 -0.1671
 4808SOL     OW18963   3.831   0.861   0.012  0.1312 -0.1265 -0.5641
 4808SOL    HW218964   3.826   0.771   0.045 -0.6603 -0.0391 -0.4267
 4808SOL    HW318965   3.814   0.853  -0.082 -1.3427  0.0233 -0.3214
 4808SOL    MW418966   3.828   0.848   0.004  0.2508 -0.4230  0.2398
 4809SOL     OW18967   3.845   2.536   4.471 -0.2903 -0.0124 -0.1380
 4809SOL    HW218968   3.874   2.446   4.460 -1.5170 -0.2318 -2.2245
 4809SOL    HW318969   3.753   2.528   4.498 -0.0631  0.6347  0.8794
 4809SOL    MW418970   3.836   2.523   4.473  0.4494  0.5807  0.2587
 4810SOL     OW18971   0.259   6.029   4.336  0.6349  0.0601  0.1896
 4810SOL    HW218972   0.313   6.062   4.408  1.6912  1.3870 -1.1423
 4810SOL    HW318973   0.317   5.972   4.286 -0.1641 -1.0449  0.4877
 4810SOL    MW418974   0.274   6.026   4.339  0.7880  0.2320  0.0457
 4811SOL     OW18975   1.000   2.924   5.361  0.3829 -0.1912 -0.7827
 4811SOL    HW218976   1.067   2.869   5.321  1.6270  0.0261  0.8902
 4811SOL    HW318977   0.956   2.867   5.424  0.0676  0.1065 -0.7255
 4811SOL    MW418978   1.003   2.909   5.364 -0.1307  0.1053  0.4982
 4812SOL     OW18979   3.069   3.934   2.286 -0.0578  0.4151  0.7066
 4812SOL    HW218980   3.005   3.864   2.299  1.8670 -1.7427 -0.6776
 4812SOL    HW318981   3.078   3.941   2.190 -0.3371  2.7596  0.7905
 4812SOL    MW418982   3.062   3.926   2.275  0.1464 -0.1554  0.5940
 4813SOL     OW18983   4.576   3.833   4.225  0.1058  0.6782 -0.3922
 4813SOL    HW218984   4.664   3.804   4.202 -0.3019 -0.9625 -0.0036
 4813SOL    HW318985   4.581   3.852   4.318 -0.0786  0.0070 -0.2386
 4813SOL    MW418986   4.588   3.832   4.234  0.5417 -0.6353  0.1242
 4814SOL     OW18987   3.736   2.458   0.508  0.0240 -0.0058 -0.1470
 4814SOL    HW218988   3.673   2.390   0.530  1.3555 -1.1939  0.0991
 4814SOL    HW318989   3.715   2.481   0.417 -0.8844 -0.2229 -0.0050
 4814SOL    MW418990   3.725   2.452   0.499  0.0950 -0.0075  0.1940
 4815SOL     OW18991   2.720   4.882   3.850  0.4166 -0.3992  0.2396
 4815SOL    HW218992   2.632   4.896   3.815  0.9714  1.0978 -0.7056
 4815SOL    HW318993   2.758   4.970   3.853  1.7146 -0.9571  1.1014
 4815SOL    MW418994   2.713   4.896   3.846 -0.9326 -0.5789 -0.0434
 4816SOL     OW18995   6.358   0.391   1.276  0.4435  0.5705  0.0817
 4816SOL    HW218996   6.381   0.418   1.364  1.9090 -0.3505  0.0085
 4816SOL    HW318997   6.351   0.473   1.227  1.6011  0.9936  0.5970
 4816SOL    MW418998   6.360   0.406   1.281  0.1136 -0.0689 -0.3313
 4817SOL     OW18999   4.578   2.271   2.786 -0.4903 -0.1606 -0.7379
 4817SOL    HW219000   4.501   2.218   2.766  0.2045 -1.2433 -0.6546
 4817SOL    HW319001   4.603   2.310   2.702 -0.3846 -0.8373 -1.0259
 4817SOL    MW419002   4.571   2.269   2.773  0.0234 -0.2108 -0.1688
 4818SOL     OW19003   1.985   5.713   0.153  0.0613  0.0077 -1.1252
 4818SOL    HW219004   1.997   5.736   0.245  0.3118  3.4282 -1.8772
 4818SOL    HW319005   1.890   5.712   0.142  0.0241  1.3628 -1.1409
 4818SOL    MW419006   1.974   5.716   0.164 -0.1283  0.6280 -0.1191
 4819SOL     OW19007   2.826   4.130   3.403  0.3026 -0.3569 -0.0039
 4819SOL    HW219008   2.860   4.113   3.316 -0.7621  0.2137 -0.5570
 4819SOL    HW319009   2.731   4.122   3.393  0.1923 -0.8507  1.2339
 4819SOL    MW419010   2.818   4.127   3.390 -0.2861 -0.3152  0.3947
 4820SOL     OW19011   6.058   4.443   5.669  0.4235 -0.2367 -0.1357
 4820SOL    HW219012   6.077   4.400   5.585  1.5793  1.2701 -0.6925
 4820SOL    HW319013   5.969   4.476   5.660 -0.7536 -2.9258  0.5407
 4820SOL    MW419014   6.049   4.442   5.657  0.5463 -0.3122 -0.2474
 4821SOL     OW19015   5.933   1.473   1.330  0.3639 -0.6847 -0.2799
 4821SOL    HW219016   6.004   1.522   1.288 -1.4642  0.5331 -2.1507
 4821SOL    HW319017   5.890   1.538   1.385 -1.0329 -0.6005 -1.4288
 4821SOL    MW419018   5.937   1.488   1.332  0.0272 -0.5571 -0.6353
 4822SOL     OW19019   1.200   3.720   2.082  0.6722  0.1455 -0.1801
 4822SOL    HW219020   1.120   3.717   2.135  0.2374  0.4789 -0.8030
 4822SOL    HW319021   1.233   3.631   2.083  1.2472  0.3516  1.5129
 4822SOL    MW419022   1.194   3.708   2.089 -0.2746 -0.2424  0.2428
 4823SOL     OW19023   4.892   6.022   1.455  0.4216  0.6332 -0.1141
 4823SOL    HW219024   4.840   6.088   1.409  1.7554  0.4456 -1.9841
 4823SOL    HW319025   4.979   6.060   1.461  1.2277 -0.9134 -1.2381
 4823SOL    MW419026   4.896   6.036   1.450 -0.6447 -0.1216 -0.0420
 4824SOL     OW19027   3.630   0.681   5.959 -0.3918  0.3056 -0.0073
 4824SOL    HW219028   3.587   0.754   5.914  1.5951  0.4724 -1.8107
 4824SOL    HW319029   3.562   0.615   5.970 -1.1400  0.5164 -2.7472
 4824SOL    MW419030   3.615   0.682   5.955 -0.1945  0.3017 -0.0723
 4825SOL     OW19031   4.171   4.691   2.250 -0.7522 -0.0569  0.7296
 4825SOL    HW219032   4.185   4.768   2.195  0.6726 -0.8225 -0.0559
 4825SOL    HW319033   4.101   4.643   2.206  1.3505 -1.4214 -1.4210
 4825SOL    MW419034   4.164   4.695   2.237  0.2984 -0.0866 -0.6474
 4826SOL     OW19035   4.292   4.236   5.323  0.1535 -0.2007 -0.1841
 4826SOL    HW219036   4.319   4.220   5.413  0.7333 -0.2165 -0.3580
 4826SOL    HW319037   4.197   4.251   5.329  0.3160  0.6580  0.5443
 4826SOL    MW419038   4.283   4.236   5.336  0.4786  0.3978 -0.4193
 4827SOL     OW19039   4.193   1.050   4.247 -0.4665  0.6542 -0.2697
 4827SOL    HW219040   4.138   1.127   4.235 -1.1241  0.2320 -0.0397
 4827SOL    HW319041   4.185   1.028   4.340  1.0855  1.3089  0.0571
 4827SOL    MW419042   4.185   1.057   4.258  0.0987  0.1145  0.0156
 4828SOL     OW19043   5.956   3.847   6.310 -0.0994  0.2018 -0.2104
 4828SOL    HW219044   5.945   3.940   6.291  1.5588  0.9893  2.2883
 4828SOL    HW319045   5.903   3.832   6.388 -0.1524 -0.9324 -0.4410
 4828SOL    MW419046   5.947   3.857   6.318  0.3168  0.5081 -0.1330
 4829SOL     OW19047   0.785   5.637   2.842 -0.1386 -0.4299  0.2823
 4829SOL    HW219048   0.867   5.651   2.890  0.8015 -0.0761 -1.3613
 4829SOL    HW319049   0.761   5.724   2.810 -1.3215 -0.4812  0.9490
 4829SOL    MW419050   0.792   5.651   2.845 -0.3283 -0.3877  0.4641
 4830SOL     OW19051   4.695   5.374   0.540  0.6454 -0.0457 -0.0685
 4830SOL    HW219052   4.742   5.293   0.563  0.0587 -0.4765 -0.3551
 4830SOL    HW319053   4.659   5.405   0.624  2.8717  1.2602  0.4872
 4830SOL    MW419054   4.697   5.367   0.554 -0.4293 -0.5688  0.0234
 4831SOL     OW19055   5.887   3.827   5.865 -0.7207 -0.1714 -0.5577
 4831SOL    HW219056   5.978   3.855   5.855  0.1204 -2.2853  0.4287
 4831SOL    HW319057   5.836   3.906   5.850  1.3333  1.4165  0.2055
 4831SOL    MW419058   5.893   3.841   5.862 -0.4351  0.2272 -0.0835
 4832SOL     OW19059   0.221   2.438   2.588  0.7084 -0.2270 -0.5777
 4832SOL    HW219060   0.221   2.488   2.669 -0.4822 -0.8618 -0.1684
 4832SOL    HW319061   0.216   2.503   2.519 -0.0509  0.2606 -0.0760
 4832SOL    MW419062   0.221   2.453   2.590  0.2826  0.0952 -0.3291
 4833SOL     OW19063   3.163   0.312   4.528  0.4174 -0.5207  0.5197
 4833SOL    HW219064   3.110   0.392   4.531  0.8848 -0.2128  0.7053
 4833SOL    HW319065   3.252   0.343   4.515  0.4865 -1.0711 -0.3550
 4833SOL    MW419066   3.168   0.327   4.527 -0.3565  0.1820  0.2405
 4834SOL     OW19067   3.587   0.118   4.066 -0.2374 -0.2123 -0.6456
 4834SOL    HW219068   3.587   0.122   3.970  0.6654 -1.7657 -0.7407
 4834SOL    HW319069   3.635   0.196   4.093 -0.4355  0.2068 -1.4539
 4834SOL    MW419070   3.593   0.129   4.057  0.6262  0.0821 -0.3311
 4835SOL     OW19071   1.632   3.199   6.018  0.4919  0.1569 -0.3754
 4835SOL    HW219072   1.706   3.189   5.958 -0.1146 -3.6972 -0.7303
 4835SOL    HW319073   1.654   3.142   6.093 -0.8209  1.2862  0.9226
 4835SOL    MW419074   1.645   3.190   6.020  0.4963 -0.2113 -0.0673
 4836SOL     OW19075   5.429   0.037   2.420  0.1139  0.0360 -0.4044
 4836SOL    HW219076   5.353   0.062   2.472  0.1834  1.6534 -1.0296
 4836SOL    HW319077   5.504   0.075   2.467  0.3348  0.1202 -0.8203
 4836SOL    MW419078   5.429   0.045   2.433  0.2584  0.2417 -0.0571
 4837SOL     OW19079   4.930   5.292   5.279  0.5053  0.0708  0.0900
 4837SOL    HW219080   4.993   5.364   5.291  0.2399  0.5800 -1.4230
 4837SOL    HW319081   4.883   5.287   5.363  0.5448  1.6497  0.2314
 4837SOL    MW419082   4.932   5.301   5.292  0.3985  0.1330 -0.0313
 4838SOL     OW19083   4.322   0.821   2.501 -0.2405  0.1442 -0.0940
 4838SOL    HW219084   4.292   0.862   2.420  0.1591  0.2786 -0.1756
 4838SOL    HW319085   4.247   0.772   2.533 -0.4254  0.1661 -0.5015
 4838SOL    MW419086   4.308   0.820   2.495  0.2854  0.0618 -0.0192
 4839SOL     OW19087   4.074   3.398   1.059 -0.0608  0.0950  0.7207
 4839SOL    HW219088   4.113   3.312   1.047 -1.6241 -0.3586 -1.7766
 4839SOL    HW319089   3.999   3.383   1.117  0.8512  0.2122  1.9853
 4839SOL    MW419090   4.070   3.385   1.065  0.3637  0.6677 -0.7073
 4840SOL     OW19091   4.529   3.352   4.567 -0.1436  0.2037  0.1631
 4840SOL    HW219092   4.469   3.370   4.639  0.8049  0.3156  0.9490
 4840SOL    HW319093   4.563   3.438   4.541  0.3124  0.0696  0.2989
 4840SOL    MW419094   4.526   3.365   4.573  0.2210 -0.3499 -0.1764
 4841SOL     OW19095   0.348   1.745   2.355 -0.6315 -0.6018  0.0974
 4841SOL    HW219096   0.254   1.762   2.363 -0.2015  1.5625  1.7163
 4841SOL    HW319097   0.389   1.829   2.378  1.6934 -0.5056 -3.6267
 4841SOL    MW419098   0.341   1.759   2.359  0.1432  0.4150 -0.0031
 4842SOL     OW19099   3.986   4.428   0.801 -0.4880  0.1434 -0.2851
 4842SOL    HW219100   3.952   4.386   0.880  0.2720  0.9614  0.5070
 4842SOL    HW319101   3.950   4.377   0.729 -2.6233  0.3963  0.5240
 4842SOL    MW419102   3.977   4.416   0.802  0.0006 -0.2046 -0.5391
 4843SOL     OW19103   2.682   1.631   2.909  0.6957 -0.6625 -0.8388
 4843SOL    HW219104   2.658   1.615   2.818  0.1477  0.5060 -0.9102
 4843SOL    HW319105   2.635   1.711   2.934  0.8658 -0.9344  0.4574
 4843SOL    MW419106   2.672   1.639   2.901 -0.2519 -0.1601 -0.7387
 4844SOL     OW19107   3.201   3.302   4.418 -0.0479 -0.2888 -0.1188
 4844SOL    HW219108   3.233   3.386   4.386  0.8763 -0.6407 -0.1542
 4844SOL    HW319109   3.202   3.245   4.341  2.2739 -1.1636  0.4616
 4844SOL    MW419110   3.206   3.306   4.404  0.1379  0.0308  0.4865
 4845SOL     OW19111   2.831   1.316   1.363 -0.0761 -0.3329  0.1365
 4845SOL    HW219112   2.855   1.406   1.344 -1.0763 -0.2971 -1.0867
 4845SOL    HW319113   2.794   1.319   1.452 -0.7496  0.5986 -0.1605
 4845SOL    MW419114   2.829   1.328   1.372  0.0789 -0.3303 -0.5510
 4846SOL     OW19115   2.093   5.760   2.265  0.3682  0.0812  0.2158
 4846SOL    HW219116   2.154   5.707   2.317 -0.6266 -0.2792  1.0534
 4846SOL    HW319117   2.085   5.842   2.314 -2.9998 -1.3933  2.5213
 4846SOL    MW419118   2.100   5.764   2.279 -0.0279 -0.6065  0.2282
 4847SOL     OW19119   5.659   5.196   1.769 -0.2065  0.5782  0.2368
 4847SOL    HW219120   5.695   5.109   1.783  0.1693  0.6670 -0.1676
 4847SOL    HW319121   5.566   5.181   1.752  0.1310  0.1148 -1.3480
 4847SOL    MW419122   5.651   5.183   1.768  0.1415  0.4552 -0.3518
 4848SOL     OW19123   1.149   5.395   0.484  0.0711  0.6562  0.2583
 4848SOL    HW219124   1.092   5.418   0.558  1.7888  0.8731  1.5592
 4848SOL    HW319125   1.209   5.329   0.518 -0.3903 -0.7918 -1.5533
 4848SOL    MW419126   1.149   5.390   0.498  0.5062  0.5375 -0.4815
 4849SOL     OW19127   3.477   6.090   3.732 -0.8569 -0.1817  0.0492
 4849SOL    HW219128   3.561   6.047   3.745 -1.1524 -1.2312 -1.2885
 4849SOL    HW319129   3.462   6.087   3.638 -1.3139  2.1139 -0.0225
 4849SOL    MW419130   3.486   6.084   3.721  0.4624 -0.2400 -0.0674
 4850SOL     OW19131   3.313   1.844   2.067  0.3106  0.4286 -0.1915
 4850SOL    HW219132   3.344   1.759   2.036  1.2485  0.5404  0.4063
 4850SOL    HW319133   3.293   1.831   2.160  0.5359  0.8793 -0.0763
 4850SOL    MW419134   3.314   1.831   2.075  0.4317 -0.5104  0.3955
 4851SOL     OW19135   3.073   3.965   0.663 -0.2787  0.1900 -0.0392
 4851SOL    HW219136   3.050   3.880   0.627 -0.4895  0.2585 -0.0682
 4851SOL    HW319137   3.135   4.002   0.600  1.0864 -0.6181  0.7832
 4851SOL    MW419138   3.078   3.959   0.650 -0.0979 -0.2673 -0.3366
 4852SOL     OW19139   6.023   3.649   1.503  0.3118  0.2071 -0.1600
 4852SOL    HW219140   6.108   3.638   1.546  0.6075  0.4532 -0.6703
 4852SOL    HW319141   6.030   3.597   1.423  0.1983  0.7040 -0.4970
 4852SOL    MW419142   6.035   3.641   1.498  0.0391 -0.0520 -0.4768
 4853SOL     OW19143   0.809   0.643   2.004  0.8157  0.3295 -0.2805
 4853SOL    HW219144   0.722   0.643   2.044  0.4619  0.2974 -1.0200
 4853SOL    HW319145   0.801   0.702   1.930  1.0560 -0.6264 -1.0981
 4853SOL    MW419146   0.796   0.651   1.999  0.7272 -1.2038 -0.1370
 4854SOL     OW19147   2.530   4.921   5.738  0.0033  0.7080  0.1676
 4854SOL    HW219148   2.551   4.828   5.724 -2.7671 -0.0289  0.3452
 4854SOL    HW319149   2.498   4.951   5.653 -0.9476  0.9377  0.5953
 4854SOL    MW419150   2.528   4.912   5.725 -0.3675 -0.0714 -0.1702
 4855SOL     OW19151   4.002   4.169   3.494  0.2180 -0.5101  0.2370
 4855SOL    HW219152   3.946   4.220   3.435  2.0858  2.3882  0.8158
 4855SOL    HW319153   3.941   4.126   3.554 -1.4688  0.8959 -0.4046
 4855SOL    MW419154   3.987   4.170   3.494  0.2375 -0.3354  0.4830
 4856SOL     OW19155   6.169   4.311   3.277 -0.2511  0.2338 -0.3005
 4856SOL    HW219156   6.112   4.267   3.213 -1.4816 -0.7837  1.3928
 4856SOL    HW319157   6.126   4.395   3.293 -0.8835 -0.2050  0.3883
 4856SOL    MW419158   6.156   4.316   3.271 -0.7792  0.3758 -0.2939
 4857SOL     OW19159   3.195   5.545   4.238 -0.0288  0.2603 -0.1418
 4857SOL    HW219160   3.134   5.575   4.171 -1.0761 -1.6836 -0.1397
 4857SOL    HW319161   3.141   5.529   4.315  0.4715 -1.2826 -0.0675
 4857SOL    MW419162   3.180   5.547   4.239  0.2187  0.3686  0.6007
 4858SOL     OW19163   3.615   0.860   3.327 -0.4717 -0.8580 -0.1677
 4858SOL    HW219164   3.624   0.946   3.366 -0.2328 -1.1021  0.3220
 4858SOL    HW319165   3.610   0.877   3.233 -0.0883 -0.3331 -0.1008
 4858SOL    MW419166   3.616   0.873   3.319 -0.3149 -0.2645  0.4103
 4859SOL     OW19167   3.428   4.110   2.318 -0.3723 -0.3150 -0.4160
 4859SOL    HW219168   3.371   4.104   2.394  0.1734 -0.0840  0.0244
 4859SOL    HW319169   3.434   4.021   2.285 -0.8775 -0.3599 -0.3914
 4859SOL    MW419170   3.422   4.098   2.324  0.4293  0.3905 -0.9782
 4860SOL     OW19171   4.454   5.095   0.421  0.1815  0.1484  0.3319
 4860SOL    HW219172   4.365   5.064   0.403  0.1320  1.0129 -0.9986
 4860SOL    HW319173   4.469   5.070   0.512 -1.3345 -0.2215  0.5149
 4860SOL    MW419174   4.444   5.088   0.431  0.4590 -0.6456  0.0236
 4861SOL     OW19175   2.149   2.985   2.703 -0.5025  0.0586  0.0323
 4861SOL    HW219176   2.150   2.930   2.625  0.3546 -0.4598  0.3967
 4861SOL    HW319177   2.063   3.026   2.703 -0.7972 -0.5543 -0.7557
 4861SOL    MW419178   2.138   2.983   2.693  0.5063 -0.2895  0.0369
 4862SOL     OW19179   5.651   1.692   3.660  0.1934 -0.0314 -0.2305
 4862SOL    HW219180   5.565   1.680   3.619  0.7549 -0.2005 -1.3918
 4862SOL    HW319181   5.690   1.605   3.659  0.4533  0.0804  0.1272
 4862SOL    MW419182   5.645   1.679   3.654 -0.3417 -0.2388  0.0779
 4863SOL     OW19183   0.715   4.785   4.150  0.4156  0.1988 -0.3079
 4863SOL    HW219184   0.766   4.711   4.183 -0.5058 -0.4133 -0.2136
 4863SOL    HW319185   0.718   4.850   4.220  0.2359 -0.2351  0.1040
 4863SOL    MW419186   0.722   4.784   4.163 -1.1700 -0.0562  0.3199
 4864SOL     OW19187   1.218   4.003   3.995  0.1391  0.7354 -0.1960
 4864SOL    HW219188   1.297   3.981   4.045 -0.0937  1.5538  0.5516
 4864SOL    HW319189   1.229   3.956   3.912  0.4195 -0.8789  0.7014
 4864SOL    MW419190   1.230   3.994   3.991 -0.2508 -0.4931 -0.1956
 4865SOL     OW19191   3.155   5.259   4.573 -0.4573  0.0779  0.3481
 4865SOL    HW219192   3.119   5.197   4.636  0.3883 -0.5079  0.2623
 4865SOL    HW319193   3.081   5.278   4.515 -0.7852 -0.6899  0.4949
 4865SOL    MW419194   3.141   5.253   4.573  0.4006 -0.3360  0.0848
 4866SOL     OW19195   2.732   1.604   4.561  0.0625 -0.3691 -0.5803
 4866SOL    HW219196   2.805   1.549   4.533  0.1406 -0.8307  0.4838
 4866SOL    HW319197   2.656   1.546   4.559 -0.4337  0.2795 -2.3327
 4866SOL    MW419198   2.731   1.589   4.557 -0.0875 -0.0350 -0.8107
 4867SOL     OW19199   1.307   0.911   2.160 -0.1128  0.0081  0.4114
 4867SOL    HW219200   1.268   0.998   2.148  1.8203  0.9851  0.9138
 4867SOL    HW319201   1.231   0.852   2.163 -1.4294  1.4783 -1.2213
 4867SOL    MW419202   1.292   0.915   2.159  0.0423  0.4649  0.4321
 4868SOL     OW19203   1.880   6.436   1.826  0.2743  0.1677 -0.0637
 4868SOL    HW219204   1.787   6.450   1.806  0.7007  1.3077 -1.3785
 4868SOL    HW319205   1.889   6.459   1.918 -0.6323  0.6289 -0.0808
 4868SOL    MW419206   1.869   6.441   1.835 -0.1556  0.0335  0.0354
 4869SOL     OW19207   5.008   3.298   3.030  0.0605  0.0473 -0.4648
 4869SOL    HW219208   5.059   3.355   3.088 -1.0821  0.0347  0.5922
 4869SOL    HW319209   5.025   3.210   3.062 -0.8502  0.0658  0.1192
 4869SOL    MW419210   5.017   3.294   3.042  0.4230  0.4278 -0.1063
 4870SOL     OW19211   0.046   0.677   3.449  0.7017  0.0213  0.1377
 4870SOL    HW219212  -0.013   0.725   3.507 -0.0527  0.4905 -0.9739
 4870SOL    HW319213   0.129   0.674   3.496 -0.3896 -1.3914  2.1278
 4870SOL    MW419214   0.049   0.683   3.463  0.1088 -0.4619  0.2477
 4871SOL     OW19215   4.336   5.487   2.810 -0.5435 -0.3971  0.0437
 4871SOL    HW219216   4.334   5.411   2.868 -1.4344 -0.1223  0.3841
 4871SOL    HW319217   4.272   5.547   2.847  2.3217  1.9272  1.6282
 4871SOL    MW419218   4.327   5.485   2.822  0.4065 -0.6022 -0.0580
 4872SOL     OW19219   5.785   6.366   3.976  0.5636  0.2554 -0.7148
 4872SOL    HW219220   5.766   6.286   3.927 -0.6724  0.8211 -1.2146
 4872SOL    HW319221   5.842   6.417   3.918 -0.6019  0.7638 -1.4485
 4872SOL    MW419222   5.790   6.362   3.962 -0.4255 -0.1674 -0.0618
 4873SOL     OW19223   6.278   5.931   3.207  0.3490  0.4180 -0.2578
 4873SOL    HW219224   6.280   5.963   3.297  0.0016 -1.0680  0.3219
 4873SOL    HW319225   6.185   5.918   3.188  0.4766 -0.5419 -0.3238
 4873SOL    MW419226   6.266   5.933   3.216  0.5114 -0.4170  0.6071
 4874SOL     OW19227   0.707   3.704   1.609 -0.3246  0.1431 -0.2421
 4874SOL    HW219228   0.634   3.759   1.636 -0.7473 -0.0104 -1.0315
 4874SOL    HW319229   0.679   3.615   1.630 -1.2558 -0.1236 -2.3667
 4874SOL    MW419230   0.694   3.700   1.615  0.5564  0.5866  0.2853
 4875SOL     OW19231   5.134   4.214   0.291 -0.3396 -0.1953  0.6413
 4875SOL    HW219232   5.141   4.255   0.377  1.8665 -1.2780  1.0597
 4875SOL    HW319233   5.114   4.286   0.231  0.7905  1.0462  1.6993
 4875SOL    MW419234   5.132   4.229   0.295 -0.5691 -0.4108 -0.0942
 4876SOL     OW19235   6.184   1.920   5.133 -0.1209  0.1380  0.2296
 4876SOL    HW219236   6.277   1.940   5.131 -0.2065  0.4955 -0.3176
 4876SOL    HW319237   6.148   1.962   5.055 -0.5798 -0.8180 -0.0939
 4876SOL    MW419238   6.191   1.928   5.123  0.0426 -0.5476 -0.3625
 4877SOL     OW19239   2.379   6.266   1.201 -0.2640  0.0150 -0.0728
 4877SOL    HW219240   2.381   6.175   1.172 -0.8736 -0.2998  0.8694
 4877SOL    HW319241   2.472   6.291   1.208 -0.0369  0.3333 -2.9127
 4877SOL    MW419242   2.392   6.257   1.198 -0.5592  0.1220  0.2382
 4878SOL     OW19243   0.603   3.669   0.840  0.3755 -0.0848 -0.3069
 4878SOL    HW219244   0.613   3.685   0.746 -0.1181 -1.2283 -0.5670
 4878SOL    HW319245   0.665   3.599   0.858 -0.0492 -0.3623  0.0787
 4878SOL    MW419246   0.613   3.662   0.830 -0.2873 -0.0705  0.1126
 4879SOL     OW19247   5.591   1.004   2.676 -0.0982  0.3524 -0.1668
 4879SOL    HW219248   5.658   0.961   2.623  0.1834  0.9869 -0.3273
 4879SOL    HW319249   5.585   0.950   2.755 -0.6219 -0.6867 -0.8767
 4879SOL    MW419250   5.599   0.991   2.679  0.6647 -0.3757  0.2851
 4880SOL     OW19251   0.240   1.203   5.309  0.0332  0.0425  0.0202
 4880SOL    HW219252   0.270   1.173   5.394 -0.4262 -1.7000 -0.3880
 4880SOL    HW319253   0.162   1.151   5.291 -2.4484  3.3021  0.3429
 4880SOL    MW419254   0.234   1.192   5.318  0.1116  1.0481  0.4758
 4881SOL     OW19255   0.095   3.813   0.183  0.9756  0.6538 -0.0157
 4881SOL    HW219256   0.011   3.827   0.227  0.8355  2.1154 -0.7092
 4881SOL    HW319257   0.147   3.889   0.208  1.3100  0.8941 -1.4022
 4881SOL    MW419258   0.091   3.824   0.192  0.4015 -0.4493 -0.5530
 4882SOL     OW19259   5.569   5.142   4.327  0.4561 -0.1281  0.0185
 4882SOL    HW219260   5.550   5.099   4.411  1.0122 -0.5347 -0.0636
 4882SOL    HW319261   5.618   5.077   4.277 -0.2765 -0.0589 -0.8078
 4882SOL    MW419262   5.573   5.128   4.332  0.0648  1.1240  0.1561
 4883SOL     OW19263   6.415   4.175   4.566  0.0175  0.0189 -0.2710
 4883SOL    HW219264   6.476   4.248   4.576  0.3354 -0.1417 -0.9715
 4883SOL    HW319265   6.334   4.215   4.534  0.0158  0.1317 -0.1244
 4883SOL    MW419266   6.413   4.190   4.563 -0.5682  0.0467  0.4297
 4884SOL     OW19267   0.878   2.439   4.975 -0.1464  0.1544 -0.4627
 4884SOL    HW219268   0.910   2.363   4.927  1.3958  0.4443  0.0363
 4884SOL    HW319269   0.787   2.418   4.996  0.3026 -1.6634 -0.1464
 4884SOL    MW419270   0.870   2.426   4.972  0.2032  0.0379  0.6280
 4885SOL     OW19271   6.290   3.240   6.067 -0.0263 -0.8845  0.2160
 4885SOL    HW219272   6.220   3.243   6.132 -0.8247 -1.3820 -0.5939
 4885SOL    HW319273   6.250   3.277   5.988  0.5523 -1.3936 -0.3206
 4885SOL    MW419274   6.275   3.245   6.065 -0.0478 -0.4936  0.2733
 4886SOL     OW19275   6.408   5.159   6.423 -0.3537  0.3233  0.0881
 4886SOL    HW219276   6.468   5.199   6.360 -0.1784 -1.0285 -0.6459
 4886SOL    HW319277   6.463   5.142   6.500  0.0338 -0.2009 -0.2950
 4886SOL    MW419278   6.423   5.162   6.425 -0.5482 -0.1111  0.0940
 4887SOL     OW19279   3.295   4.596   5.876 -0.1251 -0.5548  0.3195
 4887SOL    HW219280   3.364   4.603   5.809 -0.7500  1.5025 -0.1444
 4887SOL    HW319281   3.254   4.682   5.879 -4.4074 -2.2691 -1.2146
 4887SOL    MW419282   3.299   4.608   5.867 -0.2354  0.3519 -0.1235
 4888SOL     OW19283   1.938   3.585   0.500  0.0732  0.3279  0.3797
 4888SOL    HW219284   1.926   3.672   0.460  0.8231 -0.1436 -0.9279
 4888SOL    HW319285   1.988   3.602   0.580  1.9485  0.9338 -0.8649
 4888SOL    MW419286   1.943   3.599   0.505 -0.2297  0.0265  0.4006
 4889SOL     OW19287   5.233   5.358   0.648  0.2151 -0.3158 -0.5639
 4889SOL    HW219288   5.250   5.304   0.725  2.9204  1.1633  0.0132
 4889SOL    HW319289   5.175   5.305   0.593 -1.2434 -1.6936  2.1340
 4889SOL    MW419290   5.228   5.344   0.651 -0.8323  0.2510  0.4480
 4890SOL     OW19291   2.338   1.010   0.094  0.3548  0.1364 -0.6854
 4890SOL    HW219292   2.368   0.962   0.171 -1.4178 -0.0326 -0.0290
 4890SOL    HW319293   2.250   0.975   0.078 -0.3260  1.9927 -1.2017
 4890SOL    MW419294   2.330   0.999   0.102 -0.3369  0.1701 -0.4774
 4891SOL     OW19295   0.830   3.883   0.257  0.1916 -0.0010  0.0232
 4891SOL    HW219296   0.829   3.853   0.166 -1.9478 -0.7858  0.2434
 4891SOL    HW319297   0.914   3.854   0.291  0.8096 -0.1558 -1.5689
 4891SOL    MW419298   0.841   3.875   0.249  0.4119  0.2409  0.0326
 4892SOL     OW19299   0.056   6.069   0.718  0.6599 -0.4811  0.3775
 4892SOL    HW219300   0.110   6.147   0.732  0.6459 -0.2459 -0.7960
 4892SOL    HW319301   0.100   6.020   0.649 -0.6750 -0.2027 -0.7174
 4892SOL    MW419302   0.069   6.073   0.711 -0.4431  0.0647 -0.1447
 4893SOL     OW19303   3.021   4.353   2.597 -0.1437 -0.1293  0.3079
 4893SOL    HW219304   2.968   4.428   2.571  1.0696  1.2596  1.6764
 4893SOL    HW319305   3.074   4.332   2.521  1.3046  2.0316  0.6569
 4893SOL    MW419306   3.021   4.360   2.584  0.6157 -0.5292 -0.2616
 4894SOL     OW19307   0.455   4.727   3.187 -0.4899 -0.3426 -0.0851
 4894SOL    HW219308   0.526   4.682   3.232 -0.3210  0.0886  0.0897
 4894SOL    HW319309   0.500   4.790   3.130 -0.6691 -1.3780 -1.4098
 4894SOL    MW419310   0.470   4.729   3.185  0.0125  0.3802  0.4460
 4895SOL     OW19311   1.339   4.405   1.913  0.1094  0.1352 -0.3677
 4895SOL    HW219312   1.367   4.475   1.854  1.7842 -0.8120 -0.7484
 4895SOL    HW319313   1.299   4.339   1.856  1.7440 -0.7892 -0.4992
 4895SOL    MW419314   1.337   4.405   1.898 -0.9083  0.3843  0.0770
 4896SOL     OW19315   2.647   0.262   5.500  0.5057  0.2404  0.2958
 4896SOL    HW219316   2.675   0.212   5.577  1.0805  1.0377  0.6246
 4896SOL    HW319317   2.640   0.352   5.532  0.0447  0.4617 -0.4185
 4896SOL    MW419318   2.650   0.267   5.515 -0.4843  0.9441 -0.2794
 4897SOL     OW19319   4.986   4.986   2.538 -0.2829 -0.3668 -0.4974
 4897SOL    HW219320   4.913   5.044   2.516  0.0183 -0.0056 -0.5544
 4897SOL    HW319321   4.990   4.988   2.633 -0.8791 -1.0516 -0.4492
 4897SOL    MW419322   4.977   4.994   2.548  0.3149  0.2294  0.3633
 4898SOL     OW19323   2.160   1.320   2.388  0.0881 -0.0620 -0.2278
 4898SOL    HW219324   2.082   1.287   2.432  0.7093  0.3031  1.1888
 4898SOL    HW319325   2.132   1.405   2.352 -0.6915 -0.7871 -1.4233
 4898SOL    MW419326   2.146   1.327   2.389 -0.5954 -0.2528  0.6548
 4899SOL     OW19327   0.516   3.929   3.636  0.6708  0.2871 -0.0140
 4899SOL    HW219328   0.516   3.980   3.555  0.5146  0.9547  0.3999
 4899SOL    HW319329   0.609   3.915   3.655  0.7978 -2.6830 -2.0068
 4899SOL    MW419330   0.528   3.934   3.628 -0.3038  0.1920 -0.0285
 4900SOL     OW19331   1.068   6.063   0.848  0.6094  0.1563  1.0059
 4900SOL    HW219332   1.010   6.057   0.924  0.3339  1.7432  0.9537
 4900SOL    HW319333   1.155   6.080   0.885  0.6303  0.0690  0.9971
 4900SOL    MW419334   1.072   6.064   0.863  0.1324 -0.5107  0.1563
 4901SOL     OW19335   0.859   0.080   2.902  0.0790  0.5927  0.5013
 4901SOL    HW219336   0.915   0.056   2.828  0.4750  2.3044  0.2018
 4901SOL    HW319337   0.775   0.102   2.863 -0.6401 -1.2790  0.8841
 4901SOL    MW419338   0.855   0.080   2.887  0.4401  0.6471 -0.0880
 4902SOL     OW19339   5.895   4.533   4.359  0.0879  0.3462  0.2732
 4902SOL    HW219340   5.806   4.497   4.367 -0.1964  1.1958  1.1032
 4902SOL    HW319341   5.915   4.565   4.447  1.0036  0.6641 -0.0465
 4902SOL    MW419342   5.886   4.532   4.372  0.2229  0.1063  0.1856
 4903SOL     OW19343   4.658   2.542   4.321  0.2811 -0.2902 -0.0966
 4903SOL    HW219344   4.676   2.462   4.371  1.1158  0.6503  1.1579
 4903SOL    HW319345   4.743   2.585   4.313 -0.3671  1.1665  0.4944
 4903SOL    MW419346   4.672   2.537   4.327  0.2058  0.0680  0.3761
 4904SOL     OW19347   1.639   1.648   0.063 -0.5851  0.1782 -0.1911
 4904SOL    HW219348   1.669   1.598   0.138  1.3235  2.2812  0.5707
 4904SOL    HW319349   1.552   1.680   0.088  0.7524  2.4104  2.0624
 4904SOL    MW419350   1.631   1.646   0.076  0.3090  0.1242  0.3722
 4905SOL     OW19351   1.022   3.541   0.703  0.3529  0.2160 -0.7011
 4905SOL    HW219352   0.974   3.582   0.631  1.8981  0.7403 -1.4806
 4905SOL    HW319353   0.956   3.491   0.751 -0.6427 -0.4880 -2.7075
 4905SOL    MW419354   1.007   3.540   0.700  0.6408  0.5418 -0.2797
 4906SOL     OW19355   2.312   0.059   1.584 -0.2702  0.2299  0.3500
 4906SOL    HW219356   2.387   0.019   1.539 -1.8950 -0.9143 -1.4847
 4906SOL    HW319357   2.296   0.140   1.534 -0.8097  0.0147  0.1771
 4906SOL    MW419358   2.320   0.065   1.571 -0.6751  0.9530  0.0403
 4907SOL     OW19359   1.005   3.512   6.251 -0.4641 -0.2656  0.2191
 4907SOL    HW219360   1.008   3.447   6.181 -1.0491  0.5503 -0.5818
 4907SOL    HW319361   1.015   3.596   6.207 -0.3661  0.2415  1.1721
 4907SOL    MW419362   1.007   3.515   6.236 -0.3468 -0.7376  0.4751
 4908SOL     OW19363   0.764   0.356   1.948  0.7436 -0.3349 -0.2473
 4908SOL    HW219364   0.834   0.357   1.883  0.2613  0.4764 -0.7710
 4908SOL    HW319365   0.730   0.446   1.949 -1.1872 -0.9932 -1.0112
 4908SOL    MW419366   0.769   0.368   1.939 -0.3734 -0.0174  0.4775
 4909SOL     OW19367   5.438   3.646   2.487  0.2265 -0.2050 -0.4414
 4909SOL    HW219368   5.501   3.716   2.465  0.6168 -0.0987  0.9521
 4909SOL    HW319369   5.406   3.669   2.574  0.5310 -1.8690  0.1448
 4909SOL    MW419370   5.442   3.658   2.495  0.1643  0.0117 -0.1554
 4910SOL     OW19371   5.156   1.526   4.810 -0.3366 -0.6290 -0.4108
 4910SOL    HW219372   5.175   1.446   4.760  0.5205 -0.6858  0.0010
 4910SOL    HW319373   5.135   1.591   4.743  0.1564 -0.8785 -0.8169
 4910SOL    MW419374   5.155   1.524   4.795 -0.1345 -0.4293  0.6494
 4911SOL     OW19375   4.110   3.597   1.445  0.3275 -0.7530  0.5965
 4911SOL    HW219376   4.134   3.617   1.535  0.2916 -0.8794  0.6346
 4911SOL    HW319377   4.045   3.664   1.422  2.3211  1.0077 -0.2573
 4911SOL    MW419378   4.105   3.609   1.454 -0.2364  0.0506  0.2520
 4912SOL     OW19379   1.349   1.866   4.251  0.3125 -0.5867  0.2839
 4912SOL    HW219380   1.334   1.885   4.159 -0.0065 -1.9502  0.0347
 4912SOL    HW319381   1.309   1.939   4.298 -0.2639 -0.3052 -0.6349
 4912SOL    MW419382   1.342   1.878   4.245  0.0894 -0.0415  0.0887
 4913SOL     OW19383   1.428   2.659   0.782 -0.2612 -0.2390 -0.1522
 4913SOL    HW219384   1.482   2.738   0.779  0.9238 -1.0092  0.2807
 4913SOL    HW319385   1.414   2.643   0.875  1.1985 -1.6334 -0.1323
 4913SOL    MW419386   1.433   2.667   0.794 -0.0739 -0.0683  1.3683
 4914SOL     OW19387   3.658   4.966   1.301 -0.0814 -0.1918 -0.4239
 4914SOL    HW219388   3.622   4.879   1.286 -0.6485  0.0286 -0.3867
 4914SOL    HW319389   3.588   5.013   1.346  0.6955 -0.1067  0.7324
 4914SOL    MW419390   3.644   4.961   1.305 -0.2646 -0.2447 -0.0369
 4915SOL     OW19391   1.936   5.187   2.170  0.4266  0.4643  0.3563
 4915SOL    HW219392   2.022   5.145   2.171  0.5040  0.6205  0.2837
 4915SOL    HW319393   1.876   5.117   2.143  0.5565  0.4052  0.2136
 4915SOL    MW419394   1.939   5.172   2.166 -0.6464  0.2673 -0.1563
 4916SOL     OW19395   2.024   5.243   5.314  0.1204  0.3426 -0.4644
 4916SOL    HW219396   2.063   5.327   5.290 -1.3514  0.5827 -2.1984
 4916SOL    HW319397   2.050   5.184   5.243 -0.6665 -0.1056 -0.3871
 4916SOL    MW419398   2.033   5.246   5.302  0.5377 -0.1091  0.4662
 4917SOL     OW19399   5.566   2.036   0.592  0.0174 -0.1315  0.4387
 4917SOL    HW219400   5.485   2.050   0.640  0.1537 -0.3455  0.7310
 4917SOL    HW319401   5.587   2.122   0.554  0.6637  0.3978  1.9306
 4917SOL    MW419402   5.558   2.049   0.593 -0.3693 -0.7519 -0.0986
 4918SOL     OW19403   1.543   0.845   0.434 -0.0402 -0.2380 -0.0991
 4918SOL    HW219404   1.520   0.769   0.487  1.4655 -1.7652 -1.5167
 4918SOL    HW319405   1.474   0.849   0.367 -0.8388  0.4725  0.7469
 4918SOL    MW419406   1.531   0.836   0.432 -0.0304  0.0648 -0.3807
 4919SOL     OW19407   2.129   2.972   1.282  0.0636 -0.4791 -0.6315
 4919SOL    HW219408   2.218   2.998   1.306 -0.5002  1.5683 -0.6332
 4919SOL    HW319409   2.112   3.017   1.199 -0.9584 -0.8999 -0.6661
 4919SOL    MW419410   2.138   2.981   1.274 -0.2166 -0.1339  0.0157
 4920SOL     OW19411   2.406   2.897   2.212  0.2837  0.8159 -0.1428
 4920SOL    HW219412   2.492   2.889   2.254  0.3725  0.8010 -0.3259
 4920SOL    HW319413   2.354   2.827   2.252  0.2192  1.1168  0.3003
 4920SOL    MW419414   2.411   2.886   2.222  0.2102 -0.1305  0.2834
 4921SOL     OW19415   3.190   5.427   1.595 -0.4698  0.0520 -0.3793
 4921SOL    HW219416   3.199   5.469   1.510  0.2173  0.9403  0.1154
 4921SOL    HW319417   3.181   5.500   1.657 -1.7787 -0.5909  0.2319
 4921SOL    MW419418   3.190   5.442   1.592  0.2169 -0.4110  0.2942
 4922SOL     OW19419   3.419   1.176   2.529  0.2904  0.0143  0.1134
 4922SOL    HW219420   3.359   1.246   2.556  0.2363 -0.6165  1.7809
 4922SOL    HW319421   3.401   1.163   2.436 -1.4512  0.5523  0.3379
 4922SOL    MW419422   3.408   1.183   2.520  0.0579  0.5454 -0.7313
 4923SOL     OW19423   3.585   1.193   4.974 -0.5161 -0.2293 -0.1570
 4923SOL    HW219424   3.506   1.194   5.030 -0.4231 -1.0334 -0.0024
 4923SOL    HW319425   3.569   1.123   4.911  0.7737 -1.5535  0.9167
 4923SOL    MW419426   3.572   1.184   4.973 -0.3172 -0.1826 -0.4202
 4924SOL     OW19427   0.067   2.028   3.449 -0.1250  0.3431 -0.3318
 4924SOL    HW219428   0.067   1.994   3.538  1.2445 -0.3682 -0.5691
 4924SOL    HW319429   0.045   1.953   3.394 -3.5854  1.3184 -0.5028
 4924SOL    MW419430   0.064   2.014   3.453 -0.5845 -0.5352 -0.3765
 4925SOL     OW19431   5.796   5.376   2.658 -0.2601  0.4383  0.3365
 4925SOL    HW219432   5.873   5.407   2.610  1.3440 -0.2218  2.3447
 4925SOL    HW319433   5.787   5.284   2.635 -0.3629  0.4790  0.2132
 4925SOL    MW419434   5.805   5.368   2.649 -0.3513 -0.2059  0.2235
 4926SOL     OW19435   4.776   0.237   2.189  0.0291 -0.3420 -0.1311
 4926SOL    HW219436   4.810   0.265   2.274  1.0845  0.0771 -0.6739
 4926SOL    HW319437   4.796   0.143   2.185 -0.5312 -0.4864  0.3083
 4926SOL    MW419438   4.783   0.228   2.200  0.3092 -0.4738 -0.0178
 4927SOL     OW19439   0.010   2.611   5.496  0.0391  0.2073 -0.4799
 4927SOL    HW219440  -0.003   2.628   5.589  0.1732 -0.3104 -0.3625
 4927SOL    HW319441  -0.065   2.557   5.470  1.1322 -1.5779 -0.1293
 4927SOL    MW419442  -0.002   2.606   5.505  0.3366  0.0083 -0.4676
 4928SOL     OW19443   6.269   4.367   2.863  0.2971 -0.0786  0.1698
 4928SOL    HW219444   6.235   4.407   2.783  1.4594 -2.6336 -1.7535
 4928SOL    HW319445   6.360   4.394   2.868  0.5609 -0.8969 -0.0723
 4928SOL    MW419446   6.276   4.376   2.853 -0.1910  0.1037  0.3170
 4929SOL     OW19447   0.153   4.512   1.214  0.4719  0.2530 -0.6416
 4929SOL    HW219448   0.117   4.530   1.127  1.0545 -1.5725 -1.3028
 4929SOL    HW319449   0.143   4.418   1.225  0.2022  0.4857  1.3918
 4929SOL    MW419450   0.147   4.502   1.204 -0.7510 -0.2179 -0.7626
 4930SOL     OW19451   1.267   2.536   2.543 -0.1432 -0.5837  0.1537
 4930SOL    HW219452   1.262   2.528   2.448 -2.0103  2.6408 -0.1803
 4930SOL    HW319453   1.176   2.550   2.571  0.6170  1.3632  1.9923
 4930SOL    MW419454   1.254   2.537   2.534 -0.0594  0.2865 -0.1932
 4931SOL     OW19455   0.509   5.219   2.859  0.4732  0.6529  0.3600
 4931SOL    HW219456   0.518   5.307   2.896 -0.0431  0.3255  1.3223
 4931SOL    HW319457   0.579   5.212   2.794  1.4356  1.2753  1.2956
 4931SOL    MW419458   0.519   5.229   2.856  0.1343  0.4026 -0.1914
 4932SOL     OW19459   2.124   1.489   1.411 -0.5867  0.4532 -0.2066
 4932SOL    HW219460   2.205   1.538   1.399 -0.2696 -0.5920 -3.0361
 4932SOL    HW319461   2.142   1.402   1.376 -2.1498 -0.6893  1.5973
 4932SOL    MW419462   2.137   1.484   1.405 -0.1031  0.5480  0.6107
 4933SOL     OW19463   1.191   1.769   2.638 -0.1080 -0.6466 -0.2572
 4933SOL    HW219464   1.244   1.713   2.695 -1.3423  0.0939  1.7208
 4933SOL    HW319465   1.240   1.851   2.633 -0.2231 -0.5517  0.1423
 4933SOL    MW419466   1.205   1.773   2.645 -0.1593 -0.0500  0.2654
 4934SOL     OW19467   1.077   1.253   3.938 -0.5920 -0.1441  0.1095
 4934SOL    HW219468   1.022   1.174   3.936 -1.3107  0.3384  0.3526
 4934SOL    HW319469   1.086   1.273   4.031 -0.4712  0.1023  0.0448
 4934SOL    MW419470   1.071   1.245   3.950 -0.4424  0.3181 -0.7838
 4935SOL     OW19471   3.023   0.727   3.866 -0.5003  0.3930 -0.1841
 4935SOL    HW219472   3.058   0.794   3.808  0.0020 -1.8388 -2.6497
 4935SOL    HW319473   3.099   0.692   3.912 -0.7787  1.5033  1.2019
 4935SOL    MW419474   3.037   0.731   3.864  0.0366  0.1464 -0.1421
 4936SOL     OW19475   2.903   5.403   0.622  0.3404  0.3844  0.0023
 4936SOL    HW219476   2.968   5.406   0.692  1.6916 -0.2011 -1.1849
 4936SOL    HW319477   2.823   5.436   0.663  0.9631 -0.3463  1.9428
 4936SOL    MW419478   2.901   5.408   0.637  0.2273  0.3698 -0.0907
 4937SOL     OW19479   5.710   3.012   2.862  0.3723  0.2625 -0.0206
 4937SOL    HW219480   5.715   2.943   2.928  0.4706 -0.9846 -1.2972
 4937SOL    HW319481   5.641   3.071   2.894  0.7038 -0.0773  1.3885
 4937SOL    MW419482   5.702   3.011   2.875  0.2867  0.5828  0.0323
 4938SOL     OW19483   6.375   1.310   4.262 -0.0140 -0.2725  0.0915
 4938SOL    HW219484   6.438   1.324   4.191  0.0975  1.8823  0.5612
 4938SOL    HW319485   6.289   1.314   4.220  0.0901 -0.9329 -0.1972
 4938SOL    MW419486   6.372   1.312   4.247 -0.4540  0.5377 -0.0731
 4939SOL     OW19487   5.620   2.649   0.325 -0.3327 -0.3447  0.8874
 4939SOL    HW219488   5.679   2.681   0.258  0.2385 -0.1832  1.4600
 4939SOL    HW319489   5.663   2.572   0.361 -2.3963 -2.8296 -1.5470
 4939SOL    MW419490   5.633   2.643   0.321  0.3043 -0.5899 -0.3243
 4940SOL     OW19491   3.061   2.727   3.020 -0.0024 -0.2981  0.2735
 4940SOL    HW219492   3.056   2.650   2.964 -1.2783  0.1309 -0.2131
 4940SOL    HW319493   3.091   2.797   2.963 -1.3012  0.1390  0.1000
 4940SOL    MW419494   3.065   2.726   3.005 -0.6912  0.3083  0.1337
 4941SOL     OW19495   5.530   4.352   1.275  0.1369 -0.4477  0.7913
 4941SOL    HW219496   5.587   4.414   1.321  0.7291 -0.8206  0.5767
 4941SOL    HW319497   5.524   4.276   1.333  1.0517 -1.0016  0.1812
 4941SOL    MW419498   5.537   4.350   1.289 -0.1402  0.9948 -0.1853
 4942SOL     OW19499   0.815   1.356  -0.002  0.0971 -0.8679 -0.0352
 4942SOL    HW219500   0.746   1.419   0.020  1.8971  0.6585  1.6388
 4942SOL    HW319501   0.771   1.271   0.002 -2.0135  0.1198 -0.5740
 4942SOL    MW419502   0.800   1.353   0.001 -0.1680  0.0491  0.6965
 4943SOL     OW19503   0.284   0.343   5.166 -0.4261 -0.5244 -0.2240
 4943SOL    HW219504   0.189   0.358   5.165 -0.6785 -1.9565  0.2505
 4943SOL    HW319505   0.300   0.292   5.087 -0.4455 -2.3311  0.8878
 4943SOL    MW419506   0.273   0.338   5.155  0.3119 -0.3043  0.1175
 4944SOL     OW19507   4.553   0.218   5.154  0.3408 -0.0147  0.3217
 4944SOL    HW219508   4.598   0.155   5.210 -3.3560 -1.2035  2.3229
 4944SOL    HW319509   4.464   0.184   5.146 -0.9243  3.2315 -1.4240
 4944SOL    MW419510   4.547   0.205   5.160 -0.0041 -0.2954 -0.3475
 4945SOL     OW19511   5.443   1.970   2.480 -0.7785  0.4757 -0.4313
 4945SOL    HW219512   5.381   1.946   2.549 -0.8512  0.7537 -0.3986
 4945SOL    HW319513   5.513   2.016   2.526  0.3897 -1.4115 -0.1945
 4945SOL    MW419514   5.444   1.973   2.495  0.2456 -0.5843  0.2480
 4946SOL     OW19515   3.832   0.536   3.875  0.0771  0.0745 -0.2238
 4946SOL    HW219516   3.808   0.623   3.845 -1.1726 -0.0313  0.4072
 4946SOL    HW319517   3.894   0.552   3.946 -1.8327  0.5896  1.4267
 4946SOL    MW419518   3.837   0.550   3.880  0.0279 -0.2670  0.0337
 4947SOL     OW19519   0.196   0.280   2.585  0.7661 -0.1592 -0.1194
 4947SOL    HW219520   0.213   0.290   2.492 -1.3144 -2.4572 -0.8589
 4947SOL    HW319521   0.203   0.186   2.600  0.6198  0.1182  1.9569
 4947SOL    MW419522   0.199   0.269   2.575 -0.0369 -0.3418 -0.0015
 4948SOL     OW19523   0.841   0.813   1.777  0.4232 -0.7428 -0.3479
 4948SOL    HW219524   0.852   0.784   1.686  1.7383 -1.3192 -0.0328
 4948SOL    HW319525   0.928   0.842   1.804 -0.0683 -0.0458  0.5667
 4948SOL    MW419526   0.854   0.813   1.769  0.0939  0.7344  0.5337
 4949SOL     OW19527   3.598   6.284   3.482  0.4562  0.4533  0.1507
 4949SOL    HW219528   3.509   6.288   3.517 -0.2598 -2.5926 -1.0522
 4949SOL    HW319529   3.595   6.339   3.403  0.0468  1.4068  0.8098
 4949SOL    MW419530   3.586   6.292   3.476  0.2672 -0.2061  0.4584
 4950SOL     OW19531   4.566   3.899   0.006  0.5612  0.0781 -0.3414
 4950SOL    HW219532   4.472   3.884   0.015  0.9254 -1.2608  1.8084
 4950SOL    HW319533   4.576   3.926  -0.085 -1.7898 -0.6515 -0.9092
 4950SOL    MW419534   4.555   3.900  -0.005  0.0455 -0.3108  0.4355
 4951SOL     OW19535   5.494   1.456   0.882  0.2067 -0.0593  0.2014
 4951SOL    HW219536   5.409   1.457   0.926  0.4134 -2.1857  0.7726
 4951SOL    HW319537   5.473   1.460   0.789 -0.5750 -1.0911  0.3145
 4951SOL    MW419538   5.480   1.457   0.876 -0.2000  0.0846  0.2915
 4952SOL     OW19539   0.673   2.838   2.192 -0.5503 -0.6122  0.3270
 4952SOL    HW219540   0.692   2.914   2.247  0.7484 -0.6276 -0.0609
 4952SOL    HW319541   0.642   2.876   2.109 -0.5627 -0.5271  0.3699
 4952SOL    MW419542   0.671   2.853   2.188  0.1471 -0.4142  0.3908
 4953SOL     OW19543   4.752   1.091   2.330  0.3705 -0.0133  0.0006
 4953SOL    HW219544   4.781   1.007   2.367  0.5255  0.2590  0.5115
 4953SOL    HW319545   4.811   1.106   2.256  0.7692 -0.0433  0.3063
 4953SOL    MW419546   4.763   1.082   2.325  0.4121  0.0120 -0.1133
 4954SOL     OW19547   2.851   3.078   1.201 -0.1204 -0.1558  0.1674
 4954SOL    HW219548   2.830   3.140   1.271  0.1006 -1.4555  1.4237
 4954SOL    HW319549   2.897   3.131   1.136  0.6448  0.8959  1.5009
 4954SOL    MW419550   2.855   3.093   1.202 -0.7253 -0.3978 -0.6876
 4955SOL     OW19551   3.311   0.066   3.411  0.3024  0.2385 -0.0126
 4955SOL    HW219552   3.264   0.016   3.344 -1.5390 -0.0309  1.3794
 4955SOL    HW319553   3.400   0.075   3.377 -0.7034  0.7124 -2.7907
 4955SOL    MW419554   3.316   0.060   3.398  0.0858  0.3114 -0.6370
 4956SOL     OW19555   5.395   0.862   3.417 -0.5310 -0.3067 -0.2817
 4956SOL    HW219556   5.318   0.888   3.367 -1.1877 -2.7463 -0.6580
 4956SOL    HW319557   5.363   0.848   3.506 -0.2167  0.0300 -0.1123
 4956SOL    MW419558   5.381   0.864   3.422 -0.2384 -0.2458  0.0566
 4957SOL     OW19559   4.129   0.686   3.624 -0.7597  0.5727 -0.5045
 4957SOL    HW219560   4.155   0.641   3.704 -0.7773  0.5752 -0.4972
 4957SOL    HW319561   4.048   0.643   3.597  0.4384 -0.9796 -1.7921
 4957SOL    MW419562   4.122   0.675   3.631 -0.9376  0.1778 -0.0974
 4958SOL     OW19563   0.344   3.289   1.076 -0.0564 -0.5245  0.3034
 4958SOL    HW219564   0.320   3.270   1.166 -1.3304 -0.3884  0.0128
 4958SOL    HW319565   0.334   3.384   1.068  0.9105 -0.4140  0.2450
 4958SOL    MW419566   0.340   3.299   1.087  0.4234 -0.2100 -0.4988
 4959SOL     OW19567   0.009   3.095   2.603  0.5150  0.8634  0.2868
 4959SOL    HW219568   0.078   3.144   2.649  0.2805  0.1110  1.4801
 4959SOL    HW319569  -0.069   3.109   2.656  0.0740  0.5333 -0.2739
 4959SOL    MW419570   0.008   3.104   2.616 -0.5591 -0.3550  0.1424
 4960SOL     OW19571   3.821   1.307   1.646 -0.0458  0.0893  0.0532
 4960SOL    HW219572   3.726   1.304   1.654 -0.1327  2.5617  0.9605
 4960SOL    HW319573   3.852   1.246   1.713 -0.9657 -0.6012 -0.1251
 4960SOL    MW419574   3.813   1.299   1.656 -0.4500 -0.4233 -0.4619
 4961SOL     OW19575   3.369   3.005   3.105 -0.0950  0.0773 -0.6339
 4961SOL    HW219576   3.392   2.919   3.070  1.4403  0.5766 -0.9235
 4961SOL    HW319577   3.452   3.050   3.115 -0.7910  1.1787  0.4835
 4961SOL    MW419578   3.383   2.999   3.102  0.0780 -0.0834 -0.5925
 4962SOL     OW19579   0.337   3.636   4.368  0.2550 -0.4845  0.0248
 4962SOL    HW219580   0.336   3.692   4.446 -1.0132 -0.9803  0.3982
 4962SOL    HW319581   0.413   3.579   4.380 -0.4415 -1.1753  1.3804
 4962SOL    MW419582   0.347   3.636   4.380  0.4280  0.0004 -0.1184
 4963SOL     OW19583   5.322   5.848   3.387 -0.4289  0.3947 -0.0284
 4963SOL    HW219584   5.276   5.865   3.304 -0.4917  2.9790  0.4313
 4963SOL    HW319585   5.400   5.903   3.382 -0.9178  1.3550  1.9737
 4963SOL    MW419586   5.326   5.858   3.375  0.0185  0.7874 -0.5479
 4964SOL     OW19587   0.379   0.564   4.841  0.5006 -0.3086  0.4377
 4964SOL    HW219588   0.449   0.524   4.892  0.6739 -0.8425 -0.1947
 4964SOL    HW319589   0.417   0.575   4.753  0.0684  0.1750  0.3074
 4964SOL    MW419590   0.394   0.560   4.836  0.8884 -0.2877  0.1454
 4965SOL     OW19591   0.397   5.170   4.335 -0.4656 -0.4721 -0.0770
 4965SOL    HW219592   0.355   5.252   4.312 -0.1265 -1.0609 -3.1618
 4965SOL    HW319593   0.440   5.187   4.419 -2.5301  1.6557  0.6442
 4965SOL    MW419594   0.397   5.183   4.343  0.5263  0.6227 -0.5084
 4966SOL     OW19595   1.581   2.847   0.505 -0.0303 -0.5195  0.3181
 4966SOL    HW219596   1.491   2.830   0.478 -0.3923 -1.7565  2.1566
 4966SOL    HW319597   1.591   2.942   0.499 -0.5539 -0.5407 -2.4682
 4966SOL    MW419598   1.571   2.857   0.501 -0.4191  0.2525 -0.8785
 4967SOL     OW19599   2.565   4.526   5.377  0.3836 -0.1979 -0.2816
 4967SOL    HW219600   2.574   4.596   5.442 -0.0184 -0.6824  0.3066
 4967SOL    HW319601   2.517   4.457   5.422  0.9654 -0.9535 -0.7850
 4967SOL    MW419602   2.560   4.526   5.391 -0.1836 -0.2542 -0.5933
 4968SOL     OW19603   0.559   1.269   5.329  0.3827  0.2678 -0.1890
 4968SOL    HW219604   0.515   1.306   5.253  3.2506  0.9486 -1.6337
 4968SOL    HW319605   0.552   1.174   5.316  0.9737  0.3700 -1.4354
 4968SOL    MW419606   0.552   1.261   5.317 -0.6878  0.0114 -0.2649
 4969SOL     OW19607   4.430   0.721   3.992 -0.0215 -0.2693 -0.1440
 4969SOL    HW219608   4.358   0.765   4.038  1.2168  4.5343 -2.2069
 4969SOL    HW319609   4.409   0.731   3.899  2.0545 -1.1764 -0.7713
 4969SOL    MW419610   4.417   0.728   3.986 -0.2260 -0.1949  0.3487
 4970SOL     OW19611   1.800   4.272   3.921 -0.2735  0.0627  0.0706
 4970SOL    HW219612   1.890   4.289   3.949  0.1502  2.3775 -2.2727
 4970SOL    HW319613   1.808   4.207   3.851 -0.7285 -1.4442  1.3629
 4970SOL    MW419614   1.813   4.266   3.915  0.3358  0.2151 -0.7496
 4971SOL     OW19615   5.119   3.458   1.247 -0.1266 -0.1296 -0.9470
 4971SOL    HW219616   5.121   3.491   1.157  0.6234 -0.4491 -1.0588
 4971SOL    HW319617   5.202   3.412   1.257 -1.4370 -2.7289 -1.0814
 4971SOL    MW419618   5.130   3.456   1.236 -0.1245  0.2643 -0.1973
 4972SOL     OW19619   4.780   2.291   3.566  0.0380 -0.0524 -0.2595
 4972SOL    HW219620   4.746   2.251   3.647  1.0404 -1.0437 -0.3149
 4972SOL    HW319621   4.872   2.265   3.563 -0.1039 -0.4852 -1.9978
 4972SOL    MW419622   4.788   2.282   3.577 -0.2254 -0.0775  0.3999
 4973SOL     OW19623   5.470   3.873   5.846 -0.3938 -0.0448  0.2196
 4973SOL    HW219624   5.463   3.842   5.755 -1.0885 -0.9039  0.5582
 4973SOL    HW319625   5.398   3.935   5.856  0.9350  1.6843 -0.4268
 4973SOL    MW419626   5.460   3.877   5.835 -0.4514 -0.5601 -0.3584
 4974SOL     OW19627   3.734   6.118   5.062 -0.2424 -0.0908 -0.0420
 4974SOL    HW219628   3.811   6.163   5.095 -0.4278 -0.8191  1.4644
 4974SOL    HW319629   3.660   6.168   5.096 -0.5216  1.4951 -2.7079
 4974SOL    MW419630   3.734   6.130   5.071  0.0342 -0.2701 -0.7219
 4975SOL     OW19631   3.836   5.016   5.252  0.4329  0.3682  0.4981
 4975SOL    HW219632   3.897   4.945   5.232  0.5419 -0.1911  2.5735
 4975SOL    HW319633   3.882   5.095   5.226  1.3355 -0.1536  0.4824
 4975SOL    MW419634   3.850   5.017   5.246  0.4465  0.6669  0.0394
 4976SOL     OW19635   5.116   4.441   4.458  0.2249  0.2165  0.1912
 4976SOL    HW219636   5.078   4.398   4.381 -1.5665  0.8116  0.6788
 4976SOL    HW319637   5.042   4.451   4.518  1.5753 -0.2504  2.0265
 4976SOL    MW419638   5.101   4.437   4.456  0.0638 -0.0126  0.0275
 4977SOL     OW19639   3.371   0.908   6.112  0.3055  0.2618 -0.3348
 4977SOL    HW219640   3.407   0.896   6.024 -0.5357 -2.5704 -0.3955
 4977SOL    HW319641   3.385   1.001   6.131 -0.5256  1.2701 -3.8838
 4977SOL    MW419642   3.378   0.919   6.103  0.5001  0.0959  0.2957
 4978SOL     OW19643   3.766   5.854   2.328  1.1817 -0.4031 -0.2277
 4978SOL    HW219644   3.750   5.797   2.403 -0.0322  0.1957 -0.0021
 4978SOL    HW319645   3.681   5.894   2.309  1.0700 -1.6355 -2.8558
 4978SOL    MW419646   3.752   5.852   2.335 -0.8173  0.0266 -0.0757
 4979SOL     OW19647   3.205   4.407   3.752  0.7561 -0.1193  0.3890
 4979SOL    HW219648   3.221   4.486   3.804 -0.4473  0.7712 -0.5205
 4979SOL    HW319649   3.248   4.424   3.669  1.4225 -0.9098  0.5627
 4979SOL    MW419650   3.213   4.420   3.748  0.0529  0.4805 -0.4573
 4980SOL     OW19651   6.414   3.703   6.359 -0.1712 -0.1343  0.1811
 4980SOL    HW219652   6.452   3.743   6.437 -0.1026  0.3761 -0.1122
 4980SOL    HW319653   6.486   3.697   6.297 -0.5742  0.9140 -0.4092
 4980SOL    MW419654   6.428   3.707   6.362  0.8518  0.2524 -0.5008
 4981SOL     OW19655   5.520   5.189   5.934 -0.1443  0.2571 -0.0063
 4981SOL    HW219656   5.533   5.097   5.909 -0.7393 -0.6397  2.6302
 4981SOL    HW319657   5.503   5.234   5.851  0.7215 -1.8832 -1.4493
 4981SOL    MW419658   5.520   5.183   5.919  0.4067 -0.0018 -0.2770
 4982SOL     OW19659   2.890   3.575   4.745 -0.1645 -0.2330 -0.5860
 4982SOL    HW219660   2.795   3.571   4.730 -0.1209  0.8752 -1.3506
 4982SOL    HW319661   2.917   3.484   4.754 -1.4465 -0.5248  0.6814
 4982SOL    MW419662   2.881   3.562   4.744  0.1728  0.4764  0.1585
 4983SOL     OW19663   1.036   0.057   5.549 -0.5916  0.6120 -0.9042
 4983SOL    HW219664   1.057   0.071   5.456  0.2669 -1.3676 -1.0503
 4983SOL    HW319665   1.116   0.021   5.587 -0.4293  2.7420  1.0054
 4983SOL    MW419666   1.049   0.054   5.541  0.4119  0.3663 -0.0185
 4984SOL     OW19667   5.682   6.367   5.729 -0.1295  0.4916  0.1389
 4984SOL    HW219668   5.592   6.395   5.709 -0.5783 -0.6114  0.5100
 4984SOL    HW319669   5.736   6.409   5.662 -1.0656  0.2705 -0.7780
 4984SOL    MW419670   5.677   6.376   5.717 -0.5883  0.0339 -0.1161
 4985SOL     OW19671   0.201   2.903   3.505 -0.2868 -0.5263 -0.1353
 4985SOL    HW219672   0.185   2.830   3.566  1.3845 -2.3507 -1.7391
 4985SOL    HW319673   0.282   2.943   3.536 -0.5237 -0.1591  0.0111
 4985SOL    MW419674   0.209   2.899   3.517 -0.1843 -0.3418 -0.8842
 4986SOL     OW19675   5.146   3.733   2.959  0.3827 -0.3862 -0.6325
 4986SOL    HW219676   5.197   3.814   2.951  0.8455 -0.3729  1.7130
 4986SOL    HW319677   5.206   3.664   2.933 -0.0292 -0.0246 -2.6977
 4986SOL    MW419678   5.161   3.735   2.955  0.4870 -0.3431 -0.2504
 4987SOL     OW19679   1.927   3.056   3.741  0.0807 -0.3824  0.4153
 4987SOL    HW219680   1.993   2.987   3.729 -0.7402 -0.9506 -1.2309
 4987SOL    HW319681   1.968   3.118   3.801  1.4944 -1.4966  0.6666
 4987SOL    MW419682   1.941   3.055   3.747  0.3116  0.0054  0.1397
 4988SOL     OW19683   4.948   2.140   5.106 -0.1510 -0.2617  0.1473
 4988SOL    HW219684   4.953   2.233   5.129 -0.5171 -0.1974 -0.0285
 4988SOL    HW319685   4.984   2.135   5.017 -0.8346 -0.1716 -0.1402
 4988SOL    MW419686   4.953   2.151   5.097  0.5775 -0.0308  0.1150
 4989SOL     OW19687   5.498   1.974   1.233  0.0107  0.0532  0.4404
 4989SOL    HW219688   5.554   2.047   1.260 -0.3484  1.4279 -2.2457
 4989SOL    HW319689   5.559   1.908   1.201  0.2532 -0.0308  1.0626
 4989SOL    MW419690   5.513   1.975   1.233  0.2700 -0.0044  0.3734
 4990SOL     OW19691   4.135   3.124   2.036  0.3326 -0.3168 -0.6762
 4990SOL    HW219692   4.098   3.090   2.117  1.5930  0.1399  0.1250
 4990SOL    HW319693   4.229   3.133   2.055  0.4831  0.7868 -1.8443
 4990SOL    MW419694   4.143   3.121   2.049 -0.1379  0.2718 -0.0278
 4991SOL     OW19695   6.127   2.893   3.516  0.0564  0.1367  0.4617
 4991SOL    HW219696   6.216   2.926   3.518  0.4602 -0.9770  2.1375
 4991SOL    HW319697   6.133   2.803   3.547 -1.7967  0.4046  1.7536
 4991SOL    MW419698   6.139   2.885   3.520  0.2114  0.0364 -0.7691
 4992SOL     OW19699   4.909   0.525   5.450 -0.0825 -0.4868 -0.1280
 4992SOL    HW219700   4.862   0.583   5.510 -1.2642 -0.0610 -1.4296
 4992SOL    HW319701   4.877   0.548   5.363 -0.4821 -2.9580 -0.7098
 4992SOL    MW419702   4.899   0.536   5.447 -0.1040 -0.0708 -0.4136
 4993SOL     OW19703   4.879   5.897   0.767 -0.9012 -0.0265  0.8180
 4993SOL    HW219704   4.830   5.887   0.685  0.8528  0.1567 -0.2979
 4993SOL    HW319705   4.891   5.808   0.798 -0.2799 -0.2224  0.0546
 4993SOL    MW419706   4.874   5.884   0.760 -0.1847  0.1859 -0.0234
 4994SOL     OW19707   5.793   0.856   4.454  0.1433 -0.8019 -0.2164
 4994SOL    HW219708   5.712   0.805   4.451 -1.1435  1.1867 -0.6244
 4994SOL    HW319709   5.793   0.896   4.541 -0.1970  0.5364 -0.8098
 4994SOL    MW419710   5.783   0.854   4.465  0.1467  0.7332  0.9162
 4995SOL     OW19711   2.363   1.838   5.395  0.4010 -1.0920  0.2938
 4995SOL    HW219712   2.349   1.930   5.373  2.0147 -1.2699 -1.7190
 4995SOL    HW319713   2.375   1.838   5.490  0.7140  0.8258  0.2905
 4995SOL    MW419714   2.363   1.850   5.405 -0.7671 -0.4227 -0.2754
 4996SOL     OW19715   3.568   5.055   1.056 -0.2698  0.1260 -1.0370
 4996SOL    HW219716   3.637   5.116   1.032 -0.2555  0.5166 -0.0771
 4996SOL    HW319717   3.601   5.011   1.135 -2.3422  2.6633  1.4815
 4996SOL    MW419718   3.581   5.057   1.063  0.8413  0.2704  0.6276
 4997SOL     OW19719   6.434   5.698   0.529  0.3184  0.2100 -0.4636
 4997SOL    HW219720   6.491   5.775   0.538  1.3139 -0.4103 -1.1930
 4997SOL    HW319721   6.348   5.734   0.510  0.3731  1.1885  1.0093
 4997SOL    MW419722   6.430   5.713   0.527 -0.2484  0.2747  0.1788
 4998SOL     OW19723   1.641   6.314   6.303  0.1911  0.3520 -0.2981
 4998SOL    HW219724   1.716   6.297   6.247  0.6583  2.0717 -0.2529
 4998SOL    HW319725   1.587   6.375   6.253 -1.2413 -0.9200 -0.3636
 4998SOL    MW419726   1.644   6.320   6.289 -0.4774  0.6018  0.5681
 4999SOL     OW19727   1.915   0.781   4.985  0.5607 -0.1575  0.2281
 4999SOL    HW219728   1.833   0.760   4.941  0.5837 -0.1787  0.1958
 4999SOL    HW319729   1.931   0.707   5.044 -0.1574  0.4804  1.2488
 4999SOL    MW419730   1.907   0.769   4.987  0.1750  0.3211  0.0691
 5000SOL     OW19731   3.093   6.035   4.489 -0.3846 -0.3993 -0.5024
 5000SOL    HW219732   3.101   5.993   4.575  0.9947 -0.2484 -0.5280
 5000SOL    HW319733   3.032   6.107   4.503  1.2417  0.8042  0.8670
 5000SOL    MW419734   3.086   6.039   4.502 -0.0279  0.0902  0.4583
 5001SOL     OW19735   2.035   0.671   1.362  0.5569 -0.5062 -0.1089
 5001SOL    HW219736   1.993   0.591   1.330 -2.1260  1.9450 -3.5743
 5001SOL    HW319737   1.970   0.710   1.420 -0.7793  1.6448 -2.8055
 5001SOL    MW419738   2.020   0.665   1.365  0.1128 -0.4561 -0.0231
 5002SOL     OW19739   5.740   4.069   3.906 -0.0692 -0.3408  0.4831
 5002SOL    HW219740   5.729   4.149   3.958  1.8664  0.3702 -0.1191
 5002SOL    HW319741   5.679   4.079   3.833  0.0324  0.4989  0.5096
 5002SOL    MW419742   5.730   4.081   3.903 -0.3827  0.2393 -0.6113
 5003SOL     OW19743   1.154   1.576   6.100  0.0578 -0.3782  0.2378
 5003SOL    HW219744   1.221   1.513   6.075  0.9299 -0.0551  1.6058
 5003SOL    HW319745   1.092   1.525   6.153 -1.1405 -0.8042 -1.4952
 5003SOL    MW419746   1.155   1.561   6.104  0.1463 -0.1755  0.0108
 5004SOL     OW19747   4.258   3.553   2.785 -0.3243  0.3780 -0.2300
 5004SOL    HW219748   4.258   3.560   2.880 -1.8294 -0.8796 -0.1118
 5004SOL    HW319749   4.289   3.639   2.755  1.2044  0.4454  1.3753
 5004SOL    MW419750   4.262   3.565   2.793  0.0008  0.2748 -0.1430
 5005SOL     OW19751   4.278   4.286   2.839  0.1863 -0.1623 -0.1494
 5005SOL    HW219752   4.322   4.212   2.796  1.1690  0.0850  0.3903
 5005SOL    HW319753   4.263   4.256   2.928 -0.6730 -0.2018 -0.2986
 5005SOL    MW419754   4.282   4.272   2.845 -0.6699 -0.3167  0.3196
 5006SOL     OW19755   4.789   4.231   2.310 -0.1728 -0.1410  0.0531
 5006SOL    HW219756   4.870   4.190   2.280 -0.2694  0.5913 -1.2718
 5006SOL    HW319757   4.740   4.249   2.229 -0.6168  1.5766  0.6746
 5006SOL    MW419758   4.793   4.228   2.295 -0.4153 -0.0714 -0.1651
 5007SOL     OW19759   3.848   1.481   3.669 -0.0165  0.1734 -0.6396
 5007SOL    HW219760   3.865   1.394   3.632 -0.9942 -0.7803  1.0260
 5007SOL    HW319761   3.767   1.509   3.626  0.8057  0.7089 -1.8813
 5007SOL    MW419762   3.839   1.473   3.658  0.5635 -0.3579 -0.0942
 5008SOL     OW19763   4.259   1.647   4.682  0.3007 -0.0292  0.7193
 5008SOL    HW219764   4.260   1.741   4.702  1.9861 -0.4288  2.7768
 5008SOL    HW319765   4.283   1.604   4.764 -0.4749 -2.2896 -0.1602
 5008SOL    MW419766   4.262   1.654   4.695  0.1951 -0.0770 -0.1656
 5009SOL     OW19767   2.817   1.207   2.393  0.1009  0.1660 -0.2047
 5009SOL    HW219768   2.739   1.212   2.338  0.0157  0.0419 -0.0933
 5009SOL    HW319769   2.801   1.271   2.463 -0.3010 -0.5029  0.3318
 5009SOL    MW419770   2.805   1.216   2.395  0.4750 -0.0206  0.2002
 5010SOL     OW19771   2.905   4.052   3.835 -0.1897  0.3263  0.0358
 5010SOL    HW219772   2.935   4.060   3.745  1.0992 -0.1333  0.4011
 5010SOL    HW319773   2.849   4.128   3.849 -2.4214 -0.8508 -1.8683
 5010SOL    MW419774   2.902   4.063   3.825  0.7691 -0.1126 -0.2720
 5011SOL     OW19775   4.740   1.034   5.109 -0.2474  0.0723  0.7140
 5011SOL    HW219776   4.711   0.989   5.030 -1.9371 -1.4658  2.0876
 5011SOL    HW319777   4.786   0.967   5.159  1.7402  1.3006  0.6108
 5011SOL    MW419778   4.742   1.019   5.105 -0.5479 -0.6587  0.1643
 5012SOL     OW19779   1.092   4.282   2.638 -0.2179  0.5057 -0.6562
 5012SOL    HW219780   1.061   4.366   2.672 -1.8399 -0.6110  0.8756
 5012SOL    HW319781   1.177   4.269   2.681  0.3336  1.6090 -1.3810
 5012SOL    MW419782   1.099   4.291   2.648  0.7175  0.4372 -0.3411
 5013SOL     OW19783   1.364   3.203   0.520  0.0680  0.0138  0.0896
 5013SOL    HW219784   1.380   3.161   0.435  0.6317  0.0288  0.1820
 5013SOL    HW319785   1.282   3.250   0.509 -1.5256 -2.4937  0.4806
 5013SOL    MW419786   1.355   3.203   0.507 -0.3042  0.4689  0.8427
 5014SOL     OW19787   0.660   6.198   4.996 -0.1677 -0.4991 -0.3212
 5014SOL    HW219788   0.705   6.237   5.071  0.7098 -0.8520 -0.6572
 5014SOL    HW319789   0.577   6.166   5.033  0.9328 -2.1229  0.8718
 5014SOL    MW419790   0.655   6.199   5.011  0.0740 -0.0610 -0.3269
 5015SOL     OW19791   2.679   3.620   1.396 -0.4243 -0.0651 -0.6649
 5015SOL    HW219792   2.691   3.580   1.310 -2.3815 -0.3767 -0.8434
 5015SOL    HW319793   2.593   3.663   1.391  0.0470  1.1487  0.6768
 5015SOL    MW419794   2.669   3.621   1.384 -0.5396  0.7256 -0.1463
 5016SOL     OW19795   0.632   3.293   1.068  0.0105 -0.1939  0.2640
 5016SOL    HW219796   0.537   3.302   1.067  0.0065 -0.2014  0.5678
 5016SOL    HW319797   0.648   3.199   1.057  0.0594  0.0877 -3.3564
 5016SOL    MW419798   0.622   3.282   1.067 -0.2988 -0.6259 -0.6801
 5017SOL     OW19799   1.260   4.365   4.797 -0.0965  0.1137 -0.5659
 5017SOL    HW219800   1.289   4.280   4.763  0.0403  0.3274 -0.9827
 5017SOL    HW319801   1.310   4.429   4.747 -0.8188  0.4651 -0.8458
 5017SOL    MW419802   1.270   4.362   4.786 -0.0667 -0.1185  0.1635
 5018SOL     OW19803   4.863   4.565   2.306  0.1688 -0.3249  0.0268
 5018SOL    HW219804   4.897   4.493   2.254 -0.5779 -1.4249  1.0074
 5018SOL    HW319805   4.785   4.595   2.260  0.5254 -0.0774 -0.4221
 5018SOL    MW419806   4.857   4.560   2.293  0.1543  0.3605  0.6475
 5019SOL     OW19807   1.882   4.917   6.015 -0.2601 -0.1131 -0.2010
 5019SOL    HW219808   1.816   4.852   6.040  0.4967 -0.6380  0.5174
 5019SOL    HW319809   1.878   4.920   5.920 -0.8591 -0.6405 -0.1990
 5019SOL    MW419810   1.873   4.909   6.006 -0.3180 -0.0817  0.4855
 5020SOL     OW19811   0.778   4.285   6.022  0.2854 -0.0997  0.1637
 5020SOL    HW219812   0.761   4.326   5.937  0.7970 -1.1907 -0.4961
 5020SOL    HW319813   0.696   4.240   6.043  0.4391 -0.5537 -0.1887
 5020SOL    MW419814   0.765   4.284   6.013 -0.2769  0.1015 -0.0530
 5021SOL     OW19815   5.850   3.624   5.493 -0.2001 -0.4957  0.8228
 5021SOL    HW219816   5.781   3.635   5.428  0.3826 -1.4687 -0.0001
 5021SOL    HW319817   5.804   3.622   5.577 -1.1614 -0.9325  0.3075
 5021SOL    MW419818   5.835   3.625   5.495 -0.2475 -0.5625 -0.6930
 5022SOL     OW19819   3.070   0.643   1.037  0.3167 -0.3130  0.4103
 5022SOL    HW219820   3.000   0.689   1.084 -1.0021 -1.2828 -0.5423
 5022SOL    HW319821   3.050   0.550   1.047  0.0923 -0.5751 -1.8262
 5022SOL    MW419822   3.058   0.637   1.044  0.2713  0.3827 -0.2137
 5023SOL     OW19823   3.934   5.059   1.374 -0.0640  0.2617 -0.0837
 5023SOL    HW219824   3.979   4.983   1.338 -2.0210 -0.7720 -0.4869
 5023SOL    HW319825   3.842   5.046   1.352 -1.0779  0.7577  3.1875
 5023SOL    MW419826   3.927   5.048   1.367 -0.7044 -0.4600 -0.6570
 5024SOL     OW19827   4.271   6.387   4.403  0.2148  0.1874 -0.1408
 5024SOL    HW219828   4.352   6.434   4.424  0.6651 -0.6634  0.0646
 5024SOL    HW319829   4.243   6.423   4.319  0.9355  0.3089 -0.3289
 5024SOL    MW419830   4.278   6.398   4.395 -0.0677 -0.8163  0.0588
 5025SOL     OW19831   6.259   6.365   1.131  0.4611 -0.1956 -0.2490
 5025SOL    HW219832   6.238   6.297   1.195  1.6022 -0.7890 -0.4658
 5025SOL    HW319833   6.348   6.393   1.154  0.0921  1.0806 -0.3071
 5025SOL    MW419834   6.268   6.360   1.142  0.4523 -0.4921 -0.4555
 5026SOL     OW19835   4.336   3.410   4.770  0.4382  0.6322 -0.3617
 5026SOL    HW219836   4.326   3.505   4.771  0.9215  0.6827  0.8268
 5026SOL    HW319837   4.386   3.390   4.849  0.9902 -0.5457 -0.9816
 5026SOL    MW419838   4.341   3.420   4.781 -0.4553  0.0559  0.3433
 5027SOL     OW19839   6.134   4.816   2.492  0.4382 -0.2672 -0.0421
 5027SOL    HW219840   6.157   4.822   2.584 -1.1088 -0.4122  0.3713
 5027SOL    HW319841   6.079   4.738   2.486 -0.4284  0.3913 -0.8773
 5027SOL    MW419842   6.130   4.807   2.503 -0.5025  0.0684 -0.0636
 5028SOL     OW19843   2.408   5.964   5.460 -0.1027 -0.4054  0.2799
 5028SOL    HW219844   2.502   5.951   5.444 -0.6083 -2.1199 -1.6357
 5028SOL    HW319845   2.369   5.878   5.443 -2.1779  0.6137 -0.3521
 5028SOL    MW419846   2.415   5.951   5.455  0.1759  0.0852 -0.1588
 5029SOL     OW19847   3.908   0.436   5.122  0.1648  0.2231 -0.0472
 5029SOL    HW219848   3.983   0.432   5.180  0.2765  0.4023 -0.1789
 5029SOL    HW319849   3.885   0.344   5.106  0.5490  0.1612 -0.2554
 5029SOL    MW419850   3.915   0.423   5.127 -0.2083  0.0941  0.1239
 5030SOL     OW19851   5.260   6.180   1.023 -0.1089 -0.2359  0.2697
 5030SOL    HW219852   5.244   6.134   1.106  0.3418  1.4129  1.3250
 5030SOL    HW319853   5.307   6.260   1.049  0.8879 -0.1268 -1.6798
 5030SOL    MW419854   5.264   6.185   1.038  0.6711 -0.3073 -0.3829
 5031SOL     OW19855   1.884   0.506   5.390 -0.7641 -0.0052 -0.5868
 5031SOL    HW219856   1.843   0.442   5.331  2.7445 -1.9742 -1.1693
 5031SOL    HW319857   1.908   0.455   5.468 -1.8747  1.7162  0.9701
 5031SOL    MW419858   1.882   0.491   5.393 -0.2126  0.0673  0.2325
 5032SOL     OW19859   5.236   1.613   4.308  0.2673 -0.3270  0.1012
 5032SOL    HW219860   5.201   1.525   4.301  1.0577 -0.5550 -1.2207
 5032SOL    HW319861   5.223   1.637   4.400 -0.8563 -1.4215  0.2465
 5032SOL    MW419862   5.230   1.605   4.320 -0.8736 -0.4231 -0.6921
 5033SOL     OW19863   3.282   6.254   4.090 -0.0825  0.0963 -0.0479
 5033SOL    HW219864   3.330   6.171   4.098  0.9122  0.5192 -1.2881
 5033SOL    HW319865   3.326   6.313   4.152 -1.2460 -0.4640  1.3670
 5033SOL    MW419866   3.294   6.251   4.099  0.1483  0.3909 -0.0311
 5034SOL     OW19867   1.679   2.830   0.243  0.3766  0.8585  0.1036
 5034SOL    HW219868   1.774   2.838   0.235  0.6895 -1.0083  1.3836
 5034SOL    HW319869   1.663   2.834   0.338 -0.8634  1.3893 -0.1131
 5034SOL    MW419870   1.689   2.832   0.255  0.3618 -0.4739 -0.0209
 5035SOL     OW19871   4.814   0.260   0.472 -0.1301  0.5524  0.2717
 5035SOL    HW219872   4.779   0.326   0.412 -1.4545  0.3112  0.7507
 5035SOL    HW319873   4.761   0.268   0.551  0.8783  0.1198  1.0187
 5035SOL    MW419874   4.803   0.269   0.474  0.5622 -0.4186 -0.3057
 5036SOL     OW19875   1.946   2.269   5.373  0.1246  0.2465 -0.1684
 5036SOL    HW219876   2.023   2.266   5.430 -0.9714 -0.3364  1.3557
 5036SOL    HW319877   1.980   2.255   5.285  1.5700 -2.1590  0.6865
 5036SOL    MW419878   1.960   2.266   5.369  0.2669  0.2274 -0.2742
 5037SOL     OW19879   1.962   0.988   4.031 -0.2241  0.3788 -0.0574
 5037SOL    HW219880   2.022   0.981   3.957 -0.6211 -0.0123 -0.3490
 5037SOL    HW319881   1.996   1.061   4.083 -0.3255  1.1039 -0.9803
 5037SOL    MW419882   1.974   0.997   4.028 -0.2602 -0.2642 -0.1296
 5038SOL     OW19883   5.645   2.733   6.015  0.4528  0.1518 -0.0714
 5038SOL    HW219884   5.647   2.762   6.106 -0.0389  0.1979 -0.0686
 5038SOL    HW319885   5.699   2.655   6.013 -0.3864 -0.4641  0.4910
 5038SOL    MW419886   5.652   2.727   6.027  0.1909 -0.2506 -0.1892
 5039SOL     OW19887   3.763   4.902   3.322 -0.0780  0.2465 -0.4455
 5039SOL    HW219888   3.732   4.877   3.235  4.4557  0.2607 -2.3534
 5039SOL    HW319889   3.788   4.994   3.313 -0.4145  0.5245  1.1837
 5039SOL    MW419890   3.763   4.911   3.309  0.2020 -0.0586 -0.1225
 5040SOL     OW19891   6.198   1.917   0.885 -0.0176 -0.0182  0.0122
 5040SOL    HW219892   6.241   1.926   0.970  0.5348  0.8601 -0.3445
 5040SOL    HW319893   6.233   1.836   0.849  1.9465  1.0416 -0.5861
 5040SOL    MW419894   6.208   1.908   0.892  0.3376 -0.1835 -0.1686
 5041SOL     OW19895   1.300   4.631   3.114  0.3221 -0.0226  0.6332
 5041SOL    HW219896   1.237   4.688   3.069 -1.2034 -0.5163  2.0516
 5041SOL    HW319897   1.339   4.687   3.181 -1.2190 -0.5823  2.0653
 5041SOL    MW419898   1.297   4.646   3.117  0.0527 -0.0378  0.2712
 5042SOL     OW19899   0.178   0.652   0.813 -0.4922  0.2726  0.1978
 5042SOL    HW219900   0.271   0.650   0.792 -0.0562  0.7742  1.8886
 5042SOL    HW319901   0.134   0.666   0.729  0.9329 -0.1670 -0.6550
 5042SOL    MW419902   0.185   0.653   0.799  0.2191  0.1873  0.4965
 5043SOL     OW19903   3.195   2.556   2.466 -0.5160 -0.5777  0.1974
 5043SOL    HW219904   3.148   2.479   2.432 -2.6472  0.3030  1.0056
 5043SOL    HW319905   3.130   2.603   2.518  0.8741  1.5313  0.1430
 5043SOL    MW419906   3.180   2.552   2.468 -0.2202  0.1429 -0.0223
 5044SOL     OW19907   2.281   2.244   1.460 -0.0063  0.0438  0.1011
 5044SOL    HW219908   2.230   2.298   1.520 -0.5764 -0.7185  0.3188
 5044SOL    HW319909   2.269   2.285   1.374 -0.0978  0.4913  0.3273
 5044SOL    MW419910   2.273   2.257   1.457 -0.9952 -0.1963 -0.1008
 5045SOL     OW19911   5.103   2.828   6.037  0.2941  0.4062 -0.2786
 5045SOL    HW219912   5.089   2.862   6.126 -2.6978 -1.4712  0.0902
 5045SOL    HW319913   5.098   2.906   5.981  0.2494  1.3819  1.0325
 5045SOL    MW419914   5.101   2.843   6.042 -0.0977 -0.2545  0.2934
 5046SOL     OW19915   0.545   1.322   5.638  0.0254  0.5653 -0.2685
 5046SOL    HW219916   0.560   1.336   5.544  0.9896  0.8354 -0.0910
 5046SOL    HW319917   0.454   1.295   5.644  0.2355 -0.5105 -1.3954
 5046SOL    MW419918   0.535   1.320   5.626 -0.4672  0.3760 -0.0227
 5047SOL     OW19919   5.517   2.170   0.172 -0.0923 -0.7956 -0.0445
 5047SOL    HW219920   5.432   2.160   0.215 -1.1222  0.8020 -1.5680
 5047SOL    HW319921   5.576   2.195   0.243 -1.3810  0.2438  0.7155
 5047SOL    MW419922   5.513   2.172   0.187  0.1138  0.0959 -0.1851
 5048SOL     OW19923   4.317   1.258   3.396  0.1988  0.2011 -0.2572
 5048SOL    HW219924   4.295   1.205   3.319 -0.9744 -2.9322  2.0502
 5048SOL    HW319925   4.269   1.340   3.383 -2.3511 -1.3721 -1.5735
 5048SOL    MW419926   4.308   1.262   3.384  0.0210  0.0419 -0.0242
 5049SOL     OW19927   3.915   4.796   5.914  0.2799  0.1170 -0.3172
 5049SOL    HW219928   3.832   4.749   5.904  0.6148 -0.1122 -2.5940
 5049SOL    HW319929   3.893   4.888   5.895  0.3393  0.2624  0.2913
 5049SOL    MW419930   3.901   4.802   5.910  0.0682  0.2014  0.0714
 5050SOL     OW19931   5.412   4.325   5.681 -0.3373  0.5201 -0.6058
 5050SOL    HW219932   5.383   4.379   5.754 -1.9158 -1.9909  0.7440
 5050SOL    HW319933   5.378   4.369   5.603 -2.1293  1.1451  0.4827
 5050SOL    MW419934   5.404   4.338   5.680 -0.2950  0.3731  0.0624
 5051SOL     OW19935   2.147   6.199   2.167  0.3684 -0.1113  0.3286
 5051SOL    HW219936   2.195   6.120   2.146  1.0833  1.2586 -4.0130
 5051SOL    HW319937   2.210   6.255   2.212  1.2686 -0.3222 -0.6446
 5051SOL    MW419938   2.161   6.196   2.170 -0.3255 -0.1320  0.0212
 5052SOL     OW19939   0.467   0.033   2.505 -0.8770  0.3298 -0.3590
 5052SOL    HW219940   0.501  -0.054   2.485 -1.7866 -0.0251 -0.4334
 5052SOL    HW319941   0.379   0.034   2.467 -0.1065  2.0736 -2.3089
 5052SOL    MW419942   0.459   0.022   2.497 -0.6017 -0.2028  0.5261
 5053SOL     OW19943   1.517   3.849   2.629 -0.3508  0.3348 -0.3449
 5053SOL    HW219944   1.428   3.878   2.612 -1.1246 -1.8560 -0.3364
 5053SOL    HW319945   1.540   3.795   2.553  0.2316 -0.6819  0.5179
 5053SOL    MW419946   1.509   3.846   2.617 -0.7707  0.0536  0.2089
 5054SOL     OW19947   1.040   2.419   5.652  0.0012  0.0125  0.2401
 5054SOL    HW219948   1.023   2.468   5.733  1.2367  1.1962 -0.1742
 5054SOL    HW319949   1.086   2.481   5.596  0.5501 -1.2667 -0.7848
 5054SOL    MW419950   1.044   2.434   5.656 -0.0871 -0.2246  0.4158
 5055SOL     OW19951   3.981   3.513   4.476  0.1041  0.8600  0.5566
 5055SOL    HW219952   3.956   3.423   4.496  0.3491  0.5173 -0.6236
 5055SOL    HW319953   4.077   3.512   4.479  0.2111  0.5278 -1.6140
 5055SOL    MW419954   3.991   3.501   4.479 -0.1169  0.0208  0.0020
 5056SOL     OW19955   1.547   4.183   3.267  0.1646 -0.7237  0.2013
 5056SOL    HW219956   1.469   4.234   3.286 -1.2980 -2.3928 -1.0733
 5056SOL    HW319957   1.596   4.236   3.204 -0.5063 -0.1749  0.1332
 5056SOL    MW419958   1.543   4.196   3.261 -0.1502  0.3568  0.5090
 5057SOL     OW19959   4.339   2.405   2.403 -0.5641 -0.2878  0.0236
 5057SOL    HW219960   4.289   2.468   2.352 -0.1343  0.5845  0.6507
 5057SOL    HW319961   4.400   2.366   2.340 -0.1581  0.6493 -0.1871
 5057SOL    MW419962   4.341   2.408   2.388  0.1380  0.2778 -0.2499
 5058SOL     OW19963   2.279   1.698   3.806  0.6289  0.6483  0.1788
 5058SOL    HW219964   2.191   1.667   3.825  0.5992 -0.7832 -2.0290
 5058SOL    HW319965   2.288   1.778   3.859 -0.6284 -1.0733  3.2130
 5058SOL    MW419966   2.269   1.705   3.816  0.2653 -0.4525  0.3594
 5059SOL     OW19967   2.767   3.744   1.775 -0.3811  0.7510 -0.0659
 5059SOL    HW219968   2.786   3.691   1.852  2.0216 -0.0791 -1.1586
 5059SOL    HW319969   2.785   3.834   1.802 -0.1805  0.5311  0.5337
 5059SOL    MW419970   2.772   3.749   1.788 -0.0906  0.1384  0.2912
 5060SOL     OW19971   1.338   4.821   2.107  0.1224 -0.6472  0.7916
 5060SOL    HW219972   1.377   4.906   2.125 -0.7159 -0.1100  0.0836
 5060SOL    HW319973   1.408   4.758   2.126  0.2217  0.0584  3.0359
 5060SOL    MW419974   1.353   4.824   2.112  0.1106 -0.1403  0.2622
 5061SOL     OW19975   2.584   5.738   0.654  1.2785 -0.9427 -0.4564
 5061SOL    HW219976   2.660   5.784   0.689  0.6834 -1.3432  1.4698
 5061SOL    HW319977   2.516   5.805   0.650  1.6499 -0.6200 -2.0373
 5061SOL    MW419978   2.585   5.753   0.658 -0.0231  0.2254 -0.2480
 5062SOL     OW19979   0.446   3.477   0.577  0.2555 -0.0634 -0.0460
 5062SOL    HW219980   0.362   3.520   0.591 -0.6525 -1.1516 -1.8028
 5062SOL    HW319981   0.465   3.435   0.661 -0.2963  1.2521  0.7622
 5062SOL    MW419982   0.437   3.477   0.590  0.5962  0.4645 -0.0434
 5063SOL     OW19983   1.694   4.578   3.293 -0.1636 -0.2302 -0.3069
 5063SOL    HW219984   1.773   4.573   3.347 -1.0427  1.5881  1.2814
 5063SOL    HW319985   1.724   4.617   3.211  0.5176  1.2008  0.5733
 5063SOL    MW419986   1.709   4.582   3.289  0.0441 -0.8283  0.2032
 5064SOL     OW19987   1.511   4.461   4.391  0.5014 -0.2195 -0.1156
 5064SOL    HW219988   1.518   4.464   4.486 -1.4502  1.0117  0.0326
 5064SOL    HW319989   1.598   4.435   4.362  1.9736  2.0791  1.8613
 5064SOL    MW419990   1.523   4.458   4.400  0.0525  0.3265 -0.7388
 5065SOL     OW19991   6.426   1.072   0.156  0.0075 -0.0065 -0.1299
 5065SOL    HW219992   6.456   0.986   0.128 -1.1198 -0.4377 -0.0499
 5065SOL    HW319993   6.470   1.086   0.240 -0.1738 -0.7163  0.0888
 5065SOL    MW419994   6.436   1.063   0.163  0.8036  0.0438  0.3815
 5066SOL     OW19995   5.273   4.635   5.102  0.0034  0.3829  0.2110
 5066SOL    HW219996   5.207   4.633   5.032  0.2823  1.9847 -0.1350
 5066SOL    HW319997   5.223   4.623   5.182 -0.3318 -1.4464 -0.2308
 5066SOL    MW419998   5.258   4.633   5.103  0.1850  0.0681  0.1487
 5067SOL     OW19999   1.115   0.803   0.098 -0.1606  0.2113  0.1619
 5067SOL    HW220000   1.098   0.867   0.166 -0.2554 -0.9477  1.2697
 5067SOL    HW320001   1.191   0.837   0.051  0.4999  0.5649  1.4537
 5067SOL    MW420002   1.123   0.816   0.100 -0.1039 -0.3250 -0.1663
 5068SOL     OW20003   1.467   5.033   4.186  0.2298 -0.2713 -0.4689
 5068SOL    HW220004   1.542   5.012   4.242 -1.5031 -1.1014  1.7225
 5068SOL    HW320005   1.438   4.948   4.152 -0.5191 -0.1504 -0.1649
 5068SOL    MW420006   1.473   5.019   4.189  0.4939  0.2761  0.0647
 5069SOL     OW20007   5.759   6.009   0.528  0.0645 -0.3721 -0.3729
 5069SOL    HW220008   5.794   5.950   0.595  0.0799  0.9218  0.8149
 5069SOL    HW320009   5.761   5.958   0.447  1.1276 -1.6016  0.3915
 5069SOL    MW420010   5.764   5.994   0.527  0.3457  0.2520 -0.0250
 5070SOL     OW20011   0.164   5.450   1.893  0.5650 -0.1938  0.4172
 5070SOL    HW220012   0.093   5.445   1.957 -0.1786  0.2458 -0.3521
 5070SOL    HW320013   0.193   5.541   1.896 -1.6011  0.7105 -2.0408
 5070SOL    MW420014   0.158   5.461   1.902 -0.0804  0.2235  0.0178
 5071SOL     OW20015   2.149   5.703   3.387  0.0262  0.1212 -0.0130
 5071SOL    HW220016   2.162   5.796   3.406  2.2565 -0.7189  3.3837
 5071SOL    HW320017   2.212   5.684   3.318  1.8698  0.5527  1.4874
 5071SOL    MW420018   2.159   5.713   3.380 -0.0706  0.0341  0.5878
 5072SOL     OW20019   5.693   2.555   2.002  0.2015  0.3086 -0.4108
 5072SOL    HW220020   5.656   2.579   1.918  2.2328  0.4250 -1.3413
 5072SOL    HW320021   5.629   2.496   2.042  0.0372 -1.3193 -2.9028
 5072SOL    MW420022   5.680   2.550   1.996 -0.3865  0.2228  0.2819
 5073SOL     OW20023   2.371   0.884   0.333 -0.6021 -0.5091  0.5980
 5073SOL    HW220024   2.364   0.808   0.274 -1.6288  0.4202 -0.5206
 5073SOL    HW320025   2.347   0.849   0.419 -0.7129 -1.5297  0.1745
 5073SOL    MW420026   2.367   0.869   0.337  0.0124  0.1899 -0.0981
 5074SOL     OW20027   2.305   1.681   2.639  0.2035  0.5537  0.2023
 5074SOL    HW220028   2.311   1.591   2.607 -2.4273  0.6667 -0.8188
 5074SOL    HW320029   2.304   1.673   2.734  3.1502 -0.1677  0.2818
 5074SOL    MW420030   2.306   1.668   2.647 -0.4929  0.1436 -0.5073
 5075SOL     OW20031   6.274   4.035   1.048 -0.1594 -0.2979 -0.0396
 5075SOL    HW220032   6.199   4.062   1.102  0.3157 -1.5927  1.3650
 5075SOL    HW320033   6.330   3.986   1.109  0.2703 -2.0943 -1.7724
 5075SOL    MW420034   6.272   4.032   1.063  0.7097  0.8226  0.4616
 5076SOL     OW20035   3.351   3.809   2.229 -0.0767  0.3843 -0.6301
 5076SOL    HW220036   3.364   3.743   2.297  1.7191  0.6194 -0.6994
 5076SOL    HW320037   3.257   3.828   2.232 -0.7091 -2.3155 -0.7760
 5076SOL    MW420038   3.340   3.803   2.239  0.2200  0.4060  0.5198
 5077SOL     OW20039   2.377   5.236   2.065  0.3460  0.0225  0.4101
 5077SOL    HW220040   2.356   5.190   2.146 -0.7048  0.0862  0.1840
 5077SOL    HW320041   2.363   5.171   1.996  1.2036 -0.0213  0.2673
 5077SOL    MW420042   2.373   5.222   2.066  0.0570  0.2392  0.5393
 5078SOL     OW20043   4.872   5.681   2.281 -0.0076 -0.3454  0.0451
 5078SOL    HW220044   4.781   5.692   2.308 -0.3921 -2.1821 -0.4003
 5078SOL    HW320045   4.872   5.699   2.187 -0.6342 -3.4864 -0.6824
 5078SOL    MW420046   4.860   5.685   2.272  0.3316 -0.0029 -0.5106
 5079SOL     OW20047   0.504   1.978   6.371 -0.1989  0.1562 -0.6910
 5079SOL    HW220048   0.489   2.028   6.450  1.2507  0.8231 -0.8000
 5079SOL    HW320049   0.479   1.888   6.394  3.0407 -0.3412  1.5917
 5079SOL    MW420050   0.499   1.973   6.384  0.4568  0.0744 -1.0168
 5080SOL     OW20051   2.147   2.316   1.691 -0.4876  1.0705 -0.6452
 5080SOL    HW220052   2.236   2.292   1.714 -0.1394  2.6003 -0.2958
 5080SOL    HW320053   2.098   2.308   1.773 -0.3949  1.4117 -0.5539
 5080SOL    MW420054   2.152   2.312   1.705  0.1098  0.3118  0.1003
 5081SOL     OW20055   1.868   3.151   5.875 -0.2820  0.1805  0.0680
 5081SOL    HW220056   1.838   3.076   5.823  0.0556  0.0499  0.0596
 5081SOL    HW320057   1.866   3.225   5.815 -0.4761  0.1506  0.0365
 5081SOL    MW420058   1.864   3.151   5.860 -0.1664 -0.2238  0.6862
 5082SOL     OW20059   1.121   2.675   0.723 -0.5012 -0.4904  0.3338
 5082SOL    HW220060   1.113   2.585   0.753  0.9528 -0.1647  1.8410
 5082SOL    HW320061   1.044   2.719   0.761 -2.0249 -1.3238 -1.6064
 5082SOL    MW420062   1.109   2.669   0.732  0.6126  0.1428  0.5849
 5083SOL     OW20063   5.886   1.866   5.672 -0.2342  0.0272 -0.4527
 5083SOL    HW220064   5.837   1.917   5.736 -0.2996  1.4889 -1.6237
 5083SOL    HW320065   5.978   1.879   5.695 -0.2473  0.7686 -0.8105
 5083SOL    MW420066   5.892   1.874   5.683  0.2299  0.3192  0.1497
 5084SOL     OW20067   4.979   1.024   2.107 -0.5782  0.0938  0.1699
 5084SOL    HW220068   5.040   1.077   2.057  0.3206 -1.0522 -0.0076
 5084SOL    HW320069   5.035   0.964   2.157 -1.5446 -0.6355  0.4137
 5084SOL    MW420070   4.994   1.023   2.107  0.2352  0.5230 -0.3793
 5085SOL     OW20071   4.157   4.933   2.113  0.0945 -0.4279 -0.0895
 5085SOL    HW220072   4.068   4.953   2.142 -0.2245  2.5315 -2.6392
 5085SOL    HW320073   4.213   4.975   2.178 -0.4144 -0.2527  0.2448
 5085SOL    MW420074   4.153   4.941   2.125  0.3052  0.0164  0.0507
 5086SOL     OW20075   5.644   5.517   0.441 -0.4790 -0.1634  0.2667
 5086SOL    HW220076   5.621   5.546   0.529 -1.5115 -1.1541  0.3515
 5086SOL    HW320077   5.629   5.595   0.386 -0.0950  0.3781  0.9184
 5086SOL    MW420078   5.639   5.531   0.445  0.2578  0.1516  0.3488
 5087SOL     OW20079   2.912   0.714   0.753  0.0121 -0.1065  0.1747
 5087SOL    HW220080   2.903   0.778   0.824  2.7122  0.4203  0.1246
 5087SOL    HW320081   2.821   0.695   0.728 -0.9956  3.8693  0.0350
 5087SOL    MW420082   2.899   0.720   0.759  0.2777 -0.3663  0.0557
 5088SOL     OW20083   3.367   4.460   0.609 -0.5372 -0.2897 -0.1159
 5088SOL    HW220084   3.423   4.497   0.540 -0.4695  0.4871  0.3420
 5088SOL    HW320085   3.359   4.530   0.673 -1.7491 -0.5194  0.0055
 5088SOL    MW420086   3.374   4.474   0.608  0.1811  0.8459  0.0416
 5089SOL     OW20087   5.528   5.723   1.948 -0.3275  0.1400  0.3307
 5089SOL    HW220088   5.529   5.759   2.037  1.0174  0.4584  0.2121
 5089SOL    HW320089   5.617   5.687   1.936  0.3759  2.3428 -1.7815
 5089SOL    MW420090   5.540   5.723   1.958  0.0994  0.0642 -1.0205
 5090SOL     OW20091   5.691   5.881   6.363  0.3674  0.0065 -0.0647
 5090SOL    HW220092   5.695   5.929   6.446  0.3262 -0.7711  0.3908
 5090SOL    HW320093   5.627   5.812   6.379 -0.9947  0.9239 -1.3083
 5090SOL    MW420094   5.683   5.878   6.376  0.5421  0.6233  0.5845
 5091SOL     OW20095   1.402   3.380   5.238  0.1421  0.6688 -0.1711
 5091SOL    HW220096   1.488   3.416   5.214  0.7161  0.1593  0.9978
 5091SOL    HW320097   1.402   3.291   5.203  1.1239 -0.2024  1.8321
 5091SOL    MW420098   1.414   3.373   5.230 -0.1710  0.5085  0.0427
 5092SOL     OW20099   1.773   2.032   2.250 -0.5787  0.3334 -0.1990
 5092SOL    HW220100   1.762   1.938   2.240 -0.0484  0.1247  1.0823
 5092SOL    HW320101   1.754   2.067   2.163 -1.2705 -0.8988 -0.5737
 5092SOL    MW420102   1.769   2.024   2.237 -0.3437  0.5195  0.0544
 5093SOL     OW20103   3.055   2.063   2.784 -0.0975  0.4252  0.5873
 5093SOL    HW220104   3.100   2.037   2.865 -0.8933  2.1540  1.6633
 5093SOL    HW320105   2.963   2.071   2.810 -0.3085  1.3582 -0.3796
 5093SOL    MW420106   3.049   2.061   2.798 -0.9989  0.1844  0.2085
 5094SOL     OW20107   2.157   1.643   3.197 -0.3243  0.0720 -0.0245
 5094SOL    HW220108   2.091   1.703   3.161  0.2199  1.0287  0.5499
 5094SOL    HW320109   2.205   1.695   3.261 -1.7820 -1.7820  2.7897
 5094SOL    MW420110   2.154   1.657   3.201 -0.1330  0.0376 -0.1913
 5095SOL     OW20111   2.713   1.351   6.136  0.5841  0.2129  0.2234
 5095SOL    HW220112   2.738   1.285   6.202 -0.1651 -0.9549 -0.6184
 5095SOL    HW320113   2.733   1.309   6.052 -2.5831 -0.1959 -0.4528
 5095SOL    MW420114   2.719   1.337   6.134 -0.1838 -0.1295 -0.2171
 5096SOL     OW20115   1.155   1.621   4.596  0.2284 -0.3808 -0.0621
 5096SOL    HW220116   1.218   1.573   4.542 -0.1281 -0.6623 -0.2307
 5096SOL    HW320117   1.130   1.559   4.665  1.0840  0.1502  0.7620
 5096SOL    MW420118   1.160   1.607   4.598 -0.1268  0.0071  0.3545
 5097SOL     OW20119   0.759   4.417   4.165 -0.0372  0.4498  0.1500
 5097SOL    HW220120   0.676   4.406   4.118  0.7255 -0.5862 -1.0235
 5097SOL    HW320121   0.758   4.349   4.231 -0.1209  0.4472  0.1470
 5097SOL    MW420122   0.748   4.407   4.167 -0.2353  0.7462  0.0739
 5098SOL     OW20123   0.115   3.176   2.227  0.1308  0.4944  0.1418
 5098SOL    HW220124   0.073   3.262   2.233  0.6106  0.8375 -1.0606
 5098SOL    HW320125   0.119   3.158   2.133  0.8774 -0.4289  0.3356
 5098SOL    MW420126   0.110   3.185   2.215 -0.1402 -0.7140  0.2451
 5099SOL     OW20127   1.268   0.078   4.085  0.6725 -0.6387 -1.0546
 5099SOL    HW220128   1.191   0.071   4.140  0.5269 -1.9703 -1.3957
 5099SOL    HW320129   1.341   0.053   4.142  0.6731 -0.7398 -1.0979
 5099SOL    MW420130   1.268   0.074   4.100 -0.1870 -0.0749  0.0206
 5100SOL     OW20131   4.170   3.110   1.417  0.5075  0.1279 -0.4542
 5100SOL    HW220132   4.200   3.200   1.430  0.3821  0.3087 -1.3679
 5100SOL    HW320133   4.228   3.057   1.472  2.2257  0.5135 -1.8235
 5100SOL    MW420134   4.182   3.115   1.426  0.3756 -0.2055 -0.1145
 5101SOL     OW20135   2.834   3.155   3.900  0.5958  0.6752  0.1108
 5101SOL    HW220136   2.852   3.100   3.977  0.0553 -0.5719 -0.6176
 5101SOL    HW320137   2.754   3.202   3.922 -0.2287 -0.5768 -0.1220
 5101SOL    MW420138   2.826   3.154   3.913  0.3959  0.2551  0.6350
 5102SOL     OW20139   3.589   3.497   6.302  0.4294 -0.0162  0.0305
 5102SOL    HW220140   3.626   3.537   6.223 -0.6045 -1.5601 -1.2947
 5102SOL    HW320141   3.655   3.433   6.330  1.0544  0.9383  0.7884
 5102SOL    MW420142   3.603   3.494   6.295 -0.5948 -0.0007  0.1019
 5103SOL     OW20143   1.347   1.602   4.068  0.3388  0.0459 -0.1495
 5103SOL    HW220144   1.254   1.606   4.087  0.0142 -2.5619 -0.7991
 5103SOL    HW320145   1.389   1.629   4.150 -0.9116  2.3425 -0.1861
 5103SOL    MW420146   1.341   1.606   4.081 -0.1001  0.1129 -0.0568
 5104SOL     OW20147   1.088   1.752   5.165 -0.1160  0.0832  1.1796
 5104SOL    HW220148   1.175   1.754   5.206  0.1808  0.5535  0.5365
 5104SOL    HW320149   1.106   1.741   5.072 -0.6270  2.7028  0.7092
 5104SOL    MW420150   1.102   1.751   5.158  0.0591  0.2718  0.1532
 5105SOL     OW20151   5.902   4.437   3.056  0.0591  0.3025 -0.3523
 5105SOL    HW220152   5.979   4.493   3.059  0.0752  0.2392  1.3835
 5105SOL    HW320153   5.933   4.352   3.087 -0.4653 -0.0474 -0.7657
 5105SOL    MW420154   5.916   4.433   3.061 -0.2653 -0.2609  0.6551
 5106SOL     OW20155   2.225   5.941   2.081  0.4302 -0.4155 -0.5433
 5106SOL    HW220156   2.200   5.862   2.128 -0.6478  1.2378  1.8663
 5106SOL    HW320157   2.198   5.924   1.991 -1.3421 -2.1536  0.2210
 5106SOL    MW420158   2.218   5.928   2.075 -0.4505 -0.4442 -0.8990
 5107SOL     OW20159   0.741   3.803   0.601  0.2884  0.4771  0.2238
 5107SOL    HW220160   0.782   3.738   0.544  2.9382  1.5706  0.7378
 5107SOL    HW320161   0.678   3.848   0.544  1.3098  0.1093 -1.2504
 5107SOL    MW420162   0.738   3.800   0.586  0.7692  0.9128 -0.5597
 5108SOL     OW20163   3.613   2.948   0.790 -0.5500 -0.0648  1.4423
 5108SOL    HW220164   3.535   2.893   0.788  0.6698 -1.8450  1.0831
 5108SOL    HW320165   3.660   2.920   0.868  0.1840  0.3491  1.1541
 5108SOL    MW420166   3.609   2.937   0.800  0.0870 -0.0421 -0.2737
 5109SOL     OW20167   6.342   1.065   5.836 -0.1243 -0.7834  0.0194
 5109SOL    HW220168   6.342   0.972   5.815 -0.7478 -0.4170 -1.8665
 5109SOL    HW320169   6.297   1.071   5.920  0.1638 -2.1997  0.2959
 5109SOL    MW420170   6.336   1.054   5.844  0.2461  0.9310  0.1412
 5110SOL     OW20171   5.903   3.997   3.392 -0.1221 -0.6384 -0.3395
 5110SOL    HW220172   5.890   4.085   3.428 -0.0655 -1.1256  0.9097
 5110SOL    HW320173   5.959   3.953   3.456  1.7775 -0.8774 -2.0499
 5110SOL    MW420174   5.909   4.003   3.405 -0.5458  0.3396 -0.8326
 5111SOL     OW20175   3.839   3.187   1.859 -0.2973  0.4986 -0.1139
 5111SOL    HW220176   3.793   3.268   1.883  0.0027  0.8705 -0.7511
 5111SOL    HW320177   3.931   3.214   1.853 -0.4700  0.7542 -2.8598
 5111SOL    MW420178   3.845   3.202   1.862 -0.7252 -0.4094 -0.3439
 5112SOL     OW20179   2.197   5.891   5.098 -0.4606 -0.3761  0.0138
 5112SOL    HW220180   2.247   5.890   5.180 -0.4411  0.7763  0.0243
 5112SOL    HW320181   2.109   5.863   5.124 -0.1180 -1.3184  0.1909
 5112SOL    MW420182   2.192   5.887   5.113 -0.7288  0.4348 -0.6712
 5113SOL     OW20183   5.084   6.347   4.138 -0.2524 -0.0030 -0.0769
 5113SOL    HW220184   5.074   6.414   4.205  0.2971 -0.7726  0.8035
 5113SOL    HW320185   5.161   6.374   4.087  1.8989 -1.4341  2.1634
 5113SOL    MW420186   5.093   6.359   4.140 -0.1628 -0.3793 -0.3812
 5114SOL     OW20187   1.846   3.082  -0.002  0.2578  0.0544 -0.4296
 5114SOL    HW220188   1.808   3.115   0.079 -0.6661  0.2301 -0.9191
 5114SOL    HW320189   1.913   3.147  -0.025  1.3361 -0.5991  0.7811
 5114SOL    MW420190   1.850   3.095   0.006  0.1482 -0.5264 -0.3163
 5115SOL     OW20191   1.209   6.323   2.651  0.1434  0.2033  0.1627
 5115SOL    HW220192   1.285   6.381   2.654  0.3532  0.1124 -1.8227
 5115SOL    HW320193   1.244   6.239   2.621 -0.4881 -0.3433  0.9095
 5115SOL    MW420194   1.223   6.320   2.647 -0.0780  0.1263  0.0071
 5116SOL     OW20195   4.712   3.265   0.599 -0.1351  0.4496  0.2454
 5116SOL    HW220196   4.708   3.194   0.663  0.5028  0.2231  0.0434
 5116SOL    HW320197   4.676   3.341   0.644  0.0747  0.2282  0.7885
 5116SOL    MW420198   4.707   3.266   0.613  0.0812  0.1037  0.0478
 5117SOL     OW20199   1.729   6.060   2.032  0.1641 -0.2506  0.0535
 5117SOL    HW220200   1.727   6.132   2.096 -0.1572 -0.6368  0.4910
 5117SOL    HW320201   1.788   6.091   1.963  2.1494 -0.6085  1.4926
 5117SOL    MW420202   1.737   6.074   2.032  0.1599 -0.2515  0.4095
 5118SOL     OW20203   3.178   1.000   0.874  0.0924  0.1804 -0.0096
 5118SOL    HW220204   3.084   1.000   0.893  0.2940 -0.5297  1.0867
 5118SOL    HW320205   3.219   1.022   0.957  0.9244 -0.1892 -0.3076
 5118SOL    MW420206   3.171   1.003   0.887  0.5330  0.0371 -0.0905
 5119SOL     OW20207   0.606   3.679   2.668  0.0337 -0.4320 -0.6806
 5119SOL    HW220208   0.685   3.733   2.667 -0.5502  0.4248 -1.2210
 5119SOL    HW320209   0.591   3.660   2.761 -0.2187  1.0276 -0.4004
 5119SOL    MW420210   0.614   3.683   2.680  1.0694 -1.0299 -0.3643
 5120SOL     OW20211   3.211   0.392   0.490  1.1069 -0.1879 -0.2472
 5120SOL    HW220212   3.258   0.465   0.450 -0.4093  0.3885 -1.0365
 5120SOL    HW320213   3.164   0.351   0.417  1.5740 -1.6859  0.2608
 5120SOL    MW420214   3.211   0.396   0.475 -0.6869  0.2672 -0.2244
 5121SOL     OW20215   2.146   1.041   5.589  0.2181  0.0753 -0.2117
 5121SOL    HW220216   2.109   1.036   5.501  0.4478 -3.3053 -0.2399
 5121SOL    HW320217   2.129   0.955   5.628  2.5887  0.4832  2.0322
 5121SOL    MW420218   2.139   1.029   5.583 -0.3478 -0.2601  0.5269
 5122SOL     OW20219   2.388   3.580   0.153 -0.5273  0.0360  0.0693
 5122SOL    HW220220   2.460   3.577   0.090 -1.4219 -1.3713 -0.9491
 5122SOL    HW320221   2.380   3.673   0.176  2.4733  0.1207  1.3094
 5122SOL    MW420222   2.397   3.592   0.148  0.6423  0.4036  0.4062
 5123SOL     OW20223   4.002   5.171   3.915  0.0008 -0.3430  0.0636
 5123SOL    HW220224   4.096   5.190   3.917 -0.1802  0.6835  2.6115
 5123SOL    HW320225   3.960   5.257   3.914 -0.9278 -0.7816 -0.3471
 5123SOL    MW420226   4.009   5.185   3.915  0.4201 -1.2882 -0.2011
 5124SOL     OW20227   0.254   4.721   6.384  1.0988 -0.1902  0.4738
 5124SOL    HW220228   0.171   4.768   6.392  0.8043 -0.7726  0.9528
 5124SOL    HW320229   0.269   4.713   6.290 -0.9868 -2.7916  0.2335
 5124SOL    MW420230   0.245   4.726   6.373  0.1030  0.4645 -0.3180
 5125SOL     OW20231   0.854   0.967   0.674 -0.5066 -0.7500  0.3176
 5125SOL    HW220232   0.842   0.972   0.769 -0.1070 -0.1145  0.3431
 5125SOL    HW320233   0.804   1.041   0.640 -0.6893 -1.0059  0.0279
 5125SOL    MW420234   0.846   0.978   0.682  0.4164  0.0729  0.4137
 5126SOL     OW20235   0.191   0.136   1.588  0.2551 -0.0972 -0.1275
 5126SOL    HW220236   0.186   0.131   1.683 -1.1500  0.4912 -0.1463
 5126SOL    HW320237   0.255   0.206   1.571  0.6294 -0.3138  0.3717
 5126SOL    MW420238   0.199   0.144   1.598  0.5487 -0.1283 -0.2030
 5127SOL     OW20239   1.047   2.280   6.276  0.5002  0.2147 -0.0796
 5127SOL    HW220240   0.993   2.329   6.338  2.2219  0.4029  1.3351
 5127SOL    HW320241   1.136   2.292   6.307  1.2743 -0.9879 -1.7177
 5127SOL    MW420242   1.051   2.288   6.288 -0.1037 -0.2743  0.5448
 5128SOL     OW20243   5.039   1.821   5.437  0.0042  0.1602  0.5297
 5128SOL    HW220244   5.066   1.729   5.442 -0.2785  0.1498  2.9559
 5128SOL    HW320245   5.119   1.871   5.456  0.9966  0.6878 -3.9332
 5128SOL    MW420246   5.053   1.815   5.440 -0.0622 -0.2223 -0.2919
 5129SOL     OW20247   3.357   4.559   6.159 -0.4356 -0.3711 -0.2113
 5129SOL    HW220248   3.376   4.589   6.070 -1.0479 -1.0759 -0.5914
 5129SOL    HW320249   3.323   4.637   6.203 -1.1187 -0.2628 -0.9092
 5129SOL    MW420250   3.355   4.573   6.153 -0.2702 -0.2374  0.1374
 5130SOL     OW20251   6.010   2.046   4.934  0.0364 -0.2785 -0.5675
 5130SOL    HW220252   5.973   1.990   4.866  2.7747 -1.3804 -1.2871
 5130SOL    HW320253   6.008   2.134   4.896  0.6528 -0.7388 -1.7283
 5130SOL    MW420254   6.005   2.051   4.920 -0.4891 -0.0390 -0.3022
 5131SOL     OW20255   3.401   2.573   0.487 -0.0019  0.3057 -0.7559
 5131SOL    HW220256   3.484   2.612   0.514 -0.7084  0.7706  0.8693
 5131SOL    HW320257   3.426   2.501   0.429  1.6039 -0.1951  0.4674
 5131SOL    MW420258   3.415   2.569   0.483 -0.1494  0.3112 -0.1211
 5132SOL     OW20259   2.753   4.767   4.604 -0.3781 -0.9314  0.5488
 5132SOL    HW220260   2.662   4.748   4.629 -0.4332  1.0477  2.1618
 5132SOL    HW320261   2.753   4.759   4.508 -2.5592  0.0658  0.3962
 5132SOL    MW420262   2.741   4.764   4.595  0.2773 -0.2443 -0.4688
 5133SOL     OW20263   2.278   3.316   5.194  0.4751  0.2723  0.1323
 5133SOL    HW220264   2.307   3.282   5.279 -1.3013 -0.0511  0.6487
 5133SOL    HW320265   2.210   3.380   5.216 -1.0513 -0.8687 -1.0548
 5133SOL    MW420266   2.273   3.320   5.208 -0.0428 -0.5983  0.1062
 5134SOL     OW20267   4.236   5.362   3.424 -0.5719  0.0160  0.3510
 5134SOL    HW220268   4.328   5.343   3.409 -0.8536 -0.1053 -1.4403
 5134SOL    HW320269   4.192   5.334   3.344 -2.3548 -1.0489  1.6281
 5134SOL    MW420270   4.242   5.356   3.412 -0.4436  0.5006 -0.1509
 5135SOL     OW20271   2.312   6.145   1.645 -0.4412  0.5619 -0.2791
 5135SOL    HW220272   2.299   6.171   1.736 -0.0195 -0.0964 -0.0170
 5135SOL    HW320273   2.225   6.145   1.607 -1.3677 -3.4639  1.3302
 5135SOL    MW420274   2.299   6.148   1.652  0.0435  0.1296  0.6434
 5136SOL     OW20275   5.618   1.798   5.438 -0.2951 -0.0719  0.1646
 5136SOL    HW220276   5.656   1.719   5.477 -2.3874 -0.8617  0.7497
 5136SOL    HW320277   5.529   1.772   5.413 -0.5995  1.7540 -0.8429
 5136SOL    MW420278   5.611   1.784   5.439  0.1186 -0.1080  0.1873
 5137SOL     OW20279   5.040   4.835   5.882 -0.0195 -0.5661  0.4771
 5137SOL    HW220280   5.115   4.782   5.857  0.4475  0.4324 -0.2908
 5137SOL    HW320281   4.985   4.838   5.804  1.3156  2.3440 -0.5042
 5137SOL    MW420282   5.042   4.829   5.869 -0.0017  0.2182 -0.1017
 5138SOL     OW20283   4.842   2.260   5.676  1.0479 -0.2812  0.0818
 5138SOL    HW220284   4.856   2.313   5.598 -0.6327  1.9949  1.1944
 5138SOL    HW320285   4.834   2.170   5.644 -0.3748  0.6707 -2.4718
 5138SOL    MW420286   4.843   2.255   5.662 -0.3038 -0.1860  0.2128
 5139SOL     OW20287   2.844   1.158   1.708  0.5251 -0.5005 -0.1192
 5139SOL    HW220288   2.823   1.246   1.739 -0.4082 -1.4496  2.1993
 5139SOL    HW320289   2.764   1.127   1.665  1.2711  0.1962 -2.1062
 5139SOL    MW420290   2.831   1.165   1.706  0.6248 -0.0817  0.3878
 5140SOL     OW20291   3.559   4.907   6.041 -0.5678  0.3050 -0.0849
 5140SOL    HW220292   3.602   4.823   6.030 -0.2777  0.2459  1.2968
 5140SOL    HW320293   3.630   4.970   6.050 -0.7730  0.5161  0.0870
 5140SOL    MW420294   3.574   4.904   6.041 -0.4584  0.3283 -0.0011
 5141SOL     OW20295   5.664   2.322   3.104  0.2113  0.0360 -0.2083
 5141SOL    HW220296   5.584   2.368   3.080  0.6892  0.4686 -1.0335
 5141SOL    HW320297   5.683   2.265   3.029  1.3249  0.8400 -0.5646
 5141SOL    MW420298   5.656   2.320   3.091 -0.1058  0.5774 -0.3253
 5142SOL     OW20299   2.801   5.356   2.231  0.5709  0.0465 -0.4836
 5142SOL    HW220300   2.768   5.329   2.145 -0.8336 -0.3582  0.1631
 5142SOL    HW320301   2.786   5.450   2.234  0.2499 -0.0021 -0.5284
 5142SOL    MW420302   2.795   5.365   2.220  0.4431 -0.1969 -0.3452
 5143SOL     OW20303   2.602   4.424   0.154  0.1385  0.1875 -0.1967
 5143SOL    HW220304   2.532   4.413   0.218  1.5304 -0.1095  1.3151
 5143SOL    HW320305   2.660   4.489   0.192  0.5718  0.6523 -1.5726
 5143SOL    MW420306   2.600   4.431   0.167  0.6402 -0.1720 -0.0930
 5144SOL     OW20307   5.982   1.292   0.780 -0.7982 -0.1038  0.2203
 5144SOL    HW220308   5.889   1.268   0.789 -1.1772  0.7360 -1.1937
 5144SOL    HW320309   6.023   1.215   0.741 -0.7524 -0.6997  1.3838
 5144SOL    MW420310   5.975   1.279   0.776 -0.2940  0.0531  0.8236
 5145SOL     OW20311   5.818   5.435   1.744  0.3117  0.7831  0.3707
 5145SOL    HW220312   5.787   5.491   1.673  1.0662  1.1309  0.3090
 5145SOL    HW320313   5.796   5.346   1.716  2.3999  0.7067 -1.2813
 5145SOL    MW420314   5.811   5.431   1.731  0.2664 -0.3866  0.0407
 5146SOL     OW20315   2.847   0.920   3.546 -0.1445  0.0709 -0.1836
 5146SOL    HW220316   2.938   0.899   3.569  0.1865  2.2399  0.6829
 5146SOL    HW320317   2.797   0.844   3.576  1.2401 -0.6156  0.4728
 5146SOL    MW420318   2.852   0.907   3.553 -0.7408  0.3484 -0.5190
 5147SOL     OW20319   5.177   1.337   4.271  0.1265 -0.1831  0.3475
 5147SOL    HW220320   5.083   1.325   4.285 -0.4605  2.0589 -1.0772
 5147SOL    HW320321   5.194   1.300   4.185  0.5250 -0.4002  0.5140
 5147SOL    MW420322   5.167   1.331   4.262  0.7973  0.1709 -0.1463
 5148SOL     OW20323   1.211   3.353   1.700  0.4805 -0.4662  0.0296
 5148SOL    HW220324   1.231   3.284   1.763 -0.9882  0.3812  1.5087
 5148SOL    HW320325   1.291   3.406   1.695  1.7196 -2.3277 -1.3260
 5148SOL    MW420326   1.224   3.351   1.707 -0.8922  0.5187 -0.2686
 5149SOL     OW20327   0.353   6.431   4.059  1.0894 -0.0731 -0.2479
 5149SOL    HW220328   0.418   6.434   4.129  1.3971 -1.3269 -0.4456
 5149SOL    HW320329   0.296   6.357   4.082  0.5793  0.1353 -0.8037
 5149SOL    MW420330   0.354   6.421   4.071 -0.4363 -0.1197 -0.0866
 5150SOL     OW20331   0.600   4.860   3.704  0.0292 -0.2155 -0.3497
 5150SOL    HW220332   0.516   4.863   3.750  0.1483  0.9340 -0.1879
 5150SOL    HW320333   0.615   4.767   3.687 -1.1467 -0.4528 -0.1417
 5150SOL    MW420334   0.591   4.848   3.708  0.2330 -0.2842 -0.6404
 5151SOL     OW20335   6.235   5.367   0.028  0.4476  0.5174  0.3485
 5151SOL    HW220336   6.167   5.339   0.089  0.0910  1.3743  0.3690
 5151SOL    HW320337   6.292   5.291   0.017  0.0764  0.1191  1.1506
 5151SOL    MW420338   6.234   5.354   0.035  0.5402 -0.0709 -0.1778
 5152SOL     OW20339   5.202   0.094   1.096  0.2531  0.3954 -0.3642
 5152SOL    HW220340   5.265   0.051   1.154 -0.0221 -1.5287 -1.4075
 5152SOL    HW320341   5.254   0.124   1.022  0.1237 -0.2002 -0.7029
 5152SOL    MW420342   5.217   0.092   1.094  0.2428  0.1528 -0.2212
 5153SOL     OW20343   5.747   6.340   4.266  0.2762  0.1110 -0.1764
 5153SOL    HW220344   5.751   6.327   4.171  0.9291 -0.1706 -0.1173
 5153SOL    HW320345   5.654   6.354   4.285 -0.1737 -2.0897 -0.5667
 5153SOL    MW420346   5.735   6.340   4.256 -0.6494  0.0157 -0.5435
 5154SOL     OW20347   5.157   6.414   2.623  0.2437  0.2576  0.1575
 5154SOL    HW220348   5.071   6.392   2.589  0.4188  1.0263 -0.8523
 5154SOL    HW320349   5.194   6.331   2.651 -0.1838 -0.3343 -0.9627
 5154SOL    MW420350   5.151   6.400   2.622  0.6356  0.1511  0.3224
 5155SOL     OW20351   3.101   0.821   6.403  0.1335  0.1469  0.1246
 5155SOL    HW220352   3.139   0.854   6.485  1.4798  0.7499 -0.6895
 5155SOL    HW320353   3.176   0.786   6.355 -0.5346  0.3182 -1.0844
 5155SOL    MW420354   3.116   0.821   6.408 -0.5425 -0.7567  0.1983
 5156SOL     OW20355   5.498   2.332   4.761 -0.0450  0.1100  0.2881
 5156SOL    HW220356   5.574   2.286   4.796 -0.1918  1.2093  2.1852
 5156SOL    HW320357   5.507   2.422   4.794 -1.4503  0.6112 -0.5941
 5156SOL    MW420358   5.509   2.338   4.770 -0.1749 -0.5537  0.0378
 5157SOL     OW20359   6.285   1.935   1.183 -0.2703  0.7041 -0.2259
 5157SOL    HW220360   6.223   1.923   1.255 -1.0481  0.1538 -0.9734
 5157SOL    HW320361   6.332   2.015   1.206 -0.8139  0.7836  0.6716
 5157SOL    MW420362   6.283   1.944   1.196 -0.1788 -0.1415  0.1837
 5158SOL     OW20363   4.369   6.267   2.736 -0.3844 -0.8998  0.0944
 5158SOL    HW220364   4.274   6.257   2.728 -0.4836  0.6204 -1.2736
 5158SOL    HW320365   4.381   6.354   2.774  0.4479 -0.7487 -0.4662
 5158SOL    MW420366   4.358   6.277   2.740  0.3803 -0.0993 -0.4269
 5159SOL     OW20367   6.201   1.656   0.754  0.0749 -0.2948  0.4254
 5159SOL    HW220368   6.216   1.595   0.826  1.1386 -0.0484  0.4272
 5159SOL    HW320369   6.130   1.617   0.703 -1.5704  0.1269  2.2772
 5159SOL    MW420370   6.193   1.643   0.757 -0.2331  0.0741  0.2722
 5160SOL     OW20371   5.520   5.989   0.907  0.3122  0.4044 -0.2575
 5160SOL    HW220372   5.425   5.980   0.898  0.4138  0.5832 -1.9410
 5160SOL    HW320373   5.533   6.030   0.992 -1.1569  0.9544 -0.2718
 5160SOL    MW420374   5.509   5.993   0.917  0.4410 -0.2314  0.3957
 5161SOL     OW20375   4.132   3.583   2.488 -0.2603 -0.0029 -0.0723
 5161SOL    HW220376   4.111   3.558   2.578  0.7169 -0.5591  0.0118
 5161SOL    HW320377   4.159   3.501   2.446 -0.2187  0.3437 -0.7308
 5161SOL    MW420378   4.132   3.569   2.494 -0.0810 -0.5793 -0.2037
 5162SOL     OW20379   0.787   3.859   0.924  0.2570 -0.1841  0.0924
 5162SOL    HW220380   0.809   3.943   0.883 -1.4467  0.7864  1.0126
 5162SOL    HW320381   0.790   3.796   0.853  2.1451  0.5350 -0.5092
 5162SOL    MW420382   0.790   3.862   0.909  0.2995  0.2978  0.1336
 5163SOL     OW20383   0.641   6.076   3.875 -0.1887 -1.1134 -0.1464
 5163SOL    HW220384   0.573   6.081   3.807 -0.1973 -0.5924 -0.1058
 5163SOL    HW320385   0.714   6.126   3.839 -0.3162 -0.5548  0.3618
 5163SOL    MW420386   0.641   6.083   3.861 -0.0208  0.0196  0.1112
 5164SOL     OW20387   3.297   2.768   1.945  0.8499 -0.6072 -0.4377
 5164SOL    HW220388   3.306   2.788   2.038 -0.7732 -1.4996 -0.0371
 5164SOL    HW320389   3.339   2.841   1.900  2.3288 -0.5263  0.9877
 5164SOL    MW420390   3.303   2.780   1.951  0.3435 -0.5305  0.2770
 5165SOL     OW20391   3.931   5.667   4.105  0.2263 -0.2943 -0.3475
 5165SOL    HW220392   3.908   5.615   4.028 -1.2254 -0.1429 -0.0420
 5165SOL    HW320393   3.997   5.614   4.150 -1.3716 -2.0581  0.0790
 5165SOL    MW420394   3.937   5.653   4.101  0.2744  0.0999 -0.4215
 5166SOL     OW20395   0.397   6.114   5.042 -0.2210  0.4187  0.5878
 5166SOL    HW220396   0.328   6.113   5.109 -0.6767  1.7865  0.1780
 5166SOL    HW320397   0.375   6.041   4.984 -1.3539  0.8429  0.4536
 5166SOL    MW420398   0.385   6.104   5.043  0.0393 -0.1595  0.2070
 5167SOL     OW20399   3.290   5.142   4.334  0.0696  0.7411  0.1133
 5167SOL    HW220400   3.297   5.048   4.317  0.0106  0.9223 -0.9554
 5167SOL    HW320401   3.251   5.147   4.422  0.7609 -0.2239  0.4896
 5167SOL    MW420402   3.285   5.131   4.343  0.0414  0.1312  0.3726
 5168SOL     OW20403   1.901   3.381   1.113 -0.4277  0.3554 -0.3660
 5168SOL    HW220404   1.851   3.357   1.191 -0.3102  4.0811  1.0263
 5168SOL    HW320405   1.835   3.390   1.044 -0.6569 -1.8830 -0.5226
 5168SOL    MW420406   1.886   3.379   1.114  0.3668  0.0944 -0.1522
 5169SOL     OW20407   3.599   0.528   3.002 -0.1970 -0.2839  0.0707
 5169SOL    HW220408   3.617   0.465   2.933  3.1491  1.7749 -1.1913
 5169SOL    HW320409   3.562   0.604   2.957 -0.3149  0.1699  0.9052
 5169SOL    MW420410   3.596   0.530   2.987 -0.0650 -0.1410  0.4117
 5170SOL     OW20411   5.650   3.807   2.067 -0.6885  0.3153 -0.0132
 5170SOL    HW220412   5.745   3.794   2.060 -0.2985  2.4136  0.5974
 5170SOL    HW320413   5.613   3.719   2.061  1.2737 -0.5283 -0.5373
 5170SOL    MW420414   5.658   3.794   2.065  1.0822 -0.9500  0.0822
 5171SOL     OW20415   6.313   6.248   5.934 -0.7585 -0.1456  0.4967
 5171SOL    HW220416   6.242   6.196   5.897 -0.3717 -0.3583  0.0525
 5171SOL    HW320417   6.393   6.212   5.896 -0.5518  1.4316 -0.6508
 5171SOL    MW420418   6.314   6.237   5.924  0.4350  0.5351  0.4135
 5172SOL     OW20419   0.556   2.654   5.795  0.3996  0.0906  0.2184
 5172SOL    HW220420   0.626   2.719   5.789  0.5384 -0.1229 -0.6441
 5172SOL    HW320421   0.598   2.575   5.826  0.5667 -0.0680 -0.4035
 5172SOL    MW420422   0.570   2.652   5.798 -0.2052 -0.2725 -0.4302
 5173SOL     OW20423   4.920   5.453   0.060 -0.1842  0.0016  0.3626
 5173SOL    HW220424   4.904   5.366   0.097 -0.5318 -0.2340 -0.3253
 5173SOL    HW320425   4.842   5.504   0.084  0.0179  0.1277  0.7625
 5173SOL    MW420426   4.907   5.448   0.068  0.7463  0.8884  0.5839
 5174SOL     OW20427   2.796   1.447   0.136  0.5507  0.4560 -0.2889
 5174SOL    HW220428   2.846   1.460   0.055  2.5838  0.0159  0.8331
 5174SOL    HW320429   2.831   1.513   0.196 -0.0855 -0.0143  0.6160
 5174SOL    MW420430   2.807   1.458   0.133 -0.3650 -0.0241 -0.0403
 5175SOL     OW20431   4.848   3.389   6.143 -0.1886  0.3702  0.2919
 5175SOL    HW220432   4.893   3.473   6.149 -0.8873  1.0289 -2.5389
 5175SOL    HW320433   4.756   3.412   6.133 -0.7266 -0.8614  1.9110
 5175SOL    MW420434   4.842   3.403   6.143  0.1305 -0.8332 -0.0406
 5176SOL     OW20435   0.515   0.407   5.984 -0.2600  0.3729  0.4658
 5176SOL    HW220436   0.451   0.479   5.977  0.7144  1.2288  0.1495
 5176SOL    HW320437   0.468   0.339   6.033 -1.4843  0.8947  0.0736
 5176SOL    MW420438   0.500   0.408   5.989  0.7170  0.0523  0.7059
 5177SOL     OW20439   2.223   1.571   4.587  0.6085  0.1854 -0.1229
 5177SOL    HW220440   2.184   1.535   4.666 -0.2065 -0.9319 -0.9945
 5177SOL    HW320441   2.167   1.539   4.516  1.0892  1.4624 -1.1272
 5177SOL    MW420442   2.210   1.562   4.588 -0.8392 -0.3646  0.1714
 5178SOL     OW20443   4.581   5.683   0.728 -0.0711  0.4030 -0.4581
 5178SOL    HW220444   4.562   5.589   0.730  0.8068  0.2120  1.5701
 5178SOL    HW320445   4.663   5.690   0.678  0.2232  0.0047 -0.0381
 5178SOL    MW420446   4.590   5.671   0.722  0.2218 -0.0881  0.1441
 5179SOL     OW20447   5.266   3.809   6.407  0.2803  0.2117 -0.1652
 5179SOL    HW220448   5.318   3.823   6.328  1.6945 -1.4516  0.3884
 5179SOL    HW320449   5.245   3.715   6.406  0.3633  0.1456  1.4132
 5179SOL    MW420450   5.270   3.798   6.396 -0.1710  0.6416  0.0174
 5180SOL     OW20451   0.967   5.009   0.468  0.5827  0.1553 -0.4231
 5180SOL    HW220452   1.050   4.984   0.427  0.6687  0.6377 -0.5585
 5180SOL    HW320453   0.935   5.081   0.414 -0.2710 -0.4768 -0.7730
 5180SOL    MW420454   0.974   5.015   0.456 -0.3171 -0.0836 -0.1548
 5181SOL     OW20455   4.916   6.377   2.510  0.3265  0.3843 -0.1618
 5181SOL    HW220456   4.859   6.336   2.575  0.4644 -0.8728 -0.7953
 5181SOL    HW320457   4.861   6.384   2.432  0.3157  1.4127 -0.0712
 5181SOL    MW420458   4.901   6.373   2.508 -0.0964 -0.1186 -0.0958
 5182SOL     OW20459   4.600   3.541   0.016 -0.2003 -0.7251 -0.1865
 5182SOL    HW220460   4.576   3.549   0.109  0.0867 -1.6947 -0.0162
 5182SOL    HW320461   4.620   3.448   0.005  1.2921 -0.3425 -0.8501
 5182SOL    MW420462   4.599   3.529   0.027  0.2461  0.1938 -0.1822
 5183SOL     OW20463   0.594   2.759   1.748 -0.0868  0.0713  0.3512
 5183SOL    HW220464   0.555   2.783   1.664 -0.2568  1.4431  0.8035
 5183SOL    HW320465   0.624   2.842   1.786 -0.6337 -0.4253  1.9578
 5183SOL    MW420466   0.593   2.773   1.742 -0.1205  0.6632  0.1769
 5184SOL     OW20467   0.219   2.584   3.340 -0.0109 -0.0318 -0.1997
 5184SOL    HW220468   0.228   2.676   3.314 -1.9468  0.2453 -0.0729
 5184SOL    HW320469   0.138   2.582   3.392  0.2817 -1.7223  0.2382
 5184SOL    MW420470   0.209   2.596   3.343  0.3094  0.4074 -0.0022
 5185SOL     OW20471   1.169   0.637   4.038 -0.6438 -0.0767  0.0848
 5185SOL    HW220472   1.193   0.544   4.031  2.6682  0.5885  1.1286
 5185SOL    HW320473   1.073   0.637   4.027 -0.7357 -3.5310 -0.3778
 5185SOL    MW420474   1.159   0.625   4.036  0.9092 -0.2600 -0.5571
 5186SOL     OW20475   4.989   5.212   1.150 -0.5013  0.1639  0.4938
 5186SOL    HW220476   5.011   5.119   1.158 -0.7570  0.1687  1.4338
 5186SOL    HW320477   4.969   5.224   1.057  2.0490 -0.1214 -0.1433
 5186SOL    MW420478   4.989   5.201   1.139 -0.2317 -0.0657 -0.5569
 5187SOL     OW20479   2.664   5.265   2.017 -0.1204 -0.7481  0.3573
 5187SOL    HW220480   2.700   5.200   1.957 -0.4921 -0.9376  0.3357
 5187SOL    HW320481   2.575   5.235   2.033  0.4343 -1.5536  2.1887
 5187SOL    MW420482   2.657   5.253   2.011 -0.0802 -0.1193  0.0018
 5188SOL     OW20483   3.514   4.688   2.080  0.1498 -0.4378 -0.2772
 5188SOL    HW220484   3.593   4.659   2.034  0.9870 -0.8078  1.3434
 5188SOL    HW320485   3.488   4.768   2.034  1.7406 -0.0306 -0.5393
 5188SOL    MW420486   3.521   4.694   2.068  0.2439  0.0868  0.5402
 5189SOL     OW20487   0.974   5.548   2.407  0.3730 -0.2664  0.4498
 5189SOL    HW220488   1.059   5.566   2.367  1.1318  0.6455  2.3478
 5189SOL    HW320489   0.911   5.555   2.335  1.7066  0.8876 -0.6423
 5189SOL    MW420490   0.977   5.551   2.392 -0.0052 -0.5026  0.4506
 5190SOL     OW20491   5.040   1.229   0.292 -0.4722 -0.1396  0.2786
 5190SOL    HW220492   5.040   1.159   0.226  1.4835  0.1137 -0.0616
 5190SOL    HW320493   5.088   1.301   0.251  0.9670 -0.0390  2.0100
 5190SOL    MW420494   5.046   1.229   0.278 -0.2719  0.1591 -0.0124
 5191SOL     OW20495   1.816   2.977   1.083  0.3606  0.3770 -0.3065
 5191SOL    HW220496   1.803   2.926   1.003  1.5762 -2.6996  1.2891
 5191SOL    HW320497   1.729   3.009   1.105 -1.0274 -2.9128 -0.3403
 5191SOL    MW420498   1.803   2.974   1.075  0.0414 -0.0649 -0.1830
 5192SOL     OW20499   5.430   0.482   4.182 -0.2918 -0.1188 -0.2015
 5192SOL    HW220500   5.381   0.512   4.106 -0.4083 -0.3388 -0.2137
 5192SOL    HW320501   5.388   0.524   4.257 -0.0580  0.2482 -0.2763
 5192SOL    MW420502   5.418   0.491   4.182  0.0598  0.0961  0.4292
 5193SOL     OW20503   6.070   0.243   0.606  0.2541 -0.0372  0.0461
 5193SOL    HW220504   6.066   0.326   0.654 -0.2641 -0.3324  0.5330
 5193SOL    HW320505   6.121   0.186   0.663 -0.4710 -0.4290  0.3078
 5193SOL    MW420506   6.076   0.247   0.620 -0.4964  0.2386  0.1498
 5194SOL     OW20507   3.814   1.205   4.519  1.0269 -0.2502  0.7853
 5194SOL    HW220508   3.759   1.127   4.506 -0.4240  1.0657 -1.9040
 5194SOL    HW320509   3.866   1.211   4.438  2.7346  0.3939  1.8854
 5194SOL    MW420510   3.814   1.196   4.506  0.0220 -0.1184 -0.1174
 5195SOL     OW20511   5.683   4.086   1.979 -0.4498 -0.3151 -0.3376
 5195SOL    HW220512   5.649   3.999   2.003  1.0103 -1.0566 -0.7908
 5195SOL    HW320513   5.609   4.131   1.939 -2.1458 -0.1576  2.6677
 5195SOL    MW420514   5.669   4.080   1.977 -0.1588  0.0125 -0.1191
 5196SOL     OW20515   1.691   2.292   1.132  0.2414  0.1963  0.0620
 5196SOL    HW220516   1.686   2.308   1.038  0.9603  0.8912  0.1296
 5196SOL    HW320517   1.610   2.247   1.154  1.1467 -2.3115 -1.3395
 5196SOL    MW420518   1.680   2.288   1.123 -0.5253 -0.4974 -0.0161
 5197SOL     OW20519   5.715   3.600   4.353  0.1009  0.0500 -0.3582
 5197SOL    HW220520   5.719   3.606   4.448 -1.9040  0.2536 -0.2539
 5197SOL    HW320521   5.773   3.527   4.331 -0.5006 -0.9022  1.1367
 5197SOL    MW420522   5.723   3.591   4.362 -0.2107  0.1850 -0.7711
 5198SOL     OW20523   4.972   0.917   3.099  0.7762  0.2740  0.2171
 5198SOL    HW220524   4.957   0.979   3.028  0.5940  0.8244  0.7294
 5198SOL    HW320525   4.892   0.863   3.101  0.1246  1.2180  0.9480
 5198SOL    MW420526   4.959   0.918   3.090  0.2819 -0.0997 -0.0474
 5199SOL     OW20527   3.088   3.358   6.385 -0.3990  0.0637 -0.0127
 5199SOL    HW220528   3.169   3.352   6.333 -1.1046 -0.6866 -1.0643
 5199SOL    HW320529   3.117   3.393   6.469  0.7448  1.6112 -0.9935
 5199SOL    MW420530   3.103   3.362   6.389  0.3744 -0.1430  0.9727
 5200SOL     OW20531   5.345   0.146   0.833  0.2051 -0.1014  0.0329
 5200SOL    HW220532   5.256   0.133   0.800  0.2038 -0.0086 -0.0025
 5200SOL    HW320533   5.400   0.146   0.755  0.0743  1.1849 -0.0817
 5200SOL    MW420534   5.340   0.145   0.819  0.5459 -0.1534  0.1537
 5201SOL     OW20535   3.853   1.577   1.696 -0.7045  0.0078  0.2474
 5201SOL    HW220536   3.775   1.616   1.656  0.2557  2.3039  0.5037
 5201SOL    HW320537   3.853   1.486   1.664 -2.5532  0.4290 -1.0980
 5201SOL    MW420538   3.843   1.570   1.686 -0.1316  0.0195 -0.3281
 5202SOL     OW20539   4.622   6.254   5.779 -0.3285 -0.4207 -0.0747
 5202SOL    HW220540   4.701   6.201   5.765  0.9544  1.6180 -1.0187
 5202SOL    HW320541   4.555   6.190   5.802  1.4391 -2.3069  0.1933
 5202SOL    MW420542   4.624   6.238   5.780  0.1490 -0.0618  0.4528
 5203SOL     OW20543   0.692   2.174   2.399 -0.5263  0.9505 -0.7207
 5203SOL    HW220544   0.657   2.096   2.443  1.2692  0.4302 -0.1188
 5203SOL    HW320545   0.668   2.247   2.457 -0.2303  0.5556 -0.0849
 5203SOL    MW420546   0.684   2.173   2.413 -0.0702  0.2354  0.1763
 5204SOL     OW20547   3.222   5.882   2.731  0.6867  0.2858  0.0915
 5204SOL    HW220548   3.230   5.955   2.792 -0.2270 -0.6174  1.3579
 5204SOL    HW320549   3.309   5.871   2.693  1.3147  0.7858  1.3521
 5204SOL    MW420550   3.234   5.890   2.734  0.5341 -0.0109 -0.0128
 5205SOL     OW20551   1.401   2.275   1.899  0.4412  0.6126 -0.3145
 5205SOL    HW220552   1.461   2.281   1.825  1.4813  2.3378  0.6104
 5205SOL    HW320553   1.437   2.334   1.965 -1.6646  0.8580  0.7224
 5205SOL    MW420554   1.414   2.284   1.898 -0.0273  0.2309 -0.4011
 5206SOL     OW20555   2.745   5.943   0.746  0.1819  0.0852 -0.1141
 5206SOL    HW220556   2.742   6.020   0.803  0.1724 -0.7863  1.0931
 5206SOL    HW320557   2.814   5.888   0.783  0.1309 -0.5419 -0.9115
 5206SOL    MW420558   2.754   5.946   0.758 -0.5433  0.6038 -0.2474
 5207SOL     OW20559   0.390   2.158   4.762 -0.1499  0.1785 -0.0464
 5207SOL    HW220560   0.452   2.205   4.705 -0.1414  0.4083  0.1535
 5207SOL    HW320561   0.305   2.170   4.719 -0.4311  1.8351  0.8951
 5207SOL    MW420562   0.387   2.166   4.749 -0.0129  0.3826 -0.2077
 5208SOL     OW20563   2.521   4.404   3.296  0.7966 -0.5235 -0.0017
 5208SOL    HW220564   2.525   4.383   3.202 -0.0488  1.0625 -0.4224
 5208SOL    HW320565   2.606   4.443   3.315  0.0195  1.7440 -0.8269
 5208SOL    MW420566   2.533   4.406   3.286  0.4720  0.1061 -0.0287
 5209SOL     OW20567   0.859   1.748   5.888 -0.1201  0.1784  0.1277
 5209SOL    HW220568   0.948   1.743   5.852 -1.0223  0.3985 -2.3534
 5209SOL    HW320569   0.865   1.808   5.961  1.5987  0.9787 -0.6297
 5209SOL    MW420570   0.871   1.755   5.893  0.0521 -0.1393  0.0122
 5210SOL     OW20571   3.529   2.540   1.132  0.5912 -0.0958 -0.2979
 5210SOL    HW220572   3.529   2.505   1.221  2.4813 -0.4176 -0.3751
 5210SOL    HW320573   3.438   2.532   1.103  0.4027 -2.3628  0.7075
 5210SOL    MW420574   3.517   2.534   1.140 -0.3714 -0.1908  0.1031
 5211SOL     OW20575   1.552   0.624   3.675  0.1871 -0.2462  0.2609
 5211SOL    HW220576   1.471   0.675   3.663 -0.3758 -0.6222  2.1476
 5211SOL    HW320577   1.621   0.690   3.677  0.2798 -0.0386 -3.4063
 5211SOL    MW420578   1.550   0.639   3.674  0.3353 -0.0118  0.2190
 5212SOL     OW20579   1.337   3.895   1.529 -0.1170  0.1113  0.2806
 5212SOL    HW220580   1.424   3.935   1.525 -0.9448  2.0156  0.1951
 5212SOL    HW320581   1.334   3.838   1.452  1.0074  0.1165  0.2132
 5212SOL    MW420582   1.348   3.893   1.518 -0.2685 -0.5164 -0.1951
 5213SOL     OW20583   4.034   2.599   4.068  0.3357  0.6157  0.3887
 5213SOL    HW220584   4.025   2.565   3.979 -0.5240 -0.2023  0.7668
 5213SOL    HW320585   3.962   2.662   4.077 -0.4688 -0.3507  0.9494
 5213SOL    MW420586   4.023   2.603   4.057 -0.9933  0.4300 -0.1297
 5214SOL     OW20587   2.509   5.559   2.989 -0.0517 -0.4591 -0.5094
 5214SOL    HW220588   2.499   5.464   2.993  0.7387 -0.5377  2.8871
 5214SOL    HW320589   2.603   5.575   2.995 -0.1546  0.5700 -1.1960
 5214SOL    MW420590   2.520   5.549   2.990 -0.4137 -0.0146 -0.4427
 5215SOL     OW20591   5.789   4.298   5.137 -0.2734  0.3780  0.2184
 5215SOL    HW220592   5.739   4.348   5.073  0.0326  0.6565  0.1893
 5215SOL    HW320593   5.725   4.268   5.201 -0.4452  0.9113  0.2990
 5215SOL    MW420594   5.774   4.301   5.137 -0.0611 -0.2757  0.2919
 5216SOL     OW20595   4.257   5.311   5.390 -0.1793  0.3597  0.0845
 5216SOL    HW220596   4.199   5.260   5.334  0.7936 -0.5939 -0.0871
 5216SOL    HW320597   4.295   5.377   5.332 -0.3530  0.3726 -0.0152
 5216SOL    MW420598   4.255   5.313   5.375  0.0028  0.0548 -0.0798
 5217SOL     OW20599   5.112   2.931   6.286  0.0893  0.0869 -0.0340
 5217SOL    HW220600   5.187   2.892   6.330 -0.1808 -0.3457  0.0483
 5217SOL    HW320601   5.128   3.026   6.291 -0.9731  0.2122  2.9665
 5217SOL    MW420602   5.124   2.938   6.293 -0.3422 -0.9048 -0.5629
 5218SOL     OW20603   3.650   5.127   0.303 -0.0173  0.0459  0.4630
 5218SOL    HW220604   3.646   5.200   0.364 -0.3174 -0.1385  0.6664
 5218SOL    HW320605   3.559   5.111   0.279  0.2172  2.2968 -2.6379
 5218SOL    MW420606   3.637   5.135   0.308  0.1878  0.0410 -0.6768
 5219SOL     OW20607   0.081   2.525   1.954  0.0897 -0.2325  0.1870
 5219SOL    HW220608   0.008   2.472   1.923 -0.1995 -0.1630  0.7263
 5219SOL    HW320609   0.102   2.584   1.881 -2.1942  1.6584  0.9315
 5219SOL    MW420610   0.074   2.526   1.941 -0.0498 -0.3132 -0.1109
 5220SOL     OW20611   0.938   0.736   5.767 -0.5922  0.0752 -0.0463
 5220SOL    HW220612   0.907   0.718   5.678  1.2157  1.2457 -0.9561
 5220SOL    HW320613   0.859   0.730   5.821 -1.3942 -2.7290 -1.3669
 5220SOL    MW420614   0.923   0.733   5.763 -0.0721 -0.1873  0.7970
 5221SOL     OW20615   4.411   1.203   1.711 -0.2181  0.7009  0.1573
 5221SOL    HW220616   4.459   1.138   1.658  0.7285  1.9655 -0.6112
 5221SOL    HW320617   4.476   1.234   1.774 -0.0686  2.2399 -0.7133
 5221SOL    MW420618   4.426   1.198   1.712 -0.1196  0.9203 -0.0666
 5222SOL     OW20619   2.259   0.923   1.458 -0.1734  0.0760  0.6269
 5222SOL    HW220620   2.193   0.970   1.509  1.5990  1.3922  1.8335
 5222SOL    HW320621   2.270   0.839   1.504 -1.7544 -0.6302 -0.2318
 5222SOL    MW420622   2.252   0.918   1.471  0.5213  0.1797  0.4166
 5223SOL     OW20623   4.952   4.020   4.084  0.1348  0.5110 -0.3361
 5223SOL    HW220624   4.878   4.080   4.081  0.9419  1.4855 -2.2822
 5223SOL    HW320625   5.016   4.063   4.141 -0.0248  0.6155 -0.2367
 5223SOL    MW420626   4.951   4.033   4.091 -0.0886  0.2852 -0.2305
 5224SOL     OW20627   2.768   0.846   2.433  0.5152 -0.2843 -0.1783
 5224SOL    HW220628   2.825   0.898   2.378  0.5676 -1.1739 -0.9936
 5224SOL    HW320629   2.817   0.765   2.450  0.2088 -0.3256  0.5768
 5224SOL    MW420630   2.782   0.842   2.428  0.1699  0.0127 -0.4808
 5225SOL     OW20631   3.307   2.850   1.509 -0.3722  0.0266 -0.0897
 5225SOL    HW220632   3.257   2.773   1.536 -0.4678  0.6076  1.4990
 5225SOL    HW320633   3.241   2.913   1.481 -0.2878 -0.4774 -1.5034
 5225SOL    MW420634   3.292   2.848   1.509 -0.1927 -0.5293  0.6338
 5226SOL     OW20635   0.319   5.521   5.868 -0.0319  0.1532 -0.0817
 5226SOL    HW220636   0.239   5.476   5.896 -0.7008  1.4301  0.1568
 5226SOL    HW320637   0.308   5.531   5.773 -0.0039  0.0354 -0.0972
 5226SOL    MW420638   0.307   5.517   5.859 -0.3730  0.5888  0.1760
 5227SOL     OW20639   5.169   1.334   2.268  0.0867  0.0699 -0.8690
 5227SOL    HW220640   5.192   1.426   2.252  0.5855  0.3338  1.1829
 5227SOL    HW320641   5.093   1.338   2.326 -0.3846 -0.8340 -1.4033
 5227SOL    MW420642   5.162   1.347   2.273 -0.3061 -0.6437  0.3748
 5228SOL     OW20643   6.232   4.543   4.150 -0.3806 -0.5154 -0.3338
 5228SOL    HW220644   6.308   4.515   4.099  0.8586  0.2815  0.9936
 5228SOL    HW320645   6.169   4.574   4.085  0.1924 -1.7062 -1.4984
 5228SOL    MW420646   6.234   4.543   4.135  0.3957 -0.3755 -1.2926
 5229SOL     OW20647   1.749   3.162   5.545  0.3750  0.0380 -0.1151
 5229SOL    HW220648   1.821   3.222   5.529  0.4441 -0.4128 -1.6565
 5229SOL    HW320649   1.671   3.210   5.518  0.5036 -0.7677 -2.1264
 5229SOL    MW420650   1.748   3.176   5.540 -1.0876 -0.5324  0.2777
 5230SOL     OW20651   5.140   2.562   3.689  0.5438  0.0549 -0.4147
 5230SOL    HW220652   5.222   2.538   3.647  1.1730  2.2984 -0.5568
 5230SOL    HW320653   5.165   2.610   3.768 -0.6092  1.0478 -0.6233
 5230SOL    MW420654   5.154   2.565   3.694 -0.4265  0.0225 -0.0281
 5231SOL     OW20655   6.055   1.684   5.067  0.0388 -0.4116 -0.1256
 5231SOL    HW220656   6.100   1.762   5.102 -0.5635  0.2282 -0.7546
 5231SOL    HW320657   6.090   1.674   4.978 -0.4267 -0.4168 -0.3110
 5231SOL    MW420658   6.066   1.693   5.060 -0.2419  0.4301 -0.2578
 5232SOL     OW20659   0.444   5.741   6.031 -0.2633  0.2382  0.1665
 5232SOL    HW220660   0.535   5.741   6.059 -0.7623  0.3656  1.8886
 5232SOL    HW320661   0.435   5.662   5.978  0.4741 -0.6129  1.2749
 5232SOL    MW420662   0.455   5.731   6.027  0.1900  0.0850  0.3965
 5233SOL     OW20663   1.885   5.440   5.912  0.0880 -0.3349  0.4513
 5233SOL    HW220664   1.954   5.374   5.906 -0.5844 -0.9814 -0.6061
 5233SOL    HW320665   1.809   5.393   5.947 -0.5520 -0.2857 -0.8053
 5233SOL    MW420666   1.884   5.425   5.916 -0.0737 -0.2895  0.2523
 5234SOL     OW20667   5.456   1.221   3.467 -0.3046  0.4006 -0.6633
 5234SOL    HW220668   5.520   1.190   3.531  0.8400 -0.1961 -2.0296
 5234SOL    HW320669   5.402   1.144   3.448 -0.2031  0.3878 -0.9071
 5234SOL    MW420670   5.457   1.207   3.473  0.2671 -0.3797  0.4299
 5235SOL     OW20671   5.394   5.449   2.856 -0.2924  0.4776 -0.4269
 5235SOL    HW220672   5.331   5.467   2.787  0.7273  0.3206 -1.4242
 5235SOL    HW320673   5.355   5.488   2.935 -0.5108  2.4999 -1.4866
 5235SOL    MW420674   5.380   5.456   2.857 -0.1620  0.0570  0.1686
 5236SOL     OW20675   0.343   2.546   5.322  0.2898  0.4996  0.4235
 5236SOL    HW220676   0.275   2.484   5.349  0.9683  0.7678  2.9191
 5236SOL    HW320677   0.341   2.615   5.388  0.6648  2.3388 -1.3877
 5236SOL    MW420678   0.334   2.547   5.334  0.0920 -0.3657 -0.0132
 5237SOL     OW20679   1.318   4.174   6.382  0.4771 -0.0989  0.2450
 5237SOL    HW220680   1.318   4.174   6.286 -2.0390  0.6249  0.1480
 5237SOL    HW320681   1.373   4.101   6.407  0.2437 -1.0365 -1.8069
 5237SOL    MW420682   1.325   4.164   6.373 -0.2283  0.7250 -0.1886
 5238SOL     OW20683   1.117   3.547   3.380  0.2749  0.4130 -0.8298
 5238SOL    HW220684   1.173   3.624   3.388 -0.2449  0.7849 -0.7921
 5238SOL    HW320685   1.066   3.545   3.461  0.6627 -0.2713 -0.5931
 5238SOL    MW420686   1.118   3.557   3.392 -0.2836  0.1982 -0.4327
 5239SOL     OW20687   4.464   4.591   3.079 -0.6299  0.6165  0.1240
 5239SOL    HW220688   4.470   4.496   3.069 -1.0228  0.5659  0.3298
 5239SOL    HW320689   4.404   4.618   3.009 -0.4067  0.7327 -0.0245
 5239SOL    MW420690   4.457   4.582   3.068  0.3261  0.4064  0.1936
 5240SOL     OW20691   0.098   0.594   4.493 -0.3002 -0.4611 -0.2925
 5240SOL    HW220692   0.016   0.612   4.447 -0.6588  0.2242  0.5712
 5240SOL    HW320693   0.071   0.576   4.583  0.3573 -2.0803 -0.3863
 5240SOL    MW420694   0.083   0.594   4.499 -0.1218  0.6283  0.4310
 5241SOL     OW20695   4.493   2.597   3.460 -0.1275  0.1987  0.5205
 5241SOL    HW220696   4.538   2.652   3.523  1.6822  1.0521 -1.4027
 5241SOL    HW320697   4.488   2.650   3.380  0.0137 -1.7329 -0.8605
 5241SOL    MW420698   4.498   2.611   3.458  0.1771  0.3648  0.5856
 5242SOL     OW20699   4.852   1.908   5.239 -0.1256 -0.2702 -0.3580
 5242SOL    HW220700   4.916   1.896   5.308  1.6144  0.5619 -1.7264
 5242SOL    HW320701   4.888   1.980   5.186 -2.9231  1.2575 -0.3868
 5242SOL    MW420702   4.865   1.916   5.241  0.4397  0.3118  0.1461
 5243SOL     OW20703   0.388   0.584   5.590 -0.3293  0.2340  0.0263
 5243SOL    HW220704   0.351   0.509   5.638 -0.5936 -0.1366 -0.7429
 5243SOL    HW320705   0.366   0.567   5.499  0.6208  0.6763 -0.2914
 5243SOL    MW420706   0.380   0.572   5.584  0.3025 -0.3387  0.3306
 5244SOL     OW20707   6.423   2.448   4.903 -0.5547  0.0513  0.4258
 5244SOL    HW220708   6.455   2.363   4.932  0.2444  0.3410  0.4172
 5244SOL    HW320709   6.339   2.429   4.862  0.7688 -1.1508 -1.9791
 5244SOL    MW420710   6.416   2.435   4.901  0.1444  0.0964  0.4632
 5245SOL     OW20711   0.421   5.158   1.321 -0.1493  0.7250  0.0305
 5245SOL    HW220712   0.401   5.221   1.391 -0.1131 -0.7210  1.3845
 5245SOL    HW320713   0.356   5.089   1.332  0.2913  0.1440 -0.9428
 5245SOL    MW420714   0.410   5.157   1.332  0.2999  0.0483  0.3586
 5246SOL     OW20715   3.708   3.213   0.671 -0.5804 -0.1363 -0.0766
 5246SOL    HW220716   3.690   3.139   0.730 -0.4224  1.2728  1.8314
 5246SOL    HW320717   3.793   3.246   0.700 -1.3154  1.6883  0.1258
 5246SOL    MW420718   3.717   3.207   0.683  0.6033 -0.1870  0.1228
 5247SOL     OW20719   0.726   6.189   3.292  0.0261 -1.1221  0.1143
 5247SOL    HW220720   0.666   6.243   3.344  1.6677  0.1577  0.7875
 5247SOL    HW320721   0.728   6.232   3.207 -1.1139 -2.0399 -0.3999
 5247SOL    MW420722   0.718   6.202   3.288  0.0383 -0.0688 -0.0019
 5248SOL     OW20723   5.769   2.410   0.137 -0.2484  0.2549 -0.2338
 5248SOL    HW220724   5.730   2.370   0.060  1.4617  0.3961 -1.2319
 5248SOL    HW320725   5.844   2.354   0.158 -0.4586  0.4382  1.1036
 5248SOL    MW420726   5.774   2.397   0.130 -0.2443 -0.0064 -0.3976
 5249SOL     OW20727   2.745   2.015   4.340  0.2041  0.4443  0.2134
 5249SOL    HW220728   2.673   2.040   4.281  0.0771  2.2884  1.0872
 5249SOL    HW320729   2.782   1.937   4.300 -1.9054 -0.2211 -0.5950
 5249SOL    MW420730   2.740   2.008   4.327 -0.1032  0.5534  0.1990
 5250SOL     OW20731   4.853   3.436   2.629  0.9357  0.1307 -0.3505
 5250SOL    HW220732   4.882   3.513   2.678  1.3508 -0.6889  0.7276
 5250SOL    HW320733   4.759   3.449   2.616  1.0885  1.0433 -0.6094
 5250SOL    MW420734   4.845   3.448   2.634  0.2366 -0.0466  0.0059
 5251SOL     OW20735   3.034   6.140   0.007 -0.0257  0.2093 -0.2600
 5251SOL    HW220736   3.027   6.220  -0.047 -3.8176 -0.7134 -1.4383
 5251SOL    HW320737   3.043   6.069  -0.057 -0.5023 -0.5758  0.5260
 5251SOL    MW420738   3.034   6.142  -0.009  0.7830  0.2821 -0.5043
 5252SOL     OW20739   1.363   1.571   0.915 -0.3033  0.3058 -0.2784
 5252SOL    HW220740   1.387   1.490   0.870  0.9098  0.4033  0.1503
 5252SOL    HW320741   1.403   1.641   0.863 -1.8470  0.7046 -0.9866
 5252SOL    MW420742   1.372   1.570   0.902 -0.5004 -0.1684  0.2133
 5253SOL     OW20743   4.294   4.387   4.226  0.0213  0.2286  0.0022
 5253SOL    HW220744   4.353   4.457   4.198 -0.9206  0.9722 -0.1762
 5253SOL    HW320745   4.237   4.373   4.150  1.2352 -1.9113 -0.5949
 5253SOL    MW420746   4.294   4.395   4.212  0.2266  0.2614  0.3585
 5254SOL     OW20747   6.000   4.757   5.461  0.2212 -0.0149 -0.5210
 5254SOL    HW220748   5.975   4.680   5.408  0.5994  0.2022 -1.0217
 5254SOL    HW320749   6.062   4.722   5.525  1.2633  0.0594 -1.4591
 5254SOL    MW420750   6.005   4.742   5.462 -0.4388  0.1079  0.0944
 5255SOL     OW20751   0.327   1.008   0.737 -0.0935 -0.1817 -0.0198
 5255SOL    HW220752   0.254   0.971   0.786  0.0369 -0.5659 -0.1156
 5255SOL    HW320753   0.404   0.992   0.793 -0.0285 -0.0936 -0.0828
 5255SOL    MW420754   0.328   1.001   0.751 -0.2381  0.0048 -0.2278
 5256SOL     OW20755   1.076   6.344   2.391 -0.2468  0.0510 -0.6664
 5256SOL    HW220756   0.989   6.319   2.424  0.2072 -0.9303 -0.1543
 5256SOL    HW320757   1.131   6.345   2.469  0.2195  0.6229 -0.9951
 5256SOL    MW420758   1.071   6.341   2.406 -0.1702  0.4798 -0.4657
 5257SOL     OW20759   5.485   3.941   4.563 -1.0856  0.3529 -0.1365
 5257SOL    HW220760   5.506   3.952   4.470 -1.8237  1.5424 -0.1930
 5257SOL    HW320761   5.570   3.941   4.607 -0.7929  1.6644 -0.6554
 5257SOL    MW420762   5.499   3.943   4.556 -0.2392  0.3590  0.6149
 5258SOL     OW20763   3.956   6.126   3.278 -0.5752 -0.2178 -0.8014
 5258SOL    HW220764   3.896   6.058   3.248 -1.3863 -0.1619  0.5944
 5258SOL    HW320765   4.043   6.086   3.272 -0.9462 -1.0261 -0.9071
 5258SOL    MW420766   3.960   6.112   3.273  0.4184  0.5049 -0.4210
 5259SOL     OW20767   1.380   2.868   1.275  0.4133  0.2193  0.0696
 5259SOL    HW220768   1.307   2.927   1.294  1.5340  1.8583 -0.5148
 5259SOL    HW320769   1.385   2.811   1.352 -0.9993  0.5633  0.4461
 5259SOL    MW420770   1.371   2.869   1.287  0.1066 -0.3386 -0.7818
 5260SOL     OW20771   1.362   0.139   3.031 -0.3752  0.8205  0.1426
 5260SOL    HW220772   1.378   0.057   2.983  0.1863  1.8216 -1.4655
 5260SOL    HW320773   1.449   0.165   3.062 -0.3323  1.5027 -0.5403
 5260SOL    MW420774   1.376   0.132   3.029  0.4342  0.2943  0.7351
 5261SOL     OW20775   3.917   1.476   5.041  0.0313 -0.6530  0.8250
 5261SOL    HW220776   3.918   1.566   5.073 -1.2338  0.0917 -1.0534
 5261SOL    HW320777   3.842   1.435   5.084 -0.3027 -0.3468  0.5356
 5261SOL    MW420778   3.907   1.482   5.051 -1.0297  0.3492  0.0455
 5262SOL     OW20779   2.595   4.490   2.732 -0.7335 -0.0100  0.3585
 5262SOL    HW220780   2.653   4.500   2.808 -0.8839 -1.0626  0.6269
 5262SOL    HW320781   2.540   4.568   2.735  0.9972  1.3200 -0.2296
 5262SOL    MW420782   2.596   4.502   2.743 -0.1611 -0.0931 -0.1667
 5263SOL     OW20783   3.010   2.600   6.046  0.4933 -0.2916  0.1668
 5263SOL    HW220784   3.024   2.647   6.128  0.6306  0.1340 -0.1003
 5263SOL    HW320785   3.032   2.663   5.978  2.6231 -1.3013 -0.1806
 5263SOL    MW420786   3.015   2.614   6.048  0.4916  0.6300  0.3889
 5264SOL     OW20787   3.729   0.608   1.681 -0.5425  0.3729  0.6348
 5264SOL    HW220788   3.771   0.522   1.679 -1.5505 -0.1829  2.0133
 5264SOL    HW320789   3.640   0.592   1.651  0.1531  1.5778 -2.4965
 5264SOL    MW420790   3.723   0.595   1.676 -1.2542  0.1117 -0.3049
 5265SOL     OW20791   4.789   4.560   4.901 -0.1383  0.1098  0.1247
 5265SOL    HW220792   4.706   4.607   4.907 -0.2923 -0.1086 -0.2827
 5265SOL    HW320793   4.777   4.497   4.830  0.5194  0.3593 -0.2227
 5265SOL    MW420794   4.777   4.558   4.893 -0.2582  0.0439 -0.2396
 5266SOL     OW20795   1.203   2.705   3.732 -0.0312  0.3493 -0.7594
 5266SOL    HW220796   1.230   2.661   3.812  1.7757  1.7484 -0.5305
 5266SOL    HW320797   1.166   2.788   3.761 -0.9402  0.1393 -1.2969
 5266SOL    MW420798   1.202   2.711   3.746 -0.6269  0.1809 -0.3904
 5267SOL     OW20799   2.244   6.140   4.090  0.3503 -0.3843 -0.2320
 5267SOL    HW220800   2.158   6.125   4.130  0.7213 -0.2236  0.6378
 5267SOL    HW320801   2.266   6.231   4.111  1.9017 -1.1526  1.9082
 5267SOL    MW420802   2.236   6.150   4.098  0.4305  0.6851 -0.2764
 5268SOL     OW20803   4.609   0.828   5.877  0.4767  0.0101 -0.1642
 5268SOL    HW220804   4.544   0.865   5.817 -0.6698  0.0621  1.0431
 5268SOL    HW320805   4.565   0.751   5.914  0.6597  0.6621  1.4784
 5268SOL    MW420806   4.595   0.823   5.874 -0.4586  0.2919 -0.4292
 5269SOL     OW20807   4.390   6.107   3.907  0.0637  0.2538 -0.3552
 5269SOL    HW220808   4.436   6.083   3.826 -1.3397 -1.3791 -0.7211
 5269SOL    HW320809   4.368   6.200   3.895 -1.6269 -0.3452 -2.7024
 5269SOL    MW420810   4.393   6.116   3.895 -0.3206 -0.2924 -0.7648
 5270SOL     OW20811   3.369   5.218   0.926 -0.5780  0.4342  0.0951
 5270SOL    HW220812   3.355   5.163   0.848 -1.6629 -0.3725  0.8418
 5270SOL    HW320813   3.442   5.176   0.971 -0.2573  0.6340 -0.2242
 5270SOL    MW420814   3.377   5.205   0.921 -0.1460 -0.0414  0.0795
 5271SOL     OW20815   1.871   2.606   0.184 -0.3951 -0.0173 -0.0163
 5271SOL    HW220816   1.895   2.677   0.243 -0.0684 -1.3885  1.5972
 5271SOL    HW320817   1.839   2.536   0.242  0.2089 -1.5474 -1.4251
 5271SOL    MW420818   1.870   2.606   0.200 -0.3318  0.2498  0.4482
 5272SOL     OW20819   4.843   4.573   3.861 -0.2144 -0.2171 -0.0833
 5272SOL    HW220820   4.827   4.627   3.939  0.1106 -0.5880  0.2403
 5272SOL    HW320821   4.939   4.570   3.854 -0.2418  0.5735 -1.0255
 5272SOL    MW420822   4.854   4.580   3.871  0.4410  0.0855  0.0568
 5273SOL     OW20823   1.807   4.604   1.855 -0.2662 -0.3981  0.3345
 5273SOL    HW220824   1.781   4.513   1.844 -0.2556 -0.3676  0.0507
 5273SOL    HW320825   1.833   4.611   1.947 -0.5163 -0.6171  0.4209
 5273SOL    MW420826   1.807   4.593   1.865  0.0982  0.2160  0.6626
 5274SOL     OW20827   0.464   2.115   3.488 -0.3034  0.0583 -0.5003
 5274SOL    HW220828   0.402   2.176   3.449  0.4474 -0.2115 -2.2045
 5274SOL    HW320829   0.528   2.098   3.419  0.4561 -1.3454  0.4931
 5274SOL    MW420830   0.465   2.121   3.474 -0.4693  0.1417  0.1865
 5275SOL     OW20831   5.827   0.876   2.514  0.1822 -0.3702 -0.2988
 5275SOL    HW220832   5.798   0.789   2.542 -1.0862 -0.0081 -0.4263
 5275SOL    HW320833   5.776   0.895   2.436  0.4411  0.4897 -0.2739
 5275SOL    MW420834   5.817   0.867   2.508 -0.3073 -0.2083 -0.1011
 5276SOL     OW20835   5.307   2.297   5.111 -0.4777  0.0233 -0.1033
 5276SOL    HW220836   5.400   2.272   5.108 -0.0843  1.2872 -4.2546
 5276SOL    HW320837   5.308   2.392   5.126 -1.1924 -0.0595  0.5572
 5276SOL    MW420838   5.320   2.306   5.113 -0.4573  0.3206  0.7008
 5277SOL     OW20839   4.882   3.294   1.531 -0.0230 -0.0738 -0.3814
 5277SOL    HW220840   4.806   3.260   1.580 -0.4998  0.0835 -0.9956
 5277SOL    HW320841   4.955   3.287   1.592 -0.3385 -1.1381 -0.1056
 5277SOL    MW420842   4.881   3.289   1.546 -0.0104  0.3103  0.1709
 5278SOL     OW20843   0.388   4.317   1.886  0.1166  0.4832 -0.4573
 5278SOL    HW220844   0.448   4.304   1.813  2.9213  0.4297  1.6702
 5278SOL    HW320845   0.436   4.374   1.946 -2.6126  1.6649  0.7888
 5278SOL    MW420846   0.402   4.323   1.884  0.4682 -0.4483  0.0543
 5279SOL     OW20847   0.094   5.232   3.609  0.6928  0.1097  0.3060
 5279SOL    HW220848   0.039   5.159   3.638 -0.0497  0.2391 -0.7152
 5279SOL    HW320849   0.152   5.194   3.543  1.1054  0.2002  0.6146
 5279SOL    MW420850   0.094   5.218   3.604 -0.1943 -0.0704  0.7668
 5280SOL     OW20851   5.665   3.110   1.219  0.2951 -0.2521  0.4057
 5280SOL    HW220852   5.589   3.075   1.265  0.2528  0.5514  0.9768
 5280SOL    HW320853   5.740   3.083   1.272  0.2926  0.1382  0.6174
 5280SOL    MW420854   5.665   3.102   1.232 -0.2625  0.2329  0.2735
 5281SOL     OW20855   5.489   3.240   5.438  0.5671  0.0377  0.7093
 5281SOL    HW220856   5.516   3.265   5.349  0.1047  1.8231  1.0342
 5281SOL    HW320857   5.570   3.213   5.480  1.2252  1.4694  0.4384
 5281SOL    MW420858   5.503   3.240   5.432  0.3082 -0.0619  0.0863
 5282SOL     OW20859   5.255   1.653   3.250 -0.2081 -0.1029 -0.8594
 5282SOL    HW220860   5.245   1.559   3.268 -2.3340 -0.0105 -1.3175
 5282SOL    HW320861   5.331   1.679   3.302  0.9510 -2.2267 -1.3480
 5282SOL    MW420862   5.264   1.644   3.259 -0.7712 -0.4437 -0.0721
 5283SOL     OW20863   2.027   0.934   0.947 -0.5132 -0.0006  0.1706
 5283SOL    HW220864   1.936   0.930   0.978 -1.0922 -1.5168 -1.4990
 5283SOL    HW320865   2.078   0.890   1.014 -1.1928 -0.1386  0.6030
 5283SOL    MW420866   2.022   0.928   0.960  0.3554  0.0337 -0.2521
 5284SOL     OW20867   2.648   3.266   0.697  0.7574 -0.7751 -0.6343
 5284SOL    HW220868   2.624   3.230   0.783  1.1529 -0.8923 -0.5685
 5284SOL    HW320869   2.596   3.346   0.689  0.1261 -1.1844 -0.6346
 5284SOL    MW420870   2.638   3.272   0.708 -0.4556 -0.3197  0.1035
 5285SOL     OW20871   3.648   0.363   4.730 -0.1547  0.3427 -0.4897
 5285SOL    HW220872   3.724   0.325   4.773 -0.1918  1.2823  0.4399
 5285SOL    HW320873   3.651   0.329   4.641  0.9977 -0.1178 -0.2865
 5285SOL    MW420874   3.658   0.353   4.724  0.5510  0.3091 -0.4833
 5286SOL     OW20875   1.283   5.582   0.320 -0.0537 -0.1413  0.0637
 5286SOL    HW220876   1.243   5.503   0.357  2.0517 -1.6682 -0.6553
 5286SOL    HW320877   1.233   5.600   0.240 -1.5552  0.2520  1.0569
 5286SOL    MW420878   1.271   5.574   0.314  0.4361  0.1600 -0.2739
 5287SOL     OW20879   3.083   5.420   0.856  0.4918  0.1877 -0.0208
 5287SOL    HW220880   3.159   5.473   0.879  1.0458  0.5501 -2.3796
 5287SOL    HW320881   3.036   5.407   0.938  3.2239 -0.2843  1.5657
 5287SOL    MW420882   3.087   5.426   0.870  0.0559  0.2660  0.2918
 5288SOL     OW20883   0.102   0.821   3.224 -0.3315  0.0221  0.1679
 5288SOL    HW220884   0.196   0.808   3.213  0.4869  3.5255  1.6518
 5288SOL    HW320885   0.081   0.771   3.304 -0.2383 -2.2501 -1.1348
 5288SOL    MW420886   0.111   0.813   3.233 -0.2302 -0.0817 -0.0949
 5289SOL     OW20887   4.879   0.116   5.707 -0.7186  0.0378 -0.3655
 5289SOL    HW220888   4.886   0.187   5.643 -0.7712  1.9034  1.5805
 5289SOL    HW320889   4.854   0.159   5.789 -0.4593 -2.1982  0.9965
 5289SOL    MW420890   4.877   0.131   5.710 -0.3336 -0.1300 -0.1201
 5290SOL     OW20891   1.922   5.669   0.950 -0.7551 -0.2803 -0.0494
 5290SOL    HW220892   1.931   5.737   1.017 -2.1586  0.5999 -0.6991
 5290SOL    HW320893   2.007   5.665   0.908 -0.6047  0.9865  0.1012
 5290SOL    MW420894   1.934   5.677   0.954 -0.2537  0.5656  0.3787
 5291SOL     OW20895   5.421   0.132   4.388 -0.1539 -0.1116  0.0303
 5291SOL    HW220896   5.424   0.036   4.388  0.6858 -0.1056 -0.8386
 5291SOL    HW320897   5.394   0.155   4.299  0.1334  0.4616  0.0842
 5291SOL    MW420898   5.418   0.122   4.376  0.1437  0.0529 -0.1200
 5292SOL     OW20899   0.371   1.465   2.345  0.4708 -0.4289  0.0810
 5292SOL    HW220900   0.360   1.559   2.359  0.3301 -0.4936  0.4239
 5292SOL    HW320901   0.465   1.450   2.353  0.5835 -0.2004 -0.7407
 5292SOL    MW420902   0.382   1.475   2.348 -0.4948 -0.0020 -0.0018
 5293SOL     OW20903   0.962   5.925   2.230  0.0563 -0.1515  0.1855
 5293SOL    HW220904   0.911   5.899   2.306 -0.8742  0.8102 -0.0814
 5293SOL    HW320905   1.049   5.946   2.264 -0.0564 -0.7121  0.8202
 5293SOL    MW420906   0.966   5.925   2.244 -0.3944  0.1302 -0.8802
 5294SOL     OW20907   1.353   0.304   2.740 -0.6635 -0.0790 -0.3407
 5294SOL    HW220908   1.371   0.338   2.828 -0.8536  1.0674 -0.7424
 5294SOL    HW320909   1.414   0.350   2.683  0.8095 -2.1903 -0.5990
 5294SOL    MW420910   1.363   0.314   2.744  0.5859  0.0819  0.1317
 5295SOL     OW20911   0.425   1.700   5.610 -0.1914  0.0454  0.4828
 5295SOL    HW220912   0.440   1.630   5.674  1.7642 -0.6595 -0.6653
 5295SOL    HW320913   0.437   1.657   5.526 -0.6642  1.4267 -0.3060
 5295SOL    MW420914   0.428   1.685   5.608  0.3107 -0.5123 -0.0815
 5296SOL     OW20915   1.978   4.967   3.375  0.1252  0.2334  0.1857
 5296SOL    HW220916   2.019   5.048   3.405 -0.2606  1.1203 -1.5527
 5296SOL    HW320917   1.905   4.954   3.436  0.5238  0.8870  0.8209
 5296SOL    MW420918   1.974   4.976   3.387 -0.4547  0.1243 -0.0908
 5297SOL     OW20919   0.793   6.385   5.618 -0.1133  0.5074 -0.0526
 5297SOL    HW220920   0.745   6.429   5.547  1.0277  0.0167 -1.1644
 5297SOL    HW320921   0.885   6.398   5.596  0.2622 -1.3768  0.2469
 5297SOL    MW420922   0.799   6.393   5.606 -0.0714  0.1398 -0.1910
 5298SOL     OW20923   1.715   6.324   2.166 -0.8238 -0.1287  0.1302
 5298SOL    HW220924   1.796   6.355   2.128 -1.8256  0.7564 -1.3635
 5298SOL    HW320925   1.723   6.343   2.260  0.5125  0.2954 -0.0573
 5298SOL    MW420926   1.727   6.330   2.173 -0.1238 -0.6332  0.1461
 5299SOL     OW20927   1.334   5.593   0.019  0.4345 -0.8307 -0.0983
 5299SOL    HW220928   1.400   5.566  -0.046  2.1955  0.7611  0.9362
 5299SOL    HW320929   1.334   5.689   0.015 -1.1011 -0.7652  0.6801
 5299SOL    MW420930   1.343   5.602   0.010 -0.5153 -0.4827 -0.1964
 5300SOL     OW20931   0.012   6.192   1.439  0.3008 -0.6180  0.1901
 5300SOL    HW220932   0.095   6.159   1.474 -0.3509 -1.1253  1.3186
 5300SOL    HW320933  -0.026   6.118   1.393 -0.0263 -0.7229  0.6199
 5300SOL    MW420934   0.018   6.178   1.438  0.0864  0.1738  0.5444
 5301SOL     OW20935   2.201   1.847   1.818  0.3539 -0.0327  0.0513
 5301SOL    HW220936   2.184   1.903   1.893  0.9430  0.0789  0.1044
 5301SOL    HW320937   2.116   1.807   1.798 -0.1261  1.0453 -0.1230
 5301SOL    MW420938   2.187   1.849   1.825 -0.0359 -0.8896  0.1181
 5302SOL     OW20939   5.655   5.365   4.966  0.2963 -0.2023  0.1375
 5302SOL    HW220940   5.745   5.379   4.938 -0.2970  2.1314 -0.8141
 5302SOL    HW320941   5.618   5.452   4.975 -2.0416 -1.0847 -0.0474
 5302SOL    MW420942   5.662   5.378   4.963  0.3383 -0.3143 -0.0801
 5303SOL     OW20943   6.042   1.180   0.026  0.1473  0.2675  0.3573
 5303SOL    HW220944   6.076   1.103   0.072  0.2294 -0.8057 -1.3755
 5303SOL    HW320945   6.119   1.217  -0.017 -0.0858  0.6553  0.2754
 5303SOL    MW420946   6.057   1.174   0.026  0.5668  0.4036 -0.0548
 5304SOL     OW20947   2.886   0.824   1.194  0.3055  0.4771  0.2097
 5304SOL    HW220948   2.928   0.903   1.229 -1.9180  1.9083 -0.0937
 5304SOL    HW320949   2.880   0.765   1.269  1.8176  0.6377  0.4997
 5304SOL    MW420950   2.891   0.827   1.209 -0.0115 -0.4121 -0.3517
 5305SOL     OW20951   3.053   5.910   2.512  0.1975 -0.0120  0.6116
 5305SOL    HW220952   3.114   5.885   2.581  2.2653 -0.1498 -1.1857
 5305SOL    HW320953   3.076   6.000   2.490 -0.3103 -0.0345 -0.0386
 5305SOL    MW420954   3.064   5.918   2.518  0.4229  0.4602  0.1069
 5306SOL     OW20955   5.188   5.959   5.227  0.9207 -0.1235 -0.4220
 5306SOL    HW220956   5.207   6.024   5.159  2.0185 -1.1400 -1.1289
 5306SOL    HW320957   5.135   5.893   5.183 -1.4352  0.9396  0.6570
 5306SOL    MW420958   5.184   5.959   5.212  0.4999  0.1238 -0.3733
 5307SOL     OW20959   3.984   5.520   5.075 -0.1984  0.2397 -0.4700
 5307SOL    HW220960   4.054   5.467   5.113  1.5048  2.4433 -0.3231
 5307SOL    HW320961   3.989   5.503   4.981  1.4856  1.3159 -0.6264
 5307SOL    MW420962   3.994   5.511   5.068 -0.0118  0.3525  0.4309
 5308SOL     OW20963   6.127   6.137   4.937 -0.3887  0.2440  0.4893
 5308SOL    HW220964   6.186   6.178   5.002  1.1505 -1.2387  0.0959
 5308SOL    HW320965   6.058   6.202   4.924  1.7866  2.6325  0.0672
 5308SOL    MW420966   6.126   6.151   4.944  0.2033  0.2201  0.3139
 5309SOL     OW20967   2.445   2.615   3.734 -0.3434 -0.2608  0.3157
 5309SOL    HW220968   2.519   2.672   3.755 -0.0227 -0.3463 -0.5361
 5309SOL    HW320969   2.469   2.530   3.770 -1.0060  0.2074  1.9598
 5309SOL    MW420970   2.458   2.611   3.741  0.3429 -0.0091  0.4166
 5310SOL     OW20971   5.647   1.786   4.070  0.3189 -0.2061 -0.4733
 5310SOL    HW220972   5.725   1.732   4.083  0.0055 -1.0617 -1.9684
 5310SOL    HW320973   5.611   1.797   4.158  0.6209 -2.1108 -0.0683
 5310SOL    MW420974   5.653   1.781   4.084  0.1985  0.6289  0.2751
 5311SOL     OW20975   0.227   0.390   2.329 -0.0809 -0.4719  0.1948
 5311SOL    HW220976   0.244   0.477   2.365  1.0522 -0.3774 -0.5461
 5311SOL    HW320977   0.303   0.370   2.274 -0.9642 -1.3429 -0.7695
 5311SOL    MW420978   0.239   0.398   2.327 -0.1907 -0.1573 -0.7462
 5312SOL     OW20979   2.031   4.472   5.105  0.3462  0.2910  0.0213
 5312SOL    HW220980   1.937   4.463   5.092  0.2469  0.6639  0.4687
 5312SOL    HW320981   2.046   4.442   5.195  1.1049 -2.9119 -1.0066
 5312SOL    MW420982   2.021   4.467   5.116  0.4468 -0.0286 -0.3574
 5313SOL     OW20983   0.362   3.631   5.028 -0.1256 -0.9108 -0.2462
 5313SOL    HW220984   0.419   3.702   4.998 -1.1085 -0.0102 -0.0498
 5313SOL    HW320985   0.274   3.669   5.029 -0.5114 -1.7537  1.0525
 5313SOL    MW420986   0.358   3.645   5.024 -0.5538  0.1717  0.0611
 5314SOL     OW20987   6.333   2.938   1.614  0.3002  0.2566 -0.3319
 5314SOL    HW220988   6.302   3.019   1.575 -1.0979  0.7713  1.7093
 5314SOL    HW320989   6.314   2.871   1.548  0.0603  1.3532 -1.4168
 5314SOL    MW420990   6.326   2.940   1.600  0.0107  0.2314 -0.2202
 5315SOL     OW20991   3.389   0.047   1.014  0.6368  0.3782 -0.1604
 5315SOL    HW220992   3.305   0.004   1.027  1.1839 -0.6096  0.2401
 5315SOL    HW320993   3.451  -0.004   1.066  1.7521  0.1735 -1.5965
 5315SOL    MW420994   3.386   0.035   1.022 -0.1771 -0.1098  0.4836
 5316SOL     OW20995   0.785   5.934   0.328  0.2853 -0.0258 -0.2790
 5316SOL    HW220996   0.775   6.010   0.385 -0.3237 -1.6292  1.8971
 5316SOL    HW320997   0.833   5.871   0.382 -0.7696 -1.8153 -1.3507
 5316SOL    MW420998   0.790   5.936   0.343  0.6470  0.4588 -0.3156
 5317SOL     OW20999   2.660   5.632   4.680 -0.5812 -0.1441 -0.0204
 5317SOL    HW221000   2.681   5.574   4.753  0.0013  0.6134  0.4349
 5317SOL    HW321001   2.652   5.719   4.720 -3.4359 -0.1548 -0.3569
 5317SOL    MW421002   2.662   5.636   4.695 -1.0321 -0.0396 -0.1068
 5318SOL     OW21003   2.999   1.137   0.346 -0.0679 -0.0851 -0.0892
 5318SOL    HW221004   2.923   1.101   0.391  0.0020 -0.3616 -0.1849
 5318SOL    HW321005   3.000   1.230   0.369  0.0133 -0.2361  0.5439
 5318SOL    MW421006   2.989   1.144   0.355 -0.3492 -0.0761  0.2974
 5319SOL     OW21007   2.774   3.694   0.675 -0.5692  0.2724  0.2816
 5319SOL    HW221008   2.706   3.636   0.641 -0.7707 -0.6832  2.1648
 5319SOL    HW321009   2.853   3.669   0.627 -0.9254 -0.7201  0.1867
 5319SOL    MW421010   2.776   3.683   0.664  1.3800  0.3885 -0.3552
 5320SOL     OW21011   1.931   2.388   4.503 -0.0923  0.6075 -0.5544
 5320SOL    HW221012   1.851   2.435   4.480  0.1983  0.7095 -1.3889
 5320SOL    HW321013   1.931   2.311   4.446  0.3628  0.5653 -0.5024
 5320SOL    MW421014   1.921   2.384   4.493 -0.0170 -0.4009  0.0872
 5321SOL     OW21015   4.018   0.409   5.722 -0.6554 -0.2185 -0.7549
 5321SOL    HW221016   4.069   0.422   5.642 -2.0975  0.4036 -1.6150
 5321SOL    HW321017   3.948   0.475   5.717 -1.0036 -0.4146  0.8413
 5321SOL    MW421018   4.016   0.420   5.711  0.2033  0.4094  1.3367
 5322SOL     OW21019   0.549   6.110   1.866  0.3909 -0.2770 -0.6856
 5322SOL    HW221020   0.561   6.204   1.878 -0.6605 -0.0662 -1.1744
 5322SOL    HW321021   0.611   6.086   1.797  0.1278  0.2057 -1.0899
 5322SOL    MW421022   0.558   6.119   1.859 -0.1295  0.4003  0.5584
 5323SOL     OW21023   1.920   3.827   0.114  0.2379 -0.3175  0.0771
 5323SOL    HW221024   1.934   3.733   0.103  0.4296 -0.4232  1.1708
 5323SOL    HW321025   1.915   3.840   0.208  1.3381  0.9251 -0.0025
 5323SOL    MW421026   1.921   3.816   0.125 -0.1299 -0.2368 -0.3074
 5324SOL     OW21027   6.017   5.742   1.805  0.4549  0.3777  0.2648
 5324SOL    HW221028   5.943   5.684   1.824 -1.1391  2.1417 -0.1191
 5324SOL    HW321029   6.005   5.816   1.864  2.4759  0.3066  0.8150
 5324SOL    MW421030   6.005   5.744   1.815  0.2902 -0.6090  0.1703
 5325SOL     OW21031   2.775   1.736   5.472  0.1136  0.0229 -0.2503
 5325SOL    HW221032   2.729   1.755   5.390  1.5100 -0.3069 -1.1595
 5325SOL    HW321033   2.844   1.802   5.476 -0.4688  0.5673  1.1183
 5325SOL    MW421034   2.778   1.747   5.462  0.3567  0.3030 -0.6305
 5326SOL     OW21035   4.706   4.650   3.193  0.4172 -0.2307 -0.6873
 5326SOL    HW221036   4.746   4.566   3.212  0.3085  0.2823  2.3038
 5326SOL    HW321037   4.618   4.629   3.161  0.4644 -1.2412 -0.1567
 5326SOL    MW421038   4.700   4.636   3.191 -0.3432 -0.0577 -0.3006
 5327SOL     OW21039   1.590   5.750   5.471 -0.1850  0.0499  0.3613
 5327SOL    HW221040   1.577   5.664   5.512 -0.5688  0.2050  0.5715
 5327SOL    HW321041   1.683   5.767   5.479  0.0455 -0.7217 -0.4135
 5327SOL    MW421042   1.600   5.741   5.477 -0.0441 -0.1511 -0.2356
 5328SOL     OW21043   3.920   6.082   4.569  0.7903 -0.2284  0.0014
 5328SOL    HW221044   3.887   6.098   4.481  0.4274  1.3349  0.3885
 5328SOL    HW321045   4.014   6.103   4.564  0.7296  0.0502  0.0349
 5328SOL    MW421046   3.928   6.087   4.557 -0.0331 -0.3250  0.3177
 5329SOL     OW21047   0.152   5.440   3.056  0.2344 -0.1588 -0.2689
 5329SOL    HW221048   0.091   5.502   3.097 -0.0914  1.4747 -2.9736
 5329SOL    HW321049   0.226   5.435   3.116 -0.4849  1.5629  0.8340
 5329SOL    MW421050   0.154   5.448   3.069 -0.7065 -0.0053 -0.0497
 5330SOL     OW21051   4.078   0.647   1.431 -0.1881  0.0972  0.0922
 5330SOL    HW221052   4.004   0.642   1.371 -1.5918 -1.7006  1.8215
 5330SOL    HW321053   4.130   0.569   1.411 -1.2878 -1.1776  1.8287
 5330SOL    MW421054   4.075   0.636   1.421 -0.2567 -0.0905  0.0932
 5331SOL     OW21055   6.217   2.291   1.218  0.3201 -0.3543  0.3120
 5331SOL    HW221056   6.306   2.257   1.225  0.0773 -0.6378  3.4049
 5331SOL    HW321057   6.168   2.221   1.173  1.5342 -0.3765 -1.0225
 5331SOL    MW421058   6.222   2.277   1.213  0.4364 -0.2351  0.3242
 5332SOL     OW21059   5.969   2.886   4.422 -0.0581  0.1293  0.1661
 5332SOL    HW221060   5.940   2.969   4.385  0.2656  0.4071  0.5195
 5332SOL    HW321061   6.065   2.892   4.420 -0.0093 -0.7452 -0.9426
 5332SOL    MW421062   5.978   2.898   4.416 -0.0641 -0.1725 -0.1312
 5333SOL     OW21063   0.271   3.832   1.172 -0.1385 -0.1707 -0.1445
 5333SOL    HW221064   0.315   3.880   1.102  2.5147  1.9641  2.7033
 5333SOL    HW321065   0.185   3.873   1.179 -1.0804 -1.3985 -2.9149
 5333SOL    MW421066   0.265   3.844   1.164  0.4357 -0.4272 -0.6837
 5334SOL     OW21067   2.288   5.273   4.792  0.1918 -0.0363 -0.1405
 5334SOL    HW221068   2.212   5.233   4.836  1.4638 -1.7567  0.6418
 5334SOL    HW321069   2.336   5.315   4.863  0.2160  0.6564 -0.5620
 5334SOL    MW421070   2.284   5.273   4.807  0.0090  0.4061 -0.2762
 5335SOL     OW21071   2.649   4.471   1.882 -0.4071  0.1969  0.4155
 5335SOL    HW221072   2.566   4.446   1.840 -0.7056 -1.3086  1.7630
 5335SOL    HW321073   2.644   4.431   1.969  1.4555  0.6563  0.7747
 5335SOL    MW421074   2.637   4.462   1.888  0.5242 -0.0218 -0.0228
 5336SOL     OW21075   6.171   5.121   2.682 -0.6762 -0.2634  0.1487
 5336SOL    HW221076   6.246   5.098   2.627 -0.4224  0.7605  0.0495
 5336SOL    HW321077   6.209   5.143   2.767 -0.8413  0.4596  0.0396
 5336SOL    MW421078   6.186   5.121   2.686  0.2779  0.3402  0.0415
 5337SOL     OW21079   5.739   3.250   0.122  0.6415 -0.2169 -0.7622
 5337SOL    HW221080   5.712   3.264   0.212  0.8539 -0.1336 -0.7106
 5337SOL    HW321081   5.750   3.155   0.114 -1.1826 -0.4230 -1.2211
 5337SOL    MW421082   5.737   3.240   0.133 -0.4166  0.8256  0.0342
 5338SOL     OW21083   4.904   3.524   3.398  0.1256 -0.1354 -0.5716
 5338SOL    HW221084   4.927   3.432   3.415 -0.7360 -0.2590 -0.0043
 5338SOL    HW321085   4.814   3.532   3.428  0.2372  0.9425 -0.4846
 5338SOL    MW421086   4.896   3.513   3.404 -0.2813  0.2977  0.0178
 5339SOL     OW21087   2.016   0.117   4.799  0.2572 -0.3323  0.3366
 5339SOL    HW221088   2.072   0.191   4.776 -1.1794  0.4708 -0.7944
 5339SOL    HW321089   1.989   0.080   4.715 -0.3468 -1.1196  0.8585
 5339SOL    MW421090   2.020   0.122   4.785  0.1723  0.1365 -0.1125
 5340SOL     OW21091   0.870   2.955   4.312 -0.2666  0.5021 -0.0431
 5340SOL    HW221092   0.865   2.890   4.241  1.0284  0.4734 -0.1272
 5340SOL    HW321093   0.887   3.038   4.267  2.8634  0.1488  0.2927
 5340SOL    MW421094   0.871   2.957   4.296 -0.3700 -0.3369 -0.3974
 5341SOL     OW21095   4.789   1.461   0.601  0.0430  0.2792 -0.1475
 5341SOL    HW221096   4.817   1.376   0.567 -1.2047 -0.3418  0.3196
 5341SOL    HW321097   4.828   1.465   0.688 -0.3316 -0.0620  0.0405
 5341SOL    MW421098   4.798   1.450   0.608 -0.0128 -0.3932 -0.4345
 5342SOL     OW21099   5.161   6.050   1.224 -0.2375  0.0309 -0.4636
 5342SOL    HW221100   5.196   5.964   1.248  0.8450  0.0915 -1.7349
 5342SOL    HW321101   5.168   6.102   1.304  1.5859 -0.2988 -0.3757
 5342SOL    MW421102   5.166   6.045   1.238 -0.0805 -0.2629 -0.0754
 5343SOL     OW21103   3.373   1.188   5.545  0.1506  0.1473 -0.1957
 5343SOL    HW221104   3.320   1.225   5.615 -2.4807 -3.1659 -0.1797
 5343SOL    HW321105   3.462   1.185   5.580 -0.4095  1.9352  1.5072
 5343SOL    MW421106   3.378   1.192   5.559 -0.1061 -0.2116 -0.6872
 5344SOL     OW21107   2.713   0.575   5.195 -0.4353  0.4319  0.2300
 5344SOL    HW221108   2.770   0.567   5.119  0.7415 -0.5594  1.1639
 5344SOL    HW321109   2.747   0.510   5.257 -1.3557  1.2024  1.5951
 5344SOL    MW421110   2.725   0.565   5.193 -0.3532 -0.1388  0.0016
 5345SOL     OW21111   2.374   1.630   1.938 -0.1018  0.3859  0.4126
 5345SOL    HW221112   2.313   1.699   1.912 -0.3526  0.2998  0.7728
 5345SOL    HW321113   2.321   1.550   1.942  0.3708 -0.0164 -0.9061
 5345SOL    MW421114   2.359   1.629   1.935 -0.0812  0.0367  0.0687
 5346SOL     OW21115   5.130   1.938   3.514  0.1923 -0.0505 -0.3004
 5346SOL    HW221116   5.096   1.882   3.445 -1.4443  0.7761 -0.2032
 5346SOL    HW321117   5.210   1.976   3.477 -0.4702  0.1134 -1.6172
 5346SOL    MW421118   5.136   1.936   3.500  0.0791  0.5128  0.1292
 5347SOL     OW21119   1.028   0.075   1.174 -0.3782 -0.0897 -0.0101
 5347SOL    HW221120   1.072   0.007   1.225 -0.2823 -0.1579 -0.1829
 5347SOL    HW321121   0.939   0.078   1.209 -0.1866  0.1610  0.4522
 5347SOL    MW421122   1.022   0.066   1.185  0.2000 -0.4978 -0.0012
 5348SOL     OW21123   3.128   1.253   2.782 -0.7022 -0.8941  0.4909
 5348SOL    HW221124   3.079   1.191   2.729 -0.7223 -0.3827 -0.1029
 5348SOL    HW321125   3.144   1.327   2.723  0.6982 -1.0095  0.7072
 5348SOL    MW421126   3.123   1.255   2.767 -0.4364  0.2756 -0.8796
 5349SOL     OW21127   5.617   0.498   3.705 -0.2215 -0.7607  0.5132
 5349SOL    HW221128   5.698   0.447   3.699 -0.0193 -0.3388 -0.8659
 5349SOL    HW321129   5.645   0.583   3.740  0.2216 -0.1410 -1.2020
 5349SOL    MW421130   5.632   0.503   3.709 -0.3759 -0.1815 -0.5301
 5350SOL     OW21131   3.729   4.957   2.413  0.6566  0.1927  0.1604
 5350SOL    HW221132   3.665   4.890   2.391  1.0791  0.1922 -1.1383
 5350SOL    HW321133   3.781   4.919   2.483 -0.1485 -0.1696  0.5811
 5350SOL    MW421134   3.727   4.943   2.419  0.2197 -0.4856  0.1723
 5351SOL     OW21135   0.223   0.345   5.659 -0.3394 -0.2343  0.1040
 5351SOL    HW221136   0.191   0.275   5.716  4.4431 -0.6415  2.8697
 5351SOL    HW321137   0.264   0.299   5.586  0.2342 -0.2244  0.4081
 5351SOL    MW421138   0.225   0.330   5.657  0.3938 -0.0157  0.8934
 5352SOL     OW21139   5.564   2.189   5.110  0.0149 -0.0084  0.3638
 5352SOL    HW221140   5.616   2.141   5.175 -0.2154 -0.3037  0.3293
 5352SOL    HW321141   5.515   2.122   5.064 -1.3366  0.3535  1.2268
 5352SOL    MW421142   5.565   2.174   5.113 -0.4079  0.2664 -0.0957
 5353SOL     OW21143   1.817   0.311   4.958  0.1007 -0.5510 -0.1287
 5353SOL    HW221144   1.755   0.361   4.905  1.6025  1.4160 -0.1531
 5353SOL    HW321145   1.881   0.277   4.895  1.1130  0.6255  0.2236
 5353SOL    MW421146   1.817   0.313   4.943  0.3438 -0.3195  0.4507
 5354SOL     OW21147   1.406   5.451   3.920  0.3584 -0.0480  0.2462
 5354SOL    HW221148   1.449   5.433   3.836  0.8292 -2.0116  0.8546
 5354SOL    HW321149   1.362   5.369   3.943 -0.0813  0.5656  1.7370
 5354SOL    MW421150   1.406   5.437   3.912 -0.0259 -0.5497  0.6250
 5355SOL     OW21151   4.848   6.141   3.778  0.1198  0.0546  0.2713
 5355SOL    HW221152   4.789   6.121   3.706  0.7885 -0.0647 -0.2624
 5355SOL    HW321153   4.836   6.234   3.795 -2.1087 -0.4542  1.9323
 5355SOL    MW421154   4.839   6.150   3.770 -0.2698  0.2430 -0.2589
 5356SOL     OW21155   6.239   2.915   1.897  0.2851 -0.3264  0.5551
 5356SOL    HW221156   6.148   2.936   1.874  0.3446  0.5124  1.0363
 5356SOL    HW321157   6.276   2.880   1.817 -0.8680 -2.1132  0.7462
 5356SOL    MW421158   6.232   2.913   1.883  0.1974 -0.1105  0.2629
 5357SOL     OW21159   4.819   3.783   4.506 -0.1060  0.3102 -0.0758
 5357SOL    HW221160   4.865   3.858   4.542 -0.2947  0.4345 -0.0950
 5357SOL    HW321161   4.819   3.797   4.411 -0.8770  0.7108 -0.0239
 5357SOL    MW421162   4.825   3.795   4.498  0.2602  0.7565  0.2032
 5358SOL     OW21163   1.604   5.650   3.731 -0.1083  0.4345 -0.1202
 5358SOL    HW221164   1.659   5.677   3.658  2.2568 -1.7886  0.7212
 5358SOL    HW321165   1.556   5.573   3.699 -0.9396  0.9214 -0.0827
 5358SOL    MW421166   1.605   5.643   3.717  0.4212  0.6603  0.3380
 5359SOL     OW21167   5.980   4.867   3.311 -0.6603 -0.4229 -0.2227
 5359SOL    HW221168   6.013   4.951   3.342 -1.4105 -1.0070  2.3860
 5359SOL    HW321169   5.885   4.874   3.319 -0.7898 -1.1700 -0.9822
 5359SOL    MW421170   5.972   4.879   3.316  0.5273  0.0089 -0.3514
 5360SOL     OW21171   4.481   0.289   1.758  0.5014 -0.2110  0.2900
 5360SOL    HW221172   4.563   0.251   1.788  1.6595  1.2995 -0.8255
 5360SOL    HW321173   4.484   0.380   1.788 -0.3107  0.1221 -0.5944
 5360SOL    MW421174   4.492   0.296   1.766 -0.3682  0.1907 -0.0705
 5361SOL     OW21175   2.964   4.198   5.879 -0.0752 -0.2317 -0.1000
 5361SOL    HW221176   2.929   4.153   5.956  0.1918  0.7269  0.5874
 5361SOL    HW321177   3.048   4.234   5.908  1.6404 -2.5475 -1.7188
 5361SOL    MW421178   2.971   4.197   5.893  0.1247  0.4635 -0.3317
 5362SOL     OW21179   2.468   2.863   3.002 -0.2637  0.2714  0.3317
 5362SOL    HW221180   2.495   2.771   3.002 -1.3570 -0.0756  1.7953
 5362SOL    HW321181   2.475   2.889   2.910  1.2398 -0.8974  0.0664
 5362SOL    MW421182   2.473   2.854   2.990  0.1642 -0.0020  0.0104
 5363SOL     OW21183   1.937   2.542   1.514 -0.2685  0.0442  0.2213
 5363SOL    HW221184   1.899   2.628   1.492  0.0447  0.4359  1.1887
 5363SOL    HW321185   1.871   2.500   1.569 -0.1699 -0.1149  0.2185
 5363SOL    MW421186   1.923   2.548   1.518  0.1360 -0.7985  0.7502
 5364SOL     OW21187   5.660   4.401   2.313 -0.1833 -0.2817 -0.0033
 5364SOL    HW221188   5.602   4.455   2.366 -0.1269 -0.3677  0.1460
 5364SOL    HW321189   5.614   4.317   2.305  0.0580 -0.4579  0.3794
 5364SOL    MW421190   5.647   4.397   2.319 -0.0058  0.1676  0.0936
 5365SOL     OW21191   3.194   1.178   0.560 -0.3823  0.2312  0.3787
 5365SOL    HW221192   3.229   1.093   0.584 -0.9819 -0.2197 -0.2858
 5365SOL    HW321193   3.117   1.158   0.506 -1.4659  1.1680  1.4870
 5365SOL    MW421194   3.188   1.164   0.556 -0.5422  0.2357  0.1792
 5366SOL     OW21195   3.050   1.103   5.894  0.4004  0.2044 -0.7763
 5366SOL    HW221196   3.013   1.191   5.885 -1.1417 -0.2131  0.7980
 5366SOL    HW321197   3.030   1.078   5.984 -0.0685 -2.1290 -1.4552
 5366SOL    MW421198   3.043   1.111   5.905  0.4125  0.3106 -0.1054
 5367SOL     OW21199   4.644   5.093   2.022 -0.3590 -0.0739 -0.2911
 5367SOL    HW221200   4.710   5.023   2.024  2.3392  2.2832 -0.4809
 5367SOL    HW321201   4.619   5.099   1.930  1.5558  0.9895 -0.7926
 5367SOL    MW421202   4.649   5.084   2.010 -0.3721 -0.2295 -0.0477
 5368SOL     OW21203   1.344   0.948   5.273 -0.0073  0.3963  0.5553
 5368SOL    HW221204   1.301   0.968   5.356  2.4592  0.1110  1.9940
 5368SOL    HW321205   1.320   0.857   5.255 -0.8400  0.5695  0.7421
 5368SOL    MW421206   1.335   0.938   5.281 -0.5225 -0.2779 -0.1969
 5369SOL     OW21207   1.542   5.773   6.121 -0.4423  0.5187  0.2916
 5369SOL    HW221208   1.557   5.798   6.030  2.6197  2.6281  1.2612
 5369SOL    HW321209   1.459   5.815   6.144 -0.6098  1.0101 -1.1264
 5369SOL    MW421210   1.533   5.782   6.112  0.0471 -0.2102 -0.2889
 5370SOL     OW21211   5.873   2.710   2.979  0.4686 -0.2754  0.0735
 5370SOL    HW221212   5.969   2.701   2.977  0.4095 -1.5744  1.7327
 5370SOL    HW321213   5.847   2.676   3.064 -1.6999 -2.0133 -1.1964
 5370SOL    MW421214   5.882   2.705   2.990 -0.4350  0.6570 -0.2503
 5371SOL     OW21215   0.227   1.734   1.100  0.4616 -0.2350 -0.1334
 5371SOL    HW221216   0.162   1.766   1.162  0.7760  0.1770 -0.0152
 5371SOL    HW321217   0.176   1.708   1.023  0.1925  0.5064 -0.2139
 5371SOL    MW421218   0.212   1.735   1.098 -0.0239 -0.0967  0.0415
 5372SOL     OW21219   0.148   1.407   2.151 -0.3561  0.0083  0.1963
 5372SOL    HW221220   0.149   1.489   2.103  0.9776 -0.0746  0.0312
 5372SOL    HW321221   0.220   1.415   2.214 -0.7072 -0.7196  0.7040
 5372SOL    MW421222   0.158   1.419   2.153 -0.4580 -0.2716 -0.6090
 5373SOL     OW21223   2.766   1.617   6.133 -0.4296 -0.1473  0.5717
 5373SOL    HW221224   2.692   1.657   6.087  0.3593 -0.9042 -1.4942
 5373SOL    HW321225   2.738   1.527   6.152 -0.3859 -0.1441  0.6534
 5373SOL    MW421226   2.753   1.610   6.129  0.7812  0.3249  0.2286
 5374SOL     OW21227   1.372   3.879   5.813  0.3948  0.1816  0.1567
 5374SOL    HW221228   1.415   3.961   5.836 -0.9804  1.0623 -0.3293
 5374SOL    HW321229   1.378   3.875   5.717 -2.5612  1.5182 -0.1986
 5374SOL    MW421230   1.379   3.889   5.803  0.7498  0.1717 -0.5018
 5375SOL     OW21231   4.732   6.052   1.764  0.5122 -0.3673  0.1821
 5375SOL    HW221232   4.725   6.145   1.743  0.1290 -0.5292 -0.4442
 5375SOL    HW321233   4.826   6.035   1.768  0.5858  0.0726  0.4445
 5375SOL    MW421234   4.743   6.062   1.762 -0.0464 -0.0758  0.4794
 5376SOL     OW21235   3.189   4.564   1.450 -0.0224  0.0838 -0.0994
 5376SOL    HW221236   3.160   4.526   1.366 -2.2104 -2.0317  1.4795
 5376SOL    HW321237   3.117   4.547   1.510  1.2685  1.9929  2.1442
 5376SOL    MW421238   3.176   4.557   1.447  0.2997  0.0329 -0.5302
 5377SOL     OW21239   4.250   6.032   0.622  0.2247 -0.4367  0.1524
 5377SOL    HW221240   4.331   6.021   0.672  0.4201  0.5908  0.0729
 5377SOL    HW321241   4.181   6.004   0.682  0.5145  0.1504  0.7662
 5377SOL    MW421242   4.252   6.027   0.636 -0.4086 -1.0559 -0.8240
 5378SOL     OW21243   3.077   1.090   3.905 -0.3545 -0.8385  0.4458
 5378SOL    HW221244   3.121   1.165   3.864 -1.1883 -1.2366 -1.2490
 5378SOL    HW321245   3.143   1.054   3.965  0.4529  0.5584  0.4480
 5378SOL    MW421246   3.092   1.095   3.908 -0.2622  0.1323  0.2396
 5379SOL     OW21247   0.492   1.492   0.724  0.1712  0.2754  0.1885
 5379SOL    HW221248   0.545   1.421   0.760  0.2666  0.6266  0.7568
 5379SOL    HW321249   0.463   1.541   0.800 -2.2426 -0.7658  0.0211
 5379SOL    MW421250   0.495   1.489   0.739  0.3234 -0.0331  0.4518
 5380SOL     OW21251   4.579   3.197   4.067 -0.4218 -0.3150 -0.0229
 5380SOL    HW221252   4.587   3.117   4.118 -2.0204 -0.0218  0.7520
 5380SOL    HW321253   4.528   3.256   4.122 -0.5247  0.7083 -1.1628
 5380SOL    MW421254   4.573   3.194   4.081  0.1260 -0.6778 -0.2829
 5381SOL     OW21255   0.582   4.011   6.381 -0.0760  0.3659 -0.4775
 5381SOL    HW221256   0.559   4.083   6.439 -0.2243  1.0189 -1.3275
 5381SOL    HW321257   0.504   3.956   6.379  0.6631 -0.8719  1.6564
 5381SOL    MW421258   0.569   4.013   6.389  0.1370 -0.5320  0.5946
 5382SOL     OW21259   5.709   1.991   5.845  0.2612  0.3489  0.2673
 5382SOL    HW221260   5.687   1.928   5.914  2.8152  0.6489  1.4533
 5382SOL    HW321261   5.785   2.038   5.878  1.5825  0.5732 -2.7570
 5382SOL    MW421262   5.716   1.989   5.859  0.4001 -0.2590  0.1931
 5383SOL     OW21263   1.793   4.021   2.408 -0.1617 -0.1432  0.1719
 5383SOL    HW221264   1.728   4.056   2.348 -0.2821 -0.5055  0.0880
 5383SOL    HW321265   1.826   3.942   2.365 -0.1494 -0.3305  0.5150
 5383SOL    MW421266   1.789   4.015   2.395 -0.0853  0.1239  0.0762
 5384SOL     OW21267   0.243   2.148   2.320  0.0616  0.2316  0.3114
 5384SOL    HW221268   0.238   2.217   2.254  1.3252  0.7616  0.7467
 5384SOL    HW321269   0.168   2.166   2.378 -0.3542  0.4753 -0.2914
 5384SOL    MW421270   0.232   2.160   2.319  0.7647  0.5847  0.6684
 5385SOL     OW21271   5.280   5.263   3.717  0.7362 -0.1428 -0.1170
 5385SOL    HW221272   5.285   5.268   3.812 -0.1156  0.7491 -0.0976
 5385SOL    HW321273   5.245   5.176   3.699  0.2722 -0.0684  0.4146
 5385SOL    MW421274   5.276   5.252   3.727 -0.0009 -0.0378 -0.4938
 5386SOL     OW21275   1.378   0.539   0.826  0.3173  0.6212  0.3519
 5386SOL    HW221276   1.335   0.598   0.887 -1.8770 -0.3344 -0.1563
 5386SOL    HW321277   1.330   0.456   0.835  1.1749 -0.1015 -1.2845
 5386SOL    MW421278   1.366   0.536   0.835 -0.3206  0.2364 -0.3722
 5387SOL     OW21279   2.509   6.354   4.639  0.5414  0.2177  0.0772
 5387SOL    HW221280   2.535   6.262   4.629  1.5534  0.5424 -0.4070
 5387SOL    HW321281   2.414   6.353   4.626  0.5359 -0.7605  0.0965
 5387SOL    MW421282   2.500   6.341   4.636  0.0955  0.3953  0.3130
 5388SOL     OW21283   5.429   0.547   5.619  0.0677  0.3830 -0.1090
 5388SOL    HW221284   5.369   0.474   5.632 -0.6887  0.9075 -0.6176
 5388SOL    HW321285   5.500   0.510   5.565  0.1911 -0.2209  0.4487
 5388SOL    MW421286   5.431   0.532   5.614 -0.0561  0.0872 -0.2324
 5389SOL     OW21287   4.064   1.868   3.734  0.0370  0.0213 -0.2226
 5389SOL    HW221288   3.983   1.853   3.783  1.2587  0.9564  2.2526
 5389SOL    HW321289   4.090   1.780   3.704 -1.4994 -0.3854 -0.4137
 5389SOL    MW421290   4.057   1.854   3.737  0.3818  0.7717 -0.3691
 5390SOL     OW21291   3.880   4.521   4.935 -0.0463  0.4385  0.2619
 5390SOL    HW221292   3.963   4.565   4.917  0.6570 -0.6629  0.6617
 5390SOL    HW321293   3.814   4.589   4.924  0.7829  1.0291 -1.3494
 5390SOL    MW421294   3.883   4.536   4.931 -0.0974 -0.2101 -0.2726
 5391SOL     OW21295   6.251   4.224   2.221  0.0836  0.4308  0.0038
 5391SOL    HW221296   6.282   4.227   2.312 -0.9388  1.7789  0.3416
 5391SOL    HW321297   6.286   4.142   2.187  2.3287  0.9144  0.9401
 5391SOL    MW421298   6.260   4.214   2.229  0.7723  0.0207  0.4251
 5392SOL     OW21299   2.566   5.319   3.674 -0.2139 -0.1242  0.2239
 5392SOL    HW221300   2.622   5.358   3.606 -0.2123 -1.1519 -0.3891
 5392SOL    HW321301   2.508   5.390   3.701 -0.0161  0.3873 -0.6518
 5392SOL    MW421302   2.566   5.334   3.669 -0.6274  0.5020 -0.8239
 5393SOL     OW21303   6.358   3.289   2.439  0.7799  0.3240  0.8028
 5393SOL    HW221304   6.420   3.357   2.463 -0.2310  0.8142  2.1059
 5393SOL    HW321305   6.369   3.221   2.506 -1.0386  1.0502  1.9078
 5393SOL    MW421306   6.367   3.289   2.451  0.3959  0.1570  0.3143
 5394SOL     OW21307   5.967   4.765   0.597 -0.1365 -0.4603  0.4686
 5394SOL    HW221308   5.955   4.752   0.691 -1.3416 -1.0252  0.2651
 5394SOL    HW321309   6.035   4.831   0.590 -2.0960  1.8624  1.8211
 5394SOL    MW421310   5.974   4.772   0.609 -0.5049 -0.0172  0.3601
 5395SOL     OW21311   0.565   0.549   3.434 -0.0266 -0.2629 -0.1168
 5395SOL    HW221312   0.557   0.641   3.460 -1.2285 -0.5155  0.4337
 5395SOL    HW321313   0.644   0.519   3.478 -1.5847 -0.4687  2.7297
 5395SOL    MW421314   0.575   0.557   3.443 -0.1860 -0.5565 -0.3080
 5396SOL     OW21315   1.707   3.987   1.758 -0.0231  0.0634 -0.1348
 5396SOL    HW221316   1.633   4.030   1.801 -0.7423  0.4078 -1.6471
 5396SOL    HW321317   1.783   4.011   1.811 -0.5916  2.0716 -0.1442
 5396SOL    MW421318   1.707   3.996   1.771 -0.5535  0.0205 -0.8144
 5397SOL     OW21319   0.531   4.053   3.880  0.2726 -0.1494  0.7140
 5397SOL    HW221320   0.447   4.041   3.926  0.7726  1.1394  2.0505
 5397SOL    HW321321   0.515   4.017   3.793 -1.9339  0.7309  0.6645
 5397SOL    MW421322   0.518   4.047   3.875 -0.0011 -0.3745 -0.1135
 5398SOL     OW21323   2.836   2.849   6.070 -0.4507 -0.1356 -0.5007
 5398SOL    HW221324   2.905   2.871   6.007 -0.8150  0.8333 -0.5703
 5398SOL    HW321325   2.878   2.789   6.132 -0.3271 -1.9382 -2.1988
 5398SOL    MW421326   2.851   2.844   6.069  0.4539  0.1707  0.2563
 5399SOL     OW21327   2.816   1.248   3.873  0.4757  0.4438 -1.3407
 5399SOL    HW221328   2.749   1.311   3.849  0.5130 -0.1146 -3.0150
 5399SOL    HW321329   2.865   1.233   3.793  0.5627 -1.5987 -0.9652
 5399SOL    MW421330   2.814   1.254   3.859  0.3757 -0.3021  0.0416
 5400SOL     OW21331   0.997   5.093   1.782  0.2847 -0.2833 -0.2707
 5400SOL    HW221332   0.979   5.042   1.862  0.7461 -1.7412 -1.0612
 5400SOL    HW321333   1.064   5.156   1.809 -0.5507  0.1927  0.8186
 5400SOL    MW421334   1.003   5.094   1.796  0.1125 -0.5006  0.3770
 5401SOL     OW21335   0.131   1.563   4.667 -0.0171  0.1538  0.6354
 5401SOL    HW221336   0.152   1.479   4.707 -1.1120 -0.3758  0.1293
 5401SOL    HW321337   0.121   1.623   4.741  0.3620 -0.2605  1.0221
 5401SOL    MW421338   0.132   1.560   4.682 -0.2386  0.4529 -0.0763
 5402SOL     OW21339   0.199   2.993   4.328  0.2740 -0.0660  0.0722
 5402SOL    HW221340   0.169   3.031   4.410  1.2312 -0.6183  0.7026
 5402SOL    HW321341   0.290   2.968   4.345 -0.2434 -2.4597 -0.3400
 5402SOL    MW421342   0.207   2.995   4.341  0.3289 -0.2743  0.3753
 5403SOL     OW21343   3.962   6.236   5.193 -0.3277 -0.2692  0.0506
 5403SOL    HW221344   3.936   6.223   5.284 -0.3657  1.0233  0.2557
 5403SOL    HW321345   3.911   6.312   5.165 -0.3463 -0.6842 -1.0662
 5403SOL    MW421346   3.952   6.245   5.201  0.0191 -0.4264 -0.1956
 5404SOL     OW21347   5.047   4.335   3.287  0.3198  0.3413 -0.0003
 5404SOL    HW221348   5.063   4.242   3.306 -0.0078 -0.1950 -2.1219
 5404SOL    HW321349   4.956   4.338   3.257 -0.7874  1.9207  3.0643
 5404SOL    MW421350   5.037   4.323   3.285  0.1259  0.2277  0.7591
 5405SOL     OW21351   2.466   3.541   2.309  0.4209 -0.6404 -0.6040
 5405SOL    HW221352   2.457   3.503   2.221  0.9333 -0.5126 -0.7188
 5405SOL    HW321353   2.400   3.610   2.312  1.8016  0.8306 -1.7128
 5405SOL    MW421354   2.456   3.545   2.298  0.0015 -0.4992  0.3156
 5406SOL     OW21355   3.362   2.243   2.195 -0.1965 -0.0106 -0.2739
 5406SOL    HW221356   3.421   2.319   2.194 -0.5657  0.2824 -0.1130
 5406SOL    HW321357   3.418   2.169   2.218  0.5323 -0.0979 -2.1670
 5406SOL    MW421358   3.377   2.243   2.198 -0.1589 -0.0850  0.4206
 5407SOL     OW21359   2.474   5.704   3.579 -0.2248 -0.0536 -0.0045
 5407SOL    HW221360   2.438   5.643   3.642  0.5206 -2.2068 -1.5281
 5407SOL    HW321361   2.559   5.729   3.615 -0.4872  0.0020  0.5791
 5407SOL    MW421362   2.480   5.699   3.592  0.0338 -0.3295  0.0157
 5408SOL     OW21363   3.388   5.744   4.481  0.1079 -0.2476  0.1442
 5408SOL    HW221364   3.359   5.666   4.529 -0.0354 -0.1938  0.1455
 5408SOL    HW321365   3.363   5.817   4.536  0.1445 -0.1953  0.0912
 5408SOL    MW421366   3.381   5.743   4.494  0.3744  0.5415 -0.2634
 5409SOL     OW21367   3.353   0.623   3.173 -0.3591  0.4262 -0.2493
 5409SOL    HW221368   3.445   0.601   3.158 -0.2551 -0.1331  1.1192
 5409SOL    HW321369   3.352   0.667   3.257 -1.4325 -0.2798  0.1302
 5409SOL    MW421370   3.365   0.626   3.182  0.3234 -0.5685  0.6685
 5410SOL     OW21371   0.185   1.361   5.642 -0.3519  0.4206 -0.0414
 5410SOL    HW221372   0.193   1.411   5.561 -1.8547 -0.9559 -1.0991
 5410SOL    HW321373   0.161   1.273   5.614  1.4576 -0.7591  1.7912
 5410SOL    MW421374   0.183   1.356   5.628 -0.5052  0.1639  0.1884
 5411SOL     OW21375   5.077   3.813   0.454  0.0276 -0.3646  0.2520
 5411SOL    HW221376   5.050   3.722   0.446 -1.0306  0.0127 -0.6684
 5411SOL    HW321377   5.093   3.842   0.364 -2.1914  1.0698  0.2407
 5411SOL    MW421378   5.075   3.805   0.441  0.1036 -0.4934 -0.4360
 5412SOL     OW21379   2.409   5.210   5.171 -0.5669  0.3151 -0.2675
 5412SOL    HW221380   2.453   5.295   5.166  0.3921 -0.1496  0.0827
 5412SOL    HW321381   2.462   5.152   5.117 -2.1602  0.3056 -1.8886
 5412SOL    MW421382   2.422   5.214   5.163  0.0544 -0.0440 -0.0109
 5413SOL     OW21383   0.490   5.306   5.914  0.6265  0.2518 -0.4434
 5413SOL    HW221384   0.454   5.223   5.880  0.1281  0.3309 -0.1190
 5413SOL    HW321385   0.427   5.372   5.885  0.3244  0.3523  0.4136
 5413SOL    MW421386   0.477   5.304   5.905  0.1493 -0.0500  0.1882
 5414SOL     OW21387   3.729   4.699   4.074  0.3999  0.4874 -0.7376
 5414SOL    HW221388   3.737   4.681   3.981 -0.1308 -0.3555 -0.6329
 5414SOL    HW321389   3.777   4.628   4.117 -0.4709  0.1106 -0.3510
 5414SOL    MW421390   3.736   4.687   4.068  0.4519 -0.1552  0.0958
 5415SOL     OW21391   3.805   3.306   6.374 -0.1124  0.2922 -0.1079
 5415SOL    HW221392   3.759   3.273   6.451 -0.8608 -0.2456 -0.7638
 5415SOL    HW321393   3.815   3.229   6.318  1.3144  0.4670 -0.1339
 5415SOL    MW421394   3.800   3.292   6.377 -0.5919  0.3495  0.1189
 5416SOL     OW21395   4.146   4.854   2.484 -0.4290 -0.4410  0.0293
 5416SOL    HW221396   4.117   4.939   2.450  2.3244 -0.2185 -2.0791
 5416SOL    HW321397   4.156   4.799   2.407 -1.3128 -2.4741  1.2770
 5416SOL    MW421398   4.144   4.858   2.469  0.2291  0.0436  0.1837
 5417SOL     OW21399   4.016   1.528   5.466 -0.1730  0.8282  0.6894
 5417SOL    HW221400   4.102   1.543   5.428  0.0587  0.1227  0.9149
 5417SOL    HW321401   4.015   1.579   5.547 -0.2574  1.4440  0.3094
 5417SOL    MW421402   4.027   1.536   5.472  0.1394  0.2543 -0.2762
 5418SOL     OW21403   0.739   0.109   2.098 -0.2861  0.3128 -0.4530
 5418SOL    HW221404   0.726   0.194   2.056 -0.6402 -0.1754 -1.3598
 5418SOL    HW321405   0.698   0.047   2.038 -0.1820 -0.4789  0.2877
 5418SOL    MW421406   0.732   0.112   2.085 -0.9150 -0.1458  0.1748
 5419SOL     OW21407   1.885   5.399   1.965  0.4315 -0.5613 -0.4994
 5419SOL    HW221408   1.929   5.482   1.985 -1.5916 -0.0015  2.1502
 5419SOL    HW321409   1.915   5.339   2.033 -1.6799 -0.5623  0.5115
 5419SOL    MW421410   1.895   5.402   1.977 -0.4260  0.0627 -0.2004
 5420SOL     OW21411   1.743   1.456   1.609 -0.7859 -0.2253  0.0410
 5420SOL    HW221412   1.773   1.431   1.522 -0.3333  0.3993  0.0078
 5420SOL    HW321413   1.823   1.482   1.655 -1.3799  3.7353 -0.7990
 5420SOL    MW421414   1.757   1.456   1.603 -0.4928  0.3201  0.0202
 5421SOL     OW21415   4.396   3.444   0.251 -0.4358  0.4095 -0.3386
 5421SOL    HW221416   4.386   3.352   0.228  0.5655 -0.0880  1.1230
 5421SOL    HW321417   4.331   3.489   0.197  0.2632 -0.9310 -2.3977
 5421SOL    MW421418   4.386   3.438   0.241  0.4397 -0.8384  0.2376
 5422SOL     OW21419   5.392   2.563   6.113 -0.1746 -0.3406 -0.0040
 5422SOL    HW221420   5.442   2.596   6.039  0.2922  0.6714  0.7385
 5422SOL    HW321421   5.445   2.492   6.148  1.0785  1.0561  1.0987
 5422SOL    MW421422   5.405   2.558   6.108 -0.0820  0.3153 -0.1910
 5423SOL     OW21423   3.891   1.675   0.391 -0.4481  0.0817  0.2331
 5423SOL    HW221424   3.910   1.724   0.311 -0.2992  0.3124  0.4103
 5423SOL    HW321425   3.884   1.584   0.361  1.5373 -0.1300  0.2173
 5423SOL    MW421426   3.893   1.669   0.376 -0.0631 -0.1814  0.0936
 5424SOL     OW21427   4.503   6.282   1.918  0.2399  0.2264  0.3055
 5424SOL    HW221428   4.525   6.220   1.988  2.5657  0.2297 -0.3208
 5424SOL    HW321429   4.481   6.363   1.964 -1.9962 -0.7510  1.1028
 5424SOL    MW421430   4.503   6.284   1.934 -0.0238 -0.3717 -0.1734
 5425SOL     OW21431   2.450   3.486   0.808  0.4202  0.3909  0.8197
 5425SOL    HW221432   2.465   3.577   0.831  0.5577  0.4595  0.4577
 5425SOL    HW321433   2.362   3.484   0.770  0.6302  0.4650  0.3263
 5425SOL    MW421434   2.440   3.498   0.806  0.0349 -0.2687  0.4043
 5426SOL     OW21435   3.826   6.402   0.987 -0.5043 -0.7824 -0.0430
 5426SOL    HW221436   3.861   6.455   0.915 -1.9091 -1.3890 -1.1989
 5426SOL    HW321437   3.904   6.372   1.034  0.3740  1.9248  0.4132
 5426SOL    MW421438   3.841   6.405   0.984 -0.6217  0.2944  0.1934
 5427SOL     OW21439   4.217   1.139   5.027  0.2840 -0.0176  0.2756
 5427SOL    HW221440   4.122   1.129   5.033  0.0518  1.5149 -0.3289
 5427SOL    HW321441   4.231   1.185   4.944  1.7340 -2.1064 -0.7301
 5427SOL    MW421442   4.206   1.144   5.017 -0.5369 -0.3971 -0.4770
 5428SOL     OW21443   0.324   2.869   0.464 -0.1849 -0.4778 -0.0449
 5428SOL    HW221444   0.393   2.921   0.425  0.5246 -1.1723  0.2634
 5428SOL    HW321445   0.254   2.868   0.399  0.4873 -0.5925 -0.7706
 5428SOL    MW421446   0.324   2.876   0.451  0.0394  0.3273  0.0328
 5429SOL     OW21447   3.871   6.223   6.107  0.0366  0.1896  0.2219
 5429SOL    HW221448   3.886   6.166   6.183  2.7611  1.1091  0.4646
 5429SOL    HW321449   3.832   6.302   6.144  0.4501  0.2563  0.5131
 5429SOL    MW421450   3.868   6.226   6.122 -0.1103 -0.3260 -0.2285
 5430SOL     OW21451   4.007   0.257   1.835  0.1749  0.1379  0.0611
 5430SOL    HW221452   4.026   0.346   1.862 -0.3372  0.2522  0.0497
 5430SOL    HW321453   4.053   0.247   1.752 -0.8996  0.8603 -0.6463
 5430SOL    MW421454   4.016   0.267   1.828 -0.1590 -0.1477 -0.8865
 5431SOL     OW21455   2.667   1.487   3.394  0.0635 -0.2989 -0.0689
 5431SOL    HW221456   2.630   1.571   3.422 -3.7312 -2.1720  1.2221
 5431SOL    HW321457   2.649   1.482   3.300  1.4426  0.7482 -0.4264
 5431SOL    MW421458   2.660   1.497   3.385  0.4473 -0.1719 -0.0975
 5432SOL     OW21459   5.137   4.792   0.161  0.3815 -0.3666  0.8064
 5432SOL    HW221460   5.043   4.793   0.180  0.2563 -0.3077  0.2086
 5432SOL    HW321461   5.142   4.771   0.068  0.8744  1.7356  0.3059
 5432SOL    MW421462   5.125   4.789   0.151  0.3259  0.4470  0.4024
 5433SOL     OW21463   1.041   4.807   6.136  0.3729  0.4840  0.3774
 5433SOL    HW221464   1.020   4.819   6.228 -2.5585  0.1367 -0.1626
 5433SOL    HW321465   1.041   4.896   6.099  1.1701  0.5890  0.6101
 5433SOL    MW421466   1.038   4.820   6.143  0.5337 -0.2171  0.6415
 5434SOL     OW21467   6.292   0.270   0.091 -0.5627 -0.4872  0.2767
 5434SOL    HW221468   6.379   0.260   0.131 -0.8514  2.3543  1.8300
 5434SOL    HW321469   6.234   0.288   0.164 -1.9489  0.4750 -1.0050
 5434SOL    MW421470   6.296   0.271   0.106  0.0662 -0.5696  0.3521
 5435SOL     OW21471   2.331   5.712   3.168  0.0320  0.5842 -0.1774
 5435SOL    HW221472   2.313   5.801   3.137 -3.3200 -0.2347 -0.9404
 5435SOL    HW321473   2.413   5.688   3.123 -0.2042  2.4620 -1.7840
 5435SOL    MW421474   2.340   5.720   3.158 -0.3034  0.1364 -0.1400
 5436SOL     OW21475   2.060   6.330   1.620 -0.0888  0.3444 -0.3769
 5436SOL    HW221476   2.132   6.382   1.584  0.3294 -0.1392 -0.2486
 5436SOL    HW321477   2.017   6.389   1.682  1.4644 -0.0044  1.0973
 5436SOL    MW421478   2.064   6.345   1.624 -0.0303  0.5783 -0.1119
 5437SOL     OW21479   3.638   5.185   3.144 -0.3305  0.3471 -0.0028
 5437SOL    HW221480   3.587   5.105   3.134  0.7690 -0.5138  1.0734
 5437SOL    HW321481   3.578   5.255   3.117 -2.5125 -0.4781  2.2992
 5437SOL    MW421482   3.623   5.184   3.139  0.2456 -0.2756  0.2209
 5438SOL     OW21483   4.198   6.365   0.790  0.1854 -0.2685  0.0403
 5438SOL    HW221484   4.288   6.359   0.757  0.7788  1.4182  1.1879
 5438SOL    HW321485   4.195   6.450   0.834 -2.3628  0.3001 -1.0487
 5438SOL    MW421486   4.209   6.375   0.791 -0.4843  0.8956  0.0926
 5439SOL     OW21487   3.984   2.772   4.417 -0.1900 -0.1690  0.1123
 5439SOL    HW221488   3.913   2.832   4.396  0.0614 -0.1152 -0.5990
 5439SOL    HW321489   3.939   2.694   4.452 -0.4623  0.8477  2.1834
 5439SOL    MW421490   3.968   2.769   4.419 -0.2020 -0.1843  0.0931
 5440SOL     OW21491   2.108   0.887   0.052  0.2319 -0.1630  0.1767
 5440SOL    HW221492   2.141   0.808   0.008  0.7113 -0.2143  0.6213
 5440SOL    HW321493   2.022   0.902   0.013  1.1096  0.4567 -1.6084
 5440SOL    MW421494   2.101   0.878   0.041  0.1604 -0.1479 -0.0507
 5441SOL     OW21495   1.697   4.345   2.614 -0.4098  0.0378  0.3818
 5441SOL    HW221496   1.711   4.270   2.671  0.3195 -0.2584 -0.1634
 5441SOL    HW321497   1.628   4.316   2.554  1.0352 -0.8901 -0.9354
 5441SOL    MW421498   1.690   4.331   2.613 -0.2000 -0.6339 -0.3942
 5442SOL     OW21499   1.171   5.791   2.733  0.0909 -0.1413 -0.3151
 5442SOL    HW221500   1.239   5.853   2.758  0.7303 -2.1044  3.7176
 5442SOL    HW321501   1.125   5.772   2.815 -2.0314 -2.6685 -1.9196
 5442SOL    MW421502   1.174   5.797   2.747  0.0586  0.1108  0.4286
 5443SOL     OW21503   6.184   4.856   3.025 -0.4744 -0.7163 -0.9584
 5443SOL    HW221504   6.091   4.870   3.008 -0.8384 -1.4456  0.2962
 5443SOL    HW321505   6.189   4.770   3.067  0.4685  0.2451  1.0866
 5443SOL    MW421506   6.173   4.847   3.029  0.1622  0.3632  0.1375
 5444SOL     OW21507   5.463   2.589   0.086 -0.2273 -0.4538 -0.5177
 5444SOL    HW221508   5.498   2.529   0.020  0.5627  0.8037 -1.2826
 5444SOL    HW321509   5.537   2.606   0.145  0.0229  0.9333 -1.1917
 5444SOL    MW421510   5.477   2.583   0.085  0.3766 -0.1528  1.0193
 5445SOL     OW21511   1.142   0.949   2.621 -0.2138 -0.2939 -0.1948
 5445SOL    HW221512   1.174   0.860   2.613 -1.5530 -0.7259 -0.9750
 5445SOL    HW321513   1.076   0.946   2.690  1.5775  0.6655  1.6729
 5445SOL    MW421514   1.137   0.937   2.629  0.3113 -0.2444  0.4780
 5446SOL     OW21515   2.082   3.816   4.173  0.1365 -0.0954  0.1018
 5446SOL    HW221516   2.022   3.768   4.230 -3.2823  2.9044 -0.5446
 5446SOL    HW321517   2.101   3.897   4.222  1.7270  0.0812 -0.7457
 5446SOL    MW421518   2.076   3.821   4.187 -0.3346  0.0974  0.1519
 5447SOL     OW21519   2.159   2.990   0.400  0.2050 -0.2275  0.6332
 5447SOL    HW221520   2.221   3.046   0.445  1.5738 -1.3145  0.1754
 5447SOL    HW321521   2.158   2.909   0.451  1.2407 -1.2138 -0.8358
 5447SOL    MW421522   2.167   2.986   0.413  0.3712  0.4949  0.3090
 5448SOL     OW21523   4.525   3.041   3.617  1.0627  0.0663  0.2797
 5448SOL    HW221524   4.452   3.080   3.665  0.1123  0.5146 -1.4548
 5448SOL    HW321525   4.529   2.951   3.648 -0.5822 -0.1174  0.0216
 5448SOL    MW421526   4.516   3.034   3.628 -0.2691 -0.3632  0.1081
 5449SOL     OW21527   0.813   2.111   4.938 -0.0373 -0.1751  0.5531
 5449SOL    HW221528   0.771   2.025   4.942 -0.0980 -0.3578 -2.3117
 5449SOL    HW321529   0.745   2.171   4.968 -1.5944 -0.7246 -1.6358
 5449SOL    MW421530   0.798   2.107   4.943  0.2114 -0.2217 -0.6153
 5450SOL     OW21531   5.507   4.162   3.736  0.2621 -0.3528 -0.4533
 5450SOL    HW221532   5.435   4.159   3.672  0.1998  0.1864 -0.4191
 5450SOL    HW321533   5.549   4.247   3.719 -0.1923  0.1182  0.6856
 5450SOL    MW421534   5.503   4.173   3.725 -0.2009  0.3960  0.2000
 5451SOL     OW21535   3.425   2.305   6.355  0.1035 -0.7231 -0.1858
 5451SOL    HW221536   3.381   2.272   6.433 -1.4645  0.7456 -0.3743
 5451SOL    HW321537   3.449   2.227   6.306 -2.7145 -1.6675 -0.2585
 5451SOL    MW421538   3.422   2.291   6.359  0.3451  0.5174  0.5565
 5452SOL     OW21539   3.543   3.933   3.934 -0.6209  0.0185 -0.0136
 5452SOL    HW221540   3.464   3.935   3.987 -0.6727  0.0466 -0.0911
 5452SOL    HW321541   3.576   4.023   3.936  0.0642 -0.2313  0.9938
 5452SOL    MW421542   3.537   3.945   3.941  0.2033 -0.3688 -0.4138
 5453SOL     OW21543   4.184   5.603   5.907  0.1813 -0.1067 -0.0875
 5453SOL    HW221544   4.205   5.605   6.001 -0.6211 -0.6832  0.1073
 5453SOL    HW321545   4.090   5.618   5.903 -0.1152 -1.9270 -0.6905
 5453SOL    MW421546   4.174   5.606   5.919  0.0380 -0.4891 -0.5926
 5454SOL     OW21547   4.389   2.551   4.720 -0.0546  0.1606  0.4564
 5454SOL    HW221548   4.413   2.618   4.657 -0.2549 -0.4091 -0.2396
 5454SOL    HW321549   4.449   2.478   4.702 -0.1426 -0.0277  0.8977
 5454SOL    MW421550   4.400   2.550   4.709  0.3547  0.0788  0.1914
 5455SOL     OW21551   5.762   5.608   1.950  0.0618 -0.2084 -0.3034
 5455SOL    HW221552   5.783   5.544   1.883  1.4387 -0.6845  0.5290
 5455SOL    HW321553   5.778   5.562   2.033 -1.7150  0.3185  0.3677
 5455SOL    MW421554   5.767   5.594   1.952 -0.5679  0.2755  0.0825
 5456SOL     OW21555   3.567   5.035   3.782  0.1966 -0.2418  0.3875
 5456SOL    HW221556   3.513   4.983   3.841  0.0689  0.5073  0.9438
 5456SOL    HW321557   3.653   4.991   3.783  0.2030 -0.2126  1.1608
 5456SOL    MW421558   3.571   5.022   3.790  0.4198 -0.2695  0.4391
 5457SOL     OW21559   0.286   2.804   1.534  0.3012  0.5309  0.2351
 5457SOL    HW221560   0.292   2.756   1.617  4.5829  0.2723 -0.0049
 5457SOL    HW321561   0.252   2.890   1.559 -1.6187 -0.5424  1.6440
 5457SOL    MW421562   0.282   2.809   1.548 -0.2213 -0.2061 -0.4482
 5458SOL     OW21563   3.609   5.371   4.019  0.7530  0.3963  0.0293
 5458SOL    HW221564   3.565   5.450   4.050 -0.5390 -0.8133  1.4627
 5458SOL    HW321565   3.553   5.339   3.948  0.1451 -0.2662  0.7791
 5458SOL    MW421566   3.596   5.377   4.014  0.6961  0.3805 -0.3618
 5459SOL     OW21567   3.590   3.691   4.107 -0.2896 -0.3910  0.2692
 5459SOL    HW221568   3.643   3.612   4.094 -1.1860 -0.8204 -1.0324
 5459SOL    HW321569   3.645   3.762   4.075 -0.0712 -0.6829 -0.0162
 5459SOL    MW421570   3.604   3.690   4.101  0.3538  0.0451  0.4345
 5460SOL     OW21571   4.511   6.085   5.510 -0.0437 -0.2057 -0.1583
 5460SOL    HW221572   4.597   6.120   5.537  0.4384 -1.5278  0.1065
 5460SOL    HW321573   4.449   6.131   5.566  0.6458 -0.3456  0.7618
 5460SOL    MW421574   4.514   6.096   5.521 -0.1771 -0.1436 -0.4707
 5461SOL     OW21575   4.261   1.532   2.914 -0.4364 -0.1090  0.2951
 5461SOL    HW221576   4.257   1.598   2.846 -0.5949 -0.8327 -0.4146
 5461SOL    HW321577   4.237   1.578   2.995 -0.1177  0.7794 -0.1141
 5461SOL    MW421578   4.258   1.547   2.916  0.2859 -0.4666 -0.2628
 5462SOL     OW21579   4.579   4.318   5.090  0.2361 -0.0749  0.0119
 5462SOL    HW221580   4.502   4.373   5.105 -0.3801 -1.0781  0.6049
 5462SOL    HW321581   4.543   4.235   5.059  1.1923  0.0878 -1.6660
 5462SOL    MW421582   4.564   4.314   5.088 -0.4935 -0.0915 -0.3832
 5463SOL     OW21583   1.277   4.282   5.796 -0.1647 -0.2857  0.0255
 5463SOL    HW221584   1.214   4.225   5.753 -0.3174 -0.5198  0.5473
 5463SOL    HW321585   1.346   4.223   5.826  1.7843  0.2468 -2.9758
 5463SOL    MW421586   1.278   4.267   5.794  0.1425 -0.6709 -0.2914
 5464SOL     OW21587   6.213   2.230   2.754  0.5886  0.1684 -0.0864
 5464SOL    HW221588   6.245   2.206   2.841  1.1816  2.5886  0.4617
 5464SOL    HW321589   6.128   2.187   2.746 -0.1012  0.9545  2.2762
 5464SOL    MW421590   6.206   2.221   2.764  0.6665 -0.0267  0.2000
 5465SOL     OW21591   1.852   4.686   4.541  0.4955  0.0516 -0.1320
 5465SOL    HW221592   1.856   4.592   4.562 -2.5951  0.2679  2.0231
 5465SOL    HW321593   1.772   4.695   4.490  0.9702  1.5132 -0.6594
 5465SOL    MW421594   1.842   4.675   4.537  0.2731 -0.1654  0.4699
 5466SOL     OW21595   5.600   1.370   3.269 -0.1846 -0.7141  0.1966
 5466SOL    HW221596   5.569   1.318   3.343  0.4570 -0.7573  0.4408
 5466SOL    HW321597   5.679   1.325   3.240 -0.6142 -0.8870 -0.7279
 5466SOL    MW421598   5.606   1.357   3.275  0.3081  0.4269  1.0483
 5467SOL     OW21599   4.768   4.333   2.928 -0.3400  0.4631 -0.4039
 5467SOL    HW221600   4.820   4.258   2.898  2.6985  1.7339  1.2819
 5467SOL    HW321601   4.704   4.347   2.858  0.3780 -2.3497 -1.7621
 5467SOL    MW421602   4.766   4.325   2.915  0.2708 -0.0599  0.4617
 5468SOL     OW21603   4.667   1.294   6.174 -0.5888 -0.0838  0.2916
 5468SOL    HW221604   4.595   1.358   6.182 -1.8070 -1.2432 -0.8111
 5468SOL    HW321605   4.726   1.316   6.245 -1.8038  1.2193  0.9684
 5468SOL    MW421606   4.665   1.305   6.184  0.0830 -0.2775  0.6833
 5469SOL     OW21607   1.308   2.027   4.893  0.6017 -0.4894  0.0787
 5469SOL    HW221608   1.265   2.077   4.823 -0.7163 -0.6140  0.7571
 5469SOL    HW321609   1.239   2.013   4.958  1.6326 -0.9190  1.1191
 5469SOL    MW421610   1.293   2.032   4.892  0.1731  0.1275 -0.1252
 5470SOL     OW21611   3.133   0.491   3.286 -0.2632  0.1155 -0.6013
 5470SOL    HW221612   3.085   0.568   3.316  0.2916  0.3623 -0.3344
 5470SOL    HW321613   3.200   0.526   3.226  0.0313 -0.1487 -0.4287
 5470SOL    MW421614   3.136   0.506   3.282  0.4304  0.2502 -0.5845
 5471SOL     OW21615   4.090   0.396   3.042 -0.1039 -0.2936  0.3049
 5471SOL    HW221616   4.043   0.394   2.960  1.5585 -3.3733 -0.7283
 5471SOL    HW321617   4.100   0.489   3.062  1.1822  0.7120 -4.0633
 5471SOL    MW421618   4.085   0.408   3.034  0.1351 -0.5217  0.0601
 5472SOL     OW21619   6.209   0.501   2.063  0.0713 -0.4102 -0.0966
 5472SOL    HW221620   6.149   0.489   1.989 -0.6152  0.1413  0.3628
 5472SOL    HW321621   6.155   0.538   2.132  0.0417 -3.2863  1.6038
 5472SOL    MW421622   6.194   0.504   2.062  0.1806 -0.1640  0.6403
 5473SOL     OW21623   4.377   5.078   5.609 -0.1515  0.1176  0.0275
 5473SOL    HW221624   4.317   5.146   5.580  0.8630  0.4213 -1.4374
 5473SOL    HW321625   4.374   5.012   5.539 -0.3513 -0.8656  0.9406
 5473SOL    MW421626   4.368   5.078   5.596 -0.1433 -0.1454 -0.0611
 5474SOL     OW21627   4.774   0.680   5.627 -0.0019 -0.0404 -0.3402
 5474SOL    HW221628   4.687   0.649   5.600  0.4491 -1.1372 -0.5813
 5474SOL    HW321629   4.772   0.774   5.610 -0.4552 -0.3632 -2.2496
 5474SOL    MW421630   4.762   0.688   5.621 -0.3819 -0.1674  0.2732
 5475SOL     OW21631   5.614   3.672   5.331  0.3185 -0.4974 -0.1073
 5475SOL    HW221632   5.575   3.736   5.391 -0.1503 -0.5611 -0.3320
 5475SOL    HW321633   5.550   3.601   5.328  0.7206 -0.8625 -0.0510
 5475SOL    MW421634   5.600   3.671   5.339  0.2343 -0.1541 -0.1410
 5476SOL     OW21635   0.819   1.617   4.264  0.8571 -0.0355  0.4144
 5476SOL    HW221636   0.820   1.620   4.168 -0.3177  0.4450  0.4015
 5476SOL    HW321637   0.765   1.692   4.290  1.0121 -0.2637  1.4535
 5476SOL    MW421638   0.812   1.627   4.255 -0.2601  0.1940  0.2430
 5477SOL     OW21639   3.912   2.302   2.466  0.0257  0.8383 -0.2947
 5477SOL    HW221640   3.943   2.308   2.557  0.9092  2.8495 -0.6681
 5477SOL    HW321641   3.942   2.216   2.437 -0.7830 -0.1015  1.4692
 5477SOL    MW421642   3.920   2.292   2.475 -0.1841 -0.4594 -0.2897
 5478SOL     OW21643   6.007   3.277   0.668 -0.3690 -0.2718 -0.3661
 5478SOL    HW221644   6.006   3.189   0.706 -0.7005 -0.3175 -0.4805
 5478SOL    HW321645   5.935   3.323   0.712  0.7552  0.4198  0.8208
 5478SOL    MW421646   5.997   3.272   0.679  0.4196 -0.1468 -0.1841
 5479SOL     OW21647   2.454   2.356   0.855  0.2650 -0.0341  0.2941
 5479SOL    HW221648   2.465   2.445   0.887 -2.0534  0.2423  0.5069
 5479SOL    HW321649   2.459   2.302   0.934 -0.9227  0.1988  0.5504
 5479SOL    MW421650   2.456   2.360   0.870 -0.0895 -0.4819 -0.1889
 5480SOL     OW21651   5.516   5.899   2.393  0.4910  0.2864 -0.4287
 5480SOL    HW221652   5.421   5.894   2.404  0.6000  0.7349  0.7585
 5480SOL    HW321653   5.549   5.814   2.423  0.5813  0.6421  0.4928
 5480SOL    MW421654   5.508   5.887   2.398  0.0653 -0.1514  0.9297
 5481SOL     OW21655   0.954   2.194   3.952 -0.0132  0.2390 -0.2118
 5481SOL    HW221656   0.987   2.275   3.913  0.9035 -0.2218 -0.4212
 5481SOL    HW321657   0.967   2.128   3.884  0.4220 -0.3234  0.4046
 5481SOL    MW421658   0.960   2.196   3.938  0.1333  0.7780 -0.1114
 5482SOL     OW21659   4.134   4.513   0.091  0.2313  0.0208 -0.2127
 5482SOL    HW221660   4.085   4.444   0.047  0.4704  0.6601 -1.5198
 5482SOL    HW321661   4.139   4.484   0.182 -1.6541 -0.5655 -0.2522
 5482SOL    MW421662   4.129   4.500   0.098  0.0812 -0.1615 -0.2551
 5483SOL     OW21663   1.932   4.010   2.120 -0.5540  0.0899  0.8589
 5483SOL    HW221664   1.841   4.034   2.136 -0.7505 -1.2151  1.8529
 5483SOL    HW321665   1.929   3.917   2.097  0.4695  0.1857  0.3034
 5483SOL    MW421666   1.920   4.001   2.119  0.0728  0.3779  0.3810
 5484SOL     OW21667   3.963   2.462   0.198  0.3956  0.0738  0.5047
 5484SOL    HW221668   3.923   2.377   0.178 -2.0454  0.6051  2.5643
 5484SOL    HW321669   3.895   2.525   0.175  1.8061  1.4356 -0.0522
 5484SOL    MW421670   3.949   2.459   0.192 -0.0884 -0.0007  0.1118
 5485SOL     OW21671   0.574   6.223   1.523  0.2235  0.3146  0.3920
 5485SOL    HW221672   0.501   6.253   1.577  0.3385 -0.8401  1.2285
 5485SOL    HW321673   0.600   6.140   1.563  0.6305 -0.3275 -1.1600
 5485SOL    MW421674   0.567   6.216   1.536  0.0320  0.0387 -0.1015
 5486SOL     OW21675   4.622   0.573   0.607 -0.1396 -0.3317 -0.8591
 5486SOL    HW221676   4.548   0.562   0.547  0.4450 -0.7455 -1.5096
 5486SOL    HW321677   4.645   0.484   0.633 -1.1786 -0.1138  0.9811
 5486SOL    MW421678   4.615   0.560   0.602  0.0238  0.0899  0.0971
 5487SOL     OW21679   2.657   4.429   6.259 -0.0662 -0.2743 -0.0852
 5487SOL    HW221680   2.643   4.335   6.247  0.5708 -0.2808 -0.8941
 5487SOL    HW321681   2.676   4.439   6.352  2.3930 -1.3282 -0.3804
 5487SOL    MW421682   2.658   4.418   6.269  0.1204 -0.4538  0.8712
 5488SOL     OW21683   1.304   4.681   5.518  0.5054  0.3358  0.2858
 5488SOL    HW221684   1.305   4.587   5.497 -1.3756  0.5839 -1.2637
 5488SOL    HW321685   1.314   4.724   5.434 -1.4274  1.4712  0.5806
 5488SOL    MW421686   1.305   4.674   5.504  0.6488  0.5270 -0.1453
 5489SOL     OW21687   2.865   2.094   0.534  0.2296 -0.5220 -0.5600
 5489SOL    HW221688   2.826   2.127   0.453 -1.5708 -1.1515  0.0032
 5489SOL    HW321689   2.871   2.172   0.590 -0.7974 -0.5095 -0.4493
 5489SOL    MW421690   2.861   2.109   0.531 -0.5172 -0.0585 -0.1322
 5490SOL     OW21691   1.347   5.862   0.022 -0.4952  0.1651  0.0534
 5490SOL    HW221692   1.288   5.866   0.097 -0.3976 -0.1999  0.1537
 5490SOL    HW321693   1.432   5.890   0.057 -0.3383 -0.4678  0.2028
 5490SOL    MW421694   1.350   5.866   0.037 -0.0051  0.0127  0.1580
 5491SOL     OW21695   4.042   5.835   6.369 -0.1431  0.1998 -0.2779
 5491SOL    HW221696   3.966   5.780   6.388  1.5179 -1.9511  0.5373
 5491SOL    HW321697   4.098   5.825   6.446  1.8914  0.0240 -1.6996
 5491SOL    MW421698   4.040   5.826   6.382 -0.0060  0.3288  0.5892
 5492SOL     OW21699   5.182   5.882   5.507  0.6790  0.1877 -0.5342
 5492SOL    HW221700   5.177   5.923   5.420  0.1617  1.9850  0.2996
 5492SOL    HW321701   5.246   5.934   5.554  0.9253 -0.7565  0.1975
 5492SOL    MW421702   5.190   5.894   5.501 -0.5939 -0.2348  0.3707
 5493SOL     OW21703   2.624   0.340   3.967  0.1398 -0.0878 -0.2910
 5493SOL    HW221704   2.657   0.255   3.995 -1.7236 -0.4055  1.1214
 5493SOL    HW321705   2.604   0.329   3.874 -1.1294 -1.5815  0.1219
 5493SOL    MW421706   2.626   0.327   3.958  0.3345  0.9404 -0.1273
 5494SOL     OW21707   0.637   0.832   6.139  0.3923 -0.6809 -0.3464
 5494SOL    HW221708   0.558   0.783   6.161  0.9426 -1.4594 -0.0636
 5494SOL    HW321709   0.683   0.776   6.076 -0.4341  0.8378 -2.4301
 5494SOL    MW421710   0.633   0.818   6.133 -0.1159  0.6425  0.3260
 5495SOL     OW21711   2.681   4.865   1.622 -0.4213  0.0338  0.0153
 5495SOL    HW221712   2.634   4.809   1.684  1.5254  0.9871  2.5692
 5495SOL    HW321713   2.651   4.953   1.643  0.9770  0.4603  0.3276
 5495SOL    MW421714   2.671   4.869   1.633 -0.0953 -0.1232  0.0825
 5496SOL     OW21715   4.866   0.616   5.190 -0.0445  0.2040  0.1757
 5496SOL    HW221716   4.823   0.664   5.119  0.4537  0.1933 -0.1424
 5496SOL    HW321717   4.922   0.553   5.145  1.7759  1.4929  0.5360
 5496SOL    MW421718   4.868   0.614   5.174 -0.5275 -0.0521  0.7125
 5497SOL     OW21719   0.052   2.143   4.163  0.4280 -0.0230 -0.5395
 5497SOL    HW221720   0.024   2.078   4.099 -0.0829 -0.7950  0.4404
 5497SOL    HW321721   0.148   2.137   4.163  0.3833 -0.9385 -0.3209
 5497SOL    MW421722   0.061   2.133   4.155 -0.1381  0.0258 -0.1596
 5498SOL     OW21723   4.963   1.368   2.438 -0.0799 -0.8365 -0.2384
 5498SOL    HW221724   4.896   1.412   2.387 -1.1937 -1.2551  0.8181
 5498SOL    HW321725   4.915   1.309   2.496  1.1766 -0.9296  0.7645
 5498SOL    MW421726   4.948   1.366   2.439 -0.3301  0.0523 -0.2241
 5499SOL     OW21727   2.521   2.786   6.280 -0.0399  0.3166 -0.1577
 5499SOL    HW221728   2.496   2.786   6.188  0.2521  0.4702 -0.2404
 5499SOL    HW321729   2.576   2.707   6.290 -0.1196  0.2678 -0.1011
 5499SOL    MW421730   2.525   2.775   6.269  0.6848 -0.0473 -0.2293
 5500SOL     OW21731   5.389   2.057   3.519  0.3348 -0.1542  0.5085
 5500SOL    HW221732   5.336   2.125   3.560 -0.8569 -0.8972  0.2722
 5500SOL    HW321733   5.433   2.013   3.592 -1.1431 -0.9529  0.9506
 5500SOL    MW421734   5.388   2.060   3.534 -0.0087 -0.5254 -0.1665
 5501SOL     OW21735   0.011   4.702   0.190  0.1227  0.2197  0.0363
 5501SOL    HW221736   0.096   4.686   0.231 -0.0731 -0.2291  0.2786
 5501SOL    HW321737   0.026   4.777   0.133  0.5460  0.4875  0.4853
 5501SOL    MW421738   0.025   4.709   0.188 -0.7381 -0.3185 -0.9355
 5502SOL     OW21739   2.880   2.275   0.738 -0.1046 -0.4598 -0.2718
 5502SOL    HW221740   2.864   2.360   0.697  0.5430  0.4077  1.1864
 5502SOL    HW321741   2.955   2.290   0.795 -1.0859 -1.5322  1.3728
 5502SOL    MW421742   2.888   2.288   0.740  1.1294 -0.0586  0.0248
 5503SOL     OW21743   0.620   6.303   0.433 -0.3080 -0.0445  0.1342
 5503SOL    HW221744   0.663   6.258   0.361 -0.1011  0.0711  0.1835
 5503SOL    HW321745   0.530   6.318   0.403 -0.6955 -1.4379  0.5293
 5503SOL    MW421746   0.614   6.299   0.419 -0.2361  0.4547 -0.0153
 5504SOL     OW21747   0.254   4.003   0.287  0.1431 -0.1047 -0.0025
 5504SOL    HW221748   0.256   4.078   0.228  0.7600  0.2723  0.4833
 5504SOL    HW321749   0.190   4.026   0.354  0.0922 -0.1515 -0.0351
 5504SOL    MW421750   0.246   4.016   0.288 -0.0793 -0.0669  0.0500
 5505SOL     OW21751   0.882   0.418   2.201  0.2480  0.3706 -0.5757
 5505SOL    HW221752   0.794   0.411   2.237 -0.0616  1.5294 -1.0739
 5505SOL    HW321753   0.868   0.434   2.108  0.9380  2.5122 -0.3448
 5505SOL    MW421754   0.868   0.419   2.193  0.0393  0.3767 -0.3940
 5506SOL     OW21755   5.735   5.548   6.267  0.0570  0.0529 -0.6580
 5506SOL    HW221756   5.777   5.605   6.331  0.5757 -0.7605 -0.2486
 5506SOL    HW321757   5.788   5.558   6.188 -0.7964  1.3330 -1.0947
 5506SOL    MW421758   5.748   5.557   6.265 -0.3020  0.3393 -0.0731
 5507SOL     OW21759   4.037   3.104   4.753  0.1979  0.0850 -0.4968
 5507SOL    HW221760   3.957   3.054   4.767  0.6695 -0.1551  1.6943
 5507SOL    HW321761   4.035   3.172   4.820  1.6819  0.2606 -0.5937
 5507SOL    MW421762   4.026   3.107   4.763 -0.2004 -0.0615 -0.1685
 5508SOL     OW21763   5.238   2.597   3.200  0.3386  0.0408 -0.1546
 5508SOL    HW221764   5.269   2.667   3.258 -0.5884 -0.7193  1.3143
 5508SOL    HW321765   5.208   2.528   3.259 -0.5659 -0.8144 -1.5471
 5508SOL    MW421766   5.238   2.597   3.216  0.1546 -0.4436  0.5953
 5509SOL     OW21767   6.157   1.663   4.798 -0.3072 -0.4112  0.6554
 5509SOL    HW221768   6.134   1.582   4.753 -1.7984 -0.1537  0.9149
 5509SOL    HW321769   6.162   1.728   4.729 -0.4073 -0.4540  0.6083
 5509SOL    MW421770   6.155   1.661   4.783  0.5161 -0.2530 -0.2244
 5510SOL     OW21771   1.660   2.831   3.191 -0.3744 -0.0255  0.2563
 5510SOL    HW221772   1.633   2.777   3.264 -2.0847  1.1139  0.5253
 5510SOL    HW321773   1.671   2.770   3.118 -0.7720 -0.8903  0.9124
 5510SOL    MW421774   1.658   2.816   3.191  0.3583  0.0849  0.4494
 5511SOL     OW21775   4.248   3.693   4.724  0.1583 -0.0173  0.5428
 5511SOL    HW221776   4.231   3.700   4.630  0.5731 -1.7020  0.3024
 5511SOL    HW321777   4.254   3.784   4.755  0.2676  0.5633 -1.0989
 5511SOL    MW421778   4.247   3.706   4.716  0.3661  0.3638 -0.2069
 5512SOL     OW21779   2.262   3.994   2.961 -0.5443  0.3471  0.1785
 5512SOL    HW221780   2.340   3.939   2.948 -0.5613  0.3226  0.1790
 5512SOL    HW321781   2.192   3.947   2.914 -0.7064  0.0286  0.7295
 5512SOL    MW421782   2.263   3.980   2.953 -0.5029 -0.5309  0.1475
 5513SOL     OW21783   4.228   0.648   4.872 -0.3028 -0.0209  0.0813
 5513SOL    HW221784   4.136   0.622   4.869 -1.0684  2.1928  1.6357
 5513SOL    HW321785   4.265   0.600   4.946 -0.8440  0.7368  0.8691
 5513SOL    MW421786   4.221   0.638   4.881  0.7567  0.0968 -0.1308
 5514SOL     OW21787   0.250   5.807   0.997  0.4426  0.1540  0.3996
 5514SOL    HW221788   0.317   5.824   0.930 -1.9057  0.1929 -2.0695
 5514SOL    HW321789   0.244   5.712   1.001 -1.0633  0.1328 -1.2874
 5514SOL    MW421790   0.258   5.797   0.989 -0.2857 -0.1093  0.3522
 5515SOL     OW21791   6.279   4.191   4.268  0.4043  0.7830 -0.1022
 5515SOL    HW221792   6.298   4.107   4.311 -1.1782  0.0285 -0.7845
 5515SOL    HW321793   6.249   4.248   4.338  0.8419  0.5674  0.2664
 5515SOL    MW421794   6.277   4.187   4.283 -0.0170  0.5168  0.1193
 5516SOL     OW21795   3.671   1.605   2.603  0.1441  0.1223  0.4337
 5516SOL    HW221796   3.699   1.686   2.560  0.4786 -0.6632 -0.8950
 5516SOL    HW321797   3.750   1.552   2.608  0.2834  0.4643  2.7748
 5516SOL    MW421798   3.685   1.609   2.598 -0.1752  0.0028 -0.2061
 5517SOL     OW21799   4.005   3.847   1.140  0.3228  0.1303  0.2853
 5517SOL    HW221800   4.084   3.811   1.101  0.8948  0.5587  1.0221
 5517SOL    HW321801   3.936   3.830   1.076  0.8574 -0.9439 -0.0311
 5517SOL    MW421802   4.006   3.840   1.127  0.8832  0.2431  0.5118
 5518SOL     OW21803   4.792   5.164   2.400 -0.0774  0.5276  0.0053
 5518SOL    HW221804   4.755   5.086   2.358 -0.1159  1.3442 -1.5573
 5518SOL    HW321805   4.721   5.196   2.457 -0.0618 -0.5479  0.6504
 5518SOL    MW421806   4.778   5.158   2.402  0.0960  0.0915  0.4803
 5519SOL     OW21807   4.565   4.379   4.821  0.6336 -0.0584 -0.2993
 5519SOL    HW221808   4.574   4.390   4.916  1.6938  0.7857 -0.4805
 5519SOL    HW321809   4.624   4.307   4.799 -0.3839 -0.9470 -0.1958
 5519SOL    MW421810   4.574   4.371   4.831 -0.5740  0.1044  0.7369
 5520SOL     OW21811   6.415   3.009   4.592 -0.6857 -0.5930 -0.2406
 5520SOL    HW221812   6.428   3.092   4.638  1.2395 -0.7023 -0.5401
 5520SOL    HW321813   6.382   2.950   4.659  0.6025 -0.3295  0.6485
 5520SOL    MW421814   6.412   3.012   4.607  0.0974 -0.4384 -0.1599
 5521SOL     OW21815   4.657   3.837   5.435 -0.6840  0.3822 -0.1790
 5521SOL    HW221816   4.681   3.905   5.498 -0.2637  1.0896 -1.0755
 5521SOL    HW321817   4.576   3.800   5.470 -1.4335  1.9744 -0.1110
 5521SOL    MW421818   4.649   3.841   5.448 -0.1084  0.7094 -0.3146
 5522SOL     OW21819   4.187   1.842   0.899  0.2801  0.3404  0.1758
 5522SOL    HW221820   4.190   1.909   0.967  2.7400  0.5817 -0.0558
 5522SOL    HW321821   4.183   1.890   0.817  3.6349  0.4317 -0.0808
 5522SOL    MW421822   4.187   1.857   0.897  0.0407  0.2541  0.0983
 5523SOL     OW21823   1.715   2.251   2.442  0.0707  0.2031  0.1382
 5523SOL    HW221824   1.735   2.175   2.387 -1.7109  1.1084 -1.9243
 5523SOL    HW321825   1.760   2.324   2.400 -1.3623  0.9252 -0.2075
 5523SOL    MW421826   1.723   2.251   2.429 -0.1751 -0.3009  0.5482
 5524SOL     OW21827   5.095   2.185   5.823 -0.1202 -0.2573  0.0926
 5524SOL    HW221828   5.031   2.170   5.752  2.0276 -1.1070 -1.8032
 5524SOL    HW321829   5.092   2.104   5.874  1.2016 -1.4505 -1.5713
 5524SOL    MW421830   5.086   2.172   5.820  0.2909 -0.3487 -0.9156
 5525SOL     OW21831   4.578   0.503   4.866 -0.0418  0.0814 -0.3008
 5525SOL    HW221832   4.591   0.408   4.872  1.5512 -0.0011 -3.0350
 5525SOL    HW321833   4.605   0.537   4.951 -3.2206 -2.0441  1.7376
 5525SOL    MW421834   4.583   0.495   4.878 -0.0771  0.0973 -0.6397
 5526SOL     OW21835   3.670   5.534   1.311  0.1511  0.3325 -0.0463
 5526SOL    HW221836   3.745   5.516   1.254 -0.5670  1.3851 -1.3877
 5526SOL    HW321837   3.697   5.610   1.363  0.2922  0.2505  0.0005
 5526SOL    MW421838   3.684   5.542   1.311 -0.1461 -0.1655  0.1000
 5527SOL     OW21839   2.623   1.013   5.557 -0.0597  0.2035  0.1332
 5527SOL    HW221840   2.567   1.035   5.482 -0.8766  0.8133  0.8984
 5527SOL    HW321841   2.566   0.963   5.615  0.9759 -1.5565 -0.2822
 5527SOL    MW421842   2.608   1.009   5.555  0.1989 -0.5519 -0.4972
 5528SOL     OW21843   5.366   6.032   3.753 -0.5719  0.3827 -0.3253
 5528SOL    HW221844   5.281   6.012   3.715  0.1888 -0.8492 -1.4692
 5528SOL    HW321845   5.429   5.989   3.695  0.7755  0.3692  1.0797
 5528SOL    MW421846   5.363   6.024   3.740  0.1617  0.8288  0.4569
 5529SOL     OW21847   2.673   4.950   3.246 -0.0889 -0.4335  0.3912
 5529SOL    HW221848   2.581   4.966   3.265 -0.4666  0.2840 -1.7638
 5529SOL    HW321849   2.700   5.024   3.192  1.3259 -1.4172 -0.3219
 5529SOL    MW421850   2.665   4.962   3.242 -0.0251  0.2911 -0.2847
 5530SOL     OW21851   5.139   6.130   5.966 -0.8785 -0.2468 -0.0745
 5530SOL    HW221852   5.218   6.078   5.972 -0.5287  0.3760  1.1168
 5530SOL    HW321853   5.123   6.141   5.872  0.5810 -0.1808 -0.3254
 5530SOL    MW421854   5.147   6.125   5.954 -0.3785  0.0340  0.3232
 5531SOL     OW21855   1.357   5.092   1.327  0.1902  0.1372  0.7854
 5531SOL    HW221856   1.353   5.159   1.260  1.4819 -0.8923 -0.3850
 5531SOL    HW321857   1.279   5.106   1.381 -0.8788  0.9792 -0.9254
 5531SOL    MW421858   1.346   5.103   1.325 -1.0746 -0.3780 -0.0319
 5532SOL     OW21859   1.069   0.684   5.021 -0.0271 -0.0528 -0.2816
 5532SOL    HW221860   1.071   0.764   4.968  1.2886  1.9329  2.5080
 5532SOL    HW321861   0.984   0.685   5.064 -0.9357 -1.4563 -1.9229
 5532SOL    MW421862   1.058   0.695   5.020  0.1964  0.6768 -0.0088
 5533SOL     OW21863   0.513   1.444   0.050  0.0100  0.6934  0.1352
 5533SOL    HW221864   0.508   1.404  -0.037 -2.3727 -0.7897  0.8712
 5533SOL    HW321865   0.499   1.537   0.034  0.3590  0.5494 -1.1327
 5533SOL    MW421866   0.511   1.451   0.037 -1.0248 -0.9114  0.0684
 5534SOL     OW21867   6.050   6.322   3.662  0.6319 -1.0031 -0.2527
 5534SOL    HW221868   6.023   6.367   3.582  0.4869 -1.3222 -0.3817
 5534SOL    HW321869   6.145   6.336   3.666  0.4156  0.4034  0.3778
 5534SOL    MW421870   6.059   6.330   3.652 -0.3693  0.2607  0.2150
 5535SOL     OW21871   3.898   1.757   6.081  0.5639  0.4091 -0.4556
 5535SOL    HW221872   3.954   1.835   6.083  1.6578 -0.2805 -2.3060
 5535SOL    HW321873   3.952   1.687   6.118  0.0854  0.2086 -0.1177
 5535SOL    MW421874   3.913   1.758   6.086  0.2466  0.1200 -0.3336
 5536SOL     OW21875   3.846   1.440   0.622 -0.0708  0.0273  0.0789
 5536SOL    HW221876   3.920   1.457   0.680  0.4766  2.0050 -1.1056
 5536SOL    HW321877   3.885   1.425   0.536 -0.9335 -1.6430 -0.0636
 5536SOL    MW421878   3.861   1.441   0.618  0.3312  0.0849 -0.8889
 5537SOL     OW21879   0.694   2.129   3.900 -0.4315 -0.2413 -0.3564
 5537SOL    HW221880   0.634   2.203   3.903  0.2599  0.4834 -2.6498
 5537SOL    HW321881   0.780   2.167   3.911  0.0824 -0.3892 -3.2035
 5537SOL    MW421882   0.697   2.144   3.902 -0.8840 -0.2013 -0.2557
 5538SOL     OW21883   3.307   0.790   1.096 -0.1332  0.3505 -0.4570
 5538SOL    HW221884   3.229   0.734   1.090  1.1170 -1.4235 -0.9990
 5538SOL    HW321885   3.359   0.768   1.018  0.1113  2.8267 -1.0825
 5538SOL    MW421886   3.304   0.779   1.085  0.3831  0.3223  0.2418
 5539SOL     OW21887   3.159   3.414   5.918  0.4666 -0.1526 -0.4683
 5539SOL    HW221888   3.111   3.478   5.866  1.1944 -0.4169 -1.5009
 5539SOL    HW321889   3.207   3.466   5.982 -1.6338  0.0784  1.0101
 5539SOL    MW421890   3.159   3.429   5.920  0.3120  0.1338  0.6426
 5540SOL     OW21891   3.070   2.797   6.243 -0.0034  0.5562  0.0424
 5540SOL    HW221892   3.126   2.870   6.217  0.5462  0.7908  1.7522
 5540SOL    HW321893   3.056   2.810   6.337 -1.3714 -0.5584  0.0196
 5540SOL    MW421894   3.076   2.809   6.252 -0.1345  0.4349  0.4400
 5541SOL     OW21895   1.953   4.073   1.110  0.3152  0.4129  0.0858
 5541SOL    HW221896   1.896   4.134   1.157  1.0565 -0.8312  2.7791
 5541SOL    HW321897   1.987   4.014   1.178  0.2004 -2.5759 -2.2227
 5541SOL    MW421898   1.950   4.073   1.125 -0.7795  0.2013 -0.1069
 5542SOL     OW21899   1.278   6.274   5.390 -0.1065  0.0772  0.0280
 5542SOL    HW221900   1.307   6.298   5.478  0.6034  1.1532 -0.4754
 5542SOL    HW321901   1.351   6.225   5.354  0.6147  1.6459 -0.7640
 5542SOL    MW421902   1.291   6.271   5.397  0.4029 -0.2164  0.4194
 5543SOL     OW21903   4.413   6.056   5.206 -0.0975 -0.5048  0.0383
 5543SOL    HW221904   4.464   5.978   5.185  0.7647 -0.3182  1.3512
 5543SOL    HW321905   4.413   6.060   5.302 -1.3849  0.2936  0.0296
 5543SOL    MW421906   4.420   6.046   5.216  0.3218  0.2369  0.3867
 5544SOL     OW21907   3.188   1.592   0.733  0.1542  0.3746 -0.3853
 5544SOL    HW221908   3.095   1.611   0.731  0.2611  1.0064  0.4711
 5544SOL    HW321909   3.193   1.497   0.749 -0.3363  0.5551  0.9179
 5544SOL    MW421910   3.177   1.582   0.735 -0.4684  0.1619  0.2239
 5545SOL     OW21911   3.521   5.077   2.081  0.3403 -0.0744 -0.4703
 5545SOL    HW221912   3.440   5.056   2.034  0.4735  1.6226 -1.5254
 5545SOL    HW321913   3.583   5.011   2.050 -0.8375 -2.0476  1.1257
 5545SOL    MW421914   3.518   5.065   2.070  0.6663 -0.0393 -0.5346
 5546SOL     OW21915   2.541   3.177   5.861 -0.5076 -0.0387  0.2166
 5546SOL    HW221916   2.553   3.112   5.792  0.1286  0.1221  0.1634
 5546SOL    HW321917   2.622   3.228   5.859 -1.0014  0.7644  0.2481
 5546SOL    MW421918   2.553   3.175   5.851  0.5981 -0.2259  0.0756
 5547SOL     OW21919   3.959   5.221   3.545 -0.9079 -0.2466 -0.0429
 5547SOL    HW221920   3.947   5.212   3.451  2.2299  2.2892 -0.8622
 5547SOL    HW321921   4.030   5.162   3.566 -0.3300  0.5613  0.3293
 5547SOL    MW421922   3.967   5.212   3.535 -0.4594 -0.8774  0.5125
 5548SOL     OW21923   4.197   4.048   2.461  0.2938  0.5927 -0.4898
 5548SOL    HW221924   4.106   4.033   2.486  0.8433 -1.3495  0.5695
 5548SOL    HW321925   4.235   3.960   2.453  1.8383  1.3259 -1.8937
 5548SOL    MW421926   4.190   4.035   2.463 -0.2559 -0.3284 -0.0198
 5549SOL     OW21927   1.554   2.037   5.992 -0.2889 -0.3565  0.4972
 5549SOL    HW221928   1.577   2.023   5.900 -0.0697  0.3259  0.4380
 5549SOL    HW321929   1.460   2.055   5.991 -0.5424 -1.6057  0.5590
 5549SOL    MW421930   1.545   2.038   5.979 -0.5625  0.0126 -0.0827
 5550SOL     OW21931   2.754   3.364   5.765 -0.2109  0.2735  0.0994
 5550SOL    HW221932   2.678   3.418   5.787 -0.4350  0.0840 -0.1944
 5550SOL    HW321933   2.801   3.353   5.847 -0.2416  0.7951  0.1897
 5550SOL    MW421934   2.750   3.370   5.778 -0.2668  0.4018 -0.2009
 5551SOL     OW21935   5.091   0.468   0.268  0.2895 -0.2076 -0.4587
 5551SOL    HW221936   5.134   0.507   0.192  0.9955  0.1758  0.1301
 5551SOL    HW321937   5.140   0.501   0.343 -2.9110  2.9522  0.5458
 5551SOL    MW421938   5.103   0.478   0.268 -0.6873  0.0751  0.0298
 5552SOL     OW21939   5.337   1.069   0.398  0.3334 -0.5796 -0.1512
 5552SOL    HW221940   5.336   1.146   0.341  2.4363 -1.6449 -1.7865
 5552SOL    HW321941   5.253   1.026   0.381  0.8150 -0.7719 -2.3995
 5552SOL    MW421942   5.326   1.073   0.388 -0.6586 -0.4506  0.3189
 5553SOL     OW21943   3.206   2.498   4.307 -0.3698 -0.3711 -0.0680
 5553SOL    HW221944   3.118   2.535   4.300 -0.4726 -0.6297 -0.1688
 5553SOL    HW321945   3.201   2.414   4.260 -0.2233 -0.6553  0.4148
 5553SOL    MW421946   3.194   2.492   4.300  0.7475  0.8134 -0.2765
 5554SOL     OW21947   3.346   3.248   2.915 -0.0810 -0.2471  0.7142
 5554SOL    HW221948   3.264   3.235   2.962  0.3250 -0.9414  1.2478
 5554SOL    HW321949   3.392   3.316   2.963 -0.8690  1.0546 -0.3072
 5554SOL    MW421950   3.341   3.255   2.927  0.4336 -0.4748 -0.0399
 5555SOL     OW21951   4.874   5.612   1.067 -0.1998  0.3569  0.2648
 5555SOL    HW221952   4.798   5.662   1.096 -0.5490  0.0550 -0.1213
 5555SOL    HW321953   4.918   5.587   1.148  0.4377  1.9633  0.4458
 5555SOL    MW421954   4.870   5.615   1.082  0.2410  0.3203  0.5080
 5556SOL     OW21955   4.520   3.582   4.354  0.0126 -0.1239  0.3332
 5556SOL    HW221956   4.444   3.618   4.400 -0.0753 -1.1360  1.0217
 5556SOL    HW321957   4.516   3.620   4.267 -2.4732 -1.7108 -0.3387
 5556SOL    MW421958   4.510   3.592   4.349 -0.3028  0.2040 -0.1317
 5557SOL     OW21959   6.239   2.212   3.278  0.8905  0.1205 -0.1632
 5557SOL    HW221960   6.293   2.227   3.355  0.9875  0.9583 -0.3848
 5557SOL    HW321961   6.270   2.129   3.242  2.0700  0.6260 -0.3304
 5557SOL    MW421962   6.250   2.203   3.283 -0.2584 -0.2592  0.3737
 5558SOL     OW21963   3.315   3.328   5.365  0.3795  0.0573 -0.0912
 5558SOL    HW221964   3.294   3.412   5.323 -0.5687  0.3018  0.8446
 5558SOL    HW321965   3.293   3.341   5.457 -0.2828 -1.3958 -0.0222
 5558SOL    MW421966   3.309   3.341   5.372 -0.1222 -0.1203 -0.1456
 5559SOL     OW21967   6.200   0.794   1.282 -0.3032  0.3381  0.0031
 5559SOL    HW221968   6.265   0.814   1.350  2.2931 -1.1519 -1.8207
 5559SOL    HW321969   6.184   0.877   1.238 -0.2222  0.8778  0.9844
 5559SOL    MW421970   6.207   0.807   1.285  0.2650 -0.1885 -0.4184
 5560SOL     OW21971   6.283   0.656   4.317 -0.1596  0.4544  0.3582
 5560SOL    HW221972   6.255   0.633   4.405 -0.1872 -0.8682  0.0252
 5560SOL    HW321973   6.288   0.573   4.270  0.5839  1.0483 -0.6840
 5560SOL    MW421974   6.280   0.642   4.322 -0.3011  0.3731 -0.0621
 5561SOL     OW21975   4.970   3.760   1.754  0.4493  0.1138 -0.7597
 5561SOL    HW221976   4.917   3.714   1.688  0.4493 -2.0105  0.6082
 5561SOL    HW321977   5.056   3.717   1.749  1.1025  1.4010 -0.8235
 5561SOL    MW421978   4.974   3.748   1.745 -0.2072  0.2265  0.1692
 5562SOL     OW21979   3.407   4.767   0.446 -0.3310  0.1242 -0.6915
 5562SOL    HW221980   3.312   4.770   0.459 -0.2721  1.5727 -0.4161
 5562SOL    HW321981   3.426   4.842   0.390  1.0127  2.0156  2.0165
 5562SOL    MW421982   3.397   4.777   0.441 -0.1029 -0.4130  0.4758
 5563SOL     OW21983   5.496   2.746   3.917 -0.8757 -0.1840 -0.1090
 5563SOL    HW221984   5.506   2.802   3.994  2.2001 -1.1543  0.3038
 5563SOL    HW321985   5.404   2.717   3.922 -0.8334 -0.1798  3.1834
 5563SOL    MW421986   5.485   2.750   3.928 -0.5668 -0.2645  0.3313
 5564SOL     OW21987   4.077   3.966   0.027 -0.5118  0.3416  0.0515
 5564SOL    HW221988   4.166   3.934   0.036 -0.5551  0.6202  2.0681
 5564SOL    HW321989   4.076   4.048   0.078 -1.2611  1.7678 -2.1117
 5564SOL    MW421990   4.088   3.973   0.035  0.4958  0.5205  0.5085
 5565SOL     OW21991   1.951   1.885   1.200 -0.3796 -0.3699  0.1618
 5565SOL    HW221992   1.952   1.807   1.255 -0.7898 -0.2824  0.2937
 5565SOL    HW321993   2.043   1.912   1.195 -0.3706 -0.1987  1.0592
 5565SOL    MW421994   1.963   1.879   1.207  0.5171  0.1099  0.1253
 5566SOL     OW21995   4.338   5.220   0.812  0.5048  0.0301 -0.4419
 5566SOL    HW221996   4.306   5.219   0.902  1.5521  0.6799 -0.0453
 5566SOL    HW321997   4.261   5.237   0.758 -0.2121 -0.8378  0.2900
 5566SOL    MW421998   4.324   5.222   0.817  0.4783 -0.9167  0.8931
 5567SOL     OW21999   5.425   0.846   3.903 -0.7824  0.6971 -0.0528
 5567SOL    HW222000   5.380   0.821   3.984  0.3698  0.3462  0.4962
 5567SOL    HW322001   5.514   0.811   3.913 -1.0063 -0.5514 -2.0615
 5567SOL    MW422002   5.431   0.838   3.915  0.1543 -0.1711  0.2188
 5568SOL     OW22003   3.696   2.019   6.408  0.3235  0.2546  0.3739
 5568SOL    HW222004   3.615   2.027   6.459 -0.2909 -0.7570 -0.3849
 5568SOL    HW322005   3.680   2.071   6.329  0.1084 -0.5031 -0.1011
 5568SOL    MW422006   3.683   2.027   6.404  0.2652 -0.2702  0.1588
 5569SOL     OW22007   5.772   3.332   2.799  0.5651  0.1678  0.3680
 5569SOL    HW222008   5.857   3.376   2.794 -0.3121  2.1464  1.6300
 5569SOL    HW322009   5.723   3.367   2.725 -0.0517  1.2229  1.2373
 5569SOL    MW422010   5.777   3.343   2.789  0.4791 -0.6075  0.3364
 5570SOL     OW22011   0.925   5.040   3.512 -0.0331  0.1766  0.1057
 5570SOL    HW222012   0.945   4.950   3.487 -2.7045 -0.2341 -0.8377
 5570SOL    HW322013   0.952   5.092   3.436 -1.1449 -0.2042 -0.5756
 5570SOL    MW422014   0.931   5.035   3.499 -0.0640 -0.1738  0.3467
 5571SOL     OW22015   0.804   2.620   3.346  0.2195 -0.2783  0.0592
 5571SOL    HW222016   0.792   2.566   3.424  0.0255  0.7032  0.7313
 5571SOL    HW322017   0.899   2.623   3.335  0.5498  2.4764  2.4383
 5571SOL    MW422018   0.815   2.613   3.355  0.2080  0.1019  0.1858
 5572SOL     OW22019   5.944   2.063   1.992 -0.3479  0.6793 -0.1132
 5572SOL    HW222020   5.867   2.048   2.048  0.3193  0.4411  0.7583
 5572SOL    HW322021   5.919   2.136   1.936 -1.5149  0.0757 -0.4130
 5572SOL    MW422022   5.930   2.071   1.992 -0.0511 -0.2801  0.2055
 5573SOL     OW22023   3.179   1.495   2.120 -0.1193  0.3077 -0.1451
 5573SOL    HW222024   3.104   1.506   2.060  0.7464  1.6417 -1.0450
 5573SOL    HW322025   3.156   1.420   2.173 -2.4140  1.0702  0.0613
 5573SOL    MW422026   3.166   1.487   2.119 -0.1060  0.0107 -0.2102
 5574SOL     OW22027   3.376   4.014   3.695  0.3305 -0.5789 -0.0016
 5574SOL    HW222028   3.304   3.963   3.660  0.3549 -1.0449  0.6138
 5574SOL    HW322029   3.379   3.992   3.788  0.4353  0.4319  0.2486
 5574SOL    MW422030   3.367   4.005   3.702 -0.4743  0.6503  0.1696
 5575SOL     OW22031   1.928   4.596   1.025 -0.3440  0.6790  0.4584
 5575SOL    HW222032   1.891   4.533   0.963  0.0646  2.5886 -1.8683
 5575SOL    HW322033   1.859   4.610   1.089 -1.1820 -0.6135 -0.1276
 5575SOL    MW422034   1.914   4.590   1.025  0.1447  0.1902  0.1454
 5576SOL     OW22035   3.184   4.307   0.892 -0.3007 -0.4812  0.1559
 5576SOL    HW222036   3.147   4.236   0.944  0.5492 -2.3454 -1.6230
 5576SOL    HW322037   3.246   4.264   0.833  0.0501  1.7139 -1.2127
 5576SOL    MW422038   3.187   4.292   0.891 -0.0407 -0.2079  0.2620
 5577SOL     OW22039   2.289   1.037   2.633  0.0322  0.5525 -0.0669
 5577SOL    HW222040   2.294   1.054   2.539  0.3189  1.1843  0.0571
 5577SOL    HW322041   2.202   1.070   2.659  0.2598  1.0901  0.0247
 5577SOL    MW422042   2.278   1.043   2.624 -0.1293  0.5317  0.2017
 5578SOL     OW22043   2.176   3.352   1.131 -0.2649  0.0558  0.1880
 5578SOL    HW222044   2.081   3.368   1.123 -0.6679 -1.9681  0.4610
 5578SOL    HW322045   2.187   3.262   1.100  1.6126  0.3030  0.0580
 5578SOL    MW422046   2.165   3.343   1.126  0.1755 -0.8773 -0.1446
 5579SOL     OW22047   2.313   2.761   4.490 -0.3040 -0.3929  0.1245
 5579SOL    HW222048   2.287   2.670   4.475 -0.0571 -0.1544 -2.2241
 5579SOL    HW322049   2.265   2.811   4.423  1.4692  0.8478 -0.3104
 5579SOL    MW422050   2.303   2.756   4.479 -0.4460 -0.2692  0.2629
 5580SOL     OW22051   2.730   2.762   4.049 -0.0865 -0.2742 -0.3228
 5580SOL    HW222052   2.778   2.845   4.043  1.1052 -0.9614 -0.6671
 5580SOL    HW322053   2.697   2.747   3.961  0.9491 -0.8594 -0.6346
 5580SOL    MW422054   2.732   2.771   4.037  0.0076  0.1122 -0.2155
 5581SOL     OW22055   4.839   3.434   1.244 -0.2435  0.0365 -0.5118
 5581SOL    HW222056   4.932   3.417   1.258 -0.3495  0.2564  0.5336
 5581SOL    HW322057   4.799   3.348   1.237  0.2280 -0.0670 -2.4480
 5581SOL    MW422058   4.846   3.420   1.245 -0.1655 -0.5676 -0.2765
 5582SOL     OW22059   1.116   5.203   1.199 -0.0800  0.1551  0.2982
 5582SOL    HW222060   1.162   5.284   1.178 -1.1449  0.5708 -0.5033
 5582SOL    HW322061   1.089   5.168   1.114 -3.2877  1.1334  0.7878
 5582SOL    MW422062   1.119   5.209   1.185 -0.0830 -0.3002 -0.3751
 5583SOL     OW22063   5.510   5.781   3.660 -0.3282  0.5906  0.2326
 5583SOL    HW222064   5.577   5.739   3.607 -1.4476 -0.9912 -0.0048
 5583SOL    HW322065   5.549   5.791   3.747  0.5814  0.7130 -0.1868
 5583SOL    MW422066   5.524   5.777   3.665  0.3177  0.6730 -0.0045
 5584SOL     OW22067   2.485   6.424   5.898 -0.0830  0.3354  0.0770
 5584SOL    HW222068   2.469   6.333   5.875  0.0670  0.3287 -0.0036
 5584SOL    HW322069   2.436   6.437   5.979  0.5336 -0.0382  0.5130
 5584SOL    MW422070   2.476   6.414   5.905  0.3760 -0.3334 -0.5344
 5585SOL     OW22071   1.371   2.130   1.427  0.2327 -0.1409 -0.0100
 5585SOL    HW222072   1.398   2.053   1.477  0.7625 -1.5888 -2.3559
 5585SOL    HW322073   1.278   2.140   1.447  0.6713  0.0918  2.1155
 5585SOL    MW422074   1.362   2.121   1.436 -0.0891  0.1989 -0.2968
 5586SOL     OW22075   4.198   3.933   2.959  0.3878  0.5833 -0.4000
 5586SOL    HW222076   4.144   3.881   3.018  1.6224 -0.2982  0.0077
 5586SOL    HW322077   4.137   3.967   2.894 -0.8071  0.5190  0.6392
 5586SOL    MW422078   4.183   3.931   2.958 -0.3461  0.7115  0.4760
 5587SOL     OW22079   4.315   4.402   4.655  1.0115  0.1757 -0.1564
 5587SOL    HW222080   4.390   4.398   4.714  1.5756  1.5879 -0.7246
 5587SOL    HW322081   4.338   4.343   4.583  0.3890 -1.4309  0.9211
 5587SOL    MW422082   4.328   4.394   4.653  0.1958 -0.3717  0.5019
 5588SOL     OW22083   2.387   0.130   3.706 -0.2465  0.0519 -0.4599
 5588SOL    HW222084   2.410   0.059   3.766  0.3391  0.7144  0.1107
 5588SOL    HW322085   2.408   0.095   3.619  0.1187 -0.4363 -0.1792
 5588SOL    MW422086   2.393   0.116   3.702 -0.1558  0.1788 -0.2269
 5589SOL     OW22087   3.011   5.747   0.125  0.2208 -0.4066 -0.6289
 5589SOL    HW222088   3.100   5.781   0.136 -0.0151 -0.1269  0.5593
 5589SOL    HW322089   2.980   5.733   0.214 -0.7737 -0.9192 -1.0450
 5589SOL    MW422090   3.019   5.750   0.138 -0.1883 -0.1417 -0.3190
 5590SOL     OW22091   2.268   2.793   5.736  0.6285  0.2172 -0.1651
 5590SOL    HW222092   2.299   2.781   5.826  1.1558 -0.2715 -0.4029
 5590SOL    HW322093   2.342   2.766   5.682  0.3697  0.6564 -0.7476
 5590SOL    MW422094   2.282   2.788   5.741 -0.9708 -0.0537  0.0107
 5591SOL     OW22095   5.047   2.862   5.662  0.1422 -0.1158 -0.0435
 5591SOL    HW222096   4.996   2.786   5.693  0.4335 -0.2622  0.0820
 5591SOL    HW322097   5.011   2.936   5.712  0.6723 -0.3670  0.7258
 5591SOL    MW422098   5.035   2.862   5.673 -0.1509  0.4763  0.2445
 5592SOL     OW22099   6.139   5.615   6.352 -0.1796 -0.0651  0.5699
 5592SOL    HW222100   6.217   5.670   6.349 -0.7899  0.8114 -0.4233
 5592SOL    HW322101   6.167   5.534   6.393  1.5879 -0.2800 -0.9206
 5592SOL    MW422102   6.153   5.612   6.357  0.2459 -0.4697 -0.8644
 5593SOL     OW22103   1.822   4.773   2.633  0.3012 -0.1809  0.1824
 5593SOL    HW222104   1.735   4.785   2.595  0.3049 -2.5593 -0.7098
 5593SOL    HW322105   1.828   4.841   2.700 -1.2866  1.5618 -1.3431
 5593SOL    MW422106   1.811   4.784   2.637 -0.0185 -0.6264  0.3223
 5594SOL     OW22107   3.105   5.915   4.756  0.1467 -0.0156 -0.0497
 5594SOL    HW222108   3.155   5.836   4.777 -0.8148 -0.1400  1.9574
 5594SOL    HW322109   3.025   5.883   4.716  0.7283  0.0903 -1.3537
 5594SOL    MW422110   3.101   5.901   4.753 -0.4222 -0.5963  0.3407
 5595SOL     OW22111   2.787   3.626   3.631 -0.0998 -0.7925  0.0497
 5595SOL    HW222112   2.771   3.721   3.631  1.1946 -0.5256 -1.6011
 5595SOL    HW322113   2.700   3.587   3.624 -0.7050  0.2228  1.3472
 5595SOL    MW422114   2.774   3.634   3.630 -0.6004  0.9415  0.3623
 5596SOL     OW22115   0.181   1.662   0.290  0.2113 -0.3651  0.1064
 5596SOL    HW222116   0.096   1.662   0.334  1.5408 -0.0840  2.9231
 5596SOL    HW322117   0.241   1.624   0.354  2.0950 -1.3264 -2.1028
 5596SOL    MW422118   0.178   1.657   0.304  0.7588 -0.9179  0.3829
 5597SOL     OW22119   3.291   3.599   6.120  0.0047  0.0583 -0.1472
 5597SOL    HW222120   3.374   3.646   6.121 -0.6130  1.1905  0.9054
 5597SOL    HW322121   3.305   3.525   6.179 -0.2714  1.3172  1.5880
 5597SOL    MW422122   3.304   3.595   6.128 -0.0334 -0.2060  0.0572
 5598SOL     OW22123   4.780   4.204   4.155  0.0596 -0.2370  0.3224
 5598SOL    HW222124   4.732   4.176   4.233  1.0815 -1.1470  0.6582
 5598SOL    HW322125   4.714   4.244   4.099 -1.0874 -1.4380  0.7673
 5598SOL    MW422126   4.765   4.205   4.158  0.1407  0.1487 -0.0959
 5599SOL     OW22127   3.843   0.638   1.282 -0.2478 -0.2653  0.1927
 5599SOL    HW222128   3.810   0.672   1.199  1.2016 -1.1229 -0.7747
 5599SOL    HW322129   3.809   0.549   1.287  0.5825 -0.6045 -0.0431
 5599SOL    MW422130   3.834   0.631   1.272 -0.0979  0.5366 -0.5095
 5600SOL     OW22131   2.660   0.021   5.076  0.0570 -0.4042  0.0983
 5600SOL    HW222132   2.667   0.030   4.981  0.2927 -0.2395  0.1320
 5600SOL    HW322133   2.631  -0.069   5.089 -0.3033 -0.3260 -0.1441
 5600SOL    MW422134   2.657   0.010   5.065  0.5504  0.5220 -0.8468
 5601SOL     OW22135   1.263   3.962   0.470 -0.4065  1.0813  0.0519
 5601SOL    HW222136   1.175   3.931   0.490  0.7446 -1.8906  0.9354
 5601SOL    HW322137   1.282   4.026   0.539 -1.6872  1.4700  0.0722
 5601SOL    MW422138   1.254   3.966   0.481  0.6137 -0.6894  0.3521
 5602SOL     OW22139   4.546   1.465   5.511  0.0529 -0.6497 -0.0117
 5602SOL    HW222140   4.492   1.470   5.590  1.9122 -1.5917  1.3973
 5602SOL    HW322141   4.618   1.408   5.535  1.0174 -0.4671 -2.2328
 5602SOL    MW422142   4.548   1.458   5.525  0.7071  0.5947  0.2393
 5603SOL     OW22143   2.888   1.217   4.650 -0.1395 -0.3567  0.1951
 5603SOL    HW222144   2.947   1.274   4.600 -1.0746 -0.3402 -0.9343
 5603SOL    HW322145   2.844   1.276   4.711 -0.9620  0.1369 -0.8364
 5603SOL    MW422146   2.890   1.233   4.651  0.1947 -0.3872  0.0047
 5604SOL     OW22147   4.532   2.388   0.576 -0.2583  0.0684 -0.7812
 5604SOL    HW222148   4.500   2.343   0.655  2.4169 -1.0120 -0.2136
 5604SOL    HW322149   4.461   2.448   0.552 -1.6175 -0.3980  1.7583
 5604SOL    MW422150   4.518   2.390   0.583 -0.3369  0.1208 -0.3970
 5605SOL     OW22151   1.905   1.503   3.162  0.3419 -0.1956 -0.7756
 5605SOL    HW222152   1.867   1.510   3.074  0.5825 -1.2354 -0.9795
 5605SOL    HW322153   1.997   1.526   3.150  0.1677  0.6531 -0.5930
 5605SOL    MW422154   1.912   1.507   3.149  0.2864  0.3306  0.0729
 5606SOL     OW22155   4.201   6.431   3.061  0.3415 -0.5952  0.0021
 5606SOL    HW222156   4.126   6.419   3.119  0.3031 -1.6918 -0.2468
 5606SOL    HW322157   4.168   6.488   2.991  0.6432  1.4827  1.4778
 5606SOL    MW422158   4.186   6.437   3.059  0.3393  0.6166  0.2708
 5607SOL     OW22159   5.259   2.941   2.859  0.0020  0.1023 -0.3319
 5607SOL    HW222160   5.299   2.914   2.942 -0.2346 -1.8807 -0.7997
 5607SOL    HW322161   5.168   2.912   2.866 -0.5501  1.7049 -0.5309
 5607SOL    MW422162   5.252   2.933   2.871  0.4515  0.2466  0.3773
 5608SOL     OW22163   2.167   5.814   1.838 -0.2042 -0.1661 -0.2414
 5608SOL    HW222164   2.104   5.863   1.785 -0.2441 -0.2480 -0.2711
 5608SOL    HW322165   2.114   5.747   1.880  0.1834 -1.6810 -2.0041
 5608SOL    MW422166   2.151   5.811   1.836 -0.5081  0.2187  0.0556
 5609SOL     OW22167   4.792   2.485   3.174  0.2535  0.1042  0.2972
 5609SOL    HW222168   4.829   2.544   3.108 -0.8702  1.6791  1.0069
 5609SOL    HW322169   4.709   2.456   3.137 -0.0795  0.4801  0.7422
 5609SOL    MW422170   4.786   2.489   3.160  0.3872  0.0866 -0.1573
 5610SOL     OW22171   0.188   3.467   3.191  0.2640 -0.5008  0.3332
 5610SOL    HW222172   0.101   3.508   3.193  0.7607  0.5498  1.1142
 5610SOL    HW322173   0.170   3.374   3.180 -0.9785 -0.3349  0.8060
 5610SOL    MW422174   0.174   3.460   3.190 -0.1951 -0.3322 -0.3264
 5611SOL     OW22175   5.060   4.380   2.943  0.3812  0.2626  0.1039
 5611SOL    HW222176   4.972   4.415   2.929  0.3879  0.1775 -0.1635
 5611SOL    HW322177   5.085   4.346   2.857  2.0047  3.2627 -0.7502
 5611SOL    MW422178   5.051   4.380   2.929  0.1018  0.5398 -0.7517
 5612SOL     OW22179   0.121   4.397   5.737 -0.8936  0.5334 -0.1372
 5612SOL    HW222180   0.204   4.435   5.707  0.1843 -1.3041  0.3231
 5612SOL    HW322181   0.085   4.464   5.796  1.5764  0.4146  1.6982
 5612SOL    MW422182   0.127   4.411   5.741 -0.7055 -0.7894  0.0226
 5613SOL     OW22183   0.789   2.469   5.543 -0.1703 -0.0230  0.1799
 5613SOL    HW222184   0.750   2.384   5.522 -0.4427 -0.1385  1.1145
 5613SOL    HW322185   0.877   2.448   5.574 -0.2524  0.0404  0.4512
 5613SOL    MW422186   0.795   2.455   5.544 -0.6760  0.0177  0.1098
 5614SOL     OW22187   2.077   6.414   5.149 -0.5809  0.4993  0.4635
 5614SOL    HW222188   2.110   6.425   5.238 -0.5496  1.4889  0.3324
 5614SOL    HW322189   2.156   6.407   5.095 -0.5310 -2.4646  0.7369
 5614SOL    MW422190   2.092   6.414   5.154  0.1480  0.1370  0.4652
 5615SOL     OW22191   5.488   4.641   4.772 -0.0260 -0.1336  0.5767
 5615SOL    HW222192   5.526   4.689   4.698 -0.4431 -0.1643  0.3425
 5615SOL    HW322193   5.415   4.592   4.734  0.5504 -1.1772  0.7556
 5615SOL    MW422194   5.483   4.641   4.757 -0.2182 -0.5324 -0.0218
 5616SOL     OW22195   5.865   1.001   5.840 -0.0585  0.2835  0.4064
 5616SOL    HW222196   5.774   0.992   5.813 -0.5170  1.3317  1.4797
 5616SOL    HW322197   5.910   0.926   5.801 -1.6466 -1.0296  1.0074
 5616SOL    MW422198   5.859   0.990   5.831  0.2101  0.3310 -0.1660
 5617SOL     OW22199   0.034   3.770   1.793 -0.3002  0.1339  0.0618
 5617SOL    HW222200   0.013   3.694   1.847 -1.0367  0.1183 -0.2327
 5617SOL    HW322201  -0.032   3.835   1.816 -0.7866  0.0358 -0.9813
 5617SOL    MW422202   0.022   3.769   1.803  0.1681  1.1721 -0.3963
 5618SOL     OW22203   2.577   6.063   4.606 -0.7077  0.0485  0.0684
 5618SOL    HW222204   2.508   6.021   4.554 -1.1188  1.6796 -0.7960
 5618SOL    HW322205   2.552   6.047   4.697 -1.3860 -0.6916 -0.2359
 5618SOL    MW422206   2.564   6.056   4.611  0.3417 -0.1956  0.0456
 5619SOL     OW22207   4.866   1.672   5.690  0.1260 -0.2429  0.1859
 5619SOL    HW222208   4.808   1.697   5.762  0.0742 -1.0871  0.4586
 5619SOL    HW322209   4.816   1.691   5.611 -0.2086 -0.2159  0.4005
 5619SOL    MW422210   4.851   1.678   5.689  0.0719  0.2846 -0.2122
 5620SOL     OW22211   1.657   1.829   2.511 -0.1867 -0.3922 -0.1159
 5620SOL    HW222212   1.650   1.888   2.586 -0.9736  1.0988 -1.3250
 5620SOL    HW322213   1.744   1.845   2.475 -0.2297 -0.3158 -0.1838
 5620SOL    MW422214   1.668   1.839   2.516 -0.1231 -0.0953 -0.4052
 5621SOL     OW22215   1.093   2.504   3.552  0.2458 -0.3148 -0.3637
 5621SOL    HW222216   1.105   2.567   3.624  1.4073 -0.0024 -0.8085
 5621SOL    HW322217   1.104   2.556   3.473 -1.7882 -0.4998 -0.8281
 5621SOL    MW422218   1.096   2.519   3.551  0.2667 -0.1867  0.1711
 5622SOL     OW22219   4.669   0.105   5.381  0.1859 -0.3978  0.0330
 5622SOL    HW222220   4.630   0.070   5.461 -0.8402 -0.3855 -0.4465
 5622SOL    HW322221   4.739   0.163   5.411 -0.4934 -0.0270  0.9359
 5622SOL    MW422222   4.673   0.108   5.395  0.1487  0.2843 -0.2649
 5623SOL     OW22223   2.496   4.747   4.680 -1.2137  0.4683  0.2442
 5623SOL    HW222224   2.464   4.660   4.657 -0.2374  0.3191 -0.6803
 5623SOL    HW322225   2.427   4.786   4.733 -2.2561 -0.3625 -0.4647
 5623SOL    MW422226   2.483   4.741   4.684  0.2518 -0.3655  0.2815
 5624SOL     OW22227   1.661   4.722   6.403  0.1956 -0.3356 -0.5706
 5624SOL    HW222228   1.565   4.719   6.411  0.1997 -0.1889 -0.4573
 5624SOL    HW322229   1.692   4.734   6.492  0.3620 -1.2486 -0.5002
 5624SOL    MW422230   1.652   4.724   6.416  0.7509  0.0105 -0.3744
 5625SOL     OW22231   2.396   5.897   2.496 -0.0273 -0.0940  0.0676
 5625SOL    HW222232   2.329   5.966   2.492  1.2930  1.1874 -1.0908
 5625SOL    HW322233   2.347   5.816   2.479 -1.4938  0.6266  0.6528
 5625SOL    MW422234   2.381   5.895   2.493 -0.2183  0.1510 -0.3732
 5626SOL     OW22235   2.141   0.747   5.406 -0.1813  0.4126  0.4490
 5626SOL    HW222236   2.154   0.808   5.333 -2.2933  0.8488  0.3830
 5626SOL    HW322237   2.143   0.661   5.364 -2.3841  0.6953 -0.3653
 5626SOL    MW422238   2.143   0.744   5.391 -0.1282  0.2632 -0.5442
 5627SOL     OW22239   1.314   4.119   5.045  0.2878 -0.5050  0.3442
 5627SOL    HW222240   1.221   4.125   5.065  0.3482  1.7950  0.2293
 5627SOL    HW322241   1.357   4.122   5.131  0.2805 -1.2771  0.3810
 5627SOL    MW422242   1.307   4.121   5.059  0.4859 -0.3060 -0.1164
 5628SOL     OW22243   3.852   2.063   1.362 -0.1855  0.1360  0.0975
 5628SOL    HW222244   3.936   2.049   1.405 -0.2991  1.8192  0.9659
 5628SOL    HW322245   3.792   2.083   1.434 -1.1135 -0.0276 -0.6031
 5628SOL    MW422246   3.855   2.063   1.377  0.5826 -0.6221  0.2372
 5629SOL     OW22247   3.876   2.458   2.199 -0.0878  0.2453 -0.1171
 5629SOL    HW222248   3.828   2.538   2.219 -1.6657 -0.3482 -1.2773
 5629SOL    HW322249   3.876   2.409   2.282 -2.0590  0.0221 -0.1845
 5629SOL    MW422250   3.870   2.462   2.213  0.3278 -0.2598 -0.2776
 5630SOL     OW22251   4.308   1.539   5.351  0.1101 -0.3635  0.2154
 5630SOL    HW222252   4.359   1.510   5.275  0.7760  2.4428 -0.5276
 5630SOL    HW322253   4.362   1.515   5.427  0.6892 -0.8968 -0.3530
 5630SOL    MW422254   4.322   1.532   5.351 -0.3812 -0.2303  0.4952
 5631SOL     OW22255   4.457   3.632   1.796  0.2374  0.3927 -0.0100
 5631SOL    HW222256   4.459   3.728   1.785  0.5038  0.2896 -0.9627
 5631SOL    HW322257   4.445   3.619   1.890 -0.9977  1.3697 -0.0068
 5631SOL    MW422258   4.456   3.643   1.807  0.6592  0.2194  0.5342
 5632SOL     OW22259   5.858   4.247   6.413 -0.0572  0.2177  0.5658
 5632SOL    HW222260   5.897   4.250   6.326 -1.2788 -0.0541 -0.0131
 5632SOL    HW322261   5.862   4.337   6.444 -1.1141  0.6509 -0.4762
 5632SOL    MW422262   5.864   4.259   6.406  0.0636  0.6595  0.2373
 5633SOL     OW22263   1.828   5.586   5.147 -0.2685 -0.2222 -0.3150
 5633SOL    HW222264   1.739   5.613   5.125  0.0764  0.3797 -1.0221
 5633SOL    HW322265   1.880   5.608   5.070  0.5100 -0.5047  0.1102
 5633SOL    MW422266   1.823   5.593   5.134 -0.2417  0.1623  0.2054
 5634SOL     OW22267   4.322   2.593   0.542  0.0783 -0.4403 -0.0135
 5634SOL    HW222268   4.264   2.574   0.468 -2.1420  1.8887  1.0029
 5634SOL    HW322269   4.355   2.681   0.525  0.9499 -0.5558  0.9463
 5634SOL    MW422270   4.319   2.602   0.530 -0.5011  0.6042  0.2278
 5635SOL     OW22271   3.204   5.367   1.130 -0.0904 -0.8159 -0.0928
 5635SOL    HW222272   3.224   5.298   1.066  1.0279  0.3723 -1.0990
 5635SOL    HW322273   3.288   5.413   1.142 -1.0455  1.0856 -0.3699
 5635SOL    MW422274   3.218   5.364   1.123  0.3043 -0.4817  0.1955
 5636SOL     OW22275   3.192   3.828   3.588 -0.6269  0.3809  0.4806
 5636SOL    HW222276   3.209   3.743   3.629 -1.0576  1.2172  2.5257
 5636SOL    HW322277   3.204   3.812   3.494  0.5781 -1.6199  0.9036
 5636SOL    MW422278   3.196   3.814   3.581  0.2683 -0.1780 -0.0294
 5637SOL     OW22279   4.687   2.767   3.612  0.6473  0.0059 -0.3338
 5637SOL    HW222280   4.749   2.698   3.637  0.8607  0.3234  0.0131
 5637SOL    HW322281   4.725   2.847   3.647  0.0540  0.2061 -0.1491
 5637SOL    MW422282   4.700   2.768   3.620 -0.1336  0.5340  0.1106
 5638SOL     OW22283   0.666   1.985   3.660 -0.3437  0.5042  0.1488
 5638SOL    HW222284   0.605   2.050   3.624 -1.4989 -0.2470  0.6572
 5638SOL    HW322285   0.699   2.025   3.740 -1.3239  0.3406  0.6492
 5638SOL    MW422286   0.662   1.999   3.665  0.2684  0.2747 -0.3649
 5639SOL     OW22287   4.450   5.176   4.570 -0.3446  0.4250  0.0598
 5639SOL    HW222288   4.513   5.242   4.601  0.5149 -0.8906  1.2572
 5639SOL    HW322289   4.465   5.101   4.628  1.1467 -2.1121 -3.2869
 5639SOL    MW422290   4.460   5.175   4.582  0.6894 -0.6070  0.2003
 5640SOL     OW22291   5.268   1.592   2.205  0.2787  0.1865  0.6647
 5640SOL    HW222292   5.327   1.633   2.268  1.4868 -0.9085  0.2800
 5640SOL    HW322293   5.324   1.538   2.151 -0.9363  0.0047 -0.4695
 5640SOL    MW422294   5.283   1.591   2.206  0.6452  0.3206 -0.1185
 5641SOL     OW22295   5.263   3.660   3.951  0.0015 -0.5563  0.4964
 5641SOL    HW222296   5.241   3.707   3.871 -0.2247 -0.4883  0.5984
 5641SOL    HW322297   5.224   3.573   3.940  0.5553 -0.7760  0.2395
 5641SOL    MW422298   5.255   3.655   3.939  0.5188 -0.1130 -0.2527
 5642SOL     OW22299   5.160   5.650   0.337  0.1196 -0.2184 -0.1213
 5642SOL    HW222300   5.078   5.676   0.378  1.3678  3.1368  0.5615
 5642SOL    HW322301   5.228   5.701   0.382  2.4585 -1.9443 -1.4376
 5642SOL    MW422302   5.158   5.660   0.348 -0.2095 -0.1898 -0.6401
 5643SOL     OW22303   2.308   1.141   5.137  0.1268  0.1095 -0.5311
 5643SOL    HW222304   2.348   1.228   5.134  1.0849 -0.3408 -2.5619
 5643SOL    HW322305   2.370   1.088   5.188 -0.5315  0.5975  0.8404
 5643SOL    MW422306   2.322   1.145   5.143  0.3599 -0.0927 -0.2163
 5644SOL     OW22307   4.311   0.598   2.092  0.5424 -0.1981  0.1909
 5644SOL    HW222308   4.267   0.678   2.064  0.0622 -0.0260  1.4105
 5644SOL    HW322309   4.243   0.531   2.086  0.8985 -0.5034 -0.6638
 5644SOL    MW422310   4.296   0.599   2.087 -0.3233 -0.8274  0.0255
 5645SOL     OW22311   1.453   6.094   5.111  0.2288  0.3764  0.2569
 5645SOL    HW222312   1.491   6.081   5.024  1.6857 -1.0572  1.0471
 5645SOL    HW322313   1.446   6.005   5.147 -1.3906  0.8551  1.1927
 5645SOL    MW422314   1.457   6.080   5.104 -0.5934  0.3294  0.0527
 5646SOL     OW22315   4.552   2.431   3.020 -0.7127 -0.4915 -0.0991
 5646SOL    HW222316   4.563   2.525   3.009 -1.7861 -0.1951  1.0456
 5646SOL    HW322317   4.561   2.395   2.932  1.3029  0.4763 -0.3432
 5646SOL    MW422318   4.554   2.439   3.007 -0.4631  0.4998  0.0901
 5647SOL     OW22319   1.106   6.186   5.828 -0.2152  0.1898  0.0513
 5647SOL    HW222320   1.057   6.151   5.753  0.6070 -1.6303  0.3086
 5647SOL    HW322321   1.050   6.169   5.903  0.0401 -0.3105  0.1350
 5647SOL    MW422322   1.092   6.179   5.828  0.2263 -0.8471  0.1566
 5648SOL     OW22323   5.099   5.817   3.154 -0.2969 -0.2949 -0.2603
 5648SOL    HW222324   5.019   5.817   3.101 -0.5426 -0.0245  0.1011
 5648SOL    HW322325   5.071   5.780   3.238 -0.1116  0.0669 -0.0360
 5648SOL    MW422326   5.084   5.812   3.158 -0.1246 -0.7746  0.0361
 5649SOL     OW22327   2.140   2.097   0.862 -0.0686  0.2573  0.3393
 5649SOL    HW222328   2.084   2.170   0.889  1.6032  0.9865  2.0000
 5649SOL    HW322329   2.178   2.126   0.779 -0.3799  0.7196  0.3524
 5649SOL    MW422330   2.137   2.110   0.854  0.3615  0.0104  0.4837
 5650SOL     OW22331   6.265   2.901   4.067 -0.0014  0.6216  0.7443
 5650SOL    HW222332   6.347   2.861   4.096  0.8474  0.9541 -1.0014
 5650SOL    HW322333   6.276   2.994   4.087  0.0427  0.6566  0.5656
 5650SOL    MW422334   6.277   2.908   4.073  0.1215 -0.1320 -0.4494
 5651SOL     OW22335   2.878   4.065   6.116 -0.7144 -0.0261 -0.2352
 5651SOL    HW222336   2.793   4.098   6.146 -0.7335  0.4907 -0.8376
 5651SOL    HW322337   2.932   4.063   6.195 -0.1581  3.1812 -0.4075
 5651SOL    MW422338   2.874   4.069   6.130 -0.0986  0.2809 -0.1195
 5652SOL     OW22339   3.594   0.630   4.774 -0.0140 -0.2350 -0.8760
 5652SOL    HW222340   3.654   0.648   4.846  0.9220 -0.1623 -1.6634
 5652SOL    HW322341   3.608   0.537   4.753 -1.2230 -0.6146 -0.1282
 5652SOL    MW422342   3.603   0.620   4.781 -0.3870 -0.1937  0.5644
 5653SOL     OW22343   5.121   2.842   2.420  0.0305  0.4655 -0.1395
 5653SOL    HW222344   5.121   2.915   2.359  0.0732  0.7928  0.2454
 5653SOL    HW322345   5.113   2.764   2.365 -0.8728  0.7985 -0.5070
 5653SOL    MW422346   5.120   2.842   2.405  0.3673 -0.3716 -0.2918
 5654SOL     OW22347   1.095   4.169   2.393 -0.9593 -0.1881  0.5571
 5654SOL    HW222348   1.091   4.198   2.485  1.8402  0.1805  0.6375
 5654SOL    HW322349   1.129   4.080   2.397 -1.1089 -0.2816 -0.1282
 5654SOL    MW422350   1.099   4.161   2.406  0.0974  0.6756 -0.2764
 5655SOL     OW22351   4.801   1.780   2.241  0.9277 -0.5408  0.1816
 5655SOL    HW222352   4.845   1.811   2.320 -0.1452 -0.9256  0.9564
 5655SOL    HW322353   4.801   1.684   2.250 -0.6649 -0.5383  0.5726
 5655SOL    MW422354   4.807   1.771   2.253  0.1107 -0.0878 -0.3080
 5656SOL     OW22355   5.448   5.232   6.211  0.1197 -0.0184 -0.3011
 5656SOL    HW222356   5.516   5.220   6.278 -0.1310  1.1150  0.1781
 5656SOL    HW322357   5.490   5.209   6.129  1.1296  0.7953 -0.0243
 5656SOL    MW422358   5.462   5.227   6.209 -0.0766  0.5151  0.4887
 5657SOL     OW22359   3.763   4.266   3.280  0.4184  0.1743  0.0817
 5657SOL    HW222360   3.684   4.212   3.284  1.0956 -0.8150  0.5506
 5657SOL    HW322361   3.742   4.342   3.334 -0.0226 -0.3474  0.6679
 5657SOL    MW422362   3.750   4.269   3.288  0.9703  0.5259  0.1857
 5658SOL     OW22363   4.369   1.760   4.959  0.1616 -0.2061 -0.6048
 5658SOL    HW222364   4.424   1.831   4.991 -0.6601 -0.1022  0.6421
 5658SOL    HW322365   4.430   1.692   4.933  0.9642  0.9781 -1.9093
 5658SOL    MW422366   4.384   1.761   4.960 -0.4308  0.6261  0.4248
 5659SOL     OW22367   0.367   0.363   3.455  0.0573 -0.5425 -0.3744
 5659SOL    HW222368   0.438   0.428   3.457 -0.9728  0.6592 -1.1214
 5659SOL    HW322369   0.302   0.398   3.516 -0.1547 -1.3185 -0.1536
 5659SOL    MW422370   0.368   0.376   3.463 -0.1231 -0.3344  0.6775
 5660SOL     OW22371   5.159   2.470   5.531 -0.4530  0.4052 -0.3012
 5660SOL    HW222372   5.188   2.379   5.529  0.9207  0.8362 -0.5083
 5660SOL    HW322373   5.063   2.464   5.531 -0.3899 -1.0431  0.2558
 5660SOL    MW422374   5.150   2.457   5.531 -0.3930  0.1918  0.6117
 5661SOL     OW22375   4.732   0.797   1.753  0.2324 -0.1214  0.0774
 5661SOL    HW222376   4.645   0.837   1.748  0.4284  0.1661 -1.2739
 5661SOL    HW322377   4.758   0.808   1.844 -1.3355 -0.6170  0.6260
 5661SOL    MW422378   4.724   0.803   1.764 -0.1463 -0.4617  0.1749
 5662SOL     OW22379   1.677   4.096   2.155  0.1122 -0.1232  0.0137
 5662SOL    HW222380   1.634   4.030   2.101 -0.1337  0.4414 -0.4869
 5662SOL    HW322381   1.626   4.175   2.142  0.7499  0.3196  0.1474
 5662SOL    MW422382   1.665   4.098   2.146  0.1732 -0.0850 -0.2919
 5663SOL     OW22383   3.143   0.858   1.907  0.2067  0.2039  0.2005
 5663SOL    HW222384   3.076   0.886   1.968  1.1746  1.9891  0.5156
 5663SOL    HW322385   3.110   0.885   1.821 -0.4754 -0.9574  0.0834
 5663SOL    MW422386   3.130   0.865   1.904 -0.5208  0.2763 -0.4109
 5664SOL     OW22387   5.444   2.206   5.780  0.3486  0.1619  0.1933
 5664SOL    HW222388   5.462   2.139   5.714 -0.6954  0.9590 -0.9520
 5664SOL    HW322389   5.368   2.253   5.746 -0.6773  0.1723  2.3080
 5664SOL    MW422390   5.436   2.203   5.767 -0.3041  0.0097 -0.1817
 5665SOL     OW22391   6.405   2.590   3.451  0.1225  0.4265  0.4305
 5665SOL    HW222392   6.337   2.539   3.407  0.9698 -0.6172  0.2662
 5665SOL    HW322393   6.389   2.576   3.544 -0.8577  1.5215  0.4329
 5665SOL    MW422394   6.394   2.581   3.457  0.1124 -0.2192  0.1698
 5666SOL     OW22395   5.921   5.403   4.524  0.4867 -0.0867  0.0520
 5666SOL    HW222396   6.000   5.453   4.503 -0.0709  0.9165  0.3103
 5666SOL    HW322397   5.928   5.325   4.469  0.0931  1.4878 -2.3932
 5666SOL    MW422398   5.932   5.399   4.514 -0.5172  0.0601  0.3438
 5667SOL     OW22399   0.395   0.107   3.606  0.2276 -0.3533  0.1439
 5667SOL    HW222400   0.388   0.183   3.547 -0.9065 -0.3618  0.2445
 5667SOL    HW322401   0.488   0.102   3.627  0.6231 -0.2243 -1.4775
 5667SOL    MW422402   0.406   0.117   3.601 -0.0169  0.9317  0.1388
 5668SOL     OW22403   4.610   1.995   2.505 -0.0415 -0.1528 -0.1224
 5668SOL    HW222404   4.599   2.089   2.520 -1.3748 -0.3781  0.5020
 5668SOL    HW322405   4.704   1.983   2.493  0.5764  0.8338  2.9152
 5668SOL    MW422406   4.621   2.006   2.505 -0.2503 -0.4023  0.9769
 5669SOL     OW22407   5.791   0.760   1.418 -0.1673 -0.0166 -0.4123
 5669SOL    HW222408   5.870   0.781   1.467 -0.5001 -0.3638  0.2892
 5669SOL    HW322409   5.814   0.680   1.369 -0.2786 -0.4653  0.2654
 5669SOL    MW422410   5.804   0.752   1.418  0.3275 -0.2457  0.4625
 5670SOL     OW22411   3.285   2.545   4.569 -0.1612 -0.2700 -0.2139
 5670SOL    HW222412   3.248   2.531   4.482  0.0872 -0.1584 -0.3372
 5670SOL    HW322413   3.379   2.526   4.559  0.0438  0.7046 -0.1987
 5670SOL    MW422414   3.293   2.540   4.556  0.3441  0.4569 -0.3154
 5671SOL     OW22415   2.933   1.706   1.111 -0.2656  0.5735  0.6101
 5671SOL    HW222416   2.881   1.672   1.038 -0.1914  0.6088  0.5403
 5671SOL    HW322417   2.882   1.684   1.189 -0.9659  1.6268  0.4708
 5671SOL    MW422418   2.919   1.699   1.112  0.1159 -0.5005 -0.1430
 5672SOL     OW22419   2.578   1.160   4.899  0.7559 -0.2240 -0.0111
 5672SOL    HW222420   2.589   1.171   4.993 -0.6508  0.7066  0.0614
 5672SOL    HW322421   2.648   1.099   4.874  1.0235 -0.6406  1.6525
 5672SOL    MW422422   2.589   1.153   4.908  0.7049  0.7619  0.3045
 5673SOL     OW22423   1.222   4.346   0.873  0.5649  0.0441 -0.7187
 5673SOL    HW222424   1.260   4.366   0.959 -0.9620 -0.4688  0.1103
 5673SOL    HW322425   1.218   4.430   0.829  1.3470  0.3218 -0.2921
 5673SOL    MW422426   1.227   4.360   0.879  0.1471  0.0526 -0.4244
 5674SOL     OW22427   2.416   0.291   2.097 -0.3914  0.1059  0.2533
 5674SOL    HW222428   2.425   0.365   2.037 -2.2225 -0.0159 -0.2470
 5674SOL    HW322429   2.440   0.215   2.046  1.5498  0.3092  0.7847
 5674SOL    MW422430   2.420   0.291   2.083 -0.1924  0.0839 -0.5849
 5675SOL     OW22431   1.954   5.629   2.749 -0.2447  0.4879 -0.4431
 5675SOL    HW222432   2.047   5.653   2.758 -0.3690  0.4516  1.2113
 5675SOL    HW322433   1.909   5.713   2.738 -0.3247  0.8283  2.0164
 5675SOL    MW422434   1.961   5.643   2.749 -0.8434  0.0375 -0.0096
 5676SOL     OW22435   1.586   4.375   0.844  0.7662 -0.6250 -0.3663
 5676SOL    HW222436   1.534   4.343   0.918 -1.9579  1.1194 -1.3823
 5676SOL    HW322437   1.575   4.307   0.777 -1.1258  0.1402 -0.9025
 5676SOL    MW422438   1.578   4.362   0.845  0.4813 -0.3681  0.0805
 5677SOL     OW22439   5.047   5.897   4.425  0.1586  0.8015 -0.5373
 5677SOL    HW222440   5.042   5.870   4.333 -1.7804  0.1793 -0.2905
 5677SOL    HW322441   5.108   5.834   4.465  0.6185  0.7611 -1.2827
 5677SOL    MW422442   5.055   5.885   4.418 -0.4009 -0.6496 -0.1429
 5678SOL     OW22443   5.761   1.368   1.132 -0.2184  0.0143 -0.4211
 5678SOL    HW222444   5.807   1.391   1.212 -1.0029  0.8693 -0.2015
 5678SOL    HW322445   5.670   1.355   1.159 -0.4192 -0.0958 -1.1085
 5678SOL    MW422446   5.755   1.369   1.146 -0.0904 -0.2945 -0.4186
 5679SOL     OW22447   5.159   4.234   6.311 -0.0529 -0.4015  0.1760
 5679SOL    HW222448   5.153   4.316   6.263  0.4485  0.4095  1.4411
 5679SOL    HW322449   5.248   4.234   6.348 -0.6272 -0.6368  1.6476
 5679SOL    MW422450   5.170   4.245   6.310  0.1538 -0.0451 -0.2951
 5680SOL     OW22451   5.503   3.870   1.709 -0.2100 -1.1067  0.6413
 5680SOL    HW222452   5.583   3.842   1.753  0.0010 -1.1560  0.2327
 5680SOL    HW322453   5.507   3.828   1.623  0.3698  0.5546 -0.1993
 5680SOL    MW422454   5.514   3.861   1.703  0.3727  0.4169 -0.1974
 5681SOL     OW22455   0.504   6.314   6.253  0.0854  0.0431 -0.2327
 5681SOL    HW222456   0.571   6.249   6.231 -0.2193 -0.2676 -0.2540
 5681SOL    HW322457   0.547   6.372   6.316 -0.1541 -1.1939  1.1328
 5681SOL    MW422458   0.519   6.313   6.259  0.6505 -0.5798 -0.5809
 5682SOL     OW22459   3.341   2.832   0.126  0.5488 -0.0864 -0.0097
 5682SOL    HW222460   3.357   2.764   0.061  1.0180  0.3212 -0.3303
 5682SOL    HW322461   3.380   2.911   0.088  0.0704  0.3469  0.3854
 5682SOL    MW422462   3.348   2.833   0.113  0.5161 -0.2517 -0.5342
 5683SOL     OW22463   1.036   6.322   4.543  0.2573  0.0903  0.0523
 5683SOL    HW222464   1.058   6.283   4.628 -0.4468  2.0582  1.1973
 5683SOL    HW322465   1.048   6.250   4.481  0.3728 -1.5472  1.8445
 5683SOL    MW422466   1.041   6.307   4.546 -0.1206 -0.2026  0.0238
 5684SOL     OW22467   6.010   1.169   4.712  0.4997 -0.0591  0.4571
 5684SOL    HW222468   5.951   1.206   4.777  1.2620  0.7850  0.6787
 5684SOL    HW322469   6.048   1.245   4.667  0.0905 -0.6131 -0.8935
 5684SOL    MW422470   6.007   1.184   4.714  0.6800  0.2646  0.3561
 5685SOL     OW22471   4.743   3.487   1.786  0.0534  0.2330 -0.1794
 5685SOL    HW222472   4.803   3.518   1.718  0.7693  1.7373  1.0840
 5685SOL    HW322473   4.665   3.542   1.776 -0.0372  0.1201 -0.0850
 5685SOL    MW422474   4.741   3.498   1.775  0.0024  0.3039  0.5183
 5686SOL     OW22475   4.715   4.635   4.552  0.3881  0.2922 -0.1612
 5686SOL    HW222476   4.727   4.626   4.457 -0.8582  1.3522 -0.4464
 5686SOL    HW322477   4.620   4.637   4.564  0.5041  2.7514  0.8289
 5686SOL    MW422478   4.704   4.634   4.541 -0.0292 -0.3392  0.5315
 5687SOL     OW22479   5.053   4.462   0.679 -0.5028  0.1944  0.4138
 5687SOL    HW222480   4.959   4.475   0.665 -0.7167 -1.5924 -0.0103
 5687SOL    HW322481   5.089   4.450   0.591 -0.0576 -0.2434  0.6529
 5687SOL    MW422482   5.046   4.462   0.665  0.5130 -0.0577 -0.4764
 5688SOL     OW22483   2.556   4.575   1.536  0.0682 -0.1913 -0.2591
 5688SOL    HW222484   2.500   4.652   1.525  1.2837  1.8752  4.9904
 5688SOL    HW322485   2.502   4.514   1.585  1.1650  0.3015  1.6310
 5688SOL    MW422486   2.541   4.577   1.541 -0.2688 -0.1712  0.3403
 5689SOL     OW22487   2.049   1.153   2.681  0.0449  0.0710 -0.2446
 5689SOL    HW222488   1.981   1.200   2.632  0.7356 -1.1708 -2.5392
 5689SOL    HW322489   2.013   1.065   2.692 -0.3248  0.4632  2.0662
 5689SOL    MW422490   2.035   1.148   2.676  0.1675 -0.2329  0.0512
 5690SOL     OW22491   5.735   4.432   1.936  0.0165  0.2412  0.0804
 5690SOL    HW222492   5.738   4.373   2.011 -0.7709  1.2376  0.9437
 5690SOL    HW322493   5.705   4.516   1.973  2.7636  1.7128 -0.7621
 5690SOL    MW422494   5.731   4.435   1.951  0.2273 -0.7079  0.7314
 5691SOL     OW22495   3.709   2.631   1.398 -0.0463 -0.7518 -0.3683
 5691SOL    HW222496   3.622   2.593   1.410  0.2264 -1.3600 -0.2792
 5691SOL    HW322497   3.692   2.716   1.357 -0.7082 -0.6496  0.0950
 5691SOL    MW422498   3.695   2.637   1.394 -0.2679  0.2570  0.1759
 5692SOL     OW22499   5.905   4.684   0.874 -0.2109  0.6632 -0.2981
 5692SOL    HW222500   5.978   4.732   0.913 -0.5730  1.0836 -0.1337
 5692SOL    HW322501   5.922   4.593   0.897 -0.3910  0.8935  0.8105
 5692SOL    MW422502   5.917   4.678   0.882 -0.7646  0.4141  0.5362
 5693SOL     OW22503   1.101   3.693   5.564 -0.3303 -0.5854 -0.0384
 5693SOL    HW222504   1.067   3.703   5.475  0.2135 -0.5868 -0.2535
 5693SOL    HW322505   1.136   3.604   5.567 -2.4112 -1.4251  0.9166
 5693SOL    MW422506   1.101   3.683   5.552  0.0575  0.8019  0.7295
 5694SOL     OW22507   3.380   1.597   1.940 -0.3594 -0.1098 -0.5672
 5694SOL    HW222508   3.321   1.573   2.011  1.0688  2.5270  1.7020
 5694SOL    HW322509   3.458   1.544   1.955  0.9827  2.2590  1.6284
 5694SOL    MW422510   3.382   1.586   1.951 -0.5850 -0.5136  0.5099
 5695SOL     OW22511   5.494   0.156   0.204 -0.3617 -0.1000 -0.1597
 5695SOL    HW222512   5.584   0.184   0.220 -1.0089  2.4288 -0.4737
 5695SOL    HW322513   5.497   0.061   0.210  1.6569  0.0012  3.3165
 5695SOL    MW422514   5.507   0.148   0.207  0.0303  0.2115  0.3159
 5696SOL     OW22515   2.501   0.659   1.220  0.0590 -0.0952  0.1295
 5696SOL    HW222516   2.581   0.668   1.272  1.0319 -3.1586 -0.6406
 5696SOL    HW322517   2.431   0.647   1.285  0.4005  1.2313  0.7734
 5696SOL    MW422518   2.502   0.658   1.236  0.4195  0.2516 -0.9119
 5697SOL     OW22519   3.356   2.762   5.737  0.4491 -0.2381  0.8957
 5697SOL    HW222520   3.451   2.769   5.748  0.4113  0.3073  0.8674
 5697SOL    HW322521   3.339   2.668   5.744  1.4105 -0.8042 -2.7447
 5697SOL    MW422522   3.366   2.750   5.740 -0.0137  0.0219  0.2184
 5698SOL     OW22523   5.084   4.922   1.858 -0.0795  0.3606 -0.3270
 5698SOL    HW222524   5.088   4.873   1.940  0.1033 -0.4472 -0.8105
 5698SOL    HW322525   5.044   5.006   1.882  0.4960  0.3569  0.6854
 5698SOL    MW422526   5.079   4.926   1.872 -0.7162  0.7163 -0.4197
 5699SOL     OW22527   4.800   0.248   3.955 -0.0564  0.1916  0.1716
 5699SOL    HW222528   4.896   0.247   3.964 -0.0436 -0.4182 -0.0144
 5699SOL    HW322529   4.769   0.281   4.040  0.3169  0.4023  0.2302
 5699SOL    MW422530   4.809   0.252   3.968 -0.0496 -0.5089 -0.2380
 5700SOL     OW22531   5.864   6.201   1.339  0.3512 -0.2101  0.8150
 5700SOL    HW222532   5.846   6.255   1.261 -3.9168 -1.6676  0.5317
 5700SOL    HW322533   5.870   6.264   1.411  0.2644  0.9136 -0.1265
 5700SOL    MW422534   5.862   6.217   1.338  0.4379  0.1978 -0.0968
 5701SOL     OW22535   1.346   3.466   5.761  0.0831  0.5756  0.2214
 5701SOL    HW222536   1.353   3.508   5.847  2.3315 -1.9640  1.4255
 5701SOL    HW322537   1.343   3.373   5.780 -1.0702 -0.0014 -2.4427
 5701SOL    MW422538   1.347   3.459   5.775 -0.1099  0.1241 -0.0545
 5702SOL     OW22539   2.447   2.960   1.770 -0.3490 -0.6531 -0.0373
 5702SOL    HW222540   2.492   2.905   1.834  0.5334  0.0180 -0.0738
 5702SOL    HW322541   2.503   3.036   1.759 -0.3828 -0.8325 -1.7569
 5702SOL    MW422542   2.460   2.962   1.777 -0.0829 -0.4727  0.0799
 5703SOL     OW22543   5.307   1.902   1.420  0.3194  0.0918 -0.0095
 5703SOL    HW222544   5.257   1.984   1.414 -1.4086 -0.9169 -0.0586
 5703SOL    HW322545   5.378   1.913   1.358 -0.8802  0.9080 -1.3017
 5703SOL    MW422546   5.310   1.915   1.411  0.3762  0.3337 -0.0438
 5704SOL     OW22547   1.883   4.133   3.669  0.0513 -0.0367  0.8114
 5704SOL    HW222548   1.964   4.133   3.720  0.0467  0.0743  0.8184
 5704SOL    HW322549   1.903   4.185   3.591 -0.5706  1.5889  1.7005
 5704SOL    MW422550   1.896   4.140   3.665  0.0419 -0.0618 -0.0247
 5705SOL     OW22551   3.812   4.151   4.993 -0.1287 -0.3628 -0.5129
 5705SOL    HW222552   3.783   4.063   4.972 -1.0989  0.0326 -0.8950
 5705SOL    HW322553   3.792   4.202   4.914 -1.6763  0.6592  0.5042
 5705SOL    MW422554   3.806   4.146   4.980 -0.1826 -0.0208 -0.3127
 5706SOL     OW22555   0.376   3.760   6.354 -0.1760 -0.0903 -0.1805
 5706SOL    HW222556   0.460   3.741   6.313 -0.7312  0.4665 -1.6446
 5706SOL    HW322557   0.340   3.674   6.376  0.3069 -0.3825 -0.5093
 5706SOL    MW422558   0.382   3.746   6.351  0.6618  0.0482 -0.3704
 5707SOL     OW22559   6.225   1.433   5.088 -0.5356  0.1947 -0.0052
 5707SOL    HW222560   6.239   1.428   4.994  2.1586  1.9465  0.1949
 5707SOL    HW322561   6.181   1.517   5.102  0.1326  0.4859  0.3754
 5707SOL    MW422562   6.221   1.444   5.078 -0.6214 -0.4436 -0.5851
 5708SOL     OW22563   1.870   0.356   2.773 -0.1354 -0.0751  0.0811
 5708SOL    HW222564   1.916   0.406   2.706 -0.2810 -0.7149 -0.5113
 5708SOL    HW322565   1.869   0.413   2.850  0.9519  0.2627 -0.1403
 5708SOL    MW422566   1.876   0.370   2.774  0.6669 -0.2293  0.0880
 5709SOL     OW22567   0.745   0.664   5.946 -0.0622  0.4628  0.0649
 5709SOL    HW222568   0.690   0.624   5.879  0.3337  0.3023 -0.1677
 5709SOL    HW322569   0.779   0.590   5.997  0.2851  0.5284 -0.0651
 5709SOL    MW422570   0.743   0.649   5.944 -0.5636 -0.1188  0.1261
 5710SOL     OW22571   3.725   4.947   4.773 -0.0160 -0.0974  0.5097
 5710SOL    HW222572   3.794   4.936   4.708  0.1230  0.4946  0.5573
 5710SOL    HW322573   3.756   5.017   4.830 -0.6927  0.2288  0.4858
 5710SOL    MW422574   3.738   4.954   4.772 -1.3403  0.1272 -0.5011
 5711SOL     OW22575   2.666   5.293   4.398 -0.9824 -0.2557 -0.2110
 5711SOL    HW222576   2.643   5.386   4.410 -2.7411 -0.7716  0.9223
 5711SOL    HW322577   2.650   5.276   4.305  2.8568  1.3670 -1.3539
 5711SOL    MW422578   2.661   5.303   4.388  0.0199  0.3081 -0.1972
 5712SOL     OW22579   2.800   4.395   0.706 -0.7746 -0.2021 -0.5191
 5712SOL    HW222580   2.737   4.436   0.765 -2.0957 -0.6094 -1.5803
 5712SOL    HW322581   2.771   4.423   0.619  0.4997 -0.4459 -1.0315
 5712SOL    MW422582   2.788   4.404   0.702  0.0715  0.8815 -0.3055
 5713SOL     OW22583   4.213   4.447   5.953 -0.0083  0.5935  0.4939
 5713SOL    HW222584   4.181   4.510   5.888 -0.3796  0.2595  0.3442
 5713SOL    HW322585   4.294   4.485   5.987  0.3079  0.6662 -0.3265
 5713SOL    MW422586   4.219   4.460   5.949 -0.1636 -0.0269  0.0477
 5714SOL     OW22587   1.044   1.900   0.699 -0.3511 -0.2334 -0.4642
 5714SOL    HW222588   0.962   1.924   0.742  0.2395  0.8854  0.0815
 5714SOL    HW322589   1.081   1.831   0.754  0.0885  0.7446  0.5054
 5714SOL    MW422590   1.038   1.894   0.712 -0.2709  0.5091 -0.1159
 5715SOL     OW22591   0.099   2.615   0.787 -0.1258  0.0275 -0.0423
 5715SOL    HW222592   0.046   2.659   0.720 -1.3349 -0.8333  0.3211
 5715SOL    HW322593   0.153   2.554   0.737 -1.2440 -0.8318 -0.2332
 5715SOL    MW422594   0.099   2.613   0.771 -0.6848 -0.0480 -0.1576
 5716SOL     OW22595   1.047   3.039   6.304  0.1341  0.1649 -0.1683
 5716SOL    HW222596   1.112   3.109   6.310 -0.8123  1.1206 -0.6911
 5716SOL    HW322597   0.969   3.075   6.347 -0.9967  0.2279 -2.1321
 5716SOL    MW422598   1.045   3.053   6.311 -0.4232  0.0406 -0.2223
 5717SOL     OW22599   5.039   0.847   3.771 -0.2070 -0.3010 -0.1277
 5717SOL    HW222600   5.033   0.753   3.755  0.0437 -0.3423  0.0034
 5717SOL    HW322601   5.120   0.873   3.725  0.9291 -0.5509  1.6292
 5717SOL    MW422602   5.049   0.838   3.763 -0.4208  0.2324 -0.6588
 5718SOL     OW22603   5.795   5.785   1.146 -0.2923 -0.5498 -0.2599
 5718SOL    HW222604   5.833   5.697   1.147  0.5386 -0.1987  1.1475
 5718SOL    HW322605   5.784   5.808   1.238 -2.1142  0.1651 -0.6099
 5718SOL    MW422606   5.799   5.776   1.158  0.6238 -0.4106  0.1999
 5719SOL     OW22607   1.959   5.337   1.703 -0.6205  0.2774 -0.3080
 5719SOL    HW222608   1.919   5.255   1.676 -0.4800 -0.1485  0.7069
 5719SOL    HW322609   1.932   5.347   1.795 -0.5971  1.3406 -0.4045
 5719SOL    MW422610   1.950   5.328   1.712 -0.5353 -0.3532 -0.1145
 5720SOL     OW22611   2.631   3.981   1.185 -0.1518  0.3515 -0.0730
 5720SOL    HW222612   2.667   4.043   1.123 -1.3284 -0.4824 -1.6606
 5720SOL    HW322613   2.690   3.905   1.181  0.7874  0.9644  1.2188
 5720SOL    MW422614   2.643   3.979   1.176 -0.3503 -0.2143  0.2863
 5721SOL     OW22615   0.318   2.108   4.177 -0.1595 -1.3187 -0.3564
 5721SOL    HW222616   0.337   2.086   4.268 -0.7071  0.3894  0.2120
 5721SOL    HW322617   0.378   2.053   4.125  1.0376 -1.3974  1.0585
 5721SOL    MW422618   0.328   2.098   4.182  0.4838 -0.3770 -0.3158
 5722SOL     OW22619   5.122   0.415   1.294  0.1736  0.0047 -0.0882
 5722SOL    HW222620   5.072   0.486   1.335  0.8776  0.0318  0.7473
 5722SOL    HW322621   5.074   0.336   1.319  1.0351 -0.0532  1.5188
 5722SOL    MW422622   5.109   0.414   1.303 -0.4792 -0.5007 -0.4933
 5723SOL     OW22623   2.170   4.197   1.414 -0.4072 -0.2051 -0.4214
 5723SOL    HW222624   2.083   4.194   1.454  0.1454 -0.3427  0.8082
 5723SOL    HW322625   2.218   4.126   1.457  1.8333  2.8666  2.5981
 5723SOL    MW422626   2.165   4.187   1.425  0.1800 -0.5444  0.4269
 5724SOL     OW22627   4.588   3.514   2.607 -0.3428 -0.2719 -0.2906
 5724SOL    HW222628   4.515   3.451   2.615 -0.1547 -0.6461 -1.3837
 5724SOL    HW322629   4.548   3.592   2.568 -0.2960 -0.2173 -0.2295
 5724SOL    MW422630   4.573   3.516   2.603 -0.3527 -0.6074 -0.2445
 5725SOL     OW22631   6.197   0.047   6.228 -0.1893  0.0056  0.1371
 5725SOL    HW222632   6.122   0.063   6.285 -0.6271  0.8780 -0.6473
 5725SOL    HW322633   6.160   0.048   6.140  0.5606 -0.7746 -0.2032
 5725SOL    MW422634   6.182   0.049   6.224 -0.6781 -0.4598  0.2599
 5726SOL     OW22635   5.305   2.265   3.669  0.4640  0.4974  0.4451
 5726SOL    HW222636   5.225   2.217   3.690 -0.3025  1.0783 -1.0232
 5726SOL    HW322637   5.349   2.276   3.754 -0.9327  0.0646  1.2580
 5726SOL    MW422638   5.300   2.260   3.683 -0.6985 -0.1794 -0.2951
 5727SOL     OW22639   5.689   5.634   3.500  0.1788 -0.6765 -0.4515
 5727SOL    HW222640   5.737   5.574   3.556 -1.5205 -1.3604  0.3536
 5727SOL    HW322641   5.630   5.578   3.450 -1.6813  0.2806  0.5409
 5727SOL    MW422642   5.687   5.619   3.501  0.2323  0.0135  0.2281
 5728SOL     OW22643   0.782   0.863   3.954  0.4407  0.6964 -0.7262
 5728SOL    HW222644   0.793   0.897   4.043  0.0653  0.4197 -0.5685
 5728SOL    HW322645   0.830   0.924   3.898 -0.3293  1.5424 -0.4677
 5728SOL    MW422646   0.790   0.875   3.959 -0.0533 -0.3058 -0.1098
 5729SOL     OW22647   1.428   0.088   5.873  0.2445 -0.0062  0.1523
 5729SOL    HW222648   1.478   0.163   5.840 -0.0550 -0.0959 -0.5195
 5729SOL    HW322649   1.341   0.124   5.893  0.2448 -0.0792  0.2891
 5729SOL    MW422650   1.423   0.103   5.872  0.3466  0.1972 -0.1005
 5730SOL     OW22651   5.486   1.274   1.246  0.1532 -0.3608 -0.1500
 5730SOL    HW222652   5.466   1.365   1.224 -0.8203 -0.1119  1.5697
 5730SOL    HW322653   5.466   1.225   1.166 -1.6264  0.6570 -0.3913
 5730SOL    MW422654   5.481   1.279   1.233  0.2774  0.8430 -0.3642
 5731SOL     OW22655   2.186   2.511   4.448  0.2246 -0.2314  0.2532
 5731SOL    HW222656   2.254   2.474   4.505  0.0432 -0.0266  0.6124
 5731SOL    HW322657   2.108   2.459   4.467  0.8090 -2.0466 -1.8907
 5731SOL    MW422658   2.185   2.500   4.458  0.0851 -0.9531  0.1581
 5732SOL     OW22659   2.804   0.191   0.922  0.0507  0.2879  0.6291
 5732SOL    HW222660   2.814   0.103   0.957  0.1991  0.4280  0.9415
 5732SOL    HW322661   2.831   0.184   0.830 -1.1788 -0.2682  0.2950
 5732SOL    MW422662   2.809   0.179   0.914  0.3065  0.0268 -0.1255
 5733SOL     OW22663   0.814   2.667   0.520 -0.2677 -0.1012 -0.3941
 5733SOL    HW222664   0.905   2.679   0.494 -0.0065  0.0289  0.5261
 5733SOL    HW322665   0.818   2.606   0.594 -0.9203 -0.0624 -0.3178
 5733SOL    MW422666   0.826   2.660   0.526  0.1816 -0.8690  0.4756
 5734SOL     OW22667   5.846   0.325   2.878  0.6708  0.0261  0.2018
 5734SOL    HW222668   5.829   0.309   2.971  1.3576 -0.5952  0.2302
 5734SOL    HW322669   5.759   0.332   2.838  0.3524  1.6147  1.0875
 5734SOL    MW422670   5.832   0.324   2.885  0.4513 -0.5957 -0.3064
 5735SOL     OW22671   0.088   1.307   2.922  0.0078  0.0988 -0.2020
 5735SOL    HW222672   0.173   1.348   2.937  1.1436 -2.0480 -0.4415
 5735SOL    HW322673   0.080   1.302   2.827 -0.3446  0.1641 -0.1806
 5735SOL    MW422674   0.098   1.312   2.911 -0.2890 -0.0091  0.0257
 5736SOL     OW22675   5.129   4.628   5.344  0.4215  0.0709 -0.4062
 5736SOL    HW222676   5.052   4.594   5.390  0.1579  0.4795 -0.5336
 5736SOL    HW322677   5.155   4.704   5.396  0.2496  0.4104 -0.8035
 5736SOL    MW422678   5.122   4.634   5.357  0.0369  0.2259 -0.4271
 5737SOL     OW22679   5.136   1.643   1.132 -0.2668  0.0471 -0.0352
 5737SOL    HW222680   5.111   1.711   1.070 -1.9009 -0.1138  0.3982
 5737SOL    HW322681   5.106   1.676   1.217  0.0728 -0.6602  0.3677
 5737SOL    MW422682   5.129   1.656   1.135  0.0965  0.2438  0.0730
 5738SOL     OW22683   4.771   0.741   3.079  0.1227 -0.1235  0.2325
 5738SOL    HW222684   4.702   0.736   3.145 -0.7207  0.6531 -0.5569
 5738SOL    HW322685   4.751   0.670   3.019  0.0014  0.1007  0.0050
 5738SOL    MW422686   4.759   0.731   3.080  0.1156  0.4176 -0.6497
 5739SOL     OW22687   0.289   4.017   4.034 -0.4592  0.3497 -0.3810
 5739SOL    HW222688   0.325   3.933   4.064 -0.5210  0.6706  0.6519
 5739SOL    HW322689   0.228   3.994   3.964  0.6401 -0.3305 -1.1478
 5739SOL    MW422690   0.286   4.003   4.029  0.0434 -0.2598 -0.4398
 5740SOL     OW22691   5.367   5.400   5.189 -0.2750 -0.3558 -0.2107
 5740SOL    HW222692   5.463   5.399   5.193 -0.1106  1.0306 -2.3857
 5740SOL    HW322693   5.343   5.308   5.180  0.9454 -0.6341 -0.8647
 5740SOL    MW422694   5.376   5.388   5.188  0.2318 -0.4073  0.6766
 5741SOL     OW22695   0.997   0.785   3.361 -0.4697  0.5852  0.2986
 5741SOL    HW222696   0.961   0.709   3.317  0.8324  0.4035 -0.4874
 5741SOL    HW322697   1.047   0.749   3.435 -1.3051  0.7988  0.9901
 5741SOL    MW422698   0.999   0.770   3.365  0.3344 -0.3504  0.3519
 5742SOL     OW22699   1.815   5.961   0.581  0.0353 -0.1317 -0.4699
 5742SOL    HW222700   1.817   5.938   0.674  0.0706  0.4272 -0.3321
 5742SOL    HW322701   1.837   6.054   0.578 -2.3039  0.4603 -0.8357
 5742SOL    MW422702   1.818   5.970   0.593  0.1307 -0.2240 -0.0924
 5743SOL     OW22703   2.856   2.427   4.763 -0.1505  0.0399  0.2478
 5743SOL    HW222704   2.868   2.520   4.781  3.0894  0.0653 -1.3307
 5743SOL    HW322705   2.822   2.423   4.674 -0.1711 -0.3217  0.2666
 5743SOL    MW422706   2.853   2.438   4.754 -0.0651 -0.1152  0.1095
 5744SOL     OW22707   6.085   3.192   4.638  0.6662 -0.1240 -0.1022
 5744SOL    HW222708   6.059   3.282   4.618  1.7362  0.6662  1.7742
 5744SOL    HW322709   6.168   3.180   4.593  0.4151 -0.2688 -0.5353
 5744SOL    MW422710   6.093   3.203   4.630 -0.1265  0.4663 -0.2010
 5745SOL     OW22711   4.607   3.401   0.840  0.3850 -0.0615 -0.1495
 5745SOL    HW222712   4.588   3.397   0.933 -1.6366  0.4804 -0.5032
 5745SOL    HW322713   4.536   3.353   0.798  2.2667 -2.0254 -1.3506
 5745SOL    MW422714   4.595   3.394   0.847  0.3602  0.2410 -0.4656
 5746SOL     OW22715   4.231   3.112   5.688 -0.2272 -0.3516  0.2673
 5746SOL    HW222716   4.192   3.124   5.775  1.5577 -0.5457  1.1449
 5746SOL    HW322717   4.224   3.018   5.671 -2.1822 -0.0923 -0.6451
 5746SOL    MW422718   4.225   3.101   5.697 -0.5063 -0.1362 -0.2971
 5747SOL     OW22719   4.916   5.259   0.875  0.3845  0.0015 -0.1826
 5747SOL    HW222720   4.943   5.183   0.823  0.0703  0.1832 -0.6144
 5747SOL    HW322721   4.964   5.333   0.838  0.1325  0.1364 -0.2436
 5747SOL    MW422722   4.926   5.258   0.863  1.0565 -0.6840 -0.6526
 5748SOL     OW22723   6.202   1.374   5.991 -0.4451 -0.2038 -0.0687
 5748SOL    HW222724   6.234   1.385   5.902 -3.5116 -1.0619 -1.4033
 5748SOL    HW322725   6.148   1.451   6.008  1.4842  0.8344  1.8093
 5748SOL    MW422726   6.199   1.385   5.982  0.4798 -0.2866 -0.1334
 5749SOL     OW22727   4.702   5.410   0.968 -0.0955 -0.4552 -0.6485
 5749SOL    HW222728   4.763   5.339   0.948  0.0567 -0.1395 -1.3165
 5749SOL    HW322729   4.756   5.480   1.003 -0.2859 -0.7691  0.3351
 5749SOL    MW422730   4.717   5.410   0.970  0.3195 -0.2349  0.3023
 5750SOL     OW22731   2.317   3.655   0.537  0.6941  0.2267 -0.6469
 5750SOL    HW222732   2.392   3.706   0.506  0.5867  0.1651 -1.0211
 5750SOL    HW322733   2.299   3.594   0.465  0.6267 -0.1265 -0.3319
 5750SOL    MW422734   2.324   3.654   0.523 -0.6630 -0.1429  0.4322
 5751SOL     OW22735   1.735   4.973   4.291  0.1388 -0.1470 -0.6433
 5751SOL    HW222736   1.771   5.011   4.371  1.0897 -2.3120  0.0481
 5751SOL    HW322737   1.812   4.944   4.242 -0.5101 -0.9960 -1.1941
 5751SOL    MW422738   1.750   4.974   4.295 -1.0082 -0.3683 -0.8398
 5752SOL     OW22739   3.166   3.495   1.232  0.6004 -0.1258  0.2640
 5752SOL    HW222740   3.132   3.538   1.154 -0.5974  1.1591  1.4339
 5752SOL    HW322741   3.147   3.556   1.304 -0.1199 -2.0821  1.8443
 5752SOL    MW422742   3.159   3.509   1.231 -0.2839  0.1038 -0.3977
 5753SOL     OW22743   0.328   4.456   1.427  0.3668  0.3075  0.3356
 5753SOL    HW222744   0.263   4.471   1.358  1.1803  0.7252 -0.3680
 5753SOL    HW322745   0.334   4.539   1.473 -1.0313 -0.3025  1.7082
 5753SOL    MW422746   0.321   4.469   1.424  0.1183  0.3250 -0.3124
 5754SOL     OW22747   4.273   2.009   0.347  0.0401  0.1916  0.2668
 5754SOL    HW222748   4.237   1.923   0.325  1.2192 -0.0037 -1.0067
 5754SOL    HW322749   4.203   2.053   0.395 -0.3290 -1.7559  1.6219
 5754SOL    MW422750   4.259   2.003   0.351 -0.3285  0.5339 -0.3979
 5755SOL     OW22751   6.286   1.699   5.823  0.4271  0.1138  0.4494
 5755SOL    HW222752   6.223   1.647   5.873  0.0016  0.8450  0.6891
 5755SOL    HW322753   6.367   1.694   5.875  0.8741 -1.6200 -0.3439
 5755SOL    MW422754   6.289   1.691   5.837 -0.2644  0.3088  0.1808
 5756SOL     OW22755   6.120   3.907   0.698  0.0668 -0.3910  0.1859
 5756SOL    HW222756   6.114   3.998   0.725  0.2397 -0.3199 -0.0212
 5756SOL    HW322757   6.029   3.882   0.678  0.1274  0.0009 -0.6324
 5756SOL    MW422758   6.107   3.915   0.699  0.3322  0.2230  0.4289
 5757SOL     OW22759   3.131   3.714   4.438 -0.4979 -0.1508 -0.5064
 5757SOL    HW222760   3.042   3.680   4.431  0.1072 -1.8086 -0.7237
 5757SOL    HW322761   3.186   3.641   4.411  0.9761  0.5017  0.6025
 5757SOL    MW422762   3.127   3.700   4.433  0.1292  0.3014 -0.1176
 5758SOL     OW22763   1.501   1.584   3.633  0.6690  0.7918 -0.3143
 5758SOL    HW222764   1.447   1.559   3.709  0.7470  2.2602  0.2505
 5758SOL    HW322765   1.524   1.501   3.592  0.4055 -0.0261  1.1251
 5758SOL    MW422766   1.497   1.570   3.638 -0.5625  0.3971  0.1780
 5759SOL     OW22767   0.184   1.255   4.412 -0.0088 -0.1099  0.0268
 5759SOL    HW222768   0.116   1.304   4.367 -0.0219 -0.2833 -0.1472
 5759SOL    HW322769   0.163   1.163   4.393  1.1370 -0.1261 -1.3171
 5759SOL    MW422770   0.172   1.249   4.404 -0.0378 -0.5613  0.1924
 5760SOL     OW22771   6.334   4.073   6.383 -0.7451 -0.0629 -0.1035
 5760SOL    HW222772   6.303   3.995   6.429 -0.3303 -0.9633 -1.3044
 5760SOL    HW322773   6.426   4.056   6.365 -0.4359  1.0692  0.3296
 5760SOL    MW422774   6.342   4.061   6.387 -0.5881  0.4199  0.6043
 5761SOL     OW22775   4.583   4.033   3.467  0.5015 -0.0965 -0.4975
 5761SOL    HW222776   4.672   4.004   3.446 -0.5274 -2.8772 -1.3620
 5761SOL    HW322777   4.570   4.008   3.559  0.4707  0.0016 -0.4742
 5761SOL    MW422778   4.593   4.026   3.477  0.2529  0.1147  0.4270
 5762SOL     OW22779   1.376   3.338   1.242 -0.1374 -0.4556 -0.2170
 5762SOL    HW222780   1.447   3.386   1.199  0.7515 -1.5870 -0.0660
 5762SOL    HW322781   1.323   3.306   1.170 -0.2498  0.0212 -0.3511
 5762SOL    MW422782   1.379   3.340   1.227 -0.1363 -0.0818 -0.2990
 5763SOL     OW22783   2.745   4.877   4.927  0.1634  0.5169  0.1295
 5763SOL    HW222784   2.746   4.793   4.972  1.3085  0.4765  0.0760
 5763SOL    HW322785   2.740   4.855   4.834 -0.9283  0.5638  0.1630
 5763SOL    MW422786   2.745   4.863   4.920  0.5918  0.2451  0.2669
 5764SOL     OW22787   3.360   4.534   3.560  0.3009 -0.2935  0.8874
 5764SOL    HW222788   3.307   4.526   3.480 -0.8044 -1.5907  1.6846
 5764SOL    HW322789   3.404   4.618   3.552  1.5795 -1.1003 -1.8744
 5764SOL    MW422790   3.359   4.544   3.548  0.0529 -0.4449 -0.5572
 5765SOL     OW22791   0.651   5.545   2.411  0.4272  0.6704  0.3169
 5765SOL    HW222792   0.689   5.633   2.407 -0.8283  1.2952  1.4801
 5765SOL    HW322793   0.665   5.517   2.501  0.4739 -0.1915  0.0547
 5765SOL    MW422794   0.658   5.553   2.422  0.1083 -0.2452 -0.0733
 5766SOL     OW22795   4.835   5.885   3.884 -0.2504 -0.2047 -0.1685
 5766SOL    HW222796   4.900   5.841   3.830  0.1498 -0.3104  0.3937
 5766SOL    HW322797   4.848   5.978   3.867 -1.2724 -0.2718 -1.5629
 5766SOL    MW422798   4.845   5.892   3.875  0.0438 -0.5057  0.0228
 5767SOL     OW22799   2.594   2.491   0.488  0.0542  0.6154  0.3174
 5767SOL    HW222800   2.608   2.495   0.394 -1.8122  1.8107  0.0347
 5767SOL    HW322801   2.681   2.499   0.526  0.7111  1.5375 -1.2959
 5767SOL    MW422802   2.607   2.493   0.481  0.2515  0.4941  0.3022
 5768SOL     OW22803   2.500   3.408   2.805  0.3481 -0.1245  0.3280
 5768SOL    HW222804   2.434   3.419   2.873 -0.6436  2.7989 -0.9635
 5768SOL    HW322805   2.463   3.341   2.747 -1.8419  1.7736 -0.6317
 5768SOL    MW422806   2.486   3.400   2.806 -0.6323 -0.2714 -1.0318
 5769SOL     OW22807   2.185   0.521   0.027 -0.3513  0.0012 -0.5970
 5769SOL    HW222808   2.202   0.541  -0.066  0.2306 -0.0918 -0.5130
 5769SOL    HW322809   2.258   0.561   0.074 -2.3742  3.1212  0.1981
 5769SOL    MW422810   2.197   0.529   0.021 -0.1538  0.3242 -0.2419
 5770SOL     OW22811   4.840   1.527   0.269  0.5218 -0.0246  0.2557
 5770SOL    HW222812   4.829   1.534   0.364  0.5578  0.5044  0.2231
 5770SOL    HW322813   4.812   1.438   0.248 -1.6532  0.5613  0.4710
 5770SOL    MW422814   4.835   1.516   0.279 -0.1459  0.8880  0.4300
 5771SOL     OW22815   0.029   1.351   0.869 -0.3123  0.6123  0.4651
 5771SOL    HW222816   0.108   1.333   0.920 -0.1890  1.0132  0.4173
 5771SOL    HW322817   0.043   1.307   0.786 -0.2877  0.3927  0.5855
 5771SOL    MW422818   0.041   1.343   0.865  0.3305 -0.3648  0.2948
 5772SOL     OW22819   3.978   5.287   2.592  0.5105 -0.7032  0.5067
 5772SOL    HW222820   4.014   5.368   2.554  1.3377 -1.3870 -0.2163
 5772SOL    HW322821   3.969   5.228   2.518 -1.9692 -0.6571  0.6926
 5772SOL    MW422822   3.981   5.290   2.577 -0.5136  0.2984  0.1374
 5773SOL     OW22823   0.252   3.654   2.994 -0.7370 -0.0676 -0.1514
 5773SOL    HW222824   0.330   3.630   2.943 -0.4156  1.6683 -0.5326
 5773SOL    HW322825   0.242   3.582   3.056  0.9214 -0.5444 -0.3647
 5773SOL    MW422826   0.261   3.641   2.995 -1.0606  0.1045 -0.3514
 5774SOL     OW22827   4.582   1.714   2.593 -0.4749 -0.2739 -0.7289
 5774SOL    HW222828   4.600   1.714   2.687  0.9542 -0.5479 -0.9748
 5774SOL    HW322829   4.596   1.805   2.566  3.3069 -0.8964 -1.3457
 5774SOL    MW422830   4.586   1.726   2.602 -0.3207 -0.0097  0.0026
 5775SOL     OW22831   2.762   0.283   3.435 -0.4222  0.7070 -0.3767
 5775SOL    HW222832   2.686   0.277   3.377 -1.7283  1.9967  1.1121
 5775SOL    HW322833   2.832   0.239   3.387 -1.8894  0.1689 -2.1439
 5775SOL    MW422834   2.761   0.276   3.421 -0.3628 -0.7851 -0.2033
 5776SOL     OW22835   1.656   1.296   3.320 -0.0434 -0.1945  0.2764
 5776SOL    HW222836   1.588   1.280   3.385 -1.0139 -1.7944 -1.0376
 5776SOL    HW322837   1.616   1.359   3.259  0.7703  1.1113  1.0431
 5776SOL    MW422838   1.642   1.302   3.320  0.2771 -0.1256 -0.0534
 5777SOL     OW22839   3.018   5.059   4.722  0.8852  0.0177 -0.2482
 5777SOL    HW222840   3.042   4.983   4.777  0.0140 -0.9771 -1.1961
 5777SOL    HW322841   2.930   5.082   4.751  0.1153 -0.9874 -1.6910
 5777SOL    MW422842   3.010   5.052   4.733  0.6250 -0.1055 -0.3649
 5778SOL     OW22843   2.306   3.138   4.096  0.2931 -0.6448 -0.3771
 5778SOL    HW222844   2.245   3.190   4.149  0.0700 -2.2520  0.9977
 5778SOL    HW322845   2.306   3.182   4.011 -1.0706  0.6901  0.2638
 5778SOL    MW422846   2.298   3.151   4.092 -0.2233 -0.5220 -0.3915
 5779SOL     OW22847   4.387   2.002   1.274  0.0741  0.2948  0.3152
 5779SOL    HW222848   4.379   2.094   1.298  1.2524  0.5295 -0.0757
 5779SOL    HW322849   4.385   1.955   1.357  0.0535  0.7353  0.5704
 5779SOL    MW422850   4.386   2.008   1.288 -0.5743 -0.1169  0.0120
 5780SOL     OW22851   3.110   3.098   0.274 -0.2333 -0.3180  0.1971
 5780SOL    HW222852   3.062   3.141   0.203 -0.2090 -0.0760  0.3292
 5780SOL    HW322853   3.193   3.144   0.279  0.2546 -1.0987 -0.4109
 5780SOL    MW422854   3.115   3.110   0.265  0.4326 -0.3797 -0.5965
 5781SOL     OW22855   5.899   0.397   3.679 -0.0122  0.1022 -0.1006
 5781SOL    HW222856   5.962   0.445   3.625 -0.8882 -0.1446 -1.3741
 5781SOL    HW322857   5.928   0.414   3.769  2.1897 -0.4444 -0.6374
 5781SOL    MW422858   5.911   0.406   3.684  0.8376  0.4433 -0.2695
 5782SOL     OW22859   4.190   3.968   5.116 -0.1396  0.4912  0.3906
 5782SOL    HW222860   4.154   4.054   5.097 -0.8784 -0.2241 -1.7476
 5782SOL    HW322861   4.114   3.912   5.129  0.3368  0.2800  2.6996
 5782SOL    MW422862   4.175   3.972   5.115 -0.3908 -0.0101 -0.6948
 5783SOL     OW22863   2.771   2.055   3.835  0.6056 -0.0320  0.3553
 5783SOL    HW222864   2.751   1.998   3.761  0.4207  0.0635  0.3314
 5783SOL    HW322865   2.866   2.065   3.833  0.9531 -2.3788  1.8636
 5783SOL    MW422866   2.781   2.049   3.825  0.2520  0.3485  0.0998
 5784SOL     OW22867   1.407   0.921   4.523 -0.2936  0.2439  0.6715
 5784SOL    HW222868   1.486   0.867   4.518 -0.2087 -0.0499  3.5201
 5784SOL    HW322869   1.438   1.011   4.525 -0.2232  0.2640 -0.7950
 5784SOL    MW422870   1.421   0.926   4.523  0.2301  0.1853 -0.4460
 5785SOL     OW22871   0.914   5.452   6.072  0.2995 -0.3713 -0.3494
 5785SOL    HW222872   0.928   5.420   5.983 -1.3276 -0.9907 -0.4038
 5785SOL    HW322873   0.900   5.546   6.062 -0.2657 -0.5005 -0.7882
 5785SOL    MW422874   0.914   5.460   6.059 -0.2518  0.0747  0.3900
 5786SOL     OW22875   2.444   2.485   4.591  0.5954  0.2424  0.7547
 5786SOL    HW222876   2.460   2.391   4.581 -3.0620 -0.7197  2.2683
 5786SOL    HW322877   2.466   2.503   4.682  1.5150  0.9569  0.4053
 5786SOL    MW422878   2.449   2.475   4.602 -0.4463 -0.5251 -0.2158
 5787SOL     OW22879   3.925   0.105   0.760 -0.6571  0.5577 -0.0244
 5787SOL    HW222880   3.925   0.019   0.720 -2.3789  0.4819  0.0556
 5787SOL    HW322881   3.868   0.158   0.705 -1.2236  1.0780  1.0144
 5787SOL    MW422882   3.918   0.101   0.748 -0.1028 -0.6401  0.4228
 5788SOL     OW22883   2.265   3.948   4.587  0.6480 -0.0508 -0.1765
 5788SOL    HW222884   2.284   3.866   4.542  1.1259 -0.6933  1.1521
 5788SOL    HW322885   2.342   4.003   4.569  0.2302  0.2202 -1.2491
 5788SOL    MW422886   2.278   3.945   4.578 -0.7764 -0.7126  0.3095
 5789SOL     OW22887   3.582   5.309   6.422 -0.8748 -0.2023 -0.1411
 5789SOL    HW222888   3.539   5.259   6.492 -1.0580  0.1426 -0.0041
 5789SOL    HW322889   3.643   5.367   6.468  0.1858 -1.1063 -0.3727
 5789SOL    MW422890   3.584   5.310   6.437  0.4757  0.3012 -0.2918
 5790SOL     OW22891   0.179   1.279   1.874 -0.3317 -0.0679 -0.7700
 5790SOL    HW222892   0.176   1.296   1.968 -1.0758  1.6448 -1.0779
 5790SOL    HW322893   0.258   1.226   1.861  0.5727  0.8846  0.6356
 5790SOL    MW422894   0.189   1.274   1.884  0.7993 -0.4600 -0.5722
 5791SOL     OW22895   5.806   0.264   4.122  1.0166 -0.1211  0.0219
 5791SOL    HW222896   5.724   0.214   4.115  0.6567  0.4670 -0.0904
 5791SOL    HW322897   5.780   0.345   4.167  1.8889 -0.6944  1.6254
 5791SOL    MW422898   5.792   0.268   4.127 -0.7264 -0.4834 -0.5007
 5792SOL     OW22899   5.982   0.027   3.427  0.5044  0.0419  1.0605
 5792SOL    HW222900   5.925   0.103   3.437 -0.0196 -0.1167 -0.4439
 5792SOL    HW322901   5.978   0.007   3.333  0.5059 -1.9355  1.4566
 5792SOL    MW422902   5.974   0.035   3.416 -0.3345  0.5466 -0.2743
 5793SOL     OW22903   5.339   1.282   3.024  0.7110 -0.3396  0.0434
 5793SOL    HW222904   5.317   1.320   3.109  1.2437 -2.6308  1.2897
 5793SOL    HW322905   5.387   1.352   2.978  0.9420  0.7548  1.8610
 5793SOL    MW422906   5.342   1.296   3.029  0.0623 -0.0313 -0.4688
 5794SOL     OW22907   4.995   2.950   5.001  0.8655  0.4397 -0.3631
 5794SOL    HW222908   4.925   2.964   4.937  0.6314 -1.1292 -0.4832
 5794SOL    HW322909   4.967   3.000   5.078 -0.6190 -0.4700 -0.2631
 5794SOL    MW422910   4.982   2.959   5.003 -0.0275 -0.3254 -0.0291
 5795SOL     OW22911   2.654   1.978   2.717 -0.4329  0.1587 -0.1348
 5795SOL    HW222912   2.732   1.924   2.704 -2.0162 -1.8083 -2.2969
 5795SOL    HW322913   2.621   1.951   2.803 -0.1584 -0.9605 -0.3619
 5795SOL    MW422914   2.660   1.967   2.727  0.4753 -0.3490  0.1627
 5796SOL     OW22915   3.813   4.083   1.432  0.3734 -0.0809  0.1770
 5796SOL    HW222916   3.867   4.022   1.483 -0.4736 -0.0173  1.1869
 5796SOL    HW322917   3.857   4.090   1.348  0.1807 -2.5469 -0.1864
 5796SOL    MW422918   3.826   4.076   1.428  0.3737  0.7039 -0.6139
 5797SOL     OW22919   1.098   0.166   1.601 -0.7086 -0.0089  0.1728
 5797SOL    HW222920   1.090   0.074   1.628 -1.7655 -0.1833 -0.6695
 5797SOL    HW322921   1.183   0.194   1.635 -0.6910 -1.0876  1.0625
 5797SOL    MW422922   1.108   0.158   1.609  0.0913 -0.3294 -0.4245
 5798SOL     OW22923   2.605   5.357   6.203 -0.1282 -0.8304 -0.1867
 5798SOL    HW222924   2.564   5.443   6.197  0.3986 -0.5656 -0.0904
 5798SOL    HW322925   2.691   5.369   6.163  0.0653 -1.2370  0.0994
 5798SOL    MW422926   2.611   5.370   6.197  0.4013 -0.4319 -0.2753
 5799SOL     OW22927   3.325   1.092   2.279  0.0476  0.0717 -0.2164
 5799SOL    HW222928   3.332   0.997   2.282 -1.0940 -0.0436 -0.7279
 5799SOL    HW322929   3.329   1.114   2.186  1.3474  0.6242 -0.0461
 5799SOL    MW422930   3.326   1.083   2.267 -0.7746  0.2681  0.3160
 5800SOL     OW22931   4.725   5.831   0.537 -0.2196  0.0887  0.4649
 5800SOL    HW222932   4.669   5.827   0.460  0.3392  0.3800  0.0416
 5800SOL    HW322933   4.791   5.764   0.523  1.2674  1.6919 -0.4180
 5800SOL    MW422934   4.726   5.822   0.525 -0.0682  0.2550 -0.1619
 5801SOL     OW22935   1.911   4.156   6.039 -0.5182  0.0918 -0.1560
 5801SOL    HW222936   1.921   4.164   5.945 -1.0135 -0.3306 -0.2560
 5801SOL    HW322937   1.933   4.242   6.074  1.5598 -0.2542 -0.4727
 5801SOL    MW422938   1.915   4.168   6.031  0.1378  0.1882 -0.6355
 5802SOL     OW22939   1.785   1.374   0.481  0.4944 -0.4540  0.4196
 5802SOL    HW222940   1.746   1.355   0.567 -0.0193  1.4112  0.6299
 5802SOL    HW322941   1.836   1.454   0.495  1.5634 -0.9088 -0.7039
 5802SOL    MW422942   1.787   1.382   0.494  0.3373  0.4833 -0.0333
 5803SOL     OW22943   5.613   4.889   5.905  0.1380  0.4294 -0.3730
 5803SOL    HW222944   5.627   4.833   5.981  0.2418  0.7240 -0.1743
 5803SOL    HW322945   5.697   4.887   5.859  0.3514  0.9594 -0.0067
 5803SOL    MW422946   5.626   4.881   5.909 -0.2260 -0.4460  0.1234
 5804SOL     OW22947   1.775   1.402   5.231 -0.0415  0.2715 -0.6759
 5804SOL    HW222948   1.693   1.386   5.277  0.5042 -0.3806  0.1053
 5804SOL    HW322949   1.784   1.328   5.171  0.9736 -0.8166  0.7389
 5804SOL    MW422950   1.765   1.390   5.229  0.4124 -0.4637 -0.0121
 5805SOL     OW22951   4.732   0.081   4.329  0.2686 -0.3833  0.4064
 5805SOL    HW222952   4.639   0.096   4.344  0.6298  1.3423  1.1515
 5805SOL    HW322953   4.735   0.002   4.274 -1.4984 -2.1386  2.6259
 5805SOL    MW422954   4.720   0.072   4.324 -0.3774  0.4563  0.6538
 5806SOL     OW22955   0.615   0.521   4.976 -0.2262 -0.3810 -0.6149
 5806SOL    HW222956   0.701   0.488   4.948  1.8693  3.5588  0.3823
 5806SOL    HW322957   0.617   0.515   5.072 -0.7340  0.4119 -0.5462
 5806SOL    MW422958   0.627   0.516   4.985  0.1696  0.3164  0.6676
 5807SOL     OW22959   0.520   2.625   2.310 -0.1802  0.0485 -0.2872
 5807SOL    HW222960   0.426   2.645   2.306  0.0174  1.0955 -0.1061
 5807SOL    HW322961   0.561   2.699   2.266  0.7010  0.8400  1.7801
 5807SOL    MW422962   0.513   2.637   2.304  0.1235 -0.3911 -0.2979
 5808SOL     OW22963   3.866   0.990   0.671  0.4062 -0.8256  0.2577
 5808SOL    HW222964   3.842   1.042   0.595 -1.1147 -3.9647 -1.6031
 5808SOL    HW322965   3.961   0.978   0.663  0.7969  1.4963  0.7519
 5808SOL    MW422966   3.876   0.995   0.660 -0.4735 -0.0799 -0.2698
 5809SOL     OW22967   4.861   3.780   4.203  0.2442  0.0745 -0.2822
 5809SOL    HW222968   4.932   3.717   4.194  0.6704  0.6582 -1.1263
 5809SOL    HW322969   4.893   3.859   4.160 -0.4222  0.7607  0.4481
 5809SOL    MW422970   4.874   3.782   4.196  0.1775  0.4076 -0.0244
 5810SOL     OW22971   0.423   3.039   3.829  0.1210 -0.6588 -0.4791
 5810SOL    HW222972   0.336   3.025   3.868  0.0582 -0.5033 -0.5642
 5810SOL    HW322973   0.455   2.950   3.810  0.6151 -0.8131  0.9362
 5810SOL    MW422974   0.416   3.025   3.832  0.1505  0.1179 -0.1032
 5811SOL     OW22975   4.415   0.066   4.729 -0.2432 -0.5966 -0.6270
 5811SOL    HW222976   4.345   0.007   4.756  0.1030 -1.6088 -1.8721
 5811SOL    HW322977   4.374   0.123   4.664 -0.4851  0.3421  0.3162
 5811SOL    MW422978   4.400   0.066   4.724 -0.1957  0.0533 -0.4726
 5812SOL     OW22979   4.550   5.202   6.416 -0.1699 -0.0247 -0.9915
 5812SOL    HW222980   4.575   5.287   6.451 -2.2079  0.3451 -0.3263
 5812SOL    HW322981   4.530   5.219   6.324  1.3523 -0.2166 -1.3853
 5812SOL    MW422982   4.551   5.215   6.409 -0.6913  0.1212  0.1586
 5813SOL     OW22983   3.253   5.287   5.923 -0.1399  0.6577  0.2312
 5813SOL    HW222984   3.169   5.259   5.960  0.3742 -1.8561 -0.3212
 5813SOL    HW322985   3.239   5.286   5.828 -0.2235  2.9765  0.1485
 5813SOL    MW422986   3.240   5.284   5.916 -0.1322  0.4172  0.3559
 5814SOL     OW22987   3.831   2.779   4.098 -0.2048 -0.2246 -0.3022
 5814SOL    HW222988   3.766   2.777   4.169  0.5407  0.6744  0.4398
 5814SOL    HW322989   3.823   2.868   4.062  1.2610  0.2438  0.4474
 5814SOL    MW422990   3.821   2.791   4.103  0.1177  0.3814 -0.2227
 5815SOL     OW22991   5.878   5.062   2.739 -0.4406  0.0220 -0.4730
 5815SOL    HW222992   5.972   5.074   2.730 -0.1658 -1.0371  0.6380
 5815SOL    HW322993   5.854   5.005   2.666 -0.1492 -0.0113 -0.5441
 5815SOL    MW422994   5.887   5.056   2.728  0.4299  0.1473  0.6704
 5816SOL     OW22995   5.533   6.099   5.154 -0.5591  0.5669  0.5229
 5816SOL    HW222996   5.508   6.007   5.148  0.3144  0.3531 -0.0701
 5816SOL    HW322997   5.490   6.130   5.233 -3.5657  0.5412 -0.9762
 5816SOL    MW422998   5.524   6.091   5.163  0.3581  0.5842  0.1645
 5817SOL     OW22999   3.654   2.892   1.303 -0.4269 -0.3492 -0.1893
 5817SOL    HW223000   3.572   2.925   1.341  0.0382  0.0246  0.5016
 5817SOL    HW323001   3.717   2.962   1.316  0.0663 -0.7220 -0.5277
 5817SOL    MW423002   3.651   2.906   1.310 -0.5574 -0.3020  0.3322
 5818SOL     OW23003   4.637   2.860   5.031 -0.5280 -0.2254 -0.1264
 5818SOL    HW223004   4.697   2.840   5.103  0.0465 -0.7667 -0.7397
 5818SOL    HW323005   4.689   2.914   4.971 -0.9365  0.0476 -0.2395
 5818SOL    MW423006   4.652   2.864   5.033  0.0121 -0.0512  0.0876
 5819SOL     OW23007   2.442   5.719   4.038 -0.4063  0.1263 -0.2698
 5819SOL    HW223008   2.381   5.770   4.091 -1.5035  0.6630 -1.9721
 5819SOL    HW323009   2.501   5.785   4.000 -1.2497  0.0672 -1.7371
 5819SOL    MW423010   2.442   5.735   4.040  0.0079 -0.2457 -0.3516
 5820SOL     OW23011   6.049   3.671   2.296 -0.4960  0.4473 -0.0079
 5820SOL    HW223012   6.094   3.588   2.311 -2.0546 -0.6531 -1.0482
 5820SOL    HW323013   5.978   3.672   2.360 -1.1342  0.4530 -0.6987
 5820SOL    MW423014   6.046   3.660   2.306 -0.2658 -0.6854 -0.6182
 5821SOL     OW23015   2.237   6.305   4.436  0.0781 -0.0475 -0.2727
 5821SOL    HW223016   2.165   6.366   4.454 -0.6821 -0.6614 -1.1141
 5821SOL    HW323017   2.244   6.252   4.515  0.4515  0.8280  0.2947
 5821SOL    MW423018   2.228   6.306   4.448 -0.4627  0.1792 -0.2512
 5822SOL     OW23019   1.469   4.388   5.039  0.2666  0.0358 -0.4787
 5822SOL    HW223020   1.438   4.309   4.994  0.5582 -0.0037 -0.6104
 5822SOL    HW323021   1.393   4.419   5.087 -0.2085  0.4209 -1.4657
 5822SOL    MW423022   1.455   4.381   5.040 -0.7507  0.2081  0.4317
 5823SOL     OW23023   6.020   0.245   3.166  0.1185 -0.2443  0.2944
 5823SOL    HW223024   6.050   0.181   3.102 -2.0273 -0.2458 -0.8406
 5823SOL    HW323025   6.089   0.311   3.169  1.3222 -1.4516 -0.2437
 5823SOL    MW423026   6.033   0.246   3.158  0.7151 -0.4892 -0.0196
 5824SOL     OW23027   6.160   0.206   3.994  0.2959  0.6914 -0.6720
 5824SOL    HW223028   6.175   0.137   4.059  0.2467  1.6085  0.3383
 5824SOL    HW323029   6.096   0.168   3.934 -1.9952  0.8414  1.5110
 5824SOL    MW423030   6.153   0.192   3.995  0.3042 -0.2460  0.4157
 5825SOL     OW23031   1.155   5.836   1.134  0.2172  0.2624 -0.9580
 5825SOL    HW223032   1.124   5.898   1.200 -0.5524  0.1927 -1.2438
 5825SOL    HW323033   1.082   5.776   1.121  0.8523 -0.5496 -0.8883
 5825SOL    MW423034   1.142   5.836   1.141 -0.0092  0.2485 -0.0466
 5826SOL     OW23035   0.068   6.169   3.235 -0.1954 -0.4356  0.1795
 5826SOL    HW223036  -0.026   6.160   3.217 -0.4642  1.9002  0.1533
 5826SOL    HW323037   0.093   6.084   3.272 -1.9629 -1.6389 -1.2002
 5826SOL    MW423038   0.059   6.157   3.237  0.2443 -0.2741 -0.4955
 5827SOL     OW23039   2.460   4.702   3.503 -0.5272  0.0103  0.0381
 5827SOL    HW223040   2.379   4.752   3.496 -0.6618 -0.3401 -1.0217
 5827SOL    HW323041   2.441   4.632   3.566 -0.7681  0.4454  0.4535
 5827SOL    MW423042   2.447   4.699   3.510 -0.1336 -0.0120  0.1859
 5828SOL     OW23043   6.260   1.187   2.028  0.1622 -0.6822 -0.6715
 5828SOL    HW223044   6.224   1.141   1.952 -1.1473  1.2844 -1.3180
 5828SOL    HW323045   6.293   1.270   1.993  2.2884 -0.9574  0.4802
 5828SOL    MW423046   6.260   1.192   2.013 -0.6510  0.5679  0.4111
 5829SOL     OW23047   2.675   2.574   1.323 -0.1967  0.2061 -0.2793
 5829SOL    HW223048   2.587   2.611   1.320 -0.4149 -0.3138 -0.2582
 5829SOL    HW323049   2.664   2.489   1.364  0.2216 -0.1253 -0.8431
 5829SOL    MW423050   2.662   2.568   1.328 -0.0952 -0.3916 -0.3113
 5830SOL     OW23051   4.668   2.181   5.160  0.0318  0.4249  0.3106
 5830SOL    HW223052   4.679   2.203   5.252 -0.2203  1.5277  0.0919
 5830SOL    HW323053   4.756   2.164   5.128  0.1186  0.0422  0.7475
 5830SOL    MW423054   4.681   2.182   5.168 -0.2091 -0.0336 -0.1940
 5831SOL     OW23055   5.207   3.558   1.766  0.0489 -0.0609 -0.4191
 5831SOL    HW223056   5.254   3.576   1.685  2.7124 -0.8607  0.8582
 5831SOL    HW323057   5.232   3.629   1.825 -1.3940  0.1817 -0.0463
 5831SOL    MW423058   5.216   3.570   1.763  0.4724  0.4416  0.2586
 5832SOL     OW23059   6.177   3.175   2.700 -0.4600  0.3971 -0.2432
 5832SOL    HW223060   6.199   3.180   2.793  0.6571 -2.0804 -0.2867
 5832SOL    HW323061   6.104   3.112   2.696  0.3257 -0.5029 -1.1022
 5832SOL    MW423062   6.170   3.167   2.712  0.1447 -0.5430  0.0518
 5833SOL     OW23063   2.488   6.036   1.075  0.1456  0.1959  0.1783
 5833SOL    HW223064   2.429   6.038   0.999  1.3487 -1.1064 -0.8300
 5833SOL    HW323065   2.533   5.953   1.068 -0.6363 -0.5873  3.0827
 5833SOL    MW423066   2.486   6.026   1.064  0.2407 -0.2517 -0.7345
 5834SOL     OW23067   1.101   5.937   5.341 -0.2829 -0.1839  0.2143
 5834SOL    HW223068   1.084   6.018   5.293 -0.4811 -0.0103  0.5677
 5834SOL    HW323069   1.154   5.885   5.282 -0.7244 -0.0756 -0.2903
 5834SOL    MW423070   1.106   5.941   5.327  0.7660 -0.2753  1.0255
 5835SOL     OW23071   1.189   4.737   4.956 -0.0309  0.6901  0.2983
 5835SOL    HW223072   1.190   4.687   4.874  0.7079  0.8219  0.2215
 5835SOL    HW323073   1.219   4.824   4.932 -2.0517  1.4476  0.2907
 5835SOL    MW423074   1.193   4.742   4.942  0.1270  0.0287 -0.3605
 5836SOL     OW23075   4.277   5.246   2.974  0.0485 -0.4619  0.4454
 5836SOL    HW223076   4.231   5.200   2.904  0.7879  0.5723 -0.7647
 5836SOL    HW323077   4.329   5.178   3.017 -0.3227 -1.0860 -0.0771
 5836SOL    MW423078   4.278   5.231   2.970 -0.0223 -0.2382  0.0438
 5837SOL     OW23079   3.267   4.181   2.091 -0.3849  0.2645 -0.4158
 5837SOL    HW223080   3.302   4.178   2.179 -0.0364 -2.7970 -0.5707
 5837SOL    HW323081   3.222   4.266   2.086 -0.0558  0.7010  2.5199
 5837SOL    MW423082   3.265   4.192   2.102 -0.2533  0.3357 -0.0038
 5838SOL     OW23083   1.988   4.293   5.783 -0.3659 -0.2087  0.6558
 5838SOL    HW223084   1.963   4.377   5.820  1.1805 -0.6344  2.8322
 5838SOL    HW323085   2.078   4.306   5.754 -0.4717 -0.8346  0.0233
 5838SOL    MW423086   1.997   4.306   5.784 -0.1398  0.0185  0.0691
 5839SOL     OW23087   6.359   0.918   4.296  0.3048 -0.4920  0.7010
 5839SOL    HW223088   6.349   0.948   4.206 -1.4167  0.3877  1.1309
 5839SOL    HW323089   6.322   0.829   4.295 -0.2157 -0.2799  0.6349
 5839SOL    MW423090   6.352   0.910   4.284 -0.4068 -0.3467  0.5133
 5840SOL     OW23091   2.030   0.163   0.268  0.0806  0.1136  0.0687
 5840SOL    HW223092   2.105   0.187   0.322 -0.1397 -0.8741  0.8375
 5840SOL    HW323093   1.961   0.140   0.331 -0.4450 -0.2592 -0.6246
 5840SOL    MW423094   2.031   0.163   0.284  0.8845  0.3980 -0.2816
 5841SOL     OW23095   0.181   6.200   4.110 -0.1895 -0.2377 -0.2987
 5841SOL    HW223096   0.180   6.161   4.197 -0.8466  2.3798  0.9567
 5841SOL    HW323097   0.103   6.165   4.066 -1.3751  0.4564  1.1775
 5841SOL    MW423098   0.171   6.190   4.116 -0.1279  0.1413 -0.6735
 5842SOL     OW23099   1.113   2.152   0.260 -0.0256  0.8823  0.1765
 5842SOL    HW223100   1.101   2.140   0.355 -0.8309  0.7237  0.0654
 5842SOL    HW323101   1.171   2.228   0.252 -0.2766  1.1458  0.7925
 5842SOL    MW423102   1.119   2.160   0.272 -0.1511  0.0311 -0.0318
 5843SOL     OW23103   0.411   2.014   4.444 -0.8846  0.0984 -0.5947
 5843SOL    HW223104   0.467   1.949   4.402 -1.7702  0.2406 -2.0774
 5843SOL    HW323105   0.471   2.073   4.489 -0.0184 -1.2552  0.0791
 5843SOL    MW423106   0.426   2.013   4.444  0.0926  0.4087 -0.2670
 5844SOL     OW23107   1.827   5.293   3.091 -0.4014  0.2008 -0.3768
 5844SOL    HW223108   1.799   5.270   3.003 -0.1249 -0.5352 -0.2768
 5844SOL    HW323109   1.748   5.327   3.133 -0.3858  1.1761 -1.1042
 5844SOL    MW423110   1.813   5.295   3.085  0.2248  0.3860 -0.1443
 5845SOL     OW23111   5.991   4.786   4.819 -0.7710  0.6586  0.1610
 5845SOL    HW223112   5.929   4.843   4.865  0.7481  0.4776  2.5918
 5845SOL    HW323113   6.071   4.838   4.812  0.0751 -0.5034  0.8195
 5845SOL    MW423114   5.993   4.801   4.824 -0.0574 -0.0472  0.8681
 5846SOL     OW23115   3.070   0.468   6.028  0.3305  0.4198  0.3087
 5846SOL    HW223116   3.099   0.426   6.109 -0.6260  0.1382  0.5126
 5846SOL    HW323117   3.080   0.562   6.044  1.1385  0.3329  0.3613
 5846SOL    MW423118   3.075   0.475   6.041 -0.1819  0.0279  0.7671
 5847SOL     OW23119   1.623   6.347   5.483 -0.2123  0.0701 -0.3108
 5847SOL    HW223120   1.705   6.389   5.458  0.1493  0.3817  1.3089
 5847SOL    HW323121   1.559   6.418   5.483 -0.0488  0.2184  0.3894
 5847SOL    MW423122   1.625   6.362   5.480  0.4002  0.3003  0.1171
 5848SOL     OW23123   1.118   0.489   1.493 -0.8603  0.5732  0.0984
 5848SOL    HW223124   1.135   0.410   1.442 -3.3929  0.0999 -0.1368
 5848SOL    HW323125   1.134   0.561   1.432  2.9045  0.4612  0.7163
 5848SOL    MW423126   1.122   0.488   1.479 -0.3877 -0.3761 -0.6851
 5849SOL     OW23127   1.179   0.531   3.056  0.0981  0.3131 -0.4223
 5849SOL    HW223128   1.180   0.590   2.980  2.6319 -0.0111 -0.7287
 5849SOL    HW323129   1.166   0.444   3.018 -1.3559  0.4181 -0.1930
 5849SOL    MW423130   1.178   0.527   3.041 -0.6750 -0.4258  0.2712
 5850SOL     OW23131   2.312   1.194   4.761  0.0057  0.3707  0.2960
 5850SOL    HW223132   2.388   1.194   4.819  0.7403  0.7211 -0.6480
 5850SOL    HW323133   2.251   1.131   4.802  0.8826 -0.0800  0.9440
 5850SOL    MW423134   2.314   1.186   4.774 -0.5321 -0.0483  0.3243
 5851SOL     OW23135   6.205   2.890   5.738 -0.0452  0.5086  0.1907
 5851SOL    HW223136   6.211   2.929   5.825  0.0650  0.9128  0.0018
 5851SOL    HW323137   6.256   2.809   5.745 -1.3415 -0.2692  0.9448
 5851SOL    MW423138   6.213   2.884   5.750 -0.2356  0.1532  0.2780
 5852SOL     OW23139   0.910   1.067   4.132  0.5791  0.2146  0.0236
 5852SOL    HW223140   0.831   1.103   4.173  1.2881  0.8386  0.8769
 5852SOL    HW323141   0.933   0.991   4.186  1.1145  0.6187  0.3707
 5852SOL    MW423142   0.902   1.062   4.145 -0.3814  0.2269 -0.3280
 5853SOL     OW23143   1.683   3.683   4.263  0.3737 -0.0805  0.4309
 5853SOL    HW223144   1.713   3.657   4.175  1.5476  1.8032  0.1926
 5853SOL    HW323145   1.692   3.604   4.316  0.7905 -0.9546 -0.8760
 5853SOL    MW423146   1.688   3.669   4.258  0.7513  0.0098 -0.1527
 5854SOL     OW23147   4.190   1.507   1.008  0.2204 -0.1922  1.1717
 5854SOL    HW223148   4.125   1.560   0.960 -0.1919 -1.8781 -0.2161
 5854SOL    HW323149   4.251   1.572   1.044 -0.6594  1.2695  0.1473
 5854SOL    MW423150   4.189   1.523   1.006  0.6112  0.0586  0.4584
 5855SOL     OW23151   1.564   5.494   5.582  0.0307 -0.0607  0.7594
 5855SOL    HW223152   1.558   5.499   5.678 -0.2084 -1.2704  0.8264
 5855SOL    HW323153   1.649   5.452   5.566 -1.0330 -2.2727  0.5661
 5855SOL    MW423154   1.575   5.489   5.593  0.3174 -0.2517 -0.0098
 5856SOL     OW23155   6.229   0.337   4.975  0.3268  0.3882 -0.4015
 5856SOL    HW223156   6.202   0.321   5.065  1.5626  0.1372 -0.0551
 5856SOL    HW323157   6.284   0.262   4.953  0.5930  0.7875 -1.1249
 5856SOL    MW423158   6.232   0.325   4.984 -0.1473  0.1523 -0.1276
 5857SOL     OW23159   1.402   1.249   4.823 -0.2883  0.2100  0.1092
 5857SOL    HW223160   1.449   1.194   4.759  0.0472  0.7280 -0.0970
 5857SOL    HW323161   1.427   1.213   4.908 -0.3496 -0.1765 -0.0324
 5857SOL    MW423162   1.412   1.237   4.826 -0.4808 -0.1355 -0.2653
 5858SOL     OW23163   3.824   4.244   0.977  0.0331  0.0391 -0.5111
 5858SOL    HW223164   3.873   4.181   1.029  0.4699 -0.4316 -1.4759
 5858SOL    HW323165   3.775   4.295   1.042 -1.2515 -2.0410  0.2510
 5858SOL    MW423166   3.824   4.243   0.992  0.0623 -0.3996 -0.5692
 5859SOL     OW23167   5.664   4.471   5.862 -0.1265 -0.2550  0.8818
 5859SOL    HW223168   5.710   4.408   5.806 -0.2174  0.4250  0.0148
 5859SOL    HW323169   5.734   4.519   5.906 -0.0319 -0.2058  0.6816
 5859SOL    MW423170   5.679   4.469   5.861 -0.5453  0.0968 -0.0667
 5860SOL     OW23171   5.706   1.763   6.069  0.1318  0.3372  0.0972
 5860SOL    HW223172   5.776   1.794   6.127  1.1337 -1.5929  0.0031
 5860SOL    HW323173   5.641   1.725   6.127 -0.2987  1.0750  0.1103
 5860SOL    MW423174   5.707   1.762   6.084  0.3138 -0.1017 -0.3197
 5861SOL     OW23175   4.887   0.331   1.851 -0.1602  0.0215 -0.4243
 5861SOL    HW223176   4.918   0.379   1.928 -1.4272 -2.3459  1.7276
 5861SOL    HW323177   4.830   0.392   1.806  0.1977  1.3187  0.8061
 5861SOL    MW423178   4.884   0.345   1.855 -0.0338  0.2355 -0.0323
 5862SOL     OW23179   0.031   4.607   2.638 -0.4576 -0.0934 -0.2138
 5862SOL    HW223180  -0.005   4.691   2.666 -1.2975 -0.4038 -0.3266
 5862SOL    HW323181   0.080   4.575   2.713  0.2568  0.7026 -0.3236
 5862SOL    MW423182   0.033   4.614   2.651  0.2187  0.2724 -0.4424
 5863SOL     OW23183   0.224   0.025   2.373 -0.4123  0.4494 -0.2960
 5863SOL    HW223184   0.150   0.079   2.347 -0.6004 -0.5688 -1.9785
 5863SOL    HW323185   0.266  -0.001   2.291  0.9553 -0.1800  0.5579
 5863SOL    MW423186   0.220   0.029   2.359  0.1242 -0.2276  0.3101
 5864SOL     OW23187   4.122   5.975   5.505  0.0691 -0.0622  0.5079
 5864SOL    HW223188   4.179   5.942   5.575  1.7844 -0.9760 -1.2293
 5864SOL    HW323189   4.132   5.912   5.434 -1.0582  1.2148 -0.8447
 5864SOL    MW423190   4.131   5.962   5.505  0.5139  0.2344 -0.5549
 5865SOL     OW23191   2.494   6.240   5.406 -0.1950 -0.2626 -0.2650
 5865SOL    HW223192   2.443   6.160   5.418 -0.7024  0.0175 -0.5027
 5865SOL    HW323193   2.484   6.287   5.489 -0.3934 -0.1677 -0.3436
 5865SOL    MW423194   2.486   6.236   5.419 -0.3409 -0.2644  0.6067
 5866SOL     OW23195   5.550   3.165   5.964 -0.7924 -0.4420  0.1357
 5866SOL    HW223196   5.632   3.117   5.949 -0.4636 -0.1785  1.0395
 5866SOL    HW323197   5.491   3.100   6.002 -1.0169 -0.6372 -0.5346
 5866SOL    MW423198   5.553   3.150   5.967 -0.3261 -0.0799  0.1882
 5867SOL     OW23199   6.033   6.009   4.341  0.2554  0.1189  0.5586
 5867SOL    HW223200   5.954   6.015   4.394 -0.9627 -0.0288 -1.1707
 5867SOL    HW323201   6.039   5.917   4.316  1.4980 -0.0543  1.3924
 5867SOL    MW423202   6.024   5.998   4.344 -0.1012 -0.7463  0.2123
 5868SOL     OW23203   4.964   4.635   0.937 -0.5707 -0.5231 -0.7969
 5868SOL    HW223204   5.048   4.630   0.983 -2.0624 -0.5909  2.1246
 5868SOL    HW323205   4.975   4.707   0.874  1.3322  0.1555  0.2356
 5868SOL    MW423206   4.976   4.644   0.935  0.5103  0.3246 -0.6497
 5869SOL     OW23207   2.628   5.460   0.709 -0.2482 -0.1245 -0.5686
 5869SOL    HW223208   2.593   5.548   0.723 -0.1798  0.0138 -1.2259
 5869SOL    HW323209   2.598   5.436   0.621 -0.3210 -0.7863 -0.3691
 5869SOL    MW423210   2.619   5.468   0.699 -0.0318  0.1172 -0.8486
 5870SOL     OW23211   4.558   3.088   6.204 -0.0415 -0.4402 -0.3509
 5870SOL    HW223212   4.574   3.144   6.279 -1.2823 -0.6911  0.1159
 5870SOL    HW323213   4.581   3.000   6.234 -2.0198 -0.7837  0.2819
 5870SOL    MW423214   4.563   3.084   6.218  0.3054  0.6235  0.0869
 5871SOL     OW23215   2.764   5.390   0.018 -0.4282  0.7729 -0.6758
 5871SOL    HW223216   2.699   5.417  -0.047 -0.1899  0.0466 -1.2319
 5871SOL    HW323217   2.773   5.295   0.005 -2.8122 -0.0877  2.5642
 5871SOL    MW423218   2.756   5.381   0.008 -0.2187 -0.1828  0.3427
 5872SOL     OW23219   1.958   3.974   3.282 -0.2201  0.3059  0.0845
 5872SOL    HW223220   1.928   3.984   3.192  0.7371  0.7731 -0.1954
 5872SOL    HW323221   2.038   4.027   3.287 -0.6887  0.9296  1.4249
 5872SOL    MW423222   1.965   3.982   3.271 -0.1134  0.1189  0.5072
 5873SOL     OW23223   0.150   6.379   3.569 -0.0697  0.0022 -0.6392
 5873SOL    HW223224   0.126   6.389   3.477  1.5164 -0.0157 -1.0884
 5873SOL    HW323225   0.242   6.406   3.573  0.6243 -2.2556  0.4834
 5873SOL    MW423226   0.159   6.384   3.558  0.8352 -0.2388 -0.7385
 5874SOL     OW23227   0.708   3.660   3.843  0.2314  0.2061 -0.1757
 5874SOL    HW223228   0.678   3.662   3.752  1.9374  0.1246 -0.7887
 5874SOL    HW323229   0.726   3.751   3.865  1.2153  0.0908 -0.4455
 5874SOL    MW423230   0.707   3.672   3.834 -0.6547 -0.8148 -0.2594
 5875SOL     OW23231   4.809   3.164   3.939 -0.1542 -0.1467 -0.1348
 5875SOL    HW223232   4.735   3.208   3.980 -0.1628 -1.3096  1.1686
 5875SOL    HW323233   4.860   3.129   4.012  0.0164 -1.9864 -1.0771
 5875SOL    MW423234   4.806   3.165   3.954  0.2437  0.1637  0.0576
 5876SOL     OW23235   6.364   2.412   2.964  0.1986 -0.3690  0.7183
 5876SOL    HW223236   6.415   2.477   2.917  2.2989 -1.3786  1.4790
 5876SOL    HW323237   6.409   2.401   3.048 -0.0213 -2.7740  0.6127
 5876SOL    MW423238   6.377   2.419   2.969  0.0357  0.4215 -0.1554
 5877SOL     OW23239   2.355   6.012   0.047  0.4248  0.0605 -0.5101
 5877SOL    HW223240   2.272   6.032   0.091  0.6579 -0.2017  0.0432
 5877SOL    HW323241   2.376   6.092  -0.001  0.3736  0.4860  0.1693
 5877SOL    MW423242   2.346   6.025   0.046 -0.0240  0.1263  0.2230
 5878SOL     OW23243   3.693   2.848   3.267  0.4263  0.1245 -0.0510
 5878SOL    HW223244   3.657   2.854   3.355  0.0879 -0.5442 -0.1347
 5878SOL    HW323245   3.785   2.872   3.276  0.4313 -0.1038  0.5158
 5878SOL    MW423246   3.700   2.852   3.280  0.1529 -0.3130 -0.0152
 5879SOL     OW23247   4.717   2.181   4.475 -0.2766 -0.6482 -0.4905
 5879SOL    HW223248   4.662   2.240   4.527 -0.5418 -2.0347  0.8639
 5879SOL    HW323249   4.665   2.163   4.397 -1.0267 -0.6165 -0.0111
 5879SOL    MW423250   4.703   2.187   4.471  0.2389 -0.0449  0.8179
 5880SOL     OW23251   5.128   6.116   6.346 -0.3194  0.0483  0.3714
 5880SOL    HW223252   5.039   6.081   6.344  0.0732 -0.9608 -1.3612
 5880SOL    HW323253   5.116   6.211   6.350 -1.4052 -0.1009  3.3589
 5880SOL    MW423254   5.114   6.124   6.346 -0.6204 -0.5074 -0.4629
 5881SOL     OW23255   0.909   0.597   2.740 -0.3822  0.0145  0.4475
 5881SOL    HW223256   0.974   0.535   2.708 -0.8877 -1.3455  1.8810
 5881SOL    HW323257   0.873   0.555   2.819 -1.0095  1.9830  1.2745
 5881SOL    MW423258   0.913   0.583   2.746 -0.1794 -0.2260 -0.3075
 5882SOL     OW23259   1.199   2.415   1.539 -0.4364  0.7386 -0.1044
 5882SOL    HW223260   1.172   2.424   1.630 -2.9295  1.7109 -0.8523
 5882SOL    HW323261   1.158   2.334   1.509  1.6620 -0.4195 -0.0037
 5882SOL    MW423262   1.190   2.406   1.547 -0.5107  0.5805 -0.5465
 5883SOL     OW23263   3.890   2.472   5.610 -0.5019  0.4882  0.3540
 5883SOL    HW223264   3.866   2.495   5.700  0.3706  1.0139  0.4666
 5883SOL    HW323265   3.985   2.458   5.613 -0.6567 -0.7972 -0.2258
 5883SOL    MW423266   3.900   2.474   5.622 -0.1155  0.4517 -0.1578
 5884SOL     OW23267   3.614   3.849   3.647 -0.0015 -0.0483 -0.0564
 5884SOL    HW223268   3.530   3.863   3.604 -0.4669 -0.9105  0.5382
 5884SOL    HW323269   3.599   3.875   3.738  0.5144  0.2503 -0.0523
 5884SOL    MW423270   3.601   3.854   3.653 -0.2090  0.0276  0.3273
 5885SOL     OW23271   5.266   1.711   6.095  0.0402 -0.3318 -0.4173
 5885SOL    HW223272   5.253   1.679   6.006 -1.9460  0.8509 -0.6095
 5885SOL    HW323273   5.196   1.669   6.146  0.0719  0.3588  0.2135
 5885SOL    MW423274   5.255   1.701   6.090  0.0047 -0.4460  0.1406
 5886SOL     OW23275   2.053   1.217   4.535 -0.6605  0.3035  0.1248
 5886SOL    HW223276   1.989   1.147   4.551  1.8493 -1.9207  1.2830
 5886SOL    HW323277   2.065   1.257   4.621  0.8838 -0.6676  0.4060
 5886SOL    MW423278   2.046   1.213   4.549 -0.4649 -0.3017  0.1501
 5887SOL     OW23279   0.809   5.356   2.946  0.2080  0.4958 -1.0560
 5887SOL    HW223280   0.796   5.306   2.865 -0.8477 -0.8206 -0.1257
 5887SOL    HW323281   0.720   5.380   2.972  0.6406  2.0854 -0.9766
 5887SOL    MW423282   0.795   5.352   2.939 -0.5076  1.0441 -0.2043
 5888SOL     OW23283   0.115   1.394   3.436  0.2921  1.1626  0.0410
 5888SOL    HW223284   0.087   1.319   3.487  1.1237 -0.2363 -1.4650
 5888SOL    HW323285   0.034   1.430   3.400 -0.1202  1.0303  0.8267
 5888SOL    MW423286   0.100   1.389   3.438  0.0737  0.2966 -0.1040
 5889SOL     OW23287   1.280   4.613   0.415 -0.6124  0.4218 -0.1703
 5889SOL    HW223288   1.330   4.531   0.421  1.4504  1.2937 -3.0826
 5889SOL    HW323289   1.254   4.632   0.505  1.8909 -1.6280  1.1260
 5889SOL    MW423290   1.283   4.605   0.427  0.5654 -0.7707 -0.2360
 5890SOL     OW23291   2.358   4.061   1.635 -0.3015  0.3102 -0.1926
 5890SOL    HW223292   2.268   4.048   1.666 -0.4815  0.5103 -0.6151
 5890SOL    HW323293   2.410   3.998   1.684 -0.7332 -0.0715 -0.2178
 5890SOL    MW423294   2.353   4.051   1.645 -0.0840  0.2925 -0.6453
 5891SOL     OW23295   5.988   5.885   2.100  0.3106  0.1930  0.3217
 5891SOL    HW223296   6.050   5.957   2.093 -0.4365  0.9570  1.2347
 5891SOL    HW323297   5.910   5.915   2.054  1.0008 -1.2906 -1.9914
 5891SOL    MW423298   5.986   5.899   2.093 -0.4283  0.4643 -0.5615
 5892SOL     OW23299   2.848   5.757   1.684  0.7119 -0.1015  0.2273
 5892SOL    HW223300   2.836   5.804   1.601  1.0235  1.3711  0.9816
 5892SOL    HW323301   2.930   5.792   1.719  0.7572 -0.9618  0.9953
 5892SOL    MW423302   2.858   5.768   1.677 -0.2732  0.0410  0.1363
 5893SOL     OW23303   4.872   3.109   5.182  0.5040 -0.0461 -0.5735
 5893SOL    HW223304   4.873   3.201   5.156 -1.1064  0.0276 -0.4881
 5893SOL    HW323305   4.824   3.108   5.265  0.2747 -0.9956 -0.7063
 5893SOL    MW423306   4.866   3.121   5.190 -0.1346  0.3590  0.1268
 5894SOL     OW23307   2.171   5.117   4.307 -0.2420 -0.2881  0.1538
 5894SOL    HW223308   2.139   5.202   4.277 -3.3947 -1.6727 -0.8672
 5894SOL    HW323309   2.121   5.100   4.387 -1.4295 -2.0986 -0.9050
 5894SOL    MW423310   2.160   5.126   4.313 -0.0865 -0.3123  0.2213
 5895SOL     OW23311   0.488   5.611   0.451 -0.3106  0.2950 -0.4872
 5895SOL    HW223312   0.499   5.564   0.368 -0.1054 -1.4806  0.5063
 5895SOL    HW323313   0.566   5.590   0.502 -0.3934  1.4376  0.1468
 5895SOL    MW423314   0.499   5.602   0.446 -0.2317 -0.2273  0.0909
 5896SOL     OW23315   5.224   3.788   4.623  0.1623 -0.4468 -0.3800
 5896SOL    HW223316   5.223   3.730   4.547  0.4102 -1.1389  0.1263
 5896SOL    HW323317   5.307   3.835   4.616  1.7322 -2.7593  1.0531
 5896SOL    MW423318   5.235   3.786   4.612  0.0582 -0.9361  0.5633
 5897SOL     OW23319   3.555   3.783   0.217 -0.1710  0.0475 -0.0834
 5897SOL    HW223320   3.544   3.818   0.129 -0.5060  0.7536  0.2361
 5897SOL    HW323321   3.625   3.836   0.255  1.0641 -1.2525 -0.4355
 5897SOL    MW423322   3.563   3.795   0.210  0.9060  0.6636  0.3291
 5898SOL     OW23323   0.054   4.016   3.536 -0.9537 -0.1855  0.6163
 5898SOL    HW223324   0.011   3.943   3.581 -0.5893  0.1162  1.4687
 5898SOL    HW323325  -0.015   4.082   3.527 -0.9516 -0.1272  1.0060
 5898SOL    MW423326   0.039   4.015   3.541 -0.1510 -0.6998 -0.0095
 5899SOL     OW23327   0.027   4.881   6.408 -0.1773 -0.0438  0.1619
 5899SOL    HW223328  -0.041   4.846   6.350  0.2898 -0.6995  0.0073
 5899SOL    HW323329   0.006   4.974   6.414 -1.0274 -0.2131  0.0275
 5899SOL    MW423330   0.015   4.889   6.401  0.1077 -0.3813  0.7410
 5900SOL     OW23331   6.010   5.723   4.300  0.6140  0.3278  0.9019
 5900SOL    HW223332   5.925   5.681   4.294  1.4099 -1.3264  0.7376
 5900SOL    HW323333   6.051   5.685   4.377  1.1667  1.2096  1.0672
 5900SOL    MW423334   6.005   5.713   4.309 -0.3047 -0.0209 -0.0500
 5901SOL     OW23335   4.501   1.749   3.122 -0.2098 -0.1637  0.6445
 5901SOL    HW223336   4.574   1.736   3.182 -0.3469  1.1802  1.1298
 5901SOL    HW323337   4.487   1.844   3.121 -0.1379 -0.1362 -1.6242
 5901SOL    MW423338   4.509   1.760   3.130 -0.2213 -0.7511  0.0661
 5902SOL     OW23339   6.056   0.946   3.938  0.4742 -0.3505  0.1807
 5902SOL    HW223340   6.028   1.024   3.986  2.3381  1.0196 -0.8486
 5902SOL    HW323341   6.084   0.885   4.006 -0.0717  0.2442  0.9620
 5902SOL    MW423342   6.056   0.948   3.954 -0.0945  0.0074 -0.5559
 5903SOL     OW23343   2.943   4.844   1.267 -0.0973  0.0363 -0.2392
 5903SOL    HW223344   3.022   4.850   1.321 -0.0586  1.0908 -0.3915
 5903SOL    HW323345   2.955   4.911   1.199 -0.8752 -0.1640 -0.5832
 5903SOL    MW423346   2.955   4.854   1.265 -0.1145  0.0395 -0.4937
 5904SOL     OW23347   5.325   2.579   1.431  0.2262  0.4430 -0.3488
 5904SOL    HW223348   5.366   2.551   1.513 -0.8040 -0.9649 -0.2715
 5904SOL    HW323349   5.385   2.644   1.395  1.4982 -0.0779  0.7338
 5904SOL    MW423350   5.338   2.584   1.437  0.0286 -0.0832 -0.4380
 5905SOL     OW23351   3.302   3.254   3.527  0.7838 -0.3200  0.5345
 5905SOL    HW223352   3.259   3.179   3.487  2.0727 -1.1132  0.5525
 5905SOL    HW323353   3.311   3.231   3.619 -2.2668  1.5435  1.4365
 5905SOL    MW423354   3.298   3.241   3.534 -0.0337  0.2081  0.1343
 5906SOL     OW23355   2.130   6.044   1.409  0.4560  0.4595 -0.7447
 5906SOL    HW223356   2.086   6.128   1.402  2.4647  1.5858 -0.5863
 5906SOL    HW323357   2.062   5.984   1.440 -0.9015  2.1076 -0.3644
 5906SOL    MW423358   2.115   6.047   1.412 -0.4663  0.5030 -0.0379
 5907SOL     OW23359   3.819   1.614   5.294 -0.2659 -0.2864  0.0936
 5907SOL    HW223360   3.827   1.709   5.307  0.7905  0.0404 -2.3639
 5907SOL    HW323361   3.882   1.576   5.356 -0.0719  0.6552  0.4939
 5907SOL    MW423362   3.829   1.621   5.304 -0.3492 -0.4374  0.2845
 5908SOL     OW23363   2.518   2.179   5.240  0.3677  0.2067  0.2943
 5908SOL    HW223364   2.501   2.161   5.332 -0.0284 -2.6841 -0.2705
 5908SOL    HW323365   2.484   2.268   5.227  0.4671  0.7004  2.8950
 5908SOL    MW423366   2.511   2.189   5.250 -0.8508  0.4950  0.1257
 5909SOL     OW23367   1.031   3.712   2.736  0.3723 -0.1845 -0.3270
 5909SOL    HW223368   1.006   3.710   2.829 -0.3158 -0.5429 -0.5090
 5909SOL    HW323369   0.962   3.764   2.694  0.3243 -0.5750 -0.7363
 5909SOL    MW423370   1.018   3.718   2.743  0.0189  0.1531 -0.2712
 5910SOL     OW23371   6.234   3.871   0.154  0.4928 -0.5060 -0.2386
 5910SOL    HW223372   6.192   3.786   0.143 -1.2395  0.4771 -1.7621
 5910SOL    HW323373   6.190   3.910   0.229  1.2283 -0.8688  0.4060
 5910SOL    MW423374   6.223   3.865   0.163 -0.5259 -0.2606  0.4560
 5911SOL     OW23375   4.277   3.810   0.101 -0.1458  0.0627 -0.0825
 5911SOL    HW223376   4.321   3.808   0.185 -0.4805 -0.8801  0.0812
 5911SOL    HW323377   4.248   3.720   0.086 -1.5950  0.5476 -0.4005
 5911SOL    MW423378   4.279   3.798   0.110 -0.3222 -0.2612 -0.2716
 5912SOL     OW23379   5.222   0.880   1.121  0.7495 -0.9612 -0.2859
 5912SOL    HW223380   5.191   0.790   1.134 -0.5067 -0.6690 -1.0134
 5912SOL    HW323381   5.302   0.886   1.173 -0.8604 -1.5166  2.4202
 5912SOL    MW423382   5.229   0.869   1.129 -0.2968 -0.5117 -0.2300
 5913SOL     OW23383   1.269   5.267   6.320  0.8059 -0.0117 -0.2332
 5913SOL    HW223384   1.310   5.182   6.333  3.0894  1.0248 -0.2617
 5913SOL    HW323385   1.279   5.285   6.227  1.5011  0.8304 -0.0098
 5913SOL    MW423386   1.276   5.258   6.310  0.0608  0.1739  0.3742
 5914SOL     OW23387   5.056   5.255   0.474 -0.1343  0.0062 -0.1799
 5914SOL    HW223388   5.010   5.194   0.532  0.5315 -1.2078 -0.8824
 5914SOL    HW323389   5.046   5.218   0.386 -0.4258  1.3695 -0.7571
 5914SOL    MW423390   5.049   5.242   0.470 -0.3736 -0.3979 -0.3325
 5915SOL     OW23391   3.002   0.530   4.595 -0.2009 -0.0128  0.4040
 5915SOL    HW223392   2.988   0.483   4.677 -1.1478  1.9310  1.4282
 5915SOL    HW323393   2.924   0.512   4.543 -0.5473  0.3886  0.7803
 5915SOL    MW423394   2.990   0.521   4.599  0.1975  0.1693 -0.2727
 5916SOL     OW23395   5.310   4.066   3.939  0.3667  1.4560 -0.1066
 5916SOL    HW223396   5.388   4.084   3.886  0.0521  0.0068 -1.1186
 5916SOL    HW323397   5.254   4.142   3.927 -0.7173  0.2442 -3.7885
 5916SOL    MW423398   5.313   4.078   3.930 -1.1644  0.7270  0.2502
 5917SOL     OW23399   3.570   4.851   1.598  0.2674  0.1747 -0.3281
 5917SOL    HW223400   3.550   4.776   1.542  0.2349  0.5076 -0.7742
 5917SOL    HW323401   3.537   4.927   1.549  1.2086  0.5791 -0.3671
 5917SOL    MW423402   3.563   4.851   1.584 -0.0223  0.0736  0.8361
 5918SOL     OW23403   2.776   5.783   0.003 -0.3581  0.1632 -0.0988
 5918SOL    HW223404   2.811   5.829  -0.073 -1.4035  1.2144  0.0228
 5918SOL    HW323405   2.853   5.762   0.056  0.3419 -0.2269 -1.2484
 5918SOL    MW423406   2.790   5.787  -0.000  0.2000 -0.2892  0.0192
 5919SOL     OW23407   1.632   3.125   0.517  0.1749  0.0302 -0.5924
 5919SOL    HW223408   1.695   3.183   0.559 -0.6116  0.8456 -0.5088
 5919SOL    HW323409   1.546   3.161   0.540 -0.3067 -0.4274 -1.5779
 5919SOL    MW423410   1.629   3.137   0.525  0.5314  0.2781 -0.1331
 5920SOL     OW23411   4.202   4.123   4.768  0.0995  0.4405 -0.0739
 5920SOL    HW223412   4.239   4.196   4.719 -0.6173  0.1369 -1.0896
 5920SOL    HW323413   4.122   4.100   4.721  0.5484 -1.3047 -0.0545
 5920SOL    MW423414   4.196   4.130   4.756  0.3301 -0.1043 -0.2948
 5921SOL     OW23415   6.205   4.609   4.420 -0.4789 -0.2485  0.1633
 5921SOL    HW223416   6.232   4.596   4.329 -0.0559 -3.2092  0.5896
 5921SOL    HW323417   6.288   4.619   4.468 -0.7145  1.6977  0.2216
 5921SOL    MW423418   6.220   4.608   4.415  0.0974 -0.4655  0.0714
 5922SOL     OW23419   1.848   2.795   1.891  0.0801  0.4272  0.0625
 5922SOL    HW223420   1.869   2.855   1.962  1.4762  0.2428 -0.1636
 5922SOL    HW323421   1.929   2.788   1.841 -0.9953  1.0151 -1.9180
 5922SOL    MW423422   1.861   2.802   1.894 -0.2173  0.4377 -0.3395
 5923SOL     OW23423   4.484   4.663   1.573  0.4653 -0.2371 -0.0648
 5923SOL    HW223424   4.561   4.661   1.516 -0.3163 -1.1088 -1.1284
 5923SOL    HW323425   4.480   4.575   1.611 -0.6524 -0.5639 -0.9163
 5923SOL    MW423426   4.494   4.651   1.571  0.0438 -0.1459  0.3253
 5924SOL     OW23427   2.443   4.184   5.939  0.8102 -0.3841  0.6812
 5924SOL    HW223428   2.348   4.195   5.932  0.2545 -2.1343  3.4726
 5924SOL    HW323429   2.462   4.107   5.886  0.4430 -0.7180  1.0230
 5924SOL    MW423430   2.433   4.175   5.931 -0.8542 -0.0554 -0.2966
 5925SOL     OW23431   2.340   1.650   2.903  0.3160  0.1392  0.1255
 5925SOL    HW223432   2.265   1.674   2.957  0.8865  0.0967  0.9726
 5925SOL    HW323433   2.337   1.555   2.898 -1.4187  0.2283 -2.4563
 5925SOL    MW423434   2.330   1.641   2.910 -0.5550  0.0797 -0.1780
 5926SOL     OW23435   4.640   4.822   0.869  0.2522  0.3539 -0.0325
 5926SOL    HW223436   4.674   4.872   0.943 -2.2586  0.6857  1.0095
 5926SOL    HW323437   4.590   4.885   0.818 -0.8973 -0.5464 -0.0629
 5926SOL    MW423438   4.638   4.837   0.872 -0.3549 -0.2388 -0.2666
 5927SOL     OW23439   1.964   2.884   0.175 -0.2638 -0.1438 -0.4135
 5927SOL    HW223440   1.942   2.961   0.123 -0.4776  0.2197  0.1944
 5927SOL    HW323441   2.020   2.918   0.245  1.0473 -0.8254 -1.1042
 5927SOL    MW423442   1.968   2.899   0.178 -0.8879 -0.1979 -0.2442
 5928SOL     OW23443   2.210   5.190   0.487 -0.3508  0.2753 -0.1191
 5928SOL    HW223444   2.279   5.130   0.458 -1.5311 -0.5963 -1.2170
 5928SOL    HW323445   2.253   5.276   0.489  2.0477 -0.7747  3.7664
 5928SOL    MW423446   2.225   5.194   0.484  0.2721  0.0301  0.1545
 5929SOL     OW23447   2.967   4.800   3.784 -0.4685  0.7691  0.0885
 5929SOL    HW223448   2.875   4.827   3.787 -0.7437 -0.1957  1.2718
 5929SOL    HW323449   3.014   4.870   3.830 -0.9875  0.0128  1.8628
 5929SOL    MW423450   2.961   4.813   3.790 -0.3208  0.0904 -0.3455
 5930SOL     OW23451   3.466   2.552   1.914 -0.3278 -0.5499 -0.4992
 5930SOL    HW223452   3.535   2.586   1.857  0.6916  1.5088  1.7802
 5930SOL    HW323453   3.402   2.623   1.921 -0.4526 -0.7632  0.8386
 5930SOL    MW423454   3.467   2.566   1.908 -0.0312 -0.2259 -0.3221
 5931SOL     OW23455   5.495   3.263   3.370 -0.1418  0.2580 -0.1348
 5931SOL    HW223456   5.409   3.302   3.387 -1.1649 -1.3161 -1.3347
 5931SOL    HW323457   5.477   3.170   3.361  2.1098 -0.4746  2.0213
 5931SOL    MW423458   5.481   3.256   3.371  0.5639  0.2588 -0.0674
 5932SOL     OW23459   5.767   6.138   3.451 -0.3841  0.1980  0.3880
 5932SOL    HW223460   5.710   6.189   3.509  0.3290  0.7607  0.6087
 5932SOL    HW323461   5.806   6.071   3.507  1.8340  1.9477  1.0760
 5932SOL    MW423462   5.765   6.136   3.466 -0.0917  0.0160  0.3453
 5933SOL     OW23463   0.262   2.941   1.282  0.2202  0.0541 -0.1825
 5933SOL    HW223464   0.259   2.862   1.337 -0.6095 -0.3655 -0.8032
 5933SOL    HW323465   0.338   2.929   1.226  0.5867  0.0941  0.2985
 5933SOL    MW423466   0.271   2.929   1.282  0.3555 -0.2747  0.2716
 5934SOL     OW23467   5.908   5.613   3.124 -0.0472  0.4127 -0.1833
 5934SOL    HW223468   5.934   5.537   3.071 -0.7198  1.0443 -1.4541
 5934SOL    HW323469   5.894   5.683   3.061  0.8984  1.7308  0.9933
 5934SOL    MW423470   5.910   5.612   3.109 -0.0786 -0.1329 -0.0943
 5935SOL     OW23471   0.658   2.939   5.990 -0.2957 -0.6260 -0.3688
 5935SOL    HW223472   0.595   2.873   6.019  0.2174 -1.2749 -0.7274
 5935SOL    HW323473   0.608   2.995   5.929 -1.5224  1.0225  1.9764
 5935SOL    MW423474   0.643   2.938   5.986  0.1653 -0.8029 -0.4203
 5936SOL     OW23475   2.841   4.723   3.158  0.5505 -0.2779 -0.0432
 5936SOL    HW223476   2.793   4.805   3.157 -0.6800 -0.9511 -1.4753
 5936SOL    HW323477   2.931   4.747   3.178 -0.0310  1.2516  0.8273
 5936SOL    MW423478   2.846   4.737   3.160 -0.1290 -0.2731  0.3980
 5937SOL     OW23479   4.108   5.801   5.289 -0.1447 -0.0944 -0.0485
 5937SOL    HW223480   4.023   5.787   5.247 -0.6794 -0.7564  1.2054
 5937SOL    HW323481   4.172   5.774   5.223 -0.9868 -1.8269 -0.1986
 5937SOL    MW423482   4.105   5.795   5.275 -0.3168  0.4252 -0.6895
 5938SOL     OW23483   3.939   2.498   5.249  1.2052  0.0738  0.1501
 5938SOL    HW223484   3.861   2.442   5.250  1.9663 -1.0729  2.0972
 5938SOL    HW323485   3.913   2.574   5.197 -1.6161  0.2921  1.6334
 5938SOL    MW423486   3.925   2.501   5.242  0.5979 -0.3294  0.5836
 5939SOL     OW23487   3.275   5.515   3.658 -0.0889 -0.3132 -0.4613
 5939SOL    HW223488   3.291   5.421   3.671 -0.5473 -0.3391 -0.0603
 5939SOL    HW323489   3.283   5.527   3.564  2.4903 -0.2789 -0.3059
 5939SOL    MW423490   3.278   5.504   3.647  0.3526 -0.3055  0.2403
 5940SOL     OW23491   0.488   2.460   3.438  0.2051 -0.2781 -0.2140
 5940SOL    HW223492   0.395   2.473   3.418  0.4524  0.8743 -0.7091
 5940SOL    HW323493   0.531   2.463   3.352  0.9974  2.1199  0.2026
 5940SOL    MW423494   0.481   2.462   3.424 -0.0824 -0.3653 -0.7442
 5941SOL     OW23495   3.310   1.290   3.858 -0.2200 -0.4836 -0.0114
 5941SOL    HW223496   3.349   1.338   3.932 -0.2171  0.1202 -0.4000
 5941SOL    HW323497   3.381   1.282   3.795 -0.7208  0.7067 -0.7665
 5941SOL    MW423498   3.325   1.295   3.860  0.2282 -0.0445  0.3540
 5942SOL     OW23499   2.949   6.300   4.834 -0.0156 -0.0124 -0.2483
 5942SOL    HW223500   2.862   6.340   4.833 -0.0035  0.0100 -1.5161
 5942SOL    HW323501   3.004   6.364   4.881 -0.4758  0.4001 -0.2614
 5942SOL    MW423502   2.945   6.314   4.840 -0.2250  0.0012 -0.4200
 5943SOL     OW23503   1.622   3.913   0.198 -0.1176 -0.3395 -0.1962
 5943SOL    HW223504   1.568   3.949   0.128  0.0729 -1.2409 -0.8290
 5943SOL    HW323505   1.684   3.983   0.218  0.4608 -0.4010 -1.6243
 5943SOL    MW423506   1.623   3.927   0.191 -0.3195 -0.0991 -0.1127
 5944SOL     OW23507   4.024   0.162   2.330  0.6132 -0.3080  0.9627
 5944SOL    HW223508   4.101   0.206   2.294  0.6194 -1.3030 -0.2975
 5944SOL    HW323509   4.060   0.098   2.391  0.7378 -0.2349  0.9665
 5944SOL    MW423510   4.039   0.160   2.333  0.2955  0.6266  0.4627
 5945SOL     OW23511   6.217   0.745   0.805  0.5003 -0.0929 -0.8858
 5945SOL    HW223512   6.158   0.691   0.753 -0.4055  0.4868 -0.4689
 5945SOL    HW323513   6.299   0.745   0.755 -0.0915 -0.2331 -1.8806
 5945SOL    MW423514   6.220   0.738   0.792  0.1057 -0.0932  0.0302
 5946SOL     OW23515   4.645   0.295   0.680 -0.9291  0.2593 -0.1368
 5946SOL    HW223516   4.648   0.302   0.776  0.9724 -1.6708  0.0009
 5946SOL    HW323517   4.603   0.211   0.663 -1.0402  0.4798 -1.0125
 5946SOL    MW423518   4.640   0.285   0.691 -0.1925  0.5431  0.2116
 5947SOL     OW23519   5.855   6.235   5.901  0.5020 -0.2506  0.5501
 5947SOL    HW223520   5.817   6.166   5.954  0.2914  0.3851  1.2417
 5947SOL    HW323521   5.784   6.260   5.841  0.8521 -1.2060 -0.2795
 5947SOL    MW423522   5.840   6.229   5.900  0.2087  0.1727 -0.1243
 5948SOL     OW23523   3.969   3.045   2.255  0.1055 -0.4173 -0.1502
 5948SOL    HW223524   3.909   3.033   2.181  0.4468 -1.3996 -0.2846
 5948SOL    HW323525   3.924   3.107   2.313 -0.3871 -0.0209 -0.9341
 5948SOL    MW423526   3.955   3.052   2.253 -0.6590 -0.5654  0.3264
 5949SOL     OW23527   5.737   2.456   0.504  0.1338 -0.4946 -0.2201
 5949SOL    HW223528   5.781   2.518   0.563 -0.5008  0.0077 -0.2628
 5949SOL    HW323529   5.661   2.425   0.554 -0.6731  0.2905 -0.9267
 5949SOL    MW423530   5.733   2.460   0.518  0.4872  0.0010  0.0679
 5950SOL     OW23531   4.176   1.990   2.817 -0.4126 -0.5053 -0.0939
 5950SOL    HW223532   4.153   1.983   2.910 -0.0509 -0.7122 -0.0167
 5950SOL    HW323533   4.096   1.965   2.771 -1.3910  1.9617  0.1091
 5950SOL    MW423534   4.162   1.986   2.823  0.8101  0.1185 -0.4865
 5951SOL     OW23535   4.055   5.394   1.411  0.1260  0.2189  0.3249
 5951SOL    HW223536   4.081   5.482   1.383 -0.7517  0.5888  0.6347
 5951SOL    HW323537   4.001   5.361   1.339 -2.7409  1.4516  1.7349
 5951SOL    MW423538   4.051   5.401   1.398 -0.0729  0.1321  0.3825
 5952SOL     OW23539   1.727   6.282   0.154 -0.0744  0.1633  0.3111
 5952SOL    HW223540   1.668   6.261   0.082  0.4499 -0.5013  0.0706
 5952SOL    HW323541   1.668   6.308   0.225 -0.6105  0.4567 -0.2282
 5952SOL    MW423542   1.711   6.283   0.154  0.1427  0.2468  0.0285
 5953SOL     OW23543   3.538   3.238   1.824  0.1646  0.5317  0.0911
 5953SOL    HW223544   3.554   3.315   1.879 -0.9238  0.6831  0.2172
 5953SOL    HW323545   3.500   3.274   1.744 -0.7418  0.0960  0.3186
 5953SOL    MW423546   3.535   3.253   1.821  0.1552 -0.3728 -0.1809
 5954SOL     OW23547   0.719   2.014   0.302  0.1164 -0.5410  0.4684
 5954SOL    HW223548   0.762   2.045   0.382  0.7699 -1.4405  0.4772
 5954SOL    HW323549   0.783   2.030   0.232 -0.4182  0.1624  0.1234
 5954SOL    MW423550   0.733   2.021   0.303 -0.1722 -0.0279  0.0672
 5955SOL     OW23551   4.754   1.499   2.303  0.3111 -0.0419 -0.4445
 5955SOL    HW223552   4.663   1.468   2.311  0.4407 -0.4469 -0.4902
 5955SOL    HW323553   4.783   1.466   2.218  0.1303  1.0883 -0.9654
 5955SOL    MW423554   4.746   1.490   2.293 -0.1436 -0.2010 -0.5925
 5956SOL     OW23555   2.096   3.661   0.713  0.3973 -0.1160  0.7145
 5956SOL    HW223556   2.097   3.572   0.749  1.7966 -0.4411 -0.0472
 5956SOL    HW323557   2.162   3.659   0.644 -2.0978  0.4822 -1.8727
 5956SOL    MW423558   2.105   3.649   0.708  0.2419  0.0230 -0.1990
 5957SOL     OW23559   1.201   3.735   0.127  0.4363  0.3005  0.9016
 5957SOL    HW223560   1.272   3.751   0.189  0.2710  0.1152  1.1381
 5957SOL    HW323561   1.245   3.700   0.049  0.6125  0.2436  1.0258
 5957SOL    MW423562   1.217   3.732   0.125  0.1957 -0.5336  0.1750
 5958SOL     OW23563   5.974   1.871   4.437 -0.0598  0.0807  0.3644
 5958SOL    HW223564   6.050   1.833   4.481 -0.6225 -0.6480  0.7146
 5958SOL    HW323565   5.902   1.811   4.456 -1.2015  1.7676  1.6905
 5958SOL    MW423566   5.975   1.858   4.445  0.7129  0.0102  0.4172
 5959SOL     OW23567   0.691   3.779   4.789 -0.1769 -0.6355 -0.1588
 5959SOL    HW223568   0.726   3.827   4.714 -0.6055  0.0051  0.0510
 5959SOL    HW323569   0.670   3.692   4.754  0.5808 -0.6778 -0.5393
 5959SOL    MW423570   0.693   3.774   4.775 -0.0238  0.4326 -0.1492
 5960SOL     OW23571   6.200   6.382   4.570 -0.5424 -0.0744  0.8275
 5960SOL    HW223572   6.277   6.329   4.551 -0.4019  0.3928  0.0585
 5960SOL    HW323573   6.184   6.432   4.490 -0.8174  0.8682  1.4511
 5960SOL    MW423574   6.208   6.382   4.557  0.3340 -0.2620 -0.1817
 5961SOL     OW23575   6.086   1.776   3.468  0.2328  0.0014 -0.0709
 5961SOL    HW223576   6.012   1.816   3.514 -0.4614 -0.6441 -0.6017
 5961SOL    HW323577   6.148   1.752   3.537  0.9126  2.4122  0.2377
 5961SOL    MW423578   6.084   1.778   3.483 -0.8294 -0.6223 -0.2783
 5962SOL     OW23579   3.387   1.779   5.536 -0.1236  0.1205  0.0237
 5962SOL    HW223580   3.360   1.858   5.491 -0.5852 -0.4776 -0.7828
 5962SOL    HW323581   3.323   1.768   5.607  0.7516  1.1976  1.0195
 5962SOL    MW423582   3.375   1.788   5.539  0.0986 -0.3348 -0.3614
 5963SOL     OW23583   1.295   5.916   6.178  0.0261  0.2291 -0.6440
 5963SOL    HW223584   1.245   5.835   6.186 -0.7931  0.8362  1.0201
 5963SOL    HW323585   1.331   5.930   6.266 -1.0336  2.3752 -0.4905
 5963SOL    MW423586   1.294   5.907   6.191 -0.0528  0.4235 -0.0802
 5964SOL     OW23587   4.921   1.206   0.552  0.1379 -0.6373  0.1930
 5964SOL    HW223588   4.975   1.231   0.627  0.1621 -0.2193  0.0373
 5964SOL    HW323589   4.980   1.212   0.477 -0.3395  0.6713 -0.1008
 5964SOL    MW423590   4.936   1.210   0.552  0.3074 -0.3187 -0.2073
 5965SOL     OW23591   1.806   5.727   3.547  0.2006 -0.2909  0.1427
 5965SOL    HW223592   1.841   5.734   3.459 -0.8562  0.5433 -0.2284
 5965SOL    HW323593   1.842   5.802   3.594  0.5650 -0.5973  0.3593
 5965SOL    MW423594   1.815   5.737   3.542 -0.8092  0.2989 -0.0121
 5966SOL     OW23595   4.607   4.750   2.535 -0.2745  0.3338 -0.5179
 5966SOL    HW223596   4.632   4.828   2.584 -0.0230  0.0293 -0.1551
 5966SOL    HW323597   4.611   4.776   2.443  1.9123  0.1542 -0.5165
 5966SOL    MW423598   4.611   4.764   2.529 -0.1758  0.2141  0.0193
 5967SOL     OW23599   2.004   1.586   5.007 -0.5548 -0.4848  0.3291
 5967SOL    HW223600   2.094   1.601   4.981 -0.2249 -0.7244  1.3016
 5967SOL    HW323601   1.996   1.491   5.016 -0.4893 -0.3844  1.6394
 5967SOL    MW423602   2.015   1.575   5.005 -0.0999 -0.2358  0.2661
 5968SOL     OW23603   6.054   1.605   5.987  0.0976  0.1145 -0.5885
 5968SOL    HW223604   6.003   1.601   5.906  1.4263 -0.4427 -1.4290
 5968SOL    HW323605   6.039   1.693   6.020 -1.6180 -0.1083 -0.6309
 5968SOL    MW423606   6.045   1.616   5.981 -0.2484 -0.1910 -0.4916
 5969SOL     OW23607   5.282   5.168   2.847 -0.3947 -0.5847  0.4106
 5969SOL    HW223608   5.237   5.202   2.770 -0.9668 -0.2607  0.8803
 5969SOL    HW323609   5.351   5.231   2.865 -0.6380 -0.3478  0.5156
 5969SOL    MW423610   5.285   5.181   2.839  0.2169  0.1790  0.2759
 5970SOL     OW23611   4.142   6.380   2.476  0.5134 -0.3125  0.0712
 5970SOL    HW223612   4.174   6.314   2.414 -0.8837  0.5098 -1.6181
 5970SOL    HW323613   4.090   6.331   2.539  0.9813 -1.0360 -0.0933
 5970SOL    MW423614   4.139   6.365   2.476 -0.1531  0.3054  0.4408
 5971SOL     OW23615   4.874   0.265   5.478  0.0850 -0.0771 -0.3239
 5971SOL    HW223616   4.887   0.360   5.480  0.4768 -0.1514  0.7231
 5971SOL    HW323617   4.948   0.232   5.428  0.3379  0.0984 -0.0666
 5971SOL    MW423618   4.885   0.273   5.472 -0.5872  0.3147  0.0330
 5972SOL     OW23619   0.965   2.145   2.592 -0.2595  0.6896 -0.3362
 5972SOL    HW223620   1.022   2.144   2.514 -0.7905 -1.6031 -0.7795
 5972SOL    HW323621   0.914   2.225   2.584  3.6207  3.5723  0.7075
 5972SOL    MW423622   0.966   2.155   2.580  0.0790 -0.8022  0.1188
 5973SOL     OW23623   4.046   3.778   3.128 -0.0992  0.1737 -0.0854
 5973SOL    HW223624   4.022   3.811   3.215  3.0920  2.2975  0.1837
 5973SOL    HW323625   4.123   3.724   3.144  1.8595  2.3036 -1.6729
 5973SOL    MW423626   4.053   3.776   3.142 -0.0191 -0.4380 -0.5785
 5974SOL     OW23627   6.210   6.238   3.150  0.1664 -0.8730  0.1544
 5974SOL    HW223628   6.126   6.199   3.174  0.1395 -0.4408  0.7915
 5974SOL    HW323629   6.224   6.211   3.059 -0.5861 -1.0776  0.0918
 5974SOL    MW423630   6.201   6.229   3.141  0.0888 -0.5038  0.2431
 5975SOL     OW23631   3.244   2.521   3.956  0.2495 -0.7703  0.3829
 5975SOL    HW223632   3.233   2.441   4.006  1.0687 -0.4236  1.1340
 5975SOL    HW323633   3.157   2.562   3.957  0.1006 -1.0906  0.9566
 5975SOL    MW423634   3.231   2.516   3.962 -0.0044 -0.0508 -0.8914
 5976SOL     OW23635   3.352   3.691   1.655 -0.4858  0.1728  0.3157
 5976SOL    HW223636   3.334   3.705   1.748 -0.2537 -0.6610  0.4938
 5976SOL    HW323637   3.437   3.647   1.653 -1.1162 -1.0781 -0.2037
 5976SOL    MW423638   3.361   3.687   1.667 -0.2838 -0.1466 -0.2163
 5977SOL     OW23639   5.566   3.170   0.822 -0.0266 -0.1008  0.1696
 5977SOL    HW223640   5.498   3.189   0.756  0.6823 -0.3484 -0.6557
 5977SOL    HW323641   5.534   3.211   0.902 -0.9106  0.2232 -0.3352
 5977SOL    MW423642   5.553   3.178   0.824 -0.1423  0.3949  0.6739
 5978SOL     OW23643   0.315   5.122   2.660 -0.3039 -0.5763  0.1720
 5978SOL    HW223644   0.284   5.199   2.612  1.3412 -0.1138 -0.1912
 5978SOL    HW323645   0.382   5.156   2.719  2.0122 -1.9647 -1.4850
 5978SOL    MW423646   0.320   5.137   2.661  0.4124 -0.2036 -0.1516
 5979SOL     OW23647   5.199   5.800   1.360  0.4923 -0.5804 -0.2352
 5979SOL    HW223648   5.211   5.792   1.455 -1.0052 -0.0801  0.0339
 5979SOL    HW323649   5.275   5.757   1.322  1.4256 -0.2586  1.1972
 5979SOL    MW423650   5.210   5.793   1.367  0.0282  0.1837  0.2816
 5980SOL     OW23651   5.502   1.798   3.371 -0.5584 -0.3412 -0.2656
 5980SOL    HW223652   5.479   1.751   3.451  0.8630 -0.3716  0.1468
 5980SOL    HW323653   5.471   1.888   3.386 -0.4602 -0.3907  0.2525
 5980SOL    MW423654   5.495   1.804   3.383 -0.4734  0.0833 -0.3972
 5981SOL     OW23655   2.064   0.740   6.071 -0.2758 -0.5546 -0.0834
 5981SOL    HW223656   2.056   0.832   6.094 -3.5382 -1.3567  2.9664
 5981SOL    HW323657   2.149   0.713   6.105 -0.0589  0.9696  0.6268
 5981SOL    MW423658   2.074   0.748   6.078  0.3330 -0.6505  0.6862
 5982SOL     OW23659   4.237   0.201   2.575 -0.3095 -0.0613 -0.1128
 5982SOL    HW223660   4.327   0.185   2.604 -0.4535 -0.1989  0.2690
 5982SOL    HW323661   4.211   0.121   2.531 -1.2119 -1.1816  2.2572
 5982SOL    MW423662   4.246   0.188   2.573  0.2728  0.4579  0.1938
 5983SOL     OW23663   4.365   1.553   1.779  0.5131  0.1224  0.7242
 5983SOL    HW223664   4.379   1.545   1.873  0.8220  1.0185  0.7635
 5983SOL    HW323665   4.278   1.593   1.770  0.7835  0.7158  0.6603
 5983SOL    MW423666   4.355   1.557   1.790 -0.7440  0.5447 -0.1555
 5984SOL     OW23667   0.531   3.687   2.123 -0.1245  1.0921 -0.0817
 5984SOL    HW223668   0.563   3.725   2.041 -0.1722  1.2122 -0.0456
 5984SOL    HW323669   0.606   3.641   2.160 -0.7682 -1.2648 -1.5083
 5984SOL    MW423670   0.545   3.686   2.117 -0.3729  1.0748 -0.1011
 5985SOL     OW23671   1.208   5.837   0.787 -0.0830  0.4302 -0.0609
 5985SOL    HW223672   1.200   5.810   0.695 -1.2016 -1.2362  0.4657
 5985SOL    HW323673   1.143   5.907   0.797 -1.1151 -0.4620 -0.2140
 5985SOL    MW423674   1.198   5.842   0.776 -0.4104 -0.0136  0.5361
 5986SOL     OW23675   2.739   2.568   2.721  0.2395 -0.1495 -0.2192
 5986SOL    HW223676   2.665   2.607   2.675 -0.1959 -1.3784 -0.5761
 5986SOL    HW323677   2.786   2.519   2.654  0.6414 -0.4486  0.2747
 5986SOL    MW423678   2.735   2.567   2.706 -0.6512  0.5672 -1.4003
 5987SOL     OW23679   1.280   1.302   3.779  0.1293 -0.1519 -0.5024
 5987SOL    HW223680   1.203   1.287   3.834  0.3904  1.4548  0.3506
 5987SOL    HW323681   1.280   1.228   3.719 -1.4253 -0.8007  0.2203
 5987SOL    MW423682   1.270   1.290   3.779 -0.5568 -0.2819 -0.0630
 5988SOL     OW23683   6.162   0.111   2.940  0.7177 -0.1699 -0.0661
 5988SOL    HW223684   6.126   0.151   2.861  0.3527  0.6598  0.4951
 5988SOL    HW323685   6.254   0.138   2.941  0.3387  1.2205  0.6108
 5988SOL    MW423686   6.169   0.120   2.930  0.2885 -0.0195  0.0083
 5989SOL     OW23687   0.999   6.192   4.787 -0.3626 -0.0167 -0.0333
 5989SOL    HW223688   0.911   6.181   4.752 -1.0989 -0.9025  1.9490
 5989SOL    HW323689   0.996   6.274   4.836 -0.1796 -0.1905  0.2758
 5989SOL    MW423690   0.987   6.201   4.789 -0.1686 -0.0886  0.3925
 5990SOL     OW23691   3.863   6.143   1.853  0.6920 -0.0379  0.4968
 5990SOL    HW223692   3.778   6.170   1.887  0.9112 -1.3368  2.2131
 5990SOL    HW323693   3.845   6.067   1.799  0.7621 -0.4581  1.0520
 5990SOL    MW423694   3.850   6.137   1.850  0.1873 -0.1168  0.3600
 5991SOL     OW23695   4.768   3.663   3.947 -0.2674  0.7610  0.1591
 5991SOL    HW223696   4.820   3.660   4.027 -0.5041  0.4210  0.3073
 5991SOL    HW323697   4.787   3.580   3.903  0.0718  1.0672 -0.2718
 5991SOL    MW423698   4.777   3.651   3.952 -0.9091  0.3611 -0.1273
 5992SOL     OW23699   2.446   1.641   4.247  0.0882 -0.6605  0.1415
 5992SOL    HW223700   2.486   1.689   4.319 -0.3782 -0.5287  0.3175
 5992SOL    HW323701   2.499   1.561   4.238  0.8183 -0.1638 -0.1006
 5992SOL    MW423702   2.458   1.637   4.255  0.4744 -0.2805  0.2141
 5993SOL     OW23703   3.171   1.567   5.959 -0.4261  0.1593  0.2831
 5993SOL    HW223704   3.171   1.499   6.026  1.5064  0.1388  0.3079
 5993SOL    HW323705   3.100   1.626   5.984  0.2811  0.1939  2.3978
 5993SOL    MW423706   3.161   1.566   5.971 -0.8242 -0.2785 -0.7843
 5994SOL     OW23707   5.999   5.188   1.463 -0.1564  0.4288  0.4217
 5994SOL    HW223708   5.980   5.180   1.556 -1.7544  0.7950  0.1495
 5994SOL    HW323709   6.058   5.115   1.444  0.4041  0.5130  1.7652
 5994SOL    MW423710   6.004   5.177   1.473  0.1778 -0.3610  0.4785
 5995SOL     OW23711   6.149   2.851   2.594 -0.4367 -0.1621 -0.5918
 5995SOL    HW223712   6.147   2.836   2.688 -0.7307 -1.8893 -0.8486
 5995SOL    HW323713   6.058   2.839   2.566 -0.7517  2.3236 -0.8528
 5995SOL    MW423714   6.137   2.848   2.603  0.2087 -0.0620 -0.1243
 5996SOL     OW23715   0.622   2.435   2.504  0.3816  0.4033  0.5296
 5996SOL    HW223716   0.573   2.516   2.518  0.1144  1.5528 -4.7668
 5996SOL    HW323717   0.709   2.463   2.477  0.4125 -0.9990 -1.0172
 5996SOL    MW423718   0.627   2.449   2.502 -0.4283 -0.2135  0.2476
 5997SOL     OW23719   5.934   1.547   3.430  0.0082 -0.5273 -0.0794
 5997SOL    HW223720   5.998   1.617   3.443  0.5398 -1.0823  0.3281
 5997SOL    HW323721   5.880   1.577   3.356 -0.3920  0.7554  0.7065
 5997SOL    MW423722   5.935   1.560   3.422 -0.7961  0.2558 -0.2028
 5998SOL     OW23723   1.388   0.092   3.447 -0.1641 -0.2558 -0.2028
 5998SOL    HW223724   1.355   0.006   3.474 -0.3835 -0.7375 -1.9366
 5998SOL    HW323725   1.316   0.132   3.399  0.5011  0.2224 -0.8208
 5998SOL    MW423726   1.374   0.086   3.445 -0.3517 -0.7570 -0.3668
 5999SOL     OW23727   3.911   3.600   2.070  0.1150 -0.1452  0.2228
 5999SOL    HW223728   3.894   3.591   2.164 -1.0735 -0.0840  0.0327
 5999SOL    HW323729   3.983   3.540   2.052  1.9454  1.5275  1.5872
 5999SOL    MW423730   3.918   3.591   2.080 -0.3460 -0.1236 -0.3856
 6000SOL     OW23731   0.986   3.913   0.532  0.5590 -0.5742 -0.4350
 6000SOL    HW223732   0.974   3.984   0.595  2.2832 -0.3851 -0.2728
 6000SOL    HW323733   0.906   3.861   0.539  1.0079 -1.0405  2.5497
 6000SOL    MW423734   0.974   3.916   0.542  0.0576 -0.1759  0.8929
 6001SOL     OW23735   0.947   5.898   4.442  0.0192  0.0200  0.9352
 6001SOL    HW223736   0.879   5.913   4.508 -0.1255  1.8829  0.4205
 6001SOL    HW323737   1.026   5.880   4.494 -0.4495 -0.2638  1.5715
 6001SOL    MW423738   0.949   5.898   4.458 -0.4278 -0.2800 -0.3327
 6002SOL     OW23739   4.078   0.531   5.444  0.5395 -0.2689 -0.2437
 6002SOL    HW223740   4.132   0.471   5.393 -0.1920  0.1400 -1.5632
 6002SOL    HW323741   4.140   0.579   5.499  1.1266 -2.2220  0.8875
 6002SOL    MW423742   4.093   0.530   5.444  0.6843 -0.0331 -0.1533
 6003SOL     OW23743   4.559   2.345   6.044  0.3221  0.1691 -0.0097
 6003SOL    HW223744   4.591   2.360   5.956  0.4282  0.5934  0.0967
 6003SOL    HW323745   4.566   2.250   6.057  1.8646  0.2840  0.1407
 6003SOL    MW423746   4.564   2.334   6.034  0.8890 -0.0353 -0.0782
 6004SOL     OW23747   5.681   0.607   4.711  0.2810 -0.6982 -0.3897
 6004SOL    HW223748   5.690   0.512   4.702 -0.1631 -0.6438 -1.6081
 6004SOL    HW323749   5.770   0.638   4.728  0.1214 -1.5227  2.4259
 6004SOL    MW423750   5.694   0.599   4.712 -0.3103 -0.3107 -0.2251
 6005SOL     OW23751   1.963   3.731   5.432  0.0106 -0.3463 -0.7246
 6005SOL    HW223752   2.010   3.671   5.373 -0.7133  0.2341 -1.9438
 6005SOL    HW323753   1.988   3.818   5.403  0.6356 -0.0384  0.6888
 6005SOL    MW423754   1.972   3.734   5.420 -0.1689  0.0360 -0.3983
 6006SOL     OW23755   3.106   4.822   0.417  0.5357 -0.6797  0.2195
 6006SOL    HW223756   3.025   4.810   0.368  1.1894 -2.4296 -0.5237
 6006SOL    HW323757   3.080   4.815   0.509 -0.2723 -0.4244  0.0154
 6006SOL    MW423758   3.092   4.819   0.423  0.1287  0.7665  0.3251
 6007SOL     OW23759   3.114   2.353   4.686  0.4452  0.7816 -0.4334
 6007SOL    HW223760   3.182   2.407   4.648  0.0936  2.2731  0.9551
 6007SOL    HW323761   3.041   2.413   4.701 -0.7789 -0.5339 -0.8337
 6007SOL    MW423762   3.113   2.368   4.683  0.1694 -0.2851  0.6798
 6008SOL     OW23763   3.161   0.984   0.183 -0.2434  0.0724 -0.0029
 6008SOL    HW223764   3.242   1.021   0.217 -1.1085  1.9442  0.1338
 6008SOL    HW323765   3.096   1.000   0.251 -0.6817 -1.8017  0.0928
 6008SOL    MW423766   3.163   0.991   0.196  0.1931 -0.3102 -0.2064
 6009SOL     OW23767   3.421   4.616   4.627  0.1594  0.0878 -0.4336
 6009SOL    HW223768   3.514   4.598   4.613  0.1220  0.8026 -1.8938
 6009SOL    HW323769   3.376   4.536   4.601  0.3166  0.1689 -0.9716
 6009SOL    MW423770   3.427   4.603   4.621  0.1516 -0.3835  0.1943
 6010SOL     OW23771   5.121   4.356   0.937 -0.2527  0.2502  0.0253
 6010SOL    HW223772   5.169   4.436   0.956  0.8977 -0.3677 -0.1768
 6010SOL    HW323773   5.089   4.367   0.848 -1.7348  1.2511  0.6430
 6010SOL    MW423774   5.123   4.368   0.928  0.6575 -0.2409 -0.2564
 6011SOL     OW23775   5.632   2.135   2.615 -0.7763  0.4293  0.0789
 6011SOL    HW223776   5.625   2.231   2.611  1.2905  0.7456  1.7075
 6011SOL    HW323777   5.603   2.113   2.703  1.1480 -0.0709  0.6516
 6011SOL    MW423778   5.627   2.145   2.626  0.5530 -0.1496  0.6954
 6012SOL     OW23779   5.489   0.667   5.851  0.8930  0.6199 -0.6634
 6012SOL    HW223780   5.473   0.630   5.764 -0.5876 -2.1935  0.6817
 6012SOL    HW323781   5.404   0.702   5.878  1.4802  2.0108 -0.5301
 6012SOL    MW423782   5.476   0.667   5.843  0.3662  0.2839 -0.1598
 6013SOL     OW23783   2.934   5.049   1.062  0.1444 -0.0258  0.8942
 6013SOL    HW223784   2.983   5.087   0.989 -0.5035  0.5727  0.7615
 6013SOL    HW323785   2.926   5.121   1.125 -0.9703  0.0249  0.7085
 6013SOL    MW423786   2.940   5.064   1.061 -0.0072 -0.3651  0.3094
 6014SOL     OW23787   4.252   3.727   1.094 -1.0655  0.6572 -0.2440
 6014SOL    HW223788   4.303   3.793   1.141  0.2342 -0.0529 -0.6390
 6014SOL    HW323789   4.259   3.649   1.148 -0.8388  0.2609 -0.8421
 6014SOL    MW423790   4.259   3.726   1.107  0.2919 -0.6454 -0.1236
 6015SOL     OW23791   5.353   1.775   5.355 -0.3098 -0.0231 -0.2712
 6015SOL    HW223792   5.402   1.766   5.273  3.8105  2.6793  1.5495
 6015SOL    HW323793   5.303   1.856   5.344 -1.0540 -0.5200 -0.6271
 6015SOL    MW423794   5.353   1.785   5.343  0.4357 -0.0206 -0.5962
 6016SOL     OW23795   4.769   1.332   1.020 -0.0149 -0.2521  0.4560
 6016SOL    HW223796   4.713   1.385   1.075  2.0493  0.4362  2.0151
 6016SOL    HW323797   4.831   1.290   1.080  4.1799  2.7176 -1.2996
 6016SOL    MW423798   4.770   1.333   1.035 -0.7919  0.6761 -0.7651
 6017SOL     OW23799   3.061   4.528   0.418 -0.3683  0.0079  0.6836
 6017SOL    HW223800   3.094   4.616   0.438 -0.1139  0.3611 -1.1178
 6017SOL    HW323801   3.092   4.474   0.491  0.7698  1.1219  1.0614
 6017SOL    MW423802   3.070   4.533   0.430 -0.0212  0.4406 -0.0210
 6018SOL     OW23803   4.636   5.711   2.416 -0.1561 -0.5245  0.0537
 6018SOL    HW223804   4.550   5.705   2.373  0.5397 -0.3755 -1.4016
 6018SOL    HW323805   4.624   5.662   2.498 -1.5706 -0.6874 -0.2109
 6018SOL    MW423806   4.623   5.704   2.421  0.7725 -0.2539  0.7642
 6019SOL     OW23807   5.722   2.164   6.160 -0.2865 -0.2306  0.3004
 6019SOL    HW223808   5.689   2.130   6.243 -0.9373  2.4972  1.2677
 6019SOL    HW323809   5.643   2.191   6.112  0.1516 -0.7021 -0.7045
 6019SOL    MW423810   5.707   2.163   6.165 -0.6352  0.0806 -0.2060
 6020SOL     OW23811   5.307   3.132   5.133 -0.1836  0.1543 -0.1885
 6020SOL    HW223812   5.248   3.121   5.207  1.3391  2.0567  1.4301
 6020SOL    HW323813   5.391   3.099   5.164  0.5255  1.1439 -0.9677
 6020SOL    MW423814   5.311   3.127   5.147 -0.1713 -0.4868 -0.3521
 6021SOL     OW23815   0.372   3.009   2.215  0.0678 -0.6983  0.4546
 6021SOL    HW223816   0.394   3.019   2.308  2.0851 -0.1946 -0.0340
 6021SOL    HW323817   0.285   3.048   2.207  0.7445  1.2110  1.7374
 6021SOL    MW423818   0.363   3.015   2.226  0.7845 -0.3705  0.9598
 6022SOL     OW23819   5.579   3.074   2.612 -0.3263  0.1146  0.0710
 6022SOL    HW223820   5.643   3.045   2.677  1.1727  0.3674 -1.2272
 6022SOL    HW323821   5.599   3.167   2.599 -2.4007  0.7801  1.1964
 6022SOL    MW423822   5.591   3.083   2.619 -0.0151 -1.1613  0.6300
 6023SOL     OW23823   4.843   4.310   5.030  0.4731  0.2635  0.8060
 6023SOL    HW223824   4.750   4.305   5.051  0.4383 -1.1127  0.3715
 6023SOL    HW323825   4.853   4.397   4.990 -1.0510 -0.3520 -1.0991
 6023SOL    MW423826   4.832   4.321   5.027  0.1515 -0.4533  0.0133
 6024SOL     OW23827   0.982   6.410   6.329  0.2385  0.1381  0.4562
 6024SOL    HW223828   0.967   6.426   6.422  0.4282 -1.1694  0.7281
 6024SOL    HW323829   1.074   6.430   6.315  1.1695 -2.9853  1.3604
 6024SOL    MW423830   0.992   6.415   6.339 -0.1808 -0.3902  0.6385
 6025SOL     OW23831   6.007   4.352   4.186 -0.3818  0.3154  0.3405
 6025SOL    HW223832   6.097   4.371   4.159 -0.5258  1.2948  0.4831
 6025SOL    HW323833   5.982   4.428   4.239 -1.1073 -0.2038  0.7482
 6025SOL    MW423834   6.016   4.365   4.189 -0.3921 -0.0946  0.0219
 6026SOL     OW23835   2.115   6.392   1.251 -0.1929  0.7883 -0.0221
 6026SOL    HW223836   2.054   6.336   1.298 -1.0872  0.9048 -0.9956
 6026SOL    HW323837   2.201   6.356   1.272 -0.4039  1.7679  2.8950
 6026SOL    MW423838   2.118   6.380   1.260 -0.0188 -0.0261 -0.4576
 6027SOL     OW23839   0.410   0.447   1.153  0.1686  0.0942 -0.5504
 6027SOL    HW223840   0.433   0.410   1.068 -0.0567  0.0490 -0.5911
 6027SOL    HW323841   0.343   0.513   1.134  0.3319  0.2931 -0.4417
 6027SOL    MW423842   0.404   0.451   1.139 -0.1825 -0.2520 -0.3731
 6028SOL     OW23843   4.154   2.494   2.176  0.2060  0.6818  0.4564
 6028SOL    HW223844   4.060   2.483   2.186  0.4640 -1.8638  0.7705
 6028SOL    HW323845   4.164   2.580   2.137 -2.1753  1.4501  1.3355
 6028SOL    MW423846   4.143   2.504   2.172  0.2686 -0.3749 -0.0278
 6029SOL     OW23847   3.018   0.238   3.329 -0.4934 -0.8394  0.1500
 6029SOL    HW223848   3.058   0.320   3.299 -0.8256 -0.6382  0.2440
 6029SOL    HW323849   3.053   0.225   3.417 -0.3676 -0.8456  0.0984
 6029SOL    MW423850   3.028   0.247   3.337 -0.2387  0.4720 -0.7187
 6030SOL     OW23851   3.666   5.651   4.742 -0.0553  0.0394 -0.4269
 6030SOL    HW223852   3.586   5.635   4.792  0.7398  0.1973  0.9364
 6030SOL    HW323853   3.651   5.606   4.658 -1.4927 -0.0710 -0.1338
 6030SOL    MW423854   3.654   5.643   4.737 -0.0595 -0.1833  0.1213
 6031SOL     OW23855   2.451   6.160   5.814  0.1381 -0.3429  0.3240
 6031SOL    HW223856   2.529   6.104   5.811  0.9002  0.6958  0.4166
 6031SOL    HW323857   2.388   6.116   5.757  0.9840 -0.9148 -0.1972
 6031SOL    MW423858   2.453   6.147   5.806 -0.2334 -0.4211  0.1098
 6032SOL     OW23859   6.079   4.271   3.923 -0.1864  0.0995  0.8338
 6032SOL    HW223860   6.033   4.300   4.001 -0.5831  0.5577  0.4383
 6032SOL    HW323861   6.052   4.180   3.911 -1.3339  0.4775  0.3737
 6032SOL    MW423862   6.070   4.263   3.931  0.2033 -0.0364  0.3847
 6033SOL     OW23863   3.844   0.478   4.333 -0.1477 -0.1760  0.3292
 6033SOL    HW223864   3.762   0.431   4.350  0.3349 -1.5775 -0.9578
 6033SOL    HW323865   3.818   0.554   4.281 -0.7179 -0.1491  0.6418
 6033SOL    MW423866   3.830   0.482   4.328 -0.2735 -0.6548  0.6404
 6034SOL     OW23867   3.951   2.198   2.841 -0.1426  0.1406  0.2127
 6034SOL    HW223868   4.035   2.219   2.881  0.5293 -0.5183 -0.7867
 6034SOL    HW323869   3.971   2.126   2.781 -1.7188 -1.0904  1.0938
 6034SOL    MW423870   3.965   2.191   2.838 -0.7916  0.0946 -0.0797
 6035SOL     OW23871   3.889   5.241   2.167  0.3134 -0.4372 -0.0318
 6035SOL    HW223872   3.909   5.334   2.177 -1.4852 -0.0415  0.1915
 6035SOL    HW323873   3.869   5.231   2.074 -0.6648 -0.3479  0.1673
 6035SOL    MW423874   3.889   5.252   2.156  0.5787 -0.4895 -0.3495
 6036SOL     OW23875   1.281   3.053   4.610  0.2332 -0.0858 -0.7373
 6036SOL    HW223876   1.221   3.007   4.550 -0.2906 -0.2275 -0.1211
 6036SOL    HW323877   1.295   2.990   4.681 -1.0982  0.9601  0.5100
 6036SOL    MW423878   1.275   3.038   4.611  0.4558 -0.1973 -0.0754
 6037SOL     OW23879   6.320   5.759   1.569  0.1437 -0.2277 -0.2969
 6037SOL    HW223880   6.249   5.696   1.557 -0.8726  0.4535  1.6550
 6037SOL    HW323881   6.315   5.782   1.662  1.1408  1.9304 -0.7306
 6037SOL    MW423882   6.310   5.753   1.579 -0.3228 -0.4148 -0.4969
 6038SOL     OW23883   5.488   0.816   2.162  0.2180 -0.2538 -0.6807
 6038SOL    HW223884   5.559   0.877   2.182 -1.9213  1.4493  2.4131
 6038SOL    HW323885   5.507   0.739   2.215 -0.3544  0.3132  0.3650
 6038SOL    MW423886   5.500   0.814   2.171  0.1083 -0.5662 -0.1439
 6039SOL     OW23887   2.393   5.843   6.022  0.1753 -0.0652 -0.3523
 6039SOL    HW223888   2.389   5.932   6.055  0.2109 -0.3008  0.2984
 6039SOL    HW323889   2.366   5.788   6.096  1.5486 -0.6940 -0.2957
 6039SOL    MW423890   2.389   5.847   6.036 -0.2715  0.0015  0.5055
 6040SOL     OW23891   3.064   3.156   5.611  0.1137  0.7507 -0.2083
 6040SOL    HW223892   3.099   3.245   5.616  0.2791  0.6169  2.1966
 6040SOL    HW323893   3.137   3.100   5.639 -0.8515  0.1534  1.2263
 6040SOL    MW423894   3.078   3.161   5.615 -0.1042 -0.0220  0.7589
 6041SOL     OW23895   1.992   5.231   1.009  0.0259  0.7861 -0.0122
 6041SOL    HW223896   1.937   5.157   0.986  0.3228  0.6393 -0.2590
 6041SOL    HW323897   1.930   5.301   1.032 -0.3879  1.4795 -2.7785
 6041SOL    MW423898   1.977   5.231   1.009 -0.5523  0.0165 -0.0759
 6042SOL     OW23899   1.187   0.215   0.062 -0.5837 -0.0526 -0.6804
 6042SOL    HW223900   1.205   0.175  -0.023 -0.4643 -1.1632 -0.1487
 6042SOL    HW323901   1.119   0.159   0.100 -0.4941  0.3173  0.0308
 6042SOL    MW423902   1.180   0.202   0.056 -0.2008  0.3025  0.1562
 6043SOL     OW23903   0.891   6.267   1.520  0.1107 -0.2299  0.3095
 6043SOL    HW223904   0.829   6.339   1.514  1.5174  0.9400 -0.8956
 6043SOL    HW323905   0.864   6.205   1.452  0.8446  0.7787 -0.9412
 6043SOL    MW423906   0.879   6.268   1.511  0.0270 -0.7025  0.2584
 6044SOL     OW23907   5.505   1.705   2.381 -0.2653  0.1157  0.1947
 6044SOL    HW223908   5.531   1.644   2.450  3.2260  1.1969  0.0123
 6044SOL    HW323909   5.505   1.791   2.424 -0.1849  0.5478 -0.6534
 6044SOL    MW423910   5.508   1.709   2.396  0.1014  0.6807  0.0212
 6045SOL     OW23911   1.919   3.627   2.623  0.4267  0.0042  0.3162
 6045SOL    HW223912   1.851   3.643   2.689 -1.1511 -0.0653 -1.2343
 6045SOL    HW323913   1.979   3.565   2.665 -1.8107 -1.9237  0.8821
 6045SOL    MW423914   1.918   3.621   2.637  0.1545  0.3211  0.1863
 6046SOL     OW23915   4.997   2.645   0.052 -0.3768 -0.5760  0.0744
 6046SOL    HW223916   5.033   2.560   0.078 -1.0576 -1.2369 -1.0065
 6046SOL    HW323917   5.067   2.708   0.070  0.7649 -1.5983 -0.5970
 6046SOL    MW423918   5.011   2.642   0.058 -0.1868  0.4004  0.0452
 6047SOL     OW23919   5.525   2.739   1.348  0.1301 -0.4565  0.1156
 6047SOL    HW223920   5.557   2.705   1.264 -0.3142 -3.4227  1.0134
 6047SOL    HW323921   5.602   2.739   1.404  0.3426  1.1506 -0.1347
 6047SOL    MW423922   5.540   2.734   1.344 -0.2043  0.1697  0.0598
 6048SOL     OW23923   0.130   2.994   6.405 -0.1472  0.3964  0.3538
 6048SOL    HW223924   0.060   2.950   6.358  0.6008 -0.4178 -0.0279
 6048SOL    HW323925   0.115   3.087   6.389 -1.6756  0.2881  1.0628
 6048SOL    MW423926   0.119   3.000   6.397 -0.0029 -0.1053  0.8396
 6049SOL     OW23927   0.650   0.358   1.296  0.5205  0.1066 -0.1525
 6049SOL    HW223928   0.700   0.410   1.234 -0.3149  0.9771 -0.1181
 6049SOL    HW323929   0.558   0.373   1.272  0.1067  1.4124  1.9724
 6049SOL    MW423930   0.644   0.367   1.285  0.2972  0.2664 -0.0349
 6050SOL     OW23931   2.146   2.177   5.155  0.4257  0.3421  0.4094
 6050SOL    HW223932   2.203   2.141   5.222  1.2758 -1.3851 -1.1575
 6050SOL    HW323933   2.202   2.237   5.105  0.3737  0.0337 -0.0245
 6050SOL    MW423934   2.161   2.180   5.157  0.1030  0.3947 -0.0518
 6051SOL     OW23935   5.623   4.376   3.615 -0.6067 -0.0407  1.2152
 6051SOL    HW223936   5.677   4.454   3.608 -2.2048  1.1851  1.9688
 6051SOL    HW323937   5.670   4.309   3.565 -0.0882  1.8815 -1.0262
 6051SOL    MW423938   5.636   4.377   3.608  0.7674  0.9201 -0.4684
 6052SOL     OW23939   3.497   0.782   4.541  0.0704 -0.3067 -0.3646
 6052SOL    HW223940   3.534   0.750   4.624  0.9304  0.7254 -0.3383
 6052SOL    HW323941   3.404   0.758   4.546 -0.0516  0.3681  1.2287
 6052SOL    MW423942   3.489   0.775   4.553  0.7618 -0.1615 -0.0390
 6053SOL     OW23943   1.520   2.667   4.326  0.0394  0.0455 -0.4946
 6053SOL    HW223944   1.508   2.672   4.231 -1.3635  0.7640 -0.3043
 6053SOL    HW323945   1.567   2.747   4.349 -1.8037  1.1404 -0.3195
 6053SOL    MW423946   1.525   2.678   4.317  0.2894 -0.8528  0.2433
 6054SOL     OW23947   3.450   0.312   0.225 -0.4000 -0.4486 -0.2732
 6054SOL    HW223948   3.483   0.342   0.141  0.3424 -0.5458 -0.0271
 6054SOL    HW323949   3.496   0.229   0.241 -0.4615 -0.3872  0.2659
 6054SOL    MW423950   3.460   0.305   0.216  0.5222 -0.2889  0.3617
 6055SOL     OW23951   3.383   5.362   0.261  0.2315 -0.5562  0.1571
 6055SOL    HW223952   3.439   5.435   0.288  1.0181 -0.6118 -1.2566
 6055SOL    HW323953   3.335   5.338   0.341  0.7953  0.7527  0.9177
 6055SOL    MW423954   3.384   5.368   0.275 -0.3406  0.6018 -0.0982
 6056SOL     OW23955   3.428   1.812   0.036 -0.0812  0.0065 -0.0017
 6056SOL    HW223956   3.491   1.766   0.092  0.5240  1.8650  0.9299
 6056SOL    HW323957   3.355   1.832   0.095 -0.7306 -0.5232 -0.6186
 6056SOL    MW423958   3.426   1.808   0.051  1.0554 -0.1922 -0.0317
 6057SOL     OW23959   1.015   3.322   6.057  0.1348  0.4993 -0.1532
 6057SOL    HW223960   1.076   3.254   6.083  0.5300  1.0717  0.4649
 6057SOL    HW323961   1.038   3.342   5.966 -1.4916 -1.7637 -1.1405
 6057SOL    MW423962   1.026   3.316   6.049  0.4784 -0.5060 -0.3700
 6058SOL     OW23963   5.957   5.664   2.499  0.2609  0.3104  1.1747
 6058SOL    HW223964   5.866   5.636   2.494  0.5953 -0.9730  1.7729
 6058SOL    HW323965   5.952   5.755   2.528 -0.8616  0.8520 -0.5579
 6058SOL    MW423966   5.944   5.673   2.502 -0.7467  0.4754 -0.0801
 6059SOL     OW23967   1.847   2.427   1.967 -0.1445 -0.3222  0.3189
 6059SOL    HW223968   1.823   2.446   1.876 -2.8646 -0.0583  0.9895
 6059SOL    HW323969   1.924   2.371   1.960  0.0825  0.1740 -2.1253
 6059SOL    MW423970   1.854   2.422   1.954 -0.7625  0.4191  0.5544
 6060SOL     OW23971   2.455   1.273   4.074  0.2911  0.3039 -0.1108
 6060SOL    HW223972   2.473   1.251   3.982  2.1656  0.0037  0.2748
 6060SOL    HW323973   2.367   1.309   4.074  0.1517  0.0463 -1.9884
 6060SOL    MW423974   2.446   1.275   4.062  0.2369 -0.4378 -0.3551
 6061SOL     OW23975   1.109   5.786   4.659  0.2374 -0.5055  0.5176
 6061SOL    HW223976   1.038   5.725   4.682 -0.6263 -0.2551 -1.2396
 6061SOL    HW323977   1.167   5.734   4.603  0.0563 -0.0278 -0.1288
 6061SOL    MW423978   1.107   5.771   4.654 -0.2021 -0.0453  0.1508
 6062SOL     OW23979   3.635   1.425   5.343  0.3233  0.1695 -0.6043
 6062SOL    HW223980   3.670   1.344   5.307  0.8639 -0.9299  2.1359
 6062SOL    HW323981   3.705   1.489   5.332  1.4309 -0.7738  0.5533
 6062SOL    MW423982   3.649   1.423   5.337 -0.2255 -0.4956 -0.3632
 6063SOL     OW23983   1.571   4.710   2.515  0.3634  0.2516  0.1678
 6063SOL    HW223984   1.508   4.781   2.503 -0.4772 -0.8297 -2.8986
 6063SOL    HW323985   1.524   4.646   2.569 -0.6706  0.1128 -0.8409
 6063SOL    MW423986   1.556   4.711   2.520 -0.1111  0.4294  0.3389
 6064SOL     OW23987   4.851   6.101   0.024  0.7613 -0.0650 -0.4315
 6064SOL    HW223988   4.861   6.171   0.089 -0.3795 -1.2411  1.0942
 6064SOL    HW323989   4.814   6.144  -0.053 -1.1846  0.8355  0.9412
 6064SOL    MW423990   4.847   6.116   0.022  0.1892  0.4082  0.1523
 6065SOL     OW23991   3.479   1.511   5.554 -0.2843 -0.4881  0.0440
 6065SOL    HW223992   3.473   1.606   5.543  0.1865 -0.3677  0.7137
 6065SOL    HW323993   3.528   1.481   5.478  0.2233 -0.0937  0.2093
 6065SOL    MW423994   3.485   1.519   5.543 -0.5228  0.0443  0.6994
 6066SOL     OW23995   2.865   2.518   0.555 -0.1169  0.3378 -0.4519
 6066SOL    HW223996   2.871   2.605   0.596  1.5119 -1.1581  2.8659
 6066SOL    HW323997   2.956   2.493   0.539 -0.4486 -1.3766  0.1597
 6066SOL    MW423998   2.878   2.526   0.559  0.3732 -0.0082 -0.4296
 6067SOL     OW23999   4.567   3.831   0.491  0.3001  0.2149 -0.0741
 6067SOL    HW224000   4.595   3.740   0.487 -0.4299 -0.2092  2.5952
 6067SOL    HW324001   4.648   3.881   0.481  1.2658 -0.8572  1.7959
 6067SOL    MW424002   4.582   3.826   0.489 -0.2625  0.2649  0.1365
 6068SOL     OW24003   4.971   3.057   4.133 -0.0081  0.3126  0.1796
 6068SOL    HW224004   4.954   3.025   4.222  0.4705 -0.2130  0.0819
 6068SOL    HW324005   5.064   3.077   4.132 -0.0585  0.5373 -0.1441
 6068SOL    MW424006   4.981   3.056   4.145  0.0039 -0.1837 -0.1546
 6069SOL     OW24007   5.917   5.753   5.655 -0.0744  0.0480 -0.4123
 6069SOL    HW224008   5.866   5.825   5.618  0.8457  0.4519 -0.9246
 6069SOL    HW324009   5.944   5.785   5.741 -2.4435 -0.9974  0.7894
 6069SOL    MW424010   5.914   5.767   5.662  0.1981 -0.2083  0.8446
 6070SOL     OW24011   0.640   0.385   0.962 -0.8693 -0.1272  0.0900
 6070SOL    HW224012   0.603   0.299   0.982 -0.9986  0.2237  1.4407
 6070SOL    HW324013   0.650   0.385   0.866  1.1494 -2.4314  0.2194
 6070SOL    MW424014   0.636   0.374   0.952  0.7698 -0.4975  0.5533
 6071SOL     OW24015   1.804   3.332   1.375  0.1549 -0.5274 -0.2227
 6071SOL    HW224016   1.772   3.262   1.431 -0.4260  0.8719  1.2706
 6071SOL    HW324017   1.745   3.405   1.391  0.0448 -0.0078 -2.6021
 6071SOL    MW424018   1.792   3.332   1.385 -0.0451  0.3176 -0.6824
 6072SOL     OW24019   1.293   0.443   3.429 -0.5324  0.0161 -0.0747
 6072SOL    HW224020   1.296   0.384   3.505 -0.0304 -1.3037 -1.0732
 6072SOL    HW324021   1.378   0.431   3.386 -0.8580  0.6364 -0.9201
 6072SOL    MW424022   1.305   0.433   3.433 -0.2899 -0.2998  0.2328
 6073SOL     OW24023   2.026   3.239   3.935 -0.1452  0.1638 -0.1289
 6073SOL    HW224024   1.977   3.211   4.013 -0.0688 -0.4387 -0.2941
 6073SOL    HW324025   2.025   3.335   3.939  1.1527  0.1509  1.4363
 6073SOL    MW424026   2.020   3.248   3.946 -0.4691 -0.5424  0.1853
 6074SOL     OW24027   6.027   4.333   2.099  0.2853  0.1734 -0.2251
 6074SOL    HW224028   5.965   4.263   2.122 -0.0050  0.2781 -0.6947
 6074SOL    HW324029   6.106   4.311   2.149 -0.3149  0.3687  0.8553
 6074SOL    MW424030   6.029   4.321   2.109 -0.2972  0.4457 -0.5162
 6075SOL     OW24031   3.203   0.031   1.616 -0.6068  0.2480  0.3288
 6075SOL    HW224032   3.242   0.036   1.703 -3.2493 -0.1840  1.6676
 6075SOL    HW324033   3.161  -0.055   1.613 -0.2311  0.0766 -1.5662
 6075SOL    MW424034   3.202   0.020   1.627  0.1419  0.0227 -0.7048
 6076SOL     OW24035   1.176   3.119   5.459 -0.5958 -0.7841 -0.3973
 6076SOL    HW224036   1.131   3.193   5.498 -0.2300 -1.4773  1.4411
 6076SOL    HW324037   1.107   3.068   5.416 -1.0914 -0.2637 -0.2274
 6076SOL    MW424038   1.161   3.122   5.458 -0.3343 -0.0787  0.2053
 6077SOL     OW24039   2.768   1.644   0.912  0.4518  0.2805 -0.4906
 6077SOL    HW224040   2.703   1.592   0.865  1.4319  0.1693 -1.7992
 6077SOL    HW324041   2.831   1.669   0.844  1.7084  0.4733  0.7173
 6077SOL    MW424042   2.768   1.641   0.897  0.3104  0.4136 -0.2391
 6078SOL     OW24043   2.587   1.797   4.443  0.5398 -0.0678  0.1668
 6078SOL    HW224044   2.648   1.740   4.489  0.3814 -0.7262 -0.4181
 6078SOL    HW324045   2.640   1.873   4.418  1.5531 -1.2711 -1.6180
 6078SOL    MW424046   2.602   1.799   4.446 -0.0664 -0.0352  0.4430
 6079SOL     OW24047   1.290   5.006   4.876 -0.3629 -0.0519  0.7282
 6079SOL    HW224048   1.285   5.072   4.807 -0.0476 -0.1516  0.6101
 6079SOL    HW324049   1.378   5.015   4.912 -0.4945 -0.0656  1.0516
 6079SOL    MW424050   1.301   5.016   4.872  0.2682 -0.2064 -0.0557
 6080SOL     OW24051   0.994   3.300   5.593  0.5424  0.2764 -0.1957
 6080SOL    HW224052   0.913   3.339   5.559  0.9046  2.0904  0.8686
 6080SOL    HW324053   0.971   3.210   5.615 -1.3490  0.9007  0.5671
 6080SOL    MW424054   0.980   3.294   5.591  0.0937  0.0817 -0.2434
 6081SOL     OW24055   2.967   3.059   5.846  0.3988  0.8351 -0.1907
 6081SOL    HW224056   2.934   3.123   5.909 -1.3305  0.5356 -0.7476
 6081SOL    HW324057   2.970   3.107   5.763  0.1077  0.4907 -0.4028
 6081SOL    MW424058   2.963   3.074   5.843 -0.1255 -0.2420 -0.3494
 6082SOL     OW24059   2.965   1.679   3.952  0.2196 -0.3063  0.0840
 6082SOL    HW224060   2.936   1.745   4.015 -0.3981  0.9104 -1.4025
 6082SOL    HW324061   3.036   1.722   3.904  0.0082 -0.8349 -0.7172
 6082SOL    MW424062   2.971   1.694   3.954  0.6246 -0.3299 -0.5445
 6083SOL     OW24063   5.996   1.867   6.045  0.4391 -0.3351 -0.2234
 6083SOL    HW224064   6.072   1.888   6.100  0.3192 -0.7340  0.1030
 6083SOL    HW324065   6.015   1.908   5.961  1.5706 -1.4036 -0.5257
 6083SOL    MW424066   6.009   1.875   6.042  0.3735 -0.4918  0.6497
 6084SOL     OW24067   3.253   5.718   3.342 -0.2047  0.2944  0.1075
 6084SOL    HW224068   3.344   5.724   3.370 -0.0336 -1.2025 -0.0607
 6084SOL    HW324069   3.204   5.770   3.406  0.7328  0.9412  0.3111
 6084SOL    MW424070   3.258   5.726   3.354  0.0994  0.2508 -0.8389
 6085SOL     OW24071   4.660   4.036   1.259  0.4472 -0.1445 -0.1640
 6085SOL    HW224072   4.666   4.034   1.164  0.1049 -1.2354 -0.1777
 6085SOL    HW324073   4.689   4.124   1.283  0.9585 -0.0035 -1.2404
 6085SOL    MW424074   4.665   4.047   1.250 -0.2712 -0.3442 -0.2615
 6086SOL     OW24075   3.970   5.487   3.629  0.0990  0.1640 -0.0010
 6086SOL    HW224076   3.973   5.399   3.591 -0.3310 -0.0395  0.4217
 6086SOL    HW324077   4.037   5.536   3.581  0.9049 -0.6094  0.3023
 6086SOL    MW424078   3.979   5.482   3.617 -0.3938 -0.0526  0.2465
 6087SOL     OW24079   0.817   0.781   3.049 -0.1433  0.8218 -0.1359
 6087SOL    HW224080   0.743   0.739   3.092 -0.0808  0.6912 -0.1567
 6087SOL    HW324081   0.890   0.721   3.063  0.2717  1.5501  1.0198
 6087SOL    MW424082   0.817   0.768   3.057  0.1053  0.1278  0.0560
 6088SOL     OW24083   1.892   0.046   5.966 -0.2623 -0.2867  0.2159
 6088SOL    HW224084   1.988   0.045   5.966 -0.1879  1.7463 -0.9095
 6088SOL    HW324085   1.867   0.043   5.874 -1.1597  1.4883  0.3464
 6088SOL    MW424086   1.901   0.046   5.954  0.1128  0.4841 -0.7208
 6089SOL     OW24087   5.098   3.679   1.419  0.4933 -0.0821  0.2980
 6089SOL    HW224088   5.104   3.599   1.367  0.4574  0.1627 -0.0851
 6089SOL    HW324089   5.041   3.737   1.369 -1.0043 -0.4856  1.4605
 6089SOL    MW424090   5.091   3.676   1.406 -0.1181  0.1157 -0.4315
 6090SOL     OW24091   4.390   4.894   6.291  0.9205  0.1480  0.4853
 6090SOL    HW224092   4.406   4.953   6.218  1.6943 -0.0544  0.4845
 6090SOL    HW324093   4.468   4.902   6.346  0.3525  0.2908  1.2870
 6090SOL    MW424094   4.402   4.903   6.289 -0.3006 -0.4983 -0.4270
 6091SOL     OW24095   5.506   6.307   5.966  0.2858  0.6663 -0.1581
 6091SOL    HW224096   5.479   6.392   5.931 -0.4347  0.7488  0.5818
 6091SOL    HW324097   5.469   6.304   6.054  1.0245 -0.0646  0.1358
 6091SOL    MW424098   5.498   6.318   5.973 -0.0847 -0.2563  0.2814
 6092SOL     OW24099   1.309   5.213   4.041  0.1550 -0.1814  0.0537
 6092SOL    HW224100   1.360   5.157   4.099  0.1961 -0.0123  0.1813
 6092SOL    HW324101   1.223   5.219   4.082  0.8040  1.7368  1.3104
 6092SOL    MW424102   1.305   5.207   4.054  0.1653  0.0549 -0.0828
 6093SOL     OW24103   4.559   2.320   3.394  0.7195 -0.2023  0.4204
 6093SOL    HW224104   4.641   2.321   3.443  0.8551  0.6281  0.1906
 6093SOL    HW324105   4.526   2.409   3.401 -0.6156 -0.7453  1.2427
 6093SOL    MW424106   4.566   2.332   3.401 -0.2075 -0.4534 -0.1078
 6094SOL     OW24107   3.918   5.812   4.444 -0.5156  0.3267 -0.0850
 6094SOL    HW224108   3.833   5.854   4.437 -0.6865  0.1401  0.7345
 6094SOL    HW324109   3.976   5.881   4.476 -0.8134 -0.0469  1.3378
 6094SOL    MW424110   3.915   5.827   4.447 -0.0658 -0.1004 -0.1234
 6095SOL     OW24111   5.821   3.668   2.457  0.5992 -0.0974 -0.3391
 6095SOL    HW224112   5.787   3.581   2.434  1.1397  0.1077 -2.0518
 6095SOL    HW324113   5.748   3.727   2.439  0.4096 -0.1379  0.2982
 6095SOL    MW424114   5.807   3.664   2.451  0.5679 -0.1139 -0.1964
 6096SOL     OW24115   1.310   5.754   3.412 -0.0062  0.1157  0.2084
 6096SOL    HW224116   1.266   5.828   3.370  1.8406  0.1216 -1.8733
 6096SOL    HW324117   1.246   5.683   3.411 -0.9262  0.9381 -0.1083
 6096SOL    MW424118   1.296   5.754   3.406  0.2448 -0.5417  0.3805
 6097SOL     OW24119   2.387   5.529   3.763  0.4313  0.2001  0.7961
 6097SOL    HW224120   2.443   5.568   3.830 -0.0540 -0.4099  1.5648
 6097SOL    HW324121   2.302   5.521   3.804  0.6286 -2.1816  0.8802
 6097SOL    MW424122   2.383   5.533   3.777  0.6590 -0.4379 -0.2795
 6098SOL     OW24123   4.663   2.585   2.416  0.2485 -0.5793  0.0294
 6098SOL    HW224124   4.588   2.644   2.412  0.0675 -0.6713  1.5022
 6098SOL    HW324125   4.702   2.590   2.329  0.5735  2.1513  0.2352
 6098SOL    MW424126   4.659   2.593   2.404 -0.5234  0.1880  0.3043
 6099SOL     OW24127   1.036   5.348   5.831 -0.0608 -0.2944  0.3477
 6099SOL    HW224128   1.005   5.399   5.757  0.3775  0.9760  1.0056
 6099SOL    HW324129   1.100   5.287   5.794 -0.8401 -0.6196 -0.4989
 6099SOL    MW424130   1.041   5.346   5.817  0.0681  0.0526  0.5892
 6100SOL     OW24131   6.146   6.061   3.654 -0.5455 -0.1193  0.2919
 6100SOL    HW224132   6.089   6.137   3.654  1.1478  1.2235  0.6948
 6100SOL    HW324133   6.137   6.023   3.742  1.3109  1.8477  1.4281
 6100SOL    MW424134   6.137   6.066   3.666  0.3710  0.2439 -0.3832
 6101SOL     OW24135   1.799   3.997   3.053  0.3480 -0.1527  0.4938
 6101SOL    HW224136   1.755   4.080   3.073 -0.6085 -1.0863  2.5707
 6101SOL    HW324137   1.728   3.935   3.036  1.0670 -0.4791 -1.4912
 6101SOL    MW424138   1.784   4.000   3.054  0.1520  0.5545  0.2177
 6102SOL     OW24139   0.349   3.262   2.373  0.2994 -0.1604 -0.0161
 6102SOL    HW224140   0.264   3.235   2.339  0.3518 -0.1889 -0.1233
 6102SOL    HW324141   0.393   3.303   2.298  0.7040 -0.8839 -0.1787
 6102SOL    MW424142   0.344   3.264   2.359  0.2695  0.2756  0.7506
 6103SOL     OW24143   5.445   3.284   4.251 -0.0352  0.0762 -0.8885
 6103SOL    HW224144   5.435   3.379   4.254 -0.1986  0.0655 -1.0629
 6103SOL    HW324145   5.435   3.257   4.343  1.6706  0.3745 -0.5858
 6103SOL    MW424146   5.442   3.293   4.264 -0.3571  0.6666 -0.1780
 6104SOL     OW24147   3.768   4.802   6.269 -0.0220  0.1156 -0.3013
 6104SOL    HW224148   3.716   4.749   6.329 -0.4575  1.6982  0.7895
 6104SOL    HW324149   3.841   4.746   6.245 -0.5271 -1.0214  0.6932
 6104SOL    MW424150   3.770   4.788   6.274 -0.4257 -0.0454  0.2668
 6105SOL     OW24151   1.234   5.638   2.277  0.1509  0.0674 -0.6181
 6105SOL    HW224152   1.241   5.733   2.271 -3.2601  0.4629 -0.4211
 6105SOL    HW324153   1.210   5.610   2.189  1.1887 -0.6580 -0.6858
 6105SOL    MW424154   1.232   5.647   2.265 -0.2527 -0.1389 -0.5060
 6106SOL     OW24155   3.678   0.285   4.458 -0.0599  0.0507 -0.4147
 6106SOL    HW224156   3.586   0.274   4.432 -1.4821  0.5828  3.7606
 6106SOL    HW324157   3.711   0.195   4.463 -1.5265 -0.4501  1.5021
 6106SOL    MW424158   3.670   0.271   4.455  0.4505  0.5100 -0.0370
 6107SOL     OW24159   1.800   2.554   3.566  0.4781 -0.0678 -1.0364
 6107SOL    HW224160   1.783   2.625   3.629  0.2012  0.2152 -1.4277
 6107SOL    HW324161   1.855   2.492   3.615  0.9599  0.5482 -0.7766
 6107SOL    MW424162   1.805   2.555   3.581  0.5808 -0.1688 -0.1018
 6108SOL     OW24163   1.606   4.100   3.711 -0.0178  0.2004  0.2445
 6108SOL    HW224164   1.698   4.109   3.684 -0.2550  0.2710 -0.5800
 6108SOL    HW324165   1.566   4.184   3.687 -0.4914 -0.1493 -0.2117
 6108SOL    MW424166   1.613   4.112   3.704  0.2432 -0.0995  0.1112
 6109SOL     OW24167   0.026   3.978   2.311 -0.0426 -0.4864 -0.2552
 6109SOL    HW224168   0.091   3.909   2.319  0.3222 -0.3489 -1.8088
 6109SOL    HW324169  -0.029   3.951   2.237 -0.3779  0.5065 -0.3822
 6109SOL    MW424170   0.027   3.965   2.302  0.2728 -0.4323 -0.0665
 6110SOL     OW24171   5.435   0.161   3.525  0.1690 -0.1789 -0.1993
 6110SOL    HW224172   5.527   0.177   3.544 -0.0836  0.7892  0.3131
 6110SOL    HW324173   5.424   0.066   3.532  1.2963 -0.3885 -1.1074
 6110SOL    MW424174   5.446   0.151   3.528  0.3983 -0.0923  0.1731
 6111SOL     OW24175   0.238   2.958   5.935 -0.3763 -0.1092 -0.2316
 6111SOL    HW224176   0.166   2.957   5.873 -0.6466 -2.6071  0.0119
 6111SOL    HW324177   0.220   3.033   5.992 -2.6508 -0.5314 -0.3164
 6111SOL    MW424178   0.226   2.968   5.934  0.9006 -0.6478 -0.1904
 6112SOL     OW24179   3.538   5.017   5.259  0.2809 -0.3174  0.3008
 6112SOL    HW224180   3.632   5.035   5.260  0.6994 -2.1805 -1.1089
 6112SOL    HW324181   3.498   5.104   5.265  2.0683  0.5606  0.3829
 6112SOL    MW424182   3.545   5.031   5.260  0.4852  0.0611 -0.1381
 6113SOL     OW24183   4.752   6.404   6.017 -0.6066 -0.2076  0.2935
 6113SOL    HW224184   4.760   6.364   6.104 -1.5789 -0.9494  0.0523
 6113SOL    HW324185   4.714   6.335   5.962 -0.9868  0.5988 -0.4701
 6113SOL    MW424186   4.748   6.389   6.021 -0.3365 -0.5354  0.0158
 6114SOL     OW24187   1.844   3.303   5.173 -0.4806 -0.0877  0.2772
 6114SOL    HW224188   1.760   3.346   5.161 -1.3828 -1.0292  2.6253
 6114SOL    HW324189   1.875   3.284   5.084 -2.8944 -0.0101 -0.6496
 6114SOL    MW424190   1.837   3.306   5.160  0.2765  0.1010 -0.8325
 6115SOL     OW24191   2.895   0.153   6.050 -0.0972  0.8012  0.2727
 6115SOL    HW224192   2.985   0.123   6.066 -0.1857  0.1091 -0.4937
 6115SOL    HW324193   2.840   0.080   6.080 -0.3951  1.1184  0.5021
 6115SOL    MW424194   2.900   0.139   6.056  0.4916  0.0563  0.0427
 6116SOL     OW24195   1.320   1.454   5.223 -0.1515  0.5207  0.5672
 6116SOL    HW224196   1.229   1.433   5.247 -0.2871 -1.1704 -1.1259
 6116SOL    HW324197   1.314   1.479   5.130  1.2664 -1.1552 -0.0208
 6116SOL    MW424198   1.307   1.455   5.214 -0.3963 -0.5563  0.2445
 6117SOL     OW24199   3.386   3.179   3.777 -0.1698  0.7612 -0.6978
 6117SOL    HW224200   3.430   3.098   3.803 -0.4981  0.6129 -0.5853
 6117SOL    HW324201   3.346   3.211   3.858 -0.4981  0.7414 -0.8498
 6117SOL    MW424202   3.386   3.172   3.791  0.6902 -0.2008 -0.1491
 6118SOL     OW24203   4.195   0.334   5.282 -0.6810  0.1905  0.2489
 6118SOL    HW224204   4.144   0.263   5.242  0.6495 -0.2767 -0.6928
 6118SOL    HW324205   4.238   0.377   5.208  1.1949 -0.1717  1.0890
 6118SOL    MW424206   4.194   0.330   5.267 -0.1180  0.8270  0.1702
 6119SOL     OW24207   1.616   4.751   4.429 -0.0199 -0.3562 -0.4341
 6119SOL    HW224208   1.636   4.839   4.397 -2.3088  0.2964 -0.2707
 6119SOL    HW324209   1.583   4.705   4.352  3.2318 -1.8884 -1.0618
 6119SOL    MW424210   1.614   4.756   4.415 -0.0165  0.6449  0.5941
 6120SOL     OW24211   4.087   0.175   1.191  0.2393  0.6084  0.4293
 6120SOL    HW224212   4.054   0.249   1.242 -0.6938  0.2699  0.3392
 6120SOL    HW324213   4.024   0.105   1.209 -1.2486  0.9936 -2.6388
 6120SOL    MW424214   4.074   0.176   1.200  0.1200 -0.4828  0.0500
 6121SOL     OW24215   4.384   3.574   2.048 -0.0588 -0.0974 -0.4848
 6121SOL    HW224216   4.345   3.653   2.084 -4.1102 -1.3661 -1.5616
 6121SOL    HW324217   4.434   3.536   2.121 -1.0640  1.5875  1.1475
 6121SOL    MW424218   4.385   3.579   2.062 -0.2213  0.2851 -0.1593
 6122SOL     OW24219   4.346   0.388   4.637 -0.5784 -0.3411  0.5139
 6122SOL    HW224220   4.261   0.374   4.596 -0.6877 -0.2772  0.7160
 6122SOL    HW324221   4.366   0.480   4.618 -0.7900 -0.2128  0.8969
 6122SOL    MW424222   4.338   0.399   4.629 -0.2415 -0.2814 -0.4918
 6123SOL     OW24223   3.492   3.438   3.038  0.4817  0.0625  0.0537
 6123SOL    HW224224   3.448   3.523   3.040 -1.3597 -0.8408 -0.0890
 6123SOL    HW324225   3.577   3.454   3.080  0.0289  1.8745  0.3665
 6123SOL    MW424226   3.498   3.452   3.044  0.1306 -0.1320 -0.1214
 6124SOL     OW24227   0.218   1.964   0.326  0.6008 -0.2154 -0.7569
 6124SOL    HW224228   0.204   2.028   0.257  0.6902  0.6727  0.0316
 6124SOL    HW324229   0.181   1.883   0.291 -2.3209  0.9395 -0.5722
 6124SOL    MW424230   0.212   1.962   0.312  0.1101  0.1657 -0.1093
 6125SOL     OW24231   4.040   2.553   3.784  0.3081 -0.2348  0.6041
 6125SOL    HW224232   3.958   2.556   3.735  1.2762  0.4202 -1.0425
 6125SOL    HW324233   4.107   2.537   3.718  1.5734 -0.1951  1.8432
 6125SOL    MW424234   4.038   2.551   3.769  1.1136 -0.2365  0.3620
 6126SOL     OW24235   2.219   5.399   1.662  0.1335  0.5094 -0.6588
 6126SOL    HW224236   2.244   5.324   1.608  1.3562 -0.4635  1.1406
 6126SOL    HW324237   2.128   5.383   1.684  0.3697 -0.4632 -0.3168
 6126SOL    MW424238   2.211   5.387   1.658 -0.0777 -0.1778 -0.5772
 6127SOL     OW24239   0.272   3.657   3.999  0.5066  0.3966 -0.1730
 6127SOL    HW224240   0.348   3.601   4.015  0.6108  1.1054  2.1720
 6127SOL    HW324241   0.280   3.682   3.907  2.8473  0.0547 -0.1334
 6127SOL    MW424242   0.283   3.653   3.989 -0.5896 -0.0687  0.3544
 6128SOL     OW24243   6.299   0.243   2.049  0.0054 -0.5193  0.2158
 6128SOL    HW224244   6.270   0.330   2.077 -2.6936 -1.4938  0.7001
 6128SOL    HW324245   6.348   0.209   2.124  0.9973  0.5019  0.0579
 6128SOL    MW424246   6.302   0.250   2.063  0.0048 -0.0166  0.4848
 6129SOL     OW24247   1.293   4.333   3.308 -0.4311  0.4062  0.1532
 6129SOL    HW224248   1.225   4.288   3.357 -0.5672  1.5793  1.0961
 6129SOL    HW324249   1.301   4.419   3.351  1.7885  0.2294  0.2151
 6129SOL    MW424250   1.286   4.339   3.320 -0.2271  0.4498 -0.3477
 6130SOL     OW24251   1.880   6.280   5.017 -0.4127 -0.5173 -0.3238
 6130SOL    HW224252   1.817   6.345   4.986  0.6900 -0.0496 -1.6809
 6130SOL    HW324253   1.945   6.330   5.065 -1.4055 -1.0888  1.7209
 6130SOL    MW424254   1.880   6.295   5.019 -0.2327 -0.1708 -0.2454
 6131SOL     OW24255   3.723   4.467   3.467  0.2174  0.1161 -0.0293
 6131SOL    HW224256   3.720   4.424   3.553  0.7010 -0.6890 -0.4098
 6131SOL    HW324257   3.807   4.512   3.465 -0.2420  1.0098  0.3251
 6131SOL    MW424258   3.733   4.467   3.478  0.8271 -0.2922 -0.5676
 6132SOL     OW24259   1.138   0.580   4.564 -0.1584  0.1318 -0.1385
 6132SOL    HW224260   1.186   0.603   4.484  1.4364  2.9969  1.4445
 6132SOL    HW324261   1.205   0.549   4.624 -1.0173 -0.0854  0.7346
 6132SOL    MW424262   1.153   0.579   4.561 -0.7220  0.1696 -0.2519
 6133SOL     OW24263   0.081   4.901   3.890 -0.2875  0.3458 -0.3698
 6133SOL    HW224264   0.176   4.899   3.892 -0.3112 -0.7956  0.8099
 6133SOL    HW324265   0.057   4.978   3.941 -0.0167  1.5789 -2.0020
 6133SOL    MW424266   0.090   4.911   3.897  0.4041 -0.5132 -0.0385
 6134SOL     OW24267   6.369   1.496   3.047 -0.4350 -0.4653 -0.0181
 6134SOL    HW224268   6.419   1.418   3.023  0.4769 -0.0867  0.5837
 6134SOL    HW324269   6.387   1.559   2.978 -0.0117 -0.3107  0.2252
 6134SOL    MW424270   6.378   1.494   3.035  0.4677  0.2523  0.2082
 6135SOL     OW24271   5.127   2.425   4.711 -0.1229  0.1966 -0.3221
 6135SOL    HW224272   5.210   2.424   4.662 -0.2200  1.0306 -0.5052
 6135SOL    HW324273   5.136   2.497   4.772 -0.0795 -0.7248  0.7921
 6135SOL    MW424274   5.139   2.434   4.712 -0.2737  0.2331 -0.0280
 6136SOL     OW24275   2.601   0.479   1.011  0.1123  0.2220 -0.5224
 6136SOL    HW224276   2.548   0.535   1.067  0.0343 -0.5334  0.1594
 6136SOL    HW324277   2.663   0.437   1.070 -0.1629 -0.8098 -0.9456
 6136SOL    MW424278   2.602   0.481   1.026  0.6517  0.2846 -0.0478
 6137SOL     OW24279   5.118   1.405   3.822  0.2376  0.2090  0.1375
 6137SOL    HW224280   5.191   1.397   3.760  0.4401 -1.4881  0.5268
 6137SOL    HW324281   5.043   1.367   3.776 -0.5150  2.1471 -0.3428
 6137SOL    MW424282   5.118   1.399   3.808 -0.4530 -0.4891  0.3675
 6138SOL     OW24283   1.446   3.190   5.535  0.1995  0.1280 -0.3708
 6138SOL    HW224284   1.442   3.144   5.619  0.1995  3.9539  1.9511
 6138SOL    HW324285   1.367   3.163   5.489 -0.4919 -1.0984  1.4300
 6138SOL    MW424286   1.435   3.180   5.540 -0.2037  0.2501 -0.1722
 6139SOL     OW24287   4.353   2.614   5.488 -0.0615 -1.0397  0.0332
 6139SOL    HW224288   4.385   2.659   5.410 -0.2557  3.0755  2.0627
 6139SOL    HW324289   4.259   2.606   5.475 -0.1268 -0.1456 -0.0400
 6139SOL    MW424290   4.345   2.619   5.476 -0.4579  0.8975  0.1189
 6140SOL     OW24291   5.598   5.309   3.918 -0.2307 -0.6919 -0.9307
 6140SOL    HW224292   5.628   5.399   3.902 -1.2955 -0.0982  0.2192
 6140SOL    HW324293   5.505   5.318   3.936 -0.0005 -1.7852  1.0675
 6140SOL    MW424294   5.590   5.322   3.919 -0.1788 -0.0586 -0.1594
 6141SOL     OW24295   1.345   4.837   2.791  0.3432  0.6200 -0.5817
 6141SOL    HW224296   1.358   4.744   2.773 -0.1841  0.0562  1.5674
 6141SOL    HW324297   1.253   4.852   2.768  0.2855  0.4618 -0.4645
 6141SOL    MW424298   1.334   4.826   2.786  0.3279  0.6386  0.5292
 6142SOL     OW24299   5.590   3.142   4.917  0.0169  0.1737 -0.4210
 6142SOL    HW224300   5.644   3.086   4.860 -0.6919 -0.3033 -0.6448
 6142SOL    HW324301   5.646   3.217   4.937  0.9795 -0.5933 -0.1539
 6142SOL    MW424302   5.605   3.144   4.912 -0.0234  0.0598 -0.1615
 6143SOL     OW24303   4.690   3.087   2.440  0.3138 -0.3868  0.2580
 6143SOL    HW224304   4.691   3.005   2.391  1.1004  0.3763 -1.0809
 6143SOL    HW324305   4.772   3.085   2.491 -0.1863 -0.8876  1.0660
 6143SOL    MW424306   4.701   3.076   2.440 -0.3876  0.2668 -0.4982
 6144SOL     OW24307   4.494   3.100   2.750  0.4018  0.3762 -0.0909
 6144SOL    HW224308   4.495   3.030   2.685 -1.4908  1.5523 -1.4623
 6144SOL    HW324309   4.497   3.181   2.699  2.3590  1.3747  1.4565
 6144SOL    MW424310   4.495   3.101   2.735 -0.1510  0.6309  0.7276
 6145SOL     OW24311   1.266   3.825   4.755 -0.8585  0.1522 -0.3866
 6145SOL    HW224312   1.193   3.838   4.815  0.3907  1.4564  0.9438
 6145SOL    HW324313   1.286   3.913   4.722  0.5437 -0.0468 -0.1504
 6145SOL    MW424314   1.259   3.839   4.759 -0.5396 -0.3026 -0.1598
 6146SOL     OW24315   1.030   0.125   3.749 -0.3428 -0.5928  0.0825
 6146SOL    HW224316   1.112   0.174   3.744 -0.6403 -0.1732 -2.1660
 6146SOL    HW324317   1.049   0.042   3.706 -0.5925 -1.3008  1.3192
 6146SOL    MW424318   1.043   0.121   3.742  0.2206 -0.1215  0.1340
 6147SOL     OW24319   4.349   0.709   1.265  0.0115  0.3792  0.4049
 6147SOL    HW224320   4.397   0.695   1.183  0.7008  0.7732  0.7298
 6147SOL    HW324321   4.330   0.621   1.297  1.2072  0.2002  0.6570
 6147SOL    MW424322   4.353   0.696   1.258 -0.5362 -0.1575 -0.3972
 6148SOL     OW24323   4.612   5.528   2.082  1.2518  0.0917  0.1878
 6148SOL    HW224324   4.626   5.438   2.109 -0.6141 -0.3599 -0.2060
 6148SOL    HW324325   4.632   5.529   1.989 -0.6791 -0.4638 -0.2881
 6148SOL    MW424326   4.616   5.516   2.073  0.4067 -0.6298 -0.2107
 6149SOL     OW24327   4.029   0.964   1.475  0.1632 -0.2996 -0.2313
 6149SOL    HW224328   3.952   0.907   1.468 -0.2433  0.2098 -0.0192
 6149SOL    HW324329   3.996   1.051   1.453  0.7600 -0.1309 -0.4833
 6149SOL    MW424330   4.014   0.968   1.471  0.5840 -0.1415 -0.5241
 6150SOL     OW24331   0.490   1.011   1.140 -0.2012  0.0724 -0.9256
 6150SOL    HW224332   0.508   0.960   1.061  0.8563  0.6202 -1.0559
 6150SOL    HW324333   0.414   0.968   1.179  0.0139 -0.9569 -1.5895
 6150SOL    MW424334   0.483   0.998   1.135 -0.6961  0.1567  0.1061
 6151SOL     OW24335   1.870   0.195   6.216 -0.6356 -0.3473 -0.4120
 6151SOL    HW224336   1.861   0.141   6.137 -2.4429 -1.3503  0.4315
 6151SOL    HW324337   1.895   0.134   6.285  0.2637  0.4163 -0.0411
 6151SOL    MW424338   1.872   0.180   6.214  0.1395 -0.2907  0.2244
 6152SOL     OW24339   1.512   1.726   5.597  0.6030 -0.2591  0.4829
 6152SOL    HW224340   1.459   1.741   5.519  1.2780 -0.7678 -0.0936
 6152SOL    HW324341   1.600   1.755   5.573  0.5611  0.7599  1.4925
 6152SOL    MW424342   1.517   1.732   5.583  0.1458 -0.0922 -0.1571
 6153SOL     OW24343   5.337   6.013   1.592 -0.3843  0.0349 -0.0436
 6153SOL    HW224344   5.367   6.088   1.644 -2.8302  1.8972 -1.1097
 6153SOL    HW324345   5.388   6.017   1.512 -0.0572  0.1753  0.1708
 6153SOL    MW424346   5.347   6.024   1.589  0.3076 -0.1529 -0.4438
 6154SOL     OW24347   2.482   2.559   4.839 -0.1983  0.0176  0.4231
 6154SOL    HW224348   2.400   2.565   4.889  0.0812 -1.0840  1.0457
 6154SOL    HW324349   2.545   2.521   4.901  0.3807 -0.5637 -0.4990
 6154SOL    MW424350   2.479   2.555   4.854 -0.0602  0.2050 -0.4943
 6155SOL     OW24351   2.251   0.859   5.108 -0.5729 -0.2704  0.0884
 6155SOL    HW224352   2.270   0.951   5.125 -0.2444 -0.8375  3.3523
 6155SOL    HW324353   2.156   0.854   5.103 -0.5507  0.4434 -1.9058
 6155SOL    MW424354   2.241   0.870   5.109 -0.0587  0.3192  0.0843
 6156SOL     OW24355   3.921   5.340   0.322 -0.4564  0.2198  0.6533
 6156SOL    HW224356   4.000   5.359   0.271 -1.3170  1.4876 -0.2745
 6156SOL    HW324357   3.924   5.400   0.396 -0.4837  0.1791  0.6877
 6156SOL    MW424358   3.931   5.350   0.325 -0.2426  0.6687 -0.0769
 6157SOL     OW24359   4.684   2.869   2.267  0.0269 -0.3914 -0.1729
 6157SOL    HW224360   4.729   2.788   2.246  1.6832 -0.0690  1.8326
 6157SOL    HW324361   4.631   2.888   2.189  2.1911 -1.5992 -2.0504
 6157SOL    MW424362   4.683   2.861   2.254 -0.0086 -0.6684 -0.1842
 6158SOL     OW24363   6.298   5.298   0.495  0.6292  0.3482  0.3966
 6158SOL    HW224364   6.305   5.260   0.583 -1.2096 -1.1656 -0.0403
 6158SOL    HW324365   6.211   5.337   0.493 -0.3541 -1.7011 -1.4187
 6158SOL    MW424366   6.288   5.298   0.506  0.2566  0.2750  0.3784
 6159SOL     OW24367   2.631   1.432   4.197  0.2684 -0.3615  0.0963
 6159SOL    HW224368   2.566   1.372   4.161 -0.8931  1.4257 -0.9100
 6159SOL    HW324369   2.697   1.441   4.129  0.6630 -0.7802  0.4119
 6159SOL    MW424370   2.631   1.426   4.183  0.1586 -0.7226  0.5781
 6160SOL     OW24371   5.302   0.816   1.514  0.2155  0.6004  0.5135
 6160SOL    HW224372   5.367   0.793   1.579 -1.1827 -0.8502  1.4742
 6160SOL    HW324373   5.218   0.806   1.559 -0.8948 -1.7623 -1.8008
 6160SOL    MW424374   5.299   0.812   1.528  0.2101  0.7586  0.3197
 6161SOL     OW24375   3.593   0.121   5.616  0.3871 -0.1095  0.0139
 6161SOL    HW224376   3.590   0.217   5.612  0.2562 -0.1532 -1.0399
 6161SOL    HW324377   3.576   0.092   5.527  0.6556 -1.1177  0.2749
 6161SOL    MW424378   3.590   0.130   5.604  0.4260  0.8243 -0.2782
 6162SOL     OW24379   5.309   4.734   2.287  0.3707  0.2967  0.3126
 6162SOL    HW224380   5.339   4.796   2.221 -1.2445 -1.5096 -2.3315
 6162SOL    HW324381   5.280   4.788   2.360  2.5844  2.3732 -0.2449
 6162SOL    MW424382   5.309   4.749   2.288  1.0498  0.1874  0.2167
 6163SOL     OW24383   3.914   2.061   0.371  0.2462  0.1198 -0.3113
 6163SOL    HW224384   3.890   2.024   0.457 -0.4720  0.7799 -0.2152
 6163SOL    HW324385   3.833   2.101   0.339  0.5414 -0.0244 -1.2543
 6163SOL    MW424386   3.900   2.062   0.378 -0.0691 -0.0671  0.4032
 6164SOL     OW24387   3.319   0.696   6.293 -0.0151 -0.2936 -0.2040
 6164SOL    HW224388   3.388   0.680   6.356 -0.8983 -1.1797  0.5762
 6164SOL    HW324389   3.356   0.759   6.232  1.7537 -1.3332 -0.2758
 6164SOL    MW424390   3.333   0.702   6.293  0.1619  0.5725  0.4715
 6165SOL     OW24391   1.393   3.174   5.859  0.1255 -0.2902  0.2185
 6165SOL    HW224392   1.381   3.079   5.849  1.1344 -0.3386 -0.6829
 6165SOL    HW324393   1.483   3.183   5.891 -0.2984  0.3222  1.2667
 6165SOL    MW424394   1.403   3.162   5.862 -0.1662  0.1217  0.4385
 6166SOL     OW24395   4.931   1.985   5.660  0.0691  0.0537 -0.3392
 6166SOL    HW224396   4.839   1.960   5.658 -0.2660  1.2469 -1.4941
 6166SOL    HW324397   4.971   1.934   5.589  0.4680 -1.0132  0.6340
 6166SOL    MW424398   4.925   1.975   5.650 -0.1916  0.5723 -0.4008
 6167SOL     OW24399   5.511   4.678   4.296  0.2424 -0.1661 -0.1297
 6167SOL    HW224400   5.539   4.742   4.231 -0.4289 -0.0771 -0.3354
 6167SOL    HW324401   5.554   4.706   4.377  0.6508  0.0308 -0.4122
 6167SOL    MW424402   5.520   4.690   4.298  0.3293 -0.8614 -0.4177
 6168SOL     OW24403   4.105   2.252   1.046 -0.1560  0.6501  0.4656
 6168SOL    HW224404   4.144   2.175   1.087 -1.4242 -0.6218 -0.6339
 6168SOL    HW324405   4.011   2.242   1.059 -0.3886  1.6524 -0.3005
 6168SOL    MW424406   4.098   2.241   1.053 -0.5260 -0.3503 -0.0583
 6169SOL     OW24407   1.926   1.097   5.933  0.0166 -0.0555 -0.2295
 6169SOL    HW224408   1.873   1.034   5.884  2.0739  0.1289 -2.9321
 6169SOL    HW324409   1.974   1.044   5.995 -0.3232 -0.7622 -0.5554
 6169SOL    MW424410   1.925   1.082   5.934  0.3944  0.2037 -0.7670
 6170SOL     OW24411   3.276   1.661   5.020 -0.0175  0.3793  0.2072
 6170SOL    HW224412   3.346   1.722   4.999  0.9800 -0.7575  0.1190
 6170SOL    HW324413   3.283   1.646   5.114 -0.5615  0.7558  0.3113
 6170SOL    MW424414   3.286   1.667   5.029  0.4122  0.5846  0.5551
 6171SOL     OW24415   0.350   5.064   3.061  0.3128  0.0341  0.1874
 6171SOL    HW224416   0.389   5.125   2.999  0.6954 -1.5755 -1.2437
 6171SOL    HW324417   0.271   5.108   3.092 -0.5466  0.4682 -2.3696
 6171SOL    MW424418   0.345   5.077   3.057 -0.0876  0.7337 -0.0114
 6172SOL     OW24419   1.277   4.194   1.755  0.0451 -0.0825  0.2656
 6172SOL    HW224420   1.208   4.146   1.800 -1.1620  1.3030 -0.0594
 6172SOL    HW324421   1.259   4.182   1.662 -1.4032  2.4333  0.1341
 6172SOL    MW424422   1.266   4.186   1.749  0.0008  0.4003 -0.0506
 6173SOL     OW24423   3.729   0.240   5.296  0.2507 -0.9758  0.0356
 6173SOL    HW224424   3.777   0.237   5.378 -0.4618  0.5135  0.5390
 6173SOL    HW324425   3.649   0.191   5.314 -0.0971 -0.2922  0.3723
 6173SOL    MW424426   3.725   0.233   5.309 -0.1986 -0.0137 -0.4436
 6174SOL     OW24427   3.072   2.453   1.273 -0.0040 -0.0852 -0.1801
 6174SOL    HW224428   3.035   2.510   1.340  1.7235 -0.6387  1.3231
 6174SOL    HW324429   3.054   2.364   1.304  2.9909 -0.3992  0.9703
 6174SOL    MW424430   3.065   2.448   1.286 -0.1199 -0.1363  0.7556
 6175SOL     OW24431   6.133   3.839   4.613  0.2425  0.3048 -0.7480
 6175SOL    HW224432   6.166   3.749   4.617 -1.2760 -0.2537  1.5865
 6175SOL    HW324433   6.159   3.877   4.697  0.8627  2.0926 -1.6958
 6175SOL    MW424434   6.141   3.832   4.625 -0.4014  0.2245  0.4305
 6176SOL     OW24435   1.341   2.970   4.893 -0.6607 -0.5569  0.3132
 6176SOL    HW224436   1.364   3.028   4.965  0.6346 -1.0351  0.3181
 6176SOL    HW324437   1.349   2.882   4.929 -0.4381 -0.7888 -0.2778
 6176SOL    MW424438   1.345   2.966   4.907 -0.4970  0.3431 -0.4227
 6177SOL     OW24439   4.926   0.657   0.381 -0.3429 -0.1140  0.0130
 6177SOL    HW224440   4.917   0.622   0.469 -1.1356 -0.6973 -0.2890
 6177SOL    HW324441   4.980   0.592   0.335  1.1009  0.7816  0.3781
 6177SOL    MW424442   4.932   0.644   0.386  0.3695 -0.2613  0.0096
 6178SOL     OW24443   6.436   0.974   3.769 -0.6036 -0.0659 -0.1878
 6178SOL    HW224444   6.434   0.976   3.865 -1.2396  0.8636 -0.2101
 6178SOL    HW324445   6.462   1.062   3.744 -0.8106 -0.2001 -0.8859
 6178SOL    MW424446   6.439   0.986   3.778  0.2784 -0.7717 -0.5859
 6179SOL     OW24447   5.352   4.468   5.912 -0.7398  0.5478  0.0196
 6179SOL    HW224448   5.258   4.461   5.933 -0.8778  0.6779 -0.5387
 6179SOL    HW324449   5.360   4.552   5.867 -0.4380  0.3045 -0.3852
 6179SOL    MW424450   5.340   4.478   5.909  0.5824  0.1132 -0.7035
 6180SOL     OW24451   0.389   1.409   5.180  0.1324 -0.1614 -0.6761
 6180SOL    HW224452   0.334   1.331   5.195 -1.4287  0.8237 -1.0045
 6180SOL    HW324453   0.389   1.419   5.085 -0.1555  0.5541 -0.6045
 6180SOL    MW424454   0.382   1.400   5.170 -0.9376  0.5973 -0.4243
 6181SOL     OW24455   6.080   0.494   5.879 -0.2425 -0.3249  0.0228
 6181SOL    HW224456   6.005   0.552   5.868 -0.8816 -1.3597 -1.5093
 6181SOL    HW324457   6.141   0.521   5.810  0.0183 -0.6331  0.1322
 6181SOL    MW424458   6.078   0.505   5.868  0.2348 -0.8035 -0.8705
 6182SOL     OW24459   2.248   0.086   0.672 -0.1372  0.1028  0.0869
 6182SOL    HW224460   2.222   0.172   0.705 -3.3042 -0.1978 -1.2740
 6182SOL    HW324461   2.294   0.045   0.745 -1.7751  1.6022  2.0904
 6182SOL    MW424462   2.251   0.092   0.686 -0.0458  0.2694  0.1748
 6183SOL     OW24463   2.720   0.185   0.487  0.0289  0.6797 -0.8371
 6183SOL    HW224464   2.753   0.178   0.398 -2.9065  0.2359 -1.9931
 6183SOL    HW324465   2.684   0.273   0.493 -3.2422 -0.4484 -1.5404
 6183SOL    MW424466   2.719   0.195   0.476 -0.6083  0.6147  0.3121
 6184SOL     OW24467   4.871   2.982   6.408  0.0512 -0.2002  0.2061
 6184SOL    HW224468   4.880   3.070   6.445 -1.5702 -1.1310  3.1953
 6184SOL    HW324469   4.958   2.961   6.375  0.1344  3.0284 -2.1271
 6184SOL    MW424470   4.884   2.991   6.409  0.4152  0.1418  0.1056
 6185SOL     OW24471   4.913   3.818   3.744  0.2250 -0.3343  0.8957
 6185SOL    HW224472   4.897   3.909   3.769  1.6802 -0.0669  0.9472
 6185SOL    HW324473   4.873   3.767   3.814 -0.0499  0.2882  1.2011
 6185SOL    MW424474   4.906   3.823   3.757 -0.1982 -0.6691 -0.4014
 6186SOL     OW24475   5.707   3.621   0.654  0.0893 -0.1280 -0.7891
 6186SOL    HW224476   5.753   3.597   0.574 -0.0040 -2.4541 -0.2306
 6186SOL    HW324477   5.721   3.547   0.713 -1.6067  0.5618  0.5872
 6186SOL    MW424478   5.715   3.608   0.651  0.4221  0.1640  0.6061
 6187SOL     OW24479   3.234   0.112   1.333 -0.5999 -0.6914 -0.4022
 6187SOL    HW224480   3.229   0.068   1.418 -0.8472 -1.9672 -1.0544
 6187SOL    HW324481   3.142   0.129   1.310 -0.4769  1.6183  0.5321
 6187SOL    MW424482   3.221   0.108   1.341 -0.1016 -0.0151 -0.0442
 6188SOL     OW24483   3.894   3.767   1.392 -0.2440 -0.5216  0.6164
 6188SOL    HW224484   3.805   3.733   1.383 -0.7315  0.7291  0.5092
 6188SOL    HW324485   3.921   3.787   1.302  0.3779 -1.4534  0.5909
 6188SOL    MW424486   3.886   3.765   1.379  0.0574 -0.0359 -0.3147
 6189SOL     OW24487   1.904   1.149   0.284 -0.3779  0.0969  0.3087
 6189SOL    HW224488   1.890   1.189   0.199  0.2564  0.1269  0.2115
 6189SOL    HW324489   1.842   1.193   0.342  0.1812  1.1128  0.1688
 6189SOL    MW424490   1.894   1.160   0.281 -0.5305 -0.5014 -0.1357
 6190SOL     OW24491   1.102   4.098   5.654 -0.0904 -0.3906 -1.2059
 6190SOL    HW224492   1.085   4.020   5.707  0.9451 -0.5649 -1.1077
 6190SOL    HW324493   1.040   4.163   5.686 -0.2855 -0.8675 -0.6053
 6190SOL    MW424494   1.091   4.096   5.665 -0.5079  0.3570 -0.1055
 6191SOL     OW24495   3.005   5.860   1.448  0.2810 -0.2516 -0.3276
 6191SOL    HW224496   2.945   5.934   1.440 -0.5628 -1.0132 -1.3213
 6191SOL    HW324497   3.084   5.897   1.487 -1.3348  0.4860  2.4800
 6191SOL    MW424498   3.007   5.875   1.452 -0.0342  0.4034  0.6679
 6192SOL     OW24499   2.446   2.442   5.436  0.9874  0.1958 -0.4094
 6192SOL    HW224500   2.438   2.399   5.521  1.8338 -0.6456 -0.7455
 6192SOL    HW324501   2.537   2.431   5.411  0.7373  0.3565 -1.4682
 6192SOL    MW424502   2.457   2.435   5.444 -0.4636 -0.3426  0.1031
 6193SOL     OW24503   0.564   1.335   2.659  0.5213  0.5002 -0.3335
 6193SOL    HW224504   0.558   1.271   2.729 -0.0975  0.3807 -0.4864
 6193SOL    HW324505   0.487   1.318   2.604 -1.1691  2.9843  1.0275
 6193SOL    MW424506   0.553   1.325   2.661  0.5352 -0.3217  0.4097
 6194SOL     OW24507   1.209   0.430   4.957  0.1019  0.9071  0.1750
 6194SOL    HW224508   1.245   0.409   5.043 -0.7440  0.1202  0.3544
 6194SOL    HW324509   1.158   0.510   4.972 -0.9610  0.1572  0.6700
 6194SOL    MW424510   1.207   0.438   4.970  0.1402  0.1031 -0.5096
 6195SOL     OW24511   2.382   0.075   5.139 -0.3749  0.3757 -0.1379
 6195SOL    HW224512   2.475   0.067   5.117  0.0905  1.5716  1.2524
 6195SOL    HW324513   2.381   0.079   5.235 -1.9397 -0.4307 -0.1040
 6195SOL    MW424514   2.394   0.074   5.149 -0.5807 -0.2398 -0.7632
 6196SOL     OW24515   5.321   6.341   3.535  0.2944 -0.2198  0.1916
 6196SOL    HW224516   5.302   6.289   3.457  1.3363 -0.6062  0.1836
 6196SOL    HW324517   5.240   6.336   3.587 -0.7705  0.8462 -1.2660
 6196SOL    MW424518   5.308   6.334   3.531  0.0564  0.7525 -0.0332
 6197SOL     OW24519   3.128   2.155   1.208  0.2660 -0.2171  0.0479
 6197SOL    HW224520   3.082   2.085   1.162 -2.0176 -0.0221  1.8591
 6197SOL    HW324521   3.167   2.111   1.284 -1.3898  0.4176  1.3298
 6197SOL    MW424522   3.127   2.140   1.212 -0.0010 -0.3065 -0.7060
 6198SOL     OW24523   1.665   3.412   2.593 -0.4997  0.3934  0.5583
 6198SOL    HW224524   1.751   3.403   2.552 -1.5033 -0.5851 -1.4692
 6198SOL    HW324525   1.679   3.474   2.665  2.0182 -0.2793  0.7287
 6198SOL    MW424526   1.678   3.419   2.598  0.3488 -0.5842  0.3172
 6199SOL     OW24527   6.111   5.571   1.539 -0.0599 -0.3561  0.6082
 6199SOL    HW224528   6.142   5.495   1.489  1.5282 -0.2301  1.3374
 6199SOL    HW324529   6.117   5.543   1.631 -0.0409  0.4419  0.8556
 6199SOL    MW424530   6.116   5.557   1.545 -0.9470 -0.2942  0.3316
 6200SOL     OW24531   6.177   0.506   0.247 -0.3170 -0.0400  0.4124
 6200SOL    HW224532   6.192   0.438   0.313  0.3955 -1.4172 -1.0933
 6200SOL    HW324533   6.265   0.538   0.225 -0.3242 -1.1564 -1.4046
 6200SOL    MW424534   6.191   0.501   0.253  0.5463 -0.5443  0.7664
 6201SOL     OW24535   4.910   5.444   5.034  0.4359 -0.1286 -0.1420
 6201SOL    HW224536   4.837   5.506   5.036  0.8360  0.4602 -1.9436
 6201SOL    HW324537   4.889   5.381   5.102 -1.1365  0.7086  0.2082
 6201SOL    MW424538   4.898   5.444   5.043 -1.0480 -0.2836  0.2725
 6202SOL     OW24539   2.081   1.910   0.245 -0.0187  0.0081 -0.0756
 6202SOL    HW224540   2.077   1.862   0.328 -0.9615 -0.6532 -0.4850
 6202SOL    HW324541   2.071   1.842   0.178 -2.0836  0.7946 -0.6527
 6202SOL    MW424542   2.079   1.895   0.247 -0.1722  0.0340  0.1329
 6203SOL     OW24543   0.074   3.224   1.034 -0.2444 -0.5079  0.1642
 6203SOL    HW224544   0.036   3.286   0.972  0.5599  1.3636  1.4550
 6203SOL    HW324545   0.162   3.258   1.051  0.1534 -1.9062  1.0909
 6203SOL    MW424546   0.081   3.237   1.028  0.2453  0.4576  0.3714
 6204SOL     OW24547   1.467   3.914   6.379  0.3732  0.2382 -0.2769
 6204SOL    HW224548   1.453   3.820   6.391  0.1905 -0.0123 -2.1352
 6204SOL    HW324549   1.561   3.922   6.361  0.2805  0.3371 -0.7209
 6204SOL    MW424550   1.477   3.903   6.378  0.1831 -0.5448 -0.1046
 6205SOL     OW24551   3.353   3.543   3.998  0.2474  0.1965 -0.0633
 6205SOL    HW224552   3.360   3.518   3.906 -0.3681 -1.4874  0.3010
 6205SOL    HW324553   3.438   3.581   4.020  0.6969 -0.1726 -1.1124
 6205SOL    MW424554   3.365   3.545   3.989 -0.3537 -0.0494  0.3920
 6206SOL     OW24555   2.932   5.397   0.337  0.0058  0.4930 -0.9018
 6206SOL    HW224556   2.908   5.411   0.429  0.3570  1.1000 -0.9027
 6206SOL    HW324557   2.901   5.308   0.319 -0.5705  0.5702 -0.3616
 6206SOL    MW424558   2.925   5.387   0.347  0.2948 -0.7251 -0.1934
 6207SOL     OW24559   4.856   1.884   2.505 -0.0582  0.2996  0.1353
 6207SOL    HW224560   4.906   1.942   2.563 -1.4808  1.0384  0.6854
 6207SOL    HW324561   4.872   1.796   2.539 -0.9927  0.7310  1.8113
 6207SOL    MW424562   4.864   1.880   2.517 -0.2108  0.1778  0.8006
 6208SOL     OW24563   3.709   3.700   2.529  0.4073 -0.4343  0.4971
 6208SOL    HW224564   3.690   3.789   2.499  1.6004 -0.8167 -1.6138
 6208SOL    HW324565   3.764   3.663   2.460 -0.0143 -2.8003  1.3396
 6208SOL    MW424566   3.714   3.707   2.516 -0.2833 -0.4375 -0.1509
 6209SOL     OW24567   4.637   2.517   5.351 -0.2457  0.4151  0.2542
 6209SOL    HW224568   4.576   2.489   5.419 -1.4328  1.8923 -0.1561
 6209SOL    HW324569   4.584   2.570   5.291  0.2616 -2.3830 -2.9626
 6209SOL    MW424570   4.622   2.521   5.352  0.2921  0.2101  0.1851
 6210SOL     OW24571   2.145   2.752   0.531 -0.2278  0.1106 -0.6860
 6210SOL    HW224572   2.140   2.796   0.616  1.9193  1.7324 -1.2935
 6210SOL    HW324573   2.129   2.660   0.551 -0.1161  0.4892  1.4279
 6210SOL    MW424574   2.142   2.745   0.545 -0.3858 -0.0031  0.2528
 6211SOL     OW24575   5.917   3.550   4.106  0.4176 -0.2246  0.2201
 6211SOL    HW224576   5.945   3.631   4.149  0.6215  0.1451 -0.5840
 6211SOL    HW324577   5.843   3.576   4.052  0.9543 -0.4071 -0.6308
 6211SOL    MW424578   5.911   3.564   4.104 -0.7835 -0.1491 -0.8699
 6212SOL     OW24579   3.948   3.904   5.497 -0.0762 -0.0320 -0.1873
 6212SOL    HW224580   3.936   3.959   5.419 -1.0752  0.9688  0.6337
 6212SOL    HW324581   4.038   3.918   5.523  0.0761  0.1356 -0.7869
 6212SOL    MW424582   3.958   3.913   5.490  0.3419 -0.1815  0.3346
 6213SOL     OW24583   0.694   6.316   3.043 -0.5607  0.1007 -0.2921
 6213SOL    HW224584   0.762   6.382   3.029 -0.3685 -0.0874 -0.2681
 6213SOL    HW324585   0.649   6.308   2.959 -2.9369  2.8097  0.5879
 6213SOL    MW424586   0.697   6.323   3.030  0.2819  0.6571 -0.2551
 6214SOL     OW24587   1.643   1.054   1.415 -0.3619  0.4390  0.1826
 6214SOL    HW224588   1.584   1.129   1.421  0.6451  1.2711  0.0150
 6214SOL    HW324589   1.616   1.008   1.336  0.8755  2.3183 -1.4261
 6214SOL    MW424590   1.632   1.058   1.405  0.0830  0.6682 -0.2418
 6215SOL     OW24591   5.505   5.590   5.504 -0.0856 -0.0486  0.6670
 6215SOL    HW224592   5.409   5.596   5.512  0.0265  1.3399  1.2249
 6215SOL    HW324593   5.534   5.681   5.499  1.2132 -0.4617  0.4338
 6215SOL    MW424594   5.496   5.603   5.505 -0.1921  0.4287 -0.2325
 6216SOL     OW24595   3.738   4.362   0.044 -0.6183  0.5563 -0.0779
 6216SOL    HW224596   3.673   4.302   0.080  0.7738 -0.1385  1.4464
 6216SOL    HW324597   3.722   4.445   0.089 -1.1270  0.6849 -0.5008
 6216SOL    MW424598   3.728   4.365   0.055  0.2144  0.2344 -0.1474
 6217SOL     OW24599   5.742   1.641   5.633 -0.2988 -0.5606 -0.0801
 6217SOL    HW224600   5.800   1.717   5.644 -0.3794 -0.6432  1.1195
 6217SOL    HW324601   5.683   1.646   5.708 -1.0722 -1.1527 -0.6410
 6217SOL    MW424602   5.742   1.652   5.645  0.9104 -0.5894  0.0271
 6218SOL     OW24603   0.491   2.642   0.957  0.0562 -0.4712  0.1548
 6218SOL    HW224604   0.429   2.654   0.885  2.3586  0.2605 -1.8292
 6218SOL    HW324605   0.461   2.563   1.002 -1.8305 -0.5846 -1.2022
 6218SOL    MW424606   0.479   2.633   0.954  0.3476  0.0815 -0.1609
 6219SOL     OW24607   1.804   4.140   0.224  0.1134  0.2468  0.1862
 6219SOL    HW224608   1.742   4.167   0.156 -0.1688 -2.1111 -0.5869
 6219SOL    HW324609   1.889   4.169   0.192  0.0498 -1.2446 -1.4846
 6219SOL    MW424610   1.807   4.148   0.211  0.3082 -0.3510  0.5255
 6220SOL     OW24611   0.898   5.443   2.650 -0.4074  0.7655 -0.1016
 6220SOL    HW224612   0.913   5.487   2.567 -0.9856  0.3048 -0.4562
 6220SOL    HW324613   0.870   5.512   2.710 -2.9986  0.6590 -1.0832
 6220SOL    MW424614   0.896   5.458   2.647 -0.1749  0.0416  0.1870
 6221SOL     OW24615   2.149   2.911   4.343  0.0741  0.2906  0.6648
 6221SOL    HW224616   2.141   2.939   4.252 -1.1023  1.5415  1.1169
 6221SOL    HW324617   2.067   2.864   4.360  0.1022  0.4341  1.1992
 6221SOL    MW424618   2.137   2.908   4.333 -0.4364 -0.4093  0.2757
 6222SOL     OW24619   2.555   4.332   3.029 -0.7938  1.1819  0.6427
 6222SOL    HW224620   2.632   4.277   3.042 -1.0529  0.6317 -0.0803
 6222SOL    HW324621   2.590   4.420   3.014 -0.2458  0.7867 -0.5350
 6222SOL    MW424622   2.569   4.337   3.029 -0.1630 -0.5164  0.2976
 6223SOL     OW24623   4.403   1.918   2.083  0.0825  0.5662 -0.1303
 6223SOL    HW224624   4.380   1.968   2.162  0.9689 -0.3952  0.7663
 6223SOL    HW324625   4.377   1.828   2.103  1.3157  0.1124 -0.4760
 6223SOL    MW424626   4.397   1.913   2.096 -0.1978 -0.0092 -0.3991
 6224SOL     OW24627   0.091   0.685   5.838  0.2406  0.0493  0.1170
 6224SOL    HW224628   0.060   0.622   5.773 -1.7611 -0.8188  1.7923
 6224SOL    HW324629   0.177   0.651   5.864  0.1819 -0.7175 -0.6328
 6224SOL    MW424630   0.098   0.672   5.833 -0.3065 -0.1974  0.1439
 6225SOL     OW24631   5.729   3.212   5.562  0.4084 -0.0318  0.1302
 6225SOL    HW224632   5.745   3.247   5.650  0.1210  2.2186 -0.6340
 6225SOL    HW324633   5.774   3.273   5.503  0.0933 -1.1352 -1.3146
 6225SOL    MW424634   5.737   3.225   5.566 -0.0646  0.9511 -0.4109
 6226SOL     OW24635   3.238   2.362   1.558 -0.0987 -0.5165  0.3564
 6226SOL    HW224636   3.173   2.328   1.496 -1.3284 -0.3299  1.5151
 6226SOL    HW324637   3.258   2.288   1.615  0.5430 -0.5098  0.1389
 6226SOL    MW424638   3.232   2.348   1.557  0.4012  0.4758  0.2880
 6227SOL     OW24639   0.079   3.693   3.481 -0.1709 -0.2526  0.3594
 6227SOL    HW224640   0.093   3.675   3.388  2.1026 -0.7844  0.7572
 6227SOL    HW324641   0.014   3.627   3.508  0.3271 -1.1291 -0.5074
 6227SOL    MW424642   0.072   3.682   3.473  0.6718 -0.8332 -0.0254
 6228SOL     OW24643   4.072   2.075   4.757  0.3417  0.0684 -0.6677
 6228SOL    HW224644   4.070   2.066   4.852  1.1395  1.2557 -0.5201
 6228SOL    HW324645   4.142   2.017   4.729  1.8472  1.6166 -0.2567
 6228SOL    MW424646   4.081   2.066   4.766 -0.4754 -0.3640  0.2598
 6229SOL     OW24647   0.333   4.754   2.176 -0.0636 -0.4629  0.0345
 6229SOL    HW224648   0.323   4.676   2.231 -0.2561 -0.9668 -0.7033
 6229SOL    HW324649   0.245   4.772   2.144  0.3467 -1.3776 -1.7209
 6229SOL    MW424650   0.320   4.747   2.179  0.2258  0.4838 -0.2074
 6230SOL     OW24651   5.771   1.189   2.388 -0.0165 -0.6860 -0.3885
 6230SOL    HW224652   5.794   1.259   2.327  3.6885  1.0374  2.5430
 6230SOL    HW324653   5.774   1.109   2.336 -1.5745  0.9609 -3.2770
 6230SOL    MW424654   5.774   1.188   2.373  0.4998 -0.5093 -0.6941
 6231SOL     OW24655   1.493   5.834   1.532  0.1385  0.2962 -0.0581
 6231SOL    HW224656   1.404   5.801   1.527 -0.0242  0.4576  1.3694
 6231SOL    HW324657   1.532   5.813   1.447 -0.5510 -1.8287  0.1005
 6231SOL    MW424658   1.487   5.827   1.520 -0.0009  0.0357 -0.1213
 6232SOL     OW24659   2.565   2.571   4.356 -0.2228  0.2660 -0.1149
 6232SOL    HW224660   2.563   2.660   4.323 -1.1130 -0.1400 -1.2404
 6232SOL    HW324661   2.542   2.579   4.449  2.1151  1.4165  0.4383
 6232SOL    MW424662   2.562   2.584   4.364 -0.2599  0.2363  0.0463
 6233SOL     OW24663   5.012   2.980   2.162 -0.4053  0.3784  0.7568
 6233SOL    HW224664   5.043   3.014   2.078  0.3093 -0.5683  0.6147
 6233SOL    HW324665   4.993   2.888   2.144 -0.5213  0.2409  1.5625
 6233SOL    MW424666   5.014   2.972   2.148 -0.6582 -0.1403 -0.1690
 6234SOL     OW24667   3.938   2.951   1.463 -0.1527  0.0139  0.1108
 6234SOL    HW224668   4.006   3.002   1.419  1.9698 -1.6311  1.3186
 6234SOL    HW324669   3.909   3.006   1.535  0.6673  0.3176  0.2153
 6234SOL    MW424670   3.943   2.965   1.467  0.4817  0.3743 -0.1433
 6235SOL     OW24671   4.937   2.204   1.526  0.0975  0.0496 -0.0548
 6235SOL    HW224672   4.988   2.184   1.604 -2.8828 -1.4754  1.7114
 6235SOL    HW324673   4.940   2.123   1.475 -0.1587  0.1044 -0.1574
 6235SOL    MW424674   4.944   2.191   1.530 -0.2611 -0.0977 -0.1624
 6236SOL     OW24675   3.790   3.029   2.594  0.2241 -0.1691  0.2722
 6236SOL    HW224676   3.697   3.012   2.582  0.6363 -2.2987 -0.3797
 6236SOL    HW324677   3.807   3.011   2.687  0.0638 -0.2538  0.2842
 6236SOL    MW424678   3.780   3.024   2.605 -0.1298 -0.2231  0.2036
 6237SOL     OW24679   1.764   4.851   5.353  0.4805 -0.3510  0.0189
 6237SOL    HW224680   1.711   4.779   5.318 -0.1130  0.6088 -1.1339
 6237SOL    HW324681   1.721   4.930   5.320  2.0610  0.4874 -0.1232
 6237SOL    MW424682   1.751   4.852   5.344  0.1854  0.4395 -0.4213
 6238SOL     OW24683   4.076   0.693   0.393 -0.2421  0.1544 -0.0237
 6238SOL    HW224684   4.081   0.786   0.414  1.6019  0.3277 -1.0068
 6238SOL    HW324685   4.035   0.653   0.470  1.1620  1.4695  1.4866
 6238SOL    MW424686   4.072   0.700   0.406 -0.5923  0.2118  0.1232
 6239SOL     OW24687   4.113   4.011   4.028  0.0797  0.1477  0.3300
 6239SOL    HW224688   4.200   3.996   4.063  0.2278 -0.0110 -0.1045
 6239SOL    HW324689   4.094   4.103   4.050  1.2422  0.8707 -1.4460
 6239SOL    MW424690   4.122   4.021   4.035 -0.2090  0.1886 -0.6243
 6240SOL     OW24691   4.771   5.036   4.825  0.6655  0.3054  0.2073
 6240SOL    HW224692   4.785   5.124   4.792  0.7403  0.3586  0.3784
 6240SOL    HW324693   4.782   4.979   4.749 -0.6722  0.5404 -0.1929
 6240SOL    MW424694   4.774   5.040   4.811 -0.2976  0.1022  0.2375
 6241SOL     OW24695   4.334   0.339   1.099 -0.5332 -0.4628  0.0232
 6241SOL    HW224696   4.270   0.283   1.056  0.2508 -0.1911 -1.6071
 6241SOL    HW324697   4.317   0.426   1.062  0.2360 -0.2396  0.1790
 6241SOL    MW424698   4.323   0.343   1.088 -0.4718  0.4543  0.3062
 6242SOL     OW24699   2.548   1.866   2.934  0.2513 -0.2985 -1.0013
 6242SOL    HW224700   2.572   1.895   3.021  0.1186 -1.5704 -0.5281
 6242SOL    HW324701   2.452   1.861   2.936  0.2990 -1.4949 -0.8109
 6242SOL    MW424702   2.538   1.869   2.945  0.2770 -0.5593  0.5307
 6243SOL     OW24703   4.786   5.984   3.258 -0.2926  0.5123  0.3688
 6243SOL    HW224704   4.740   5.960   3.177 -1.6566  1.1548  0.9082
 6243SOL    HW324705   4.863   6.033   3.229 -1.3802  1.7557 -0.5334
 6243SOL    MW424706   4.790   5.987   3.244  0.1364 -0.2556 -0.5588
 6244SOL     OW24707   3.133   2.630   1.579  0.6294  0.2057 -0.7514
 6244SOL    HW224708   3.055   2.618   1.525 -0.7519 -1.0728  1.3596
 6244SOL    HW324709   3.160   2.540   1.600  0.6901  0.6419  1.1851
 6244SOL    MW424710   3.126   2.616   1.575 -0.2712  0.0891 -0.4747
 6245SOL     OW24711   0.491   4.854   0.052 -0.2503  0.4078 -0.0095
 6245SOL    HW224712   0.453   4.881   0.135  0.6530 -1.3590  1.0423
 6245SOL    HW324713   0.419   4.813   0.004 -1.1979  2.9264 -0.8890
 6245SOL    MW424714   0.477   4.852   0.056  0.2054 -0.0899 -0.1914
 6246SOL     OW24715   0.038   2.204   2.519  0.3960  0.5832 -0.1327
 6246SOL    HW224716   0.029   2.125   2.573  0.5480  0.7112  0.0868
 6246SOL    HW324717   0.075   2.269   2.579  0.6556  0.7022 -0.4174
 6246SOL    MW424718   0.042   2.202   2.534 -0.2476 -0.2541 -0.3133
 6247SOL     OW24719   2.629   5.780   0.998 -0.5052 -0.5709 -0.4964
 6247SOL    HW224720   2.545   5.736   0.994 -1.5138  1.2623 -0.9328
 6247SOL    HW324721   2.677   5.748   0.922 -0.3992 -2.3073  0.2492
 6247SOL    MW424722   2.625   5.770   0.988 -0.1578  0.0751 -0.2898
 6248SOL     OW24723   1.123   4.452   3.724 -0.6168 -0.3961 -0.4145
 6248SOL    HW224724   1.207   4.447   3.770  1.1055  2.5430 -2.9073
 6248SOL    HW324725   1.072   4.516   3.773 -0.7538 -0.9162  0.1322
 6248SOL    MW424726   1.128   4.459   3.736 -0.3680 -0.3405 -0.1403
 6249SOL     OW24727   3.202   1.215   3.598 -0.3202  0.2188  0.2603
 6249SOL    HW224728   3.124   1.270   3.591 -0.3657  0.0234 -1.0648
 6249SOL    HW324729   3.237   1.233   3.685 -1.9931  0.0972  0.9852
 6249SOL    MW424730   3.197   1.225   3.608 -0.2861 -0.5922  1.0431
 6250SOL     OW24731   5.931   4.177   3.143  0.0526  0.1026  0.1100
 6250SOL    HW224732   5.961   4.103   3.195 -2.0638 -0.7037  0.2791
 6250SOL    HW324733   5.898   4.138   3.062 -0.6733  0.8816  0.0132
 6250SOL    MW424734   5.930   4.162   3.139 -0.0771  0.0908 -0.1581
 6251SOL     OW24735   1.762   1.807   5.473 -0.7133  0.4355  0.3810
 6251SOL    HW224736   1.800   1.792   5.386 -1.2248  1.8509 -0.1217
 6251SOL    HW324737   1.773   1.901   5.487 -2.3283  0.5512  1.0276
 6251SOL    MW424738   1.769   1.818   5.463 -0.0611  0.1375 -0.1967
 6252SOL     OW24739   0.099   2.158   2.905  0.2772 -0.9440  0.3063
 6252SOL    HW224740   0.033   2.090   2.895  0.3582 -0.7988 -1.5106
 6252SOL    HW324741   0.050   2.240   2.902  0.3859 -0.8745  0.4273
 6252SOL    MW424742   0.084   2.160   2.903  0.4284 -0.2889 -0.1645
 6253SOL     OW24743   5.445   0.440   6.009 -0.4241 -0.1083 -0.1883
 6253SOL    HW224744   5.417   0.484   6.089 -1.0825  0.2933 -0.6241
 6253SOL    HW324745   5.471   0.512   5.951  0.2013 -0.4044 -0.2801
 6253SOL    MW424746   5.445   0.455   6.012 -0.6262 -0.0205 -0.6649
 6254SOL     OW24747   2.824   1.055   0.534  0.3307  0.3492 -0.1386
 6254SOL    HW224748   2.760   0.984   0.533 -1.0047  1.5281 -0.8677
 6254SOL    HW324749   2.866   1.047   0.620 -1.3833  0.0612  0.7188
 6254SOL    MW424750   2.821   1.044   0.545  0.0604 -0.1431  0.2277
 6255SOL     OW24751   1.219   4.564   5.165 -0.4851  0.0957  0.7911
 6255SOL    HW224752   1.223   4.614   5.083  0.2306  1.1821  1.4609
 6255SOL    HW324753   1.145   4.602   5.213  0.7709  1.3883  1.8084
 6255SOL    MW424754   1.210   4.576   5.160  0.0751  0.1598  0.2569
 6256SOL     OW24755   2.470   5.654   1.453 -0.7586 -0.8184 -0.1899
 6256SOL    HW224756   2.422   5.660   1.536 -0.3903 -1.9290  0.1132
 6256SOL    HW324757   2.542   5.716   1.463 -2.2182  1.0856 -0.7523
 6256SOL    MW424758   2.473   5.663   1.466  0.4237 -0.2066 -0.5655
 6257SOL     OW24759   4.379   1.830   5.332 -0.3217  0.1228 -0.3807
 6257SOL    HW224760   4.286   1.854   5.331 -0.1279  0.9104 -0.0080
 6257SOL    HW324761   4.379   1.734   5.335 -1.1192  0.0666 -1.6159
 6257SOL    MW424762   4.367   1.820   5.332  0.0036  0.2930 -0.3983
 6258SOL     OW24763   2.484   5.966   2.175 -0.3636  0.6585 -0.2799
 6258SOL    HW224764   2.393   5.963   2.146 -0.1826 -0.4887 -0.7946
 6258SOL    HW324765   2.521   5.882   2.147  0.7166  0.8927  0.3744
 6258SOL    MW424766   2.477   5.955   2.167 -0.8429  0.0587 -0.2345
 6259SOL     OW24767   1.833   4.906   3.608  0.4421  0.4086  0.4639
 6259SOL    HW224768   1.757   4.947   3.648 -0.0395 -0.3924  0.3834
 6259SOL    HW324769   1.824   4.813   3.628  0.3936  0.0340 -1.1485
 6259SOL    MW424770   1.822   4.899   3.616  0.0384  0.3109  0.4843
 6260SOL     OW24771   4.392   1.280   0.457 -0.0593  0.8737  0.0695
 6260SOL    HW224772   4.297   1.283   0.453 -0.1921  0.5425  2.0591
 6260SOL    HW324773   4.413   1.190   0.482  0.7778  0.9416 -0.3325
 6260SOL    MW424774   4.382   1.268   0.460  0.0999 -0.1148  0.2124
 6261SOL     OW24775   4.911   3.953   5.111  0.3475 -0.0511 -0.2005
 6261SOL    HW224776   4.915   3.858   5.104  1.8614  0.0912 -1.9487
 6261SOL    HW324777   4.827   3.970   5.154  1.1939 -2.2307  2.5865
 6261SOL    MW424778   4.900   3.943   5.116  0.4039  0.1276 -0.3508
 6262SOL     OW24779   2.830   4.642   1.999 -0.4465  0.6649  0.1181
 6262SOL    HW224780   2.896   4.672   1.936 -1.2080 -0.0794 -1.0702
 6262SOL    HW324781   2.772   4.586   1.948  0.4656 -2.2671  2.0593
 6262SOL    MW424782   2.831   4.639   1.984  0.0437 -0.0271 -0.1309
 6263SOL     OW24783   0.096   5.702   3.504 -0.1623 -0.1538 -0.3661
 6263SOL    HW224784   0.001   5.710   3.497 -0.4020 -2.1804  0.1675
 6263SOL    HW324785   0.120   5.632   3.444  0.4518 -2.3670  2.2870
 6263SOL    MW424786   0.087   5.694   3.495  0.0882 -0.3342 -0.0846
 6264SOL     OW24787   0.518   1.616   5.898 -0.0896 -0.0828 -0.0356
 6264SOL    HW224788   0.514   1.607   5.994 -1.2622 -0.3141 -0.0903
 6264SOL    HW324789   0.444   1.564   5.866  1.1736 -1.2539 -1.1738
 6264SOL    MW424790   0.508   1.608   5.907 -0.1837  0.5594 -0.2278
 6265SOL     OW24791   1.873   0.087   5.414  0.3131 -0.1588 -0.1071
 6265SOL    HW224792   1.844   0.156   5.355  0.5168 -1.5866 -1.9629
 6265SOL    HW324793   1.968   0.087   5.407  0.2475 -2.7130 -2.7885
 6265SOL    MW424794   1.882   0.096   5.405 -0.8080 -0.2433 -0.4580
 6266SOL     OW24795   2.852   4.342   2.822 -1.0609  0.4615  0.7942
 6266SOL    HW224796   2.884   4.315   2.908  0.7397 -1.3001 -0.3261
 6266SOL    HW324797   2.931   4.346   2.768 -2.4119 -1.5924 -1.5238
 6266SOL    MW424798   2.867   4.339   2.826  0.2366 -0.0006 -0.6022
 6267SOL     OW24799   2.285   4.650   3.027  0.7159  0.0883  0.0962
 6267SOL    HW224800   2.350   4.681   3.091 -1.1164  1.5914  1.3264
 6267SOL    HW324801   2.203   4.646   3.077 -0.4452 -0.3344 -1.7769
 6267SOL    MW424802   2.283   4.654   3.042 -0.3711  0.4892  0.3041
 6268SOL     OW24803   2.696   3.926   3.636 -0.0602 -0.0745 -0.4045
 6268SOL    HW224804   2.709   4.004   3.582 -0.4145  0.1084 -0.2283
 6268SOL    HW324805   2.746   3.943   3.715 -1.4344  0.7046  0.3479
 6268SOL    MW424806   2.704   3.938   3.639  0.2649  0.2382  0.5329
 6269SOL     OW24807   0.336   4.977   4.689 -0.2514  0.2683 -0.5754
 6269SOL    HW224808   0.387   4.932   4.622  0.7306 -0.3186  0.5243
 6269SOL    HW324809   0.386   4.965   4.770 -1.3829  0.9697  0.2670
 6269SOL    MW424810   0.349   4.969   4.691 -0.2491 -0.2503  0.3252
 6270SOL     OW24811   5.737   5.063   4.742 -0.2103 -0.0472  0.0036
 6270SOL    HW224812   5.801   5.038   4.675 -0.2792  1.5013 -0.6881
 6270SOL    HW324813   5.751   5.157   4.755 -0.2890 -0.2849  2.0916
 6270SOL    MW424814   5.747   5.072   4.735  0.5014  0.8428 -0.0238
 6271SOL     OW24815   4.610   5.632   4.739  0.5018 -0.6398 -0.1972
 6271SOL    HW224816   4.629   5.554   4.686  1.2291  0.0658 -1.0049
 6271SOL    HW324817   4.675   5.696   4.711  1.1784 -0.3569  1.8401
 6271SOL    MW424818   4.621   5.630   4.729 -0.7796 -0.1000  0.6613
 6272SOL     OW24819   1.694   3.589   5.371 -0.6305 -0.2278  0.0831
 6272SOL    HW224820   1.765   3.631   5.420  0.0794  0.0686 -1.1516
 6272SOL    HW324821   1.630   3.563   5.438  0.5527 -0.3396  1.2033
 6272SOL    MW424822   1.695   3.591   5.386 -0.0876 -0.7537 -0.2434
 6273SOL     OW24823   3.650   5.438   5.525  0.1498  0.2442 -0.2545
 6273SOL    HW224824   3.607   5.460   5.608 -0.7330  0.1181 -0.6640
 6273SOL    HW324825   3.712   5.369   5.547 -0.1048  0.1882  0.2985
 6273SOL    MW424826   3.652   5.432   5.539  0.4646 -0.0161 -0.4941
 6274SOL     OW24827   2.682   4.109   3.091 -0.2671  0.1026 -0.2823
 6274SOL    HW224828   2.604   4.053   3.096 -1.1855  1.3939  0.4920
 6274SOL    HW324829   2.745   4.058   3.040 -0.9722 -1.7267  0.5884
 6274SOL    MW424830   2.680   4.095   3.085 -0.3614  0.1499  0.3471
 6275SOL     OW24831   5.716   1.936   0.805  0.1242  0.6762  0.0350
 6275SOL    HW224832   5.655   1.959   0.734 -1.6124 -1.8514  0.5538
 6275SOL    HW324833   5.794   1.903   0.760  0.2743  1.9539 -0.6658
 6275SOL    MW424834   5.718   1.934   0.790 -0.3734 -0.2527  0.3630
 6276SOL     OW24835   5.997   5.295   5.683 -0.3259  0.3138  0.0348
 6276SOL    HW224836   5.958   5.259   5.603 -0.3575  0.8381 -0.1917
 6276SOL    HW324837   5.998   5.221   5.745  1.7462 -0.7296 -1.1362
 6276SOL    MW424838   5.992   5.280   5.681  0.6802  0.1389 -0.4314
 6277SOL     OW24839   3.563   3.578   4.754  0.7449  0.2409  0.1819
 6277SOL    HW224840   3.482   3.557   4.706  0.8745  0.3693 -0.0922
 6277SOL    HW324841   3.612   3.496   4.753  1.0944  0.4445 -0.5874
 6277SOL    MW424842   3.558   3.564   4.747 -0.2753  0.4126 -0.0566
 6278SOL     OW24843   3.478   5.255   1.830 -0.3447 -0.1504  0.1678
 6278SOL    HW224844   3.524   5.205   1.896 -1.5961  0.5347  1.6097
 6278SOL    HW324845   3.544   5.315   1.795  0.7062 -1.5421 -0.3293
 6278SOL    MW424846   3.493   5.257   1.834 -0.1791  0.8945 -0.5699
 6279SOL     OW24847   0.800   4.772   1.277 -0.2259  0.1664  0.3033
 6279SOL    HW224848   0.723   4.788   1.332 -0.2228 -0.8878  0.6441
 6279SOL    HW324849   0.874   4.793   1.333 -0.2471  0.4842  0.2148
 6279SOL    MW424850   0.799   4.777   1.291 -0.2100  0.1382 -0.2580
 6280SOL     OW24851   3.973   0.135   5.174  0.2607  0.3845 -0.0057
 6280SOL    HW224852   4.000   0.092   5.093 -0.3716  0.4098 -0.2358
 6280SOL    HW324853   3.887   0.098   5.194  0.0638  0.9521  0.2301
 6280SOL    MW424854   3.965   0.125   5.166  0.1041  0.5064  0.3150
 6281SOL     OW24855   4.111   0.962   0.417 -0.7215  0.2396  0.0896
 6281SOL    HW224856   4.105   1.034   0.479 -0.9183  0.7370 -0.4953
 6281SOL    HW324857   4.085   1.000   0.333 -0.8551 -0.5174 -0.2238
 6281SOL    MW424858   4.107   0.976   0.414  0.0932  0.3315  1.0536
 6282SOL     OW24859   5.906   5.473   5.275 -0.3666  0.1148  0.4583
 6282SOL    HW224860   5.956   5.498   5.353 -0.7685  1.8808  0.1896
 6282SOL    HW324861   5.952   5.396   5.241 -0.5209 -1.0830  2.7290
 6282SOL    MW424862   5.918   5.466   5.281 -0.2954  0.1991 -0.1709
 6283SOL     OW24863   6.402   0.436   1.541  0.5373 -0.2271  0.2140
 6283SOL    HW224864   6.346   0.499   1.586  0.4048 -0.3000  0.1477
 6283SOL    HW324865   6.380   0.352   1.581 -0.0445 -0.3889 -0.4494
 6283SOL    MW424866   6.392   0.433   1.552  0.4304 -0.7582 -0.3833
 6284SOL     OW24867   3.137   6.429   3.211  0.3524 -0.4598  0.6806
 6284SOL    HW224868   3.097   6.516   3.218  0.5146 -0.1658 -1.5369
 6284SOL    HW324869   3.064   6.368   3.222 -0.0571 -0.0069  0.5120
 6284SOL    MW424870   3.122   6.433   3.214 -0.4143 -0.2439 -0.1541
 6285SOL     OW24871   1.896   5.699   3.272  0.2528 -0.3039 -0.0678
 6285SOL    HW224872   1.985   5.677   3.297 -0.2404 -2.0970  0.2398
 6285SOL    HW324873   1.875   5.641   3.199 -0.5205  0.4001 -0.4287
 6285SOL    MW424874   1.905   5.688   3.266  0.0891  0.4471 -0.7109
 6286SOL     OW24875   0.810   3.156   5.866 -0.5454 -0.9761 -0.2142
 6286SOL    HW224876   0.855   3.116   5.940 -0.6732 -0.5693  0.0851
 6286SOL    HW324877   0.767   3.233   5.903 -0.7863 -0.8919 -0.6686
 6286SOL    MW424878   0.810   3.160   5.881  0.1285  0.4622 -0.0390
 6287SOL     OW24879   0.660   2.237   5.378 -0.6030 -0.5574 -0.4062
 6287SOL    HW224880   0.582   2.234   5.433 -1.0459 -1.4164 -1.0700
 6287SOL    HW324881   0.720   2.175   5.420 -1.0065 -1.3430 -0.9889
 6287SOL    MW424882   0.658   2.229   5.391 -0.2401  0.7485  0.1529
 6288SOL     OW24883   0.538   3.612   2.952 -0.1843  0.6531  0.0481
 6288SOL    HW224884   0.611   3.652   2.999  0.9067 -0.4469 -0.6366
 6288SOL    HW324885   0.519   3.532   3.002 -1.8081  1.5448  0.9518
 6288SOL    MW424886   0.545   3.607   2.965  0.3018 -0.6523  0.1389
 6289SOL     OW24887   5.633   3.634   3.584 -0.1308  0.3558 -0.3196
 6289SOL    HW224888   5.647   3.540   3.597  1.2509  0.4124 -1.2255
 6289SOL    HW324889   5.612   3.668   3.670  0.9050 -0.5369  0.3049
 6289SOL    MW424890   5.632   3.626   3.597 -0.4021  0.4119  0.0786
 6290SOL     OW24891   2.241   3.547   4.140 -0.0382 -0.5228 -0.6056
 6290SOL    HW224892   2.330   3.538   4.105  1.2721 -0.0314  2.3163
 6290SOL    HW324893   2.222   3.640   4.131 -0.1651 -0.5875 -1.0160
 6290SOL    MW424894   2.251   3.558   4.134  0.1685  0.1865 -0.7295
 6291SOL     OW24895   4.557   1.017   1.554 -0.4072 -0.1982  0.5645
 6291SOL    HW224896   4.541   0.934   1.510 -1.5442 -0.0894  0.7276
 6291SOL    HW324897   4.609   1.068   1.492  0.5620 -1.1285  0.5870
 6291SOL    MW424898   4.562   1.013   1.540  0.9635  0.6102  0.5457
 6292SOL     OW24899   4.166   2.714   2.570 -0.1011 -0.1056  0.2647
 6292SOL    HW224900   4.222   2.699   2.493  1.4127  1.4201  1.0069
 6292SOL    HW324901   4.103   2.779   2.542 -0.5938 -0.7462 -0.1429
 6292SOL    MW424902   4.165   2.720   2.556 -0.0444  0.0764  0.6876
 6293SOL     OW24903   2.755   2.204   4.924 -0.0663 -0.5676 -0.2609
 6293SOL    HW224904   2.819   2.247   4.867  0.2187 -0.8546 -0.1607
 6293SOL    HW324905   2.800   2.126   4.956  0.7363  0.8545  2.3863
 6293SOL    MW424906   2.770   2.199   4.921 -0.4086 -0.0412  0.0693
 6294SOL     OW24907   3.155   5.229   5.182 -0.1980  0.0978  0.4432
 6294SOL    HW224908   3.117   5.297   5.238  2.6772  0.8200  1.6419
 6294SOL    HW324909   3.101   5.151   5.199 -2.3516  1.5113  0.5091
 6294SOL    MW424910   3.143   5.228   5.191  0.1784  0.8825 -0.5425
 6295SOL     OW24911   6.322   0.228   1.703  0.0495  0.4828  0.3214
 6295SOL    HW224912   6.241   0.185   1.674 -0.2508  1.7625 -0.8327
 6295SOL    HW324913   6.307   0.245   1.796 -0.3584 -0.6853  0.4918
 6295SOL    MW424914   6.309   0.225   1.712 -0.0334 -0.5785  0.1376
 6296SOL     OW24915   4.446   0.823   1.782  0.5330  0.7955  0.7802
 6296SOL    HW224916   4.458   0.729   1.798 -1.3842  0.6593  1.6857
 6296SOL    HW324917   4.384   0.827   1.709  0.5889  1.3602  0.7600
 6296SOL    MW424918   4.439   0.811   1.775  0.2557  0.7072 -0.0603
 6297SOL     OW24919   2.089   5.349   5.008 -0.2004  0.7307  0.2192
 6297SOL    HW224920   2.136   5.395   5.078  0.2495 -1.0603  1.1351
 6297SOL    HW324921   2.015   5.307   5.053 -0.4775  0.3735 -0.5618
 6297SOL    MW424922   2.085   5.350   5.023  0.6847 -0.3433  0.5037
 6298SOL     OW24923   2.155   5.420   3.894  0.5052 -0.1595 -0.2296
 6298SOL    HW224924   2.209   5.408   3.972  1.1878  1.1006 -0.4777
 6298SOL    HW324925   2.169   5.339   3.843  0.7331 -0.6180  0.5438
 6298SOL    MW424926   2.164   5.408   3.897  0.1267  0.7008 -0.4690
 6299SOL     OW24927   1.761   1.367   4.899 -0.4012 -0.0243 -0.2774
 6299SOL    HW224928   1.751   1.376   4.804  1.9971 -0.6314 -0.6337
 6299SOL    HW324929   1.783   1.455   4.930 -1.8078  0.3102 -0.1500
 6299SOL    MW424930   1.762   1.380   4.890 -0.3736  0.3907 -0.3978
 6300SOL     OW24931   3.959   2.383   4.952 -0.5087  0.2471  0.3289
 6300SOL    HW224932   4.028   2.411   4.891  0.1667  0.0324  0.9794
 6300SOL    HW324933   3.932   2.463   4.997  0.3504  0.1263  1.1015
 6300SOL    MW424934   3.965   2.397   4.950  0.1869 -0.8992 -0.3368
 6301SOL     OW24935   0.100   5.505   5.390 -0.4625  0.0927  0.1503
 6301SOL    HW224936   0.129   5.490   5.301  1.2557  1.8334  0.3622
 6301SOL    HW324937   0.055   5.424   5.415  2.1335 -1.8376 -1.0600
 6301SOL    MW424938   0.098   5.492   5.382  0.9464 -0.8266  0.6125
 6302SOL     OW24939   4.390   0.300   4.199 -0.2508 -0.3005 -0.5807
 6302SOL    HW224940   4.435   0.367   4.148  1.2486 -0.5678  0.3374
 6302SOL    HW324941   4.425   0.217   4.168 -0.8639 -0.5769 -0.5545
 6302SOL    MW424942   4.400   0.298   4.188  0.3452 -0.1332 -0.7675
 6303SOL     OW24943   2.761   1.775   6.363 -0.3084 -0.3905  0.5677
 6303SOL    HW224944   2.773   1.703   6.301 -0.9466  0.3502 -0.4611
 6303SOL    HW324945   2.677   1.755   6.406  0.1181 -0.8876  1.1786
 6303SOL    MW424946   2.751   1.763   6.360  0.1180 -0.1882  0.2448
 6304SOL     OW24947   1.077   4.351   0.462  0.3120  0.2482 -0.3513
 6304SOL    HW224948   1.111   4.286   0.524  2.9929  2.6580  0.9208
 6304SOL    HW324949   0.991   4.375   0.498  1.1989  0.5635  1.6882
 6304SOL    MW424950   1.070   4.346   0.475  0.2120 -0.8300 -0.4610
 6305SOL     OW24951   2.711   0.859   5.112  0.0530  0.1402 -0.6497
 6305SOL    HW224952   2.737   0.786   5.167 -0.0410  0.4990 -0.1181
 6305SOL    HW324953   2.790   0.911   5.101 -0.6726  2.0903  2.2846
 6305SOL    MW424954   2.725   0.856   5.118 -0.9919 -0.7197  0.0673
 6306SOL     OW24955   5.466   1.371   6.156 -0.1167  0.4934  0.0728
 6306SOL    HW224956   5.458   1.371   6.061  2.0498 -0.4595 -0.1676
 6306SOL    HW324957   5.384   1.332   6.187 -1.2334  1.6190 -1.3116
 6306SOL    MW424958   5.454   1.365   6.147  0.2834  0.2128 -0.0261
 6307SOL     OW24959   0.816   6.316   3.847 -0.4035  0.1259  0.3367
 6307SOL    HW224960   0.857   6.315   3.761 -1.5629 -1.3322 -0.2305
 6307SOL    HW324961   0.761   6.395   3.847  0.0827  0.4723 -0.0045
 6307SOL    MW424962   0.814   6.327   3.836 -0.1908  0.2331 -0.2880
 6308SOL     OW24963   6.315   4.822   5.804 -0.2965 -0.5692  0.1002
 6308SOL    HW224964   6.276   4.773   5.732  0.2837 -0.8838 -0.0055
 6308SOL    HW324965   6.382   4.764   5.839 -0.3500 -0.2876  0.6869
 6308SOL    MW424966   6.319   4.808   5.799 -0.1040  0.0092 -0.1328
 6309SOL     OW24967   5.059   0.710   4.779  0.5586 -0.0980 -0.0076
 6309SOL    HW224968   4.983   0.706   4.837  0.7634 -0.9099  0.2128
 6309SOL    HW324969   5.053   0.797   4.738 -1.4259 -0.7481 -1.2424
 6309SOL    MW424970   5.048   0.721   4.781  0.0251 -0.7684  0.8467
 6310SOL     OW24971   3.949   5.477   3.036  0.3593 -0.4145  0.2606
 6310SOL    HW224972   3.964   5.514   2.950 -0.4476 -1.3880 -0.3187
 6310SOL    HW324973   3.943   5.552   3.095 -0.1013  0.3041 -0.6895
 6310SOL    MW424974   3.950   5.491   3.033  0.1829 -0.0024  0.6514
 6311SOL     OW24975   0.343   0.859   2.675 -0.0508 -0.6747 -0.1577
 6311SOL    HW224976   0.420   0.833   2.726  0.3868 -1.3380 -1.1329
 6311SOL    HW324977   0.278   0.884   2.741  1.0438  0.0616  0.6784
 6311SOL    MW424978   0.345   0.859   2.691  0.6176 -0.0365  0.1946
 6312SOL     OW24979   2.705   4.950   1.361 -0.1920  0.3105 -0.2620
 6312SOL    HW224980   2.777   4.909   1.313  0.8851  0.8912  0.7975
 6312SOL    HW324981   2.707   4.909   1.447  1.3719  2.9162  1.0950
 6312SOL    MW424982   2.715   4.939   1.366  0.2173 -0.3576  0.4588
 6313SOL     OW24983   0.847   2.952   0.389  0.6545  0.0949  0.2132
 6313SOL    HW224984   0.912   2.904   0.337 -0.2461  0.6366 -1.4634
 6313SOL    HW324985   0.816   2.887   0.452  1.8509 -0.5542  0.1800
 6313SOL    MW424986   0.852   2.937   0.391 -0.0443 -0.4636  0.1641
 6314SOL     OW24987   3.383   5.809   1.737  0.1206 -0.0446 -0.1156
 6314SOL    HW224988   3.338   5.871   1.679 -0.4153 -0.4669 -0.1559
 6314SOL    HW324989   3.427   5.865   1.802  1.1347  0.4605 -1.1913
 6314SOL    MW424990   3.383   5.825   1.738  0.4930  0.6187  0.0646
 6315SOL     OW24991   2.929   4.021   2.991 -0.3582 -0.0752  0.1720
 6315SOL    HW224992   3.007   4.054   2.947 -0.5838 -0.3338 -0.4420
 6315SOL    HW324993   2.962   3.977   3.069  0.0420  0.4849  0.3251
 6315SOL    MW424994   2.943   4.020   2.995 -0.4028  0.4083 -0.3020
 6316SOL     OW24995   3.733   5.942   1.316  0.1347 -0.0522 -0.2128
 6316SOL    HW224996   3.781   5.867   1.352 -0.9175 -0.5424  0.2008
 6316SOL    HW324997   3.801   5.996   1.276  1.1180 -0.4243  0.8768
 6316SOL    MW424998   3.748   5.939   1.316 -0.2433 -0.4949 -0.0516
 6317SOL     OW24999   2.334   5.427   0.493 -1.1370 -0.8991  0.4498
 6317SOL    HW225000   2.333   5.520   0.469  1.2470 -0.7197  0.7936
 6317SOL    HW325001   2.301   5.425   0.583  1.2927  0.0490  1.4557
 6317SOL    MW425002   2.329   5.439   0.501 -0.4442  0.4854 -0.3038
 6318SOL     OW25003   5.344   1.403   3.655  0.9549 -0.3381 -0.2020
 6318SOL    HW225004   5.410   1.427   3.721  0.7823 -1.7373  0.5097
 6318SOL    HW325005   5.393   1.355   3.588  0.6463 -1.6011  0.4532
 6318SOL    MW425006   5.359   1.400   3.655 -0.5392  0.1202 -0.0039
 6319SOL     OW25007   3.051   2.772   3.860 -0.3886  0.5776  0.7343
 6319SOL    HW225008   2.990   2.705   3.829  0.1030 -0.1073  1.2276
 6319SOL    HW325009   3.073   2.822   3.782  0.3580 -0.7407  0.0683
 6319SOL    MW425010   3.046   2.770   3.846  0.3351 -0.3596  0.4455
 6320SOL     OW25011   5.804   4.587   5.636 -0.1632 -0.4007 -0.7122
 6320SOL    HW225012   5.749   4.554   5.708  0.2357 -1.2238 -0.7686
 6320SOL    HW325013   5.755   4.564   5.557 -0.1777 -0.3014 -0.7315
 6320SOL    MW425014   5.790   4.579   5.635  0.7653 -0.2727  0.7170
 6321SOL     OW25015   2.885   3.679   4.172  0.5377  0.4336 -0.3354
 6321SOL    HW225016   2.809   3.675   4.230  0.6919  2.0628  0.0240
 6321SOL    HW325017   2.913   3.587   4.162  0.1520  0.0481  1.7047
 6321SOL    MW425018   2.879   3.666   4.179 -0.3672  0.2094  0.6051
 6322SOL     OW25019   4.881   5.677   5.994  0.0740 -0.1855 -0.2466
 6322SOL    HW225020   4.856   5.770   5.994  1.2771  0.1806  1.7953
 6322SOL    HW325021   4.977   5.678   5.993  0.0961 -1.4241 -0.5471
 6322SOL    MW425022   4.890   5.689   5.994 -0.1049 -0.0937 -0.1112
 6323SOL     OW25023   0.436   3.526   5.755 -0.1666  0.0889 -0.0392
 6323SOL    HW225024   0.407   3.600   5.808 -0.5681  0.0162 -0.1535
 6323SOL    HW325025   0.408   3.449   5.804  1.8236 -0.0438  0.9846
 6323SOL    MW425026   0.428   3.526   5.768  0.8407 -0.5981 -0.0940
 6324SOL     OW25027   4.875   2.196   3.212  0.2651 -0.1310  0.0735
 6324SOL    HW225028   4.836   2.283   3.204 -2.1925 -1.3172 -2.3764
 6324SOL    HW325029   4.809   2.144   3.258  0.0294 -1.5257 -1.7212
 6324SOL    MW425030   4.861   2.201   3.217 -0.1142 -0.3541 -0.1545
 6325SOL     OW25031   6.214   3.856   3.285  0.2543  0.2882 -0.0684
 6325SOL    HW225032   6.160   3.837   3.209  1.5985  0.5804 -1.1345
 6325SOL    HW325033   6.159   3.833   3.360 -0.1763 -2.6348 -1.1457
 6325SOL    MW425034   6.200   3.851   3.285 -0.2860 -0.2942 -0.0109
 6326SOL     OW25035   1.460   2.317   1.629 -0.4291  0.2319 -0.1427
 6326SOL    HW225036   1.373   2.352   1.611 -0.8348 -0.2290  0.8274
 6326SOL    HW325037   1.465   2.237   1.577  0.4564  1.5826 -2.2789
 6326SOL    MW425038   1.449   2.311   1.620 -0.4388 -0.1249 -0.1742
 6327SOL     OW25039   1.767   1.453   0.993 -0.0592 -0.1378  0.0828
 6327SOL    HW225040   1.780   1.373   1.042 -0.2316  0.4842  1.1689
 6327SOL    HW325041   1.738   1.424   0.906 -1.0961 -1.2090  0.7687
 6327SOL    MW425042   1.765   1.439   0.988 -0.3660  0.1508 -0.2092
 6328SOL     OW25043   1.094   1.682   0.865 -0.2190 -0.0167 -0.3096
 6328SOL    HW225044   1.173   1.630   0.878  0.1698  0.9676  1.8255
 6328SOL    HW325045   1.071   1.713   0.953 -4.1339 -1.8491 -0.4449
 6328SOL    MW425046   1.101   1.679   0.879 -0.8490 -0.5695  0.3574
 6329SOL     OW25047   2.387   3.983   0.646  0.4878 -0.1059 -0.2284
 6329SOL    HW225048   2.470   3.944   0.672  0.6944  0.3157 -0.2533
 6329SOL    HW325049   2.325   3.954   0.714  0.5994 -0.6074 -0.3363
 6329SOL    MW425050   2.390   3.974   0.659  0.4489 -0.0885 -0.2799
 6330SOL     OW25051   2.788   4.436   3.375  0.1348  0.4548 -0.1754
 6330SOL    HW225052   2.818   4.382   3.447 -0.3311 -1.3600 -1.2721
 6330SOL    HW325053   2.853   4.506   3.368  0.9065 -0.1056  1.1143
 6330SOL    MW425054   2.800   4.438   3.383 -0.5731 -0.0170  0.4740
 6331SOL     OW25055   2.540   6.178   2.729  0.5228 -0.4527 -0.7497
 6331SOL    HW225056   2.625   6.202   2.692  0.2400  0.5068 -0.7996
 6331SOL    HW325057   2.538   6.082   2.725  1.9885 -0.5530  0.1300
 6331SOL    MW425058   2.551   6.168   2.724  0.7106  0.9042  0.2557
 6332SOL     OW25059   4.932   1.907   4.767 -0.1484  0.0829  0.3872
 6332SOL    HW225060   4.937   1.962   4.689  0.8613 -0.2977  0.1661
 6332SOL    HW325061   4.838   1.897   4.784 -0.3594  1.6334  0.2747
 6332SOL    MW425062   4.920   1.913   4.759 -0.2297 -0.4274  0.2503
 6333SOL     OW25063   3.901   5.520   0.531  0.6060 -0.1467 -0.0907
 6333SOL    HW225064   3.956   5.574   0.474 -0.4979 -0.1169 -1.1830
 6333SOL    HW325065   3.876   5.579   0.602  0.2357  0.5030 -0.7408
 6333SOL    MW425066   3.905   5.535   0.532  0.0533  0.3991  0.6540
 6334SOL     OW25067   5.948   3.169   1.673 -0.5042  0.3155 -0.4843
 6334SOL    HW225068   5.963   3.151   1.766 -1.6617  0.3112 -0.2812
 6334SOL    HW325069   5.939   3.265   1.669  1.8276  0.5595 -0.9667
 6334SOL    MW425070   5.948   3.180   1.685  0.1110 -0.0901 -0.0440
 6335SOL     OW25071   5.131   0.385   5.345  0.5811  0.1958 -0.2319
 6335SOL    HW225072   5.091   0.464   5.382  0.8438 -0.2015  0.9348
 6335SOL    HW325073   5.223   0.409   5.331  0.4250  0.4306 -0.9136
 6335SOL    MW425074   5.138   0.399   5.348  0.0017  0.6074  0.5434
 6336SOL     OW25075   0.170   0.393   4.767 -0.2011  0.3942 -0.4093
 6336SOL    HW225076   0.088   0.443   4.770 -1.0148 -0.9364  1.1148
 6336SOL    HW325077   0.237   0.455   4.795 -0.9864  1.0012  0.1758
 6336SOL    MW425078   0.168   0.407   4.771  1.1776  0.6215  0.5738
 6337SOL     OW25079   3.764   5.209   0.951 -0.3577 -0.0690  0.4574
 6337SOL    HW225080   3.827   5.168   0.892 -0.6862 -1.2726  0.9111
 6337SOL    HW325081   3.706   5.259   0.893  1.5764  1.8835  0.1252
 6337SOL    MW425082   3.764   5.210   0.936 -0.0920  0.1434 -0.4858
 6338SOL     OW25083   4.652   2.535   1.361  0.2678  0.0484 -0.2125
 6338SOL    HW225084   4.581   2.507   1.419  0.6148 -0.3796  0.0132
 6338SOL    HW325085   4.661   2.463   1.298 -0.9039  1.0234 -1.5492
 6338SOL    MW425086   4.644   2.522   1.360 -0.4900  0.6320 -0.0137
 6339SOL     OW25087   0.663   5.773   5.799  0.5186 -0.3607  0.3687
 6339SOL    HW225088   0.745   5.737   5.764 -0.3081 -0.1354 -1.9766
 6339SOL    HW325089   0.690   5.823   5.876  2.4299 -1.2041  0.3053
 6339SOL    MW425090   0.677   5.774   5.805  0.5187  0.2985  0.1107
 6340SOL     OW25091   3.469   2.468   1.414  0.0147 -0.1954  0.2484
 6340SOL    HW225092   3.489   2.376   1.396  0.0386 -0.3315  0.9392
 6340SOL    HW325093   3.386   2.466   1.461 -0.1765  0.1687 -0.0662
 6340SOL    MW425094   3.461   2.456   1.418  0.0042 -0.5026  0.4217
 6341SOL     OW25095   1.692   5.280   0.862 -0.0327  0.1367  0.1688
 6341SOL    HW225096   1.736   5.339   0.923 -1.5843  3.2210 -1.4395
 6341SOL    HW325097   1.734   5.298   0.777 -1.9448  0.5903 -0.7333
 6341SOL    MW425098   1.703   5.290   0.858  0.3814 -0.2212 -0.1385
 6342SOL     OW25099   1.332   0.621   0.223 -0.3713 -0.1867 -0.1181
 6342SOL    HW225100   1.286   0.540   0.245 -0.0280  0.1062  1.8083
 6342SOL    HW325101   1.263   0.680   0.193 -0.5566 -1.3277 -2.0937
 6342SOL    MW425102   1.317   0.618   0.222  0.5127  0.0968  0.0156
 6343SOL     OW25103   3.616   6.002   5.293 -0.0532  0.1024  0.1444
 6343SOL    HW225104   3.665   5.998   5.211 -0.3979 -1.3742 -0.0280
 6343SOL    HW325105   3.663   5.941   5.351 -0.0803  0.7881  0.9007
 6343SOL    MW425106   3.629   5.993   5.290 -0.5308 -0.6627 -0.0848
 6344SOL     OW25107   3.596   6.378   4.679 -0.0553  0.1914 -0.0180
 6344SOL    HW225108   3.656   6.321   4.726 -0.2961  1.8888  2.5622
 6344SOL    HW325109   3.644   6.404   4.600  1.3622 -0.8797  0.4614
 6344SOL    MW425110   3.610   6.374   4.675  0.2254  0.2728  0.1166
 6345SOL     OW25111   2.837   4.854   0.350  0.0636 -0.0955  0.1204
 6345SOL    HW225112   2.832   4.949   0.360  0.2627 -0.0991  0.2459
 6345SOL    HW325113   2.767   4.821   0.406 -0.9611  0.0379 -1.0163
 6345SOL    MW425114   2.827   4.862   0.358 -0.3474  0.1845  0.5494
 6346SOL     OW25115   3.939   0.621   4.889  0.2097 -0.1451 -0.1049
 6346SOL    HW225116   3.904   0.550   4.943 -2.4159  1.9395  1.1827
 6346SOL    HW325117   3.893   0.614   4.806  0.0564 -0.0183 -0.0301
 6346SOL    MW425118   3.928   0.611   4.885 -0.3955 -0.4048 -0.2711
 6347SOL     OW25119   5.144   0.033   5.642  0.5903 -0.6188 -0.1580
 6347SOL    HW225120   5.062   0.046   5.690  0.6789  0.0248 -0.1667
 6347SOL    HW325121   5.121   0.051   5.551  1.2230  1.9504  0.1081
 6347SOL    MW425122   5.130   0.037   5.636 -0.0603 -0.0764  0.7743
 6348SOL     OW25123   4.332   0.038   5.034  0.2130 -0.4516  0.3064
 6348SOL    HW225124   4.277  -0.015   4.976 -0.6671 -1.1881  1.7609
 6348SOL    HW325125   4.401  -0.021   5.062  1.0747  0.1238 -0.5587
 6348SOL    MW425126   4.334   0.023   5.030 -0.3502  0.1894  0.0381
 6349SOL     OW25127   2.919   1.965   6.268 -0.4841  0.4812 -0.0184
 6349SOL    HW225128   2.913   2.024   6.343 -1.2947 -0.9564  1.0810
 6349SOL    HW325129   2.870   1.887   6.294 -0.1063 -0.3778 -1.7388
 6349SOL    MW425130   2.912   1.962   6.281 -0.0514 -0.3836  0.6505
 6350SOL     OW25131   5.373   2.843   6.396  0.2128  0.0044  0.3662
 6350SOL    HW225132   5.384   2.909   6.464 -1.7914 -1.5489  2.3516
 6350SOL    HW325133   5.402   2.761   6.438  1.5601 -0.6311 -1.6275
 6350SOL    MW425134   5.379   2.841   6.411 -0.0689  0.1856 -0.4873
 6351SOL     OW25135   4.334   4.187   6.249  0.2346  0.4749 -0.1493
 6351SOL    HW225136   4.389   4.146   6.182  0.6161 -0.1332  0.5215
 6351SOL    HW325137   4.250   4.202   6.204  0.2860 -0.4751 -0.6004
 6351SOL    MW425138   4.330   4.183   6.234  0.3944  0.1183 -0.2493
 6352SOL     OW25139   2.954   4.547   1.602  0.2035 -0.2675 -0.0250
 6352SOL    HW225140   2.945   4.634   1.640  1.5868  0.5509 -1.4537
 6352SOL    HW325141   2.887   4.543   1.533  0.4742 -0.1228 -0.3004
 6352SOL    MW425142   2.944   4.558   1.598  0.0180 -0.1862 -0.2915
 6353SOL     OW25143   2.691   0.788   5.949 -0.0569 -0.0820 -0.3179
 6353SOL    HW225144   2.719   0.698   5.967 -0.5250 -0.2676 -0.5043
 6353SOL    HW325145   2.690   0.830   6.035  1.8395  0.2466 -0.4182
 6353SOL    MW425146   2.695   0.782   5.963  0.0273  0.2191  0.2223
 6354SOL     OW25147   3.291   6.430   2.962  0.0940  0.0154  0.8203
 6354SOL    HW225148   3.221   6.428   3.027 -1.3277 -0.0690 -0.6617
 6354SOL    HW325149   3.325   6.519   2.965 -4.1330  2.0699 -2.4834
 6354SOL    MW425150   3.287   6.441   2.971  0.0443 -0.1511  0.1268
 6355SOL     OW25151   1.366   4.107   3.532 -0.2264  0.2074 -0.2145
 6355SOL    HW225152   1.283   4.063   3.511  0.2756 -1.2309  0.6717
 6355SOL    HW325153   1.431   4.064   3.477  0.1380  0.4290  0.0389
 6355SOL    MW425154   1.363   4.095   3.522  0.0988 -0.5837 -0.5847
 6356SOL     OW25155   4.513   2.037   0.468  0.0332 -0.3113  0.2826
 6356SOL    HW225156   4.530   2.125   0.501 -0.1117 -0.7039  1.4815
 6356SOL    HW325157   4.425   2.042   0.431 -0.2476 -0.1122  0.9630
 6356SOL    MW425158   4.503   2.049   0.468 -0.1698 -0.2181  0.2131
 6357SOL     OW25159   4.957   3.786   0.989  0.0311  0.3551 -0.4390
 6357SOL    HW225160   5.042   3.746   1.006  0.7298  1.3685 -1.3701
 6357SOL    HW325161   4.913   3.787   1.074  0.3980 -1.3865 -0.1992
 6357SOL    MW425162   4.962   3.781   1.002 -0.0754  0.4415 -0.5244
 6358SOL     OW25163   5.191   1.010   3.286  0.1262  0.2882  0.3424
 6358SOL    HW225164   5.113   0.978   3.331 -0.5968 -0.5585 -1.4182
 6358SOL    HW325165   5.170   1.002   3.193  2.7443 -1.1018 -0.2182
 6358SOL    MW425166   5.178   1.005   3.280  0.4752 -0.1739  0.7910
 6359SOL     OW25167   1.955   2.769   3.473  0.1856 -0.1848 -0.0862
 6359SOL    HW225168   1.998   2.736   3.394  0.4037 -1.5875  0.5854
 6359SOL    HW325169   1.887   2.704   3.492 -0.3718  0.5331  0.4629
 6359SOL    MW425170   1.952   2.756   3.465 -0.0513  0.3849  0.5553
 6360SOL     OW25171   5.608   5.657   2.455  0.1096  0.0559  0.2111
 6360SOL    HW225172   5.570   5.586   2.404 -0.9627  1.2971 -0.7927
 6360SOL    HW325173   5.589   5.634   2.546 -1.0761 -0.4798 -0.1528
 6360SOL    MW425174   5.601   5.644   2.460 -0.3350 -0.0467 -0.0752
 6361SOL     OW25175   0.761   0.512   1.516 -0.2671 -0.1127  0.0162
 6361SOL    HW225176   0.757   0.468   1.431 -0.4400  1.3004 -0.7404
 6361SOL    HW325177   0.688   0.476   1.565 -0.3118 -0.7802 -0.5193
 6361SOL    MW425178   0.751   0.501   1.511  0.4191  0.0693  0.2985
 6362SOL     OW25179   4.799   2.814   0.185  0.3239  0.1311  0.1256
 6362SOL    HW225180   4.821   2.887   0.127 -0.7535 -0.5160 -1.1535
 6362SOL    HW325181   4.859   2.744   0.159 -0.7494 -0.4549 -0.8871
 6362SOL    MW425182   4.810   2.814   0.174 -0.6478 -0.0490  0.1242
 6363SOL     OW25183   3.017   2.794   0.955 -0.0018  0.3851  0.2151
 6363SOL    HW225184   3.045   2.878   0.920  2.7072 -0.2373  0.6559
 6363SOL    HW325185   3.041   2.797   1.047  2.0810 -1.5235 -0.1631
 6363SOL    MW425186   3.024   2.805   0.962 -0.3583 -0.0691  0.2265
 6364SOL     OW25187   1.815   1.870   0.003  0.0823  0.6808  0.0502
 6364SOL    HW225188   1.770   1.788   0.025  0.4777  0.3071 -0.4989
 6364SOL    HW325189   1.746   1.924  -0.037 -0.0613  0.4044 -0.0845
 6364SOL    MW425190   1.800   1.866  -0.000 -0.2367 -0.5321  0.0728
 6365SOL     OW25191   1.495   5.071   5.501 -1.3702  0.1305 -0.0425
 6365SOL    HW225192   1.413   5.116   5.477 -1.8809 -1.3130 -1.1365
 6365SOL    HW325193   1.467   4.983   5.526 -0.0945 -0.6626 -1.2672
 6365SOL    MW425194   1.480   5.065   5.501 -0.8333 -0.1725  0.6250
 6366SOL     OW25195   2.105   5.317   0.760 -0.1737  0.3399  0.0575
 6366SOL    HW225196   2.158   5.239   0.746 -2.0807 -0.8818 -0.8168
 6366SOL    HW325197   2.068   5.305   0.847 -1.6731 -0.5682 -0.6564
 6366SOL    MW425198   2.107   5.305   0.769 -0.2226  0.3190 -0.3694
 6367SOL     OW25199   0.461   1.988   2.392  0.2880  0.3169  0.2620
 6367SOL    HW225200   0.516   1.981   2.314  1.2610  0.8865  0.8712
 6367SOL    HW325201   0.411   2.068   2.378  0.3844  0.3626  0.1721
 6367SOL    MW425202   0.462   1.998   2.380  0.1990 -0.2266  0.2925
 6368SOL     OW25203   5.164   5.667   2.089  0.0797 -0.2817 -0.5470
 6368SOL    HW225204   5.184   5.588   2.039 -2.0426 -0.3782 -1.3269
 6368SOL    HW325205   5.081   5.699   2.052 -1.5747 -0.2974  2.8304
 6368SOL    MW425206   5.156   5.661   2.077  0.6128 -0.1491  0.7421
 6369SOL     OW25207   1.575   3.425   3.956  0.0063 -0.7099 -0.1196
 6369SOL    HW225208   1.506   3.471   4.005  1.3099  1.1136  0.0920
 6369SOL    HW325209   1.529   3.353   3.912 -1.9086  0.0631  0.5177
 6369SOL    MW425210   1.560   3.421   3.957 -0.5066 -0.3800 -0.3577
 6370SOL     OW25211   5.692   0.211   1.930  0.1151  0.6852 -0.0679
 6370SOL    HW225212   5.634   0.166   1.869  0.3220  0.1827  0.0929
 6370SOL    HW325213   5.765   0.241   1.877 -0.6378  1.9762 -0.4022
 6370SOL    MW425214   5.694   0.209   1.915  0.4593  0.1170 -0.4569
 6371SOL     OW25215   1.481   1.310   3.526 -0.2563  0.1723  0.2765
 6371SOL    HW225216   1.407   1.312   3.466 -0.6480 -0.4927  0.7290
 6371SOL    HW325217   1.502   1.217   3.537  0.9383  0.3622 -0.1910
 6371SOL    MW425218   1.474   1.298   3.520 -0.1423  0.1674 -0.2163
 6372SOL     OW25219   3.425   2.854   6.107  0.2774  0.4283  0.2351
 6372SOL    HW225220   3.398   2.762   6.101  2.1145 -0.3048  2.0900
 6372SOL    HW325221   3.357   2.902   6.059 -1.0676 -1.8232 -0.2500
 6372SOL    MW425222   3.412   2.848   6.100 -0.5885  0.3354 -0.0962
 6373SOL     OW25223   1.671   2.654   2.948 -0.3496  0.6208 -0.1958
 6373SOL    HW225224   1.582   2.633   2.921 -0.6448  0.8782  0.5518
 6373SOL    HW325225   1.700   2.579   2.999 -0.2057  0.6172 -0.2809
 6373SOL    MW425226   1.663   2.642   2.951  0.0557  0.4314 -0.2714
 6374SOL     OW25227   2.572   3.069   0.406 -0.2327 -0.5176 -0.3901
 6374SOL    HW225228   2.648   3.113   0.445 -0.8086 -0.7199  0.9973
 6374SOL    HW325229   2.584   3.081   0.312  1.8795 -1.1296 -0.2430
 6374SOL    MW425230   2.584   3.077   0.399  0.1471 -0.3172 -0.5629
 6375SOL     OW25231   5.423   3.459   6.130 -0.1555  0.4856  0.3842
 6375SOL    HW225232   5.466   3.484   6.048  0.1530  0.9699  0.6902
 6375SOL    HW325233   5.496   3.442   6.191 -0.3917  0.7849  0.7511
 6375SOL    MW425234   5.439   3.460   6.127 -0.1947 -0.5171 -0.1406
 6376SOL     OW25235   3.278   5.129   3.605 -0.1912  0.3590 -0.3719
 6376SOL    HW225236   3.274   5.180   3.685  3.4180  0.9658 -0.4042
 6376SOL    HW325237   3.206   5.067   3.612 -1.3348  1.8389  2.2483
 6376SOL    MW425238   3.268   5.127   3.616 -1.0135  0.1510  0.2694
 6377SOL     OW25239   4.109   5.945   1.723  0.6509 -0.2952 -0.1611
 6377SOL    HW225240   4.104   5.970   1.815 -1.9293 -1.6576  0.1669
 6377SOL    HW325241   4.187   5.989   1.690 -0.2836  3.1620  1.7486
 6377SOL    MW425242   4.119   5.954   1.730 -0.1594  0.2876  0.0979
 6378SOL     OW25243   4.089   1.631   3.603  0.0162 -0.0875  0.6314
 6378SOL    HW225244   4.137   1.587   3.673 -0.2598 -0.4372  0.6016
 6378SOL    HW325245   3.997   1.610   3.619 -0.1902  1.0825  1.0370
 6378SOL    MW425246   4.083   1.622   3.614 -0.0829 -0.1037  0.1851
 6379SOL     OW25247   5.275   0.461   3.943 -0.2181  0.2051 -0.8461
 6379SOL    HW225248   5.341   0.391   3.944 -1.2039 -0.8075  1.7617
 6379SOL    HW325249   5.282   0.499   3.856  2.4992 -1.0996 -1.3033
 6379SOL    MW425250   5.285   0.457   3.932  0.0293 -0.0684  0.3192
 6380SOL     OW25251   3.987   4.669   6.160 -0.1731 -0.3678 -0.7954
 6380SOL    HW225252   4.070   4.694   6.202  0.0056 -0.8678 -0.8552
 6380SOL    HW325253   3.984   4.722   6.080  0.1446 -0.4388 -0.8557
 6380SOL    MW425254   3.998   4.680   6.155  0.5561 -0.0831  0.4426
 6381SOL     OW25255   2.134   4.759   5.037 -0.1771  0.3103  0.4382
 6381SOL    HW225256   2.144   4.664   5.040  0.4305  0.3886  1.0099
 6381SOL    HW325257   2.131   4.787   5.128 -0.6732  0.8169  0.2787
 6381SOL    MW425258   2.135   4.750   5.049  0.5761  0.9660  0.0229
 6382SOL     OW25259   1.602   1.654   1.205  0.3693  0.0200 -0.2728
 6382SOL    HW225260   1.661   1.713   1.158 -0.5804  0.2062 -1.2569
 6382SOL    HW325261   1.620   1.567   1.169  1.0944 -0.1668  0.5043
 6382SOL    MW425262   1.612   1.651   1.194  0.3541 -0.5824  0.4809
 6383SOL     OW25263   5.643   4.430   4.306  0.4758 -0.1093  0.6581
 6383SOL    HW225264   5.607   4.518   4.292  0.4534  0.1908  2.3911
 6383SOL    HW325265   5.646   4.391   4.218  1.2545  1.9013 -0.2675
 6383SOL    MW425266   5.638   4.437   4.292 -0.2410  0.1827 -0.2691
 6384SOL     OW25267   2.169   3.727   1.860  0.2102 -0.3287 -0.0607
 6384SOL    HW225268   2.179   3.817   1.827 -0.5244 -0.6906 -1.3346
 6384SOL    HW325269   2.249   3.711   1.909  1.0062  0.5457 -1.0135
 6384SOL    MW425270   2.181   3.737   1.862 -0.0392 -0.1868 -0.1612
 6385SOL     OW25271   5.740   0.259   0.305  0.2070 -0.3792 -0.5198
 6385SOL    HW225272   5.790   0.231   0.381 -0.3536 -0.4359 -0.1658
 6385SOL    HW325273   5.731   0.354   0.316 -0.1808 -0.4350 -0.3200
 6385SOL    MW425274   5.745   0.268   0.316 -0.2081 -0.4022  0.2155
 6386SOL     OW25275   5.930   2.920   0.422  0.5392  0.4719  0.5578
 6386SOL    HW225276   5.980   2.857   0.370  0.8061  1.9255 -1.0313
 6386SOL    HW325277   5.989   2.995   0.431 -0.7394  1.5714  0.0613
 6386SOL    MW425278   5.945   2.922   0.417  0.2830 -0.6992 -0.1702
 6387SOL     OW25279   0.582   5.471   4.712  0.3327  0.0184  0.9295
 6387SOL    HW225280   0.656   5.447   4.769  0.8697  0.1717  0.3072
 6387SOL    HW325281   0.622   5.487   4.627 -0.5748 -1.1881  0.2402
 6387SOL    MW425282   0.597   5.470   4.708 -0.0115 -0.3324 -0.2488
 6388SOL     OW25283   4.521   5.416   0.779 -0.3307  0.3378  1.0055
 6388SOL    HW225284   4.448   5.359   0.803 -0.9794  1.0440  0.7516
 6388SOL    HW325285   4.584   5.405   0.850  0.3166 -1.9428  0.1694
 6388SOL    MW425286   4.520   5.407   0.792  0.3938  0.3081  0.0875
 6389SOL     OW25287   5.713   5.150   5.155  0.7441  0.1451  0.2523
 6389SOL    HW225288   5.677   5.218   5.098 -0.4867 -1.8456 -1.4752
 6389SOL    HW325289   5.641   5.130   5.215  0.7435 -0.3152  0.0995
 6389SOL    MW425290   5.698   5.156   5.155 -0.4764  0.0977  0.3360
 6390SOL     OW25291   5.067   1.798   1.715 -0.4679  0.0115  0.1105
 6390SOL    HW225292   4.998   1.783   1.650 -1.4051 -0.0238  1.0798
 6390SOL    HW325293   5.028   1.770   1.798  0.7297 -0.0184  0.6844
 6390SOL    MW425294   5.053   1.792   1.717  0.0925  0.1018  0.0297
 6391SOL     OW25295   1.481   4.245   2.477  0.1841  0.5261  0.6337
 6391SOL    HW225296   1.448   4.300   2.406  3.4525 -0.4553 -1.9014
 6391SOL    HW325297   1.453   4.157   2.454  3.3075 -0.1884 -1.0786
 6391SOL    MW425298   1.473   4.241   2.465  0.5638  0.3308 -0.0418
 6392SOL     OW25299   1.289   4.932   0.928 -0.1922 -0.1346 -0.3587
 6392SOL    HW225300   1.365   4.990   0.942  0.5149 -1.0169 -0.4694
 6392SOL    HW325301   1.309   4.887   0.846 -1.1858  0.1460 -0.7641
 6392SOL    MW425302   1.302   4.934   0.919 -0.1516  0.0549 -0.4806
 6393SOL     OW25303   4.420   3.197   3.402 -0.3524 -0.9219 -0.3317
 6393SOL    HW225304   4.381   3.145   3.331  0.0465  1.0846 -2.1250
 6393SOL    HW325305   4.455   3.131   3.463 -0.8963 -2.7412 -1.8697
 6393SOL    MW425306   4.419   3.181   3.401 -0.2961 -0.1974  0.3984
 6394SOL     OW25307   0.679   4.037   2.162 -0.5507  0.0628  0.2769
 6394SOL    HW225308   0.672   4.012   2.255 -1.0463  1.0568  0.5155
 6394SOL    HW325309   0.595   4.078   2.142 -0.3801  0.0070 -0.5751
 6394SOL    MW425310   0.667   4.039   2.172 -0.0485  0.0238  0.2601
 6395SOL     OW25311   4.546   1.319   5.811 -0.2068 -0.0430 -0.2857
 6395SOL    HW225312   4.503   1.404   5.799 -0.4380 -0.3297 -1.6405
 6395SOL    HW325313   4.639   1.341   5.817 -0.3484  0.3884  0.4717
 6395SOL    MW425314   4.553   1.333   5.811  0.3399  0.8806 -0.2966
 6396SOL     OW25315   4.320   0.564   5.130  0.1384 -0.6081  0.5270
 6396SOL    HW225316   4.402   0.603   5.100 -0.5326  0.8962  0.5675
 6396SOL    HW325317   4.273   0.636   5.172 -2.4232 -0.6538 -1.9444
 6396SOL    MW425318   4.324   0.579   5.131  0.5669  0.1999  0.3427
 6397SOL     OW25319   4.377   3.791   2.792  0.2305 -0.4543  0.2727
 6397SOL    HW225320   4.321   3.824   2.862  1.5092  0.7648  0.7780
 6397SOL    HW325321   4.432   3.726   2.834 -1.2081 -2.1596 -0.3744
 6397SOL    MW425322   4.377   3.787   2.806  0.1725  0.0915 -0.0111
 6398SOL     OW25323   5.067   3.956   4.494  0.0378 -0.5437 -0.3117
 6398SOL    HW225324   5.107   3.950   4.407  0.5294 -0.5751 -0.0853
 6398SOL    HW325325   5.123   3.901   4.549 -0.5975 -0.9745 -0.0896
 6398SOL    MW425326   5.080   3.948   4.489  0.2131  0.6083  0.0319
 6399SOL     OW25327   0.109   5.299   1.644  0.4738  0.6871  0.3982
 6399SOL    HW225328   0.197   5.301   1.609  0.3935  2.7462  0.1790
 6399SOL    HW325329   0.115   5.348   1.727 -0.4803  1.0805  0.2533
 6399SOL    MW425330   0.121   5.306   1.651 -0.0123  0.0229  0.4904
 6400SOL     OW25331   4.382   1.720   6.077 -0.2568  0.3704 -0.1628
 6400SOL    HW225332   4.461   1.763   6.109  0.3305  0.6655 -1.8680
 6400SOL    HW325333   4.340   1.787   6.022  0.6910 -1.1420 -2.9044
 6400SOL    MW425334   4.387   1.735   6.074  0.0102 -0.0295  0.0160
 6401SOL     OW25335   4.963   0.347   3.505  0.2985 -0.1541 -0.0622
 6401SOL    HW225336   5.033   0.291   3.538  0.1444 -0.3106  0.0042
 6401SOL    HW325337   4.919   0.294   3.438  0.5651  0.1375 -0.4690
 6401SOL    MW425338   4.966   0.332   3.501  0.1828 -0.4146 -0.3285
 6402SOL     OW25339   5.323   0.583   6.212 -0.6553 -0.0410 -0.0368
 6402SOL    HW225340   5.363   0.669   6.201 -1.5962  0.2824 -1.3191
 6402SOL    HW325341   5.381   0.535   6.271 -0.1745  1.5032  0.7788
 6402SOL    MW425342   5.336   0.588   6.218  0.8704  0.0805 -0.2685
 6403SOL     OW25343   5.149   5.233   2.265 -0.3425 -0.2140  0.2900
 6403SOL    HW225344   5.091   5.247   2.190  0.6467  0.6604 -0.3433
 6403SOL    HW325345   5.172   5.322   2.293 -0.4556 -0.5383  1.4388
 6403SOL    MW425346   5.144   5.247   2.259  0.1278 -0.4801 -0.3299
 6404SOL     OW25347   1.103   4.757   5.710  0.1825 -0.4085  0.3030
 6404SOL    HW225348   1.162   4.724   5.642  0.6029 -0.0041  0.4718
 6404SOL    HW325349   1.160   4.799   5.774 -0.4140  1.7621 -0.5058
 6404SOL    MW425350   1.118   4.758   5.710 -0.5146  1.0246 -0.1030
 6405SOL     OW25351   5.724   4.734   0.475 -0.0044  0.1945 -0.3548
 6405SOL    HW225352   5.674   4.805   0.515  1.3829  0.7414  0.4978
 6405SOL    HW325353   5.815   4.754   0.498  0.4541 -1.6354 -0.4676
 6405SOL    MW425354   5.730   4.746   0.483  0.2362 -0.3535  0.2598
 6406SOL     OW25355   1.763   2.555   0.734 -0.3742 -0.2207 -0.1334
 6406SOL    HW225356   1.821   2.487   0.700  1.9554  1.9369 -0.7759
 6406SOL    HW325357   1.689   2.556   0.673 -0.2758 -1.8949 -0.3050
 6406SOL    MW425358   1.761   2.546   0.721 -0.2451  0.0750  0.3632
 6407SOL     OW25359   1.176   1.833   3.615 -0.1491 -0.4772  0.5932
 6407SOL    HW225360   1.090   1.844   3.575  0.2211 -1.5708 -0.5838
 6407SOL    HW325361   1.176   1.742   3.647  0.8422 -0.7609 -0.1595
 6407SOL    MW425362   1.165   1.822   3.614 -0.3272 -0.1590 -0.1138
 6408SOL     OW25363   2.052   1.856   0.517 -0.4346  0.2408 -0.4985
 6408SOL    HW225364   2.114   1.858   0.589  2.3578 -1.0708 -2.6646
 6408SOL    HW325365   1.973   1.899   0.551  0.6847 -0.3602  3.2505
 6408SOL    MW425366   2.049   1.862   0.531 -0.5138 -0.3086  0.5790
 6409SOL     OW25367   5.751   0.339   4.669 -0.3423  0.1807  0.6503
 6409SOL    HW225368   5.705   0.280   4.729  1.7489 -1.7559  0.4723
 6409SOL    HW325369   5.723   0.311   4.582 -1.0315  0.9691  0.6009
 6409SOL    MW425370   5.741   0.328   4.665  0.1629  0.5828 -0.2965
 6410SOL     OW25371   0.235   3.597   1.286  0.0811 -0.1078 -0.2961
 6410SOL    HW225372   0.240   3.672   1.227  1.3101 -0.7467 -1.0441
 6410SOL    HW325373   0.325   3.568   1.295 -0.3309 -1.2592  0.2910
 6410SOL    MW425374   0.247   3.603   1.279  0.2951  0.6303 -0.1982
 6411SOL     OW25375   3.000   3.231   1.019 -0.4364  0.4333 -0.0327
 6411SOL    HW225376   3.047   3.165   0.967 -0.0190 -0.1426  1.0488
 6411SOL    HW325377   3.035   3.315   0.988 -1.8422  0.2635 -2.2837
 6411SOL    MW425378   3.011   3.233   1.008 -0.0322  0.4798 -0.2621
 6412SOL     OW25379   5.343   5.792   2.705  0.5414 -0.1660 -0.0380
 6412SOL    HW225380   5.345   5.776   2.799  2.8031  0.7139  0.1140
 6412SOL    HW325381   5.336   5.704   2.666  0.2979 -0.5864  0.9262
 6412SOL    MW425382   5.342   5.778   2.712 -0.1154 -0.4162  0.4736
 6413SOL     OW25383   3.088   1.600   5.541 -0.0476  0.2983 -0.0745
 6413SOL    HW225384   3.055   1.511   5.529  2.4317 -0.6762 -0.2395
 6413SOL    HW325385   3.126   1.623   5.456  1.4019  0.5766  0.6303
 6413SOL    MW425386   3.088   1.591   5.528 -0.3992  0.3530  0.1845
 6414SOL     OW25387   1.871   3.751   2.358  0.1840 -0.1180 -0.3745
 6414SOL    HW225388   1.908   3.682   2.303  2.2759  0.5432  0.1202
 6414SOL    HW325389   1.878   3.717   2.448 -0.1000  0.1573 -0.2456
 6414SOL    MW425390   1.876   3.738   2.363  0.3135 -0.2886  0.1443
 6415SOL     OW25391   1.612   1.808   4.206  0.2565  0.1842 -0.7129
 6415SOL    HW225392   1.643   1.835   4.120  1.8328  1.8330  0.3139
 6415SOL    HW325393   1.541   1.868   4.226 -0.2418 -0.3240 -0.9093
 6415SOL    MW425394   1.607   1.819   4.197 -0.2533 -0.2291 -0.0585
 6416SOL     OW25395   5.972   1.094   2.854 -0.1660  0.0103  0.1194
 6416SOL    HW225396   5.990   1.017   2.800  0.4044  0.2467 -0.0389
 6416SOL    HW325397   5.900   1.139   2.810 -2.0476 -1.5646  1.3816
 6416SOL    MW425398   5.965   1.090   2.841 -0.6001  0.0494 -0.0693
 6417SOL     OW25399   2.945   0.825   4.143  0.3196 -0.4780  0.1715
 6417SOL    HW225400   2.969   0.797   4.055 -1.7702 -0.1247 -0.5785
 6417SOL    HW325401   2.980   0.914   4.150 -1.8709  0.6134 -1.4672
 6417SOL    MW425402   2.952   0.833   4.132 -0.3132 -0.8138  0.0581
 6418SOL     OW25403   5.239   4.565   4.254 -0.4538 -0.0104 -0.2755
 6418SOL    HW225404   5.207   4.501   4.317  1.2556  0.0475  0.6872
 6418SOL    HW325405   5.320   4.598   4.291 -0.9214  2.2307 -1.0798
 6418SOL    MW425406   5.246   4.561   4.267  0.2461  0.3308  0.3890
 6419SOL     OW25407   3.656   0.319   2.843 -0.1746  0.0574 -0.2676
 6419SOL    HW225408   3.644   0.359   2.757 -0.9695  1.7575  0.5996
 6419SOL    HW325409   3.569   0.288   2.868  0.2674 -1.4879 -0.5420
 6419SOL    MW425410   3.643   0.320   2.835  0.2440 -0.2942  0.2350
 6420SOL     OW25411   2.271   3.434   0.367  0.0651 -0.5143 -0.5246
 6420SOL    HW225412   2.187   3.388   0.365  0.3423 -1.0280 -0.5647
 6420SOL    HW325413   2.292   3.450   0.275  0.6789 -1.6426 -0.6008
 6420SOL    MW425414   2.263   3.430   0.355  0.4839  0.2388  0.9675
 6421SOL     OW25415   0.739   5.887   2.724 -0.0075 -0.5692 -0.0739
 6421SOL    HW225416   0.775   5.969   2.757 -1.0721  0.4206 -1.2856
 6421SOL    HW325417   0.646   5.890   2.745 -0.1905 -1.1459 -0.7610
 6421SOL    MW425418   0.732   5.898   2.731  0.1489  0.3091 -0.0673
 6422SOL     OW25419   2.248   1.852   3.575 -0.0986  0.3848 -0.1240
 6422SOL    HW225420   2.263   1.792   3.648  1.1609  0.3769 -0.3722
 6422SOL    HW325421   2.219   1.934   3.617  0.8157  0.4506  0.4199
 6422SOL    MW425422   2.246   1.855   3.591 -0.0306  0.5500 -0.0165
 6423SOL     OW25423   3.291   1.799   3.285  0.0225  0.3200  0.9136
 6423SOL    HW225424   3.374   1.767   3.321 -0.3905 -1.0776  0.6708
 6423SOL    HW325425   3.312   1.823   3.195 -0.4123 -2.8637 -0.1333
 6423SOL    MW425426   3.305   1.798   3.278 -0.6355 -0.0667  0.6575
 6424SOL     OW25427   0.992   3.302   1.306 -0.8309  0.0413 -0.4827
 6424SOL    HW225428   1.052   3.262   1.243 -0.5604  0.8324 -0.7284
 6424SOL    HW325429   0.941   3.365   1.255 -2.9112 -1.6256 -0.5978
 6424SOL    MW425430   0.993   3.305   1.291  0.0774  0.5698  0.1534
 6425SOL     OW25431   0.840   1.709   2.813 -0.2227 -0.0010 -0.3079
 6425SOL    HW225432   0.913   1.693   2.872 -0.3116  1.0340  0.1148
 6425SOL    HW325433   0.866   1.787   2.763 -1.6054  1.2823  0.8630
 6425SOL    MW425434   0.853   1.717   2.814 -0.3163  0.2892  0.3790
 6426SOL     OW25435   3.323   4.850   1.994 -0.0479  0.0646  0.2198
 6426SOL    HW225436   3.336   4.809   1.909  2.0193  0.7197  0.1692
 6426SOL    HW325437   3.273   4.785   2.044 -1.6363 -0.1686 -1.5686
 6426SOL    MW425438   3.318   4.836   1.990  0.3848 -0.2721 -0.3762
 6427SOL     OW25439   3.156   1.390   6.163  0.1502  0.0201  0.0615
 6427SOL    HW225440   3.094   1.317   6.167 -1.4490  1.2969  0.0030
 6427SOL    HW325441   3.196   1.392   6.250 -1.1417  0.1657  0.6771
 6427SOL    MW425442   3.153   1.381   6.175 -0.1644  0.0273  0.0017
 6428SOL     OW25443   3.850   3.239   2.421  0.1598 -0.0221  0.2186
 6428SOL    HW225444   3.919   3.279   2.475 -1.0384 -0.4205  2.1723
 6428SOL    HW325445   3.817   3.167   2.475  0.4680 -2.0261 -2.1064
 6428SOL    MW425446   3.855   3.235   2.435  0.4009 -0.4676 -0.3941
 6429SOL     OW25447   0.802   3.447   0.836 -0.3289  0.3091  0.2735
 6429SOL    HW225448   0.786   3.361   0.796 -0.5072 -0.5704  2.1067
 6429SOL    HW325449   0.825   3.427   0.927 -1.6970  2.2474  1.1239
 6429SOL    MW425450   0.803   3.433   0.843 -0.8843 -0.1856  0.5528
 6430SOL     OW25451   1.132   6.259   1.231  0.2089  0.3744  0.1420
 6430SOL    HW225452   1.138   6.194   1.301  2.2114  1.3861  0.9988
 6430SOL    HW325453   1.200   6.234   1.169  0.6649  1.3467  0.2292
 6430SOL    MW425454   1.142   6.247   1.232  0.1773  0.5064  0.1781
 6431SOL     OW25455   0.103   4.812   1.535  0.4587 -0.1659  0.2576
 6431SOL    HW225456   0.056   4.765   1.467  2.9600  0.3418 -1.9921
 6431SOL    HW325457   0.186   4.764   1.544  1.2240  1.2504  1.0877
 6431SOL    MW425458   0.108   4.799   1.527 -0.3440 -0.4940 -0.1690
 6432SOL     OW25459   0.329   0.740   3.042  0.3423  0.5692  0.0740
 6432SOL    HW225460   0.265   0.706   2.980  0.3231  2.3958 -0.9770
 6432SOL    HW325461   0.357   0.664   3.093  0.0105 -0.8984 -1.8664
 6432SOL    MW425462   0.324   0.726   3.041  0.1092 -0.2526 -0.3138
 6433SOL     OW25463   1.195   5.040   5.198  0.2927  0.4472  0.9457
 6433SOL    HW225464   1.192   5.067   5.289 -1.4814  0.7643  0.8398
 6433SOL    HW325465   1.119   5.083   5.158 -0.4240 -1.6525 -0.1025
 6433SOL    MW425466   1.184   5.049   5.204 -0.0040 -0.2319  0.5939
 6434SOL     OW25467   4.788   0.023   2.936  0.3509  0.0186  0.8190
 6434SOL    HW225468   4.877   0.060   2.935 -0.2483  1.5219  0.6865
 6434SOL    HW325469   4.795  -0.057   2.884  0.9280  1.8789 -2.2323
 6434SOL    MW425470   4.801   0.018   2.929  0.9183 -0.2926  0.7833
 6435SOL     OW25471   3.729   3.568   0.181 -0.5039 -0.2726 -0.2301
 6435SOL    HW225472   3.804   3.596   0.128 -0.9005  0.6184 -0.3227
 6435SOL    HW325473   3.662   3.634   0.166 -0.6073  0.0368  1.4136
 6435SOL    MW425474   3.730   3.580   0.172  0.6174  0.1696  0.4523
 6436SOL     OW25475   0.065   5.858   4.495 -0.4541  0.3765  0.0525
 6436SOL    HW225476  -0.017   5.900   4.468 -0.8813  0.1175  0.8914
 6436SOL    HW325477   0.124   5.871   4.421 -0.2857  3.1686  0.5756
 6436SOL    MW425478   0.062   5.865   4.482  0.0466  0.5324  0.3930
 6437SOL     OW25479   3.179   2.069   5.138 -0.0145  0.9063  0.0229
 6437SOL    HW225480   3.106   2.131   5.143  0.9251  2.0260  0.1290
 6437SOL    HW325481   3.141   1.990   5.099 -1.5927  0.9849  1.2984
 6437SOL    MW425482   3.164   2.067   5.134 -0.4901 -0.0099  0.2166
 6438SOL     OW25483   5.765   0.641   5.752 -0.6629  0.2525  0.2545
 6438SOL    HW225484   5.683   0.677   5.786  0.1288  2.0231  0.3975
 6438SOL    HW325485   5.831   0.707   5.774  0.6359 -0.6625 -0.7500
 6438SOL    MW425486   5.763   0.654   5.760 -0.5822 -0.1768 -0.0503
 6439SOL     OW25487   1.981   6.380   3.918 -0.0819 -0.3699 -1.1488
 6439SOL    HW225488   1.986   6.467   3.878  0.7608 -1.1861 -2.9583
 6439SOL    HW325489   2.051   6.379   3.983 -1.5675  1.0395  0.6142
 6439SOL    MW425490   1.991   6.391   3.921  0.0208 -0.3361 -0.1267
 6440SOL     OW25491   0.221   2.411   6.212 -0.3301  0.7271 -0.0832
 6440SOL    HW225492   0.166   2.342   6.175  0.9888  0.5689 -1.8483
 6440SOL    HW325493   0.175   2.437   6.292 -2.1760 -0.4251 -0.6989
 6440SOL    MW425494   0.207   2.406   6.218 -0.6563 -0.5699 -0.5438
 6441SOL     OW25495   1.104   2.160   1.472 -0.1449  0.5207  0.3859
 6441SOL    HW225496   1.035   2.105   1.434  1.7899 -1.2634 -0.7377
 6441SOL    HW325497   1.124   2.119   1.556  1.0334 -0.2883 -0.2768
 6441SOL    MW425498   1.097   2.148   1.478  0.2324 -0.1595  0.0596
 6442SOL     OW25499   5.389   1.044   2.474  0.1475 -0.2157  0.1375
 6442SOL    HW225500   5.448   1.035   2.549 -1.7025  0.2008  1.7305
 6442SOL    HW325501   5.307   1.076   2.512 -0.5248  1.1350 -2.2222
 6442SOL    MW425502   5.386   1.047   2.489  0.2818 -0.3663  0.0627
 6443SOL     OW25503   0.049   5.518   0.138  0.4376 -0.4011  0.5778
 6443SOL    HW225504  -0.007   5.446   0.111 -1.1921  0.9163  0.2578
 6443SOL    HW325505   0.077   5.495   0.226  0.1905 -1.5546  0.3662
 6443SOL    MW425506   0.045   5.505   0.146  0.3131  0.0525  0.7493
 6444SOL     OW25507   0.855   6.130   2.822 -0.0664 -0.3493 -0.3758
 6444SOL    HW225508   0.937   6.170   2.848 -0.4643  1.0253 -1.1686
 6444SOL    HW325509   0.788   6.175   2.875 -0.4540 -0.4252 -0.7927
 6444SOL    MW425510   0.857   6.141   2.833 -0.2533  0.8776 -0.3778
 6445SOL     OW25511   1.510   6.260   3.687  0.0812  0.0485  0.0238
 6445SOL    HW225512   1.463   6.312   3.752 -0.7148 -0.1823 -0.3530
 6445SOL    HW325513   1.517   6.173   3.727  0.4608  0.1588  0.2038
 6445SOL    MW425514   1.505   6.255   3.701  0.0605 -0.0790 -0.1937
 6446SOL     OW25515   4.663   4.698   1.366  0.4228 -0.0105  0.0064
 6446SOL    HW225516   4.722   4.650   1.308 -0.0092 -0.3405 -0.1660
 6446SOL    HW325517   4.598   4.737   1.307 -0.5184 -1.0555  0.3286
 6446SOL    MW425518   4.662   4.697   1.351  0.0661 -0.1639  0.4320
 6447SOL     OW25519   3.176   3.761   1.883  0.0180 -0.6660 -0.2428
 6447SOL    HW225520   3.175   3.686   1.942  0.2915  0.0922  0.7482
 6447SOL    HW325521   3.134   3.728   1.803 -0.3137 -1.7288  0.3371
 6447SOL    MW425522   3.170   3.747   1.880  0.0635  0.1964  0.1540
 6448SOL     OW25523   4.129   1.479   4.504  0.3709 -0.8676 -0.0373
 6448SOL    HW225524   4.048   1.458   4.551  0.4035 -0.8367  0.0332
 6448SOL    HW325525   4.179   1.533   4.566 -0.1352  0.2547 -0.5819
 6448SOL    MW425526   4.124   1.484   4.519 -0.0191 -0.1010 -0.8846
 6449SOL     OW25527   2.747   4.253   1.745  0.8412 -0.1462 -0.0475
 6449SOL    HW225528   2.726   4.325   1.805  3.2514  0.1441  0.5467
 6449SOL    HW325529   2.762   4.296   1.661  1.3845 -0.0703  0.0892
 6449SOL    MW425530   2.746   4.268   1.742  0.5867  0.6453 -0.4976
 6450SOL     OW25531   3.789   4.359   3.756 -0.6409 -0.0014 -0.7272
 6450SOL    HW225532   3.721   4.307   3.799 -0.4931  0.8331  0.6182
 6450SOL    HW325533   3.774   4.448   3.790  0.2848  0.4451 -1.4662
 6450SOL    MW425534   3.778   4.364   3.766 -0.1508  0.1319  0.2051
 6451SOL     OW25535   4.216   5.692   1.651  0.1443  0.3994  0.2899
 6451SOL    HW225536   4.312   5.687   1.652  0.2830  1.3103 -1.9457
 6451SOL    HW325537   4.197   5.781   1.680 -0.0712 -0.0040  1.3976
 6451SOL    MW425538   4.226   5.703   1.655 -0.3342 -0.5856 -0.0583
 6452SOL     OW25539   2.758   1.526   2.165 -0.6162  0.7886  0.2653
 6452SOL    HW225540   2.826   1.547   2.229 -1.4046  1.5885  0.8683
 6452SOL    HW325541   2.803   1.522   2.081  0.1137  1.6563  0.6054
 6452SOL    MW425542   2.773   1.528   2.163 -0.2047 -0.1550  0.2000
 6453SOL     OW25543   4.297   4.600   6.324 -0.1391 -0.1447  0.2944
 6453SOL    HW225544   4.246   4.577   6.402  0.4471  2.6322  1.6118
 6453SOL    HW325545   4.336   4.684   6.345  0.9460  0.1895 -2.6315
 6453SOL    MW425546   4.295   4.608   6.337 -0.0030 -0.4885  0.1683
 6454SOL     OW25547   3.671   2.504   3.808 -0.5001  0.0240  0.3648
 6454SOL    HW225548   3.606   2.475   3.744 -1.3229  0.1329  1.1359
 6454SOL    HW325549   3.720   2.424   3.829 -2.5429 -0.8376  2.2256
 6454SOL    MW425550   3.669   2.489   3.802 -0.0877  0.1535  0.3637
 6455SOL     OW25551   5.051   4.435   2.102  0.8565  0.7938  0.6208
 6455SOL    HW225552   5.087   4.485   2.029 -0.3278  1.1953  0.2884
 6455SOL    HW325553   5.128   4.407   2.152  1.6527  1.0279 -0.4340
 6455SOL    MW425554   5.066   4.438   2.099 -0.0261  0.2404  0.2063
 6456SOL     OW25555   1.396   3.594   4.160  0.2724 -0.4085 -0.4256
 6456SOL    HW225556   1.385   3.562   4.249  1.6183 -1.0025 -0.4417
 6456SOL    HW325557   1.313   3.576   4.116 -0.1967 -0.6396  0.5386
 6456SOL    MW425558   1.384   3.588   4.166  0.3150  0.2007  0.6588
 6457SOL     OW25559   3.375   3.054   4.558  0.4304  0.0488 -0.3607
 6457SOL    HW225560   3.340   3.095   4.479 -2.1383 -1.4248 -0.1220
 6457SOL    HW325561   3.333   3.101   4.630  0.3812 -0.5428  0.0049
 6457SOL    MW425562   3.364   3.065   4.557  0.1684  0.0958  0.2237
 6458SOL     OW25563   3.943   5.115   0.513  0.1430 -0.3030 -0.3307
 6458SOL    HW225564   3.905   5.192   0.471 -0.1698 -0.5202 -0.4497
 6458SOL    HW325565   3.874   5.049   0.510  0.1059 -0.3232  0.5308
 6458SOL    MW425566   3.929   5.117   0.507  0.2306 -0.3537  0.2337
 6459SOL     OW25567   6.242   0.906   2.407  0.2665 -0.1027  0.2236
 6459SOL    HW225568   6.250   0.922   2.313 -0.0356  3.1124  0.6278
 6459SOL    HW325569   6.331   0.916   2.441  0.1073  0.5554  0.4680
 6459SOL    MW425570   6.255   0.910   2.399 -0.1698 -0.7956 -0.0196
 6460SOL     OW25571   4.300   6.170   1.767 -0.1185 -0.2554  0.4285
 6460SOL    HW225572   4.232   6.236   1.781  0.3379  0.0892  1.1176
 6460SOL    HW325573   4.379   6.209   1.806  0.9989  0.2796 -2.1440
 6460SOL    MW425574   4.302   6.184   1.774  0.5860  0.0077  0.2211
 6461SOL     OW25575   0.745   1.634   6.360 -0.4040  0.0415  0.2138
 6461SOL    HW225576   0.761   1.726   6.339  0.6202 -0.1638  0.0100
 6461SOL    HW325577   0.795   1.586   6.294 -1.6435 -0.6764 -0.2238
 6461SOL    MW425578   0.754   1.640   6.349  0.2823 -0.3286 -0.0918
 6462SOL     OW25579   5.884   4.121   2.192 -0.0810  0.0018  0.5102
 6462SOL    HW225580   5.816   4.114   2.125 -0.7327 -0.9597  1.2453
 6462SOL    HW325581   5.919   4.032   2.200 -0.2629  0.0187  1.6770
 6462SOL    MW425582   5.880   4.108   2.184  0.2586  0.3197 -0.1498
 6463SOL     OW25583   5.356   0.176   5.997 -0.1641  0.2625  0.4060
 6463SOL    HW225584   5.364   0.128   6.079  0.4722  0.5527  0.5191
 6463SOL    HW325585   5.389   0.264   6.017  1.0767  0.0137 -0.4387
 6463SOL    MW425586   5.361   0.182   6.010 -0.5446  0.1250 -0.6597
 6464SOL     OW25587   4.434   2.913   5.315 -0.0221 -0.3228 -0.2973
 6464SOL    HW225588   4.370   2.982   5.296 -1.2467 -1.4925 -0.6009
 6464SOL    HW325589   4.511   2.938   5.264  0.1561  1.6200  0.7963
 6464SOL    MW425590   4.435   2.926   5.305  0.3860  0.0142 -0.6096
 6465SOL     OW25591   1.888   5.870   1.347  0.1990  0.6670 -0.7696
 6465SOL    HW225592   1.950   5.874   1.275 -0.5461  1.2588 -1.3967
 6465SOL    HW325593   1.818   5.929   1.322  0.1903  1.3336  0.7013
 6465SOL    MW425594   1.887   5.878   1.334  0.8391  0.6358 -0.2721
 6466SOL     OW25595   5.475   0.682   1.141  0.4144 -0.1434 -0.0252
 6466SOL    HW225596   5.405   0.639   1.092  1.0998  0.8796 -2.0067
 6466SOL    HW325597   5.507   0.615   1.201 -0.8664 -1.2650 -0.5435
 6466SOL    MW425598   5.470   0.668   1.142 -0.4034  0.6334 -0.2839
 6467SOL     OW25599   1.747   6.057   2.347  0.3810 -0.0817 -0.3393
 6467SOL    HW225600   1.767   6.102   2.429  0.6832 -0.7471 -0.0369
 6467SOL    HW325601   1.755   5.964   2.369 -3.0065 -0.4744 -0.1687
 6467SOL    MW425602   1.750   6.051   2.361 -1.0222 -0.0049  0.0128
 6468SOL     OW25603   4.055   0.056   0.241  0.5136  0.1253 -0.2720
 6468SOL    HW225604   4.026   0.119   0.175 -0.3793  0.0256  0.0018
 6468SOL    HW325605   3.989   0.062   0.310  1.5201  0.3413  0.6874
 6468SOL    MW425606   4.042   0.065   0.241  0.4573  0.0046  0.2693
 6469SOL     OW25607   5.581   4.492   3.020 -0.4902  0.0641 -0.5929
 6469SOL    HW225608   5.579   4.397   3.030  0.4106  0.0720 -0.2428
 6469SOL    HW325609   5.669   4.517   3.047 -0.5083  0.9334 -1.2993
 6469SOL    MW425610   5.592   4.483   3.025 -0.7068 -0.2226 -0.2591
 6470SOL     OW25611   4.016   0.066   2.075  0.0849 -0.3324  0.2745
 6470SOL    HW225612   3.981   0.126   2.010  0.7261 -0.1521  0.0859
 6470SOL    HW325613   4.004   0.111   2.159 -1.5694 -0.9469  0.4027
 6470SOL    MW425614   4.010   0.080   2.078 -0.2701 -0.2795 -0.4679
 6471SOL     OW25615   4.018   4.298   6.381 -0.4931  0.1565 -0.2375
 6471SOL    HW225616   4.021   4.279   6.287 -2.5227 -1.9964  0.0494
 6471SOL    HW325617   3.930   4.333   6.395 -0.4166 -0.1185  0.9675
 6471SOL    MW425618   4.007   4.300   6.370 -0.1522 -0.3656  0.4797
 6472SOL     OW25619   0.768   0.853   2.521 -0.1501  0.7651  1.0815
 6472SOL    HW225620   0.839   0.817   2.469 -0.1067  1.2141  0.8217
 6472SOL    HW325621   0.690   0.809   2.489 -0.0569  0.6550  1.0042
 6472SOL    MW425622   0.767   0.843   2.510 -0.4317 -0.1433  0.6854
 6473SOL     OW25623   4.148   4.996   3.484  0.0113 -0.2669 -0.3381
 6473SOL    HW225624   4.165   4.963   3.395  1.6266  1.6183 -0.7973
 6473SOL    HW325625   4.230   5.037   3.510 -0.8179  0.2685  1.5851
 6473SOL    MW425626   4.161   4.997   3.475 -0.4136 -0.1543  0.3447
 6474SOL     OW25627   2.144   2.671   1.366  0.0123 -0.0352  0.2398
 6474SOL    HW225628   2.139   2.766   1.371  0.3619  0.0023 -0.0320
 6474SOL    HW325629   2.175   2.644   1.452  2.5662  0.3155 -0.4831
 6474SOL    MW425630   2.147   2.680   1.378  0.0247 -0.4421 -0.2090
 6475SOL     OW25631   4.777   1.474   3.172  0.1404  0.1434  0.3518
 6475SOL    HW225632   4.705   1.412   3.183 -0.4820  0.5028 -1.4048
 6475SOL    HW325633   4.746   1.555   3.214  0.0722 -0.0910  0.7563
 6475SOL    MW425634   4.764   1.477   3.179  0.3060 -0.3377  0.2955
 6476SOL     OW25635   5.880   0.525   1.260  0.4567  0.4940 -0.2525
 6476SOL    HW225636   5.936   0.467   1.312  1.6265  1.5317 -0.3055
 6476SOL    HW325637   5.928   0.539   1.179 -0.9649 -0.4213 -1.2833
 6476SOL    MW425638   5.894   0.519   1.256 -0.3514  0.0377  0.4271
 6477SOL     OW25639   5.425   0.952   4.946 -0.0210  0.4471  0.2748
 6477SOL    HW225640   5.435   0.880   4.883 -0.0912  0.7427 -0.0785
 6477SOL    HW325641   5.372   0.915   5.016 -0.5995  0.3447 -0.2107
 6477SOL    MW425642   5.420   0.938   4.947 -0.2156  0.5024  0.0162
 6478SOL     OW25643   2.581   1.712   4.940 -0.3495  0.4369  0.2393
 6478SOL    HW225644   2.552   1.765   4.866 -1.4852 -1.9591 -1.1585
 6478SOL    HW325645   2.583   1.623   4.906  3.1091 -0.3051  1.9783
 6478SOL    MW425646   2.578   1.707   4.925  0.5588 -0.3135 -0.1091
 6479SOL     OW25647   4.696   0.109   1.894 -0.2215 -0.0709  0.1324
 6479SOL    HW225648   4.760   0.179   1.905  0.8438 -0.9941 -0.0748
 6479SOL    HW325649   4.650   0.106   1.978 -0.3145  0.8824  0.1341
 6479SOL    MW425650   4.698   0.118   1.907  0.0964 -0.2892  1.0800
 6480SOL     OW25651   0.490   4.553   4.512 -0.5784  0.4344  0.2878
 6480SOL    HW225652   0.436   4.520   4.584 -1.6090 -0.4435 -0.8606
 6480SOL    HW325653   0.471   4.646   4.509 -0.8263  0.4110  0.9029
 6480SOL    MW425654   0.481   4.561   4.521  0.9291  0.0443 -0.2780
 6481SOL     OW25655   3.155   3.847   5.179 -0.2227 -0.0559  0.2265
 6481SOL    HW225656   3.203   3.855   5.097 -1.1486 -1.1732 -0.4415
 6481SOL    HW325657   3.206   3.900   5.241  0.2572  1.1487 -1.1393
 6481SOL    MW425658   3.168   3.855   5.177  0.5178  0.0596  0.2358
 6482SOL     OW25659   0.297   4.529   2.324  0.4862 -0.0891 -0.2765
 6482SOL    HW225660   0.208   4.494   2.336  0.5677 -0.5548 -0.9946
 6482SOL    HW325661   0.354   4.453   2.336  0.7663  0.1232 -0.2643
 6482SOL    MW425662   0.293   4.514   2.327  0.4118 -0.1550 -0.1287
 6483SOL     OW25663   5.938   2.349   2.968  0.2337  0.1191  0.1855
 6483SOL    HW225664   5.939   2.318   3.058  1.6437 -0.2218  0.0737
 6483SOL    HW325665   5.935   2.268   2.915  0.4189  0.2868 -0.0837
 6483SOL    MW425666   5.938   2.334   2.973  0.3901 -0.1769 -0.3713
 6484SOL     OW25667   4.723   4.391   3.657  0.1272 -0.1009  0.2390
 6484SOL    HW225668   4.634   4.416   3.630  1.0403  1.7823 -1.3270
 6484SOL    HW325669   4.753   4.464   3.711  1.0347 -0.2893  0.0093
 6484SOL    MW425670   4.715   4.404   3.660 -0.1584 -0.0342  0.0860
 6485SOL     OW25671   1.799   0.969   2.920  0.8307 -0.2703  0.1043
 6485SOL    HW225672   1.754   1.044   2.881 -1.3597 -1.1759  0.7351
 6485SOL    HW325673   1.858   0.938   2.852  1.5307  1.8034 -0.2845
 6485SOL    MW425674   1.800   0.975   2.906  0.2972  0.1927 -0.3599
 6486SOL     OW25675   0.959   4.558   5.859  0.3192 -1.0651 -0.0682
 6486SOL    HW225676   1.022   4.539   5.929  1.9703 -0.0693 -1.2152
 6486SOL    HW325677   0.996   4.633   5.813 -2.8597  1.0668  0.5600
 6486SOL    MW425678   0.972   4.565   5.862 -0.3165  0.2231 -0.1146
 6487SOL     OW25679   3.140   4.714   2.166 -0.5471  0.2974 -0.2375
 6487SOL    HW225680   3.173   4.666   2.241 -3.7490 -1.2179  0.4026
 6487SOL    HW325681   3.128   4.804   2.197 -0.1189  0.1109  0.4723
 6487SOL    MW425682   3.143   4.720   2.180 -0.0168  0.0240  0.1193
 6488SOL     OW25683   2.991   1.571   3.512 -0.3971 -0.3144  0.1100
 6488SOL    HW225684   2.923   1.565   3.579 -1.7260  0.5780 -1.0979
 6488SOL    HW325685   2.971   1.501   3.450  1.0358 -1.3683  0.7705
 6488SOL    MW425686   2.980   1.561   3.513  0.1507 -0.5214  0.3745
 6489SOL     OW25687   6.010   4.468   3.715  0.4193  0.0941 -0.2184
 6489SOL    HW225688   6.069   4.409   3.762  0.0829 -0.4676 -0.4901
 6489SOL    HW325689   6.068   4.530   3.671  0.7492  0.3900  0.6255
 6489SOL    MW425690   6.025   4.468   3.715 -1.0922 -0.3924 -0.0430
 6490SOL     OW25691   2.117   2.248   5.853 -0.5768 -0.2958  0.3382
 6490SOL    HW225692   2.115   2.317   5.919 -3.9323  1.5731 -1.4426
 6490SOL    HW325693   2.026   2.218   5.847 -0.4073 -0.5555 -3.1513
 6490SOL    MW425694   2.105   2.253   5.861  0.2104  0.1136  0.0208
 6491SOL     OW25695   4.377   3.087   2.412 -0.4407 -0.4328  0.5113
 6491SOL    HW225696   4.357   3.177   2.387 -0.5066 -1.1717 -2.4708
 6491SOL    HW325697   4.472   3.084   2.418 -0.1029 -0.8079 -2.8527
 6491SOL    MW425698   4.387   3.098   2.410  0.5052 -0.5136  0.3694
 6492SOL     OW25699   3.615   2.221   0.602 -0.0203 -0.4938  0.3858
 6492SOL    HW225700   3.686   2.229   0.665 -0.9528  0.3171  1.3744
 6492SOL    HW325701   3.538   2.197   0.654 -0.7422 -0.1342 -0.4799
 6492SOL    MW425702   3.614   2.219   0.617 -0.3508 -0.2303 -0.0549
 6493SOL     OW25703   2.491   4.271   2.108 -0.2447 -0.3776 -0.0493
 6493SOL    HW225704   2.501   4.178   2.129 -1.3677 -0.4053  0.4107
 6493SOL    HW325705   2.459   4.311   2.188 -3.1868 -0.2273 -1.1760
 6493SOL    MW425706   2.488   4.264   2.121 -0.3814  0.1226  0.2355
 6494SOL     OW25707   1.786   4.552   1.497  0.5283 -0.1095  0.0725
 6494SOL    HW225708   1.764   4.635   1.540  1.0194  0.4803 -0.7664
 6494SOL    HW325709   1.846   4.509   1.557  1.0776  0.6223  0.0652
 6494SOL    MW425710   1.791   4.557   1.510  0.4831  0.4138 -0.5088
 6495SOL     OW25711   2.418   2.225   4.505  0.3412 -0.3292 -0.1040
 6495SOL    HW225712   2.484   2.183   4.559  0.2960  0.6458  0.7545
 6495SOL    HW325713   2.402   2.164   4.433  1.1640 -1.1867  0.4254
 6495SOL    MW425714   2.424   2.212   4.503 -0.2603  0.2668 -0.4279
 6496SOL     OW25715   1.759   0.319   5.243  0.4133  0.0133 -0.1235
 6496SOL    HW225716   1.685   0.379   5.240 -1.2621 -1.9493 -0.4406
 6496SOL    HW325717   1.783   0.305   5.151 -0.7136 -1.4950 -0.2222
 6496SOL    MW425718   1.752   0.325   5.231  0.9978  0.2931  0.2484
 6497SOL     OW25719   0.651   1.850   4.315 -0.5737  0.3952  0.2564
 6497SOL    HW225720   0.658   1.858   4.410 -1.8745  1.7475  0.2670
 6497SOL    HW325721   0.679   1.935   4.282 -3.6988  1.2899 -0.3256
 6497SOL    MW425722   0.656   1.862   4.323 -0.2926 -0.9087  0.1546
 6498SOL     OW25723   6.099   3.496   1.302  0.9269 -0.5008 -0.1333
 6498SOL    HW225724   6.097   3.400   1.302 -0.0838 -0.4911 -1.2477
 6498SOL    HW325725   6.189   3.518   1.278  0.8654 -1.1877 -1.0348
 6498SOL    MW425726   6.111   3.486   1.299 -0.6436  0.2909 -0.2019
 6499SOL     OW25727   0.856   0.391   4.904  0.0818  0.4956 -0.6064
 6499SOL    HW225728   0.909   0.366   4.829  0.1059  1.2324 -0.8494
 6499SOL    HW325729   0.887   0.336   4.975 -0.7886 -1.1112 -1.4136
 6499SOL    MW425730   0.867   0.381   4.903 -0.8973 -0.1793 -0.0578
 6500SOL     OW25731   2.054   2.065   2.252  0.5200 -1.0902 -0.1195
 6500SOL    HW225732   1.959   2.069   2.262  0.4610  2.4222 -0.7659
 6500SOL    HW325733   2.089   2.085   2.339  0.6710 -1.6099 -0.0560
 6500SOL    MW425734   2.046   2.068   2.265 -0.1607 -0.1958 -0.1068
 6501SOL     OW25735   6.341   3.395   5.297 -0.1575 -0.3874  0.4073
 6501SOL    HW225736   6.429   3.360   5.283 -0.2534 -0.5357  0.1582
 6501SOL    HW325737   6.354   3.488   5.313  0.1213 -0.5810  1.3441
 6501SOL    MW425738   6.354   3.403   5.297 -0.0718  0.0698 -0.0954
 6502SOL     OW25739   0.830   6.426   1.786  0.2574 -0.2108  0.1185
 6502SOL    HW225740   0.888   6.473   1.845  0.0996  0.2414 -0.0820
 6502SOL    HW325741   0.818   6.485   1.711 -0.2765 -0.3897  0.0558
 6502SOL    MW425742   0.836   6.440   1.783  0.1826 -0.2356  0.0155
 6503SOL     OW25743   4.971   6.096   2.371 -0.3464 -0.3122  0.4961
 6503SOL    HW225744   5.009   6.151   2.304 -0.5088 -1.2259 -0.3639
 6503SOL    HW325745   4.985   6.144   2.453  1.3051  0.0486  0.0242
 6503SOL    MW425746   4.978   6.110   2.373 -0.1965 -0.0397 -0.2849
 6504SOL     OW25747   3.493   5.361   2.633  0.2779 -0.5395 -0.1480
 6504SOL    HW225748   3.578   5.349   2.674  0.8182 -0.7415 -1.3101
 6504SOL    HW325749   3.511   5.403   2.549 -0.7350 -0.8308 -0.5351
 6504SOL    MW425750   3.506   5.365   2.627 -0.3509  0.1934 -0.2295
 6505SOL     OW25751   1.392   1.835   1.092  0.3661 -0.3895 -0.3440
 6505SOL    HW225752   1.461   1.773   1.113  1.5409  0.4785 -1.4995
 6505SOL    HW325753   1.411   1.912   1.146 -2.3888 -1.6771  2.8768
 6505SOL    MW425754   1.404   1.837   1.102  0.1384 -0.2343  0.5182
 6506SOL     OW25755   1.968   2.633   2.162 -0.0334  0.0531  0.3382
 6506SOL    HW225756   2.023   2.709   2.141  2.4046 -1.5514  0.5920
 6506SOL    HW325757   1.942   2.598   2.076  0.1817  0.2217  0.2030
 6506SOL    MW425758   1.972   2.639   2.148 -0.0256 -0.7944  0.3199
 6507SOL     OW25759   6.364   4.199   3.966 -0.6099 -0.2803 -0.2294
 6507SOL    HW225760   6.283   4.245   3.944 -0.2524 -0.2305 -1.4921
 6507SOL    HW325761   6.359   4.186   4.061 -2.0384 -0.1818 -0.2783
 6507SOL    MW425762   6.353   4.203   3.976  0.5850 -0.5173 -0.0366
 6508SOL     OW25763   0.231   2.217   3.307 -0.0432  1.0037  0.2860
 6508SOL    HW225764   0.269   2.160   3.240  1.0767  0.4433  1.3551
 6508SOL    HW325765   0.164   2.163   3.348  1.0599  0.3790  1.3403
 6508SOL    MW425766   0.227   2.202   3.303  0.1233 -0.7022  0.3568
 6509SOL     OW25767   2.167   4.617   2.139  0.1424 -0.2454  0.6712
 6509SOL    HW225768   2.218   4.684   2.185  2.8457 -1.8304  0.1939
 6509SOL    HW325769   2.220   4.597   2.061 -2.5238 -0.1838 -1.2977
 6509SOL    MW425770   2.181   4.623   2.135  0.3082 -0.3713  0.0994
 6510SOL     OW25771   5.622   1.417   4.115 -0.0571  0.1232 -0.2566
 6510SOL    HW225772   5.650   1.326   4.123  1.4191  0.7289  2.9504
 6510SOL    HW325773   5.577   1.420   4.030  1.1755 -3.1832 -1.2108
 6510SOL    MW425774   5.620   1.405   4.105 -0.1657  0.4012 -0.1088
 6511SOL     OW25775   2.748   4.843   0.099 -0.3421  0.6864 -0.6110
 6511SOL    HW225776   2.653   4.842   0.106 -0.3109  2.5207  1.1117
 6511SOL    HW325777   2.778   4.853   0.190  1.4972  0.2482 -1.1297
 6511SOL    MW425778   2.740   4.844   0.112 -0.2429 -0.2174  0.4871
 6512SOL     OW25779   3.538   4.753   2.375 -0.6026  0.0495 -0.1287
 6512SOL    HW225780   3.549   4.722   2.285 -0.1051  0.0764 -0.0782
 6512SOL    HW325781   3.485   4.832   2.367 -0.9898 -0.2274 -0.3525
 6512SOL    MW425782   3.532   4.759   2.362 -0.4693  0.5959 -0.1591
 6513SOL     OW25783   1.726   2.374   6.095  0.1900 -0.3569 -0.2639
 6513SOL    HW225784   1.648   2.391   6.148  0.7824 -1.4521  1.0172
 6513SOL    HW325785   1.796   2.419   6.141  1.0653 -2.8596  1.0289
 6513SOL    MW425786   1.725   2.382   6.108  0.6215 -0.0175  0.3866
 6514SOL     OW25787   0.283   0.461   3.208 -0.5205 -0.3727  0.3046
 6514SOL    HW225788   0.284   0.441   3.302 -0.8405  2.8877  1.1124
 6514SOL    HW325789   0.191   0.452   3.183 -0.4522 -1.1416  0.3178
 6514SOL    MW425790   0.271   0.457   3.217 -0.9903 -0.5072 -0.1825
 6515SOL     OW25791   4.001   4.135   4.341 -0.5141 -0.1334 -0.1770
 6515SOL    HW225792   3.914   4.102   4.318 -0.7746  1.0899 -1.0957
 6515SOL    HW325793   3.985   4.224   4.372  0.5507  0.8361 -2.1989
 6515SOL    MW425794   3.988   4.143   4.342 -0.2978  0.2584 -0.1603
 6516SOL     OW25795   2.435   2.435   2.767 -0.3047  0.2048 -0.5192
 6516SOL    HW225796   2.402   2.490   2.697  0.5304  1.4192  0.0180
 6516SOL    HW325797   2.464   2.355   2.723 -1.3185  0.2541 -1.3271
 6516SOL    MW425798   2.434   2.431   2.752 -0.5083  0.5782  0.3722
 6517SOL     OW25799   3.244   2.350   6.136 -0.8364  0.2602 -0.3665
 6517SOL    HW225800   3.158   2.379   6.167 -1.2365 -0.5213 -0.7138
 6517SOL    HW325801   3.290   2.323   6.215  0.2029  3.3671  0.2154
 6517SOL    MW425802   3.239   2.350   6.150 -0.1890 -0.0249  0.3148
 6518SOL     OW25803   4.153   3.443   2.058 -0.0743 -0.3776  0.0827
 6518SOL    HW225804   4.235   3.492   2.065  0.2578 -0.8604 -0.3059
 6518SOL    HW325805   4.168   3.382   1.986 -0.8689 -0.3006 -0.1582
 6518SOL    MW425806   4.166   3.442   2.049 -0.0546 -0.2106 -0.4052
 6519SOL     OW25807   6.137   3.419   4.285  0.1066 -0.1625 -0.0625
 6519SOL    HW225808   6.047   3.411   4.317 -0.1980  1.1244 -0.5403
 6519SOL    HW325809   6.145   3.510   4.258  1.3766 -0.4080 -0.5857
 6519SOL    MW425810   6.126   3.430   4.285 -0.4272  0.1777  0.0126
 6520SOL     OW25811   3.939   4.537   5.207 -0.1082  0.0829 -0.6774
 6520SOL    HW225812   3.925   4.532   5.113 -1.3570 -1.1005 -0.4472
 6520SOL    HW325813   3.852   4.551   5.245  0.0894 -1.4037  0.4124
 6520SOL    MW425814   3.926   4.538   5.200 -0.0173 -0.3628 -0.1742
 6521SOL     OW25815   2.794   0.950   3.172 -0.1805 -0.3435 -0.6157
 6521SOL    HW225816   2.738   0.971   3.247  0.2136  0.8437 -0.6259
 6521SOL    HW325817   2.751   0.993   3.098  0.0434 -0.5393 -0.8588
 6521SOL    MW425818   2.781   0.959   3.172  0.1736 -0.2683  0.2728
 6522SOL     OW25819   5.756   2.135   5.316 -0.4398  0.2595 -0.0411
 6522SOL    HW225820   5.823   2.176   5.262 -0.4411  0.6539  0.2500
 6522SOL    HW325821   5.796   2.054   5.347 -0.9966 -0.7666 -1.9001
 6522SOL    MW425822   5.770   2.130   5.313 -0.2115  0.2296  0.4772
 6523SOL     OW25823   5.764   1.457   6.418  0.1366 -0.1413 -0.1259
 6523SOL    HW225824   5.824   1.437   6.346  0.9076 -0.4194  0.5797
 6523SOL    HW325825   5.797   1.407   6.492  1.0257  2.2350  1.2109
 6523SOL    MW425826   5.776   1.448   6.419 -0.4087 -0.1542  0.1556
 6524SOL     OW25827   3.202   4.621   4.849  0.2491 -0.2306 -0.6219
 6524SOL    HW225828   3.296   4.628   4.838  0.5135 -2.3380 -0.1515
 6524SOL    HW325829   3.166   4.632   4.761  1.0263 -0.3988 -0.9645
 6524SOL    MW425830   3.209   4.623   4.836  0.1084 -0.0574  0.2183
 6525SOL     OW25831   2.950   5.593   1.456  0.0823 -0.4578 -0.3934
 6525SOL    HW225832   2.958   5.684   1.484 -1.0232 -0.8994  1.5753
 6525SOL    HW325833   2.950   5.543   1.538 -1.4463 -2.0302 -1.2958
 6525SOL    MW425834   2.951   5.598   1.471 -0.0252 -0.0035 -0.8725
 6526SOL     OW25835   2.301   2.180   3.157 -0.3847  0.4677 -0.2142
 6526SOL    HW225836   2.308   2.104   3.099  2.4368  0.2686  0.2636
 6526SOL    HW325837   2.305   2.255   3.099 -1.1060  0.2729 -0.5264
 6526SOL    MW425838   2.303   2.180   3.142  0.3325  0.3271 -0.9305
 6527SOL     OW25839   1.183   2.615   5.488 -0.0984  0.3201  0.1163
 6527SOL    HW225840   1.268   2.572   5.496  0.7235  1.3922 -1.9968
 6527SOL    HW325841   1.199   2.705   5.516 -0.5879  0.4767 -0.0977
 6527SOL    MW425842   1.197   2.621   5.493 -0.0989 -0.0072  0.4997
 6528SOL     OW25843   4.250   4.629   0.620 -0.2157 -0.4588 -0.2479
 6528SOL    HW225844   4.237   4.724   0.625 -4.3204 -0.8085 -0.6375
 6528SOL    HW325845   4.255   4.611   0.526  0.3194 -0.6728 -0.1801
 6528SOL    MW425846   4.249   4.639   0.608 -0.0845  0.2179 -0.1192
 6529SOL     OW25847   1.571   6.351   2.957 -0.0852 -0.3268  0.7098
 6529SOL    HW225848   1.564   6.392   2.871 -0.3773 -1.9645 -0.0820
 6529SOL    HW325849   1.654   6.383   2.992 -0.8681  1.8880  0.6866
 6529SOL    MW425850   1.581   6.361   2.950  0.1091 -0.2419  0.0050
 6530SOL     OW25851   1.130   6.017   1.357 -0.1979  0.5297 -0.0265
 6530SOL    HW225852   1.182   5.942   1.386 -0.6882  1.1191  2.6911
 6530SOL    HW325853   1.048   6.009   1.406 -0.4873  2.5148 -0.1018
 6530SOL    MW425854   1.126   6.006   1.368  0.2165 -0.5962 -0.6573
 6531SOL     OW25855   3.282   2.017   5.871 -0.3490  0.0388  0.0847
 6531SOL    HW225856   3.217   2.035   5.939  0.6737 -2.0242  1.7561
 6531SOL    HW325857   3.262   1.928   5.842  0.3322  0.2341 -1.0569
 6531SOL    MW425858   3.271   2.007   5.876 -0.1072 -0.9426  1.0639
 6532SOL     OW25859   3.468   2.477   2.637 -0.0136 -0.3429  0.0789
 6532SOL    HW225860   3.556   2.444   2.657  0.7459  0.3471 -1.8677
 6532SOL    HW325861   3.484   2.558   2.588 -1.7634  0.2476  0.4351
 6532SOL    MW425862   3.482   2.483   2.633  0.4521 -0.4843 -0.2527
 6533SOL     OW25863   6.193   0.517   2.844  0.4571 -0.6154  0.3443
 6533SOL    HW225864   6.208   0.451   2.776  0.4749 -0.2369 -0.0283
 6533SOL    HW325865   6.242   0.594   2.814 -1.3198  0.3022 -0.3787
 6533SOL    MW425866   6.201   0.518   2.831  0.8098 -0.0507 -0.1341
 6534SOL     OW25867   3.583   4.507   2.880  0.2116  0.2647  1.1152
 6534SOL    HW225868   3.526   4.578   2.849 -1.0343 -0.9239  0.5760
 6534SOL    HW325869   3.649   4.499   2.812  0.0336  0.5619  0.9041
 6534SOL    MW425870   3.584   4.515   2.867 -0.0571  0.7828 -0.0543
 6535SOL     OW25871   3.603   4.127   0.148 -0.1290  0.4469  0.3885
 6535SOL    HW225872   3.656   4.053   0.179  1.6082  1.8511  0.9538
 6535SOL    HW325873   3.587   4.108   0.055  0.4256 -0.5545  0.4867
 6535SOL    MW425874   3.608   4.114   0.140 -0.2090 -0.8871  0.6840
 6536SOL     OW25875   3.325   0.823   2.265 -0.5747 -0.3630  0.1728
 6536SOL    HW225876   3.257   0.783   2.319  0.3335  1.4330  2.8527
 6536SOL    HW325877   3.407   0.791   2.303  0.1057  0.5312 -0.4986
 6536SOL    MW425878   3.327   0.813   2.278  0.2173  0.9668 -0.2720
 6537SOL     OW25879   3.756   0.193   6.009 -0.0041 -0.2408  0.0215
 6537SOL    HW225880   3.750   0.146   5.926 -0.8191  0.1808 -0.1656
 6537SOL    HW325881   3.840   0.239   6.004 -0.0157 -0.2775 -0.5301
 6537SOL    MW425882   3.766   0.193   5.998 -0.2643 -0.5155 -0.3265
 6538SOL     OW25883   5.327   2.744   3.403  0.1882 -0.3571  0.1367
 6538SOL    HW225884   5.344   2.706   3.489 -1.5865  1.0755  1.2002
 6538SOL    HW325885   5.234   2.766   3.405  0.0931 -0.3527 -2.1990
 6538SOL    MW425886   5.317   2.742   3.415  0.4246 -0.2890  0.2316
 6539SOL     OW25887   2.392   5.703   0.391  0.3218  0.0220 -0.2179
 6539SOL    HW225888   2.417   5.662   0.308  2.6705 -0.0427  0.4442
 6539SOL    HW325889   2.475   5.717   0.436 -0.6493  2.8340  0.8694
 6539SOL    MW425890   2.406   5.699   0.386 -0.2237 -0.2016  0.5386
 6540SOL     OW25891   5.417   2.621   3.637  0.7053 -0.0268 -0.1079
 6540SOL    HW225892   5.464   2.539   3.651 -0.2310 -0.3903  1.0913
 6540SOL    HW325893   5.482   2.689   3.657  1.2037 -0.4841 -0.1342
 6540SOL    MW425894   5.432   2.619   3.641 -0.0169 -0.3830  0.8603
 6541SOL     OW25895   1.170   2.401   5.090 -0.5073 -0.4362 -0.6720
 6541SOL    HW225896   1.128   2.338   5.149 -0.9806  0.1792 -0.3378
 6541SOL    HW325897   1.116   2.480   5.098  0.4812  0.2385 -0.5510
 6541SOL    MW425898   1.157   2.403   5.099  0.2365 -0.0354  0.6046
 6542SOL     OW25899   0.975   1.921   0.102  0.0189 -0.0205 -0.0691
 6542SOL    HW225900   0.979   1.826   0.091 -0.4990 -0.3027  1.8152
 6542SOL    HW325901   1.038   1.940   0.172 -0.7229  0.8684  0.3775
 6542SOL    MW425902   0.984   1.911   0.109 -0.2314 -0.2402  0.5015
 6543SOL     OW25903   0.259   3.215   1.362  0.2496 -0.0513  0.5437
 6543SOL    HW225904   0.265   3.119   1.366 -0.7857 -0.1220  0.4622
 6543SOL    HW325905   0.196   3.238   1.430 -0.3308  0.4832 -0.1636
 6543SOL    MW425906   0.252   3.205   1.371  0.4089 -0.1487  0.0896
 6544SOL     OW25907   0.819   6.137   1.760 -0.7357 -0.1838 -0.3973
 6544SOL    HW225908   0.832   6.211   1.821 -0.4219 -0.6240  0.0822
 6544SOL    HW325909   0.841   6.173   1.674  0.6112 -0.0223 -0.0160
 6544SOL    MW425910   0.824   6.152   1.757  0.1019  0.6333  0.0487
 6545SOL     OW25911   1.685   4.697   6.083 -0.0957 -0.1705 -0.2322
 6545SOL    HW225912   1.673   4.604   6.065  1.5792 -0.6892  1.0250
 6545SOL    HW325913   1.704   4.701   6.177 -1.8649  1.6495  0.1029
 6545SOL    MW425914   1.686   4.685   6.093 -0.4645 -0.3358  0.4219
 6546SOL     OW25915   0.467   2.377   1.031 -0.7111  0.5409  0.0427
 6546SOL    HW225916   0.551   2.352   1.069 -0.7366  2.3728  1.4353
 6546SOL    HW325917   0.481   2.375   0.937  1.2034  1.7032  0.2553
 6546SOL    MW425918   0.480   2.374   1.024 -0.8532 -0.4310  0.2241
 6547SOL     OW25919   2.959   5.329   5.537 -0.0834 -0.2182  0.2605
 6547SOL    HW225920   2.931   5.238   5.530  0.3144 -0.2307 -1.9132
 6547SOL    HW325921   2.898   5.368   5.600 -5.3913 -0.1882 -4.0815
 6547SOL    MW425922   2.947   5.322   5.545 -0.0679  0.3375  0.2855
 6548SOL     OW25923   4.167   1.262   2.907  0.4124  0.2291 -0.2442
 6548SOL    HW225924   4.246   1.241   2.956 -0.1759  0.7474  0.9499
 6548SOL    HW325925   4.174   1.356   2.889 -2.6305  1.9016  5.1735
 6548SOL    MW425926   4.178   1.272   2.911 -0.0784  0.0581 -0.1857
 6549SOL     OW25927   5.868   5.461   2.142  0.5507  0.3583  0.0821
 6549SOL    HW225928   5.931   5.517   2.188  0.6192  1.2679 -1.0558
 6549SOL    HW325929   5.922   5.401   2.091  0.4749 -0.2298  0.6788
 6549SOL    MW425930   5.883   5.461   2.141 -0.4932  0.1299 -0.0692
 6550SOL     OW25931   4.432   1.452   6.189  0.0880  0.6563  0.3408
 6550SOL    HW225932   4.412   1.453   6.282 -2.1454  0.7487 -0.0863
 6550SOL    HW325933   4.403   1.537   6.157 -2.1735 -0.5119 -0.9473
 6550SOL    MW425934   4.426   1.463   6.197 -0.1349 -0.0209 -0.2519
 6551SOL     OW25935   5.690   4.191   6.020  0.1409 -0.1322  0.5383
 6551SOL    HW225936   5.688   4.287   6.022  1.4242 -0.0300 -1.0050
 6551SOL    HW325937   5.611   4.165   6.065 -0.6679  1.6795  0.2728
 6551SOL    MW425938   5.680   4.200   6.026 -0.6995  0.6350 -0.5444
 6552SOL     OW25939   1.230   3.923   2.716  0.8429 -0.8297  0.4396
 6552SOL    HW225940   1.148   3.874   2.726  1.2468 -1.2540  1.8868
 6552SOL    HW325941   1.235   3.977   2.795  0.3018  1.7871 -1.2081
 6552SOL    MW425942   1.220   3.924   2.728  0.4064  0.6843  0.0922
 6553SOL     OW25943   4.816   2.987   1.151 -0.3219  0.4300 -0.2317
 6553SOL    HW225944   4.760   2.912   1.132 -0.8975  1.0018 -0.8716
 6553SOL    HW325945   4.862   3.005   1.069  0.7377  0.0361  0.2566
 6553SOL    MW425946   4.815   2.979   1.137 -0.3946 -0.5119  0.8573
 6554SOL     OW25947   4.156   2.611   6.332 -0.2635 -0.5369  0.1467
 6554SOL    HW225948   4.218   2.551   6.373  1.1850  0.1897 -0.9100
 6554SOL    HW325949   4.192   2.628   6.245 -0.0390  2.6911  0.7640
 6554SOL    MW425950   4.169   2.605   6.326 -1.2087  0.0351  0.7818
 6555SOL     OW25951   5.449   2.810   1.852 -0.0986  0.3326  0.3989
 6555SOL    HW225952   5.392   2.887   1.846 -1.2972 -0.3798  2.0311
 6555SOL    HW325953   5.432   2.774   1.939  2.1881 -0.4421  0.6006
 6555SOL    MW425954   5.439   2.816   1.863 -0.4250  0.5733 -0.3885
 6556SOL     OW25955   2.945   5.844   5.147  0.2661  0.2905  0.2143
 6556SOL    HW225956   2.904   5.917   5.194 -1.5689  0.6899 -1.8303
 6556SOL    HW325957   2.952   5.875   5.056  1.1920 -1.4048 -0.3243
 6556SOL    MW425958   2.940   5.858   5.141  0.6932 -0.2362  0.2359
 6557SOL     OW25959   0.276   6.295   0.696 -0.0268  0.3507 -0.3769
 6557SOL    HW225960   0.315   6.261   0.616 -0.4422 -1.0389 -0.0158
 6557SOL    HW325961   0.351   6.323   0.749  0.1891  2.9353 -1.9010
 6557SOL    MW425962   0.291   6.294   0.692  0.1179 -0.1700 -0.0589
 6558SOL     OW25963   5.474   0.237   5.257  0.2995  0.6530 -0.0142
 6558SOL    HW225964   5.432   0.177   5.195 -0.3644  1.2470 -0.1532
 6558SOL    HW325965   5.487   0.184   5.336 -0.3209  0.3336 -0.1193
 6558SOL    MW425966   5.470   0.222   5.260 -0.1186  0.0690 -0.4864
 6559SOL     OW25967   2.831   0.786   5.535 -0.2426 -0.1909  0.0883
 6559SOL    HW225968   2.754   0.843   5.534 -1.3760 -1.6381  1.2022
 6559SOL    HW325969   2.861   0.787   5.626  0.2737 -0.6611 -0.0667
 6559SOL    MW425970   2.825   0.794   5.547  0.4180  0.3066  0.5111
 6560SOL     OW25971   6.013   4.604   5.040  0.5455 -0.4282  0.2025
 6560SOL    HW225972   5.920   4.619   5.059 -0.1717 -1.4736 -2.1109
 6560SOL    HW325973   6.033   4.664   4.969  1.0938 -1.5147 -0.5861
 6560SOL    MW425974   6.003   4.614   5.033 -0.2265  0.1161 -0.2357
 6561SOL     OW25975   6.168   5.502   2.017 -0.5197 -0.1847  0.2321
 6561SOL    HW225976   6.258   5.474   2.032 -0.7751 -2.3460 -1.6616
 6561SOL    HW325977   6.145   5.552   2.095  1.3247 -2.1666  2.1916
 6561SOL    MW425978   6.177   5.505   2.029 -0.3160 -0.4147  0.0699
 6562SOL     OW25979   4.563   5.571   2.650 -0.1330  0.1755 -0.0222
 6562SOL    HW225980   4.488   5.558   2.708 -1.3072 -0.2588 -1.5765
 6562SOL    HW325981   4.608   5.486   2.650 -0.4315  0.0180 -0.1611
 6562SOL    MW425982   4.559   5.558   2.658 -0.4439  0.5729 -0.2968
 6563SOL     OW25983   2.340   3.868   0.200 -0.3644 -0.5079  0.1703
 6563SOL    HW225984   2.308   3.905   0.118 -1.1480 -0.2872  0.5626
 6563SOL    HW325985   2.288   3.912   0.268  0.9980  0.0921  0.8602
 6563SOL    MW425986   2.329   3.879   0.198 -0.0021 -0.4872 -0.2904
 6564SOL     OW25987   1.795   5.310   5.080 -0.3448  0.2879 -0.1525
 6564SOL    HW225988   1.799   5.394   5.126 -2.1629  0.1662  0.3092
 6564SOL    HW325989   1.779   5.246   5.148  0.7090 -0.4255 -0.5462
 6564SOL    MW425990   1.794   5.313   5.095  0.6962  0.2848  0.1217
 6565SOL     OW25991   5.057   1.569   2.907 -0.2634 -0.0463  0.3145
 6565SOL    HW225992   5.103   1.596   2.828  0.4348 -0.6936  0.4813
 6565SOL    HW325993   5.045   1.650   2.957 -0.3874  0.3097 -0.2848
 6565SOL    MW425994   5.061   1.583   2.903  0.2558  0.2964  0.3749
 6566SOL     OW25995   1.125   3.249   3.623 -0.1478  0.0351 -1.0094
 6566SOL    HW225996   1.083   3.168   3.651  1.0735 -0.2103  0.2188
 6566SOL    HW325997   1.219   3.232   3.635  0.1016  1.8247 -0.2006
 6566SOL    MW425998   1.132   3.236   3.628  0.3018 -0.3771 -0.5015
 6567SOL     OW25999   5.207   3.970   1.143 -0.6293 -0.0050 -0.4177
 6567SOL    HW226000   5.241   4.013   1.065  1.2750 -0.5697  0.0515
 6567SOL    HW326001   5.197   3.878   1.118 -0.0485 -0.1810 -0.0266
 6567SOL    MW426002   5.210   3.964   1.130  0.0250 -0.5401  0.0895
 6568SOL     OW26003   3.187   3.815   6.003  0.4109  0.0859  0.1601
 6568SOL    HW226004   3.191   3.727   6.039 -2.3605 -0.2935 -0.2113
 6568SOL    HW326005   3.097   3.823   5.970  1.0105  2.5449 -1.1214
 6568SOL    MW426006   3.176   3.804   6.003 -0.2594 -0.0814  0.3730
 6569SOL     OW26007   4.936   2.841   1.624  0.3311  0.4366 -0.0929
 6569SOL    HW226008   4.902   2.832   1.535  0.4000 -0.7237 -0.0113
 6569SOL    HW326009   4.903   2.764   1.670  1.9899 -0.0421  0.3458
 6569SOL    MW426010   4.927   2.830   1.619 -0.3130 -0.1921  0.1119
 6570SOL     OW26011   6.072   3.659   3.452  0.5689  0.0723 -0.2679
 6570SOL    HW226012   6.029   3.650   3.537  1.5788 -0.1236  0.2273
 6570SOL    HW326013   6.014   3.612   3.392 -0.1061  0.1282  0.3151
 6570SOL    MW426014   6.059   3.652   3.455  0.0465  0.1769 -0.3431
 6571SOL     OW26015   5.806   2.999   0.053  0.2519  0.0016 -0.7611
 6571SOL    HW226016   5.787   2.919   0.102 -0.3481  0.3017 -0.5001
 6571SOL    HW326017   5.755   2.990  -0.027 -0.0444  0.2626 -0.5986
 6571SOL    MW426018   5.797   2.987   0.049  0.3355 -0.9059 -0.0384
 6572SOL     OW26019   1.222   3.578   4.624 -0.2866 -0.8531 -1.1564
 6572SOL    HW226020   1.252   3.658   4.668 -2.2688 -0.4278 -0.4682
 6572SOL    HW326021   1.274   3.508   4.662 -1.3006 -0.3710  1.2767
 6572SOL    MW426022   1.233   3.579   4.634 -0.1187 -0.1731 -0.0501
 6573SOL     OW26023   6.153   3.926   2.282  0.3880 -0.3381 -0.3396
 6573SOL    HW226024   6.169   3.971   2.365  0.1910 -0.7066 -0.0997
 6573SOL    HW326025   6.107   3.846   2.306 -0.8997  0.1993 -0.9168
 6573SOL    MW426026   6.149   3.921   2.296  0.6561 -0.3494 -0.5072
 6574SOL     OW26027   1.122   4.575   0.724 -0.1715  0.2359 -0.3564
 6574SOL    HW226028   1.041   4.591   0.677 -1.2918  0.9696  1.6963
 6574SOL    HW326029   1.167   4.660   0.724  1.2511 -0.4445 -2.5342
 6574SOL    MW426030   1.117   4.589   0.718 -0.1878 -0.4804 -0.3172
 6575SOL     OW26031   5.824   2.899   3.305 -0.0973  0.2445  0.1062
 6575SOL    HW226032   5.743   2.874   3.260 -0.4794  0.0156  0.8994
 6575SOL    HW326033   5.894   2.856   3.255 -0.4192  0.7693 -0.8206
 6575SOL    MW426034   5.823   2.890   3.292  0.2358  0.3026 -0.3476
 6576SOL     OW26035   2.621   2.076   3.431  0.3953 -0.1286 -0.1026
 6576SOL    HW226036   2.650   2.035   3.513  1.5429 -0.7050 -0.7648
 6576SOL    HW326037   2.682   2.149   3.418 -0.1601  0.3302 -0.1388
 6576SOL    MW426038   2.633   2.080   3.440 -0.4685  0.3428  0.2065
 6577SOL     OW26039   5.005   6.150   4.513 -0.4191 -0.0329 -0.0973
 6577SOL    HW226040   4.994   6.057   4.495 -1.6539 -0.3383  1.8776
 6577SOL    HW326041   5.056   6.154   4.594  0.3504  1.0552 -0.6041
 6577SOL    MW426042   5.010   6.139   4.521  0.2137  0.3922 -0.2499
 6578SOL     OW26043   6.073   6.066   5.569 -0.3950  0.1393 -0.0663
 6578SOL    HW226044   6.131   5.990   5.564 -1.4205 -0.6416 -0.5028
 6578SOL    HW326045   6.069   6.086   5.663  1.4991  0.9693 -0.1243
 6578SOL    MW426046   6.080   6.058   5.581 -0.3838  0.0932 -0.0512
 6579SOL     OW26047   4.781   5.868   5.232 -0.2868 -0.2375  0.0179
 6579SOL    HW226048   4.824   5.949   5.258 -0.9592  0.4852 -1.0629
 6579SOL    HW326049   4.729   5.843   5.308 -0.6675  0.7593  0.0998
 6579SOL    MW426050   4.780   5.875   5.245 -0.1975  0.1838  0.2125
 6580SOL     OW26051   1.913   4.978   5.742 -0.4184 -0.2558  0.3200
 6580SOL    HW226052   1.929   4.933   5.659 -0.8163 -0.2428  0.2330
 6580SOL    HW326053   1.840   5.036   5.723 -1.8520 -1.6867  1.1850
 6580SOL    MW426054   1.906   4.979   5.728 -0.1528 -0.4124  0.6076
 6581SOL     OW26055   2.793   3.447   1.116  0.4523  0.4660 -0.0533
 6581SOL    HW226056   2.810   3.529   1.070 -0.3339  1.4001  1.2817
 6581SOL    HW326057   2.802   3.380   1.048 -0.9404  1.8205 -1.6628
 6581SOL    MW426058   2.796   3.449   1.101  0.2944  0.4607  0.0010
 6582SOL     OW26059   5.090   2.932   3.891  0.2921  0.1627  0.4433
 6582SOL    HW226060   5.071   2.962   3.980 -1.0804 -0.1211  0.2769
 6582SOL    HW326061   5.159   2.990   3.860 -1.6957  2.6972  0.4223
 6582SOL    MW426062   5.096   2.944   3.898 -0.5535  0.9422  0.0762
 6583SOL     OW26063   3.101   4.476   3.076  0.0562  0.4666 -0.0760
 6583SOL    HW226064   3.026   4.421   3.100  0.0731  0.7070  0.5648
 6583SOL    HW326065   3.148   4.425   3.010 -1.9156  1.3024 -2.2705
 6583SOL    MW426066   3.098   4.462   3.071  0.0847  0.4014  0.3106
 6584SOL     OW26067   2.071   2.127   4.024 -0.0881 -0.2276 -0.1953
 6584SOL    HW226068   2.029   2.213   4.021  0.6775  0.1942  0.6334
 6584SOL    HW326069   2.049   2.093   4.111  0.7947 -0.2479  0.0281
 6584SOL    MW426070   2.063   2.134   4.035 -0.4122  0.0697 -0.0076
 6585SOL     OW26071   3.661   5.554   4.485  0.0680  0.4748  0.2950
 6585SOL    HW226072   3.592   5.487   4.481 -0.9037  1.4214  0.5312
 6585SOL    HW326073   3.655   5.599   4.401  1.8895 -0.8163 -0.5732
 6585SOL    MW426074   3.651   5.551   4.473  0.2135  0.1342 -0.1706
 6586SOL     OW26075   0.891   3.600   0.453 -0.0335  0.0585  0.0192
 6586SOL    HW226076   0.929   3.570   0.370  1.0618  0.1553  0.4732
 6586SOL    HW326077   0.823   3.535   0.473  1.4040 -1.4212  0.3103
 6586SOL    MW426078   0.887   3.587   0.445 -0.1044  0.0315 -0.0516
 6587SOL     OW26079   4.824   2.149   2.848 -0.8335  0.7003  0.5712
 6587SOL    HW226080   4.817   2.078   2.912 -1.3720 -0.6073 -0.8563
 6587SOL    HW326081   4.733   2.171   2.827 -0.6669  1.2986  0.4714
 6587SOL    MW426082   4.811   2.142   2.853 -0.7453  0.2314  0.0244
 6588SOL     OW26083   1.944   1.197   6.305 -0.7005 -0.4501 -1.0181
 6588SOL    HW226084   1.879   1.224   6.239 -1.0540 -0.3736 -0.6436
 6588SOL    HW326085   1.900   1.212   6.388  0.1858  0.6465 -0.7147
 6588SOL    MW426086   1.930   1.203   6.307 -0.0045  0.5707 -0.1570
 6589SOL     OW26087   6.247   4.915   4.816  0.4751  0.3894 -0.3053
 6589SOL    HW226088   6.253   5.009   4.828  1.3510  0.5247 -1.5914
 6589SOL    HW326089   6.328   4.891   4.771  1.2969 -1.3115  1.8509
 6589SOL    MW426090   6.259   4.924   4.812 -0.1241  0.2286 -0.6246
 6590SOL     OW26091   2.949   6.045   4.936  0.0575  0.6988  0.1944
 6590SOL    HW226092   3.007   5.996   4.879 -1.2012 -2.2901  1.3064
 6590SOL    HW326093   2.954   6.135   4.903  1.9491 -0.2409 -2.4169
 6590SOL    MW426094   2.957   6.051   4.924  0.8375  0.2540 -0.2700
 6591SOL     OW26095   0.413   3.449   3.374  0.7765  0.2874  0.2822
 6591SOL    HW226096   0.397   3.460   3.468  0.8777 -0.6591  0.4176
 6591SOL    HW326097   0.325   3.449   3.335  0.6511 -0.6157  0.5356
 6591SOL    MW426098   0.399   3.451   3.381  0.4034  0.0471  0.1790
 6592SOL     OW26099   2.458   0.627   3.195 -0.2652  0.0511 -0.4291
 6592SOL    HW226100   2.399   0.690   3.155 -0.7268 -1.1917 -1.8039
 6592SOL    HW326101   2.537   0.631   3.141  0.4179  0.7137  0.5701
 6592SOL    MW426102   2.461   0.636   3.183  0.2586  0.3178  0.1744
 6593SOL     OW26103   3.791   2.733   2.228 -0.0309  0.0203 -0.4819
 6593SOL    HW226104   3.851   2.761   2.297 -0.6789  0.4545 -0.0864
 6593SOL    HW326105   3.755   2.814   2.193 -1.8385 -0.2499  0.6007
 6593SOL    MW426106   3.794   2.747   2.233 -0.5207  0.4696  0.1147
 6594SOL     OW26107   3.143   6.165   5.980  0.2921 -0.0780 -0.2175
 6594SOL    HW226108   3.165   6.221   5.906  0.5292  0.0257 -0.0691
 6594SOL    HW326109   3.220   6.168   6.037 -0.5586  1.2770  0.9338
 6594SOL    MW426110   3.156   6.173   5.978 -0.2326 -0.3432  0.2369
 6595SOL     OW26111   4.333   5.662   0.203  0.2148  0.0223 -0.3971
 6595SOL    HW226112   4.420   5.642   0.239  0.0631 -0.7623 -0.4315
 6595SOL    HW326113   4.332   5.757   0.193  0.9884  0.0614 -0.1881
 6595SOL    MW426114   4.344   5.672   0.207 -0.3228 -0.4489 -0.4478
 6596SOL     OW26115   1.898   4.166   4.788  0.1138 -0.2717  0.1265
 6596SOL    HW226116   1.976   4.193   4.838  0.4768 -0.6269 -0.2333
 6596SOL    HW326117   1.827   4.168   4.852  0.6149 -0.9459  0.7352
 6596SOL    MW426118   1.899   4.170   4.803 -0.3782  0.2709 -0.6348
 6597SOL     OW26119   4.591   2.896   5.557 -0.6102 -0.9245 -0.0230
 6597SOL    HW226120   4.525   2.911   5.489 -2.3668 -0.4910  1.6816
 6597SOL    HW326121   4.574   2.964   5.622  2.0426 -0.3353  0.1487
 6597SOL    MW426122   4.580   2.907   5.556  0.2591 -0.2542 -0.5744
 6598SOL     OW26123   3.571   3.148   3.447 -0.1983  0.2169  0.1991
 6598SOL    HW226124   3.482   3.177   3.467 -1.0658 -1.5546 -0.8546
 6598SOL    HW326125   3.578   3.062   3.488  1.6087  0.9242  1.5511
 6598SOL    MW426126   3.560   3.141   3.455  0.2706 -0.7214 -0.2268
 6599SOL     OW26127   2.372   6.309   0.004  0.5067 -0.1562 -0.3380
 6599SOL    HW226128   2.386   6.360  -0.076 -0.5797  1.7344  0.6117
 6599SOL    HW326129   2.439   6.342   0.065  1.5162 -1.7896 -0.5013
 6599SOL    MW426130   2.383   6.320   0.001 -0.6887 -0.3512  0.3880
 6600SOL     OW26131   4.900   4.349   1.112  0.6703 -0.3782 -0.5324
 6600SOL    HW226132   4.904   4.260   1.145 -0.2082 -1.3320 -2.7959
 6600SOL    HW326133   4.968   4.353   1.045  0.5123  0.5771 -0.6534
 6600SOL    MW426134   4.909   4.338   1.108 -0.6551 -0.6422  1.0852
 6601SOL     OW26135   3.499   1.331   0.154 -0.4054 -0.2838 -0.0343
 6601SOL    HW226136   3.485   1.236   0.156 -1.0889 -0.2110  2.5461
 6601SOL    HW326137   3.474   1.360   0.242  3.9414  1.6984  0.7979
 6601SOL    MW426138   3.494   1.322   0.166 -0.2887  0.1509  0.1428
 6602SOL     OW26139   1.619   3.839   5.275  0.0540  0.3985 -0.2702
 6602SOL    HW226140   1.654   3.760   5.316  0.4199  0.6558 -0.0792
 6602SOL    HW326141   1.530   3.846   5.309 -0.0145  0.0156 -0.3635
 6602SOL    MW426142   1.612   3.829   5.285 -0.6566 -0.2328  0.0219
 6603SOL     OW26143   1.240   3.687   3.117 -0.1644 -0.0540  0.5488
 6603SOL    HW226144   1.248   3.592   3.130 -0.6029 -0.1683  0.0293
 6603SOL    HW326145   1.238   3.723   3.206  2.7211 -0.2603  0.7830
 6603SOL    MW426146   1.241   3.679   3.131 -0.0935  0.0851  0.1718
 6604SOL     OW26147   5.517   6.030   5.880 -0.3317  0.0213 -0.2779
 6604SOL    HW226148   5.515   6.121   5.911 -0.7457  0.4029 -1.3578
 6604SOL    HW326149   5.456   5.984   5.938 -0.8191  0.6330 -0.2930
 6604SOL    MW426150   5.509   6.036   5.892 -0.0979  0.3631  0.2527
 6605SOL     OW26151   5.467   4.239   6.327  0.1520 -0.2230 -0.4406
 6605SOL    HW226152   5.476   4.239   6.423 -2.6815  1.4602 -0.0797
 6605SOL    HW326153   5.508   4.322   6.300  0.9201 -0.6829 -0.7215
 6605SOL    MW426154   5.474   4.250   6.336  0.7790 -0.1861  0.4156
 6606SOL     OW26155   2.585   2.621   2.931  0.1920 -0.5636  0.6250
 6606SOL    HW226156   2.655   2.603   2.868  0.5485  0.6907  0.6277
 6606SOL    HW326157   2.513   2.565   2.904  1.3369 -2.2253  0.8849
 6606SOL    MW426158   2.585   2.611   2.919 -0.1214  0.4224 -0.6486
 6607SOL     OW26159   6.240   2.446   5.397  0.5292  0.1694 -0.1646
 6607SOL    HW226160   6.159   2.494   5.413  0.3001 -0.3859  0.3910
 6607SOL    HW326161   6.248   2.445   5.302  0.4537  1.1550 -0.1941
 6607SOL    MW426162   6.230   2.452   5.387 -0.0787  0.3871  0.2317
 6608SOL     OW26163   2.194   3.509   6.410 -0.0118 -0.1958 -0.1725
 6608SOL    HW226164   2.225   3.539   6.325 -1.4290  0.0796 -0.6168
 6608SOL    HW326165   2.261   3.537   6.472  0.9092 -0.1734 -1.1589
 6608SOL    MW426166   2.207   3.516   6.407 -0.1605  0.3846  0.0390
 6609SOL     OW26167   4.121   1.686   1.716  0.3479  0.1011 -0.6956
 6609SOL    HW226168   4.036   1.643   1.725 -0.4503  1.1695 -2.5957
 6609SOL    HW326169   4.142   1.680   1.623  2.0402  0.4715 -0.3779
 6609SOL    MW426170   4.112   1.680   1.705  0.3245  0.2375 -0.8887
 6610SOL     OW26171   2.360   1.413   2.565  0.0888 -0.4284  0.1103
 6610SOL    HW226172   2.423   1.421   2.493  0.6405 -0.7342  0.5472
 6610SOL    HW326173   2.279   1.384   2.523  0.0137  0.6966 -0.5625
 6610SOL    MW426174   2.358   1.410   2.550 -0.2763 -0.3294 -0.2252
 6611SOL     OW26175   2.643   3.327   2.403  0.5329  0.2268 -0.2229
 6611SOL    HW226176   2.724   3.352   2.447  0.3173  1.7531 -0.6269
 6611SOL    HW326177   2.670   3.270   2.331  0.9282 -1.9960  1.5796
 6611SOL    MW426178   2.657   3.323   2.399 -0.4038 -0.1954 -0.7940
 6612SOL     OW26179   2.710   2.554   6.364  0.2552 -0.3365  0.0885
 6612SOL    HW226180   2.781   2.586   6.420  1.6065 -0.9103 -1.2438
 6612SOL    HW326181   2.740   2.469   6.333 -0.2573  0.1254 -1.8193
 6612SOL    MW426182   2.723   2.547   6.368 -0.3878  0.2913  0.3951
 6613SOL     OW26183   3.486   5.094   1.480  0.3301  0.7286  0.4266
 6613SOL    HW226184   3.397   5.105   1.446  1.0333 -0.3510 -2.0278
 6613SOL    HW326185   3.525   5.181   1.475  0.0145  0.8282 -0.4169
 6613SOL    MW426186   3.480   5.107   1.475 -0.1589  0.1321  0.5589
 6614SOL     OW26187   0.669   1.213   4.212 -0.5789 -0.2309  0.7464
 6614SOL    HW226188   0.647   1.269   4.137  0.6271 -1.1178 -0.3318
 6614SOL    HW326189   0.590   1.211   4.265 -1.0909  1.3687  0.0983
 6614SOL    MW426190   0.656   1.220   4.209  0.2155 -0.1429  0.3765
 6615SOL     OW26191   4.328   3.273   2.937  0.2480 -0.2045  0.1622
 6615SOL    HW226192   4.370   3.219   2.871 -0.4464 -1.3958  0.6558
 6615SOL    HW326193   4.397   3.331   2.969  0.6470  0.2363 -1.4177
 6615SOL    MW426194   4.342   3.274   2.933  0.6951 -0.4082 -0.1290
 6616SOL     OW26195   4.410   0.672   4.672  0.1387  0.1491 -0.1374
 6616SOL    HW226196   4.337   0.657   4.732 -0.6897  0.7005 -0.9778
 6616SOL    HW326197   4.486   0.633   4.716 -0.3952  0.7417  1.3599
 6616SOL    MW426198   4.410   0.665   4.686 -0.3112 -0.2392 -0.0302
 6617SOL     OW26199   5.244   1.025   2.236 -0.3187  0.8845  0.2876
 6617SOL    HW226200   5.336   1.009   2.254 -0.4655  0.8610  1.0497
 6617SOL    HW326201   5.232   1.119   2.249 -0.2413  1.0218 -0.5770
 6617SOL    MW426202   5.254   1.035   2.240  0.4211  0.0272 -0.1487
 6618SOL     OW26203   3.389   2.763   0.776  0.1989  0.0581 -0.1266
 6618SOL    HW226204   3.374   2.791   0.867  0.3532 -2.8077  0.8892
 6618SOL    HW326205   3.435   2.679   0.784  0.6918 -0.0316 -2.8901
 6618SOL    MW426206   3.393   2.756   0.789 -0.1675 -0.6496 -0.1432
 6619SOL     OW26207   4.451   1.639   2.087  0.1429 -0.0170  0.5967
 6619SOL    HW226208   4.365   1.617   2.123  0.9671 -0.8209  2.2097
 6619SOL    HW326209   4.513   1.592   2.144  1.6377  0.3826 -0.6400
 6619SOL    MW426210   4.448   1.630   2.099  0.1255  0.2262  1.0167
 6620SOL     OW26211   0.870   4.532   0.106 -0.2943 -0.0553 -0.0223
 6620SOL    HW226212   0.840   4.487   0.027  0.4029 -0.1181 -0.2501
 6620SOL    HW326213   0.841   4.475   0.178  0.6704 -0.9476 -0.3099
 6620SOL    MW426214   0.862   4.518   0.105  0.3741  0.2230 -0.5609
 6621SOL     OW26215   0.495   3.536   1.273  0.4474  0.1720  0.2402
 6621SOL    HW226216   0.513   3.453   1.317  2.5949 -0.5531 -1.7926
 6621SOL    HW326217   0.581   3.579   1.266 -0.0525  0.9924 -1.6532
 6621SOL    MW426218   0.509   3.531   1.278  0.0971 -0.1750 -0.1250
 6622SOL     OW26219   5.567   2.019   5.584 -0.3613 -0.1393  0.4722
 6622SOL    HW226220   5.600   1.942   5.538 -0.6342  0.5092 -0.8427
 6622SOL    HW326221   5.609   2.014   5.670  0.9583 -0.8495 -0.1697
 6622SOL    MW426222   5.577   2.008   5.589 -0.6247 -0.0492  0.6945
 6623SOL     OW26223   0.754   4.722   0.301 -0.0812  0.0604  0.1128
 6623SOL    HW226224   0.752   4.653   0.234 -0.7603 -1.5805  1.7345
 6623SOL    HW326225   0.847   4.741   0.312  0.2471 -1.6729  0.6455
 6623SOL    MW426226   0.766   4.716   0.293 -0.1228  0.8338 -0.3080
 6624SOL     OW26227   0.629   0.262   4.053 -0.0826  0.3810 -0.2691
 6624SOL    HW226228   0.722   0.244   4.038  0.3319  2.1003  0.0168
 6624SOL    HW326229   0.624   0.292   4.143 -0.6978  1.5384 -0.6659
 6624SOL    MW426230   0.641   0.264   4.063  0.3744  0.3008  0.0811
 6625SOL     OW26231   6.096   1.251   5.290  0.0607  0.3405 -0.1872
 6625SOL    HW226232   6.093   1.329   5.346  1.2898  1.5468 -1.6698
 6625SOL    HW326233   6.162   1.273   5.224  1.4467 -2.5092  0.1060
 6625SOL    MW426234   6.105   1.264   5.289 -0.0971 -0.1775 -0.0724
 6626SOL     OW26235   3.378   0.562   4.179  0.0225  0.6155 -0.8398
 6626SOL    HW226236   3.322   0.622   4.229  0.7824  0.7964 -0.1818
 6626SOL    HW326237   3.320   0.526   4.112 -1.3531 -0.4413  0.8076
 6626SOL    MW426238   3.363   0.565   4.177  0.1685 -0.4329 -0.6754
 6627SOL     OW26239   3.967   5.286   5.288 -0.3981  0.5018  0.0742
 6627SOL    HW226240   3.929   5.284   5.376  0.1785 -0.1845  0.3197
 6627SOL    HW326241   3.893   5.307   5.231 -1.4992 -2.1097  0.3949
 6627SOL    MW426242   3.952   5.288   5.292 -0.0770  0.0584  0.6017
 6628SOL     OW26243   4.672   2.827   6.264  0.8694 -0.6700  0.1213
 6628SOL    HW226244   4.699   2.754   6.208  0.9383  0.9653 -2.1024
 6628SOL    HW326245   4.751   2.879   6.275  0.3856  0.0855  0.0518
 6628SOL    MW426246   4.686   2.824   6.258  0.2058 -0.1562 -0.0536
 6629SOL     OW26247   0.083   5.442   3.416  0.0672 -0.0714 -0.6575
 6629SOL    HW226248   0.077   5.373   3.483  1.1384  0.7998  0.3912
 6629SOL    HW326249  -0.005   5.447   3.379 -0.7784 -0.1237  1.1951
 6629SOL    MW426250   0.071   5.433   3.420  0.5874 -1.0664 -0.0347
 6630SOL     OW26251   2.661   1.466   3.845  0.1448  0.1217  0.5997
 6630SOL    HW226252   2.719   1.537   3.818  0.7615 -1.4305 -2.7440
 6630SOL    HW326253   2.587   1.470   3.784  0.9416 -2.8739 -0.7726
 6630SOL    MW426254   2.659   1.476   3.833 -0.1835  0.1199 -0.6770
 6631SOL     OW26255   2.405   4.204   4.237  0.4375 -0.2958  0.1175
 6631SOL    HW226256   2.343   4.216   4.309 -0.2802 -2.4975 -0.0731
 6631SOL    HW326257   2.468   4.275   4.248 -0.3740  0.1782  2.1481
 6631SOL    MW426258   2.405   4.215   4.248  0.3765  0.1984 -0.2627
 6632SOL     OW26259   1.544   3.454   3.031  0.3218 -0.1919 -0.2366
 6632SOL    HW226260   1.607   3.393   2.992 -0.5732 -2.4373  1.6107
 6632SOL    HW326261   1.598   3.513   3.084  1.1093 -0.1644 -1.0505
 6632SOL    MW426262   1.560   3.454   3.033  0.6158  0.1899  0.6553
 6633SOL     OW26263   5.785   0.735   6.070  0.1559 -0.3976 -0.3411
 6633SOL    HW226264   5.696   0.763   6.090 -0.9797 -1.5715 -3.1775
 6633SOL    HW326265   5.836   0.816   6.070 -0.5122  0.1479  2.6551
 6633SOL    MW426266   5.780   0.750   6.072 -0.1012  0.4769  0.2563
 6634SOL     OW26267   0.432   3.924   5.151  0.0627  0.8909  0.0699
 6634SOL    HW226268   0.515   3.886   5.183 -1.7858 -1.5326  2.4503
 6634SOL    HW326269   0.407   3.988   5.218 -1.1165 -0.1529  0.6664
 6634SOL    MW426270   0.440   3.927   5.164 -0.2748 -0.2425  0.2839
 6635SOL     OW26271   2.470   0.690   5.252  0.4025  0.1402 -0.0387
 6635SOL    HW226272   2.424   0.701   5.168 -0.6242  2.8505  0.7505
 6635SOL    HW326273   2.552   0.648   5.229 -0.2665 -0.0932 -2.2656
 6635SOL    MW426274   2.474   0.686   5.238 -0.4245  0.3983 -0.2999
 6636SOL     OW26275   5.897   2.089   3.785 -0.4809 -0.0398 -0.0564
 6636SOL    HW226276   5.975   2.144   3.784 -0.8278  0.4556 -0.1863
 6636SOL    HW326277   5.824   2.150   3.781 -0.8680 -0.5350 -0.9892
 6636SOL    MW426278   5.897   2.104   3.785  0.5104  0.1938  0.1485
 6637SOL     OW26279   4.327   0.206   3.235 -0.2832  0.4251 -0.3622
 6637SOL    HW226280   4.323   0.169   3.146  0.2934 -0.3159 -0.0917
 6637SOL    HW326281   4.251   0.264   3.240  0.2066  1.2198 -1.6640
 6637SOL    MW426282   4.316   0.209   3.224  0.0608 -0.4913  0.2726
 6638SOL     OW26283   3.949   5.540   4.523  0.1348  0.7187  0.3144
 6638SOL    HW226284   3.858   5.519   4.503  0.5588  0.5361 -1.5448
 6638SOL    HW326285   3.955   5.635   4.516 -0.1747  0.8569  1.6900
 6638SOL    MW426286   3.938   5.550   4.520 -0.2799 -0.0426  0.4946
 6639SOL     OW26287   5.313   0.845   2.731 -0.1094  0.0406 -0.3046
 6639SOL    HW226288   5.283   0.901   2.802  1.0102  0.9411 -0.5303
 6639SOL    HW326289   5.233   0.824   2.682 -0.5773  1.2330 -0.0783
 6639SOL    MW426290   5.298   0.849   2.734 -0.0081  0.2479 -0.3996
 6640SOL     OW26291   1.201   0.799   5.717  0.5520 -0.0987  0.1858
 6640SOL    HW226292   1.116   0.766   5.748  1.0515 -1.6921 -0.0317
 6640SOL    HW326293   1.229   0.861   5.784 -1.3108  1.3493 -0.3199
 6640SOL    MW426294   1.193   0.803   5.730  0.2586 -0.1742 -0.1124
 6641SOL     OW26295   2.732   5.277   5.228  0.0117 -0.2783 -0.0341
 6641SOL    HW226296   2.745   5.212   5.296 -2.0171 -1.4079 -0.6485
 6641SOL    HW326297   2.785   5.247   5.155  0.5658 -0.1893  0.3281
 6641SOL    MW426298   2.741   5.265   5.227 -0.0626 -0.5216  0.0100
 6642SOL     OW26299   0.529   5.254   6.189 -0.3853 -0.5804  0.5265
 6642SOL    HW226300   0.459   5.200   6.224 -2.2902  1.8839  0.8123
 6642SOL    HW326301   0.507   5.265   6.096  0.1961 -0.6162  0.3806
 6642SOL    MW426302   0.517   5.248   6.181  0.1770  0.1348 -0.6909
 6643SOL     OW26303   3.726   4.538   2.617  0.0607  0.2661 -0.3804
 6643SOL    HW226304   3.769   4.484   2.551 -0.6011  0.6134 -1.1110
 6643SOL    HW326305   3.759   4.627   2.601  0.8468  0.1593  0.5662
 6643SOL    MW426306   3.736   4.543   2.606 -0.1288 -0.2814  0.0456
 6644SOL     OW26307   2.156   4.284   4.402 -0.1489  0.6648 -0.0083
 6644SOL    HW226308   2.109   4.347   4.348 -0.1180 -1.0973 -2.2164
 6644SOL    HW326309   2.122   4.199   4.375  3.9391 -0.7080 -1.5098
 6644SOL    MW426310   2.145   4.281   4.392 -0.3612 -0.4081  0.0385
 6645SOL     OW26311   1.409   5.642   1.912 -0.7646  0.2535  0.6749
 6645SOL    HW226312   1.415   5.735   1.935 -1.8999  0.8750 -1.3476
 6645SOL    HW326313   1.496   5.607   1.932 -0.1096  1.8877  0.8486
 6645SOL    MW426314   1.422   5.650   1.918 -0.9173 -0.3312 -0.0175
 6646SOL     OW26315   5.860   2.764   5.684 -0.1502  0.3483 -0.2590
 6646SOL    HW226316   5.914   2.750   5.762  0.6027 -0.5694 -0.9252
 6646SOL    HW326317   5.771   2.776   5.718 -0.0753 -1.4732  0.6839
 6646SOL    MW426318   5.855   2.764   5.699  0.0024 -0.0127 -0.7728
 6647SOL     OW26319   0.917   1.391   2.816  0.1405  0.2397  0.1062
 6647SOL    HW226320   0.845   1.441   2.853  0.4956  0.0995  1.0065
 6647SOL    HW326321   0.916   1.307   2.862 -0.4272 -0.5986 -1.3697
 6647SOL    MW426322   0.908   1.387   2.827  0.3397 -0.0797 -0.4280
 6648SOL     OW26323   0.725   3.712   1.911 -0.7247 -0.0471 -0.3622
 6648SOL    HW226324   0.686   3.701   1.824  1.1763 -1.2797 -1.1262
 6648SOL    HW326325   0.722   3.626   1.951 -0.4427  0.2321  0.2826
 6648SOL    MW426326   0.720   3.699   1.904  0.2186  0.0990  0.4120
 6649SOL     OW26327   3.964   2.901   3.306 -0.1611 -0.2249  0.0139
 6649SOL    HW226328   3.990   2.960   3.236 -0.8849  0.1495  0.0534
 6649SOL    HW326329   4.033   2.909   3.372  0.1501 -0.0364 -0.3331
 6649SOL    MW426330   3.977   2.910   3.305  0.0033 -0.4156  0.4508
 6650SOL     OW26331   3.409   4.306   4.725  0.2584  0.1436 -0.3085
 6650SOL    HW226332   3.468   4.344   4.790 -0.5206 -1.8101  1.6748
 6650SOL    HW326333   3.464   4.244   4.677  0.3734  0.1083 -0.1315
 6650SOL    MW426334   3.424   4.303   4.728 -0.3903  0.2976  0.4629
 6651SOL     OW26335   1.602   1.079   6.293  0.2194  0.6208 -0.8296
 6651SOL    HW226336   1.667   1.106   6.228  0.1391  1.1069 -0.7099
 6651SOL    HW326337   1.653   1.047   6.367  0.3745  2.5739 -0.0486
 6651SOL    MW426338   1.617   1.078   6.294 -0.0213  0.5304  0.6722
 6652SOL     OW26339   4.213   1.468   0.280  0.2175  0.3485  0.1639
 6652SOL    HW226340   4.225   1.558   0.310 -0.0101  0.2525  0.5429
 6652SOL    HW326341   4.245   1.469   0.190 -0.7879  1.0701 -0.2098
 6652SOL    MW426342   4.219   1.480   0.272  0.0839  0.9316  0.5053
 6653SOL     OW26343   3.256   3.211   2.635 -0.1437 -0.1012 -0.3449
 6653SOL    HW226344   3.326   3.243   2.578 -1.3629  2.7344 -0.3719
 6653SOL    HW326345   3.291   3.222   2.723 -0.2462  0.5722 -0.3837
 6653SOL    MW426346   3.270   3.216   2.639  0.2605  0.0894  0.2184
 6654SOL     OW26347   2.329   4.786   2.288  0.1697  0.6460  0.1600
 6654SOL    HW226348   2.423   4.800   2.270  0.5465  0.0664  1.5535
 6654SOL    HW326349   2.318   4.815   2.379 -0.9667  0.4900  0.0812
 6654SOL    MW426350   2.340   4.792   2.298 -0.3507 -0.3539  0.4175
 6655SOL     OW26351   2.167   0.035   5.423  0.1234  0.0119 -0.1679
 6655SOL    HW226352   2.252   0.079   5.419  0.1200 -0.0572 -1.6677
 6655SOL    HW326353   2.170  -0.017   5.503  1.9426 -0.8558 -0.7488
 6655SOL    MW426354   2.178   0.034   5.433 -0.5579  0.0645 -0.3444
 6656SOL     OW26355   1.988   6.090   4.151  0.0736 -0.2274 -0.1055
 6656SOL    HW226356   1.936   6.046   4.084  0.0922 -0.9332  0.3418
 6656SOL    HW326357   1.953   6.180   4.153 -0.0641 -0.2559 -0.9092
 6656SOL    MW426358   1.977   6.096   4.142 -0.2692  0.6052 -0.1203
 6657SOL     OW26359   5.954   0.303   6.126  0.1401 -0.1408  0.3483
 6657SOL    HW226360   5.876   0.340   6.085  0.4934  1.0589  0.6961
 6657SOL    HW326361   5.969   0.221   6.080  0.0977  0.7951 -1.4388
 6657SOL    MW426362   5.946   0.297   6.114  0.2486  0.5025 -0.0053
 6658SOL     OW26363   6.328   4.652   5.291  0.3169 -0.3661  0.2241
 6658SOL    HW226364   6.324   4.577   5.232 -1.2545  0.9623 -1.4903
 6658SOL    HW326365   6.309   4.727   5.235  1.7451  1.3424  1.8723
 6658SOL    MW426366   6.325   4.652   5.276 -0.4780  0.2650 -0.2428
 6659SOL     OW26367   0.186   2.863   2.544  0.2728 -0.5635  0.1517
 6659SOL    HW226368   0.136   2.943   2.530  2.2926  0.2231 -3.9121
 6659SOL    HW326369   0.126   2.793   2.520 -0.3132 -0.0268  0.0082
 6659SOL    MW426370   0.172   2.865   2.539 -0.4257  0.2942  0.3206
 6660SOL     OW26371   1.356   1.036   0.525  0.5258  0.5550 -0.1773
 6660SOL    HW226372   1.350   1.057   0.432 -1.1733  1.3205  0.0665
 6660SOL    HW326373   1.439   0.988   0.534  0.4420 -0.0380 -2.1580
 6660SOL    MW426374   1.366   1.033   0.514 -0.2186 -0.8280  0.5376
 6661SOL     OW26375   3.132   4.436   2.062  0.4190  0.0812  0.4301
 6661SOL    HW226376   3.085   4.426   1.979 -0.8670  2.1688  0.8274
 6661SOL    HW326377   3.122   4.528   2.084  0.6120 -0.4335  2.9845
 6661SOL    MW426378   3.124   4.447   2.054  0.4128  0.1997  0.2933
 6662SOL     OW26379   0.335   1.099   3.026  0.4014 -0.0673  0.5456
 6662SOL    HW226380   0.268   1.065   2.967  1.1995 -0.8225  0.0547
 6662SOL    HW326381   0.298   1.181   3.059 -0.2287  0.1720 -0.6857
 6662SOL    MW426382   0.321   1.105   3.023  0.1029  0.6315  0.1428
 6663SOL     OW26383   3.090   5.785   2.059  0.7710 -0.2027 -0.3687
 6663SOL    HW226384   3.046   5.870   2.065 -0.4301 -0.7919 -0.4928
 6663SOL    HW326385   3.102   5.771   1.966  0.2096 -0.5287 -0.3983
 6663SOL    MW426386   3.086   5.794   2.048  0.4276  0.7589 -0.0720
 6664SOL     OW26387   0.039   4.444   2.391 -0.0590  0.0891  0.0650
 6664SOL    HW226388  -0.033   4.464   2.331  0.1363  0.3903 -0.0731
 6664SOL    HW326389   0.014   4.488   2.473  0.5071  1.1785 -0.3240
 6664SOL    MW426390   0.026   4.453   2.394 -0.3671 -0.1165  0.2073
 6665SOL     OW26391   4.495   5.959   0.727 -0.2394 -0.1301 -0.6189
 6665SOL    HW226392   4.560   5.999   0.785 -1.4548 -1.3314  1.6969
 6665SOL    HW326393   4.535   5.876   0.701 -0.7563 -0.8527  0.7770
 6665SOL    MW426394   4.509   5.953   0.731 -0.0446  0.2137 -0.2751
 6666SOL     OW26395   0.218   0.768   1.972  0.2974 -0.3155  0.0647
 6666SOL    HW226396   0.169   0.723   2.041 -0.5323 -0.3557 -0.5302
 6666SOL    HW326397   0.223   0.859   2.002  0.7766 -0.5142  0.6172
 6666SOL    MW426398   0.212   0.774   1.985  0.1878 -0.2026  0.4581
 6667SOL     OW26399   5.281   2.413   2.716 -1.0037  0.1649  0.1774
 6667SOL    HW226400   5.321   2.350   2.775 -0.6852 -0.5625 -0.7891
 6667SOL    HW326401   5.334   2.493   2.727 -1.1962  0.1688  1.1444
 6667SOL    MW426402   5.293   2.416   2.725  0.9215  0.0433 -0.3731
 6668SOL     OW26403   3.852   5.196   2.952  0.5112  0.8569 -0.7463
 6668SOL    HW226404   3.888   5.284   2.967 -0.7608  1.2849 -0.0020
 6668SOL    HW326405   3.792   5.182   3.026  0.3420 -0.4503 -1.1053
 6668SOL    MW426406   3.849   5.206   2.964 -0.2368 -0.0102 -0.2454
 6669SOL     OW26407   0.431   4.277   5.993 -0.1980 -0.1989  0.0036
 6669SOL    HW226408   0.463   4.196   6.031 -0.7762 -0.0339  0.8722
 6669SOL    HW326409   0.379   4.250   5.917 -1.0754 -0.7058  0.7689
 6669SOL    MW426410   0.428   4.263   5.988 -0.9766 -0.3640 -0.6217
 6670SOL     OW26411   4.720   1.673   3.916  0.1808 -0.1296 -0.4291
 6670SOL    HW226412   4.736   1.724   3.995 -0.6548  1.0013 -0.9569
 6670SOL    HW326413   4.654   1.609   3.941  1.7119 -1.4621  0.4145
 6670SOL    MW426414   4.714   1.672   3.929 -0.2015 -0.0992 -0.3909
 6671SOL     OW26415   1.547   4.910   1.428  0.5775 -0.0377 -0.5511
 6671SOL    HW226416   1.475   4.965   1.398 -0.4591 -0.7377  0.5586
 6671SOL    HW326417   1.505   4.827   1.452  1.8287 -0.6241 -0.3346
 6671SOL    MW426418   1.532   4.906   1.427 -0.0843  0.4847  0.3900
 6672SOL     OW26419   6.188   5.407   2.808 -0.3391  0.1660  0.2529
 6672SOL    HW226420   6.220   5.483   2.856 -0.8419  0.1461  0.6272
 6672SOL    HW326421   6.093   5.408   2.822 -0.2498 -1.1273  1.1306
 6672SOL    MW426422   6.180   5.417   2.816  0.0722 -0.2591 -0.1631
 6673SOL     OW26423   0.819   2.071   0.777  0.4768  0.6467 -0.2466
 6673SOL    HW226424   0.768   1.991   0.764 -1.4304  1.6922  0.3411
 6673SOL    HW326425   0.841   2.069   0.871 -0.0031  1.0369 -0.1234
 6673SOL    MW426426   0.815   2.060   0.788  0.0151  0.5290 -0.4189
 6674SOL     OW26427   2.857   0.086   6.375  0.3180  0.1634  0.1371
 6674SOL    HW226428   2.937   0.133   6.398  0.2505 -0.7277  2.4324
 6674SOL    HW326429   2.889   0.008   6.329  0.7426  0.0296  0.6499
 6674SOL    MW426430   2.872   0.082   6.372  0.1628 -0.1268  0.0772
 6675SOL     OW26431   1.064   6.180   4.308  0.3337  0.4661  0.3855
 6675SOL    HW226432   1.020   6.260   4.280  0.6409  1.7593  3.2107
 6675SOL    HW326433   1.019   6.109   4.262 -1.8744  2.0564 -0.0264
 6675SOL    MW426434   1.052   6.181   4.298  0.3290 -0.0346 -0.4536
 6676SOL     OW26435   1.429   1.332   2.103 -0.0860  0.0678  0.3549
 6676SOL    HW226436   1.499   1.283   2.060  1.7196  1.0028  2.0631
 6676SOL    HW326437   1.354   1.274   2.102  0.8868 -1.2324 -0.9830
 6676SOL    MW426438   1.429   1.318   2.097 -0.3004 -0.5602 -0.0085
 6677SOL     OW26439   3.797   1.162   3.839 -0.2026  0.3482 -0.4454
 6677SOL    HW226440   3.835   1.169   3.752  0.5071  2.2243 -0.0388
 6677SOL    HW326441   3.873   1.165   3.898 -0.7517  0.4132  0.2732
 6677SOL    MW426442   3.812   1.163   3.836  0.1631  0.4144  0.5560
 6678SOL     OW26443   2.919   0.945   0.939  0.8632 -0.3211  0.1724
 6678SOL    HW226444   2.847   1.008   0.926  0.4388 -1.0688 -1.3757
 6678SOL    HW326445   2.887   0.886   1.007  0.6925  0.2925  0.6389
 6678SOL    MW426446   2.905   0.946   0.946  0.3728  0.0278 -0.0251
 6679SOL     OW26447   3.181   2.784   5.077  0.5529  0.2520  0.0151
 6679SOL    HW226448   3.105   2.745   5.120  1.1314 -0.5803  0.2991
 6679SOL    HW326449   3.220   2.712   5.027  2.8798 -0.1604  2.2514
 6679SOL    MW426450   3.176   2.769   5.076  0.4771  0.8218  0.0195
 6680SOL     OW26451   0.078   2.610   4.686  0.0449  0.0770  0.2349
 6680SOL    HW226452   0.068   2.563   4.769 -0.3430 -0.3476 -0.0427
 6680SOL    HW326453   0.164   2.652   4.692  0.5527 -0.9459  0.3643
 6680SOL    MW426454   0.088   2.609   4.697  0.8629  0.3955  0.6062
 6681SOL     OW26455   4.153   1.989   1.122 -0.3913  0.0935  0.6761
 6681SOL    HW226456   4.106   1.911   1.149  0.6497 -1.5486 -1.8455
 6681SOL    HW326457   4.223   1.999   1.186 -0.8622 -0.7229  1.3331
 6681SOL    MW426458   4.156   1.980   1.134 -0.3288  0.1612  0.1074
 6682SOL     OW26459   4.083   1.424   6.374 -0.0741 -0.5289  0.0326
 6682SOL    HW226460   4.033   1.349   6.340  0.0313 -0.7768  0.4199
 6682SOL    HW326461   4.109   1.473   6.296  2.0510 -2.2760 -0.4326
 6682SOL    MW426462   4.080   1.421   6.359 -0.1691 -0.0530  0.2969
 6683SOL     OW26463   0.372   1.162   2.148 -0.5426 -0.0221 -0.0322
 6683SOL    HW226464   0.419   1.246   2.145 -0.7712  0.1598  1.0108
 6683SOL    HW326465   0.439   1.098   2.173 -0.7599  0.1848  1.1348
 6683SOL    MW426466   0.387   1.165   2.151 -0.0624 -0.1293  0.8777
 6684SOL     OW26467   5.893   3.384   3.510 -0.3958  0.0537  0.1586
 6684SOL    HW226468   5.863   3.439   3.438  1.0922 -0.5069 -0.9366
 6684SOL    HW326469   5.889   3.295   3.476  0.2829 -0.2243  0.7713
 6684SOL    MW426470   5.889   3.380   3.496 -0.1701 -0.3088 -0.2012
 6685SOL     OW26471   5.711   3.803   1.283  0.0421  0.6075  0.0156
 6685SOL    HW226472   5.712   3.782   1.189 -0.1353  0.1703  0.1081
 6685SOL    HW326473   5.618   3.812   1.303 -0.0543 -1.2929  0.5788
 6685SOL    MW426474   5.699   3.801   1.273 -0.0759  0.1878  0.0580
 6686SOL     OW26475   6.144   3.191   3.912 -0.0043  0.0666  0.4016
 6686SOL    HW226476   6.157   3.282   3.884 -1.3708  0.1727  0.0351
 6686SOL    HW326477   6.157   3.194   4.007 -1.6626  1.0023  0.6337
 6686SOL    MW426478   6.148   3.203   3.921 -0.1320  0.0289  1.0248
 6687SOL     OW26479   3.231   0.647   2.916  0.1877  0.0854  0.5687
 6687SOL    HW226480   3.193   0.735   2.922 -1.5094 -0.6803  1.7880
 6687SOL    HW326481   3.284   0.639   2.996 -0.0304 -0.1689  0.6878
 6687SOL    MW426482   3.233   0.658   2.928  0.3048 -0.2276 -0.5112
 6688SOL     OW26483   0.956   2.823   1.102 -0.3155 -0.2655  0.0199
 6688SOL    HW226484   0.893   2.894   1.111 -1.8749 -1.6482  0.6008
 6688SOL    HW326485   0.905   2.744   1.120  1.5099 -1.4781  0.1097
 6688SOL    MW426486   0.941   2.822   1.106  0.2473 -0.1039  0.1237
 6689SOL     OW26487   0.222   4.335   5.170 -0.3326 -0.2131  0.6606
 6689SOL    HW226488   0.299   4.390   5.189 -1.0947  0.7605  0.9945
 6689SOL    HW326489   0.157   4.363   5.234 -1.3184 -0.2956 -0.2899
 6689SOL    MW426490   0.224   4.346   5.181 -0.2448 -0.2379 -0.1083
 6690SOL     OW26491   6.133   5.825   0.523 -0.3170 -0.7797 -0.3378
 6690SOL    HW226492   6.151   5.904   0.574 -1.6644 -0.0901 -0.9031
 6690SOL    HW326493   6.077   5.772   0.580 -0.5348 -0.7168 -0.4952
 6690SOL    MW426494   6.128   5.828   0.538 -0.4112 -0.1303 -0.1751
 6691SOL     OW26495   2.485   4.872   0.084 -0.1175  0.1581  0.0621
 6691SOL    HW226496   2.396   4.841   0.064  0.5162  0.0155 -3.1330
 6691SOL    HW326497   2.486   4.963   0.052  1.3539 -0.4602 -1.8947
 6691SOL    MW426498   2.473   4.880   0.077 -0.5021 -0.2254  0.4480
 6692SOL     OW26499   2.881   6.004   0.466 -0.3561 -0.1512  0.2731
 6692SOL    HW226500   2.888   6.052   0.548  2.9364  0.1903 -0.0680
 6692SOL    HW326501   2.907   6.067   0.399 -2.5658 -0.5409 -1.0593
 6692SOL    MW426502   2.885   6.018   0.468  0.3776 -0.5034  0.1159
 6693SOL     OW26503   3.292   5.841   0.119 -0.2730  0.2588  0.2907
 6693SOL    HW226504   3.331   5.928   0.126  0.0683  0.3398 -1.8661
 6693SOL    HW326505   3.319   5.795   0.199  1.3036  1.4506  0.4858
 6693SOL    MW426506   3.301   5.846   0.130 -0.0915  0.3697  0.0406
 6694SOL     OW26507   3.424   3.675   2.917 -0.3241 -0.0128 -0.0472
 6694SOL    HW226508   3.470   3.606   2.871 -0.9542  0.3589 -1.2708
 6694SOL    HW326509   3.492   3.735   2.946  0.0490  0.0516 -1.0199
 6694SOL    MW426510   3.439   3.674   2.915 -0.0192  0.4635  0.2754
 6695SOL     OW26511   3.458   2.428   5.717  0.0818 -0.0300 -0.8374
 6695SOL    HW226512   3.422   2.344   5.690 -1.1355  0.5329 -1.0464
 6695SOL    HW326513   3.478   2.473   5.634 -1.1323  0.6489 -0.7767
 6695SOL    MW426514   3.456   2.423   5.702 -0.4901 -0.2162  0.2485
 6696SOL     OW26515   1.031   1.646   3.000  0.0397 -0.1560  0.1132
 6696SOL    HW226516   1.077   1.723   3.034 -0.0292  0.5747 -1.3631
 6696SOL    HW326517   1.097   1.600   2.947 -0.7338  0.6400 -1.6326
 6696SOL    MW426518   1.046   1.650   2.997  1.2676 -0.1044 -0.5292
 6697SOL     OW26519   0.998   5.043   6.011  0.1493  0.0798  0.2468
 6697SOL    HW226520   1.073   5.102   6.014  1.5772 -1.5152 -1.6335
 6697SOL    HW326521   0.962   5.054   5.923 -0.0096 -1.2959  0.1234
 6697SOL    MW426522   1.003   5.053   6.000  0.1066  0.2998  0.0792
 6698SOL     OW26523   0.788   2.078   5.928  0.2621  0.0808  0.4551
 6698SOL    HW226524   0.741   2.037   6.000  0.2698 -0.1221  0.3456
 6698SOL    HW326525   0.722   2.089   5.859  0.2049  0.4651  0.5663
 6698SOL    MW426526   0.773   2.074   5.928 -0.1498  0.2759 -1.0562
 6699SOL     OW26527   3.517   4.467   5.220 -0.2226  0.1049 -0.2229
 6699SOL    HW226528   3.430   4.506   5.230  0.1758  0.7372  0.9317
 6699SOL    HW326529   3.502   4.373   5.231 -0.7680  0.1987 -0.1112
 6699SOL    MW426530   3.503   4.459   5.223 -0.7522 -0.0219  0.2790
 6700SOL     OW26531   2.980   3.400   4.070  0.3680  0.0187 -0.8825
 6700SOL    HW226532   2.916   3.329   4.060  0.0178  0.2863 -0.5689
 6700SOL    HW326533   2.954   3.465   4.003  1.1867 -0.5046 -1.7335
 6700SOL    MW426534   2.968   3.399   4.060 -0.0876 -0.0450 -0.4104
 6701SOL     OW26535   3.240   2.299   5.549 -0.1138  0.0398 -0.3075
 6701SOL    HW226536   3.263   2.207   5.562 -1.8163 -0.4523 -0.6292
 6701SOL    HW326537   3.190   2.323   5.627  1.0576  0.9808  0.1942
 6701SOL    MW426538   3.237   2.290   5.561  0.1702 -0.4241 -0.2019
 6702SOL     OW26539   3.452   5.642   6.406 -0.1414 -0.2726 -0.3258
 6702SOL    HW226540   3.405   5.560   6.425  0.1105 -0.3250  0.0681
 6702SOL    HW326541   3.389   5.711   6.426 -0.2147 -0.3570 -0.2629
 6702SOL    MW426542   3.438   5.640   6.411 -0.0674 -0.4458  0.1654
 6703SOL     OW26543   1.501   4.744   4.698 -0.0866 -0.7077  0.2086
 6703SOL    HW226544   1.543   4.761   4.614 -1.3694  1.9616 -0.0007
 6703SOL    HW326545   1.408   4.735   4.678 -0.2940 -1.0443  1.2356
 6703SOL    MW426546   1.494   4.745   4.684  1.1615  0.0335  0.0169
 6704SOL     OW26547   1.871   1.629   5.638 -0.0333 -0.7535 -0.4730
 6704SOL    HW226548   1.942   1.607   5.577  1.4377  1.5806  0.2657
 6704SOL    HW326549   1.815   1.689   5.589  0.1857 -0.2337 -0.0910
 6704SOL    MW426550   1.873   1.634   5.623 -0.0966 -0.0752 -0.0148
 6705SOL     OW26551   4.681   1.147   4.665  0.0207  0.2057  0.2052
 6705SOL    HW226552   4.737   1.197   4.725 -1.3375 -0.5969  2.2703
 6705SOL    HW326553   4.591   1.169   4.692 -0.6211 -1.5836 -0.3328
 6705SOL    MW426554   4.676   1.157   4.677  0.1063  0.0159  0.3037
 6706SOL     OW26555   4.446   4.458   3.575 -0.3422 -0.5559  0.0087
 6706SOL    HW226556   4.373   4.506   3.537 -0.9790 -1.5440 -0.0333
 6706SOL    HW326557   4.408   4.376   3.606  0.8988 -1.5059 -0.8686
 6706SOL    MW426558   4.432   4.453   3.574  0.9810  0.8606 -0.3456
 6707SOL     OW26559   0.624   5.941   1.640  0.2517 -0.2236  0.0147
 6707SOL    HW226560   0.674   5.891   1.705  2.2841  0.3624 -1.0268
 6707SOL    HW326561   0.543   5.892   1.630  1.2507 -2.0919  0.6299
 6707SOL    MW426562   0.620   5.928   1.648  0.2364 -0.7194  0.7486
 6708SOL     OW26563   4.766   1.437   1.663  0.0588  0.2579 -0.6889
 6708SOL    HW226564   4.737   1.428   1.572 -0.6761  0.1316 -0.4445
 6708SOL    HW326565   4.766   1.531   1.680 -0.1020  0.2633 -0.7217
 6708SOL    MW426566   4.762   1.448   1.653  0.2640  0.1781 -0.4032
 6709SOL     OW26567   4.599   3.449   5.355 -0.4044  0.1679  0.1913
 6709SOL    HW226568   4.536   3.378   5.369 -0.7795  0.4080 -0.2779
 6709SOL    HW326569   4.646   3.424   5.275 -1.5537  1.1607 -0.8444
 6709SOL    MW426570   4.597   3.436   5.346  0.1547 -0.6506 -0.9404
 6710SOL     OW26571   5.891   4.886   5.859  0.4494 -0.6238 -0.0687
 6710SOL    HW226572   5.862   4.903   5.769  0.3324 -1.4450 -0.1939
 6710SOL    HW326573   5.876   4.792   5.872 -1.0453 -0.2314  1.3606
 6710SOL    MW426574   5.885   4.875   5.849 -0.1912 -0.4442 -0.0447
 6711SOL     OW26575   1.768   0.682   0.250  0.4497  0.4251  0.3236
 6711SOL    HW226576   1.746   0.652   0.339 -0.6057 -0.5086 -0.2261
 6711SOL    HW326577   1.812   0.607   0.210  1.4461  1.0453  0.2220
 6711SOL    MW426578   1.771   0.668   0.257  0.6543 -0.1230  0.1490
 6712SOL     OW26579   3.054   0.656   5.389 -0.8056 -0.0755 -0.4858
 6712SOL    HW226580   3.119   0.642   5.459  0.8137  0.2596 -1.8679
 6712SOL    HW326581   2.982   0.701   5.433  0.5210  0.8927  0.8121
 6712SOL    MW426582   3.053   0.660   5.404  0.5384  0.4193  0.4334
 6713SOL     OW26583   4.691   1.703   3.324  0.3609 -0.2750  0.5118
 6713SOL    HW226584   4.643   1.668   3.399  1.2564 -2.5712  0.1100
 6713SOL    HW326585   4.704   1.795   3.344 -2.2327 -0.0823  1.6340
 6713SOL    MW426586   4.686   1.710   3.336  0.4175  0.4724 -0.1192
 6714SOL     OW26587   1.020   1.145   5.407  0.0626 -0.0785  0.8089
 6714SOL    HW226588   0.946   1.127   5.465 -1.2267 -1.0510 -1.0244
 6714SOL    HW326589   1.095   1.107   5.451 -0.9630 -1.2096  1.6377
 6714SOL    MW426590   1.020   1.137   5.420  0.1359  0.1319 -0.0108
 6715SOL     OW26591   0.168   0.555   0.423 -0.0711  0.1587 -0.2954
 6715SOL    HW226592   0.259   0.578   0.446 -0.4368  1.1580  0.2100
 6715SOL    HW326593   0.158   0.466   0.456  0.9151 -0.2020 -0.9142
 6715SOL    MW426594   0.179   0.546   0.431  0.4374  0.1594 -0.0394
 6716SOL     OW26595   2.497   3.509   4.521  0.8894  0.0681  0.3968
 6716SOL    HW226596   2.463   3.420   4.514  0.8872  0.1003 -0.0116
 6716SOL    HW326597   2.557   3.519   4.447 -0.0490  0.8078 -0.2993
 6716SOL    MW426598   2.500   3.499   4.510 -0.5005  0.3948 -0.3744
 6717SOL     OW26599   1.917   2.121   0.130 -0.0814 -0.4941 -0.2860
 6717SOL    HW226600   1.982   2.070   0.178  1.1398  0.6295 -0.6793
 6717SOL    HW326601   1.864   2.056   0.084  0.4741 -1.4536  0.4143
 6717SOL    MW426602   1.919   2.106   0.130  0.2543 -0.2272  0.2150
 6718SOL     OW26603   5.777   3.384   0.785  0.0381  0.1386  0.4483
 6718SOL    HW226604   5.704   3.323   0.771  0.2407  0.0145 -0.1094
 6718SOL    HW326605   5.770   3.408   0.877  0.9932 -2.1038  1.1807
 6718SOL    MW426606   5.766   3.379   0.795 -0.0324  0.4850 -0.2809
 6719SOL     OW26607   6.381   5.108   4.044 -0.2385 -0.0563  0.1185
 6719SOL    HW226608   6.317   5.038   4.036 -0.4795  0.2702 -0.8992
 6719SOL    HW326609   6.351   5.176   3.984  0.8574  0.2632 -0.0979
 6719SOL    MW426610   6.369   5.108   4.035 -0.4658 -0.2445 -0.3745
 6720SOL     OW26611   5.112   6.205   0.687 -0.3493  0.4302 -0.8659
 6720SOL    HW226612   5.054   6.188   0.761 -1.3997 -0.7991 -1.9160
 6720SOL    HW326613   5.123   6.120   0.645  0.3965  1.0566 -1.9931
 6720SOL    MW426614   5.106   6.192   0.691  0.4852 -0.6327  0.4135
 6721SOL     OW26615   1.841   2.020   5.235  0.3197  0.2564  0.6155
 6721SOL    HW226616   1.895   2.072   5.293  0.8765 -0.1942  0.5138
 6721SOL    HW326617   1.769   2.078   5.210  1.1666  1.1318  0.1354
 6721SOL    MW426618   1.839   2.034   5.239 -0.0363 -0.5086  0.6808
 6722SOL     OW26619   4.709   4.104   2.649  0.7145  0.4305 -0.1816
 6722SOL    HW226620   4.673   4.073   2.566 -0.5606 -0.9820  0.8359
 6722SOL    HW326621   4.668   4.190   2.663  0.8398  0.6173 -0.9241
 6722SOL    MW426622   4.699   4.112   2.640  0.0360  0.0397  0.5026
 6723SOL     OW26623   1.593   1.090   4.134  0.1790  0.4813  0.0045
 6723SOL    HW226624   1.532   1.157   4.102 -0.2041  0.0571 -0.1666
 6723SOL    HW326625   1.638   1.131   4.208  0.4872  1.1929 -0.5605
 6723SOL    MW426626   1.591   1.105   4.139  0.6021 -0.2275 -0.1325
 6724SOL     OW26627   3.870   2.287   1.191 -0.6688 -0.1244 -0.2839
 6724SOL    HW226628   3.789   2.257   1.150 -1.1041  1.9143 -1.0320
 6724SOL    HW326629   3.894   2.216   1.250 -2.3417 -1.3022 -0.9247
 6724SOL    MW426630   3.862   2.273   1.193  0.3296 -1.0034 -0.3066
 6725SOL     OW26631   3.752   5.038   6.404  0.5780  0.7558 -0.2238
 6725SOL    HW226632   3.747   5.021   6.499  0.3480  0.4202 -0.2922
 6725SOL    HW326633   3.771   4.953   6.366  2.0967  1.1375 -0.3830
 6725SOL    MW426634   3.754   5.025   6.412 -0.1889  0.5444  0.1809
 6726SOL     OW26635   2.720   2.294   1.734 -0.0639 -0.5384 -0.7676
 6726SOL    HW226636   2.723   2.202   1.763  0.7715  0.6203  3.4761
 6726SOL    HW326637   2.810   2.325   1.745 -0.8900  1.4984  0.8722
 6726SOL    MW426638   2.732   2.286   1.740 -0.5500  0.2001 -0.2365
 6727SOL     OW26639   3.935   1.011   5.354  0.5547  0.0458  0.3160
 6727SOL    HW226640   3.975   0.957   5.285  0.6607 -1.0422  1.2116
 6727SOL    HW326641   3.947   0.961   5.434 -1.0940  0.4969  0.8870
 6727SOL    MW426642   3.942   0.997   5.355  0.5775 -0.7386  0.1520
 6728SOL     OW26643   5.995   4.102   5.117 -0.0367 -0.3811  0.0879
 6728SOL    HW226644   5.935   4.174   5.134 -0.7210 -0.8682 -0.2128
 6728SOL    HW326645   5.955   4.053   5.045 -1.0710 -2.6720  2.0728
 6728SOL    MW426646   5.982   4.105   5.110  0.0503  0.1045 -0.2527
 6729SOL     OW26647   4.026   4.328   5.369  0.2503  0.3849  0.2734
 6729SOL    HW226648   3.972   4.364   5.439  1.5060 -0.0268  1.5105
 6729SOL    HW326649   4.026   4.396   5.301 -1.6668  0.4431  0.2756
 6729SOL    MW426650   4.019   4.342   5.369 -0.3716 -0.0514  0.6081
 6730SOL     OW26651   2.683   6.360   0.612  0.0227  0.2039 -0.2891
 6730SOL    HW226652   2.595   6.328   0.593  0.3236 -1.9939  1.5528
 6730SOL    HW326653   2.684   6.450   0.580 -2.1321 -0.4473 -2.4313
 6730SOL    MW426654   2.672   6.367   0.605 -0.3147  0.6321  0.7073
 6731SOL     OW26655   4.166   2.183   0.129 -0.6266  0.2263 -0.2122
 6731SOL    HW226656   4.223   2.192   0.052 -0.2644  1.4093  0.1621
 6731SOL    HW326657   4.219   2.134   0.192 -0.0929  1.1003  0.0417
 6731SOL    MW426658   4.181   2.178   0.127 -0.4012 -0.7630  0.2081
 6732SOL     OW26659   5.386   5.030   4.899 -0.8784  0.3661 -0.7500
 6732SOL    HW226660   5.426   4.945   4.918 -0.4250  0.6454 -0.4559
 6732SOL    HW326661   5.292   5.011   4.892 -1.0174  0.1513  1.2281
 6732SOL    MW426662   5.378   5.016   4.900 -0.2641 -0.6677 -0.5249
 6733SOL     OW26663   1.944   1.554   2.853  0.2201  0.0839  0.1312
 6733SOL    HW226664   2.011   1.486   2.856  0.3679  0.1475 -1.0429
 6733SOL    HW326665   1.921   1.561   2.760 -1.1693  0.3024  0.4602
 6733SOL    MW426666   1.950   1.546   2.841  0.1560  0.5282 -0.1487
 6734SOL     OW26667   2.351   5.496   1.242  0.2188 -0.6679  0.4285
 6734SOL    HW226668   2.401   5.555   1.299  1.8899  0.8419 -2.4154
 6734SOL    HW326669   2.417   5.445   1.196 -1.0101 -1.1159 -0.9018
 6734SOL    MW426670   2.366   5.497   1.244  0.2020 -0.5780 -0.3034
 6735SOL     OW26671   4.971   4.471   3.519 -0.5502  0.0685  0.1114
 6735SOL    HW226672   4.983   4.425   3.436 -0.4297 -0.7456  0.5671
 6735SOL    HW326673   4.881   4.451   3.546  0.2292 -1.9073  1.4723
 6735SOL    MW426674   4.960   4.463   3.512  0.3307  0.2387 -0.4830
 6736SOL     OW26675   1.283   1.949   3.373 -0.1138 -0.1112 -0.1438
 6736SOL    HW226676   1.280   1.898   3.454 -1.6011 -0.7490 -0.5470
 6736SOL    HW326677   1.197   1.934   3.333  0.3734  0.6600 -1.5491
 6736SOL    MW426678   1.271   1.940   3.378 -0.2528 -0.1442 -0.3671
 6737SOL     OW26679   4.507   5.538   6.074  0.6460 -0.4652  0.1608
 6737SOL    HW226680   4.550   5.511   5.993 -0.3207 -1.0933 -0.1604
 6737SOL    HW326681   4.465   5.622   6.052 -0.0018 -0.8599 -0.1356
 6737SOL    MW426682   4.507   5.546   6.060  0.1917  0.3538 -0.0051
 6738SOL     OW26683   0.572   4.086   6.116  0.0389  0.0816  0.2365
 6738SOL    HW226684   0.594   4.064   6.207  1.4737 -0.2734 -0.1593
 6738SOL    HW326685   0.593   4.006   6.067 -0.0216  0.5107 -0.5025
 6738SOL    MW426686   0.578   4.072   6.121  0.6758 -0.3895  0.0383
 6739SOL     OW26687   2.036   3.289   2.006  0.3071  0.6288 -0.3733
 6739SOL    HW226688   2.105   3.338   2.052 -0.3971  0.1205  1.3168
 6739SOL    HW326689   2.060   3.295   1.914  2.5334  0.6155  0.1413
 6739SOL    MW426690   2.048   3.296   2.000  0.1782  0.7728 -0.3135
 6740SOL     OW26691   3.612   1.153   3.370 -0.2916  0.0335 -0.1490
 6740SOL    HW226692   3.641   1.162   3.461 -0.6529  0.2052 -0.0485
 6740SOL    HW326693   3.518   1.172   3.372 -0.1529  0.8509 -0.6818
 6740SOL    MW426694   3.603   1.157   3.382 -0.3898  0.2134 -0.2555
 6741SOL     OW26695   1.071   4.827   1.394  0.5094  0.4036  0.4700
 6741SOL    HW226696   1.086   4.897   1.458  0.5499  0.6155  0.2322
 6741SOL    HW326697   1.150   4.828   1.339  0.0672  0.8579 -0.1692
 6741SOL    MW426698   1.083   4.837   1.395 -0.2094  0.8193 -0.3733
 6742SOL     OW26699   5.386   6.127   2.972 -0.0607 -0.2735 -0.9676
 6742SOL    HW226700   5.298   6.164   2.964 -0.3227 -1.0686 -1.9527
 6742SOL    HW326701   5.420   6.127   2.883  1.1783  0.5383 -0.5317
 6742SOL    MW426702   5.379   6.132   2.959  0.1221  0.8066  0.5480
 6743SOL     OW26703   0.340   3.716   4.655 -0.2759  0.7259 -0.7368
 6743SOL    HW226704   0.420   3.663   4.667 -0.9280 -0.0820  0.1714
 6743SOL    HW326705   0.360   3.799   4.698  0.2524  0.7147 -0.9468
 6743SOL    MW426706   0.353   3.720   4.662 -1.2751  0.6555 -0.5432
 6744SOL     OW26707   2.378   4.682   5.612  0.0895  0.1771 -0.5176
 6744SOL    HW226708   2.397   4.764   5.566 -1.1648  0.0736 -1.2807
 6744SOL    HW326709   2.285   4.665   5.593  0.1969 -1.1613  0.0314
 6744SOL    MW426710   2.368   4.691   5.603 -0.2049  0.1619 -0.3542
 6745SOL     OW26711   5.377   1.674   3.575  0.1147  0.1432 -0.8127
 6745SOL    HW226712   5.314   1.727   3.624  0.1036 -0.5339 -0.0831
 6745SOL    HW326713   5.343   1.585   3.580  0.5012 -0.0460 -1.4316
 6745SOL    MW426714   5.364   1.669   3.582  0.1062  0.1084  0.1735
 6746SOL     OW26715   0.320   5.101   6.303  0.1888  0.1327 -0.1673
 6746SOL    HW226716   0.357   5.015   6.325 -0.4414  0.1046  0.8472
 6746SOL    HW326717   0.293   5.138   6.388  0.2288  1.2297 -0.6195
 6746SOL    MW426718   0.322   5.094   6.317 -0.5516  0.6667  0.0303
 6747SOL     OW26719   5.985   1.864   0.120  0.2457 -0.0770  0.3661
 6747SOL    HW226720   5.919   1.803   0.154 -0.2489  0.0010 -0.4155
 6747SOL    HW326721   5.953   1.950   0.144  1.4630 -0.1317  2.3685
 6747SOL    MW426722   5.972   1.867   0.127  0.2363  0.1460  0.2241
 6748SOL     OW26723   2.628   1.216   5.877 -0.1594 -0.4077  0.0087
 6748SOL    HW226724   2.663   1.192   5.791 -0.5040 -1.4049  0.1374
 6748SOL    HW326725   2.583   1.299   5.862  0.1800 -0.3410 -0.6744
 6748SOL    MW426726   2.627   1.224   5.863 -0.0249  0.3109 -0.1477
 6749SOL     OW26727   2.800   4.514   5.944 -0.1597  0.2214 -0.3526
 6749SOL    HW226728   2.789   4.526   6.039 -2.2610 -0.6447 -0.4369
 6749SOL    HW326729   2.833   4.599   5.914  0.6073  0.5002  1.1423
 6749SOL    MW426730   2.803   4.527   5.953 -0.5680  0.2882 -0.7894
 6750SOL     OW26731   3.158   3.520   2.043  0.2773 -0.2803 -0.1757
 6750SOL    HW226732   3.103   3.529   2.120  1.0715  1.8233  0.2231
 6750SOL    HW326733   3.110   3.460   1.985 -0.2187 -2.0946  1.9945
 6750SOL    MW426734   3.144   3.513   2.045 -0.1978 -0.2207  0.1208
 6751SOL     OW26735   6.032   0.407   4.722  0.0990 -0.1289  0.2010
 6751SOL    HW226736   6.071   0.327   4.759  0.5676 -1.0100 -2.0675
 6751SOL    HW326737   5.942   0.383   4.702 -0.0654  0.2478  0.4810
 6751SOL    MW426738   6.026   0.393   4.725 -0.3889  0.1200 -0.3357
 6752SOL     OW26739   0.571   6.318   2.800 -0.0349  0.6578 -0.0042
 6752SOL    HW226740   0.494   6.264   2.779  0.5625 -0.6214  0.9303
 6752SOL    HW326741   0.592   6.362   2.718 -0.2329 -0.9915 -1.0019
 6752SOL    MW426742   0.563   6.317   2.786 -0.1577 -0.1420 -0.4499
 6753SOL     OW26743   4.709   1.744   0.937  0.4833  0.5009 -0.0438
 6753SOL    HW226744   4.689   1.707   0.851 -0.6401 -0.1963  0.4968
 6753SOL    HW326745   4.802   1.767   0.932  0.5702 -0.0343 -1.2549
 6753SOL    MW426746   4.719   1.742   0.925 -0.4306 -0.8838  0.3748
 6754SOL     OW26747   1.295   2.700   1.488 -0.1373  0.1243  0.2852
 6754SOL    HW226748   1.270   2.612   1.516  0.5044 -0.7669 -1.7698
 6754SOL    HW326749   1.309   2.748   1.569  0.9496 -2.0761  1.4813
 6754SOL    MW426750   1.293   2.695   1.502 -0.3929 -0.4092  0.2409
 6755SOL     OW26751   2.990   3.011   2.100  0.1105 -0.0952 -0.0787
 6755SOL    HW226752   3.053   3.049   2.160 -1.4068  0.7691  1.0427
 6755SOL    HW326753   2.979   2.920   2.130  0.6920 -0.2068 -0.1956
 6755SOL    MW426754   2.997   3.004   2.112 -0.2588 -0.0321 -0.0289
 6756SOL     OW26755   5.439   1.197   0.988 -0.2296  0.2925  0.6534
 6756SOL    HW226756   5.477   1.274   0.946 -0.2920  0.8140  1.5280
 6756SOL    HW326757   5.345   1.212   0.987 -0.5213 -1.0974 -1.6974
 6756SOL    MW426758   5.432   1.209   0.982  0.2328  0.0011 -0.5230
 6757SOL     OW26759   2.507   2.821   4.703  0.5173  0.7420  0.6974
 6757SOL    HW226760   2.446   2.811   4.630  0.2317 -0.9128  1.1294
 6757SOL    HW326761   2.511   2.735   4.744  1.2831  1.4287  2.1676
 6757SOL    MW426762   2.500   2.809   4.699  0.2924 -0.6703 -0.3850
 6758SOL     OW26763   0.092   0.538   2.616  0.2418  0.4490  0.1605
 6758SOL    HW226764   0.102   0.569   2.706  1.1876  0.1119  0.1773
 6758SOL    HW326765   0.112   0.444   2.621 -2.5136 -0.2333  0.1114
 6758SOL    MW426766   0.096   0.530   2.628  0.5121 -0.0644 -0.2958
 6759SOL     OW26767   0.661   4.661   0.874 -0.2047 -0.4977 -0.2781
 6759SOL    HW226768   0.698   4.748   0.858  1.9759 -1.1312  0.9490
 6759SOL    HW326769   0.607   4.644   0.797 -0.6062  1.8679 -0.6062
 6759SOL    MW426770   0.659   4.671   0.862 -0.6796  0.0380  0.0582
 6760SOL     OW26771   5.342   0.362   2.746  0.2982 -0.5612 -0.3997
 6760SOL    HW226772   5.313   0.328   2.830 -0.1726  0.0062 -0.3223
 6760SOL    HW326773   5.365   0.454   2.764 -0.2807 -0.2941 -0.9795
 6760SOL    MW426774   5.341   0.370   2.759 -0.4620  0.0130 -0.2916
 6761SOL     OW26775   3.308   4.978   5.950 -0.0149  0.3966  0.2704
 6761SOL    HW226776   3.325   5.072   5.943 -0.8771  0.6840  1.5836
 6761SOL    HW326777   3.383   4.945   6.000 -1.3915  1.0726  3.0217
 6761SOL    MW426778   3.320   4.986   5.956 -0.4247 -0.7437 -0.4722
 6762SOL     OW26779   2.185   0.967   4.506  0.1948 -0.1085  0.1389
 6762SOL    HW226780   2.223   0.982   4.419  0.6820 -0.6251  0.2612
 6762SOL    HW326781   2.168   1.055   4.540 -0.3272  0.0950 -0.6176
 6762SOL    MW426782   2.187   0.981   4.499  0.0717  0.3431  0.0169
 6763SOL     OW26783   0.364   5.988   5.972 -0.1964 -0.1952 -0.0937
 6763SOL    HW226784   0.417   5.909   5.983 -1.3222 -0.9664 -0.1418
 6763SOL    HW326785   0.324   6.003   6.057 -0.1176  0.2359 -0.1287
 6763SOL    MW426786   0.366   5.980   5.984 -0.2274 -0.1345  0.1350
 6764SOL     OW26787   4.965   1.073   5.865  0.1242 -0.0483  0.2338
 6764SOL    HW226788   4.927   0.987   5.879 -1.6080  0.5953 -0.3348
 6764SOL    HW326789   4.897   1.135   5.890  1.2634  1.1819  0.4403
 6764SOL    MW426790   4.951   1.070   5.870 -0.1275  0.0102  0.4462
 6765SOL     OW26791   2.636   5.584   4.396 -0.4125  0.0562 -0.4942
 6765SOL    HW226792   2.642   5.600   4.491  0.4846  0.0308 -0.5417
 6765SOL    HW326793   2.544   5.600   4.376 -0.1176  2.8517 -0.0979
 6765SOL    MW426794   2.624   5.588   4.406 -0.5763  0.3943 -0.1471
 6766SOL     OW26795   2.694   1.034   2.890  0.1997 -0.2866 -0.2667
 6766SOL    HW226796   2.736   1.116   2.916  0.6921 -0.2663 -1.0931
 6766SOL    HW326797   2.602   1.059   2.875  0.2824  0.0521 -0.2233
 6766SOL    MW426798   2.687   1.048   2.891 -0.1209  0.6594 -0.4361
 6767SOL     OW26799   3.894   3.821   3.970 -0.0867 -0.3300  0.0710
 6767SOL    HW226800   3.920   3.779   3.888  0.1978  1.0752 -0.5723
 6767SOL    HW326801   3.959   3.889   3.985  0.1270 -0.8397  1.7185
 6767SOL    MW426802   3.906   3.824   3.961 -0.0408  0.3628  0.0692
 6768SOL     OW26803   0.932   5.725   0.471 -0.0246  0.1085  0.6389
 6768SOL    HW226804   1.020   5.743   0.505  0.2378 -1.5974  0.9616
 6768SOL    HW326805   0.885   5.686   0.545 -0.5850 -0.3373  0.0587
 6768SOL    MW426806   0.937   5.722   0.485  0.1912  0.1824 -0.4761
 6769SOL     OW26807   5.046   3.388   4.896 -0.1645  0.3501 -0.2932
 6769SOL    HW226808   5.077   3.424   4.813  1.4386 -1.1254 -0.4023
 6769SOL    HW326809   5.094   3.305   4.905  0.9918  1.2321  2.8794
 6769SOL    MW426810   5.057   3.382   4.886  1.0776  0.4864  0.0816
 6770SOL     OW26811   6.293   2.344   4.414  0.1528 -0.4048 -0.2146
 6770SOL    HW226812   6.374   2.321   4.458  0.6201 -1.7697 -1.6943
 6770SOL    HW326813   6.290   2.440   4.416  0.2879 -0.3925  2.4355
 6770SOL    MW426814   6.303   2.354   4.420  0.2389  0.5246 -0.1765
 6771SOL     OW26815   2.786   2.649   0.959  0.0486  0.2344 -0.2103
 6771SOL    HW226816   2.870   2.695   0.965 -0.5269  1.2407  0.4561
 6771SOL    HW326817   2.803   2.562   0.996  0.2675  1.2164  2.2057
 6771SOL    MW426818   2.799   2.644   0.965  1.0059  0.4029  0.0647
 6772SOL     OW26819   1.279   5.615   3.008  0.2812  0.6615 -0.2771
 6772SOL    HW226820   1.314   5.577   3.088  2.3678 -0.6340 -1.6963
 6772SOL    HW326821   1.261   5.540   2.951 -2.2546  1.4754 -0.6511
 6772SOL    MW426822   1.282   5.600   3.011 -0.5213 -0.3577 -0.1657
 6773SOL     OW26823   1.028   5.340   3.840 -0.1313  0.3203  0.1468
 6773SOL    HW226824   1.031   5.248   3.814 -2.3338  0.3321 -0.3236
 6773SOL    HW326825   1.050   5.388   3.760 -1.0180  0.2363 -0.1529
 6773SOL    MW426826   1.032   5.334   3.826 -0.3477 -0.1749  0.0697
 6774SOL     OW26827   5.940   1.429   6.215 -0.0337 -0.3053 -0.0069
 6774SOL    HW226828   5.935   1.491   6.142 -0.3871 -0.0530  0.2259
 6774SOL    HW326829   6.016   1.459   6.266 -1.0164  0.8055  0.8672
 6774SOL    MW426830   5.950   1.441   6.212  0.1144  0.2613 -0.6315
 6775SOL     OW26831   6.174   0.465   3.117 -0.0989 -0.5119 -0.0977
 6775SOL    HW226832   6.145   0.492   3.030 -1.1997 -1.2943 -0.0011
 6775SOL    HW326833   6.143   0.534   3.176  0.1716 -0.2482 -0.2672
 6775SOL    MW426834   6.166   0.477   3.113  0.2499 -0.6506 -0.5303
 6776SOL     OW26835   2.087   0.268   4.377  0.0139 -0.5012 -0.6478
 6776SOL    HW226836   2.170   0.311   4.399 -0.2212  0.0015 -0.7293
 6776SOL    HW326837   2.079   0.280   4.282 -0.6188  0.3070 -0.5050
 6776SOL    MW426838   2.097   0.275   4.367 -0.3760 -0.1445 -0.0572
 6777SOL     OW26839   6.097   2.570   4.895  0.0706 -0.0699 -0.2463
 6777SOL    HW226840   6.137   2.626   4.828  0.1928 -0.9269 -0.9019
 6777SOL    HW326841   6.005   2.567   4.872  0.4766 -2.3726 -1.9094
 6777SOL    MW426842   6.090   2.577   4.883 -0.0356  0.4921  0.5298
 6778SOL     OW26843   1.278   6.368   5.660 -0.6399  0.1813  0.1791
 6778SOL    HW226844   1.235   6.308   5.721 -0.3767 -0.8519 -0.6455
 6778SOL    HW326845   1.334   6.422   5.716 -0.5437 -0.6316  0.8851
 6778SOL    MW426846   1.280   6.367   5.676  0.3481  0.2161  0.7056
 6779SOL     OW26847   0.321   2.716   1.791 -0.4282  0.0035 -0.2611
 6779SOL    HW226848   0.416   2.724   1.796 -0.4509 -0.3066  0.8132
 6779SOL    HW326849   0.288   2.778   1.856 -0.8674 -1.7543  1.2679
 6779SOL    MW426850   0.329   2.725   1.800 -0.5196  0.1884  0.5811
 6780SOL     OW26851   4.554   2.073   0.078  0.1371 -0.2156 -0.2353
 6780SOL    HW226852   4.615   2.095   0.007  0.3945 -0.5996 -0.1315
 6780SOL    HW326853   4.610   2.052   0.152 -0.1346  0.3958  0.1540
 6780SOL    MW426854   4.569   2.073   0.078 -0.3478 -0.4499 -0.2367
 6781SOL     OW26855   0.602   4.152   0.887  0.4693  0.1081  0.1211
 6781SOL    HW226856   0.535   4.201   0.934  1.1404  0.3828  0.8269
 6781SOL    HW326857   0.560   4.124   0.806 -0.8754 -0.7842  1.0796
 6781SOL    MW426858   0.588   4.155   0.882  0.3689  0.2983  0.1782
 6782SOL     OW26859   4.161   3.661   3.844  0.2187 -0.1442  0.3703
 6782SOL    HW226860   4.080   3.610   3.853  0.1109  0.2583  1.8660
 6782SOL    HW326861   4.231   3.600   3.869  0.0809  0.4115  2.2652
 6782SOL    MW426862   4.160   3.646   3.848 -0.1459  0.1235 -0.6469
 6783SOL     OW26863   0.954   0.398   6.367 -0.0867 -0.2269  0.1644
 6783SOL    HW226864   0.968   0.306   6.386  1.5106 -0.0858 -0.1202
 6783SOL    HW326865   0.956   0.441   6.452  1.0960 -0.2675  0.1832
 6783SOL    MW426866   0.956   0.392   6.381  0.6584 -0.0513  0.2035
 6784SOL     OW26867   3.331   0.907   5.491 -0.2733 -0.0299  0.1923
 6784SOL    HW226868   3.347   0.874   5.403  0.3122 -1.2737  0.7340
 6784SOL    HW326869   3.355   0.999   5.488  0.1529 -0.1682 -0.8329
 6784SOL    MW426870   3.336   0.915   5.479  0.6261 -0.7259 -1.0659
 6785SOL     OW26871   1.999   2.310   4.755 -0.4261 -0.1790  0.2950
 6785SOL    HW226872   1.967   2.330   4.667 -0.8969  0.3418  0.5763
 6785SOL    HW326873   2.091   2.288   4.743 -0.7312 -1.0803 -0.4477
 6785SOL    MW426874   2.007   2.310   4.742  0.0232  0.1804 -0.7002
 6786SOL     OW26875   4.777   4.849   2.094  0.0015  0.3649  0.4109
 6786SOL    HW226876   4.869   4.829   2.110 -0.5084 -1.9633  0.7596
 6786SOL    HW326877   4.748   4.781   2.033 -1.4452  1.1851  0.1430
 6786SOL    MW426878   4.786   4.838   2.088  0.0368  0.3264  0.2467
 6787SOL     OW26879   3.957   5.861   5.945  0.0655 -0.1174 -0.3248
 6787SOL    HW226880   3.908   5.809   6.008  0.9467 -1.8355 -1.0082
 6787SOL    HW326881   3.954   5.810   5.864  1.1012  0.8148 -0.9775
 6787SOL    MW426882   3.950   5.848   5.943  0.4441 -0.2891 -0.1507
 6788SOL     OW26883   4.153   1.316   1.733  0.2930  0.9967  0.2140
 6788SOL    HW226884   4.239   1.274   1.728 -0.4724 -0.4980 -2.3462
 6788SOL    HW326885   4.092   1.243   1.748 -0.6819  1.7714  0.1291
 6788SOL    MW426886   4.156   1.301   1.734 -0.1977 -0.5108  0.2074
 6789SOL     OW26887   3.295   1.370   5.749 -0.2256  0.2166 -0.1314
 6789SOL    HW226888   3.358   1.406   5.686 -1.1235  0.1127 -1.1194
 6789SOL    HW326889   3.270   1.445   5.803 -0.5330  0.6317 -0.8403
 6789SOL    MW426890   3.300   1.385   5.748  0.7919 -0.0113  0.0230
 6790SOL     OW26891   6.411   3.692   5.600  0.4714 -0.5503  0.2344
 6790SOL    HW226892   6.420   3.692   5.505  2.2559 -0.0677  0.3744
 6790SOL    HW326893   6.318   3.712   5.615  0.1827 -0.5320 -1.3856
 6790SOL    MW426894   6.400   3.695   5.590  0.0371 -0.1879 -0.2260
 6791SOL     OW26895   2.430   2.403   5.718 -0.6160  0.0519  0.6930
 6791SOL    HW226896   2.386   2.458   5.783 -1.7684  0.0580 -0.0638
 6791SOL    HW326897   2.381   2.321   5.720 -0.3043 -0.1430  0.2378
 6791SOL    MW426898   2.417   2.400   5.727  0.2601  0.6465 -0.2664
 6792SOL     OW26899   0.351   2.058   3.823  0.2679  0.1417  0.3097
 6792SOL    HW226900   0.401   2.031   3.899  0.1173  1.2287  0.8072
 6792SOL    HW326901   0.360   1.985   3.761  1.5351 -0.1570  0.8144
 6792SOL    MW426902   0.359   2.045   3.825 -0.6746 -0.1539 -0.5804
 6793SOL     OW26903   2.945   5.588   4.520 -0.0087 -0.7904 -0.3450
 6793SOL    HW226904   2.923   5.525   4.452 -0.1085 -0.4396 -0.6388
 6793SOL    HW326905   2.959   5.670   4.473 -2.3174  0.0252  0.2541
 6793SOL    MW426906   2.944   5.591   4.505 -0.3021  0.2117 -0.0908
 6794SOL     OW26907   1.847   0.446   4.649 -0.5507 -0.4642  0.2693
 6794SOL    HW226908   1.802   0.418   4.569 -0.4684 -1.4275  0.5508
 6794SOL    HW326909   1.933   0.406   4.643  0.5935  1.9133 -0.5969
 6794SOL    MW426910   1.852   0.437   4.637 -0.0511 -0.3617 -0.5978
 6795SOL     OW26911   6.015   2.577   3.555  0.2017  0.4287  0.1753
 6795SOL    HW226912   5.923   2.595   3.575 -0.1439 -1.3366  0.3215
 6795SOL    HW326913   6.021   2.587   3.460 -0.5337 -0.9679 -0.0398
 6795SOL    MW426914   6.004   2.581   3.545  0.2286 -0.0516  0.0666
 6796SOL     OW26915   4.640   2.711   3.032  0.1759  0.5123  0.2461
 6796SOL    HW226916   4.660   2.790   2.982  1.8348 -0.1901 -0.2424
 6796SOL    HW326917   4.651   2.738   3.124  2.2328  0.5108  0.0488
 6796SOL    MW426918   4.644   2.725   3.038  0.4623 -0.4113 -0.1390
 6797SOL     OW26919   3.544   4.187   5.535  0.0069 -0.3205 -0.2063
 6797SOL    HW226920   3.490   4.124   5.583 -1.0667  0.9738  0.3343
 6797SOL    HW326921   3.634   4.160   5.553 -0.4139 -1.2979  0.5517
 6797SOL    MW426922   3.549   4.175   5.544  1.0014 -0.2146 -0.5785
 6798SOL     OW26923   4.374   2.214   4.819  0.4886  0.4664  0.4047
 6798SOL    HW226924   4.279   2.224   4.827  0.2472 -0.7110 -0.6547
 6798SOL    HW326925   4.409   2.266   4.891 -1.0163 -0.4459  1.8793
 6798SOL    MW426926   4.366   2.222   4.829 -0.6159 -0.0517 -0.6356
 6799SOL     OW26927   1.293   3.131   1.842 -1.1419 -0.7863 -0.3875
 6799SOL    HW226928   1.218   3.077   1.869 -0.9239 -1.4567 -1.0684
 6799SOL    HW326929   1.320   3.093   1.758  0.2261 -0.8405  0.0466
 6799SOL    MW426930   1.287   3.119   1.834 -0.1406 -0.3797  0.0632
 6800SOL     OW26931   6.270   0.406   2.589  0.2118 -0.2727  0.0428
 6800SOL    HW226932   6.335   0.476   2.591 -0.7336  0.6012  0.4677
 6800SOL    HW326933   6.192   0.445   2.551  0.1890 -1.5707 -1.3611
 6800SOL    MW426934   6.269   0.420   2.584  0.0964 -0.8475  0.1021
 6801SOL     OW26935   5.574   2.322   5.434  0.2554  0.1444  0.2861
 6801SOL    HW226936   5.613   2.240   5.405 -1.0883  0.1123 -1.6122
 6801SOL    HW326937   5.617   2.341   5.518  1.3858 -1.8959  0.2293
 6801SOL    MW426938   5.585   2.314   5.441  0.0430  0.0534  0.3222
 6802SOL     OW26939   1.344   0.517   4.738  0.1149  0.2182 -0.6229
 6802SOL    HW226940   1.436   0.495   4.753  0.2031 -0.0306 -1.4778
 6802SOL    HW326941   1.297   0.474   4.809  0.4451 -1.5222 -1.3963
 6802SOL    MW426942   1.350   0.508   4.749 -0.0938  0.2335 -0.3994
 6803SOL     OW26943   4.864   3.264   0.150  0.0114 -0.0497 -0.4215
 6803SOL    HW226944   4.850   3.351   0.188  2.1875  1.6235 -3.0304
 6803SOL    HW326945   4.949   3.237   0.183  0.1148 -0.3891 -0.9547
 6803SOL    MW426946   4.873   3.272   0.159  0.2711  0.4884 -0.5331
 6804SOL     OW26947   0.770   5.887   0.749 -0.0858  0.4553 -0.0495
 6804SOL    HW226948   0.772   5.962   0.689  1.0272  1.4706  1.1749
 6804SOL    HW326949   0.860   5.880   0.781  0.0277 -1.9474 -0.7201
 6804SOL    MW426950   0.782   5.896   0.745  0.0561 -0.2418 -0.1687
 6805SOL     OW26951   2.055   1.412   0.032  0.1896  0.4442 -0.6771
 6805SOL    HW226952   2.137   1.368   0.009 -0.6247 -1.4315 -0.2136
 6805SOL    HW326953   1.990   1.373  -0.026 -0.7364  0.3576  0.3859
 6805SOL    MW426954   2.057   1.401   0.021 -0.5678  0.7124 -0.6922
 6806SOL     OW26955   0.520   4.855   1.985 -0.4294 -0.8085  0.7049
 6806SOL    HW226956   0.466   4.919   1.939  2.6412  1.4010 -0.1786
 6806SOL    HW326957   0.460   4.812   2.046 -3.0226  1.7678  0.1957
 6806SOL    MW426958   0.505   4.858   1.987 -0.3989  0.0961 -0.1020
 6807SOL     OW26959   6.160   5.718   4.770 -0.2520  0.0785  0.1306
 6807SOL    HW226960   6.184   5.808   4.747  0.2450 -0.7173 -2.8403
 6807SOL    HW326961   6.243   5.673   4.780 -0.4956 -0.0174  2.0184
 6807SOL    MW426962   6.174   5.724   4.768 -0.2735  0.2740  0.8926
 6808SOL     OW26963   1.843   5.025   3.129  0.2179  0.4864 -0.7949
 6808SOL    HW226964   1.878   4.992   3.212  1.9597 -1.6953 -2.2396
 6808SOL    HW326965   1.866   5.117   3.128  1.3103  0.2721  0.6088
 6808SOL    MW426966   1.851   5.033   3.140  0.8806 -0.8346  0.4547
 6809SOL     OW26967   2.080   1.067   1.593 -0.6245  0.5671 -0.2256
 6809SOL    HW226968   1.999   1.117   1.581 -1.9137 -0.6791  2.4167
 6809SOL    HW326969   2.096   1.070   1.688  2.0761  0.1866 -0.5999
 6809SOL    MW426970   2.071   1.074   1.604  0.0467 -0.0413 -0.6437
 6810SOL     OW26971   4.744   5.665   3.326 -0.0816  0.1040 -0.4137
 6810SOL    HW226972   4.706   5.719   3.394 -0.6154  1.1198 -1.4785
 6810SOL    HW326973   4.724   5.575   3.352 -1.1552  0.5178  0.2372
 6810SOL    MW426974   4.737   5.660   3.338 -0.1296 -0.0063  0.3184
 6811SOL     OW26975   0.101   0.061   3.916 -0.2536 -0.0985 -0.1730
 6811SOL    HW226976   0.193   0.065   3.943 -0.2159  1.3366 -0.4434
 6811SOL    HW326977   0.083   0.148   3.880 -1.9671 -0.0902  0.6485
 6811SOL    MW426978   0.111   0.073   3.915 -0.1959 -0.2009 -0.2819
 6812SOL     OW26979   0.735   3.253   4.402  0.3989 -0.4061 -0.3734
 6812SOL    HW226980   0.650   3.211   4.391  0.2370 -0.7565  1.6823
 6812SOL    HW326981   0.772   3.258   4.314 -1.3771 -1.0187 -1.1938
 6812SOL    MW426982   0.729   3.248   4.389  0.1442  0.2296  0.0161
 6813SOL     OW26983   2.974   3.595   3.872  0.0372 -0.7628 -0.0089
 6813SOL    HW226984   2.903   3.609   3.809  0.0600 -0.8987 -0.0653
 6813SOL    HW326985   2.997   3.683   3.902  0.6644 -0.6245 -0.8799
 6813SOL    MW426986   2.968   3.608   3.868 -0.7547 -0.3871  0.1024
 6814SOL     OW26987   2.785   1.287   2.958  0.1130  0.5956 -0.7539
 6814SOL    HW226988   2.723   1.304   3.028 -0.2652  0.1200 -0.9640
 6814SOL    HW326989   2.862   1.338   2.981  0.5679 -0.6987  0.8106
 6814SOL    MW426990   2.787   1.296   2.970 -0.0050  0.4003 -0.2760
 6815SOL     OW26991   2.774   6.062   1.891  0.2720  0.0658 -0.5087
 6815SOL    HW226992   2.712   5.991   1.870 -1.4493  1.1715  0.5638
 6815SOL    HW326993   2.732   6.109   1.963  2.1192  1.2552 -0.1627
 6815SOL    MW426994   2.760   6.059   1.898 -0.8705  0.7248 -0.0436
 6816SOL     OW26995   1.895   6.344   4.231  0.1324 -0.2585  0.4876
 6816SOL    HW226996   1.845   6.332   4.312  0.0885 -0.3618  0.4461
 6816SOL    HW326997   1.886   6.437   4.211 -1.6866 -0.6156 -0.5648
 6816SOL    MW426998   1.887   6.355   4.239  0.0673 -0.1323 -0.1546
 6817SOL     OW26999   5.282   5.506   5.848 -0.1494 -0.0542 -0.2469
 6817SOL    HW227000   5.376   5.497   5.839 -0.0388 -0.6020  1.2657
 6817SOL    HW327001   5.253   5.539   5.763  1.4563  0.6242 -0.5594
 6817SOL    MW427002   5.290   5.509   5.835  0.5209 -0.2638  0.9443
 6818SOL     OW27003   1.290   6.151   0.990 -0.7841  0.0018  0.0433
 6818SOL    HW227004   1.351   6.172   0.919 -1.5504  1.9979 -0.0777
 6818SOL    HW327005   1.336   6.084   1.042  0.6135 -0.0562 -1.2066
 6818SOL    MW427006   1.304   6.145   0.988 -1.0700 -0.2828 -0.5978
 6819SOL     OW27007   5.498   6.237   6.369  0.4171 -0.0883 -0.5923
 6819SOL    HW227008   5.441   6.169   6.336  1.8979 -1.6048 -0.1625
 6819SOL    HW327009   5.448   6.318   6.358 -1.8082 -1.3311 -0.1642
 6819SOL    MW427010   5.484   6.239   6.363  0.2987 -0.1736  0.3068
 6820SOL     OW27011   4.945   1.321   3.386  0.0276 -0.1212  0.5602
 6820SOL    HW227012   4.932   1.231   3.355 -1.1647 -0.2461  1.3139
 6820SOL    HW327013   4.897   1.375   3.324  1.9284  0.1837 -0.7249
 6820SOL    MW427014   4.937   1.316   3.374 -0.5875 -0.1768 -0.2367
 6821SOL     OW27015   3.162   2.864   0.638  0.2654  0.4214  0.0364
 6821SOL    HW227016   3.190   2.847   0.548  1.1671  1.3772  0.1208
 6821SOL    HW327017   3.227   2.820   0.693  0.4346  0.8949  0.2221
 6821SOL    MW427018   3.174   2.856   0.634 -0.2116 -0.5948  0.5168
 6822SOL     OW27019   2.803   4.112   2.360 -0.1466  0.1508 -0.2926
 6822SOL    HW227020   2.849   4.034   2.389  0.1542 -0.4191 -2.1962
 6822SOL    HW327021   2.870   4.165   2.316 -0.5941  0.9510 -0.0434
 6822SOL    MW427022   2.818   4.109   2.358  0.3797 -0.5078 -0.1200
 6823SOL     OW27023   6.264   4.857   5.098  0.1179  0.2537  0.1081
 6823SOL    HW227024   6.257   4.842   5.004 -1.8523 -1.6067  0.4741
 6823SOL    HW327025   6.194   4.919   5.118 -0.1609 -0.1720  0.4844
 6823SOL    MW427026   6.254   4.863   5.088 -0.1807 -0.2186 -0.0356
 6824SOL     OW27027   2.634   0.575   0.749  0.4457  0.0383 -0.2554
 6824SOL    HW227028   2.647   0.533   0.834  0.2426  1.5243  0.5417
 6824SOL    HW327029   2.551   0.622   0.757  2.2276  3.4469  0.1818
 6824SOL    MW427030   2.625   0.576   0.761  0.2082  0.3557  0.1777
 6825SOL     OW27031   5.280   0.840   5.156 -0.3780  0.3538 -0.3626
 6825SOL    HW227032   5.320   0.799   5.233  2.5542  2.4824 -0.5837
 6825SOL    HW327033   5.224   0.909   5.192  1.1953  1.5238 -0.0295
 6825SOL    MW427034   5.278   0.844   5.171  0.4124 -0.3891 -0.4135
 6826SOL     OW27035   3.159   2.115   2.346 -0.0533  0.6351  0.1258
 6826SOL    HW227036   3.159   2.151   2.434  0.2025 -0.6843  0.6843
 6826SOL    HW327037   3.244   2.140   2.310  0.4911 -0.1709  0.8316
 6826SOL    MW427038   3.170   2.123   2.353 -0.2161 -0.3790 -0.4608
 6827SOL     OW27039   2.464   5.451   4.965  0.1461 -0.1880 -0.4367
 6827SOL    HW227040   2.551   5.457   4.925 -0.4039 -0.4547 -1.7396
 6827SOL    HW327041   2.427   5.539   4.955 -0.7694 -0.7430 -2.4519
 6827SOL    MW427042   2.471   5.463   4.958  0.0086  0.0609 -0.1695
 6828SOL     OW27043   5.541   2.189   1.918 -0.1631 -0.1109 -0.2397
 6828SOL    HW227044   5.603   2.195   1.991 -0.3511 -1.4683  0.0640
 6828SOL    HW327045   5.592   2.146   1.849 -0.4711 -0.3306 -0.3294
 6828SOL    MW427046   5.556   2.184   1.919  0.2874  0.3559 -0.0948
 6829SOL     OW27047   5.104   4.457   5.694  0.0960 -0.1905  0.0114
 6829SOL    HW227048   5.092   4.409   5.776 -1.2546 -0.8523 -0.5442
 6829SOL    HW327049   5.135   4.392   5.631  1.4101  0.3774  0.0469
 6829SOL    MW427050   5.107   4.442   5.697 -0.1782 -0.3912  0.3160
 6830SOL     OW27051   5.079   0.808   1.688  0.1953 -0.0870  0.0532
 6830SOL    HW227052   5.027   0.875   1.644  0.7303  1.2866  1.4164
 6830SOL    HW327053   5.033   0.726   1.670 -1.7941  0.9262  0.2416
 6830SOL    MW427054   5.066   0.806   1.680  0.2139  0.5880 -0.1386
 6831SOL     OW27055   4.728   2.574   2.708 -0.4522 -0.4337  0.2406
 6831SOL    HW227056   4.819   2.563   2.735  1.0906  3.2602 -2.4755
 6831SOL    HW327057   4.726   2.539   2.619 -1.4023  0.3228 -0.0502
 6831SOL    MW427058   4.740   2.568   2.700 -0.0600 -0.2984 -0.2299
 6832SOL     OW27059   0.570   0.056   3.868  0.2561  0.0452  0.0085
 6832SOL    HW227060   0.608   0.131   3.914  1.5121 -0.6837  0.2173
 6832SOL    HW327061   0.492   0.034   3.919  1.5638 -0.6797  1.8146
 6832SOL    MW427062   0.565   0.063   3.881  0.1911 -0.3969 -0.2771
 6833SOL     OW27063   0.973   4.650   5.274  0.8686 -0.0476 -0.5795
 6833SOL    HW227064   0.943   4.687   5.191  1.3995 -0.2429 -0.8649
 6833SOL    HW327065   0.941   4.710   5.341  1.6412  0.8751 -1.0272
 6833SOL    MW427066   0.965   4.663   5.272  0.7457 -0.3916  0.3385
 6834SOL     OW27067   1.309   0.489   2.401  0.1724  0.4711  0.0114
 6834SOL    HW227068   1.247   0.429   2.359 -1.3956 -0.2587  3.0478
 6834SOL    HW327069   1.395   0.454   2.380 -0.6734 -3.0444  1.7675
 6834SOL    MW427070   1.312   0.477   2.393  0.1456 -0.0180  0.6742
 6835SOL     OW27071   0.663   4.970   0.436  0.2252 -0.0790 -0.1748
 6835SOL    HW227072   0.703   4.892   0.398 -1.0222 -0.7140 -0.1986
 6835SOL    HW327073   0.579   4.978   0.392 -0.3729  0.3376  1.0101
 6835SOL    MW427074   0.657   4.961   0.425 -0.4199 -0.1761 -0.4618
 6836SOL     OW27075   5.240   3.149   4.143 -0.3874  0.3954  0.5029
 6836SOL    HW227076   5.316   3.206   4.157 -2.3600  3.5018 -0.2737
 6836SOL    HW327077   5.272   3.061   4.159  3.1143  1.6306  1.1155
 6836SOL    MW427078   5.254   3.145   4.147  0.1982 -0.0077 -0.6090
 6837SOL     OW27079   0.912   4.190   1.474  0.9258 -0.2738  0.2123
 6837SOL    HW227080   0.870   4.148   1.549 -1.3176 -1.5115 -1.6002
 6837SOL    HW327081   0.882   4.281   1.478  1.3055 -0.1712  1.0955
 6837SOL    MW427082   0.902   4.197   1.485  0.1756  0.2901 -0.0233
 6838SOL     OW27083   5.985   2.885   5.329  0.0064 -0.7789  0.3228
 6838SOL    HW227084   6.014   2.953   5.269  0.0597 -1.1858 -0.1206
 6838SOL    HW327085   5.974   2.929   5.413  2.4561 -0.6896  0.6720
 6838SOL    MW427086   5.987   2.900   5.332  0.4523  0.4125  0.1197
 6839SOL     OW27087   2.816   4.160   4.872  0.0313 -0.2944  0.2564
 6839SOL    HW227088   2.852   4.077   4.905  0.0050 -0.7079 -0.7292
 6839SOL    HW327089   2.834   4.158   4.778 -0.3416  0.6374  0.1587
 6839SOL    MW427090   2.823   4.148   4.864  0.3519 -0.1375 -0.0425
 6840SOL     OW27091   4.152   2.358   3.367 -0.4663 -0.4457  0.4787
 6840SOL    HW227092   4.095   2.427   3.334  1.4794  0.7302 -0.6365
 6840SOL    HW327093   4.226   2.358   3.306  2.4588  0.5599  3.7506
 6840SOL    MW427094   4.154   2.367   3.354 -0.0311 -0.1698 -0.6348
 6841SOL     OW27095   0.460   2.900   4.292  0.0895 -0.7256 -0.1928
 6841SOL    HW227096   0.475   2.993   4.275 -0.5534 -0.6727 -0.5062
 6841SOL    HW327097   0.520   2.879   4.363 -1.7094  0.5929  1.8337
 6841SOL    MW427098   0.470   2.910   4.299  0.1711 -0.2888 -0.0853
 6842SOL     OW27099   3.216   4.065   3.114  0.6248 -0.6974 -0.0442
 6842SOL    HW227100   3.217   3.971   3.099  2.2183 -0.9827  1.5452
 6842SOL    HW327101   3.164   4.076   3.194  1.4922 -0.3733  0.4822
 6842SOL    MW427102   3.209   4.054   3.123 -0.1637 -0.1081 -0.1013
 6843SOL     OW27103   1.536   3.894   6.081 -0.6676  0.5826 -0.2175
 6843SOL    HW227104   1.489   3.872   6.162 -0.0332 -0.1651 -0.0330
 6843SOL    HW327105   1.590   3.970   6.104 -0.0385  0.0130  0.2542
 6843SOL    MW427106   1.537   3.901   6.095  0.1042  0.0054 -0.0077
 6844SOL     OW27107   3.077   0.898   0.597 -0.2438  0.2196  0.6729
 6844SOL    HW227108   3.060   0.821   0.652  0.4719 -0.4595 -0.0247
 6844SOL    HW327109   3.029   0.880   0.516  1.1956 -0.2708 -0.1102
 6844SOL    MW427110   3.068   0.885   0.593  0.0232 -0.2050 -0.4042
 6845SOL     OW27111   2.706   5.764   5.802 -0.2823 -0.0527 -0.2942
 6845SOL    HW227112   2.701   5.771   5.897 -1.1613  0.1247 -0.3531
 6845SOL    HW327113   2.800   5.768   5.783 -0.0773 -0.4529  0.5908
 6845SOL    MW427114   2.718   5.765   5.812 -0.0159 -0.1672 -0.2590
 6846SOL     OW27115   5.755   4.939   1.894  0.3265  0.3063 -0.0296
 6846SOL    HW227116   5.678   4.902   1.851 -0.7223  0.1713  1.8621
 6846SOL    HW327117   5.720   4.981   1.973  1.7377  3.3073 -0.8474
 6846SOL    MW427118   5.740   4.940   1.899 -0.3291  0.5479  0.0408
 6847SOL     OW27119   6.250   1.897   6.166 -0.5402 -0.2520  0.4701
 6847SOL    HW227120   6.299   1.961   6.115 -0.3303 -0.1521  0.7973
 6847SOL    HW327121   6.204   1.948   6.232  0.4519 -0.5301  1.3976
 6847SOL    MW427122   6.250   1.912   6.168 -0.1240 -0.7706 -0.0942
 6848SOL     OW27123   6.340   1.928   2.874  0.3718 -0.3272  0.0607
 6848SOL    HW227124   6.313   1.947   2.963  1.2146  0.1481  0.2213
 6848SOL    HW327125   6.272   1.869   2.840 -0.9042  0.8864  0.4164
 6848SOL    MW427126   6.327   1.922   2.881  0.2202 -0.9420  0.3027
 6849SOL     OW27127   3.546   4.141   4.555  0.2889  0.2825  0.0020
 6849SOL    HW227128   3.485   4.105   4.491 -0.3234 -0.1467  0.8082
 6849SOL    HW327129   3.563   4.069   4.616 -1.0330  1.3197  1.6990
 6849SOL    MW427130   3.540   4.127   4.554 -0.3147  0.0946 -0.0845
 6850SOL     OW27131   1.977   4.366   2.976  0.0764 -0.0174 -0.5080
 6850SOL    HW227132   2.001   4.363   2.883  1.3292  0.6432 -0.2249
 6850SOL    HW327133   2.061   4.362   3.022 -0.5401 -0.4636  0.6034
 6850SOL    MW427134   1.991   4.365   2.970 -0.6102  0.6016  0.0695
 6851SOL     OW27135   3.028   5.463   5.298 -0.3467 -0.2709  0.3807
 6851SOL    HW227136   3.082   5.526   5.345 -1.4869 -0.8779  2.6765
 6851SOL    HW327137   2.998   5.402   5.366  0.5722 -3.2364 -1.6707
 6851SOL    MW427138   3.031   5.463   5.313  0.1376  0.5502 -0.3920
 6852SOL     OW27139   0.178   0.534   1.747 -0.7569  0.7088  0.0856
 6852SOL    HW227140   0.111   0.502   1.686  0.9994 -0.5988 -1.2701
 6852SOL    HW327141   0.228   0.597   1.696 -2.2904  3.5144  1.8087
 6852SOL    MW427142   0.176   0.538   1.732 -0.5676  0.6410 -0.3624
 6853SOL     OW27143   4.273   5.749   5.647 -0.2496 -0.1668  0.0584
 6853SOL    HW227144   4.313   5.674   5.602 -0.3072  0.2872 -0.7685
 6853SOL    HW327145   4.255   5.717   5.735  1.2413 -0.6279  0.2277
 6853SOL    MW427146   4.276   5.735   5.652  0.2584 -0.2228  0.4867
 6854SOL     OW27147   0.841   3.960   5.237 -0.4446 -0.0217 -0.7170
 6854SOL    HW227148   0.830   3.916   5.153 -0.2346  1.9232 -1.8048
 6854SOL    HW327149   0.910   4.024   5.222 -0.8878  0.8369  0.7398
 6854SOL    MW427150   0.849   3.962   5.224 -0.1241 -0.2791 -0.0416
 6855SOL     OW27151   1.274   3.261   4.253  0.4955  0.1193  0.0792
 6855SOL    HW227152   1.334   3.215   4.311  1.2844  0.3883 -0.5048
 6855SOL    HW327153   1.206   3.295   4.311  0.2606 -1.1817  0.6061
 6855SOL    MW427154   1.273   3.259   4.268  0.6617 -0.2963 -0.1034
 6856SOL     OW27155   1.521   5.388   4.183 -0.3388 -0.3087  0.5232
 6856SOL    HW227156   1.556   5.433   4.106  0.7581 -1.8507  0.0783
 6856SOL    HW327157   1.429   5.373   4.162 -0.7145  1.5561  0.6366
 6856SOL    MW427158   1.513   5.392   4.170 -0.0120  0.0512  0.4851
 6857SOL     OW27159   6.102   0.963   0.912  0.1582  0.1786 -0.0332
 6857SOL    HW227160   6.096   1.012   0.830 -0.9299 -0.2840 -0.2478
 6857SOL    HW327161   6.141   0.879   0.887 -2.4265 -0.9549 -0.5837
 6857SOL    MW427162   6.107   0.959   0.897 -0.7575  0.9320  0.4147
 6858SOL     OW27163   0.161   4.016   4.427 -0.0139 -0.3147 -0.0263
 6858SOL    HW227164   0.132   4.000   4.338 -1.3690 -1.6182  0.6146
 6858SOL    HW327165   0.087   4.058   4.470  0.0622 -1.0554  0.8702
 6858SOL    MW427166   0.148   4.020   4.421 -0.2614 -0.3058  0.2599
 6859SOL     OW27167   5.676   2.107   4.788 -0.4445  0.0914 -0.2911
 6859SOL    HW227168   5.756   2.086   4.739 -0.3562 -3.5369  1.0890
 6859SOL    HW327169   5.608   2.115   4.721  0.6879  1.2550 -1.3504
 6859SOL    MW427170   5.678   2.105   4.773 -0.7265 -0.5952 -0.8229
 6860SOL     OW27171   3.516   0.232   0.839 -0.0767  0.3463 -0.1909
 6860SOL    HW227172   3.476   0.174   0.904 -0.1188  0.2258 -0.3215
 6860SOL    HW327173   3.487   0.320   0.864  0.1039  0.3253  0.0903
 6860SOL    MW427174   3.507   0.236   0.851 -0.4882  0.2325 -0.3690
 6861SOL     OW27175   5.633   0.706   1.948  0.4985  0.4381 -0.3983
 6861SOL    HW227176   5.587   0.623   1.944  1.5741 -0.3113  1.5773
 6861SOL    HW327177   5.584   0.758   2.013  0.4817  0.9280 -0.7931
 6861SOL    MW427178   5.620   0.702   1.956  0.4779  0.0048  0.1108
 6862SOL     OW27179   4.821   3.987   6.214 -0.3394 -0.0645 -0.5027
 6862SOL    HW227180   4.823   3.908   6.267 -1.4337 -0.5259 -1.1203
 6862SOL    HW327181   4.827   4.059   6.278  0.8235 -0.6207  0.0458
 6862SOL    MW427182   4.822   3.986   6.230  0.4509  0.0903  0.3418
 6863SOL     OW27183   1.413   6.308   4.557  0.1818  0.5724  0.0146
 6863SOL    HW227184   1.407   6.329   4.650  0.6117  1.9343 -0.2392
 6863SOL    HW327185   1.323   6.308   4.526  0.0625  0.4308  0.3564
 6863SOL    MW427186   1.400   6.311   4.565 -0.4054 -0.5764 -0.2618
 6864SOL     OW27187   4.321   6.183   2.990 -0.0253 -0.6635 -0.1424
 6864SOL    HW227188   4.306   6.270   3.028 -1.8995  0.3779 -2.9248
 6864SOL    HW327189   4.330   6.200   2.896  3.2162 -3.1652 -0.4212
 6864SOL    MW427190   4.320   6.197   2.982  0.1145 -0.7545 -0.1690
 6865SOL     OW27191   3.762   5.356   5.127 -0.0340  0.4757 -0.2094
 6865SOL    HW227192   3.833   5.413   5.097 -0.8204  1.1029 -0.9690
 6865SOL    HW327193   3.700   5.416   5.170 -0.7022  0.1525 -0.7033
 6865SOL    MW427194   3.763   5.372   5.128 -0.2261 -0.6698 -0.1224
 6866SOL     OW27195   4.806   0.043   1.514 -0.6054  0.7935 -0.0610
 6866SOL    HW227196   4.876   0.060   1.576  0.8419  1.2581 -1.7333
 6866SOL    HW327197   4.752  -0.025   1.556  0.8729  0.3665  1.2431
 6866SOL    MW427198   4.808   0.036   1.527  0.0442  0.3528  0.0123
 6867SOL     OW27199   6.422   3.892   1.231 -0.0030  0.1636  0.1417
 6867SOL    HW227200   6.458   3.893   1.320  1.1761  1.1522 -0.3144
 6867SOL    HW327201   6.396   3.802   1.216 -1.0787  0.1462  1.8142
 6867SOL    MW427202   6.423   3.881   1.241  0.0720 -0.0404  0.1701
 6868SOL     OW27203   1.623   1.830   3.751 -0.0598  0.1442 -0.7425
 6868SOL    HW227204   1.701   1.836   3.695  0.1298 -0.2533 -0.5276
 6868SOL    HW327205   1.574   1.756   3.716  0.1274 -0.1902 -0.3054
 6868SOL    MW427206   1.627   1.821   3.739 -0.2963  0.5404 -0.1043
 6869SOL     OW27207   3.481   3.150   1.087  0.2762 -0.2208 -0.0545
 6869SOL    HW227208   3.510   3.220   1.029 -0.7476  0.1266 -0.1737
 6869SOL    HW327209   3.561   3.117   1.128  0.7895  0.9390 -0.0923
 6869SOL    MW427210   3.495   3.155   1.085 -0.0937  0.1827 -0.6346
 6870SOL     OW27211   0.593   6.211   5.354 -0.0404  0.5267 -0.0843
 6870SOL    HW227212   0.624   6.121   5.341 -5.2321 -1.5435 -0.5397
 6870SOL    HW327213   0.544   6.209   5.436 -2.2659  2.2464 -1.2639
 6870SOL    MW427214   0.591   6.199   5.363 -0.8075 -0.1123  0.7919
 6871SOL     OW27215   4.721   4.420   1.796  0.0609 -0.3577 -0.0869
 6871SOL    HW227216   4.759   4.333   1.806 -0.0642 -0.5596 -1.2708
 6871SOL    HW327217   4.627   4.405   1.790 -0.3348  0.1462  2.9387
 6871SOL    MW427218   4.714   4.407   1.797  0.9818 -0.2275  0.3178
 6872SOL     OW27219   6.214   2.271   2.444  0.4741 -0.4144  0.3707
 6872SOL    HW227220   6.305   2.244   2.440  1.1233  1.3217  1.8242
 6872SOL    HW327221   6.188   2.254   2.534 -0.7347 -1.0918 -0.0799
 6872SOL    MW427222   6.222   2.266   2.455 -0.0587  0.0856 -0.1397
 6873SOL     OW27223   0.359   3.827   2.642 -0.3709  0.0566 -0.5063
 6873SOL    HW227224   0.352   3.752   2.582 -0.1561 -0.1171 -0.3138
 6873SOL    HW327225   0.439   3.811   2.691  0.1652  0.8734 -1.0869
 6873SOL    MW427226   0.368   3.815   2.640  0.5304 -0.0313  0.4490
 6874SOL     OW27227   2.959   4.664   3.437 -0.2039 -0.4504  0.0620
 6874SOL    HW227228   2.979   4.740   3.383 -0.8505  0.7901  1.4991
 6874SOL    HW327229   3.038   4.610   3.433 -0.7068 -1.1941 -3.2654
 6874SOL    MW427230   2.972   4.667   3.429 -0.2525 -0.1202 -0.0330
 6875SOL     OW27231   5.920   5.317   3.848 -0.3972  0.3249 -0.0396
 6875SOL    HW227232   5.824   5.317   3.842 -0.6117 -3.5486  0.9072
 6875SOL    HW327233   5.949   5.304   3.757 -0.8012  0.7566 -0.2336
 6875SOL    MW427234   5.911   5.315   3.835 -0.0666 -0.5611 -0.0089
 6876SOL     OW27235   0.464   3.832   4.181 -0.6695 -0.3167  0.0168
 6876SOL    HW227236   0.495   3.759   4.129 -0.5617 -0.0283 -0.3214
 6876SOL    HW327237   0.403   3.792   4.244 -0.2165 -0.7673  0.1747
 6876SOL    MW427238   0.460   3.817   4.183  0.3814  0.4303 -0.2879
 6877SOL     OW27239   4.175   3.197   0.845  0.1622  0.3143 -0.5466
 6877SOL    HW227240   4.257   3.225   0.803  0.3032  0.8079  0.0274
 6877SOL    HW327241   4.180   3.102   0.847  0.2729  0.3012 -1.4011
 6877SOL    MW427242   4.187   3.188   0.840 -0.4788 -0.3578  0.5061
 6878SOL     OW27243   5.531   1.468   2.884 -0.4495 -0.8648 -0.3638
 6878SOL    HW227244   5.614   1.473   2.931  1.1876 -0.9420 -3.1046
 6878SOL    HW327245   5.494   1.556   2.892 -0.7710 -1.1287  1.8601
 6878SOL    MW427246   5.537   1.480   2.892 -0.1887 -0.3374  0.3696
 6879SOL     OW27247   3.633   0.765   5.375  0.2409  0.3722  0.1204
 6879SOL    HW227248   3.541   0.745   5.356 -0.1440  1.9082  0.2056
 6879SOL    HW327249   3.678   0.682   5.366 -1.6744 -1.2364  3.5018
 6879SOL    MW427250   3.627   0.752   5.371 -0.6559 -0.0811  0.3745
 6880SOL     OW27251   2.262   1.293   5.934  0.0398  0.1137 -0.1447
 6880SOL    HW227252   2.296   1.209   5.904  0.1315 -0.4790  1.4704
 6880SOL    HW327253   2.305   1.307   6.019 -1.3971  0.8596  0.4938
 6880SOL    MW427254   2.272   1.284   5.941  0.1881  0.3724  0.4048
 6881SOL     OW27255   1.661   1.377   0.730 -0.1853 -0.2680 -0.2649
 6881SOL    HW227256   1.676   1.283   0.747 -0.6999 -0.1163  1.2054
 6881SOL    HW327257   1.566   1.387   0.737 -0.1038  0.4169 -0.1111
 6881SOL    MW427258   1.651   1.366   0.733  0.3887 -0.1109 -0.4556
 6882SOL     OW27259   3.864   4.428   6.152 -0.3794  0.1005 -0.1063
 6882SOL    HW227260   3.906   4.513   6.146  0.2317 -0.0154  1.7467
 6882SOL    HW327261   3.773   4.447   6.173 -0.2274  0.3068  0.3726
 6882SOL    MW427262   3.857   4.442   6.154  0.1060 -0.5684 -0.0880
 6883SOL     OW27263   0.255   6.033   2.463 -0.1194  0.8923  0.4920
 6883SOL    HW227264   0.333   6.052   2.411  0.2278  0.4572  0.8379
 6883SOL    HW327265   0.238   5.940   2.447  0.6333  0.4624  1.9602
 6883SOL    MW427266   0.263   6.023   2.454 -0.0469 -0.5205  0.1448
 6884SOL     OW27267   0.113   3.916   1.487  0.2334  0.2741 -0.4518
 6884SOL    HW227268   0.184   3.980   1.487  1.1817 -0.4392  3.9521
 6884SOL    HW327269   0.040   3.961   1.529 -0.2056 -0.5114 -0.3488
 6884SOL    MW427270   0.113   3.930   1.492  0.0676 -0.0940 -0.6293
 6885SOL     OW27271   0.046   4.875   5.558  0.1434  0.1981 -0.5681
 6885SOL    HW227272  -0.007   4.938   5.508 -0.6771  0.8872  1.1178
 6885SOL    HW327273  -0.006   4.856   5.636  1.8327 -0.0513  0.5376
 6885SOL    MW427274   0.032   4.881   5.561  0.4620 -0.1383 -0.5805
 6886SOL     OW27275   3.284   2.296   3.781  0.7978 -0.2318 -0.2298
 6886SOL    HW227276   3.277   2.382   3.821 -1.3043 -0.4588  0.0223
 6886SOL    HW327277   3.354   2.252   3.829  0.2200  0.4867  1.3133
 6886SOL    MW427278   3.292   2.301   3.793  0.2995 -0.4456 -0.2154
 6887SOL     OW27279   4.575   3.180   1.564  0.2291  0.2125 -0.1275
 6887SOL    HW227280   4.618   3.183   1.479  0.6025 -2.1471 -0.0834
 6887SOL    HW327281   4.505   3.116   1.553  0.6649 -0.5994  1.4668
 6887SOL    MW427282   4.571   3.172   1.552 -0.6059 -0.6705 -0.7595
 6888SOL     OW27283   4.448   4.677   5.241  0.1744  0.3605 -0.4028
 6888SOL    HW227284   4.378   4.612   5.236 -0.1543  0.7781 -1.5714
 6888SOL    HW327285   4.476   4.688   5.151  0.3000  1.7549 -0.2091
 6888SOL    MW427286   4.442   4.670   5.229  0.4351  0.0009  0.5628
 6889SOL     OW27287   3.293   4.814   3.935  0.1283 -0.7405 -0.5145
 6889SOL    HW227288   3.357   4.827   4.006  1.4318 -0.4532 -1.6951
 6889SOL    HW327289   3.248   4.733   3.959 -0.3717  0.0076  1.2849
 6889SOL    MW427290   3.296   4.805   3.948  0.1831  0.2732  0.9916
 6890SOL     OW27291   3.181   3.533   3.666  0.6302 -0.0982  0.2035
 6890SOL    HW227292   3.119   3.533   3.740 -0.7888  1.7177 -0.8947
 6890SOL    HW327293   3.148   3.466   3.607  0.8517 -0.4647  0.4912
 6890SOL    MW427294   3.169   3.524   3.668  0.4028  0.4435  0.1725
 6891SOL     OW27295   1.004   2.227   3.230  0.3063 -0.4298  0.2045
 6891SOL    HW227296   0.991   2.164   3.159  1.6873 -1.4443  0.8021
 6891SOL    HW327297   1.098   2.243   3.231  0.1329  0.6709  0.8976
 6891SOL    MW427298   1.014   2.220   3.221  0.2477 -0.3117 -0.4976
 6892SOL     OW27299   2.044   6.285   0.991  0.6088  0.1970  0.3311
 6892SOL    HW227300   1.951   6.263   0.992  1.0924 -2.1508 -0.8624
 6892SOL    HW327301   2.065   6.304   1.083 -0.8182 -0.1884  0.7599
 6892SOL    MW427302   2.035   6.285   1.003 -0.7611 -0.3080 -1.0449
 6893SOL     OW27303   4.581   0.231   4.879 -0.0023 -0.2195 -0.7367
 6893SOL    HW227304   4.565   0.216   4.972  1.8880 -0.2753 -0.3899
 6893SOL    HW327305   4.507   0.189   4.835 -0.6297 -0.6790  0.7049
 6893SOL    MW427306   4.569   0.224   4.885  0.2090  0.3128  0.3639
 6894SOL     OW27307   4.089   4.718   5.533 -0.2333 -0.3125 -0.0143
 6894SOL    HW227308   4.155   4.768   5.485 -0.3331  2.1466  2.1335
 6894SOL    HW327309   4.008   4.768   5.522 -0.9900 -1.4905  0.0481
 6894SOL    MW427310   4.087   4.732   5.525 -0.1660 -0.6442 -0.0659
 6895SOL     OW27311   4.093   2.905   5.978  0.0663  0.3996  0.2502
 6895SOL    HW227312   4.075   2.830   5.920  1.0985 -0.9690  1.6050
 6895SOL    HW327313   4.032   2.893   6.051  0.0721  1.0421  0.3633
 6895SOL    MW427314   4.083   2.893   5.980  0.1922  0.4509 -0.6201
 6896SOL     OW27315   2.392   4.226   2.826 -0.2853  0.0794 -0.3565
 6896SOL    HW227316   2.457   4.279   2.871  1.4786 -1.3833 -1.0345
 6896SOL    HW327317   2.361   4.164   2.892 -1.1178  0.8662  0.0039
 6896SOL    MW427318   2.397   4.225   2.840  0.1688  0.1695  0.3229
 6897SOL     OW27319   2.235   6.261   0.543 -0.0400  0.3794  0.0085
 6897SOL    HW227320   2.220   6.348   0.580  2.0742  0.0175  1.9419
 6897SOL    HW327321   2.207   6.200   0.611  0.8415 -0.3976 -0.3036
 6897SOL    MW427322   2.229   6.265   0.557 -0.7481 -0.0343  1.0782
 6898SOL     OW27323   5.725   4.617   1.126  0.0426  0.3676 -0.1738
 6898SOL    HW227324   5.742   4.604   1.219 -1.8328  0.8777  0.2820
 6898SOL    HW327325   5.795   4.570   1.081 -0.0818 -1.4707  1.4712
 6898SOL    MW427326   5.737   4.609   1.132  0.7816  0.6180 -0.4336
 6899SOL     OW27327   4.631   6.157   0.861  0.7713  0.2289 -0.5276
 6899SOL    HW227328   4.649   6.091   0.928  2.8392 -0.8795 -2.0417
 6899SOL    HW327329   4.598   6.233   0.909 -0.3362 -1.4192  1.4157
 6899SOL    MW427330   4.629   6.159   0.876 -0.3926  0.2009 -0.1676
 6900SOL     OW27331   6.194   1.401   0.944  0.0448  0.0412 -0.5200
 6900SOL    HW227332   6.122   1.357   0.898  1.2529 -2.0074 -0.5537
 6900SOL    HW327333   6.273   1.356   0.915  1.2358  1.3105  0.5925
 6900SOL    MW427334   6.195   1.390   0.934  0.3085  0.0062  0.0769
 6901SOL     OW27335   1.044   3.660   4.144 -0.5329 -0.6169  0.1126
 6901SOL    HW227336   1.031   3.590   4.081 -0.6614  1.2823 -2.1327
 6901SOL    HW327337   1.026   3.740   4.094  0.7485  1.0838  2.2033
 6901SOL    MW427338   1.040   3.662   4.129  0.4022  0.1752 -0.0852
 6902SOL     OW27339   2.799   3.587   2.718 -0.4992  0.1263  0.4290
 6902SOL    HW227340   2.716   3.569   2.674  0.7057  0.6768 -2.2450
 6902SOL    HW327341   2.811   3.513   2.778 -1.1889 -1.8882 -1.7779
 6902SOL    MW427342   2.790   3.575   2.720  0.0864  0.3273 -0.1476
 6903SOL     OW27343   0.491   5.898   5.627 -0.0734  0.4740 -0.3402
 6903SOL    HW227344   0.546   5.877   5.551  1.0948 -0.3332  0.6859
 6903SOL    HW327345   0.528   5.845   5.698 -2.8017 -0.9290  0.1819
 6903SOL    MW427346   0.503   5.888   5.626  0.2285  0.0909 -0.0849
 6904SOL     OW27347   6.060   3.764   2.667 -0.4443  0.5058 -0.2375
 6904SOL    HW227348   6.025   3.852   2.662 -1.6233  0.0009 -1.7429
 6904SOL    HW327349   6.004   3.712   2.608  0.5037 -1.1393  0.2300
 6904SOL    MW427350   6.048   3.769   2.659  0.1151  0.2258  0.4243
 6905SOL     OW27351   0.527   3.296   5.548 -0.2870 -0.1908  0.2367
 6905SOL    HW227352   0.544   3.226   5.611 -0.5215  0.5467  1.1392
 6905SOL    HW327353   0.611   3.342   5.541 -0.7175  0.8135  1.3925
 6905SOL    MW427354   0.540   3.293   5.555  0.2926 -0.2232 -0.2419
 6906SOL     OW27355   3.940   3.783   4.782  0.3772  0.0576 -0.1051
 6906SOL    HW227356   4.017   3.752   4.831  0.3380 -0.8512 -0.6137
 6906SOL    HW327357   3.975   3.808   4.697 -0.0346 -1.2974 -0.6862
 6906SOL    MW427358   3.955   3.782   4.777 -0.3607 -0.8961  0.2005
 6907SOL     OW27359   6.327   1.604   4.489 -0.2597 -0.1719 -0.2978
 6907SOL    HW227360   6.412   1.593   4.533 -0.2710 -2.7362 -0.7772
 6907SOL    HW327361   6.340   1.565   4.403 -1.6831  0.2522 -0.7233
 6907SOL    MW427362   6.340   1.597   4.484 -0.4879 -0.6146 -0.4803
 6908SOL     OW27363   3.962   4.992   4.589 -0.0422 -0.6644 -0.3355
 6908SOL    HW227364   3.972   5.081   4.556 -0.0067 -1.2110 -1.8785
 6908SOL    HW327365   4.017   4.938   4.531 -0.9819 -1.8388 -0.1773
 6908SOL    MW427366   3.971   4.996   4.577 -0.4382  0.0605 -0.3159
 6909SOL     OW27367   3.034   2.839   0.120 -0.0416  0.2729  1.0038
 6909SOL    HW227368   3.119   2.852   0.163  1.7633  0.5115 -2.2159
 6909SOL    HW327369   3.000   2.928   0.109 -0.5148  0.2101  1.8963
 6909SOL    MW427370   3.041   2.853   0.124  0.5019  0.0634  0.0537
 6910SOL     OW27371   4.903   5.726   2.009 -0.2935  0.2574  0.2074
 6910SOL    HW227372   4.897   5.821   1.994  1.8360  0.6222  1.2780
 6910SOL    HW327373   4.852   5.688   1.938 -1.3120  2.2027 -0.1860
 6910SOL    MW427374   4.896   5.734   1.997 -0.2330 -0.1133 -0.1866
 6911SOL     OW27375   0.424   1.021   2.444 -0.6675 -0.0023 -0.3863
 6911SOL    HW227376   0.412   0.961   2.517 -1.1659  1.6736  0.9597
 6911SOL    HW327377   0.509   1.062   2.459 -0.9902  0.7116 -0.4558
 6911SOL    MW427378   0.433   1.018   2.455  0.0790  0.0039 -0.1933
 6912SOL     OW27379   2.770   5.669   2.403  0.1814 -0.4581  0.6752
 6912SOL    HW227380   2.744   5.587   2.445 -2.9651 -0.0398 -0.2372
 6912SOL    HW327381   2.795   5.644   2.314 -2.9972 -0.3057 -0.3658
 6912SOL    MW427382   2.770   5.655   2.397 -0.2025 -0.3689  0.0090
 6913SOL     OW27383   0.575   5.579   5.059  0.1500  0.3311 -0.0559
 6913SOL    HW227384   0.562   5.626   5.141  2.8707  0.6000  0.3420
 6913SOL    HW327385   0.497   5.525   5.049  0.8521 -1.9372  4.2482
 6913SOL    MW427386   0.563   5.579   5.069 -0.2845 -0.1825 -0.6618
 6914SOL     OW27387   5.035   2.115   0.174 -0.3336 -0.0801 -0.5461
 6914SOL    HW227388   4.947   2.082   0.190 -0.2853 -0.8696 -1.7556
 6914SOL    HW327389   5.024   2.182   0.107  0.2051 -2.0152 -2.7086
 6914SOL    MW427390   5.022   2.119   0.167 -0.4760 -0.0174  0.8571
 6915SOL     OW27391   4.425   0.458   3.707 -0.0770 -0.1789  0.1377
 6915SOL    HW227392   4.495   0.439   3.771 -2.5995 -1.1593  2.8295
 6915SOL    HW327393   4.410   0.552   3.715  1.5305  0.2490 -1.2374
 6915SOL    MW427394   4.433   0.468   3.716 -0.0271  0.1996 -0.1290
 6916SOL     OW27395   2.337   5.705   4.947 -0.0706 -0.1460 -0.0324
 6916SOL    HW227396   2.427   5.739   4.948 -0.2087  0.5924 -2.7418
 6916SOL    HW327397   2.288   5.767   5.001  1.2239 -1.4663  2.8549
 6916SOL    MW427398   2.342   5.718   4.954 -0.1853 -0.2811 -0.0710
 6917SOL     OW27399   5.724   5.026   2.482 -0.0880  0.2934  0.2595
 6917SOL    HW227400   5.685   5.071   2.557 -0.3852  1.5486 -0.6115
 6917SOL    HW327401   5.768   5.095   2.433 -0.8116 -0.2889 -1.2893
 6917SOL    MW427402   5.725   5.041   2.485 -0.2113  0.1200 -0.1344
 6918SOL     OW27403   0.297   1.280   0.815 -0.5380  0.1135 -0.2712
 6918SOL    HW227404   0.378   1.324   0.788  0.2289 -1.2216 -0.2354
 6918SOL    HW327405   0.301   1.194   0.773 -3.2479  0.8957 -2.5097
 6918SOL    MW427406   0.308   1.275   0.806  0.1638  0.2037  0.3693
 6919SOL     OW27407   2.876   1.301   0.886  0.3268  0.2490 -0.3110
 6919SOL    HW227408   2.837   1.344   0.810 -0.1802  2.3578  1.0476
 6919SOL    HW327409   2.805   1.251   0.925 -0.1977  1.5013  0.3691
 6919SOL    MW427410   2.862   1.300   0.881 -0.1494 -0.0647  0.0500
 6920SOL     OW27411   3.734   4.639   3.820 -0.1638 -0.5621  0.1815
 6920SOL    HW227412   3.804   4.698   3.791  0.4834 -0.1395  2.3695
 6920SOL    HW327413   3.655   4.675   3.781  0.7278 -0.8038 -2.0155
 6920SOL    MW427414   3.733   4.651   3.811  0.4272 -0.8224 -0.2022
 6921SOL     OW27415   2.873   1.636   3.130  0.0148  0.2619 -0.7512
 6921SOL    HW227416   2.791   1.647   3.082 -0.0766 -0.7606 -0.8508
 6921SOL    HW327417   2.883   1.541   3.140 -0.9603  0.3567  2.9162
 6921SOL    MW427418   2.863   1.625   3.125 -0.0855 -0.2920  0.0066
 6922SOL     OW27419   1.621   2.009   0.851 -0.3404 -0.0868 -0.0121
 6922SOL    HW227420   1.525   2.009   0.844 -0.4327 -1.6071  0.8345
 6922SOL    HW327421   1.640   1.943   0.918  1.4367 -2.1079 -2.3206
 6922SOL    MW427422   1.610   2.000   0.859  0.0412 -0.1310 -0.1228
 6923SOL     OW27423   3.935   5.043   5.758  0.3419 -0.0879  0.0991
 6923SOL    HW227424   3.946   4.991   5.678  0.3236 -0.6271  0.4358
 6923SOL    HW327425   4.022   5.044   5.797  0.0152 -1.2778  0.9251
 6923SOL    MW427426   3.948   5.036   5.752  0.2238  0.0792 -0.0205
 6924SOL     OW27427   3.325   2.258   2.553 -0.0721  0.4805 -0.5632
 6924SOL    HW227428   3.374   2.340   2.545 -1.5429  1.5618  0.7895
 6924SOL    HW327429   3.362   2.215   2.630 -2.3061  2.2205  1.6759
 6924SOL    MW427430   3.336   2.263   2.562  0.5746 -0.4802 -0.5202
 6925SOL     OW27431   1.559   5.033   4.977 -0.1695 -0.1458  0.7149
 6925SOL    HW227432   1.566   4.938   4.988  1.6511  0.0145  1.2482
 6925SOL    HW327433   1.599   5.051   4.892 -1.0876  0.0929  0.3233
 6925SOL    MW427434   1.565   5.023   4.967  0.2401 -0.2286  0.3298
 6926SOL     OW27435   3.635   6.281   4.115 -0.0177  0.6762 -0.3506
 6926SOL    HW227436   3.603   6.370   4.102 -1.1226  0.1981 -1.1117
 6926SOL    HW327437   3.729   6.290   4.126 -0.1278  1.9418 -0.3327
 6926SOL    MW427438   3.643   6.294   4.115 -0.4523  0.6755  0.2363
 6927SOL     OW27439   0.032   1.915   5.152  0.5165 -0.4467  0.1729
 6927SOL    HW227440   0.066   1.827   5.135  0.7307 -0.7300  1.8563
 6927SOL    HW327441   0.093   1.951   5.216 -0.5105  0.3053  0.7433
 6927SOL    MW427442   0.045   1.908   5.158 -0.1632  0.3178  0.5898
 6928SOL     OW27443   5.330   5.560   3.389 -0.3290 -0.1304 -0.2224
 6928SOL    HW227444   5.322   5.654   3.369 -2.6634  0.0273  1.1928
 6928SOL    HW327445   5.321   5.517   3.304  0.0764  0.8876 -0.8002
 6928SOL    MW427446   5.328   5.567   3.375 -0.3966  0.3922  0.5401
 6929SOL     OW27447   5.106   5.281   4.744 -0.1003 -0.2403  0.1876
 6929SOL    HW227448   5.138   5.356   4.795  1.3844 -0.6566 -0.0946
 6929SOL    HW327449   5.012   5.299   4.732  0.5419  2.5329 -1.4894
 6929SOL    MW427450   5.097   5.294   4.749  0.0602  0.0040 -0.2667
 6930SOL     OW27451   4.311   5.500   2.490 -0.6119  0.3785  0.1690
 6930SOL    HW227452   4.319   5.488   2.585 -2.2734  0.0827  0.3093
 6930SOL    HW327453   4.323   5.594   2.477  0.0631  0.3609  0.6128
 6930SOL    MW427454   4.314   5.510   2.501  0.4516  0.4424 -0.4256
 6931SOL     OW27455   6.118   3.763   3.928 -0.4001 -0.5278  0.2637
 6931SOL    HW227456   6.090   3.736   3.841  1.6673  1.3088 -1.0720
 6931SOL    HW327457   6.087   3.853   3.937  3.9607  1.4207 -1.0602
 6931SOL    MW427458   6.111   3.772   3.918 -0.5122  0.6796  0.2196
 6932SOL     OW27459   2.332   3.282   2.384  0.1269  0.1459 -0.3105
 6932SOL    HW227460   2.413   3.334   2.388  0.0207  0.2656  0.5747
 6932SOL    HW327461   2.313   3.262   2.475 -0.5335 -0.3769 -0.5593
 6932SOL    MW427462   2.340   3.286   2.397  0.5703 -0.7239 -0.3503
 6933SOL     OW27463   3.901   4.274   2.781  0.0767 -0.1326  0.2906
 6933SOL    HW227464   3.897   4.308   2.870  0.2981 -2.9031  1.4485
 6933SOL    HW327465   3.953   4.339   2.733  2.6916 -0.0566  2.9459
 6933SOL    MW427466   3.907   4.287   2.786  0.0047  0.3940  0.0325
 6934SOL     OW27467   4.192   4.532   0.357 -0.3069  0.2516  0.4989
 6934SOL    HW227468   4.282   4.507   0.335 -0.4223  1.6413 -1.9384
 6934SOL    HW327469   4.153   4.452   0.393  0.7677 -1.6212 -2.1940
 6934SOL    MW427470   4.199   4.518   0.359 -0.1686  0.3687 -0.2505
 6935SOL     OW27471   2.706   2.316   3.757  0.1601  0.1877  0.1827
 6935SOL    HW227472   2.726   2.224   3.774  0.5149  0.3732  0.8009
 6935SOL    HW327473   2.616   2.327   3.788  0.0782  0.0256  0.0078
 6935SOL    MW427474   2.697   2.305   3.763  0.2182  0.3787  0.5330
 6936SOL     OW27475   1.813   0.724   4.632 -0.3076 -0.6196 -0.1624
 6936SOL    HW227476   1.831   0.630   4.626  0.8304 -0.3553 -1.5543
 6936SOL    HW327477   1.751   0.742   4.561  1.1257 -0.0197 -1.3456
 6936SOL    MW427478   1.807   0.714   4.622  0.0800 -0.2726  0.6833
 6937SOL     OW27479   1.601   2.723   5.484 -0.1653  0.5892  0.2438
 6937SOL    HW227480   1.561   2.780   5.418 -1.0721  1.1791  1.2635
 6937SOL    HW327481   1.684   2.696   5.445  0.7644  3.3480  0.0748
 6937SOL    MW427482   1.606   2.727   5.470  0.0040  0.1404 -0.0597
 6938SOL     OW27483   6.068   0.452   5.405 -0.4869  0.0389 -0.5847
 6938SOL    HW227484   5.982   0.455   5.447 -0.1565  0.3082  0.1005
 6938SOL    HW327485   6.066   0.523   5.341 -0.0683  1.4668  0.8913
 6938SOL    MW427486   6.057   0.462   5.402  0.4373  0.2858  0.0043
 6939SOL     OW27487   1.700   1.996   3.180 -0.1086 -0.6131  0.8947
 6939SOL    HW227488   1.623   2.052   3.185 -1.1213 -2.0206  1.6364
 6939SOL    HW327489   1.746   2.025   3.101 -1.4767  0.1394  0.3503
 6939SOL    MW427490   1.696   2.007   3.171  0.2406  0.2870  0.4883
 6940SOL     OW27491   1.898   2.709   5.450 -0.4393  0.1704 -0.0031
 6940SOL    HW227492   1.953   2.780   5.417 -0.3578 -0.1961 -0.6864
 6940SOL    HW327493   1.958   2.637   5.465 -0.8389 -0.6615 -1.9704
 6940SOL    MW427494   1.913   2.709   5.447  0.2665  0.1573  0.1143
 6941SOL     OW27495   1.966   3.617   3.022  0.3199  0.2824  0.1072
 6941SOL    HW227496   1.976   3.687   2.958 -0.8827  0.0981 -0.2936
 6941SOL    HW327497   1.975   3.537   2.972  1.0373  0.1334  0.4588
 6941SOL    MW427498   1.969   3.616   3.007 -0.3742 -0.4020 -0.4615
 6942SOL     OW27499   1.597   3.836   2.098 -0.1344  0.2573 -0.6537
 6942SOL    HW227500   1.502   3.838   2.112  0.0039 -0.7489  0.6754
 6942SOL    HW327501   1.621   3.745   2.113  1.4384  1.0162  2.1774
 6942SOL    MW427502   1.588   3.824   2.102  0.2495  0.1879  0.5103
 6943SOL     OW27503   2.234   2.444   6.320  0.6646 -0.4661 -0.0694
 6943SOL    HW227504   2.185   2.430   6.401 -0.9618  1.2641 -0.6880
 6943SOL    HW327505   2.321   2.474   6.349 -0.2956  1.3795  1.1010
 6943SOL    MW427506   2.239   2.446   6.334  0.3623 -0.6758  0.1550
 6944SOL     OW27507   2.909   2.352   5.167 -0.0883  0.2368  0.3703
 6944SOL    HW227508   2.870   2.267   5.187  1.1479 -0.9571 -1.9064
 6944SOL    HW327509   2.994   2.350   5.212 -0.3636  0.6003  0.9194
 6944SOL    MW427510   2.915   2.340   5.176 -0.2960  0.1547  0.0272
 6945SOL     OW27511   5.680   5.814   3.889  0.1099  0.2260  0.0557
 6945SOL    HW227512   5.755   5.861   3.925 -0.1733 -1.1120  2.6782
 6945SOL    HW327513   5.625   5.796   3.965 -0.5381 -2.9466 -1.0012
 6945SOL    MW427514   5.683   5.818   3.904  0.1412 -0.5650  0.0032
 6946SOL     OW27515   3.459   5.764   1.026 -0.1651  0.4972  0.4159
 6946SOL    HW227516   3.551   5.739   1.013  0.3395  2.8028 -1.2262
 6946SOL    HW327517   3.463   5.839   1.086 -0.8073  1.3128 -0.5213
 6946SOL    MW427518   3.472   5.771   1.032  0.3053  0.3860 -0.1747
 6947SOL     OW27519   0.758   1.697   1.883  0.0653 -0.0578  0.0615
 6947SOL    HW227520   0.705   1.709   1.962 -1.1536  0.1703 -0.7775
 6947SOL    HW327521   0.821   1.628   1.908 -1.7594 -1.6516  0.5380
 6947SOL    MW427522   0.759   1.689   1.897 -0.3146 -0.5074 -0.6509
 6948SOL     OW27523   1.829   1.406   4.177  0.6797  0.2486  0.0652
 6948SOL    HW227524   1.782   1.482   4.142 -0.7093 -0.2677  0.7366
 6948SOL    HW327525   1.833   1.345   4.103 -0.1251  0.1142  0.1238
 6948SOL    MW427526   1.823   1.408   4.162 -0.0185  0.7411 -0.2623
 6949SOL     OW27527   2.647   3.488   6.162  0.3016 -1.0658  0.3363
 6949SOL    HW227528   2.601   3.500   6.080 -2.1092  0.8100  1.8182
 6949SOL    HW327529   2.622   3.400   6.191  0.6473 -1.4785 -0.5835
 6949SOL    MW427530   2.637   3.478   6.155  0.3129  0.1748  0.2860
 6950SOL     OW27531   1.373   0.522   5.675  0.0103 -0.1257 -0.1452
 6950SOL    HW227532   1.298   0.554   5.724 -0.5067 -1.0527 -0.3150
 6950SOL    HW327533   1.439   0.591   5.684 -1.1530  1.1049 -0.7030
 6950SOL    MW427534   1.372   0.536   5.682 -0.1366 -0.5306  0.5769
 6951SOL     OW27535   4.556   4.903   3.443  0.0439 -0.5143 -0.0012
 6951SOL    HW227536   4.648   4.877   3.439  0.2611  0.3448 -0.9973
 6951SOL    HW327537   4.510   4.839   3.388  0.4348  0.5639 -1.6359
 6951SOL    MW427538   4.562   4.891   3.436  0.1179 -0.4556 -0.1301
 6952SOL     OW27539   6.225   3.286   5.809 -0.0974 -0.1053 -0.2477
 6952SOL    HW227540   6.162   3.353   5.784 -1.5991 -1.5815 -0.5975
 6952SOL    HW327541   6.209   3.215   5.748 -0.2004 -1.7192  1.5658
 6952SOL    MW427542   6.215   3.286   5.798 -0.3115 -0.0156 -0.0003
 6953SOL     OW27543   2.620   2.596   1.673 -0.2958  0.3908 -0.3855
 6953SOL    HW227544   2.690   2.542   1.711  1.4513  0.5618 -3.0990
 6953SOL    HW327545   2.592   2.548   1.595 -2.2100  1.0907 -0.1828
 6953SOL    MW427546   2.626   2.582   1.668  0.0013  0.0052  0.4335
 6954SOL     OW27547   5.933   4.011   2.656  0.0002  0.0690 -0.5078
 6954SOL    HW227548   6.006   4.066   2.685 -0.5027  0.0290  0.9037
 6954SOL    HW327549   5.872   4.072   2.614  1.0684  0.0227 -2.2212
 6954SOL    MW427550   5.935   4.026   2.654 -0.8208  0.1110 -0.3903
 6955SOL     OW27551   5.801   2.707   0.108  0.4280  0.2748 -0.9779
 6955SOL    HW227552   5.891   2.715   0.141  0.7307  0.7877 -1.8986
 6955SOL    HW327553   5.775   2.618   0.131  0.2792  0.8812  1.4794
 6955SOL    MW427554   5.809   2.696   0.115  0.2077  0.2315 -0.8427
 6956SOL     OW27555   6.111   2.540   2.685 -0.4282 -0.8580  0.6674
 6956SOL    HW227556   6.173   2.605   2.719 -2.0285  0.2135  1.6908
 6956SOL    HW327557   6.148   2.456   2.711  1.4068 -0.3634 -0.1921
 6956SOL    MW427558   6.124   2.538   2.693 -0.2954 -0.1519 -0.4370
 6957SOL     OW27559   1.543   3.863   3.845 -0.2778 -0.3203  0.4946
 6957SOL    HW227560   1.580   3.951   3.833 -0.5073 -0.2577  0.2281
 6957SOL    HW327561   1.604   3.805   3.800  0.5626 -0.4514  1.7549
 6957SOL    MW427562   1.556   3.867   3.837  0.2924 -0.5447 -0.2730
 6958SOL     OW27563   4.317   5.586   0.543 -0.3846  0.0108  0.0999
 6958SOL    HW227564   4.387   5.546   0.491 -1.5810  1.0542 -2.4733
 6958SOL    HW327565   4.280   5.513   0.594  0.3096 -1.2693 -1.1669
 6958SOL    MW427566   4.321   5.571   0.543  0.2557 -0.1355  0.2206
 6959SOL     OW27567   4.561   3.762   2.475 -0.7497  0.3813 -0.1098
 6959SOL    HW227568   4.482   3.815   2.476  0.2920  1.9852 -0.0750
 6959SOL    HW327569   4.631   3.823   2.453  0.4824 -1.0138 -0.2187
 6959SOL    MW427570   4.560   3.777   2.472  0.0285  0.1887 -0.2190
 6960SOL     OW27571   1.634   1.454   5.935 -0.0697 -0.3520  0.1455
 6960SOL    HW227572   1.547   1.415   5.939  0.5832 -1.8767  0.1727
 6960SOL    HW327573   1.664   1.438   5.846 -0.0958  0.8475 -0.0992
 6960SOL    MW427574   1.627   1.447   5.924 -0.0156  0.2445 -0.2030
 6961SOL     OW27575   4.822   3.571   5.432  0.0438 -0.5268  0.0791
 6961SOL    HW227576   4.738   3.528   5.414 -0.1440  0.0284 -0.4423
 6961SOL    HW327577   4.804   3.664   5.419  0.3157 -0.2359  1.6734
 6961SOL    MW427578   4.808   3.578   5.428  0.2356  0.0914 -0.0755
 6962SOL     OW27579   1.008   2.844   1.610 -0.8008 -0.2384  0.1665
 6962SOL    HW227580   1.052   2.873   1.530 -0.4631 -0.6986  0.1793
 6962SOL    HW327581   1.078   2.844   1.677 -0.1570 -3.3173 -0.3366
 6962SOL    MW427582   1.023   2.848   1.609  0.4783 -0.2564 -0.3544
 6963SOL     OW27583   1.198   1.472   2.855  0.2229  0.6500 -0.0506
 6963SOL    HW227584   1.267   1.436   2.911 -0.1286  1.1127  0.6888
 6963SOL    HW327585   1.127   1.409   2.861 -0.1436  1.1207  0.7261
 6963SOL    MW427586   1.198   1.459   2.863 -0.0512 -0.3227  0.6655
 6964SOL     OW27587   2.654   4.150   2.679 -0.2704  0.1051 -0.2667
 6964SOL    HW227588   2.694   4.086   2.620  0.4524  0.8856 -0.6442
 6964SOL    HW327589   2.725   4.178   2.736 -0.8845 -0.3869  0.7791
 6964SOL    MW427590   2.668   4.145   2.679  0.0216 -0.8250 -0.3014
 6965SOL     OW27591   0.010   1.145   1.439  0.5809 -0.6994  0.3594
 6965SOL    HW227592   0.081   1.184   1.490  0.1256 -0.1319  0.5682
 6965SOL    HW327593  -0.068   1.194   1.465  0.4398  0.1088 -1.3952
 6965SOL    MW427594   0.009   1.157   1.449 -0.1870 -0.6204  0.3128
 6966SOL     OW27595   4.211   4.406   3.291  0.2009 -0.4311  0.3967
 6966SOL    HW227596   4.300   4.398   3.257 -0.0446 -1.1822 -0.0932
 6966SOL    HW327597   4.160   4.340   3.243 -0.9134  0.8862 -0.2993
 6966SOL    MW427598   4.216   4.396   3.280 -0.1224  0.9924 -0.5319
 6967SOL     OW27599   1.483   3.100   2.095  0.6041 -0.3877 -0.1641
 6967SOL    HW227600   1.574   3.104   2.065  0.5420 -1.7430 -0.5746
 6967SOL    HW327601   1.432   3.086   2.016  0.2033 -1.3882  0.2506
 6967SOL    MW427602   1.488   3.099   2.081  0.6423 -1.0293  0.0921
 6968SOL     OW27603   0.142   2.272   0.830 -0.1933 -0.1198  1.1284
 6968SOL    HW227604   0.192   2.230   0.899  1.3007 -3.5400 -1.7717
 6968SOL    HW327605   0.072   2.210   0.809 -1.8949  1.7671  0.8330
 6968SOL    MW427606   0.139   2.259   0.836 -0.1125 -0.0470 -0.1660
 6969SOL     OW27607   5.807   5.300   6.405  0.4373 -0.7159  0.2096
 6969SOL    HW227608   5.875   5.328   6.467  0.8820  0.5373 -0.8025
 6969SOL    HW327609   5.779   5.381   6.363 -0.0882 -1.5066 -0.9898
 6969SOL    MW427610   5.812   5.315   6.408 -0.3807 -0.3243  0.2974
 6970SOL     OW27611   0.546   3.609   4.062 -0.2352  0.1452  0.9960
 6970SOL    HW227612   0.600   3.625   3.984 -0.2826 -2.7992  0.2099
 6970SOL    HW327613   0.601   3.553   4.117 -0.9926  0.4950  2.1299
 6970SOL    MW427614   0.560   3.603   4.059 -0.1139 -0.0355 -0.3718
 6971SOL     OW27615   4.107   4.181   0.202 -0.0687  0.4328 -0.4133
 6971SOL    HW227616   4.200   4.172   0.221 -0.0241 -1.1666 -1.2491
 6971SOL    HW327617   4.104   4.220   0.115 -0.1521 -0.3890 -0.7870
 6971SOL    MW427618   4.119   4.185   0.193  0.3742  0.1711 -0.0178
 6972SOL     OW27619   2.118   4.619   5.545 -0.0322  0.1259 -0.6259
 6972SOL    HW227620   2.099   4.533   5.508 -2.1365 -0.1692  0.9443
 6972SOL    HW327621   2.039   4.670   5.530 -0.2151  0.6018  1.5839
 6972SOL    MW427622   2.105   4.615   5.538 -0.0864 -0.2208 -0.4754
 6973SOL     OW27623   2.661   4.519   0.909 -0.1583  0.6611  0.1733
 6973SOL    HW227624   2.579   4.546   0.951  0.6106  1.4404  1.2251
 6973SOL    HW327625   2.708   4.471   0.977 -0.3590 -1.0844 -0.8833
 6973SOL    MW427626   2.656   4.516   0.924 -0.5209  1.1971 -0.1048
 6974SOL     OW27627   2.138   1.697   4.204  0.2584  0.3934  0.4750
 6974SOL    HW227628   2.228   1.662   4.209 -0.3914 -1.8669 -1.6955
 6974SOL    HW327629   2.090   1.646   4.270 -0.2654 -1.5973 -1.3359
 6974SOL    MW427630   2.144   1.685   4.213 -0.0210 -0.7404 -0.0874
 6975SOL     OW27631   1.013   1.402   5.292 -0.8367 -0.0671  0.1139
 6975SOL    HW227632   0.965   1.460   5.350 -3.4151 -0.4343 -1.4833
 6975SOL    HW327633   1.019   1.320   5.340  2.7310  1.2924  2.3340
 6975SOL    MW427634   1.007   1.399   5.306  0.5531 -0.2622 -0.0305
 6976SOL     OW27635   4.488   4.371   6.413 -0.2172  0.5502 -0.3878
 6976SOL    HW227636   4.441   4.299   6.370 -0.8997  0.8180 -0.1124
 6976SOL    HW327637   4.419   4.421   6.457  0.4964 -0.0412  1.5009
 6976SOL    MW427638   4.473   4.368   6.413  0.4400  0.0928 -0.5533
 6977SOL     OW27639   4.264   0.427   6.224  0.2632  0.3730  0.3607
 6977SOL    HW227640   4.191   0.468   6.270  1.0283  1.9783  0.2456
 6977SOL    HW327641   4.333   0.494   6.225  0.6350  0.1518 -2.2759
 6977SOL    MW427642   4.263   0.442   6.230 -0.0004 -0.2787 -0.1718
 6978SOL     OW27643   6.139   3.623   2.920  0.3932 -0.4352 -0.2560
 6978SOL    HW227644   6.225   3.666   2.921 -0.4708  1.4730 -1.3398
 6978SOL    HW327645   6.093   3.664   2.846 -1.0242 -2.2958 -0.4717
 6978SOL    MW427646   6.144   3.634   2.911  1.0411  0.4452  0.1122
 6979SOL     OW27647   4.066   2.201   5.621  0.2377 -0.2756  0.0023
 6979SOL    HW227648   4.092   2.254   5.545 -0.3132  0.8755  0.5928
 6979SOL    HW327649   4.148   2.184   5.667  0.5365 -0.7117 -0.6716
 6979SOL    MW427650   4.081   2.206   5.617  0.2567 -0.2418 -0.2544
 6980SOL     OW27651   0.048   3.964   4.170 -0.2500  0.3974  0.3372
 6980SOL    HW227652   0.061   3.871   4.156 -0.2436  0.4164  0.2172
 6980SOL    HW327653   0.119   4.006   4.120 -0.1876  0.4617  0.4780
 6980SOL    MW427654   0.059   3.957   4.161  0.3579  0.2188 -0.6054
 6981SOL     OW27655   4.504   3.350   4.978  0.2725  0.1083  0.1272
 6981SOL    HW227656   4.599   3.362   4.971  0.2642  0.5308  0.7012
 6981SOL    HW327657   4.494   3.260   5.010  0.4259 -0.4445 -1.3174
 6981SOL    MW427658   4.515   3.340   4.981 -0.5303  0.4351  0.2731
 6982SOL     OW27659   3.902   2.595   1.167 -0.0563 -0.2798 -0.4017
 6982SOL    HW227660   3.841   2.607   1.240  1.4871 -0.8131  1.0403
 6982SOL    HW327661   3.892   2.504   1.141  1.2551 -0.8618  0.9719
 6982SOL    MW427662   3.893   2.585   1.173  0.0232  0.1559  0.3853
 6983SOL     OW27663   4.423   1.757   1.029  0.0509 -0.2302 -0.1874
 6983SOL    HW227664   4.495   1.756   0.965  0.0864 -2.3782 -0.1728
 6983SOL    HW327665   4.354   1.806   0.985  1.2797  1.3831 -0.4295
 6983SOL    MW427666   4.423   1.763   1.014  0.5697 -0.3222  0.1599
 6984SOL     OW27667   3.006   3.987   1.157 -0.2425 -0.9265 -0.0715
 6984SOL    HW227668   2.925   4.030   1.128 -1.1258 -1.3262  1.6603
 6984SOL    HW327669   3.052   3.965   1.076 -2.2427 -1.3882 -1.1367
 6984SOL    MW427670   3.001   3.990   1.143 -0.0704  0.0451  0.0121
 6985SOL     OW27671   1.858   5.251   3.678 -0.1368  0.3221 -0.0620
 6985SOL    HW227672   1.946   5.251   3.641  0.1336  1.9065  0.5174
 6985SOL    HW327673   1.808   5.191   3.622  1.0692  0.1194 -0.9577
 6985SOL    MW427674   1.863   5.243   3.666  0.0864 -0.5925  0.3124
 6986SOL     OW27675   0.467   6.433   3.176  0.2752 -0.0728  0.2352
 6986SOL    HW227676   0.552   6.465   3.207  0.3797 -0.1068 -0.0119
 6986SOL    HW327677   0.472   6.442   3.081  0.8757 -2.1665  0.0115
 6986SOL    MW427678   0.479   6.438   3.167  0.9556 -0.2404  0.0428
 6987SOL     OW27679   0.315   0.827   4.917 -0.4288  0.1064  0.3530
 6987SOL    HW227680   0.348   0.744   4.884 -3.7109 -1.0053 -0.5780
 6987SOL    HW327681   0.339   0.828   5.010 -0.4390 -1.9770  0.4181
 6987SOL    MW427682   0.322   0.816   4.925 -0.8867 -0.6757 -0.1232
 6988SOL     OW27683   0.897   0.916   2.757 -0.3872  0.2721 -0.1975
 6988SOL    HW227684   0.851   0.883   2.680 -1.4706  0.7056  0.2449
 6988SOL    HW327685   0.870   0.857   2.828  1.3364 -0.7055 -0.2990
 6988SOL    MW427686   0.887   0.904   2.757  0.7128 -0.3013  0.1432
 6989SOL     OW27687   5.687   2.691   2.761 -0.4486  0.1750  0.3898
 6989SOL    HW227688   5.755   2.698   2.828 -0.3815 -1.8802  0.5778
 6989SOL    HW327689   5.673   2.597   2.750 -2.7301  0.5324 -0.2082
 6989SOL    MW427690   5.694   2.680   2.768  0.3724 -0.9420  0.4848
 6990SOL     OW27691   2.134   3.363   0.854  0.3989 -0.1865  0.6271
 6990SOL    HW227692   2.046   3.326   0.869  0.1026 -1.0244 -2.5021
 6990SOL    HW327693   2.166   3.383   0.942 -2.3341 -1.1975  1.9964
 6990SOL    MW427694   2.126   3.361   0.868  0.3335  0.3025 -0.4195
 6991SOL     OW27695   5.456   3.011   0.161 -0.2198  0.1858  0.5983
 6991SOL    HW227696   5.408   2.987   0.240 -0.8362 -1.0891 -0.1400
 6991SOL    HW327697   5.548   3.008   0.186 -0.2842 -2.3941  0.7273
 6991SOL    MW427698   5.462   3.008   0.175  0.1800  0.3697 -0.4862
 6992SOL     OW27699   2.226   3.848   5.004  0.2023 -0.3227  0.0092
 6992SOL    HW227700   2.158   3.795   5.044  0.6625 -1.4283 -0.6306
 6992SOL    HW327701   2.182   3.894   4.932 -0.4417  1.0490  1.2334
 6992SOL    MW427702   2.211   3.847   5.000  0.3900 -0.2191 -0.1589
 6993SOL     OW27703   1.767   5.243   6.247 -0.1702  0.1815 -0.0635
 6993SOL    HW227704   1.732   5.169   6.297  2.3189  0.1506  1.8840
 6993SOL    HW327705   1.775   5.314   6.311  0.4401  1.1004 -1.1133
 6993SOL    MW427706   1.764   5.242   6.262 -0.1886 -0.2622 -0.1319
 6994SOL     OW27707   5.147   3.293   1.644 -0.0178  0.2414 -0.3128
 6994SOL    HW227708   5.150   3.211   1.693 -0.3425  1.1227  1.2729
 6994SOL    HW327709   5.174   3.360   1.708  0.5766  1.3419 -1.6432
 6994SOL    MW427710   5.151   3.291   1.659 -0.0913 -0.6555 -0.3852
 6995SOL     OW27711   0.917   2.410   2.472  0.0360 -0.1925  0.4178
 6995SOL    HW227712   0.947   2.482   2.528 -2.9588  2.1917 -0.7569
 6995SOL    HW327713   0.947   2.435   2.384  1.2527 -1.8462  0.3230
 6995SOL    MW427714   0.925   2.423   2.468  0.2993  0.0369  0.3924
 6996SOL     OW27715   6.432   1.498   2.617 -0.1325 -0.3706 -0.3650
 6996SOL    HW227716   6.448   1.490   2.523  0.1260  0.4552 -0.4018
 6996SOL    HW327717   6.338   1.513   2.625  0.1637  2.0593 -0.7027
 6996SOL    MW427718   6.422   1.499   2.606 -0.7635 -0.3486 -0.5957
 6997SOL     OW27719   1.074   4.362   5.012  0.3397 -0.2230  0.1308
 6997SOL    HW227720   1.104   4.421   5.081  1.1128 -1.3853  0.8242
 6997SOL    HW327721   1.148   4.357   4.952 -0.0098  0.0964 -0.3334
 6997SOL    MW427722   1.088   4.369   5.013 -1.7508 -0.3136 -0.6415
 6998SOL     OW27723   1.845   1.232   3.971 -0.3180  0.0631  0.5263
 6998SOL    HW227724   1.818   1.140   3.965 -0.3802  0.0282  1.2599
 6998SOL    HW327725   1.828   1.267   3.883  1.5404 -1.1093 -0.3600
 6998SOL    MW427726   1.839   1.224   3.958  0.7247 -0.2406  0.6560
 6999SOL     OW27727   0.878   2.610   4.402 -0.2542  0.2103 -0.1728
 6999SOL    HW227728   0.825   2.560   4.464  1.3082 -0.3162  0.8144
 6999SOL    HW327729   0.913   2.683   4.454  0.7317  0.0020 -0.5204
 6999SOL    MW427730   0.876   2.613   4.417  0.2602 -0.1824  0.3868
 7000SOL     OW27731   6.327   6.058   1.826 -0.2382 -0.4593  0.1837
 7000SOL    HW227732   6.336   5.963   1.826 -0.3421 -0.5226 -2.2062
 7000SOL    HW327733   6.236   6.073   1.800 -0.7392  0.3291  2.1844
 7000SOL    MW427734   6.316   6.048   1.823 -0.0270  0.3316 -0.0528
 7001SOL     OW27735   0.448   3.327   3.891 -0.2345  0.3272 -0.0855
 7001SOL    HW227736   0.470   3.234   3.888  2.3021  0.8931 -1.9837
 7001SOL    HW327737   0.382   3.334   3.960  0.5608 -2.6521  1.1063
 7001SOL    MW427738   0.442   3.316   3.900  0.1761 -0.0020 -0.7036
 7002SOL     OW27739   5.287   0.834   3.661  0.2196  0.0122 -0.5546
 7002SOL    HW227740   5.263   0.742   3.653  0.5602 -0.4711  2.5203
 7002SOL    HW327741   5.346   0.837   3.736 -0.1934  2.7966 -0.2048
 7002SOL    MW427742   5.291   0.823   3.670 -0.2907 -0.3240 -0.6975
 7003SOL     OW27743   4.067   1.091   3.111 -0.0827  0.3992 -0.4432
 7003SOL    HW227744   4.001   1.029   3.079  1.3357  0.0680 -3.0794
 7003SOL    HW327745   4.097   1.136   3.032  0.0358  3.4121  1.2041
 7003SOL    MW427746   4.062   1.089   3.096 -0.2771  0.2816  0.3896
 7004SOL     OW27747   4.826   6.027   2.116  0.0024  0.5181 -0.1853
 7004SOL    HW227748   4.839   6.104   2.060 -0.0182  0.4459 -0.2879
 7004SOL    HW327749   4.888   6.040   2.188  0.4919  0.2912 -0.5550
 7004SOL    MW427750   4.836   6.039   2.118 -0.0737 -0.3705  0.4658
 7005SOL     OW27751   1.515   5.140   2.831  0.2995  0.2218  0.3579
 7005SOL    HW227752   1.534   5.225   2.871  0.4494  0.9546 -1.1808
 7005SOL    HW327753   1.466   5.092   2.898 -0.0110  1.6202  1.1757
 7005SOL    MW427754   1.511   5.145   2.845  0.3438  0.3215  0.6546
 7006SOL     OW27755   4.871   0.421   6.238  0.1450 -0.1072 -0.0154
 7006SOL    HW227756   4.929   0.435   6.162  0.5576 -2.9784 -0.3510
 7006SOL    HW327757   4.872   0.505   6.284  0.2518  1.6159 -2.9022
 7006SOL    MW427758   4.879   0.434   6.234  0.1378 -0.2465 -0.3036
 7007SOL     OW27759   0.078   3.199   5.139  1.0645 -0.3949  0.3498
 7007SOL    HW227760   0.046   3.119   5.097  1.4116 -0.7828  0.8188
 7007SOL    HW327761   0.086   3.176   5.232  1.5116  0.0725  0.4286
 7007SOL    MW427762   0.075   3.185   5.146 -0.4686 -0.0155 -0.3020
 7008SOL     OW27763   5.134   0.167   3.631 -0.2090  0.4169  0.0126
 7008SOL    HW227764   5.222   0.145   3.600 -1.2368 -1.9880 -1.5265
 7008SOL    HW327765   5.147   0.202   3.719  2.2363 -0.3688  0.0256
 7008SOL    MW427766   5.147   0.169   3.638 -0.1868  0.5056 -0.0108
 7009SOL     OW27767   0.346   4.113   1.447  0.0473  0.0142  0.4037
 7009SOL    HW227768   0.414   4.061   1.403 -0.0329  1.7096 -1.8713
 7009SOL    HW327769   0.395   4.178   1.498  0.1580  0.6906 -0.5499
 7009SOL    MW427770   0.362   4.114   1.448 -0.5745  0.1428 -0.1536
 7010SOL     OW27771   3.127   1.303   2.317 -0.1721 -0.0028  0.2372
 7010SOL    HW227772   3.035   1.278   2.308 -0.1494  0.2983 -1.0790
 7010SOL    HW327773   3.176   1.223   2.301 -0.1982 -0.2081  1.1415
 7010SOL    MW427774   3.121   1.289   2.314 -0.2687 -0.5745 -0.2021
 7011SOL     OW27775   5.435   5.153   3.343  0.4189 -0.5606  0.4821
 7011SOL    HW227776   5.381   5.091   3.392  1.1555 -0.2835  1.6932
 7011SOL    HW327777   5.463   5.217   3.408  1.7292 -0.3809 -0.2213
 7011SOL    MW427778   5.432   5.153   3.358 -0.3181  0.2625 -0.1900
 7012SOL     OW27779   2.836   4.240   1.404  0.4399  0.4843 -0.5874
 7012SOL    HW227780   2.886   4.292   1.341  0.2801  3.5627  1.5740
 7012SOL    HW327781   2.749   4.232   1.365  0.9152  0.4472 -1.6831
 7012SOL    MW427782   2.831   4.246   1.391 -0.0639  0.1753  0.1583
 7013SOL     OW27783   4.375   2.857   3.356  0.8449  0.3129 -0.0207
 7013SOL    HW227784   4.338   2.839   3.270 -0.7048  2.9678 -0.0279
 7013SOL    HW327785   4.470   2.859   3.342  0.6570 -0.1834 -1.4617
 7013SOL    MW427786   4.383   2.855   3.343  0.7028 -0.2614 -0.4945
 7014SOL     OW27787   0.046   4.424   5.434 -0.1255  0.1304  0.4884
 7014SOL    HW227788   0.061   4.518   5.424 -1.5395  0.4240  0.9217
 7014SOL    HW327789   0.063   4.407   5.526  2.0375 -0.4412  0.0259
 7014SOL    MW427790   0.050   4.435   5.445 -0.1001 -0.2077 -0.1060
 7015SOL     OW27791   1.097   3.247   0.221 -0.2537 -0.3262 -0.0546
 7015SOL    HW227792   1.102   3.247   0.125  0.5163 -2.2392 -0.0548
 7015SOL    HW327793   1.004   3.247   0.240 -0.4288  1.0985 -0.7624
 7015SOL    MW427794   1.086   3.247   0.211  0.0729  0.4275 -0.2532
 7016SOL     OW27795   0.819   1.356   2.073  0.0831  0.0436 -0.1797
 7016SOL    HW227796   0.789   1.311   1.994 -1.4821  0.2370  0.2687
 7016SOL    HW327797   0.738   1.379   2.119  0.9224  1.4647  0.6323
 7016SOL    MW427798   0.804   1.353   2.069  0.1460 -0.0772  0.0863
 7017SOL     OW27799   5.215   2.595   1.806 -0.0642 -0.6097 -0.0447
 7017SOL    HW227800   5.282   2.536   1.840  0.1916 -0.3051 -0.0223
 7017SOL    HW327801   5.229   2.678   1.852 -1.3653 -0.9514  1.0433
 7017SOL    MW427802   5.225   2.598   1.816  0.4400  0.5672 -0.1670
 7018SOL     OW27803   3.856   1.560   0.098 -0.2944  0.1890  0.3675
 7018SOL    HW227804   3.840   1.647   0.061  1.5074  1.4132  2.2641
 7018SOL    HW327805   3.940   1.533   0.060 -0.0862 -0.0183  0.9620
 7018SOL    MW427806   3.865   1.568   0.088  0.1387  0.3573  0.3138
 7019SOL     OW27807   4.387   3.947   4.747  0.4663  0.0286  0.7237
 7019SOL    HW227808   4.461   3.986   4.794 -0.1133  1.6042  0.4193
 7019SOL    HW327809   4.315   4.009   4.761 -0.9979 -1.7728  1.5374
 7019SOL    MW427810   4.388   3.961   4.755  0.3985 -0.4494 -0.2367
 7020SOL     OW27811   6.175   3.161   1.544 -0.0975  0.2922  0.5382
 7020SOL    HW227812   6.090   3.157   1.587 -0.6293  2.6377 -0.1093
 7020SOL    HW327813   6.155   3.157   1.450  0.4330  1.1724  0.3687
 7020SOL    MW427814   6.162   3.160   1.537  0.5718 -0.1404  0.0793
 7021SOL     OW27815   2.331   5.137   0.777 -0.2522 -1.0797  0.3578
 7021SOL    HW227816   2.361   5.157   0.865  0.0639 -0.8774  0.2060
 7021SOL    HW327817   2.411   5.126   0.726 -0.4326 -0.4224 -0.0760
 7021SOL    MW427818   2.346   5.138   0.782 -0.5001 -0.4983 -0.4527
 7022SOL     OW27819   1.426   1.239   1.459 -0.1447 -0.4192  0.3994
 7022SOL    HW227820   1.418   1.299   1.533 -1.1610  0.6088 -0.5078
 7022SOL    HW327821   1.338   1.205   1.445  0.2059 -1.2688  0.1922
 7022SOL    MW427822   1.414   1.242   1.467 -0.1367 -0.1003 -0.2657
 7023SOL     OW27823   5.371   0.331   1.425  0.3595  0.6018 -0.1912
 7023SOL    HW227824   5.452   0.382   1.416 -0.1241  1.4420  0.1390
 7023SOL    HW327825   5.310   0.371   1.364  0.3502 -0.3823 -0.8491
 7023SOL    MW427826   5.374   0.343   1.416 -0.3388  0.6003  0.0201
 7024SOL     OW27827   5.650   3.564   1.546 -0.0968 -0.0808  0.3447
 7024SOL    HW227828   5.640   3.513   1.466 -0.5629  0.8257 -0.1875
 7024SOL    HW327829   5.564   3.603   1.561  0.5340  1.5109  0.0486
 7024SOL    MW427830   5.638   3.562   1.537  0.1188 -0.7431 -0.1674
 7025SOL     OW27831   1.867   2.823   3.960 -0.0110  0.1754  0.4855
 7025SOL    HW227832   1.938   2.885   3.974  0.3905 -0.2615  0.4095
 7025SOL    HW327833   1.879   2.757   4.028  0.7751 -0.8992 -0.6343
 7025SOL    MW427834   1.878   2.822   3.971 -0.4710  0.2076  0.0779
 7026SOL     OW27835   1.711   3.988   0.992  0.1278 -0.4416  0.4078
 7026SOL    HW227836   1.795   3.990   1.037  0.7204  0.5390 -0.7032
 7026SOL    HW327837   1.724   3.927   0.920 -0.4733 -1.1401  0.8703
 7026SOL    MW427838   1.724   3.980   0.989  0.2525  0.1591  0.5702
 7027SOL     OW27839   0.671   4.915   0.714  0.3611  0.3756  0.0996
 7027SOL    HW227840   0.679   4.932   0.620  1.5427  0.6461  0.2281
 7027SOL    HW327841   0.713   4.990   0.756 -1.7916  1.1928  0.9229
 7027SOL    MW427842   0.678   4.927   0.707  0.9262  0.7799  0.4679
 7028SOL     OW27843   0.908   4.951   4.626 -0.2111  0.3268  0.5175
 7028SOL    HW227844   0.824   4.972   4.669 -0.7155 -1.2863  0.3627
 7028SOL    HW327845   0.921   4.858   4.643  0.4077  0.0289 -1.4342
 7028SOL    MW427846   0.899   4.942   4.634 -0.4156 -0.0278 -0.3778
 7029SOL     OW27847   2.119   6.112   0.773 -0.5119 -0.2042 -0.0444
 7029SOL    HW227848   2.110   6.154   0.858  0.2465  1.3997 -0.7224
 7029SOL    HW327849   2.169   6.033   0.791  0.8419  0.8135  0.8328
 7029SOL    MW427850   2.124   6.107   0.787 -0.0809  0.1871  0.4504
 7030SOL     OW27851   2.554   0.606   4.908 -0.0848 -0.6262 -0.4147
 7030SOL    HW227852   2.528   0.694   4.880  0.9469 -0.2855 -0.3679
 7030SOL    HW327853   2.595   0.567   4.831 -0.5828 -1.0816 -0.4469
 7030SOL    MW427854   2.556   0.612   4.894  0.4358 -0.3307  0.3125
 7031SOL     OW27855   3.370   2.468   3.303  0.4019  0.0574 -0.7249
 7031SOL    HW227856   3.354   2.509   3.388 -0.0687  0.3545 -0.9538
 7031SOL    HW327857   3.465   2.475   3.291  0.5881 -0.7222  0.1400
 7031SOL    MW427858   3.381   2.474   3.312 -0.5121  0.5864  0.5235
 7032SOL     OW27859   3.642   2.821   2.833  0.2463 -0.1187 -0.0947
 7032SOL    HW227860   3.603   2.782   2.755  0.6811 -0.1364 -0.3035
 7032SOL    HW327861   3.580   2.801   2.903 -0.9262  1.2346 -0.7093
 7032SOL    MW427862   3.629   2.813   2.832  0.5286 -0.6840  0.3795
 7033SOL     OW27863   2.358   5.054   1.573  0.0830 -0.0544 -0.0559
 7033SOL    HW227864   2.307   5.130   1.545  1.7985  0.8081 -1.0325
 7033SOL    HW327865   2.449   5.085   1.575  0.8130 -2.0059 -0.2467
 7033SOL    MW427866   2.363   5.068   1.569  0.0440  0.2139 -0.0860
 7034SOL     OW27867   2.087   4.334   2.631 -0.2983  0.5615 -0.2785
 7034SOL    HW227868   2.131   4.419   2.640 -2.6406  1.7349  1.0024
 7034SOL    HW327869   2.029   4.345   2.556 -1.1231  0.3827  0.3156
 7034SOL    MW427870   2.085   4.347   2.623 -0.1355 -0.2239 -0.1299
 7035SOL     OW27871   5.887   5.091   0.382 -0.4921  0.4739 -0.6407
 7035SOL    HW227872   5.850   5.083   0.295 -2.8063  2.0071  0.0978
 7035SOL    HW327873   5.813   5.117   0.437  0.5980 -1.6429  2.0548
 7035SOL    MW427874   5.872   5.093   0.378  0.3455  0.2708 -0.6909
 7036SOL     OW27875   3.790   0.874   4.715  0.0938  0.2978  0.4263
 7036SOL    HW227876   3.788   0.786   4.677 -1.1783  0.6463 -0.3981
 7036SOL    HW327877   3.706   0.881   4.761 -0.0975  1.3069 -0.0695
 7036SOL    MW427878   3.779   0.863   4.716  0.0439 -0.5209  0.2210
 7037SOL     OW27879   5.051   4.578   1.424  0.0579  0.2249  0.4009
 7037SOL    HW227880   5.001   4.582   1.343 -1.0605  0.5602  1.0847
 7037SOL    HW327881   4.991   4.539   1.488  1.3175 -1.1953  0.8004
 7037SOL    MW427882   5.037   4.573   1.422 -0.3578 -0.6382 -0.6070
 7038SOL     OW27883   1.171   2.185   2.380 -0.4308  0.1464 -1.0231
 7038SOL    HW227884   1.093   2.159   2.331  0.1590 -0.6615 -1.5541
 7038SOL    HW327885   1.237   2.119   2.358 -0.2101 -0.4101  1.0413
 7038SOL    MW427886   1.169   2.173   2.371 -0.3588 -0.2822 -0.1676
 7039SOL     OW27887   1.587   5.672   2.250  0.2145  0.3537  0.3900
 7039SOL    HW227888   1.583   5.720   2.167  0.4816  0.8576  0.6646
 7039SOL    HW327889   1.531   5.595   2.236  0.5072  0.2654 -0.3652
 7039SOL    MW427890   1.579   5.668   2.237 -0.0756 -0.3658  0.0938
 7040SOL     OW27891   4.347   0.615   2.794  0.3704  0.1205  0.0004
 7040SOL    HW227892   4.329   0.591   2.703  0.5258 -0.2517  0.0673
 7040SOL    HW327893   4.351   0.532   2.841 -0.5669  0.3507  0.5179
 7040SOL    MW427894   4.345   0.601   2.788  0.1821 -0.1602  0.1227
 7041SOL     OW27895   2.853   6.418   2.305  0.2054 -0.4883 -0.4861
 7041SOL    HW227896   2.757   6.416   2.300  0.1596  1.3089 -1.0562
 7041SOL    HW327897   2.878   6.328   2.323 -1.5550 -1.1710 -1.2290
 7041SOL    MW427898   2.843   6.406   2.307 -0.4422 -0.0579 -0.4951
 7042SOL     OW27899   4.439   1.202   4.283 -0.2421  0.1696 -0.4455
 7042SOL    HW227900   4.356   1.161   4.259 -1.0716  1.4608  0.1139
 7042SOL    HW327901   4.496   1.128   4.305 -0.9572 -0.7876 -1.6407
 7042SOL    MW427902   4.436   1.187   4.283 -0.3642  0.2330 -0.1674
 7043SOL     OW27903   1.896   4.690   4.884 -0.1746  0.5452  0.1851
 7043SOL    HW227904   1.958   4.724   4.948  1.4092 -0.4294 -0.7781
 7043SOL    HW327905   1.930   4.718   4.799 -0.8641 -0.2854 -0.3846
 7043SOL    MW427906   1.908   4.698   4.881 -0.3626 -0.6037  0.2432
 7044SOL     OW27907   1.970   6.398   2.081 -0.6104 -0.3825 -0.0518
 7044SOL    HW227908   1.965   6.467   2.146 -2.2986 -1.4891  1.0685
 7044SOL    HW327909   2.031   6.334   2.118 -1.4411 -0.9332  0.3774
 7044SOL    MW427910   1.978   6.398   2.094 -0.4256  0.2626 -0.8424
 7045SOL     OW27911   2.521   2.010   4.111 -0.1515 -0.1238  0.1012
 7045SOL    HW227912   2.484   1.967   4.034  0.7056 -0.9286  0.1188
 7045SOL    HW327913   2.479   1.966   4.185  1.2043 -1.4582  0.1366
 7045SOL    MW427914   2.511   1.998   4.110  0.1400 -0.8156 -0.0809
 7046SOL     OW27915   4.800   1.422   2.883 -0.2596  0.2074  0.3624
 7046SOL    HW227916   4.759   1.462   2.960  0.8856  0.4931  0.8464
 7046SOL    HW327917   4.887   1.461   2.879  0.4550 -1.3030  0.1198
 7046SOL    MW427918   4.806   1.432   2.893  0.1207 -0.0686 -0.6718
 7047SOL     OW27919   1.816   3.151   4.447 -0.5083 -0.4087 -0.0178
 7047SOL    HW227920   1.799   3.212   4.375 -1.2105  0.2697  0.7011
 7047SOL    HW327921   1.909   3.162   4.466 -0.3874 -0.3709 -0.6182
 7047SOL    MW427922   1.826   3.161   4.440  0.4835 -0.4666 -0.2138
 7048SOL     OW27923   0.781   6.168   4.638 -0.4874 -0.0662 -0.1975
 7048SOL    HW227924   0.815   6.181   4.549 -0.5254 -1.1416 -0.3857
 7048SOL    HW327925   0.706   6.226   4.644 -0.9317 -0.5188 -1.1344
 7048SOL    MW427926   0.776   6.177   4.627 -0.3110 -0.3484 -0.1807
 7049SOL     OW27927   1.076   1.648   4.117  0.2084  0.8106  0.1218
 7049SOL    HW227928   1.045   1.594   4.190  0.5405  1.5898  0.8656
 7049SOL    HW327929   1.059   1.738   4.145  0.9488  1.1536 -0.4751
 7049SOL    MW427930   1.070   1.653   4.130  0.3865  0.7082  0.1738
 7050SOL     OW27931   3.827   2.494   1.609 -0.4379 -0.4364 -0.1959
 7050SOL    HW227932   3.911   2.524   1.642 -0.3748 -1.3637  0.5398
 7050SOL    HW327933   3.805   2.555   1.539  0.6606  0.0436 -0.1389
 7050SOL    MW427934   3.835   2.506   1.604  0.0858 -0.6536 -0.0007
 7051SOL     OW27935   1.434   0.086   4.341  0.5320  0.3470  0.1744
 7051SOL    HW227936   1.522   0.091   4.302  0.4065  0.3451 -0.1075
 7051SOL    HW327937   1.446   0.029   4.417  1.1452  1.7629  1.1842
 7051SOL    MW427938   1.447   0.079   4.346 -0.4601 -0.0132 -0.4962
 7052SOL     OW27939   1.908   1.823   1.705  1.0861 -0.5290 -0.4548
 7052SOL    HW227940   1.920   1.917   1.719  3.2043 -0.7077 -0.6921
 7052SOL    HW327941   1.897   1.813   1.611 -2.5240 -0.2837 -0.1743
 7052SOL    MW427942   1.908   1.834   1.695 -0.3525 -0.0708  0.1869
 7053SOL     OW27943   5.243   0.066   1.420  0.0660 -0.0635 -0.5539
 7053SOL    HW227944   5.290   0.149   1.413 -1.8702  1.1325 -0.2111
 7053SOL    HW327945   5.151   0.089   1.405 -0.7121 -1.8900  0.9433
 7053SOL    MW427946   5.237   0.080   1.417 -0.1641  0.0568 -0.4330
 7054SOL     OW27947   5.118   5.422   1.960  0.1718  0.2754 -0.2356
 7054SOL    HW227948   5.047   5.390   2.016 -0.4610 -0.1520 -1.2653
 7054SOL    HW327949   5.091   5.400   1.871  1.0916  1.0914 -0.7379
 7054SOL    MW427950   5.105   5.415   1.956  0.3426  0.9809 -0.8715
 7055SOL     OW27951   2.101   2.261   1.964  0.5511  0.1265  0.3620
 7055SOL    HW227952   2.147   2.177   1.968  1.1721  0.5013  1.3428
 7055SOL    HW327953   2.116   2.301   2.050  0.3528  1.2907 -0.1320
 7055SOL    MW427954   2.109   2.255   1.976 -0.5925  0.6956 -0.3208
 7056SOL     OW27955   3.391   0.520   6.047  0.0275  0.1133 -0.3333
 7056SOL    HW227956   3.320   0.512   5.983 -0.0804  1.1934 -0.3611
 7056SOL    HW327957   3.362   0.590   6.105  0.7249  0.0204  0.1304
 7056SOL    MW427958   3.378   0.528   6.046 -0.0613 -0.1097  0.0027
 7057SOL     OW27959   2.937   1.090   5.166  0.0874 -0.1199 -0.2082
 7057SOL    HW227960   2.961   1.006   5.205  1.2346  0.3295  0.0967
 7057SOL    HW327961   2.986   1.094   5.084  0.9444  0.7213  0.3197
 7057SOL    MW427962   2.947   1.080   5.160 -0.8010 -0.3027  0.3506
 7058SOL     OW27963   2.558   0.742   2.665  0.5040  0.4379 -0.0335
 7058SOL    HW227964   2.533   0.699   2.747  0.4923 -0.2342 -0.3844
 7058SOL    HW327965   2.593   0.672   2.611 -2.9141  0.0560 -2.0552
 7058SOL    MW427966   2.559   0.727   2.669 -0.4908 -0.0331  0.1781
 7059SOL     OW27967   5.928   2.580   4.392 -0.6748 -0.0394  0.4539
 7059SOL    HW227968   5.848   2.596   4.342  0.7008  1.5122 -1.4228
 7059SOL    HW327969   5.996   2.571   4.326  0.8478 -0.5608  2.0092
 7059SOL    MW427970   5.927   2.581   4.377  0.1866 -0.3187  0.1738
 7060SOL     OW27971   6.387   2.964   0.779 -0.2653 -0.0244 -0.2634
 7060SOL    HW227972   6.480   2.969   0.800 -0.1915  0.1697 -0.6199
 7060SOL    HW327973   6.380   2.895   0.713 -0.2130  0.6945 -1.0495
 7060SOL    MW427974   6.398   2.956   0.773  0.1641  0.1800 -0.3801
 7061SOL     OW27975   2.835   5.514   6.078 -0.2436 -0.0033  0.3116
 7061SOL    HW227976   2.798   5.601   6.090 -1.8678 -0.7200  0.7737
 7061SOL    HW327977   2.850   5.508   5.983  0.1334  0.8612  0.3047
 7061SOL    MW427978   2.832   5.525   6.067 -0.4209 -0.4378 -0.0801
 7062SOL     OW27979   3.594   4.412   4.250  0.1039 -0.3878 -0.0260
 7062SOL    HW227980   3.522   4.350   4.238  2.6624 -3.2216 -2.0543
 7062SOL    HW327981   3.635   4.386   4.333 -0.7329  0.8419  0.8193
 7062SOL    MW427982   3.590   4.401   4.260 -0.6334  0.2540 -0.2095
 7063SOL     OW27983   3.777   5.903   3.307 -0.2693 -0.1620  0.3820
 7063SOL    HW227984   3.710   5.895   3.239  1.7699  0.8782 -1.9533
 7063SOL    HW327985   3.831   5.825   3.297 -0.5445 -0.5207  1.5661
 7063SOL    MW427986   3.775   5.892   3.297 -0.3912 -1.2917 -0.2820
 7064SOL     OW27987   0.946   2.743   2.899 -0.5626  0.5641  0.2530
 7064SOL    HW227988   1.041   2.751   2.896 -0.5059 -0.3140 -1.1714
 7064SOL    HW327989   0.928   2.688   2.976  0.2700 -1.2180 -0.7633
 7064SOL    MW427990   0.956   2.737   2.909 -0.1830 -0.1352 -0.3847
 7065SOL     OW27991   6.155   3.994   2.949 -0.3801  0.3511  0.7724
 7065SOL    HW227992   6.233   4.042   2.978 -0.2655  0.3468  0.4796
 7065SOL    HW327993   6.154   4.006   2.854  0.2461 -1.1061  0.5580
 7065SOL    MW427994   6.166   4.002   2.941  0.2221 -0.3852  0.4293
 7066SOL     OW27995   1.855   3.921   4.005  0.0909 -0.3071 -0.7074
 7066SOL    HW227996   1.927   3.877   4.051 -0.2724 -0.8546 -0.6580
 7066SOL    HW327997   1.854   3.881   3.918  0.4252  0.3434 -1.0161
 7066SOL    MW427998   1.865   3.910   4.000  0.0144 -0.5753 -0.2445
 7067SOL     OW27999   0.993   5.699   1.656 -0.1272 -0.2029  0.0675
 7067SOL    HW228000   1.019   5.783   1.694  0.6273  0.4537 -1.7875
 7067SOL    HW328001   1.059   5.637   1.688  1.4894  0.6629 -1.3961
 7067SOL    MW428002   1.005   5.702   1.665 -0.1791  0.2711  0.6497
 7068SOL     OW28003   3.658   5.296   1.469  0.1216  0.4260  0.4490
 7068SOL    HW228004   3.638   5.382   1.432 -1.0088  1.0957  2.4716
 7068SOL    HW328005   3.703   5.315   1.551 -0.8468 -0.8694  1.3193
 7068SOL    MW428006   3.661   5.310   1.475 -0.4732  0.3660 -0.0145
 7069SOL     OW28007   5.959   5.760   3.406 -0.1447  0.1816  0.0342
 7069SOL    HW228008   5.876   5.715   3.390 -1.0690  1.0239  2.0536
 7069SOL    HW328009   5.940   5.821   3.477  2.1262  0.6781  0.3033
 7069SOL    MW428010   5.945   5.762   3.414 -0.1622 -0.4737 -0.1112
 7070SOL     OW28011   1.600   0.105   4.603 -0.5352 -0.9056 -0.1256
 7070SOL    HW228012   1.518   0.126   4.647 -1.3811 -2.2833 -0.9774
 7070SOL    HW328013   1.606   0.166   4.530  0.8847  1.4139  1.7734
 7070SOL    MW428014   1.590   0.116   4.599  0.2440  0.5151 -0.1347
 7071SOL     OW28015   0.629   4.525   6.274  0.0064  0.0450  0.3790
 7071SOL    HW228016   0.674   4.610   6.267  0.9516 -0.2787  1.9951
 7071SOL    HW328017   0.696   4.461   6.252  0.2291 -0.4082  2.1711
 7071SOL    MW428018   0.644   4.528   6.270 -0.2655 -0.5575 -0.5051
 7072SOL     OW28019   2.094   5.056   4.882  0.3015  0.1687 -0.5434
 7072SOL    HW228020   2.016   5.018   4.841 -2.0866  0.9633  2.8082
 7072SOL    HW328021   2.167   5.007   4.845 -2.1382 -4.0557 -0.3502
 7072SOL    MW428022   2.093   5.045   4.872 -0.4533  0.5159  0.1866
 7073SOL     OW28023   1.204   4.723   1.887 -0.3026  0.2517  0.6598
 7073SOL    HW228024   1.258   4.751   1.960  0.1489  1.4149 -0.0977
 7073SOL    HW328025   1.122   4.772   1.896  0.7236  2.4171 -1.0158
 7073SOL    MW428026   1.200   4.733   1.898 -0.1734  0.3808 -0.1343
 7074SOL     OW28027   3.576   4.447   4.907 -0.0336  0.5342 -0.5929
 7074SOL    HW228028   3.599   4.539   4.892 -1.8960  1.5488  2.0240
 7074SOL    HW328029   3.533   4.447   4.993 -0.6935 -2.7056 -0.8113
 7074SOL    MW428030   3.573   4.459   4.917 -0.5893 -0.0235  0.0398
 7075SOL     OW28031   4.912   4.363   2.578 -0.4823 -0.2539  0.4137
 7075SOL    HW228032   4.874   4.339   2.493 -1.0525  0.6500  0.3934
 7075SOL    HW328033   4.846   4.420   2.618  0.0973 -0.0814  1.1495
 7075SOL    MW428034   4.898   4.368   2.572  0.1128 -0.4546 -0.1914
 7076SOL     OW28035   2.173   3.929   0.829  0.3978  0.3256  0.1001
 7076SOL    HW228036   2.227   3.910   0.905  2.8935  0.6686 -1.4856
 7076SOL    HW328037   2.154   3.844   0.790  1.3941  0.3027 -0.3544
 7076SOL    MW428038   2.177   3.916   0.833  0.0992 -0.4754 -0.2876
 7077SOL     OW28039   0.213   3.616   0.518  0.1000 -0.1241  0.1957
 7077SOL    HW228040   0.216   3.658   0.604 -1.7301  1.7235 -0.5402
 7077SOL    HW328041   0.259   3.677   0.460 -1.4365  0.2840 -0.6592
 7077SOL    MW428042   0.219   3.629   0.521  0.3757 -0.3199 -0.1326
 7078SOL     OW28043   0.147   2.384   4.499  0.0245  0.2983 -0.1964
 7078SOL    HW228044   0.132   2.454   4.562  0.8631  0.8011 -0.5359
 7078SOL    HW328045   0.207   2.422   4.435  0.9545 -0.9024 -0.0797
 7078SOL    MW428046   0.153   2.398   4.499  0.4649 -0.6387  0.2135
 7079SOL     OW28047   0.217   2.881   2.015 -0.0882 -0.0311 -0.2980
 7079SOL    HW228048   0.149   2.838   2.067  0.6656 -0.1577  0.6217
 7079SOL    HW328049   0.284   2.905   2.079  0.4648  0.6232 -1.0989
 7079SOL    MW428050   0.217   2.878   2.030  0.1638  0.4611  0.0298
 7080SOL     OW28051   5.134   3.297   4.439  0.0699  0.6473 -0.1571
 7080SOL    HW228052   5.041   3.282   4.425 -0.4311  2.2471  1.2735
 7080SOL    HW328053   5.171   3.299   4.350 -1.5661  1.9113 -0.8558
 7080SOL    MW428054   5.127   3.295   4.425 -0.5766  0.6245  0.4002
 7081SOL     OW28055   0.062   0.133   5.775 -0.2779 -1.1107  0.3090
 7081SOL    HW228056   0.063   0.116   5.869 -0.9628 -0.7646  0.3851
 7081SOL    HW328057   0.053   0.046   5.735 -0.6080 -1.2075  0.5864
 7081SOL    MW428058   0.061   0.119   5.782  0.4178  0.5786  1.0359
 7082SOL     OW28059   0.931   0.829   4.262 -0.0332 -0.3750  0.3480
 7082SOL    HW228060   1.016   0.851   4.300 -0.1069 -0.0269  0.3209
 7082SOL    HW328061   0.924   0.734   4.271  1.0989 -0.6352 -1.1597
 7082SOL    MW428062   0.941   0.819   4.268 -0.3564  0.2808  0.3967
 7083SOL     OW28063   1.639   3.414   6.199 -0.4736  0.3314  0.0098
 7083SOL    HW228064   1.730   3.410   6.230 -0.9058  0.0188  1.2918
 7083SOL    HW328065   1.630   3.338   6.141 -0.0035  0.2072  0.0930
 7083SOL    MW428066   1.650   3.403   6.195  0.1239  0.0050 -0.3621
 7084SOL     OW28067   3.946   2.638   0.786  0.2623  0.2363  0.3226
 7084SOL    HW228068   3.897   2.603   0.859  0.8362 -0.0124  0.5939
 7084SOL    HW328069   4.033   2.657   0.821  0.3290  0.7943 -0.1138
 7084SOL    MW428070   3.951   2.636   0.800 -0.0391 -0.6630 -0.1217
 7085SOL     OW28071   2.054   4.842   6.389  0.3995  0.0819 -0.1921
 7085SOL    HW228072   1.999   4.820   6.315  1.6708 -0.3785 -1.0332
 7085SOL    HW328073   2.086   4.931   6.370  0.5235  0.0633 -0.0780
 7085SOL    MW428074   2.051   4.851   6.377 -0.7336  0.7337 -0.5428
 7086SOL     OW28075   5.210   4.765   3.205  0.1398  0.1849 -0.1415
 7086SOL    HW228076   5.196   4.672   3.184  0.4643  0.3133 -0.9776
 7086SOL    HW328077   5.245   4.802   3.125 -2.3834  1.6066 -0.7034
 7086SOL    MW428078   5.213   4.757   3.192  0.5089  0.6121 -0.0197
 7087SOL     OW28079   4.748   0.022   0.058 -0.1372  0.5422  0.9110
 7087SOL    HW228080   4.821   0.032   0.119  2.7946  1.9260 -2.4813
 7087SOL    HW328081   4.740   0.108   0.016 -2.0138 -0.3404 -0.6865
 7087SOL    MW428082   4.756   0.035   0.061  0.7172  0.6946 -0.2507
 7088SOL     OW28083   0.586   4.985   5.292  0.5075  0.3135 -0.2164
 7088SOL    HW228084   0.551   5.031   5.368 -2.8746  0.1055 -1.4784
 7088SOL    HW328085   0.592   5.052   5.224  1.5461  0.0836 -0.3697
 7088SOL    MW428086   0.582   5.000   5.293  0.3142 -0.2168  0.5212
 7089SOL     OW28087   5.294   4.157   3.485 -0.8822 -0.5238  0.0361
 7089SOL    HW228088   5.232   4.100   3.439 -1.0895 -1.1095  1.0014
 7089SOL    HW328089   5.319   4.223   3.421 -1.0339 -1.4106 -0.9619
 7089SOL    MW428090   5.289   4.158   3.471  0.7378 -0.2728 -0.5479
 7090SOL     OW28091   2.982   1.123   4.179 -0.0264  0.2411 -0.0604
 7090SOL    HW228092   2.955   1.206   4.217 -1.5988  0.0126 -0.6113
 7090SOL    HW328093   2.979   1.139   4.084 -0.9873 -0.6133 -0.1878
 7090SOL    MW428094   2.978   1.136   4.171  0.3106  0.0586  0.3955
 7091SOL     OW28095   3.000   0.748   3.295 -0.0037  0.5491 -0.1572
 7091SOL    HW228096   2.931   0.807   3.327  0.0385  1.6009 -1.9112
 7091SOL    HW328097   2.963   0.708   3.217  0.9593  0.2488 -0.4661
 7091SOL    MW428098   2.986   0.751   3.289 -0.1928  0.1981 -0.1614
 7092SOL     OW28099   1.638   3.129   3.471  0.5377  0.4591 -0.3469
 7092SOL    HW228100   1.556   3.122   3.421  0.6589 -0.3698 -0.4338
 7092SOL    HW328101   1.701   3.163   3.408  0.5040  0.1382 -0.5571
 7092SOL    MW428102   1.635   3.133   3.456  0.0026  0.5244 -0.1985
 7093SOL     OW28103   0.909   0.748   1.511  0.3056 -0.1456  0.2553
 7093SOL    HW228104   1.000   0.742   1.484  0.4208  0.2622  0.5426
 7093SOL    HW328105   0.882   0.657   1.527  0.0951 -0.4537 -1.6153
 7093SOL    MW428106   0.917   0.735   1.510 -0.7214  0.8027 -0.3811
 7094SOL     OW28107   4.041   1.180   3.978  0.2201  0.2656  0.0757
 7094SOL    HW228108   4.058   1.245   4.046  0.9693 -0.1940  0.3356
 7094SOL    HW328109   4.126   1.169   3.934  0.1616 -0.7342  0.2051
 7094SOL    MW428110   4.055   1.187   3.981 -0.0385  0.3459  0.3182
 7095SOL     OW28111   3.751   3.892   3.259  0.5258 -0.1739  0.1756
 7095SOL    HW228112   3.701   3.956   3.310  2.1608  0.6508  0.8108
 7095SOL    HW328113   3.833   3.882   3.307  0.3268 -2.7896  0.0929
 7095SOL    MW428114   3.755   3.899   3.272  0.1042  0.2127  0.4843
 7096SOL     OW28115   5.402   0.459   2.197  0.2979  0.1138  0.3032
 7096SOL    HW228116   5.388   0.486   2.107  0.8911 -0.5055  0.0175
 7096SOL    HW328117   5.316   0.430   2.227  0.2195 -0.2203 -0.2417
 7096SOL    MW428118   5.389   0.459   2.189  0.2739  0.3807  0.3668
 7097SOL     OW28119   0.155   5.425   0.768 -0.0970  0.0357  0.1268
 7097SOL    HW228120   0.218   5.384   0.827  0.2367 -1.3726 -1.1602
 7097SOL    HW328121   0.206   5.491   0.721  0.2289 -0.5091 -0.2974
 7097SOL    MW428122   0.170   5.428   0.769  0.0131  0.1673 -0.6353
 7098SOL     OW28123   2.986   1.377   5.868 -0.2542 -0.3481  0.0346
 7098SOL    HW228124   2.906   1.415   5.831 -0.0115 -0.7689 -0.9365
 7098SOL    HW328125   3.042   1.453   5.884 -1.4640  0.1623  2.3894
 7098SOL    MW428126   2.983   1.392   5.865 -0.0739 -0.1181  0.3890
 7099SOL     OW28127   0.770   4.433   1.479  0.6225  0.3530 -0.6137
 7099SOL    HW228128   0.760   4.480   1.562  3.3579 -0.5056  0.3436
 7099SOL    HW328129   0.744   4.496   1.412  0.6191  1.9283  0.7889
 7099SOL    MW428130   0.765   4.448   1.481 -0.4760  0.0816 -0.3626
 7100SOL     OW28131   1.395   4.602   1.725 -0.4076 -0.2725 -0.5892
 7100SOL    HW228132   1.455   4.674   1.748 -0.2037 -0.9462  1.1435
 7100SOL    HW328133   1.309   4.632   1.753 -0.2810 -0.7861  0.3939
 7100SOL    MW428134   1.392   4.615   1.732 -0.2400  0.1129  0.2869
 7101SOL     OW28135   0.676   3.982   2.424  0.6422 -0.2835 -0.0691
 7101SOL    HW228136   0.593   3.937   2.406  0.2811  0.1791  0.4081
 7101SOL    HW328137   0.662   4.025   2.509  0.8430  1.0525 -0.6910
 7101SOL    MW428138   0.663   3.982   2.433 -0.6413  0.3178  0.4439
 7102SOL     OW28139   4.042   5.843   1.195 -0.1141 -0.0347  0.4998
 7102SOL    HW228140   4.124   5.872   1.155 -0.3767 -0.1702 -0.1445
 7102SOL    HW328141   3.978   5.910   1.172 -0.7546 -1.1418 -1.1120
 7102SOL    MW428142   4.045   5.855   1.187  0.1714 -0.0799 -0.2050
 7103SOL     OW28143   1.841   5.286   4.007 -0.3433 -0.1799  0.5404
 7103SOL    HW228144   1.851   5.286   3.911 -1.0934  2.0687  0.3925
 7103SOL    HW328145   1.793   5.367   4.026 -3.1917 -2.1732  2.5773
 7103SOL    MW428146   1.836   5.297   3.997  0.1335  0.1746 -0.0427
 7104SOL     OW28147   4.957   1.202   4.530 -0.3245  0.4599 -0.8898
 7104SOL    HW228148   4.875   1.192   4.578  0.2593 -3.2197 -0.3702
 7104SOL    HW328149   4.930   1.214   4.439 -1.3786  2.5491 -0.3627
 7104SOL    MW428150   4.943   1.202   4.524  0.0201 -0.3149  0.4421
 7105SOL     OW28151   6.115   6.235   1.596 -0.1719  0.4392  0.7919
 7105SOL    HW228152   6.057   6.159   1.601 -0.5581  0.6952  0.2779
 7105SOL    HW328153   6.185   6.207   1.536  0.0391  0.2639  1.1155
 7105SOL    MW428154   6.116   6.221   1.589 -0.0374  0.4157 -0.1312
 7106SOL     OW28155   1.738   0.923   3.219  0.5407 -0.2700 -0.1794
 7106SOL    HW228156   1.753   0.933   3.125 -0.0717  1.5274 -0.1233
 7106SOL    HW328157   1.674   0.851   3.225  1.5962 -1.3227 -1.0153
 7106SOL    MW428158   1.731   0.915   3.207 -0.4232  0.1506  0.0430
 7107SOL     OW28159   5.051   6.389   6.000 -0.2336 -0.0692  0.4622
 7107SOL    HW228160   5.059   6.294   5.991 -0.3730  0.0338 -1.0045
 7107SOL    HW328161   4.957   6.406   5.989 -0.1701  0.2541  0.4226
 7107SOL    MW428162   5.040   6.378   5.997 -0.4852 -0.0567  0.6705
 7108SOL     OW28163   5.882   2.689   6.243 -0.1421  0.6585  0.7524
 7108SOL    HW228164   5.966   2.684   6.288  0.1159  0.7291  0.2765
 7108SOL    HW328165   5.824   2.733   6.305  0.6258  2.2115  0.3993
 7108SOL    MW428166   5.885   2.694   6.257 -0.6964 -0.1617 -0.2035
 7109SOL     OW28167   2.136   1.413   0.294  0.0355  0.2885  0.1136
 7109SOL    HW228168   2.110   1.323   0.312 -0.2017  0.6050  1.4007
 7109SOL    HW328169   2.111   1.427   0.203  0.7693 -1.1859 -0.3475
 7109SOL    MW428170   2.130   1.403   0.284  0.0654  0.1473  0.1386
 7110SOL     OW28171   1.170   1.889   4.680  0.1282  0.0958  0.4415
 7110SOL    HW228172   1.188   1.801   4.647 -0.9214  0.3779 -0.9756
 7110SOL    HW328173   1.234   1.945   4.637 -0.9097  0.3894 -0.7703
 7110SOL    MW428174   1.181   1.885   4.670 -0.2532 -1.0216  0.1804
 7111SOL     OW28175   0.091   1.235   3.776 -0.0221  0.3183  0.1456
 7111SOL    HW228176   0.074   1.329   3.763  1.5202  0.5645 -0.3104
 7111SOL    HW328177   0.180   1.232   3.812  0.4790 -1.0319 -1.1482
 7111SOL    MW428178   0.100   1.247   3.779  0.2889 -0.2179  0.3875
 7112SOL     OW28179   4.622   3.760   0.956  0.2729 -0.4568  0.0796
 7112SOL    HW228180   4.537   3.744   0.914  0.6660  0.2106 -1.0355
 7112SOL    HW328181   4.636   3.854   0.946  1.7054 -0.7362 -0.9027
 7112SOL    MW428182   4.612   3.770   0.949  0.0440  0.0718 -0.0688
 7113SOL     OW28183   1.881   3.210   4.930  0.3766 -0.0987 -0.0545
 7113SOL    HW228184   1.878   3.283   4.869 -0.6847 -1.9599 -2.4156
 7113SOL    HW328185   1.791   3.202   4.962 -0.0645 -1.5435 -1.4653
 7113SOL    MW428186   1.869   3.218   4.926  1.0615 -0.8190  0.3716
 7114SOL     OW28187   5.328   2.971   2.164 -0.3615  0.3212 -0.9283
 7114SOL    HW228188   5.310   3.059   2.130  0.8525  0.7211 -0.6150
 7114SOL    HW328189   5.361   2.987   2.253  1.2068 -0.3444 -1.3677
 7114SOL    MW428190   5.330   2.985   2.172 -0.0087  0.1582  0.1321
 7115SOL     OW28191   5.074   4.652   4.921  1.0688  0.2352  0.0034
 7115SOL    HW228192   5.117   4.599   4.854  0.1524  1.5052 -1.6720
 7115SOL    HW328193   4.980   4.640   4.905  0.8178  0.2604  1.3368
 7115SOL    MW428194   5.067   4.644   4.910 -0.6177  0.4632  0.3943
 7116SOL     OW28195   4.518   2.773   6.008 -0.0363 -0.2050 -0.2311
 7116SOL    HW228196   4.566   2.856   6.005  0.5067 -0.4965  0.0787
 7116SOL    HW328197   4.578   2.713   6.053 -1.7491  0.1057  2.7447
 7116SOL    MW428198   4.533   2.776   6.014 -0.1085 -0.2368  0.2005
 7117SOL     OW28199   1.111   0.736   2.888  0.0019 -0.2887  0.0912
 7117SOL    HW228200   1.105   0.830   2.901 -0.9639 -0.5486  1.7788
 7117SOL    HW328201   1.040   0.715   2.827  1.4281  0.2821 -1.8665
 7117SOL    MW428202   1.101   0.746   2.882  0.0370 -0.5936 -0.0322
 7118SOL     OW28203   5.274   2.574   5.189 -0.1034  0.3049 -0.1998
 7118SOL    HW228204   5.293   2.587   5.282 -0.5250 -2.4269  0.3618
 7118SOL    HW328205   5.281   2.661   5.150 -0.2789  1.5958  2.4459
 7118SOL    MW428206   5.277   2.587   5.196  0.1315  0.0527 -0.0473
 7119SOL     OW28207   2.724   4.735   3.572 -0.4267  0.0775  0.2532
 7119SOL    HW228208   2.639   4.716   3.532 -0.1211 -1.5384  0.3189
 7119SOL    HW328209   2.788   4.704   3.508  0.1025  0.4443  0.5999
 7119SOL    MW428210   2.722   4.729   3.558  0.0176 -0.3524  0.2109
 7120SOL     OW28211   2.359   1.887   3.290  0.0688 -0.9908  0.8100
 7120SOL    HW228212   2.362   1.944   3.213 -1.8938 -1.0563  0.6342
 7120SOL    HW328213   2.330   1.944   3.361 -1.6696 -1.6551  0.6856
 7120SOL    MW428214   2.355   1.902   3.289 -0.6096  0.3517 -0.5269
 7121SOL     OW28215   0.394   4.891   4.960 -0.2038 -0.1485 -0.1445
 7121SOL    HW228216   0.435   4.805   4.956 -0.8762 -0.4587 -0.5995
 7121SOL    HW328217   0.306   4.874   4.994 -1.3128 -0.0328 -2.7308
 7121SOL    MW428218   0.388   4.878   4.964  0.1859 -0.8322 -0.5580
 7122SOL     OW28219   5.998   3.615   3.730 -0.0323 -0.9553 -0.1926
 7122SOL    HW228220   5.920   3.646   3.777  1.1908  0.5032  0.9962
 7122SOL    HW328221   6.040   3.554   3.790  0.0245 -1.3192 -0.5984
 7122SOL    MW428222   5.993   3.611   3.744  0.1873  0.1851  0.1446
 7123SOL     OW28223   5.581   4.216   3.001  0.1686  0.2294  1.0789
 7123SOL    HW228224   5.552   4.159   3.072 -1.1578 -0.5777 -0.0446
 7123SOL    HW328225   5.648   4.166   2.955 -0.0940  0.0808  0.8491
 7123SOL    MW428226   5.586   4.202   3.004  0.2417 -0.4359 -0.0937
 7124SOL     OW28227   5.395   3.233   0.597 -0.1367 -0.6010 -0.1928
 7124SOL    HW228228   5.333   3.160   0.593 -2.0300  0.9636 -1.0380
 7124SOL    HW328229   5.342   3.307   0.625  1.3109  0.8601 -1.1800
 7124SOL    MW428230   5.380   3.233   0.600  0.3880 -0.2544 -0.3347
 7125SOL     OW28231   2.886   4.709   2.307 -0.6752  0.0423  0.0805
 7125SOL    HW228232   2.961   4.678   2.256 -1.7646 -0.6929 -1.1641
 7125SOL    HW328233   2.868   4.638   2.368  0.4970  0.8319  1.4005
 7125SOL    MW428234   2.893   4.695   2.308  0.9974 -0.1570 -0.3161
 7126SOL     OW28235   4.107   2.581   3.090 -0.3594 -0.3427  0.0772
 7126SOL    HW228236   4.084   2.604   3.180  0.4642  0.8141  0.0066
 7126SOL    HW328237   4.044   2.628   3.036 -0.8808 -1.0707  0.0360
 7126SOL    MW428238   4.096   2.590   3.095 -0.3649  0.1769  0.6965
 7127SOL     OW28239   0.035   0.853   5.617 -0.2102  0.5767  0.3077
 7127SOL    HW228240   0.013   0.791   5.548  1.8373 -0.1808  0.2904
 7127SOL    HW328241   0.083   0.802   5.682  0.1729  1.8191  1.0469
 7127SOL    MW428242   0.038   0.838   5.617  0.1110  0.1829  0.3370
 7128SOL     OW28243   5.477   4.977   0.159 -0.6265  0.0609  0.2308
 7128SOL    HW228244   5.443   5.066   0.164 -0.0243  0.2406  1.6071
 7128SOL    HW328245   5.467   4.952   0.067  1.0434  2.2889 -0.6508
 7128SOL    MW428246   5.471   4.986   0.148  0.0444  0.2364  0.1111
 7129SOL     OW28247   5.505   3.589   5.909 -0.0080 -0.3270  0.2345
 7129SOL    HW228248   5.469   3.678   5.904 -1.6798 -1.0032 -0.7415
 7129SOL    HW328249   5.589   3.594   5.864  0.1712  0.8534  0.6587
 7129SOL    MW428250   5.511   3.602   5.903 -0.5594 -0.2861 -0.1054
 7130SOL     OW28251   1.750   4.338   4.290  0.2203  0.6855 -0.6375
 7130SOL    HW228252   1.844   4.350   4.278  0.1639  0.9363 -0.8372
 7130SOL    HW328253   1.731   4.252   4.252  0.3391  0.7115 -0.7556
 7130SOL    MW428254   1.760   4.328   4.284  0.4920  0.2804 -0.3211
 7131SOL     OW28255   2.931   2.571   4.063  0.6107  0.5234 -0.0807
 7131SOL    HW228256   2.886   2.486   4.062  1.8460 -0.1683 -1.1302
 7131SOL    HW328257   2.861   2.635   4.056 -0.4314 -0.3376  1.6680
 7131SOL    MW428258   2.916   2.568   4.062 -0.5108 -0.5621 -0.5801
 7132SOL     OW28259   3.436   1.597   3.894 -0.2046 -0.2276  0.0655
 7132SOL    HW228260   3.386   1.596   3.813 -0.2241  1.1160  0.0455
 7132SOL    HW328261   3.373   1.571   3.961 -0.5451 -0.0162 -0.1692
 7132SOL    MW428262   3.421   1.593   3.892 -0.6482  0.1021 -0.1111
 7133SOL     OW28263   4.190   2.919   0.753 -0.3246 -0.2147  0.1994
 7133SOL    HW228264   4.166   2.841   0.804  0.0166  0.1565  0.9467
 7133SOL    HW328265   4.162   2.899   0.664 -3.4982  0.1737  0.9772
 7133SOL    MW428266   4.183   2.906   0.748 -0.3146 -0.0508  0.6492
 7134SOL     OW28267   5.052   1.812   3.037 -0.5076 -0.7492 -0.4485
 7134SOL    HW228268   5.077   1.884   2.979 -1.3938  0.0908  0.1682
 7134SOL    HW328269   5.121   1.808   3.102  1.3639 -2.7701 -2.4024
 7134SOL    MW428270   5.064   1.821   3.038  0.0109 -0.0481  0.6567
 7135SOL     OW28271   5.428   5.843   5.143  0.0778  0.1985 -0.0640
 7135SOL    HW228272   5.420   5.773   5.079  0.0845  0.8064 -0.7445
 7135SOL    HW328273   5.337   5.870   5.160  0.0512 -0.2415  0.5008
 7135SOL    MW428274   5.415   5.838   5.137  0.5823  0.1104  0.1643
 7136SOL     OW28275   5.265   3.708   3.511  0.2426  0.1445 -0.1361
 7136SOL    HW228276   5.300   3.759   3.585 -0.0167 -0.1034  0.1597
 7136SOL    HW328277   5.175   3.740   3.501 -0.2992 -1.0254  0.7763
 7136SOL    MW428278   5.258   3.719   3.520 -0.5391 -0.2583  0.6324
 7137SOL     OW28279   1.381   4.037   5.339 -0.3670 -0.0983  0.1103
 7137SOL    HW228280   1.299   4.085   5.350  0.1541  0.9156 -0.2707
 7137SOL    HW328281   1.445   4.087   5.390  0.3103 -0.0389 -0.7732
 7137SOL    MW428282   1.379   4.050   5.347 -0.3058  0.1875 -0.0973
 7138SOL     OW28283   0.350   5.613   0.695  0.2255 -0.5002 -0.4364
 7138SOL    HW228284   0.360   5.707   0.707 -0.9623  0.0820 -3.1197
 7138SOL    HW328285   0.391   5.596   0.610  0.3482 -2.3833 -0.0303
 7138SOL    MW428286   0.356   5.623   0.685 -0.2338 -0.4053  0.6061
 7139SOL     OW28287   4.298   5.516   3.792 -0.1443 -0.0492  0.2168
 7139SOL    HW228288   4.214   5.562   3.786 -1.1236 -1.6514  1.0064
 7139SOL    HW328289   4.275   5.424   3.785  1.3980 -0.6050  1.9264
 7139SOL    MW428290   4.284   5.510   3.790 -0.5072 -0.1274 -0.4536
 7140SOL     OW28291   2.769   5.668   4.136 -0.3533 -0.3259 -0.2419
 7140SOL    HW228292   2.710   5.601   4.101 -1.7799  0.5846  0.2922
 7140SOL    HW328293   2.749   5.671   4.229  0.8796 -0.2815  0.0376
 7140SOL    MW428294   2.758   5.660   4.143 -0.1631  0.0371 -0.2355
 7141SOL     OW28295   2.108   1.872   5.565 -0.5069 -0.3751  0.1114
 7141SOL    HW228296   2.092   1.850   5.656 -0.0205 -0.9193  0.0747
 7141SOL    HW328297   2.089   1.791   5.517 -2.4802  0.3814 -0.4900
 7141SOL    MW428298   2.103   1.858   5.570  0.0727  0.0281 -0.2669
 7142SOL     OW28299   0.923   3.235   4.201  0.0176  0.1771 -1.0192
 7142SOL    HW228300   0.981   3.213   4.128  0.8165 -1.7175  0.1035
 7142SOL    HW328301   0.980   3.274   4.267 -0.0492 -1.1335 -0.1461
 7142SOL    MW428302   0.938   3.237   4.200 -0.4222  0.2288 -0.1002
 7143SOL     OW28303   5.181   3.259   2.539  0.1620  0.1343  0.2648
 7143SOL    HW228304   5.143   3.337   2.499  0.5700  0.0871 -0.2214
 7143SOL    HW328305   5.114   3.191   2.526  1.5692 -0.7751 -3.4155
 7143SOL    MW428306   5.167   3.260   2.532 -0.0679 -0.6728  0.1524
 7144SOL     OW28307   3.688   0.440   2.357 -0.4305 -1.5383  0.0898
 7144SOL    HW228308   3.608   0.431   2.306 -0.1687 -0.3088 -0.5593
 7144SOL    HW328309   3.716   0.349   2.374 -1.0943 -1.9667 -1.0239
 7144SOL    MW428310   3.681   0.426   2.353 -0.0329 -0.7480  0.1838
 7145SOL     OW28311   2.696   0.324   2.729  0.0181  0.8937  0.0264
 7145SOL    HW228312   2.687   0.395   2.664  1.4400  0.5612 -0.5575
 7145SOL    HW328313   2.606   0.310   2.760 -0.5986  1.5519 -1.3441
 7145SOL    MW428314   2.683   0.332   2.725  0.1599 -0.3572 -0.0303
 7146SOL     OW28315   5.973   4.580   1.366 -0.3596  0.7984  0.1492
 7146SOL    HW228316   5.976   4.675   1.351 -2.1405  1.0993  1.3058
 7146SOL    HW328317   6.033   4.565   1.439  1.3557  0.7038 -1.2164
 7146SOL    MW428318   5.981   4.591   1.373  0.0909  0.0271  0.4438
 7147SOL     OW28319   4.629   6.227   3.290 -0.0719  0.2815  0.0099
 7147SOL    HW228320   4.669   6.146   3.260 -2.2385 -1.0149  0.4607
 7147SOL    HW328321   4.670   6.245   3.374  0.6559 -0.1516 -0.2482
 7147SOL    MW428322   4.640   6.219   3.297 -0.0808  0.3252  0.1492
 7148SOL     OW28323   2.347   4.453   0.301  0.1164 -0.4498  0.8733
 7148SOL    HW228324   2.273   4.394   0.289 -1.0273  0.6734  2.1497
 7148SOL    HW328325   2.394   4.417   0.377  0.6748 -0.9209  0.3211
 7148SOL    MW428326   2.344   4.440   0.309  0.1266 -0.2082  0.0135
 7149SOL     OW28327   4.431   6.087   4.670  0.1054 -0.0805 -0.0173
 7149SOL    HW228328   4.436   6.112   4.577 -0.5696 -0.9035 -0.2778
 7149SOL    HW328329   4.431   5.992   4.670  0.8098 -0.0968  0.8809
 7149SOL    MW428330   4.432   6.078   4.658  0.5226 -0.2024  0.5547
 7150SOL     OW28331   5.022   0.421   5.060 -0.0108  0.2721 -0.0025
 7150SOL    HW228332   5.053   0.378   4.980  1.1025  0.8732  0.0837
 7150SOL    HW328333   5.069   0.376   5.131 -1.7205 -0.9282  0.4405
 7150SOL    MW428334   5.032   0.409   5.059 -0.1180 -0.0545 -0.4788
 7151SOL     OW28335   1.089   2.188   5.284 -0.3894  0.6296 -0.2070
 7151SOL    HW228336   1.067   2.140   5.203 -0.8944 -0.1431  0.3772
 7151SOL    HW328337   1.009   2.186   5.335  0.0479  0.7684  0.4882
 7151SOL    MW428338   1.076   2.181   5.280  0.4169 -0.0304 -0.0168
 7152SOL     OW28339   5.351   0.131   4.819 -0.6376  0.1583 -0.1852
 7152SOL    HW228340   5.440   0.166   4.812 -0.5975  0.1602  0.3045
 7152SOL    HW328341   5.312   0.146   4.733  0.1057 -0.5841 -0.6584
 7152SOL    MW428342   5.357   0.138   4.807  0.3329 -0.3961 -0.3109
 7153SOL     OW28343   4.338   0.974   0.248  0.2054 -0.3777  0.0839
 7153SOL    HW228344   4.280   0.963   0.324  0.3604 -1.0168  0.1155
 7153SOL    HW328345   4.281   0.959   0.172  0.6879 -2.9648  0.1444
 7153SOL    MW428346   4.322   0.970   0.248 -0.0604  0.3457 -0.1352
 7154SOL     OW28347   5.145   1.846   4.965  0.2798  0.3045  0.1571
 7154SOL    HW228348   5.081   1.892   4.911  0.3856  1.1446  0.7333
 7154SOL    HW328349   5.096   1.773   5.002  0.2560 -0.4036 -1.2073
 7154SOL    MW428350   5.130   1.842   4.963  0.4183  0.3513  0.3781
 7155SOL     OW28351   3.019   1.821   1.946  0.1384 -0.3568  0.4894
 7155SOL    HW228352   3.112   1.814   1.963  0.3126  0.7070  0.0293
 7155SOL    HW328353   2.989   1.894   2.000 -0.6023 -1.1838  1.2455
 7155SOL    MW428354   3.027   1.830   1.955  0.1343 -0.0621 -0.2401
 7156SOL     OW28355   6.086   5.914   2.911 -0.2475 -0.4071 -0.4576
 7156SOL    HW228356   6.043   5.938   2.993 -1.7030  0.2880 -1.3811
 7156SOL    HW328357   6.142   5.840   2.934 -0.0544  0.2227  1.3038
 7156SOL    MW428358   6.088   5.908   2.925 -0.0257  0.4549  0.4214
 7157SOL     OW28359   5.631   3.349   3.636  0.8476  0.2197 -0.3979
 7157SOL    HW228360   5.724   3.345   3.615  0.4292  1.3354 -2.9211
 7157SOL    HW328361   5.587   3.317   3.557 -0.9178  1.4732 -0.0017
 7157SOL    MW428362   5.637   3.344   3.623  0.2489  0.5787  0.1202
 7158SOL     OW28363   1.480   2.283   2.234 -0.1213 -0.3637 -0.0313
 7158SOL    HW228364   1.539   2.346   2.194  0.1884 -0.2546  0.5875
 7158SOL    HW328365   1.519   2.263   2.319 -0.1682 -1.4525 -0.2452
 7158SOL    MW428366   1.493   2.288   2.240 -0.1927 -0.3680 -0.1723
 7159SOL     OW28367   1.484   2.607   4.713  0.3419 -0.0429  0.4179
 7159SOL    HW228368   1.548   2.678   4.702  0.2920 -0.1576 -0.7082
 7159SOL    HW328369   1.529   2.544   4.770  0.7328  0.4768  0.6938
 7159SOL    MW428370   1.499   2.608   4.719 -0.1387  0.7354  0.0115
 7160SOL     OW28371   1.170   4.592   4.118  0.8278 -0.2790 -0.2771
 7160SOL    HW228372   1.197   4.565   4.206 -0.7730 -1.1834 -0.0386
 7160SOL    HW328373   1.202   4.682   4.110 -0.4984  0.4624  1.9247
 7160SOL    MW428374   1.178   4.601   4.129  0.3521  0.1489 -0.3776
 7161SOL     OW28375   2.344   1.363   3.265  0.1580  0.3800  0.3007
 7161SOL    HW228376   2.293   1.441   3.244 -0.7117 -0.6993 -1.8024
 7161SOL    HW328377   2.282   1.291   3.259  1.5501 -0.7865 -0.7136
 7161SOL    MW428378   2.329   1.364   3.262 -0.0840  0.0794 -0.4983
 7162SOL     OW28379   4.640   4.919   2.328 -0.1889  0.4961 -0.3991
 7162SOL    HW228380   4.550   4.937   2.299 -0.8153  0.9297  1.6561
 7162SOL    HW328381   4.685   4.888   2.249 -1.7662  1.5854 -1.7896
 7162SOL    MW428382   4.634   4.917   2.314  0.7933 -0.1277 -0.2670
 7163SOL     OW28383   1.521   5.663   0.384 -0.0499 -0.3611  0.2029
 7163SOL    HW228384   1.440   5.621   0.354 -0.5618 -0.1183  1.1749
 7163SOL    HW328385   1.591   5.613   0.342 -0.7131 -0.1040 -1.2413
 7163SOL    MW428386   1.519   5.651   0.375  0.1244  0.2894 -0.3254
 7164SOL     OW28387   4.499   6.163   0.286  0.7797  0.1093  0.2545
 7164SOL    HW228388   4.508   6.155   0.191  0.0355  1.2874  0.0686
 7164SOL    HW328389   4.409   6.191   0.299  0.7055 -0.5895  1.3542
 7164SOL    MW428390   4.489   6.166   0.275 -0.1993 -0.2348  0.2808
 7165SOL     OW28391   2.231   6.415   4.917 -0.2053 -0.3712  0.3074
 7165SOL    HW228392   2.285   6.483   4.955  0.3361  0.6532 -2.1341
 7165SOL    HW328393   2.155   6.461   4.881 -0.8997 -1.3385  0.4719
 7165SOL    MW428394   2.228   6.430   4.917 -0.7399  0.3051  0.0204
 7166SOL     OW28395   2.577   2.253   4.245  0.0319  0.0461 -0.0160
 7166SOL    HW228396   2.526   2.195   4.189 -0.7495 -1.0578  1.7615
 7166SOL    HW328397   2.534   2.249   4.330  1.8258  0.7725  0.9892
 7166SOL    MW428398   2.565   2.245   4.249  0.0818 -0.3630 -0.4634
 7167SOL     OW28399   6.221   2.296   0.725  0.0970  0.0503 -0.2500
 7167SOL    HW228400   6.287   2.228   0.741 -0.0448  0.1098  0.6116
 7167SOL    HW328401   6.227   2.353   0.801  0.2493  1.0458 -0.9911
 7167SOL    MW428402   6.231   2.294   0.737  0.7735 -0.2685  0.2701
 7168SOL     OW28403   5.786   2.956   4.770 -0.2049 -0.0196  0.1311
 7168SOL    HW228404   5.770   2.905   4.849  0.4140  0.4706  0.5900
 7168SOL    HW328405   5.881   2.950   4.756 -0.4561 -1.1728 -1.3275
 7168SOL    MW428406   5.797   2.948   4.778 -0.6945 -0.1238  0.3172
 7169SOL     OW28407   0.503   3.881   1.358  0.4059 -0.1283 -0.2359
 7169SOL    HW228408   0.420   3.859   1.316  0.8851 -1.8978 -0.3440
 7169SOL    HW328409   0.558   3.914   1.286 -0.4177  1.8401 -0.0226
 7169SOL    MW428410   0.500   3.882   1.343  0.2510 -0.0995  0.3197
 7170SOL     OW28411   3.595   6.030   2.960  0.1804 -0.0085 -0.1961
 7170SOL    HW228412   3.605   5.965   3.029 -1.1341  0.4056  0.4042
 7170SOL    HW328413   3.624   5.985   2.881  2.1496 -0.3517  0.6418
 7170SOL    MW428414   3.600   6.016   2.959 -0.1026  0.6826 -0.0422
 7171SOL     OW28415   6.071   2.324   0.227  0.0200  0.4057  0.4976
 7171SOL    HW228416   6.020   2.244   0.216  0.2189  0.3402  0.0259
 7171SOL    HW328417   6.074   2.337   0.322 -0.6039  0.2389  0.5490
 7171SOL    MW428418   6.065   2.315   0.238 -0.0804 -0.1996 -0.5834
 7172SOL     OW28419   2.178   5.046   0.217 -0.0707 -0.2516 -0.1239
 7172SOL    HW228420   2.218   5.048   0.131  0.3777 -0.4399  0.0780
 7172SOL    HW328421   2.204   5.129   0.258 -3.2822  1.6337 -1.4808
 7172SOL    MW428422   2.186   5.057   0.211  0.3738  0.1897  0.7723
 7173SOL     OW28423   3.286   5.614   0.862 -0.4828  0.3588  0.1218
 7173SOL    HW228424   3.349   5.668   0.911 -2.1505  0.4251  2.3001
 7173SOL    HW328425   3.226   5.677   0.823  0.1429  0.2352 -1.1158
 7173SOL    MW428426   3.287   5.630   0.863 -0.1806  0.5848 -0.1499
 7174SOL     OW28427   5.895   5.161   5.468 -0.0889  0.8193  0.8598
 7174SOL    HW228428   5.839   5.189   5.395 -1.4559  0.1830  1.6138
 7174SOL    HW328429   5.971   5.120   5.427 -0.2335  1.5718 -0.2052
 7174SOL    MW428430   5.897   5.160   5.453  0.8203 -0.3493 -0.3203
 7175SOL     OW28431   4.459   6.250   1.452  0.2873 -0.4052  0.3069
 7175SOL    HW228432   4.399   6.308   1.404  0.9949  0.5370  0.5382
 7175SOL    HW328433   4.491   6.189   1.385 -0.9164 -0.9182  0.1829
 7175SOL    MW428434   4.455   6.249   1.437  0.4247  0.6642  0.3967
 7176SOL     OW28435   5.381   4.213   4.328  0.1669 -0.3434  0.2637
 7176SOL    HW228436   5.433   4.264   4.266  1.7211  0.5714  2.2186
 7176SOL    HW328437   5.431   4.132   4.341  0.1023 -0.3149  0.7030
 7176SOL    MW428438   5.394   4.209   4.322  0.2954 -0.3044 -0.2437
 7177SOL     OW28439   2.109   2.581   5.592  0.5897 -0.1748 -0.1735
 7177SOL    HW228440   2.054   2.564   5.669 -0.7297  0.4074 -0.9703
 7177SOL    HW328441   2.152   2.664   5.611  1.4747 -0.7912  0.5942
 7177SOL    MW428442   2.108   2.589   5.605  0.0838  0.5406  0.2915
 7178SOL     OW28443   4.362   3.263   6.069 -0.0084  0.3785  0.4127
 7178SOL    HW228444   4.439   3.219   6.105  0.1517  0.2150 -0.1033
 7178SOL    HW328445   4.319   3.304   6.144  0.4212  0.2221  0.7472
 7178SOL    MW428446   4.366   3.262   6.083 -0.0589  0.0794 -0.0572
 7179SOL     OW28447   3.664   1.217   3.086 -0.0823  0.0284  0.2194
 7179SOL    HW228448   3.700   1.232   2.998 -0.8584  1.2524  0.0988
 7179SOL    HW328449   3.644   1.123   3.087 -1.1727  0.2017 -1.3565
 7179SOL    MW428450   3.666   1.206   3.074 -0.1695  0.0357  0.0508
 7180SOL     OW28451   1.604   3.683   4.623  0.1598 -0.0514  0.3228
 7180SOL    HW228452   1.638   3.612   4.568 -1.4010 -0.2440 -0.4585
 7180SOL    HW328453   1.567   3.638   4.700  0.0515 -0.0033  0.2993
 7180SOL    MW428454   1.603   3.667   4.626 -0.1383  0.1427 -0.5239
 7181SOL     OW28455   1.481   3.549   0.624 -0.1193 -0.2519 -0.1959
 7181SOL    HW228456   1.435   3.519   0.546 -2.2797  1.5516  0.2808
 7181SOL    HW328457   1.413   3.562   0.690  1.3009  0.7119  1.1821
 7181SOL    MW428458   1.466   3.547   0.622 -0.2944 -0.4976  0.0520
 7182SOL     OW28459   0.350   2.616   4.981 -0.7897 -0.2954  0.2230
 7182SOL    HW228460   0.432   2.614   5.030 -1.1643  1.3768  1.0146
 7182SOL    HW328461   0.336   2.526   4.954  2.1224 -0.4100 -1.3692
 7182SOL    MW428462   0.359   2.604   4.984 -0.0780  0.4243  0.6736
 7183SOL     OW28463   2.430   2.153   2.135  0.3819  0.0923 -0.3483
 7183SOL    HW228464   2.415   2.247   2.119  1.7695  0.3294 -0.3209
 7183SOL    HW328465   2.520   2.138   2.109  0.7176 -0.8838  1.2441
 7183SOL    MW428466   2.440   2.164   2.129  0.0424  0.2775  0.1842
 7184SOL     OW28467   3.482   1.475   1.322 -0.4789  0.4566 -0.1379
 7184SOL    HW228468   3.568   1.432   1.323  0.2756  1.8921 -0.4957
 7184SOL    HW328469   3.465   1.496   1.414 -1.1454 -1.1132  0.1238
 7184SOL    MW428470   3.491   1.472   1.334  0.0496  0.4627 -1.3540
 7185SOL     OW28471   2.030   2.606   5.131 -0.0543 -0.5614  0.9745
 7185SOL    HW228472   2.099   2.605   5.197 -0.0091  0.3542  0.9669
 7185SOL    HW328473   1.999   2.697   5.131 -0.9433 -0.8546  0.6491
 7185SOL    MW428474   2.035   2.618   5.139  0.5239 -0.5103  0.0910
 7186SOL     OW28475   3.681   4.315   1.942 -0.2296  0.2134 -0.7038
 7186SOL    HW228476   3.756   4.295   1.886  0.2212  1.1151 -0.4545
 7186SOL    HW328477   3.624   4.239   1.935  0.0283  0.1296 -2.0277
 7186SOL    MW428478   3.684   4.302   1.934 -0.0410  0.5014 -0.9139
 7187SOL     OW28479   2.436   1.504   0.384 -0.2295  0.5872  0.4203
 7187SOL    HW228480   2.354   1.519   0.337 -0.6592 -1.6757  0.3608
 7187SOL    HW328481   2.492   1.578   0.358 -1.3265  0.7712 -1.6502
 7187SOL    MW428482   2.433   1.516   0.374 -0.1708 -0.1555  0.3499
 7188SOL     OW28483   3.965   1.962   2.649  0.4229  0.1227 -0.1121
 7188SOL    HW228484   4.004   1.977   2.562 -2.1382  0.7787 -1.2377
 7188SOL    HW328485   3.949   1.868   2.652  2.0849 -0.1752  0.4111
 7188SOL    MW428486   3.968   1.952   2.638  0.3913  0.7085 -0.6275
 7189SOL     OW28487   1.611   5.328   1.340  0.1276  0.5258  0.0892
 7189SOL    HW228488   1.672   5.401   1.348  1.4623 -0.7015  2.0508
 7189SOL    HW328489   1.664   5.257   1.303 -1.1256  0.4766 -1.7215
 7189SOL    MW428490   1.626   5.328   1.336 -0.3951 -0.5829 -0.2876
 7190SOL     OW28491   6.351   3.680   5.309 -0.7889  0.8324 -0.5039
 7190SOL    HW228492   6.390   3.732   5.239 -1.2727  1.0930 -0.5859
 7190SOL    HW328493   6.258   3.704   5.308 -0.6624  1.4984  0.7934
 7190SOL    MW428494   6.344   3.690   5.300 -0.4082  0.4993 -0.5525
 7191SOL     OW28495   5.463   6.228   5.391  0.4510  0.1879 -0.2794
 7191SOL    HW228496   5.462   6.172   5.469 -0.1844 -0.7716 -0.9480
 7191SOL    HW328497   5.470   6.317   5.425 -0.6402 -0.1608  0.9227
 7191SOL    MW428498   5.464   6.232   5.406 -0.7728  0.0922 -0.1496
 7192SOL     OW28499   5.315   0.244  -0.003  0.2349 -0.4863  0.1538
 7192SOL    HW228500   5.344   0.210   0.082  0.2439 -0.4355  0.1709
 7192SOL    HW328501   5.220   0.247   0.004  0.1900 -1.1544 -0.0894
 7192SOL    MW428502   5.307   0.240   0.009  0.3608  0.1252  0.7360
 7193SOL     OW28503   1.565   5.947   3.790 -0.1928  0.1570 -0.3870
 7193SOL    HW228504   1.500   5.951   3.860 -0.5480  0.2096 -0.7187
 7193SOL    HW328505   1.576   5.854   3.773 -1.7995  0.1803 -1.8159
 7193SOL    MW428506   1.558   5.935   3.797 -0.0292  0.2816  0.1006
 7194SOL     OW28507   5.774   1.676   5.030  0.1042 -0.1463 -0.2303
 7194SOL    HW228508   5.746   1.755   4.983  0.8915 -0.9691 -2.1772
 7194SOL    HW328509   5.867   1.690   5.047  0.8076 -1.4385 -2.4805
 7194SOL    MW428510   5.782   1.688   5.026 -0.1064 -0.5030 -0.0304
 7195SOL     OW28511   3.437   3.456   3.685  0.3408  0.2131  0.3868
 7195SOL    HW228512   3.342   3.467   3.678  0.3106 -0.0912  0.2991
 7195SOL    HW328513   3.450   3.361   3.683  0.5032  0.1660  2.1718
 7195SOL    MW428514   3.426   3.445   3.684 -0.4687  0.5859 -0.1283
 7196SOL     OW28515   1.565   1.770   5.175  0.0402 -0.0010  0.8163
 7196SOL    HW228516   1.541   1.863   5.173 -0.1762 -0.0341  1.4479
 7196SOL    HW328517   1.659   1.769   5.193 -0.1107  0.0888  1.6372
 7196SOL    MW428518   1.574   1.782   5.177 -0.1115 -0.4164 -0.0565
 7197SOL     OW28519   2.879   5.259   3.626  0.2966  0.1633  0.2963
 7197SOL    HW228520   2.830   5.184   3.593 -0.3909 -0.0186  1.6506
 7197SOL    HW328521   2.943   5.279   3.557 -2.4357  1.2094 -2.1365
 7197SOL    MW428522   2.881   5.252   3.613  0.2099  0.3670 -0.3498
 7198SOL     OW28523   2.009   1.583   3.632 -0.4656  0.0982 -0.4242
 7198SOL    HW228524   1.970   1.538   3.707  1.2218 -0.0009  0.4291
 7198SOL    HW328525   2.071   1.520   3.595 -0.6200  0.4802 -1.3832
 7198SOL    MW428526   2.012   1.569   3.637  0.3800 -0.0015 -0.2243
 7199SOL     OW28527   4.780   1.854   4.118  0.0932  0.1904  0.7304
 7199SOL    HW228528   4.701   1.872   4.168  0.8348  0.6944  1.7424
 7199SOL    HW328529   4.849   1.847   4.183  0.8703 -0.3977 -0.1239
 7199SOL    MW428530   4.779   1.855   4.133 -0.1479  0.0463  0.2273
 7200SOL     OW28531   4.788   3.494   4.396 -0.0572  0.0009  0.6108
 7200SOL    HW228532   4.706   3.541   4.382  0.8692  1.2237 -0.9538
 7200SOL    HW328533   4.827   3.537   4.472  0.4292  1.3318 -0.3554
 7200SOL    MW428534   4.783   3.506   4.404  0.6357 -0.2992  0.0677
 7201SOL     OW28535   2.055   5.831   3.924  0.5674 -0.2747 -0.4127
 7201SOL    HW228536   1.983   5.788   3.878 -0.2296 -0.4739  0.9679
 7201SOL    HW328537   2.133   5.807   3.874 -0.1410 -1.3174 -1.0631
 7201SOL    MW428538   2.056   5.823   3.912 -0.1610 -0.2262 -0.1247
 7202SOL     OW28539   1.272   0.288   3.649 -0.0649  0.5835 -0.5202
 7202SOL    HW228540   1.314   0.202   3.646 -2.1446 -0.5240  0.5920
 7202SOL    HW328541   1.321   0.336   3.716  0.5901 -0.0107 -0.5595
 7202SOL    MW428542   1.284   0.283   3.657 -0.4243  0.1863  0.2940
 7203SOL     OW28543   1.602   5.955   0.126 -0.2975 -0.1446 -0.6007
 7203SOL    HW228544   1.685   5.994   0.099  0.3279 -1.0209 -0.0089
 7203SOL    HW328545   1.589   5.986   0.216  0.1398 -1.1544 -0.1700
 7203SOL    MW428546   1.611   5.964   0.134 -0.8606  0.0582  0.0838
 7204SOL     OW28547   0.335   1.113   6.408  0.2118 -0.0121 -0.0682
 7204SOL    HW228548   0.402   1.097   6.475  0.9264  1.5347 -0.3529
 7204SOL    HW328549   0.262   1.151   6.456  0.4420  0.4258 -0.0601
 7204SOL    MW428550   0.334   1.116   6.423  0.2381 -0.2512  0.3549
 7205SOL     OW28551   2.927   4.811   1.746 -0.4000 -0.1083 -0.1655
 7205SOL    HW228552   2.842   4.835   1.709  0.0187 -0.0531 -1.1290
 7205SOL    HW328553   2.988   4.875   1.709  0.3544 -1.2450 -0.9601
 7205SOL    MW428554   2.923   4.823   1.736  0.0171 -0.1223 -0.3108
 7206SOL     OW28555   0.861   1.612   0.737 -0.1107  0.3390 -0.0202
 7206SOL    HW228556   0.951   1.636   0.760 -1.2339  2.5868  2.7086
 7206SOL    HW328557   0.868   1.524   0.700  3.2882  0.8716 -1.0381
 7206SOL    MW428558   0.874   1.604   0.735 -0.3026  0.3915 -0.0042
 7207SOL     OW28559   4.436   6.417   3.582 -0.3290 -0.3282  0.6295
 7207SOL    HW228560   4.411   6.369   3.503 -2.1672  0.0619  0.9318
 7207SOL    HW328561   4.392   6.502   3.573  2.7752  1.3547  0.1349
 7207SOL    MW428562   4.427   6.422   3.570 -0.5437 -0.4076  0.3154
 7208SOL     OW28563   2.255   0.243   0.426  0.6559 -0.7077 -0.1302
 7208SOL    HW228564   2.267   0.191   0.506  1.4847  0.7344  0.7533
 7208SOL    HW328565   2.309   0.199   0.361 -0.8178 -2.4907 -0.2339
 7208SOL    MW428566   2.264   0.230   0.428  0.4239 -0.4033  0.0463
 7209SOL     OW28567   5.963   1.899   0.669  0.0311 -0.2662  0.9425
 7209SOL    HW228568   5.961   1.828   0.605 -0.1214 -0.5806  1.2966
 7209SOL    HW328569   6.046   1.886   0.716  1.2197  1.2243 -0.6102
 7209SOL    MW428570   5.974   1.888   0.667  0.1202 -0.6181 -0.9045
 7210SOL     OW28571   5.888   4.770   4.218  0.1419 -0.6352 -0.3520
 7210SOL    HW228572   5.884   4.838   4.285  2.7136  0.4743 -1.1727
 7210SOL    HW328573   5.903   4.689   4.267  1.1888  0.0404  0.5027
 7210SOL    MW428574   5.890   4.768   4.233  0.2422 -0.2376  0.1715
 7211SOL     OW28575   1.978   1.575   0.452 -0.3797  0.0007  0.1111
 7211SOL    HW228576   2.032   1.522   0.394 -1.0947 -0.5450 -0.0704
 7211SOL    HW328577   2.023   1.660   0.456  0.7024 -0.5640  0.2978
 7211SOL    MW428578   1.991   1.580   0.445 -0.3182 -0.1936  0.4161
 7212SOL     OW28579   0.453   4.579   0.691  0.1220 -0.0507  0.0914
 7212SOL    HW228580   0.399   4.534   0.756 -1.6214  0.4707 -0.9239
 7212SOL    HW328581   0.493   4.508   0.640 -0.6754 -0.4767  0.0293
 7212SOL    MW428582   0.451   4.563   0.693  0.4684  0.4864  0.3592
 7213SOL     OW28583   0.187   1.495   5.405 -0.0459  0.1077  0.3797
 7213SOL    HW228584   0.172   1.579   5.360  1.0809  1.1637  1.8857
 7213SOL    HW328585   0.167   1.429   5.338  1.8539  1.5891 -1.8008
 7213SOL    MW428586   0.182   1.497   5.390  0.2780 -0.2764 -0.3316
 7214SOL     OW28587   5.731   5.043   3.542  0.1116  0.0807  0.5739
 7214SOL    HW228588   5.710   4.972   3.481  0.6593  1.5132 -1.3689
 7214SOL    HW328589   5.649   5.059   3.589 -0.6376 -0.3596 -0.5416
 7214SOL    MW428590   5.718   5.036   3.540 -0.4547  0.3600 -0.4067
 7215SOL     OW28591   1.664   5.071   0.005  0.2949  0.7775 -0.4298
 7215SOL    HW228592   1.649   5.122   0.085 -0.7341  0.3575 -0.3456
 7215SOL    HW328593   1.720   4.999   0.033  0.3016  0.8796 -0.1743
 7215SOL    MW428594   1.669   5.069   0.020  0.0797  0.3617  0.1502
 7216SOL     OW28595   4.713   3.907   4.894  0.4033  0.6037 -0.3616
 7216SOL    HW228596   4.808   3.905   4.880  0.2615  0.9306 -1.5331
 7216SOL    HW328597   4.702   3.897   4.988  1.5427 -1.1355 -0.3702
 7216SOL    MW428598   4.724   3.905   4.904 -0.5748 -0.7339 -0.4562
 7217SOL     OW28599   2.779   4.479   0.431 -0.0000 -0.1634  0.4184
 7217SOL    HW228600   2.733   4.562   0.437 -0.3648 -0.3879  0.7669
 7217SOL    HW328601   2.868   4.502   0.403 -0.1120  0.3355  0.4730
 7217SOL    MW428602   2.785   4.493   0.428 -0.0482  0.7802 -0.2336
 7218SOL     OW28603   2.806   0.178   0.213 -0.2687 -0.2934  0.3634
 7218SOL    HW228604   2.873   0.240   0.183 -0.8478  0.7131  1.0679
 7218SOL    HW328605   2.798   0.115   0.142  0.7233  0.1359 -0.1525
 7218SOL    MW428606   2.814   0.178   0.200 -0.3816  0.5853 -0.0416
 7219SOL     OW28607   2.197   6.425   4.126 -0.3026 -0.7349 -0.2246
 7219SOL    HW228608   2.243   6.493   4.078  2.6577 -2.1095  0.4153
 7219SOL    HW328609   2.216   6.444   4.218  0.3961 -2.2322 -0.0266
 7219SOL    MW428610   2.205   6.437   4.132  0.2432  0.1847  0.3652
 7220SOL     OW28611   1.493   1.391   1.716  0.3514 -0.0897  0.0059
 7220SOL    HW228612   1.471   1.446   1.791  2.0341 -2.3319  2.3346
 7220SOL    HW328613   1.582   1.417   1.692  1.1987 -1.6729  1.1849
 7220SOL    MW428614   1.502   1.402   1.723 -0.6229 -0.8060  0.1695
 7221SOL     OW28615   5.081   2.877   3.359  0.0046 -0.6320  0.6049
 7221SOL    HW228616   5.045   2.919   3.438  0.6965 -0.6616  0.9492
 7221SOL    HW328617   5.020   2.807   3.339 -1.4493  0.8057 -0.2599
 7221SOL    MW428618   5.068   2.873   3.367  0.0934 -0.4159 -0.3471
 7222SOL     OW28619   3.270   5.878   4.225  0.4631  0.2044 -0.6298
 7222SOL    HW228620   3.308   5.887   4.312  1.5484 -1.3953 -0.8850
 7222SOL    HW328621   3.328   5.929   4.168  0.3333  0.4347 -0.5556
 7222SOL    MW428622   3.283   5.886   4.229 -0.1015 -0.5977 -0.2465
 7223SOL     OW28623   2.193   1.331   4.069 -0.0411 -0.2474 -0.6561
 7223SOL    HW228624   2.130   1.286   4.125  1.1889 -2.4902 -0.9650
 7223SOL    HW328625   2.142   1.402   4.028 -2.0201 -1.1767  0.0592
 7223SOL    MW428626   2.178   1.335   4.071  0.3581 -0.5063  0.3912
 7224SOL     OW28627   2.772   4.420   2.167 -0.3488  0.7946 -0.1101
 7224SOL    HW228628   2.847   4.377   2.210 -0.8740 -0.2555 -0.2126
 7224SOL    HW328629   2.808   4.503   2.134  0.6014  0.6172  0.4354
 7224SOL    MW428630   2.787   4.425   2.168 -0.6262 -0.8665  0.3626
 7225SOL     OW28631   1.915   0.701   6.312 -0.0469  0.2900 -0.4734
 7225SOL    HW228632   1.903   0.608   6.329  0.9264  0.4915  1.6370
 7225SOL    HW328633   1.950   0.704   6.223 -1.5341 -1.2117 -1.1685
 7225SOL    MW428634   1.918   0.689   6.302  0.1447  0.5214  0.5164
 7226SOL     OW28635   2.128   0.315   5.114  0.1430  0.2460 -0.0901
 7226SOL    HW228636   2.084   0.240   5.075  1.3582 -0.5223 -0.0278
 7226SOL    HW328637   2.177   0.355   5.041  0.3645  0.3270  0.0995
 7226SOL    MW428638   2.129   0.311   5.099  0.0732  0.2796 -0.0160
 7227SOL     OW28639   4.243   0.057   6.286  0.0307  0.3968  0.4110
 7227SOL    HW228640   4.234   0.086   6.196  1.8568 -0.6124 -0.1430
 7227SOL    HW328641   4.321   0.104   6.318 -0.2348  0.2737  1.2615
 7227SOL    MW428642   4.252   0.067   6.279  0.3033 -0.2467 -0.1420
 7228SOL     OW28643   4.277   4.933   4.239 -0.4919  0.1195 -0.4047
 7228SOL    HW228644   4.321   4.849   4.254  0.6813  0.9113  0.8036
 7228SOL    HW328645   4.347   4.995   4.222 -1.3299  0.9243 -1.0515
 7228SOL    MW428646   4.292   4.930   4.239  0.7594 -0.0157 -1.0823
 7229SOL     OW28647   5.490   0.505   0.305  0.0793 -0.2962 -0.3103
 7229SOL    HW228648   5.547   0.560   0.358  1.1747 -2.6908  1.1769
 7229SOL    HW328649   5.478   0.426   0.358 -4.6645 -0.0017 -0.4921
 7229SOL    MW428650   5.496   0.502   0.319 -0.6422 -0.6347 -0.0402
 7230SOL     OW28651   6.315   5.695   5.354 -0.1744 -0.2221 -0.5921
 7230SOL    HW228652   6.370   5.623   5.385  1.0038  0.3367 -1.3226
 7230SOL    HW328653   6.226   5.663   5.365  0.3196 -1.7089 -0.6944
 7230SOL    MW428654   6.311   5.682   5.359 -0.1815 -0.5084  0.5607
 7231SOL     OW28655   1.631   3.030   6.253  0.0437 -0.2989  0.0046
 7231SOL    HW228656   1.693   3.031   6.326 -1.0384 -1.0146  0.9722
 7231SOL    HW328657   1.641   2.943   6.214 -1.7750 -1.2503  1.4925
 7231SOL    MW428658   1.641   3.019   6.258 -0.2367  0.1131  0.2076
 7232SOL     OW28659   2.996   5.752   5.759  0.8951  0.1352  0.1695
 7232SOL    HW228660   3.033   5.815   5.821  3.0144 -0.4181 -0.4456
 7232SOL    HW328661   3.062   5.683   5.753  0.0472 -0.5826 -1.5327
 7232SOL    MW428662   3.010   5.751   5.767 -0.0870 -0.4699  0.0752
 7233SOL     OW28663   4.053   4.056   2.753  0.1972 -0.0796  0.0801
 7233SOL    HW228664   3.991   3.997   2.711 -0.5050 -0.5155  1.6265
 7233SOL    HW328665   4.003   4.135   2.773  0.4488  0.0372  0.2660
 7233SOL    MW428666   4.038   4.058   2.750 -0.4357  0.1216  0.3259
 7234SOL     OW28667   0.340   5.395   1.478  0.4706 -0.4967  0.0530
 7234SOL    HW228668   0.364   5.419   1.567  0.1799  1.6653 -0.4024
 7234SOL    HW328669   0.359   5.473   1.426  0.2023 -1.5512 -1.7012
 7234SOL    MW428670   0.345   5.408   1.483  0.0779 -0.3034  0.1346
 7235SOL     OW28671   0.220   4.101   5.318 -0.5171 -0.4773 -0.5644
 7235SOL    HW228672   0.215   4.154   5.238  0.1756 -0.0716 -0.3514
 7235SOL    HW328673   0.129   4.089   5.345 -0.8521 -1.5571 -2.0142
 7235SOL    MW428674   0.208   4.106   5.311  0.5272  0.0002 -0.4904
 7236SOL     OW28675   5.011   3.791   2.411 -1.1837  0.2094  0.1602
 7236SOL    HW228676   4.993   3.697   2.422  0.5911 -0.2464 -0.5129
 7236SOL    HW328677   5.006   3.826   2.500 -1.9673 -0.4989  0.4131
 7236SOL    MW428678   5.008   3.783   2.424  0.0325 -0.2160 -0.0619
 7237SOL     OW28679   4.509   5.113   1.773  0.2611  0.2472  0.7811
 7237SOL    HW228680   4.498   5.206   1.751 -1.4385 -0.0282  0.2829
 7237SOL    HW328681   4.425   5.087   1.810  1.0997 -0.8261  2.0290
 7237SOL    MW428682   4.496   5.122   1.775 -0.3346 -0.0153  0.4993
 7238SOL     OW28683   4.366   5.098   2.552 -0.1337  0.6025  0.4004
 7238SOL    HW228684   4.280   5.071   2.585 -0.0903  0.8625  0.7363
 7238SOL    HW328685   4.429   5.057   2.611 -0.0906  2.3899  1.7012
 7238SOL    MW428686   4.363   5.089   2.564 -0.3269  0.0745  1.3249
 7239SOL     OW28687   5.234   6.142   5.021  0.2856 -0.1716 -0.2334
 7239SOL    HW228688   5.312   6.198   5.023 -0.2891  0.6143  0.4325
 7239SOL    HW328689   5.167   6.194   4.978 -0.2313 -0.3727  0.3154
 7239SOL    MW428690   5.236   6.156   5.016 -0.1823  0.2120  0.2532
 7240SOL     OW28691   1.750   3.249   2.996  0.1152 -0.2273 -0.1275
 7240SOL    HW228692   1.723   3.171   2.946  0.6837  0.9551 -2.4336
 7240SOL    HW328693   1.714   3.235   3.083 -0.3302 -2.7829 -0.6260
 7240SOL    MW428694   1.742   3.237   3.001 -0.2987  0.3066 -0.4794
 7241SOL     OW28695   3.443   4.423   0.127  0.1131 -0.8589  0.1126
 7241SOL    HW228696   3.380   4.351   0.120 -0.6379 -0.3461  1.2310
 7241SOL    HW328697   3.389   4.502   0.127  0.9153 -0.2988 -0.8410
 7241SOL    MW428698   3.427   4.424   0.126  0.1791  0.3094  0.1877
 7242SOL     OW28699   0.641   3.752   5.222 -0.1069 -0.3821  0.1295
 7242SOL    HW228700   0.701   3.757   5.147 -1.8834  1.5743 -1.3125
 7242SOL    HW328701   0.693   3.784   5.296  0.8530  0.5425 -0.8969
 7242SOL    MW428702   0.656   3.757   5.222  0.6200  0.0969  0.2261
 7243SOL     OW28703   0.967   1.060   6.309  0.1275 -0.3385 -0.3800
 7243SOL    HW228704   0.958   0.975   6.352  0.3251 -0.6416 -0.9255
 7243SOL    HW328705   0.879   1.079   6.275 -0.1542  0.1349  0.5553
 7243SOL    MW428706   0.954   1.051   6.310  0.0548 -0.3906 -0.0005
 7244SOL     OW28707   4.176   3.702   6.178 -0.4812  0.4611  0.0757
 7244SOL    HW228708   4.137   3.783   6.210  1.3369  1.4230 -0.0164
 7244SOL    HW328709   4.263   3.700   6.216 -1.0340 -2.3519  1.4714
 7244SOL    MW428710   4.182   3.712   6.187  0.4462  0.1491  0.9378
 7245SOL     OW28711   4.514   0.315   5.642 -0.1162  0.0593 -0.4831
 7245SOL    HW228712   4.420   0.323   5.623 -0.9949 -1.1437  2.6344
 7245SOL    HW328713   4.540   0.233   5.601 -0.3241  0.5442 -1.6183
 7245SOL    MW428714   4.505   0.306   5.634  0.1572  0.6018  0.3100
 7246SOL     OW28715   0.789   3.718   5.504 -0.7441 -0.7673 -0.7176
 7246SOL    HW228716   0.842   3.713   5.424  0.4177 -1.5165  0.0672
 7246SOL    HW328717   0.806   3.807   5.538  1.0550 -1.3930  0.1701
 7246SOL    MW428718   0.798   3.729   5.498 -0.1358 -0.1819 -0.7706
 7247SOL     OW28719   5.763   1.686   0.241 -0.3482 -0.3440  0.3636
 7247SOL    HW228720   5.715   1.605   0.261 -1.7336  0.7207  1.5760
 7247SOL    HW328721   5.778   1.726   0.327  1.1776  0.2310 -0.1541
 7247SOL    MW428722   5.759   1.680   0.255 -0.4805  0.0950 -0.1729
 7248SOL     OW28723   3.326   3.343   3.237  0.5898 -0.0278  0.2809
 7248SOL    HW228724   3.387   3.374   3.170  1.1533  0.1316  0.8565
 7248SOL    HW328725   3.368   3.366   3.320 -1.4289  2.4180  0.7352
 7248SOL    MW428726   3.340   3.350   3.239  0.4334  0.2756 -0.0340
 7249SOL     OW28727   0.484   5.874   4.491  0.1357 -0.2417 -0.3775
 7249SOL    HW228728   0.470   5.886   4.397 -0.4409  0.5088 -0.2072
 7249SOL    HW328729   0.579   5.871   4.500  0.1987 -1.9480 -1.1601
 7249SOL    MW428730   0.494   5.875   4.479 -0.5749  0.0256 -0.4560
 7250SOL     OW28731   1.375   1.747   5.821  0.7518 -0.1314 -0.0706
 7250SOL    HW228732   1.423   1.737   5.739  0.0027 -2.0587 -0.3256
 7250SOL    HW328733   1.441   1.737   5.889  1.1169 -0.1797 -0.4307
 7250SOL    MW428734   1.390   1.744   5.819  0.5044  0.6500  0.6274
 7251SOL     OW28735   5.471   4.139   1.783  0.9799  0.0574 -0.3131
 7251SOL    HW228736   5.519   4.186   1.714  0.6694  0.9273  0.0440
 7251SOL    HW328737   5.476   4.047   1.757  3.8002 -0.0516  0.2989
 7251SOL    MW428738   5.478   4.133   1.770 -0.0726  0.5090 -0.1163
 7252SOL     OW28739   1.788   1.600   3.435  0.7100  0.2487  0.9971
 7252SOL    HW228740   1.856   1.582   3.499  0.4767  2.5554  1.9979
 7252SOL    HW328741   1.818   1.558   3.354  2.6911  0.1631  1.7314
 7252SOL    MW428742   1.801   1.592   3.433 -0.4456 -0.3744  0.2371
 7253SOL     OW28743   1.163   3.842   5.109 -0.3828 -0.1322 -0.1985
 7253SOL    HW228744   1.137   3.933   5.101 -1.6366 -0.6295 -4.0315
 7253SOL    HW328745   1.258   3.843   5.092 -0.4506  0.4276 -0.5724
 7253SOL    MW428746   1.172   3.854   5.106 -0.1202  0.1582  0.7264
 7254SOL     OW28747   3.657   3.893   1.737  0.1180 -0.1306  0.1375
 7254SOL    HW228748   3.609   3.855   1.811  1.5210  0.6629  1.5179
 7254SOL    HW328749   3.593   3.952   1.696 -1.0725 -1.5213 -0.1079
 7254SOL    MW428750   3.642   3.896   1.742 -0.2581  0.1280  0.0292
 7255SOL     OW28751   0.526   2.645   4.531 -0.1657  0.0493 -0.4726
 7255SOL    HW228752   0.585   2.572   4.552 -0.1094  0.0484 -0.6313
 7255SOL    HW328753   0.584   2.720   4.522 -0.3332  0.3321  0.7356
 7255SOL    MW428754   0.542   2.645   4.532 -0.0725  0.3554  0.6291
 7256SOL     OW28755   3.394   4.998   2.376  0.3263  0.4228 -0.6317
 7256SOL    HW228756   3.348   5.036   2.451 -0.5795 -2.5944  0.4789
 7256SOL    HW328757   3.461   5.063   2.354 -0.6573  2.3084  1.5060
 7256SOL    MW428758   3.397   5.012   2.383 -0.7768 -0.3781 -0.3486
 7257SOL     OW28759   4.520   1.805   3.791 -0.5291  0.3091 -0.1938
 7257SOL    HW228760   4.589   1.762   3.841 -1.3774 -1.1060 -0.1748
 7257SOL    HW328761   4.446   1.809   3.852 -1.4102 -0.9690 -1.1336
 7257SOL    MW428762   4.519   1.800   3.806  0.5207  0.1025  0.6012
 7258SOL     OW28763   1.113   6.283   0.231 -0.0921 -0.1922  0.5094
 7258SOL    HW228764   1.083   6.374   0.227 -1.5706 -0.5520  2.0484
 7258SOL    HW328765   1.199   6.285   0.190 -1.0899  1.4140 -1.7433
 7258SOL    MW428766   1.120   6.296   0.225  0.4102  0.8363  0.1358
 7259SOL     OW28767   0.460   4.521   2.881  0.0394  0.1785  0.1880
 7259SOL    HW228768   0.413   4.604   2.871 -0.9416 -0.2651  0.8931
 7259SOL    HW328769   0.401   4.455   2.843  1.3176 -0.0849 -1.4560
 7259SOL    MW428770   0.446   4.523   2.875 -0.2512 -0.3814  0.7700
 7260SOL     OW28771   3.884   3.399   5.562  0.2126 -0.1772  0.3329
 7260SOL    HW228772   3.890   3.451   5.642  1.1345  1.1367 -0.5389
 7260SOL    HW328773   3.805   3.431   5.518  0.2801 -0.1406  0.2360
 7260SOL    MW428774   3.875   3.410   5.566  0.2546 -0.5504 -0.1509
 7261SOL     OW28775   0.227   4.697   6.074  0.1020  0.4108  0.2323
 7261SOL    HW228776   0.311   4.653   6.062  0.0123  0.5748 -1.2442
 7261SOL    HW328777   0.244   4.789   6.053 -0.9380  0.0226 -2.7958
 7261SOL    MW428778   0.240   4.703   6.069  0.1143  0.0743  0.0651
 7262SOL     OW28779   4.276   2.428   2.677 -0.1957  0.4046  0.2835
 7262SOL    HW228780   4.281   2.437   2.582  0.5294  1.2556  0.3891
 7262SOL    HW328781   4.183   2.439   2.697 -0.4791 -0.6303 -0.3907
 7262SOL    MW428782   4.264   2.431   2.667  0.5417  0.7163 -0.3746
 7263SOL     OW28783   3.489   4.752   3.723 -0.2091  0.4240  0.4593
 7263SOL    HW228784   3.407   4.774   3.767  0.5089  1.9321  1.1259
 7263SOL    HW328785   3.509   4.828   3.668  0.1182 -0.4516 -0.6763
 7263SOL    MW428786   3.481   4.765   3.722  0.0637 -0.7061  0.3479
 7264SOL     OW28787   0.795   3.275   3.352 -0.0833  0.1242 -0.7677
 7264SOL    HW228788   0.797   3.307   3.442 -1.4077 -0.0622 -0.6402
 7264SOL    HW328789   0.886   3.260   3.329  0.2091 -0.8993  0.9319
 7264SOL    MW428790   0.807   3.277   3.361 -0.2129 -0.0730 -1.0730
 7265SOL     OW28791   3.172   6.304   1.040  0.2672  0.0894  0.4205
 7265SOL    HW228792   3.157   6.282   1.132  0.9425 -0.6162  0.3762
 7265SOL    HW328793   3.241   6.244   1.012 -1.3426 -1.1718 -1.1157
 7265SOL    MW428794   3.179   6.293   1.049  0.0213  0.2487  0.1590
 7266SOL     OW28795   4.479   1.236   0.190 -0.0610  0.0181  0.2636
 7266SOL    HW228796   4.438   1.149   0.192  2.1734 -1.2533 -2.5311
 7266SOL    HW328797   4.465   1.271   0.278 -2.4197 -2.4695  1.0177
 7266SOL    MW428798   4.471   1.229   0.202  0.3001  0.4200 -0.2258
 7267SOL     OW28799   0.364   5.405   2.069 -0.1137  0.1191 -0.0447
 7267SOL    HW228800   0.294   5.424   2.006 -0.2355  1.4366  0.4605
 7267SOL    HW328801   0.371   5.484   2.122 -0.8339 -1.3707  2.4141
 7267SOL    MW428802   0.356   5.418   2.068  0.7850 -0.3201 -0.2379
 7268SOL     OW28803   0.113   5.479   0.405  0.1403 -0.0109 -0.1986
 7268SOL    HW228804   0.070   5.406   0.450  1.3554 -0.4191  0.3543
 7268SOL    HW328805   0.073   5.557   0.443  0.4529 -0.3669  0.9018
 7268SOL    MW428806   0.102   5.480   0.416 -0.1410 -0.4381  0.0278
 7269SOL     OW28807   2.270   3.130   2.971 -0.6555 -0.1463  0.1396
 7269SOL    HW228808   2.211   3.095   3.038 -3.1147  0.7341 -1.4446
 7269SOL    HW328809   2.225   3.207   2.937  1.3442  0.4589 -1.3036
 7269SOL    MW428810   2.256   3.135   2.975 -0.3534 -0.1756 -0.2486
 7270SOL     OW28811   0.329   3.230   0.417 -0.9183  0.1953 -0.3000
 7270SOL    HW228812   0.338   3.325   0.426  1.4856 -0.1506  3.3885
 7270SOL    HW328813   0.289   3.202   0.500 -2.3670 -1.9885 -1.6458
 7270SOL    MW428814   0.325   3.239   0.429  0.0142 -0.3657 -0.2121
 7271SOL     OW28815   5.676   5.032   3.221 -0.5909 -0.1306 -0.6100
 7271SOL    HW228816   5.681   5.077   3.137 -0.6990  0.1415 -0.4748
 7271SOL    HW328817   5.592   5.060   3.258  0.2376  1.1672  0.3721
 7271SOL    MW428818   5.665   5.042   3.215 -0.2816 -0.2552  0.1234
 7272SOL     OW28819   4.582   4.898   2.972  0.2225 -0.2745 -0.2599
 7272SOL    HW228820   4.621   4.811   2.966  1.0368  0.1343 -1.2667
 7272SOL    HW328821   4.654   4.955   2.998  0.0389  0.3088 -0.9951
 7272SOL    MW428822   4.597   4.894   2.974  0.5397 -0.7335  0.0617
 7273SOL     OW28823   5.596   0.664   4.471  0.0071 -0.0397  0.1902
 7273SOL    HW228824   5.634   0.594   4.418  0.7027  1.5514 -1.5908
 7273SOL    HW328825   5.625   0.646   4.560  2.4103 -0.6150 -0.6160
 7273SOL    MW428826   5.605   0.653   4.476 -0.1513  0.3314  0.1024
 7274SOL     OW28827   0.662   4.548   1.248  0.1647  0.0012  0.4319
 7274SOL    HW228828   0.725   4.620   1.251  1.4647 -1.0544 -0.2584
 7274SOL    HW328829   0.590   4.581   1.195  1.2761  0.4067 -0.8784
 7274SOL    MW428830   0.661   4.562   1.242  0.0148  0.1340 -0.0754
 7275SOL     OW28831   4.313   1.881   3.426 -0.4367 -0.0471 -0.5159
 7275SOL    HW228832   4.223   1.856   3.443  0.0914 -1.2582  0.7733
 7275SOL    HW328833   4.363   1.801   3.442  0.8821  0.6361 -1.0542
 7275SOL    MW428834   4.308   1.867   3.430 -0.1373 -0.5578 -0.3569
 7276SOL     OW28835   4.487   4.843   1.160  0.3177 -0.0219 -0.2626
 7276SOL    HW228836   4.405   4.881   1.191  0.9587  0.5188  0.8501
 7276SOL    HW328837   4.461   4.769   1.105 -0.9320  1.0394 -1.1663
 7276SOL    MW428838   4.473   4.838   1.157 -0.2559 -0.3213  0.1169
 7277SOL     OW28839   4.633   4.160   4.411  0.0215 -0.3057  0.5991
 7277SOL    HW228840   4.718   4.173   4.453 -0.2032  0.1649  0.9104
 7277SOL    HW328841   4.610   4.069   4.431  1.1111 -0.9252 -0.7021
 7277SOL    MW428842   4.641   4.150   4.419 -0.2005  0.2598 -0.1942
 7278SOL     OW28843   1.010   5.948   3.102  0.4054  0.0680 -0.4224
 7278SOL    HW228844   0.930   5.932   3.151 -0.1241 -0.0816 -1.3119
 7278SOL    HW328845   0.983   6.006   3.031  0.8999 -0.6372 -1.2097
 7278SOL    MW428846   0.996   5.953   3.099  0.1771 -0.2575 -0.3159
 7279SOL     OW28847   0.217   0.882   0.473  0.2599  0.0761 -0.0114
 7279SOL    HW228848   0.227   0.955   0.412  2.5286 -1.4536 -1.6582
 7279SOL    HW328849   0.247   0.917   0.557  0.8749  1.1762 -0.6581
 7279SOL    MW428850   0.222   0.896   0.476 -0.0334  0.0304 -0.1270
 7280SOL     OW28851   5.768   6.232   0.962  0.2469 -0.3106  0.1732
 7280SOL    HW228852   5.705   6.223   0.890  0.5469  2.9084 -0.6585
 7280SOL    HW328853   5.806   6.319   0.949  1.7585 -0.4184  3.1343
 7280SOL    MW428854   5.765   6.242   0.951 -0.7729 -0.0716  0.8974
 7281SOL     OW28855   0.906   4.732   0.607 -0.3954  0.2256  0.1167
 7281SOL    HW228856   0.923   4.815   0.562 -0.9512  0.6986  0.7698
 7281SOL    HW328857   0.836   4.752   0.670  1.6871  0.0719  2.6201
 7281SOL    MW428858   0.899   4.746   0.609 -0.0490  0.2136  0.4613
 7282SOL     OW28859   2.410   2.429   2.096  0.0934  0.2869 -0.3450
 7282SOL    HW228860   2.400   2.456   2.005 -1.0220 -0.6262 -0.5277
 7282SOL    HW328861   2.320   2.428   2.130  0.5728  1.5117  1.0494
 7282SOL    MW428862   2.397   2.432   2.089 -0.0027  0.1624 -0.1005
 7283SOL     OW28863   5.748   3.975   4.715 -0.1161 -0.6765  0.3028
 7283SOL    HW228864   5.824   3.974   4.657 -0.2504  0.1251  0.1058
 7283SOL    HW328865   5.731   4.068   4.730 -0.9384 -0.8567  0.5042
 7283SOL    MW428866   5.756   3.987   4.709  0.5076 -0.2864 -0.2846
 7284SOL     OW28867   2.755   4.609   5.004 -0.2465  0.4628 -0.2965
 7284SOL    HW228868   2.668   4.589   4.968  0.7642 -0.8808 -2.1839
 7284SOL    HW328869   2.816   4.571   4.941  1.7173 -1.1282  2.3430
 7284SOL    MW428870   2.751   4.601   4.991  0.2030 -0.4180  0.0487
 7285SOL     OW28871   0.764   1.202   0.497 -0.0161  0.5293  0.5132
 7285SOL    HW228872   0.669   1.198   0.504  0.0694  0.1153  1.6691
 7285SOL    HW328873   0.780   1.264   0.426 -1.1417  1.8880  1.3735
 7285SOL    MW428874   0.754   1.210   0.489  0.2106 -0.1737 -0.5965
 7286SOL     OW28875   5.653   0.729   0.935  0.2751  0.7369 -0.0398
 7286SOL    HW228876   5.598   0.731   1.014  2.7780 -1.8251  1.9980
 7286SOL    HW328877   5.697   0.814   0.935 -1.0074  1.4282  0.3185
 7286SOL    MW428878   5.651   0.741   0.946  1.0836  0.5704  0.7845
 7287SOL     OW28879   0.642   1.390   3.103  0.5682  0.0083  0.4475
 7287SOL    HW228880   0.723   1.434   3.131 -0.1126  0.1882  2.3379
 7287SOL    HW328881   0.589   1.459   3.065  0.4319  0.3881  1.2881
 7287SOL    MW428882   0.645   1.405   3.102  0.4064 -0.0056 -0.4889
 7288SOL     OW28883   3.962   3.815   5.103 -0.0816 -0.2212 -0.1196
 7288SOL    HW228884   3.875   3.821   5.066  0.3715 -0.4269 -1.2544
 7288SOL    HW328885   3.949   3.775   5.189 -1.0254 -1.0052 -0.6016
 7288SOL    MW428886   3.949   3.810   5.110 -0.2411  0.0611  0.3851
 7289SOL     OW28887   5.227   6.100   1.937  0.4842 -0.2859  0.3397
 7289SOL    HW228888   5.237   6.017   1.985 -1.4077  0.1607  1.6453
 7289SOL    HW328889   5.184   6.158   2.000  0.5766  1.2760 -0.9891
 7289SOL    MW428890   5.223   6.097   1.952 -0.8162  0.3029 -0.1231
 7290SOL     OW28891   5.201   2.361   2.066  0.5317  0.4157 -0.1500
 7290SOL    HW228892   5.234   2.318   2.145 -0.2813 -0.1299 -0.1011
 7290SOL    HW328893   5.198   2.291   2.001 -2.3429 -0.0358  0.3658
 7290SOL    MW428894   5.205   2.346   2.068  0.4863  0.0800 -0.3810
 7291SOL     OW28895   4.933   3.793   2.055 -0.4553  0.4268  0.2704
 7291SOL    HW228896   4.994   3.721   2.073 -2.7508 -1.4034  1.1430
 7291SOL    HW328897   4.937   3.804   1.960 -0.8185 -1.5981 -0.0061
 7291SOL    MW428898   4.942   3.785   2.045  0.3320 -0.0484 -0.4712
 7292SOL     OW28899   5.115   0.263   5.880 -0.0670  0.0149  0.1080
 7292SOL    HW228900   5.032   0.238   5.920 -0.5177 -0.4399 -1.0653
 7292SOL    HW328901   5.173   0.189   5.897 -0.6610 -0.8052 -1.1816
 7292SOL    MW428902   5.112   0.250   5.887  0.0183 -0.5773 -0.3693
 7293SOL     OW28903   2.404   5.061   3.310 -0.1349 -0.1507  0.0721
 7293SOL    HW228904   2.340   5.037   3.244  0.0844  1.0238 -0.5848
 7293SOL    HW328905   2.412   5.156   3.303  1.0592 -0.1830  0.7038
 7293SOL    MW428906   2.396   5.070   3.301 -0.2049  0.2330 -0.0543
 7294SOL     OW28907   4.706   6.319   4.130 -0.5131  0.0288  0.7107
 7294SOL    HW228908   4.685   6.226   4.131 -2.3003  0.2567 -2.2763
 7294SOL    HW328909   4.800   6.322   4.111 -0.3511 -1.1363  1.2324
 7294SOL    MW428910   4.716   6.307   4.128 -0.4796  0.2120  0.3229
 7295SOL     OW28911   4.641   2.025   3.639  0.3181  0.6434 -0.1385
 7295SOL    HW228912   4.616   1.956   3.700 -1.0191  1.2086  0.0118
 7295SOL    HW328913   4.558   2.071   3.620  0.9165  1.2765 -1.3759
 7295SOL    MW428914   4.627   2.022   3.645 -0.0416 -0.0714  0.1298
 7296SOL     OW28915   2.026   3.629   4.448  0.7250  0.3980 -0.0529
 7296SOL    HW228916   1.980   3.679   4.515  0.4268 -0.1103  0.1277
 7296SOL    HW328917   2.114   3.667   4.445  1.2920 -0.6530  1.8289
 7296SOL    MW428918   2.032   3.640   4.456  0.1895 -0.3832 -0.2402
 7297SOL     OW28919   1.573   1.596   4.376  0.0565 -0.4530 -0.8684
 7297SOL    HW228920   1.591   1.661   4.308  0.4832 -0.8707 -1.1668
 7297SOL    HW328921   1.648   1.603   4.435  0.1913 -0.7866 -0.9971
 7297SOL    MW428922   1.585   1.606   4.375 -0.1825  0.6447 -0.4522
 7298SOL     OW28923   5.227   5.905   2.360 -0.1110 -0.0158 -0.4260
 7298SOL    HW228924   5.210   5.988   2.404  0.9196  1.0610 -1.9564
 7298SOL    HW328925   5.160   5.845   2.394  0.0547  0.9890  1.8412
 7298SOL    MW428926   5.216   5.908   2.370  0.5886 -0.0672 -0.1818
 7299SOL     OW28927   3.597   0.485   0.366 -0.3159 -0.5785  0.0923
 7299SOL    HW228928   3.558   0.472   0.453 -0.8408  0.2382 -0.0215
 7299SOL    HW328929   3.556   0.418   0.311  0.0364 -1.1159  0.4744
 7299SOL    MW428930   3.587   0.474   0.370 -0.1124 -0.6433  0.1590
 7300SOL     OW28931   0.937   4.326   5.687  0.4984 -0.2726 -0.2219
 7300SOL    HW228932   0.952   4.391   5.754 -0.4574  2.1635 -2.2194
 7300SOL    HW328933   0.842   4.313   5.687  0.4161  0.2280 -1.4779
 7300SOL    MW428934   0.926   4.333   5.696 -0.4912 -0.2740  0.3990
 7301SOL     OW28935   2.029   4.214   0.068  0.2890  0.1820  0.3234
 7301SOL    HW228936   2.074   4.132   0.047  0.5936  0.5278 -0.4045
 7301SOL    HW328937   2.100   4.278   0.077  0.0228  0.4643  0.4190
 7301SOL    MW428938   2.044   4.211   0.066  0.2409  0.4122 -0.2778
 7302SOL     OW28939   3.032   5.478   0.035  0.2272 -0.0711  0.5575
 7302SOL    HW228940   2.942   5.446   0.038  0.6128 -1.2259  2.8920
 7302SOL    HW328941   3.036   5.545   0.104  0.6323  1.6537 -1.0652
 7302SOL    MW428942   3.021   5.483   0.045 -0.7514  0.5273  0.0818
 7303SOL     OW28943   3.084   0.485   0.717  0.4570 -0.0922  0.0545
 7303SOL    HW228944   3.044   0.572   0.711  1.1688  0.2110 -0.3936
 7303SOL    HW328945   3.141   0.479   0.641  0.7347 -0.7884  0.3086
 7303SOL    MW428946   3.086   0.496   0.706  0.1688  0.1629  0.3230
 7304SOL     OW28947   5.051   2.221   6.305 -0.6917 -0.6967 -0.0457
 7304SOL    HW228948   5.043   2.129   6.281  0.2243 -0.3662 -1.7546
 7304SOL    HW328949   5.087   2.263   6.227 -0.9518  1.0888  0.7524
 7304SOL    MW428950   5.054   2.215   6.291  0.3091  0.4690  0.2160
 7305SOL     OW28951   6.179   4.243   4.953  0.2716  0.0853  0.2564
 7305SOL    HW228952   6.128   4.190   5.014  1.3168 -1.7478 -0.3914
 7305SOL    HW328953   6.208   4.181   4.886  0.3611  1.7595 -1.3339
 7305SOL    MW428954   6.176   4.228   4.952 -0.4323  0.2905  0.5830
 7306SOL     OW28955   4.106   4.647   3.198  0.0981 -0.0135  0.0041
 7306SOL    HW228956   4.144   4.562   3.220  0.0788 -0.7218 -2.3441
 7306SOL    HW328957   4.027   4.653   3.251  0.3007 -1.3125  0.4842
 7306SOL    MW428958   4.101   4.637   3.208  0.2739 -0.1317 -0.0361
 7307SOL     OW28959   4.645   6.010   2.476 -0.2929 -0.3419  0.0249
 7307SOL    HW228960   4.598   6.069   2.417 -2.5365 -0.7872  1.2835
 7307SOL    HW328961   4.654   5.929   2.426 -0.8991 -0.2649 -0.2250
 7307SOL    MW428962   4.640   6.007   2.461 -0.0230 -0.4486 -0.4365
 7308SOL     OW28963   4.404   1.593   2.415 -0.2473  0.2637  0.0626
 7308SOL    HW228964   4.474   1.619   2.474 -0.2475 -1.2143  0.7651
 7308SOL    HW328965   4.342   1.666   2.418  1.0202  1.3786 -0.2110
 7308SOL    MW428966   4.405   1.606   2.423  0.3922  0.0264 -0.1882
 7309SOL     OW28967   5.190   2.318   6.080 -0.9272  0.4096  0.6794
 7309SOL    HW228968   5.276   2.276   6.086 -0.0918  2.0502  0.7707
 7309SOL    HW328969   5.156   2.292   5.995  0.1946  0.6832  0.1323
 7309SOL    MW428970   5.197   2.309   6.070 -0.1325 -0.6694 -0.4223
 7310SOL     OW28971   1.294   3.637   1.321 -0.1299 -0.6079 -0.1647
 7310SOL    HW228972   1.209   3.648   1.363 -0.2105 -2.1998  0.1607
 7310SOL    HW328973   1.305   3.542   1.315  1.4941 -0.4259 -0.4594
 7310SOL    MW428974   1.284   3.626   1.326  0.1184  0.4879 -0.1535
 7311SOL     OW28975   3.729   1.746   6.329  0.6499  1.6293 -0.2784
 7311SOL    HW228976   3.714   1.838   6.351  0.5813  1.6248 -0.3042
 7311SOL    HW328977   3.768   1.748   6.242 -2.7371  1.5110 -1.9649
 7311SOL    MW428978   3.732   1.758   6.321  0.0220 -0.2199 -0.1117
 7312SOL     OW28979   3.016   5.037   5.332  0.0952  0.2035 -0.0700
 7312SOL    HW228980   3.010   4.953   5.287 -0.0284  1.0885 -1.7713
 7312SOL    HW328981   3.096   5.030   5.384  0.0403 -0.9893 -0.1044
 7312SOL    MW428982   3.026   5.025   5.333 -0.0662 -0.3790 -0.2826
 7313SOL     OW28983   1.510   4.601   0.675 -0.0837  0.1936 -0.0488
 7313SOL    HW228984   1.535   4.545   0.748  0.0892 -0.9054 -0.9157
 7313SOL    HW328985   1.588   4.654   0.658 -0.8163  2.0475  1.9092
 7313SOL    MW428986   1.523   4.600   0.682  0.1563 -0.0165 -0.2547
 7314SOL     OW28987   0.167   1.903   0.008 -0.2003  0.0757 -0.0627
 7314SOL    HW228988   0.164   1.856  -0.075 -1.0959 -0.1267  0.0736
 7314SOL    HW328989   0.080   1.888   0.047 -0.1437  1.0028  0.4418
 7314SOL    MW428990   0.155   1.895   0.003 -0.5186  0.1897 -0.1642
 7315SOL     OW28991   2.720   6.375   6.086 -0.4201  0.0258 -0.4304
 7315SOL    HW228992   2.772   6.295   6.075  0.6018  1.0546 -5.1304
 7315SOL    HW328993   2.669   6.383   6.006 -0.4088  4.1204 -0.2714
 7315SOL    MW428994   2.720   6.366   6.074 -0.5337  0.1695  0.3667
 7316SOL     OW28995   3.958   6.432   4.914  0.5030 -0.2911 -0.0247
 7316SOL    HW228996   3.890   6.366   4.899 -0.2325  0.7144 -1.2863
 7316SOL    HW328997   4.035   6.398   4.868  0.2888 -0.5155 -0.2201
 7316SOL    MW428998   3.959   6.419   4.906 -0.6038  0.1024  0.0917
 7317SOL     OW28999   2.629   3.089   2.597  0.2201  0.3470  0.1859
 7317SOL    HW229000   2.587   3.158   2.545 -0.6181 -0.0823  0.2850
 7317SOL    HW329001   2.689   3.047   2.535  1.4411  1.7362  0.3606
 7317SOL    MW429002   2.632   3.093   2.582 -0.8669  0.1020 -0.1618
 7318SOL     OW29003   4.552   6.410   3.082 -0.1666  0.4390  0.5932
 7318SOL    HW229004   4.620   6.420   3.016  0.3590 -1.2324  0.8300
 7318SOL    HW329005   4.584   6.340   3.139 -1.4080  0.6497  1.5917
 7318SOL    MW429006   4.565   6.402   3.081  0.3267  0.5505  0.5070
 7319SOL     OW29007   2.796   2.249   5.545 -0.3148  0.0345 -0.2799
 7319SOL    HW229008   2.711   2.207   5.539 -0.9548  1.3306 -0.7108
 7319SOL    HW329009   2.783   2.320   5.608 -0.1339  1.5232 -1.8488
 7319SOL    MW429010   2.783   2.253   5.553 -0.1746 -0.1832 -0.4185
 7320SOL     OW29011   6.259   6.284   5.142  0.4588 -0.0542  0.1255
 7320SOL    HW229012   6.353   6.266   5.145  0.5472  0.5181  1.6363
 7320SOL    HW329013   6.225   6.251   5.225 -0.6053  0.1341 -0.2136
 7320SOL    MW429014   6.267   6.277   5.154  0.3799  0.2391  0.1658
 7321SOL     OW29015   4.922   5.847   5.596 -0.0181  0.3355 -0.0397
 7321SOL    HW229016   4.873   5.865   5.516  0.5639 -1.6026 -0.8931
 7321SOL    HW329017   5.009   5.885   5.580  0.7155 -1.6751 -1.1890
 7321SOL    MW429018   4.927   5.854   5.584 -0.2939 -0.3106 -0.1141
 7322SOL     OW29019   0.503   4.846   6.131 -0.1002  0.4788 -0.1615
 7322SOL    HW229020   0.572   4.906   6.159 -0.3949  1.6644 -1.8328
 7322SOL    HW329021   0.548   4.783   6.074 -0.2312  0.6731 -0.4809
 7322SOL    MW429022   0.518   4.845   6.127 -0.4575 -0.2224  0.8695
 7323SOL     OW29023   0.846   5.320   4.702 -0.2995 -0.1566 -0.2715
 7323SOL    HW229024   0.914   5.277   4.650 -0.1656 -0.7075  0.3449
 7323SOL    HW329025   0.869   5.301   4.793 -1.1518 -0.1583 -0.0448
 7323SOL    MW429026   0.858   5.312   4.707 -0.4095  0.1327  0.0006
 7324SOL     OW29027   4.859   1.301   3.680  0.2103 -0.6654  0.2587
 7324SOL    HW229028   4.856   1.205   3.682  2.2057 -0.7777 -0.1881
 7324SOL    HW329029   4.899   1.322   3.595  1.0287  0.4957  0.9039
 7324SOL    MW429030   4.864   1.291   3.669  0.6065  0.0651  0.8715
 7325SOL     OW29031   1.884   4.713   2.120 -0.4173  0.5909 -0.2948
 7325SOL    HW229032   1.856   4.704   2.211 -1.2988  1.1709 -0.4936
 7325SOL    HW329033   1.976   4.687   2.120 -0.0911  1.6690  0.9754
 7325SOL    MW429034   1.892   4.709   2.132  0.1891  0.3213  0.3200
 7326SOL     OW29035   5.438   5.532   1.770 -1.1105 -0.4996  0.0238
 7326SOL    HW229036   5.478   5.577   1.845  0.1576 -1.4570 -0.0313
 7326SOL    HW329037   5.501   5.544   1.699 -1.0865 -1.7114 -0.1812
 7326SOL    MW429038   5.452   5.539   1.771  0.3714  0.1462 -0.2167
 7327SOL     OW29039   3.842   0.370   1.603 -0.5249  0.1858  0.3773
 7327SOL    HW229040   3.867   0.329   1.686  1.0184 -1.8396 -0.9741
 7327SOL    HW329041   3.754   0.336   1.585 -1.2384  1.3300  1.5515
 7327SOL    MW429042   3.834   0.360   1.612 -0.2612 -0.5145  0.0527
 7328SOL     OW29043   0.133   1.057   1.074  0.2444  0.4205  0.4254
 7328SOL    HW229044   0.046   1.082   1.106 -0.1059 -1.3145  0.9087
 7328SOL    HW329045   0.175   1.016   1.150  2.4777  3.3844  0.9593
 7328SOL    MW429046   0.127   1.055   1.088 -0.0628 -0.3315 -0.2394
 7329SOL     OW29047   3.121   4.804   6.000 -0.0060 -0.2060 -0.3120
 7329SOL    HW229048   3.108   4.801   6.095  0.1532  0.7378 -0.2573
 7329SOL    HW329049   3.186   4.873   5.987 -1.0990  0.6941 -1.2072
 7329SOL    MW429050   3.128   4.813   6.011 -0.0787 -0.4195 -0.3545
 7330SOL     OW29051   0.551   2.985   0.212 -0.7400 -0.0610 -0.0219
 7330SOL    HW229052   0.599   2.902   0.210 -0.7461 -0.0630 -0.1168
 7330SOL    HW329053   0.567   3.021   0.299 -1.5011 -0.6102  0.3597
 7330SOL    MW429054   0.559   2.979   0.223  0.1002  0.1837 -0.6545
 7331SOL     OW29055   4.011   1.396   5.855 -0.5280 -0.1918 -0.3835
 7331SOL    HW229056   4.025   1.312   5.811 -1.5380 -1.4896  1.6101
 7331SOL    HW329057   3.948   1.376   5.925  2.5338  1.1835  3.1086
 7331SOL    MW429058   4.004   1.382   5.858 -0.3741 -0.0561 -0.1337
 7332SOL     OW29059   4.807   3.953   0.425  0.4484  0.5126  0.3149
 7332SOL    HW229060   4.819   4.019   0.492  0.4609 -0.8839  1.7402
 7332SOL    HW329061   4.894   3.915   0.412  0.2010 -0.1289  0.4866
 7332SOL    MW429062   4.820   3.957   0.432 -0.2361 -0.1821 -0.5579
 7333SOL     OW29063   4.026   5.866   0.716 -0.0833 -0.7100  0.1917
 7333SOL    HW229064   3.997   5.924   0.786  0.0055 -0.2118 -0.1830
 7333SOL    HW329065   4.099   5.817   0.755 -0.0553 -0.4603  0.4564
 7333SOL    MW429066   4.032   5.867   0.731 -0.5483  0.5203  0.0799
 7334SOL     OW29067   6.239   4.953   4.327 -0.1564 -0.1095 -0.1046
 7334SOL    HW229068   6.196   4.902   4.395 -1.0391 -1.5898 -1.7076
 7334SOL    HW329069   6.327   4.915   4.321 -0.3260 -0.4780 -0.2920
 7334SOL    MW429070   6.245   4.941   4.335  0.1003 -0.2372 -0.3958
 7335SOL     OW29071   2.837   2.954   2.484 -0.3585 -0.0913  0.6201
 7335SOL    HW229072   2.847   2.909   2.568 -0.8029 -0.2867  0.5726
 7335SOL    HW329073   2.899   3.027   2.488  0.8810 -1.1106  0.4167
 7335SOL    MW429074   2.847   2.958   2.495  0.3605  0.4494 -0.6045
 7336SOL     OW29075   5.920   0.263   5.831  0.1297 -0.6722 -0.0427
 7336SOL    HW229076   5.989   0.329   5.830 -0.1560 -0.2570  2.5573
 7336SOL    HW329077   5.965   0.181   5.807  1.2691 -0.2085  0.4322
 7336SOL    MW429078   5.935   0.261   5.827 -0.0079 -0.3549 -0.3224
 7337SOL     OW29079   2.229   2.014   1.122 -0.5803  0.7030  0.0474
 7337SOL    HW229080   2.201   2.046   1.036 -1.4274  0.8611  0.3752
 7337SOL    HW329081   2.302   2.071   1.146 -0.5548  0.8705 -0.4272
 7337SOL    MW429082   2.235   2.026   1.114  0.3551 -0.3501 -0.2563
 7338SOL     OW29083   3.473   0.869   5.818 -0.0328  0.4690  0.2725
 7338SOL    HW229084   3.436   0.957   5.829  0.8113  1.3278 -2.7384
 7338SOL    HW329085   3.404   0.819   5.774  0.0317  0.0682  0.6198
 7338SOL    MW429086   3.459   0.874   5.813 -0.5435  0.1472  0.5048
 7339SOL     OW29087   1.610   1.110   1.029  0.2928 -0.1138  0.2705
 7339SOL    HW229088   1.602   1.045   1.099  0.9624  0.0914  0.5454
 7339SOL    HW329089   1.526   1.107   0.984  0.3520 -1.2546  0.2074
 7339SOL    MW429090   1.598   1.101   1.032  0.0622 -0.1339  0.5634
 7340SOL     OW29091   4.502   2.316   4.611 -0.4168 -0.0580 -0.8745
 7340SOL    HW229092   4.452   2.270   4.678 -0.0390 -1.2143 -1.3661
 7340SOL    HW329093   4.442   2.323   4.537 -1.1206  1.9492 -0.1872
 7340SOL    MW429094   4.488   2.311   4.610 -0.0314  0.4908 -0.0653
 7341SOL     OW29095   5.921   1.165   5.498 -0.1529  0.3563 -0.1464
 7341SOL    HW229096   5.966   1.161   5.414  1.3865  1.5490  0.5647
 7341SOL    HW329097   5.829   1.158   5.476  0.2578 -0.1651 -1.8572
 7341SOL    MW429098   5.915   1.164   5.484 -0.0753  0.1793 -0.1346
 7342SOL     OW29099   0.726   2.653   6.099  0.3657  0.2101 -0.1098
 7342SOL    HW229100   0.821   2.651   6.101  0.3659  0.0345 -0.2823
 7342SOL    HW329101   0.702   2.612   6.016  0.1408  0.2753 -0.0798
 7342SOL    MW429102   0.735   2.647   6.088 -0.6716 -0.5959 -0.6693
 7343SOL     OW29103   1.994   0.198   3.802 -0.2667  0.6445  0.0571
 7343SOL    HW229104   1.939   0.275   3.787 -0.1871  0.6445 -0.2565
 7343SOL    HW329105   2.010   0.163   3.714 -2.7871 -1.4932  0.3078
 7343SOL    MW429106   1.989   0.203   3.788 -0.0556  0.1666 -0.1796
 7344SOL     OW29107   1.412   4.982   3.022  0.1720 -0.6821 -0.2222
 7344SOL    HW229108   1.390   4.922   2.952 -1.9956 -1.4619  1.0524
 7344SOL    HW329109   1.328   5.016   3.053  1.1290  0.4980  1.2448
 7344SOL    MW429110   1.398   4.979   3.017  0.0939 -0.2969  0.5144
 7345SOL     OW29111   2.853   0.253   3.690  0.3215 -0.4171 -0.3766
 7345SOL    HW229112   2.827   0.244   3.598  1.3849 -1.3351 -0.6169
 7345SOL    HW329113   2.894   0.339   3.695  0.5164 -0.4783 -0.8396
 7345SOL    MW429114   2.855   0.263   3.678  0.0513  0.3925  0.0699
 7346SOL     OW29115   5.646   4.310   1.011  0.3764 -0.2293  0.6628
 7346SOL    HW229116   5.623   4.351   1.094  0.9181  0.6421  0.3937
 7346SOL    HW329117   5.627   4.377   0.945  0.0569 -0.8691  0.0885
 7346SOL    MW429118   5.640   4.324   1.013  0.1213  0.3291  0.1878
 7347SOL     OW29119   1.817   3.773   0.793  0.1115 -0.3344 -0.1695
 7347SOL    HW229120   1.793   3.771   0.701 -1.0965 -2.0927  0.1458
 7347SOL    HW329121   1.912   3.761   0.794  0.0767 -0.7198 -1.1574
 7347SOL    MW429122   1.826   3.771   0.781  0.4429 -0.0454 -0.4637
 7348SOL     OW29123   5.951   2.476   1.470  0.0451 -0.5247 -0.1799
 7348SOL    HW229124   5.916   2.565   1.474  0.9888 -0.1221 -0.7346
 7348SOL    HW329125   5.996   2.464   1.554  0.6107 -0.1792 -0.4279
 7348SOL    MW429126   5.952   2.486   1.482  0.7886  0.5840  0.1169
 7349SOL     OW29127   5.173   0.637   0.047 -0.3996  0.6907 -0.1695
 7349SOL    HW229128   5.079   0.656   0.046 -0.8116 -1.1621  0.1335
 7349SOL    HW329129   5.193   0.614  -0.044 -0.9163 -1.7386  0.2653
 7349SOL    MW429130   5.163   0.636   0.035 -0.2737 -0.5666 -0.2266
 7350SOL     OW29131   5.674   1.199   0.533  0.0889  0.0395  0.0633
 7350SOL    HW229132   5.747   1.151   0.493 -0.7016 -0.4054 -0.8797
 7350SOL    HW329133   5.648   1.144   0.608  1.6644  0.9461  1.3529
 7350SOL    MW429134   5.680   1.185   0.538  0.3528  0.2337  1.3470
 7351SOL     OW29135   3.785   6.437   5.771  0.1561  0.0046  0.1904
 7351SOL    HW229136   3.873   6.435   5.734  0.2391  1.6357  0.2498
 7351SOL    HW329137   3.731   6.482   5.706 -0.7388 -1.2651  0.0061
 7351SOL    MW429138   3.789   6.443   5.758 -0.4684  0.0370  0.1547
 7352SOL     OW29139   1.350   2.590   3.292  0.3614  0.3356 -0.4505
 7352SOL    HW229140   1.439   2.615   3.319 -0.0942  0.0783  1.4398
 7352SOL    HW329141   1.347   2.495   3.306 -0.0610  0.2552 -1.0311
 7352SOL    MW429142   1.362   2.580   3.297 -0.1415  0.6972 -0.9342
 7353SOL     OW29143   0.499   4.570   6.021 -0.2079 -0.1938  0.2713
 7353SOL    HW229144   0.483   4.480   5.993 -0.7726 -0.0531  0.1250
 7353SOL    HW329145   0.553   4.562   6.100  0.0505 -0.6455  0.0497
 7353SOL    MW429146   0.504   4.557   6.028 -0.0035  0.2455 -0.1591
 7354SOL     OW29147   3.247   4.181   1.451 -0.2155 -0.0935 -0.3317
 7354SOL    HW229148   3.260   4.087   1.465 -1.3273 -0.1477  0.4091
 7354SOL    HW329149   3.274   4.221   1.534 -0.3635  0.1951 -0.4223
 7354SOL    MW429150   3.252   4.174   1.464 -0.1731 -0.5031 -0.7606
 7355SOL     OW29151   1.019   6.026   3.596 -0.1633 -0.4382 -0.0642
 7355SOL    HW229152   1.081   6.011   3.525  1.9318  0.1228  1.5484
 7355SOL    HW329153   1.059   5.983   3.672 -2.2826 -0.9480  0.8335
 7355SOL    MW429154   1.032   6.019   3.596 -0.3514 -0.1823 -0.2127
 7356SOL     OW29155   2.620   4.369   5.818 -0.5834  0.2713  0.3775
 7356SOL    HW229156   2.584   4.300   5.873  1.0800 -2.5870 -1.8623
 7356SOL    HW329157   2.700   4.397   5.862 -1.2136  0.7672  1.2412
 7356SOL    MW429158   2.626   4.364   5.831 -0.0385  0.1512 -0.0005
 7357SOL     OW29159   6.168   4.335   5.430 -0.1333 -0.3175  0.3720
 7357SOL    HW229160   6.259   4.346   5.403  0.0192  0.2013  1.0708
 7357SOL    HW329161   6.117   4.364   5.354  0.2779 -0.6753 -0.0472
 7357SOL    MW429162   6.174   4.340   5.416  0.0310  0.1155 -0.2622
 7358SOL     OW29163   2.857   5.635   2.150 -0.1065  0.0278  0.5822
 7358SOL    HW229164   2.783   5.673   2.104 -0.6528 -0.8181  0.7457
 7358SOL    HW329165   2.931   5.691   2.126 -0.6613  0.4773 -0.1322
 7358SOL    MW429166   2.857   5.647   2.140 -0.4432 -0.3165 -0.5562
 7359SOL     OW29167   4.833   1.332   4.789 -0.6383  0.1246 -0.1503
 7359SOL    HW229168   4.791   1.418   4.784 -1.2356 -0.0654  1.1619
 7359SOL    HW329169   4.854   1.322   4.882 -1.0660 -1.3797 -0.2003
 7359SOL    MW429170   4.830   1.342   4.801  0.3267 -0.8518 -0.5487
 7360SOL     OW29171   5.877   4.256   3.523 -0.0363 -0.7265  0.1737
 7360SOL    HW229172   5.922   4.294   3.598 -0.2238 -1.1812  0.5179
 7360SOL    HW329173   5.886   4.322   3.454  0.1894 -0.3345  0.5732
 7360SOL    MW429174   5.884   4.270   3.524  0.5351 -0.1415 -0.7324
 7361SOL     OW29175   0.520   3.310   1.462 -0.1728  0.0896 -0.1277
 7361SOL    HW229176   0.582   3.244   1.430  1.0152  0.7290  0.7797
 7361SOL    HW329177   0.434   3.269   1.453  0.4490 -1.1480 -0.6199
 7361SOL    MW429178   0.517   3.296   1.456 -0.6992  0.3348 -0.2933
 7362SOL     OW29179   0.618   0.253   2.888 -0.7654 -0.8879 -0.3802
 7362SOL    HW229180   0.550   0.186   2.892  0.2649 -1.9776 -0.4979
 7362SOL    HW329181   0.602   0.299   2.806 -0.8132 -1.7615 -0.8763
 7362SOL    MW429182   0.607   0.250   2.877 -0.0165 -0.2215  0.5837
 7363SOL     OW29183   5.294   4.921   1.636  0.4338  0.0832 -0.0598
 7363SOL    HW229184   5.235   4.924   1.712  0.2495  1.9029 -0.2164
 7363SOL    HW329185   5.238   4.899   1.562  0.4326 -0.7200  0.1757
 7363SOL    MW429186   5.279   4.919   1.636 -0.6925 -0.5410  0.0142
 7364SOL     OW29187   6.135   5.959   6.102 -0.2400 -0.6949  0.1542
 7364SOL    HW229188   6.161   6.048   6.126  1.2757 -0.9347 -0.5061
 7364SOL    HW329189   6.058   5.941   6.156 -1.1646  1.3512 -0.3601
 7364SOL    MW429190   6.128   5.969   6.112 -0.0179  0.5207 -0.0385
 7365SOL     OW29191   2.251   3.075   0.149 -0.3543 -0.3514 -0.4580
 7365SOL    HW229192   2.266   2.986   0.118  2.0966 -0.4483  0.7201
 7365SOL    HW329193   2.225   3.065   0.240  0.0850  0.1279 -0.2737
 7365SOL    MW429194   2.250   3.062   0.157 -0.0855 -0.0627  0.1507
 7366SOL     OW29195   1.502   1.260   0.174  0.0363  0.4581 -0.6270
 7366SOL    HW229196   1.441   1.296   0.110 -0.4412  1.7288  0.4962
 7366SOL    HW329197   1.545   1.337   0.213  1.8161 -0.3672 -0.8446
 7366SOL    MW429198   1.500   1.275   0.171 -0.4642  0.5679 -0.1394
 7367SOL     OW29199   4.497   1.526   4.872 -0.5887 -0.0053 -0.0306
 7367SOL    HW229200   4.590   1.546   4.871 -0.7563  0.9240  0.9774
 7367SOL    HW329201   4.482   1.486   4.958 -1.2444  0.5396  0.1170
 7367SOL    MW429202   4.507   1.524   4.884 -0.4482  0.5203 -0.0409
 7368SOL     OW29203   1.329   2.598   5.794 -0.2316  0.2226 -0.6591
 7368SOL    HW229204   1.323   2.503   5.804 -0.2479  0.3472  0.7389
 7368SOL    HW329205   1.240   2.630   5.811  0.5876  0.8058  3.9319
 7368SOL    MW429206   1.317   2.589   5.798 -0.1646 -0.2341  0.2268
 7369SOL     OW29207   0.730   1.239   4.886  0.1013  0.0829  0.3620
 7369SOL    HW229208   0.790   1.235   4.812 -0.2057  0.9496  0.0587
 7369SOL    HW329209   0.648   1.203   4.852 -0.3979  1.5923 -0.0969
 7369SOL    MW429210   0.727   1.233   4.871  0.3452  0.1174  0.5380
 7370SOL     OW29211   0.182   4.695   3.044 -0.0201 -0.1719 -0.4031
 7370SOL    HW229212   0.205   4.718   2.954  1.4229 -1.7009 -0.4915
 7370SOL    HW329213   0.260   4.719   3.095 -0.3149 -0.5074  0.2120
 7370SOL    MW429214   0.195   4.701   3.039 -0.1040 -0.3707 -0.3272
 7371SOL     OW29215   6.048   4.937   0.948 -0.0644  0.3372  0.5007
 7371SOL    HW229216   5.985   4.977   0.889 -0.6833 -0.0815  0.8678
 7371SOL    HW329217   6.115   4.899   0.890 -0.8380 -0.3584  0.0476
 7371SOL    MW429218   6.049   4.937   0.932  0.0392  0.5650  0.2528
 7372SOL     OW29219   3.692   2.665   1.794 -0.0684  0.4040  0.6482
 7372SOL    HW229220   3.658   2.744   1.753  0.9871  0.1260 -0.8634
 7372SOL    HW329221   3.745   2.624   1.726 -0.6730 -1.6691  1.3438
 7372SOL    MW429222   3.694   2.670   1.780  0.1410 -0.4441  0.1070
 7373SOL     OW29223   0.796   5.233   4.057  0.2167 -0.1078 -0.0907
 7373SOL    HW229224   0.743   5.190   3.990  0.8337 -0.1527 -0.5547
 7373SOL    HW329225   0.787   5.327   4.037  0.7117 -0.1409 -0.4737
 7373SOL    MW429226   0.788   5.240   4.045  0.2595 -0.7513 -0.1749
 7374SOL     OW29227   2.319   2.006   6.124  0.5366 -0.0411  0.2050
 7374SOL    HW229228   2.265   2.080   6.152 -0.5549 -0.5557 -0.5053
 7374SOL    HW329229   2.309   1.941   6.193  1.1286  0.2733  0.6008
 7374SOL    MW429230   2.311   2.007   6.137  0.1823  0.2094 -0.5090
 7375SOL     OW29231   4.674   4.211   5.362 -0.0414  0.0226 -0.0056
 7375SOL    HW229232   4.681   4.251   5.449  0.9592  0.0207 -0.0747
 7375SOL    HW329233   4.668   4.286   5.302  0.6549  0.0679 -0.0355
 7375SOL    MW429234   4.674   4.226   5.366  0.3369  0.4654  0.4433
 7376SOL     OW29235   1.963   3.055   0.618  0.3442  0.0177 -0.1473
 7376SOL    HW229236   1.949   2.971   0.662  1.5634 -0.5634 -0.8383
 7376SOL    HW329237   2.024   3.036   0.547 -0.6801  1.1571 -1.4068
 7376SOL    MW429238   1.969   3.042   0.614  0.2146  0.3811  0.3576
 7377SOL     OW29239   3.031   2.600   5.373 -0.2633 -0.0096  0.0052
 7377SOL    HW229240   2.979   2.633   5.299  1.0486 -0.4573 -1.1513
 7377SOL    HW329241   3.095   2.541   5.333  2.7954  2.3550  0.9953
 7377SOL    MW429242   3.032   2.596   5.358  0.2891  0.2121 -0.0535
 7378SOL     OW29243   5.010   3.939   4.849 -0.2977  0.1463  0.4757
 7378SOL    HW229244   4.998   3.968   4.940  1.6387  0.3416  0.7149
 7378SOL    HW329245   5.050   3.852   4.857 -0.2985  0.0824 -0.1878
 7378SOL    MW429246   5.014   3.932   4.862 -0.5501 -0.3231  0.6669
 7379SOL     OW29247   2.974   1.851   3.506 -0.3443 -0.4178 -0.2924
 7379SOL    HW229248   2.985   1.756   3.500 -0.1274 -0.4312  0.2370
 7379SOL    HW329249   2.992   1.882   3.418  2.2143 -0.6285  0.0666
 7379SOL    MW429250   2.978   1.842   3.494  0.1123  0.0947  0.2018
 7380SOL     OW29251   1.737   2.510   5.316  0.2261 -0.2305  0.1144
 7380SOL    HW229252   1.811   2.570   5.326  1.1930 -1.2330 -0.8059
 7380SOL    HW329253   1.772   2.424   5.338 -0.9585 -0.5799  0.7137
 7380SOL    MW429254   1.751   2.507   5.320 -0.5485 -0.2153 -0.4096
 7381SOL     OW29255   5.251   5.942   0.874 -0.1965  0.5398 -0.4871
 7381SOL    HW229256   5.265   5.965   0.782 -0.9910  2.0777 -0.2651
 7381SOL    HW329257   5.242   6.027   0.918 -0.4147 -0.1844  0.9148
 7381SOL    MW429258   5.252   5.956   0.868  0.6577  0.3337  0.0826
 7382SOL     OW29259   0.242   2.455   0.268 -0.6567 -0.2588 -0.0047
 7382SOL    HW229260   0.264   2.468   0.176 -0.8524 -0.4089 -0.0721
 7382SOL    HW329261   0.318   2.409   0.305 -0.8840 -0.8482 -0.2560
 7382SOL    MW429262   0.255   2.451   0.261 -0.2098  0.8458 -0.2241
 7383SOL     OW29263   4.897   1.040   0.952  0.0690 -0.4624  0.2416
 7383SOL    HW229264   4.815   1.088   0.958 -0.1187 -0.8859  1.1486
 7383SOL    HW329265   4.905   0.995   1.036  1.6732  0.2915  0.5287
 7383SOL    MW429266   4.887   1.041   0.964 -0.1971 -0.0214  0.1082
 7384SOL     OW29267   1.636   1.479   0.283 -0.1928  0.5771  0.0298
 7384SOL    HW229268   1.703   1.437   0.337  0.5212  0.8581 -0.6224
 7384SOL    HW329269   1.586   1.533   0.344  0.7502  1.0756  0.3750
 7384SOL    MW429270   1.638   1.480   0.298  0.4048  0.2634  0.1498
 7385SOL     OW29271   2.481   6.250   3.511  0.0321  0.3856 -0.3539
 7385SOL    HW229272   2.546   6.301   3.558  1.5194 -1.6129 -0.0952
 7385SOL    HW329273   2.494   6.160   3.543 -0.7022 -0.6000 -2.6303
 7385SOL    MW429274   2.491   6.245   3.522  0.1106 -0.5763 -0.1141
 7386SOL     OW29275   4.948   0.039   1.079  0.2782 -0.1747 -0.3192
 7386SOL    HW229276   5.042   0.044   1.094  0.2163 -1.0212  0.4368
 7386SOL    HW329277   4.926  -0.053   1.093 -0.5209 -0.1595 -1.3664
 7386SOL    MW429278   4.958   0.028   1.083 -0.5163 -0.0328 -0.9751
 7387SOL     OW29279   1.886   2.811   0.817 -0.3346  0.5466  0.5055
 7387SOL    HW229280   1.843   2.725   0.809  0.0623  0.5125 -3.0173
 7387SOL    HW329281   1.967   2.792   0.865  1.8266 -2.1791 -3.4957
 7387SOL    MW429282   1.891   2.797   0.822  0.1489  0.4615  0.5490
 7388SOL     OW29283   2.483   4.218   0.764 -0.7626  0.4914  0.0549
 7388SOL    HW229284   2.513   4.266   0.686  0.4686  0.3741  0.4421
 7388SOL    HW329285   2.462   4.130   0.731 -0.1263  0.4043 -0.1291
 7388SOL    MW429286   2.484   4.213   0.749  0.0242 -0.0022 -0.0301
 7389SOL     OW29287   0.092   2.199   3.814  0.7563  0.1758  0.2845
 7389SOL    HW229288   0.112   2.274   3.758  0.2724 -0.3826 -0.6681
 7389SOL    HW329289   0.174   2.178   3.858  1.0690  0.8223  0.0162
 7389SOL    MW429290   0.105   2.206   3.813  0.5701 -0.3372  0.4164
 7390SOL     OW29291   5.354   1.346   5.118  0.4272 -0.4759 -0.1160
 7390SOL    HW229292   5.264   1.316   5.104  0.9310 -2.4697  0.4824
 7390SOL    HW329293   5.364   1.422   5.061 -1.1847 -1.1077 -1.3149
 7390SOL    MW429294   5.343   1.352   5.109 -0.3531 -0.0671 -0.7407
 7391SOL     OW29295   5.567   2.797   3.146 -0.3963 -0.1137 -0.0477
 7391SOL    HW229296   5.554   2.735   3.074  0.1823  0.8864 -1.0476
 7391SOL    HW329297   5.493   2.857   3.139 -1.1741 -0.8737  1.1642
 7391SOL    MW429298   5.556   2.797   3.136  0.4176  0.1487 -0.4682
 7392SOL     OW29299   1.141   2.664   1.254 -0.4497  0.6668  0.1813
 7392SOL    HW229300   1.098   2.742   1.218 -0.7741  0.0052 -0.9318
 7392SOL    HW329301   1.171   2.691   1.341 -2.9226  1.2272  0.9472
 7392SOL    MW429302   1.139   2.678   1.260  1.0228 -0.3351  0.1965
 7393SOL     OW29303   2.453   0.770   3.431 -0.0020  0.0609  0.1442
 7393SOL    HW229304   2.423   0.722   3.354  1.1645 -1.5370  0.6403
 7393SOL    HW329305   2.451   0.705   3.501  1.0538  0.9053  0.9745
 7393SOL    MW429306   2.449   0.755   3.430 -0.2208  0.0548  0.7021
 7394SOL     OW29307   5.555   2.869   4.170 -0.0472  0.0257 -0.6007
 7394SOL    HW229308   5.610   2.799   4.204  1.4958  1.3425 -0.2485
 7394SOL    HW329309   5.613   2.921   4.114 -0.7825  1.6790  0.0780
 7394SOL    MW429310   5.570   2.867   4.167  0.1086  0.5596  0.4286
 7395SOL     OW29311   5.301   3.494   2.912  0.1837 -0.2374 -0.5383
 7395SOL    HW229312   5.274   3.405   2.889 -2.7615  0.2337  0.6065
 7395SOL    HW329313   5.387   3.484   2.953 -0.0950 -2.5599 -0.4216
 7395SOL    MW429314   5.309   3.481   2.914 -0.0773  0.1020  0.4057
 7396SOL     OW29315   0.909   1.971   1.813  0.1515  0.2602 -0.3822
 7396SOL    HW229316   0.932   2.064   1.812  0.3506  0.2038 -1.7864
 7396SOL    HW329317   0.978   1.930   1.864 -1.4294  1.2166  2.8386
 7396SOL    MW429318   0.921   1.978   1.820  0.8979 -0.0350  0.0196
 7397SOL     OW29319   1.813   4.856   1.440 -0.1948  0.1914  0.1924
 7397SOL    HW229320   1.816   4.826   1.349 -2.5050 -2.2299  0.7557
 7397SOL    HW329321   1.720   4.872   1.456  0.4220  3.0063  1.4826
 7397SOL    MW429322   1.801   4.854   1.430  0.1659  0.2372 -0.0212
 7398SOL     OW29323   4.562   2.731   0.079 -0.5748 -0.0356  0.2171
 7398SOL    HW229324   4.575   2.765  -0.009  0.2337  1.1862  0.7747
 7398SOL    HW329325   4.642   2.754   0.126  0.3590 -3.3691  0.5015
 7398SOL    MW429326   4.574   2.738   0.074 -0.2350  0.3130  0.0370
 7399SOL     OW29327   5.248   5.625   6.315 -0.3490 -0.0144  0.5944
 7399SOL    HW229328   5.250   5.551   6.376 -2.0636  0.8486  1.7414
 7399SOL    HW329329   5.227   5.701   6.368  0.5332  1.2081 -0.7060
 7399SOL    MW429330   5.246   5.625   6.330  0.0656 -0.1678 -0.0795
 7400SOL     OW29331   1.006   3.559   4.981  0.2824  0.2739 -0.0948
 7400SOL    HW229332   1.095   3.583   5.009 -0.2511  1.2670  0.8013
 7400SOL    HW329333   0.975   3.500   5.050  0.1295  0.1732 -0.2505
 7400SOL    MW429334   1.014   3.555   4.994  0.2899  0.2945 -0.4948
 7401SOL     OW29335   2.814   4.134   1.036 -0.4799 -0.6897 -0.1874
 7401SOL    HW229336   2.814   4.229   1.053 -0.1738 -0.9294  1.2476
 7401SOL    HW329337   2.833   4.127   0.942  0.3958  0.6551 -0.1491
 7401SOL    MW429338   2.817   4.146   1.026  0.1597 -0.0507 -0.3188
 7402SOL     OW29339   1.559   0.636   0.072 -0.1522 -0.6791  0.2872
 7402SOL    HW229340   1.635   0.655   0.127 -0.3381  0.0826  0.3038
 7402SOL    HW329341   1.486   0.625   0.133 -0.2828 -0.2127  0.2247
 7402SOL    MW429342   1.559   0.637   0.087 -0.2640  0.3632 -0.0078
 7403SOL     OW29343   0.883   4.808   2.231 -0.0199  0.9601 -0.2773
 7403SOL    HW229344   0.958   4.748   2.233 -1.1225 -0.4636  1.2902
 7403SOL    HW329345   0.893   4.861   2.310 -0.6013  0.8195 -0.1045
 7403SOL    MW429346   0.894   4.807   2.242 -0.1808  0.2783 -0.2568
 7404SOL     OW29347   0.058   0.063   6.058  0.3964  0.4286 -0.3204
 7404SOL    HW229348   0.127  -0.001   6.074 -0.6896 -0.4588  1.1319
 7404SOL    HW329349  -0.017   0.029   6.108 -0.5680  2.2323 -0.4729
 7404SOL    MW429350   0.057   0.050   6.067  0.3268  0.2362 -0.2645
 7405SOL     OW29351   1.427   3.027   2.837  0.2117 -0.1362  0.5033
 7405SOL    HW229352   1.409   2.946   2.789 -0.8394  0.9737 -1.0898
 7405SOL    HW329353   1.348   3.080   2.826  2.1005  2.5467 -1.5823
 7405SOL    MW429354   1.414   3.023   2.829  0.6313 -0.0524 -0.2070
 7406SOL     OW29355   0.449   3.934   4.822  0.1687 -0.2459  0.2509
 7406SOL    HW229356   0.526   3.877   4.827 -0.6093 -1.3340  0.0924
 7406SOL    HW329357   0.470   3.996   4.752 -0.6791 -3.0151 -2.6528
 7406SOL    MW429358   0.462   3.935   4.814  0.4536  0.0726  0.2183
 7407SOL     OW29359   2.436   0.492   1.922  0.4813 -0.3883  0.3851
 7407SOL    HW229360   2.366   0.543   1.962  0.7442  0.7425 -0.5476
 7407SOL    HW329361   2.512   0.551   1.920  0.6565 -0.6157 -1.1613
 7407SOL    MW429362   2.437   0.507   1.927 -0.0821 -0.0839 -0.2670
 7408SOL     OW29363   3.188   4.140   0.467 -0.7562 -0.3799 -0.2595
 7408SOL    HW229364   3.138   4.205   0.515 -1.0193 -1.8510  1.5499
 7408SOL    HW329365   3.186   4.171   0.376 -2.5442  1.0658  0.2169
 7408SOL    MW429366   3.181   4.153   0.461 -0.8510 -0.0395  0.5363
 7409SOL     OW29367   0.220   2.082   5.265  0.1808  0.0491  0.0144
 7409SOL    HW229368   0.208   2.087   5.360  0.1524 -3.1272  0.2862
 7409SOL    HW329369   0.314   2.071   5.252 -0.0266 -1.9580 -0.0801
 7409SOL    MW429370   0.231   2.081   5.276  0.1535  0.5110 -0.0379
 7410SOL     OW29371   6.117   1.467   5.451  0.2721 -0.4105 -0.1900
 7410SOL    HW229372   6.092   1.557   5.429  0.3357 -0.9522 -2.7849
 7410SOL    HW329373   6.201   1.476   5.497  0.4750  0.8287 -0.7567
 7410SOL    MW429374   6.125   1.480   5.454 -0.4599  0.3664  0.5538
 7411SOL     OW29375   4.818   4.691   2.925 -0.2833  0.4737  0.4483
 7411SOL    HW229376   4.820   4.647   3.010 -0.9424  1.3726  0.9463
 7411SOL    HW329377   4.799   4.621   2.862  1.5156 -0.4324  0.8579
 7411SOL    MW429378   4.816   4.676   2.928 -0.0088  0.1643  0.7971
 7412SOL     OW29379   3.538   4.365   1.395  0.0483  0.2796  0.1808
 7412SOL    HW229380   3.574   4.371   1.307  0.7091  0.2188  0.4420
 7412SOL    HW329381   3.460   4.310   1.385 -0.9846  1.8298 -0.6931
 7412SOL    MW429382   3.533   4.358   1.382 -0.3491  0.3121 -0.0857
 7413SOL     OW29383   0.633   6.327   0.898 -0.3337 -0.3319  0.4201
 7413SOL    HW229384   0.716   6.298   0.935 -0.0411 -0.4872 -0.3472
 7413SOL    HW329385   0.579   6.249   0.896  0.8390 -1.2018 -2.7233
 7413SOL    MW429386   0.637   6.313   0.903 -0.6771 -0.5334  0.4683
 7414SOL     OW29387   3.387   0.368   1.674  0.3917  0.0621 -0.3622
 7414SOL    HW229388   3.396   0.448   1.623  0.1010  0.1103 -0.3396
 7414SOL    HW329389   3.376   0.399   1.764 -3.0016  0.1757 -0.6848
 7414SOL    MW429390   3.387   0.383   1.679  0.3223 -0.8015 -0.2613
 7415SOL     OW29391   6.126   2.255   5.571  0.5243  0.3129  0.2153
 7415SOL    HW229392   6.168   2.296   5.496  1.7346 -0.4297  0.4415
 7415SOL    HW329393   6.137   2.161   5.555 -3.7072 -0.1502 -1.1893
 7415SOL    MW429394   6.133   2.248   5.559 -0.5825 -0.0771  0.6268
 7416SOL     OW29395   6.216   5.230   4.359 -0.3245  0.2022  0.0305
 7416SOL    HW229396   6.263   5.259   4.437  0.8108  1.3365 -1.0142
 7416SOL    HW329397   6.256   5.146   4.337  0.2561  0.4820 -0.0268
 7416SOL    MW429398   6.228   5.223   4.366 -0.6437 -0.2146  0.4127
 7417SOL     OW29399   5.104   4.479   0.137  1.0226 -0.4115 -0.6559
 7417SOL    HW229400   5.169   4.540   0.103  0.0344 -0.0732 -2.0281
 7417SOL    HW329401   5.020   4.517   0.111  0.2125 -0.5435  1.5281
 7417SOL    MW429402   5.101   4.492   0.129 -0.0607 -0.1039  0.3738
 7418SOL     OW29403   0.673   3.642   3.543  0.1707  0.1503 -0.0935
 7418SOL    HW229404   0.742   3.669   3.483 -0.2328 -0.1371 -0.6950
 7418SOL    HW329405   0.599   3.699   3.521  0.0654  0.1438  0.2347
 7418SOL    MW429406   0.672   3.653   3.533  0.1390 -0.0093  0.3443
 7419SOL     OW29407   1.420   0.854   3.005  0.0320  0.3942  0.3335
 7419SOL    HW229408   1.330   0.848   3.040 -0.1234  1.0306  0.0464
 7419SOL    HW329409   1.414   0.918   2.935  1.2486  2.4759  2.0213
 7419SOL    MW429410   1.407   0.861   3.001 -0.5135 -0.2151 -0.3256
 7420SOL     OW29411   0.869   4.074   0.768  0.4698 -0.0468 -0.6419
 7420SOL    HW229412   0.949   4.089   0.819  1.2203 -1.0498 -1.5057
 7420SOL    HW329413   0.827   4.160   0.765  1.2711  0.3955  0.2088
 7420SOL    MW429414   0.874   4.088   0.774  0.6066  0.2223  0.1405
 7421SOL     OW29415   0.765   1.236   1.841 -0.2795  0.1796 -0.2746
 7421SOL    HW229416   0.719   1.157   1.813  1.6544 -0.8462 -0.6833
 7421SOL    HW329417   0.807   1.269   1.762 -1.1305  1.7120 -0.1324
 7421SOL    MW429418   0.764   1.230   1.827 -0.1914  0.5048  0.5344
 7422SOL     OW29419   2.255   3.694   3.102  0.3462  0.1037  0.1033
 7422SOL    HW229420   2.270   3.656   3.189  2.1607 -0.5343 -0.4526
 7422SOL    HW329421   2.160   3.688   3.089  0.2585 -1.5652  1.2389
 7422SOL    MW429422   2.244   3.688   3.112  0.5847 -0.0655 -0.1763
 7423SOL     OW29423   2.904   4.499   3.713 -0.2277  0.3212 -0.5206
 7423SOL    HW229424   2.988   4.458   3.733 -0.2203  0.4145 -0.3535
 7423SOL    HW329425   2.927   4.585   3.676 -0.2573  0.7719  0.4765
 7423SOL    MW429426   2.918   4.505   3.711  0.3443 -0.2231 -0.1297
 7424SOL     OW29427   0.888   4.376   3.255  0.0155 -0.7135  0.0851
 7424SOL    HW229428   0.831   4.315   3.209  0.2723 -0.5506 -0.4515
 7424SOL    HW329429   0.836   4.456   3.264  0.2413 -0.4812 -0.6255
 7424SOL    MW429430   0.873   4.378   3.250  0.1669 -0.2205 -0.0715
 7425SOL     OW29431   0.220   3.438   4.694 -0.1971 -0.6275  0.0747
 7425SOL    HW229432   0.253   3.527   4.682 -0.7913 -0.2775  0.8869
 7425SOL    HW329433   0.235   3.420   4.787 -0.4123 -1.2325 -0.0056
 7425SOL    MW429434   0.226   3.448   4.705  0.3733 -0.6156 -0.4300
 7426SOL     OW29435   0.202   3.985   6.339 -0.3714  0.1758 -0.5045
 7426SOL    HW229436   0.233   3.897   6.361  1.4089  1.2160  1.4682
 7426SOL    HW329437   0.213   3.991   6.244  0.6578 -1.3119 -0.5093
 7426SOL    MW429438   0.207   3.974   6.329  0.2902  0.3944 -0.1582
 7427SOL     OW29439   2.119   2.707   0.996 -0.1982  0.9876  0.2551
 7427SOL    HW229440   2.147   2.635   0.939 -0.9438  1.9030 -1.3436
 7427SOL    HW329441   2.201   2.743   1.030  0.3004  0.6990 -0.5990
 7427SOL    MW429442   2.133   2.702   0.993  0.3418 -0.1141  0.5990
 7428SOL     OW29443   0.636   5.770   2.206  0.2547  0.4685  0.3793
 7428SOL    HW229444   0.688   5.689   2.200 -2.1162 -1.0935 -1.4745
 7428SOL    HW329445   0.659   5.819   2.127 -1.1346 -0.3503 -0.5850
 7428SOL    MW429446   0.646   5.765   2.194  0.0155  0.3799  0.4505
 7429SOL     OW29447   2.059   4.004   4.400  0.2176  0.1096  0.2243
 7429SOL    HW229448   1.988   3.940   4.410  0.6587 -0.4411 -0.1054
 7429SOL    HW329449   2.123   3.979   4.467 -0.4598  1.3937  1.3879
 7429SOL    MW429450   2.058   3.992   4.410  0.6907  0.1517 -0.4556
 7430SOL     OW29451   1.879   4.950   2.835  0.5086 -0.4181 -0.6798
 7430SOL    HW229452   1.841   4.947   2.923 -0.6974 -0.4014 -1.1759
 7430SOL    HW329453   1.953   4.890   2.838 -0.0993 -1.1442  0.0830
 7430SOL    MW429454   1.884   4.942   2.847 -0.6535  0.5836 -0.0522
 7431SOL     OW29455   1.332   2.792   0.428 -0.6402 -0.6187  0.3677
 7431SOL    HW229456   1.304   2.883   0.417 -1.8550 -1.2802 -4.4820
 7431SOL    HW329457   1.255   2.747   0.461 -0.7952 -0.2207  0.5538
 7431SOL    MW429458   1.318   2.798   0.431  0.4877 -0.1860 -0.9120
 7432SOL     OW29459   5.511   6.173   1.805 -0.3259 -0.3863  0.4647
 7432SOL    HW229460   5.551   6.087   1.786 -0.1340 -0.5370  1.5041
 7432SOL    HW329461   5.538   6.193   1.894 -1.6735  0.0278  0.8073
 7432SOL    MW429462   5.520   6.164   1.814 -0.7127  0.4640 -0.4447
 7433SOL     OW29463   3.432   3.884   5.917 -0.6307 -0.3135  0.7031
 7433SOL    HW229464   3.452   3.817   5.852 -1.0237  1.7517 -1.6779
 7433SOL    HW329465   3.339   3.872   5.935 -1.1454  0.6483 -1.0935
 7433SOL    MW429466   3.423   3.873   5.911  0.0985 -0.5755  0.1381
 7434SOL     OW29467   1.885   1.847   3.632 -0.1405  0.3405 -0.2073
 7434SOL    HW229468   1.921   1.759   3.635  0.6194  0.6260 -0.8647
 7434SOL    HW329469   1.950   1.901   3.677 -0.1344  0.7248 -0.6762
 7434SOL    MW429470   1.898   1.843   3.639 -0.2740  0.3421  0.0052
 7435SOL     OW29471   3.103   1.724   6.320 -0.0700  0.0221  0.0171
 7435SOL    HW229472   3.190   1.710   6.284  0.4248 -1.0512  1.5119
 7435SOL    HW329473   3.071   1.803   6.277  1.4592  0.1806 -0.8815
 7435SOL    MW429474   3.110   1.733   6.310 -0.1308 -0.9843  0.0074
 7436SOL     OW29475   3.798   1.879   3.028 -0.1291 -0.8861  0.0475
 7436SOL    HW229476   3.768   1.968   3.051 -0.0339 -1.3366  2.1876
 7436SOL    HW329477   3.893   1.887   3.022 -0.2963 -0.2498 -2.9051
 7436SOL    MW429478   3.807   1.892   3.030 -0.4895  0.2478  0.0964
 7437SOL     OW29479   5.148   3.984   5.233  0.0620  0.8748  0.6165
 7437SOL    HW229480   5.056   3.976   5.206 -0.0964 -1.7711  1.6294
 7437SOL    HW329481   5.187   4.043   5.169 -1.4319 -1.1187 -2.3502
 7437SOL    MW429482   5.141   3.991   5.221 -0.3023  0.2440 -0.3202
 7438SOL     OW29483   5.743   4.640   5.081 -0.5904  0.6312 -0.1239
 7438SOL    HW229484   5.739   4.731   5.052 -0.0483  0.2885 -1.3388
 7438SOL    HW329485   5.665   4.599   5.043 -0.7970  0.5550  0.3637
 7438SOL    MW429486   5.732   4.647   5.073  0.6222  0.3091  0.8203
 7439SOL     OW29487   1.947   4.504   3.371 -0.0425 -0.0723 -0.1756
 7439SOL    HW229488   1.944   4.410   3.389 -3.0120  0.1505  1.1003
 7439SOL    HW329489   1.967   4.544   3.455  0.6195  0.4689 -0.5854
 7439SOL    MW429490   1.949   4.497   3.384  0.0696  0.8101 -0.7799
 7440SOL     OW29491   4.989   3.256   0.545  0.5531  0.1405 -0.0997
 7440SOL    HW229492   4.893   3.265   0.543  0.5735  0.2671 -1.4041
 7440SOL    HW329493   5.010   3.210   0.464  1.5285 -0.7463  0.6259
 7440SOL    MW429494   4.979   3.251   0.534  0.1151 -0.1941 -0.4411
 7441SOL     OW29495   0.840   2.429   3.580  0.3681 -0.5106  0.3402
 7441SOL    HW229496   0.835   2.336   3.558  0.5604 -0.1857 -1.1474
 7441SOL    HW329497   0.932   2.452   3.567  0.0536  0.2113 -0.6883
 7441SOL    MW429498   0.851   2.420   3.576 -0.3961 -0.2965 -0.2605
 7442SOL     OW29499   5.806   2.533   4.819 -0.1455  0.1260  0.6468
 7442SOL    HW229500   5.819   2.501   4.730 -2.1631  0.8088  0.0616
 7442SOL    HW329501   5.771   2.459   4.867 -1.8908  0.5366  0.0738
 7442SOL    MW429502   5.803   2.519   4.814  0.1869 -0.2182 -0.4077
 7443SOL     OW29503   2.088   1.584   2.265  0.4158 -0.0071 -0.1866
 7443SOL    HW229504   2.161   1.641   2.239  0.2503  0.6446  0.7499
 7443SOL    HW329505   2.010   1.633   2.240  0.2546  0.5581  1.3206
 7443SOL    MW429506   2.088   1.598   2.258 -0.0586 -0.2734 -0.2438
 7444SOL     OW29507   0.342   4.602   1.824  0.4721  0.5915  0.5105
 7444SOL    HW229508   0.401   4.636   1.891  0.9492  0.7170  0.0361
 7444SOL    HW329509   0.358   4.507   1.824 -0.3785  0.4315  1.3738
 7444SOL    MW429510   0.352   4.594   1.833  0.4249 -0.4950  0.1621
 7445SOL     OW29511   5.294   4.620   3.422  0.2831  0.6843  0.0343
 7445SOL    HW229512   5.333   4.680   3.359 -0.7145 -0.3648 -1.6645
 7445SOL    HW329513   5.327   4.534   3.395  0.5314  0.2903  1.5163
 7445SOL    MW429514   5.304   4.616   3.410 -0.1882  0.0771 -0.4973
 7446SOL     OW29515   2.369   5.853   1.663  0.4408  0.3339  0.4192
 7446SOL    HW229516   2.357   5.945   1.642 -1.9474 -0.0348 -0.2329
 7446SOL    HW329517   2.304   5.835   1.731  0.2169 -1.0202 -0.1029
 7446SOL    MW429518   2.359   5.863   1.669 -0.0954 -0.2124  0.2599
 7447SOL     OW29519   6.039   1.781   3.180  0.3529 -0.2192 -0.2010
 7447SOL    HW229520   6.071   1.781   3.271 -1.3174  0.0307  0.4184
 7447SOL    HW329521   6.075   1.701   3.142 -0.8597 -1.5983  1.4137
 7447SOL    MW429522   6.048   1.770   3.187  0.5569  0.0946  0.8489
 7448SOL     OW29523   1.496   5.740   2.911  0.0117  0.4558 -0.0202
 7448SOL    HW229524   1.546   5.688   2.847  1.2940 -1.0590  2.0547
 7448SOL    HW329525   1.423   5.683   2.935 -1.0424  1.4334 -0.8223
 7448SOL    MW429526   1.493   5.726   2.905  0.0294  0.7896  0.0459
 7449SOL     OW29527   3.326   3.535   4.301  0.7435  0.1414  0.4418
 7449SOL    HW229528   3.405   3.482   4.310  0.0874 -0.7823  0.9640
 7449SOL    HW329529   3.319   3.550   4.206  0.4095 -1.5990  0.1473
 7449SOL    MW429530   3.335   3.530   4.289  0.3112  0.3008 -0.7620
 7450SOL     OW29531   6.032   0.213   2.712  0.1932  0.1067 -0.4635
 7450SOL    HW229532   5.962   0.224   2.776 -0.6127 -0.1245 -1.2981
 7450SOL    HW329533   6.010   0.132   2.666  1.8579 -0.8626  0.3294
 7450SOL    MW429534   6.020   0.204   2.715  0.4853 -0.4737  0.1252
 7451SOL     OW29535   0.076   3.468   2.198  0.1570 -0.0384 -0.3521
 7451SOL    HW229536   0.137   3.540   2.180  0.6672 -0.8587 -2.1338
 7451SOL    HW329537   0.050   3.481   2.289  2.6478  0.5975  0.3464
 7451SOL    MW429538   0.081   3.479   2.208  0.2733  0.0653 -0.1019
 7452SOL     OW29539   6.229   2.817   3.807 -0.2007 -0.1289 -0.1857
 7452SOL    HW229540   6.257   2.842   3.895  0.2859  1.2648 -0.7010
 7452SOL    HW329541   6.155   2.875   3.788 -0.0049 -0.0907 -0.8648
 7452SOL    MW429542   6.223   2.828   3.816 -0.1921  0.6766 -0.1844
 7453SOL     OW29543   0.637   5.341   1.368  0.3728 -0.0622  1.0272
 7453SOL    HW229544   0.574   5.412   1.382  1.5536  1.0517  0.9190
 7453SOL    HW329545   0.587   5.273   1.323 -0.5316  1.1816  0.0583
 7453SOL    MW429546   0.622   5.342   1.364  0.4354 -0.9580  0.6424
 7454SOL     OW29547   1.329   3.491   0.401 -0.3772  0.0793 -0.6109
 7454SOL    HW229548   1.312   3.584   0.386  0.0081  0.3703  0.6156
 7454SOL    HW329549   1.243   3.452   0.414 -0.5751  0.1615 -1.6299
 7454SOL    MW429550   1.315   3.498   0.401  0.3164 -0.2576 -0.3627
 7455SOL     OW29551   2.325   2.337   5.023 -0.4764  0.6744  0.0812
 7455SOL    HW229552   2.413   2.372   5.015 -0.2790 -0.0136 -0.9140
 7455SOL    HW329553   2.310   2.289   4.941 -1.3549 -0.1366  0.6871
 7455SOL    MW429554   2.335   2.335   5.011  0.5890 -0.4050  0.4954
 7456SOL     OW29555   6.294   5.063   5.412 -0.0198 -0.3055  0.0591
 7456SOL    HW229556   6.322   5.136   5.467  1.8021  0.6066 -1.9179
 7456SOL    HW329557   6.334   5.081   5.327 -1.3960 -2.4622 -1.1309
 7456SOL    MW429558   6.303   5.075   5.408  0.3914 -0.2025 -0.1405
 7457SOL     OW29559   4.800   5.066   3.049 -1.2407 -0.0281  0.3128
 7457SOL    HW229560   4.793   5.120   3.128 -1.2295  4.0944 -2.2142
 7457SOL    HW329561   4.877   5.011   3.065 -0.8107  1.1495  2.8664
 7457SOL    MW429562   4.809   5.066   3.062  0.7654  0.2967 -0.6656
 7458SOL     OW29563   5.558   0.762   1.586 -0.3952 -0.4206  0.2285
 7458SOL    HW229564   5.577   0.808   1.668 -2.3328  0.8523  0.0272
 7458SOL    HW329565   5.631   0.784   1.528 -0.3930  0.9675  0.7272
 7458SOL    MW429566   5.570   0.771   1.589  0.2817  0.2564  0.5251
 7459SOL     OW29567   1.598   5.651   3.300  0.3662 -0.5358 -0.3055
 7459SOL    HW229568   1.526   5.698   3.342  0.8772  0.9387 -1.0167
 7459SOL    HW329569   1.652   5.720   3.261  1.7401 -1.6594 -0.4545
 7459SOL    MW429570   1.596   5.666   3.300  0.0400 -0.1428  0.1980
 7460SOL     OW29571   1.495   0.919   5.855 -0.2458 -0.3952  0.1678
 7460SOL    HW229572   1.409   0.961   5.860 -0.7590 -0.8350 -3.0444
 7460SOL    HW329573   1.555   0.989   5.830  0.2103 -0.2777  1.5056
 7460SOL    MW429574   1.492   0.933   5.853  0.5645 -0.2098  0.5071
 7461SOL     OW29575   5.443   6.054   2.709  0.2460 -0.6025 -0.3430
 7461SOL    HW229576   5.496   6.068   2.631 -1.7189 -0.5615 -1.7403
 7461SOL    HW329577   5.415   5.962   2.704  0.8957 -0.8866  0.8527
 7461SOL    MW429578   5.446   6.044   2.698  0.1425 -0.2443  0.8132
 7462SOL     OW29579   0.715   5.349   5.734  0.1613  0.0912 -0.4514
 7462SOL    HW229580   0.674   5.328   5.818  1.6696  1.5451  0.7095
 7462SOL    HW329581   0.645   5.389   5.683 -0.1789  1.5911  1.1074
 7462SOL    MW429582   0.700   5.351   5.738 -1.2736 -0.0267  0.1225
 7463SOL     OW29583   5.987   1.549   3.848 -0.0238  0.4903  0.0290
 7463SOL    HW229584   6.019   1.510   3.929  1.1681  1.2252 -0.0690
 7463SOL    HW329585   5.966   1.640   3.871  0.3874  0.7237 -0.4832
 7463SOL    MW429586   5.988   1.556   3.861 -0.5291 -0.0688 -0.3706
 7464SOL     OW29587   1.435   3.984   2.376  0.2834  0.2843  0.4154
 7464SOL    HW229588   1.480   3.904   2.402  0.2654  0.0483 -0.2596
 7464SOL    HW329589   1.436   3.982   2.280  0.0078  0.9356  0.3941
 7464SOL    MW429590   1.441   3.973   2.367 -0.2329  0.8739 -0.3431
 7465SOL     OW29591   6.187   4.995   2.101  0.4953  0.3638 -0.2933
 7465SOL    HW229592   6.270   5.037   2.077  0.9479 -0.9059 -1.0316
 7465SOL    HW329593   6.208   4.944   2.180  0.5330 -0.2635 -0.6997
 7465SOL    MW429594   6.201   4.994   2.108  0.2137 -0.0821 -0.4396
 7466SOL     OW29595   0.788   4.929   3.901  0.2145  0.0872 -0.4974
 7466SOL    HW229596   0.728   4.888   3.839  1.8234 -3.1888 -0.1116
 7466SOL    HW329597   0.761   4.895   3.986  1.7471 -0.3823 -0.1755
 7466SOL    MW429598   0.777   4.919   3.904 -0.3123  0.2589 -0.1241
 7467SOL     OW29599   0.133   3.302   1.601 -0.1779  0.7815 -0.2951
 7467SOL    HW229600   0.181   3.376   1.638  0.1995  0.2592  0.2753
 7467SOL    HW329601   0.041   3.328   1.605  0.0890  2.5394 -2.9995
 7467SOL    MW429602   0.128   3.316   1.606 -0.1432 -0.6176 -0.3335
 7468SOL     OW29603   2.389   2.225   0.060  0.6142 -0.0839  0.4355
 7468SOL    HW229604   2.417   2.316   0.073  1.6680  0.0295 -2.0272
 7468SOL    HW329605   2.313   2.231   0.002  1.6440 -0.7794 -1.0518
 7468SOL    MW429606   2.383   2.238   0.054 -0.1836  0.9527  0.2023
 7469SOL     OW29607   4.744   4.557   2.699 -0.4976 -0.2957  0.3270
 7469SOL    HW229608   4.713   4.611   2.626  1.8460 -1.8586 -1.9987
 7469SOL    HW329609   4.670   4.498   2.718 -1.0839  0.0064 -0.9188
 7469SOL    MW429610   4.730   4.556   2.692 -0.0037 -0.2470 -0.0483
 7470SOL     OW29611   4.947   2.700   1.096  0.2694  0.3112 -0.2500
 7470SOL    HW229612   5.011   2.767   1.118  1.2943 -0.6251 -0.3190
 7470SOL    HW329613   4.866   2.749   1.079  0.8993  1.4879  0.0466
 7470SOL    MW429614   4.945   2.716   1.097  0.0571 -0.2796 -1.0387
 7471SOL     OW29615   6.360   2.027   4.433 -0.4766  0.0467 -0.1487
 7471SOL    HW229616   6.439   1.974   4.444  0.1754  1.2589  1.3464
 7471SOL    HW329617   6.350   2.074   4.516 -2.0595  0.8800 -0.7610
 7471SOL    MW429618   6.369   2.027   4.445  0.1797  0.0422 -0.2088
 7472SOL     OW29619   3.911   0.283   4.849  0.2551 -0.2347 -0.4548
 7472SOL    HW229620   3.879   0.198   4.879 -0.8987  0.4684  0.3560
 7472SOL    HW329621   4.004   0.283   4.872  0.0141 -0.8397  0.5696
 7472SOL    MW429622   3.919   0.272   4.856  0.4578  0.0177  0.4829
 7473SOL     OW29623   4.873   6.128   4.989 -0.0189 -0.2649 -0.1444
 7473SOL    HW229624   4.903   6.038   4.984  2.1117  0.3609  0.4610
 7473SOL    HW329625   4.865   6.146   5.083 -1.7476 -0.1758 -0.2618
 7473SOL    MW429626   4.876   6.119   5.001 -0.4425 -0.1478  0.0350
 7474SOL     OW29627   2.911   6.327   2.953 -0.1301 -0.1417  0.1893
 7474SOL    HW229628   2.936   6.269   2.881 -2.0123  0.3055 -0.9151
 7474SOL    HW329629   2.974   6.399   2.950  0.8917 -1.0134  0.1674
 7474SOL    MW429630   2.922   6.329   2.943  0.0124  0.1782 -0.0988
 7475SOL     OW29631   5.257   0.559   4.905  0.2967  0.0998 -0.4750
 7475SOL    HW229632   5.248   0.582   4.998  0.4636 -1.2748 -0.1014
 7475SOL    HW329633   5.190   0.611   4.861 -0.2443  0.2523  0.5049
 7475SOL    MW429634   5.247   0.569   4.912 -0.2908 -0.2242  0.6595
 7476SOL     OW29635   2.117   4.792   2.829  0.5949 -0.1157  0.0230
 7476SOL    HW229636   2.132   4.747   2.746  1.7869  0.7677 -0.2676
 7476SOL    HW329637   2.189   4.765   2.885  0.3622  0.0883  0.4322
 7476SOL    MW429638   2.128   4.783   2.825 -0.6396  0.1707  0.5993
 7477SOL     OW29639   2.834   4.547   2.535  0.1773 -0.2781 -0.1264
 7477SOL    HW229640   2.752   4.530   2.582  0.1104 -0.8883 -0.4625
 7477SOL    HW329641   2.870   4.624   2.579 -1.3960  1.0479 -1.0356
 7477SOL    MW429642   2.828   4.555   2.547  0.5107 -0.6065 -0.0200
 7478SOL     OW29643   1.270   2.934   0.725  0.1879 -0.3090  0.8194
 7478SOL    HW229644   1.192   2.984   0.702 -0.5152 -0.7274  2.1961
 7478SOL    HW329645   1.241   2.843   0.724  1.1133 -0.6084 -0.3460
 7478SOL    MW429646   1.256   2.929   0.722  0.1020 -0.6696  0.2467
 7479SOL     OW29647   1.185   4.066   0.228  0.1786 -0.3341  0.0998
 7479SOL    HW229648   1.214   3.993   0.173 -1.0941 -0.2649 -0.6989
 7479SOL    HW329649   1.219   4.046   0.315  0.5785 -1.4326 -0.2986
 7479SOL    MW429650   1.193   4.054   0.232 -0.2015 -0.0046 -0.0261
 7480SOL     OW29651   2.148   4.620   2.601 -0.4077  0.3964  0.1119
 7480SOL    HW229652   2.230   4.594   2.560 -0.3015  0.6808  0.1438
 7480SOL    HW329653   2.097   4.661   2.531 -1.3963 -1.6512 -0.4464
 7480SOL    MW429654   2.152   4.622   2.587 -0.5433  0.1945  0.1201
 7481SOL     OW29655   4.736   4.980   1.091  0.1321 -0.3529 -0.0465
 7481SOL    HW229656   4.790   4.994   1.168  1.4423 -3.6108 -0.2240
 7481SOL    HW329657   4.648   4.961   1.125  0.4198 -0.6035  0.5595
 7481SOL    MW429658   4.731   4.979   1.105  0.0519  0.3968 -0.1718
 7482SOL     OW29659   4.836   1.398   2.056 -0.3017  0.1184  0.1040
 7482SOL    HW229660   4.907   1.342   2.025 -0.3822  0.3565 -0.5415
 7482SOL    HW329661   4.857   1.485   2.020 -0.5398  0.3497  0.5123
 7482SOL    MW429662   4.849   1.402   2.047 -0.0472 -0.5167  0.1684
 7483SOL     OW29663   3.739   2.036   3.998 -0.0038  0.1342  0.1366
 7483SOL    HW229664   3.731   2.128   3.972  0.8151 -0.2392 -1.5635
 7483SOL    HW329665   3.763   2.039   4.090  1.8335  1.7098 -0.3286
 7483SOL    MW429666   3.741   2.049   4.006  0.1800 -0.2140  0.1727
 7484SOL     OW29667   3.948   5.640   5.497  0.5382  0.2077  0.0234
 7484SOL    HW229668   4.021   5.691   5.462  2.0571 -1.2173  0.9398
 7484SOL    HW329669   3.987   5.556   5.522 -1.7713 -1.3252 -1.0903
 7484SOL    MW429670   3.963   5.635   5.496 -0.5959  0.2629 -0.1610
 7485SOL     OW29671   0.153   4.104   0.927  0.1125  0.0154 -0.6552
 7485SOL    HW229672   0.173   4.060   0.844  2.0489  0.3838 -0.4224
 7485SOL    HW329673   0.095   4.176   0.902  2.1297  1.2715 -2.0310
 7485SOL    MW429674   0.148   4.108   0.913 -0.3511 -0.2156  0.5225
 7486SOL     OW29675   5.152   4.128   3.058 -0.3255 -0.6455  0.3847
 7486SOL    HW229676   5.071   4.099   3.017 -1.4574 -0.2465  2.1858
 7486SOL    HW329677   5.152   4.223   3.047 -0.8626 -0.4781  1.5481
 7486SOL    MW429678   5.141   4.136   3.051  0.0970 -0.5835  0.3423
 7487SOL     OW29679   2.780   6.138   4.449 -0.3194 -0.3773  0.2612
 7487SOL    HW229680   2.709   6.121   4.512  0.4391  1.4654  1.6989
 7487SOL    HW329681   2.775   6.232   4.432  0.7628 -0.5123 -0.8811
 7487SOL    MW429682   2.770   6.148   4.455  0.2543  0.5644 -0.6935
 7488SOL     OW29683   3.409   3.508   0.153 -0.0882  0.1618  0.6661
 7488SOL    HW229684   3.440   3.549   0.234  1.8503  1.7044 -0.7508
 7488SOL    HW329685   3.480   3.449   0.128  0.2902  1.2132 -0.9007
 7488SOL    MW429686   3.423   3.506   0.161  0.1874 -0.0301  0.7552
 7489SOL     OW29687   3.051   3.712   2.500 -0.0468  0.7816  0.3710
 7489SOL    HW229688   3.119   3.682   2.560 -1.0639 -0.8323  0.7895
 7489SOL    HW329689   3.004   3.781   2.548 -1.1063 -0.7663  1.6699
 7489SOL    MW429690   3.054   3.717   2.514 -0.0011  0.1852  0.1539
 7490SOL     OW29691   1.971   5.576   5.679  0.8135 -0.0522  0.3851
 7490SOL    HW229692   2.064   5.558   5.667  0.6076 -0.0850 -1.3602
 7490SOL    HW329693   1.955   5.558   5.772  2.5034 -0.1663  0.6864
 7490SOL    MW429694   1.981   5.571   5.690 -0.6658 -0.3292  0.3653
 7491SOL     OW29695   0.978   5.114   0.075  0.4870  0.5041  0.1534
 7491SOL    HW229696   0.967   5.169  -0.003 -3.1062  1.3809  1.0676
 7491SOL    HW329697   0.984   5.025   0.042  1.1594  1.0114 -1.1636
 7491SOL    MW429698   0.977   5.110   0.061  0.1970  0.3867 -0.4618
 7492SOL     OW29699   2.263   6.291   3.065 -0.0880  0.0853  0.0574
 7492SOL    HW229700   2.183   6.285   3.013 -0.5899  0.3680  0.7672
 7492SOL    HW329701   2.240   6.351   3.136  0.5823 -0.2648  0.5809
 7492SOL    MW429702   2.249   6.298   3.068  0.0962 -0.0295  0.5165
 7493SOL     OW29703   1.031   6.302   2.116  0.0771  0.0764  0.4858
 7493SOL    HW229704   1.006   6.323   2.205 -1.6506 -0.3338  0.1404
 7493SOL    HW329705   1.106   6.244   2.125 -1.1556 -1.4194  1.7734
 7493SOL    MW429706   1.037   6.297   2.129 -0.2324  0.5581 -0.6271
 7494SOL     OW29707   6.310   1.573   4.100  0.6841 -0.3167  0.3753
 7494SOL    HW229708   6.383   1.575   4.161  0.0994 -1.4392  1.1328
 7494SOL    HW329709   6.352   1.571   4.013  1.5360 -0.7215  0.7844
 7494SOL    MW429710   6.325   1.573   4.096  0.2748  0.5567  0.1985
 7495SOL     OW29711   5.403   4.384   5.149  0.3592 -0.0455  0.9640
 7495SOL    HW229712   5.366   4.471   5.135 -0.5598 -0.4982  0.4945
 7495SOL    HW329713   5.339   4.324   5.111  0.9682 -0.9342  1.3002
 7495SOL    MW429714   5.390   4.388   5.142 -0.4373 -0.2126  0.3649
 7496SOL     OW29715   2.012   6.033   2.342 -0.7591 -0.7618  0.6203
 7496SOL    HW229716   1.919   6.033   2.319 -0.8476  1.0193  0.8104
 7496SOL    HW329717   2.051   6.096   2.281  0.2572 -1.1685  0.8299
 7496SOL    MW429718   2.005   6.041   2.331  0.2517  0.0964  0.5996
 7497SOL     OW29719   5.907   0.599   2.866 -0.5379  0.7240 -0.4117
 7497SOL    HW229720   5.997   0.604   2.835 -0.2242  3.6072  0.7085
 7497SOL    HW329721   5.890   0.505   2.873  3.6428 -0.0689  2.8341
 7497SOL    MW429722   5.917   0.587   2.863 -0.6069 -0.3565  0.0195
 7498SOL     OW29723   3.057   5.694   2.904 -0.0272  0.1183 -0.0179
 7498SOL    HW229724   3.054   5.607   2.865  0.9109 -0.5820  1.4002
 7498SOL    HW329725   3.106   5.747   2.842 -0.2464 -0.4679 -0.7005
 7498SOL    MW429726   3.063   5.690   2.891  0.9077  0.6726  0.0132
 7499SOL     OW29727   0.993   1.083   1.954  0.0333  0.0234 -0.3718
 7499SOL    HW229728   0.913   1.129   1.925 -1.5966 -1.7306  1.1008
 7499SOL    HW329729   0.963   1.023   2.022  3.2705  2.2384  3.3992
 7499SOL    MW429730   0.978   1.081   1.959  0.0783  0.1240  0.6990
 7500SOL     OW29731   1.031   0.987   2.350 -0.0252  0.0714  0.5228
 7500SOL    HW229732   1.090   0.963   2.421  0.9015  0.2202 -0.1765
 7500SOL    HW329733   1.020   1.082   2.359 -2.8296 -0.3335  2.6344
 7500SOL    MW429734   1.038   0.996   2.360  0.2493 -0.1944  0.0706
 7501SOL     OW29735   1.648   1.076   4.801 -0.3129  0.0418 -0.0795
 7501SOL    HW229736   1.641   1.167   4.830  0.9959 -0.4444  1.9729
 7501SOL    HW329737   1.581   1.029   4.852 -0.1951 -0.3236 -0.2577
 7501SOL    MW429738   1.638   1.082   4.812 -0.0896 -0.2279  0.1696
 7502SOL     OW29739   6.291   5.211   1.923  0.0956  0.3687  0.0266
 7502SOL    HW229740   6.283   5.220   1.828 -2.7859  0.6490  0.2023
 7502SOL    HW329741   6.213   5.253   1.958  1.1431  0.4000  2.5625
 7502SOL    MW429742   6.280   5.217   1.915 -0.2107 -0.2415 -0.2522
 7503SOL     OW29743   4.333   5.579   1.067  0.4257 -0.1961 -0.6760
 7503SOL    HW229744   4.269   5.524   1.023  1.0097 -2.0306  0.6348
 7503SOL    HW329745   4.295   5.595   1.153  1.7137 -1.4367  0.1734
 7503SOL    MW429746   4.320   5.574   1.072  1.0195  0.7911  0.1379
 7504SOL     OW29747   4.288   0.535   3.418 -0.0786  0.0657 -0.7042
 7504SOL    HW229748   4.273   0.580   3.501  3.1158  0.6805 -0.3173
 7504SOL    HW329749   4.236   0.454   3.425 -1.4705  1.0142  0.9896
 7504SOL    MW429750   4.279   0.530   3.430 -0.0238 -0.2414 -1.1960
 7505SOL     OW29751   2.191   3.028   5.105  0.1007 -0.4343  0.2759
 7505SOL    HW229752   2.275   2.985   5.120 -0.7311 -1.2693  3.1390
 7505SOL    HW329753   2.205   3.119   5.132  0.3344 -0.3149 -0.2368
 7505SOL    MW429754   2.204   3.035   5.110 -0.0085 -0.5182 -0.2295
 7506SOL     OW29755   5.508   1.242   4.887  0.7127 -0.5348  0.2376
 7506SOL    HW229756   5.439   1.302   4.859  0.3551 -1.3015 -0.5757
 7506SOL    HW329757   5.473   1.201   4.967  0.1781 -0.9675 -0.2050
 7506SOL    MW429758   5.494   1.244   4.894 -0.4829 -0.8311  0.0478
 7507SOL     OW29759   5.180   6.123   2.641  0.2070  0.3431 -0.0953
 7507SOL    HW229760   5.265   6.084   2.661 -0.8977 -1.6513  1.1130
 7507SOL    HW329761   5.137   6.133   2.726 -1.0044  0.6801 -0.7149
 7507SOL    MW429762   5.185   6.119   2.655  0.1999  0.0853 -0.0831
 7508SOL     OW29763   2.374   6.419   5.644 -0.1872  0.8047  0.4168
 7508SOL    HW229764   2.405   6.408   5.734 -2.0069 -0.7816  0.9261
 7508SOL    HW329765   2.303   6.483   5.651 -0.9348  0.0122  0.2940
 7508SOL    MW429766   2.369   6.426   5.657  0.3706 -0.1969 -0.1720
 7509SOL     OW29767   0.039   2.781   4.256  0.1659  0.6945  0.2333
 7509SOL    HW229768   0.113   2.832   4.290  0.8742 -0.3565  0.3012
 7509SOL    HW329769   0.020   2.717   4.324  0.8500 -0.6810 -0.8109
 7509SOL    MW429770   0.046   2.779   4.269  0.4697  0.0730  0.0396
 7510SOL     OW29771   4.393   3.466   3.520 -0.2714  0.0644 -0.3310
 7510SOL    HW229772   4.303   3.492   3.498 -0.4758 -1.6747 -1.7345
 7510SOL    HW329773   4.405   3.382   3.477  1.3130 -0.7878  1.6309
 7510SOL    MW429774   4.382   3.459   3.512 -0.1942 -0.2306 -0.4107
 7511SOL     OW29775   3.938   1.492   4.726  0.4660 -0.3926 -0.0848
 7511SOL    HW229776   3.890   1.420   4.767 -0.1238  0.3927  0.6428
 7511SOL    HW329777   4.015   1.504   4.781  0.8641 -0.8329 -0.5362
 7511SOL    MW429778   3.942   1.484   4.739 -0.4375 -0.1030 -0.4919
 7512SOL     OW29779   0.127   2.210   5.012  0.3611 -0.1265  0.2115
 7512SOL    HW229780   0.117   2.137   4.950  0.1127  0.0510  0.0429
 7512SOL    HW329781   0.162   2.169   5.091 -0.6419 -0.5723  0.4337
 7512SOL    MW429782   0.130   2.195   5.014  0.1124  0.1493 -0.2040
 7513SOL     OW29783   2.044   3.882   1.293 -0.4024  0.0126 -0.7051
 7513SOL    HW229784   2.140   3.882   1.296 -0.3696 -1.2078 -0.9607
 7513SOL    HW329785   2.022   3.800   1.248 -1.5449  1.1719 -2.3556
 7513SOL    MW429786   2.054   3.871   1.288 -0.7629  0.5382 -0.0203
 7514SOL     OW29787   4.454   1.257   4.798  0.0002 -0.1926  0.4516
 7514SOL    HW229788   4.482   1.348   4.809  2.3340 -0.6078 -1.3798
 7514SOL    HW329789   4.372   1.263   4.749  0.0764  0.9078  0.4363
 7514SOL    MW429790   4.447   1.270   4.793 -0.1958 -0.4397 -0.6186
 7515SOL     OW29791   4.579   6.326   2.560 -0.1113  0.1932  0.2576
 7515SOL    HW229792   4.513   6.304   2.625  0.3788  1.4691  1.2253
 7515SOL    HW329793   4.536   6.312   2.476 -0.7474 -1.4943  0.8395
 7515SOL    MW429794   4.565   6.322   2.557  0.2121 -0.0135 -0.7751
 7516SOL     OW29795   4.803   4.893   4.588 -0.1417 -0.2789  0.2740
 7516SOL    HW229796   4.891   4.889   4.626  0.6830 -1.2434 -1.5667
 7516SOL    HW329797   4.779   4.801   4.574 -2.2539 -0.1266  2.3773
 7516SOL    MW429798   4.811   4.880   4.591  0.0571  0.5403 -0.0114
 7517SOL     OW29799   3.730   2.501   2.908  0.0178 -0.4402 -0.2353
 7517SOL    HW229800   3.705   2.535   2.995 -0.6463  0.4089 -0.7361
 7517SOL    HW329801   3.784   2.424   2.927  0.9366  0.4470  0.9487
 7517SOL    MW429802   3.734   2.495   2.922  0.1411  0.4861 -0.6928
 7518SOL     OW29803   2.631   2.982   5.658  0.2197 -0.0619 -0.9392
 7518SOL    HW229804   2.722   2.961   5.637  1.0361  3.2656 -1.3209
 7518SOL    HW329805   2.587   2.985   5.573 -0.3007 -1.6339 -0.7579
 7518SOL    MW429806   2.637   2.980   5.644 -0.0426  0.1801 -0.3768
 7519SOL     OW29807   1.983   0.665   3.835 -0.3970  0.3264 -0.0694
 7519SOL    HW229808   1.909   0.701   3.785  0.3177  0.9352 -0.7159
 7519SOL    HW329809   2.060   0.690   3.785  0.2345 -0.6459  0.3914
 7519SOL    MW429810   1.983   0.673   3.822 -0.5286 -0.1051  0.3631
 7520SOL     OW29811   3.066   4.936   3.558 -0.3450 -0.1121 -0.1297
 7520SOL    HW229812   2.980   4.950   3.517  0.0167  1.7949 -0.3395
 7520SOL    HW329813   3.051   4.868   3.623 -1.6929 -0.8213 -1.1444
 7520SOL    MW429814   3.052   4.929   3.562  0.2052 -0.5304 -0.2608
 7521SOL     OW29815   5.318   1.455   2.522 -0.4742  0.4598  0.1123
 7521SOL    HW229816   5.279   1.427   2.439 -1.0040 -2.4889  1.2271
 7521SOL    HW329817   5.410   1.433   2.515 -0.0433  2.2845 -0.4576
 7521SOL    MW429818   5.325   1.449   2.510 -0.8339 -0.4127 -0.3340
 7522SOL     OW29819   4.218   6.193   1.006  0.5114  0.0980 -0.3864
 7522SOL    HW229820   4.144   6.222   1.060  1.0872  0.8636  0.0112
 7522SOL    HW329821   4.216   6.249   0.929 -0.6111 -1.3257 -1.4488
 7522SOL    MW429822   4.208   6.204   1.003 -0.4366  0.4279 -0.1776
 7523SOL     OW29823   5.468   2.350   3.351  0.4940  0.3682  0.6045
 7523SOL    HW229824   5.473   2.254   3.342  0.1083  0.2896  1.1457
 7523SOL    HW329825   5.378   2.371   3.328  0.8311  0.7224 -0.4472
 7523SOL    MW429826   5.457   2.340   3.347 -0.5572  0.2643 -0.2123
 7524SOL     OW29827   6.093   1.278   1.171 -0.7606  0.3224 -0.0747
 7524SOL    HW229828   6.144   1.327   1.107  0.4756  1.8731  1.9434
 7524SOL    HW329829   6.011   1.327   1.179 -0.0968  1.3056  0.9290
 7524SOL    MW429830   6.089   1.291   1.164  0.1252  0.4037 -0.0102
 7525SOL     OW29831   1.226   1.495   1.161 -0.0719  0.3348 -0.3016
 7525SOL    HW229832   1.282   1.533   1.094  0.5802  1.6566  0.9257
 7525SOL    HW329833   1.217   1.403   1.136  2.1275  0.2327 -0.9144
 7525SOL    MW429834   1.232   1.488   1.149 -0.6392 -0.3417  0.1106
 7526SOL     OW29835   1.199   5.110   5.741  0.4280 -0.8109 -0.2385
 7526SOL    HW229836   1.247   5.029   5.758 -1.0391 -1.7493 -0.4787
 7526SOL    HW329837   1.206   5.121   5.646  1.5713 -0.0178 -0.0916
 7526SOL    MW429838   1.207   5.101   5.730 -0.2496 -0.1662 -0.5100
 7527SOL     OW29839   5.864   1.864   3.591  0.9451  0.2121 -0.2000
 7527SOL    HW229840   5.789   1.820   3.630  1.5105 -0.7307 -0.1533
 7527SOL    HW329841   5.894   1.925   3.659  0.6309  0.1096  0.0324
 7527SOL    MW429842   5.858   1.866   3.605  0.1769 -0.3998 -0.5952
 7528SOL     OW29843   4.433   0.296   0.211 -0.4076 -0.4821 -0.6964
 7528SOL    HW229844   4.342   0.311   0.183 -0.6548 -0.9906 -0.1950
 7528SOL    HW329845   4.437   0.202   0.228  0.5026 -0.6458 -1.6988
 7528SOL    MW429846   4.421   0.286   0.210 -0.0585 -0.1226  0.0539
 7529SOL     OW29847   1.355   6.201   3.013  0.1696  0.7995  0.0293
 7529SOL    HW229848   1.374   6.162   3.098 -0.2865  0.3024 -0.0870
 7529SOL    HW329849   1.435   6.246   2.988 -0.3219  2.7486  1.6747
 7529SOL    MW429850   1.368   6.202   3.021  0.5195  1.0956 -0.0539
 7530SOL     OW29851   2.110   3.074   4.769  0.2670  0.0388  0.2780
 7530SOL    HW229852   2.166   3.150   4.788  1.3434 -0.5360 -0.5471
 7530SOL    HW329853   2.041   3.079   4.835  0.0556  1.9924 -0.0348
 7530SOL    MW429854   2.108   3.085   4.781  0.6406 -0.1463 -0.4368
 7531SOL     OW29855   1.213   6.049   4.689 -0.1420  0.2483 -0.3933
 7531SOL    HW229856   1.170   6.111   4.749  0.0819 -0.1078  0.1393
 7531SOL    HW329857   1.148   5.980   4.676 -0.3426  0.5247 -0.8856
 7531SOL    MW429858   1.199   6.048   4.695  0.1299  0.0068 -0.1358
 7532SOL     OW29859   1.649   0.686   3.001 -0.2045  0.5253 -0.1148
 7532SOL    HW229860   1.688   0.681   2.913  0.8008  0.3640  0.3299
 7532SOL    HW329861   1.573   0.743   2.989 -0.3216  0.1847 -1.1735
 7532SOL    MW429862   1.645   0.693   2.988  0.2945 -0.6821 -0.3691
 7533SOL     OW29863   1.419   4.792   0.267  0.0214 -0.7377  0.2423
 7533SOL    HW229864   1.387   4.727   0.330 -0.0416 -0.6005  0.3534
 7533SOL    HW329865   1.512   4.800   0.286 -0.0796 -0.3741  0.6152
 7533SOL    MW429866   1.427   4.785   0.278  0.4309 -0.4153 -0.0980
 7534SOL     OW29867   0.940   2.059   4.669 -0.0005 -0.2097 -0.4556
 7534SOL    HW229868   0.914   2.071   4.760 -0.0275  0.7745 -0.5846
 7534SOL    HW329869   1.025   2.016   4.674 -0.9029 -2.0146 -0.0132
 7534SOL    MW429870   0.948   2.055   4.681 -0.1113  0.3015 -0.1622
 7535SOL     OW29871   2.436   5.187   2.963  0.3324  0.0292  0.5920
 7535SOL    HW229872   2.346   5.160   2.948 -0.6697  3.0719  0.4794
 7535SOL    HW329873   2.476   5.186   2.876 -0.6830  1.9216  0.0321
 7535SOL    MW429874   2.430   5.184   2.949  0.2282 -0.4256  0.0497
 7536SOL     OW29875   2.300   4.933   2.524  0.0518 -0.9018 -0.2185
 7536SOL    HW229876   2.365   4.904   2.588 -0.2022  0.4596  0.6954
 7536SOL    HW329877   2.326   5.023   2.503  0.8621 -1.6781 -3.0071
 7536SOL    MW429878   2.312   4.941   2.529 -0.5558  0.0141  0.6462
 7537SOL     OW29879   3.237   1.509   3.208 -0.0939  0.3454  0.0274
 7537SOL    HW229880   3.329   1.499   3.185 -0.7730 -0.5042 -2.8588
 7537SOL    HW329881   3.226   1.602   3.228  1.4276  0.3941  0.7015
 7537SOL    MW429882   3.247   1.520   3.207 -0.0328  0.5242 -0.3211
 7538SOL     OW29883   0.145   3.072   0.273 -0.3456  0.1543  0.5114
 7538SOL    HW229884   0.231   3.105   0.300  1.2866 -3.1298 -0.1285
 7538SOL    HW329885   0.162   3.028   0.190 -2.6155 -0.7660  0.4664
 7538SOL    MW429886   0.159   3.070   0.266  0.2908 -0.7257 -0.1694
 7539SOL     OW29887   4.834   4.817   5.693  0.3682 -0.2542 -0.1665
 7539SOL    HW229888   4.868   4.896   5.651  0.2398  0.4089  0.9252
 7539SOL    HW329889   4.851   4.747   5.630 -0.5015  0.7944 -1.6238
 7539SOL    MW429890   4.841   4.818   5.679 -0.1380  0.1848  0.4737
 7540SOL     OW29891   0.582   6.294   1.267 -0.1085 -0.1986  0.3093
 7540SOL    HW229892   0.506   6.352   1.260 -0.6955 -1.0551 -0.8444
 7540SOL    HW329893   0.581   6.263   1.358 -0.0490  1.2162  0.8121
 7540SOL    MW429894   0.572   6.298   1.278  0.3852  0.2605  0.2746
 7541SOL     OW29895   1.876   2.108   4.394  0.1015  0.5083  0.2978
 7541SOL    HW229896   1.877   2.106   4.490  0.2260  0.5131  0.2970
 7541SOL    HW329897   1.784   2.102   4.371 -0.1441  2.7066  0.4759
 7541SOL    MW429898   1.864   2.107   4.404  0.4748  0.2273 -0.0435
 7542SOL     OW29899   3.606   3.186   4.532 -0.3044  0.4625 -0.2899
 7542SOL    HW229900   3.528   3.131   4.527 -0.9046  1.1988  0.7487
 7542SOL    HW329901   3.615   3.206   4.625  2.1963 -1.1297 -0.0941
 7542SOL    MW429902   3.597   3.181   4.544 -0.6955  0.1680 -0.0467
 7543SOL     OW29903   1.952   5.630   4.201  0.1798  0.2683 -0.3562
 7543SOL    HW229904   1.954   5.645   4.296  0.2810 -0.5229 -0.2231
 7543SOL    HW329905   2.040   5.652   4.171  0.4878 -0.5265 -0.0806
 7543SOL    MW429906   1.963   5.635   4.210  0.1155  0.3675  0.1385
 7544SOL     OW29907   0.761   3.028   1.104 -0.3406 -0.1817  0.6708
 7544SOL    HW229908   0.824   3.090   1.068  0.8058 -1.2105  0.8060
 7544SOL    HW329909   0.770   3.036   1.199 -2.6239  1.8010  0.7986
 7544SOL    MW429910   0.771   3.037   1.112 -0.1944 -0.1350  0.4745
 7545SOL     OW29911   3.957   5.227   6.341 -0.3176  0.2338 -0.4760
 7545SOL    HW229912   3.889   5.162   6.362  0.0371  0.0646  0.1767
 7545SOL    HW329913   4.007   5.236   6.422 -0.1205  1.0360 -0.6826
 7545SOL    MW429914   3.955   5.220   6.354 -0.1332  0.6389 -0.0523
 7546SOL     OW29915   5.308   0.643   4.377  0.3012 -0.4124 -0.5926
 7546SOL    HW229916   5.307   0.702   4.302  1.5922 -2.0049 -1.9575
 7546SOL    HW329917   5.397   0.651   4.413  0.1613 -0.7678 -0.1580
 7546SOL    MW429918   5.320   0.652   4.372 -0.2319 -0.0854  0.1981
 7547SOL     OW29919   1.896   2.774   5.969  0.6616  0.2029 -0.3011
 7547SOL    HW229920   1.827   2.803   6.028  1.6843 -0.3317  1.2151
 7547SOL    HW329921   1.854   2.771   5.883 -1.1871 -0.0841  0.5621
 7547SOL    MW429922   1.881   2.777   5.965 -0.5097  0.3413 -0.5420
 7548SOL     OW29923   0.692   1.115   0.042 -0.4832  0.5503  0.2313
 7548SOL    HW229924   0.734   1.046   0.092 -1.7871  0.6303  1.4996
 7548SOL    HW329925   0.653   1.070  -0.033  0.6036  0.2754 -0.1853
 7548SOL    MW429926   0.693   1.100   0.039  0.4124  0.0418 -0.5738
 7549SOL     OW29927   5.103   0.818   5.643 -0.1005 -0.0286  0.6214
 7549SOL    HW229928   5.010   0.835   5.627 -0.3191 -0.0184  1.7568
 7549SOL    HW329929   5.104   0.737   5.693  0.5690 -0.4634 -0.0832
 7549SOL    MW429930   5.091   0.810   5.648  0.4856 -0.2217  0.4683
 7550SOL     OW29931   6.138   3.690   1.902 -0.5596  0.7395 -0.1060
 7550SOL    HW229932   6.148   3.756   1.833 -0.6558 -1.6565 -2.5481
 7550SOL    HW329933   6.047   3.697   1.929 -0.8928  0.7850 -1.2151
 7550SOL    MW429934   6.127   3.700   1.897  1.1067  0.1662 -0.4504
 7551SOL     OW29935   2.355   4.572   4.341 -0.3986 -0.0304 -1.2831
 7551SOL    HW229936   2.380   4.608   4.425  2.0149  0.9740 -2.3411
 7551SOL    HW329937   2.261   4.586   4.336 -0.7205 -0.6886  1.4575
 7551SOL    MW429938   2.346   4.579   4.351  0.2754  0.2845  0.1911
 7552SOL     OW29939   5.543   1.727   0.934  0.8462 -0.5168  0.5707
 7552SOL    HW229940   5.606   1.768   0.876 -0.7920 -0.5711 -1.3523
 7552SOL    HW329941   5.530   1.639   0.898 -2.6284  0.5187 -1.1238
 7552SOL    MW429942   5.550   1.721   0.922 -0.5301 -0.1255  0.7357
 7553SOL     OW29943   2.287   3.535   1.698  0.5840  0.1065  0.3845
 7553SOL    HW229944   2.254   3.542   1.608  2.8907  1.0958 -0.4499
 7553SOL    HW329945   2.244   3.607   1.744  1.4909  1.3914 -0.6852
 7553SOL    MW429946   2.277   3.545   1.692  0.0675  0.2333 -0.1464
 7554SOL     OW29947   0.178   2.421   3.106  0.2371 -0.1689  0.3938
 7554SOL    HW229948   0.187   2.506   3.148  0.3522  0.3431 -0.6363
 7554SOL    HW329949   0.207   2.358   3.172 -0.2259  0.5515  1.3022
 7554SOL    MW429950   0.183   2.424   3.120  0.3042  0.2535 -0.7023
 7555SOL     OW29951   3.206   5.974   0.461  0.7924 -0.4036  0.6214
 7555SOL    HW229952   3.169   6.061   0.447 -0.2029 -0.7697  0.9392
 7555SOL    HW329953   3.133   5.913   0.448  1.9275 -1.3809 -1.7419
 7555SOL    MW429954   3.192   5.977   0.458 -0.0066 -0.3386  0.8000
 7556SOL     OW29955   2.036   2.525   6.052 -0.2575  0.3274 -0.2616
 7556SOL    HW229956   2.020   2.618   6.038  3.8674  1.4103  0.6360
 7556SOL    HW329957   2.005   2.508   6.141 -0.2379  1.0990 -0.0999
 7556SOL    MW429958   2.030   2.535   6.062 -0.0466 -0.3061  0.4875
 7557SOL     OW29959   5.407   0.132   2.156 -0.2374 -0.0173 -0.1346
 7557SOL    HW229960   5.443   0.063   2.101 -0.3268  0.3878 -0.7114
 7557SOL    HW329961   5.406   0.095   2.244 -2.5919 -1.7070 -0.7683
 7557SOL    MW429962   5.411   0.118   2.160 -0.2695 -0.2180  0.0025
 7558SOL     OW29963   4.409   2.782   4.258 -0.0777  0.2436 -0.6080
 7558SOL    HW229964   4.361   2.772   4.176 -1.3641 -1.2193  0.2695
 7558SOL    HW329965   4.373   2.861   4.298 -1.3130 -0.4567 -0.2822
 7558SOL    MW429966   4.398   2.791   4.252  0.0186 -0.6064 -0.1062
 7559SOL     OW29967   6.273   3.032   2.292 -0.5863 -0.3114 -0.2243
 7559SOL    HW229968   6.361   3.069   2.301 -1.0482  1.2686 -1.7594
 7559SOL    HW329969   6.227   3.061   2.371 -0.1606  0.0796 -0.1143
 7559SOL    MW429970   6.279   3.041   2.304  0.2717  0.1022  0.0213
 7560SOL     OW29971   1.341   6.356   4.819 -0.4204  0.0355  0.4796
 7560SOL    HW229972   1.320   6.340   4.911 -0.0500 -1.8126  0.2792
 7560SOL    HW329973   1.308   6.445   4.802  0.2257  0.7383  2.5852
 7560SOL    MW429974   1.333   6.366   4.829 -0.2266  0.4297 -0.2086
 7561SOL     OW29975   1.634   4.415   5.360  0.4638 -0.4967 -0.0017
 7561SOL    HW229976   1.623   4.490   5.301 -0.5937  0.5575  1.4376
 7561SOL    HW329977   1.654   4.342   5.302  1.8111  0.9269 -1.4491
 7561SOL    MW429978   1.635   4.415   5.344 -0.1635  0.1990 -0.2514
 7562SOL     OW29979   6.346   3.832   3.679 -0.4523 -0.5190 -0.4210
 7562SOL    HW229980   6.392   3.850   3.761 -2.1591 -2.8328  1.1597
 7562SOL    HW329981   6.389   3.754   3.645 -0.4428 -0.1757 -1.2214
 7562SOL    MW429982   6.358   3.824   3.685  0.7412  0.0416  0.2468
 7563SOL     OW29983   4.902   3.564   1.564 -0.5703 -0.0702 -0.3765
 7563SOL    HW229984   4.983   3.597   1.523 -0.4900 -0.0500 -0.2018
 7563SOL    HW329985   4.882   3.484   1.515 -0.8619  0.3287 -0.9198
 7563SOL    MW429986   4.910   3.558   1.552  0.0270  0.5185  0.1634
 7564SOL     OW29987   5.467   4.717   3.607 -0.6388  0.4116  0.8846
 7564SOL    HW229988   5.558   4.714   3.576 -0.8266  1.6460  0.1512
 7564SOL    HW329989   5.416   4.679   3.535 -0.8019  0.7707  0.8047
 7564SOL    MW429990   5.472   4.712   3.593  0.6979 -0.2634  0.3359
 7565SOL     OW29991   3.030   4.462   6.393 -0.6515 -0.3428 -0.5690
 7565SOL    HW229992   2.980   4.544   6.393  2.4214  1.7368  0.1112
 7565SOL    HW329993   3.037   4.438   6.301 -1.1702  0.4836 -0.8376
 7565SOL    MW429994   3.024   4.470   6.381 -0.2299 -0.0485  0.0545
 7566SOL     OW29995   2.666   1.187   5.151  0.3134  0.0762  0.2252
 7566SOL    HW229996   2.668   1.279   5.177  1.5612  0.0963  0.1258
 7566SOL    HW329997   2.757   1.159   5.156  0.5079 -0.2367 -2.9066
 7566SOL    MW429998   2.678   1.196   5.155  0.3489  0.0243 -0.1230
 7567SOL     OW29999   5.364   3.935   2.129  0.2689  0.3064 -0.0106
 7567SOL    HW230000   5.459   3.940   2.143  0.1184  0.2305  1.1848
 7567SOL    HW330001   5.336   4.026   2.126  0.3056  0.3245  0.1986
 7567SOL    MW430002   5.373   3.947   2.130 -0.6720 -0.6042  0.1603
 7568SOL     OW30003   1.597   4.206   1.112  0.1187  0.6426 -0.3500
 7568SOL    HW230004   1.650   4.142   1.065 -0.9116  0.0460 -0.7489
 7568SOL    HW330005   1.521   4.157   1.142 -0.8328  1.7212 -0.8912
 7568SOL    MW430006   1.594   4.191   1.109  0.0686  0.6298 -1.0266
 7569SOL     OW30007   6.349   4.041   5.137  0.4174 -0.7242  0.1646
 7569SOL    HW230008   6.411   4.085   5.078 -0.0119 -0.8330 -0.3723
 7569SOL    HW330009   6.266   4.043   5.090 -0.5300  1.3345  1.7427
 7569SOL    MW430010   6.346   4.047   5.123 -0.1097 -1.0139 -0.1660
 7570SOL     OW30011   1.602   5.267   4.424  0.3931 -0.3255 -0.5821
 7570SOL    HW230012   1.624   5.343   4.478 -2.1238 -0.3907  0.6795
 7570SOL    HW330013   1.558   5.303   4.347 -1.8405 -0.4298  0.5490
 7570SOL    MW430014   1.599   5.281   4.421  0.0487  0.8129 -0.3743
 7571SOL     OW30015   3.605   3.693   2.182  0.0023 -0.1057 -0.8531
 7571SOL    HW230016   3.667   3.764   2.200 -1.4572  0.8198  0.9204
 7571SOL    HW330017   3.519   3.729   2.207 -1.1208 -1.7254 -2.1083
 7571SOL    MW430018   3.602   3.707   2.187  0.0010  0.0182  0.3759
 7572SOL     OW30019   4.175   0.917   1.222  0.7827 -0.5052 -0.4970
 7572SOL    HW230020   4.243   0.857   1.255 -0.2585 -0.6492  1.5712
 7572SOL    HW330021   4.117   0.929   1.297 -0.2282  1.4142 -1.5418
 7572SOL    MW430022   4.177   0.911   1.236 -0.1460  0.4160  0.3686
 7573SOL     OW30023   4.981   0.286   0.920  0.3113  1.1522 -0.1116
 7573SOL    HW230024   4.989   0.209   0.976  2.6029  1.4346  0.0501
 7573SOL    HW330025   4.968   0.251   0.832 -1.3829  0.6749  0.3007
 7573SOL    MW430026   4.981   0.271   0.915 -0.3372  0.1645  0.2908
 7574SOL     OW30027   3.074   5.813   0.997 -0.4652  0.1854 -0.0617
 7574SOL    HW230028   3.089   5.890   0.942 -1.6059 -0.1523 -0.8896
 7574SOL    HW330029   3.144   5.816   1.062 -0.3136  1.7548 -0.2505
 7574SOL    MW430030   3.085   5.824   0.998  0.1884 -0.2876 -0.2564
 7575SOL     OW30031   3.422   5.753   5.335  0.1791 -0.4766 -0.6349
 7575SOL    HW230032   3.464   5.778   5.252 -0.5194  0.6347 -0.6822
 7575SOL    HW330033   3.490   5.767   5.401  0.1373  0.6007 -0.7949
 7575SOL    MW430034   3.436   5.758   5.333  0.1318 -0.5235  0.4740
 7576SOL     OW30035   4.542   0.021   0.250  0.4833  0.4390 -0.9202
 7576SOL    HW230036   4.593   0.005   0.170 -1.7732 -0.6741 -2.2504
 7576SOL    HW330037   4.529  -0.066   0.288  0.2624  0.7855 -0.1821
 7576SOL    MW430038   4.547   0.007   0.244  0.1768 -0.0469  0.3079
 7577SOL     OW30039   5.482   6.014   0.131 -0.2133 -0.3933 -0.4116
 7577SOL    HW230040   5.394   6.036   0.164 -0.4904 -0.4646 -1.1021
 7577SOL    HW330041   5.513   6.094   0.090  1.0653  0.4308  1.9407
 7577SOL    MW430042   5.474   6.027   0.130  0.3902  0.4187  0.9094
 7578SOL     OW30043   0.805   0.889   3.543 -0.5516 -0.3573 -1.0439
 7578SOL    HW230044   0.785   0.982   3.530 -2.1581 -0.5488 -0.2064
 7578SOL    HW330045   0.862   0.866   3.469 -0.6988  1.1212 -1.6539
 7578SOL    MW430046   0.810   0.898   3.531  0.5288 -0.1471 -0.0554
 7579SOL     OW30047   5.289   1.987   6.113  0.1994 -0.0075 -0.1662
 7579SOL    HW230048   5.271   1.895   6.097  2.2909 -0.2388 -1.5836
 7579SOL    HW330049   5.276   1.999   6.207 -2.5737 -1.0918 -0.3242
 7579SOL    MW430050   5.285   1.977   6.123 -0.3120  0.0829 -0.3854
 7580SOL     OW30051   5.750   1.649   1.426 -0.2039  0.2015  0.1187
 7580SOL    HW230052   5.784   1.730   1.464  0.1551  0.1789 -0.1562
 7580SOL    HW330053   5.691   1.679   1.357 -0.8236  0.2418  0.6536
 7580SOL    MW430054   5.746   1.664   1.422  0.7207  0.3705 -0.0936
 7581SOL     OW30055   0.718   5.187   2.666 -0.0325 -0.4412 -0.2797
 7581SOL    HW230056   0.790   5.127   2.689  0.9280  0.8641  0.2442
 7581SOL    HW330057   0.762   5.264   2.629 -0.9283  1.3914  2.1857
 7581SOL    MW430058   0.734   5.189   2.665 -0.4045  0.2037  0.1573
 7582SOL     OW30059   6.175   2.474   3.311 -0.2606  0.6481  0.1599
 7582SOL    HW230060   6.203   2.388   3.282 -1.4489  0.4205 -0.3828
 7582SOL    HW330061   6.156   2.522   3.231 -0.8656  0.9640  0.4792
 7582SOL    MW430062   6.176   2.469   3.297 -0.3672  0.3663  0.2422
 7583SOL     OW30063   4.179   2.667   0.917 -0.2815 -0.2477 -0.0801
 7583SOL    HW230064   4.183   2.714   1.000 -2.6960 -0.5148  0.2526
 7583SOL    HW330065   4.220   2.583   0.935  0.1380  0.0776  0.5274
 7583SOL    MW430066   4.185   2.662   0.930  0.1092  0.3246  0.0821
 7584SOL     OW30067   3.050   4.938   4.457 -0.1762 -0.1605  0.1637
 7584SOL    HW230068   3.102   4.862   4.483  0.5805 -0.2211 -1.4193
 7584SOL    HW330069   3.037   4.986   4.539  2.1787 -0.2628  0.6872
 7584SOL    MW430070   3.055   4.934   4.472  0.0623 -0.6863  0.3862
 7585SOL     OW30071   5.003   4.363   4.207  0.2066 -0.0766  0.2582
 7585SOL    HW230072   4.944   4.437   4.219  1.4687  0.6879  2.1736
 7585SOL    HW330073   4.955   4.288   4.241 -0.5087  0.1218 -0.2990
 7585SOL    MW430074   4.989   4.363   4.213 -0.1878 -0.3730  0.2059
 7586SOL     OW30075   6.153   3.945   5.782 -0.0623 -0.1600  0.3220
 7586SOL    HW230076   6.238   3.927   5.821 -0.1963 -0.8909  0.2820
 7586SOL    HW330077   6.173   4.001   5.706  0.3180  0.1731  0.6653
 7586SOL    MW430078   6.167   3.950   5.777 -0.5672  0.5850  0.1284
 7587SOL     OW30079   6.178   0.339   0.864 -0.1040 -0.4494 -0.1462
 7587SOL    HW230080   6.190   0.287   0.944 -0.0984 -0.6811 -0.2971
 7587SOL    HW330081   6.266   0.348   0.827 -0.2242 -1.1106 -0.6038
 7587SOL    MW430082   6.191   0.333   0.870 -0.1220  0.2366 -0.0291
 7588SOL     OW30083   2.282   4.787   4.141 -0.4151  0.6598 -0.1509
 7588SOL    HW230084   2.320   4.741   4.216 -0.9707  0.1612 -0.1646
 7588SOL    HW330085   2.319   4.744   4.065 -1.5775 -0.3782 -0.1783
 7588SOL    MW430086   2.292   4.775   4.141 -0.0928 -0.2993 -0.3558
 7589SOL     OW30087   4.452   4.317   3.122  0.1061  0.2512 -0.0504
 7589SOL    HW230088   4.463   4.233   3.078  0.5641  1.3449 -2.1480
 7589SOL    HW330089   4.479   4.301   3.212  1.1467 -1.6121 -0.6537
 7589SOL    MW430090   4.457   4.304   3.128  0.2194 -0.3658 -0.2476
 7590SOL     OW30091   1.360   5.685   4.117 -0.5997  0.4899 -0.0311
 7590SOL    HW230092   1.362   5.618   4.048  0.4885 -1.2532  1.6103
 7590SOL    HW330093   1.292   5.657   4.177  0.4041  0.3977  1.0922
 7590SOL    MW430094   1.351   5.673   4.116  0.4871 -0.2539 -0.1056
 7591SOL     OW30095   3.285   6.159   3.279 -0.1106  0.3745  0.2627
 7591SOL    HW230096   3.342   6.218   3.230 -0.6081  1.3028  0.7575
 7591SOL    HW330097   3.227   6.120   3.214 -0.1582  0.8886 -0.0039
 7591SOL    MW430098   3.285   6.162   3.264 -0.0362  0.0714 -0.6448
 7592SOL     OW30099   1.394   2.907   2.506 -0.0431  0.4074  0.0968
 7592SOL    HW230100   1.306   2.892   2.541  1.1909 -0.1795  3.2792
 7592SOL    HW330101   1.410   3.000   2.520  0.4857  0.1546  1.3719
 7592SOL    MW430102   1.384   2.917   2.513 -0.8126  0.4575  0.2080
 7593SOL     OW30103   2.638   1.967   0.753 -0.5159 -0.0016  0.3257
 7593SOL    HW230104   2.602   1.894   0.703 -0.5758  0.4293 -0.2704
 7593SOL    HW330105   2.718   1.991   0.705 -0.8487  0.7504  0.1335
 7593SOL    MW430106   2.644   1.961   0.740 -0.2285 -0.2788 -0.1510
 7594SOL     OW30107   3.970   5.543   2.449  0.3786  0.2807  0.5994
 7594SOL    HW230108   3.918   5.531   2.370 -0.9286 -1.0076  1.6071
 7594SOL    HW330109   4.052   5.582   2.418  1.0149 -2.5935 -1.7595
 7594SOL    MW430110   3.974   5.547   2.435 -0.8725 -0.1647 -0.6890
 7595SOL     OW30111   5.329   2.839   2.605 -0.0641  0.2330  0.3336
 7595SOL    HW230112   5.319   2.890   2.686 -1.3709  1.6869 -0.6861
 7595SOL    HW330113   5.243   2.844   2.563  0.2434 -1.4847 -0.6123
 7595SOL    MW430114   5.316   2.846   2.610  0.1761 -0.2190 -0.0737
 7596SOL     OW30115   2.590   1.855   1.000 -0.5404 -0.7695 -0.5565
 7596SOL    HW230116   2.663   1.795   0.992  0.1883 -0.1423  0.9077
 7596SOL    HW330117   2.588   1.903   0.917  0.7186 -0.7820 -0.6011
 7596SOL    MW430118   2.599   1.854   0.988  0.3967  0.0145  0.1494
 7597SOL     OW30119   0.973   0.740   1.117  0.3789 -0.1917 -0.4510
 7597SOL    HW230120   0.918   0.802   1.165 -0.1800 -0.4576 -0.7366
 7597SOL    HW330121   0.924   0.658   1.119  0.8084 -0.4550 -0.6364
 7597SOL    MW430122   0.959   0.737   1.124  0.3179  0.1184  0.1429
 7598SOL     OW30123   3.741   1.107   0.442  0.0951 -0.4778  0.1425
 7598SOL    HW230124   3.659   1.146   0.472  1.2756  0.2789  2.6546
 7598SOL    HW330125   3.769   1.162   0.369 -0.4682  0.6662  0.7744
 7598SOL    MW430126   3.734   1.119   0.436  1.0070  0.2780  0.5224
 7599SOL     OW30127   0.462   2.964   0.848 -0.1208 -0.2308  0.1051
 7599SOL    HW230128   0.429   2.891   0.795  0.8406 -1.0956  0.6595
 7599SOL    HW330129   0.461   2.931   0.938 -0.1803  0.6370  0.4289
 7599SOL    MW430130   0.458   2.950   0.853  0.0042  0.3679 -0.6392
 7600SOL     OW30131   3.982   1.091   1.768 -0.1033  0.1418 -0.4152
 7600SOL    HW230132   4.000   1.009   1.723 -1.4310  0.1311 -0.9930
 7600SOL    HW330133   3.939   1.066   1.849 -2.2960  0.2588 -1.4658
 7600SOL    MW430134   3.979   1.077   1.772 -0.0951  0.3267 -0.2484
 7601SOL     OW30135   3.731   0.411   3.453 -0.4307 -0.1355  0.3875
 7601SOL    HW230136   3.684   0.349   3.508 -1.2664 -1.4109 -1.6538
 7601SOL    HW330137   3.742   0.366   3.369  1.5917  1.3634 -0.2503
 7601SOL    MW430138   3.726   0.397   3.449  1.0420 -0.1125 -0.0653
 7602SOL     OW30139   5.933   3.896   4.918  0.1582 -0.2641  0.3584
 7602SOL    HW230140   5.863   3.943   4.873 -0.3791 -0.2000  1.2406
 7602SOL    HW330141   5.891   3.854   4.992  1.1810  0.4681  1.3959
 7602SOL    MW430142   5.918   3.897   4.922 -0.4902  0.0450 -0.0343
 7603SOL     OW30143   4.729   0.323   3.677 -0.0214 -0.3540  0.8305
 7603SOL    HW230144   4.752   0.304   3.768  0.7598  0.3705  0.8024
 7603SOL    HW330145   4.814   0.327   3.632 -0.3461  0.1429  0.2474
 7603SOL    MW430146   4.743   0.321   3.683 -0.1275 -0.5731 -0.2267
 7604SOL     OW30147   1.121   0.357   1.878 -0.0322  0.2126 -0.1055
 7604SOL    HW230148   1.118   0.265   1.905 -0.2035 -0.3751 -1.9731
 7604SOL    HW330149   1.050   0.366   1.814  0.0868  1.6073 -0.0813
 7604SOL    MW430150   1.111   0.346   1.873  0.5607 -0.8684  0.3483
 7605SOL     OW30151   5.833   5.254   2.329  0.1006  0.1156 -0.7049
 7605SOL    HW230152   5.842   5.327   2.268  0.8991 -1.2877 -2.3446
 7605SOL    HW330153   5.918   5.247   2.371 -0.0477  0.2643 -0.3774
 7605SOL    MW430154   5.845   5.263   2.326 -0.4150 -0.2679  0.3538
 7606SOL     OW30155   3.134   4.053   2.750 -0.0911 -0.2184 -0.0564
 7606SOL    HW230156   3.155   4.136   2.792  1.9390  0.2889 -1.8654
 7606SOL    HW330157   3.176   3.986   2.805  1.2583  0.2977 -0.4180
 7606SOL    MW430158   3.142   4.055   2.763  0.0020 -0.1210 -0.4506
 7607SOL     OW30159   3.797   5.190   4.905  0.4181  0.6381  0.0496
 7607SOL    HW230160   3.789   5.272   4.856 -1.5470  0.8931  0.6867
 7607SOL    HW330161   3.768   5.212   4.994  1.8391 -0.3004  0.7948
 7607SOL    MW430162   3.792   5.204   4.910  0.3967 -0.0591  0.2197
 7608SOL     OW30163   4.540   5.573   3.962  0.1136 -0.2561  0.2913
 7608SOL    HW230164   4.550   5.661   3.926 -0.1030 -0.4575 -0.2718
 7608SOL    HW330165   4.461   5.539   3.919  0.0827 -0.6514  0.6574
 7608SOL    MW430166   4.531   5.580   3.952  0.2582 -0.0739 -0.1757
 7609SOL     OW30167   6.431   5.389   2.422  0.1189  0.3732  0.2351
 7609SOL    HW230168   6.361   5.441   2.461  1.3398  0.6912  2.1374
 7609SOL    HW330169   6.407   5.298   2.442 -0.2545  0.4075 -0.0366
 7609SOL    MW430170   6.419   5.384   2.430  0.3652  0.3195 -0.2728
 7610SOL     OW30171   4.196   3.539   0.093 -0.1331 -0.1305 -0.3101
 7610SOL    HW230172   4.107   3.542   0.128  0.1794 -2.2949  0.8125
 7610SOL    HW330173   4.193   3.474   0.023  0.8576 -1.3149  0.7160
 7610SOL    MW430174   4.184   3.531   0.088 -0.2510 -0.3616  0.1296
 7611SOL     OW30175   0.257   3.702   1.573  0.1487  0.2950  0.1340
 7611SOL    HW230176   0.206   3.782   1.559 -2.6467 -1.4309 -0.3084
 7611SOL    HW330177   0.295   3.683   1.488 -2.2830 -0.7593 -0.7975
 7611SOL    MW430178   0.255   3.710   1.560  0.3728  0.5496 -0.3721
 7612SOL     OW30179   0.990   1.934   4.117  0.2544  0.2197  0.5397
 7612SOL    HW230180   0.959   1.947   4.027  2.9632 -0.1188 -0.5129
 7612SOL    HW330181   0.936   1.994   4.169 -2.3037 -0.5392 -1.0461
 7612SOL    MW430182   0.979   1.944   4.112  0.4629  0.8484 -0.0101
 7613SOL     OW30183   3.345   4.370   5.483  0.4843  0.2391  0.1332
 7613SOL    HW230184   3.407   4.300   5.502 -1.2225 -1.2613  0.5121
 7613SOL    HW330185   3.323   4.359   5.391 -0.4702 -0.3474  0.4127
 7613SOL    MW430186   3.350   4.359   5.473  0.5081  0.3164  0.1918
 7614SOL     OW30187   5.945   1.161   4.068  0.1006 -0.1107  0.4611
 7614SOL    HW230188   5.851   1.146   4.076  0.1155 -0.4653  0.0067
 7614SOL    HW330189   5.975   1.169   4.159  0.4818 -5.2624  1.0873
 7614SOL    MW430190   5.936   1.160   4.081 -1.0210 -1.0039 -0.6397
 7615SOL     OW30191   2.610   3.921   2.135  0.5520 -0.4606  0.1975
 7615SOL    HW230192   2.660   3.889   2.210  0.6444 -0.4463  0.1427
 7615SOL    HW330193   2.677   3.944   2.070  0.6164  1.6990  0.9483
 7615SOL    MW430194   2.625   3.920   2.136  0.0236  0.5949  0.6030
 7616SOL     OW30195   3.000   3.087   6.409  0.1187 -0.1142 -0.1605
 7616SOL    HW230196   3.002   3.181   6.390  0.6900  0.1932  1.3053
 7616SOL    HW330197   2.921   3.056   6.363 -1.4752  1.5444  1.2599
 7616SOL    MW430198   2.990   3.096   6.400 -0.0855 -0.7582 -0.6454
 7617SOL     OW30199   3.193   2.408   5.171 -0.1929  0.3881 -0.6151
 7617SOL    HW230200   3.261   2.357   5.126  0.8708  1.1381  0.1075
 7617SOL    HW330201   3.134   2.435   5.101 -0.5008 -1.3793 -1.0862
 7617SOL    MW430202   3.195   2.405   5.156 -0.1216 -0.3533  0.1837
 7618SOL     OW30203   2.753   0.047   1.412  0.3188  0.3218  0.2834
 7618SOL    HW230204   2.781  -0.013   1.481 -3.0287 -0.0426  1.5284
 7618SOL    HW330205   2.688  -0.002   1.362  0.4012  1.6288 -1.2029
 7618SOL    MW430206   2.748   0.033   1.415  0.4222 -0.7011  0.1809
 7619SOL     OW30207   2.621   1.385   1.560 -1.0801 -0.0286  0.0542
 7619SOL    HW230208   2.545   1.439   1.582 -1.8512 -0.6871 -0.9255
 7619SOL    HW330209   2.599   1.297   1.589 -1.3548 -0.5366 -1.5523
 7619SOL    MW430210   2.608   1.381   1.566  0.1507 -0.9309 -0.0569
 7620SOL     OW30211   3.121   5.984   5.606 -0.0207  0.2632 -0.0512
 7620SOL    HW230212   3.123   5.957   5.515 -1.5743  1.4078 -0.4792
 7620SOL    HW330213   3.124   5.902   5.656 -0.7170 -0.4711 -1.1802
 7620SOL    MW430214   3.121   5.970   5.601 -0.5002 -0.1299  0.8481
 7621SOL     OW30215   2.414   5.206   4.223 -0.3204  0.6423  0.1721
 7621SOL    HW230216   2.371   5.282   4.184 -0.8842  0.4504  0.4010
 7621SOL    HW330217   2.341   5.148   4.248  0.1062 -0.0131 -0.0933
 7621SOL    MW430218   2.399   5.209   4.221  0.2092  0.8227  0.4245
 7622SOL     OW30219   1.037   2.418   2.162  0.2521  0.1256  0.3113
 7622SOL    HW230220   1.026   2.323   2.172  1.1119 -0.3461 -2.4865
 7622SOL    HW330221   0.985   2.440   2.085  2.3482  1.3972 -0.8043
 7622SOL    MW430222   1.028   2.408   2.153 -0.4196  0.3381 -0.2057
 7623SOL     OW30223   2.827   5.118   6.394  0.0798 -0.5797  0.0888
 7623SOL    HW230224   2.780   5.105   6.312  1.5955 -0.6248 -0.8002
 7623SOL    HW330225   2.790   5.052   6.453 -1.4720 -0.1287 -0.3180
 7623SOL    MW430226   2.816   5.107   6.391  0.1876 -0.0004  0.0885
 7624SOL     OW30227   2.688   5.860   1.473 -0.5856  0.6536 -0.6969
 7624SOL    HW230228   2.709   5.834   1.383  0.1123  0.8045 -0.5827
 7624SOL    HW330229   2.652   5.949   1.465 -0.9387  0.4951 -0.8697
 7624SOL    MW430230   2.686   5.868   1.460 -0.3942 -0.1971 -0.0350
 7625SOL     OW30231   3.519   2.947   3.896  0.7433  0.1222 -0.2188
 7625SOL    HW230232   3.607   2.911   3.883  0.8415  0.2346  0.1267
 7625SOL    HW330233   3.465   2.871   3.918  0.9319  0.1649  0.4179
 7625SOL    MW430234   3.523   2.933   3.897  0.1153  0.3182  0.1791
 7626SOL     OW30235   2.996   6.028   2.094  0.1216 -0.1537 -0.3850
 7626SOL    HW230236   3.052   6.095   2.054  0.2336 -0.4352 -0.6986
 7626SOL    HW330237   2.928   6.011   2.030  2.2430 -3.1665 -2.0948
 7626SOL    MW430238   2.995   6.035   2.080 -0.2084  0.8214 -0.1897
 7627SOL     OW30239   2.620   3.554   4.769 -0.0540  0.0602  0.4225
 7627SOL    HW230240   2.569   3.533   4.691 -0.1940 -0.7641  0.7269
 7627SOL    HW330241   2.612   3.476   4.825 -0.0054  0.6594  1.2862
 7627SOL    MW430242   2.612   3.541   4.766  0.2616 -0.6273 -0.5366
 7628SOL     OW30243   0.395   2.387   0.031 -0.8381 -0.1148 -0.5661
 7628SOL    HW230244   0.360   2.379  -0.058 -0.2171 -1.4466 -0.7261
 7628SOL    HW330245   0.487   2.410   0.018 -0.7312 -0.3742 -0.2813
 7628SOL    MW430246   0.403   2.389   0.017  0.1442 -0.0077  0.2744
 7629SOL     OW30247   4.851   6.087   5.777  0.3062  0.4530  0.5941
 7629SOL    HW230248   4.851   6.011   5.719 -1.3199  0.7654  0.1348
 7629SOL    HW330249   4.870   6.052   5.863 -1.5504 -0.6802  0.5901
 7629SOL    MW430250   4.853   6.072   5.780  0.2035 -0.6328 -0.0574
 7630SOL     OW30251   5.791   2.338   3.949 -0.0367 -0.0826 -0.7386
 7630SOL    HW230252   5.782   2.429   3.922  0.8946  0.1591 -0.2799
 7630SOL    HW330253   5.709   2.318   3.994  0.4082  1.0603  0.6554
 7630SOL    MW430254   5.779   2.347   3.951  0.3333 -0.3872 -0.2003
 7631SOL     OW30255   6.128   2.554   3.032  0.7043  0.1021 -0.3991
 7631SOL    HW230256   6.055   2.496   3.010 -0.6694  0.9991  1.4576
 7631SOL    HW330257   6.205   2.498   3.028 -0.2440 -1.2022 -1.1706
 7631SOL    MW430258   6.128   2.539   3.029  0.1492 -0.6442 -0.3586
 7632SOL     OW30259   0.385   5.656   2.207  0.0686  0.1033  0.3145
 7632SOL    HW230260   0.341   5.680   2.288  1.2837  0.9989  0.7268
 7632SOL    HW330261   0.466   5.707   2.206  0.1018  0.0929 -1.4506
 7632SOL    MW430262   0.390   5.666   2.217  0.0014 -0.3668  0.4412
 7633SOL     OW30263   6.336   1.153   3.104 -0.5885 -0.2746  0.1818
 7633SOL    HW230264   6.403   1.202   3.056  0.3355 -1.3384  0.3498
 7633SOL    HW330265   6.382   1.117   3.180 -1.8975  0.8541  1.5587
 7633SOL    MW430266   6.351   1.155   3.107  0.1441  0.0856  0.2643
 7634SOL     OW30267   5.928   3.980   4.455 -0.1258  0.2222 -0.2273
 7634SOL    HW230268   5.931   4.073   4.432 -0.3146  0.1985 -0.3460
 7634SOL    HW330269   6.007   3.966   4.508  0.8741  0.0588 -1.7059
 7634SOL    MW430270   5.939   3.990   4.459  1.0973 -0.9502  0.0784
 7635SOL     OW30271   2.138   4.252   0.440  0.1324  0.3253 -0.4404
 7635SOL    HW230272   2.171   4.248   0.530 -0.1217  1.4701 -0.2763
 7635SOL    HW330273   2.072   4.321   0.442 -0.2881 -0.0356 -1.3829
 7635SOL    MW430274   2.134   4.261   0.452 -0.6067  0.0845 -0.5163
 7636SOL     OW30275   2.144   0.376   3.212  0.3162  0.4109  0.1239
 7636SOL    HW230276   2.221   0.373   3.156 -0.2798 -0.7444 -0.6651
 7636SOL    HW330277   2.073   0.404   3.154 -0.2713 -0.6293  0.3258
 7636SOL    MW430278   2.145   0.380   3.197  0.2563 -0.2443  0.4744
 7637SOL     OW30279   5.877   1.573   0.943  0.6825 -0.3733  0.2788
 7637SOL    HW230280   5.818   1.587   0.869  0.7167 -2.3288 -0.1753
 7637SOL    HW330281   5.834   1.505   0.996  1.0905  0.3543  1.5994
 7637SOL    MW430282   5.863   1.566   0.940 -0.5453  0.5549 -0.3225
 7638SOL     OW30283   6.097   5.389   1.750  0.5384  0.0664 -0.2975
 7638SOL    HW230284   6.128   5.434   1.829 -0.5775  1.4211 -0.5838
 7638SOL    HW330285   6.003   5.403   1.750  0.2357 -1.6875 -0.8198
 7638SOL    MW430286   6.089   5.397   1.760  0.6424  0.4561 -0.0258
 7639SOL     OW30287   1.103   1.984   6.306  0.3997 -0.2193 -0.3208
 7639SOL    HW230288   1.096   2.078   6.292 -2.2569 -0.4781 -1.3084
 7639SOL    HW330289   1.036   1.964   6.372 -0.3730 -1.5954 -1.4467
 7639SOL    MW430290   1.093   1.994   6.313  0.1501  0.0611 -0.1598
 7640SOL     OW30291   6.134   2.703   6.371 -0.5361  0.1772  0.2532
 7640SOL    HW230292   6.220   2.729   6.336 -0.7721  0.4847 -0.1079
 7640SOL    HW330293   6.134   2.607   6.365 -0.4073  0.2026 -0.2000
 7640SOL    MW430294   6.145   2.694   6.366  0.6004  0.2832  0.1242
 7641SOL     OW30295   3.903   6.109   4.277  0.5764 -0.0065  0.1894
 7641SOL    HW230296   3.984   6.081   4.321  1.3440  0.3855 -0.9264
 7641SOL    HW330297   3.900   6.056   4.197 -0.6367 -0.4915  0.5445
 7641SOL    MW430298   3.914   6.098   4.272  0.4898  0.9082  0.1587
 7642SOL     OW30299   0.453   1.567   2.986 -0.0784  0.3350  0.4848
 7642SOL    HW230300   0.491   1.654   2.974  0.6226  0.5055  3.3546
 7642SOL    HW330301   0.361   1.579   2.965  0.3387  1.2523 -1.0650
 7642SOL    MW430302   0.446   1.580   2.981 -0.3826 -0.2255 -0.6432
 7643SOL     OW30303   0.678   5.740   3.858  0.0095 -0.1548 -0.2285
 7643SOL    HW230304   0.625   5.817   3.836  0.9079  0.2068 -1.2274
 7643SOL    HW330305   0.692   5.697   3.774  1.2832 -0.2444  0.0167
 7643SOL    MW430306   0.673   5.745   3.844 -0.1981  0.5446  0.0838
 7644SOL     OW30307   5.760   2.036   4.044  0.0090 -0.1853 -0.0619
 7644SOL    HW230308   5.787   2.038   3.952  1.3294 -1.2642  0.2696
 7644SOL    HW330309   5.737   1.945   4.061  2.1676 -0.5499  1.2829
 7644SOL    MW430310   5.761   2.025   4.034  0.1755 -0.0874 -0.7484
 7645SOL     OW30311   3.184   0.441   6.303 -0.4589  0.0495  0.2892
 7645SOL    HW230312   3.128   0.410   6.375 -1.7674 -0.2689 -0.8227
 7645SOL    HW330313   3.201   0.533   6.324  1.3488 -0.6354  2.3076
 7645SOL    MW430314   3.179   0.449   6.316 -0.0119 -0.0683 -0.3765
 7646SOL     OW30315   0.196   5.009   5.293 -0.3643 -0.5012 -0.3031
 7646SOL    HW230316   0.203   4.928   5.344 -1.3393  0.1629  0.9428
 7646SOL    HW330317   0.273   5.060   5.318 -0.4973 -0.4518  0.0087
 7646SOL    MW430318   0.207   5.005   5.303  0.7642 -0.5548 -0.6685
 7647SOL     OW30319   3.143   3.480   0.208 -0.0770 -0.0301 -0.3282
 7647SOL    HW230320   3.122   3.491   0.301  0.8795 -0.5669 -0.0398
 7647SOL    HW330321   3.235   3.505   0.200 -0.1482  0.0131 -1.1368
 7647SOL    MW430322   3.152   3.485   0.219  0.3615 -0.2636  0.1727
 7648SOL     OW30323   5.816   6.275   1.898 -0.2535  0.3427  0.1981
 7648SOL    HW230324   5.755   6.266   1.971 -0.3813  0.3737  0.0945
 7648SOL    HW330325   5.870   6.351   1.922 -1.4996  1.5288 -0.6024
 7648SOL    MW430326   5.815   6.284   1.911 -0.0214  0.2223  0.0714
 7649SOL     OW30327   1.907   1.705   1.417 -0.6798  0.1404  0.2926
 7649SOL    HW230328   1.986   1.667   1.454 -0.5967  0.7214  0.7106
 7649SOL    HW330329   1.855   1.629   1.389  0.2514 -0.2276 -0.4809
 7649SOL    MW430330   1.910   1.690   1.418 -0.3143 -0.5839  0.1266
 7650SOL     OW30331   6.070   2.283   4.779  0.0764  0.2106 -0.5621
 7650SOL    HW230332   6.072   2.372   4.815 -1.4827  0.2718 -0.5399
 7650SOL    HW330333   6.026   2.293   4.694 -2.1559 -0.7881  0.3905
 7650SOL    MW430334   6.064   2.296   4.772  0.0618  0.3473 -0.0355
 7651SOL     OW30335   1.272   0.718   2.600 -0.1807 -0.0232  0.3939
 7651SOL    HW230336   1.280   0.638   2.548 -1.6642 -0.5296  0.9067
 7651SOL    HW330337   1.281   0.689   2.690 -1.7025  0.2069  0.6452
 7651SOL    MW430338   1.274   0.704   2.605 -0.6326 -0.1515  0.4098
 7652SOL     OW30339   5.169   4.757   6.315  0.3578 -0.2644  0.1218
 7652SOL    HW230340   5.074   4.752   6.301  0.5238  0.2666 -1.4391
 7652SOL    HW330341   5.197   4.833   6.264  1.6124 -0.3161  0.6896
 7652SOL    MW430342   5.160   4.766   6.306  0.0764 -0.2370  0.3111
 7653SOL     OW30343   3.109   6.178   5.330  0.4769  0.1963 -0.2746
 7653SOL    HW230344   3.015   6.164   5.315  0.2989 -0.2570  1.0557
 7653SOL    HW330345   3.152   6.132   5.259 -0.2900 -1.1086  0.0690
 7653SOL    MW430346   3.102   6.170   5.319  0.9495  0.5409  0.3083
 7654SOL     OW30347   4.282   1.969   1.823 -0.6052  0.8217  0.2381
 7654SOL    HW230348   4.195   1.949   1.857 -0.7757  0.5432 -0.3416
 7654SOL    HW330349   4.341   1.955   1.896 -0.8757 -0.4439  0.2366
 7654SOL    MW430350   4.278   1.965   1.837 -0.1237  0.5119 -0.0694
 7655SOL     OW30351   5.888   2.781   0.853  0.0146 -0.9010 -0.0009
 7655SOL    HW230352   5.879   2.700   0.902 -1.3769 -2.3152 -2.4120
 7655SOL    HW330353   5.836   2.768   0.774  0.6645  1.9243 -1.0405
 7655SOL    MW430354   5.880   2.769   0.849 -0.3577 -0.0966  0.2382
 7656SOL     OW30355   0.331   4.241   4.819  0.4837  0.3147  0.1467
 7656SOL    HW230356   0.379   4.207   4.895  0.3983  0.6365  0.3452
 7656SOL    HW330357   0.245   4.199   4.825  1.1894 -1.4164 -1.0217
 7656SOL    MW430358   0.326   4.231   4.830  0.0909 -0.2035  0.4436
 7657SOL     OW30359   1.135   0.708   1.339 -0.1074  0.3296 -0.0059
 7657SOL    HW230360   1.222   0.726   1.303 -0.0169  0.2511  0.1722
 7657SOL    HW330361   1.077   0.708   1.263  0.3293 -1.4563 -0.3829
 7657SOL    MW430362   1.139   0.711   1.324  0.1306  0.4161 -0.1624
 7658SOL     OW30363   1.622   4.767   4.953  0.3359 -0.3388  0.0070
 7658SOL    HW230364   1.710   4.739   4.928  0.5899 -0.0446  0.5434
 7658SOL    HW330365   1.573   4.770   4.871  1.3914  1.4930 -0.6068
 7658SOL    MW430366   1.627   4.764   4.939  0.2655 -0.2869  0.3046
 7659SOL     OW30367   3.371   0.238   2.537 -0.3023 -0.4038  0.1103
 7659SOL    HW230368   3.310   0.304   2.504  0.0698  0.1475  0.5310
 7659SOL    HW330369   3.319   0.189   2.601  0.2298  1.3475  1.9875
 7659SOL    MW430370   3.356   0.240   2.541  0.0446 -0.4223  0.0576
 7660SOL     OW30371   1.090   3.704   6.092 -0.7345  0.0822  0.5885
 7660SOL    HW230372   1.064   3.780   6.144  0.9208  1.9001 -1.0614
 7660SOL    HW330373   1.023   3.697   6.024 -1.4605 -0.6616  1.3437
 7660SOL    MW430374   1.078   3.713   6.090 -0.0187  0.3001 -0.4029
 7661SOL     OW30375   3.196   3.839   2.942  0.4946 -0.2829 -0.2987
 7661SOL    HW230376   3.275   3.786   2.956  0.0692 -0.4505  1.6665
 7661SOL    HW330377   3.124   3.781   2.964 -0.3361 -0.4745 -3.0624
 7661SOL    MW430378   3.197   3.824   2.947 -0.4916 -0.0186 -0.4824
 7662SOL     OW30379   3.558   0.999   6.419 -0.8055  0.4018 -0.5150
 7662SOL    HW230380   3.643   0.995   6.376 -0.4798  1.7747 -0.0368
 7662SOL    HW330381   3.534   0.907   6.433  1.1021 -0.0126  0.3665
 7662SOL    MW430382   3.566   0.986   6.415  0.1034 -0.0730  0.0714
 7663SOL     OW30383   4.268   5.935   1.090 -0.1118  0.5896 -0.0885
 7663SOL    HW230384   4.290   5.897   1.005 -1.2967  0.3507 -0.3064
 7663SOL    HW330385   4.239   6.024   1.069 -1.0492  0.3085 -0.0228
 7663SOL    MW430386   4.267   5.942   1.076 -0.4180  0.2460 -0.2709
 7664SOL     OW30387   4.195   4.739   0.998  0.6793 -0.0357  0.0576
 7664SOL    HW230388   4.285   4.714   0.977  0.6565 -0.8870  0.9334
 7664SOL    HW330389   4.159   4.664   1.045 -0.1174  0.7483  0.7398
 7664SOL    MW430390   4.202   4.726   1.001  0.1297  0.3758 -0.2696
 7665SOL     OW30391   2.572   5.363   1.178  0.1489 -0.0663 -0.0583
 7665SOL    HW230392   2.653   5.359   1.126 -0.4163  0.2536 -1.0024
 7665SOL    HW330393   2.600   5.343   1.267  1.5126  1.5091 -0.0900
 7665SOL    MW430394   2.587   5.360   1.183 -0.3495  0.2440 -0.6662
 7666SOL     OW30395   5.861   3.197   3.037 -0.3803 -0.2795 -0.4990
 7666SOL    HW230396   5.806   3.165   2.965  0.5310 -2.5944 -0.2832
 7666SOL    HW330397   5.800   3.219   3.107 -1.1852  0.3713 -1.3881
 7666SOL    MW430398   5.846   3.195   3.037  0.0316  0.6049 -0.6383
 7667SOL     OW30399   1.069   0.087   1.923  0.0327  0.2512 -0.2649
 7667SOL    HW230400   1.162   0.073   1.905  0.3183 -0.8987  1.7649
 7667SOL    HW330401   1.051   0.032   1.999 -1.9219  1.7459  0.4313
 7667SOL    MW430402   1.079   0.078   1.930 -0.1869  0.1282  0.1678
 7668SOL     OW30403   1.053   3.108   1.066  0.6492 -0.2829  0.3459
 7668SOL    HW230404   1.106   3.187   1.059  1.8275 -1.0975 -0.1749
 7668SOL    HW330405   1.116   3.036   1.060 -0.3768 -1.2653  0.9905
 7668SOL    MW430406   1.068   3.109   1.065 -0.2334  0.0085  0.0767
 7669SOL     OW30407   0.339   2.603   5.614 -1.3523 -0.4351  0.4733
 7669SOL    HW230408   0.294   2.534   5.662 -1.5414 -0.1807  0.6682
 7669SOL    HW330409   0.416   2.623   5.667 -0.3170 -1.7330 -0.4832
 7669SOL    MW430410   0.343   2.597   5.628  1.0199  0.1375 -0.5969
 7670SOL     OW30411   1.111   2.921   3.898  0.0272 -0.5961 -0.9102
 7670SOL    HW230412   1.081   2.870   3.973  0.3208 -0.4989 -0.7271
 7670SOL    HW330413   1.133   3.007   3.933 -0.4482 -0.3491 -1.2185
 7670SOL    MW430414   1.110   2.925   3.912 -0.1810 -0.1574  0.0847
 7671SOL     OW30415   2.167   5.477   5.267  0.3645 -0.0649  0.9494
 7671SOL    HW230416   2.258   5.498   5.286  0.9808 -1.2624 -0.4633
 7671SOL    HW330417   2.117   5.550   5.304  1.7691  0.0276  2.8442
 7671SOL    MW430418   2.172   5.489   5.275 -0.5026 -0.7031 -0.1213
 7672SOL     OW30419   0.864   0.908   2.134 -0.2534  0.0213  0.1031
 7672SOL    HW230420   0.922   0.919   2.209 -1.3866  1.8659  0.7755
 7672SOL    HW330421   0.851   0.813   2.128  2.1298 -0.3811  0.4224
 7672SOL    MW430422   0.870   0.897   2.143  0.3232 -0.0369  0.0596
 7673SOL     OW30423   0.460   5.294   3.622  0.1328  0.1714  0.2825
 7673SOL    HW230424   0.388   5.269   3.564  0.0105 -1.6644  1.1689
 7673SOL    HW330425   0.431   5.376   3.661  0.0142  1.2223 -1.8247
 7673SOL    MW430426   0.447   5.302   3.619 -0.1408 -0.3176  0.3861
 7674SOL     OW30427   2.375   5.957   1.367 -0.1030  0.4813  0.1046
 7674SOL    HW230428   2.389   5.889   1.433 -1.5569  0.1021  0.0484
 7674SOL    HW330429   2.287   5.990   1.384 -0.9085 -0.2629 -2.1706
 7674SOL    MW430430   2.365   5.952   1.378 -0.2250 -0.0380 -1.0052
 7675SOL     OW30431   1.643   3.464   5.129 -0.0658 -0.3717 -0.0470
 7675SOL    HW230432   1.692   3.508   5.198 -0.5768 -0.1971  0.2050
 7675SOL    HW330433   1.650   3.522   5.053 -0.0312 -0.2628  0.0392
 7675SOL    MW430434   1.651   3.477   5.128 -0.0294 -0.3729  0.2485
 7676SOL     OW30435   4.802   3.489   0.296  0.3554  0.2533  0.0235
 7676SOL    HW230436   4.750   3.503   0.375 -0.3431  0.1073 -0.4001
 7676SOL    HW330437   4.808   3.576   0.256 -1.0742 -0.0114 -0.8334
 7676SOL    MW430438   4.796   3.503   0.301  0.0480  0.0847 -0.0486
 7677SOL     OW30439   4.671   1.978   1.202  0.1059 -0.0511 -0.0622
 7677SOL    HW230440   4.673   1.907   1.139  0.3339 -0.7434  0.7117
 7677SOL    HW330441   4.580   1.985   1.230 -0.1501  0.7914 -1.0440
 7677SOL    MW430442   4.659   1.970   1.198 -0.0501  0.6748  0.2797
 7678SOL     OW30443   4.698   6.248   6.257  0.1929  0.0414 -0.3722
 7678SOL    HW230444   4.662   6.282   6.339  1.4715 -0.8765  0.6223
 7678SOL    HW330445   4.624   6.206   6.213 -0.5033  0.5193  0.3111
 7678SOL    MW430446   4.684   6.247   6.262 -0.1311 -0.1537 -0.2682
 7679SOL     OW30447   1.582   5.760   1.268  0.3191 -0.1018 -0.0349
 7679SOL    HW230448   1.664   5.710   1.268  0.4351  0.0489 -1.0643
 7679SOL    HW330449   1.513   5.695   1.278  0.5279 -0.3448 -0.1742
 7679SOL    MW430450   1.584   5.745   1.269  0.1345 -0.2363 -0.9823
 7680SOL     OW30451   6.117   4.942   0.388 -0.2339 -0.3657 -0.1299
 7680SOL    HW230452   6.103   4.873   0.323  0.6069  0.5534 -1.3310
 7680SOL    HW330453   6.043   5.002   0.376  0.7873  0.6963 -1.4724
 7680SOL    MW430454   6.105   4.941   0.378  0.1703  0.1079 -0.3202
 7681SOL     OW30455   5.746   4.260   4.712 -0.0691 -0.4301  0.2368
 7681SOL    HW230456   5.796   4.292   4.788  0.7446  0.5628 -0.6873
 7681SOL    HW330457   5.673   4.321   4.704 -1.4282 -1.7780  1.4778
 7681SOL    MW430458   5.743   4.272   4.721 -0.2666  0.2124  0.1878
 7682SOL     OW30459   2.204   0.326   1.160  0.3260  0.8937 -0.4500
 7682SOL    HW230460   2.251   0.329   1.244  0.8862 -1.1693 -0.6164
 7682SOL    HW330461   2.121   0.283   1.181  0.3473  0.6314 -0.8857
 7682SOL    MW430462   2.199   0.320   1.174 -0.0562 -0.3084  0.2547
 7683SOL     OW30463   5.793   1.551   3.002 -0.6483 -0.3779 -0.0525
 7683SOL    HW230464   5.887   1.533   3.001 -0.0719  2.2677 -0.5643
 7683SOL    HW330465   5.775   1.580   3.091 -0.6925  0.3357 -0.2858
 7683SOL    MW430466   5.803   1.552   3.014 -0.3730  0.0810 -0.1220
 7684SOL     OW30467   0.766   5.006   4.976  0.0219 -0.0188 -0.3525
 7684SOL    HW230468   0.826   5.079   4.960 -0.9561  0.9348  0.1990
 7684SOL    HW330469   0.823   4.931   4.987  1.1574  0.9139  0.4324
 7684SOL    MW430470   0.781   5.006   4.975 -0.1824 -0.3473  0.4309
 7685SOL     OW30471   3.225   1.976   0.245 -0.4577 -0.0809  0.0581
 7685SOL    HW230472   3.159   1.909   0.263 -0.2355 -0.7032 -1.3202
 7685SOL    HW330473   3.215   2.039   0.316 -2.7230  0.0001 -0.2696
 7685SOL    MW430474   3.215   1.975   0.257 -0.6430 -0.4143 -0.2219
 7686SOL     OW30475   3.618   0.947   3.058  0.0117  0.3829  0.2934
 7686SOL    HW230476   3.576   0.905   2.984  1.4362 -3.7932  1.5830
 7686SOL    HW330477   3.708   0.964   3.029 -0.1011  1.0408  0.3137
 7686SOL    MW430478   3.625   0.944   3.045  0.4947  0.5012 -0.0873
 7687SOL     OW30479   1.809   1.423   1.309  0.2699 -0.0319  0.3480
 7687SOL    HW230480   1.840   1.347   1.360  0.7538  0.6560  1.1083
 7687SOL    HW330481   1.723   1.396   1.277 -0.3642 -0.2626  2.1183
 7687SOL    MW430482   1.801   1.409   1.312 -0.3647 -0.2124 -0.2017
 7688SOL     OW30483   5.362   1.004   5.892  0.6161  0.0457  0.8096
 7688SOL    HW230484   5.317   1.023   5.810  3.0260  0.8388 -0.4312
 7688SOL    HW330485   5.326   0.921   5.921 -0.1738 -0.3444 -1.1677
 7688SOL    MW430486   5.352   0.996   5.885 -0.4578 -0.0233 -0.0438
 7689SOL     OW30487   3.270   1.646   5.315  0.2797  1.0976 -0.2500
 7689SOL    HW230488   3.293   1.553   5.313 -2.0298  0.4728 -0.2219
 7689SOL    HW330489   3.329   1.684   5.380  0.5480 -0.5524  0.5240
 7689SOL    MW430490   3.281   1.639   5.323  0.1425 -0.1601 -0.3303
 7690SOL     OW30491   0.442   2.298   5.559 -0.7446  0.1425 -0.2456
 7690SOL    HW230492   0.403   2.309   5.645 -0.3823  0.3513 -0.1061
 7690SOL    HW330493   0.413   2.374   5.509 -0.9771  0.0070 -0.3173
 7690SOL    MW430494   0.433   2.309   5.564 -0.1717  0.5591  0.4464
 7691SOL     OW30495   1.446   5.070   2.192  0.0292  0.6609 -0.2179
 7691SOL    HW230496   1.504   5.076   2.268 -0.5106 -0.1754  0.2722
 7691SOL    HW330497   1.368   5.120   2.218 -0.6500 -0.6103  0.2630
 7691SOL    MW430498   1.444   5.078   2.206 -0.1565 -0.2968 -0.3336
 7692SOL     OW30499   1.541   4.313   4.004 -0.2177  0.7058 -0.2325
 7692SOL    HW230500   1.537   4.241   4.067 -0.3525  1.5773  0.7837
 7692SOL    HW330501   1.632   4.314   3.974 -0.6487 -1.1361 -1.7983
 7692SOL    MW430502   1.553   4.304   4.008 -0.7629  0.5664  0.0733
 7693SOL     OW30503   2.903   6.222   0.692 -0.6431 -0.2863 -0.1444
 7693SOL    HW230504   2.828   6.276   0.664  0.2908  0.3608 -1.5102
 7693SOL    HW330505   2.979   6.269   0.659  0.3582 -1.1634  0.8536
 7693SOL    MW430506   2.903   6.235   0.684  0.2333  0.2074  0.4760
 7694SOL     OW30507   5.094   0.470   6.065  0.0244 -0.0065  0.3968
 7694SOL    HW230508   5.167   0.530   6.082 -0.2125 -0.4339  3.5494
 7694SOL    HW330509   5.130   0.405   6.005  0.3237  3.0445 -3.0167
 7694SOL    MW430510   5.108   0.469   6.060 -0.1583  0.0163  0.2444
 7695SOL     OW30511   3.737   6.015   3.786  0.1092 -0.6813 -0.3495
 7695SOL    HW230512   3.763   5.982   3.872 -1.6264 -2.5686 -0.4781
 7695SOL    HW330513   3.778   5.955   3.723 -2.4711 -2.3571 -0.6098
 7695SOL    MW430514   3.746   6.003   3.789  0.8753  0.3887 -0.5584
 7696SOL     OW30515   0.150   2.451   3.663 -0.1310 -0.1892  0.2627
 7696SOL    HW230516   0.227   2.395   3.660  0.6138  0.7822  0.5261
 7696SOL    HW330517   0.093   2.418   3.593  1.0216 -0.2335 -0.6925
 7696SOL    MW430518   0.152   2.439   3.653  0.4971 -0.3648 -0.0135
 7697SOL     OW30519   5.658   0.123   3.704  0.3608  0.6722 -0.0244
 7697SOL    HW230520   5.743   0.112   3.747 -0.5350 -0.6918  1.5137
 7697SOL    HW330521   5.637   0.037   3.669 -0.7640  0.7805  0.3522
 7697SOL    MW430522   5.667   0.110   3.705  0.2727 -0.3260  0.3591
 7698SOL     OW30523   5.063   0.071   2.878  0.6317 -0.2486  0.0485
 7698SOL    HW230524   5.118   0.137   2.920 -1.2451  2.4406 -1.4074
 7698SOL    HW330525   5.110   0.046   2.799  0.4936  0.9252 -0.4274
 7698SOL    MW430526   5.076   0.076   2.873  0.8502  0.3831 -0.5627
 7699SOL     OW30527   4.015   0.045   3.254 -0.6172 -0.1855  0.3021
 7699SOL    HW230528   3.945   0.003   3.303  0.4906 -1.1860  1.0795
 7699SOL    HW330529   4.033   0.126   3.302 -1.4611  0.2579 -0.1083
 7699SOL    MW430530   4.008   0.050   3.267 -0.3320  0.4193 -0.7496
 7700SOL     OW30531   4.399   1.011   0.843 -0.4437 -0.6940 -0.0661
 7700SOL    HW230532   4.324   0.966   0.803 -1.6725  1.1976  0.0059
 7700SOL    HW330533   4.362   1.064   0.913  0.7455  1.3165 -0.8566
 7700SOL    MW430534   4.385   1.012   0.847  0.1395  0.2511  0.0718
 7701SOL     OW30535   5.514   5.779   4.114  0.6659  0.3058 -0.4935
 7701SOL    HW230536   5.448   5.836   4.153  0.8627  1.0822 -1.2615
 7701SOL    HW330537   5.570   5.753   4.188  0.0737  0.4200  0.0028
 7701SOL    MW430538   5.513   5.783   4.129 -0.2906  0.0924  0.2368
 7702SOL     OW30539   3.869   5.386   5.848  0.5527 -0.1318 -0.8248
 7702SOL    HW230540   3.898   5.472   5.819 -1.4625  1.2044  0.8566
 7702SOL    HW330541   3.873   5.390   5.944 -4.6983  0.2325 -0.3265
 7702SOL    MW430542   3.874   5.398   5.857  0.0170 -0.4023  0.2633
 7703SOL     OW30543   3.641   5.617   2.909  0.5259 -0.1827 -0.3938
 7703SOL    HW230544   3.660   5.564   2.832  0.3830  2.6693 -2.5746
 7703SOL    HW330545   3.546   5.613   2.919  0.2174  1.5302 -2.1269
 7703SOL    MW430546   3.631   5.610   2.900 -0.8745 -0.1497  0.7543
 7704SOL     OW30547   1.268   1.592   3.814  0.5556  0.1367 -0.1716
 7704SOL    HW230548   1.240   1.503   3.795 -2.8094  1.0666 -0.0846
 7704SOL    HW330549   1.301   1.588   3.904 -0.5176 -0.8402  0.1944
 7704SOL    MW430550   1.269   1.580   3.824  0.2133 -0.0640 -0.0402
 7705SOL     OW30551   2.476   4.506   4.956  0.3045 -0.1430 -0.1534
 7705SOL    HW230552   2.475   4.429   5.014 -1.5187 -0.6092 -0.7646
 7705SOL    HW330553   2.445   4.577   5.012  0.3816 -0.1927 -0.0451
 7705SOL    MW430554   2.472   4.505   4.971 -0.1176 -0.0352  0.1449
 7706SOL     OW30555   4.427   5.702   2.217  0.5028  0.0691 -0.3215
 7706SOL    HW230556   4.396   5.776   2.165  1.0054  0.5753  0.0710
 7706SOL    HW330557   4.492   5.659   2.161  0.5706  0.2247 -0.3633
 7706SOL    MW430558   4.432   5.706   2.203 -0.2682 -0.6164  0.3591
 7707SOL     OW30559   1.349   1.863   0.342 -0.1809  0.5946 -0.3890
 7707SOL    HW230560   1.415   1.808   0.385  1.1366  1.7002 -0.9369
 7707SOL    HW330561   1.352   1.837   0.250 -0.3741  0.7935 -0.4523
 7707SOL    MW430562   1.358   1.852   0.335 -0.0687  0.5546  0.4764
 7708SOL     OW30563   3.246   3.377   5.630 -0.3345 -0.1682  0.1057
 7708SOL    HW230564   3.182   3.447   5.643 -1.9607 -2.0909  3.7637
 7708SOL    HW330565   3.320   3.402   5.684  0.1266 -0.1273 -0.5359
 7708SOL    MW430566   3.247   3.389   5.639 -0.5549 -0.1698  0.5666
 7709SOL     OW30567   0.933   0.559   3.208  0.2711 -0.2508 -0.3086
 7709SOL    HW230568   0.879   0.514   3.143 -1.9192  1.0192  0.5198
 7709SOL    HW330569   1.023   0.545   3.179 -0.4729 -2.5986 -1.6809
 7709SOL    MW430570   0.938   0.552   3.196 -0.0151 -0.1724  0.0747
 7710SOL     OW30571   2.666   6.060   4.915  0.3660  0.5525  0.6036
 7710SOL    HW230572   2.760   6.073   4.899  0.1225  0.8179 -0.7243
 7710SOL    HW330573   2.646   6.116   4.990  0.9912  1.5863  0.0207
 7710SOL    MW430574   2.676   6.069   4.922 -0.2408 -0.3768  0.0476
 7711SOL     OW30575   5.754   5.827   5.038 -0.3784  0.3262 -0.2746
 7711SOL    HW230576   5.822   5.869   4.986 -0.3495 -0.2572 -0.7137
 7711SOL    HW330577   5.782   5.839   5.129  0.2986  0.1108 -0.4510
 7711SOL    MW430578   5.766   5.834   5.044  0.1775 -0.1536  0.5650
 7712SOL     OW30579   0.861   1.274   6.029 -0.0014 -0.0269 -1.1274
 7712SOL    HW230580   0.798   1.221   6.078 -0.8888  0.4915 -1.6887
 7712SOL    HW330581   0.809   1.318   5.962  0.7712  1.2364 -0.9430
 7712SOL    MW430582   0.846   1.273   6.027  0.3133 -0.3287  0.3749
 7713SOL     OW30583   6.340   1.408   5.608  0.3660  0.3286  0.0729
 7713SOL    HW230584   6.315   1.319   5.580  0.5772  0.0011  0.9126
 7713SOL    HW330585   6.435   1.403   5.620  0.6030  1.0729 -1.2928
 7713SOL    MW430586   6.349   1.396   5.606  0.6719 -0.4023  0.4162
 7714SOL     OW30587   3.130   4.696   4.577 -0.0108 -0.4824 -0.7520
 7714SOL    HW230588   3.048   4.651   4.557  0.2159 -0.9447 -0.6451
 7714SOL    HW330589   3.198   4.638   4.544  0.2493  0.5204 -2.0996
 7714SOL    MW430590   3.128   4.683   4.570 -0.0957 -0.1836  0.1736
 7715SOL     OW30591   2.680   3.829   4.651 -0.1890  0.0457 -0.5494
 7715SOL    HW230592   2.640   3.915   4.641  1.0427  0.5474 -1.3633
 7715SOL    HW330593   2.646   3.797   4.735  1.0325  2.2849  0.9171
 7715SOL    MW430594   2.671   3.836   4.661 -0.0247 -0.2491  0.0724
 7716SOL     OW30595   6.367   4.186   2.478  0.1340 -0.7222  0.1765
 7716SOL    HW230596   6.422   4.261   2.454  1.7876 -1.3741  1.6818
 7716SOL    HW330597   6.416   4.110   2.446  1.2266 -1.4566  3.2175
 7716SOL    MW430598   6.381   4.186   2.471 -0.2700  0.3398 -0.3439
 7717SOL     OW30599   0.767   3.944   5.701 -0.0529  0.1714 -0.2400
 7717SOL    HW230600   0.765   4.020   5.644  0.0391  0.9053  0.7045
 7717SOL    HW330601   0.675   3.923   5.717 -0.1223  1.4749  1.2638
 7717SOL    MW430602   0.755   3.951   5.696 -0.1171 -0.2799 -0.0393
 7718SOL     OW30603   3.874   4.062   3.065 -0.2478  0.4619 -0.4298
 7718SOL    HW230604   3.827   4.016   3.135 -1.3169  3.2985  0.8489
 7718SOL    HW330605   3.805   4.091   3.005  0.4441  0.1099 -1.4260
 7718SOL    MW430606   3.858   4.060   3.066 -0.3369  0.1771 -0.5096
 7719SOL     OW30607   2.951   1.419   4.031  0.0522  0.2267  0.4216
 7719SOL    HW230608   2.970   1.501   3.984 -3.4674  1.4890  0.9010
 7719SOL    HW330609   2.896   1.369   3.970 -1.1114  0.0396  1.5769
 7719SOL    MW430610   2.946   1.423   4.016  0.1536  0.4042 -0.0287
 7720SOL     OW30611   1.646   5.368   6.044  0.6919  0.4637 -0.7864
 7720SOL    HW230612   1.600   5.297   5.999 -0.3430  0.2008  0.6135
 7720SOL    HW330613   1.696   5.324   6.112  0.4917  1.0227 -0.2743
 7720SOL    MW430614   1.646   5.353   6.047  0.5488  0.2100 -0.4706
 7721SOL     OW30615   6.355   1.622   1.125  0.4098  0.3406 -0.5457
 7721SOL    HW230616   6.371   1.674   1.204 -0.7868  2.2519 -1.5037
 7721SOL    HW330617   6.261   1.610   1.122  0.6785 -2.4348 -0.0875
 7721SOL    MW430618   6.345   1.628   1.135 -0.0375 -0.1658  0.6302
 7722SOL     OW30619   4.469   4.037   3.020 -0.0103 -0.5424  0.1172
 7722SOL    HW230620   4.530   3.995   2.958 -1.3310 -1.0866 -0.8620
 7722SOL    HW330621   4.383   4.010   2.990 -0.7840  0.8335  1.0169
 7722SOL    MW430622   4.466   4.028   3.008  0.4357  0.0881 -0.2917
 7723SOL     OW30623   5.230   5.653   0.661 -0.4111  0.3264  0.0391
 7723SOL    HW230624   5.295   5.681   0.596  1.2118 -1.7925  0.6449
 7723SOL    HW330625   5.223   5.559   0.649 -2.0919  0.2581  1.2145
 7723SOL    MW430626   5.238   5.644   0.651 -0.2350 -0.2598  0.1009
 7724SOL     OW30627   4.343   0.930   5.781 -0.3607  0.1920 -0.9118
 7724SOL    HW230628   4.275   0.884   5.830 -0.8307  1.2514 -0.5360
 7724SOL    HW330629   4.325   0.910   5.689 -0.3103 -0.6803 -0.7392
 7724SOL    MW430630   4.332   0.921   5.775 -0.2444  0.1347  0.4846
 7725SOL     OW30631   0.349   0.437   0.166  0.0888  0.6696 -0.3724
 7725SOL    HW230632   0.363   0.413   0.258 -2.3908 -0.5110 -0.2089
 7725SOL    HW330633   0.420   0.393   0.119 -0.1918 -1.0890  0.7324
 7725SOL    MW430634   0.360   0.428   0.172 -0.4833 -0.3133  0.8175
 7726SOL     OW30635   1.497   4.119   5.853 -0.0372  0.3161  0.4768
 7726SOL    HW230636   1.579   4.128   5.805  0.6308  0.0165  1.5384
 7726SOL    HW330637   1.522   4.127   5.945 -1.1716  0.0031  0.8270
 7726SOL    MW430638   1.511   4.122   5.859  0.4937  0.1424 -0.4295
 7727SOL     OW30639   2.338   1.998   4.334  0.5091 -0.4448  0.0921
 7727SOL    HW230640   2.249   2.010   4.300  1.4900 -1.5841 -3.2791
 7727SOL    HW330641   2.328   1.936   4.406 -1.5002  0.1334  0.3672
 7727SOL    MW430642   2.325   1.992   4.339 -0.4289 -0.2936 -0.1027
 7728SOL     OW30643   5.634   0.112   1.236  0.0721  0.0096 -0.2004
 7728SOL    HW230644   5.719   0.079   1.209  0.5402  0.4355  0.7050
 7728SOL    HW330645   5.618   0.186   1.178  1.3637  1.3191  1.0213
 7728SOL    MW430646   5.643   0.118   1.225 -0.3261 -0.7255  0.0663
 7729SOL     OW30647   3.717   2.238   1.567 -0.2883  0.4870  0.0782
 7729SOL    HW230648   3.689   2.210   1.654 -2.1486  1.3618 -0.2043
 7729SOL    HW330649   3.738   2.331   1.578  0.5630  0.3344 -0.1808
 7729SOL    MW430650   3.716   2.246   1.580 -0.4334  0.5063  0.2708
 7730SOL     OW30651   2.851   5.129   0.336  0.7817 -0.4225  0.1195
 7730SOL    HW230652   2.839   5.141   0.430 -0.6278  2.2492 -0.2974
 7730SOL    HW330653   2.767   5.157   0.298  1.2809 -1.5470 -1.9296
 7730SOL    MW430654   2.838   5.135   0.343  0.1577  0.0137  0.3541
 7731SOL     OW30655   3.126   5.871   5.958 -0.0291  0.6560 -0.0269
 7731SOL    HW230656   3.198   5.809   5.971 -0.7542 -0.6544 -1.8487
 7731SOL    HW330657   3.158   5.953   5.996  0.8577 -0.8392  2.7333
 7731SOL    MW430658   3.140   5.873   5.964 -0.8970  1.0232  0.4994
 7732SOL     OW30659   0.519   4.420   3.997 -0.2679  0.1093 -0.1939
 7732SOL    HW230660   0.533   4.385   3.909  0.8166 -0.6508  0.2623
 7732SOL    HW330661   0.447   4.367   4.032  0.1002 -0.3959 -0.1945
 7732SOL    MW430662   0.511   4.408   3.990 -0.0765 -0.0367  0.6972
 7733SOL     OW30663   5.548   3.041   5.196 -0.3742 -0.5621  0.7985
 7733SOL    HW230664   5.580   3.012   5.110  1.4665  3.2023  0.0050
 7733SOL    HW330665   5.615   3.012   5.258  0.5861  0.4611  0.2720
 7733SOL    MW430666   5.561   3.033   5.193 -0.1387 -0.1979  0.1339
 7734SOL     OW30667   0.723   2.244   2.017  0.1749 -0.1269 -0.1802
 7734SOL    HW230668   0.791   2.204   2.070  0.4589  0.7037  0.0951
 7734SOL    HW330669   0.674   2.300   2.078  1.2182  1.7471 -0.9558
 7734SOL    MW430670   0.725   2.246   2.032  0.3206  0.2874 -0.5757
 7735SOL     OW30671   3.424   5.364   3.058 -0.7055 -0.1412 -0.1592
 7735SOL    HW230672   3.336   5.326   3.050 -1.3835  1.2243  0.4980
 7735SOL    HW330673   3.427   5.432   2.990 -1.0949  1.4861  1.3768
 7735SOL    MW430674   3.413   5.368   3.048 -0.4559  0.4601 -0.1651
 7736SOL     OW30675   5.119   4.267   3.677  0.1207  0.5032  0.5746
 7736SOL    HW230676   5.177   4.216   3.620 -1.3180 -0.9492  0.3448
 7736SOL    HW330677   5.098   4.345   3.627 -0.1388 -0.1670 -0.3790
 7736SOL    MW430678   5.124   4.270   3.663 -0.1020 -0.2647  0.6206
 7737SOL     OW30679   3.612   4.398   5.833  0.3131 -0.1310  0.2363
 7737SOL    HW230680   3.585   4.312   5.866  0.1729  0.1142  0.7692
 7737SOL    HW330681   3.557   4.413   5.756 -1.2704  0.4608  1.4266
 7737SOL    MW430682   3.601   4.389   5.827 -0.1158  0.2187  0.6160
 7738SOL     OW30683   0.312   5.032   1.924 -0.4370 -0.1543  0.5617
 7738SOL    HW230684   0.222   5.018   1.894 -0.2236 -0.3496  0.0162
 7738SOL    HW330685   0.302   5.084   2.004 -0.9423  1.5278 -0.5455
 7738SOL    MW430686   0.298   5.037   1.931  0.1109  0.5315  0.5411
 7739SOL     OW30687   0.549   5.951   2.433  0.6172 -0.0327 -0.2817
 7739SOL    HW230688   0.502   5.924   2.354  0.4279  0.2051 -0.2517
 7739SOL    HW330689   0.630   5.901   2.430  0.0249 -1.0453  0.0746
 7739SOL    MW430690   0.553   5.941   2.422 -0.5143  0.1322  0.1804
 7740SOL     OW30691   6.216   1.833   4.599  0.1401 -0.2600  0.1458
 7740SOL    HW230692   6.272   1.772   4.551 -0.9259 -0.4966 -0.8289
 7740SOL    HW330693   6.251   1.919   4.578 -0.1020 -0.3822 -0.7916
 7740SOL    MW430694   6.228   1.836   4.590  0.6944 -0.0249 -0.5239
 7741SOL     OW30695   1.588   2.545   0.504  0.6537  0.5304  0.5126
 7741SOL    HW230696   1.506   2.507   0.534  1.2763 -0.4466  1.0573
 7741SOL    HW330697   1.576   2.640   0.513 -0.3040  0.3841  0.8581
 7741SOL    MW430698   1.576   2.552   0.509 -0.4525 -0.3127  0.4060
 7742SOL     OW30699   3.009   3.176   2.520  0.1165 -0.3379 -0.1978
 7742SOL    HW230700   2.974   3.264   2.534  0.6568 -0.1716  0.1323
 7742SOL    HW330701   3.078   3.167   2.585  0.7772 -0.6104 -0.9226
 7742SOL    MW430702   3.014   3.187   2.530 -0.1817 -0.2237 -0.0581
 7743SOL     OW30703   5.108   6.390   6.281 -0.5698 -0.0370  0.3257
 7743SOL    HW230704   5.067   6.395   6.195  1.7377 -0.9100 -0.9261
 7743SOL    HW330705   5.073   6.465   6.329 -0.4167  1.6985 -2.0808
 7743SOL    MW430706   5.098   6.401   6.276  0.1802  0.1463 -0.0203
 7744SOL     OW30707   4.371   1.251   3.097 -0.3495  0.3526  0.1556
 7744SOL    HW230708   4.417   1.329   3.065 -1.4108 -0.4428 -3.9437
 7744SOL    HW330709   4.429   1.178   3.074 -1.0811 -0.2919  0.3064
 7744SOL    MW430710   4.385   1.252   3.090  0.4056  0.0674 -1.0589
 7745SOL     OW30711   5.763   5.517   0.941 -0.2450  0.0439  0.7729
 7745SOL    HW230712   5.705   5.485   1.011  0.9269 -0.2997  1.6306
 7745SOL    HW330713   5.845   5.536   0.986 -0.0498  1.6797 -0.2046
 7745SOL    MW430714   5.766   5.515   0.956  0.3378  0.4101  0.3975
 7746SOL     OW30715   5.490   1.042   6.139 -0.3536 -0.6246 -0.3398
 7746SOL    HW230716   5.563   1.103   6.128 -0.6211 -0.3477 -0.6004
 7746SOL    HW330717   5.443   1.046   6.056 -0.1752 -1.4577 -0.4927
 7746SOL    MW430718   5.493   1.051   6.127  0.3708  0.5161  0.4320
 7747SOL     OW30719   5.261   0.311   1.838  0.2941  0.3297  0.1294
 7747SOL    HW230720   5.207   0.275   1.908 -0.3609 -1.3975 -1.1830
 7747SOL    HW330721   5.198   0.334   1.769  1.0644  0.2621 -0.6094
 7747SOL    MW430722   5.245   0.310   1.838 -0.1342  0.0383 -0.1920
 7748SOL     OW30723   3.844   1.964   5.240  0.2675  0.4788 -0.5754
 7748SOL    HW230724   3.751   1.941   5.236  0.3938 -0.0481 -0.5447
 7748SOL    HW330725   3.846   2.049   5.285 -0.0548 -0.4785  1.3828
 7748SOL    MW430726   3.832   1.973   5.246 -0.7107 -0.1655  0.6265
 7749SOL     OW30727   0.759   4.343   2.866 -0.4255 -0.6549  0.2265
 7749SOL    HW230728   0.736   4.306   2.951  0.6384 -1.3379  0.2417
 7749SOL    HW330729   0.814   4.276   2.825 -0.6182 -0.1816 -0.8493
 7749SOL    MW430730   0.763   4.329   2.872  0.5132 -0.3206 -0.2696
 7750SOL     OW30731   1.062   1.973   2.812  0.7985  0.0725  0.0507
 7750SOL    HW230732   1.055   2.030   2.736  1.3412  1.1296  0.7746
 7750SOL    HW330733   1.089   1.888   2.777 -2.6208 -0.5801 -1.3720
 7750SOL    MW430734   1.065   1.969   2.798 -0.4307  0.3710  0.0138
 7751SOL     OW30735   0.849   3.063   1.647  0.3000  0.6096 -0.4182
 7751SOL    HW230736   0.915   3.003   1.614 -0.1648 -0.3407  0.3444
 7751SOL    HW330737   0.888   3.150   1.637  1.6793  0.0599  0.0604
 7751SOL    MW430738   0.863   3.067   1.641  0.1917  0.1235 -0.3958
 7752SOL     OW30739   4.888   5.619   0.518 -0.7519  0.0005  0.0247
 7752SOL    HW230740   4.878   5.526   0.497  4.4750 -1.3476  1.9030
 7752SOL    HW330741   4.928   5.619   0.606  0.6208  3.9180 -0.4101
 7752SOL    MW430742   4.892   5.607   0.527 -0.1850  0.4001 -0.5495
 7753SOL     OW30743   6.148   0.976   0.188  0.3592 -0.8197 -0.2206
 7753SOL    HW230744   6.141   0.899   0.131  2.0020 -0.5471 -0.8460
 7753SOL    HW330745   6.241   0.998   0.188 -0.0014  0.8886  0.3249
 7753SOL    MW430746   6.160   0.969   0.180  0.6961 -0.0174  0.0077
 7754SOL     OW30747   5.714   5.550   3.822  0.2682 -0.3167  0.2384
 7754SOL    HW230748   5.709   5.644   3.841 -0.3725 -0.5248  1.1674
 7754SOL    HW330749   5.805   5.535   3.798  0.2026  0.6918 -0.7374
 7754SOL    MW430750   5.725   5.561   3.821  0.1312  0.0632  0.8154
 7755SOL     OW30751   2.694   0.673   3.066  0.1500 -0.1077  0.1417
 7755SOL    HW230752   2.779   0.635   3.046  0.1938  0.7729 -1.4885
 7755SOL    HW330753   2.714   0.762   3.094 -0.2508  0.2935 -0.8075
 7755SOL    MW430754   2.708   0.680   3.067 -0.3467 -0.6377  0.7302
 7756SOL     OW30755   3.054   2.740   1.832  0.1756  0.3870  0.6408
 7756SOL    HW230756   3.140   2.756   1.872 -0.0864  0.5020  1.1694
 7756SOL    HW330757   3.074   2.710   1.743  0.7515  2.1704  0.1055
 7756SOL    MW430758   3.068   2.738   1.825 -0.2603  0.3047 -0.6233
 7757SOL     OW30759   2.242   4.216   5.701 -0.2216  0.4337  0.1456
 7757SOL    HW230760   2.308   4.168   5.750  1.4698  2.3605 -0.1001
 7757SOL    HW330761   2.291   4.286   5.658 -2.2716  1.2299 -1.0192
 7757SOL    MW430762   2.257   4.219   5.702 -0.1376  0.5018 -0.7444
 7758SOL     OW30763   1.079   2.653   3.318 -0.2042  0.2805  0.5011
 7758SOL    HW230764   1.060   2.743   3.345 -2.0148 -0.1682  0.8759
 7758SOL    HW330765   1.171   2.655   3.292 -0.2317  2.2733  0.3451
 7758SOL    MW430766   1.089   2.665   3.318  0.2236 -0.0662 -0.5563
 7759SOL     OW30767   1.403   3.786   0.313 -0.0527 -0.0765 -0.8133
 7759SOL    HW230768   1.358   3.835   0.382 -0.7604 -0.0443 -1.2867
 7759SOL    HW330769   1.475   3.843   0.286  0.8738 -0.5338  0.6038
 7759SOL    MW430770   1.406   3.800   0.318 -0.1235  0.0667 -0.4603
 7760SOL     OW30771   1.430   2.646   6.048 -0.8144 -0.2233 -0.0906
 7760SOL    HW230772   1.398   2.625   5.960  1.1665  0.4305 -1.0387
 7760SOL    HW330773   1.475   2.567   6.077 -1.9229 -0.6239  0.5974
 7760SOL    MW430774   1.432   2.633   6.040  0.5523  0.1748  0.0978
 7761SOL     OW30775   5.913   5.933   4.820 -0.0400  0.0682 -0.5621
 7761SOL    HW230776   5.983   5.991   4.792 -2.4734  3.0769 -1.0581
 7761SOL    HW330777   5.882   5.892   4.740 -0.3420  0.6126 -0.7315
 7761SOL    MW430778   5.918   5.935   4.806  0.4848 -0.1800 -0.0105
 7762SOL     OW30779   6.321   3.277   4.474 -0.0532 -0.1616  0.1213
 7762SOL    HW230780   6.329   3.198   4.420 -3.6271 -1.1667  0.8147
 7762SOL    HW330781   6.274   3.339   4.418 -0.4123  0.1639  0.7788
 7762SOL    MW430782   6.316   3.275   4.460  0.1915  0.4379 -0.1923
 7763SOL     OW30783   4.797   5.626   4.379  0.3013 -0.3325 -0.8440
 7763SOL    HW230784   4.735   5.558   4.353  0.2358  0.1166 -1.9362
 7763SOL    HW330785   4.806   5.681   4.301  1.4139  0.1082 -0.4281
 7763SOL    MW430786   4.790   5.624   4.365 -0.4810 -0.0102  0.3574
 7764SOL     OW30787   1.852   1.061   5.050 -0.2542 -0.1504  0.8532
 7764SOL    HW230788   1.798   1.087   4.976  0.2605 -0.6004  0.3067
 7764SOL    HW330789   1.870   0.968   5.034 -0.3482 -0.3160  1.6776
 7764SOL    MW430790   1.847   1.052   5.038 -0.0175  0.6537  0.0520
 7765SOL     OW30791   2.899   3.349   4.413  0.0220 -0.2083 -0.3816
 7765SOL    HW230792   2.985   3.317   4.386  1.0595  1.0991  1.1233
 7765SOL    HW330793   2.891   3.320   4.504 -1.1549 -0.3564 -0.5282
 7765SOL    MW430794   2.910   3.341   4.422  0.6703 -0.1922 -0.1861
 7766SOL     OW30795   1.861   3.939   5.802  0.1194  0.0504 -0.2725
 7766SOL    HW230796   1.823   3.852   5.787  1.2618 -0.0930 -2.7340
 7766SOL    HW330797   1.955   3.926   5.794  0.3998  1.3015  0.7029
 7766SOL    MW430798   1.868   3.926   5.799  0.0089  0.0169 -0.1993
 7767SOL     OW30799   4.877   3.201   2.807  0.1194 -0.1155  0.3377
 7767SOL    HW230800   4.935   3.241   2.872  0.2871  0.6575 -0.2800
 7767SOL    HW330801   4.846   3.274   2.753 -0.4118 -0.6829 -0.1496
 7767SOL    MW430802   4.880   3.216   2.809  0.4102 -0.5803  0.2329
 7768SOL     OW30803   0.880   5.990   4.197 -0.9371  0.1965 -0.2667
 7768SOL    HW230804   0.877   5.940   4.278 -0.7149  0.1328 -0.2962
 7768SOL    HW330805   0.919   5.930   4.133 -1.5163  0.1002 -0.5287
 7768SOL    MW430806   0.885   5.976   4.199  0.0802  0.3346  0.1669
 7769SOL     OW30807   4.843   4.427   1.545  0.7234  0.5109  0.0769
 7769SOL    HW230808   4.904   4.353   1.549 -1.2078 -1.1699 -0.2770
 7769SOL    HW330809   4.807   4.433   1.633  0.4893  0.7137 -0.0332
 7769SOL    MW430810   4.847   4.418   1.557  0.5677 -1.0584 -0.1534
 7770SOL     OW30811   0.812   5.804   2.469 -0.4232 -0.1866 -0.2763
 7770SOL    HW230812   0.793   5.833   2.558 -1.0016 -0.8981 -0.1662
 7770SOL    HW330813   0.888   5.746   2.478 -0.4403 -0.2059 -0.2582
 7770SOL    MW430814   0.820   5.801   2.482 -0.0451  0.9717 -0.0185
 7771SOL     OW30815   6.186   1.215   2.697 -0.0812  0.0937 -0.2173
 7771SOL    HW230816   6.183   1.308   2.677  1.2356 -0.0027 -0.9483
 7771SOL    HW330817   6.110   1.200   2.754  1.2688  2.1975  2.3915
 7771SOL    MW430818   6.175   1.225   2.702 -0.6540  0.1198 -0.4899
 7772SOL     OW30819   6.329   5.089   2.916  0.3706  0.0498 -0.1668
 7772SOL    HW230820   6.285   5.024   2.970 -0.6818  2.2496  1.7847
 7772SOL    HW330821   6.411   5.047   2.889  0.9994 -1.1561  3.2159
 7772SOL    MW430822   6.334   5.075   2.919  0.2140  0.4804 -0.0048
 7773SOL     OW30823   6.212   1.665   3.688  0.3494 -0.2739  0.0903
 7773SOL    HW230824   6.149   1.601   3.720  0.9543 -0.6114  0.6425
 7773SOL    HW330825   6.187   1.747   3.730 -1.3688  0.2587 -1.7949
 7773SOL    MW430826   6.201   1.668   3.698  0.0463 -0.2087 -0.3131
 7774SOL     OW30827   1.902   4.865   1.180  0.2452 -0.1113 -0.3577
 7774SOL    HW230828   1.989   4.837   1.211  0.3526  0.5812 -0.0290
 7774SOL    HW330829   1.914   4.880   1.087  1.1552  2.4674  0.1035
 7774SOL    MW430830   1.915   4.863   1.172  0.3115  0.1589  0.0936
 7775SOL     OW30831   3.720   1.551   5.725  1.0168  0.1339  0.2913
 7775SOL    HW230832   3.757   1.466   5.750 -0.1907 -1.1261 -1.8864
 7775SOL    HW330833   3.639   1.529   5.680  1.2887  2.3552 -1.4662
 7775SOL    MW430834   3.715   1.537   5.722 -0.4225  0.0020  0.1527
 7776SOL     OW30835   2.201   4.844   1.172 -0.7941 -0.8499 -0.4857
 7776SOL    HW230836   2.196   4.750   1.158 -0.5343 -0.6204 -2.5008
 7776SOL    HW330837   2.226   4.880   1.086  0.0823  0.9700  0.4603
 7776SOL    MW430838   2.204   4.837   1.159 -0.1082 -0.2703  0.3139
 7777SOL     OW30839   5.874   0.623   6.304  0.0221 -0.1553 -0.3325
 7777SOL    HW230840   5.847   0.687   6.239  0.5755  0.5013  0.0770
 7777SOL    HW330841   5.843   0.658   6.387  1.3655  0.2020  0.0453
 7777SOL    MW430842   5.867   0.636   6.307  0.1322  0.7348 -0.3729
 7778SOL     OW30843   0.169   0.264   1.216 -0.2003  0.3892  0.5250
 7778SOL    HW230844   0.214   0.349   1.216  1.0819 -0.2624 -0.4217
 7778SOL    HW330845   0.076   0.287   1.214  0.1286  1.7809 -0.8349
 7778SOL    MW430846   0.162   0.278   1.216  0.3543 -0.3989 -0.1835
 7779SOL     OW30847   1.995   2.057   2.561  0.0211  0.0015 -0.4905
 7779SOL    HW230848   2.030   1.970   2.542 -0.0791  0.1304 -1.3007
 7779SOL    HW330849   1.928   2.042   2.628  0.0676 -0.5309 -0.5576
 7779SOL    MW430850   1.991   2.044   2.567  0.0212 -0.2377  0.2587
 7780SOL     OW30851   5.865   3.341   5.382 -0.1734 -0.5437 -0.3256
 7780SOL    HW230852   5.949   3.303   5.358  0.8770  3.1937 -3.6311
 7780SOL    HW330853   5.886   3.412   5.442 -0.7833  0.7762 -1.5985
 7780SOL    MW430854   5.879   3.346   5.387  0.1761  0.1887  0.2474
 7781SOL     OW30855   0.290   5.485   1.037 -0.3382  0.4205 -0.2390
 7781SOL    HW230856   0.263   5.393   1.041 -1.0837  0.6671  0.8599
 7781SOL    HW330857   0.385   5.482   1.025 -0.6560 -0.4704 -3.4065
 7781SOL    MW430858   0.299   5.472   1.036 -0.9463 -0.0855  0.0441
 7782SOL     OW30859   3.941   5.474   1.878  0.3683 -0.1713  0.3559
 7782SOL    HW230860   3.905   5.537   1.816 -0.2117  1.1031  1.8903
 7782SOL    HW330861   3.893   5.393   1.861 -0.4396  0.4106 -0.2475
 7782SOL    MW430862   3.930   5.472   1.868  0.0419 -0.4925 -0.5311
 7783SOL     OW30863   5.688   0.887   0.618 -0.1230 -0.0895 -0.5772
 7783SOL    HW230864   5.634   0.862   0.543  0.8755  1.5246 -1.8937
 7783SOL    HW330865   5.625   0.907   0.687 -1.1506  0.0875 -1.5393
 7783SOL    MW430866   5.673   0.886   0.617 -0.0232 -0.6402 -0.8849
 7784SOL     OW30867   3.877   3.269   6.011  0.2300 -0.8069  0.1767
 7784SOL    HW230868   3.952   3.222   5.973  0.4937  0.5156 -1.0521
 7784SOL    HW330869   3.915   3.323   6.080  1.0153  2.0017 -2.2493
 7784SOL    MW430870   3.892   3.270   6.015 -0.3305  0.2988  0.1735
 7785SOL     OW30871   1.526   2.447   6.258  0.0992 -0.3705  0.1192
 7785SOL    HW230872   1.579   2.428   6.335 -0.0180  2.4597  1.0264
 7785SOL    HW330873   1.443   2.401   6.274  0.5457 -0.8898  1.0301
 7785SOL    MW430874   1.522   2.439   6.271  0.1477  0.2763 -0.4210
 7786SOL     OW30875   2.855   6.141   2.366 -0.0525 -0.1238 -0.1114
 7786SOL    HW230876   2.942   6.102   2.369 -1.0430 -2.6178 -1.0408
 7786SOL    HW330877   2.795   6.066   2.369 -2.1400  1.4160 -0.9109
 7786SOL    MW430878   2.858   6.126   2.367 -0.0423  0.2696  0.7196
 7787SOL     OW30879   3.300   1.595   3.576 -0.0530  0.1000  0.0400
 7787SOL    HW230880   3.311   1.690   3.576 -0.1319  0.1092  0.2937
 7787SOL    HW330881   3.212   1.581   3.543  0.0386  0.1043 -0.2103
 7787SOL    MW430882   3.290   1.605   3.572  0.6860  0.5491 -0.0747
 7788SOL     OW30883   6.251   5.947   0.084 -0.0265 -0.3140  0.1167
 7788SOL    HW230884   6.271   5.868   0.035 -0.2314  0.0165 -0.5067
 7788SOL    HW330885   6.207   6.004   0.021 -0.1536  0.1767  0.6403
 7788SOL    MW430886   6.248   5.944   0.070 -0.3276 -0.5120  0.1696
 7789SOL     OW30887   1.669   2.711  -0.002 -0.0370  0.1716 -0.4605
 7789SOL    HW230888   1.742   2.654   0.021 -2.3328 -2.1052  1.9296
 7789SOL    HW330889   1.669   2.778   0.066 -1.9762 -1.7919  1.6534
 7789SOL    MW430890   1.679   2.712   0.010 -0.0772 -0.9150 -0.1299
 7790SOL     OW30891   0.822   1.903   2.103  0.3101  0.2655 -0.4280
 7790SOL    HW230892   0.829   1.854   2.022 -1.1160 -0.1634 -0.3189
 7790SOL    HW330893   0.754   1.858   2.153  1.7185  0.0080  1.3843
 7790SOL    MW430894   0.814   1.891   2.099  0.1967 -0.2490  0.0075
 7791SOL     OW30895   6.104   3.308   3.654  0.2473 -0.0336 -0.2672
 7791SOL    HW230896   6.100   3.234   3.595  1.6280  0.1133 -0.5804
 7791SOL    HW330897   6.023   3.357   3.638  1.0697  0.6264 -2.9023
 7791SOL    MW430898   6.093   3.305   3.644 -0.7989 -0.0189  0.3620
 7792SOL     OW30899   4.688   2.337   1.811 -0.0751  0.5544  0.1498
 7792SOL    HW230900   4.647   2.339   1.725 -0.7554  1.2243  0.4805
 7792SOL    HW330901   4.768   2.285   1.798 -0.0830  0.7819 -0.9173
 7792SOL    MW430902   4.693   2.330   1.798 -0.0400  0.1727 -0.0858
 7793SOL     OW30903   0.149   4.352   0.489 -0.1219  0.3314 -0.5570
 7793SOL    HW230904   0.117   4.340   0.400 -0.8019 -1.9914 -0.0577
 7793SOL    HW330905   0.071   4.371   0.541  0.2531  1.5451 -0.3995
 7793SOL    MW430906   0.134   4.353   0.484  0.0669  0.1596  0.6486
 7794SOL     OW30907   0.354   4.868   3.850 -1.0586  0.1822 -0.8425
 7794SOL    HW230908   0.373   4.785   3.894 -0.7559  0.7519  0.1476
 7794SOL    HW330909   0.369   4.935   3.918 -2.8645  0.9365 -1.1192
 7794SOL    MW430910   0.358   4.866   3.865  0.2579 -0.0823  0.0157
 7795SOL     OW30911   4.440   5.976   3.655 -0.1950 -0.0338  0.4294
 7795SOL    HW230912   4.349   5.968   3.628  0.2607  0.6445 -1.5594
 7795SOL    HW330913   4.490   5.943   3.580  1.1963  1.7841  0.4683
 7795SOL    MW430914   4.435   5.971   3.641 -0.2719 -1.2020  0.3602
 7796SOL     OW30915   0.026   1.141   2.653 -0.0505 -0.1860 -0.0235
 7796SOL    HW230916  -0.061   1.173   2.678  0.1900 -0.1784  0.8596
 7796SOL    HW330917   0.032   1.157   2.559 -0.6010  0.7853  0.0883
 7796SOL    MW430918   0.016   1.148   2.644  0.4158  0.2028 -0.5559
 7797SOL     OW30919   3.171   2.739   4.717  0.0803 -0.0133  0.5683
 7797SOL    HW230920   3.248   2.772   4.765  0.5845 -1.0184  0.4664
 7797SOL    HW330921   3.207   2.680   4.651 -0.6188  1.1355 -0.9153
 7797SOL    MW430922   3.186   2.736   4.715 -0.2704 -0.3302 -0.9666
 7798SOL     OW30923   0.592   3.136   2.096 -0.2134  0.3707  0.3358
 7798SOL    HW230924   0.646   3.130   2.175 -0.0406 -2.3398  0.1094
 7798SOL    HW330925   0.504   3.109   2.124 -0.6723  1.5150  0.0285
 7798SOL    MW430926   0.588   3.131   2.110  0.4008  0.2719  0.6720
 7799SOL     OW30927   5.151   1.636   2.660 -0.3395 -0.7914 -0.0499
 7799SOL    HW230928   5.216   1.580   2.617  1.0413  2.1999 -2.2307
 7799SOL    HW330929   5.070   1.620   2.612  0.5398  0.4695 -2.0881
 7799SOL    MW430930   5.149   1.626   2.648  0.5162  0.3580 -0.1195
 7800SOL     OW30931   3.596   5.324   0.504 -0.0845 -0.2428  0.1366
 7800SOL    HW230932   3.643   5.323   0.587 -0.2796 -0.8427  0.2453
 7800SOL    HW330933   3.504   5.335   0.528 -0.3108 -1.7545  0.1093
 7800SOL    MW430934   3.590   5.325   0.518  0.1358  0.4623 -0.5352
 7801SOL     OW30935   3.590   2.148   4.571 -0.1060  0.1800 -0.1465
 7801SOL    HW230936   3.536   2.206   4.625  0.1678  1.1062 -0.8292
 7801SOL    HW330937   3.537   2.070   4.558 -0.3410  0.1139  1.0989
 7801SOL    MW430938   3.576   2.145   4.577  0.2663  0.6287  0.2391
 7802SOL     OW30939   3.247   2.572   1.075  0.3578  0.0482 -0.2384
 7802SOL    HW230940   3.264   2.660   1.108  0.1199  0.4902 -1.2461
 7802SOL    HW330941   3.202   2.527   1.146 -0.1434  0.9673  0.0392
 7802SOL    MW430942   3.244   2.578   1.089  0.2220 -0.4442 -0.1349
 7803SOL     OW30943   3.686   1.302   0.936 -0.2447 -0.0148 -0.1893
 7803SOL    HW230944   3.665   1.394   0.917 -0.4029  0.2422  1.1612
 7803SOL    HW330945   3.699   1.299   1.031 -1.1922 -1.5833 -0.0833
 7803SOL    MW430946   3.685   1.314   0.946 -0.1055 -0.0945 -0.6458
 7804SOL     OW30947   0.181   5.672   6.114  0.1757  0.3622  0.9776
 7804SOL    HW230948   0.204   5.640   6.201 -1.4052  0.9872  1.6540
 7804SOL    HW330949   0.256   5.725   6.087  0.5666  0.3655  2.0477
 7804SOL    MW430950   0.194   5.674   6.122 -0.1044 -0.6072 -0.2037
 7805SOL     OW30951   3.491   5.746   3.457 -0.0211 -0.2431  0.6539
 7805SOL    HW230952   3.576   5.759   3.415 -0.0306 -1.1918  0.3126
 7805SOL    HW330953   3.512   5.700   3.539 -0.1551  0.0593  0.8591
 7805SOL    MW430954   3.505   5.742   3.462 -0.2556  0.0753 -0.4822
 7806SOL     OW30955   4.952   5.903   1.120  0.3251  0.4330  0.5167
 7806SOL    HW230956   5.019   5.967   1.141 -0.7573  1.4500  1.0274
 7806SOL    HW330957   4.939   5.854   1.201 -1.3901  2.0277  1.2739
 7806SOL    MW430958   4.959   5.905   1.133 -0.1555 -0.0851 -0.1912
 7807SOL     OW30959   1.611   0.726   2.397  0.0537 -0.2672  0.5267
 7807SOL    HW230960   1.560   0.727   2.477  0.5315 -3.1535  0.9526
 7807SOL    HW330961   1.582   0.804   2.349 -1.0648  0.8913  2.9464
 7807SOL    MW430962   1.600   0.737   2.401 -0.4532  0.1878 -0.5438
 7808SOL     OW30963   3.003   5.547   1.203  0.3038  0.8289  0.3426
 7808SOL    HW230964   3.073   5.482   1.198  0.8386  1.3193  1.1014
 7808SOL    HW330965   2.990   5.560   1.297 -1.3298  0.2115  0.2356
 7808SOL    MW430966   3.011   5.540   1.215 -0.4495 -0.1361 -0.1409
 7809SOL     OW30967   0.791   2.899   3.511 -0.7270  0.1864  0.6638
 7809SOL    HW230968   0.759   2.809   3.511  1.9680 -0.9042 -1.4577
 7809SOL    HW330969   0.737   2.944   3.446 -1.0938 -0.3193  0.6143
 7809SOL    MW430970   0.780   2.893   3.502  0.7794  0.8740 -0.3939
 7810SOL     OW30971   4.880   2.672   4.246 -0.3319 -0.5081  0.5585
 7810SOL    HW230972   4.972   2.657   4.226  0.6838 -0.6060  4.4444
 7810SOL    HW330973   4.838   2.685   4.161  3.6035  1.6617 -1.3214
 7810SOL    MW430974   4.886   2.672   4.232  0.1639  0.2285 -0.2426
 7811SOL     OW30975   1.666   0.977   3.866  0.3189 -0.2756 -0.3427
 7811SOL    HW230976   1.652   0.952   3.957  0.7338 -0.4861 -0.3320
 7811SOL    HW330977   1.622   1.061   3.857  3.1323  1.4687  0.9892
 7811SOL    MW430978   1.658   0.985   3.877 -0.3837  0.1979  0.1393
 7812SOL     OW30979   0.071   4.791   2.053 -0.1464  0.3936  0.3546
 7812SOL    HW230980   0.074   4.783   1.957  1.2443 -0.6301  0.4542
 7812SOL    HW330981   0.082   4.884   2.070  0.8406  0.4428 -0.4648
 7812SOL    MW430982   0.073   4.802   2.042 -0.1085 -0.4000 -0.2583
 7813SOL     OW30983   3.531   6.331   0.586  0.3131 -0.0155  0.3372
 7813SOL    HW230984   3.530   6.279   0.506 -0.7389 -1.7059  1.3621
 7813SOL    HW330985   3.450   6.383   0.583 -1.6232 -2.6431  1.7362
 7813SOL    MW430986   3.520   6.331   0.575  0.6902 -0.3702 -0.3718
 7814SOL     OW30987   2.491   2.443   6.106 -0.0334  0.2913  0.0783
 7814SOL    HW230988   2.511   2.350   6.117 -0.7014  0.4490  4.2533
 7814SOL    HW330989   2.577   2.484   6.092  0.5450 -0.7408  0.4755
 7814SOL    MW430990   2.505   2.436   6.105  0.2165  0.4474  0.4338
 7815SOL     OW30991   4.314   1.231   2.161  0.3149  0.0648 -0.2517
 7815SOL    HW230992   4.231   1.202   2.198 -0.5498  0.7184 -1.6052
 7815SOL    HW330993   4.327   1.177   2.083  1.2697 -0.1661  0.0506
 7815SOL    MW430994   4.305   1.220   2.156  0.3875 -0.6991 -0.2265
 7816SOL     OW30995   0.260   0.305   4.419  0.4376  0.3014 -0.4049
 7816SOL    HW230996   0.229   0.383   4.464 -0.3048 -0.3063  0.1889
 7816SOL    HW330997   0.192   0.287   4.353 -0.7758 -1.2729  1.1744
 7816SOL    MW430998   0.247   0.313   4.416 -0.1849  0.5858  0.8763
 7817SOL     OW30999   0.383   0.703   0.095  0.9807 -0.0272  0.2778
 7817SOL    HW231000   0.301   0.750   0.109  0.2556 -1.2736  0.3981
 7817SOL    HW331001   0.363   0.613   0.119  3.2145  0.1387  3.3239
 7817SOL    MW431002   0.370   0.697   0.100  0.4171  0.4620 -0.3690
 7818SOL     OW31003   0.242   4.313   6.235 -0.3882  0.0431  0.6939
 7818SOL    HW231004   0.306   4.326   6.165 -0.1055 -0.6157  0.8183
 7818SOL    HW331005   0.282   4.353   6.312  0.0882 -0.7547  0.8765
 7818SOL    MW431006   0.256   4.320   6.236  0.2378  0.2793  0.1877
 7819SOL     OW31007   1.835   5.127   2.613 -0.3652  0.2874 -0.5235
 7819SOL    HW231008   1.890   5.099   2.540  2.6922  1.0688  1.2884
 7819SOL    HW331009   1.866   5.076   2.688 -0.5229  2.3612  1.0682
 7819SOL    MW431010   1.846   5.117   2.613  0.1700  0.1394  0.3260
 7820SOL     OW31011   0.267   0.129   0.978  0.0057 -0.3771 -0.1949
 7820SOL    HW231012   0.220   0.153   1.058  1.5010 -0.1359  0.6649
 7820SOL    HW331013   0.273   0.211   0.928 -2.9394 -0.9774 -1.7362
 7820SOL    MW431014   0.262   0.143   0.982  1.1526  0.0146  0.2271
 7821SOL     OW31015   2.281   2.204   4.763  0.1178  0.0948 -0.3147
 7821SOL    HW231016   2.261   2.118   4.798 -2.5147  0.2513 -1.2131
 7821SOL    HW331017   2.300   2.188   4.670 -0.2383  0.4462 -0.4524
 7821SOL    MW431018   2.281   2.190   4.755 -0.0831  0.0322  0.3188
 7822SOL     OW31019   2.983   0.378   0.090 -0.2311 -0.2177  0.2638
 7822SOL    HW231020   2.929   0.424   0.026  0.0230 -1.0432 -0.5765
 7822SOL    HW331021   3.035   0.446   0.133 -0.5116  0.3596 -0.3086
 7822SOL    MW431022   2.983   0.393   0.087 -0.1520  0.4834  0.3407
 7823SOL     OW31023   4.105   3.555   3.524 -0.0799 -0.4232  0.0240
 7823SOL    HW231024   4.015   3.573   3.497  0.7519  2.3838 -1.2590
 7823SOL    HW331025   4.115   3.600   3.608  0.7572  1.5525 -1.0588
 7823SOL    MW431026   4.095   3.563   3.531 -0.4428 -0.1974 -0.3307
 7824SOL     OW31027   0.877   1.999   1.046 -0.3574 -0.4077  0.2020
 7824SOL    HW231028   0.815   1.928   1.065 -1.0778 -0.0544 -0.7396
 7824SOL    HW331029   0.874   2.055   1.123 -0.9614 -0.5808  0.3103
 7824SOL    MW431030   0.868   1.997   1.059 -0.5635 -0.1279  0.5508
 7825SOL     OW31031   6.335   0.025   1.476  0.1586 -0.3003  0.1602
 7825SOL    HW231032   6.410   0.068   1.518  1.3318 -0.9895 -1.1463
 7825SOL    HW331033   6.359  -0.068   1.474 -1.1489 -0.6619  0.5320
 7825SOL    MW431034   6.348   0.018   1.482  0.0514  0.2106 -0.2541
 7826SOL     OW31035   6.402   3.449   2.767  0.0077 -0.2445 -0.4530
 7826SOL    HW231036   6.422   3.524   2.823  1.7692 -1.0114 -0.0049
 7826SOL    HW331037   6.407   3.484   2.678  1.2683  0.1012 -0.2717
 7826SOL    MW431038   6.405   3.463   2.763  0.2555 -0.4591 -0.1109
 7827SOL     OW31039   5.213   2.687   3.918 -0.4723  0.0022 -0.2385
 7827SOL    HW231040   5.167   2.771   3.909 -1.9204 -0.7759 -0.4947
 7827SOL    HW331041   5.199   2.662   4.010  0.0770  0.1085 -0.1256
 7827SOL    MW431042   5.205   2.695   3.929  0.0124  0.6907  0.1001
 7828SOL     OW31043   4.659   0.841   2.808 -0.3837 -0.1313  0.2012
 7828SOL    HW231044   4.567   0.863   2.792 -0.3091  0.8200  0.9508
 7828SOL    HW331045   4.686   0.900   2.879  0.9832  0.0705 -0.4359
 7828SOL    MW431046   4.651   0.852   2.815 -0.3140  0.2267  0.2078
 7829SOL     OW31047   4.193   2.426   0.335  0.2639 -0.1510 -0.3282
 7829SOL    HW231048   4.110   2.440   0.288 -0.2774  0.5777  0.7983
 7829SOL    HW331049   4.177   2.350   0.390  0.2153  0.2066  0.1583
 7829SOL    MW431050   4.180   2.418   0.336  0.0916  0.9051  0.1123
 7830SOL     OW31051   4.887   2.684   3.360 -0.6579 -0.0223 -0.0957
 7830SOL    HW231052   4.866   2.624   3.288 -0.3950 -0.1082 -0.1033
 7830SOL    HW331053   4.869   2.634   3.439  0.4252 -0.4424 -0.0925
 7830SOL    MW431054   4.882   2.669   3.361 -0.3064  0.4159  0.4929
 7831SOL     OW31055   3.009   5.448   1.985  0.3916 -0.2573 -0.0851
 7831SOL    HW231056   2.959   5.472   2.064  0.7809 -1.0688  0.4256
 7831SOL    HW331057   3.098   5.479   2.003  0.7928 -1.6038  0.3830
 7831SOL    MW431058   3.014   5.455   1.998  0.1584 -0.4987  0.1094
 7832SOL     OW31059   5.739   3.694   4.642  0.1212 -0.3458  1.3528
 7832SOL    HW231060   5.815   3.650   4.680  2.4359  2.4755  0.3961
 7832SOL    HW331061   5.739   3.781   4.683 -0.5959  0.8446 -0.9584
 7832SOL    MW431062   5.749   3.700   4.652 -0.3233 -0.4588  0.3096
 7833SOL     OW31063   0.662   5.038   1.644 -0.4206  0.1167 -0.1879
 7833SOL    HW231064   0.719   5.113   1.626  0.7007 -0.2741  1.4648
 7833SOL    HW331065   0.573   5.072   1.637  0.0680  1.7575  0.9974
 7833SOL    MW431066   0.658   5.052   1.641  0.0921  0.3764  0.2181
 7834SOL     OW31067   3.835   5.833   2.983 -0.8705 -0.3056 -0.2184
 7834SOL    HW231068   3.878   5.783   3.053 -0.1566  1.1557  0.4471
 7834SOL    HW331069   3.787   5.768   2.932  1.0370 -1.8374 -0.1691
 7834SOL    MW431070   3.835   5.818   2.986  0.2050 -0.0462 -0.3353
 7835SOL     OW31071   5.880   1.900   1.531  0.3638 -0.5047 -0.3605
 7835SOL    HW231072   5.927   1.849   1.597  1.6444  0.8682 -0.1558
 7835SOL    HW331073   5.819   1.954   1.581 -0.6622 -1.4394 -0.5466
 7835SOL    MW431074   5.878   1.900   1.546  0.4932 -0.3278 -0.2131
 7836SOL     OW31075   1.626   2.745   1.702  0.4966 -0.8907 -0.1121
 7836SOL    HW231076   1.657   2.768   1.615  1.0357  1.6953  0.6871
 7836SOL    HW331077   1.692   2.780   1.761 -0.8958 -0.7216  1.4182
 7836SOL    MW431078   1.639   2.753   1.698 -0.0661  0.1525 -0.0089
 7837SOL     OW31079   1.715   0.180   0.208  0.7724  0.5476 -0.3845
 7837SOL    HW231080   1.646   0.136   0.159  1.1054 -1.7370  1.0648
 7837SOL    HW331081   1.774   0.215   0.141  0.1726 -0.7503 -1.6356
 7837SOL    MW431082   1.714   0.179   0.193 -0.0289  0.1970 -0.3644
 7838SOL     OW31083   5.162   0.229   2.094 -0.3280  0.1712  0.2705
 7838SOL    HW231084   5.125   0.287   2.160  0.0204  1.4245 -0.6025
 7838SOL    HW331085   5.246   0.201   2.132 -1.6542 -1.9813  1.8636
 7838SOL    MW431086   5.169   0.233   2.108 -0.4250 -0.1180 -1.0240
 7839SOL     OW31087   1.157   0.407   0.268 -1.0502  0.2104 -0.1125
 7839SOL    HW231088   1.079   0.458   0.245 -0.7660  0.3040 -0.9177
 7839SOL    HW331089   1.174   0.353   0.190 -0.7641 -0.3808  0.3518
 7839SOL    MW431090   1.149   0.407   0.255  0.5442  0.3447  0.2129
 7840SOL     OW31091   5.733   0.958   1.737  0.1929 -0.3268  0.0505
 7840SOL    HW231092   5.794   0.999   1.676  0.1977  0.5689  0.6433
 7840SOL    HW331093   5.782   0.885   1.775  0.2572 -0.7641 -0.8540
 7840SOL    MW431094   5.748   0.954   1.734 -0.0639  1.0601  0.2086
 7841SOL     OW31095   4.043   3.822   1.942  0.3260  0.1202  0.0969
 7841SOL    HW231096   4.023   3.810   1.849 -1.4688  0.7243  0.3698
 7841SOL    HW331097   4.005   3.746   1.985  1.0317 -0.0891  0.3724
 7841SOL    MW431098   4.036   3.810   1.935 -0.0181 -0.1826 -0.2490
 7842SOL     OW31099   2.579   0.373   3.689  0.0059  0.7235 -0.3743
 7842SOL    HW231100   2.500   0.325   3.661  0.7335 -0.0776 -1.1481
 7842SOL    HW331101   2.651   0.312   3.669  0.6814  0.5435  2.3309
 7842SOL    MW431102   2.578   0.358   3.682 -0.0670  0.1291  0.2097
 7843SOL     OW31103   4.481   1.973   5.111  0.1347 -0.4313 -0.6453
 7843SOL    HW231104   4.565   2.018   5.125  0.0544 -0.1645 -1.0118
 7843SOL    HW331105   4.465   1.927   5.193 -0.7596  1.7811  0.4891
 7843SOL    MW431106   4.490   1.973   5.123 -0.4828 -0.0225  0.4274
 7844SOL     OW31107   2.377   4.484   4.647  0.4277  0.2232  0.0349
 7844SOL    HW231108   2.413   4.435   4.721  0.1223 -0.3989 -0.2291
 7844SOL    HW331109   2.282   4.476   4.656  0.3846 -1.4411 -1.4508
 7844SOL    MW431110   2.369   4.477   4.658  0.1213  0.1957  0.3090
 7845SOL     OW31111   1.616   2.888   0.786 -0.0879 -0.0351 -0.0350
 7845SOL    HW231112   1.593   2.913   0.697  0.1237  0.0237 -0.0737
 7845SOL    HW331113   1.710   2.871   0.783  0.0025  0.3947  0.2690
 7845SOL    MW431114   1.626   2.889   0.774  0.0366 -0.1825 -0.2826
 7846SOL     OW31115   0.555   0.319   4.380  0.6560 -0.3527  0.2462
 7846SOL    HW231116   0.459   0.319   4.389  0.6825 -1.6520  0.8040
 7846SOL    HW331117   0.583   0.401   4.419 -0.2521  0.2204 -0.2608
 7846SOL    MW431118   0.546   0.330   4.386  0.3068  0.3250  0.0661
 7847SOL     OW31119   3.232   4.973   1.148  0.1020  0.2703 -0.6020
 7847SOL    HW231120   3.220   5.064   1.173 -1.3845  0.2317 -1.0776
 7847SOL    HW331121   3.228   4.925   1.230  0.8619  0.6138 -0.3531
 7847SOL    MW431122   3.230   4.979   1.162  0.5006  0.2040 -0.4480
 7848SOL     OW31123   1.416   5.026   1.646 -0.2997  0.3957  0.5343
 7848SOL    HW231124   1.406   4.969   1.722 -2.1379  0.5795  0.4810
 7848SOL    HW331125   1.475   4.979   1.588 -1.6395 -1.4033  0.5584
 7848SOL    MW431126   1.422   5.012   1.649 -0.4565  0.1339  0.2627
 7849SOL     OW31127   4.969   5.864   4.905  0.4215  0.1565  0.2524
 7849SOL    HW231128   4.906   5.845   4.835 -0.3704 -0.5277  1.1138
 7849SOL    HW331129   5.054   5.859   4.863 -0.0069 -0.8400 -0.5428
 7849SOL    MW431130   4.972   5.861   4.891  0.5943  0.6485 -0.0482
 7850SOL     OW31131   5.913   2.155   5.928  0.0620  0.3053 -0.3969
 7850SOL    HW231132   5.861   2.187   6.001 -0.7010  1.4985 -1.4442
 7850SOL    HW331133   5.902   2.220   5.859  1.6881 -0.2047 -1.2019
 7850SOL    MW431134   5.905   2.167   5.929  0.3323  0.2734  0.3418
 7851SOL     OW31135   6.293   5.314   3.059  0.0827  0.4258 -0.3196
 7851SOL    HW231136   6.330   5.240   3.011  0.1014  0.3990 -0.2650
 7851SOL    HW331137   6.248   5.367   2.993  0.1189  0.3960 -0.3677
 7851SOL    MW431138   6.292   5.311   3.044  0.2922 -0.8755 -0.0175
 7852SOL     OW31139   2.619   4.175   3.914 -0.0642  0.1450 -0.1614
 7852SOL    HW231140   2.527   4.189   3.938 -0.0158  0.0281  0.0920
 7852SOL    HW331141   2.666   4.172   3.997  0.0566 -0.6031 -0.2445
 7852SOL    MW431142   2.613   4.176   3.928 -0.4775  0.0016  0.0871
 7853SOL     OW31143   4.456   4.418   1.719 -0.1828 -0.3549  0.1069
 7853SOL    HW231144   4.370   4.410   1.760 -0.0871  1.1334  0.6749
 7853SOL    HW331145   4.455   4.355   1.647 -1.3323 -1.1362  0.7836
 7853SOL    MW431146   4.444   4.409   1.715 -1.1335 -0.0099 -0.6132
 7854SOL     OW31147   1.520   1.647   1.503  0.1061 -0.2538  0.0020
 7854SOL    HW231148   1.593   1.606   1.549 -0.3279 -0.5507  0.4350
 7854SOL    HW331149   1.535   1.628   1.411  1.0510  0.4528  0.0033
 7854SOL    MW431150   1.531   1.639   1.497 -0.4703  0.3232  1.1521
 7855SOL     OW31151   0.637   5.217   0.712 -0.2610  0.2197  0.0154
 7855SOL    HW231152   0.682   5.242   0.631  0.7955  1.0806  0.8352
 7855SOL    HW331153   0.591   5.296   0.739  0.4718  0.3468  0.9394
 7855SOL    MW431154   0.637   5.231   0.705 -0.1833  0.2639 -0.0893
 7856SOL     OW31155   2.698   5.447   1.449 -0.1783 -0.0489 -0.3416
 7856SOL    HW231156   2.774   5.502   1.429  0.2714 -0.1121  1.0886
 7856SOL    HW331157   2.630   5.508   1.477 -0.0575 -0.1114  0.1080
 7856SOL    MW431158   2.699   5.462   1.450 -0.3782  0.0292 -0.9553
 7857SOL     OW31159   4.287   0.837   1.549 -0.8185 -0.4366 -0.0912
 7857SOL    HW231160   4.260   0.927   1.531  0.7186  0.0727 -0.0351
 7857SOL    HW331161   4.217   0.783   1.513 -1.4162  0.7675 -0.7968
 7857SOL    MW431162   4.275   0.841   1.542  0.7577 -0.3796 -0.1232
 7858SOL     OW31163   5.044   0.214   6.398 -0.4383 -0.7390 -0.0227
 7858SOL    HW231164   4.992   0.209   6.478  0.6163  0.1327  0.7448
 7858SOL    HW331165   4.981   0.237   6.329 -0.9388  1.4002  1.0706
 7858SOL    MW431166   5.029   0.216   6.399  0.5176  0.0874  0.0648
 7859SOL     OW31167   4.756   2.060   0.249 -0.4170 -0.0109 -0.0937
 7859SOL    HW231168   4.782   2.016   0.330 -0.6920  0.9323  0.5248
 7859SOL    HW331169   4.724   2.146   0.278  0.9809  0.9724 -1.3246
 7859SOL    MW431170   4.755   2.066   0.264  0.1153  0.3494 -0.6433
 7860SOL     OW31171   2.785   5.558   3.039 -0.3782  0.5884  0.0794
 7860SOL    HW231172   2.793   5.639   2.987 -1.5518  0.5815 -0.1249
 7860SOL    HW331173   2.742   5.586   3.120  0.0638  0.3253  0.4073
 7860SOL    MW431174   2.781   5.573   3.043 -0.1561  0.0528 -0.0112
 7861SOL     OW31175   3.284   2.030   1.428  0.4208 -0.3330  0.1118
 7861SOL    HW231176   3.356   1.968   1.421  1.5254  0.9107  0.0739
 7861SOL    HW331177   3.274   2.046   1.522  0.4359 -0.2377  0.0979
 7861SOL    MW431178   3.292   2.024   1.440  0.4477 -0.1186  0.0517
 7862SOL     OW31179   1.829   4.527   5.856  0.2222  0.2892  0.0529
 7862SOL    HW231180   1.794   4.534   5.767  1.2667 -0.4643 -0.4383
 7862SOL    HW331181   1.905   4.586   5.857  0.4641 -0.0241  0.3163
 7862SOL    MW431182   1.834   4.536   5.844  0.0906  0.0020 -0.2591
 7863SOL     OW31183   4.253   1.170   6.404 -0.2616 -0.8704 -0.4515
 7863SOL    HW231184   4.330   1.143   6.354 -0.1731 -0.3590 -0.5988
 7863SOL    HW331185   4.190   1.200   6.338  0.4111  1.2379 -0.2225
 7863SOL    MW431186   4.255   1.170   6.389 -0.3778 -0.0961  0.1571
 7864SOL     OW31187   3.465   3.351   1.293 -0.2602 -0.3745  0.0450
 7864SOL    HW231188   3.457   3.274   1.238  1.0106  0.3276 -1.1705
 7864SOL    HW331189   3.462   3.425   1.233  0.4078  0.4532  0.9872
 7864SOL    MW431190   3.464   3.351   1.278 -0.3817  0.2188 -0.2928
 7865SOL     OW31191   2.115   4.394   5.369 -0.2217 -0.2760 -0.0262
 7865SOL    HW231192   2.040   4.336   5.379  0.1488 -0.6493  0.6865
 7865SOL    HW331193   2.189   4.336   5.356  0.0732  0.0567  0.1490
 7865SOL    MW431194   2.115   4.379   5.369  0.0320 -0.0664  0.5311
 7866SOL     OW31195   0.159   6.417   3.051  0.0535 -0.4543 -0.6093
 7866SOL    HW231196   0.238   6.463   3.023 -1.1236  0.9457 -1.8557
 7866SOL    HW331197   0.133   6.460   3.132 -0.2722  0.1565 -1.0304
 7866SOL    MW431198   0.166   6.429   3.058  0.0014  0.3284 -0.0376
 7867SOL     OW31199   5.626   5.445   5.295 -0.0504  0.1663  0.0117
 7867SOL    HW231200   5.573   5.504   5.349  1.2876  0.6450  0.8627
 7867SOL    HW331201   5.714   5.483   5.299  0.5387 -1.0903 -0.6363
 7867SOL    MW431202   5.630   5.458   5.302  0.0033  0.1505  0.0684
 7868SOL     OW31203   5.461   4.009   0.497 -0.1665 -0.8588  0.4693
 7868SOL    HW231204   5.453   3.914   0.489 -1.7548 -0.7673  0.6911
 7868SOL    HW331205   5.371   4.041   0.497  0.2232  0.4515  2.9159
 7868SOL    MW431206   5.448   4.001   0.496 -0.3543 -0.5185 -0.0040
 7869SOL     OW31207   6.032   0.099   2.285  0.7695  0.2680 -0.6654
 7869SOL    HW231208   6.008   0.007   2.280  0.6047  0.2550  0.1787
 7869SOL    HW331209   5.969   0.137   2.347  0.2776  1.1401 -1.6644
 7869SOL    MW431210   6.020   0.092   2.293  0.2456  0.3326  0.1674
 7870SOL     OW31211   6.211   3.452   2.289  0.0698  0.3126  0.2974
 7870SOL    HW231212   6.220   3.398   2.211 -1.2310  0.2056  0.2095
 7870SOL    HW331213   6.270   3.412   2.353  0.5985 -0.0241 -0.3900
 7870SOL    MW431214   6.220   3.439   2.287 -0.4524 -0.1122  0.9420
 7871SOL     OW31215   2.131   3.988   1.775  0.4529 -0.3667 -0.0277
 7871SOL    HW231216   2.073   3.968   1.702 -0.4556 -0.5840  0.7336
 7871SOL    HW331217   2.086   4.056   1.824  1.3570  0.2409 -0.0197
 7871SOL    MW431218   2.117   3.994   1.772 -0.2881  0.1286  1.2134
 7872SOL     OW31219   3.742   2.272   4.847  0.3577  0.1554 -0.6158
 7872SOL    HW231220   3.833   2.296   4.866  0.1893  2.3197 -2.1611
 7872SOL    HW331221   3.744   2.177   4.836  2.8232  0.3285 -2.4146
 7872SOL    MW431222   3.754   2.263   4.848 -0.1317 -0.6020 -0.0881
 7873SOL     OW31223   1.662   4.560   4.104  0.4742  0.3136  0.6715
 7873SOL    HW231224   1.604   4.533   4.033  1.7475  0.1085 -0.3464
 7873SOL    HW331225   1.686   4.477   4.147 -0.5387  0.4650  1.5692
 7873SOL    MW431226   1.658   4.545   4.100  0.2009 -0.2269  0.2070
 7874SOL     OW31227   4.684   1.702   5.452  0.9865  0.1217 -0.2477
 7874SOL    HW231228   4.688   1.698   5.356  0.1412 -1.0026 -0.2704
 7874SOL    HW331229   4.614   1.640   5.474  1.5832 -0.0834  1.1253
 7874SOL    MW431230   4.675   1.693   5.442  0.0503 -0.1759 -0.6788
 7875SOL     OW31231   3.132   0.439   5.211 -0.4886  0.7885  0.1895
 7875SOL    HW231232   3.084   0.365   5.174 -0.3520  0.2941  0.9833
 7875SOL    HW331233   3.069   0.482   5.269 -0.8564  1.8517 -0.9617
 7875SOL    MW431234   3.118   0.435   5.214  0.2657  0.3890 -0.0808
 7876SOL     OW31235   0.160   1.540   1.460 -0.0935  0.3842 -0.5529
 7876SOL    HW231236   0.104   1.495   1.396 -0.2660 -0.4737  0.1924
 7876SOL    HW331237   0.112   1.620   1.481 -1.0729 -0.3472  0.0899
 7876SOL    MW431238   0.146   1.545   1.454  0.2660 -0.2817 -0.1504
 7877SOL     OW31239   3.542   2.439   2.166  0.0770 -0.1857 -0.0579
 7877SOL    HW231240   3.511   2.517   2.213 -0.6449 -1.2430  1.2849
 7877SOL    HW331241   3.530   2.460   2.074  0.5168  1.5426  0.2433
 7877SOL    MW431242   3.537   2.452   2.160  0.2586  0.4370  0.5191
 7878SOL     OW31243   2.224   4.955   3.117 -0.1249  0.0142  0.0127
 7878SOL    HW231244   2.152   4.891   3.114 -0.5043  0.3571  1.2501
 7878SOL    HW331245   2.201   5.020   3.050 -1.4148  0.5556  0.9443
 7878SOL    MW431246   2.211   4.955   3.108 -0.0025  0.7364  0.1746
 7879SOL     OW31247   3.780   3.934   0.329 -0.0007 -0.0771 -0.4181
 7879SOL    HW231248   3.764   3.884   0.409 -0.5364  0.3887 -0.2331
 7879SOL    HW331249   3.814   4.018   0.359  3.9688 -1.3167 -0.7859
 7879SOL    MW431250   3.783   3.938   0.343 -0.6013 -0.0586  0.3134
 7880SOL     OW31251   4.116   3.309   5.213  0.2855 -0.3896 -0.2209
 7880SOL    HW231252   4.093   3.280   5.301  0.3541 -2.0088 -0.7046
 7880SOL    HW331253   4.187   3.372   5.227 -0.8434  0.6628  0.9557
 7880SOL    MW431254   4.123   3.313   5.227 -0.1043 -0.0405 -0.2902
 7881SOL     OW31255   0.968   3.479   3.631  0.3438 -0.2630 -0.7387
 7881SOL    HW231256   0.883   3.434   3.629 -0.1158  0.5628 -0.3381
 7881SOL    HW331257   1.031   3.409   3.651 -0.2732 -0.8360 -0.7427
 7881SOL    MW431258   0.965   3.464   3.634  0.1411  0.3991 -0.2533
 7882SOL     OW31259   5.158   3.717   4.878  0.3173  0.3512  0.3587
 7882SOL    HW231260   5.186   3.695   4.789 -0.3115  1.3907 -0.1039
 7882SOL    HW331261   5.233   3.763   4.916  0.1886  0.8619 -0.0037
 7882SOL    MW431262   5.172   3.720   4.871 -0.3542 -0.2301  0.0968
 7883SOL     OW31263   0.052   3.933   3.267  0.0636 -0.3147 -0.5022
 7883SOL    HW231264   0.070   3.927   3.361 -1.9641  1.1246  0.0420
 7883SOL    HW331265  -0.043   3.924   3.261  0.1170  0.0794 -2.3774
 7883SOL    MW431266   0.042   3.931   3.279 -0.3591  0.1999  0.2001
 7884SOL     OW31267   2.461   0.769   6.300  0.3304 -0.1995 -0.4108
 7884SOL    HW231268   2.424   0.856   6.283  0.3334 -0.1047  0.0498
 7884SOL    HW331269   2.435   0.749   6.390 -0.5004 -1.1029 -0.8281
 7884SOL    MW431270   2.453   0.778   6.310  0.0334  0.1328  0.2537
 7885SOL     OW31271   4.064   4.558   1.157  0.0168 -0.6183 -0.2173
 7885SOL    HW231272   3.996   4.539   1.222  1.1401 -0.8173  0.9291
 7885SOL    HW331273   4.128   4.488   1.167  0.5889 -0.2348 -1.0272
 7885SOL    MW431274   4.063   4.547   1.167  0.5284  0.3173 -0.4216
 7886SOL     OW31275   5.091   2.848   1.285 -0.4584 -0.6965 -0.1906
 7886SOL    HW231276   5.077   2.943   1.283  2.2744 -0.1912 -2.6272
 7886SOL    HW331277   5.150   2.834   1.359 -1.2475 -0.6251  0.4738
 7886SOL    MW431278   5.097   2.859   1.295  0.4107 -0.5903  0.3775
 7887SOL     OW31279   2.546   2.858   1.542  0.1230 -0.6299 -0.2841
 7887SOL    HW231280   2.532   2.767   1.568  2.0667 -1.0763 -0.6902
 7887SOL    HW331281   2.515   2.909   1.617 -0.9734 -1.5915 -0.0452
 7887SOL    MW431282   2.540   2.853   1.555  0.0275 -0.8996  0.6626
 7888SOL     OW31283   1.020   3.785   1.866  0.1993  0.3142  0.0849
 7888SOL    HW231284   0.932   3.749   1.879 -0.0802 -0.3778 -3.0489
 7888SOL    HW331285   1.074   3.739   1.930 -0.8301 -3.1481 -1.3055
 7888SOL    MW431286   1.016   3.774   1.876  0.2018  0.1093 -0.4326
 7889SOL     OW31287   2.668   6.160   2.120  0.2062  0.1918 -1.3707
 7889SOL    HW231288   2.728   6.160   2.195  0.4766  1.1866 -1.5741
 7889SOL    HW331289   2.608   6.088   2.138  1.3219 -0.6862 -1.0509
 7889SOL    MW431290   2.668   6.151   2.132  0.4821 -0.0125  0.0974
 7890SOL     OW31291   1.920   6.140   1.831 -0.0907  0.0635 -0.1629
 7890SOL    HW231292   1.953   6.225   1.805  0.5670  0.1692  0.9523
 7890SOL    HW331293   1.940   6.082   1.757  0.4973  0.6267 -0.4492
 7890SOL    MW431294   1.927   6.143   1.818 -0.0838  0.0770  0.4549
 7891SOL     OW31295   3.457   2.558   4.222 -0.1548 -0.2552 -0.0454
 7891SOL    HW231296   3.363   2.561   4.236  0.1262  0.0452  1.9799
 7891SOL    HW331297   3.468   2.585   4.130 -2.0209 -0.3255 -0.3268
 7891SOL    MW431298   3.446   2.562   4.211 -0.3818 -0.5384  0.4612
 7892SOL     OW31299   4.983   6.188   3.461 -0.3644  0.1670  0.2979
 7892SOL    HW231300   5.047   6.124   3.492  1.2370  0.2228 -2.5659
 7892SOL    HW331301   4.899   6.143   3.471  0.4085 -1.1864  1.1516
 7892SOL    MW431302   4.980   6.173   3.466  0.4346  0.4276  0.2623
 7893SOL     OW31303   5.494   3.858   5.555  0.4230  0.2042  0.0232
 7893SOL    HW231304   5.404   3.828   5.538  1.1341 -1.4646 -1.1507
 7893SOL    HW331305   5.499   3.943   5.512 -0.4648  0.0973 -0.3318
 7893SOL    MW431306   5.483   3.865   5.547 -0.0741  0.1545 -0.5979
 7894SOL     OW31307   4.126   1.946   4.338 -0.1009 -0.1567  0.1649
 7894SOL    HW231308   4.169   1.867   4.305  0.1024 -0.6686  1.5843
 7894SOL    HW331309   4.158   2.016   4.281  0.6578 -0.9060 -0.3664
 7894SOL    MW431310   4.136   1.945   4.326  0.4575  0.1034 -0.0728
 7895SOL     OW31311   3.766   6.342   3.071  0.3730  0.3388  0.4974
 7895SOL    HW231312   3.828   6.280   3.030 -0.3738 -0.0096 -0.1230
 7895SOL    HW331313   3.697   6.286   3.106 -0.4618  0.8390 -0.3301
 7895SOL    MW431314   3.765   6.326   3.070 -0.0391 -0.6282  0.4288
 7896SOL     OW31315   5.629   4.772   4.542 -0.2640 -0.2773 -0.8283
 7896SOL    HW231316   5.707   4.825   4.528  0.5226 -1.0809  0.3847
 7896SOL    HW331317   5.559   4.836   4.558  0.4172  0.4150 -0.5654
 7896SOL    MW431318   5.630   4.788   4.542  0.2535  0.0836 -0.6806
 7897SOL     OW31319   2.362   0.382   3.037 -0.3210  0.1957  0.0902
 7897SOL    HW231320   2.426   0.361   3.105 -1.8627  0.9227  1.8252
 7897SOL    HW331321   2.392   0.332   2.961  2.7994  1.1735  0.5091
 7897SOL    MW431322   2.374   0.373   3.036  0.2279  0.2710 -0.0852
 7898SOL     OW31323   0.493   2.325   0.756 -0.2185 -0.2127 -0.0424
 7898SOL    HW231324   0.558   2.393   0.736  0.5024 -0.8505  0.0645
 7898SOL    HW331325   0.418   2.346   0.701  0.3432  0.1563 -0.6837
 7898SOL    MW431326   0.492   2.337   0.746  0.3351 -0.0279  0.8894
 7899SOL     OW31327   1.895   1.570   2.563 -0.4817  0.0261 -0.3807
 7899SOL    HW231328   1.893   1.475   2.565 -1.0007  0.0141 -1.1040
 7899SOL    HW331329   1.831   1.595   2.497  1.5211  0.7683 -2.1784
 7899SOL    MW431330   1.886   1.561   2.555 -0.4755  0.3525 -0.0737
 7900SOL     OW31331   2.692   3.331   4.215  0.2594 -0.3985  0.0810
 7900SOL    HW231332   2.633   3.267   4.256  0.6800 -0.6567  0.2924
 7900SOL    HW331333   2.767   3.335   4.275  0.5266 -0.1913 -0.2671
 7900SOL    MW431334   2.694   3.323   4.229  0.4984 -0.3478  0.4605
 7901SOL     OW31335   4.224   1.684   3.142 -0.1103 -0.1526  0.3299
 7901SOL    HW231336   4.313   1.717   3.146 -0.1177  0.0325 -0.6588
 7901SOL    HW331337   4.210   1.640   3.226  0.6104  0.5517  0.8302
 7901SOL    MW431338   4.234   1.682   3.153  0.4092 -0.5854  0.1016
 7902SOL     OW31339   5.404   1.256   5.387 -0.2044  0.1905 -0.2048
 7902SOL    HW231340   5.492   1.273   5.420  0.5798 -2.0809 -0.9822
 7902SOL    HW331341   5.406   1.288   5.296  0.1002 -0.6485 -0.4965
 7902SOL    MW431342   5.416   1.263   5.379 -0.3187 -0.0880 -0.0402
 7903SOL     OW31343   5.077   0.955   4.026 -0.2402  0.3992  0.0894
 7903SOL    HW231344   5.057   0.927   3.936 -0.4585  2.7076 -0.6684
 7903SOL    HW331345   4.993   0.985   4.060 -0.0065  0.2661  0.7914
 7903SOL    MW431346   5.063   0.955   4.019  0.0053  0.4941 -0.2427
 7904SOL     OW31347   2.703   5.954   5.469  0.0747  0.2543  0.0197
 7904SOL    HW231348   2.722   5.863   5.494  1.3785 -0.3602 -2.7934
 7904SOL    HW331349   2.729   6.005   5.545 -1.7316 -1.7098  2.1457
 7904SOL    MW431350   2.709   5.948   5.483 -0.2405  0.1325  0.4066
 7905SOL     OW31351   3.178   6.145   1.928  0.5800 -0.5912 -0.4846
 7905SOL    HW231352   3.256   6.091   1.935  0.9676  0.0851  0.4676
 7905SOL    HW331353   3.210   6.235   1.919 -0.0846 -0.2485  0.4334
 7905SOL    MW431354   3.192   6.150   1.927  0.2283 -0.2074 -0.5304
 7906SOL     OW31355   6.143   2.452   6.298 -0.1546 -0.4003 -0.1470
 7906SOL    HW231356   6.076   2.386   6.318 -0.6276  0.2600  0.4929
 7906SOL    HW331357   6.115   2.489   6.213  0.0530 -0.9366 -0.4533
 7906SOL    MW431358   6.130   2.448   6.289 -0.0345 -0.2409 -0.0586
 7907SOL     OW31359   2.728   3.726   1.068  0.2881  0.2453  0.2863
 7907SOL    HW231360   2.798   3.777   1.028  0.0546  1.3574  1.2190
 7907SOL    HW331361   2.650   3.747   1.017  0.1114  1.1894  0.9030
 7907SOL    MW431362   2.727   3.736   1.056  0.1510 -0.1173  0.2392
 7908SOL     OW31363   0.223   5.842   5.586  0.2080 -0.3112  0.1181
 7908SOL    HW231364   0.177   5.913   5.542  1.1623 -0.1961 -0.7451
 7908SOL    HW331365   0.310   5.879   5.606  0.6571 -1.1779 -0.1879
 7908SOL    MW431366   0.229   5.856   5.583 -0.2054  0.2310 -0.3635
 7909SOL     OW31367   1.623   5.247   0.283 -0.1910 -0.1699 -0.2322
 7909SOL    HW231368   1.595   5.174   0.339  0.4403  0.4427  0.9325
 7909SOL    HW331369   1.543   5.275   0.239 -1.0627  0.2899  1.5278
 7909SOL    MW431370   1.609   5.241   0.285 -0.3292  0.7723  0.0633
 7910SOL     OW31371   3.791   2.561   2.549 -0.1776 -0.0962  0.0769
 7910SOL    HW231372   3.874   2.578   2.594 -0.0689 -0.2385 -0.0709
 7910SOL    HW331373   3.772   2.469   2.569 -0.4345  0.0141  0.3334
 7910SOL    MW431374   3.800   2.551   2.558 -0.4611 -0.2335  0.0371
 7911SOL     OW31375   5.619   0.685   5.347  0.1260  0.3756 -0.1188
 7911SOL    HW231376   5.709   0.680   5.380  0.3065 -1.4297 -0.7829
 7911SOL    HW331377   5.626   0.664   5.254 -1.0647 -0.5975 -0.0098
 7911SOL    MW431378   5.631   0.682   5.339  0.1436  0.0133  0.4790
 7912SOL     OW31379   2.828   4.262   5.232 -0.5363  0.1300 -0.1984
 7912SOL    HW231380   2.819   4.357   5.245 -2.1245 -0.2187  1.7011
 7912SOL    HW331381   2.876   4.231   5.309  0.0760 -0.6064 -0.8604
 7912SOL    MW431382   2.833   4.271   5.244 -0.3012  0.0868 -0.4094
 7913SOL     OW31383   5.342   1.576   1.471  0.1936  0.0433 -0.2815
 7913SOL    HW231384   5.342   1.613   1.559 -0.8543  3.4232 -1.5356
 7913SOL    HW331385   5.251   1.549   1.457 -0.2853  1.9652 -1.1611
 7913SOL    MW431386   5.330   1.577   1.481 -0.4243 -0.2644  0.2756
 7914SOL     OW31387   2.871   5.069   5.549 -0.2161 -0.1982 -0.2454
 7914SOL    HW231388   2.895   5.016   5.625 -1.5349 -2.3774 -1.2344
 7914SOL    HW331389   2.931   5.040   5.480  0.7308  1.4947 -0.1785
 7914SOL    MW431390   2.882   5.058   5.550 -0.0435 -0.1348 -0.0472
 7915SOL     OW31391   3.351   1.200   5.131 -0.3179 -0.2277  0.1282
 7915SOL    HW231392   3.338   1.251   5.211  1.6137 -0.1375  0.4119
 7915SOL    HW331393   3.264   1.198   5.091 -0.8895  1.5211  1.1499
 7915SOL    MW431394   3.337   1.207   5.136 -0.1553  0.4353 -0.1356
 7916SOL     OW31395   4.671   1.734   5.877 -0.0110  0.2801 -0.1102
 7916SOL    HW231396   4.635   1.822   5.873 -0.1873  0.1619 -1.2582
 7916SOL    HW331397   4.697   1.723   5.969  0.2842  1.6183 -0.0203
 7916SOL    MW431398   4.669   1.744   5.889 -0.3761  0.5702  0.1184
 7917SOL     OW31399   0.272   4.917   1.330 -0.0720 -0.0869  0.2370
 7917SOL    HW231400   0.221   4.870   1.395  0.6175 -0.9491  0.1708
 7917SOL    HW331401   0.252   4.873   1.247  1.2676 -0.8683  0.3080
 7917SOL    MW431402   0.263   4.905   1.327  0.0524 -0.6797  0.0809
 7918SOL     OW31403   2.525   2.109   5.507  0.0483 -0.0414  0.4372
 7918SOL    HW231404   2.575   2.036   5.542  0.3493 -0.5753 -1.0404
 7918SOL    HW331405   2.443   2.108   5.556  1.0616  0.2816  2.2557
 7918SOL    MW431406   2.521   2.099   5.518  0.5716  0.6211 -0.5354
 7919SOL     OW31407   5.422   1.215   1.652 -0.3326  0.3179 -0.1537
 7919SOL    HW231408   5.380   1.183   1.572  0.1339 -0.4475 -0.0971
 7919SOL    HW331409   5.499   1.263   1.621  1.1035 -1.8354 -0.1192
 7919SOL    MW431410   5.427   1.217   1.637  0.6182  0.5948 -0.7498
 7920SOL     OW31411   2.871   4.537   4.605 -0.1210 -0.1791 -0.8202
 7920SOL    HW231412   2.831   4.624   4.597 -1.3640 -0.3897  1.9831
 7920SOL    HW331413   2.798   4.479   4.626  1.0041 -1.5027 -0.4131
 7920SOL    MW431414   2.856   4.541   4.607 -0.1223  0.4150  0.0162
 7921SOL     OW31415   6.278   0.915   2.122  0.2535 -0.2942 -0.2248
 7921SOL    HW231416   6.297   0.866   2.042  3.3486  0.1084  0.1397
 7921SOL    HW331417   6.321   0.999   2.109 -2.2175  1.1776  0.4814
 7921SOL    MW431418   6.286   0.920   2.109  0.6325  0.3255  0.0172
 7922SOL     OW31419   3.260   2.137   1.718 -0.4134 -0.2730 -0.2766
 7922SOL    HW231420   3.310   2.124   1.799 -0.3100 -0.8165 -0.4218
 7922SOL    HW331421   3.178   2.090   1.734 -0.0169 -1.1689 -0.8339
 7922SOL    MW431422   3.256   2.129   1.731 -0.4147  0.7389 -0.1433
 7923SOL     OW31423   4.646   3.653   3.442 -0.0695  0.5170 -0.1082
 7923SOL    HW231424   4.569   3.596   3.442 -0.4990  1.0799  0.3614
 7923SOL    HW331425   4.622   3.725   3.384  0.7756 -0.1488 -1.3449
 7923SOL    MW431426   4.633   3.655   3.434  0.3371  0.1811  0.3956
 7924SOL     OW31427   1.950   3.925   1.548  0.3269  0.3118  0.0970
 7924SOL    HW231428   1.911   3.841   1.572  2.6191 -0.5402  1.0357
 7924SOL    HW331429   1.969   3.916   1.455 -0.7916  0.3949 -0.1592
 7924SOL    MW431430   1.947   3.913   1.539 -0.2629  0.5468 -0.0232
 7925SOL     OW31431   1.428   3.861   5.003  0.1804  0.4048 -0.3804
 7925SOL    HW231432   1.440   3.954   5.018 -1.7250  0.2926  2.8527
 7925SOL    HW331433   1.374   3.855   4.924  0.0633  2.0459 -0.4420
 7925SOL    MW431434   1.423   3.872   4.995  0.5953 -0.2367 -0.2567
 7926SOL     OW31435   5.021   5.470   1.311  0.0675  0.1716 -0.7870
 7926SOL    HW231436   4.964   5.394   1.299 -1.0656  1.3686 -3.9407
 7926SOL    HW331437   5.104   5.445   1.270  0.5595 -0.1808  0.3728
 7926SOL    MW431438   5.025   5.456   1.304 -0.2952  0.4424 -0.6547
 7927SOL     OW31439   1.517   4.733   3.789 -0.5104  0.0127 -0.0960
 7927SOL    HW231440   1.449   4.727   3.722 -0.4782 -1.5772 -0.0382
 7927SOL    HW331441   1.557   4.646   3.789  0.9995  0.6754  0.4211
 7927SOL    MW431442   1.513   4.721   3.780  0.1838  0.3969 -0.0678
 7928SOL     OW31443   1.210   3.592   2.429 -0.0252  0.2423 -0.2763
 7928SOL    HW231444   1.275   3.588   2.499 -0.1053 -1.8641 -0.2455
 7928SOL    HW331445   1.128   3.567   2.471 -0.1193 -0.8078 -1.0464
 7928SOL    MW431446   1.208   3.588   2.444 -0.2272  0.3447  0.1212
 7929SOL     OW31447   4.056   2.243   6.079  0.3840  0.3241  0.9672
 7929SOL    HW231448   4.050   2.301   6.155 -2.1200  2.6892 -0.8635
 7929SOL    HW331449   4.135   2.272   6.034 -0.7917  2.4279  0.1179
 7929SOL    MW431450   4.066   2.254   6.083  0.3074  0.6678 -0.4926
 7930SOL     OW31451   2.332   4.453   2.465  0.2635  0.0658 -0.2703
 7930SOL    HW231452   2.399   4.467   2.398 -0.3218 -0.0983 -0.9047
 7930SOL    HW331453   2.250   4.449   2.416  0.0023 -1.8684  0.2440
 7930SOL    MW431454   2.330   4.454   2.449 -0.4446  0.0352 -0.3999
 7931SOL     OW31455   2.884   1.359   4.291  0.5120 -0.0065  0.0473
 7931SOL    HW231456   2.790   1.376   4.291  0.3960 -0.6039 -0.1600
 7931SOL    HW331457   2.917   1.408   4.215 -0.0573 -1.8807 -1.5006
 7931SOL    MW431458   2.876   1.368   4.281 -0.4505  0.1285  0.6459
 7932SOL     OW31459   2.476   6.403   4.325 -0.4680  0.1256  0.4079
 7932SOL    HW231460   2.399   6.370   4.371  0.4376 -1.8573  0.6262
 7932SOL    HW331461   2.498   6.333   4.263  2.2384 -0.2709  1.6713
 7932SOL    MW431462   2.469   6.389   4.323 -0.2025  0.0929 -0.1110
 7933SOL     OW31463   4.493   0.717   4.383 -0.3148  0.2908 -0.0177
 7933SOL    HW231464   4.527   0.806   4.382 -1.4205  0.7224 -1.2079
 7933SOL    HW331465   4.455   0.706   4.470 -0.5313  1.1361 -0.0008
 7933SOL    MW431466   4.492   0.727   4.394 -0.1136 -0.1746  0.4661
 7934SOL     OW31467   5.015   2.380   4.307 -0.0453  0.0917  0.0560
 7934SOL    HW231468   4.947   2.313   4.312 -0.1414  0.1959  0.1158
 7934SOL    HW331469   4.988   2.436   4.235 -1.0238  1.2639  1.3026
 7934SOL    MW431470   5.003   2.378   4.298 -0.1993 -0.6675  0.0988
 7935SOL     OW31471   1.540   2.244   5.627  0.5411 -0.0566 -0.0819
 7935SOL    HW231472   1.583   2.299   5.693 -0.1831  1.6186 -0.9637
 7935SOL    HW331473   1.481   2.187   5.678 -0.4273  1.5929  0.7031
 7935SOL    MW431474   1.538   2.243   5.642  0.0699 -0.1624 -0.1280
 7936SOL     OW31475   2.212   4.856   5.302  0.4476 -0.0917  0.2911
 7936SOL    HW231476   2.200   4.945   5.268 -1.2164  0.4503  2.0988
 7936SOL    HW331477   2.275   4.865   5.373 -1.1074  0.0686  1.7335
 7936SOL    MW431478   2.218   4.869   5.307  0.1913 -0.4474  0.0761
 7937SOL     OW31479   0.716   4.940   4.394 -0.1352  0.5322  0.5647
 7937SOL    HW231480   0.791   4.893   4.431 -0.8227  1.2990  3.1455
 7937SOL    HW331481   0.743   5.031   4.392 -0.6621  0.6938  0.5897
 7937SOL    MW431482   0.729   4.946   4.398 -0.0482  0.5336 -0.2762
 7938SOL     OW31483   5.969   5.066   3.970 -0.2383  0.9470 -0.1548
 7938SOL    HW231484   5.951   5.014   3.892  0.3600  0.8924 -0.2591
 7938SOL    HW331485   5.977   5.156   3.937  1.9730  0.6762 -0.4640
 7938SOL    MW431486   5.967   5.071   3.955 -0.3919 -0.4037  0.0266
 7939SOL     OW31487   4.970   0.566   0.929 -0.1229  0.0100  0.1273
 7939SOL    HW231488   4.982   0.471   0.932  2.4675  0.1788 -1.6109
 7939SOL    HW331489   4.940   0.584   0.840 -0.7839  0.8221  0.5012
 7939SOL    MW431490   4.968   0.556   0.918 -0.0126 -0.0736 -1.0263
 7940SOL     OW31491   5.367   2.359   1.256  0.3004 -0.0169  0.1451
 7940SOL    HW231492   5.314   2.394   1.185 -0.3381 -1.4196 -0.0977
 7940SOL    HW331493   5.368   2.429   1.321 -1.2892  0.3184 -0.1412
 7940SOL    MW431494   5.360   2.373   1.255  0.5433  0.5392 -0.2933
 7941SOL     OW31495   3.971   4.694   4.693 -0.0630 -0.1852 -0.6369
 7941SOL    HW231496   4.016   4.756   4.751  0.6779 -0.2898 -1.0819
 7941SOL    HW331497   3.998   4.720   4.605 -0.4395 -0.6050 -0.8817
 7941SOL    MW431498   3.981   4.706   4.689  0.7584  0.7844  0.0133
 7942SOL     OW31499   2.604   5.771   4.938 -0.1335 -0.1671 -0.2107
 7942SOL    HW231500   2.593   5.859   4.902 -2.1581 -0.5753 -0.6970
 7942SOL    HW331501   2.619   5.786   5.032  0.3611  0.7057 -0.4115
 7942SOL    MW431502   2.604   5.785   4.946  0.2232  0.1593  0.2703
 7943SOL     OW31503   5.115   0.987   4.659  0.8427  0.3453  0.0951
 7943SOL    HW231504   5.186   0.959   4.601  0.1892  0.3091 -0.7074
 7943SOL    HW331505   5.060   1.044   4.604 -1.6537 -2.3374 -0.4189
 7943SOL    MW431506   5.117   0.991   4.644  0.2034  0.5345  0.1327
 7944SOL     OW31507   2.631   1.010   3.404 -0.0968  0.2417 -0.2152
 7944SOL    HW231508   2.701   0.979   3.461  1.1232  1.8639 -0.7466
 7944SOL    HW331509   2.567   0.939   3.403  2.1279 -1.9019 -0.7727
 7944SOL    MW431510   2.632   0.997   3.411 -0.1971  0.1463 -0.5571
 7945SOL     OW31511   0.050   0.586   2.122 -0.7411  0.1116  0.5855
 7945SOL    HW231512  -0.035   0.563   2.086 -0.2524 -2.6088  0.9518
 7945SOL    HW331513   0.030   0.632   2.203 -1.8329  1.0972 -0.2119
 7945SOL    MW431514   0.037   0.589   2.128 -0.5032  0.4525  0.4906
 7946SOL     OW31515   0.402   2.331   3.667  0.2525  0.2415  0.6152
 7946SOL    HW231516   0.444   2.367   3.589 -1.3440  0.7492 -0.0365
 7946SOL    HW331517   0.395   2.237   3.649  0.5027  0.2530  0.4488
 7946SOL    MW431518   0.407   2.323   3.654  0.7564 -0.4111  0.2144
 7947SOL     OW31519   3.155   2.083   6.103 -0.2309  0.1908 -0.2941
 7947SOL    HW231520   3.070   2.070   6.145 -1.4394  1.6496 -2.0840
 7947SOL    HW331521   3.175   2.175   6.120  0.4807  0.1209 -0.7427
 7947SOL    MW431522   3.146   2.094   6.111  0.0205  0.2245 -0.4233
 7948SOL     OW31523   5.969   3.593   1.065 -0.0308  0.0930 -0.4752
 7948SOL    HW231524   6.033   3.652   1.025 -0.1471 -0.2849 -1.2301
 7948SOL    HW331525   6.000   3.582   1.155 -0.4526  1.9550 -0.0489
 7948SOL    MW431526   5.981   3.600   1.072 -0.1952 -0.2957  0.0588
 7949SOL     OW31527   4.877   0.986   1.600  0.3041 -0.6767 -0.2077
 7949SOL    HW231528   4.825   1.041   1.541  1.2190 -1.0973 -1.4246
 7949SOL    HW331529   4.813   0.928   1.641 -0.7345  1.3481  1.2730
 7949SOL    MW431530   4.862   0.986   1.598 -0.2546  0.0606  0.1224
 7950SOL     OW31531   2.920   1.664   1.599 -0.1681  0.0833 -0.1397
 7950SOL    HW231532   2.958   1.740   1.556  0.1191 -0.1239 -0.2577
 7950SOL    HW331533   2.860   1.700   1.664 -2.1670  0.4061 -2.0484
 7950SOL    MW431534   2.917   1.679   1.602 -0.4461 -0.3558  0.1470
 7951SOL     OW31535   6.064   5.590   5.461  0.5567  0.0335 -0.2887
 7951SOL    HW231536   6.104   5.538   5.532 -0.1947  0.1732  0.2482
 7951SOL    HW331537   6.010   5.655   5.507 -1.6610 -1.2290 -0.9968
 7951SOL    MW431538   6.062   5.592   5.477 -0.7401 -0.0170 -0.4500
 7952SOL     OW31539   5.439   2.015   1.660 -0.1046 -0.1606  0.2665
 7952SOL    HW231540   5.426   1.976   1.574  0.9768  2.4556 -1.1851
 7952SOL    HW331541   5.413   1.946   1.722 -2.4845 -1.5566 -2.1051
 7952SOL    MW431542   5.434   2.001   1.657 -0.0120 -0.0343 -0.0514
 7953SOL     OW31543   2.940   0.524   3.699 -0.3384  0.3359  0.3385
 7953SOL    HW231544   2.944   0.581   3.776  0.6978 -0.4011  0.8628
 7953SOL    HW331545   2.883   0.570   3.638 -0.0829  1.6060  1.0114
 7953SOL    MW431546   2.933   0.538   3.702  0.6469  0.2436 -0.1356
 7954SOL     OW31547   3.889   5.937   4.032  0.0983  0.0979  0.0643
 7954SOL    HW231548   3.889   5.850   4.071 -2.1019  1.1732  2.9128
 7954SOL    HW331549   3.981   5.960   4.023  0.7358 -1.6119  1.5522
 7954SOL    MW431550   3.901   5.929   4.036  0.2780  0.0118 -0.0739
 7955SOL     OW31551   4.783   0.596   4.637  0.2109 -0.6464  0.4270
 7955SOL    HW231552   4.715   0.531   4.654 -0.0425 -0.8345 -1.1363
 7955SOL    HW331553   4.842   0.553   4.575 -0.2458  0.7540 -1.0439
 7955SOL    MW431554   4.782   0.582   4.631  0.2223 -0.2760 -0.6521
 7956SOL     OW31555   4.395   3.765   0.776  0.2068 -0.5892  0.2180
 7956SOL    HW231556   4.354   3.686   0.742 -2.2193  0.9137 -0.7161
 7956SOL    HW331557   4.444   3.801   0.702  3.0147 -2.1426  1.2047
 7956SOL    MW431558   4.396   3.760   0.762  0.9381  0.3391  0.1318
 7957SOL     OW31559   5.600   2.635   1.096 -0.0068 -0.3760 -0.2155
 7957SOL    HW231560   5.585   2.585   1.016 -0.2033  1.0941 -1.1403
 7957SOL    HW331561   5.617   2.724   1.065  3.5989 -0.4421  1.1151
 7957SOL    MW431562   5.601   2.640   1.081 -0.2874 -0.3544 -0.2163
 7958SOL     OW31563   3.597   5.465   2.391 -0.6808 -0.0759 -0.4272
 7958SOL    HW231564   3.536   5.514   2.336  0.1091 -1.3838 -2.6148
 7958SOL    HW331565   3.609   5.382   2.345  0.8801 -0.8195  1.1987
 7958SOL    MW431566   3.591   5.461   2.378  0.5495 -0.3752 -0.1269
 7959SOL     OW31567   3.401   0.263   6.324 -0.7039  0.3222  0.1658
 7959SOL    HW231568   3.430   0.218   6.245  0.9264  0.6475  0.5466
 7959SOL    HW331569   3.347   0.335   6.292 -0.0119  0.4830 -0.6607
 7959SOL    MW431570   3.397   0.267   6.310  0.4134  0.2549 -0.3420
 7960SOL     OW31571   3.841   1.014   2.923 -0.0503  0.1637 -0.4960
 7960SOL    HW231572   3.855   1.096   2.875 -2.2703  1.0631  0.3001
 7960SOL    HW331573   3.825   0.948   2.855 -0.7445  0.9252 -1.0804
 7960SOL    MW431574   3.841   1.016   2.908 -0.1033 -0.9533  0.1151
 7961SOL     OW31575   1.759   6.164   2.884  0.0613  0.1180  0.0543
 7961SOL    HW231576   1.741   6.081   2.926 -0.3696  0.3403  0.3149
 7961SOL    HW331577   1.684   6.219   2.906  0.5047  0.6832  0.1680
 7961SOL    MW431578   1.747   6.161   2.892  0.2672  0.5050  0.4851
 7962SOL     OW31579   1.347   1.416   5.985  0.2523  0.4569 -0.2535
 7962SOL    HW231580   1.360   1.357   6.059 -1.0844 -0.9920 -1.1163
 7962SOL    HW331581   1.282   1.373   5.930 -1.8598  3.3714 -0.2909
 7962SOL    MW431582   1.340   1.403   5.988  0.5746 -0.0075 -0.8711
 7963SOL     OW31583   1.926   2.933   1.500  0.2171 -0.8004  0.6588
 7963SOL    HW231584   1.982   2.931   1.423  0.1233 -6.3592  0.3878
 7963SOL    HW331585   1.977   2.892   1.570 -1.1898  0.2475  2.4211
 7963SOL    MW431586   1.940   2.928   1.499 -0.3016  0.0602 -0.7152
 7964SOL     OW31587   1.971   4.014   2.623 -0.3174 -0.9295  0.5907
 7964SOL    HW231588   1.921   4.020   2.542 -1.3408 -0.0458  1.2507
 7964SOL    HW331589   2.056   4.054   2.603 -0.3991 -1.1276 -0.1597
 7964SOL    MW431590   1.976   4.020   2.610  0.0191 -0.3239  0.2171
 7965SOL     OW31591   5.422   6.274   4.665  0.2954 -0.1368 -0.0034
 7965SOL    HW231592   5.514   6.252   4.673  0.6278  1.1758  0.0840
 7965SOL    HW331593   5.409   6.346   4.727 -0.1763  1.4123 -1.8086
 7965SOL    MW431594   5.432   6.281   4.674 -0.5995  0.3673 -0.0470
 7966SOL     OW31595   1.063   4.055   1.925  0.1591 -0.6737 -0.2707
 7966SOL    HW231596   0.978   4.097   1.940  0.3307  0.1287 -1.3515
 7966SOL    HW331597   1.042   3.969   1.889 -0.1959 -0.8780  0.4207
 7966SOL    MW431598   1.049   4.050   1.922  0.0601 -0.3794 -0.2206
 7967SOL     OW31599   5.880   0.346   5.582 -0.0461 -0.0526  0.2628
 7967SOL    HW231600   5.795   0.390   5.580 -1.1658 -2.0451  0.9554
 7967SOL    HW331601   5.893   0.323   5.675  0.8931 -0.4107  0.0523
 7967SOL    MW431602   5.871   0.349   5.594  0.8443 -0.0799  1.0192
 7968SOL     OW31603   1.133   0.638   3.553 -1.0759 -0.1017  0.0728
 7968SOL    HW231604   1.178   0.573   3.499  0.6220 -0.2507  1.5732
 7968SOL    HW331605   1.070   0.588   3.604 -1.1107 -0.2859 -0.1494
 7968SOL    MW431606   1.131   0.623   3.553 -0.2893  0.5632 -0.5002
 7969SOL     OW31607   0.845   4.244   2.335 -0.0929 -0.5160  0.1806
 7969SOL    HW231608   0.807   4.193   2.264 -0.3951 -1.9839  1.3652
 7969SOL    HW331609   0.928   4.202   2.354  0.4370  0.4466  0.0851
 7969SOL    MW431610   0.851   4.232   2.328  0.3340 -0.2367 -0.1153
 7970SOL     OW31611   3.326   0.694   2.027  0.1312 -0.7455  0.5230
 7970SOL    HW231612   3.327   0.744   2.109 -0.2752  0.3242 -0.1079
 7970SOL    HW331613   3.275   0.748   1.966  0.5447 -1.4540 -0.4800
 7970SOL    MW431614   3.320   0.708   2.030  0.0322  0.3927 -0.7887
 7971SOL     OW31615   2.537   3.533   5.165  0.3930  0.4957  0.9280
 7971SOL    HW231616   2.499   3.488   5.241  0.0028 -0.0318  0.4250
 7971SOL    HW331617   2.508   3.624   5.175 -1.9434 -0.0630  0.0178
 7971SOL    MW431618   2.528   3.539   5.176 -0.1897  0.3268  0.2143
 7972SOL     OW31619   2.377   5.088   3.974  0.0282 -0.3333  0.1970
 7972SOL    HW231620   2.384   5.094   4.069  0.6938  0.8262  0.0980
 7972SOL    HW331621   2.292   5.128   3.953 -0.2357 -0.8293  0.3246
 7972SOL    MW431622   2.367   5.094   3.984 -0.6435  0.3225  0.3570
 7973SOL     OW31623   3.832   3.487   4.873  0.2660  0.5582  0.0908
 7973SOL    HW231624   3.848   3.567   4.823 -2.3605  0.8596 -0.4107
 7973SOL    HW331625   3.820   3.517   4.963  0.7136  0.5519  0.1523
 7973SOL    MW431626   3.832   3.501   4.878  0.3515 -0.3721  0.0571
 7974SOL     OW31627   4.156   0.197   3.849  0.1427 -0.1650 -0.1583
 7974SOL    HW231628   4.146   0.267   3.913  0.1353 -0.5323  0.2408
 7974SOL    HW331629   4.073   0.149   3.853  0.6199 -0.9425  0.4551
 7974SOL    MW431630   4.144   0.200   3.858 -0.6945  0.1994  0.1141
 7975SOL     OW31631   4.872   1.669   4.579 -0.1742  0.1257 -0.6261
 7975SOL    HW231632   4.819   1.591   4.562 -1.1603  0.7845 -0.6067
 7975SOL    HW331633   4.868   1.681   4.674 -1.3641  1.1170 -0.7812
 7975SOL    MW431634   4.865   1.660   4.589 -0.0706 -0.1907 -0.0760
 7976SOL     OW31635   3.957   4.529   2.182 -0.5233 -0.0101  0.6022
 7976SOL    HW231636   3.898   4.554   2.111 -0.3220 -0.4855  0.2568
 7976SOL    HW331637   3.973   4.435   2.168 -0.5708 -0.1369  1.3427
 7976SOL    MW431638   3.952   4.520   2.171 -0.2477 -0.1665  0.2323
 7977SOL     OW31639   5.915   3.776   4.264  0.0430 -0.5248  0.1093
 7977SOL    HW231640   5.919   3.860   4.310 -1.0314 -0.4149  0.0264
 7977SOL    HW331641   5.849   3.726   4.312 -1.3315 -0.3029 -1.4515
 7977SOL    MW431642   5.907   3.780   4.276  0.4344  0.1762 -0.2849
 7978SOL     OW31643   0.213   3.042   2.881 -0.1134 -0.3961 -0.4552
 7978SOL    HW231644   0.263   2.964   2.858 -1.9118 -1.1654 -2.1050
 7978SOL    HW331645   0.127   3.008   2.907 -1.7873  1.0259 -3.5657
 7978SOL    MW431646   0.208   3.027   2.881 -0.4064  0.7049 -0.0955
 7979SOL     OW31647   1.243   5.168   5.469  0.2820  0.0233 -0.0434
 7979SOL    HW231648   1.153   5.187   5.444  0.5803 -0.6131 -1.7220
 7979SOL    HW331649   1.290   5.251   5.454 -0.0691  0.4565  1.1697
 7979SOL    MW431650   1.237   5.182   5.464 -0.2181 -0.6101 -0.6850
 7980SOL     OW31651   4.182   3.048   1.149 -0.2790  0.4458  0.5490
 7980SOL    HW231652   4.173   3.073   1.241  0.0402  0.0551  0.6893
 7980SOL    HW331653   4.172   2.952   1.149 -0.7686  0.4913  0.1126
 7980SOL    MW431654   4.180   3.038   1.161  0.0414 -0.2006  0.3022
 7981SOL     OW31655   4.176   5.700   2.334 -0.1093 -0.2107  0.2081
 7981SOL    HW231656   4.264   5.697   2.295  0.2224 -0.5433  0.9568
 7981SOL    HW331657   4.164   5.792   2.358  1.1204 -0.5805  2.4632
 7981SOL    MW431658   4.186   5.712   2.332 -0.1990  0.3410 -0.4537
 7982SOL     OW31659   0.414   5.422   5.256 -0.3271  0.0149 -0.1886
 7982SOL    HW231660   0.392   5.371   5.178  0.3738 -0.2804 -0.1949
 7982SOL    HW331661   0.384   5.368   5.329 -1.3697  0.4760 -0.2461
 7982SOL    MW431662   0.407   5.408   5.255 -0.0944 -0.0404  0.3983
 7983SOL     OW31663   4.880   1.848   0.679  0.1152  0.5653  0.1659
 7983SOL    HW231664   4.801   1.796   0.667 -2.0616  3.9275 -1.6397
 7983SOL    HW331665   4.851   1.928   0.723  3.4943  0.0543  3.9753
 7983SOL    MW431666   4.866   1.852   0.683  0.3353 -0.6234  0.0881
 7984SOL     OW31667   1.030   4.093   5.064  0.1089 -0.6298 -0.8080
 7984SOL    HW231668   1.016   4.188   5.057 -2.0923 -0.7493  0.8972
 7984SOL    HW331669   1.013   4.060   4.976 -2.4439  0.2551 -0.7155
 7984SOL    MW431670   1.026   4.102   5.052 -0.6646  0.3432 -0.1305
 7985SOL     OW31671   5.853   4.979   4.474 -0.3933 -0.9556 -0.2056
 7985SOL    HW231672   5.933   4.927   4.473 -0.1054 -0.7527  2.8224
 7985SOL    HW331673   5.873   5.056   4.422  1.1511 -1.2238 -0.0463
 7985SOL    MW431674   5.866   4.982   4.467  0.0964  0.4188 -0.2713
 7986SOL     OW31675   1.219   5.263   1.820 -0.2517 -0.1085 -0.5416
 7986SOL    HW231676   1.215   5.347   1.774 -2.3637  0.1210 -0.0796
 7986SOL    HW331677   1.312   5.246   1.832  0.2624  1.3635 -2.0878
 7986SOL    MW431678   1.231   5.272   1.816  0.6270 -0.0698 -0.4106
 7987SOL     OW31679   1.530   4.615   2.180 -0.2333 -0.4202 -0.4197
 7987SOL    HW231680   1.601   4.647   2.236 -1.4093  1.7350 -0.0707
 7987SOL    HW331681   1.575   4.563   2.113  1.4925 -0.5914  0.7912
 7987SOL    MW431682   1.545   4.612   2.178  0.3860  0.4764  0.1922
 7988SOL     OW31683   3.568   2.142   6.179  0.0098  0.5264  0.1980
 7988SOL    HW231684   3.608   2.193   6.109  1.6081 -1.5079 -0.4665
 7988SOL    HW331685   3.533   2.064   6.135  0.0304 -0.2526  1.5121
 7988SOL    MW431686   3.568   2.139   6.164 -0.1724 -0.4158 -0.2240
 7989SOL     OW31687   0.648   2.167   5.677  0.3406  0.1845  0.3946
 7989SOL    HW231688   0.562   2.193   5.643 -0.1282 -1.6951  0.0220
 7989SOL    HW331689   0.648   2.071   5.670  2.3933  0.1366  0.5923
 7989SOL    MW431690   0.637   2.158   5.671  0.4921 -0.2358 -0.0893
 7990SOL     OW31691   0.829   6.129   2.072 -0.2069 -0.2701 -0.3212
 7990SOL    HW231692   0.875   6.051   2.102 -0.2486 -0.8386 -1.6405
 7990SOL    HW331693   0.890   6.201   2.088  0.4466 -0.7814 -0.4510
 7990SOL    MW431694   0.843   6.128   2.078  0.0679 -0.3136 -0.3687
 7991SOL     OW31695   1.077   4.559   1.476  0.1724 -0.3594 -0.7092
 7991SOL    HW231696   1.007   4.561   1.540  2.2842  0.0498  1.7608
 7991SOL    HW331697   1.083   4.649   1.443  0.2038 -0.1639 -0.1657
 7991SOL    MW431698   1.069   4.571   1.480  0.1144 -0.3391 -0.2991
 7992SOL     OW31699   1.436   6.038   4.498  0.1858 -0.0024 -0.1823
 7992SOL    HW231700   1.350   6.042   4.540  0.2747  0.4054 -0.0379
 7992SOL    HW331701   1.467   6.128   4.498  0.8144 -0.2109  0.1816
 7992SOL    MW431702   1.428   6.050   4.504  0.1179  0.1721 -0.0300
 7993SOL     OW31703   1.204   0.360   3.985 -0.5991  0.2012  0.4783
 7993SOL    HW231704   1.231   0.278   4.026 -0.8343 -1.2900 -2.1460
 7993SOL    HW331705   1.282   0.392   3.941 -1.0191  0.2770 -0.2310
 7993SOL    MW431706   1.218   0.354   3.985  0.2550 -0.0144 -0.1727
 7994SOL     OW31707   5.656   3.406   6.346 -0.0027  0.0968  0.2731
 7994SOL    HW231708   5.657   3.497   6.376 -4.3417  0.5836 -0.2917
 7994SOL    HW331709   5.652   3.354   6.427 -0.7876  0.6681  0.6118
 7994SOL    MW431710   5.655   3.411   6.361  0.0677  0.1021  0.4876
 7995SOL     OW31711   4.201   1.817   2.438  0.2078  0.0639 -0.3107
 7995SOL    HW231712   4.211   1.812   2.534 -1.5942  0.1525 -0.0995
 7995SOL    HW331713   4.201   1.911   2.419 -0.5691  0.0732 -0.2655
 7995SOL    MW431714   4.203   1.829   2.448 -0.2180  0.4536  0.0482
 7996SOL     OW31715   3.556   3.304   5.070 -0.1457 -0.6835  0.7641
 7996SOL    HW231716   3.533   3.394   5.090  0.1964 -0.3722 -0.2231
 7996SOL    HW331717   3.472   3.260   5.054 -0.1979  0.4937 -3.0336
 7996SOL    MW431718   3.542   3.310   5.071  0.2567  0.0083  0.1899
 7997SOL     OW31719   2.054   5.609   0.537  0.0377 -0.1317 -0.1230
 7997SOL    HW231720   2.052   5.549   0.462  0.0777  0.1539 -0.3532
 7997SOL    HW331721   2.048   5.696   0.498  2.1691  0.1402  0.0410
 7997SOL    MW431722   2.053   5.613   0.522  0.1572  0.8079  0.3023
 7998SOL     OW31723   0.140   0.947   2.842  0.0571 -0.4648 -0.2992
 7998SOL    HW231724   0.082   1.020   2.821  0.1148 -0.5134 -0.6345
 7998SOL    HW331725   0.088   0.892   2.900  0.4603  0.4766  0.9944
 7998SOL    MW431726   0.125   0.949   2.847  0.2048  0.7353 -0.4795
 7999SOL     OW31727   2.072   4.653   3.172  0.0986  0.3304 -0.1543
 7999SOL    HW231728   2.045   4.621   3.258 -0.1811  1.2440  0.1201
 7999SOL    HW331729   2.001   4.627   3.113 -1.0574  1.9835  0.4061
 7999SOL    MW431730   2.059   4.646   3.175  0.2887  0.0352  0.2093
 8000SOL     OW31731   1.514   2.594   4.045 -0.0585  0.1695 -0.0448
 8000SOL    HW231732   1.528   2.604   3.951 -0.8827  1.1284 -0.0786
 8000SOL    HW331733   1.555   2.509   4.066  0.2213 -0.0138 -1.2346
 8000SOL    MW431734   1.521   2.584   4.036 -0.1268  0.0379  0.2174
 8001SOL     OW31735   2.524   1.720   3.495 -0.2640  0.8935  1.0516
 8001SOL    HW231736   2.457   1.766   3.444 -0.3635 -1.0193 -0.6929
 8001SOL    HW331737   2.474   1.665   3.555 -0.3937 -1.1152 -0.7757
 8001SOL    MW431738   2.509   1.719   3.496 -0.4546  0.0915 -0.6226
 8002SOL     OW31739   3.424   5.282   3.844 -0.1779 -0.0140 -0.4311
 8002SOL    HW231740   3.366   5.276   3.920  0.3987  1.6098  0.1643
 8002SOL    HW331741   3.447   5.191   3.826 -1.2737 -0.5327  0.5779
 8002SOL    MW431742   3.419   5.269   3.851  0.5712  0.0300  0.3558
 8003SOL     OW31743   1.709   5.019   0.651 -0.0777 -0.0377  0.3712
 8003SOL    HW231744   1.625   5.031   0.607 -0.8718 -0.8585  1.6377
 8003SOL    HW331745   1.773   5.048   0.586 -1.2037 -1.2435 -1.3725
 8003SOL    MW431746   1.707   5.024   0.636  0.1935 -0.3121  0.8090
 8004SOL     OW31747   3.687   5.809   5.498 -0.2718 -0.1913  0.3367
 8004SOL    HW231748   3.729   5.890   5.526  0.0324  0.1081 -0.9336
 8004SOL    HW331749   3.757   5.744   5.498 -0.0723  0.0074 -0.5122
 8004SOL    MW431750   3.702   5.811   5.502 -0.5037  0.3179  0.2284
 8005SOL     OW31751   5.757   5.733   2.924 -0.6107  0.1485  0.1314
 8005SOL    HW231752   5.747   5.819   2.882 -2.0482  0.0087  0.1580
 8005SOL    HW331753   5.730   5.670   2.857  0.9266 -0.3551 -0.0679
 8005SOL    MW431754   5.752   5.736   2.910 -0.3169 -0.1170 -0.3982
 8006SOL     OW31755   3.637   1.865   3.625  0.1905  0.2530  0.7240
 8006SOL    HW231756   3.544   1.868   3.650 -0.5487  1.7719 -1.8317
 8006SOL    HW331757   3.683   1.849   3.707 -2.4142 -3.0916  1.7832
 8006SOL    MW431758   3.631   1.863   3.639 -0.4569  0.0603  0.9401
 8007SOL     OW31759   4.650   5.772   2.812  0.2944  0.3316  0.2541
 8007SOL    HW231760   4.625   5.709   2.745  1.8926  0.6292 -0.6781
 8007SOL    HW331761   4.585   5.842   2.805 -0.6559 -0.5346  0.3306
 8007SOL    MW431762   4.638   5.773   2.803  0.4145  0.1527  0.2328
 8008SOL     OW31763   2.051   1.261   5.023 -0.3165 -0.0646  0.0759
 8008SOL    HW231764   1.997   1.183   5.011 -0.2534 -0.1713  0.4907
 8008SOL    HW331765   2.135   1.228   5.054 -1.0500  0.3027  2.6969
 8008SOL    MW431766   2.055   1.246   5.025  0.0868  0.2007 -0.8713
 8009SOL     OW31767   0.713   0.760   4.608 -0.2288 -0.6864  0.0276
 8009SOL    HW231768   0.704   0.689   4.544  0.2735 -0.2461 -0.5337
 8009SOL    HW331769   0.802   0.793   4.595 -0.3727 -0.1172  0.4645
 8009SOL    MW431770   0.724   0.755   4.598  0.0581 -0.1148  0.1987
 8010SOL     OW31771   3.390   0.655   5.337 -0.5810  0.0746 -0.2383
 8010SOL    HW231772   3.376   0.614   5.423 -0.0372  0.2957 -0.0337
 8010SOL    HW331773   3.401   0.581   5.277 -0.0013 -0.0952  0.0603
 8010SOL    MW431774   3.390   0.640   5.341 -0.4118 -0.1511 -0.8297
 8011SOL     OW31775   1.145   3.177   4.011  0.3703 -0.3088  0.4893
 8011SOL    HW231776   1.149   3.251   3.950 -0.5548 -0.0131  0.7649
 8011SOL    HW331777   1.203   3.203   4.083  1.2384 -0.5334 -0.1065
 8011SOL    MW431778   1.153   3.190   4.012  0.4172  0.2595  0.6970
 8012SOL     OW31779   1.112   0.289   2.963 -0.5977  0.1212  0.6516
 8012SOL    HW231780   1.106   0.296   2.868  0.2078 -1.7119  0.4219
 8012SOL    HW331781   1.185   0.228   2.978 -1.4861 -0.5935  2.3836
 8012SOL    MW431782   1.120   0.282   2.953  0.5343 -0.2848 -0.3421
 8013SOL     OW31783   3.248   5.926   2.263 -0.3865  0.4118  0.0200
 8013SOL    HW231784   3.178   5.887   2.210 -0.9951 -0.1660  1.2203
 8013SOL    HW331785   3.209   6.006   2.298 -0.3362  0.2563  0.4301
 8013SOL    MW431786   3.234   5.931   2.261  0.0151  0.6077  0.1264
 8014SOL     OW31787   1.970   0.210   1.190  0.5356 -0.2420  0.8360
 8014SOL    HW231788   2.036   0.140   1.192  0.1753 -0.6576 -0.5234
 8014SOL    HW331789   1.919   0.193   1.111 -1.2472  0.0624  1.8582
 8014SOL    MW431790   1.972   0.199   1.180  0.3060  0.2195 -0.0404
 8015SOL     OW31791   4.529   2.122   1.900 -0.0055  0.3903 -0.4414
 8015SOL    HW231792   4.541   2.096   1.991 -0.4474  0.2711 -0.4161
 8015SOL    HW331793   4.591   2.193   1.887 -1.4252  1.8768  0.5644
 8015SOL    MW431794   4.539   2.128   1.910  0.3834 -0.0589 -0.5588
 8016SOL     OW31795   5.170   1.343   5.494  0.0540 -0.2540  0.6188
 8016SOL    HW231796   5.129   1.257   5.505 -0.0992 -0.2768 -0.0838
 8016SOL    HW331797   5.261   1.324   5.472  0.8812 -0.1979  3.5610
 8016SOL    MW431798   5.177   1.329   5.492  0.1288  0.2342  0.3954
 8017SOL     OW31799   1.381   4.578   2.655 -0.0871 -0.3441 -0.5239
 8017SOL    HW231800   1.377   4.512   2.724 -1.6335  0.6977  0.4462
 8017SOL    HW331801   1.306   4.560   2.600 -0.3044  0.3529 -0.4681
 8017SOL    MW431802   1.371   4.567   2.657  0.4888  0.3827  0.2534
 8018SOL     OW31803   4.625   0.194   1.356 -0.5208  0.1565  0.0028
 8018SOL    HW231804   4.541   0.180   1.401 -0.6726 -1.2334 -0.6500
 8018SOL    HW331805   4.690   0.155   1.414 -0.7269 -1.7259 -0.9233
 8018SOL    MW431806   4.622   0.187   1.370 -0.3025 -0.0747 -0.4410
 8019SOL     OW31807   3.402   5.251   5.308 -0.3428  0.1109  0.0812
 8019SOL    HW231808   3.344   5.243   5.232  2.7889 -0.4158 -2.4469
 8019SOL    HW331809   3.447   5.335   5.295  1.7102 -0.9115  0.1629
 8019SOL    MW431810   3.400   5.261   5.296  0.2244 -0.3677  0.0013
 8020SOL     OW31811   3.197   4.830   1.386 -0.2475 -0.3535  0.4296
 8020SOL    HW231812   3.187   4.747   1.432  1.8540  0.5919  2.7837
 8020SOL    HW331813   3.190   4.896   1.454  0.7354  1.2708 -0.9664
 8020SOL    MW431814   3.194   4.828   1.401 -0.2936  0.0435  0.8006
 8021SOL     OW31815   2.973   2.623   4.317 -0.5508  0.0523  0.3399
 8021SOL    HW231816   2.928   2.561   4.375  1.6076 -2.6307 -0.5938
 8021SOL    HW331817   2.948   2.597   4.229 -0.1649  1.0113 -0.0700
 8021SOL    MW431818   2.964   2.611   4.313 -0.1027 -0.1611 -0.2130
 8022SOL     OW31819   5.457   1.021   4.294 -0.6313 -0.1620  0.2053
 8022SOL    HW231820   5.429   0.978   4.375 -0.3814  0.3831  0.5964
 8022SOL    HW331821   5.442   1.114   4.311 -0.2274 -0.0134 -0.2311
 8022SOL    MW431822   5.451   1.028   4.307  0.2234  0.5548 -0.2985
 8023SOL     OW31823   4.612   2.036   5.900 -0.2464 -0.3504 -0.4649
 8023SOL    HW231824   4.573   2.039   5.987 -0.8384 -0.7051 -0.7116
 8023SOL    HW331825   4.690   2.091   5.907 -0.4837 -0.0832  0.1872
 8023SOL    MW431826   4.617   2.044   5.913 -0.1990 -0.5509 -0.5904
 8024SOL     OW31827   0.532   2.576   1.365  0.0770 -0.7185  0.5007
 8024SOL    HW231828   0.439   2.553   1.365 -0.0559 -0.2521  1.6262
 8024SOL    HW331829   0.572   2.513   1.424  0.7933 -1.9857 -1.2495
 8024SOL    MW431830   0.525   2.565   1.373 -0.5402 -0.0140 -0.1433
 8025SOL     OW31831   6.427   1.499   1.771 -0.1411 -0.1928 -0.4320
 8025SOL    HW231832   6.492   1.436   1.802 -0.8628 -0.2140  1.1546
 8025SOL    HW331833   6.370   1.513   1.847 -0.3765  1.8971 -0.9549
 8025SOL    MW431834   6.428   1.492   1.785 -0.0086 -0.8407  0.4146
 8026SOL     OW31835   4.388   4.782   0.258  0.1725 -0.0572  0.1478
 8026SOL    HW231836   4.418   4.869   0.231  0.7393  0.2863  1.8041
 8026SOL    HW331837   4.293   4.789   0.257  0.1616  0.0421 -1.3332
 8026SOL    MW431838   4.379   4.795   0.254 -0.4253 -0.1096  0.1077
 8027SOL     OW31839   6.128   3.977   4.137 -0.4769 -0.2779 -0.4126
 8027SOL    HW231840   6.209   3.965   4.087  0.1310 -0.6366  0.6152
 8027SOL    HW331841   6.136   4.065   4.173 -0.3541 -0.4532 -0.0017
 8027SOL    MW431842   6.140   3.987   4.135  0.5187 -0.3719  0.1708
 8028SOL     OW31843   4.943   1.102   2.921  0.0279  0.4579 -0.0335
 8028SOL    HW231844   4.956   1.190   2.955  0.6904  0.9310 -1.4309
 8028SOL    HW331845   4.855   1.103   2.884 -0.9946 -0.2764  2.1611
 8028SOL    MW431846   4.933   1.113   2.921 -0.0879  0.0975 -0.3336
 8029SOL     OW31847   0.024   4.316   1.522 -0.6157 -0.1102  0.1246
 8029SOL    HW231848   0.044   4.272   1.439  1.5290 -0.6406  0.8482
 8029SOL    HW331849  -0.062   4.356   1.508 -0.9944 -1.4560 -1.8173
 8029SOL    MW431850   0.015   4.315   1.509 -0.7239 -0.0089 -0.0023
 8030SOL     OW31851   5.944   3.916   1.364  0.2497  0.3956 -0.6315
 8030SOL    HW231852   5.984   3.835   1.397 -1.7388 -0.7846 -0.9676
 8030SOL    HW331853   5.863   3.888   1.323 -1.2893  2.7450  0.6048
 8030SOL    MW431854   5.939   3.901   1.363 -1.1080 -0.1732 -0.3847
 8031SOL     OW31855   4.605   5.353   1.668  0.2956  0.4027 -0.8212
 8031SOL    HW231856   4.635   5.324   1.581  1.5120  0.4439 -0.4267
 8031SOL    HW331857   4.548   5.428   1.650  0.9681  0.7463 -1.5494
 8031SOL    MW431858   4.601   5.359   1.654  0.2435 -0.0134 -0.0776
 8032SOL     OW31859   5.674   4.543   5.381  0.1301 -0.3555 -0.0486
 8032SOL    HW231860   5.692   4.553   5.288  0.7419 -0.9781 -0.0077
 8032SOL    HW331861   5.624   4.462   5.387  0.7284 -0.7136  0.2262
 8032SOL    MW431862   5.670   4.534   5.370  0.2106  0.3609  0.0691
 8033SOL     OW31863   0.594   0.977   4.483  0.3163  0.4387 -0.2328
 8033SOL    HW231864   0.619   0.901   4.536 -1.1668  1.1358  1.5939
 8033SOL    HW331865   0.678   1.013   4.453  1.0783 -1.4459 -0.5107
 8033SOL    MW431866   0.609   0.972   4.486  0.2258  0.4054 -0.2269
 8034SOL     OW31867   1.462   3.140   4.420 -0.2894  0.3880  0.4489
 8034SOL    HW231868   1.400   3.130   4.493 -0.2949  1.6353  0.6357
 8034SOL    HW331869   1.536   3.083   4.443  0.2230  1.6218  2.0140
 8034SOL    MW431870   1.463   3.131   4.432 -0.1530 -0.1177 -0.1437
 8035SOL     OW31871   1.551   0.558   5.289 -0.4250  0.7545  0.0127
 8035SOL    HW231872   1.551   0.582   5.382 -0.7262  0.7014  0.0263
 8035SOL    HW331873   1.471   0.595   5.254 -2.6820 -2.9081  0.7486
 8035SOL    MW431874   1.541   0.566   5.297 -0.2840 -0.6575  0.5157
 8036SOL     OW31875   4.799   1.824   0.387  0.5524  0.1629  0.2433
 8036SOL    HW231876   4.710   1.787   0.383 -0.2897  2.1675 -1.1466
 8036SOL    HW331877   4.815   1.836   0.481  0.7851 -3.2781  0.7838
 8036SOL    MW431878   4.789   1.821   0.399  0.0652  0.1674 -0.1665
 8037SOL     OW31879   3.583   4.831   5.487  0.7557  0.5528  0.5376
 8037SOL    HW231880   3.527   4.887   5.433  0.0267  0.0340  0.7351
 8037SOL    HW331881   3.582   4.873   5.573 -0.3927 -0.1303  0.8857
 8037SOL    MW431882   3.575   4.844   5.491 -0.0787  0.0941  0.4029
 8038SOL     OW31883   2.164   5.652   0.790 -0.3750 -0.0108  0.0621
 8038SOL    HW231884   2.223   5.577   0.804  0.7885  0.9542  0.4926
 8038SOL    HW331885   2.122   5.634   0.706  0.1872 -0.9515 -0.0334
 8038SOL    MW431886   2.166   5.640   0.781  0.3508  0.0817  0.0946
 8039SOL     OW31887   2.141   2.305   5.584  0.2083 -0.5861  0.0134
 8039SOL    HW231888   2.153   2.400   5.579  0.7019 -0.6910 -1.1303
 8039SOL    HW331889   2.106   2.290   5.671  2.7599  0.3704  1.3240
 8039SOL    MW431890   2.138   2.316   5.594  0.5027  0.2476 -0.0984
 8040SOL     OW31891   2.475   2.000   5.034  0.5158 -0.0434 -0.1240
 8040SOL    HW231892   2.553   1.944   5.035  1.4669  1.2133  1.2679
 8040SOL    HW331893   2.495   2.069   5.098 -0.5929  1.8753 -1.7525
 8040SOL    MW431894   2.488   2.002   5.043 -0.2163  0.5751 -0.3684
 8041SOL     OW31895   4.120   6.329   5.940  0.0013  0.0740 -0.2874
 8041SOL    HW231896   4.182   6.391   5.977  0.1343 -0.5828  0.6348
 8041SOL    HW331897   4.046   6.329   6.001 -1.0122  0.9750 -1.4604
 8041SOL    MW431898   4.118   6.337   5.953 -0.1580 -0.0327 -0.3262
 8042SOL     OW31899   5.728   5.428   1.222  0.1381  0.2814 -0.0083
 8042SOL    HW231900   5.762   5.339   1.234  0.2063  0.3868  0.6388
 8042SOL    HW331901   5.642   5.427   1.263 -0.5666  0.0813 -1.4371
 8042SOL    MW431902   5.721   5.416   1.229 -0.5424  0.6689  0.3518
 8043SOL     OW31903   5.935   0.982   6.115 -0.3510 -0.0227 -0.1189
 8043SOL    HW231904   5.905   1.009   6.028  1.1088  0.4106 -0.5201
 8043SOL    HW331905   5.883   1.035   6.175 -1.3644 -0.3074 -0.7099
 8043SOL    MW431906   5.924   0.993   6.111  0.2691 -0.0485  0.0315
 8044SOL     OW31907   5.729   0.985   1.276  0.2031 -0.1216 -0.0107
 8044SOL    HW231908   5.768   0.902   1.304 -1.1590 -1.4617 -1.8395
 8044SOL    HW331909   5.635   0.968   1.274  0.0719  0.2400 -3.8194
 8044SOL    MW431910   5.722   0.972   1.280  0.6299  0.3868  0.2305
 8045SOL     OW31911   0.039   1.981   4.880  0.0097 -0.2377 -0.1341
 8045SOL    HW231912   0.103   1.932   4.829 -0.5974 -1.3235  0.0986
 8045SOL    HW331913   0.049   1.948   4.969  1.8816  2.4829  0.7714
 8045SOL    MW431914   0.049   1.970   4.885 -0.0156  0.5012  1.6436
 8046SOL     OW31915   2.006   0.874   2.735 -0.2865 -0.2435 -0.0095
 8046SOL    HW231916   2.101   0.862   2.735  0.0470  1.4636 -2.9162
 8046SOL    HW331917   1.978   0.833   2.653 -2.2428 -1.5663  1.2530
 8046SOL    MW431918   2.015   0.867   2.724  0.1606  0.2674 -0.2099
 8047SOL     OW31919   4.630   3.048   4.392 -0.0159 -0.8728 -0.3999
 8047SOL    HW231920   4.537   3.028   4.405  0.1986 -1.7820 -0.2075
 8047SOL    HW331921   4.654   3.000   4.313  0.3228 -0.7413 -0.3779
 8047SOL    MW431922   4.621   3.039   4.384 -0.2660  0.8109 -0.0459
 8048SOL     OW31923   1.287   3.983   2.971 -0.3234  0.6844 -0.5396
 8048SOL    HW231924   1.340   4.059   2.995 -1.0188  0.1629  3.2644
 8048SOL    HW331925   1.198   4.006   2.999 -0.5234 -1.5027  0.9206
 8048SOL    MW431926   1.282   3.996   2.978  0.5279  0.0675  0.0764
 8049SOL     OW31927   0.863   5.088   5.767 -0.4266  0.5744  0.1799
 8049SOL    HW231928   0.885   5.064   5.677 -0.5373  0.4143  0.1952
 8049SOL    HW331929   0.811   5.168   5.758 -0.0424  0.8199  0.1293
 8049SOL    MW431930   0.859   5.095   5.754  0.2332 -0.1936  0.3283
 8050SOL     OW31931   0.338   0.652   4.346  0.8173  0.1674  0.4130
 8050SOL    HW231932   0.255   0.676   4.388  0.1785 -2.1678  0.6389
 8050SOL    HW331933   0.312   0.624   4.258  1.3571 -0.6373  0.5053
 8050SOL    MW431934   0.323   0.652   4.340 -0.1859 -0.5111 -0.4582
 8051SOL     OW31935   0.976   3.660   3.003 -0.1738 -0.2092  0.1815
 8051SOL    HW231936   0.951   3.571   3.026  0.0452 -0.4315 -0.4245
 8051SOL    HW331937   1.060   3.674   3.046 -0.1878 -0.3085  0.2408
 8051SOL    MW431938   0.984   3.650   3.012  0.1923  0.2244 -0.2298
 8052SOL     OW31939   2.389   3.999   1.347  0.3055 -0.3812  0.1926
 8052SOL    HW231940   2.394   4.048   1.428  0.7281 -1.2659  0.7156
 8052SOL    HW331941   2.470   4.020   1.300 -0.6203  1.3475 -0.7478
 8052SOL    MW431942   2.400   4.008   1.351  0.1792  0.5403 -0.3800
 8053SOL     OW31943   2.985   0.375   4.827  0.1245  0.5892  0.1158
 8053SOL    HW231944   2.943   0.328   4.755  1.7775  1.3826 -1.4363
 8053SOL    HW331945   2.914   0.422   4.870 -1.0783 -0.8368 -0.2293
 8053SOL    MW431946   2.970   0.375   4.824  0.0992 -0.5125 -0.4662
 8054SOL     OW31947   1.397   1.661   3.379  0.2012 -0.6006  0.3927
 8054SOL    HW231948   1.447   1.734   3.342 -1.1086  0.0102 -0.2463
 8054SOL    HW331949   1.428   1.654   3.469  0.3230  0.7943  0.4855
 8054SOL    MW431950   1.408   1.669   3.386 -0.4838 -0.7687 -0.2802
 8055SOL     OW31951   4.744   5.792   4.141 -0.3203 -0.0318  0.3089
 8055SOL    HW231952   4.801   5.853   4.095 -1.1380  0.4911 -0.0202
 8055SOL    HW331953   4.713   5.732   4.073  0.7672 -1.0769  0.6863
 8055SOL    MW431954   4.748   5.792   4.126 -0.5264 -0.1256 -0.8162
 8056SOL     OW31955   4.672   2.761   1.053 -0.1736  0.3538 -0.2092
 8056SOL    HW231956   4.620   2.732   0.978 -1.3819  1.0903  0.3118
 8056SOL    HW331957   4.629   2.721   1.129  0.8334 -0.1094  0.1314
 8056SOL    MW431958   4.659   2.752   1.053 -0.7871 -0.3382  0.7124
 8057SOL     OW31959   2.239   2.721   2.326  0.2468  0.3396 -0.0225
 8057SOL    HW231960   2.243   2.655   2.395  0.2393 -0.7585 -1.0223
 8057SOL    HW331961   2.161   2.772   2.346  0.3321  0.1349  0.8586
 8057SOL    MW431962   2.229   2.719   2.338 -0.5339  0.3733 -0.8533
 8058SOL     OW31963   1.263   2.850   6.184  0.2706 -0.4093  0.1648
 8058SOL    HW231964   1.316   2.772   6.168 -0.0052 -0.5076 -0.2702
 8058SOL    HW331965   1.307   2.893   6.258  0.9464 -0.4989 -0.1734
 8058SOL    MW431966   1.276   2.845   6.192 -1.1384 -0.3235  0.2653
 8059SOL     OW31967   5.812   5.867   0.780  0.1917 -0.2337 -0.0177
 8059SOL    HW231968   5.864   5.903   0.852  0.0156  1.2405 -0.5808
 8059SOL    HW331969   5.749   5.809   0.822 -0.6317  1.4359  1.1695
 8059SOL    MW431970   5.810   5.864   0.795 -0.1117 -0.6011  0.2179
 8060SOL     OW31971   4.070   2.910   1.886  1.3605 -0.2651 -0.0201
 8060SOL    HW231972   3.990   2.880   1.930  0.9391 -0.5041 -0.9153
 8060SOL    HW331973   4.087   2.997   1.922 -0.4303  0.6342 -1.2102
 8060SOL    MW431974   4.062   2.917   1.897  0.1710  0.1330 -0.3633
 8061SOL     OW31975   2.042   5.363   6.371 -0.0273  0.1401 -0.3503
 8061SOL    HW231976   1.949   5.363   6.394 -0.3575  1.2104 -1.5299
 8061SOL    HW331977   2.051   5.435   6.309  1.4215 -0.5014 -0.9382
 8061SOL    MW431978   2.031   5.372   6.366 -0.6681  0.0483  0.3923
 8062SOL     OW31979   1.503   3.407   3.534  0.3113 -0.6197  0.0589
 8062SOL    HW231980   1.508   3.367   3.447  0.8978  1.0249 -0.6869
 8062SOL    HW331981   1.531   3.337   3.594  3.3173 -0.7972 -1.3725
 8062SOL    MW431982   1.507   3.392   3.531  0.3675 -0.2038 -0.1268
 8063SOL     OW31983   3.723   5.271   3.686 -0.3580 -0.3524 -0.2739
 8063SOL    HW231984   3.700   5.189   3.729  1.8017 -0.5163  0.6750
 8063SOL    HW331985   3.804   5.252   3.639 -1.0480  0.6489 -2.0105
 8063SOL    MW431986   3.731   5.258   3.685 -0.8281  0.1472  0.2480
 8064SOL     OW31987   3.067   3.982   2.006 -0.0426  0.0984 -0.0073
 8064SOL    HW231988   3.093   3.929   1.930 -1.0989  1.0334 -1.0676
 8064SOL    HW331989   3.138   4.045   2.017 -0.5754  0.9579 -1.2301
 8064SOL    MW431990   3.079   3.983   1.997  0.2361 -0.0502  0.2388
 8065SOL     OW31991   5.571   4.870   1.688 -0.2648 -0.0581 -0.0838
 8065SOL    HW231992   5.640   4.894   1.625  0.3337  2.2160  1.3360
 8065SOL    HW331993   5.490   4.896   1.646 -0.3785 -2.7577 -1.7757
 8065SOL    MW431994   5.570   4.876   1.674  0.5504  0.2866 -0.5276
 8066SOL     OW31995   2.961   4.759   2.696 -0.6468 -0.2481 -0.1962
 8066SOL    HW231996   3.026   4.735   2.762 -0.4361 -0.1807 -0.3786
 8066SOL    HW331997   3.013   4.789   2.621 -0.8933  0.1204 -0.2231
 8066SOL    MW431998   2.977   4.760   2.695 -0.1487  0.2453 -0.6391
 8067SOL     OW31999   2.775   2.807   0.257  0.4241 -0.2128  0.1090
 8067SOL    HW232000   2.806   2.858   0.332  1.0659  1.1714 -1.0609
 8067SOL    HW332001   2.853   2.789   0.206 -0.1647  0.0049 -0.8985
 8067SOL    MW432002   2.789   2.812   0.260  0.4964  0.1373  0.2113
 8068SOL     OW32003   3.839   6.132   2.315 -0.0622  0.2008  0.1356
 8068SOL    HW232004   3.756   6.168   2.346  0.7428  0.7122  1.8743
 8068SOL    HW332005   3.829   6.037   2.324 -0.7634  0.2064 -0.5250
 8068SOL    MW432006   3.827   6.124   2.321 -0.4055 -0.7374  0.1024
 8069SOL     OW32007   6.200   4.908   0.671 -0.0133 -0.0738 -0.1094
 8069SOL    HW232008   6.283   4.861   0.670  0.4951  0.7944 -1.4490
 8069SOL    HW332009   6.215   4.984   0.615 -1.1287  1.1343  1.1754
 8069SOL    MW432010   6.213   4.912   0.663  0.0229 -0.1255 -0.0026
 8070SOL     OW32011   0.170   0.309   0.529 -0.0234  0.5516  0.3405
 8070SOL    HW232012   0.266   0.314   0.530  0.0048  0.9552 -1.3692
 8070SOL    HW332013   0.151   0.250   0.456 -1.1027  2.3064 -0.8706
 8070SOL    MW432014   0.180   0.302   0.519  0.2175  0.3174  0.3267
 8071SOL     OW32015   2.657   5.447   4.002 -0.2879 -0.4239  0.0304
 8071SOL    HW232016   2.730   5.468   3.943 -1.8673  0.3527 -1.7534
 8071SOL    HW332017   2.664   5.353   4.018  1.4826 -0.2475  0.4762
 8071SOL    MW432018   2.668   5.438   3.996  0.6171  0.1396 -0.3655
 8072SOL     OW32019   4.619   2.168   0.975  0.3430 -0.4107  0.4150
 8072SOL    HW232020   4.624   2.110   1.051  0.0114 -0.8726  0.0933
 8072SOL    HW332021   4.628   2.256   1.011  0.6627 -0.6523  0.9345
 8072SOL    MW432022   4.621   2.172   0.989 -0.0306 -0.0455 -0.4269
 8073SOL     OW32023   4.281   3.806   2.436  0.2440 -0.1432  0.1026
 8073SOL    HW232024   4.225   3.736   2.470  0.1384 -0.5505 -0.8447
 8073SOL    HW332025   4.281   3.791   2.341  1.1819  0.4329  0.0012
 8073SOL    MW432026   4.274   3.795   2.428 -0.1819  0.5892 -0.5006
 8074SOL     OW32027   6.117   3.125   0.408  0.3318  0.2753 -0.0054
 8074SOL    HW232028   6.201   3.103   0.448  0.5467  1.3826  0.2063
 8074SOL    HW332029   6.132   3.116   0.314 -0.0300 -1.8529  0.0929
 8074SOL    MW432030   6.130   3.121   0.401  0.2148  0.5399  0.1665
 8075SOL     OW32031   2.119   4.288   4.911 -0.2574  0.1015 -0.2512
 8075SOL    HW232032   2.102   4.349   4.982 -2.0031 -0.7552  0.1315
 8075SOL    HW332033   2.201   4.246   4.934 -1.1851 -0.7431  1.7260
 8075SOL    MW432034   2.128   4.290   4.923  0.7067  0.4317 -0.2730
 8076SOL     OW32035   5.702   2.071   1.710  0.5757  0.6236 -0.2060
 8076SOL    HW232036   5.705   2.154   1.663 -0.3910 -0.1591 -1.7418
 8076SOL    HW332037   5.618   2.033   1.686 -0.3586  0.5049  2.8389
 8076SOL    MW432038   5.691   2.077   1.700  0.1102  0.1908  0.3622
 8077SOL     OW32039   5.483   0.167   1.756  0.6396 -1.1595 -0.2850
 8077SOL    HW232040   5.402   0.218   1.758  1.2126 -0.2382  1.5312
 8077SOL    HW332041   5.496   0.147   1.663 -1.7944 -1.5822 -0.6084
 8077SOL    MW432042   5.474   0.171   1.744  0.1878 -0.2644 -0.3276
 8078SOL     OW32043   4.243   2.739   2.037 -0.3675 -0.9383  0.5753
 8078SOL    HW232044   4.182   2.799   1.994  1.7917  0.5164 -0.6441
 8078SOL    HW332045   4.296   2.795   2.094  1.8731 -1.5609 -0.7889
 8078SOL    MW432046   4.242   2.754   2.039 -0.3325  0.1096 -0.3376
 8079SOL     OW32047   4.871   2.412   5.467  0.0821 -0.2557 -0.5413
 8079SOL    HW232048   4.784   2.387   5.435 -0.0978  0.8360 -0.9366
 8079SOL    HW332049   4.925   2.417   5.387 -0.0870  1.3723 -0.5841
 8079SOL    MW432050   4.867   2.409   5.452 -0.1413 -0.0385  0.5077
 8080SOL     OW32051   1.683   2.427   4.362 -0.2891 -0.2430  0.0816
 8080SOL    HW232052   1.649   2.394   4.279 -0.3462 -1.6003  0.6075
 8080SOL    HW332053   1.653   2.518   4.366 -0.5601 -0.2554 -1.2197
 8080SOL    MW432054   1.674   2.435   4.352 -0.5059 -0.6693 -0.0787
 8081SOL     OW32055   5.206   2.763   2.044  0.2478 -0.7304 -0.5233
 8081SOL    HW232056   5.269   2.818   2.090 -0.7156  0.5342 -0.6506
 8081SOL    HW332057   5.156   2.720   2.113  0.4525 -0.7887 -0.4123
 8081SOL    MW432058   5.208   2.764   2.059 -0.3027  0.2150 -0.8445
 8082SOL     OW32059   0.556   3.384   0.162  0.0037  0.1727 -0.5869
 8082SOL    HW232060   0.606   3.331   0.100  0.7967 -0.2802  0.4237
 8082SOL    HW332061   0.601   3.373   0.245 -0.8213  1.0864 -0.0008
 8082SOL    MW432062   0.568   3.375   0.164  0.2776  0.4577 -0.4684
 8083SOL     OW32063   3.527   5.600   3.794 -0.5423 -0.1382  0.1853
 8083SOL    HW232064   3.524   5.606   3.889  0.1912 -0.6963  0.2454
 8083SOL    HW332065   3.460   5.535   3.772 -0.9211  0.2084  0.2880
 8083SOL    MW432066   3.518   5.592   3.803 -0.1404 -0.1343  0.2538
 8084SOL     OW32067   3.231   1.645   2.684  0.4549 -0.0753 -0.2404
 8084SOL    HW232068   3.159   1.670   2.743  0.5360  1.7253 -0.8407
 8084SOL    HW332069   3.307   1.635   2.741  0.4774  1.4000  0.0238
 8084SOL    MW432070   3.231   1.647   2.700 -0.2048  0.5364  0.6763
 8085SOL     OW32071   2.566   0.035   2.365  0.1775  0.0841  0.0207
 8085SOL    HW232072   2.551   0.130   2.364  1.1479  0.2404 -0.0873
 8085SOL    HW332073   2.594   0.016   2.454  3.1825  0.4451 -0.7278
 8085SOL    MW432074   2.568   0.045   2.376 -0.0796  0.0623  0.0108
 8086SOL     OW32075   1.063   5.666   5.969 -0.0901  0.1536 -0.3612
 8086SOL    HW232076   1.139   5.630   5.923  0.7494  0.6872  0.5728
 8086SOL    HW332077   1.090   5.672   6.060 -1.8046 -1.0812  0.2871
 8086SOL    MW432078   1.076   5.662   5.975  0.0217 -0.2385 -0.1270
 8087SOL     OW32079   3.271   5.523   5.423  0.2803 -0.0444 -0.4897
 8087SOL    HW232080   3.304   5.436   5.404  0.1230  0.0212 -1.0806
 8087SOL    HW332081   3.325   5.582   5.369  1.9056  0.4593  1.5633
 8087SOL    MW432082   3.283   5.519   5.413  0.0733  0.3726  0.3956
 8088SOL     OW32083   4.657   6.136   1.284  0.1870 -0.9409 -0.2915
 8088SOL    HW232084   4.671   6.084   1.205 -0.5119  0.4122 -1.3376
 8088SOL    HW332085   4.621   6.219   1.253  1.1347  0.1463  1.3255
 8088SOL    MW432086   4.654   6.140   1.269 -0.6243 -0.4675 -0.3565
 8089SOL     OW32087   6.327   4.589   2.171  0.8261 -0.1519 -0.1699
 8089SOL    HW232088   6.237   4.601   2.139  0.4286  1.4124  1.3852
 8089SOL    HW332089   6.382   4.625   2.101  0.0034  2.7511  0.5153
 8089SOL    MW432090   6.322   4.596   2.158 -0.0278  0.8571  0.3492
 8090SOL     OW32091   2.436   1.834   1.237 -0.2768  0.1233  0.1338
 8090SOL    HW232092   2.360   1.880   1.200 -0.5130 -0.8524 -0.6236
 8090SOL    HW332093   2.501   1.835   1.167 -0.3155 -0.7738  0.0796
 8090SOL    MW432094   2.434   1.840   1.223  0.7737  0.3665 -0.3295
 8091SOL     OW32095   5.873   1.406   2.221  0.1600  0.1304  0.3834
 8091SOL    HW232096   5.966   1.385   2.214  0.1538 -0.3230  1.4084
 8091SOL    HW332097   5.846   1.427   2.132  1.2222  0.1896  0.0598
 8091SOL    MW432098   5.881   1.406   2.209  0.1624  0.5346  0.4359
 8092SOL     OW32099   1.361   1.543   4.954  0.8135 -0.1830 -0.1081
 8092SOL    HW232100   1.447   1.556   4.914  0.3325 -0.8307 -1.4195
 8092SOL    HW332101   1.311   1.496   4.888  0.2351 -2.1037  1.6076
 8092SOL    MW432102   1.366   1.539   4.940  0.3564 -0.0702  0.0791
 8093SOL     OW32103   6.381   5.002   3.674  0.4455 -0.3315  0.3603
 8093SOL    HW232104   6.391   4.952   3.593  3.9525  2.6311 -1.3259
 8093SOL    HW332105   6.448   4.966   3.733 -0.7930 -1.1846  1.3108
 8093SOL    MW432106   6.391   4.990   3.671  0.1066  0.0436  0.3344
 8094SOL     OW32107   0.638   2.430   3.201 -0.2184  0.4079  0.0685
 8094SOL    HW232108   0.570   2.476   3.152 -0.7635 -0.2109  0.2348
 8094SOL    HW332109   0.705   2.497   3.219 -0.7263  0.9884 -0.1940
 8094SOL    MW432110   0.638   2.445   3.197 -0.0265  0.5303  0.2195
 8095SOL     OW32111   1.438   2.103   1.159 -0.2688 -0.4882 -0.1629
 8095SOL    HW232112   1.421   2.117   1.252  1.9092 -0.6217  0.3056
 8095SOL    HW332113   1.374   2.158   1.114  0.7850  2.2358  1.4648
 8095SOL    MW432114   1.428   2.112   1.165 -0.2954  0.8077  0.3813
 8096SOL     OW32115   2.308   5.358   3.372  0.0406  0.6998 -0.3196
 8096SOL    HW232116   2.295   5.451   3.390 -0.5365  0.5298  0.2042
 8096SOL    HW332117   2.223   5.318   3.393  0.6583 -0.1182  0.6940
 8096SOL    MW432118   2.295   5.365   3.377 -0.6017  0.5856  0.7395
 8097SOL     OW32119   2.030   3.507   3.927  0.1015  0.7454 -0.0474
 8097SOL    HW232120   2.106   3.563   3.942 -0.9517  2.0902  0.5708
 8097SOL    HW332121   2.018   3.508   3.832 -0.7398  2.8185  0.0268
 8097SOL    MW432122   2.038   3.514   3.917  0.2818  0.3998 -0.0153
 8098SOL     OW32123   2.927   3.410   3.500 -0.0921 -0.1833  0.5682
 8098SOL    HW232124   2.903   3.339   3.560  0.9781  0.0685  1.3142
 8098SOL    HW332125   2.885   3.488   3.536 -1.1994 -0.4001 -0.2059
 8098SOL    MW432126   2.918   3.411   3.513  0.3127  0.6527 -0.0431
 8099SOL     OW32127   5.708   1.454   1.998  0.1596  0.6583  0.1320
 8099SOL    HW232128   5.627   1.428   2.040  0.9563  2.0987  2.7896
 8099SOL    HW332129   5.698   1.548   1.981  0.5887  0.4822 -1.3037
 8099SOL    MW432130   5.696   1.463   2.001  0.0085  0.5400 -0.0857
 8100SOL     OW32131   6.096   3.944   3.577  0.0702  0.7438 -0.1375
 8100SOL    HW232132   6.170   3.902   3.621 -0.1361 -0.5403 -0.9491
 8100SOL    HW332133   6.132   4.024   3.539  0.5563  1.1854  1.1965
 8100SOL    MW432134   6.110   3.949   3.578 -0.0558 -0.3492 -0.2824
 8101SOL     OW32135   4.484   2.612   3.884  0.0615  0.5905  0.2224
 8101SOL    HW232136   4.477   2.529   3.932  0.0408  0.8440  0.6617
 8101SOL    HW332137   4.412   2.665   3.918  0.1986  0.8626  0.0861
 8101SOL    MW432138   4.474   2.608   3.894  0.1417  0.0040  0.2222
 8102SOL     OW32139   1.630   2.351   4.112 -0.7922  0.5598  0.0362
 8102SOL    HW232140   1.557   2.289   4.105 -0.4751  0.2732 -0.9268
 8102SOL    HW332141   1.694   2.319   4.048  0.4802  0.4058  1.3197
 8102SOL    MW432142   1.629   2.338   4.102  0.9185  0.1983  0.0744
 8103SOL     OW32143   6.090   0.992   3.677 -0.3207  0.3565 -0.2007
 8103SOL    HW232144   6.094   0.949   3.762  1.7214 -1.3683 -1.0656
 8103SOL    HW332145   6.010   0.959   3.637  0.5924 -1.8336 -0.3631
 8103SOL    MW432146   6.080   0.982   3.683 -0.1504  0.4337 -0.0988
 8104SOL     OW32147   6.177   3.143   5.565  0.3536 -0.2286 -0.4116
 8104SOL    HW232148   6.243   3.085   5.528  0.3644 -0.9263  0.6299
 8104SOL    HW332149   6.106   3.084   5.591 -0.1659  0.3734 -0.4314
 8104SOL    MW432150   6.176   3.127   5.564 -0.4495 -0.6433  0.4959
 8105SOL     OW32151   5.195   1.197   2.605 -0.4462 -0.2786  0.1951
 8105SOL    HW232152   5.217   1.288   2.582  2.8713 -0.9865  0.0804
 8105SOL    HW332153   5.231   1.186   2.692 -2.7939 -0.9365  1.1479
 8105SOL    MW432154   5.203   1.208   2.613  0.1261  0.5282  0.6524
 8106SOL     OW32155   1.225   2.791   2.919 -0.2380  0.1671  0.0124
 8106SOL    HW232156   1.280   2.716   2.944  0.1884  0.0190 -1.2987
 8106SOL    HW332157   1.247   2.859   2.984 -0.1484 -0.6087  0.8223
 8106SOL    MW432158   1.235   2.790   2.931 -0.3013  0.6339 -0.3937
 8107SOL     OW32159   0.584   6.352   3.481 -0.6583 -0.3183  0.0705
 8107SOL    HW232160   0.638   6.430   3.492  0.2298 -1.0868  1.4194
 8107SOL    HW332161   0.495   6.386   3.469  0.0884  0.9985 -2.7032
 8107SOL    MW432162   0.579   6.367   3.480 -0.7221  0.0338  0.0679
 8108SOL     OW32163   2.454   5.499   5.251  0.2278  0.2492 -0.4009
 8108SOL    HW232164   2.493   5.491   5.164  0.6522 -1.1961 -0.1061
 8108SOL    HW332165   2.525   5.477   5.312 -0.5529 -0.6069  0.2267
 8108SOL    MW432166   2.469   5.495   5.248 -0.0052 -0.1551 -0.1348
 8109SOL     OW32167   6.198   0.639   4.568  0.0957 -0.2027  0.4905
 8109SOL    HW232168   6.110   0.638   4.532  0.2849 -0.1774  0.0248
 8109SOL    HW332169   6.213   0.730   4.592  0.5103  0.0618 -0.7186
 8109SOL    MW432170   6.188   0.651   4.567  0.3165 -0.1306 -0.1735
 8110SOL     OW32171   3.985   0.689   0.879  0.2399 -0.9088  0.0733
 8110SOL    HW232172   3.903   0.640   0.885  0.1974 -0.8311  0.1355
 8110SOL    HW332173   3.960   0.779   0.899  0.1596 -0.7022 -0.8790
 8110SOL    MW432174   3.971   0.695   0.882  0.7243  0.2671  0.3819
 8111SOL     OW32175   3.952   3.379   0.233  0.2232  0.6446  0.1080
 8111SOL    HW232176   3.940   3.329   0.313  1.9570 -0.1732 -0.1165
 8111SOL    HW332177   3.867   3.422   0.220 -0.8936 -1.1296  1.0399
 8111SOL    MW432178   3.939   3.378   0.242  0.4291  0.2847  0.2651
 8112SOL     OW32179   5.255   4.105   0.887  0.2107 -0.4101 -0.1396
 8112SOL    HW232180   5.238   4.198   0.905  0.7799 -0.1279 -0.9834
 8112SOL    HW332181   5.351   4.098   0.889  0.1498 -1.1270  0.5894
 8112SOL    MW432182   5.266   4.117   0.890  0.3136  0.2046 -0.7313
 8113SOL     OW32183   1.332   6.226   0.456 -0.0839  0.2204  0.0865
 8113SOL    HW232184   1.245   6.244   0.492 -0.5975 -0.0552 -0.9997
 8113SOL    HW332185   1.371   6.164   0.518 -1.1380 -0.6083 -0.0612
 8113SOL    MW432186   1.326   6.220   0.469 -0.2695  0.2101  0.5793
 8114SOL     OW32187   4.041   5.065   4.167  0.3904 -0.0650  0.0569
 8114SOL    HW232188   4.117   5.009   4.153 -1.4799 -2.8391  0.0609
 8114SOL    HW332189   4.012   5.087   4.078  0.8955  0.6044  0.0497
 8114SOL    MW432190   4.047   5.060   4.153  0.2919  0.2197  0.3646
 8115SOL     OW32191   6.294   5.205   1.291 -0.2091 -0.1851  0.2586
 8115SOL    HW232192   6.232   5.221   1.220 -1.3808 -1.3863  0.9597
 8115SOL    HW332193   6.316   5.292   1.324 -0.2102  0.3527 -1.0747
 8115SOL    MW432194   6.289   5.218   1.286 -0.2166  0.1419 -0.5424
 8116SOL     OW32195   1.847   5.542   2.268  0.0515  0.5642  0.2031
 8116SOL    HW232196   1.766   5.590   2.253 -0.7516  0.3307  3.0580
 8116SOL    HW332197   1.820   5.464   2.317  2.0238  0.9669  2.1032
 8116SOL    MW432198   1.833   5.538   2.273  0.1567 -0.2436  0.2964
 8117SOL     OW32199   5.599   0.465   1.271  0.2545 -0.1757 -0.1270
 8117SOL    HW232200   5.693   0.485   1.273  0.4235 -0.8875 -0.4851
 8117SOL    HW332201   5.590   0.399   1.201 -0.6839  0.7424 -0.9068
 8117SOL    MW432202   5.610   0.459   1.262 -0.5004 -0.1408  0.1277
 8118SOL     OW32203   3.604   5.180   2.324  0.4724 -0.1674 -0.3052
 8118SOL    HW232204   3.603   5.146   2.234  0.2348  0.3591 -0.5019
 8118SOL    HW332205   3.688   5.152   2.359  0.9769  0.4465 -1.0092
 8118SOL    MW432206   3.615   5.172   2.316  0.7956 -0.6999  0.5218
 8119SOL     OW32207   3.922   4.382   2.474  0.1253 -0.0130  0.3378
 8119SOL    HW232208   4.017   4.370   2.483  0.1818  0.5356  0.5155
 8119SOL    HW332209   3.911   4.419   2.386  0.0888  0.0296  0.3603
 8119SOL    MW432210   3.933   4.385   2.463  0.2995  0.4607  0.1623
 8120SOL     OW32211   1.370   3.257   2.301  0.4605 -0.0909 -0.4965
 8120SOL    HW232212   1.302   3.206   2.345  0.8909 -0.1438  0.1198
 8120SOL    HW332213   1.398   3.201   2.229  0.2953 -0.3423 -0.3676
 8120SOL    MW432214   1.365   3.243   2.297 -0.5728 -0.2744 -0.3354
 8121SOL     OW32215   4.321   5.815   3.287 -0.2777 -0.5166  0.6298
 8121SOL    HW232216   4.366   5.792   3.206 -1.7426 -1.6128  0.0922
 8121SOL    HW332217   4.308   5.909   3.282 -0.0476 -0.5237 -0.2411
 8121SOL    MW432218   4.326   5.824   3.276  0.1913  0.8701  0.3094
 8122SOL     OW32219   1.567   3.700   2.394 -0.3261  0.5035  0.0758
 8122SOL    HW232220   1.657   3.711   2.365 -0.8597  0.3520 -1.7939
 8122SOL    HW332221   1.535   3.625   2.343 -1.8936  1.3902 -0.2973
 8122SOL    MW432222   1.575   3.691   2.384  0.0886 -0.3780 -0.3384
 8123SOL     OW32223   0.260   1.048   5.548 -0.0049  0.0207 -0.5291
 8123SOL    HW232224   0.342   1.003   5.568 -0.2969 -0.4943 -0.4680
 8123SOL    HW332225   0.193   0.981   5.558 -0.3245  0.1384 -1.7248
 8123SOL    MW432226   0.262   1.034   5.552 -0.1597 -0.5545 -0.0632
 8124SOL     OW32227   5.022   5.723   5.136  1.0058 -0.6091 -0.1429
 8124SOL    HW232228   5.007   5.757   5.048  1.9148  0.5904  0.1334
 8124SOL    HW332229   4.937   5.731   5.180  1.1452  1.2420 -0.1445
 8124SOL    MW432230   5.009   5.729   5.130  0.3367 -0.0616  0.1427
 8125SOL     OW32231   4.353   1.678   0.599  0.0457 -0.2127 -0.1762
 8125SOL    HW232232   4.365   1.599   0.652 -0.7947 -0.2628 -0.0621
 8125SOL    HW332233   4.259   1.689   0.591  0.1511  0.2429 -0.9977
 8125SOL    MW432234   4.342   1.669   0.605  0.1926  0.5265  0.0083
 8126SOL     OW32235   6.416   2.630   2.760 -0.0962  0.1073  0.2034
 8126SOL    HW232236   6.497   2.663   2.799 -0.1017 -0.7539  0.9959
 8126SOL    HW332237   6.428   2.640   2.666  0.2266  1.5604  0.3709
 8126SOL    MW432238   6.428   2.636   2.753  0.2522 -0.3145  0.6586
 8127SOL     OW32239   1.450   4.412   6.310 -0.3681  0.1549  0.6404
 8127SOL    HW232240   1.383   4.471   6.276 -0.3231 -0.5415 -0.7419
 8127SOL    HW332241   1.409   4.326   6.309  0.6857 -0.3787 -0.7818
 8127SOL    MW432242   1.436   4.408   6.306 -0.0763 -0.1981 -0.2226
 8128SOL     OW32243   3.798   4.449   0.447  0.1650 -0.0882  0.1905
 8128SOL    HW232244   3.713   4.489   0.428 -0.1852 -0.5636  0.7113
 8128SOL    HW332245   3.834   4.501   0.519  0.3863  0.2065 -0.1313
 8128SOL    MW432246   3.792   4.461   0.454 -0.0903  0.2421 -0.4018
 8129SOL     OW32247   5.130   2.000   0.546 -0.2042  0.0841  0.2861
 8129SOL    HW232248   5.176   2.007   0.630  0.6802  0.5466 -0.2235
 8129SOL    HW332249   5.119   1.905   0.533  0.8574 -0.0545  0.2971
 8129SOL    MW432250   5.135   1.988   0.555  0.9430  0.1343 -0.2026
 8130SOL     OW32251   3.262   0.800   3.354 -0.0577 -0.1432  0.6185
 8130SOL    HW232252   3.172   0.778   3.332  0.3280 -1.2257  0.0219
 8130SOL    HW332253   3.285   0.870   3.293  0.2161 -1.4592 -0.8957
 8130SOL    MW432254   3.253   0.806   3.343  0.0276 -0.0292  0.1309
 8131SOL     OW32255   1.356   1.320   0.742 -0.0953 -0.0586  0.1213
 8131SOL    HW232256   1.403   1.237   0.730  2.8634  1.3918  0.7771
 8131SOL    HW332257   1.324   1.342   0.654  0.6696 -0.9749 -0.4099
 8131SOL    MW432258   1.358   1.312   0.729 -0.2233 -0.2714  0.1393
 8132SOL     OW32259   5.100   6.428   1.963 -0.4219 -0.0710  0.3576
 8132SOL    HW232260   5.117   6.503   2.020  0.8591  0.9053 -1.2135
 8132SOL    HW332261   5.185   6.408   1.924 -0.9271 -1.7902  0.0672
 8132SOL    MW432262   5.114   6.435   1.966 -0.5400  0.8900 -0.1428
 8133SOL     OW32263   6.413   1.803   3.313 -0.0680  0.5033  0.1050
 8133SOL    HW232264   6.494   1.787   3.264 -0.1388  1.0636 -0.2043
 8133SOL    HW332265   6.370   1.717   3.316  0.9885 -0.0231  1.1261
 8133SOL    MW432266   6.418   1.789   3.307 -0.1603  0.1303  0.4395
 8134SOL     OW32267   0.808   3.859   6.410  0.2139  0.4310  0.3523
 8134SOL    HW232268   0.873   3.897   6.351  0.4293  1.1319  1.0215
 8134SOL    HW332269   0.732   3.916   6.402 -0.8268 -1.0796 -1.3613
 8134SOL    MW432270   0.806   3.871   6.401  0.4331  0.2664  0.1247
 8135SOL     OW32271   4.913   5.227   2.103  0.0583  0.2137 -0.1885
 8135SOL    HW232272   4.853   5.197   2.035  0.1567 -1.2035  0.2943
 8135SOL    HW332273   4.878   5.189   2.184  1.1683 -0.0009  0.2136
 8135SOL    MW432274   4.900   5.218   2.105  0.5630 -0.1320 -0.4598
 8136SOL     OW32275   1.508   4.097   0.804 -0.3431 -0.1847  0.1483
 8136SOL    HW232276   1.578   4.072   0.865  0.1333 -2.5794 -1.2354
 8136SOL    HW332277   1.437   4.036   0.823 -0.8041  0.1036 -0.6138
 8136SOL    MW432278   1.508   4.086   0.815  0.0213 -0.0095 -0.2992
 8137SOL     OW32279   0.717   0.784   4.904 -0.0435 -0.0542 -0.3092
 8137SOL    HW232280   0.672   0.710   4.945 -2.0286  1.1907 -0.0742
 8137SOL    HW332281   0.723   0.761   4.812  0.0099 -0.7983 -0.1276
 8137SOL    MW432282   0.712   0.771   4.897 -0.0867  0.5040 -0.5170
 8138SOL     OW32283   4.324   1.900   5.575  0.4100 -0.2701 -0.5288
 8138SOL    HW232284   4.242   1.877   5.618  0.8697 -1.1139 -0.0563
 8138SOL    HW332285   4.321   1.854   5.491  1.0725 -1.6515  0.1681
 8138SOL    MW432286   4.313   1.891   5.570  0.4726  0.1229 -0.0823
 8139SOL     OW32287   1.393   5.372   5.391 -0.1347 -0.3649 -0.8858
 8139SOL    HW232288   1.443   5.359   5.311 -1.6130 -1.2582 -1.7172
 8139SOL    HW332289   1.456   5.405   5.455  1.0332  0.5610 -2.4659
 8139SOL    MW432290   1.408   5.374   5.389  0.4583 -0.6333  0.4073
 8140SOL     OW32291   1.164   2.738   5.251  0.0872 -0.3637  0.0154
 8140SOL    HW232292   1.079   2.707   5.220  1.2020 -2.9837 -0.6285
 8140SOL    HW332293   1.178   2.690   5.333  0.6692  0.5915  0.4942
 8140SOL    MW432294   1.154   2.728   5.258 -1.1268 -0.0254  0.0312
 8141SOL     OW32295   0.860   2.175   3.464 -0.1559  0.8471 -0.2891
 8141SOL    HW232296   0.806   2.115   3.413  1.0860 -0.7573  0.1628
 8141SOL    HW332297   0.937   2.191   3.409 -0.7254  2.5330 -0.6403
 8141SOL    MW432298   0.863   2.169   3.450 -0.4946  0.6985  0.1959
 8142SOL     OW32299   5.548   0.863   0.377  0.3294  0.3973  0.3795
 8142SOL    HW232300   5.499   0.942   0.399 -0.6349  0.3606 -1.3943
 8142SOL    HW332301   5.621   0.894   0.323  0.8421  0.2126  0.9588
 8142SOL    MW432302   5.551   0.877   0.373 -0.7240 -0.0078 -0.0396
 8143SOL     OW32303   6.027   3.076   5.060  0.2912 -0.1644 -0.3641
 8143SOL    HW232304   6.067   3.155   5.096 -0.2909  1.6038 -3.2085
 8143SOL    HW332305   6.089   3.046   4.993 -0.5598 -0.6941 -0.9360
 8143SOL    MW432306   6.040   3.083   5.056 -0.0399 -0.1747 -0.1939
 8144SOL     OW32307   4.089   0.308   3.378 -0.7716 -0.1912  0.1784
 8144SOL    HW232308   4.137   0.253   3.441 -1.4760 -1.4289 -0.3318
 8144SOL    HW332309   4.012   0.337   3.426 -1.2325 -1.0126 -0.0522
 8144SOL    MW432310   4.085   0.305   3.393 -0.0503  0.0624 -0.4279
 8145SOL     OW32311   1.539   4.973   2.612  0.1350  0.6815 -0.2862
 8145SOL    HW232312   1.580   5.036   2.671 -0.1875  0.6967 -0.0723
 8145SOL    HW332313   1.482   4.921   2.669  1.5596 -0.8342 -0.1726
 8145SOL    MW432314   1.537   4.974   2.627 -0.6594 -0.6440  0.3742
 8146SOL     OW32315   0.375   4.967   0.308 -0.4747  0.1172 -0.1597
 8146SOL    HW232316   0.322   4.888   0.306 -0.9336  0.4229 -0.1857
 8146SOL    HW332317   0.349   5.012   0.389 -1.5504  1.1459 -1.0494
 8146SOL    MW432318   0.365   4.963   0.318  0.0831  0.2957 -0.2480
 8147SOL     OW32319   3.284   2.806   0.398  0.0322 -0.5965  0.1010
 8147SOL    HW232320   3.288   2.828   0.305 -1.2008  1.0949  0.4075
 8147SOL    HW332321   3.300   2.711   0.401 -0.0355 -0.7061 -1.8373
 8147SOL    MW432322   3.286   2.796   0.386 -0.6321  0.5031  0.0423
 8148SOL     OW32323   6.030   4.739   6.375 -0.8003 -0.0954 -0.1433
 8148SOL    HW232324   6.110   4.707   6.334  0.7013  2.4423  0.5617
 8148SOL    HW332325   6.043   4.724   6.469 -2.3368 -1.9746 -0.1735
 8148SOL    MW432326   6.042   4.733   6.382  0.2088  0.0723  0.4603
 8149SOL     OW32327   0.032   5.064   2.079 -0.4197 -0.3022 -0.1137
 8149SOL    HW232328   0.096   5.116   2.127 -0.5752 -0.2139 -0.0012
 8149SOL    HW332329  -0.006   5.125   2.016  1.1598 -0.8723 -1.7050
 8149SOL    MW432330   0.035   5.079   2.077  0.2424 -0.8850  0.2529
 8150SOL     OW32331   6.386   2.082   0.761  0.1660  0.0944 -0.4963
 8150SOL    HW232332   6.328   2.012   0.789  0.9927 -0.5447 -0.3232
 8150SOL    HW332333   6.405   2.063   0.669 -1.2333  1.2639 -1.0641
 8150SOL    MW432334   6.381   2.071   0.752 -0.0691  0.4582 -0.0882
 8151SOL     OW32335   2.709   2.484   5.734  0.1632 -0.7063 -0.1465
 8151SOL    HW232336   2.617   2.460   5.728  0.1440 -0.2743 -2.2103
 8151SOL    HW332337   2.709   2.572   5.771 -0.2915 -0.4868 -0.6597
 8151SOL    MW432338   2.697   2.492   5.738  0.7564 -0.3435 -0.4035
 8152SOL     OW32339   2.222   2.261   0.386 -0.3466  0.1458 -0.4399
 8152SOL    HW232340   2.255   2.176   0.357  2.7600  0.7910  0.8988
 8152SOL    HW332341   2.166   2.290   0.314  0.7211 -1.7894 -2.1678
 8152SOL    MW432342   2.219   2.254   0.373  0.6515  0.0700 -0.2427
 8153SOL     OW32343   0.555   4.573   5.720 -0.2439  0.3445  0.5384
 8153SOL    HW232344   0.579   4.661   5.691  1.5395 -0.3094 -0.1215
 8153SOL    HW332345   0.510   4.586   5.804 -0.3858  1.8929  0.2442
 8153SOL    MW432346   0.552   4.586   5.727  0.1816  0.2048 -0.6386
 8154SOL     OW32347   0.232   6.220   1.052 -0.1603  0.1267  0.2393
 8154SOL    HW232348   0.181   6.291   1.092 -1.0573  0.4386 -1.3698
 8154SOL    HW332349   0.226   6.148   1.114 -0.5850  0.9288  1.1595
 8154SOL    MW432350   0.224   6.220   1.066  0.0039  0.0910 -0.1847
 8155SOL     OW32351   5.065   5.069   5.198 -0.1042 -0.0601 -0.1727
 8155SOL    HW232352   5.027   4.984   5.221 -0.5179  0.0613 -0.4021
 8155SOL    HW332353   4.999   5.133   5.226  0.5527  0.2358  0.7480
 8155SOL    MW432354   5.051   5.066   5.205 -0.2988 -0.1105  0.3293
 8156SOL     OW32355   6.314   6.406   0.085 -0.2449  0.1422 -0.0146
 8156SOL    HW232356   6.362   6.376   0.007  0.1937 -0.5265  0.4974
 8156SOL    HW332357   6.299   6.499   0.069  1.2884  0.3926 -0.1763
 8156SOL    MW432358   6.318   6.414   0.073  0.1642  0.2563 -0.1636
 8157SOL     OW32359   4.735   1.127   1.378  0.4423 -0.5404 -0.4324
 8157SOL    HW232360   4.695   1.105   1.294  1.2194 -0.4308 -0.8323
 8157SOL    HW332361   4.733   1.223   1.381  0.7573 -0.5328 -0.4904
 8157SOL    MW432362   4.729   1.137   1.367  0.2482  0.3135  0.3728
 8158SOL     OW32363   5.712   3.007   1.670  0.6774  0.1914  0.1486
 8158SOL    HW232364   5.785   3.069   1.662  0.8725 -0.1967 -1.4622
 8158SOL    HW332365   5.719   2.973   1.759  0.8812  2.0699  0.8871
 8158SOL    MW432366   5.723   3.010   1.680 -0.4508  0.2419  0.5239
 8159SOL     OW32367   5.635   2.233   4.420  0.4865  0.4331  0.4880
 8159SOL    HW232368   5.579   2.183   4.479 -1.5052  0.8303 -0.9589
 8159SOL    HW332369   5.695   2.168   4.382  1.7844  0.1693  2.8003
 8159SOL    MW432370   5.636   2.218   4.423 -0.0209  0.2980  0.0766
 8160SOL     OW32371   1.377   6.002   2.817 -0.2060  0.4155  0.0281
 8160SOL    HW232372   1.448   5.942   2.840 -1.0319 -0.2224  0.9537
 8160SOL    HW332373   1.368   6.059   2.893  0.0368  1.2267 -0.5310
 8160SOL    MW432374   1.385   6.001   2.830  0.1407 -0.7626 -0.8282
 8161SOL     OW32375   5.026   2.848   5.375 -0.0828 -0.0616  0.2363
 8161SOL    HW232376   5.044   2.939   5.349 -1.8273  1.0725  2.5672
 8161SOL    HW332377   5.017   2.853   5.470  0.1516 -2.7923  0.4595
 8161SOL    MW432378   5.027   2.861   5.384  0.1307 -0.4866  0.2251
 8162SOL     OW32379   0.949   1.484   3.908  0.3749 -0.1291 -0.2848
 8162SOL    HW232380   1.002   1.404   3.904 -1.1084 -1.1544 -0.3070
 8162SOL    HW332381   0.992   1.538   3.973  0.8436 -1.4013  0.5024
 8162SOL    MW432382   0.961   1.480   3.916 -0.0455 -0.4835 -0.1528
 8163SOL     OW32383   0.519   0.144   4.596 -0.2850 -0.1821 -0.2891
 8163SOL    HW232384   0.493   0.199   4.669 -0.8968  0.6717 -1.1218
 8163SOL    HW332385   0.532   0.205   4.523  0.8332 -0.9513 -0.7632
 8163SOL    MW432386   0.517   0.159   4.596 -0.3127 -0.1763 -0.0376
 8164SOL     OW32387   3.252   3.470   1.528  0.0817  1.2633 -0.1342
 8164SOL    HW232388   3.292   3.450   1.444 -0.8665  0.4301 -0.4061
 8164SOL    HW332389   3.290   3.555   1.554  2.5142  0.2153 -0.0219
 8164SOL    MW432390   3.262   3.479   1.521  0.2863  0.9051  0.3911
 8165SOL     OW32391   4.547   0.483   4.045 -0.4003  0.4360 -0.7309
 8165SOL    HW232392   4.510   0.568   4.020  0.5627  1.4461  1.0505
 8165SOL    HW332393   4.637   0.487   4.013 -0.8425 -0.6953 -2.2228
 8165SOL    MW432394   4.554   0.495   4.037  0.2594 -0.0537 -0.2086
 8166SOL     OW32395   0.599   0.337   0.705  0.3972  0.2112 -0.0164
 8166SOL    HW232396   0.679   0.373   0.668  1.0100 -1.0124  0.0870
 8166SOL    HW332397   0.622   0.249   0.732 -0.1663  0.8286  2.7739
 8166SOL    MW432398   0.613   0.330   0.703 -0.3963  0.4395 -0.1595
 8167SOL     OW32399   2.605   2.882   0.640  0.0078  0.0345  0.4596
 8167SOL    HW232400   2.558   2.800   0.625  1.3903 -0.4992 -1.3579
 8167SOL    HW332401   2.594   2.931   0.558  0.3882  1.0408  0.9953
 8167SOL    MW432402   2.598   2.878   0.627 -0.1559  0.4861 -0.8682
 8168SOL     OW32403   2.584   5.087   0.664  0.4129 -0.0198  0.1324
 8168SOL    HW232404   2.616   5.170   0.627 -0.4797  0.6684  0.8754
 8168SOL    HW332405   2.647   5.066   0.733  1.2059 -0.5062 -0.7014
 8168SOL    MW432406   2.597   5.095   0.668 -0.0403  0.1318 -0.4531
 8169SOL     OW32407   0.050   1.911   2.636  0.3965 -0.1993 -0.3805
 8169SOL    HW232408  -0.010   1.922   2.709 -1.6617  0.9009 -2.1140
 8169SOL    HW332409   0.126   1.964   2.659 -1.6350  3.0239 -0.4123
 8169SOL    MW432410   0.052   1.920   2.649 -0.0423  0.2709 -0.2913
 8170SOL     OW32411   4.292   2.317   3.730  0.2088 -0.5162 -0.0588
 8170SOL    HW232412   4.349   2.269   3.669  0.4255 -0.3886  0.0447
 8170SOL    HW332413   4.294   2.407   3.699  0.8454 -0.3214  0.5253
 8170SOL    MW432414   4.300   2.322   3.717 -0.3747 -0.0061 -0.0130
 8171SOL     OW32415   1.909   3.299   2.415  1.3242  0.3844  0.2689
 8171SOL    HW232416   1.876   3.210   2.403  3.6271 -0.6417  0.8899
 8171SOL    HW332417   1.880   3.347   2.337 -0.2369 -0.8025  0.0852
 8171SOL    MW432418   1.901   3.294   2.403 -0.6401 -0.2676 -0.2246
 8172SOL     OW32419   4.567   2.671   5.740 -0.0223 -0.0798  0.2617
 8172SOL    HW232420   4.536   2.710   5.822  0.8790 -1.0294  1.0821
 8172SOL    HW332421   4.565   2.743   5.677 -0.6255  0.6989  1.1497
 8172SOL    MW432422   4.563   2.686   5.743  0.3891  0.7372 -0.4438
 8173SOL     OW32423   1.501   0.894   2.631 -0.5638  0.5101  0.0267
 8173SOL    HW232424   1.515   0.961   2.563 -0.1186 -0.1063 -0.5040
 8173SOL    HW332425   1.412   0.864   2.616 -0.7659  0.9858  0.2659
 8173SOL    MW432426   1.491   0.899   2.620  0.1612  0.0665 -0.5073
 8174SOL     OW32427   5.669   4.327   4.038 -0.2442  0.6227  0.0461
 8174SOL    HW232428   5.575   4.326   4.016  0.0175 -1.0468 -1.1830
 8174SOL    HW332429   5.702   4.407   3.998 -0.8642  0.4231 -0.9052
 8174SOL    MW432430   5.661   4.338   4.030 -0.3193  0.1818  0.0954
 8175SOL     OW32431   4.079   1.906   6.381  0.2821  0.6461  0.1208
 8175SOL    HW232432   4.157   1.850   6.390  0.0020  0.2329 -0.0118
 8175SOL    HW332433   4.078   1.929   6.288  0.4968  1.0188  0.2099
 8175SOL    MW432434   4.089   1.902   6.370  0.4314 -0.5759 -0.2705
 8176SOL     OW32435   5.754   3.475   6.065 -0.3798 -0.1656 -0.4521
 8176SOL    HW232436   5.774   3.457   6.157 -0.4434 -0.8926 -0.5744
 8176SOL    HW332437   5.742   3.570   6.061  1.1055  0.0602  0.0063
 8176SOL    MW432438   5.755   3.485   6.076  0.0846 -0.6907 -0.0935
 8177SOL     OW32439   6.256   0.151   2.491 -0.2373  0.0789 -0.5133
 8177SOL    HW232440   6.258   0.243   2.520 -1.0669 -0.6420  2.0760
 8177SOL    HW332441   6.180   0.146   2.432 -2.2140  0.4458  1.8634
 8177SOL    MW432442   6.246   0.163   2.487 -0.3033  0.2604 -0.5801
 8178SOL     OW32443   4.193   5.664   1.360  0.0222 -0.2323 -0.3556
 8178SOL    HW232444   4.142   5.731   1.316  0.2080 -0.9987 -1.8203
 8178SOL    HW332445   4.201   5.694   1.450 -1.1486  0.9585 -0.6278
 8178SOL    MW432446   4.188   5.677   1.366 -0.2302  0.1691  0.0617
 8179SOL     OW32447   5.843   2.842   5.009  0.5001  0.0321 -0.1035
 8179SOL    HW232448   5.895   2.903   5.062  1.5881 -0.1488 -0.9242
 8179SOL    HW332449   5.784   2.801   5.071  0.0981  1.5456  0.5634
 8179SOL    MW432450   5.842   2.845   5.024 -0.4284 -0.0737  0.3602
 8180SOL     OW32451   6.105   1.929   2.285 -0.2571 -0.0586 -0.0666
 8180SOL    HW232452   6.164   1.862   2.319  0.0123 -0.4805 -1.2819
 8180SOL    HW332453   6.057   1.961   2.361  0.4823 -0.7700  0.7175
 8180SOL    MW432454   6.107   1.925   2.299 -0.4023 -0.2788  0.5274
 8181SOL     OW32455   2.214   3.808   2.615 -0.0877  0.0815 -0.2038
 8181SOL    HW232456   2.121   3.830   2.612  0.3433  2.1459  0.4368
 8181SOL    HW332457   2.259   3.892   2.608  1.8331 -1.0376 -3.4865
 8181SOL    MW432458   2.208   3.822   2.614 -1.1394 -0.2981 -0.1077
 8182SOL     OW32459   1.729   5.694   0.096  0.2167 -0.0469 -0.6247
 8182SOL    HW232460   1.681   5.772   0.126  0.0442  0.0630 -1.1771
 8182SOL    HW332461   1.755   5.715   0.006  2.1682  0.2798 -0.0201
 8182SOL    MW432462   1.726   5.707   0.088 -0.3390  0.0087 -0.2659
 8183SOL     OW32463   4.714   0.304   0.027 -0.2968  0.3559  0.1945
 8183SOL    HW232464   4.760   0.365  -0.030 -0.7057  0.3065 -0.1922
 8183SOL    HW332465   4.702   0.353   0.109  0.6963  0.2621  0.4038
 8183SOL    MW432466   4.718   0.319   0.030  0.0504 -0.5015 -0.3104
 8184SOL     OW32467   0.858   0.112   4.603  0.3226  0.5538  0.1111
 8184SOL    HW232468   0.833   0.083   4.691  0.3557  1.7509  0.5351
 8184SOL    HW332469   0.924   0.049   4.574  1.3104  0.9088  1.5053
 8184SOL    MW432470   0.863   0.100   4.611  0.0250  0.2501  0.4999
 8185SOL     OW32471   3.289   1.107   1.986  0.3003  0.3979  0.3058
 8185SOL    HW232472   3.240   1.173   1.937 -0.0040  0.1085  0.2242
 8185SOL    HW332473   3.247   1.024   1.964  0.5206  0.2046  0.6138
 8185SOL    MW432474   3.277   1.105   1.976 -0.2525  0.4961  0.8040
 8186SOL     OW32475   5.129   4.072   6.079 -0.0413 -0.6294  0.1576
 8186SOL    HW232476   5.100   4.153   6.036 -1.8945 -1.0585  0.5147
 8186SOL    HW332477   5.174   4.103   6.157 -1.9556  0.1179  1.0489
 8186SOL    MW432478   5.131   4.087   6.084  0.1442  0.0498 -0.1427
 8187SOL     OW32479   3.892   3.324   1.527 -0.1336 -0.0146  0.2808
 8187SOL    HW232480   3.871   3.328   1.434  0.6224  0.1595  0.1096
 8187SOL    HW332481   3.818   3.279   1.567 -0.8911  0.7195 -0.2667
 8187SOL    MW432482   3.880   3.319   1.520 -0.0300 -0.4453  0.2737
 8188SOL     OW32483   3.675   4.162   2.663  0.6200 -0.0309 -0.4046
 8188SOL    HW232484   3.747   4.200   2.713  0.4238 -0.1290 -0.0411
 8188SOL    HW332485   3.610   4.232   2.657  0.8637  0.1479 -0.9774
 8188SOL    MW432486   3.676   4.176   2.669  0.2651  0.0420  0.4882
 8189SOL     OW32487   4.794   2.191   3.935 -0.0196 -0.2707  0.5385
 8189SOL    HW232488   4.844   2.146   3.867  0.8739 -0.3330  1.2197
 8189SOL    HW332489   4.732   2.126   3.967 -1.2684  0.1090 -1.0171
 8189SOL    MW432490   4.792   2.177   3.930  0.2384 -0.6119 -0.1350
 8190SOL     OW32491   1.132   1.726   4.891 -0.5038  0.1816  0.1251
 8190SOL    HW232492   1.217   1.686   4.907  0.5243  2.1049 -0.2363
 8190SOL    HW332493   1.150   1.800   4.833 -2.6377 -0.2034 -1.1473
 8190SOL    MW432494   1.145   1.730   4.886  0.2746 -0.3624  0.4394
 8191SOL     OW32495   4.982   2.877   2.896  0.6364  0.2114 -0.1742
 8191SOL    HW232496   4.995   2.789   2.931 -1.1243  0.2374  0.6713
 8191SOL    HW332497   4.888   2.883   2.882  0.6153  2.2244  0.5266
 8191SOL    MW432498   4.971   2.866   2.899 -0.1276 -0.2250 -0.4535
 8192SOL     OW32499   4.787   1.922   3.022  1.0664 -0.3010  0.4980
 8192SOL    HW232500   4.774   1.964   3.108  0.4295 -0.6195  0.5712
 8192SOL    HW332501   4.863   1.865   3.035  1.5446  0.3459  0.5802
 8192SOL    MW432502   4.795   1.920   3.035 -0.5109  0.1047 -0.6966
 8193SOL     OW32503   3.404   2.391   0.271  0.2107 -0.2395 -0.1524
 8193SOL    HW232504   3.346   2.325   0.307 -0.8245  0.6492 -0.1219
 8193SOL    HW332505   3.458   2.344   0.208  0.9756 -1.5088  1.3892
 8193SOL    MW432506   3.403   2.376   0.268  0.0222  0.1788 -0.4724
 8194SOL     OW32507   5.273   1.744   5.809 -0.5736  0.7037 -0.3189
 8194SOL    HW232508   5.251   1.669   5.753  3.3088 -0.3035 -0.7791
 8194SOL    HW332509   5.273   1.819   5.749  1.3295 -0.0045 -1.3198
 8194SOL    MW432510   5.270   1.744   5.793  0.0798  0.2378  0.3546
 8195SOL     OW32511   3.748   3.738   5.590 -0.1633  0.3763  1.1516
 8195SOL    HW232512   3.746   3.731   5.685  0.8865 -1.7212  1.0618
 8195SOL    HW332513   3.823   3.794   5.571  1.0411 -1.0503  1.5333
 8195SOL    MW432514   3.758   3.745   5.600  0.7400 -0.4869 -0.2783
 8196SOL     OW32515   0.428   4.946   3.413  0.1727 -0.0055  0.9736
 8196SOL    HW232516   0.522   4.958   3.427  0.4647 -0.3517 -0.5774
 8196SOL    HW332517   0.421   4.914   3.323 -1.3858 -0.6416  1.2999
 8196SOL    MW432518   0.440   4.943   3.403  0.3448 -0.3551 -0.4832
 8197SOL     OW32519   5.915   0.060   2.029  0.0597  0.3955  0.0056
 8197SOL    HW232520   5.955   0.099   2.107 -1.0863  1.4487  0.0978
 8197SOL    HW332521   5.824   0.091   2.030 -0.7499 -1.7719 -0.2829
 8197SOL    MW432522   5.908   0.069   2.039 -0.2783 -0.7052  0.3554
 8198SOL     OW32523   1.244   4.093   4.692  0.7476 -0.1457 -0.3325
 8198SOL    HW232524   1.162   4.084   4.645  0.0489  1.0437  0.6004
 8198SOL    HW332525   1.312   4.080   4.626 -0.1201 -3.0890 -0.7642
 8198SOL    MW432526   1.242   4.090   4.677 -0.6822 -0.1724 -0.3589
 8199SOL     OW32527   6.318   6.400   2.692  0.5954 -0.2212  0.2006
 8199SOL    HW232528   6.277   6.420   2.776  0.0481  1.3908 -0.3991
 8199SOL    HW332529   6.288   6.470   2.634  3.1463  0.3015 -0.6286
 8199SOL    MW432530   6.308   6.412   2.695  0.1229  0.3277 -0.2555
 8200SOL     OW32531   4.036   1.926   1.528 -0.4015  0.5661 -0.5288
 8200SOL    HW232532   4.049   1.833   1.509  1.5176  0.6630  0.1826
 8200SOL    HW332533   3.971   1.926   1.598  0.6236 -0.3412  0.4660
 8200SOL    MW432534   4.029   1.913   1.535 -0.0202  0.1093  0.1458
 8201SOL     OW32535   4.892   2.141   4.185  0.4251 -0.3078 -0.1178
 8201SOL    HW232536   4.869   2.152   4.093 -0.5360 -0.2562  0.1240
 8201SOL    HW332537   4.853   2.057   4.210 -2.3877  1.2398  1.1476
 8201SOL    MW432538   4.884   2.131   4.176 -0.6499  0.1297 -0.1367
 8202SOL     OW32539   0.545   0.919   2.225 -0.0266 -0.1058 -0.1007
 8202SOL    HW232540   0.502   0.922   2.311 -0.8563 -2.1842 -0.3804
 8202SOL    HW332541   0.635   0.944   2.243 -0.0032 -1.1490  1.5351
 8202SOL    MW432542   0.551   0.922   2.239  0.1964 -0.3565 -0.6512
 8203SOL     OW32543   5.151   5.495   3.591 -0.3693 -0.6816 -0.2571
 8203SOL    HW232544   5.201   5.423   3.628  0.4665 -0.0383 -0.1179
 8203SOL    HW332545   5.199   5.520   3.512 -0.3816  0.0496 -0.0371
 8203SOL    MW432546   5.164   5.489   3.585  0.8352  0.1366 -0.0235
 8204SOL     OW32547   5.465   4.359   0.429  0.2248 -0.2004  0.4843
 8204SOL    HW232548   5.556   4.366   0.400  0.0230 -2.3565 -0.9012
 8204SOL    HW332549   5.424   4.440   0.400  1.0386 -0.4914 -1.6654
 8204SOL    MW432550   5.472   4.370   0.421  0.2112  0.6354  0.5856
 8205SOL     OW32551   2.665   0.699   0.141 -0.5826  0.2598 -0.4890
 8205SOL    HW232552   2.707   0.634   0.085 -0.4141  0.2056 -0.3010
 8205SOL    HW332553   2.715   0.780   0.126 -2.2675  1.0215 -2.5855
 8205SOL    MW432554   2.677   0.701   0.132 -0.4355  0.1495  0.3481
 8206SOL     OW32555   4.627   1.310   1.864 -0.0238 -0.0231  0.2828
 8206SOL    HW232556   4.686   1.342   1.932  0.6552  1.3626 -0.9209
 8206SOL    HW332557   4.654   1.355   1.784 -1.3448 -0.9683 -0.7538
 8206SOL    MW432558   4.638   1.320   1.863 -0.6329 -0.0798  0.1478
 8207SOL     OW32559   2.869   5.694   0.846  0.4014 -0.7862  0.2367
 8207SOL    HW232560   2.928   5.717   0.919  1.0372  2.2838 -1.0649
 8207SOL    HW332561   2.928   5.675   0.773 -0.1365  0.6767 -0.6331
 8207SOL    MW432562   2.885   5.695   0.846 -0.4421  0.3657  0.1918
 8208SOL     OW32563   3.095   4.800   3.228 -0.2907 -0.3322  0.4820
 8208SOL    HW232564   3.092   4.895   3.236  0.3429 -0.2539 -0.1132
 8208SOL    HW332565   3.188   4.779   3.238  0.0859 -0.5591 -2.6680
 8208SOL    MW432566   3.107   4.810   3.231  0.3030 -0.0172  0.3552
 8209SOL     OW32567   2.926   0.694   6.227 -0.2143  0.3389 -0.2987
 8209SOL    HW232568   2.976   0.727   6.152 -0.9164  1.1826 -0.4010
 8209SOL    HW332569   2.965   0.737   6.303 -0.2067  0.3137 -0.2880
 8209SOL    MW432570   2.938   0.704   6.227  0.0893 -0.4624 -0.2640
 8210SOL     OW32571   5.055   3.211   6.206  0.2638 -0.2990 -0.6635
 8210SOL    HW232572   4.974   3.254   6.178 -0.9063 -1.9148  0.0353
 8210SOL    HW332573   5.114   3.220   6.131 -0.8790  0.1771 -1.5355
 8210SOL    MW432574   5.052   3.218   6.192 -0.1741 -0.5516  0.4048
 8211SOL     OW32575   6.070   2.641   0.548 -0.0644 -0.2925  0.0695
 8211SOL    HW232576   6.157   2.681   0.558  0.6246 -2.1779  3.5633
 8211SOL    HW332577   6.015   2.687   0.612 -1.3195  0.0021 -1.1836
 8211SOL    MW432578   6.074   2.652   0.558  0.1638  0.4677  0.3125
 8212SOL     OW32579   1.592   4.358   2.045 -0.4903 -0.0728  0.1633
 8212SOL    HW232580   1.520   4.349   1.983 -0.5232 -1.0852  0.3367
 8212SOL    HW332581   1.671   4.349   1.991 -0.4885  0.6489  0.0339
 8212SOL    MW432582   1.593   4.356   2.029  0.0560  0.4832  0.6259
 8213SOL     OW32583   6.098   1.836   1.373 -0.0015  0.8365 -0.0169
 8213SOL    HW232584   6.130   1.761   1.425  0.8442  1.5352  0.4981
 8213SOL    HW332585   6.023   1.868   1.422 -0.3461  0.3473 -0.2208
 8213SOL    MW432586   6.092   1.830   1.387  0.2903 -0.5843  0.4666
 8214SOL     OW32587   3.787   3.510   0.458  0.5069 -0.7127  0.5347
 8214SOL    HW232588   3.737   3.537   0.381  1.8920 -1.3505 -0.6274
 8214SOL    HW332589   3.822   3.592   0.493 -1.4698 -0.2154  1.5267
 8214SOL    MW432590   3.785   3.524   0.453  0.2778  0.2800  0.0417
 8215SOL     OW32591   4.325   1.251   5.988  0.3720  0.3863  0.0526
 8215SOL    HW232592   4.408   1.243   5.940 -0.3219 -0.5403 -1.0480
 8215SOL    HW332593   4.346   1.308   6.062  2.2913 -0.7421  0.4671
 8215SOL    MW432594   4.339   1.257   5.992  0.5221  0.2800  0.5564
 8216SOL     OW32595   5.979   3.091   0.878 -0.2722 -0.3045  0.2282
 8216SOL    HW232596   6.052   3.044   0.918 -0.3680 -1.5912 -1.0448
 8216SOL    HW332597   5.915   3.024   0.857 -0.4555  0.3721 -1.5776
 8216SOL    MW432598   5.980   3.076   0.881  0.3563  0.1243 -0.2364
 8217SOL     OW32599   2.065   3.473   5.948 -0.2122  0.1704  0.0466
 8217SOL    HW232600   2.092   3.381   5.947 -0.8875 -0.0552  1.1991
 8217SOL    HW332601   1.993   3.478   5.885  0.0587  0.0008 -0.2832
 8217SOL    MW432602   2.059   3.462   5.939 -0.0284 -0.4239 -0.2805
 8218SOL     OW32603   2.420   3.124   2.056 -0.0155  0.4051  0.5188
 8218SOL    HW232604   2.466   3.095   1.977  1.3977 -1.8984  2.0355
 8218SOL    HW332605   2.405   3.043   2.105  0.0460  1.8325  3.0570
 8218SOL    MW432606   2.424   3.109   2.052 -0.9460  0.0006  0.0185
 8219SOL     OW32607   1.584   2.692   3.412 -0.1613  0.2156 -0.0387
 8219SOL    HW232608   1.524   2.737   3.471 -1.1258 -0.7128 -0.2901
 8219SOL    HW332609   1.633   2.632   3.468 -0.6851 -0.2654 -0.0940
 8219SOL    MW432610   1.583   2.690   3.427 -0.2956 -0.3163 -0.1118
 8220SOL     OW32611   2.586   3.803   5.954 -0.3716 -0.4642  0.2443
 8220SOL    HW232612   2.534   3.803   6.035  0.0238 -0.3781  0.5011
 8220SOL    HW332613   2.534   3.854   5.893 -0.5673 -0.3349  0.5125
 8220SOL    MW432614   2.572   3.810   5.957 -0.3585 -0.0297  0.5014
 8221SOL     OW32615   4.049   1.160   2.270 -0.2190 -0.0341  0.3148
 8221SOL    HW232616   3.985   1.123   2.209 -0.0671  0.5438 -0.2028
 8221SOL    HW332617   4.064   1.090   2.333  0.0502 -0.8516 -0.6300
 8221SOL    MW432618   4.042   1.146   2.270 -0.5332 -0.0811  0.0327
 8222SOL     OW32619   0.666   2.175   3.063  0.3555  0.4815 -0.5008
 8222SOL    HW232620   0.653   2.265   3.093 -1.9593 -0.4254  1.5917
 8222SOL    HW332621   0.643   2.177   2.970 -1.3556  1.7808 -0.0962
 8222SOL    MW432622   0.661   2.187   3.055  0.0668 -0.4409 -0.5865
 8223SOL     OW32623   6.305   5.555   5.912  0.2167 -0.5100  0.0198
 8223SOL    HW232624   6.332   5.638   5.873  2.6795 -1.2276  0.0574
 8223SOL    HW332625   6.257   5.581   5.992  2.4993  0.9135  1.0217
 8223SOL    MW432626   6.302   5.569   5.918  1.1885 -0.3101  0.4404
 8224SOL     OW32627   2.572   2.001   0.430 -0.1302 -0.0421  0.3585
 8224SOL    HW232628   2.484   2.019   0.396  0.9394  0.7442 -2.2165
 8224SOL    HW332629   2.582   2.063   0.503 -1.7739 -0.3332  0.8843
 8224SOL    MW432630   2.562   2.012   0.435 -0.0312  0.0873 -0.0980
 8225SOL     OW32631   3.681   3.583   3.687  0.3428  0.1960  0.6840
 8225SOL    HW232632   3.599   3.537   3.706 -0.5716  1.0673 -0.9855
 8225SOL    HW332633   3.655   3.675   3.676  1.4150  0.3556 -0.6743
 8225SOL    MW432634   3.666   3.589   3.688  0.6224  0.3643 -0.1204
 8226SOL     OW32635   1.535   6.055   4.811 -0.2682 -0.7356 -0.1956
 8226SOL    HW232636   1.449   6.068   4.769 -1.0608  0.2927  1.6094
 8226SOL    HW332637   1.598   6.064   4.740 -1.6523 -1.6879 -1.6074
 8226SOL    MW432638   1.532   6.058   4.796 -0.1887 -0.2783  0.2876
 8227SOL     OW32639   1.011   4.201   3.975 -0.3138  0.0019 -0.3357
 8227SOL    HW232640   1.100   4.165   3.979 -0.5677 -0.5409  1.1649
 8227SOL    HW332641   1.024   4.293   3.953  0.6922  0.1071  0.5715
 8227SOL    MW432642   1.025   4.208   3.973 -0.1129 -0.0168  0.5797
 8228SOL     OW32643   5.851   6.339   1.592  0.0067  0.0651  0.3275
 8228SOL    HW232644   5.941   6.306   1.587 -0.3872 -0.8788 -0.8113
 8228SOL    HW332645   5.805   6.277   1.648 -0.0220  0.3797  0.6595
 8228SOL    MW432646   5.857   6.327   1.599  0.1172 -0.0054 -0.0066
 8229SOL     OW32647   1.503   3.014   1.492 -0.4818  0.6009  0.2112
 8229SOL    HW232648   1.448   3.089   1.513 -2.7385 -0.9246  0.0059
 8229SOL    HW332649   1.498   3.005   1.397  0.5853  0.7426  0.1220
 8229SOL    MW432650   1.495   3.023   1.483 -0.2407 -0.5944 -0.0188
 8230SOL     OW32651   6.180   0.591   5.625  0.0252 -0.1726  0.5111
 8230SOL    HW232652   6.274   0.586   5.611 -0.1243  0.1025 -0.7111
 8230SOL    HW332653   6.141   0.553   5.546 -0.8909  1.9285 -0.1284
 8230SOL    MW432654   6.187   0.586   5.613  0.1722 -0.0243 -0.2623
 8231SOL     OW32655   1.891   4.230   3.409  0.2812  0.2550 -0.4018
 8231SOL    HW232656   1.931   4.146   3.389  0.7859  0.6932 -1.3069
 8231SOL    HW332657   1.824   4.241   3.341 -0.4400  0.1565  0.2806
 8231SOL    MW432658   1.888   4.221   3.397 -0.7318 -0.0318 -0.5660
 8232SOL     OW32659   6.002   0.114   6.408  0.0873 -0.0001  0.0910
 8232SOL    HW232660   5.909   0.097   6.400 -0.4208  1.1749  2.3436
 8232SOL    HW332661   6.030   0.060   6.482  0.5586  1.5169  1.0873
 8232SOL    MW432662   5.994   0.105   6.417 -0.0257 -0.4325  0.4742
 8233SOL     OW32663   1.103   5.271   1.457  0.1134  0.5409 -0.6173
 8233SOL    HW232664   1.101   5.227   1.372 -1.6045 -0.2490 -0.2029
 8233SOL    HW332665   1.114   5.201   1.521  1.0415  1.0940 -0.1470
 8233SOL    MW432666   1.104   5.256   1.454  0.0142  0.0235 -0.4601
 8234SOL     OW32667   2.909   3.408   2.945 -0.0873 -0.2503  0.2644
 8234SOL    HW232668   2.936   3.348   3.014 -1.0324 -0.2804  0.6258
 8234SOL    HW332669   2.868   3.352   2.879 -0.0587 -0.1194  0.1368
 8234SOL    MW432670   2.907   3.393   2.945  0.3135 -0.2162  0.3766
 8235SOL     OW32671   3.865   0.603   4.619 -0.5551  0.1998 -0.0745
 8235SOL    HW232672   3.822   0.575   4.539 -1.4711  2.1658 -0.3374
 8235SOL    HW332673   3.943   0.650   4.589  1.3165 -2.3910  0.3717
 8235SOL    MW432674   3.870   0.605   4.605  0.2642  0.2176 -0.1972
 8236SOL     OW32675   0.072   0.888   2.534  0.1186  0.2186  0.0210
 8236SOL    HW232676   0.166   0.868   2.543 -0.0726 -0.6290  0.2112
 8236SOL    HW332677   0.061   0.973   2.576  0.8492  0.4408 -0.2204
 8236SOL    MW432678   0.083   0.897   2.540 -0.3235  0.3283  0.0443
 8237SOL     OW32679   4.400   3.207   5.373 -0.4773 -0.2253  0.0797
 8237SOL    HW232680   4.443   3.154   5.440  0.3266 -0.8454 -0.9010
 8237SOL    HW332681   4.325   3.246   5.418 -0.4016 -1.2354  1.1318
 8237SOL    MW432682   4.396   3.205   5.388 -0.4368 -0.0488  0.8382
 8238SOL     OW32683   2.393   6.421   6.164  0.1163 -0.2889 -0.0916
 8238SOL    HW232684   2.314   6.473   6.154  1.9978  2.5302 -1.4280
 8238SOL    HW332685   2.453   6.477   6.214  2.1291 -1.2808 -1.2615
 8238SOL    MW432686   2.390   6.435   6.170 -1.0610  0.2338 -0.6324
 8239SOL     OW32687   6.306   2.143   0.073  0.0139  0.4340 -0.4459
 8239SOL    HW232688   6.401   2.147   0.089 -0.2153 -0.4543  1.3688
 8239SOL    HW332689   6.271   2.219   0.119 -0.4465 -1.0861  1.9374
 8239SOL    MW432690   6.314   2.153   0.081 -0.0805  0.0861 -0.1410
 8240SOL     OW32691   2.361   6.423   0.924  0.5143 -0.0782 -0.3562
 8240SOL    HW232692   2.417   6.472   0.984  1.0719 -0.4876 -0.5327
 8240SOL    HW332693   2.289   6.391   0.979  0.7395 -0.0087 -0.0204
 8240SOL    MW432694   2.359   6.425   0.939  0.6336 -0.3538  0.3407
 8241SOL     OW32695   0.930   4.111   4.767  0.2731 -0.5604 -0.1078
 8241SOL    HW232696   0.861   4.141   4.826  2.3221  0.3900  1.9497
 8241SOL    HW332697   0.944   4.184   4.707 -0.2497 -0.6283 -0.3190
 8241SOL    MW432698   0.923   4.124   4.766 -0.2443  0.1519 -0.0697
 8242SOL     OW32699   4.955   4.333   5.297  0.1733 -0.0927  0.4509
 8242SOL    HW232700   4.911   4.253   5.325 -0.8991 -0.1966 -1.3869
 8242SOL    HW332701   4.948   4.332   5.202  0.7435  1.8666  0.3475
 8242SOL    MW432702   4.949   4.323   5.288 -0.0920  1.0192  0.3033
 8243SOL     OW32703   3.193   2.704   3.260 -0.1104 -1.0427 -0.4153
 8243SOL    HW232704   3.155   2.719   3.174  0.2802 -2.6691 -0.9121
 8243SOL    HW332705   3.270   2.649   3.243 -0.4936 -2.1023  1.0224
 8243SOL    MW432706   3.198   2.699   3.246 -0.0789 -0.5343  0.1337
 8244SOL     OW32707   3.485   3.552   1.119 -0.0150  0.0464  0.0918
 8244SOL    HW232708   3.393   3.565   1.094  0.1345  0.9822 -0.0374
 8244SOL    HW332709   3.530   3.628   1.082  0.9744 -0.8683 -0.6143
 8244SOL    MW432710   3.479   3.564   1.111 -0.2689  0.3428  0.3240
 8245SOL     OW32711   1.658   2.412   2.694  0.3633 -0.5385  0.0006
 8245SOL    HW232712   1.625   2.499   2.716 -2.5779 -1.5658  0.1262
 8245SOL    HW332713   1.654   2.409   2.598  2.4179  0.0938 -0.1490
 8245SOL    MW432714   1.653   2.423   2.684 -0.2753  0.1518 -0.1592
 8246SOL     OW32715   1.665   0.047   4.998 -0.1756 -0.0502  0.4523
 8246SOL    HW232716   1.608   0.045   4.921 -1.3698 -1.0432  1.3228
 8246SOL    HW332717   1.707   0.133   4.994 -2.2120  0.9892  0.1121
 8246SOL    MW432718   1.663   0.058   4.987 -0.1092  0.0177  0.0646
 8247SOL     OW32719   4.363   2.274   4.003  0.0171  0.0743  0.3153
 8247SOL    HW232720   4.379   2.355   4.052  0.2810  0.7009 -0.7907
 8247SOL    HW332721   4.336   2.303   3.916  1.6350 -1.0143 -0.5892
 8247SOL    MW432722   4.362   2.289   3.998  0.1575 -0.3686  0.0914
 8248SOL     OW32723   0.533   0.139   1.013  0.4655  0.1358  0.1293
 8248SOL    HW232724   0.563   0.060   0.968 -0.3521 -0.1512  0.0761
 8248SOL    HW332725   0.438   0.138   1.002  0.4587  1.1962  0.0196
 8248SOL    MW432726   0.525   0.129   1.006 -0.0202  0.1011 -0.0363
 8249SOL     OW32727   6.371   1.945   1.998  0.3336 -0.1578  0.0536
 8249SOL    HW232728   6.444   1.891   2.029 -0.6751 -1.2864  0.5381
 8249SOL    HW332729   6.302   1.883   1.976 -1.1232  0.9338  1.2694
 8249SOL    MW432730   6.372   1.930   1.999  0.3057  0.3481 -0.2227
 8250SOL     OW32731   2.644   3.212   6.283 -0.1685  0.3142  0.2573
 8250SOL    HW232732   2.674   3.122   6.294  0.7998  0.5573 -0.2519
 8250SOL    HW332733   2.568   3.205   6.224  0.0326 -0.1487  0.0458
 8250SOL    MW432734   2.638   3.199   6.276 -0.3289 -0.0741 -0.6280
 8251SOL     OW32735   5.522   1.470   0.567  0.0611  0.2980  0.2818
 8251SOL    HW232736   5.446   1.515   0.530 -0.6546  0.8799  2.3104
 8251SOL    HW332737   5.496   1.378   0.570 -0.6585  0.5169  1.1266
 8251SOL    MW432738   5.509   1.464   0.562  0.6930  0.3604 -0.3422
 8252SOL     OW32739   4.407   3.162   1.987 -0.1672  0.4619 -0.0145
 8252SOL    HW232740   4.426   3.113   1.907 -1.2410  1.6790 -1.0798
 8252SOL    HW332741   4.476   3.229   1.992  1.0110 -0.7800  1.1682
 8252SOL    MW432742   4.418   3.165   1.977  0.3483 -0.1656 -0.0219
 8253SOL     OW32743   3.812   1.957   5.576 -0.3286  0.2504 -0.0666
 8253SOL    HW232744   3.760   1.999   5.645  0.1108 -0.6181  0.8135
 8253SOL    HW332745   3.747   1.913   5.520 -0.5593 -0.8667  1.0503
 8253SOL    MW432746   3.796   1.957   5.577 -0.0328  0.3664 -0.5837
 8254SOL     OW32747   0.505   5.390   5.544 -0.8771  0.2793 -0.0469
 8254SOL    HW232748   0.567   5.449   5.500  1.3054 -0.0158  2.3824
 8254SOL    HW332749   0.441   5.448   5.584 -0.9341  0.7310 -0.7676
 8254SOL    MW432750   0.505   5.405   5.543 -0.1101  0.4368  0.1372
 8255SOL     OW32751   1.901   2.148   1.259  0.1519  1.0817  0.7834
 8255SOL    HW232752   1.910   2.058   1.229 -2.2053  0.4458  1.7810
 8255SOL    HW332753   1.826   2.182   1.212  0.1602  2.0604  1.4518
 8255SOL    MW432754   1.892   2.140   1.249 -0.1910 -0.1890  0.0437
 8256SOL     OW32755   4.964   1.260   1.607 -0.4033 -0.0144 -0.8673
 8256SOL    HW232756   4.966   1.175   1.651  0.7677  0.2722 -0.3232
 8256SOL    HW332757   4.882   1.300   1.636 -0.3002 -0.3942 -0.0297
 8256SOL    MW432758   4.954   1.254   1.616 -0.5738 -0.0434  0.2015
 8257SOL     OW32759   4.292   5.476   6.404 -0.5069  0.2260 -0.0125
 8257SOL    HW232760   4.356   5.513   6.465  0.6388  1.0841 -1.6558
 8257SOL    HW332761   4.208   5.513   6.431 -0.4546 -1.1618  2.3783
 8257SOL    MW432762   4.289   5.485   6.416 -0.3213 -0.3420 -0.1074
 8258SOL     OW32763   3.665   5.710   2.536  0.0095 -0.0051 -1.1796
 8258SOL    HW232764   3.673   5.630   2.484 -0.7579 -0.5027 -0.5437
 8258SOL    HW332765   3.728   5.699   2.608 -0.5199 -0.2977 -0.7615
 8258SOL    MW432766   3.675   5.698   2.538 -0.8127  0.5168  0.3259
 8259SOL     OW32767   0.357   4.702   1.559  0.0935 -0.4355 -0.3054
 8259SOL    HW232768   0.388   4.677   1.646 -0.2791  1.4912  0.4262
 8259SOL    HW332769   0.433   4.741   1.517  0.8677 -3.1605 -1.7026
 8259SOL    MW432770   0.371   4.704   1.565  0.2897  0.1660 -0.3732
 8260SOL     OW32771   2.594   3.879   2.555  0.2049 -0.1064 -0.5896
 8260SOL    HW232772   2.607   3.785   2.546  2.7142  0.0922  0.2342
 8260SOL    HW332773   2.579   3.893   2.648  3.0171  0.5474 -0.1609
 8260SOL    MW432774   2.594   3.869   2.566 -0.4787 -0.2151 -0.2406
 8261SOL     OW32775   2.713   1.346   2.640  0.1737  0.0140  0.7457
 8261SOL    HW232776   2.735   1.340   2.733  0.5912 -1.1820  0.5826
 8261SOL    HW332777   2.669   1.264   2.620 -2.1408  1.2575  0.4302
 8261SOL    MW432778   2.710   1.334   2.650 -0.3018 -0.1505 -0.5836
 8262SOL     OW32779   0.066   0.801   6.239  0.3688 -0.0164  0.3000
 8262SOL    HW232780  -0.022   0.835   6.221 -0.1521 -1.4595  0.0036
 8262SOL    HW332781   0.065   0.713   6.203  2.7428  0.7534 -1.9443
 8262SOL    MW432782   0.054   0.794   6.232  0.1539  0.3772  0.5475
 8263SOL     OW32783   5.709   0.213   4.394  0.1380 -0.2650  0.3545
 8263SOL    HW232784   5.767   0.137   4.395  0.5608 -0.0154 -1.4638
 8263SOL    HW332785   5.621   0.176   4.392  0.3144 -0.6878  0.3563
 8263SOL    MW432786   5.705   0.198   4.394 -0.0548 -0.9631  0.1618
 8264SOL     OW32787   2.805   1.363   4.896 -0.2414 -0.7540  0.1729
 8264SOL    HW232788   2.812   1.281   4.944 -0.7632 -0.0276  1.5412
 8264SOL    HW332789   2.868   1.421   4.939 -1.0172  0.0371  0.2706
 8264SOL    MW432790   2.814   1.360   4.908 -0.1512 -0.4655  0.1361
 8265SOL     OW32791   3.685   3.510   5.430  0.6682 -0.0074 -0.0202
 8265SOL    HW232792   3.686   3.597   5.470  0.7372 -0.1770  0.3506
 8265SOL    HW332793   3.724   3.523   5.343  1.3042  0.2093  0.2938
 8265SOL    MW432794   3.690   3.523   5.423  0.0375  0.2042 -0.6578
 8266SOL     OW32795   0.437   2.703   4.108  0.1585 -0.5872  0.1335
 8266SOL    HW232796   0.447   2.784   4.159  2.5774 -1.2036  0.7652
 8266SOL    HW332797   0.356   2.716   4.058 -0.0029  1.8316  0.8882
 8266SOL    MW432798   0.428   2.716   4.108  0.1063 -0.1202  0.3813
 8267SOL     OW32799   5.000   1.952   6.329  0.7218  0.4541  0.5749
 8267SOL    HW232800   4.988   1.873   6.277  1.8517  0.0186  0.9417
 8267SOL    HW332801   4.969   1.929   6.416  1.2147  0.3503  0.7258
 8267SOL    MW432802   4.995   1.939   6.334  0.8042  0.1027 -0.2093
 8268SOL     OW32803   5.811   1.298   4.873 -0.1757  0.6393  0.2658
 8268SOL    HW232804   5.840   1.377   4.827 -0.3123  0.0544 -0.8488
 8268SOL    HW332805   5.720   1.287   4.847 -0.4447  0.6364  1.1777
 8268SOL    MW432806   5.803   1.307   4.863 -0.0993 -0.4031 -0.4890
 8269SOL     OW32807   3.653   0.396   1.201 -0.7966 -0.1873  0.3563
 8269SOL    HW232808   3.622   0.320   1.250 -0.6372  0.2913  1.2368
 8269SOL    HW332809   3.574   0.446   1.182 -0.7698  0.0822  0.9358
 8269SOL    MW432810   3.639   0.393   1.205  0.1430 -0.0790  0.3058
 8270SOL     OW32811   3.349   5.985   3.984  0.3114  0.5723  0.5856
 8270SOL    HW232812   3.312   5.900   3.960  1.5268 -0.2277  1.4620
 8270SOL    HW332813   3.405   6.009   3.910  0.6046  0.2120  0.6882
 8270SOL    MW432814   3.351   5.977   3.971 -0.4207  0.1249 -0.0825
 8271SOL     OW32815   4.166   3.222   3.523 -0.2787 -0.0605  0.0638
 8271SOL    HW232816   4.233   3.275   3.566 -1.9417  1.3370  1.0742
 8271SOL    HW332817   4.156   3.262   3.436 -0.2005  0.0912  0.1242
 8271SOL    MW432818   4.173   3.234   3.517 -0.1877  0.1747  0.4854
 8272SOL     OW32819   0.517   3.682   5.526 -0.1421  0.2032 -0.3181
 8272SOL    HW232820   0.488   3.623   5.596 -0.7099 -0.1273 -0.8218
 8272SOL    HW332821   0.612   3.677   5.529 -0.1760 -0.5774 -0.2074
 8272SOL    MW432822   0.526   3.674   5.536 -0.5718 -0.4259  0.3994
 8273SOL     OW32823   2.585   3.200   1.803 -0.9934 -0.0584 -0.9096
 8273SOL    HW232824   2.675   3.197   1.836 -0.7928 -1.1762 -1.5075
 8273SOL    HW332825   2.587   3.268   1.737  0.0150 -1.5591 -2.5182
 8273SOL    MW432826   2.597   3.208   1.799  0.3366 -0.0753  1.0301
 8274SOL     OW32827   0.562   4.661   4.852  0.0704 -0.7439  0.5048
 8274SOL    HW232828   0.583   4.604   4.778 -2.1202 -2.0107  0.7719
 8274SOL    HW332829   0.583   4.609   4.929 -2.4043 -1.4987  0.7560
 8274SOL    MW432830   0.568   4.646   4.852  0.8392 -0.3724  0.1772
 8275SOL     OW32831   4.309   5.367   5.796  0.0738 -0.3162 -0.5008
 8275SOL    HW232832   4.399   5.397   5.784  0.3452 -0.6305  0.5911
 8275SOL    HW332833   4.270   5.432   5.856 -0.6612  0.2243 -1.5317
 8275SOL    MW432834   4.316   5.380   5.802 -0.6034 -0.4070 -0.1322
 8276SOL     OW32835   4.692   4.227   0.783  0.2127  0.2286  0.1701
 8276SOL    HW232836   4.719   4.319   0.781  0.7579  0.0945  0.7954
 8276SOL    HW332837   4.603   4.229   0.817  0.8257  0.4338  1.8726
 8276SOL    MW432838   4.684   4.239   0.788  0.3474 -0.0988  0.2622
 8277SOL     OW32839   1.144   4.544   6.086 -0.6201 -0.7575 -0.7627
 8277SOL    HW232840   1.141   4.502   6.172  1.7898  0.1274 -0.1514
 8277SOL    HW332841   1.117   4.635   6.102 -1.9588 -1.0308 -1.3280
 8277SOL    MW432842   1.140   4.551   6.099 -0.3499 -0.4245  0.0851
 8278SOL     OW32843   3.193   5.548   5.733 -0.0651  0.2057 -0.3954
 8278SOL    HW232844   3.113   5.496   5.738 -0.1940  0.4839  0.5552
 8278SOL    HW332845   3.235   5.519   5.652 -0.6589 -0.6200 -0.4222
 8278SOL    MW432846   3.188   5.537   5.723 -0.6356 -0.4314 -0.0202
 8279SOL     OW32847   4.930   3.092   0.931  0.6779  0.2717 -0.5680
 8279SOL    HW232848   4.927   3.184   0.955  3.2798  1.4035 -3.7657
 8279SOL    HW332849   4.848   3.078   0.882  0.9898  1.4107 -1.4664
 8279SOL    MW432850   4.918   3.102   0.927  0.3095  0.0782  0.0187
 8280SOL     OW32851   2.501   3.234   0.938 -0.4167  0.0580 -0.1974
 8280SOL    HW232852   2.481   3.324   0.964  0.7923  0.2668  0.0431
 8280SOL    HW332853   2.431   3.211   0.877 -0.6153  1.2318 -0.4356
 8280SOL    MW432854   2.489   3.243   0.934 -0.6213 -0.4478  0.5461
 8281SOL     OW32855   1.238   1.202   2.530  0.3018  0.6183 -0.1798
 8281SOL    HW232856   1.185   1.127   2.555  1.4612 -0.0300  0.4023
 8281SOL    HW332857   1.202   1.229   2.445  0.2401 -0.9607 -0.6819
 8281SOL    MW432858   1.226   1.196   2.522 -0.3164  0.5912  0.0321
 8282SOL     OW32859   2.328   0.279   1.402  0.2082 -0.3657  0.7535
 8282SOL    HW232860   2.419   0.253   1.390  0.0146 -1.2417  1.0631
 8282SOL    HW332861   2.332   0.361   1.452  0.8335 -0.0566  0.1979
 8282SOL    MW432862   2.340   0.287   1.407  0.8030 -0.3114 -0.4902
 8283SOL     OW32863   0.354   6.323   1.647 -0.4693 -0.8741 -0.2109
 8283SOL    HW232864   0.304   6.388   1.597  0.4655 -0.9728 -1.3104
 8283SOL    HW332865   0.381   6.370   1.726  0.1017  0.0773 -0.9420
 8283SOL    MW432866   0.351   6.338   1.651  0.4395  0.1102 -0.0031
 8284SOL     OW32867   2.129   4.398   2.296 -0.0343  0.3980 -0.2987
 8284SOL    HW232868   2.134   4.468   2.230 -2.4074  0.4765 -0.4679
 8284SOL    HW332869   2.036   4.389   2.315  0.4419 -0.8257  1.8023
 8284SOL    MW432870   2.118   4.406   2.290  0.5045 -0.1587 -0.3151
 8285SOL     OW32871   5.515   3.509   3.959  0.4491  0.5016  0.2500
 8285SOL    HW232872   5.427   3.539   3.937  0.8432  1.7398  0.2909
 8285SOL    HW332873   5.516   3.417   3.933 -0.4520  0.7948 -0.9144
 8285SOL    MW432874   5.503   3.501   3.953 -0.1077 -0.3058  0.3046
 8286SOL     OW32875   4.884   1.673   1.943 -0.0861  0.0915 -0.1634
 8286SOL    HW232876   4.952   1.705   2.002 -1.5299  0.9917  1.0680
 8286SOL    HW332877   4.812   1.735   1.952 -1.4988 -1.4014 -0.6244
 8286SOL    MW432878   4.884   1.685   1.952  0.6751 -0.2488 -0.4715
 8287SOL     OW32879   0.713   3.348   3.613  0.3551  0.2340 -0.1850
 8287SOL    HW232880   0.647   3.304   3.667  0.3859 -0.7088 -0.8877
 8287SOL    HW332881   0.677   3.435   3.598 -1.0532 -0.4501 -1.0425
 8287SOL    MW432882   0.699   3.354   3.618  0.0196  0.1290 -0.6675
 8288SOL     OW32883   4.823   2.809   2.584 -0.3302  0.3455 -0.2706
 8288SOL    HW232884   4.888   2.780   2.521  1.6090  1.6157  1.0368
 8288SOL    HW332885   4.793   2.729   2.627  0.7844 -0.2207 -0.5305
 8288SOL    MW432886   4.827   2.795   2.582 -0.1454 -0.1677 -0.3684
 8289SOL     OW32887   5.679   0.904   3.357  0.3279 -0.2779 -0.2664
 8289SOL    HW232888   5.687   0.842   3.284  0.8715  0.5487 -0.9310
 8289SOL    HW332889   5.594   0.885   3.396 -0.5108  0.0711 -1.8754
 8289SOL    MW432890   5.669   0.893   3.353  0.0689  0.2645 -0.1649
 8290SOL     OW32891   0.597   3.439   6.105  0.2366  0.3628 -0.3657
 8290SOL    HW232892   0.537   3.419   6.034 -1.7008  0.2765  1.2021
 8290SOL    HW332893   0.637   3.354   6.128 -0.4204  0.0812 -0.2493
 8290SOL    MW432894   0.595   3.425   6.099 -0.3824  0.2744 -0.1969
 8291SOL     OW32895   1.160   0.691   2.250 -0.0421 -0.1944  0.4229
 8291SOL    HW232896   1.232   0.638   2.287  1.4026  0.3342 -1.4658
 8291SOL    HW332897   1.134   0.644   2.170 -0.4427  0.6505  0.0424
 8291SOL    MW432898   1.166   0.678   2.244  0.2680 -0.2149  0.2658
 8292SOL     OW32899   5.706   3.083   4.459  0.4093 -0.2796 -0.4121
 8292SOL    HW232900   5.614   3.107   4.448  0.8332  1.0856 -1.2969
 8292SOL    HW332901   5.705   2.991   4.484 -1.1890 -0.3438 -0.6560
 8292SOL    MW432902   5.694   3.074   4.461 -0.1725 -0.1800  0.0887
 8293SOL     OW32903   4.270   3.099   3.158 -0.5289  0.3860 -0.2588
 8293SOL    HW232904   4.294   3.163   3.091 -2.1276  0.4054 -0.8617
 8293SOL    HW332905   4.240   3.023   3.108  0.2884 -0.4265  0.4537
 8293SOL    MW432906   4.269   3.098   3.142 -0.1418  0.2850  0.3716
 8294SOL     OW32907   5.392   2.976   6.070 -0.3216 -0.0475  0.0787
 8294SOL    HW232908   5.386   2.926   6.151 -1.6094  0.6231  0.4303
 8294SOL    HW332909   5.355   2.918   6.003  1.2870 -0.8322 -0.1796
 8294SOL    MW432910   5.386   2.961   6.072  0.7705 -0.1637  0.0560
 8295SOL     OW32911   4.336   1.043   1.913 -0.2092 -0.3893  0.8139
 8295SOL    HW232912   4.338   1.106   1.842 -1.6202 -1.4272 -0.1927
 8295SOL    HW332913   4.392   0.971   1.884 -0.2004 -0.4896  1.0715
 8295SOL    MW432914   4.343   1.042   1.900 -0.3111  0.4579  0.3000
 8296SOL     OW32915   2.536   2.999   5.384  0.3053  0.2371  0.4968
 8296SOL    HW232916   2.471   2.948   5.336  0.8686  0.0570 -0.0921
 8296SOL    HW332917   2.487   3.074   5.418  0.0601  0.8805 -1.1702
 8296SOL    MW432918   2.521   3.003   5.382  0.0973 -0.0953 -0.2300
 8297SOL     OW32919   2.968   0.254   2.386  0.1145 -0.1265 -0.1262
 8297SOL    HW232920   2.899   0.301   2.340  2.7749  0.5631 -3.8385
 8297SOL    HW332921   2.954   0.162   2.364  0.3073  0.0017 -0.8033
 8297SOL    MW432922   2.957   0.248   2.377 -0.6193  0.2624  0.7276
 8298SOL     OW32923   6.019   3.440   5.011 -0.3034  0.0184 -0.3740
 8298SOL    HW232924   6.033   3.482   4.925  0.0463 -0.8033 -0.7254
 8298SOL    HW332925   6.080   3.367   5.012 -2.1990 -1.6282 -0.5237
 8298SOL    MW432926   6.029   3.436   5.000  0.6873  0.9180  0.1199
 8299SOL     OW32927   3.801   1.782   3.317 -0.3547  0.1695 -0.3369
 8299SOL    HW232928   3.717   1.769   3.362 -0.7184 -1.8967 -1.5069
 8299SOL    HW332929   3.779   1.834   3.240 -0.7202 -1.0856 -1.0871
 8299SOL    MW432930   3.787   1.787   3.313 -0.3157  0.1910  0.3545
 8300SOL     OW32931   4.152   4.655   1.954 -0.4101 -0.8530  0.2486
 8300SOL    HW232932   4.169   4.561   1.959  1.0154 -0.6926 -0.8562
 8300SOL    HW332933   4.237   4.694   1.938 -0.9680  0.6570  0.7677
 8300SOL    MW432934   4.165   4.648   1.952  0.4126 -0.2429  0.6172
 8301SOL     OW32935   0.808   3.669   4.305 -0.3047 -0.1493 -0.7538
 8301SOL    HW232936   0.864   3.656   4.382 -1.2174 -0.8927 -0.2035
 8301SOL    HW332937   0.869   3.663   4.231  0.1640 -2.6605 -0.2787
 8301SOL    MW432938   0.824   3.666   4.305 -0.2667  0.0851  0.2177
 8302SOL     OW32939   3.257   5.184   1.332 -0.2632 -0.1757  0.1509
 8302SOL    HW232940   3.195   5.189   1.404  0.4036  1.5493  0.6359
 8302SOL    HW332941   3.238   5.260   1.277 -0.0254 -0.8426 -0.9032
 8302SOL    MW432942   3.247   5.195   1.334 -0.1188 -0.0477 -0.1115
 8303SOL     OW32943   4.820   4.768   4.071 -0.1222 -0.3403 -0.1835
 8303SOL    HW232944   4.900   4.800   4.031 -1.2724  1.2123 -1.3618
 8303SOL    HW332945   4.751   4.792   4.009 -1.5575 -1.2088  1.0128
 8303SOL    MW432946   4.821   4.775   4.057  0.6107  0.0130 -0.6801
 8304SOL     OW32947   4.949   4.086   3.807  0.2378 -0.3193 -0.0471
 8304SOL    HW232948   4.987   4.080   3.895 -0.6385 -0.9600  0.3064
 8304SOL    HW332949   4.995   4.159   3.765  0.5291  0.1176  1.0078
 8304SOL    MW432950   4.960   4.095   3.813  0.1705 -0.1439  0.6793
 8305SOL     OW32951   3.809   2.580   3.557 -0.3473  0.6487  0.3843
 8305SOL    HW232952   3.834   2.487   3.556  0.8875  0.9369  1.7058
 8305SOL    HW332953   3.739   2.585   3.622 -0.8880  0.5505 -0.1790
 8305SOL    MW432954   3.803   2.568   3.566  0.2178  0.0776  0.0558
 8306SOL     OW32955   5.530   1.659   4.678  0.3916 -0.4545 -0.5419
 8306SOL    HW232956   5.487   1.598   4.618 -2.0769 -1.4324  2.0010
 8306SOL    HW332957   5.466   1.728   4.691  1.1089  0.0305  0.4989
 8306SOL    MW432958   5.516   1.660   4.672  0.2404  0.2514  0.4077
 8307SOL     OW32959   0.289   2.164   1.936 -0.1093 -0.4001 -0.2483
 8307SOL    HW232960   0.339   2.232   1.890 -0.4259  0.7222  0.9714
 8307SOL    HW332961   0.200   2.174   1.904 -0.2071 -0.0361  0.1171
 8307SOL    MW432962   0.284   2.174   1.926  0.4734  0.1692 -0.0590
 8308SOL     OW32963   1.550   3.403   0.231 -0.1227 -0.2271 -0.0892
 8308SOL    HW232964   1.462   3.416   0.268 -0.4596  1.3817 -1.3449
 8308SOL    HW332965   1.595   3.485   0.248  1.1913 -1.0499  0.5687
 8308SOL    MW432966   1.544   3.415   0.238 -0.3130 -0.3837 -0.4934
 8309SOL     OW32967   4.884   4.893   6.209  0.2860  0.1147  0.4412
 8309SOL    HW232968   4.825   4.885   6.285  1.3834  0.6243  1.3830
 8309SOL    HW332969   4.849   4.832   6.145 -2.0195  1.2872  0.4632
 8309SOL    MW432970   4.871   4.884   6.211 -0.1749  0.4500  0.5587
 8310SOL     OW32971   5.084   6.319   3.699  0.7829 -0.2009 -0.0428
 8310SOL    HW232972   5.027   6.274   3.637  1.7354 -1.3054 -0.1653
 8310SOL    HW332973   5.030   6.389   3.736  0.1358  0.3506 -1.9528
 8310SOL    MW432974   5.069   6.322   3.696  0.4357  0.1966 -0.5054
 8311SOL     OW32975   1.567   2.084   3.551  0.5095  0.2144 -0.2339
 8311SOL    HW232976   1.599   2.010   3.500 -1.4856 -1.8209  1.2718
 8311SOL    HW332977   1.476   2.062   3.572  0.3375  2.3301  1.6879
 8311SOL    MW432978   1.559   2.071   3.547  0.0015  0.0679 -0.0308
 8312SOL     OW32979   2.675   3.165   2.166 -0.1652 -0.1620  0.0585
 8312SOL    HW232980   2.722   3.210   2.095 -1.0205  0.6513 -0.0189
 8312SOL    HW332981   2.583   3.166   2.138 -0.3760 -0.7151  0.7209
 8312SOL    MW432982   2.669   3.171   2.153 -0.9680  0.0456 -0.2695
 8313SOL     OW32983   5.807   2.416   4.572  0.1623 -0.0514 -0.7240
 8313SOL    HW232984   5.863   2.468   4.515 -0.7776  2.5747  0.5965
 8313SOL    HW332985   5.757   2.361   4.512  3.4794 -1.9678 -1.9749
 8313SOL    MW432986   5.808   2.416   4.557  0.3326 -0.5447  0.1117
 8314SOL     OW32987   4.263   3.483   1.240  0.0746  0.0483  0.2171
 8314SOL    HW232988   4.204   3.447   1.174  0.3987 -0.0993  0.0046
 8314SOL    HW332989   4.205   3.515   1.309 -0.2065 -3.7513  1.9952
 8314SOL    MW432990   4.248   3.483   1.241  0.6395  0.3276 -0.0357
 8315SOL     OW32991   1.750   3.180   0.236 -0.2017 -0.4176 -0.1996
 8315SOL    HW232992   1.692   3.256   0.225 -0.3723 -0.5914 -0.4841
 8315SOL    HW332993   1.725   3.144   0.322  0.7484  0.5984  0.5379
 8315SOL    MW432994   1.739   3.186   0.246  0.3124  0.2393 -0.1881
 8316SOL     OW32995   3.940   4.631   1.767  0.1789  0.4278 -0.0144
 8316SOL    HW232996   3.935   4.723   1.742  0.2710  0.7053  0.9311
 8316SOL    HW332997   4.021   4.624   1.817 -0.3417  0.0661  0.8053
 8316SOL    MW432998   3.950   4.642   1.770 -0.0442  0.2021  0.2374
 8317SOL     OW32999   2.507   3.701   5.573 -0.0316 -0.2064 -0.5781
 8317SOL    HW233000   2.496   3.758   5.649 -1.7533  0.5317 -1.3224
 8317SOL    HW333001   2.582   3.738   5.526  1.2717 -0.8674  0.8746
 8317SOL    MW433002   2.516   3.713   5.577 -0.3728 -0.3771  0.7611
 8318SOL     OW33003   0.537   5.455   0.791 -0.2517  0.2495 -0.1703
 8318SOL    HW233004   0.457   5.500   0.765 -2.6106 -2.2137  2.1789
 8318SOL    HW333005   0.543   5.471   0.886  1.4087 -0.5947 -0.1012
 8318SOL    MW433006   0.527   5.463   0.800 -0.0835  0.2162 -0.2512
 8319SOL     OW33007   0.336   5.344   0.423 -0.2368 -0.0676  0.2987
 8319SOL    HW233008   0.324   5.270   0.482 -0.3653  0.6924  1.2537
 8319SOL    HW333009   0.253   5.391   0.426  0.4987  1.2218  1.2996
 8319SOL    MW433010   0.324   5.340   0.431 -0.0257  0.1796 -0.2663
 8320SOL     OW33011   1.532   1.324   5.334 -0.4315  0.6317 -0.4439
 8320SOL    HW233012   1.500   1.285   5.415 -0.9807  2.8917  0.5110
 8320SOL    HW333013   1.455   1.366   5.296  0.0040  0.3058 -1.7162
 8320SOL    MW433014   1.518   1.325   5.340 -0.0556  0.2885  0.7660
 8321SOL     OW33015   3.401   3.756   0.758 -0.5299  0.5061 -0.2272
 8321SOL    HW233016   3.376   3.802   0.677 -0.3483 -1.0861 -1.2287
 8321SOL    HW333017   3.463   3.689   0.729  0.0664  0.3326  1.3512
 8321SOL    MW433018   3.406   3.753   0.743 -0.5862  0.3843  0.1393
 8322SOL     OW33019   4.403   0.777   3.156  0.5883  0.0814  0.4621
 8322SOL    HW233020   4.464   0.718   3.200 -0.5335 -0.3954  1.4391
 8322SOL    HW333021   4.319   0.731   3.160 -0.4096  1.9110  1.6095
 8322SOL    MW433022   4.400   0.763   3.162 -0.5933 -0.3358  0.3038
 8323SOL     OW33023   3.251   4.537   3.992 -0.5305  0.3148 -0.6466
 8323SOL    HW233024   3.287   4.570   4.075 -0.6142  2.0360 -1.2490
 8323SOL    HW333025   3.203   4.458   4.016 -1.8876  1.6134  1.2339
 8323SOL    MW433026   3.250   4.531   4.006  0.2065  0.3417  0.2858
 8324SOL     OW33027   3.765   2.694   5.505  0.1644 -0.3955 -0.5681
 8324SOL    HW233028   3.823   2.618   5.509  0.7006 -0.0206 -1.1360
 8324SOL    HW333029   3.746   2.715   5.597 -0.6550 -1.7035 -0.4040
 8324SOL    MW433030   3.770   2.686   5.518 -0.1950  0.3950 -0.5060
 8325SOL     OW33031   0.773   1.034   3.190  0.3008  0.2876  0.0961
 8325SOL    HW233032   0.678   1.037   3.197  0.3733  0.1327  1.3851
 8325SOL    HW333033   0.791   0.953   3.141 -0.2002 -0.0319  0.4348
 8325SOL    MW433034   0.763   1.024   3.184 -0.6612  0.4775 -0.5007
 8326SOL     OW33035   4.262   0.236   5.551  0.1307 -0.0511 -0.1006
 8326SOL    HW233036   4.246   0.241   5.457 -0.0221 -0.8430 -0.1277
 8326SOL    HW333037   4.203   0.167   5.582 -0.4475  0.8026  0.7262
 8326SOL    MW433038   4.252   0.227   5.543  0.0298  0.5710 -0.0712
 8327SOL     OW33039   3.602   1.133   1.991 -0.3294 -0.4197 -0.0753
 8327SOL    HW233040   3.652   1.070   1.938 -0.3889 -0.6616  0.1519
 8327SOL    HW333041   3.511   1.116   1.969 -0.4742 -1.5882  1.2239
 8327SOL    MW433042   3.597   1.122   1.981 -0.1495  0.0618 -0.4055
 8328SOL     OW33043   0.360   6.099   4.585 -0.0513  0.2034 -0.2049
 8328SOL    HW233044   0.433   6.158   4.602  0.4766 -0.8008  1.3195
 8328SOL    HW333045   0.401   6.012   4.581 -1.2273 -0.5292  1.8927
 8328SOL    MW433046   0.375   6.095   4.587 -0.0814  0.4940 -0.1850
 8329SOL     OW33047   4.184   1.628   2.107 -0.3405 -0.5350 -0.1347
 8329SOL    HW233048   4.116   1.643   2.172 -0.6078  0.8021 -0.6871
 8329SOL    HW333049   4.164   1.541   2.071 -1.0990 -0.6253  0.4672
 8329SOL    MW433050   4.172   1.618   2.111 -0.3181 -0.0184 -0.6300
 8330SOL     OW33051   0.401   0.755   1.582  0.0169  0.3339 -0.2125
 8330SOL    HW233052   0.462   0.810   1.532  0.4322  0.4723  0.4290
 8330SOL    HW333053   0.320   0.805   1.585  0.1945  0.6232 -0.1858
 8330SOL    MW433054   0.399   0.769   1.576 -0.4350 -0.1746 -0.1110
 8331SOL     OW33055   6.208   1.112   4.491 -0.2975  0.4078  0.4305
 8331SOL    HW233056   6.236   1.198   4.522 -1.8625  0.4948  1.7405
 8331SOL    HW333057   6.246   1.104   4.404  0.8561  1.9193  0.7502
 8331SOL    MW433058   6.217   1.122   4.484  0.1096  0.2925 -0.1854
 8332SOL     OW33059   5.938   0.664   4.812 -0.1349  0.3019 -0.7593
 8332SOL    HW233060   5.993   0.594   4.778 -0.0764  0.0816 -0.2207
 8332SOL    HW333061   5.998   0.736   4.829 -0.2109  0.5265 -1.4164
 8332SOL    MW433062   5.953   0.664   4.810  0.3343  0.5053 -0.2084
 8333SOL     OW33063   3.415   6.005   3.464 -0.3104 -0.0413  0.0237
 8333SOL    HW233064   3.444   5.919   3.432  1.2108  0.5712 -0.3102
 8333SOL    HW333065   3.386   6.051   3.386 -0.2796  0.0660  0.0755
 8333SOL    MW433066   3.415   6.000   3.450 -0.2865  0.6455 -0.6485
 8334SOL     OW33067   6.126   3.195   2.133  0.1003  0.4950  0.1812
 8334SOL    HW233068   6.168   3.131   2.190  0.0636 -1.2765 -1.6698
 8334SOL    HW333069   6.059   3.235   2.188  0.6357 -0.4784  1.6191
 8334SOL    MW433070   6.123   3.192   2.148  0.0178  0.2879  0.4043
 8335SOL     OW33071   0.785   4.704   6.045  0.6261  0.2137  0.1297
 8335SOL    HW233072   0.826   4.648   5.979  0.9093 -0.2298  0.6650
 8335SOL    HW333073   0.859   4.747   6.088  0.3625  2.3354 -1.3800
 8335SOL    MW433074   0.800   4.702   6.042  0.1668  0.4294 -0.1181
 8336SOL     OW33075   3.720   4.763   4.353  0.5476  0.6520 -0.1465
 8336SOL    HW233076   3.709   4.731   4.264 -3.8299  1.2290  0.0047
 8336SOL    HW333077   3.753   4.853   4.342 -0.8230  1.0450 -1.2670
 8336SOL    MW433078   3.723   4.771   4.340 -0.0576 -0.4475  0.2760
 8337SOL     OW33079   2.278   3.554   3.655 -0.0150 -0.3406  0.1093
 8337SOL    HW233080   2.193   3.510   3.660 -0.9345  1.0447 -1.9699
 8337SOL    HW333081   2.280   3.611   3.732 -1.6946  0.7169 -0.5699
 8337SOL    MW433082   2.267   3.556   3.666  0.5397 -0.3480 -0.4400
 8338SOL     OW33083   3.262   2.538   4.912 -0.5034 -0.2366 -1.3796
 8338SOL    HW233084   3.251   2.552   4.818 -0.3523 -0.7534 -1.4796
 8338SOL    HW333085   3.280   2.444   4.920 -1.5088 -0.3859 -0.7396
 8338SOL    MW433086   3.263   2.527   4.901  0.0760  0.1303 -0.3936
 8339SOL     OW33087   4.814   5.288   4.773  0.4929 -0.2453  0.4312
 8339SOL    HW233088   4.824   5.340   4.853  0.0087  0.5117  0.0156
 8339SOL    HW333089   4.753   5.339   4.719 -0.4303 -1.5063  0.2256
 8339SOL    MW433090   4.807   5.302   4.776 -0.4359 -0.0864 -0.2892
 8340SOL     OW33091   3.095   3.428   0.860  0.1756  0.3384 -0.6447
 8340SOL    HW233092   3.003   3.435   0.835 -0.2028  1.4209  0.9252
 8340SOL    HW333093   3.136   3.380   0.788 -1.9268 -1.7167 -0.5729
 8340SOL    MW433094   3.089   3.423   0.847  0.1462  0.7966 -0.5942
 8341SOL     OW33095   3.095   0.907   5.307  0.0700 -0.3063 -0.2896
 8341SOL    HW233096   3.186   0.904   5.279  0.0893 -2.6518 -0.1910
 8341SOL    HW333097   3.075   0.817   5.331 -1.4399  0.6477  2.4443
 8341SOL    MW433098   3.104   0.895   5.307 -0.1236  0.1637 -0.1102
 8342SOL     OW33099   1.948   1.265   0.809  0.0996  0.1180  0.6382
 8342SOL    HW233100   2.015   1.223   0.755  0.1388 -1.4773  1.8344
 8342SOL    HW333101   1.950   1.357   0.783  1.3502 -0.2635 -0.7668
 8342SOL    MW433102   1.957   1.271   0.799  0.2793  0.1763 -0.1624
 8343SOL     OW33103   1.152   5.509   4.268 -0.1214  0.0359  0.2937
 8343SOL    HW233104   1.071   5.555   4.289  0.0136  1.6600 -2.1977
 8343SOL    HW333105   1.201   5.505   4.350 -1.6590  1.2502  1.3110
 8343SOL    MW433106   1.148   5.514   4.281  0.0503 -0.1927 -0.2583
 8344SOL     OW33107   5.890   4.261   0.668 -0.1742 -0.4098  0.2602
 8344SOL    HW233108   5.843   4.342   0.651  0.2652  0.1378  1.5493
 8344SOL    HW333109   5.822   4.194   0.669 -0.7359  0.1582  0.6472
 8344SOL    MW433110   5.875   4.263   0.666  0.7549 -0.6554 -0.6010
 8345SOL     OW33111   5.473   2.647   5.626 -0.1285  0.9005 -0.1032
 8345SOL    HW233112   5.407   2.684   5.568  0.3008  2.4500  0.3550
 8345SOL    HW333113   5.548   2.707   5.620  0.5464  0.1879  0.7818
 8345SOL    MW433114   5.475   2.660   5.618 -0.1117 -0.4258 -0.2712
 8346SOL     OW33115   3.303   2.961   0.997  0.3889 -0.3159 -0.0266
 8346SOL    HW233116   3.297   2.895   1.067  0.7846 -0.0266  0.2849
 8346SOL    HW333117   3.357   3.031   1.034  0.9271 -0.3308 -0.7571
 8346SOL    MW433118   3.309   2.961   1.011  0.5150 -0.4327 -0.2611
 8347SOL     OW33119   6.047   5.284   2.496 -0.3235  0.5224 -0.0815
 8347SOL    HW233120   6.093   5.220   2.551 -2.9500  0.5366  2.3746
 8347SOL    HW333121   6.108   5.357   2.488  1.1936 -0.6241  0.5077
 8347SOL    MW433122   6.061   5.285   2.502  0.8020 -0.0838  0.7284
 8348SOL     OW33123   6.292   1.516   3.298 -0.0059  0.1277 -0.1481
 8348SOL    HW233124   6.323   1.502   3.208 -0.4553 -0.2391 -0.2479
 8348SOL    HW333125   6.236   1.441   3.316 -2.1303  1.5255 -0.5404
 8348SOL    MW433126   6.289   1.505   3.288 -0.1811 -0.1255 -0.0330
 8349SOL     OW33127   2.042   1.100   1.277 -0.2116 -0.1490  0.7477
 8349SOL    HW233128   2.055   1.008   1.255  1.4796 -0.1689  1.6509
 8349SOL    HW333129   1.978   1.132   1.213  2.1572 -0.9423 -2.2642
 8349SOL    MW433130   2.035   1.092   1.265  0.4665 -0.4050  0.2875
 8350SOL     OW33131   2.247   2.664   3.954 -0.0289  0.0875 -0.2526
 8350SOL    HW233132   2.279   2.612   4.028 -1.4610  0.0801  0.4102
 8350SOL    HW333133   2.318   2.662   3.890  1.1140 -0.1854  0.9815
 8350SOL    MW433134   2.260   2.657   3.955  0.7074 -0.3472  0.6437
 8351SOL     OW33135   3.900   4.166   0.391  0.0785  0.2365  0.1510
 8351SOL    HW233136   3.866   4.255   0.393  1.5959  0.8862 -0.8041
 8351SOL    HW333137   3.975   4.170   0.330  0.3914 -1.6062  0.3403
 8351SOL    MW433138   3.906   4.178   0.383  0.4322 -0.4488  0.2651
 8352SOL     OW33139   3.059   2.358   6.360  0.5295  0.0583 -0.1349
 8352SOL    HW233140   2.984   2.347   6.302  1.5841 -0.7268 -1.4214
 8352SOL    HW333141   3.052   2.285   6.421  0.8779 -0.7240 -1.0067
 8352SOL    MW433142   3.048   2.347   6.360 -0.0193  0.8819 -0.2428
 8353SOL     OW33143   6.302   2.734   1.415  0.2487 -0.0163 -0.3078
 8353SOL    HW233144   6.293   2.737   1.320  3.0132 -3.5103 -0.9102
 8353SOL    HW333145   6.267   2.649   1.440  1.5863 -0.1213  1.4437
 8353SOL    MW433146   6.296   2.723   1.406 -0.3445  0.9271 -0.3356
 8354SOL     OW33147   2.089   0.795   5.678 -0.2867  0.0344 -0.9330
 8354SOL    HW233148   2.000   0.806   5.713  0.4627  1.2840  0.7001
 8354SOL    HW333149   2.076   0.752   5.593 -2.3938 -0.4981 -0.4055
 8354SOL    MW433150   2.075   0.791   5.671 -0.0336 -0.2647  0.2117
 8355SOL     OW33151   3.377   0.932   5.203  0.0860  0.2753 -0.1967
 8355SOL    HW233152   3.365   1.022   5.174 -0.9036  0.4307  0.6484
 8355SOL    HW333153   3.471   0.917   5.196  0.6191  2.1966  1.9412
 8355SOL    MW433154   3.388   0.942   5.198 -0.1237  0.5731  0.6722
 8356SOL     OW33155   3.422   2.649   6.369 -0.1562  0.5696 -0.1794
 8356SOL    HW233156   3.516   2.643   6.351 -0.1527  1.7692 -0.6584
 8356SOL    HW333157   3.381   2.607   6.293 -0.0159  0.7333 -0.3486
 8356SOL    MW433158   3.429   2.643   6.356  0.1784 -0.2709  0.2048
 8357SOL     OW33159   0.916   1.860   3.529  0.4837 -0.8036  0.2221
 8357SOL    HW233160   0.834   1.910   3.532  1.1968  0.3716  1.2050
 8357SOL    HW333161   0.894   1.774   3.563 -0.0917 -0.0908  1.7198
 8357SOL    MW433162   0.903   1.856   3.534 -0.0666  0.1945 -0.5102
 8358SOL     OW33163   1.036   4.539   2.859  0.2333 -0.3470 -1.2157
 8358SOL    HW233164   0.941   4.548   2.869 -0.0785 -1.2863 -3.0610
 8358SOL    HW333165   1.060   4.467   2.917 -0.1409 -0.0353 -0.6634
 8358SOL    MW433166   1.027   4.531   2.868  0.4573  0.1212  0.8466
 8359SOL     OW33167   2.726   4.888   2.525  0.4090 -0.3719 -0.9053
 8359SOL    HW233168   2.670   4.868   2.450 -1.8245  1.0792  0.2800
 8359SOL    HW333169   2.812   4.908   2.486 -0.3006 -0.9988 -2.9213
 8359SOL    MW433170   2.730   4.888   2.510 -0.4216 -0.1526  0.3182
 8360SOL     OW33171   1.657   3.752   0.552  0.1252 -0.1252  0.3108
 8360SOL    HW233172   1.681   3.707   0.472  0.5846  0.2192  0.2494
 8360SOL    HW333173   1.585   3.701   0.588  0.7453 -1.0008  0.3356
 8360SOL    MW433174   1.651   3.739   0.546  0.3646  1.1366 -0.5203
 8361SOL     OW33175   1.655   4.335   0.353 -0.1101  0.4943 -0.1776
 8361SOL    HW233176   1.695   4.253   0.324 -1.2179 -0.4153  0.7833
 8361SOL    HW333177   1.607   4.367   0.276  0.0118  0.0350 -0.4450
 8361SOL    MW433178   1.654   4.329   0.339  0.0108  0.2245  0.0465
 8362SOL     OW33179   2.991   0.148   5.416 -0.1352  0.2956 -0.2633
 8362SOL    HW233180   2.934   0.147   5.339  1.7331  1.4716 -1.7349
 8362SOL    HW333181   3.076   0.118   5.383  0.8236  1.2571  1.2359
 8362SOL    MW433182   2.995   0.144   5.402  0.1269 -0.3952  0.7216
 8363SOL     OW33183   5.417   1.260   0.205  0.5584  0.1559 -0.3335
 8363SOL    HW233184   5.465   1.230   0.127 -1.2177  0.8397 -1.7667
 8363SOL    HW333185   5.468   1.333   0.238  0.5437  0.8778 -1.8282
 8363SOL    MW433186   5.430   1.265   0.199  0.7360  0.0883  0.2788
 8364SOL     OW33187   4.009   1.049   0.144  0.1134 -0.3088  0.0765
 8364SOL    HW233188   3.970   0.986   0.084  0.8031 -0.5462 -0.1260
 8364SOL    HW333189   4.082   1.087   0.095 -1.0858  1.6341 -0.3135
 8364SOL    MW433190   4.014   1.046   0.130  0.3261 -0.5127 -0.4933
 8365SOL     OW33191   4.695   5.623   4.991  0.0365  0.5513 -0.2527
 8365SOL    HW233192   4.661   5.704   5.030 -0.1639  0.1884  0.3448
 8365SOL    HW333193   4.674   5.631   4.898 -0.8370  0.7704 -0.0483
 8365SOL    MW433194   4.688   5.634   4.984 -0.2499  0.0427 -0.4126
 8366SOL     OW33195   4.283   3.949   3.485  0.5104  0.3882 -0.1277
 8366SOL    HW233196   4.369   3.987   3.471  0.1003  0.9823 -1.1234
 8366SOL    HW333197   4.259   3.975   3.573  1.3285  0.2402  0.1475
 8366SOL    MW433198   4.291   3.957   3.495 -0.0953 -0.5355 -0.2201
 8367SOL     OW33199   2.982   0.238   5.078  0.0035 -0.0701 -0.3091
 8367SOL    HW233200   2.893   0.256   5.108  0.3076 -0.8789  1.1818
 8367SOL    HW333201   2.988   0.282   4.993 -2.6714 -2.0502 -1.7152
 8367SOL    MW433202   2.971   0.246   5.071  0.3947  0.2992 -0.2287
 8368SOL     OW33203   2.932   1.502   6.337 -0.0893 -0.1509  0.4735
 8368SOL    HW233204   2.970   1.589   6.326 -0.5046 -0.1598 -1.2963
 8368SOL    HW333205   2.969   1.450   6.265 -2.6407 -0.4189 -0.7527
 8368SOL    MW433206   2.942   1.507   6.326  0.2103  0.3724 -0.1629
 8369SOL     OW33207   3.043   1.837   1.427 -0.1636  0.3774 -0.0415
 8369SOL    HW233208   3.102   1.796   1.365 -0.1157  1.4497 -0.7205
 8369SOL    HW333209   3.097   1.898   1.476 -0.4982  0.6190  0.0347
 8369SOL    MW433210   3.058   1.840   1.426 -0.3451  0.3176 -0.2903
 8370SOL     OW33211   0.540   0.308   2.576  0.1105 -0.1663 -0.5332
 8370SOL    HW233212   0.588   0.323   2.495  0.2741  1.1805 -0.2135
 8370SOL    HW333213   0.527   0.213   2.579  0.4565 -0.2807 -1.9169
 8370SOL    MW433214   0.545   0.297   2.566 -0.3040 -0.1428  0.0898
 8371SOL     OW33215   0.989   5.154   4.889  0.3211  0.2424 -0.1773
 8371SOL    HW233216   1.009   5.211   4.963  1.0299  1.6162 -1.3684
 8371SOL    HW333217   1.064   5.096   4.881 -0.3443 -0.8303  0.9593
 8371SOL    MW433218   1.001   5.154   4.898 -0.5529  0.0199 -0.5489
 8372SOL     OW33219   0.342   3.476   6.322 -1.0116 -0.1293  0.1355
 8372SOL    HW233220   0.412   3.418   6.291 -2.0595 -0.9929 -0.6954
 8372SOL    HW333221   0.280   3.418   6.366 -0.5123  0.8228  2.2017
 8372SOL    MW433222   0.343   3.461   6.324 -0.2810 -0.0997  0.0432
 8373SOL     OW33223   0.836   0.696   5.510  0.4527  0.4113  0.1478
 8373SOL    HW233224   0.780   0.774   5.502  1.4882  1.0799 -0.8107
 8373SOL    HW333225   0.778   0.629   5.544 -0.7058  1.3440  0.0831
 8373SOL    MW433226   0.821   0.698   5.514 -0.0535 -0.2653  0.5722
 8374SOL     OW33227   4.532   2.748   4.567 -0.1303  0.1506  0.2210
 8374SOL    HW233228   4.520   2.742   4.472 -0.3456 -0.8728  0.2999
 8374SOL    HW333229   4.626   2.747   4.580 -0.0264  1.9516 -0.0529
 8374SOL    MW433230   4.543   2.747   4.556  0.6325 -0.4667  0.2301
 8375SOL     OW33231   4.491   0.609   1.023  0.2574  0.0735  0.0687
 8375SOL    HW233232   4.415   0.597   0.967  0.7174  0.8411 -0.7386
 8375SOL    HW333233   4.540   0.527   1.015  0.5764  0.3663 -1.0547
 8375SOL    MW433234   4.487   0.596   1.015 -0.2441 -0.4125  0.4604
 8376SOL     OW33235   4.068   2.077   2.381 -0.3199  0.1244 -0.0175
 8376SOL    HW233236   4.154   2.118   2.382 -0.7636  1.0979 -0.2697
 8376SOL    HW333237   4.061   2.038   2.295 -0.7769  1.5290 -0.6576
 8376SOL    MW433238   4.078   2.078   2.370  0.0836  0.2932  0.1768
 8377SOL     OW33239   2.855   6.385   4.350 -0.5368 -0.0448  0.5900
 8377SOL    HW233240   2.904   6.348   4.276  0.1456 -1.1442  1.5530
 8377SOL    HW333241   2.834   6.474   4.322 -0.8574 -0.6212 -1.1880
 8377SOL    MW433242   2.859   6.391   4.336 -0.0579  0.0670  0.0617
 8378SOL     OW33243   1.158   3.813   4.380  0.2307 -0.6523  0.3528
 8378SOL    HW233244   1.254   3.813   4.384  0.3491  1.8558 -0.9685
 8378SOL    HW333245   1.138   3.772   4.295  0.1477 -0.7712  0.4296
 8378SOL    MW433246   1.168   3.807   4.369  0.2242 -0.3452 -0.1215
 8379SOL     OW33247   1.008   6.009   5.615 -0.4150  0.0203  0.2988
 8379SOL    HW233248   1.048   5.979   5.534  0.8098  1.4695  0.3214
 8379SOL    HW333249   0.921   6.039   5.590 -0.3180 -0.2264 -0.3371
 8379SOL    MW433250   1.002   6.009   5.601  0.3842 -0.0801  0.0517
 8380SOL     OW33251   6.354   5.946   2.290 -0.7634  0.1976  0.4904
 8380SOL    HW233252   6.404   6.025   2.307  1.3517 -1.2923  1.5808
 8380SOL    HW333253   6.357   5.897   2.372 -0.2058 -1.9246 -0.7169
 8380SOL    MW433254   6.361   5.950   2.303 -0.3943 -0.1863  0.3021
 8381SOL     OW33255   2.949   6.056   3.765 -0.3566 -0.0548 -0.8049
 8381SOL    HW233256   2.863   6.093   3.785 -0.4093 -1.0603  1.0997
 8381SOL    HW333257   3.009   6.130   3.770 -1.2487  1.0310 -3.9644
 8381SOL    MW433258   2.946   6.071   3.768 -0.7441  0.3504 -0.2821
 8382SOL     OW33259   5.592   4.536   2.747  0.2319 -0.1557  0.3197
 8382SOL    HW233260   5.680   4.539   2.709  0.4737  1.2033  0.9070
 8382SOL    HW333261   5.607   4.507   2.837 -0.0843 -1.2186  0.0371
 8382SOL    MW433262   5.606   4.532   2.754 -0.3342  0.1243  0.2339
 8383SOL     OW33263   5.414   2.664   2.799 -0.4011  0.0524 -0.4692
 8383SOL    HW233264   5.369   2.724   2.740 -0.1476 -0.6682 -1.4179
 8383SOL    HW333265   5.507   2.684   2.787 -0.3800  0.4513  0.2975
 8383SOL    MW433266   5.420   2.674   2.790 -0.1172  0.5357 -0.3099
 8384SOL     OW33267   2.297   0.472   5.313  0.2456 -0.0350 -0.1121
 8384SOL    HW233268   2.370   0.520   5.273 -0.3130  0.6364 -0.3568
 8384SOL    HW333269   2.242   0.446   5.239 -0.5167  0.7517  0.1511
 8384SOL    MW433270   2.299   0.475   5.298 -0.4851 -0.3708 -0.0464
 8385SOL     OW33271   3.278   1.917   2.627  0.1022 -0.3376 -0.1000
 8385SOL    HW233272   3.188   1.929   2.656  0.0429  1.4738 -0.9442
 8385SOL    HW333273   3.292   1.822   2.632 -0.8781 -0.4509  2.8584
 8385SOL    MW433274   3.268   1.906   2.632  0.3043 -0.5423 -0.2274
 8386SOL     OW33275   5.255   3.129   1.132  0.2754 -0.3128 -0.0584
 8386SOL    HW233276   5.310   3.081   1.193 -0.0671  0.5436  0.9508
 8386SOL    HW333277   5.171   3.138   1.177  0.7636  2.4838  0.4544
 8386SOL    MW433278   5.251   3.124   1.146  0.1132 -0.0470  0.3708
 8387SOL     OW33279   3.125   4.842   0.933 -0.2537 -0.1723  0.3387
 8387SOL    HW233280   3.069   4.771   0.966  0.3655 -0.7026  0.2680
 8387SOL    HW333281   3.160   4.884   1.011 -0.3313 -0.1833  0.3791
 8387SOL    MW433282   3.122   4.838   0.947  0.3349  0.6060 -0.0017
 8388SOL     OW33283   5.127   2.143   3.097 -0.0777 -1.0505 -0.1803
 8388SOL    HW233284   5.041   2.152   3.138  0.3090 -1.3868  0.7231
 8388SOL    HW333285   5.133   2.217   3.036 -0.3305 -0.0440  0.9916
 8388SOL    MW433286   5.117   2.154   3.094  0.4890  0.1581 -0.3887
 8389SOL     OW33287   0.820   2.388   1.582  0.1999  0.1908  0.5936
 8389SOL    HW233288   0.853   2.323   1.645  1.5584  0.1813 -0.0909
 8389SOL    HW333289   0.832   2.472   1.626 -0.3020  0.0768  0.9530
 8389SOL    MW433290   0.826   2.390   1.597  0.2602 -0.0567  0.2488
 8390SOL     OW33291   1.289   2.084   3.006  0.2068 -0.1561  0.7617
 8390SOL    HW233292   1.369   2.049   3.045  1.4514  0.6312 -0.9520
 8390SOL    HW333293   1.267   2.022   2.937 -1.4650 -1.0651  2.0466
 8390SOL    MW433294   1.297   2.071   3.002  1.0226  0.3810 -0.3401
 8391SOL     OW33295   0.779   1.668   1.613 -0.0516 -0.7443  0.5507
 8391SOL    HW233296   0.797   1.746   1.560 -0.6323 -0.4385  0.7926
 8391SOL    HW333297   0.783   1.699   1.703 -0.4755 -0.9496  0.6443
 8391SOL    MW433298   0.782   1.683   1.618 -0.1378 -0.1790 -0.3744
 8392SOL     OW33299   2.719   6.324   2.584 -0.1499  0.0280 -0.5418
 8392SOL    HW233300   2.768   6.303   2.504 -0.3285 -3.7315  0.1594
 8392SOL    HW333301   2.784   6.364   2.642  0.7599  0.0228 -1.5252
 8392SOL    MW433302   2.734   6.326   2.581  0.1544 -0.0888 -0.4520
 8393SOL     OW33303   4.530   0.174   2.559  0.5014 -0.2414 -0.2484
 8393SOL    HW233304   4.566   0.216   2.636  0.0618 -0.5728  0.1441
 8393SOL    HW333305   4.559   0.083   2.565  0.0680 -0.3826 -0.2111
 8393SOL    MW433306   4.538   0.167   2.570  0.3728  0.5047 -0.0317
 8394SOL     OW33307   2.535   3.945   2.837  0.1155  0.2727 -0.5781
 8394SOL    HW233308   2.548   4.040   2.832  1.8601  0.5351  4.1216
 8394SOL    HW333309   2.624   3.909   2.838 -0.4529 -1.1589  0.2034
 8394SOL    MW433310   2.549   3.953   2.837  0.3431 -0.3204  0.4810
 8395SOL     OW33311   5.593   2.430   6.311  0.7619 -0.2205 -0.7322
 8395SOL    HW233312   5.663   2.407   6.250  0.5539 -0.3415 -0.9291
 8395SOL    HW333313   5.538   2.352   6.315  0.5765 -0.0877 -0.6659
 8395SOL    MW433314   5.595   2.417   6.303  0.4703 -0.2301  0.0579
 8396SOL     OW33315   2.526   0.898   4.810  0.2777 -0.3310  0.6798
 8396SOL    HW233316   2.487   0.975   4.852  0.9308  1.5236 -1.8684
 8396SOL    HW333317   2.606   0.930   4.770  0.2247 -2.1627 -1.0906
 8396SOL    MW433318   2.531   0.912   4.810 -0.5762  0.0948 -0.1630
 8397SOL     OW33319   3.608   1.403   1.935 -0.1919 -0.0583  0.5270
 8397SOL    HW233320   3.695   1.435   1.959  0.8137 -2.0650 -0.2305
 8397SOL    HW333321   3.611   1.309   1.950 -2.5921 -0.0689  1.4158
 8397SOL    MW433322   3.620   1.395   1.940 -0.3168 -0.0990 -0.2531
 8398SOL     OW33323   5.589   5.970   2.098  0.0351  0.2772 -0.3309
 8398SOL    HW233324   5.496   5.957   2.081  0.0577 -0.5729  0.1140
 8398SOL    HW333325   5.598   5.956   2.193  0.2354  2.8014  0.0709
 8398SOL    MW433326   5.578   5.966   2.109  0.6039 -0.1685 -0.6291
 8399SOL     OW33327   6.124   1.722   2.800  0.5339  0.3790 -0.3796
 8399SOL    HW233328   6.137   1.648   2.741  0.3989 -0.2267  0.3304
 8399SOL    HW333329   6.065   1.781   2.753  0.0747 -0.3005 -0.6698
 8399SOL    MW433330   6.118   1.720   2.786 -0.1290  0.2046  0.1452
 8400SOL     OW33331   1.775   0.788   3.681  0.3156 -0.0740 -0.0356
 8400SOL    HW233332   1.824   0.832   3.611 -1.6879 -0.8849 -2.0447
 8400SOL    HW333333   1.751   0.858   3.741  2.5315  0.5631  0.2025
 8400SOL    MW433334   1.778   0.803   3.680  0.3433 -0.7225  0.0550
 8401SOL     OW33335   4.818   5.119   4.061 -0.1385 -0.6215  0.0657
 8401SOL    HW233336   4.778   5.204   4.043  0.6286  0.0182  1.2324
 8401SOL    HW333337   4.785   5.095   4.147 -0.0842 -1.3554 -0.1112
 8401SOL    MW433338   4.808   5.127   4.070  0.5065 -0.2558 -0.4102
 8402SOL     OW33339   5.507   1.946   3.742 -0.3258  0.4883 -0.3153
 8402SOL    HW233340   5.429   1.915   3.788  0.3713  0.6217  1.0068
 8402SOL    HW333341   5.561   1.868   3.731  0.4701  0.8024  1.0851
 8402SOL    MW433342   5.504   1.932   3.747  0.5549 -0.0808 -0.4089
 8403SOL     OW33343   3.214   0.794   5.723 -0.0995  0.2211 -0.5396
 8403SOL    HW233344   3.247   0.849   5.652  1.3851 -1.8026 -1.5436
 8403SOL    HW333345   3.121   0.815   5.729  0.6788  4.2119  0.5297
 8403SOL    MW433346   3.206   0.804   5.714  0.2953 -0.1145 -0.6368
 8404SOL     OW33347   6.360   4.132   6.119 -0.0768  0.6873  0.3272
 8404SOL    HW233348   6.338   4.109   6.209 -1.0347 -1.7932 -0.4652
 8404SOL    HW333349   6.444   4.089   6.102 -0.8403 -0.5564 -0.5135
 8404SOL    MW433350   6.369   4.124   6.128 -0.3076 -0.3371 -0.0467
 8405SOL     OW33351   5.187   4.863   5.484  0.5423 -0.1888  0.3980
 8405SOL    HW233352   5.279   4.856   5.458  0.6734  1.2579  0.3662
 8405SOL    HW333353   5.183   4.945   5.533 -0.9083  0.2189 -0.3582
 8405SOL    MW433354   5.199   4.873   5.487  0.2231  0.3510  0.3087
 8406SOL     OW33355   5.824   5.777   4.608 -0.4718 -0.0519  0.3928
 8406SOL    HW233356   5.886   5.712   4.640 -0.5708 -0.4930 -0.2999
 8406SOL    HW333357   5.756   5.725   4.565 -0.1123  0.5526 -0.9262
 8406SOL    MW433358   5.823   5.761   4.607  0.3776 -0.2744  0.2374
 8407SOL     OW33359   2.604   2.464   2.320 -0.7361  0.4646 -0.2174
 8407SOL    HW233360   2.592   2.548   2.364 -0.3713  0.1702  0.4604
 8407SOL    HW333361   2.532   2.459   2.258 -1.0550  1.0543  0.0959
 8407SOL    MW433362   2.593   2.474   2.318  0.0067  0.1562  0.2278
 8408SOL     OW33363   5.211   1.363   1.754 -0.6138  0.0901  0.0675
 8408SOL    HW233364   5.290   1.331   1.710  0.7471  1.3786  1.4656
 8408SOL    HW333365   5.139   1.335   1.697  0.8674 -0.6630 -1.5255
 8408SOL    MW433366   5.212   1.355   1.741  0.3123 -0.7086 -0.1638
 8409SOL     OW33367   6.125   1.001   1.829 -0.5076  0.3995  0.2759
 8409SOL    HW233368   6.173   0.919   1.819  1.9257  1.3937  2.6608
 8409SOL    HW333369   6.073   1.008   1.749 -0.5892 -3.2573 -0.1713
 8409SOL    MW433370   6.125   0.991   1.818 -0.0496 -0.7669  0.1486
 8410SOL     OW33371   0.573   4.203   0.177  0.2994  0.3744 -0.5794
 8410SOL    HW233372   0.536   4.157   0.252 -0.6525 -0.0091 -1.2632
 8410SOL    HW333373   0.643   4.258   0.214  1.7928 -1.9100  0.2067
 8410SOL    MW433374   0.578   4.204   0.191  0.0869 -0.3206 -0.0818
 8411SOL     OW33375   0.408   0.480   1.453  0.0444 -0.2097 -0.1203
 8411SOL    HW233376   0.431   0.540   1.524  1.1467  1.0211 -1.4440
 8411SOL    HW333377   0.321   0.508   1.426 -0.2121 -0.4199  0.4650
 8411SOL    MW433378   0.400   0.492   1.459 -0.0738 -0.7307 -0.5779
 8412SOL     OW33379   3.824   2.607   5.855 -0.4808  0.1819 -0.3447
 8412SOL    HW233380   3.915   2.635   5.865 -1.2122  2.2004  1.1149
 8412SOL    HW333381   3.806   2.555   5.933 -0.3450 -1.0124 -1.0814
 8412SOL    MW433382   3.833   2.604   5.866  0.0048 -0.1902  0.1637
 8413SOL     OW33383   5.596   3.371   1.351  0.2323 -0.5801 -0.3597
 8413SOL    HW233384   5.559   3.436   1.292  0.6327 -0.9424 -1.0178
 8413SOL    HW333385   5.588   3.288   1.304  0.6378 -0.8619  0.0578
 8413SOL    MW433386   5.590   3.368   1.337  0.4109  0.8301  0.0755
 8414SOL     OW33387   0.303   4.765   2.786  0.0561 -0.0658  0.2324
 8414SOL    HW233388   0.311   4.736   2.695  1.7978  2.9116 -0.6826
 8414SOL    HW333389   0.256   4.848   2.781 -1.7455 -0.8463  2.3605
 8414SOL    MW433390   0.298   4.772   2.774  0.1060 -0.6954  0.5072
 8415SOL     OW33391   3.972   0.369   3.661 -0.2266 -0.1731 -0.2524
 8415SOL    HW233392   3.961   0.274   3.665 -0.4615 -0.1398 -0.1026
 8415SOL    HW333393   3.908   0.403   3.724 -1.0462  0.1568 -1.2544
 8415SOL    MW433394   3.962   0.361   3.670 -0.0815  0.3927 -0.5992
 8416SOL     OW33395   1.501   0.619   0.588  0.0839  0.1817  0.2931
 8416SOL    HW233396   1.475   0.638   0.678  2.0722 -3.1176  1.7920
 8416SOL    HW333397   1.432   0.561   0.555  0.3501 -0.2776  0.5169
 8416SOL    MW433398   1.488   0.614   0.596  0.3700 -0.1620 -0.7524
 8417SOL     OW33399   5.838   2.846   4.010  0.2295 -0.1455 -0.1064
 8417SOL    HW233400   5.808   2.759   3.986 -0.4131 -0.0135  0.1710
 8417SOL    HW333401   5.910   2.832   4.071  0.8477 -0.4773 -0.9140
 8417SOL    MW433402   5.843   2.833   4.015  0.0761  0.3781  0.1722
 8418SOL     OW33403   1.641   2.976   4.070 -0.3917  0.6815 -0.0473
 8418SOL    HW233404   1.702   2.906   4.047 -2.3497 -1.0040 -0.3803
 8418SOL    HW333405   1.558   2.950   4.031 -2.1598  1.2429  2.9755
 8418SOL    MW433406   1.638   2.964   4.062 -0.5905  0.0422  0.2406
 8419SOL     OW33407   5.549   4.155   2.272 -0.1844 -0.2175 -0.2245
 8419SOL    HW233408   5.537   4.104   2.351 -0.4108 -0.6579 -0.5386
 8419SOL    HW333409   5.460   4.173   2.241 -0.1900  1.7665  0.7517
 8419SOL    MW433410   5.536   4.151   2.278  0.0192  0.0883  0.0495
 8420SOL     OW33411   4.933   2.387   2.415 -0.1030  0.1050 -0.4493
 8420SOL    HW233412   5.011   2.344   2.451 -0.3377  1.0265  1.2350
 8420SOL    HW333413   4.925   2.350   2.327  0.0028 -2.9353  0.6791
 8420SOL    MW433414   4.943   2.376   2.408 -0.2489 -0.3237 -1.1422
 8421SOL     OW33415   5.307   5.492   1.524  0.8177 -0.3660 -0.2312
 8421SOL    HW233416   5.347   5.507   1.610  0.3403 -1.9696  0.3136
 8421SOL    HW333417   5.213   5.494   1.541  0.7166 -1.9531 -0.4304
 8421SOL    MW433418   5.300   5.494   1.538  0.4794  0.0204 -0.5488
 8422SOL     OW33419   2.742   3.542   2.220 -0.2695  0.3167  0.6793
 8422SOL    HW233420   2.663   3.516   2.267 -1.3070  2.5664  0.3319
 8422SOL    HW333421   2.710   3.571   2.134  1.2773 -1.2837 -0.4916
 8422SOL    MW433422   2.728   3.543   2.215  0.1816 -0.3717 -0.1991
 8423SOL     OW33423   0.833   2.016   5.403  0.1241 -0.6520  0.5488
 8423SOL    HW233424   0.772   1.944   5.387 -0.5135 -0.2706  1.2228
 8423SOL    HW333425   0.903   1.978   5.455  0.8992 -1.2854 -0.8889
 8423SOL    MW433426   0.834   2.002   5.408 -0.3041 -0.2272 -0.5724
 8424SOL     OW33427   3.655   2.220   5.118  0.4135 -0.6648 -0.5391
 8424SOL    HW233428   3.696   2.227   5.032 -1.1964  3.6231 -1.1957
 8424SOL    HW333429   3.669   2.306   5.159 -1.9613 -1.3200  1.9776
 8424SOL    MW433430   3.662   2.232   5.112  0.4748  0.0439 -0.5894
 8425SOL     OW33431   2.910   5.469   1.694 -0.2616  0.1290  0.2754
 8425SOL    HW233432   2.878   5.558   1.707  0.3437  0.4192 -0.1559
 8425SOL    HW333433   2.967   5.453   1.769  0.3408  0.4460 -0.1062
 8425SOL    MW433434   2.914   5.478   1.706  0.3080 -0.2735  0.4486
 8426SOL     OW33435   5.007   5.984   1.828  0.6032 -0.1976  0.7693
 8426SOL    HW233436   5.039   5.914   1.771  0.5995 -0.3045  0.8989
 8426SOL    HW333437   5.084   6.036   1.849  0.4788  0.3069  0.0244
 8426SOL    MW433438   5.021   5.981   1.823  0.6810 -0.0928 -0.6502
 8427SOL     OW33439   0.147   3.151   1.957 -0.3477  0.3126 -0.3686
 8427SOL    HW233440   0.155   3.056   1.945 -0.2609  0.3651 -0.7340
 8427SOL    HW333441   0.058   3.171   1.929 -0.4246  0.3143 -0.1242
 8427SOL    MW433442   0.136   3.141   1.951  0.3744  0.2170 -0.2319
 8428SOL     OW33443   1.328   2.447   0.614 -0.1013 -0.1081  0.0972
 8428SOL    HW233444   1.364   2.496   0.688 -0.4061 -0.1194  0.2554
 8428SOL    HW333445   1.334   2.355   0.641 -1.0898 -0.0708  0.5234
 8428SOL    MW433446   1.333   2.441   0.628 -0.3018 -0.1476  0.1053
 8429SOL     OW33447   4.021   1.269   4.287  0.3706 -0.6188  0.1198
 8429SOL    HW233448   3.931   1.282   4.257  0.3453 -0.4845  0.2541
 8429SOL    HW333449   4.051   1.356   4.314 -0.3105 -1.0319  2.4522
 8429SOL    MW433450   4.013   1.282   4.287 -0.2603  0.2622  0.1450
 8430SOL     OW33451   0.391   3.808   0.388 -0.4027 -0.2009 -0.0890
 8430SOL    HW233452   0.438   3.766   0.316 -0.3963  0.4302 -0.4591
 8430SOL    HW333453   0.336   3.874   0.346 -1.7082 -0.9765  0.3260
 8430SOL    MW433454   0.390   3.811   0.373  0.5698 -0.3830  0.1532
 8431SOL     OW33455   5.876   3.456   1.668 -0.2679 -0.1088  0.0531
 8431SOL    HW233456   5.927   3.526   1.628 -0.2595 -0.1135  0.0556
 8431SOL    HW333457   5.802   3.444   1.609 -0.4168  0.0923  0.1984
 8431SOL    MW433458   5.873   3.463   1.655 -0.4631 -0.3785  0.3822
 8432SOL     OW33459   2.970   0.130   1.211 -0.0822  0.1408  0.5129
 8432SOL    HW233460   2.887   0.114   1.258  0.3531  1.5603  1.8812
 8432SOL    HW333461   2.962   0.080   1.130 -1.4456 -1.3690  1.5105
 8432SOL    MW433462   2.958   0.121   1.207  0.4077  0.0104  0.4430
 8433SOL     OW33463   4.020   2.126   3.279  0.8773  0.2308 -0.9092
 8433SOL    HW233464   4.034   2.057   3.343 -0.2571 -1.0716 -2.0085
 8433SOL    HW333465   4.057   2.204   3.320  1.0010 -0.7300  0.9254
 8433SOL    MW433466   4.027   2.127   3.293  0.1454  0.2095 -0.2685
 8434SOL     OW33467   3.428   2.274   4.754  0.4602 -0.1718  0.1845
 8434SOL    HW233468   3.410   2.242   4.842 -0.0630 -0.8643 -0.1662
 8434SOL    HW333469   3.450   2.366   4.767  0.6307 -0.3238  1.0635
 8434SOL    MW433470   3.428   2.282   4.767 -0.2294 -0.0706  1.4966
 8435SOL     OW33471   2.996   1.154   6.179  0.5369 -0.0362 -0.5875
 8435SOL    HW233472   2.910   1.166   6.220  1.1747  3.1090  0.1533
 8435SOL    HW333473   3.048   1.107   6.245  0.6088  2.1002  1.0018
 8435SOL    MW433474   2.992   1.150   6.193  0.2463 -0.0575  0.2072
 8436SOL     OW33475   2.623   3.324   4.930 -0.2463 -0.2151 -0.3469
 8436SOL    HW233476   2.592   3.372   5.007 -2.5743  2.5605 -2.7698
 8436SOL    HW333477   2.570   3.244   4.928 -0.1633 -0.3103  0.8748
 8436SOL    MW433478   2.612   3.320   4.940  0.6156 -0.3705 -0.0615
 8437SOL     OW33479   0.433   2.595   3.086  0.3880 -0.2640 -0.0308
 8437SOL    HW233480   0.425   2.684   3.119  1.7810 -0.5020  1.0254
 8437SOL    HW333481   0.496   2.602   3.014  2.0518 -0.6702  1.3393
 8437SOL    MW433482   0.440   2.608   3.081 -0.1419 -0.4083 -0.3699
 8438SOL     OW33483   6.053   4.559   3.354 -0.5145  0.2200  0.2711
 8438SOL    HW233484   6.057   4.641   3.306  1.9220 -0.6340 -1.1449
 8438SOL    HW333485   5.964   4.526   3.337 -0.2375  0.6475 -2.5701
 8438SOL    MW433486   6.042   4.565   3.345  0.0657  0.0621 -0.6190
 8439SOL     OW33487   5.429   1.436   5.865  0.3075 -0.2273 -0.0427
 8439SOL    HW233488   5.481   1.379   5.807  2.0543 -1.6145  2.6711
 8439SOL    HW333489   5.456   1.525   5.840 -1.2669 -0.4954 -3.2738
 8439SOL    MW433490   5.440   1.440   5.854 -0.1357  0.0193 -0.5000
 8440SOL     OW33491   1.826   1.736   2.204 -0.3924  0.6009 -0.2082
 8440SOL    HW233492   1.770   1.670   2.245  0.5321  0.0216  0.1655
 8440SOL    HW333493   1.806   1.731   2.111  0.1953 -0.7442 -0.2816
 8440SOL    MW433494   1.816   1.727   2.197  0.1279  0.2078  0.3095
 8441SOL     OW33495   2.875   2.830   2.722  0.3518  0.0045  0.6132
 8441SOL    HW233496   2.967   2.811   2.701  0.0042  0.8555 -2.1883
 8441SOL    HW333497   2.839   2.747   2.750  1.8440 -0.4663  1.2540
 8441SOL    MW433498   2.883   2.817   2.723  0.2528 -0.2367 -0.0889
 8442SOL     OW33499   5.708   0.245   3.121 -0.2125 -0.0540 -0.4417
 8442SOL    HW233500   5.728   0.159   3.156  0.7226  0.1055 -0.5626
 8442SOL    HW333501   5.760   0.306   3.174 -0.3594  0.3704 -0.7756
 8442SOL    MW433502   5.717   0.242   3.133  0.3288  0.4313  0.0470
 8443SOL     OW33503   5.641   3.770   3.212 -0.0271  0.2465 -0.3057
 8443SOL    HW233504   5.575   3.718   3.258 -0.8115  0.6713 -0.9370
 8443SOL    HW333505   5.668   3.837   3.275 -0.3326  0.1867 -0.1118
 8443SOL    MW433506   5.636   3.772   3.226 -0.5635 -0.1299  0.3868
 8444SOL     OW33507   2.639   4.730   4.068 -0.7672 -0.1425 -0.0088
 8444SOL    HW233508   2.621   4.793   4.137  1.5389  0.4277  0.1595
 8444SOL    HW333509   2.678   4.782   3.997 -0.2478 -1.1436 -0.4877
 8444SOL    MW433510   2.642   4.745   4.067  0.1492  0.5700 -0.2830
 8445SOL     OW33511   4.849   6.276   1.972 -0.0622  0.2765 -0.1089
 8445SOL    HW233512   4.936   6.315   1.965 -0.2875  1.1478  1.4865
 8445SOL    HW333513   4.791   6.340   1.930 -0.1022  0.4312  0.1750
 8445SOL    MW433514   4.853   6.290   1.966  0.1635  0.3814 -0.0444
 8446SOL     OW33515   2.204   4.324   0.692 -0.1358  0.3801  0.0800
 8446SOL    HW233516   2.263   4.274   0.749  1.5872  0.4339 -1.5596
 8446SOL    HW333517   2.119   4.318   0.735  0.7831 -0.7965  1.8796
 8446SOL    MW433518   2.201   4.316   0.705  0.0951 -0.2836  0.0858
 8447SOL     OW33519   0.265   4.711   0.314  0.0742 -0.1455  0.3341
 8447SOL    HW233520   0.339   4.656   0.288  1.3862  1.0324  1.4486
 8447SOL    HW333521   0.267   4.709   0.410  1.1744  3.0653  0.4790
 8447SOL    MW433522   0.275   4.703   0.324  0.0343  0.7808  0.3561
 8448SOL     OW33523   5.158   5.007   3.728 -0.5146  0.0284  0.1220
 8448SOL    HW233524   5.084   5.066   3.708  1.3184  2.6066  0.3774
 8448SOL    HW333525   5.195   4.985   3.643  0.7251  2.0351  0.0679
 8448SOL    MW433526   5.153   5.012   3.714  0.1369  0.0161 -0.0073
 8449SOL     OW33527   5.599   1.280   5.723 -0.2410  0.2394 -0.2659
 8449SOL    HW233528   5.588   1.185   5.728 -1.1410  0.2552 -1.6992
 8449SOL    HW333529   5.669   1.299   5.787 -0.7576 -1.2387  0.7953
 8449SOL    MW433530   5.607   1.270   5.732  0.0064  0.6024 -0.1712
 8450SOL     OW33531   1.893   4.308   2.401 -0.3681 -0.0096  0.3183
 8450SOL    HW233532   1.834   4.315   2.476 -1.7328 -0.9990 -0.5973
 8450SOL    HW333533   1.886   4.216   2.374  0.1428  0.3041 -0.9634
 8450SOL    MW433534   1.884   4.296   2.407 -0.0194  0.1806  0.7512
 8451SOL     OW33535   4.413   3.545   5.185  0.5437 -0.1249 -0.3124
 8451SOL    HW233536   4.482   3.515   5.244  0.9426 -1.7548 -1.5406
 8451SOL    HW333537   4.436   3.508   5.100 -1.0132  0.6123 -1.0948
 8451SOL    MW433538   4.425   3.536   5.182 -0.3402 -0.0163  0.4763
 8452SOL     OW33539   0.353   1.052   1.835 -0.2102 -0.1871  0.2197
 8452SOL    HW233540   0.371   1.027   1.925 -1.6250 -1.6071  0.1501
 8452SOL    HW333541   0.434   1.034   1.788  0.8387  1.3940  1.3195
 8452SOL    MW433542   0.366   1.046   1.840  0.0689  0.3430 -0.2309
 8453SOL     OW33543   6.068   3.018   3.061 -0.3840 -0.2640  0.5751
 8453SOL    HW233544   6.145   3.074   3.052 -0.3360  0.0544  2.5166
 8453SOL    HW333545   5.994   3.078   3.055 -0.3382  0.0457  2.4177
 8453SOL    MW433546   6.069   3.033   3.059  0.1695 -0.5139  0.2994
 8454SOL     OW33547   4.490   2.057   6.149  0.3306 -0.2037  0.3005
 8454SOL    HW233548   4.435   2.110   6.206  1.8720  0.9764  0.7404
 8454SOL    HW333549   4.526   1.989   6.206  0.0691 -0.4205  0.2112
 8454SOL    MW433550   4.488   2.055   6.164  0.0204 -0.3372  0.3202
 8455SOL     OW33551   0.263   2.614   2.820  0.1526 -0.4707 -0.5672
 8455SOL    HW233552   0.307   2.699   2.820 -2.8564  1.3983  3.1673
 8455SOL    HW333553   0.303   2.566   2.893 -1.2603 -0.2856  0.3721
 8455SOL    MW433554   0.274   2.619   2.830  0.1448 -0.4716 -0.3173
 8456SOL     OW33555   4.383   3.340   2.641  0.1747 -0.5316  0.2317
 8456SOL    HW233556   4.335   3.393   2.704  0.1209  0.0343 -0.2729
 8456SOL    HW333557   4.323   3.331   2.567  1.4410  1.6814 -1.1664
 8456SOL    MW433558   4.369   3.346   2.639  0.3791 -0.1336  0.4478
 8457SOL     OW33559   2.875   6.133   6.035  0.0887  0.4880  0.4725
 8457SOL    HW233560   2.955   6.153   5.987 -0.0749 -0.4339 -0.2154
 8457SOL    HW333561   2.818   6.091   5.970  0.7003 -2.9397  1.9233
 8457SOL    MW433562   2.878   6.130   6.020 -0.5230 -0.0511  0.3731
 8458SOL     OW33563   4.370   2.032   4.435  0.1799  0.2324  0.1367
 8458SOL    HW233564   4.375   2.122   4.403 -1.1595 -0.1681 -1.3922
 8458SOL    HW333565   4.284   2.002   4.407  0.9249 -1.7963 -0.1662
 8458SOL    MW433566   4.359   2.040   4.427  0.4061  0.1507 -0.4616
 8459SOL     OW33567   0.109   4.468   2.911  0.2081 -0.3188 -0.8494
 8459SOL    HW233568   0.138   4.539   2.968  0.6432 -0.1111 -1.3228
 8459SOL    HW333569   0.173   4.398   2.924  0.3404 -0.2496 -1.1279
 8459SOL    MW433570   0.121   4.468   2.920  0.0947  0.1194  0.3677
 8460SOL     OW33571   0.232   1.943   2.121  0.1551  0.4367  0.3013
 8460SOL    HW233572   0.239   2.001   2.196  1.7331  0.5664  0.0869
 8460SOL    HW333573   0.221   2.002   2.046 -1.9510  0.2929  0.4387
 8460SOL    MW433574   0.231   1.959   2.121 -0.0594  0.2300 -0.2516
 8461SOL     OW33575   5.679   1.166   3.650  0.0005  0.3104 -0.4507
 8461SOL    HW233576   5.666   1.159   3.745  0.5724 -0.4124 -0.4216
 8461SOL    HW333577   5.720   1.252   3.638 -0.9233  0.8140 -0.1447
 8461SOL    MW433578   5.683   1.177   3.661  0.1330  1.0725 -0.6956
 8462SOL     OW33579   2.550   4.652   5.823 -0.1165 -0.5582  0.3191
 8462SOL    HW233580   2.605   4.575   5.810 -0.5937 -0.9267  0.4499
 8462SOL    HW333581   2.485   4.647   5.753 -0.3186 -0.4308  0.4957
 8462SOL    MW433582   2.549   4.641   5.812 -0.2388 -0.2840 -0.0291
 8463SOL     OW33583   0.091   1.398   5.101 -0.4498  0.4552 -0.1119
 8463SOL    HW233584  -0.004   1.400   5.108 -0.3665  0.0857  1.6087
 8463SOL    HW333585   0.115   1.312   5.135  0.4330 -0.1250 -2.0339
 8463SOL    MW433586   0.082   1.387   5.106  0.2648 -0.5211 -0.0390
 8464SOL     OW33587   2.453   0.228   1.050 -0.0595  0.0297  0.2959
 8464SOL    HW233588   2.496   0.308   1.021  1.1666  0.1240  2.1735
 8464SOL    HW333589   2.361   0.254   1.064 -0.6736  0.0301 -2.9565
 8464SOL    MW433590   2.446   0.242   1.048  0.2556  0.2394 -0.2721
 8465SOL     OW33591   0.438   2.836   3.227 -0.6120 -0.3501 -0.1663
 8465SOL    HW233592   0.347   2.864   3.218 -0.4757 -0.2046 -1.1281
 8465SOL    HW333593   0.489   2.918   3.223 -0.2823 -0.6140 -1.9856
 8465SOL    MW433594   0.433   2.851   3.225  0.0315 -0.0491 -0.6694
 8466SOL     OW33595   6.022   2.178   5.180  0.2155  0.1703  0.6639
 8466SOL    HW233596   6.052   2.099   5.226 -0.7208  0.1070  1.1975
 8466SOL    HW333597   6.002   2.147   5.092  0.6352 -0.0183  0.6324
 8466SOL    MW433598   6.023   2.163   5.175 -0.0652 -0.3896  0.2021
 8467SOL     OW33599   3.990   1.640   0.886 -0.0452  0.3504 -0.1146
 8467SOL    HW233600   4.034   1.721   0.911  2.5465 -1.4247  1.5322
 8467SOL    HW333601   3.897   1.656   0.904  0.5532  2.4814  1.4299
 8467SOL    MW433602   3.984   1.652   0.891 -0.3029  0.7836  0.1365
 8468SOL     OW33603   6.311   2.149   4.701  0.3951  0.1732  0.4465
 8468SOL    HW233604   6.230   2.187   4.735 -1.1765 -2.3688 -0.2361
 8468SOL    HW333605   6.334   2.080   4.763  2.0129  0.7621  0.5586
 8468SOL    MW433606   6.304   2.145   4.714  0.0824 -0.5821  0.0801
 8469SOL     OW33607   4.376   5.316   6.192 -0.2682 -0.3025 -0.3877
 8469SOL    HW233608   4.344   5.360   6.271 -0.3138 -1.4984  0.3003
 8469SOL    HW333609   4.412   5.386   6.138  0.7706  0.4558  1.1777
 8469SOL    MW433610   4.377   5.331   6.196  0.0238  0.1857 -0.0484
 8470SOL     OW33611   4.060   1.712   0.637  0.1363 -0.7846  0.4935
 8470SOL    HW233612   4.023   1.687   0.721 -3.6521  2.8046  0.1894
 8470SOL    HW333613   3.991   1.693   0.574  1.4919 -0.0941 -1.2873
 8470SOL    MW433614   4.046   1.706   0.640 -0.2826 -0.3611  0.1324
 8471SOL     OW33615   3.744   2.809   5.222  0.3056  0.0655  0.2463
 8471SOL    HW233616   3.674   2.870   5.244  0.4688  0.4203 -0.2197
 8471SOL    HW333617   3.755   2.756   5.302 -1.2847 -0.7790 -0.0608
 8471SOL    MW433618   3.737   2.810   5.236 -0.1044  0.5283 -0.2804
 8472SOL     OW33619   3.518   0.141   1.326  0.1533  0.1212  0.7271
 8472SOL    HW233620   3.423   0.147   1.312  0.2903  1.9831  0.3302
 8472SOL    HW333621   3.543   0.060   1.282 -1.2350 -0.3544  0.7437
 8472SOL    MW433622   3.508   0.131   1.318  0.0122  0.2097  0.4220
 8473SOL     OW33623   2.820   5.942   2.656 -0.0763 -0.0119 -0.0312
 8473SOL    HW233624   2.897   5.918   2.604  0.1629  0.5385  0.0656
 8473SOL    HW333625   2.750   5.955   2.591 -0.1834 -0.8366 -0.0957
 8473SOL    MW433626   2.821   5.940   2.640 -0.0640 -0.1394 -0.3083
 8474SOL     OW33627   4.428   6.084   5.848  0.2391  0.1213  0.2545
 8474SOL    HW233628   4.463   6.002   5.814 -0.5370 -0.7897  1.5600
 8474SOL    HW333629   4.341   6.092   5.809  1.0368  1.3402 -1.3787
 8474SOL    MW433630   4.421   6.074   5.839 -0.3522  0.2267  0.2348
 8475SOL     OW33631   0.274   6.320   6.090 -0.0321  0.4214 -0.2255
 8475SOL    HW233632   0.355   6.319   6.140 -0.2166  1.6865  0.1091
 8475SOL    HW333633   0.222   6.249   6.127  0.7643 -0.1600 -0.2001
 8475SOL    MW433634   0.278   6.310   6.101 -0.0525  0.4139 -0.0271
 8476SOL     OW33635   3.709   2.181   2.260 -0.5534  0.2139 -0.1643
 8476SOL    HW233636   3.736   2.124   2.188  2.8437  0.8311  0.4732
 8476SOL    HW333637   3.713   2.270   2.223  0.5359  0.4780  0.5396
 8476SOL    MW433638   3.713   2.185   2.246 -0.1047  0.3472 -0.7093
 8477SOL     OW33639   4.256   4.414   0.850  0.2808  0.3765  0.3378
 8477SOL    HW233640   4.164   4.418   0.824  0.1284  1.2683  0.9792
 8477SOL    HW333641   4.300   4.478   0.793  0.5307 -0.1078 -0.0256
 8477SOL    MW433642   4.250   4.423   0.839  0.4738 -0.3781 -0.1377
 8478SOL     OW33643   5.968   4.337   1.570  0.5528  0.0303  0.0113
 8478SOL    HW233644   6.011   4.298   1.646 -0.5941 -0.1845  0.5887
 8478SOL    HW333645   5.894   4.278   1.553 -1.6025  2.1814  1.2871
 8478SOL    MW433646   5.964   4.324   1.578  0.8029  0.5998 -0.0169
 8479SOL     OW33647   5.345   4.922   0.399 -0.3393  0.2583 -0.5533
 8479SOL    HW233648   5.268   4.979   0.391  0.0037  0.4957 -2.7007
 8479SOL    HW333649   5.397   4.941   0.321  1.0604 -1.1589 -0.0087
 8479SOL    MW433650   5.341   4.932   0.388 -0.0635  0.5092  0.0402
 8480SOL     OW33651   3.431   2.761   2.996  0.6587 -0.6582  0.2319
 8480SOL    HW233652   3.390   2.698   2.936  0.7172 -0.4767 -0.0022
 8480SOL    HW333653   3.470   2.707   3.064 -0.9985 -0.7903  1.1255
 8480SOL    MW433654   3.431   2.746   2.997 -0.1173 -0.0437  0.0633
 8481SOL     OW33655   2.258   2.662   4.968 -0.5625  0.2422  0.3506
 8481SOL    HW233656   2.177   2.633   5.009 -0.6949 -0.6821 -0.5337
 8481SOL    HW333657   2.229   2.713   4.892 -0.3162  0.2705  0.2756
 8481SOL    MW433658   2.243   2.665   4.963 -0.3457 -0.8143 -0.1608
 8482SOL     OW33659   5.425   4.872   1.289  0.2994  0.2411 -0.1010
 8482SOL    HW233660   5.437   4.810   1.361  1.5141 -0.0354 -0.5219
 8482SOL    HW333661   5.435   4.820   1.210  2.6180  1.1327 -0.4769
 8482SOL    MW433662   5.428   4.857   1.288  0.1942  0.1048  0.3578
 8483SOL     OW33663   2.251   6.180   4.696  0.3515 -0.2083  0.1266
 8483SOL    HW233664   2.158   6.161   4.706  0.8358 -3.4689 -0.3385
 8483SOL    HW333665   2.287   6.172   4.784  0.2632  0.7666  0.2605
 8483SOL    MW433666   2.244   6.176   4.709 -0.2960  0.1688  0.0797
 8484SOL     OW33667   5.806   4.102   1.540 -0.3647 -0.5945  0.3304
 8484SOL    HW233668   5.806   4.055   1.624  0.5335  0.1511  0.7613
 8484SOL    HW333669   5.858   4.047   1.482 -0.4851 -0.8170  0.4296
 8484SOL    MW433670   5.813   4.088   1.544 -0.2489 -0.2185  0.2220
 8485SOL     OW33671   2.337   4.148   4.955  0.1260 -0.5489  0.1068
 8485SOL    HW233672   2.413   4.121   4.904 -2.3891 -0.9120 -3.9457
 8485SOL    HW333673   2.328   4.081   5.023  1.6021 -2.3637 -1.3703
 8485SOL    MW433674   2.345   4.135   4.957  0.1482 -0.0139 -0.2903
 8486SOL     OW33675   0.284   0.632   2.440  0.5360 -0.1137 -0.1660
 8486SOL    HW233676   0.230   0.598   2.511 -0.6452 -1.3718 -1.5964
 8486SOL    HW333677   0.373   0.624   2.472 -0.0074  0.4714  1.6221
 8486SOL    MW433678   0.288   0.627   2.453  0.3193  0.3483 -0.4469
 8487SOL     OW33679   1.687   3.484   4.452  0.4044 -0.0154  0.1912
 8487SOL    HW233680   1.774   3.450   4.430  0.8635  2.6287 -2.8034
 8487SOL    HW333681   1.626   3.422   4.412  0.9460 -0.8594  0.6449
 8487SOL    MW433682   1.690   3.471   4.444  0.8567  0.0748  0.4173
 8488SOL     OW33683   3.707   0.909   1.823 -0.5118 -0.0514  0.4539
 8488SOL    HW233684   3.673   0.834   1.873  0.3066  1.1479  2.9674
 8488SOL    HW333685   3.663   0.903   1.738 -3.4440 -1.1488  1.9237
 8488SOL    MW433686   3.697   0.898   1.818 -0.3504  0.0253 -0.1521
 8489SOL     OW33687   5.732   3.721   1.779  0.2891  0.0127  0.1616
 8489SOL    HW233688   5.699   3.663   1.848 -0.3613 -0.2073 -0.3193
 8489SOL    HW333689   5.744   3.664   1.703  0.8695  0.2765  0.0485
 8489SOL    MW433690   5.729   3.706   1.778  0.2517 -0.1285 -0.1126
 8490SOL     OW33691   3.044   5.549   2.424 -0.1282  0.1676 -0.3322
 8490SOL    HW233692   3.123   5.602   2.431 -0.3639  0.4208  0.5163
 8490SOL    HW333693   2.973   5.613   2.423 -0.4113 -0.1175  0.6186
 8490SOL    MW433694   3.045   5.565   2.425 -0.0001 -0.0393 -0.3555
 8491SOL     OW33695   0.920   1.320   0.734 -0.1324 -0.5377  0.1569
 8491SOL    HW233696   0.966   1.285   0.810  0.1843 -0.5427 -0.0326
 8491SOL    HW333697   0.955   1.270   0.660  0.3526  0.1940 -0.1215
 8491SOL    MW433698   0.931   1.309   0.734  0.1294  0.2759  0.1752
 8492SOL     OW33699   4.165   1.006   3.650 -0.3745  0.4446  0.2517
 8492SOL    HW233700   4.116   0.923   3.651 -0.0902  0.2594 -0.4060
 8492SOL    HW333701   4.182   1.022   3.557 -1.8391  2.0877  0.2119
 8492SOL    MW433702   4.160   0.997   3.638 -0.1926 -0.1457  0.5866
 8493SOL     OW33703   0.710   4.980   3.358 -0.1703 -0.3317 -0.9794
 8493SOL    HW233704   0.771   4.999   3.429  1.3357  1.3098 -2.6026
 8493SOL    HW333705   0.755   4.913   3.306 -0.5566 -0.3844 -1.2531
 8493SOL    MW433706   0.724   4.973   3.360 -0.1234 -0.3204 -0.5024
 8494SOL     OW33707   4.612   0.847   0.965 -0.2983 -0.0549 -0.9156
 8494SOL    HW233708   4.544   0.892   0.914 -0.1550  0.2896 -0.8079
 8494SOL    HW333709   4.573   0.763   0.988 -0.5372 -0.0247 -1.1982
 8494SOL    MW433710   4.597   0.842   0.961  0.3972 -1.0030 -0.5403
 8495SOL     OW33711   1.849   4.123   0.552  0.1168 -0.2458  0.3759
 8495SOL    HW233712   1.869   4.201   0.500  0.7130 -0.5505  0.1332
 8495SOL    HW333713   1.758   4.102   0.531 -0.4380  1.0738  1.3586
 8495SOL    MW433714   1.840   4.130   0.542 -0.2992  0.0636  0.2538
 8496SOL     OW33715   3.091   5.040   3.903 -0.3370  0.1750 -0.0874
 8496SOL    HW233716   3.180   5.034   3.939  0.3241  2.8193 -1.0064
 8496SOL    HW333717   3.034   5.020   3.977  1.0183 -0.3467  0.8611
 8496SOL    MW433718   3.095   5.037   3.918  0.0929  0.4605  0.6045
 8497SOL     OW33719   5.103   4.863   1.425 -0.4943 -0.0505 -0.2255
 8497SOL    HW233720   5.136   4.882   1.337  0.1278 -1.0991 -0.2249
 8497SOL    HW333721   5.084   4.770   1.424  1.3694 -0.5067  1.3364
 8497SOL    MW433722   5.105   4.853   1.413  0.1111  0.1860  0.4121
 8498SOL     OW33723   5.386   3.012   1.361  0.5920  0.4157 -0.3078
 8498SOL    HW233724   5.420   2.925   1.383  0.1549  0.1873 -0.5168
 8498SOL    HW333725   5.411   3.067   1.436  0.0366 -0.1125  0.2835
 8498SOL    MW433726   5.394   3.008   1.374  0.5897  0.0162 -0.4742
 8499SOL     OW33727   3.674   1.197   2.252 -0.3019 -0.0658  0.0616
 8499SOL    HW233728   3.645   1.287   2.265 -0.5982  0.1181 -1.6536
 8499SOL    HW333729   3.634   1.171   2.169 -0.1978 -1.7751  0.5142
 8499SOL    MW433730   3.665   1.205   2.243 -0.5809 -0.2022  0.1126
 8500SOL     OW33731   4.081   0.126   2.837  0.2784  0.2442  0.0627
 8500SOL    HW233732   4.096   0.209   2.791 -0.3276  0.1588 -0.3054
 8500SOL    HW333733   3.998   0.139   2.883 -0.5745 -0.6416 -1.1710
 8500SOL    MW433734   4.072   0.139   2.837 -0.7303  0.4916  0.3473
 8501SOL     OW33735   5.161   2.241   2.530  0.2521 -0.1402  0.1911
 8501SOL    HW233736   5.216   2.219   2.455 -0.4180  2.0955 -1.0628
 8501SOL    HW333737   5.218   2.295   2.586  0.3105 -0.5786  0.5566
 8501SOL    MW433738   5.176   2.245   2.527 -0.9561  0.5575 -0.0860
 8502SOL     OW33739   5.531   4.929   0.591  0.5678  0.1621  1.0630
 8502SOL    HW233740   5.573   5.002   0.545  0.9512 -1.0693 -0.6133
 8502SOL    HW333741   5.451   4.913   0.541 -0.0018  0.0301  1.9955
 8502SOL    MW433742   5.526   4.937   0.578 -0.6771  0.0163  0.4291
 8503SOL     OW33743   0.936   2.326   4.321  0.4065  0.6644 -0.2041
 8503SOL    HW233744   0.949   2.374   4.403  1.0196  1.1067 -0.5462
 8503SOL    HW333745   0.948   2.392   4.253  0.8668  0.1087 -0.6767
 8503SOL    MW433746   0.939   2.341   4.323 -0.3629 -0.0168  0.2105
 8504SOL     OW33747   1.293   3.920   0.857  0.1130  0.0982 -0.1410
 8504SOL    HW233748   1.215   3.958   0.897  0.0983 -0.2983  0.2140
 8504SOL    HW333749   1.267   3.831   0.833  0.2945  0.1428 -0.5188
 8504SOL    MW433750   1.279   3.913   0.859 -0.8239 -0.6911 -0.4157
 8505SOL     OW33751   5.284   0.821   0.851  0.3635 -0.5776  0.2786
 8505SOL    HW233752   5.202   0.832   0.803  0.4136 -0.6015  0.1870
 8505SOL    HW333753   5.259   0.827   0.943  0.2854 -0.4011  0.2468
 8505SOL    MW433754   5.270   0.823   0.857 -0.1949  0.0848 -0.2450
 8506SOL     OW33755   3.099   2.825   5.884  0.4112  0.1201  0.3870
 8506SOL    HW233756   3.040   2.896   5.855  0.4722  0.1965  0.4507
 8506SOL    HW333757   3.178   2.837   5.832  0.7822  0.6692  1.0666
 8506SOL    MW433758   3.101   2.836   5.873 -0.1224 -0.0235  0.2764
 8507SOL     OW33759   5.225   5.035   5.902  0.5018 -0.7630  0.0771
 8507SOL    HW233760   5.148   4.981   5.919  0.0934 -0.5015 -0.8747
 8507SOL    HW333761   5.276   4.986   5.838  1.6602 -1.4037  1.4280
 8507SOL    MW433762   5.221   5.022   5.896  0.2880  0.7301  0.0399
 8508SOL     OW33763   3.802   2.371   3.283 -0.4599 -0.1840  0.1102
 8508SOL    HW233764   3.810   2.295   3.226 -0.7677 -1.4412  1.6835
 8508SOL    HW333765   3.826   2.339   3.370  0.9255  1.8887  0.5696
 8508SOL    MW433766   3.806   2.357   3.287  0.5592 -0.2734 -0.1885
 8509SOL     OW33767   2.317   5.038   1.854 -0.3510 -0.2824 -0.3061
 8509SOL    HW233768   2.222   5.036   1.864 -0.1536 -0.5001  2.0340
 8509SOL    HW333769   2.331   5.058   1.762 -2.6676  1.8409 -0.3002
 8509SOL    MW433770   2.307   5.041   1.843 -0.1802  0.6778  0.0046
 8510SOL     OW33771   2.611   3.518   1.971 -0.3007  0.2936 -0.1473
 8510SOL    HW233772   2.622   3.500   1.878 -1.7167 -2.2403  0.0713
 8510SOL    HW333773   2.552   3.449   2.002  0.5237  0.7428  2.7455
 8510SOL    MW433774   2.604   3.507   1.963  0.2883 -0.4594 -0.3127
 8511SOL     OW33775   5.113   5.611   2.942  0.3977  0.3448  0.5862
 8511SOL    HW233776   5.021   5.638   2.944  0.4541  0.7514 -0.8241
 8511SOL    HW333777   5.161   5.684   2.983  0.4067  1.8582 -1.9043
 8511SOL    MW433778   5.107   5.624   2.948 -0.1719  0.3825  0.4688
 8512SOL     OW33779   2.346   5.451   0.853 -0.7393 -0.5188  0.1724
 8512SOL    HW233780   2.301   5.371   0.825 -1.3809  0.0821 -0.5689
 8512SOL    HW333781   2.394   5.425   0.932 -0.4464 -1.7853 -0.3858
 8512SOL    MW433782   2.346   5.437   0.860  0.2086  0.0861 -0.3547
 8513SOL     OW33783   0.954   4.880   1.969  0.4893 -0.1929  0.1456
 8513SOL    HW233784   0.870   4.870   1.924  0.4881 -0.4641  0.2036
 8513SOL    HW333785   0.931   4.879   2.062  0.6484 -1.2384  0.1868
 8513SOL    MW433786   0.940   4.878   1.975 -0.2572  0.5189  0.2680
 8514SOL     OW33787   3.610   5.742   5.119  0.5437 -0.5489  0.6134
 8514SOL    HW233788   3.550   5.805   5.080 -1.0839 -2.0776  0.5504
 8514SOL    HW333789   3.697   5.781   5.107  0.0385 -0.2646 -3.2650
 8514SOL    MW433790   3.614   5.755   5.112 -0.0143 -0.5166  0.2106
 8515SOL     OW33791   5.739   4.792   3.425  0.3118  0.3355  0.3662
 8515SOL    HW233792   5.745   4.754   3.512  0.7352  0.6362  0.4695
 8515SOL    HW333793   5.689   4.728   3.374  0.3559  0.0041  0.7393
 8515SOL    MW433794   5.733   4.779   3.429 -0.0015 -0.1065 -0.2099
 8516SOL     OW33795   6.333   5.512   4.976 -0.5449 -0.8374  0.4130
 8516SOL    HW233796   6.414   5.486   5.021 -0.6619 -1.9437  0.0003
 8516SOL    HW333797   6.363   5.548   4.893 -0.1441  3.3187  2.1187
 8516SOL    MW433798   6.348   5.513   4.971 -0.1226 -0.2126 -1.0625
 8517SOL     OW33799   0.485   4.290   3.757  0.0693  0.2202  0.7256
 8517SOL    HW233800   0.500   4.204   3.798 -0.7179  0.3735  1.3678
 8517SOL    HW333801   0.421   4.272   3.688  0.4488  0.1732  0.3837
 8517SOL    MW433802   0.478   4.276   3.754 -0.0416  0.6772 -0.3115
 8518SOL     OW33803   1.670   4.219  -0.004 -0.1523  0.0775  0.8879
 8518SOL    HW233804   1.737   4.286  -0.020  0.2422 -0.8770 -1.8171
 8518SOL    HW333805   1.637   4.196  -0.091 -1.0338 -2.5053  1.8193
 8518SOL    MW433806   1.674   4.225  -0.018  0.2927 -0.3055  0.5807
 8519SOL     OW33807   3.253   0.960   4.109  0.0460 -0.4114 -0.0944
 8519SOL    HW233808   3.330   0.957   4.053 -0.4011 -1.4401 -0.6741
 8519SOL    HW333809   3.278   1.018   4.181  0.4772  1.2780 -1.5523
 8519SOL    MW433810   3.267   0.967   4.111  0.4777  0.1892  0.4829
 8520SOL     OW33811   0.811   2.423   0.996  0.1184 -0.4190 -0.1005
 8520SOL    HW233812   0.821   2.492   1.062  2.6033 -0.3977 -0.4100
 8520SOL    HW333813   0.776   2.348   1.044  1.4879 -0.2788  1.1878
 8520SOL    MW433814   0.808   2.423   1.011  0.9114  0.3031  0.1527
 8521SOL     OW33815   4.766   1.284   0.158 -0.6865 -0.4219  0.4631
 8521SOL    HW233816   4.826   1.213   0.181 -1.0603 -0.4208  1.5103
 8521SOL    HW333817   4.679   1.246   0.170 -0.9050 -0.2100 -0.3642
 8521SOL    MW433818   4.762   1.270   0.162 -0.2231  0.1342  0.2511
 8522SOL     OW33819   3.014   6.151   2.759  0.5024  0.2816 -0.3162
 8522SOL    HW233820   3.070   6.181   2.688 -0.3405 -0.2019 -1.2205
 8522SOL    HW333821   2.955   6.087   2.718  0.1611 -0.2081  0.8743
 8522SOL    MW433822   3.013   6.146   2.744  0.0727 -0.1134  0.2960
 8523SOL     OW33823   3.116   6.411   0.680 -0.1594 -0.2246  0.1578
 8523SOL    HW233824   3.060   6.484   0.704 -0.4782  0.2768 -1.9110
 8523SOL    HW333825   3.203   6.450   0.669 -0.2387 -0.2110 -0.4997
 8523SOL    MW433826   3.120   6.426   0.681  0.4053  0.2247  0.5469
 8524SOL     OW33827   0.682   5.069   2.048 -0.3542  0.2192 -0.1087
 8524SOL    HW233828   0.705   5.071   2.141  1.1590 -0.5931 -0.4329
 8524SOL    HW333829   0.620   4.996   2.041  0.1667 -0.2582  0.1442
 8524SOL    MW433830   0.677   5.060   2.059 -1.0612  0.2655 -0.0183
 8525SOL     OW33831   0.710   1.733   2.417 -0.0613  0.2789  0.2327
 8525SOL    HW233832   0.806   1.730   2.423 -0.0631  1.4000  1.2472
 8525SOL    HW333833   0.680   1.676   2.487 -0.1492 -0.6319 -0.5349
 8525SOL    MW433834   0.719   1.725   2.427  0.1419  0.2433  0.4204
 8526SOL     OW33835   5.127   3.938   0.210 -0.1905 -0.3383 -0.4182
 8526SOL    HW233836   5.192   3.921   0.142  0.4075  1.3551 -0.3244
 8526SOL    HW333837   5.116   4.033   0.209 -4.3714 -0.5826 -1.9949
 8526SOL    MW433838   5.134   3.948   0.201  0.6097 -0.4671  0.2488
 8527SOL     OW33839   1.391   2.968  -0.004 -0.1134 -0.4310 -0.1600
 8527SOL    HW233840   1.393   2.873   0.009  1.0574 -0.3027  0.7986
 8527SOL    HW333841   1.476   2.988  -0.043 -0.7295  0.1206 -1.2388
 8527SOL    MW433842   1.403   2.958  -0.007 -0.1288  0.3108  0.6749
 8528SOL     OW33843   2.127   3.208   5.969 -0.3132  0.0939  0.3438
 8528SOL    HW233844   2.039   3.173   5.956 -0.0583 -0.9325  1.2838
 8528SOL    HW333845   2.182   3.131   5.983  0.8935  0.6699 -1.0505
 8528SOL    MW433846   2.123   3.193   5.969  0.0113  0.4471  0.4344
 8529SOL     OW33847   0.662   5.630   1.787  0.0133 -0.1227 -0.2086
 8529SOL    HW233848   0.687   5.711   1.831  0.7032 -0.0371 -0.7265
 8529SOL    HW333849   0.738   5.572   1.799 -0.1312 -0.3907 -0.5511
 8529SOL    MW433850   0.675   5.633   1.794 -0.2265 -0.0639 -0.2683
 8530SOL     OW33851   0.688   3.062   2.366 -0.0953 -0.2012  0.5433
 8530SOL    HW233852   0.756   3.073   2.432  1.4895  0.3988 -1.1192
 8530SOL    HW333853   0.614   3.026   2.414  0.9552  0.3206  2.6522
 8530SOL    MW433854   0.687   3.059   2.381  0.4358 -0.1232  0.0120
 8531SOL     OW33855   1.829   0.133   0.963  0.1028  0.5028  0.0630
 8531SOL    HW233856   1.830   0.172   0.875  0.4416  0.9211  0.2473
 8531SOL    HW333857   1.745   0.160   1.000 -1.4560 -2.2051 -1.2276
 8531SOL    MW433858   1.818   0.142   0.956  0.4203 -0.0271  0.3137
 8532SOL     OW33859   5.262   0.667   5.419  0.5722 -0.0012 -0.3188
 8532SOL    HW233860   5.322   0.637   5.488  1.4785  0.4557 -0.9056
 8532SOL    HW333861   5.189   0.706   5.467  0.7566 -0.5149  0.4014
 8532SOL    MW433862   5.260   0.668   5.435 -0.2707  0.2353 -0.0267
 8533SOL     OW33863   2.357   2.166   3.429 -0.6059  0.0251 -0.4486
 8533SOL    HW233864   2.336   2.180   3.337  0.1367 -0.4025 -0.6911
 8533SOL    HW333865   2.451   2.148   3.430 -0.7367 -0.6810  0.3139
 8533SOL    MW433866   2.366   2.166   3.417  0.5628 -0.4836 -0.3404
 8534SOL     OW33867   5.342   4.290   0.678  0.2450  0.2431  0.1145
 8534SOL    HW233868   5.301   4.204   0.679  0.2428  0.2379  1.5539
 8534SOL    HW333869   5.364   4.305   0.586  1.7013 -1.9775  0.0223
 8534SOL    MW433870   5.340   4.281   0.666  0.3298 -0.0281  0.7497
 8535SOL     OW33871   0.912   4.979   2.444 -0.9513  0.4140 -0.5454
 8535SOL    HW233872   0.985   5.040   2.460 -0.2730  0.0616 -2.1256
 8535SOL    HW333873   0.924   4.911   2.510  1.0160 -0.3589 -1.5936
 8535SOL    MW433874   0.923   4.978   2.455  0.2319 -0.1678  0.0048
 8536SOL     OW33875   1.761   5.913   0.869  0.2676  0.0940  0.6032
 8536SOL    HW233876   1.797   5.829   0.898  0.0193  0.5729  2.3984
 8536SOL    HW333877   1.666   5.897   0.863  0.2825  0.0909  0.3494
 8536SOL    MW433878   1.753   5.899   0.872  0.7689 -0.2481 -0.4058
 8537SOL     OW33879   5.423   4.191   0.205 -1.3170 -0.3592 -0.0562
 8537SOL    HW233880   5.433   4.237   0.288 -0.4848 -2.4605  1.0777
 8537SOL    HW333881   5.331   4.164   0.204 -0.8332 -2.2092  1.2775
 8537SOL    MW433882   5.412   4.194   0.216  0.2451  0.2926 -0.5294
 8538SOL     OW33883   2.162   6.441   5.864  0.3389  0.0920 -0.0805
 8538SOL    HW233884   2.134   6.396   5.784  2.4298 -0.0537 -0.8045
 8538SOL    HW333885   2.168   6.371   5.930 -0.7838  0.1084  0.0543
 8538SOL    MW433886   2.159   6.426   5.862 -0.1068  0.0671 -0.2354
 8539SOL     OW33887   1.850   6.046   0.027 -0.2993  0.5116  0.4919
 8539SOL    HW233888   1.843   6.139   0.048  1.0164  0.4482  1.3165
 8539SOL    HW333889   1.940   6.023   0.049 -0.0406 -0.5475 -1.4421
 8539SOL    MW433890   1.861   6.056   0.032 -0.0198  0.0975  0.0323
 8540SOL     OW33891   4.896   2.707   0.478  0.3079  0.3168  0.0398
 8540SOL    HW233892   4.906   2.658   0.396 -0.8264 -1.5022  0.9393
 8540SOL    HW333893   4.973   2.684   0.530  0.2840  0.3180  0.0756
 8540SOL    MW433894   4.907   2.698   0.474 -0.1816 -0.3210  0.4774
 8541SOL     OW33895   2.014   2.061   3.752  0.0249 -0.2680  0.1855
 8541SOL    HW233896   2.082   2.116   3.714  0.9339 -0.2224  1.7884
 8541SOL    HW333897   2.004   2.093   3.841 -2.4516  0.0077 -0.1175
 8541SOL    MW433898   2.022   2.072   3.759  0.3634 -0.8768 -0.2047
 8542SOL     OW33899   5.183   1.350   0.068  0.6180 -0.0170 -0.6621
 8542SOL    HW233900   5.269   1.320   0.100  0.9548  0.0587 -1.4828
 8542SOL    HW333901   5.188   1.446   0.076 -0.9179 -0.0633  3.1651
 8542SOL    MW433902   5.195   1.359   0.074 -0.0151 -0.2390 -0.1431
 8543SOL     OW33903   6.073   2.540   1.208 -0.1494 -0.1803  0.3820
 8543SOL    HW233904   6.131   2.469   1.182 -0.1389 -0.5060  1.2481
 8543SOL    HW333905   6.047   2.517   1.297  0.2860  1.1650  0.8811
 8543SOL    MW433906   6.077   2.528   1.217  0.2315  0.7340  0.4798
 8544SOL     OW33907   3.041   5.987   4.103 -0.5718  0.4391  0.1261
 8544SOL    HW233908   3.014   5.936   4.026  0.9717  0.4971 -0.4943
 8544SOL    HW333909   3.108   5.932   4.145 -0.1651  1.1675  0.4430
 8544SOL    MW433910   3.047   5.973   4.098 -0.0049  0.0091 -0.3320
 8545SOL     OW33911   0.386   1.924   0.964 -0.4223  0.5708 -0.4524
 8545SOL    HW233912   0.369   1.895   0.875 -1.4720  0.6453 -0.2910
 8545SOL    HW333913   0.339   1.862   1.019  0.6271  0.2246  0.0885
 8545SOL    MW433914   0.378   1.912   0.960 -0.4139  0.2840 -0.1042
 8546SOL     OW33915   6.364   2.452   3.948  0.4845 -0.0779  0.3128
 8546SOL    HW233916   6.331   2.484   3.864  2.3068  0.2728 -0.3189
 8546SOL    HW333917   6.398   2.364   3.929  2.0765  0.5004  0.3458
 8546SOL    MW433918   6.364   2.444   3.935  0.5160  0.2548 -0.1024
 8547SOL     OW33919   4.649   6.309   1.666 -0.6026 -0.3833  0.1838
 8547SOL    HW233920   4.578   6.272   1.615 -0.1367  0.2382 -0.9600
 8547SOL    HW333921   4.614   6.318   1.754 -0.9306 -2.9280  0.3849
 8547SOL    MW433922   4.635   6.305   1.671 -0.3040 -0.1477 -0.0136
 8548SOL     OW33923   2.696   1.736   1.751 -0.0566  0.2029 -0.1691
 8548SOL    HW233924   2.624   1.696   1.702  1.1695 -1.0554 -1.0318
 8548SOL    HW333925   2.712   1.676   1.824  0.0510  0.5169  0.0663
 8548SOL    MW433926   2.689   1.723   1.754  0.7135 -0.0038  0.5681
 8549SOL     OW33927   0.280   0.661   3.563 -0.1607 -0.4030 -0.1496
 8549SOL    HW233928   0.342   0.729   3.538  0.0654 -0.5449  0.0188
 8549SOL    HW333929   0.261   0.677   3.655  0.4640 -1.0003  0.0956
 8549SOL    MW433930   0.286   0.672   3.572 -0.5882  0.9801 -0.1212
 8550SOL     OW33931   1.517   3.000   5.353  0.4339  0.1906 -0.3780
 8550SOL    HW233932   1.606   3.019   5.324  1.0248 -1.5028  0.2032
 8550SOL    HW333933   1.513   3.036   5.442  1.3280 -1.6761  0.4705
 8550SOL    MW433934   1.528   3.007   5.361  1.0113 -0.5361 -0.0286
 8551SOL     OW33935   1.785   6.234   6.064 -0.1167  0.8353 -0.5325
 8551SOL    HW233936   1.734   6.208   5.987 -1.8824  2.7750 -0.1282
 8551SOL    HW333937   1.816   6.322   6.043 -0.6581  1.4027  0.9695
 8551SOL    MW433938   1.782   6.242   6.051 -0.1297 -0.2127  0.2615
 8552SOL     OW33939   2.020   0.048   4.528  0.3475 -0.1859  0.0172
 8552SOL    HW233940   1.939   0.007   4.499 -0.5076  0.5622  1.2163
 8552SOL    HW333941   2.020   0.134   4.485 -0.6982  0.7418  1.7269
 8552SOL    MW433942   2.009   0.054   4.519 -0.0254  0.0044  0.8042
 8553SOL     OW33943   2.614   6.415   1.182 -0.3168  0.1415  0.1035
 8553SOL    HW233944   2.591   6.499   1.144  1.6666  0.6316 -0.1258
 8553SOL    HW333945   2.650   6.364   1.109  2.1153  0.5527  0.9127
 8553SOL    MW433946   2.616   6.419   1.167 -0.3382 -0.3851  0.2784
 8554SOL     OW33947   3.928   3.041   1.032  0.3196  0.5811  0.2240
 8554SOL    HW233948   4.018   3.023   1.058  0.6390 -0.3398 -1.3827
 8554SOL    HW333949   3.882   2.958   1.041  0.1896  0.4939 -1.0376
 8554SOL    MW433950   3.933   3.028   1.037  0.6216  0.6450 -0.3052
 8555SOL     OW33951   5.697   3.856   4.103  0.1940 -0.3997  0.2544
 8555SOL    HW233952   5.723   3.926   4.042  0.9862 -0.2137  0.7903
 8555SOL    HW333953   5.779   3.828   4.144 -0.5203  0.8614  2.7358
 8555SOL    MW433954   5.712   3.862   4.100  0.5097  0.3737 -0.6959
 8556SOL     OW33955   4.423   5.027   3.666  0.6790  0.2333 -0.2242
 8556SOL    HW233956   4.423   4.983   3.751  0.5876  0.2116 -0.2354
 8556SOL    HW333957   4.468   4.966   3.608  0.2174 -0.0168 -0.3255
 8556SOL    MW433958   4.429   5.013   3.669  0.3011  0.3427  0.7864
 8557SOL     OW33959   5.442   4.075   6.085  0.0619  0.1568  0.3886
 8557SOL    HW233960   5.443   4.147   6.148  1.3783 -0.4368  1.0871
 8557SOL    HW333961   5.452   3.996   6.138 -1.5968 -0.5963 -0.3375
 8557SOL    MW433962   5.443   4.074   6.100  0.1714 -0.3810 -0.3272
 8558SOL     OW33963   4.487   4.515   5.734 -0.4220  0.6528  0.2838
 8558SOL    HW233964   4.486   4.476   5.821  0.4749  1.3287  0.6096
 8558SOL    HW333965   4.395   4.515   5.707 -0.7501  0.7421  1.3638
 8558SOL    MW433966   4.475   4.510   5.742  0.0954  0.6084 -0.2813
 8559SOL     OW33967   4.894   4.204   1.867  0.2530  0.1722  0.6388
 8559SOL    HW233968   4.896   4.149   1.789  0.6076 -1.6302  1.8562
 8559SOL    HW333969   4.981   4.243   1.871 -0.5304  2.3913 -1.2011
 8559SOL    MW433970   4.906   4.202   1.857 -0.4624 -0.2229 -0.2466
 8560SOL     OW33971   5.141   1.039   5.303  0.4539 -0.0140 -0.3277
 8560SOL    HW233972   5.184   1.042   5.389  2.4322 -1.3397 -1.1725
 8560SOL    HW333973   5.065   0.983   5.317  0.9392 -0.5003  0.5317
 8560SOL    MW433974   5.137   1.032   5.316  0.8829 -0.3901  0.4628
 8561SOL     OW33975   3.275   2.795   1.239 -0.0158 -0.3161  0.5052
 8561SOL    HW233976   3.311   2.793   1.328 -2.8942 -2.1474  1.8072
 8561SOL    HW333977   3.183   2.819   1.252 -0.0609  1.3434 -2.2532
 8561SOL    MW433978   3.267   2.798   1.252 -0.0889  0.0299 -0.3357
 8562SOL     OW33979   3.073   1.396   0.399  0.2955  0.0129  0.1570
 8562SOL    HW233980   3.139   1.377   0.465  0.2337  1.6189  0.7209
 8562SOL    HW333981   3.121   1.404   0.317  1.0761  2.5572  0.7771
 8562SOL    MW433982   3.088   1.394   0.397  0.0424  0.3069  1.0050
 8563SOL     OW33983   3.638   6.211   0.818  0.5318 -0.4196  0.0961
 8563SOL    HW233984   3.683   6.284   0.860 -0.3413 -0.6874  1.5728
 8563SOL    HW333985   3.616   6.243   0.731  2.5660  0.0967 -0.2873
 8563SOL    MW433986   3.641   6.225   0.812 -0.5387  0.4787  0.0418
 8564SOL     OW33987   4.000   1.679   2.304  0.2848 -0.1825 -0.2233
 8564SOL    HW233988   4.000   1.589   2.337  0.0007 -0.2754 -0.4741
 8564SOL    HW333989   4.065   1.724   2.358 -1.7132  0.2367  2.0298
 8564SOL    MW433990   4.008   1.673   2.316 -0.2622 -0.4199 -0.0760
 8565SOL     OW33991   6.256   0.240   5.660  0.4241  0.1759 -0.7306
 8565SOL    HW233992   6.295   0.312   5.610 -0.3363  1.1961  0.0800
 8565SOL    HW333993   6.318   0.222   5.731 -2.1351  4.8720  3.3796
 8565SOL    MW433994   6.269   0.247   5.663 -0.0347 -0.2514  0.7065
 8566SOL     OW33995   5.362   6.234   2.293 -0.4334  0.0015 -1.0148
 8566SOL    HW233996   5.441   6.212   2.245 -1.1739  1.9262 -3.3530
 8566SOL    HW333997   5.384   6.314   2.341  0.0880 -1.5282  1.5034
 8566SOL    MW433998   5.375   6.242   2.293 -0.0577  0.3544  0.4131
 8567SOL     OW33999   6.349   0.630   1.121 -0.4887 -0.1994  0.4521
 8567SOL    HW234000   6.301   0.675   1.191  0.2459  0.4269  0.5692
 8567SOL    HW334001   6.285   0.619   1.051 -0.9545  0.1197  0.8238
 8567SOL    MW434002   6.334   0.635   1.121 -0.7584  0.0651 -0.2700
 8568SOL     OW34003   1.573   5.943   0.408 -0.8407  0.2937  0.5180
 8568SOL    HW234004   1.656   5.935   0.455  1.1388  0.7732 -2.6213
 8568SOL    HW334005   1.546   5.853   0.392 -2.3922  0.0536  3.6475
 8568SOL    MW434006   1.581   5.930   0.412 -0.9154 -0.5111  0.4896
 8569SOL     OW34007   0.398   4.474   6.413  0.2993  0.1261  0.0519
 8569SOL    HW234008   0.471   4.510   6.364 -0.2696  2.3518  0.7401
 8569SOL    HW334009   0.340   4.548   6.429 -0.0477 -0.6710  3.1757
 8569SOL    MW434010   0.400   4.489   6.409  0.3149 -0.1517  0.2754
 8570SOL     OW34011   0.795   1.155   5.595  0.1435 -0.0715 -0.0630
 8570SOL    HW234012   0.743   1.090   5.548 -0.1143 -0.1643  0.3457
 8570SOL    HW334013   0.815   1.114   5.679 -0.7477  0.6964  0.5459
 8570SOL    MW434014   0.790   1.141   5.600 -0.8870 -0.4890 -0.1119
 8571SOL     OW34015   3.729   6.006   1.013  0.0014 -0.4723  0.7810
 8571SOL    HW234016   3.802   6.030   1.069  0.4114 -2.3334  1.0841
 8571SOL    HW334017   3.659   6.066   1.039  1.3837  1.3738  0.4519
 8571SOL    MW434018   3.729   6.017   1.024  0.0081  0.3754  0.0812
 8572SOL     OW34019   4.141   3.582   0.627 -0.0692  0.1078  0.3616
 8572SOL    HW234020   4.104   3.496   0.606  0.4093 -0.0803  0.2554
 8572SOL    HW334021   4.113   3.599   0.717 -0.3550 -0.0582  0.3045
 8572SOL    MW434022   4.133   3.573   0.637  0.4654  0.9290  0.4184
 8573SOL     OW34023   2.019   0.494   2.574  0.5990 -0.3412  0.2435
 8573SOL    HW234024   2.038   0.412   2.529  1.3168  1.0855 -2.2968
 8573SOL    HW334025   2.101   0.543   2.568  0.1538  0.6165  1.5961
 8573SOL    MW434026   2.033   0.490   2.567 -0.7268 -0.1095 -0.3954
 8574SOL     OW34027   4.104   4.528   4.391 -0.3456  0.6808 -0.3837
 8574SOL    HW234028   4.162   4.468   4.344 -1.8114  0.1576 -1.5980
 8574SOL    HW334029   4.082   4.481   4.472  1.2328  1.0787  0.3110
 8574SOL    MW434030   4.108   4.514   4.396 -0.5706  0.6307 -0.7318
 8575SOL     OW34031   0.443   0.186   6.115 -0.1318 -0.3225  0.1181
 8575SOL    HW234032   0.510   0.139   6.165 -0.3511 -1.8501 -0.9564
 8575SOL    HW334033   0.381   0.217   6.181  0.9852  0.0797  1.0225
 8575SOL    MW434034   0.444   0.184   6.130  0.6829 -0.1168  0.3578
 8576SOL     OW34035   4.998   4.189   1.496 -0.2443 -0.1720  0.4181
 8576SOL    HW234036   5.086   4.211   1.527 -0.4402  2.1940 -0.5198
 8576SOL    HW334037   4.970   4.116   1.552  2.2349 -0.8864  0.8201
 8576SOL    MW434038   5.006   4.182   1.508 -0.3163 -0.8620  0.0052
 8577SOL     OW34039   4.030   2.177   3.742 -0.4354 -0.3329  0.4799
 8577SOL    HW234040   4.116   2.218   3.740 -0.6567  0.1483  0.6126
 8577SOL    HW334041   4.047   2.086   3.765  0.1199 -0.4779 -0.4552
 8577SOL    MW434042   4.044   2.170   3.745 -0.8323 -0.6720  0.5883
 8578SOL     OW34043   3.083   2.291   0.928  0.0780  0.0924 -0.4947
 8578SOL    HW234044   3.156   2.265   0.985  1.5263  1.0360 -1.8392
 8578SOL    HW334045   3.074   2.385   0.943 -1.5535 -0.1621  0.3658
 8578SOL    MW434046   3.091   2.300   0.938  0.2092 -0.5059  0.5636
 8579SOL     OW34047   1.144   3.429   2.205  0.8018  0.4047 -0.7644
 8579SOL    HW234048   1.226   3.380   2.198 -0.6215 -2.1994 -0.6577
 8579SOL    HW334049   1.148   3.471   2.291  1.6005 -0.5367 -0.3198
 8579SOL    MW434050   1.155   3.428   2.215  0.6289  0.5672 -0.2067
 8580SOL     OW34051   6.385   5.917   1.346 -0.3161 -0.4318  0.2962
 8580SOL    HW234052   6.318   5.900   1.279  0.2387 -0.4917 -0.2518
 8580SOL    HW334053   6.362   5.858   1.418 -1.7493  0.6376  0.7695
 8580SOL    MW434054   6.373   5.907   1.347  0.4571 -0.3860  0.7592
 8581SOL     OW34055   5.633   1.348   1.553 -0.0801  0.1028  0.1530
 8581SOL    HW234056   5.669   1.272   1.507  0.0320  0.1846  0.1042
 8581SOL    HW334057   5.611   1.410   1.483  0.0034  0.1900  0.2037
 8581SOL    MW434058   5.635   1.346   1.538 -0.0440  0.3203 -0.2103
 8582SOL     OW34059   4.936   3.912   2.661  0.3879 -0.3248  0.4513
 8582SOL    HW234060   4.846   3.941   2.650 -0.1386 -2.3154 -1.2923
 8582SOL    HW334061   4.988   3.992   2.664 -1.1115  0.8975 -2.3160
 8582SOL    MW434062   4.931   3.926   2.660 -0.1697  0.2359 -0.0816
 8583SOL     OW34063   2.854   2.422   3.540  0.7863 -0.2999  0.6928
 8583SOL    HW234064   2.801   2.380   3.607 -0.1714 -0.1211  0.0566
 8583SOL    HW334065   2.940   2.380   3.549 -0.0292 -2.1684  0.3182
 8583SOL    MW434066   2.859   2.411   3.550 -0.2171 -0.7477 -0.4482
 8584SOL     OW34067   2.685   0.697   1.426 -0.0232  0.2005  0.5709
 8584SOL    HW234068   2.652   0.759   1.491  1.6347  0.8659  0.8468
 8584SOL    HW334069   2.680   0.612   1.469 -0.8941  0.3487  0.7704
 8584SOL    MW434070   2.680   0.694   1.440 -0.2983 -0.4825 -0.3705
 8585SOL     OW34071   0.416   2.108   6.117  0.4661 -0.0866  0.5682
 8585SOL    HW234072   0.408   2.089   6.211 -2.4024 -0.8999  0.2597
 8585SOL    HW334073   0.460   2.031   6.081  0.5676 -0.2758  1.0765
 8585SOL    MW434074   0.421   2.095   6.125 -0.6219 -0.4684 -0.1915
 8586SOL     OW34075   4.750   4.504   0.814  0.2546  0.0859 -0.0241
 8586SOL    HW234076   4.674   4.559   0.795 -0.1092 -0.3878  0.0170
 8586SOL    HW334077   4.810   4.560   0.862  0.4584  0.8181 -1.1169
 8586SOL    MW434078   4.748   4.518   0.818  0.4559  0.5838  0.5913
 8587SOL     OW34079   2.934   0.734   1.568 -0.2822  0.3931 -0.4617
 8587SOL    HW234080   2.932   0.818   1.613 -1.6818  0.1768 -0.0632
 8587SOL    HW334081   2.844   0.721   1.538 -0.2178 -1.1983 -0.0647
 8587SOL    MW434082   2.922   0.743   1.570 -0.5005  0.0560 -0.4575
 8588SOL     OW34083   4.717   0.975   6.113  0.0865  0.9626 -0.2047
 8588SOL    HW234084   4.685   0.903   6.058  1.0943  0.8340 -0.6446
 8588SOL    HW334085   4.641   1.000   6.166  0.3759 -2.3480  2.1271
 8588SOL    MW434086   4.703   0.969   6.113 -0.2017 -0.2406 -0.0537
 8589SOL     OW34087   0.906   4.765   5.012 -1.0211 -0.2740 -0.2892
 8589SOL    HW234088   0.870   4.702   4.949 -2.8417  0.8203 -0.4188
 8589SOL    HW334089   0.999   4.769   4.991 -0.8067 -2.9596 -0.2089
 8589SOL    MW434090   0.914   4.757   5.001  0.4084  0.0425  0.2898
 8590SOL     OW34091   2.407   1.065   5.912 -0.5141 -0.0413  0.2238
 8590SOL    HW234092   2.488   1.115   5.919 -0.8448  0.2984  3.5087
 8590SOL    HW334093   2.424   1.001   5.843  1.6557  1.5059 -0.8017
 8590SOL    MW434094   2.420   1.063   5.904  0.0986 -0.2293 -0.2494
 8591SOL     OW34095   1.756   0.508   0.531  0.7187  0.2322 -0.0064
 8591SOL    HW234096   1.763   0.434   0.592  0.4589  0.5173  0.3692
 8591SOL    HW334097   1.675   0.552   0.556  0.4139  0.1359 -0.8029
 8591SOL    MW434098   1.746   0.504   0.543 -0.0609 -0.3706 -0.0686
 8592SOL     OW34099   1.007   1.340   5.020  0.0331  0.2008  0.1412
 8592SOL    HW234100   0.998   1.386   5.104 -0.5409 -0.6556  0.5661
 8592SOL    HW334101   0.946   1.266   5.027 -0.2232  0.2686 -1.1376
 8592SOL    MW434102   0.998   1.337   5.032 -0.0624 -0.1463  0.3112
 8593SOL     OW34103   0.392   4.618   2.572  0.1677  0.1914 -0.1296
 8593SOL    HW234104   0.351   4.577   2.496  1.5155 -2.9833  0.7119
 8593SOL    HW334105   0.437   4.547   2.617  1.9840  2.4970  2.0026
 8593SOL    MW434106   0.392   4.603   2.568  0.2999 -0.4227 -0.0957
 8594SOL     OW34107   0.934   2.988   6.047  0.6121 -0.3206  0.5152
 8594SOL    HW234108   0.851   2.956   6.082  0.6509 -1.9103 -0.7091
 8594SOL    HW334109   0.994   2.986   6.122 -0.5118  1.2717  1.5134
 8594SOL    MW434110   0.931   2.983   6.062 -0.4303  0.1623 -0.4974
 8595SOL     OW34111   1.207   1.011   1.230 -0.1545  0.2306 -0.3596
 8595SOL    HW234112   1.281   0.950   1.234  0.1733  0.6645  0.3923
 8595SOL    HW334113   1.164   1.001   1.315 -0.0463  1.1034 -0.1997
 8595SOL    MW434114   1.211   1.001   1.241  0.6670 -0.2216 -0.1537
 8596SOL     OW34115   1.062   0.978   0.293 -0.3355  0.3001 -0.0365
 8596SOL    HW234116   1.118   1.055   0.282  1.9131 -1.2719 -0.2468
 8596SOL    HW334117   1.092   0.937   0.374 -1.8073 -0.1438  0.3141
 8596SOL    MW434118   1.074   0.983   0.302  0.2183  0.1623 -0.0527
 8597SOL     OW34119   1.918   3.746   2.014  0.3409  0.1897  0.2342
 8597SOL    HW234120   2.005   3.734   1.975  0.7118 -1.4508  1.4589
 8597SOL    HW334121   1.857   3.732   1.942  1.0674 -0.0912 -0.3353
 8597SOL    MW434122   1.922   3.742   1.999  0.6449  0.6375 -0.1808
 8598SOL     OW34123   4.608   1.808   6.231  0.2980  0.8822  0.2791
 8598SOL    HW234124   4.608   1.788   6.325  1.0356 -0.0628  0.0903
 8598SOL    HW334125   4.695   1.782   6.201  0.1315  1.3556 -0.6380
 8598SOL    MW434126   4.620   1.802   6.240  0.3721 -0.5120 -0.6165
 8599SOL     OW34127   5.860   0.655   0.320  0.0511  0.3369  0.1006
 8599SOL    HW234128   5.843   0.713   0.245 -1.0001 -1.2984 -1.0048
 8599SOL    HW334129   5.881   0.571   0.280  0.0039 -0.4449  1.6589
 8599SOL    MW434130   5.860   0.652   0.305 -0.3265  0.6458 -0.4382
 8600SOL     OW34131   5.177   3.688   2.170  0.0403  0.2080  0.2940
 8600SOL    HW234132   5.133   3.722   2.248 -0.4034 -1.3722  0.7721
 8600SOL    HW334133   5.243   3.754   2.149  0.2202  0.6404  2.0471
 8600SOL    MW434134   5.180   3.701   2.177  0.6648 -0.0224 -0.4342
 8601SOL     OW34135   6.196   5.003   1.449 -0.0887 -0.8975 -0.2278
 8601SOL    HW234136   6.240   5.058   1.384 -0.6990 -1.3256 -1.0178
 8601SOL    HW334137   6.217   5.044   1.533  0.0254  0.1561 -0.7535
 8601SOL    MW434138   6.205   5.016   1.452  0.0380  0.4379  0.0422
 8602SOL     OW34139   0.674   4.208   3.096 -0.7804 -0.2931 -0.1207
 8602SOL    HW234140   0.606   4.276   3.100 -1.9729 -1.3245 -1.7720
 8602SOL    HW334141   0.678   4.173   3.185 -0.5610  1.4885  0.6196
 8602SOL    MW434142   0.666   4.212   3.108  0.0113 -0.1653  0.0617
 8603SOL     OW34143   3.587   2.804   0.242  0.0298 -0.7089  0.2007
 8603SOL    HW234144   3.504   2.804   0.195  0.1159  0.1748  0.0265
 8603SOL    HW334145   3.569   2.851   0.324  0.7103  0.9950 -0.5580
 8603SOL    MW434146   3.574   2.810   0.247  0.2766 -0.6440  0.0170
 8604SOL     OW34147   1.380   3.133   5.117  0.3513  0.6523 -0.8780
 8604SOL    HW234148   1.467   3.131   5.075  0.6220 -1.0829 -0.2951
 8604SOL    HW334149   1.391   3.083   5.198 -1.4772 -0.6515 -1.3733
 8604SOL    MW434150   1.393   3.126   5.122  0.6194 -0.6644  0.1930
 8605SOL     OW34151   1.623   0.316   6.144 -0.1348 -0.2665 -0.5338
 8605SOL    HW234152   1.706   0.281   6.177  0.8067  1.4475 -0.9373
 8605SOL    HW334153   1.642   0.345   6.055 -0.9384  0.8861 -0.3569
 8605SOL    MW434154   1.636   0.315   6.137 -0.3169  0.2530  0.1097
 8606SOL     OW34155   0.556   2.827   1.472 -0.4447  0.1625 -0.5256
 8606SOL    HW234156   0.557   2.746   1.421 -1.7026 -0.1337 -0.1030
 8606SOL    HW334157   0.464   2.853   1.475 -0.2608  0.7534  0.6859
 8606SOL    MW434158   0.544   2.820   1.466 -0.3574 -0.3197  0.0096
 8607SOL     OW34159   0.310   4.513   4.755 -0.1011 -0.9506 -0.5992
 8607SOL    HW234160   0.370   4.566   4.809 -0.8565 -0.6833  0.0042
 8607SOL    HW334161   0.331   4.423   4.778 -0.3218 -0.8442  0.0694
 8607SOL    MW434162   0.321   4.508   4.765 -0.2352 -0.0121  0.0862
 8608SOL     OW34163   3.614   0.406   5.548 -0.0134  0.2247  0.6420
 8608SOL    HW234164   3.526   0.428   5.516  0.0940 -1.9201 -1.3290
 8608SOL    HW334165   3.673   0.432   5.478  0.5778 -1.3607  0.5146
 8608SOL    MW434166   3.610   0.412   5.535 -0.4104 -0.3757  0.2036
 8609SOL     OW34167   4.360   1.643   1.316  0.3967 -0.3165  0.6321
 8609SOL    HW234168   4.445   1.611   1.344  0.6414 -2.2018 -1.8474
 8609SOL    HW334169   4.378   1.691   1.235 -0.8711 -0.9938 -0.0917
 8609SOL    MW434170   4.373   1.645   1.309 -0.6317  0.2806 -0.0408
 8610SOL     OW34171   0.163   2.994   5.663  0.2351  0.2141  0.1632
 8610SOL    HW234172   0.130   3.073   5.705  1.8897  0.1866  1.6282
 8610SOL    HW334173   0.088   2.959   5.615 -0.6105  2.4949 -0.3064
 8610SOL    MW434174   0.148   2.999   5.662  0.1894  0.1054 -0.5683
 8611SOL     OW34175   1.062   4.150   6.414 -0.2533 -0.2119  0.1576
 8611SOL    HW234176   1.157   4.151   6.415 -0.2505  1.2709  0.7807
 8611SOL    HW334177   1.037   4.171   6.504 -1.1079  2.9160 -0.6875
 8611SOL    MW434178   1.071   4.153   6.426  0.0101  0.0168 -0.3025
 8612SOL     OW34179   2.719   1.888   3.601 -0.3957  0.3861 -0.1594
 8612SOL    HW234180   2.799   1.870   3.552 -0.4051  1.8066 -0.7452
 8612SOL    HW334181   2.651   1.840   3.555 -0.1080  0.2650 -0.4610
 8612SOL    MW434182   2.721   1.879   3.589 -0.0411  1.2726 -0.3748
 8613SOL     OW34183   0.423   1.684   1.471  0.4294 -0.0840 -0.1724
 8613SOL    HW234184   0.475   1.662   1.548  0.9086  0.2251 -0.4055
 8613SOL    HW334185   0.353   1.618   1.470  0.2287  0.1039  0.7033
 8613SOL    MW434186   0.421   1.672   1.481  0.1752  0.0494 -0.2994
 8614SOL     OW34187   1.931   5.553   3.032  0.3885  0.2361 -0.4016
 8614SOL    HW234188   1.909   5.462   3.054  0.9971  0.3530  0.7549
 8614SOL    HW334189   1.931   5.555   2.936  0.4433 -1.0022 -0.4419
 8614SOL    MW434190   1.928   5.541   3.022  0.0934  0.2865 -0.5843
 8615SOL     OW34191   6.276   2.448   0.122 -0.3542 -0.5448 -0.6868
 8615SOL    HW234192   6.203   2.392   0.151 -0.4309 -1.3682 -2.3683
 8615SOL    HW334193   6.248   2.482   0.037  1.2190 -0.9184 -1.3902
 8615SOL    MW434194   6.263   2.445   0.115  0.3496 -0.1619  0.1032
 8616SOL     OW34195   0.399   1.891   0.689 -0.4210 -0.5123 -0.2543
 8616SOL    HW234196   0.490   1.863   0.700 -0.6595 -1.5907 -0.8670
 8616SOL    HW334197   0.404   1.967   0.631  0.2326  0.6930  1.3179
 8616SOL    MW434198   0.411   1.897   0.683 -0.0115 -0.3427 -0.0691
 8617SOL     OW34199   5.639   2.229   1.306  0.3315 -0.6354 -0.1636
 8617SOL    HW234200   5.552   2.265   1.287 -0.1124 -1.4653  0.2686
 8617SOL    HW334201   5.669   2.193   1.222 -0.8653 -2.6804  0.2181
 8617SOL    MW434202   5.631   2.229   1.292  0.0281 -0.9858  0.1782
 8618SOL     OW34203   2.404   4.384   1.717 -0.0289  0.7417  0.0282
 8618SOL    HW234204   2.340   4.419   1.655 -0.2070  1.0036  0.3545
 8618SOL    HW334205   2.409   4.291   1.698 -1.4095  0.4909  0.7911
 8618SOL    MW434206   2.396   4.376   1.707  0.3379  0.3655 -0.1337
 8619SOL     OW34207   3.128   5.030   2.890  0.4414 -0.6245  0.1317
 8619SOL    HW234208   3.094   5.057   2.805  0.5431 -1.0651 -0.0466
 8619SOL    HW334209   3.114   5.107   2.946  0.2753 -0.3726 -0.2507
 8619SOL    MW434210   3.122   5.044   2.886  0.4030  0.1330 -0.4774
 8620SOL     OW34211   5.545   0.785   6.198  0.0175  0.2471  0.1525
 8620SOL    HW234212   5.527   0.879   6.192 -0.8904  0.0863  0.1200
 8620SOL    HW334213   5.592   0.775   6.280 -0.0997  0.6998  0.2786
 8620SOL    MW434214   5.549   0.796   6.208 -0.2039  0.2625 -0.2702
 8621SOL     OW34215   1.287   0.344   5.196  0.0877  0.2211 -0.0388
 8621SOL    HW234216   1.360   0.283   5.211  0.6605  1.1624  1.1478
 8621SOL    HW334217   1.249   0.357   5.283 -1.8162 -0.5826 -0.6880
 8621SOL    MW434218   1.292   0.337   5.209  0.1352 -0.0147  0.3417
 8622SOL     OW34219   3.504   4.091   1.972  0.5908  0.3039 -0.0751
 8622SOL    HW234220   3.467   4.065   1.888  1.2237  0.9375 -0.5713
 8622SOL    HW334221   3.430   4.123   2.023  0.1673 -0.3037 -0.3112
 8622SOL    MW434222   3.490   4.092   1.968  0.1523 -0.1019 -0.4800
 8623SOL     OW34223   5.972   0.410   3.944  0.4442 -0.0760 -0.4167
 8623SOL    HW234224   5.916   0.344   3.983  0.0899 -0.5670 -1.7037
 8623SOL    HW334225   6.058   0.368   3.936  0.9166  0.5147  1.1102
 8623SOL    MW434226   5.976   0.396   3.948 -0.1619 -0.1938 -0.2159
 8624SOL     OW34227   4.950   2.414   0.367 -0.2770  0.2354 -0.3247
 8624SOL    HW234228   5.009   2.393   0.295  0.4016  1.6631 -0.2083
 8624SOL    HW334229   4.955   2.338   0.425 -0.4643 -0.7198 -1.5234
 8624SOL    MW434230   4.958   2.401   0.366 -0.0522 -0.2399  0.2932
 8625SOL     OW34231   5.768   0.245   3.458 -1.0187  0.0642  0.4590
 8625SOL    HW234232   5.788   0.267   3.549  0.3767  0.0285  0.1855
 8625SOL    HW334233   5.771   0.329   3.412  0.2556 -0.1468  0.1202
 8625SOL    MW434234   5.771   0.259   3.464 -0.3287 -0.3782 -0.9719
 8626SOL     OW34235   4.346   1.881   0.077 -0.1294 -0.3307 -0.0285
 8626SOL    HW234236   4.400   1.802   0.086  1.2215  0.6572  1.0266
 8626SOL    HW334237   4.405   1.953   0.100 -2.2887  0.7260  2.8569
 8626SOL    MW434238   4.361   1.880   0.081  0.8073  0.4498 -0.3695
 8627SOL     OW34239   3.034   1.735   2.872  0.2752  0.3463  0.0382
 8627SOL    HW234240   2.961   1.761   2.816 -0.1422  2.1807  1.3512
 8627SOL    HW334241   2.993   1.708   2.954  0.9503 -1.0044 -0.0470
 8627SOL    MW434242   3.019   1.735   2.876  0.1390  0.1073 -0.1111
 8628SOL     OW34243   4.467   3.018   1.149 -0.2565  0.2991  0.1529
 8628SOL    HW234244   4.374   3.038   1.163 -0.0957  0.1956  1.6001
 8628SOL    HW334245   4.471   2.981   1.062 -1.7931 -0.9121  0.5508
 8628SOL    MW434246   4.455   3.016   1.140  0.0527 -0.1169 -0.0080
 8629SOL     OW34247   1.672   2.080   1.721 -0.3430 -0.2045 -0.4678
 8629SOL    HW234248   1.751   2.086   1.668  0.9489 -0.8841  1.3102
 8629SOL    HW334249   1.633   1.996   1.696  0.8951 -1.0821  0.4853
 8629SOL    MW434250   1.677   2.070   1.710 -0.0833 -0.3179 -0.3290
 8630SOL     OW34251   4.864   4.594   1.206  0.0897 -0.9179  0.4045
 8630SOL    HW234252   4.859   4.501   1.183  0.6409 -0.6641 -0.8353
 8630SOL    HW334253   4.894   4.637   1.126 -0.4907  0.3810  0.8527
 8630SOL    MW434254   4.868   4.588   1.192 -0.0151  0.1931  0.0030
 8631SOL     OW34255   2.279   0.215   3.943 -0.2429 -0.1662 -0.0719
 8631SOL    HW234256   2.313   0.184   3.860  0.5021  1.6263 -0.4865
 8631SOL    HW334257   2.189   0.242   3.924 -0.2244 -0.1910 -0.1932
 8631SOL    MW434258   2.271   0.215   3.930  0.5893 -0.8554  0.3288
 8632SOL     OW34259   5.093   5.141   0.203 -0.7676  0.2870 -0.9779
 8632SOL    HW234260   5.060   5.119   0.116 -1.7049  0.0156 -0.5665
 8632SOL    HW334261   5.180   5.178   0.187 -0.7116 -0.2470 -1.9805
 8632SOL    MW434262   5.100   5.143   0.190 -0.3544  0.5458 -0.1789
 8633SOL     OW34263   2.502   2.698   0.276  0.4068  0.4131  0.1153
 8633SOL    HW234264   2.588   2.731   0.249 -0.0346  1.5042 -0.0056
 8633SOL    HW334265   2.516   2.662   0.364  0.7189  1.7828  0.6437
 8633SOL    MW434266   2.516   2.697   0.284 -0.5322 -0.4682 -0.3938
 8634SOL     OW34267   0.506   2.855   5.137 -0.4001  0.0971  0.3673
 8634SOL    HW234268   0.551   2.774   5.161  0.2234  0.5416  0.7129
 8634SOL    HW334269   0.413   2.831   5.137 -0.1934 -0.7466 -0.0483
 8634SOL    MW434270   0.500   2.841   5.140  0.6126 -0.5366  0.4168
 8635SOL     OW34271   0.268   6.206   0.005 -0.0227 -0.2719 -0.0563
 8635SOL    HW234272   0.327   6.170   0.072  0.5003  1.1991  0.3163
 8635SOL    HW334273   0.326   6.248  -0.058 -0.6458  0.7706  0.0518
 8635SOL    MW434274   0.283   6.207   0.006  0.2132  0.2247 -0.5683
 8636SOL     OW34275   1.953   2.654   4.699  0.5335 -0.1407 -0.4362
 8636SOL    HW234276   1.966   2.566   4.734 -0.6276  1.4491  4.9233
 8636SOL    HW334277   2.035   2.700   4.719  0.0357  0.7302 -0.3485
 8636SOL    MW434278   1.965   2.648   4.706  0.2318 -0.2820  0.5549
 8637SOL     OW34279   5.861   3.968   1.821 -0.0597 -0.7754  0.1108
 8637SOL    HW234280   5.797   4.009   1.879 -1.4679 -2.9769  0.2076
 8637SOL    HW334281   5.828   3.880   1.806  1.4951 -1.0684 -2.1644
 8637SOL    MW434282   5.848   3.962   1.827  0.1190 -0.2330 -0.4915
 8638SOL     OW34283   1.906   4.199   1.559 -0.2814 -0.2728  0.1672
 8638SOL    HW234284   1.861   4.210   1.475 -1.2548 -0.5458  0.6391
 8638SOL    HW334285   1.894   4.107   1.580  0.1859 -0.2609  0.4810
 8638SOL    MW434286   1.898   4.189   1.550  0.1133  0.3962  0.0213
 8639SOL     OW34287   3.325   0.468   5.522 -0.1074 -0.4513  0.1888
 8639SOL    HW234288   3.239   0.432   5.498  0.1279 -0.6165 -0.4345
 8639SOL    HW334289   3.324   0.471   5.617 -0.3679 -1.5437  0.2382
 8639SOL    MW434290   3.313   0.463   5.531 -0.2338  0.4394 -0.5878
 8640SOL     OW34291   0.722   0.540   4.458  0.1815  0.6781 -0.2968
 8640SOL    HW234292   0.758   0.578   4.378  1.5241  0.1306  0.0331
 8640SOL    HW334293   0.791   0.484   4.492 -0.7978 -0.0043  0.6418
 8640SOL    MW434294   0.736   0.538   4.452 -0.1985 -0.1683  0.1686
 8641SOL     OW34295   1.791   3.830   3.457  1.0992 -0.1083 -0.3104
 8641SOL    HW234296   1.829   3.742   3.460  1.6473  0.0925 -1.1425
 8641SOL    HW334297   1.853   3.881   3.405 -0.3179  0.2153 -1.7313
 8641SOL    MW434298   1.804   3.825   3.451  0.0163 -0.5616  0.0256
 8642SOL     OW34299   6.178   1.644   0.190  0.2872  0.0910  0.3406
 8642SOL    HW234300   6.204   1.601   0.109  0.0009 -0.5172  0.5681
 8642SOL    HW334301   6.127   1.719   0.162 -0.2072 -0.3801 -0.0321
 8642SOL    MW434302   6.175   1.648   0.176 -0.7121  0.3160 -0.2893
 8643SOL     OW34303   1.127   0.114   5.267 -0.0753 -0.1934  0.3743
 8643SOL    HW234304   1.182   0.036   5.257  0.1965  0.0906 -0.4075
 8643SOL    HW334305   1.179   0.185   5.230  0.3187  0.6656  2.4657
 8643SOL    MW434306   1.141   0.113   5.260  0.6754 -0.1539 -0.1982
 8644SOL     OW34307   1.208   5.675   5.233 -0.0900 -0.4521  0.0286
 8644SOL    HW234308   1.215   5.640   5.322 -1.4189  0.1732  0.4018
 8644SOL    HW334309   1.241   5.604   5.177 -2.0919 -2.1003  0.8047
 8644SOL    MW434310   1.213   5.661   5.237 -0.2344  0.0903  0.0814
 8645SOL     OW34311   0.745   3.369   5.065 -0.3401  0.2811 -0.3991
 8645SOL    HW234312   0.770   3.277   5.080 -0.2049 -0.1379 -2.8239
 8645SOL    HW334313   0.688   3.366   4.988  0.8563  2.3670 -1.4409
 8645SOL    MW434314   0.741   3.356   5.057  0.1539 -0.2873  0.3395
 8646SOL     OW34315   5.212   6.054   0.185  0.5836 -0.1239 -0.5622
 8646SOL    HW234316   5.152   6.099   0.126  0.3127  0.0728 -0.1446
 8646SOL    HW334317   5.157   6.025   0.258  1.2436  1.4741  0.6332
 8646SOL    MW434318   5.197   6.056   0.187 -0.3184  0.0463  0.0768
 8647SOL     OW34319   2.802   4.540   5.263  0.4703  0.9500 -0.2587
 8647SOL    HW234320   2.773   4.555   5.173 -0.2914 -0.5473 -0.3099
 8647SOL    HW334321   2.721   4.520   5.311  1.1728 -1.9567 -0.0896
 8647SOL    MW434322   2.787   4.539   5.258 -0.8941 -0.3846  0.9042
 8648SOL     OW34323   2.852   4.122   0.751  0.7738  0.2747  0.3818
 8648SOL    HW234324   2.820   4.201   0.707  1.3243  0.2809 -0.0134
 8648SOL    HW334325   2.931   4.098   0.703  0.7984 -0.3249  0.7142
 8648SOL    MW434326   2.858   4.129   0.739 -0.3875 -0.1572  0.1392
 8649SOL     OW34327   1.291   0.325   4.384  0.7071 -0.0528 -0.6358
 8649SOL    HW234328   1.364   0.381   4.359  0.3785 -0.1363 -1.8167
 8649SOL    HW334329   1.323   0.236   4.369  0.3695 -0.0907 -1.1315
 8649SOL    MW434330   1.305   0.320   4.379  0.5647  0.1026 -0.3153
 8650SOL     OW34331   5.061   1.008   0.130 -0.1904 -0.4551  0.0233
 8650SOL    HW234332   5.135   1.001   0.069 -0.6128 -3.2548 -0.3007
 8650SOL    HW334333   5.095   0.975   0.213 -0.0803  1.8318  0.9600
 8650SOL    MW434334   5.075   1.003   0.133 -0.0916 -0.2522 -0.7515
 8651SOL     OW34335   5.758   1.221   6.106  0.7770 -0.0659 -0.0924
 8651SOL    HW234336   5.785   1.228   6.015 -1.0346  1.8180 -0.5567
 8651SOL    HW334337   5.798   1.297   6.149 -2.3334  2.0022 -0.5131
 8651SOL    MW434338   5.767   1.232   6.100  0.3443  0.0360 -0.0929
 8652SOL     OW34339   4.392   4.931   3.925  0.5695  0.2005  0.1562
 8652SOL    HW234340   4.487   4.941   3.929  0.4731  1.0131  0.7463
 8652SOL    HW334341   4.358   5.008   3.971 -0.3948  0.6454 -1.2282
 8652SOL    MW434342   4.400   4.943   3.932  0.2355  0.1510  0.6871
 8653SOL     OW34343   2.374   1.023   6.185  0.2962 -0.6076 -0.2543
 8653SOL    HW234344   2.385   1.021   6.090  1.6588  2.1289 -0.2417
 8653SOL    HW334345   2.432   1.093   6.215 -0.1551 -1.3186  2.6120
 8653SOL    MW434346   2.383   1.032   6.176  0.4541  0.1136  0.3403
 8654SOL     OW34347   0.981   0.466   3.717  0.3966  0.0177 -0.6005
 8654SOL    HW234348   0.887   0.458   3.705 -0.4009  1.0943  3.4857
 8654SOL    HW334349   1.012   0.376   3.727 -0.1895 -0.3329 -1.8459
 8654SOL    MW434350   0.973   0.453   3.717 -0.0521 -0.0048 -0.1160
 8655SOL     OW34351   3.322   1.207   1.029  0.1588 -0.1554  0.0740
 8655SOL    HW234352   3.275   1.247   0.956  0.7072  0.9126  0.2835
 8655SOL    HW334353   3.406   1.180   0.991  0.9148  1.4349  0.5188
 8655SOL    MW434354   3.327   1.209   1.014 -0.3638 -0.3719 -0.1734
 8656SOL     OW34355   0.748   3.187   0.711 -0.0745  0.4705  0.0389
 8656SOL    HW234356   0.747   3.126   0.637  2.3596 -0.4925  0.7331
 8656SOL    HW334357   0.657   3.216   0.719 -1.0528 -2.0126 -1.1904
 8656SOL    MW434358   0.736   3.183   0.702 -0.4904 -0.0754  0.3003
 8657SOL     OW34359   1.568   0.455   2.335 -0.1890 -0.1328  0.1945
 8657SOL    HW234360   1.640   0.411   2.290  0.9972  0.7580  1.1411
 8657SOL    HW334361   1.596   0.547   2.341 -1.4105  0.2369  0.5719
 8657SOL    MW434362   1.581   0.461   2.330  0.2574  0.7545  0.0831
 8658SOL     OW34363   4.636   0.531   2.518  0.2504 -0.3338  0.4656
 8658SOL    HW234364   4.662   0.623   2.523 -2.4619  0.4970  1.1495
 8658SOL    HW334365   4.596   0.522   2.432  0.4097 -0.8536  0.4422
 8658SOL    MW434366   4.634   0.542   2.507  0.2686 -0.1679 -0.2224
 8659SOL     OW34367   5.733   1.623   0.705 -0.7146  0.0353 -0.4089
 8659SOL    HW234368   5.672   1.556   0.675 -1.0911  0.7481 -1.2791
 8659SOL    HW334369   5.819   1.591   0.678 -0.7135 -0.8096  0.5228
 8659SOL    MW434370   5.737   1.610   0.698 -0.3769 -0.4309 -0.1352
 8660SOL     OW34371   4.278   1.913   5.906  0.0823 -0.0180 -0.3927
 8660SOL    HW234372   4.339   1.986   5.903  0.5983 -0.4433 -0.3504
 8660SOL    HW334373   4.211   1.935   5.841  1.4447 -0.5780 -2.0551
 8660SOL    MW434374   4.277   1.926   5.897  0.4421 -0.5090 -0.7154
 8661SOL     OW34375   5.017   6.099   3.167  0.2998 -0.2578  0.5092
 8661SOL    HW234376   5.067   6.018   3.172  0.2536 -0.2890  0.4757
 8661SOL    HW334377   5.064   6.160   3.223  0.4432 -0.2502  0.3822
 8661SOL    MW434378   5.030   6.096   3.175  0.4565  0.2900  0.1416
 8662SOL     OW34379   0.198   5.836   3.247  0.6108 -0.1863  0.1267
 8662SOL    HW234380   0.155   5.831   3.332  0.3711  2.6726  0.2798
 8662SOL    HW334381   0.289   5.811   3.263  0.5908  0.4317  1.2678
 8662SOL    MW434382   0.204   5.832   3.260 -0.3772  0.0166 -0.2400
 8663SOL     OW34383   2.648   5.406   1.762 -0.1733 -0.8724  0.2343
 8663SOL    HW234384   2.648   5.391   1.856 -0.7480 -0.0861  0.3688
 8663SOL    HW334385   2.740   5.423   1.740 -0.1630 -0.1496  0.8121
 8663SOL    MW434386   2.660   5.407   1.771  0.6675  0.1739  0.3869
 8664SOL     OW34387   2.444   3.773   1.483 -0.1313  0.3339 -0.2955
 8664SOL    HW234388   2.486   3.773   1.570  0.9148  0.0616 -0.7802
 8664SOL    HW334389   2.407   3.860   1.474  1.4430  1.0412 -0.3383
 8664SOL    MW434390   2.445   3.784   1.494 -0.3216 -0.6824  0.3835
 8665SOL     OW34391   6.118   5.251   0.802 -0.1958 -0.1650 -0.5091
 8665SOL    HW234392   6.202   5.211   0.781 -0.2822  0.2779 -1.7387
 8665SOL    HW334393   6.053   5.183   0.784 -0.1962 -0.1122 -0.7011
 8665SOL    MW434394   6.120   5.237   0.797  0.0152 -0.4629  0.6309
 8666SOL     OW34395   3.340   3.847   4.642  0.4686 -0.7369 -0.3130
 8666SOL    HW234396   3.270   3.792   4.607  0.6500 -0.8322 -0.5268
 8666SOL    HW334397   3.420   3.811   4.605  0.6211 -0.5510 -0.1677
 8666SOL    MW434398   3.341   3.835   4.633  0.1453  0.4956 -0.4136
 8667SOL     OW34399   4.864   2.548   3.593 -0.0376  0.5845  0.2399
 8667SOL    HW234400   4.954   2.547   3.624  0.1542 -0.0109 -0.3280
 8667SOL    HW334401   4.843   2.456   3.574 -1.1534  0.5457  1.4727
 8667SOL    MW434402   4.873   2.536   3.595  0.1201 -0.1202  0.2165
 8668SOL     OW34403   5.928   3.490   6.299  0.8105 -0.3652 -0.4325
 8668SOL    HW234404   5.846   3.469   6.344  0.8105 -0.4767 -0.4859
 8668SOL    HW334405   5.982   3.532   6.366  1.0168 -1.0258 -0.1792
 8668SOL    MW434406   5.924   3.492   6.314  0.1882  0.1107 -0.1465
 8669SOL     OW34407   3.468   6.229   5.050 -0.0332 -0.4103  0.2043
 8669SOL    HW234408   3.400   6.218   5.117 -1.0231  0.9470 -0.5036
 8669SOL    HW334409   3.420   6.260   4.973  1.3399  0.1338 -0.4657
 8669SOL    MW434410   3.452   6.232   5.049 -0.0741  0.2331  0.5379
 8670SOL     OW34411   5.768   5.941   0.253 -0.3469 -0.7646  0.0329
 8670SOL    HW234412   5.754   6.034   0.236 -1.3445 -0.8442  0.3839
 8670SOL    HW334413   5.862   5.927   0.236 -0.2042  0.2851 -0.0721
 8670SOL    MW434414   5.779   5.951   0.248  0.1819  0.2754  0.2212
 8671SOL     OW34415   4.260   5.064   1.902  0.3346  0.0517  0.5454
 8671SOL    HW234416   4.238   5.156   1.913  1.6098  0.3502  0.8452
 8671SOL    HW334417   4.229   5.022   1.983 -0.7306  0.1034  0.1749
 8671SOL    MW434418   4.253   5.070   1.914 -0.4709  0.4382 -0.7012
 8672SOL     OW34419   5.561   1.672   5.830 -0.3845  0.1385  0.6905
 8672SOL    HW234420   5.598   1.688   5.917  0.5401 -0.2875  0.3801
 8672SOL    HW334421   5.481   1.725   5.829 -1.2903 -1.1026  2.3909
 8672SOL    MW434422   5.555   1.681   5.841  0.0174  0.1506 -0.0293
 8673SOL     OW34423   3.037   3.756   4.867 -0.1844  0.0899 -0.0372
 8673SOL    HW234424   2.994   3.675   4.842 -1.0106  0.3916  0.3471
 8673SOL    HW334425   3.054   3.801   4.784  0.1147 -0.3863 -0.2376
 8673SOL    MW434426   3.034   3.752   4.852 -0.2849  0.5276  0.0578
 8674SOL     OW34427   2.578   6.374   0.167  0.4367 -0.0407 -0.2455
 8674SOL    HW234428   2.651   6.313   0.154 -1.0491 -2.2038  0.9079
 8674SOL    HW334429   2.549   6.357   0.256 -1.7326  0.4704 -0.8055
 8674SOL    MW434430   2.584   6.364   0.177 -0.5239 -0.5243  0.7095
 8675SOL     OW34431   1.041   2.643   5.820 -0.2722 -0.5712 -0.0033
 8675SOL    HW234432   0.972   2.709   5.813  1.0380  0.9725  0.8584
 8675SOL    HW334433   1.032   2.609   5.909 -0.4637 -1.0106 -0.1895
 8675SOL    MW434434   1.031   2.647   5.830 -0.3347  0.4461  0.1049
 8676SOL     OW34435   4.690   4.170   3.822  0.2849  0.3103  0.1790
 8676SOL    HW234436   4.782   4.144   3.830  0.3576  0.6292  0.4061
 8676SOL    HW334437   4.692   4.247   3.765  0.3947  1.6324  1.8955
 8676SOL    MW434438   4.702   4.177   3.815 -0.0603 -0.3322  0.6166
 8677SOL     OW34439   0.805   3.117   5.106 -0.6329 -0.4167  0.3494
 8677SOL    HW234440   0.769   3.110   5.195 -0.0465 -0.0429  0.6251
 8677SOL    HW334441   0.899   3.129   5.120 -0.5840 -0.0072 -0.3186
 8677SOL    MW434442   0.813   3.118   5.120  0.1266 -0.0264  0.1305
 8678SOL     OW34443   4.184   0.510   3.826  0.0747  0.1401  0.1940
 8678SOL    HW234444   4.112   0.467   3.779  0.5947  0.2188 -0.7050
 8678SOL    HW334445   4.255   0.446   3.826 -0.8945 -1.1647  3.7495
 8678SOL    MW434446   4.184   0.496   3.820 -0.8149 -0.6688  0.0250
 8679SOL     OW34447   4.694   4.484   6.107 -0.3344 -0.0556 -0.2680
 8679SOL    HW234448   4.677   4.391   6.090  0.4499 -0.2821  0.1170
 8679SOL    HW334449   4.707   4.489   6.202 -0.8348  0.5303 -0.2261
 8679SOL    MW434450   4.694   4.472   6.117 -0.3689  0.4038  0.3008
 8680SOL     OW34451   6.055   4.818   4.504  0.1065 -0.3004 -0.1560
 8680SOL    HW234452   6.071   4.812   4.599  1.7140  0.7404 -0.3169
 8680SOL    HW334453   6.096   4.739   4.468 -0.1441 -0.4920 -0.0245
 8680SOL    MW434454   6.063   4.807   4.512 -0.5738  0.0054  0.1888
 8681SOL     OW34455   3.792   5.666   6.085 -0.1097 -0.1436  0.1420
 8681SOL    HW234456   3.833   5.593   6.132 -0.4405 -0.1412  0.4402
 8681SOL    HW334457   3.701   5.639   6.075 -0.0099 -0.2073 -0.6350
 8681SOL    MW434458   3.785   5.652   6.090  0.0707 -0.1537 -0.5598
 8682SOL     OW34459   5.680   4.089   0.309  0.2043  0.5198 -0.2872
 8682SOL    HW234460   5.748   4.037   0.351  0.4418  0.1737 -1.0695
 8682SOL    HW334461   5.598   4.044   0.331  0.1298  1.3623  1.2814
 8682SOL    MW434462   5.678   4.076   0.317 -0.7389  0.5063  0.5462
 8683SOL     OW34463   6.383   2.706   2.497 -0.1558 -0.0821 -0.4292
 8683SOL    HW234464   6.309   2.760   2.525  0.6239  0.0684  1.5010
 8683SOL    HW334465   6.350   2.658   2.422 -1.5673  1.4723 -0.8789
 8683SOL    MW434466   6.369   2.707   2.491  0.1020  0.7714 -0.0110
 8684SOL     OW34467   0.507   0.938   3.189 -0.3747 -0.2236  0.1006
 8684SOL    HW234468   0.501   0.845   3.167 -2.5650  0.1762 -1.3802
 8684SOL    HW334469   0.430   0.977   3.148 -0.7270  1.9196  2.5372
 8684SOL    MW434470   0.496   0.931   3.180  0.3630  0.3977  0.2175
 8685SOL     OW34471   5.579   1.760   2.692  0.3598 -0.0975  0.0551
 8685SOL    HW234472   5.523   1.751   2.770 -1.1285 -0.6520 -1.0236
 8685SOL    HW334473   5.666   1.777   2.727 -0.0286 -1.5481  1.8908
 8685SOL    MW434474   5.583   1.761   2.707 -0.1104 -0.6323 -0.0876
 8686SOL     OW34475   4.880   4.054   5.761 -0.2581 -0.4800  0.0375
 8686SOL    HW234476   4.955   4.031   5.706 -0.5780 -1.6265  0.0476
 8686SOL    HW334477   4.879   3.986   5.830 -0.7473  0.0655  0.5800
 8686SOL    MW434478   4.890   4.042   5.763  0.2297  0.5771 -0.4609
 8687SOL     OW34479   6.069   4.969   5.304 -0.2511  0.1191  0.1536
 8687SOL    HW234480   6.036   4.897   5.356  0.1724 -1.7030 -1.9463
 8687SOL    HW334481   6.151   4.994   5.346 -1.5019  1.0031  2.2208
 8687SOL    MW434482   6.076   4.963   5.316 -0.1652 -0.1707 -0.1576
 8688SOL     OW34483   5.554   4.797   2.854 -0.1944 -0.3493 -0.2232
 8688SOL    HW234484   5.545   4.716   2.804  2.1146 -0.6992 -0.1849
 8688SOL    HW334485   5.465   4.832   2.860 -0.8850 -1.5696 -2.4103
 8688SOL    MW434486   5.541   4.791   2.848  0.1263 -0.1871  0.4503
 8689SOL     OW34487   0.827   3.775   5.029  0.7189  0.0084  0.1070
 8689SOL    HW234488   0.890   3.704   5.018 -0.0297 -0.4785 -1.2700
 8689SOL    HW334489   0.787   3.785   4.943 -2.9581 -1.4472  1.4368
 8689SOL    MW434490   0.830   3.767   5.016 -0.4377  0.0255 -0.5169
 8690SOL     OW34491   2.098   6.020   0.149 -0.2190 -0.2392  0.3239
 8690SOL    HW234492   2.087   6.092   0.212 -0.4903  0.2748 -0.3068
 8690SOL    HW334493   2.060   5.945   0.194  0.3120 -0.0598  1.1019
 8690SOL    MW434494   2.091   6.020   0.164  0.1613 -0.4230  0.2474
 8691SOL     OW34495   3.145   2.522   2.189  0.2786  0.4536  1.0891
 8691SOL    HW234496   3.223   2.536   2.242  0.3740 -1.0224  1.3782
 8691SOL    HW334497   3.091   2.600   2.204  2.2824  2.2208 -0.2472
 8691SOL    MW434498   3.148   2.534   2.198  0.1095  0.3095  0.1756
 8692SOL     OW34499   5.394   1.176   0.648  0.6154 -0.1505  0.4153
 8692SOL    HW234500   5.434   1.116   0.710  1.0673 -2.0386 -1.5640
 8692SOL    HW334501   5.383   1.124   0.568  0.0728  2.1300 -1.0931
 8692SOL    MW434502   5.398   1.161   0.645  0.2624 -0.4082  0.0968
 8693SOL     OW34503   2.248   1.279   1.321  0.6156  0.0612 -0.1246
 8693SOL    HW234504   2.190   1.204   1.306 -0.8174  0.5150  2.5237
 8693SOL    HW334505   2.328   1.240   1.356  0.5975 -0.3679 -0.5539
 8693SOL    MW434506   2.251   1.264   1.324 -0.1070 -0.2601 -0.5564
 8694SOL     OW34507   1.008   3.540   0.204  0.7396  0.4073  0.1515
 8694SOL    HW234508   1.057   3.460   0.223 -1.1135 -1.3747 -2.0007
 8694SOL    HW334509   1.074   3.604   0.181  2.2041 -0.9349  0.4693
 8694SOL    MW434510   1.023   3.538   0.204 -0.4307 -0.1262 -0.0862
 8695SOL     OW34511   0.903   0.351   1.694  0.4336  0.2992  0.4682
 8695SOL    HW234512   0.961   0.288   1.650 -0.7293 -0.7854  0.4374
 8695SOL    HW334513   0.870   0.406   1.623  0.3517  0.0283  0.2933
 8695SOL    MW434514   0.906   0.350   1.679  0.1810 -0.0163  0.0363
 8696SOL     OW34515   1.223   5.296   6.050  0.2305 -0.6462  0.2986
 8696SOL    HW234516   1.169   5.338   5.983 -0.2005  0.2457  1.1802
 8696SOL    HW334517   1.306   5.278   6.006  1.1851  2.8965  0.3168
 8696SOL    MW434518   1.227   5.299   6.036 -0.1498 -0.1207 -0.2572
 8697SOL     OW34519   1.965   2.891   5.080  0.0772  0.2108 -0.4385
 8697SOL    HW234520   1.916   2.938   5.148  1.1663 -1.4418  1.5999
 8697SOL    HW334521   2.048   2.939   5.073  0.8190 -0.8074  0.9814
 8697SOL    MW434522   1.969   2.904   5.088  0.2019 -0.0884 -0.6154
 8698SOL     OW34523   2.433   6.388   2.876  0.0967 -0.6198 -0.2081
 8698SOL    HW234524   2.466   6.321   2.817  0.1898 -1.5544  0.8654
 8698SOL    HW334525   2.377   6.340   2.937  1.0485  0.0737  1.2631
 8698SOL    MW434526   2.430   6.373   2.876  0.0887 -0.0766 -0.3632
 8699SOL     OW34527   4.781   4.047   0.147 -0.5494 -0.1565 -0.0774
 8699SOL    HW234528   4.801   4.012   0.233 -0.6136  0.9843  0.4151
 8699SOL    HW334529   4.711   3.990   0.113 -0.6242 -0.5184  0.6784
 8699SOL    MW434530   4.774   4.034   0.154 -0.1883 -0.1264  0.0682
 8700SOL     OW34531   5.852   2.042   2.464 -0.1359 -0.5531 -0.0188
 8700SOL    HW234532   5.872   2.127   2.425 -0.1723 -0.1761  0.7542
 8700SOL    HW334533   5.777   2.059   2.521 -0.8450 -1.3391 -0.6903
 8700SOL    MW434534   5.845   2.055   2.466  0.2511 -0.1781 -0.0076
 8701SOL     OW34535   3.951   5.245   1.168 -0.2220 -0.5384  0.0309
 8701SOL    HW234536   3.929   5.174   1.228 -0.0852 -1.4240 -0.9335
 8701SOL    HW334537   3.887   5.238   1.098 -0.0132  0.0967 -0.2308
 8701SOL    MW434538   3.940   5.235   1.167  0.0540 -0.2903  0.1993
 8702SOL     OW34539   4.476   4.736   4.266  0.4578 -0.0307 -0.3262
 8702SOL    HW234540   4.556   4.788   4.261  0.6734 -0.3468 -0.2120
 8702SOL    HW334541   4.484   4.673   4.194 -0.5499  1.1174 -1.4924
 8702SOL    MW434542   4.487   4.734   4.256  0.9707 -0.0184 -0.4905
 8703SOL     OW34543   3.863   0.178   3.038 -0.0301  0.6789 -0.2557
 8703SOL    HW234544   3.939   0.219   3.079  0.1978  0.1850 -0.1730
 8703SOL    HW334545   3.854   0.094   3.084 -0.1251  0.3768 -0.8253
 8703SOL    MW434546   3.872   0.172   3.050 -0.5950 -0.5355 -0.1114
 8704SOL     OW34547   1.490   0.188   5.472 -0.0867 -0.1657  0.2437
 8704SOL    HW234548   1.554   0.243   5.517  0.9530 -0.8300 -0.4030
 8704SOL    HW334549   1.407   0.235   5.484  0.5277  0.7894  0.9558
 8704SOL    MW434550   1.487   0.201   5.480  0.1081 -0.6920  0.2260
 8705SOL     OW34551   2.857   3.792   5.950  0.3026  0.2188 -0.4651
 8705SOL    HW234552   2.881   3.870   6.001 -0.6979  1.4628 -1.7978
 8705SOL    HW334553   2.762   3.793   5.949  0.2927  0.2980 -2.4134
 8705SOL    MW434554   2.848   3.803   5.957  0.8205 -0.3707  0.0848
 8706SOL     OW34555   5.525   4.100   3.258  0.0049 -0.2729 -0.3139
 8706SOL    HW234556   5.604   4.076   3.307 -0.6694  2.0297  2.1383
 8706SOL    HW334557   5.455   4.050   3.300 -0.5734  1.6838  1.1827
 8706SOL    MW434558   5.526   4.090   3.270 -0.6647 -0.4207  0.0843
 8707SOL     OW34559   5.217   2.204   4.338  0.0117 -0.0330  0.0103
 8707SOL    HW234560   5.144   2.265   4.328  0.3093  0.2526 -0.4366
 8707SOL    HW334561   5.264   2.234   4.415 -0.9932 -0.9014  1.0084
 8707SOL    MW434562   5.213   2.216   4.347 -0.2060 -0.1054 -0.3283
 8708SOL     OW34563   1.607   0.662   5.732  0.1928 -0.1760  0.1232
 8708SOL    HW234564   1.676   0.685   5.669  0.5538 -0.8459  0.2535
 8708SOL    HW334565   1.553   0.740   5.740  0.7867  0.2695 -0.1899
 8708SOL    MW434566   1.609   0.675   5.725 -0.3804  0.1985 -0.2085
 8709SOL     OW34567   4.246   4.920   0.630  0.2237  0.0951  0.2294
 8709SOL    HW234568   4.212   4.926   0.541  0.7878  0.2956  0.0242
 8709SOL    HW334569   4.171   4.939   0.686 -0.0369  0.3772 -0.2154
 8709SOL    MW434570   4.232   4.923   0.626  0.2570 -0.2534 -0.3540
 8710SOL     OW34571   4.306   6.298   5.607  0.2084 -0.9805  0.2620
 8710SOL    HW234572   4.239   6.242   5.646 -1.7328  0.4016 -0.9359
 8710SOL    HW334573   4.260   6.350   5.541  2.2027  0.9277  0.2253
 8710SOL    MW434574   4.291   6.298   5.604 -0.0511  0.8389  0.3023
 8711SOL     OW34575   5.874   2.480   2.546  0.0821 -0.4136 -0.0185
 8711SOL    HW234576   5.903   2.400   2.502  0.5737 -0.9829  1.2873
 8711SOL    HW334577   5.954   2.517   2.583 -0.1164  0.7762 -0.7138
 8711SOL    MW434578   5.888   2.474   2.545  0.1944  0.1389  0.3326
 8712SOL     OW34579   1.432   1.196   5.587  0.9543  0.0799 -0.6938
 8712SOL    HW234580   1.503   1.168   5.645 -0.9612 -1.4716  1.0491
 8712SOL    HW334581   1.435   1.291   5.590  1.7018  0.0384  0.9952
 8712SOL    MW434582   1.442   1.205   5.595  0.2278 -0.1977  0.2730
 8713SOL     OW34583   4.900   0.794   5.899  0.7900 -0.0233 -0.2060
 8713SOL    HW234584   4.809   0.804   5.872  1.0155 -1.3254 -1.6365
 8713SOL    HW334585   4.896   0.748   5.983  0.1167 -0.1010 -0.2781
 8713SOL    MW434586   4.888   0.789   5.906 -0.4300  0.1859  0.4427
 8714SOL     OW34587   2.429   4.752   3.236  0.2444  0.4030 -0.2277
 8714SOL    HW234588   2.457   4.722   3.323 -0.5781  0.2141 -0.0185
 8714SOL    HW334589   2.362   4.817   3.254  0.7501  1.0662 -0.7162
 8714SOL    MW434590   2.424   4.756   3.250  0.4810  0.3342 -0.1489
 8715SOL     OW34591   2.907   2.985   4.108 -0.2027  0.2962 -0.1799
 8715SOL    HW234592   3.000   2.959   4.104 -0.1140  0.5245  0.3636
 8715SOL    HW334593   2.883   2.976   4.200 -1.2658 -1.6097 -0.5870
 8715SOL    MW434594   2.916   2.980   4.119 -0.1012 -0.1153  0.2415
 8716SOL     OW34595   2.571   6.285   4.099 -0.0919  0.4209  0.1882
 8716SOL    HW234596   2.632   6.211   4.106 -1.0640 -0.2551  2.0357
 8716SOL    HW334597   2.628   6.362   4.099  0.8453 -0.2432  0.4209
 8716SOL    MW434598   2.587   6.285   4.100  0.1890 -0.2112 -0.3236
 8717SOL     OW34599   4.166   1.511   3.367  0.2898 -0.1861 -0.1365
 8717SOL    HW234600   4.137   1.552   3.449 -1.1173 -0.9417 -0.2251
 8717SOL    HW334601   4.089   1.514   3.310  0.9031 -0.7138 -1.0233
 8717SOL    MW434602   4.152   1.517   3.370  0.5702 -0.3828 -0.3595
 8718SOL     OW34603   3.516   1.221   0.552  0.2621  0.0665 -0.3607
 8718SOL    HW234604   3.540   1.304   0.594 -1.8613  0.6665 -0.2050
 8718SOL    HW334605   3.430   1.238   0.513 -0.9369 -2.4733  0.9651
 8718SOL    MW434606   3.508   1.235   0.552  0.2132 -0.1281  0.0914
 8719SOL     OW34607   6.354   1.443   2.318 -0.2649 -0.5702 -0.4181
 8719SOL    HW234608   6.414   1.437   2.244  0.7465 -1.3545  0.4318
 8719SOL    HW334609   6.275   1.396   2.289  0.4024 -1.5252 -0.7382
 8719SOL    MW434610   6.351   1.436   2.304  0.1157  0.3134 -0.1095
 8720SOL     OW34611   2.408   1.382   2.833 -0.3383  0.2498 -0.1483
 8720SOL    HW234612   2.412   1.383   2.737 -0.8191  0.8530 -0.1620
 8720SOL    HW334613   2.425   1.290   2.856 -0.5819  0.0285 -0.8237
 8720SOL    MW434614   2.411   1.370   2.823 -0.0074  0.6749 -0.2560
 8721SOL     OW34615   4.108   2.952   4.204 -0.0085  0.3409 -0.6200
 8721SOL    HW234616   4.024   2.968   4.162 -0.9985 -0.7202  0.8784
 8721SOL    HW334617   4.099   2.866   4.245  1.7262  0.3122 -0.2017
 8721SOL    MW434618   4.096   2.943   4.204 -0.0907  0.0713  0.3496
 8722SOL     OW34619   4.544   6.277   5.115 -0.3347 -0.3802  0.0056
 8722SOL    HW234620   4.578   6.247   5.031 -1.0263 -0.2418 -0.3320
 8722SOL    HW334621   4.494   6.202   5.149  1.0422 -0.9187  0.9389
 8722SOL    MW434622   4.542   6.263   5.109  0.4879  1.0743 -0.1114
 8723SOL     OW34623   0.605   4.335   4.405 -0.1071  0.2439 -0.1390
 8723SOL    HW234624   0.531   4.275   4.392 -0.5599  0.9994 -1.1927
 8723SOL    HW334625   0.564   4.420   4.417  0.5026  0.3007  1.9172
 8723SOL    MW434626   0.590   4.338   4.405 -0.0730 -0.0461  0.2431
 8724SOL     OW34627   6.310   0.723   2.720  0.2705  0.1248  0.6326
 8724SOL    HW234628   6.315   0.778   2.799 -1.2223  0.2052  0.6871
 8724SOL    HW334629   6.379   0.757   2.663 -0.2351  1.6835  0.9084
 8724SOL    MW434630   6.320   0.735   2.723 -0.4834  0.2819  0.8090
 8725SOL     OW34631   5.017   2.051   2.672  0.1980  0.0816  0.2783
 8725SOL    HW234632   4.971   2.111   2.730  0.7633 -0.3361  1.1776
 8725SOL    HW334633   5.063   2.108   2.610  0.2433  0.5646  0.7481
 8725SOL    MW434634   5.017   2.066   2.671 -0.2126 -0.6061 -0.6691
 8726SOL     OW34635   6.262   1.260   1.696  0.1995 -0.2607  0.4091
 8726SOL    HW234636   6.319   1.331   1.724 -1.1937  0.8358  0.5609
 8726SOL    HW334637   6.177   1.280   1.736 -0.9763 -0.4415 -1.8494
 8726SOL    MW434638   6.258   1.272   1.705  0.2268  0.1035 -0.2271
 8727SOL     OW34639   5.474   2.886   4.849  0.6469 -0.2884 -0.3459
 8727SOL    HW234640   5.430   2.917   4.770  1.3654 -1.8936 -1.4488
 8727SOL    HW334641   5.512   2.964   4.889  0.4860  0.5260 -1.7404
 8727SOL    MW434642   5.473   2.900   4.844 -0.2022  0.2955 -0.6010
 8728SOL     OW34643   6.196   2.244   5.868  0.2340  0.0662 -0.4482
 8728SOL    HW234644   6.212   2.246   5.774  0.3131 -0.5247 -0.4551
 8728SOL    HW334645   6.118   2.189   5.877  0.8417 -0.7530 -0.0985
 8728SOL    MW434646   6.188   2.237   5.857  0.2225  0.0056  0.7024
 8729SOL     OW34647   2.435   4.022   6.332 -0.3886 -0.6539 -0.1037
 8729SOL    HW234648   2.481   4.041   6.414  0.4197 -0.9688 -0.4808
 8729SOL    HW334649   2.377   4.097   6.320  0.6453  0.1782 -0.0608
 8729SOL    MW434650   2.433   4.034   6.342  0.0801  0.2814 -0.2773
 8730SOL     OW34651   3.753   3.644   4.437  0.8205  0.3207 -0.1113
 8730SOL    HW234652   3.845   3.619   4.440  0.2983 -1.8982 -0.5020
 8730SOL    HW334653   3.738   3.675   4.348  1.0386  0.0108 -0.2552
 8730SOL    MW434654   3.763   3.645   4.426  0.0375  0.4951  0.4578
 8731SOL     OW34655   4.114   4.947   4.821  0.3601 -0.4617 -0.6000
 8731SOL    HW234656   4.109   5.021   4.883  0.8883 -1.4449  0.6477
 8731SOL    HW334657   4.062   4.976   4.746  0.3395  1.0796 -0.0294
 8731SOL    MW434658   4.106   4.961   4.819  0.3583 -0.5230  0.1100
 8732SOL     OW34659   1.014   2.674   2.389 -0.0584 -0.0353  0.0249
 8732SOL    HW234660   0.953   2.641   2.322  1.1665 -1.0460 -0.6328
 8732SOL    HW334661   1.066   2.740   2.344  1.5408 -1.5154 -0.4148
 8732SOL    MW434662   1.012   2.678   2.374  0.4864 -0.4437 -0.1219
 8733SOL     OW34663   5.384   4.449   5.426 -0.7319 -0.2689 -0.0616
 8733SOL    HW234664   5.373   4.536   5.389  0.7141 -0.5731 -1.2880
 8733SOL    HW334665   5.409   4.394   5.352 -0.7612 -1.5478  0.8476
 8733SOL    MW434666   5.386   4.453   5.412  0.2121  0.0917 -0.6651
 8734SOL     OW34667   1.090   3.144   2.353 -0.7214 -0.6684  0.0512
 8734SOL    HW234668   1.062   3.195   2.277  1.3100 -0.7784 -0.8411
 8734SOL    HW334669   1.115   3.059   2.318  2.4123 -0.0022  0.3754
 8734SOL    MW434670   1.090   3.140   2.339 -0.4447  0.1580 -0.2242
 8735SOL     OW34671   6.223   3.475   4.701 -0.8624 -0.2779 -0.2273
 8735SOL    HW234672   6.265   3.510   4.622  1.4762 -0.0425  1.0550
 8735SOL    HW334673   6.262   3.388   4.712 -0.8541 -0.1447  0.8832
 8735SOL    MW434674   6.234   3.468   4.692 -0.3284  0.4444  0.5978
 8736SOL     OW34675   6.425   0.389   5.192 -0.1537 -0.1941  0.1006
 8736SOL    HW234676   6.379   0.382   5.108  0.8071  0.0354 -0.4657
 8736SOL    HW334677   6.414   0.303   5.233 -0.4380 -0.3837 -0.3653
 8736SOL    MW434678   6.417   0.377   5.186 -0.1290  0.3739  0.4296
 8737SOL     OW34679   3.576   3.348   0.869  0.0915  0.0250 -0.0480
 8737SOL    HW234680   3.608   3.306   0.789 -1.2009  0.5541 -0.8810
 8737SOL    HW334681   3.653   3.389   0.907  1.1552 -2.0472  0.1606
 8737SOL    MW434682   3.590   3.348   0.864  0.4234 -0.4672 -0.3075
 8738SOL     OW34683   4.805   0.582   3.984  0.6254 -0.7946 -0.0330
 8738SOL    HW234684   4.763   0.649   4.038  0.9817  1.1677 -2.0370
 8738SOL    HW334685   4.886   0.561   4.031 -0.3696 -1.2677  1.5704
 8738SOL    MW434686   4.810   0.588   3.998 -0.9894 -0.4871 -0.0240
 8739SOL     OW34687   2.711   0.092   4.066  0.1948 -0.2148 -0.1370
 8739SOL    HW234688   2.793   0.053   4.036  0.2948 -1.8932  2.0455
 8739SOL    HW334689   2.735   0.139   4.146 -0.7523  0.4480 -0.2268
 8739SOL    MW434690   2.725   0.093   4.073  0.5911 -0.4211 -0.6438
 8740SOL     OW34691   5.026   2.631   3.031  0.0666  0.0964  0.0629
 8740SOL    HW234692   5.003   2.541   3.008  0.9388  0.2879 -1.8089
 8740SOL    HW334693   5.094   2.622   3.098  0.0556 -0.6485 -0.0139
 8740SOL    MW434694   5.032   2.618   3.036 -0.4160  0.0831  0.5349
 8741SOL     OW34695   2.758   3.215   2.827  0.3384 -0.0895 -0.4203
 8741SOL    HW234696   2.673   3.234   2.867  0.6063  0.4788 -0.1182
 8741SOL    HW334697   2.736   3.182   2.740 -0.2087 -0.3407 -0.1885
 8741SOL    MW434698   2.744   3.213   2.821 -0.0919 -0.3164  0.3642
 8742SOL     OW34699   0.856   1.365   1.602 -0.7095 -0.0774 -0.0101
 8742SOL    HW234700   0.805   1.444   1.580 -0.9005 -0.3900 -0.7114
 8742SOL    HW334701   0.936   1.399   1.643 -0.0164  0.5878 -1.8148
 8742SOL    MW434702   0.860   1.380   1.605 -0.4123  0.6756 -0.3344
 8743SOL     OW34703   0.490   1.466   2.044  0.5114  0.1220 -0.0213
 8743SOL    HW234704   0.545   1.534   2.083  0.6353  0.6625 -1.1004
 8743SOL    HW334705   0.401   1.501   2.048  0.7450  1.1219 -2.0300
 8743SOL    MW434706   0.485   1.479   2.049 -0.4226  0.0779 -0.4993
 8744SOL     OW34707   2.475   5.865   2.762 -0.6488 -0.1513 -0.3740
 8744SOL    HW234708   2.532   5.790   2.742 -0.9837 -0.0869 -1.7129
 8744SOL    HW334709   2.429   5.882   2.679 -1.0666  1.1200  0.1007
 8744SOL    MW434710   2.476   5.857   2.748  0.5939  0.2468  0.0567
 8745SOL     OW34711   0.269   1.733   6.221  0.5408  0.5064  0.3785
 8745SOL    HW234712   0.249   1.652   6.269  0.1366 -0.0944 -0.7757
 8745SOL    HW334713   0.344   1.711   6.166 -0.3652  0.5107 -0.9004
 8745SOL    MW434714   0.276   1.719   6.220 -0.2544 -0.3102  0.2372
 8746SOL     OW34715   2.528   1.753   0.342 -0.5796  0.1763 -0.1770
 8746SOL    HW234716   2.506   1.745   0.249 -0.6373  0.3362 -0.1788
 8746SOL    HW334717   2.535   1.848   0.356 -0.6322  0.1549 -0.0040
 8746SOL    MW434718   2.526   1.765   0.332  0.0901  0.1871  0.1288
 8747SOL     OW34719   3.004   4.807   0.689  0.1343 -0.2103 -0.1192
 8747SOL    HW234720   3.042   4.838   0.771  0.0334 -0.9095  0.1960
 8747SOL    HW334721   2.912   4.792   0.709  0.3640 -1.5524 -0.0164
 8747SOL    MW434722   2.997   4.809   0.702  0.2027  0.0041  0.7875
 8748SOL     OW34723   3.789   3.799   6.251  0.3018  0.2985 -0.5438
 8748SOL    HW234724   3.866   3.836   6.209 -0.0283 -0.5304 -1.9328
 8748SOL    HW334725   3.719   3.807   6.186 -0.7707  0.8834  0.6199
 8748SOL    MW434726   3.790   3.805   6.237  0.2217 -0.1077  0.1135
 8749SOL     OW34727   6.274   5.523   3.764 -0.2949 -0.4039  0.2618
 8749SOL    HW234728   6.249   5.536   3.672  1.0525 -1.2109 -0.2426
 8749SOL    HW334729   6.370   5.525   3.763 -0.2630 -0.6214  1.6283
 8749SOL    MW434730   6.283   5.525   3.752 -0.1839  0.0680 -0.4022
 8750SOL     OW34731   2.798   1.666   3.722 -0.2034  0.2316  0.3596
 8750SOL    HW234732   2.749   1.742   3.693 -0.0142  0.3938  0.4647
 8750SOL    HW334733   2.847   1.696   3.798  0.7880  0.3427 -0.2944
 8750SOL    MW434734   2.798   1.680   3.728  0.1148  0.4106 -0.4203
 8751SOL     OW34735   4.117   4.939   3.193 -0.0501  0.3403 -0.0803
 8751SOL    HW234736   4.191   4.976   3.143  2.1282 -1.8523  1.2925
 8751SOL    HW334737   4.118   4.846   3.172 -1.4698  0.0191  1.1399
 8751SOL    MW434738   4.127   4.932   3.184  0.4465 -0.2575  0.1869
 8752SOL     OW34739   6.278   2.733   1.093 -0.5394 -0.1802 -0.0877
 8752SOL    HW234740   6.207   2.674   1.120 -0.9492 -0.5672 -1.8905
 8752SOL    HW334741   6.234   2.807   1.053  0.0552 -0.4600 -1.2995
 8752SOL    MW434742   6.263   2.735   1.092  0.1692  0.3002  0.3667
 8753SOL     OW34743   3.470   4.176   6.154  0.3884 -0.3380  0.1696
 8753SOL    HW234744   3.476   4.263   6.192  0.1790 -0.4161  0.3815
 8753SOL    HW334745   3.546   4.129   6.188  0.5162 -0.2299  0.0328
 8753SOL    MW434746   3.481   4.181   6.164 -0.1164  0.0471 -0.2144
 8754SOL     OW34747   5.715   1.255   2.749  0.4832  0.2569  0.5216
 8754SOL    HW234748   5.662   1.274   2.826  0.4666  0.9580  0.3469
 8754SOL    HW334749   5.684   1.169   2.719  0.2759  0.1226  1.1126
 8754SOL    MW434750   5.704   1.247   2.755 -0.1072 -0.5477  0.3172
 8755SOL     OW34751   6.143   4.532   2.664  0.0396  0.0691 -0.2930
 8755SOL    HW234752   6.062   4.509   2.711 -0.8516  1.3023 -1.1644
 8755SOL    HW334753   6.121   4.521   2.572  0.9777  0.1223 -0.5314
 8755SOL    MW434754   6.129   4.528   2.658 -0.2567 -0.1728 -0.0162
 8756SOL     OW34755   5.701   2.050   0.001  0.7468 -0.0411 -0.4483
 8756SOL    HW234756   5.613   2.070   0.033  0.3799  0.3996 -1.6673
 8756SOL    HW334757   5.703   1.954  -0.006 -0.6567  0.0389 -3.0438
 8756SOL    MW434758   5.690   2.040   0.004  0.1649 -0.3897  0.6380
 8757SOL     OW34759   5.248   3.391   3.423  0.1072  0.3389  0.6180
 8757SOL    HW234760   5.172   3.333   3.431 -0.5383  0.8525 -1.3083
 8757SOL    HW334761   5.237   3.434   3.339  2.3276  0.7638  0.4795
 8757SOL    MW434762   5.236   3.389   3.413  0.0321 -0.1911  0.8628
 8758SOL     OW34763   6.130   6.256   5.401  0.2028  0.0005 -0.3378
 8758SOL    HW234764   6.099   6.203   5.474  1.5158  1.1548  1.1163
 8758SOL    HW334765   6.198   6.312   5.438  0.9064  0.6581 -2.4446
 8758SOL    MW434766   6.135   6.257   5.415  0.6258 -0.3449 -0.2543
 8759SOL     OW34767   0.929   6.124   1.084 -0.0603 -0.5029  0.0801
 8759SOL    HW234768   0.911   6.204   1.035  1.7454  0.0049  0.1677
 8759SOL    HW334769   0.982   6.152   1.158 -2.2714 -1.3364  2.1268
 8759SOL    MW434770   0.934   6.138   1.087 -0.2846 -0.3732 -0.2176
 8760SOL     OW34771   5.974   5.642   0.641  0.4498  0.1060  0.2790
 8760SOL    HW234772   5.896   5.688   0.670 -0.2694 -1.0008  0.1504
 8760SOL    HW334773   6.023   5.626   0.722  0.1793  0.1414  0.4521
 8760SOL    MW434774   5.970   5.646   0.656  0.4583 -0.3495 -0.0470
 8761SOL     OW34775   5.776   2.480   6.085  0.6304 -0.2093  0.2433
 8761SOL    HW234776   5.844   2.449   6.024  0.5278 -1.1057  0.5764
 8761SOL    HW334777   5.820   2.549   6.135  1.0340 -0.1783 -0.1424
 8761SOL    MW434778   5.791   2.485   6.084 -0.0047  0.4326  0.3836
 8762SOL     OW34779   3.434   5.526   1.157  0.4101 -0.1657 -0.0711
 8762SOL    HW234780   3.444   5.613   1.118  2.1270 -0.3819 -0.1994
 8762SOL    HW334781   3.513   5.514   1.210 -0.6075 -0.9691  1.3507
 8762SOL    MW434782   3.446   5.536   1.159  0.3902 -0.4096  0.0950
 8763SOL     OW34783   1.079   4.712   0.244 -0.3424 -0.4088  0.7658
 8763SOL    HW234784   1.051   4.653   0.173  0.0110  1.8678 -1.3927
 8763SOL    HW334785   1.133   4.657   0.300  1.0422 -1.9049 -1.8295
 8763SOL    MW434786   1.082   4.697   0.242 -0.2909 -0.1767  0.4050
 8764SOL     OW34787   4.521   5.586   3.600 -0.0316  0.5886 -0.1868
 8764SOL    HW234788   4.453   5.553   3.658  0.6055 -2.2920 -0.9400
 8764SOL    HW334789   4.582   5.631   3.658 -2.2371  2.8973  0.5548
 8764SOL    MW434790   4.520   5.588   3.616 -0.0460  0.0491  0.3413
 8765SOL     OW34791   4.160   0.893   0.735 -0.4077 -0.1179  0.0919
 8765SOL    HW234792   4.187   0.834   0.665  0.0388 -0.5186  0.5955
 8765SOL    HW334793   4.119   0.837   0.800  0.6048  0.0076  0.8739
 8765SOL    MW434794   4.158   0.878   0.735  0.2251 -0.7552 -0.2265
 8766SOL     OW34795   4.182   6.370   4.770 -0.5176  0.3291 -0.7577
 8766SOL    HW234796   4.157   6.279   4.757 -1.4300  0.7200 -1.9968
 8766SOL    HW334797   4.156   6.414   4.689  0.6518  1.5446 -0.5242
 8766SOL    MW434798   4.176   6.364   4.758  0.4840 -0.2630 -0.3032
 8767SOL     OW34799   6.045   2.744   5.903  0.3760 -0.3983  0.6896
 8767SOL    HW234800   6.085   2.795   5.832 -0.9428 -0.1533  0.1003
 8767SOL    HW334801   6.035   2.806   5.974  1.7806 -0.6633  1.1630
 8767SOL    MW434802   6.049   2.759   5.903 -0.4221  0.2282  0.3518
 8768SOL     OW34803   3.495   0.873   1.626  0.6051 -0.0708  0.6234
 8768SOL    HW234804   3.532   0.912   1.547  0.6487  0.1464  0.7503
 8768SOL    HW334805   3.461   0.947   1.676 -0.5088 -0.3056  0.2501
 8768SOL    MW434806   3.495   0.888   1.623  0.1279  0.0323 -0.2531
 8769SOL     OW34807   4.025   2.682   1.530  0.4127  0.1049  0.5335
 8769SOL    HW234808   4.095   2.717   1.586  0.6890 -0.3999  0.5079
 8769SOL    HW334809   3.969   2.758   1.512 -0.0833  0.1296  2.0673
 8769SOL    MW434810   4.027   2.697   1.535  0.0660  0.6363 -0.1912
 8770SOL     OW34811   0.640   4.536   5.087  0.1205 -0.0633 -0.2063
 8770SOL    HW234812   0.649   4.603   5.154  0.3118 -0.1727 -0.1233
 8770SOL    HW334813   0.681   4.458   5.125  0.0786 -0.1716 -0.3824
 8770SOL    MW434814   0.646   4.535   5.101  0.1339  0.7166 -0.4303
 8771SOL     OW34815   4.094   5.814   3.777  0.1019 -0.0832 -0.3881
 8771SOL    HW234816   4.006   5.791   3.748 -1.0214 -2.4046  4.0711
 8771SOL    HW334817   4.082   5.895   3.827  0.8819  0.5493 -1.1943
 8771SOL    MW434818   4.081   5.822   3.780  0.2028  0.2918  0.7524
 8772SOL     OW34819   0.380   4.020   2.903  0.3494  0.4872  0.1701
 8772SOL    HW234820   0.471   4.031   2.930  0.8027 -1.5976 -0.3254
 8772SOL    HW334821   0.333   3.999   2.983  0.7500 -0.6628  0.1223
 8772SOL    MW434822   0.386   4.018   2.917  0.0203  0.0281 -0.0612
 8773SOL     OW34823   6.122   2.255   3.716 -0.7150 -0.3081 -0.4720
 8773SOL    HW234824   6.097   2.324   3.778  2.8102  0.4842  0.2986
 8773SOL    HW334825   6.062   2.266   3.643 -0.7214  3.2369 -0.1173
 8773SOL    MW434826   6.111   2.266   3.715 -0.1140 -0.7044 -0.0638
 8774SOL     OW34827   3.177   0.099   6.035 -0.4435  0.2070 -0.1293
 8774SOL    HW234828   3.208   0.147   5.957 -0.0744 -0.4109 -0.3695
 8774SOL    HW334829   3.253   0.049   6.063 -0.6950  0.1223  0.4040
 8774SOL    MW434830   3.191   0.099   6.028  0.0358 -0.0772  0.4924
 8775SOL     OW34831   2.459   0.864   5.723  0.1459 -0.2200 -0.1664
 8775SOL    HW234832   2.408   0.803   5.670  0.0733  0.2762 -0.6775
 8775SOL    HW334833   2.485   0.813   5.800  1.1738 -1.2841 -1.1846
 8775SOL    MW434834   2.456   0.850   5.726  0.0141  0.7381  0.2238
 8776SOL     OW34835   1.378   3.490   2.647  0.3659  0.7997 -0.0678
 8776SOL    HW234836   1.383   3.557   2.716  1.3382 -0.4457  1.1123
 8776SOL    HW334837   1.462   3.497   2.601 -1.0649  3.1047 -2.6709
 8776SOL    MW434838   1.390   3.500   2.650 -0.4420  0.2514  0.7324
 8777SOL     OW34839   2.594   4.490   4.239  0.4013 -0.1911 -0.0446
 8777SOL    HW234840   2.643   4.568   4.213  0.0168  0.3143  0.7115
 8777SOL    HW334841   2.507   4.522   4.260 -0.3275 -1.0981 -1.5095
 8777SOL    MW434842   2.589   4.504   4.238  0.2970 -0.2749  0.1435
 8778SOL     OW34843   1.047   2.931   3.381  0.0639  0.0248 -0.3527
 8778SOL    HW234844   0.956   2.934   3.413 -0.2062 -2.1219 -0.7857
 8778SOL    HW334845   1.047   2.989   3.305 -0.6495  0.9458  0.3264
 8778SOL    MW434846   1.035   2.939   3.375  0.2357 -0.6054 -0.2213
 8779SOL     OW34847   0.092   4.835   4.742  0.0413  0.3184  0.5883
 8779SOL    HW234848   0.169   4.892   4.735  0.3402 -0.1608 -0.1143
 8779SOL    HW334849   0.091   4.808   4.833  0.7713  0.2468  0.5816
 8779SOL    MW434850   0.102   4.839   4.753 -0.3077 -0.6474 -0.4157
 8780SOL     OW34851   3.901   0.060   3.910  0.1317 -0.1144 -0.3174
 8780SOL    HW234852   3.886   0.037   4.001 -0.5025  1.5047  0.0221
 8780SOL    HW334853   3.823   0.029   3.864 -1.2729  2.2095  0.3247
 8780SOL    MW434854   3.889   0.053   3.916 -0.1122  0.2233  0.1037
 8781SOL     OW34855   4.339   4.748   4.801 -0.4058  0.0325  0.7595
 8781SOL    HW234856   4.397   4.750   4.725  1.6360 -0.8830  2.1737
 8781SOL    HW334857   4.281   4.822   4.790  0.5030  0.5020 -1.1847
 8781SOL    MW434858   4.339   4.758   4.790 -0.1740  0.1588  0.0744
 8782SOL     OW34859   1.522   0.067   6.139 -0.6191 -0.0424 -0.4591
 8782SOL    HW234860   1.547   0.159   6.134 -3.4681  0.8111 -0.6996
 8782SOL    HW334861   1.496   0.045   6.049 -2.1865 -0.3373  0.0378
 8782SOL    MW434862   1.521   0.076   6.126 -0.2432 -0.0338 -0.2752
 8783SOL     OW34863   1.475   5.196   1.953 -0.8542 -0.3035  0.3104
 8783SOL    HW234864   1.504   5.287   1.946  1.0043 -0.9100 -0.7539
 8783SOL    HW334865   1.498   5.171   2.043 -1.7819  0.3851  0.7529
 8783SOL    MW434866   1.482   5.205   1.964 -0.4159  0.4303 -0.0538
 8784SOL     OW34867   5.236   5.000   2.419  0.0463 -1.0502  0.6802
 8784SOL    HW234868   5.156   4.993   2.471 -1.5610 -0.8894 -1.6407
 8784SOL    HW334869   5.214   5.061   2.349  1.6801 -2.2139 -0.9515
 8784SOL    MW434870   5.223   5.007   2.417  0.5903  0.1767 -0.0552
 8785SOL     OW34871   3.431   1.919   4.506 -0.4205 -0.1923 -0.2482
 8785SOL    HW234872   3.482   1.838   4.499 -0.5752 -0.2071 -1.4739
 8785SOL    HW334873   3.367   1.901   4.575 -1.1217 -1.5184 -1.1976
 8785SOL    MW434874   3.429   1.906   4.514  0.0034  0.1208  0.3805
 8786SOL     OW34875   2.556   1.914   1.488 -0.0173 -0.2372  0.5787
 8786SOL    HW234876   2.477   1.963   1.509  0.9827  1.2478  1.0668
 8786SOL    HW334877   2.535   1.868   1.406 -2.0093 -1.4696  1.6853
 8786SOL    MW434878   2.543   1.914   1.480 -0.5008  0.1891 -0.4092
 8787SOL     OW34879   0.963   0.222   2.472 -0.3899 -0.1640 -0.6404
 8787SOL    HW234880   1.002   0.268   2.398 -0.7516 -0.3682 -0.9630
 8787SOL    HW334881   0.902   0.160   2.432 -0.2110 -0.6361 -0.1903
 8787SOL    MW434882   0.960   0.220   2.457 -0.0607  0.4266 -0.5322
 8788SOL     OW34883   4.675   4.692   1.878  0.0002  0.1694 -0.3526
 8788SOL    HW234884   4.718   4.617   1.838 -0.9156 -0.2382 -0.6047
 8788SOL    HW334885   4.696   4.766   1.821  0.0430 -0.1002 -0.6897
 8788SOL    MW434886   4.683   4.692   1.866  0.0506  0.1153  0.3897
 8789SOL     OW34887   3.733   5.732   1.503  0.1816  0.6246  0.3069
 8789SOL    HW234888   3.808   5.675   1.519 -0.1832 -0.0393 -0.2724
 8789SOL    HW334889   3.660   5.688   1.547 -0.7235 -0.9348 -2.4551
 8789SOL    MW434890   3.733   5.719   1.511 -0.6046 -0.4222 -0.0647
 8790SOL     OW34891   1.794   1.794   5.879 -0.2816  0.1557  0.1426
 8790SOL    HW234892   1.874   1.834   5.914 -0.6971 -0.4321  1.8550
 8790SOL    HW334893   1.825   1.738   5.807  0.8288  0.0881  0.6434
 8790SOL    MW434894   1.809   1.792   5.874  0.1288 -0.3495  0.5219
 8791SOL     OW34895   1.982   0.729   2.994  0.7720 -0.0021  0.5643
 8791SOL    HW234896   1.893   0.763   3.004  0.4557 -1.0100  1.4415
 8791SOL    HW334897   2.004   0.745   2.902  0.3030  1.6726  0.7121
 8791SOL    MW434898   1.973   0.735   2.983  0.2450  0.0756  0.6952
 8792SOL     OW34899   0.917   1.608   0.364 -0.6701 -0.5767  0.2240
 8792SOL    HW234900   0.849   1.610   0.431 -0.0754  0.2453  0.8223
 8792SOL    HW334901   0.982   1.672   0.393 -1.0131  0.8161 -1.8080
 8792SOL    MW434902   0.916   1.617   0.376 -0.5434 -0.9796  0.3037
 8793SOL     OW34903   6.171   6.079   2.092  0.1364 -0.2119  0.2367
 8793SOL    HW234904   6.230   6.048   2.160 -1.4054  1.3117  2.3692
 8793SOL    HW334905   6.228   6.098   2.017  1.8731 -1.9334  1.0379
 8793SOL    MW434906   6.186   6.077   2.091  0.3108  0.1475 -0.0900
 8794SOL     OW34907   0.034   3.221   4.771  0.1661 -0.4595 -0.4903
 8794SOL    HW234908   0.089   3.288   4.729  0.3695 -0.6655 -0.5527
 8794SOL    HW334909   0.096   3.153   4.797 -0.0538 -0.6616 -0.5001
 8794SOL    MW434910   0.050   3.221   4.769 -0.2419  0.2793  0.2332
 8795SOL     OW34911   0.192   2.091   5.549 -1.0104 -0.0885 -0.0398
 8795SOL    HW234912   0.229   2.057   5.630 -0.4326 -0.4499 -0.4485
 8795SOL    HW334913   0.172   2.182   5.568  0.5803  0.2610  0.0318
 8795SOL    MW434914   0.194   2.098   5.562 -0.0389 -0.3512 -0.4829
 8796SOL     OW34915   2.380   2.828   1.050 -0.0229 -0.2797  0.2813
 8796SOL    HW234916   2.457   2.880   1.069  0.8638 -1.1454 -0.7978
 8796SOL    HW334917   2.413   2.752   1.002 -1.2239 -1.9454  1.8969
 8796SOL    MW434918   2.394   2.825   1.046  0.2543  0.2599  0.1042
 8797SOL     OW34919   0.812   0.912   0.175 -0.1127 -0.8915  0.3494
 8797SOL    HW234920   0.810   0.828   0.131 -1.6623 -1.0206  0.6106
 8797SOL    HW334921   0.900   0.917   0.212  0.1205 -2.2360  0.0400
 8797SOL    MW434922   0.823   0.902   0.174 -0.0877 -0.3254 -0.1827
 8798SOL     OW34923   0.463   5.196   1.038  0.1038 -0.2105 -0.1250
 8798SOL    HW234924   0.558   5.186   1.045  0.0098 -0.1713  2.5275
 8798SOL    HW334925   0.432   5.189   1.129 -2.3186  0.9258 -0.7834
 8798SOL    MW434926   0.471   5.194   1.051 -0.3571 -0.1517 -0.0062
 8799SOL     OW34927   0.541   1.175   4.674 -0.2821 -0.0719  0.1774
 8799SOL    HW234928   0.583   1.120   4.608  1.0754  0.4206  0.5993
 8799SOL    HW334929   0.568   1.264   4.652  1.0482  0.0225  1.9687
 8799SOL    MW434930   0.550   1.179   4.662 -0.0383 -0.9172 -0.0636
 8800SOL     OW34931   5.670   5.553   4.506 -0.5791 -0.3215 -0.0243
 8800SOL    HW234932   5.742   5.492   4.523 -1.1798 -1.3287 -0.9585
 8800SOL    HW334933   5.636   5.526   4.420 -0.1913  1.9993 -0.9935
 8800SOL    MW434934   5.675   5.541   4.497  0.0228 -0.0515  0.2761
 8801SOL     OW34935   5.015   5.729   3.391 -0.1398 -0.2619  0.2290
 8801SOL    HW234936   5.021   5.724   3.486 -1.4790 -0.8828  0.3001
 8801SOL    HW334937   4.923   5.711   3.371 -0.3283  1.8463 -1.0718
 8801SOL    MW434938   5.004   5.726   3.401 -0.1081  0.5387  0.6451
 8802SOL     OW34939   1.510   0.505   4.345  0.5022  0.4227 -0.4642
 8802SOL    HW234940   1.527   0.515   4.252 -0.4595 -2.2077 -1.0225
 8802SOL    HW334941   1.428   0.552   4.360 -0.6548 -1.1184 -1.5602
 8802SOL    MW434942   1.501   0.512   4.335  0.0713  0.1203  0.1709
 8803SOL     OW34943   3.446   2.100   2.742  0.2947 -0.3962 -0.4137
 8803SOL    HW234944   3.535   2.110   2.707  0.8219 -0.2583  0.8957
 8803SOL    HW334945   3.404   2.039   2.682  2.0915 -2.4820  0.3088
 8803SOL    MW434946   3.452   2.093   2.729  0.0064  0.2269 -0.3945
 8804SOL     OW34947   4.147   0.807   2.854 -0.0700  0.3402  0.2754
 8804SOL    HW234948   4.221   0.747   2.841  0.8829  1.1992  1.4275
 8804SOL    HW334949   4.180   0.892   2.824 -1.0372  0.4980 -0.3569
 8804SOL    MW434950   4.161   0.810   2.849 -0.0731 -0.3604 -0.6537
 8805SOL     OW34951   0.652   0.120   5.437 -0.4326  0.1796  0.3309
 8805SOL    HW234952   0.583   0.117   5.504 -1.1195 -1.1469 -0.3887
 8805SOL    HW334953   0.604   0.129   5.355  0.1202 -1.9765 -0.3001
 8805SOL    MW434954   0.636   0.120   5.435 -0.3146  0.6794  0.0196
 8806SOL     OW34955   3.849   4.793   2.205 -0.1182  0.5012 -0.2545
 8806SOL    HW234956   3.818   4.851   2.275  0.4283  0.5139 -0.0159
 8806SOL    HW334957   3.866   4.710   2.249 -0.7787  0.1902 -0.5735
 8806SOL    MW434958   3.847   4.790   2.220 -0.0454  0.2250  0.2035
 8807SOL     OW34959   4.340   4.698   2.595 -0.1119 -0.1010 -0.4646
 8807SOL    HW234960   4.279   4.762   2.558  0.5139  2.3239  2.3647
 8807SOL    HW334961   4.426   4.724   2.562  0.0506 -0.0550 -0.0004
 8807SOL    MW434962   4.343   4.710   2.586  0.3768  0.3090  0.5195
 8808SOL     OW34963   2.117   2.914   4.021 -0.3840  0.0573  0.0311
 8808SOL    HW234964   2.184   2.981   4.032 -0.2230 -0.1824  0.5729
 8808SOL    HW334965   2.164   2.838   3.987 -0.5909  0.2544 -0.7207
 8808SOL    MW434966   2.132   2.913   4.018  0.5273 -0.4027 -0.4392
 8809SOL     OW34967   5.596   5.812   3.138  0.0787  0.1434 -0.2166
 8809SOL    HW234968   5.655   5.781   3.070  1.6084  0.8838  0.7223
 8809SOL    HW334969   5.604   5.747   3.208  1.6181  1.4172  0.8626
 8809SOL    MW434970   5.605   5.799   3.139 -0.1942  0.2996 -0.8547
 8810SOL     OW34971   2.315   3.248   5.704 -0.1115  0.1993  0.1070
 8810SOL    HW234972   2.379   3.228   5.772  1.1643  1.5549 -0.6260
 8810SOL    HW334973   2.236   3.203   5.731  0.9371 -0.9273  1.4409
 8810SOL    MW434974   2.313   3.240   5.716  0.0939  0.1475 -0.0176
 8811SOL     OW34975   0.708   1.935   2.619 -0.0609 -0.2960 -0.3172
 8811SOL    HW234976   0.711   1.879   2.541 -0.3453 -0.1098 -0.4648
 8811SOL    HW334977   0.792   1.982   2.617 -0.4911  0.4883 -1.1086
 8811SOL    MW434978   0.720   1.934   2.608  0.3170  0.3697  0.1408
 8812SOL     OW34979   1.429   3.391   6.384  0.4449  0.4866 -0.0444
 8812SOL    HW234980   1.475   3.384   6.468  0.6283 -2.2344 -0.2845
 8812SOL    HW334981   1.497   3.376   6.319 -0.0097  0.9318 -0.6291
 8812SOL    MW434982   1.444   3.388   6.387 -0.1235 -0.3066  0.2278
 8813SOL     OW34983   5.954   1.072   2.033  0.5425  0.9478  0.2911
 8813SOL    HW234984   5.868   1.084   1.991 -0.0762 -2.0668  0.4614
 8813SOL    HW334985   6.011   1.041   1.963  0.6259 -0.0348  0.7726
 8813SOL    MW434986   5.950   1.069   2.019  1.1873  0.0790 -0.0915
 8814SOL     OW34987   4.198   5.278   4.266  0.5870  0.0631 -0.7293
 8814SOL    HW234988   4.123   5.223   4.245  1.0380  0.2811 -3.1424
 8814SOL    HW334989   4.264   5.216   4.300 -0.3209 -0.2397  0.5619
 8814SOL    MW434990   4.197   5.262   4.268  0.1184 -0.7044 -0.1302
 8815SOL     OW34991   5.170   1.567   5.287 -0.0265  0.4888 -0.4223
 8815SOL    HW234992   5.232   1.634   5.314  0.0330  0.3283 -0.1522
 8815SOL    HW334993   5.217   1.484   5.301  0.3620  0.4293 -1.9206
 8815SOL    MW434994   5.185   1.565   5.292  0.3531  0.1371  0.4948
 8816SOL     OW34995   3.163   4.296   2.867 -0.0634 -1.2167  0.2552
 8816SOL    HW234996   3.252   4.295   2.833 -0.1621  0.1867 -0.1189
 8816SOL    HW334997   3.115   4.353   2.806 -0.8034 -0.5621  1.4158
 8816SOL    MW434998   3.168   4.304   2.854  0.0691 -0.4438 -0.1279
 8817SOL     OW34999   5.867   2.287   0.918 -0.0515  0.3835 -0.1515
 8817SOL    HW235000   5.954   2.263   0.952  0.2401  0.6513 -0.7047
 8817SOL    HW335001   5.859   2.380   0.937  0.6380  0.8357 -1.9187
 8817SOL    MW435002   5.878   2.296   0.925 -1.0724  0.0158  0.2660
 8818SOL     OW35003   3.314   4.703   2.540  0.5560 -0.0730 -0.6172
 8818SOL    HW235004   3.393   4.712   2.486  0.3250  2.2373 -0.6375
 8818SOL    HW335005   3.265   4.784   2.526 -2.3241 -1.7898 -1.3044
 8818SOL    MW435006   3.318   4.715   2.531 -0.4525  0.2530 -0.3472
 8819SOL     OW35007   0.235   5.201   0.126  0.3991  0.0935 -0.5786
 8819SOL    HW235008   0.187   5.264   0.180  2.2039  1.7823 -0.8308
 8819SOL    HW335009   0.254   5.128   0.185 -0.9350  0.1713 -0.0149
 8819SOL    MW435010   0.231   5.200   0.141 -0.1511 -0.2103 -0.1244
 8820SOL     OW35011   5.592   2.828   5.388  0.1319  0.8266  0.0351
 8820SOL    HW235012   5.611   2.766   5.317 -1.7585 -1.7014  1.5686
 8820SOL    HW335013   5.509   2.869   5.361 -0.8548 -0.5075  0.9404
 8820SOL    MW435014   5.583   2.825   5.375  0.2212  0.6078  0.1325
 8821SOL     OW35015   0.603   2.503   2.881  0.5259 -0.2151  0.2611
 8821SOL    HW235016   0.579   2.527   2.792  2.7703  1.4216  0.0167
 8821SOL    HW335017   0.532   2.446   2.910 -1.5536  1.2107 -1.6672
 8821SOL    MW435018   0.590   2.499   2.873  0.4555  0.1506 -0.3237
 8822SOL     OW35019   5.198   0.588   1.073  0.5504 -0.5890  0.2900
 8822SOL    HW235020   5.120   0.591   1.017  1.1772 -0.8488 -0.6260
 8822SOL    HW335021   5.176   0.526   1.142  0.3767 -1.6344 -0.6627
 8822SOL    MW435022   5.185   0.580   1.075 -0.5193 -0.6974 -0.2427
 8823SOL     OW35023   1.586   5.616   0.676  0.1413  0.2466  0.4081
 8823SOL    HW235024   1.579   5.610   0.580 -0.6039 -0.2082  0.4826
 8823SOL    HW335025   1.667   5.569   0.697  0.2080  0.1799  0.0192
 8823SOL    MW435026   1.596   5.609   0.666 -0.7051  0.4885 -0.0257
 8824SOL     OW35027   1.892   3.220   0.835 -0.2653 -0.2470 -0.3869
 8824SOL    HW235028   1.925   3.208   0.746  1.4304  2.3792 -0.2237
 8824SOL    HW335029   1.805   3.179   0.834 -0.1713 -0.5725 -3.1343
 8824SOL    MW435030   1.885   3.213   0.823  0.1684 -0.4464  0.3132
 8825SOL     OW35031   5.520   1.674   5.141 -0.6501  0.1675  0.2109
 8825SOL    HW235032   5.460   1.632   5.079 -2.0921  1.0241  0.9554
 8825SOL    HW335033   5.599   1.691   5.091 -0.3772 -2.5051 -0.3732
 8825SOL    MW435034   5.522   1.671   5.126  0.3295  0.1396 -0.5616
 8826SOL     OW35035   2.270   5.660   4.656 -0.5556  0.2998 -0.4715
 8826SOL    HW235036   2.200   5.596   4.663 -0.5840  0.4977  1.6217
 8826SOL    HW335037   2.296   5.679   4.746  4.1066 -1.7988 -1.0550
 8826SOL    MW435038   2.264   5.654   4.668  0.2145 -0.1612 -0.3425
 8827SOL     OW35039   1.557   0.424   3.339  0.0327  0.6145 -0.4507
 8827SOL    HW235040   1.595   0.406   3.425 -2.1085 -0.8027  0.2889
 8827SOL    HW335041   1.568   0.518   3.326  0.3167  0.8624  1.4186
 8827SOL    MW435042   1.563   0.434   3.348  0.4812  0.2359  0.0544
 8828SOL     OW35043   4.942   4.643   6.063  0.4350 -0.0304  0.2389
 8828SOL    HW235044   4.858   4.599   6.052  0.5114  0.3130 -2.3524
 8828SOL    HW335045   4.945   4.707   5.992  0.0486  4.8224  4.0481
 8828SOL    MW435046   4.932   4.645   6.052 -0.1594 -0.9307 -0.6355
 8829SOL     OW35047   3.966   5.596   1.580 -0.0758 -0.1320 -0.0232
 8829SOL    HW235048   4.054   5.614   1.613  0.1050 -0.9702 -0.0311
 8829SOL    HW335049   3.974   5.513   1.533 -1.0480 -0.6435  0.6667
 8829SOL    MW435050   3.979   5.587   1.578  0.0841  0.1034  0.0690
 8830SOL     OW35051   1.746   2.273   3.353 -0.1819 -0.3934 -0.2727
 8830SOL    HW235052   1.757   2.274   3.448 -1.0233 -1.8104 -0.1339
 8830SOL    HW335053   1.806   2.205   3.322  0.3995  0.3486 -0.8176
 8830SOL    MW435054   1.755   2.264   3.361  0.2501  0.0648 -0.0094
 8831SOL     OW35055   0.984   5.209   3.277  0.3361  0.3428  0.5534
 8831SOL    HW235056   0.982   5.305   3.272  0.8169  0.3243 -0.0352
 8831SOL    HW335057   0.909   5.181   3.224  1.1250  0.3572 -0.5988
 8831SOL    MW435058   0.974   5.218   3.269  0.4806 -0.1120 -0.0978
 8832SOL     OW35059   4.042   3.309   2.609  0.3270 -0.1238 -0.2879
 8832SOL    HW235060   4.011   3.326   2.698  1.9037 -0.6590  0.4098
 8832SOL    HW335061   4.063   3.216   2.609 -0.2233 -0.2635 -1.4300
 8832SOL    MW435062   4.041   3.299   2.621  0.7049 -0.0889 -0.3865
 8833SOL     OW35063   1.532   0.327   5.819  0.3469 -0.1847 -0.1379
 8833SOL    HW235064   1.484   0.398   5.776  0.0932  0.0941  0.5922
 8833SOL    HW335065   1.604   0.308   5.759  1.2079  1.6125  0.2671
 8833SOL    MW435066   1.535   0.334   5.805 -0.2219 -0.0735  0.5230
 8834SOL     OW35067   4.193   6.143   2.285  0.4757 -0.2287  0.3010
 8834SOL    HW235068   4.131   6.151   2.213  1.5501 -0.5631 -0.7100
 8834SOL    HW335069   4.268   6.096   2.247  1.4621  0.3921  1.3853
 8834SOL    MW435070   4.195   6.138   2.271  0.1812  0.1491 -0.5205
 8835SOL     OW35071   0.135   5.105   4.500  0.2973 -0.3980  0.4149
 8835SOL    HW235072   0.138   5.151   4.417  2.2901  0.0221  0.6550
 8835SOL    HW335073   0.227   5.092   4.524 -0.1714 -2.9509  1.2269
 8835SOL    MW435074   0.148   5.109   4.492 -0.6799  0.0998  0.1697
 8836SOL     OW35075   3.351   6.241   6.153  0.0383  0.0447  0.1427
 8836SOL    HW235076   3.406   6.164   6.142  1.1408  0.9214 -0.6758
 8836SOL    HW335077   3.404   6.302   6.204 -0.9708  0.1375  1.1263
 8836SOL    MW435078   3.365   6.239   6.159  0.3838 -0.7167  0.6458
 8837SOL     OW35079   3.886   1.016   5.958 -0.0156  0.3388  0.3552
 8837SOL    HW235080   3.977   1.037   5.938 -0.1383  0.6996  0.1693
 8837SOL    HW335081   3.835   1.064   5.893 -0.3937  1.0841  1.1718
 8837SOL    MW435082   3.891   1.025   5.947 -0.1050  0.7564 -0.0407
 8838SOL     OW35083   1.608   4.992   3.752  0.0004  0.1022 -0.2781
 8838SOL    HW235084   1.616   5.037   3.836  0.2873  1.3470 -0.9471
 8838SOL    HW335085   1.555   4.914   3.771  2.4243 -1.2201  1.6283
 8838SOL    MW435086   1.602   4.988   3.765 -0.5126 -0.1323 -0.2416
 8839SOL     OW35087   3.593   3.399   4.335 -0.3036  0.0425  0.0969
 8839SOL    HW235088   3.591   3.344   4.414 -1.0463  0.9056  0.7111
 8839SOL    HW335089   3.648   3.473   4.359  1.3890 -0.8049 -1.0135
 8839SOL    MW435090   3.600   3.402   4.349  0.1236 -0.2327  0.1308
 8840SOL     OW35091   1.460   5.819   5.221 -0.4992 -0.0085  0.1996
 8840SOL    HW235092   1.504   5.783   5.298  0.4413  0.2988 -0.1824
 8840SOL    HW335093   1.370   5.787   5.228 -0.0986 -1.0730  0.7254
 8840SOL    MW435094   1.454   5.810   5.232 -0.7878 -0.1678  0.3474
 8841SOL     OW35095   2.924   3.263   4.683 -0.1177  0.4240  0.1063
 8841SOL    HW235096   3.011   3.226   4.692  0.2112  1.2130  0.2009
 8841SOL    HW335097   2.866   3.200   4.727  0.6795  1.0804  2.2122
 8841SOL    MW435098   2.928   3.250   4.690 -0.1598 -0.1337 -0.1550
 8842SOL     OW35099   0.063   6.211   2.412 -0.0285  0.3585 -0.5402
 8842SOL    HW235100   0.117   6.288   2.393  0.1620  0.5163  0.5566
 8842SOL    HW335101   0.126   6.141   2.430 -0.1449  0.6575  1.1937
 8842SOL    MW435102   0.078   6.212   2.412 -0.8404 -0.0742 -0.3632
 8843SOL     OW35103   2.748   0.211   5.262  0.3453 -0.0543  0.2936
 8843SOL    HW235104   2.722   0.125   5.228  0.7260  0.1767 -0.6061
 8843SOL    HW335105   2.706   0.216   5.348 -1.9198 -0.0353 -0.7487
 8843SOL    MW435106   2.739   0.200   5.269 -0.2045 -0.0613 -0.0435
 8844SOL     OW35107   0.780   3.931   3.675 -0.4503  0.1676 -0.2294
 8844SOL    HW235108   0.860   3.880   3.690 -0.8347 -0.1639  0.7178
 8844SOL    HW335109   0.809   4.022   3.682 -0.3156  0.0422  1.0293
 8844SOL    MW435110   0.795   3.936   3.678  0.5478  0.0430  0.1544
 8845SOL     OW35111   2.242   1.831   0.727 -0.6026  0.0886  0.8698
 8845SOL    HW235112   2.248   1.927   0.734  1.9387 -0.0794  1.9453
 8845SOL    HW335113   2.237   1.801   0.817 -0.4728 -0.8247  0.5793
 8845SOL    MW435114   2.242   1.840   0.740  0.1207 -0.5370 -0.0353
 8846SOL     OW35115   4.489   4.234   4.059  0.3365  0.5791  0.2078
 8846SOL    HW235116   4.537   4.207   3.981  0.2832  0.9310  0.0539
 8846SOL    HW335117   4.445   4.154   4.088  1.8635 -0.0167  0.9706
 8846SOL    MW435118   4.490   4.219   4.052 -0.9128  0.0096  0.1965
 8847SOL     OW35119   1.265   0.751   0.979  0.0813  0.4079 -0.2557
 8847SOL    HW235120   1.176   0.723   1.002  0.0045  0.0731 -0.9415
 8847SOL    HW335121   1.308   0.766   1.064  0.3645 -2.4892  0.1986
 8847SOL    MW435122   1.259   0.750   0.994  0.2465 -0.1806 -0.6206
 8848SOL     OW35123   2.493   5.146   1.019  0.7585 -0.6023 -0.4133
 8848SOL    HW235124   2.516   5.221   1.074 -1.1213 -0.0047 -0.3350
 8848SOL    HW335125   2.444   5.088   1.077  1.8754 -1.7224 -0.5763
 8848SOL    MW435126   2.489   5.149   1.034 -0.6299  0.1458  0.7101
 8849SOL     OW35127   0.903   1.362   4.279  0.6045  0.1391  0.2720
 8849SOL    HW235128   0.826   1.306   4.273  0.9099 -0.3479  0.7706
 8849SOL    HW335129   0.869   1.449   4.302  0.2275 -0.1277  0.7199
 8849SOL    MW435130   0.888   1.366   4.281  0.0153 -0.0749  0.2731
 8850SOL     OW35131   5.111   4.226   4.787 -0.0410 -0.2068  0.1515
 8850SOL    HW235132   5.040   4.163   4.771 -0.8660  0.6174  0.4806
 8850SOL    HW335133   5.184   4.193   4.734 -0.3290 -1.6424  0.6050
 8850SOL    MW435134   5.111   4.213   4.778 -0.3537 -0.2747  0.5990
 8851SOL     OW35135   2.737   2.363   4.046  0.5213 -1.0075  0.6907
 8851SOL    HW235136   2.697   2.355   3.960  0.4742 -1.5868  0.7663
 8851SOL    HW335137   2.668   2.337   4.107  0.9978 -1.9849  0.8254
 8851SOL    MW435138   2.723   2.359   4.043  0.4134  0.9524 -0.1400
 8852SOL     OW35139   1.737   3.120   1.571  0.1179 -0.3607  0.0616
 8852SOL    HW235140   1.801   3.050   1.557  0.1507 -0.3443  0.1299
 8852SOL    HW335141   1.653   3.078   1.554  0.1685 -0.2853 -0.4067
 8852SOL    MW435142   1.735   3.105   1.567 -0.1988 -0.4138 -0.2304
 8853SOL     OW35143   3.769   3.002   2.056 -0.1379  0.4272  0.0742
 8853SOL    HW235144   3.784   3.059   1.980  0.6516 -0.2927 -0.3278
 8853SOL    HW335145   3.676   3.012   2.076 -0.7508 -0.5511 -1.9787
 8853SOL    MW435146   3.759   3.011   2.049  0.6224 -0.4416  0.6741
 8854SOL     OW35147   5.787   0.970   0.977  0.0034 -0.1869  0.1618
 8854SOL    HW235148   5.765   0.999   1.066  0.4224  2.8360 -0.6133
 8854SOL    HW335149   5.882   0.971   0.974  0.0041 -0.7014 -0.2426
 8854SOL    MW435150   5.796   0.974   0.989 -0.3135  0.6012  0.1573
 8855SOL     OW35151   1.248   5.180   2.744 -0.1144  0.0023  0.2394
 8855SOL    HW235152   1.240   5.151   2.653 -0.9490 -0.4582  0.4504
 8855SOL    HW335153   1.343   5.188   2.758  0.0199  0.2826 -0.7269
 8855SOL    MW435154   1.260   5.178   2.734  0.3954  0.3944  0.0361
 8856SOL     OW35155   0.348   6.299   0.376 -0.6855 -0.2507  0.0133
 8856SOL    HW235156   0.367   6.220   0.325  0.6488  1.2949 -2.0031
 8856SOL    HW335157   0.255   6.316   0.358 -1.0634 -1.4272  0.6666
 8856SOL    MW435158   0.338   6.291   0.367  0.0750 -0.1097 -0.6002
 8857SOL     OW35159   3.733   3.181   1.208  0.2934 -0.9128  0.4479
 8857SOL    HW235160   3.790   3.172   1.132 -1.6300 -0.6292 -1.1208
 8857SOL    HW335161   3.736   3.274   1.230  2.0425 -1.2434  1.7408
 8857SOL    MW435162   3.741   3.192   1.201 -0.0729  0.5149  0.5663
 8858SOL     OW35163   4.039   5.561   0.056  0.1141  0.1510 -0.1857
 8858SOL    HW235164   4.055   5.575   0.149  1.8803 -1.2423 -0.2259
 8858SOL    HW335165   3.944   5.558   0.048 -0.0737  0.3897  1.5421
 8858SOL    MW435166   4.029   5.562   0.067 -0.2996  0.0156  0.6125
 8859SOL     OW35167   4.451   3.910   1.810  0.9336  0.6376 -0.5435
 8859SOL    HW235168   4.520   3.974   1.829  1.2939  0.0614  0.1684
 8859SOL    HW335169   4.370   3.953   1.839  1.5430 -0.6152  3.7931
 8859SOL    MW435170   4.449   3.924   1.817 -0.1353  0.2423  0.7917
 8860SOL     OW35171   0.369   3.583   1.003 -0.2128  0.5917  0.0079
 8860SOL    HW235172   0.390   3.634   1.082  0.3597 -0.2166  0.3877
 8860SOL    HW335173   0.435   3.610   0.940 -0.4546  0.9732 -0.0894
 8860SOL    MW435174   0.380   3.593   1.005 -0.0461 -0.2956  0.5943
 8861SOL     OW35175   1.049   2.327   0.873  0.1891 -0.1756 -0.2435
 8861SOL    HW235176   1.133   2.349   0.913  0.2853 -1.5518  0.3660
 8861SOL    HW335177   0.986   2.383   0.919  0.8200  1.3345 -1.1456
 8861SOL    MW435178   1.052   2.337   0.885  0.0469  0.3384 -0.3496
 8862SOL     OW35179   6.201   0.074   5.938  0.1341 -0.1179 -0.0437
 8862SOL    HW235180   6.160   0.074   5.851  1.6181 -0.0440 -0.7809
 8862SOL    HW335181   6.237  -0.015   5.947 -0.5667 -0.3301  0.7857
 8862SOL    MW435182   6.200   0.062   5.928 -0.8293  0.2230  0.5336
 8863SOL     OW35183   0.419   4.099   3.360 -0.5093 -0.1073  0.2815
 8863SOL    HW235184   0.418   4.025   3.299  0.5490  0.2603 -0.2072
 8863SOL    HW335185   0.507   4.136   3.351 -0.1847 -0.2550  2.2904
 8863SOL    MW435186   0.430   4.094   3.351 -0.0571  0.1205 -0.0595
 8864SOL     OW35187   2.515   3.034   4.859  0.0248  0.6590  0.4089
 8864SOL    HW235188   2.458   3.102   4.823 -0.6143  0.2980  0.7460
 8864SOL    HW335189   2.511   2.963   4.795  0.5577  0.8570  0.1443
 8864SOL    MW435190   2.507   3.034   4.845 -0.4831 -0.0126  1.0502
 8865SOL     OW35191   0.865   5.504   3.994  0.1592  0.2880 -0.2768
 8865SOL    HW235192   0.944   5.462   3.961 -0.5576 -0.6757 -0.7908
 8865SOL    HW335193   0.888   5.597   3.997  0.5140  0.3488 -2.7735
 8865SOL    MW435194   0.879   5.511   3.990 -0.1633 -0.0405 -0.2333
 8866SOL     OW35195   3.909   3.304   3.536 -0.4420  0.0819  0.0578
 8866SOL    HW235196   3.897   3.392   3.499 -0.7110 -0.2437 -0.6393
 8866SOL    HW335197   4.004   3.294   3.543 -0.3297 -0.2519 -1.5632
 8866SOL    MW435198   3.920   3.314   3.532  0.3157  0.1161 -0.3332
 8867SOL     OW35199   3.806   4.617   1.426 -0.3815  0.6035  0.0648
 8867SOL    HW235200   3.815   4.640   1.518 -1.5730  1.3934  0.0017
 8867SOL    HW335201   3.818   4.700   1.379  2.2971 -0.1059 -0.6702
 8867SOL    MW435202   3.809   4.631   1.432  0.5888  0.1727  0.6312
 8868SOL     OW35203   1.312   2.057   0.070 -0.3770  0.0749  0.2277
 8868SOL    HW235204   1.249   2.095   0.132 -1.1453 -0.0511 -0.4623
 8868SOL    HW335205   1.259   2.001   0.013  0.6243 -1.5208  0.7928
 8868SOL    MW435206   1.296   2.055   0.071 -0.1920 -0.1664 -0.5762
 8869SOL     OW35207   0.576   4.100   2.669 -0.2845  0.1761 -0.0899
 8869SOL    HW235208   0.486   4.069   2.683 -0.1519 -0.2200 -0.1163
 8869SOL    HW335209   0.569   4.195   2.674 -0.3421  0.1041  2.1624
 8869SOL    MW435210   0.563   4.109   2.671  0.2481 -0.1319 -0.7749
 8870SOL     OW35211   5.348   5.828   2.991 -0.1544 -0.2981  0.2160
 8870SOL    HW235212   5.434   5.869   3.000 -0.3222  0.1501 -0.1780
 8870SOL    HW335213   5.286   5.902   2.988 -0.2396 -0.3400 -3.4867
 8870SOL    MW435214   5.351   5.844   2.992 -0.2332  0.0046  0.2261
 8871SOL     OW35215   1.435   2.232   3.866  0.0708 -0.2886  0.1869
 8871SOL    HW235216   1.455   2.287   3.790 -0.0039  2.3934  1.9631
 8871SOL    HW335217   1.386   2.158   3.830  0.4049  0.6466 -2.3930
 8871SOL    MW435218   1.431   2.229   3.851  0.3427  0.1203 -0.2504
 8872SOL     OW35219   3.602   1.542   5.051  0.5500 -0.3522 -0.1245
 8872SOL    HW235220   3.568   1.518   5.137 -0.0534  0.9241  0.0163
 8872SOL    HW335221   3.541   1.503   4.989 -1.6815  2.4347  0.1307
 8872SOL    MW435222   3.589   1.534   5.054 -0.2422 -0.3307 -0.6095
 8873SOL     OW35223   0.220   1.516   3.659 -0.3033 -0.2367 -0.9107
 8873SOL    HW235224   0.312   1.490   3.662  0.3667  1.8822 -1.3182
 8873SOL    HW335225   0.194   1.501   3.568  0.7469  2.3782 -1.7431
 8873SOL    MW435226   0.228   1.511   3.647 -0.5167 -0.1316 -0.4523
 8874SOL     OW35227   4.911   2.905   4.408 -0.0915  0.3210  0.2605
 8874SOL    HW235228   4.891   2.825   4.360  1.4903 -1.1743  1.9146
 8874SOL    HW335229   4.826   2.936   4.440 -0.7724 -0.4950 -0.7131
 8874SOL    MW435230   4.897   2.899   4.406 -0.3921 -0.5521 -0.2992
 8875SOL     OW35231   3.807   1.153   1.426  0.1678  0.1503 -0.3009
 8875SOL    HW235232   3.812   1.207   1.505  1.0055  0.2614 -0.4202
 8875SOL    HW335233   3.720   1.114   1.429 -0.8130  2.1857 -0.6690
 8875SOL    MW435234   3.796   1.155   1.437  0.0132  0.2839 -0.0766
 8876SOL     OW35235   1.377   1.013   0.890  0.6023  0.1833  0.2318
 8876SOL    HW235236   1.340   1.089   0.934  0.2468  0.2500 -0.1775
 8876SOL    HW335237   1.317   0.941   0.912 -0.3099  0.4734 -1.1708
 8876SOL    MW435238   1.364   1.013   0.898  0.1728 -0.1998  0.5155
 8877SOL     OW35239   3.873   4.000   5.855  0.2996 -0.0330  0.0784
 8877SOL    HW235240   3.831   4.053   5.788 -2.1039 -1.3381  0.4244
 8877SOL    HW335241   3.843   3.911   5.837  0.6544 -0.6113  2.1025
 8877SOL    MW435242   3.864   3.995   5.844 -0.0049  0.1675 -0.3223
 8878SOL     OW35243   4.785   3.381   5.128  0.5069 -0.0349  0.3183
 8878SOL    HW235244   4.863   3.388   5.183  0.1085 -0.1602  0.9122
 8878SOL    HW335245   4.806   3.431   5.049  1.2803 -0.2889  0.3600
 8878SOL    MW435246   4.798   3.389   5.125 -0.0502 -0.5053 -0.1992
 8879SOL     OW35247   1.684   4.835   0.344  0.3224  0.3061  0.1872
 8879SOL    HW235248   1.735   4.878   0.275 -0.9981 -1.1121 -1.7818
 8879SOL    HW335249   1.746   4.775   0.385  0.2222 -1.8463 -2.5722
 8879SOL    MW435250   1.699   4.833   0.340 -0.0531 -0.2488 -0.0922
 8880SOL     OW35251   3.221   3.259   0.683  0.5304 -0.4902  0.0849
 8880SOL    HW235252   3.176   3.185   0.723  0.4634 -0.8462 -0.6299
 8880SOL    HW335253   3.303   3.222   0.650  2.6119  0.6078  3.5358
 8880SOL    MW435254   3.226   3.244   0.684  0.2501  0.2783  0.5840
 8881SOL     OW35255   5.275   5.366   4.364 -0.4325 -0.4425 -0.5175
 8881SOL    HW235256   5.317   5.400   4.443  2.3909  2.4928 -3.0072
 8881SOL    HW335257   5.304   5.275   4.360  0.8585 -0.1481  0.8852
 8881SOL    MW435258   5.284   5.359   4.374 -0.6774  0.7209 -0.1280
 8882SOL     OW35259   1.964   4.677   6.167  0.3446  0.3643  0.9545
 8882SOL    HW235260   1.995   4.702   6.080  2.4187  0.2762  1.6334
 8882SOL    HW335261   1.958   4.581   6.164 -1.9738  0.4649  0.1940
 8882SOL    MW435262   1.967   4.668   6.155  0.5623  0.1666 -0.0288
 8883SOL     OW35263   2.726   4.731   5.571  0.6485 -0.0086  0.1715
 8883SOL    HW235264   2.769   4.648   5.595  1.9119  0.3567 -0.7453
 8883SOL    HW335265   2.767   4.756   5.488  0.0107  1.3513  0.2464
 8883SOL    MW435266   2.737   4.723   5.563 -0.2221  0.0657  0.3400
 8884SOL     OW35267   2.993   3.910   3.234 -0.1918  0.5360 -0.8754
 8884SOL    HW235268   3.077   3.873   3.262 -0.8257 -0.6322 -0.4549
 8884SOL    HW335269   2.932   3.836   3.236 -2.0884  1.9705  2.1775
 8884SOL    MW435270   2.996   3.895   3.238  0.5253 -0.1710 -0.0511
 8885SOL     OW35271   4.112   3.820   0.497  0.2850 -0.6325  0.5317
 8885SOL    HW235272   4.116   3.733   0.535  1.0702 -0.3500  1.1187
 8885SOL    HW335273   4.072   3.807   0.411 -2.4644 -1.1557  1.7891
 8885SOL    MW435274   4.107   3.807   0.490 -0.0823  0.4988 -0.0003
 8886SOL     OW35275   4.497   2.282   2.215 -0.3364 -0.3464 -0.3224
 8886SOL    HW235276   4.585   2.250   2.198 -0.5489 -0.1837 -1.8389
 8886SOL    HW335277   4.468   2.321   2.132 -1.9379 -0.6432  0.0518
 8886SOL    MW435278   4.505   2.283   2.202 -0.5863 -0.1117  0.5363
 8887SOL     OW35279   1.647   2.222   0.648  0.0591  0.3525  0.0210
 8887SOL    HW235280   1.671   2.144   0.698  0.5071  0.4382 -0.0522
 8887SOL    HW335281   1.647   2.193   0.556 -0.3094  0.3068  0.0347
 8887SOL    MW435282   1.650   2.208   0.642  0.0469 -0.6154 -0.2011
 8888SOL     OW35283   3.022   6.273   4.174  0.0175 -0.0945  0.2999
 8888SOL    HW235284   3.115   6.251   4.171 -0.0186 -0.9012  2.7026
 8888SOL    HW335285   2.978   6.189   4.164 -0.4880  0.2589 -0.6041
 8888SOL    MW435286   3.029   6.259   4.172 -0.3461 -0.0364  0.2033
 8889SOL     OW35287   4.242   1.487   4.277  0.6741  0.3088 -0.1277
 8889SOL    HW235288   4.294   1.407   4.272 -1.3481 -0.9785 -2.1439
 8889SOL    HW335289   4.212   1.490   4.367  1.6664 -0.5835  0.2608
 8889SOL    MW435290   4.245   1.477   4.288  0.4638  0.1924  0.0104
 8890SOL     OW35291   1.571   5.411   3.148 -0.1415 -0.2173 -0.9903
 8890SOL    HW235292   1.568   5.481   3.213 -1.2144 -1.0859 -0.0614
 8890SOL    HW335293   1.502   5.350   3.175 -1.9788  0.3275 -4.0188
 8890SOL    MW435294   1.561   5.412   3.160  0.6664 -0.5803  0.3019
 8891SOL     OW35295   1.277   5.315   3.492  0.0973  0.3680 -0.5292
 8891SOL    HW235296   1.184   5.334   3.496  0.4437  1.9008  1.0041
 8891SOL    HW335297   1.289   5.240   3.551 -0.1018  0.4182 -0.4242
 8891SOL    MW435298   1.266   5.307   3.500 -0.2965 -0.4450  0.4317
 8892SOL     OW35299   1.544   1.230   3.864 -0.1532  0.7228  0.3955
 8892SOL    HW235300   1.556   1.282   3.944  1.3473  3.1733 -1.2746
 8892SOL    HW335301   1.466   1.268   3.822  1.4797  2.4341 -1.2923
 8892SOL    MW435302   1.535   1.242   3.869 -0.0200 -0.6817 -0.4847
 8893SOL     OW35303   1.807   5.776   2.435 -0.1575 -0.0318 -0.0504
 8893SOL    HW235304   1.861   5.721   2.379  0.5073 -0.6447  1.1538
 8893SOL    HW335305   1.717   5.749   2.415 -0.0156  0.5548 -1.6122
 8893SOL    MW435306   1.802   5.765   2.425  0.4341 -0.4417 -0.1649
 8894SOL     OW35307   1.878   0.461   1.284 -0.7428  0.5514  0.4992
 8894SOL    HW235308   1.859   0.502   1.200 -0.3096  1.9478  1.0617
 8894SOL    HW335309   1.924   0.380   1.261 -0.4786  1.0003 -0.6058
 8894SOL    MW435310   1.882   0.456   1.270 -0.5992 -0.1079  0.0597
 8895SOL     OW35311   2.629   3.946   5.134 -0.5884  0.5373  0.2258
 8895SOL    HW235312   2.722   3.935   5.117 -0.7095  0.7852 -0.6766
 8895SOL    HW335313   2.587   3.878   5.081 -0.9784  1.2102 -0.3471
 8895SOL    MW435314   2.636   3.936   5.125 -0.7688  0.2900  0.0678
 8896SOL     OW35315   1.296   2.746   0.152  0.5776  0.1434 -0.1054
 8896SOL    HW235316   1.300   2.746   0.248 -0.8495 -1.6072  0.0062
 8896SOL    HW335317   1.332   2.661   0.127  0.2172  0.2698 -1.0894
 8896SOL    MW435318   1.301   2.735   0.161 -0.2752 -0.0702 -0.1877
 8897SOL     OW35319   5.517   1.620   4.327  0.0362  0.3231 -0.0761
 8897SOL    HW235320   5.541   1.579   4.244 -0.0672  2.2640 -1.1092
 8897SOL    HW335321   5.429   1.587   4.345  1.2001 -2.6239  0.9996
 8897SOL    MW435322   5.508   1.610   4.319 -0.2134 -0.5906  0.3398
 8898SOL     OW35323   1.063   4.733   3.565  0.5372  0.6062 -0.4221
 8898SOL    HW235324   1.029   4.726   3.654 -0.9524 -1.2421 -1.0518
 8898SOL    HW335325   1.147   4.778   3.574  0.6458  0.0602  1.9609
 8898SOL    MW435326   1.070   4.738   3.578  0.5415  0.2767  0.5688
 8899SOL     OW35327   0.077   6.055   5.440  0.3580  0.3071 -0.4572
 8899SOL    HW235328   0.083   6.134   5.494 -2.1661  0.9848 -1.0176
 8899SOL    HW335329  -0.007   6.016   5.465  0.3263 -0.7526 -2.0864
 8899SOL    MW435330   0.067   6.060   5.451 -0.2233 -0.7276 -0.2245
 8900SOL     OW35331   5.731   4.376   0.321  0.0408 -0.3556  0.1007
 8900SOL    HW235332   5.747   4.393   0.414  0.1125 -0.3705  0.0907
 8900SOL    HW335333   5.733   4.281   0.313 -0.5772 -0.3783  0.1963
 8900SOL    MW435334   5.733   4.366   0.332  0.2160 -0.4977  0.1452
 8901SOL     OW35335   0.471   3.292   2.628  0.4637 -0.0040  0.5144
 8901SOL    HW235336   0.389   3.313   2.673 -0.3343  0.0949 -0.9004
 8901SOL    HW335337   0.446   3.288   2.535  1.7796 -1.4567  0.1962
 8901SOL    MW435338   0.457   3.294   2.622 -0.3512  0.3464  0.1054
 8902SOL     OW35339   3.023   5.595   3.619  0.1273 -0.3898  0.0705
 8902SOL    HW235340   3.004   5.539   3.544 -2.1125  1.4514 -0.8678
 8902SOL    HW335341   3.112   5.571   3.646  0.4342 -2.1142 -2.2383
 8902SOL    MW435342   3.033   5.584   3.613 -0.3831  0.1492  0.5987
 8903SOL     OW35343   4.243   2.821   5.647 -0.6860  0.3018 -0.6518
 8903SOL    HW235344   4.173   2.822   5.581  0.8721 -0.2468 -2.3893
 8903SOL    HW335345   4.307   2.758   5.613 -0.3520 -0.9224  1.9858
 8903SOL    MW435346   4.242   2.813   5.634  0.2937  0.3975 -0.2232
 8904NA      NA35347   2.728   0.899   2.670  0.5199 -0.0367  0.1551
 8905NA      NA35348   0.420   3.625   5.306 -0.4263 -0.2342 -0.4035
 8906NA      NA35349   5.164   2.575   6.015  0.1421  0.5306  0.1634
 8907NA      NA35350   5.940   0.390   6.349  0.1320 -0.1690  0.2740
 8908NA      NA35351   6.276   2.169   4.261  0.1711 -0.1470 -0.2245
 8909NA      NA35352   2.486   4.300   2.605 -0.1620 -0.2611 -0.2577
 8910NA      NA35353   2.029   0.839   0.547 -0.0729  0.0744  0.0810
 8911NA      NA35354   4.423   4.973   5.847  0.0491 -0.4757  0.3586
   6.43155   6.43155   6.43155
