A-SYNC WITH FASUDIL in water
35354
  121NASP     N    1   5.443   4.145   1.324  0.3482  0.2161  0.3792
  121NASP    H1    2   5.531   4.119   1.282  0.9689  1.6937  0.6905
  121NASP    H2    3   5.456   4.198   1.409  4.6340  1.1013 -0.6031
  121NASP    H3    4   5.408   4.211   1.256  0.3520 -2.2114 -2.1523
  121NASP    CA    5   5.359   4.028   1.345 -0.4389 -0.3762  0.8599
  121NASP    HA    6   5.336   3.984   1.247  0.9014  1.4808 -0.3671
  121NASP    CB    7   5.408   3.921   1.436 -0.6202  0.8627  0.7906
  121NASP   HB1    8   5.483   3.862   1.385 -2.3285 -1.1382  0.4867
  121NASP   HB2    9   5.330   3.848   1.454 -0.5452 -0.2014 -2.6311
  121NASP    CG   10   5.462   3.951   1.576 -0.9902 -0.2500  0.7536
  121NASP   OD1   11   5.493   3.849   1.646  0.7178  0.4534  0.6744
  121NASP   OD2   12   5.483   4.066   1.618  0.0337 -0.1182 -0.3084
  121NASP     C   13   5.227   4.076   1.395 -0.8167  0.0859  0.4313
  121NASP     O   14   5.222   4.183   1.454 -0.4679 -0.0074 -0.2767
  122ASN      N   15   5.123   4.001   1.371 -0.6366  0.1851  0.5131
  122ASN      H   16   5.143   3.927   1.305 -0.5701 -1.7469  2.5733
  122ASN     CA   17   4.985   4.023   1.415  0.0850 -0.0409  0.6767
  122ASN     HA   18   4.949   4.113   1.365  1.0285 -0.0562 -0.0719
  122ASN     CB   19   4.889   3.910   1.366 -0.1847  0.0343 -0.4073
  122ASN    HB1   20   4.925   3.816   1.409  1.8093  0.0775 -1.8770
  122ASN    HB2   21   4.903   3.899   1.258  1.9296 -0.5687 -0.1064
  122ASN     CG   22   4.741   3.924   1.401 -0.7504  0.6623  0.7237
  122ASN    OD1   23   4.690   4.021   1.450  0.3380 -0.5208  0.7733
  122ASN    ND2   24   4.679   3.814   1.364  0.4324  0.1493 -0.5150
  122ASN   HD21   25   4.580   3.806   1.384  0.9355  0.7125  2.6946
  122ASN   HD22   26   4.723   3.741   1.310 -0.7935 -1.5795  0.6999
  122ASN      C   27   4.962   4.037   1.563  0.1881 -0.6521 -0.5103
  122ASN      O   28   4.975   3.941   1.639  0.7223 -0.0811  0.4027
  123GLU      N   29   4.941   4.164   1.608 -0.9196  0.1092 -0.0448
  123GLU      H   30   4.960   4.245   1.551 -1.0867  1.7726  2.1832
  123GLU     CA   31   4.940   4.194   1.751  0.0442  0.2363 -0.5532
  123GLU     HA   32   5.022   4.134   1.791  1.3502  1.9509 -0.5157
  123GLU     CB   33   4.948   4.345   1.773  0.1736 -0.3660  0.1653
  123GLU    HB1   34   4.944   4.367   1.880  1.2358 -1.0227  0.3531
  123GLU    HB2   35   4.867   4.393   1.718 -1.1569 -1.0103  1.5242
  123GLU     CG   36   5.083   4.406   1.709 -0.6538 -0.2481  0.0508
  123GLU    HG1   37   5.103   4.378   1.606 -0.3295  1.2165 -0.3090
  123GLU    HG2   38   5.165   4.367   1.769 -0.9117 -0.4927  0.2457
  123GLU     CD   39   5.086   4.555   1.717 -0.3848 -0.2674 -0.1738
  123GLU    OE1   40   4.976   4.618   1.709 -0.2984  0.0787  0.0857
  123GLU    OE2   41   5.193   4.610   1.744  0.0462 -0.3000  0.1948
  123GLU      C   42   4.816   4.140   1.825  0.0458  0.3527 -0.3499
  123GLU      O   43   4.798   4.176   1.943  0.1602  0.3908 -0.0967
  124ALA      N   44   4.731   4.060   1.763  0.0729  0.3809 -0.6310
  124ALA      H   45   4.761   4.031   1.671  0.5763 -0.2099 -0.2898
  124ALA     CA   46   4.609   3.996   1.822 -0.3187 -0.4895  0.6114
  124ALA     HA   47   4.608   4.023   1.928  1.4224  3.1558 -0.1217
  124ALA     CB   48   4.481   4.053   1.753  0.0286  0.9992  0.0719
  124ALA    HB1   49   4.494   4.059   1.645 -0.5658  0.9142 -0.0043
  124ALA    HB2   50   4.460   4.153   1.793 -1.1621  1.0073 -0.5308
  124ALA    HB3   51   4.397   3.988   1.776  0.7001  0.5084  1.2217
  124ALA      C   52   4.625   3.841   1.800 -0.1278  0.5280  0.2395
  124ALA      O   53   4.608   3.799   1.684 -0.3063  0.1278  0.2981
  125TYR      N   54   4.644   3.759   1.905 -0.4696 -0.2719 -0.2963
  125TYR      H   55   4.649   3.799   1.998 -0.1535 -0.0998 -0.3866
  125TYR     CA   56   4.666   3.612   1.899  1.2098  0.0786  0.5538
  125TYR     HA   57   4.583   3.576   1.838  2.8254  1.2458 -2.5376
  125TYR     CB   58   4.808   3.565   1.852  1.3751 -0.2432  0.5027
  125TYR    HB1   59   4.870   3.521   1.931  0.9129  0.0726  1.0526
  125TYR    HB2   60   4.846   3.655   1.803 -2.2269  1.8053  1.0966
  125TYR     CG   61   4.793   3.462   1.739 -0.0458  0.0221  0.2000
  125TYR    CD1   62   4.835   3.329   1.760 -0.5165  0.6637  0.3217
  125TYR    HD1   63   4.871   3.303   1.859 -2.8420  1.0972  1.3495
  125TYR    CE1   64   4.826   3.235   1.651  0.4954 -0.2791 -0.4418
  125TYR    HE1   65   4.860   3.133   1.659 -3.0169 -1.5957 -0.6248
  125TYR     CZ   66   4.784   3.277   1.528  1.2286 -0.4936  0.8216
  125TYR     OH   67   4.788   3.196   1.421  0.1181  0.8390 -0.6225
  125TYR     HH   68   4.768   3.237   1.336  0.8770  1.3092 -0.5840
  125TYR    CE2   69   4.738   3.410   1.506  0.3324  0.1080  0.0528
  125TYR    HE2   70   4.713   3.449   1.409  0.5626 -0.2400 -0.1486
  125TYR    CD2   71   4.732   3.498   1.617  0.1030 -0.3176 -0.2444
  125TYR    HD2   72   4.691   3.597   1.600  1.2811 -0.2065 -2.8807
  125TYR      C   73   4.648   3.548   2.040  0.0312  0.0181 -0.5554
  125TYR      O   74   4.702   3.598   2.139 -0.5592  0.7790 -0.5838
  126GLU      N   75   4.572   3.442   2.050 -0.6693  0.1178  0.3750
  126GLU      H   76   4.540   3.414   1.959  0.9013  3.2137 -1.2752
  126GLU     CA   77   4.548   3.361   2.169  0.2332 -0.8513 -0.0993
  126GLU     HA   78   4.612   3.410   2.243 -0.6475  2.3282 -1.2386
  126GLU     CB   79   4.405   3.382   2.224 -0.2468 -0.2210  0.2444
  126GLU    HB1   80   4.399   3.324   2.316  1.8878 -0.0029  0.5764
  126GLU    HB2   81   4.325   3.362   2.152 -0.3539  2.5750 -0.5324
  126GLU     CG   82   4.384   3.528   2.269 -0.8833  0.0170 -0.0724
  126GLU    HG1   83   4.418   3.601   2.196  3.3305 -0.4033  1.2413
  126GLU    HG2   84   4.456   3.546   2.349 -0.9329  0.8861 -0.2098
  126GLU     CD   85   4.253   3.560   2.340  1.1769  0.2156 -0.2821
  126GLU    OE1   86   4.165   3.473   2.373  0.4160 -0.0541 -0.6023
  126GLU    OE2   87   4.244   3.685   2.367  0.0919  0.5322  0.2924
  126GLU      C   88   4.584   3.214   2.146 -0.3874  0.2310  0.2585
  126GLU      O   89   4.528   3.152   2.057  0.1659  0.1370 -0.4989
  127MET      N   90   4.675   3.155   2.227  0.2298 -0.9831  0.5123
  127MET      H   91   4.716   3.211   2.301 -0.3401  0.3719 -0.1601
  127MET     CA   92   4.704   3.011   2.217 -0.3509  0.0663  0.1434
  127MET     HA   93   4.727   2.992   2.112  3.0215  0.0560  0.7624
  127MET     CB   94   4.830   2.973   2.299 -0.3524  0.1439 -0.1095
  127MET    HB1   95   4.853   2.867   2.289 -2.3999 -0.3125 -0.3995
  127MET    HB2   96   4.817   2.998   2.404  0.1205  0.6533 -0.1643
  127MET     CG   97   4.951   3.061   2.257  1.3046 -0.5746  0.2928
  127MET    HG1   98   4.918   3.163   2.238 -1.6151 -1.3562  0.6845
  127MET    HG2   99   4.980   3.016   2.162 -0.1832  0.2357 -0.5931
  127MET     SD  100   5.101   3.072   2.354 -0.3161 -0.2214  0.1868
  127MET     CE  101   5.085   3.244   2.423 -0.6133 -0.4637  0.3659
  127MET    HE1  102   5.084   3.316   2.341 -1.1021  0.7972  1.4417
  127MET    HE2  103   5.172   3.276   2.481  1.3327  1.5354 -3.2910
  127MET    HE3  104   4.994   3.252   2.483 -0.5530  0.5583  0.3531
  127MET      C  105   4.595   2.921   2.268 -0.6083 -0.2466  0.7620
  127MET      O  106   4.531   2.960   2.364  0.0444  0.0502 -0.3666
  128PRO      N  107   4.571   2.794   2.220  0.0023 -0.2949  0.4749
  128PRO     CD  108   4.625   2.745   2.099  0.4978 -0.2347  0.1424
  128PRO    HD1  109   4.731   2.726   2.114  0.4409  0.0793  0.9998
  128PRO    HD2  110   4.612   2.822   2.024 -1.4502 -1.0068 -0.3948
  128PRO     CG  111   4.531   2.628   2.068  0.0026  0.3315 -1.3513
  128PRO    HG1  112   4.569   2.531   2.102 -2.1417  0.0424  0.4493
  128PRO    HG2  113   4.521   2.625   1.960 -1.9637  1.0737 -1.2354
  128PRO     CB  114   4.400   2.659   2.144 -0.1071 -0.2932 -0.3157
  128PRO    HB1  115   4.349   2.743   2.097 -3.1723 -1.3965  0.7781
  128PRO    HB2  116   4.342   2.566   2.150 -1.7198  0.6766 -0.4333
  128PRO     CA  117   4.462   2.712   2.268  0.4034 -0.5928  0.7140
  128PRO     HA  118   4.386   2.781   2.304  1.5061  0.2730  1.4394
  128PRO      C  119   4.495   2.609   2.376  0.4250 -0.6327  0.4504
  128PRO      O  120   4.610   2.567   2.378  0.3221  0.6274 -0.3783
  129SER      N  121   4.395   2.574   2.459 -0.3087  0.5673  0.6404
  129SER      H  122   4.308   2.625   2.459 -0.5455  0.2619  2.7659
  129SER     CA  123   4.418   2.469   2.568 -0.0952  0.2578 -0.0411
  129SER     HA  124   4.471   2.514   2.652 -2.0974  0.3963  1.2048
  129SER     CB  125   4.289   2.414   2.616  0.0204  0.5506 -1.0750
  129SER    HB1  126   4.314   2.341   2.693 -0.1632  3.6447  2.1874
  129SER    HB2  127   4.235   2.358   2.540 -1.0301 -1.7584  1.2091
  129SER     OG  128   4.209   2.507   2.679 -0.7963 -0.5619 -0.4099
  129SER    HG1  129   4.144   2.460   2.731 -2.4494  0.0609 -1.8275
  129SER      C  130   4.489   2.345   2.518  0.2928 -0.1584  0.6564
  129SER      O  131   4.463   2.295   2.408 -0.3465  0.2645  0.1578
  130GLU      N  132   4.572   2.282   2.600 -0.1866 -0.0603 -0.0152
  130GLU      H  133   4.595   2.337   2.681  0.3897  2.5502 -1.8288
  130GLU     CA  134   4.646   2.156   2.568  0.5449 -0.3828  0.0542
  130GLU     HA  135   4.704   2.173   2.478  0.1669 -1.7591 -0.4737
  130GLU     CB  136   4.739   2.121   2.683 -0.8800 -0.7730  0.3594
  130GLU    HB1  137   4.778   2.021   2.665  0.2154 -0.9350  3.1594
  130GLU    HB2  138   4.680   2.127   2.775 -0.9929  1.7148  0.1946
  130GLU     CG  139   4.860   2.216   2.709  0.0618  0.0717 -0.5741
  130GLU    HG1  140   4.818   2.310   2.746 -0.8617 -1.5402  2.9039
  130GLU    HG2  141   4.924   2.225   2.622 -0.5469  0.4344 -0.9898
  130GLU     CD  142   4.952   2.167   2.818 -0.3776  0.2087 -0.1581
  130GLU    OE1  143   4.925   2.063   2.882 -0.0412 -0.5519  0.0045
  130GLU    OE2  144   5.051   2.238   2.851 -0.6957  0.3048 -0.1469
  130GLU      C  145   4.549   2.043   2.538  0.6289 -0.3508  0.5258
  130GLU      O  146   4.457   2.025   2.620 -0.1255 -0.1672  0.1346
  131GLU      N  147   4.566   1.965   2.427  0.2616 -0.1281  0.0102
  131GLU      H  148   4.640   1.995   2.364 -0.2788  0.7496 -0.2190
  131GLU     CA  149   4.471   1.861   2.381 -0.2659  0.7734 -0.5329
  131GLU     HA  150   4.372   1.905   2.366 -1.1928 -0.7835  0.6802
  131GLU     CB  151   4.514   1.815   2.241  0.6253 -0.6274 -0.0271
  131GLU    HB1  152   4.518   1.904   2.178 -1.8063 -1.7194 -1.8738
  131GLU    HB2  153   4.441   1.740   2.210  0.4837  0.0422 -1.3831
  131GLU     CG  154   4.647   1.732   2.241  0.2971  0.1790 -0.1358
  131GLU    HG1  155   4.623   1.635   2.283  0.3305  0.0129 -0.4947
  131GLU    HG2  156   4.718   1.781   2.308  0.5712 -1.6368  0.9413
  131GLU     CD  157   4.710   1.696   2.106  0.1120  0.5043  0.4028
  131GLU    OE1  158   4.649   1.732   2.002  0.0600 -0.0762 -0.3575
  131GLU    OE2  159   4.811   1.619   2.105 -0.0568  0.1697  0.1663
  131GLU      C  160   4.454   1.742   2.484 -0.3069  0.0625  0.7057
  131GLU      O  161   4.552   1.703   2.545  0.0199 -0.6363 -0.0340
  132GLY      N  162   4.333   1.685   2.506 -0.0045  0.4190 -0.5376
  132GLY      H  163   4.261   1.717   2.443  1.4337  1.8115 -1.5740
  132GLY     CA  164   4.312   1.580   2.611  0.1238 -1.2712  0.2499
  132GLY    HA1  165   4.224   1.603   2.671 -1.7735  1.5324 -3.1946
  132GLY    HA2  166   4.389   1.591   2.687 -0.0683  1.4067  0.1636
  132GLY      C  167   4.300   1.445   2.549 -0.6712 -0.4599  0.0982
  132GLY      O  168   4.355   1.418   2.438  0.9160 -0.2560  0.1173
  133TYR      N  169   4.250   1.349   2.630 -0.2182 -0.0072  0.7921
  133TYR      H  170   4.202   1.392   2.708  0.5628  1.1940  0.6417
  133TYR     CA  171   4.234   1.208   2.603  0.1059  0.8546  0.0654
  133TYR     HA  172   4.329   1.158   2.585 -0.5266 -0.7307  0.8164
  133TYR     CB  173   4.199   1.139   2.735 -0.4501 -0.5949 -0.1883
  133TYR    HB1  174   4.287   1.156   2.797 -0.8837 -2.2169  0.9479
  133TYR    HB2  175   4.209   1.032   2.717  2.2743 -0.4985  0.4189
  133TYR     CG  176   4.067   1.171   2.804  0.2417  0.1371  0.0186
  133TYR    CD1  177   4.062   1.266   2.912 -0.2068  0.2980 -0.0966
  133TYR    HD1  178   4.147   1.325   2.941 -1.1342  1.1569  0.9510
  133TYR    CE1  179   3.937   1.295   2.970  0.3508 -0.0978 -0.1544
  133TYR    HE1  180   3.931   1.377   3.039  4.3550 -0.1351  0.4581
  133TYR     CZ  181   3.827   1.213   2.938  0.3179 -0.2151 -0.7047
  133TYR     OH  182   3.705   1.220   3.006  0.0179 -0.2295  0.6324
  133TYR     HH  183   3.638   1.158   2.975  0.5467 -0.6180  0.2623
  133TYR    CE2  184   3.836   1.107   2.841 -0.7146 -0.1979 -0.5895
  133TYR    HE2  185   3.752   1.047   2.810 -0.1661 -2.1076  1.4516
  133TYR    CD2  186   3.951   1.093   2.765 -0.5772  0.1811  0.8583
  133TYR    HD2  187   3.954   1.028   2.678  0.9900  2.7220 -1.1439
  133TYR      C  188   4.136   1.161   2.491 -0.0843 -0.1809  0.1798
  133TYR      O  189   4.160   1.046   2.441  0.1453 -0.7676 -0.2475
  134GLN      N  190   4.040   1.247   2.456 -0.3178  0.3535  0.2154
  134GLN      H  191   4.045   1.338   2.501  0.8460  0.0927  0.6492
  134GLN     CA  192   3.933   1.226   2.357  0.0575 -0.2201  0.7147
  134GLN     HA  193   3.968   1.152   2.285  0.4600  1.0016 -0.3979
  134GLN     CB  194   3.806   1.177   2.419  0.5340 -0.2180 -0.4438
  134GLN    HB1  195   3.832   1.085   2.471 -0.1243  0.0548  0.3974
  134GLN    HB2  196   3.730   1.142   2.349 -0.8485 -2.4816  2.0098
  134GLN     CG  197   3.727   1.266   2.522 -0.2781 -0.2241  0.1173
  134GLN    HG1  198   3.690   1.350   2.463 -0.0831 -0.1564  0.0883
  134GLN    HG2  199   3.800   1.303   2.594  0.9354  0.0860 -1.2153
  134GLN     CD  200   3.612   1.204   2.601  0.4421 -0.7254 -0.0190
  134GLN    OE1  201   3.576   1.088   2.585 -0.0875 -0.4498  0.4554
  134GLN    NE2  202   3.558   1.275   2.701 -0.6330  0.4417 -1.1205
  134GLN   HE21  203   3.489   1.219   2.750  0.1669  0.4855  0.1128
  134GLN   HE22  204   3.600   1.365   2.719  0.5233 -0.1765 -0.6379
  134GLN      C  205   3.918   1.349   2.265 -0.4811  0.2252 -0.2946
  134GLN      O  206   3.952   1.459   2.311  0.3792  0.1796 -0.0074
  135ASP      N  207   3.867   1.331   2.140 -0.6820  0.1847  0.0568
  135ASP      H  208   3.827   1.239   2.123  2.3043 -1.3543  0.6529
  135ASP     CA  209   3.846   1.435   2.051 -0.5630 -0.8120  0.2357
  135ASP     HA  210   3.920   1.512   2.070 -1.2932  0.3030 -1.2359
  135ASP     CB  211   3.854   1.388   1.908  0.0913  0.2630 -0.1146
  135ASP    HB1  212   3.844   1.470   1.837 -0.3418  0.6543  0.3927
  135ASP    HB2  213   3.774   1.316   1.893 -0.2871  0.1754  1.9837
  135ASP     CG  214   3.981   1.309   1.874  0.6139  0.6865  0.1418
  135ASP    OD1  215   4.076   1.382   1.847 -0.2269 -0.3894 -0.3815
  135ASP    OD2  216   3.975   1.183   1.851  0.3562 -0.0800  0.1206
  135ASP      C  217   3.703   1.488   2.071 -0.1553 -0.5013 -0.3686
  135ASP      O  218   3.614   1.423   2.130 -0.5001 -0.5568 -0.4709
  136TYR      N  219   3.673   1.605   2.016 -0.7990 -0.1626  0.5664
  136TYR      H  220   3.744   1.651   1.962 -0.3498 -0.9599  0.4608
  136TYR     CA  221   3.542   1.649   1.975 -0.0466  0.3424 -0.2301
  136TYR     HA  222   3.479   1.640   2.064  0.0938 -0.6090 -0.2137
  136TYR     CB  223   3.548   1.794   1.918 -0.3677 -0.5119 -0.4879
  136TYR    HB1  224   3.643   1.842   1.940 -0.2811 -1.4741  1.4574
  136TYR    HB2  225   3.479   1.848   1.984 -1.1429 -1.5281 -0.4410
  136TYR     CG  226   3.501   1.814   1.772  0.7673 -0.3632 -0.1694
  136TYR    CD1  227   3.579   1.779   1.661  0.1742  0.2167  0.3058
  136TYR    HD1  228   3.677   1.734   1.672  0.0498 -0.1559 -0.0746
  136TYR    CE1  229   3.521   1.783   1.531  0.5864 -0.1253 -0.4805
  136TYR    HE1  230   3.570   1.744   1.443 -1.3138  0.1857 -1.7103
  136TYR     CZ  231   3.389   1.827   1.514  0.2845 -0.1690 -0.3950
  136TYR     OH  232   3.334   1.816   1.389 -0.0214  0.4451 -0.2289
  136TYR     HH  233   3.247   1.856   1.383  0.8874  2.6793  0.6838
  136TYR    CE2  234   3.306   1.870   1.623 -0.5178  1.1006  0.1346
  136TYR    HE2  235   3.208   1.911   1.601 -0.8903  0.1151 -0.1103
  136TYR    CD2  236   3.363   1.869   1.757 -0.4058  0.1429 -0.1654
  136TYR    HD2  237   3.308   1.900   1.845  1.9987  1.6858  0.8769
  136TYR      C  238   3.490   1.547   1.874  0.3881 -0.7707 -0.2231
  136TYR      O  239   3.567   1.490   1.799 -0.2663 -0.1100  0.0350
  137GLU      N  240   3.356   1.543   1.842 -0.1176 -0.1193  0.1359
  137GLU      H  241   3.296   1.599   1.901 -1.0821  0.1990 -1.1219
  137GLU     CA  242   3.300   1.448   1.740 -0.2350 -0.5315 -0.0549
  137GLU     HA  243   3.380   1.414   1.675 -0.2219 -0.5234 -0.0429
  137GLU     CB  244   3.247   1.319   1.801  0.8374  0.1583  0.2694
  137GLU    HB1  245   3.186   1.266   1.728 -0.7354  0.7841  1.0689
  137GLU    HB2  246   3.189   1.349   1.889 -0.1363 -1.7353  0.3115
  137GLU     CG  247   3.359   1.224   1.857  0.7510 -0.2659 -0.1087
  137GLU    HG1  248   3.395   1.272   1.948  1.4555 -0.4088 -0.3099
  137GLU    HG2  249   3.440   1.207   1.786 -0.1197 -1.1098 -0.9275
  137GLU     CD  250   3.306   1.089   1.904 -0.8912  0.3788 -0.0837
  137GLU    OE1  251   3.391   1.011   1.961 -0.4960  0.2712 -0.6944
  137GLU    OE2  252   3.185   1.056   1.898 -0.1318 -0.0729 -0.1908
  137GLU      C  253   3.200   1.525   1.656 -0.3838  0.9100  0.2303
  137GLU      O  254   3.125   1.592   1.718 -0.3483  0.3060  0.0559
  138PRO      N  255   3.190   1.499   1.527  0.0752  0.4310  0.4125
  138PRO     CD  256   3.263   1.416   1.440 -0.5078  0.3485  0.2578
  138PRO    HD1  257   3.286   1.327   1.499 -0.6954  0.9127  1.2056
  138PRO    HD2  258   3.357   1.461   1.408 -0.5838  0.3216 -0.0010
  138PRO     CG  259   3.177   1.393   1.319  0.3258 -0.3508  0.1964
  138PRO    HG1  260   3.122   1.301   1.337  0.1015  0.0471  1.6554
  138PRO    HG2  261   3.228   1.377   1.224 -2.0508 -3.0178 -0.7590
  138PRO     CB  262   3.094   1.519   1.310  0.1458  1.0604  0.3090
  138PRO    HB1  263   3.136   1.594   1.243 -3.9433  1.9244 -1.6192
  138PRO    HB2  264   2.995   1.504   1.264 -0.1251  1.2678  0.8207
  138PRO     CA  265   3.082   1.561   1.454  0.3790 -0.4520  0.4173
  138PRO     HA  266   3.085   1.670   1.450 -1.2446 -0.3824  0.6136
  138PRO      C  267   2.942   1.518   1.501  0.8856 -0.3241 -0.3323
  138PRO      O  268   2.935   1.418   1.567  0.2995  0.3685 -0.0484
  139GLU      N  269   2.834   1.595   1.473  0.3145 -0.1332 -0.1501
  139GLU      H  270   2.852   1.686   1.433 -0.0395  0.9086  1.9244
  139GLU     CA  271   2.696   1.574   1.518 -0.3790  0.8345  0.8815
  139GLU     HA  272   2.683   1.492   1.590  0.1668  0.5774  0.6887
  139GLU     CB  273   2.644   1.705   1.579 -0.3662  0.1866 -0.1918
  139GLU    HB1  274   2.538   1.704   1.605  0.2546 -0.0839  2.5549
  139GLU    HB2  275   2.664   1.780   1.502 -0.8175  2.8827  2.1374
  139GLU     CG  276   2.718   1.735   1.712 -0.8364 -0.3346 -0.9139
  139GLU    HG1  277   2.705   1.842   1.730 -3.5725 -0.4861 -1.6007
  139GLU    HG2  278   2.823   1.707   1.709 -0.8517 -0.9322  1.5994
  139GLU     CD  279   2.672   1.661   1.838  0.2328  0.2903 -0.7380
  139GLU    OE1  280   2.748   1.658   1.936 -0.1845 -0.5350  0.5849
  139GLU    OE2  281   2.560   1.606   1.837  0.0646  0.1237  0.1698
  139GLU      C  282   2.605   1.532   1.401  0.4043 -0.1726 -0.3914
  139GLU      O  283   2.646   1.548   1.284 -0.9085 -0.1632  0.4078
  140CALA     N  284   2.488   1.479   1.439 -0.1571 -0.0319 -0.2754
  140CALA     H  285   2.468   1.478   1.538  0.1832  2.0394 -0.1376
  140CALA    CA  286   2.384   1.421   1.348  0.1955 -0.3032 -0.1364
  140CALA    HA  287   2.423   1.344   1.281  1.4198  0.6906 -0.6154
  140CALA    CB  288   2.277   1.367   1.445  0.2455 -0.0391 -0.1473
  140CALA   HB1  289   2.180   1.363   1.395 -0.0834 -0.2023  0.4952
  140CALA   HB2  290   2.275   1.423   1.538  1.7255  0.6221 -0.4761
  140CALA   HB3  291   2.314   1.267   1.470  0.8192  0.1318 -0.2922
  140CALA     C  292   2.349   1.526   1.247  0.2123  0.0066 -0.4680
  140CALA   OC1  293   2.327   1.644   1.287  0.9496  0.1816  0.6996
  140CALA   OC2  294   2.353   1.492   1.126 -0.5634  0.1323 -0.3881
  141SOL     OW  295   3.865   4.866   5.236  0.0822  0.1953  0.2360
  141SOL    HW2  296   3.919   4.941   5.260  0.3480  0.5251 -1.2802
  141SOL    HW3  297   3.821   4.893   5.156 -3.4488  0.4508  2.1048
  141SOL    MW4  298   3.867   4.879   5.228 -0.2442  0.0425  0.1343
  142SOL     OW  299   5.309   2.548   2.930 -0.3720 -0.3518 -0.3333
  142SOL    HW2  300   5.339   2.631   2.894  1.9832 -1.4503 -1.0685
  142SOL    HW3  301   5.279   2.497   2.854  1.2265 -1.3368 -0.3366
  142SOL    MW4  302   5.309   2.552   2.915  0.2835 -0.0870 -0.5918
  143SOL     OW  303   0.339   2.326   5.074  0.6918  0.4368  0.4994
  143SOL    HW2  304   0.393   2.268   5.128 -0.3572 -0.8854  0.1769
  143SOL    HW3  305   0.318   2.399   5.131 -1.0494 -1.2958  2.2454
  143SOL    MW4  306   0.343   2.328   5.089 -0.6056 -0.2851 -0.1690
  144SOL     OW  307   3.951   4.748   0.067 -0.3981 -0.1655  0.5007
  144SOL    HW2  308   3.995   4.820   0.023  0.7739 -2.0219 -1.6087
  144SOL    HW3  309   3.971   4.760   0.159  1.3589  1.1561  0.0088
  144SOL    MW4  310   3.959   4.759   0.073  0.0253  0.5812  0.1749
  145SOL     OW  311   1.110   2.808   3.123 -0.5733 -0.0219 -0.1831
  145SOL    HW2  312   1.082   2.738   3.064  0.5719  0.4049 -1.2575
  145SOL    HW3  313   1.197   2.832   3.093 -0.5516  1.2073  0.7826
  145SOL    MW4  314   1.118   2.802   3.111 -0.5945 -0.3666 -0.5539
  146SOL     OW  315   2.051   0.781   2.242 -0.1921  0.6967 -0.5016
  146SOL    HW2  316   2.145   0.793   2.254 -0.2237  0.6472 -0.1834
  146SOL    HW3  317   2.014   0.795   2.330 -0.4972  0.8775 -0.6576
  146SOL    MW4  318   2.059   0.784   2.255  0.0997 -0.1136  0.5318
  147SOL     OW  319   2.519   2.658   3.737 -0.0920  0.5924  0.3176
  147SOL    HW2  320   2.529   2.726   3.804  0.2236 -0.8969  1.8574
  147SOL    HW3  321   2.606   2.620   3.728 -0.3702  0.0461 -0.1161
  147SOL    MW4  322   2.532   2.662   3.745 -0.1001 -0.1135  0.0276
  148SOL     OW  323   2.500   5.041   0.509 -0.5555 -0.1702  0.3926
  148SOL    HW2  324   2.473   5.133   0.508  0.7612  0.2327 -0.4361
  148SOL    HW3  325   2.485   5.013   0.599 -3.8442 -0.0696 -0.0128
  148SOL    MW4  326   2.495   5.050   0.521  0.4510  0.0337  0.1720
  149SOL     OW  327   5.767   5.995   0.071  0.3483  0.2606 -0.4588
  149SOL    HW2  328   5.797   5.906   0.088  0.9314  0.2938 -1.2536
  149SOL    HW3  329   5.693   6.008   0.131  0.4028 -0.6718 -0.1829
  149SOL    MW4  330   5.761   5.985   0.081 -0.0774  0.0664 -0.1225
  150SOL     OW  331   3.969   4.684   1.415 -0.4921  0.1564  0.0472
  150SOL    HW2  332   4.047   4.708   1.465  0.0921 -2.0074  0.2503
  150SOL    HW3  333   3.907   4.755   1.433  1.8271  2.6756 -1.2274
  150SOL    MW4  334   3.971   4.697   1.424  0.0506 -0.4085 -0.2215
  151SOL     OW  335   1.527   0.725   5.641  0.0956 -0.4026 -0.0338
  151SOL    HW2  336   1.584   0.659   5.680 -0.5261 -0.6589  0.4519
  151SOL    HW3  337   1.495   0.776   5.716 -0.3597 -0.3028 -0.2946
  151SOL    MW4  338   1.530   0.723   5.656 -0.1834  0.1786 -0.2970
  152SOL     OW  339   0.614   4.784   0.351 -0.3087  0.4832 -0.4213
  152SOL    HW2  340   0.630   4.812   0.261 -1.8458  0.2222 -0.8068
  152SOL    HW3  341   0.659   4.699   0.357  0.3394  0.8007 -0.7426
  152SOL    MW4  342   0.622   4.776   0.340  0.1327 -0.4268 -0.3830
  153SOL     OW  343   3.271   2.338   1.479  0.3011 -0.2720 -0.4186
  153SOL    HW2  344   3.243   2.412   1.425  1.8453 -0.8198 -2.1030
  153SOL    HW3  345   3.220   2.264   1.446 -0.7160 -0.1097  0.7643
  153SOL    MW4  346   3.261   2.338   1.467 -0.1181 -0.0870  0.6747
  154SOL     OW  347   1.661   5.693   0.302 -0.2571  0.0228 -0.5247
  154SOL    HW2  348   1.577   5.651   0.322  0.8727 -1.5668  1.2233
  154SOL    HW3  349   1.700   5.711   0.387  1.3894  0.3003 -1.2929
  154SOL    MW4  350   1.655   5.690   0.316  0.2486 -0.1079  0.5811
  155SOL     OW  351   3.659   0.607   1.377  0.2343 -0.4124 -0.2872
  155SOL    HW2  352   3.738   0.660   1.367 -0.5775  1.1383  0.9747
  155SOL    HW3  353   3.669   0.566   1.463 -0.3275 -0.1947 -0.1161
  155SOL    MW4  354   3.671   0.609   1.387  0.1516  0.6964  0.1371
  156SOL     OW  355   1.871   3.580   2.080  0.3104  0.0245  0.0120
  156SOL    HW2  356   1.945   3.575   2.140  1.2902  1.7771 -0.9865
  156SOL    HW3  357   1.811   3.643   2.122  1.0120  1.2771 -0.8101
  156SOL    MW4  358   1.873   3.588   2.094  0.1602 -0.2906 -0.1278
  157SOL     OW  359   0.245   6.325   5.436  0.1034 -0.5321  0.1181
  157SOL    HW2  360   0.218   6.267   5.363  1.1858  0.6732 -1.3038
  157SOL    HW3  361   0.317   6.278   5.477  2.0156  0.3744 -1.9900
  157SOL    MW4  362   0.251   6.311   5.431  0.3084 -0.5712 -0.5588
  158SOL     OW  363   4.038   4.915   0.814  0.4634 -0.1473 -0.5175
  158SOL    HW2  364   4.018   4.933   0.722 -1.6732  1.7826  0.2265
  158SOL    HW3  365   3.956   4.883   0.851  1.1841 -0.5338  0.8222
  158SOL    MW4  366   4.025   4.913   0.807  0.0681 -0.3873 -0.5246
  159SOL     OW  367   0.823   5.466   5.437 -0.1633  0.5018 -0.4998
  159SOL    HW2  368   0.825   5.557   5.408  2.5128  0.6755 -0.0253
  159SOL    HW3  369   0.858   5.468   5.526 -0.8790 -0.9052 -0.1596
  159SOL    MW4  370   0.828   5.478   5.445  0.3156  0.5771  0.2867
  160SOL     OW  371   1.872   0.189   2.456 -0.1799  0.6626 -0.3085
  160SOL    HW2  372   1.830   0.171   2.540 -0.4504 -1.3023 -0.8148
  160SOL    HW3  373   1.946   0.246   2.478 -0.6473  0.7481  1.1585
  160SOL    MW4  374   1.877   0.194   2.470  0.6573  0.2516  0.4716
  161SOL     OW  375   1.096   4.520   1.357  0.1843  0.1894  0.3418
  161SOL    HW2  376   1.188   4.529   1.332 -0.0991  2.2670 -0.0792
  161SOL    HW3  377   1.064   4.447   1.304  1.3846 -0.0823 -0.0444
  161SOL    MW4  378   1.104   4.511   1.347  0.5154 -0.1422  0.0605
  162SOL     OW  379   2.230   3.936   5.186 -0.4838 -0.8058  0.2880
  162SOL    HW2  380   2.306   3.904   5.137 -0.1966 -0.3788  0.4504
  162SOL    HW3  381   2.160   3.875   5.163  0.0239 -1.4906  0.5082
  162SOL    MW4  382   2.231   3.924   5.176 -0.3759  0.4476  0.7782
  163SOL     OW  383   5.492   4.116   5.015  0.4764 -0.5294  0.1156
  163SOL    HW2  384   5.432   4.042   5.025 -1.4339  0.5282 -2.3854
  163SOL    HW3  385   5.439   4.192   5.040  0.4615  0.5026 -2.7584
  163SOL    MW4  386   5.477   4.116   5.020  0.6425 -0.1996 -0.1047
  164SOL     OW  387   4.987   4.450   5.299  0.2709 -0.1386 -0.1506
  164SOL    HW2  388   4.945   4.536   5.294 -0.9047 -0.7432 -1.3996
  164SOL    HW3  389   4.915   4.388   5.288  1.1648 -1.2780  0.2831
  164SOL    MW4  390   4.972   4.453   5.297 -0.3481 -0.1787  0.2594
  165SOL     OW  391   1.921   1.212   4.443 -0.2459  0.3167 -0.2412
  165SOL    HW2  392   1.939   1.131   4.394 -0.9738  0.7027 -1.1680
  165SOL    HW3  393   1.870   1.183   4.519 -1.9300  0.0770 -1.4252
  165SOL    MW4  394   1.917   1.197   4.447  0.7570 -0.4364 -0.0632
  166SOL     OW  395   1.565   2.405   0.368  0.5048  0.5980 -0.0679
  166SOL    HW2  396   1.480   2.405   0.324  0.6350 -0.6756 -0.3720
  166SOL    HW3  397   1.550   2.354   0.448  1.6204 -2.3549 -1.5758
  166SOL    MW4  398   1.552   2.398   0.373  0.2428  0.4347 -0.2744
  167SOL     OW  399   5.273   6.354   3.388 -0.0763 -0.5809 -0.2454
  167SOL    HW2  400   5.337   6.317   3.449  1.2497 -0.2854 -1.4241
  167SOL    HW3  401   5.272   6.448   3.407 -0.1501 -0.5811 -0.2445
  167SOL    MW4  402   5.281   6.361   3.399 -0.1591  0.3953  0.3755
  168SOL     OW  403   6.097   2.930   1.686  0.5191 -0.0987  0.3259
  168SOL    HW2  404   6.061   2.954   1.600  0.8995 -0.8584 -0.0614
  168SOL    HW3  405   6.068   2.839   1.699  0.9463 -0.1811  0.7373
  168SOL    MW4  406   6.088   2.921   1.676 -0.1090  0.6530 -0.3013
  169SOL     OW  407   5.604   0.602   2.012 -0.1144 -0.0895  0.6728
  169SOL    HW2  408   5.532   0.600   2.076 -1.5650 -1.1574 -0.9028
  169SOL    HW3  409   5.675   0.553   2.055 -0.9365 -0.5295  1.5895
  169SOL    MW4  410   5.604   0.595   2.026 -0.0518  0.1088 -0.0292
  170SOL     OW  411   4.758   2.669   4.501 -0.2100 -0.8915 -0.2522
  170SOL    HW2  412   4.820   2.741   4.510 -2.4420  1.0328  0.9644
  170SOL    HW3  413   4.757   2.627   4.587 -2.6485  1.0281  0.7896
  170SOL    MW4  414   4.766   2.673   4.513 -0.2694  0.2441 -0.3927
  171SOL     OW  415   5.677   6.078   1.408 -0.0613 -0.0834 -0.6845
  171SOL    HW2  416   5.728   6.072   1.488 -1.1523  1.0361  0.1395
  171SOL    HW3  417   5.729   6.031   1.343  2.0224  0.9823  0.0976
  171SOL    MW4  418   5.691   6.071   1.410  0.4151 -0.1459 -0.6627
  172SOL     OW  419   5.708   4.458   6.297 -0.1718  0.6423  0.0918
  172SOL    HW2  420   5.703   4.515   6.373  0.7486 -0.3470  0.9225
  172SOL    HW3  421   5.695   4.370   6.332 -0.1303  0.2023 -0.9564
  172SOL    MW4  422   5.706   4.454   6.311  0.6059  0.7836 -0.4125
  173SOL     OW  423   1.159   2.771   2.444 -0.2208 -0.3100 -0.4180
  173SOL    HW2  424   1.099   2.844   2.426  2.1379  1.4809 -1.5986
  173SOL    HW3  425   1.210   2.762   2.363  1.1941 -1.6350  0.5731
  173SOL    MW4  426   1.158   2.780   2.431 -0.1589 -0.1116 -0.0340
  174SOL     OW  427   1.978   0.936   0.327 -0.0911 -0.4981  0.2113
  174SOL    HW2  428   1.908   0.981   0.279 -0.2328 -0.4025  0.5079
  174SOL    HW3  429   2.057   0.955   0.276  0.2113  1.7849  1.3817
  174SOL    MW4  430   1.979   0.945   0.314 -0.4174  0.2158 -0.2000
  175SOL     OW  431   1.861   1.855   1.249 -0.1612 -0.1318  0.2385
  175SOL    HW2  432   1.945   1.813   1.235  1.5467  2.6465  1.1916
  175SOL    HW3  433   1.854   1.920   1.179 -0.9797  0.3779  0.7662
  175SOL    MW4  434   1.871   1.858   1.238 -0.2089  0.1286  0.3427
  176SOL     OW  435   0.483   3.221   4.818 -0.1399  0.1879  0.3519
  176SOL    HW2  436   0.470   3.277   4.742  0.1572 -0.2199 -0.0040
  176SOL    HW3  437   0.577   3.202   4.818 -0.2734 -0.5166  0.3177
  176SOL    MW4  438   0.494   3.226   4.808  0.4273 -0.5118 -0.1554
  177SOL     OW  439   4.148   5.386   0.472  0.0034 -0.1511 -0.7173
  177SOL    HW2  440   4.187   5.381   0.384  0.3917  0.8682 -0.6199
  177SOL    HW3  441   4.218   5.420   0.527 -0.5670  0.2730 -0.2360
  177SOL    MW4  442   4.162   5.390   0.468 -0.1713  0.9542  0.7179
  178SOL     OW  443   2.427   3.675   2.454 -0.0576  0.3120 -0.1921
  178SOL    HW2  444   2.397   3.647   2.540  0.4444  1.1427  0.2682
  178SOL    HW3  445   2.358   3.733   2.422 -1.6923 -2.2604 -1.6731
  178SOL    MW4  446   2.414   3.679   2.461 -0.7101 -0.1010 -0.1224
  179SOL     OW  447   4.656   2.277   3.090 -0.0032 -0.1491  0.3053
  179SOL    HW2  448   4.611   2.291   3.173  0.3115  0.8899  0.3126
  179SOL    HW3  449   4.728   2.218   3.112  0.1284  0.1826  0.7922
  179SOL    MW4  450   4.660   2.271   3.104  0.2846  0.0316  0.3975
  180SOL     OW  451   5.633   2.069   4.669 -0.4871  0.2233  0.7874
  180SOL    HW2  452   5.629   2.043   4.577 -0.6172 -0.3151  0.9442
  180SOL    HW3  453   5.722   2.104   4.679 -0.7973  1.2159  0.2170
  180SOL    MW4  454   5.644   2.070   4.658  0.0546 -0.3937  0.2494
  181SOL     OW  455   4.192   4.346   4.872 -0.5524 -0.0177  0.7019
  181SOL    HW2  456   4.258   4.409   4.843 -1.0069  0.5427  0.8832
  181SOL    HW3  457   4.117   4.361   4.814  0.0411 -1.8096 -0.6572
  181SOL    MW4  458   4.191   4.356   4.860 -0.1820  0.6001 -0.1306
  182SOL     OW  459   0.894   0.917   4.164  0.2117 -0.0051 -0.0725
  182SOL    HW2  460   0.949   0.995   4.168 -2.5714  2.1664 -1.2088
  182SOL    HW3  461   0.899   0.889   4.072  0.1394 -0.3476  0.0262
  182SOL    MW4  462   0.902   0.923   4.152 -0.6787 -0.2027 -0.2829
  183SOL     OW  463   2.666   6.078   5.488  0.5096  0.0881 -0.5928
  183SOL    HW2  464   2.586   6.027   5.503  0.3606  0.4812 -0.0233
  183SOL    HW3  465   2.727   6.016   5.448 -0.5503  0.1419 -2.3952
  183SOL    MW4  466   2.664   6.063   5.485 -0.0865 -0.1359  0.5135
  184SOL     OW  467   4.333   5.017   6.410 -0.0820  0.2078  0.2644
  184SOL    HW2  468   4.355   4.946   6.349 -0.4551  0.0787  0.2771
  184SOL    HW3  469   4.395   5.006   6.483 -0.9814 -0.9253  0.8933
  184SOL    MW4  470   4.344   5.006   6.412  0.0099 -0.3863  0.0799
  185SOL     OW  471   0.424   2.736   5.346 -0.3237  0.3464  0.7901
  185SOL    HW2  472   0.516   2.762   5.342 -0.6343  1.3431 -1.4374
  185SOL    HW3  473   0.396   2.759   5.434  2.2315 -2.6947  2.6333
  185SOL    MW4  474   0.432   2.742   5.357  0.1642  0.2533 -0.3079
  186SOL     OW  475   6.156   2.443   6.026  0.2136 -0.4066 -0.6422
  186SOL    HW2  476   6.195   2.373   5.973 -1.4091 -1.2120 -0.8138
  186SOL    HW3  477   6.085   2.477   5.972  0.0021  0.3348  0.0848
  186SOL    MW4  478   6.152   2.439   6.012 -0.0065  0.0113  0.4170
  187SOL     OW  479   5.537   1.496   1.582  0.3183 -1.0067  0.1785
  187SOL    HW2  480   5.579   1.555   1.644  0.2208  0.1204 -0.7840
  187SOL    HW3  481   5.601   1.486   1.511  0.6682 -2.7392  0.6927
  187SOL    MW4  482   5.551   1.502   1.580  0.0301 -0.6928 -0.5170
  188SOL     OW  483   4.523   3.676   4.249 -0.4390 -0.2212  0.4349
  188SOL    HW2  484   4.564   3.644   4.330  0.3600 -1.1863 -0.3185
  188SOL    HW3  485   4.516   3.770   4.261 -0.1794 -0.3270  1.5598
  188SOL    MW4  486   4.527   3.684   4.261  0.2644  0.0770 -0.0815
  189SOL     OW  487   5.171   5.246   5.462 -0.3867  0.2301 -0.3952
  189SOL    HW2  488   5.218   5.163   5.452 -0.9700 -0.1557 -0.0247
  189SOL    HW3  489   5.099   5.240   5.399 -0.8213  0.1638  0.1051
  189SOL    MW4  490   5.167   5.234   5.452 -0.5018  0.0409 -0.1103
  190SOL     OW  491   5.629   3.263   5.206 -0.1128 -0.0971 -0.0172
  190SOL    HW2  492   5.596   3.201   5.271  3.1458 -0.7676  1.1905
  190SOL    HW3  493   5.645   3.343   5.255  0.9976 -0.1383 -0.2837
  190SOL    MW4  494   5.626   3.265   5.221  0.7279  0.1022  0.1781
  191SOL     OW  495   6.313   5.010   5.614  0.0364 -0.7186  0.0187
  191SOL    HW2  496   6.270   5.080   5.565  0.8147 -0.4511 -0.3015
  191SOL    HW3  497   6.248   4.941   5.620 -0.6182 -0.1140  0.0127
  191SOL    MW4  498   6.299   5.010   5.608 -0.3664  0.0426  0.0374
  192SOL     OW  499   0.759   0.723   2.833 -0.1914 -0.0222 -0.3183
  192SOL    HW2  500   0.745   0.815   2.859  2.3839  0.3887 -0.1599
  192SOL    HW3  501   0.843   0.700   2.873 -0.2111 -2.0882 -1.3792
  192SOL    MW4  502   0.768   0.732   2.842 -0.0263 -0.1683  0.0079
  193SOL     OW  503   4.851   4.602   3.047  0.1097 -0.2792 -0.3173
  193SOL    HW2  504   4.918   4.578   3.110 -0.3419 -1.2886 -0.2099
  193SOL    HW3  505   4.778   4.543   3.066 -0.5644  0.3634 -0.8522
  193SOL    MW4  506   4.850   4.591   3.058  0.3705 -0.5151  0.0674
  194SOL     OW  507   4.656   1.639   4.558  0.5928  0.3467  0.4075
  194SOL    HW2  508   4.742   1.644   4.599  2.4157 -1.3005 -2.7346
  194SOL    HW3  509   4.644   1.545   4.539 -0.4573  0.8542 -1.8578
  194SOL    MW4  510   4.666   1.627   4.561  0.1172  0.4641 -0.1497
  195SOL     OW  511   3.024   0.443   1.966  0.2745 -0.2280 -0.1973
  195SOL    HW2  512   2.942   0.491   1.970 -0.2957 -1.2562  1.6207
  195SOL    HW3  513   3.029   0.410   1.876 -2.5903 -2.2124  0.2412
  195SOL    MW4  514   3.014   0.445   1.955  0.7347 -0.0450  0.5001
  196SOL     OW  515   2.993   5.574   2.159 -0.0699  0.1609  0.3182
  196SOL    HW2  516   2.973   5.627   2.236 -0.5089 -0.7739  0.8751
  196SOL    HW3  517   2.992   5.636   2.086  0.5765  1.1037  1.0835
  196SOL    MW4  518   2.990   5.589   2.160  0.0609 -0.6020 -0.9244
  197SOL     OW  519   2.745   4.621   5.964 -0.2140  0.1316  0.1394
  197SOL    HW2  520   2.808   4.606   5.894  0.4883  0.7730  0.6259
  197SOL    HW3  521   2.786   4.584   6.042 -0.9568 -0.5066  0.2475
  197SOL    MW4  522   2.759   4.614   5.965  0.2007 -0.4158 -0.1198
  198SOL     OW  523   4.629   1.500   1.455 -0.2525 -0.0802  0.0095
  198SOL    HW2  524   4.667   1.587   1.444 -0.4860  0.8942  4.6283
  198SOL    HW3  525   4.689   1.455   1.514 -0.6930 -2.7322 -1.4112
  198SOL    MW4  526   4.642   1.505   1.462 -0.3306  0.1734 -0.4882
  199SOL     OW  527   5.137   0.512   2.519  0.2827  0.2644  0.0331
  199SOL    HW2  528   5.096   0.529   2.603  0.2635  1.3124 -0.1723
  199SOL    HW3  529   5.180   0.427   2.529 -0.0308  0.2125  0.9695
  199SOL    MW4  530   5.137   0.503   2.531 -0.0599  0.0267  0.2572
  200SOL     OW  531   3.458   1.088   5.493  0.1164  0.5911 -0.8060
  200SOL    HW2  532   3.542   1.047   5.510 -1.1962 -2.2029 -0.5125
  200SOL    HW3  533   3.431   1.122   5.578  0.7327  1.1090 -0.8103
  200SOL    MW4  534   3.465   1.087   5.507  0.1311 -0.5405 -0.4781
  201SOL     OW  535   3.173   3.590   4.821 -0.1197  0.0393  0.1125
  201SOL    HW2  536   3.148   3.597   4.914 -2.2921 -0.3117 -0.3831
  201SOL    HW3  537   3.125   3.661   4.778  0.2348 -0.2984 -0.8542
  201SOL    MW4  538   3.163   3.600   4.828 -0.2809 -0.3843  0.0981
  202SOL     OW  539   0.158   0.171   0.320 -0.4752  0.2155 -0.1031
  202SOL    HW2  540   0.130   0.259   0.295 -0.4910  0.2427  0.0106
  202SOL    HW3  541   0.123   0.114   0.251 -0.1651  0.3399 -0.3683
  202SOL    MW4  542   0.150   0.175   0.307 -0.2389  0.1224 -0.1823
  203SOL     OW  543   4.289   1.598   4.923 -0.2847  0.6350  0.1111
  203SOL    HW2  544   4.369   1.547   4.914 -0.7199  0.3078 -2.7439
  203SOL    HW3  545   4.219   1.533   4.924 -0.6246  0.9949  1.1527
  203SOL    MW4  546   4.290   1.583   4.922  0.5099  0.0186 -0.7104
  204SOL     OW  547   3.106   5.228   1.971 -0.9045  0.1512 -0.0784
  204SOL    HW2  548   3.013   5.229   1.952 -1.0904  0.8830  0.7787
  204SOL    HW3  549   3.146   5.280   1.902 -1.1584  0.0424 -0.3080
  204SOL    MW4  550   3.099   5.235   1.960 -0.1705  0.6051 -0.0680
  205SOL     OW  551   0.488   3.234   5.631  0.4904 -0.1466 -0.3960
  205SOL    HW2  552   0.477   3.274   5.717  1.9491 -0.6194  0.0239
  205SOL    HW3  553   0.408   3.259   5.583 -0.6930 -0.5092  1.3161
  205SOL    MW4  554   0.476   3.243   5.636 -0.5063 -0.3449  0.6707
  206SOL     OW  555   3.256   1.924   0.151  0.0237 -0.4500  0.0368
  206SOL    HW2  556   3.280   1.990   0.086  0.4392  0.0778  0.7157
  206SOL    HW3  557   3.229   1.848   0.099  0.7346 -0.1775 -0.7529
  206SOL    MW4  558   3.256   1.923   0.135 -0.7906 -0.3571 -0.6625
  207SOL     OW  559   1.869   1.034   3.880 -0.3325 -0.2603 -0.3687
  207SOL    HW2  560   1.874   0.988   3.796  1.0300 -2.4925  0.8279
  207SOL    HW3  561   1.939   0.995   3.932  0.5014  2.7881  1.0292
  207SOL    MW4  562   1.879   1.023   3.876 -0.1457  0.2407  0.7139
  208SOL     OW  563   2.922   4.891   1.580 -0.0084  0.0359 -0.1435
  208SOL    HW2  564   2.895   4.854   1.496 -2.0486  1.7672 -0.3224
  208SOL    HW3  565   2.902   4.822   1.644 -0.5556 -0.4457 -0.8205
  208SOL    MW4  566   2.916   4.877   1.577 -0.2806  0.0171 -0.3108
  209SOL     OW  567   1.017   0.465   1.213 -0.3021  0.0573  0.1926
  209SOL    HW2  568   1.088   0.408   1.242 -0.1947  0.2905  0.3956
  209SOL    HW3  569   0.976   0.495   1.294  0.0969  0.8325  0.1220
  209SOL    MW4  570   1.021   0.461   1.228  0.3732  0.1606 -0.0055
  210SOL     OW  571   1.258   0.760   1.944  0.7051 -0.3109 -0.1317
  210SOL    HW2  572   1.272   0.707   1.865 -0.3589  1.4004 -1.5495
  210SOL    HW3  573   1.318   0.834   1.934 -2.4872  2.3192 -1.7397
  210SOL    MW4  574   1.268   0.763   1.932  0.4548  0.2976 -0.5103
  211SOL     OW  575   2.726   1.342   2.974 -0.1308  0.1305 -0.4807
  211SOL    HW2  576   2.632   1.348   2.962 -0.3296 -0.9025  0.4150
  211SOL    HW3  577   2.755   1.277   2.911 -0.0963  0.0707 -0.4039
  211SOL    MW4  578   2.718   1.335   2.964 -0.0166 -0.4163 -0.2401
  212SOL     OW  579   1.688   4.766   4.685 -0.0592 -0.1734 -0.1935
  212SOL    HW2  580   1.757   4.707   4.654  0.4837 -0.0487  0.7437
  212SOL    HW3  581   1.608   4.714   4.682  0.1419 -0.4467 -0.9036
  212SOL    MW4  582   1.687   4.752   4.681  0.0418  0.0181 -0.2128
  213SOL     OW  583   2.114   5.462   5.003  0.4837 -0.2219  0.0488
  213SOL    HW2  584   2.155   5.527   5.061 -0.3242 -0.9496  1.4917
  213SOL    HW3  585   2.124   5.379   5.050 -1.4882 -0.6088 -0.1409
  213SOL    MW4  586   2.120   5.460   5.017 -0.2907 -0.1074 -0.0221
  214SOL     OW  587   0.822   0.976   0.627  0.4884  0.7130 -0.5607
  214SOL    HW2  588   0.780   1.045   0.678  0.2832 -0.7547  1.3827
  214SOL    HW3  589   0.751   0.917   0.603  0.7184  0.9352 -1.8583
  214SOL    MW4  590   0.807   0.977   0.631 -0.3122  0.1355 -0.4448
  215SOL     OW  591   5.783   2.573   3.065  0.4332 -0.2466 -0.2623
  215SOL    HW2  592   5.863   2.584   3.116 -0.1122  0.7843  0.3881
  215SOL    HW3  593   5.804   2.610   2.979  0.4823  0.5352  0.0812
  215SOL    MW4  594   5.796   2.579   3.060  0.4118 -0.3307 -0.1583
  216SOL     OW  595   4.127   1.923   4.242 -0.0199  0.2411  0.6166
  216SOL    HW2  596   4.189   1.923   4.169  0.3633 -1.4858  0.9080
  216SOL    HW3  597   4.182   1.913   4.320 -0.6111 -0.8605  0.9073
  216SOL    MW4  598   4.143   1.921   4.243  0.0608  0.3949 -0.3836
  217SOL     OW  599   5.068   5.562   0.589 -0.2924 -0.1121 -0.3847
  217SOL    HW2  600   5.135   5.622   0.622 -0.4928  0.4212 -0.9266
  217SOL    HW3  601   5.109   5.519   0.513 -0.5846  0.2683 -0.7610
  217SOL    MW4  602   5.083   5.564   0.583  0.0965  0.0665 -0.1151
  218SOL     OW  603   1.396   6.333   0.875  0.3141 -0.0441  0.2184
  218SOL    HW2  604   1.329   6.397   0.855  1.1613  0.2962 -1.8238
  218SOL    HW3  605   1.405   6.335   0.970 -0.1303  2.3962  0.2597
  218SOL    MW4  606   1.389   6.342   0.885 -0.0502  0.1388 -0.0747
  219SOL     OW  607   2.864   0.161   1.268  0.2101 -0.5653  0.0951
  219SOL    HW2  608   2.847   0.253   1.290 -0.1538 -0.3172 -1.1242
  219SOL    HW3  609   2.935   0.165   1.203 -1.2725 -0.9502 -1.6398
  219SOL    MW4  610   2.871   0.174   1.262 -0.2513 -0.1636  0.1069
  220SOL     OW  611   2.697   5.906   1.950 -0.0850 -0.3066 -0.0286
  220SOL    HW2  612   2.668   5.828   1.996 -0.9689 -0.2281 -0.4448
  220SOL    HW3  613   2.617   5.954   1.930  0.4744  1.0452  0.8084
  220SOL    MW4  614   2.683   5.902   1.954  0.9060 -0.2058  0.3599
  221SOL     OW  615   1.931   5.702   4.022  0.3969  0.2371  0.0109
  221SOL    HW2  616   1.862   5.680   4.085 -0.8604  1.6214 -0.8089
  221SOL    HW3  617   2.011   5.668   4.062 -0.7275 -1.4017  1.0089
  221SOL    MW4  618   1.933   5.695   4.036 -0.3953 -0.1150  0.6576
  222SOL     OW  619   0.108   1.402   2.461 -0.2814 -0.2702  0.4122
  222SOL    HW2  620   0.141   1.492   2.457 -0.6761 -0.1513 -2.5113
  222SOL    HW3  621   0.183   1.352   2.494 -0.1010  1.0750  2.2588
  222SOL    MW4  622   0.123   1.408   2.465 -0.0176  0.2586 -0.0159
  223SOL     OW  623   1.844   4.712   2.910  0.0173 -0.2144 -0.0616
  223SOL    HW2  624   1.773   4.665   2.952 -0.3062 -1.0279 -1.4602
  223SOL    HW3  625   1.876   4.652   2.843  0.6312  0.9628 -0.8491
  223SOL    MW4  626   1.839   4.698   2.907 -0.6281  0.0164 -0.2181
  224SOL     OW  627   0.040   5.172   2.984 -0.0155  0.0558 -0.0555
  224SOL    HW2  628  -0.042   5.220   2.992 -1.3655 -2.1304  0.3133
  224SOL    HW3  629   0.040   5.141   2.893  0.6799  0.4749 -0.2037
  224SOL    MW4  630   0.029   5.174   2.973 -0.4894  0.4117  0.9039
  225SOL     OW  631   5.154   3.289   1.751 -0.2183 -0.4406  0.0080
  225SOL    HW2  632   5.146   3.305   1.657 -2.1557 -0.0248  0.2104
  225SOL    HW3  633   5.095   3.217   1.768 -0.3390 -0.1150  1.0100
  225SOL    MW4  634   5.145   3.282   1.741  0.8527  0.1243  0.0290
  226SOL     OW  635   0.471   1.415   2.477  0.2047  0.1355  0.3258
  226SOL    HW2  636   0.454   1.357   2.551 -1.4921  0.4747  0.2510
  226SOL    HW3  637   0.495   1.357   2.405  0.5566 -0.3030  0.7980
  226SOL    MW4  638   0.472   1.400   2.477 -0.8424 -0.2476 -0.1117
  227SOL     OW  639   5.169   0.113   3.796  0.2885 -0.2005 -0.0741
  227SOL    HW2  640   5.187   0.130   3.704  0.7203  0.1266  0.0703
  227SOL    HW3  641   5.160   0.018   3.801 -0.0182 -0.1972 -0.5010
  227SOL    MW4  642   5.170   0.102   3.785 -0.6952 -0.4436  0.2234
  228SOL     OW  643   3.919   1.655   6.377  0.3908 -0.4069 -0.7373
  228SOL    HW2  644   3.939   1.742   6.411  0.8811 -0.6753 -0.3311
  228SOL    HW3  645   3.970   1.648   6.296  3.6002 -1.7967  1.2212
  228SOL    MW4  646   3.928   1.666   6.370 -0.0501  0.4581 -0.3963
  229SOL     OW  647   1.204   0.670   1.446  0.4410  0.4919 -0.4337
  229SOL    HW2  648   1.222   0.690   1.538 -1.4039  1.1551 -0.1736
  229SOL    HW3  649   1.128   0.612   1.449  1.4611 -0.9896 -1.5092
  229SOL    MW4  650   1.196   0.665   1.459  0.1532 -0.3078 -0.4457
  230SOL     OW  651   2.974   3.201   0.551  0.5944  0.2767  0.5135
  230SOL    HW2  652   2.959   3.255   0.628 -0.0662 -0.1196  0.6668
  230SOL    HW3  653   2.911   3.130   0.558 -0.3372  0.9043 -1.0168
  230SOL    MW4  654   2.964   3.199   0.562  0.9070  0.2212  0.1290
  231SOL     OW  655   2.381   3.832   1.608 -0.2249  0.0617  0.2625
  231SOL    HW2  656   2.372   3.866   1.697 -2.5904  0.0607  0.0879
  231SOL    HW3  657   2.426   3.902   1.560 -1.5057  1.3152  0.8257
  231SOL    MW4  658   2.385   3.846   1.613  0.0867  0.2093 -0.2041
  232SOL     OW  659   4.103   6.389   3.500  0.0991 -0.7495  0.2639
  232SOL    HW2  660   4.043   6.457   3.468 -0.0655 -1.0676 -0.1194
  232SOL    HW3  661   4.180   6.397   3.444 -0.5062 -1.8276 -0.7800
  232SOL    MW4  662   4.105   6.399   3.488 -0.9320  0.5349 -0.3489
  233SOL     OW  663   0.868   5.418   2.108  0.4282 -0.0974  0.5785
  233SOL    HW2  664   0.924   5.369   2.169  0.9708 -0.5094 -0.2423
  233SOL    HW3  665   0.918   5.422   2.027  0.0381  1.1369  0.3889
  233SOL    MW4  666   0.882   5.412   2.105 -0.1599 -0.1619  0.0999
  234SOL     OW  667   6.040   5.775   1.749  0.2550 -0.7246  0.2196
  234SOL    HW2  668   6.062   5.868   1.740 -2.4444 -0.1254 -1.2444
  234SOL    HW3  669   5.995   5.770   1.833 -2.2661 -0.0151 -1.0001
  234SOL    MW4  670   6.037   5.787   1.759  0.2272 -0.7243  0.1922
  235SOL     OW  671   5.782   4.544   4.414 -0.0957  0.0328  0.0427
  235SOL    HW2  672   5.791   4.451   4.392 -0.4800 -0.8911  3.1988
  235SOL    HW3  673   5.872   4.573   4.429 -0.0725 -0.3876  0.8130
  235SOL    MW4  674   5.795   4.535   4.413  0.2951 -0.0078 -0.0425
  236SOL     OW  675   5.049   4.898   5.168 -0.5655  0.3832 -0.1264
  236SOL    HW2  676   5.134   4.877   5.131 -0.8945  0.3898 -0.8922
  236SOL    HW3  677   5.050   4.858   5.255 -0.1013 -0.3208 -0.4537
  236SOL    MW4  678   5.061   4.890   5.175  0.1392  0.1774  0.1434
  237SOL     OW  679   4.822   2.615   0.508 -0.2478 -0.0555  0.4840
  237SOL    HW2  680   4.849   2.599   0.598  0.6640 -0.0874  0.2191
  237SOL    HW3  681   4.741   2.565   0.497  1.6345 -3.2783  0.1541
  237SOL    MW4  682   4.815   2.606   0.518 -0.2424  0.6672 -0.1135
  238SOL     OW  683   5.078   4.778   2.901  0.2488  0.0875 -0.0189
  238SOL    HW2  684   4.998   4.755   2.854  0.5605 -0.3927 -0.3352
  238SOL    HW3  685   5.050   4.839   2.969 -0.5428 -0.8717  0.5349
  238SOL    MW4  686   5.064   4.783   2.904 -0.6547  0.5058 -0.4228
  239SOL     OW  687   5.068   3.654   0.946 -0.3087 -0.3294 -0.2722
  239SOL    HW2  688   5.104   3.673   0.859 -0.7430  1.1550 -0.1503
  239SOL    HW3  689   5.125   3.701   1.006 -0.2717 -0.9994  0.2308
  239SOL    MW4  690   5.081   3.662   0.942 -0.0317 -0.4000  0.3022
  240SOL     OW  691   0.397   4.085   1.998 -0.2175  0.4473  0.8331
  240SOL    HW2  692   0.427   4.057   2.085  2.8049 -0.7014 -0.4457
  240SOL    HW3  693   0.338   4.014   1.970  0.3788 -0.2012  1.1750
  240SOL    MW4  694   0.393   4.072   2.006 -0.4832  0.5021 -0.6659
  241SOL     OW  695   2.257   6.053   6.037 -0.2280 -0.3366  0.0512
  241SOL    HW2  696   2.340   6.007   6.046 -0.2152 -0.6718 -1.4405
  241SOL    HW3  697   2.256   6.082   5.945 -1.6113 -0.0805  0.1259
  241SOL    MW4  698   2.267   6.051   6.026  0.0718 -0.0966  0.6961
  242SOL     OW  699   0.206   1.033   0.925  0.4183 -0.6492  0.3134
  242SOL    HW2  700   0.237   1.064   1.010  2.6899  3.8234 -1.8210
  242SOL    HW3  701   0.112   1.055   0.925  0.7710  0.9882  1.0467
  242SOL    MW4  702   0.197   1.040   0.937 -0.1942  0.2888  0.1382
  243SOL     OW  703   4.143   1.689   2.252 -0.6236 -0.5126  0.1185
  243SOL    HW2  704   4.163   1.612   2.199 -0.0125 -0.2756 -0.0005
  243SOL    HW3  705   4.056   1.671   2.288 -0.9195 -0.8043 -0.7204
  243SOL    MW4  706   4.134   1.676   2.250 -0.0540  0.2967  0.3425
  244SOL     OW  707   5.471   6.076   4.088 -0.3092  0.5079  0.5247
  244SOL    HW2  708   5.527   6.105   4.017  1.1046 -1.6157  0.6690
  244SOL    HW3  709   5.386   6.059   4.046 -0.0875  1.2375 -0.2345
  244SOL    MW4  710   5.467   6.077   4.073 -0.1228  0.2866 -0.4220
  245SOL     OW  711   1.541   0.903   5.083  0.4607  0.3041 -0.1781
  245SOL    HW2  712   1.459   0.855   5.087  0.1766  0.8253  0.4986
  245SOL    HW3  713   1.526   0.980   5.138  1.7865 -0.1768  0.8875
  245SOL    MW4  714   1.528   0.907   5.090  0.5115 -0.2935  0.1955
  246SOL     OW  715   2.253   6.435   0.642 -0.2503 -0.3362  0.1492
  246SOL    HW2  716   2.341   6.401   0.658 -1.0722 -2.4313  0.4960
  246SOL    HW3  717   2.255   6.464   0.551  1.1352  0.9071  0.5160
  246SOL    MW4  718   2.265   6.434   0.632  0.4271  0.5450 -0.5014
  247SOL     OW  719   0.766   5.923   3.180 -0.3757 -0.3106  0.4717
  247SOL    HW2  720   0.808   6.004   3.210 -0.1499 -0.2448 -0.0150
  247SOL    HW3  721   0.690   5.912   3.238  0.6099 -0.7314  1.7399
  247SOL    MW4  722   0.761   5.932   3.192 -0.4041 -0.2165 -0.5533
  248SOL     OW  723   2.786   4.045   2.141 -0.0547 -0.4753 -0.1635
  248SOL    HW2  724   2.834   3.973   2.100 -0.1091 -1.6694  1.7062
  248SOL    HW3  725   2.710   4.003   2.180  0.1590  0.4964  1.3872
  248SOL    MW4  726   2.782   4.030   2.141 -0.0238  0.2487 -0.2600
  249SOL     OW  727   4.401   3.668   5.900  0.1530  0.3852 -0.0235
  249SOL    HW2  728   4.324   3.681   5.844 -1.4433 -1.2605  1.6627
  249SOL    HW3  729   4.395   3.738   5.965  0.8692  1.0521 -0.6467
  249SOL    MW4  730   4.390   3.679   5.901 -0.0522  0.0540  0.5455
  250SOL     OW  731   4.839   1.764   4.159  0.1115 -0.4106 -0.0521
  250SOL    HW2  732   4.828   1.718   4.242 -0.6396  0.6231  0.4397
  250SOL    HW3  733   4.919   1.815   4.170  0.6603 -1.1657 -0.4119
  250SOL    MW4  734   4.848   1.764   4.171 -0.1172  0.1996  0.6344
  251SOL     OW  735   6.258   0.132   0.192  0.0915 -0.0711  0.3639
  251SOL    HW2  736   6.270   0.161   0.283 -0.0265  1.0726  0.0349
  251SOL    HW3  737   6.182   0.074   0.196  0.5436 -0.6288  1.1068
  251SOL    MW4  738   6.249   0.128   0.205  0.5418  0.5462 -0.8115
  252SOL     OW  739   2.720   2.221   1.792  0.6186 -0.2810  0.4028
  252SOL    HW2  740   2.650   2.178   1.841  0.0038  0.5394  0.2519
  252SOL    HW3  741   2.797   2.166   1.809  0.1621 -0.6635  1.3361
  252SOL    MW4  742   2.721   2.208   1.801 -0.0958 -0.2157  0.3692
  253SOL     OW  743   6.111   0.713   3.075  0.1573 -0.4522 -0.2782
  253SOL    HW2  744   6.200   0.737   3.050 -0.3077  2.3802  0.4193
  253SOL    HW3  745   6.120   0.675   3.162  0.7456 -0.7774 -0.4771
  253SOL    MW4  746   6.124   0.711   3.083  0.1441 -0.0998 -0.0880
  254SOL     OW  747   0.323   0.962   2.891  0.5015  0.2191 -0.1889
  254SOL    HW2  748   0.406   0.981   2.936 -0.6041  0.0061  2.0858
  254SOL    HW3  749   0.293   0.880   2.930 -1.1321  0.6808 -0.4159
  254SOL    MW4  750   0.330   0.954   2.902  0.4474  0.1294 -0.0953
  255SOL     OW  751   2.974   6.350   2.744  0.5062 -0.0101  0.3081
  255SOL    HW2  752   2.883   6.332   2.723  0.5227  2.2132 -2.2693
  255SOL    HW3  753   2.970   6.415   2.815  0.1767 -1.0258  1.2443
  255SOL    MW4  754   2.961   6.357   2.751  0.0271  0.6692  0.2256
  256SOL     OW  755   5.757   6.181   4.642 -0.6868  0.3641  0.3020
  256SOL    HW2  756   5.761   6.274   4.663  0.1081  0.3866  0.1055
  256SOL    HW3  757   5.679   6.149   4.687 -0.7021  1.0287  0.7621
  256SOL    MW4  758   5.747   6.189   4.651 -0.2913  0.2237  0.0407
  257SOL     OW  759   1.241   0.157   4.630  0.0460 -0.4318 -0.0458
  257SOL    HW2  760   1.290   0.184   4.708 -0.0255 -2.3720  0.7300
  257SOL    HW3  761   1.175   0.096   4.663 -3.5066  2.5890 -0.9376
  257SOL    MW4  762   1.239   0.152   4.645  0.4956  0.3697 -0.0941
  258SOL     OW  763   1.302   3.939   3.668  0.4487 -0.7382 -0.1340
  258SOL    HW2  764   1.351   4.001   3.720  0.5446 -0.1480 -0.9093
  258SOL    HW3  765   1.363   3.867   3.651  0.7225 -0.4713 -0.2645
  258SOL    MW4  766   1.316   3.937   3.672 -0.6900 -0.4395  0.1639
  259SOL     OW  767   4.521   5.916   1.841 -0.0401 -0.1411 -0.0738
  259SOL    HW2  768   4.485   5.921   1.930  0.9456 -1.9301  0.5020
  259SOL    HW3  769   4.602   5.967   1.845 -0.8366  1.1779 -0.4435
  259SOL    MW4  770   4.527   5.923   1.854 -0.0424  0.3208 -0.3904
  260SOL     OW  771   1.375   4.544   3.142  0.2688  0.1086 -0.1340
  260SOL    HW2  772   1.385   4.637   3.165  4.0407 -0.0509 -0.4671
  260SOL    HW3  773   1.421   4.498   3.212  0.2341 -1.3647 -1.0548
  260SOL    MW4  774   1.382   4.550   3.154  0.0701 -0.3331 -0.4863
  261SOL     OW  775   4.412   1.284   4.360 -0.1611 -0.3850  0.2299
  261SOL    HW2  776   4.408   1.313   4.269 -1.2468  0.6359  0.5802
  261SOL    HW3  777   4.487   1.329   4.397 -1.4339  1.5702  0.5899
  261SOL    MW4  778   4.421   1.294   4.353  0.3422  0.2522 -0.0100
  262SOL     OW  779   1.749   4.818   3.808 -0.2119  0.2425 -0.2663
  262SOL    HW2  780   1.670   4.788   3.762 -0.6887  1.3459 -0.2022
  262SOL    HW3  781   1.747   4.913   3.798  1.2553  0.2622 -0.4639
  262SOL    MW4  782   1.738   4.827   3.800  0.1775  0.4108  0.1703
  263SOL     OW  783   0.879   0.496   5.499 -0.0340 -0.2806  0.1224
  263SOL    HW2  784   0.818   0.568   5.514 -0.3488 -0.5870  0.3016
  263SOL    HW3  785   0.836   0.420   5.536  1.4116 -0.1203  2.2758
  263SOL    MW4  786   0.865   0.496   5.506 -0.6013 -0.0711  0.8326
  264SOL     OW  787   4.293   4.449   1.244  0.4942  0.2204 -0.2169
  264SOL    HW2  788   4.311   4.413   1.330  2.4717 -1.5274 -1.2776
  264SOL    HW3  789   4.220   4.395   1.211 -0.9824  1.5694  0.6860
  264SOL    MW4  790   4.285   4.437   1.251 -0.3029  0.2321  0.0880
  265SOL     OW  791   2.920   1.159   1.477  0.3497  0.3652 -0.1318
  265SOL    HW2  792   2.862   1.183   1.405  0.0944 -0.3541 -0.1759
  265SOL    HW3  793   2.916   1.234   1.537 -0.8825  0.2069  0.0222
  265SOL    MW4  794   2.912   1.172   1.475 -0.0734  0.1871  0.1555
  266SOL     OW  795   1.310   5.977   0.458 -0.6205  0.3379  0.2043
  266SOL    HW2  796   1.285   5.901   0.405 -1.2544  0.9964 -0.4764
  266SOL    HW3  797   1.399   5.959   0.486 -0.4782 -0.2934 -0.6160
  266SOL    MW4  798   1.318   5.965   0.455 -0.2802 -0.2487  0.1238
  267SOL     OW  799   5.381   4.072   5.908  0.9030  0.0320  0.0493
  267SOL    HW2  800   5.346   4.036   5.827  1.7665 -0.2021 -0.2372
  267SOL    HW3  801   5.324   4.145   5.929  1.2000  0.6634 -1.2711
  267SOL    MW4  802   5.369   4.077   5.900  0.1086  0.3457  0.0285
  268SOL     OW  803   3.267   0.548   6.253 -0.1588  0.0150 -0.3553
  268SOL    HW2  804   3.237   0.622   6.200  0.1641  0.0989 -0.4227
  268SOL    HW3  805   3.249   0.574   6.343  0.7630  0.5639 -0.3096
  268SOL    MW4  806   3.261   0.561   6.258 -0.9108  0.3516  0.0956
  269SOL     OW  807   2.752   5.831   0.224  0.2322 -0.3243  0.3675
  269SOL    HW2  808   2.732   5.742   0.252  0.1144  0.1400  1.8416
  269SOL    HW3  809   2.799   5.870   0.298  0.0310  0.9305 -0.1349
  269SOL    MW4  810   2.756   5.824   0.238  0.0489  0.3668 -0.2416
  270SOL     OW  811   1.477   2.864   0.347 -0.3276 -0.1814 -0.1263
  270SOL    HW2  812   1.421   2.812   0.404 -0.6192  0.8114  0.5044
  270SOL    HW3  813   1.425   2.877   0.267 -0.7804  0.2579  0.2356
  270SOL    MW4  814   1.463   2.859   0.344  0.0662 -0.2106  0.0285
  271SOL     OW  815   5.337   2.964   2.572 -0.3240  0.4498 -0.0905
  271SOL    HW2  816   5.265   3.020   2.601  0.4047  0.7320  1.3111
  271SOL    HW3  817   5.357   2.910   2.649  1.4540  0.9375 -0.1615
  271SOL    MW4  818   5.330   2.964   2.586 -0.2789  0.8313  0.2620
  272SOL     OW  819   5.987   5.851   0.474 -0.3964 -0.8037 -0.5139
  272SOL    HW2  820   6.082   5.860   0.478 -0.4287 -0.5238 -0.3562
  272SOL    HW3  821   5.960   5.906   0.401 -0.7731  1.9718  1.5485
  272SOL    MW4  822   5.996   5.859   0.465 -0.1591  0.3735  0.5358
  273SOL     OW  823   1.717   0.075   4.976 -0.2350  0.1363 -0.0607
  273SOL    HW2  824   1.789   0.013   4.964  0.2914  0.5904  0.6368
  273SOL    HW3  825   1.760   0.157   4.999 -1.0005  0.1742  1.3926
  273SOL    MW4  826   1.732   0.078   4.978  0.2110 -0.3049  0.1668
  274SOL     OW  827   5.960   4.986   4.980 -0.0554  0.0897 -0.3700
  274SOL    HW2  828   5.974   5.073   5.016  0.0804  0.1087 -0.4660
  274SOL    HW3  829   5.963   4.927   5.055 -0.7582  0.2317 -0.2260
  274SOL    MW4  830   5.963   4.990   4.994 -0.1395 -0.7088 -0.1796
  275SOL     OW  831   0.747   3.912   2.206  0.1409 -0.6341  0.6377
  275SOL    HW2  832   0.719   3.998   2.176  0.8722 -1.0098 -1.3071
  275SOL    HW3  833   0.708   3.902   2.292 -3.0379  0.1328 -0.5662
  275SOL    MW4  834   0.738   3.922   2.213  0.0533  0.3703 -0.2636
  276SOL     OW  835   6.048   5.033   0.727  0.2844  0.1434 -0.1239
  276SOL    HW2  836   6.051   4.958   0.786 -1.9177  0.4666  0.5138
  276SOL    HW3  837   6.120   5.089   0.756 -0.1880 -0.1210  1.7074
  276SOL    MW4  838   6.058   5.030   0.739  0.5472  0.2868  0.3220
  277SOL     OW  839   4.952   4.550   2.147  0.3468  0.3335  0.1024
  277SOL    HW2  840   5.033   4.579   2.106  0.0044  1.4140  0.1580
  277SOL    HW3  841   4.884   4.568   2.083  0.0751 -0.0124  0.2888
  277SOL    MW4  842   4.954   4.556   2.133  0.5014  0.0042 -0.1638
  278SOL     OW  843   2.525   6.334   0.955 -0.3191 -0.0879  0.5208
  278SOL    HW2  844   2.498   6.342   0.864 -1.3474  0.9598  0.8971
  278SOL    HW3  845   2.566   6.418   0.976 -1.7782  0.4045  1.5365
  278SOL    MW4  846   2.527   6.346   0.946  0.1401 -0.5054  0.0852
  279SOL     OW  847   5.815   2.823   4.339  0.4404  0.1451  0.7531
  279SOL    HW2  848   5.894   2.778   4.369 -0.9340  0.0794  5.0491
  279SOL    HW3  849   5.768   2.759   4.285  2.4246 -0.4122 -0.3902
  279SOL    MW4  850   5.819   2.809   4.336 -0.2617  0.8042  0.2370
  280SOL     OW  851   4.973   1.812   2.351  0.2682  0.2321  0.3007
  280SOL    HW2  852   4.888   1.786   2.314  0.4512  1.4886 -1.1440
  280SOL    HW3  853   4.969   1.785   2.442 -1.4622 -0.2638  0.1214
  280SOL    MW4  854   4.961   1.805   2.358 -0.4609  0.3784  0.1049
  281SOL     OW  855   0.968   4.875   2.736  0.5326  0.1925 -0.2575
  281SOL    HW2  856   0.932   4.854   2.822  0.0921  0.6840 -0.3190
  281SOL    HW3  857   0.968   4.792   2.689  0.6077 -0.0430  0.1519
  281SOL    MW4  858   0.964   4.862   2.741 -0.1228 -0.4897 -0.1041
  282SOL     OW  859   1.291   2.040   5.344  0.4949 -0.4345  0.1888
  282SOL    HW2  860   1.292   1.953   5.303 -0.6464 -1.7465  2.7039
  282SOL    HW3  861   1.373   2.044   5.392  0.0685 -0.5881  0.9387
  282SOL    MW4  862   1.302   2.029   5.345  0.4221  0.1133 -0.5625
  283SOL     OW  863   5.204   3.390   1.187  0.0733  0.2087  0.2383
  283SOL    HW2  864   5.115   3.403   1.154 -0.3119 -0.1590  1.1023
  283SOL    HW3  865   5.213   3.295   1.197 -0.4930  0.3621  2.9026
  283SOL    MW4  866   5.194   3.379   1.184  0.0894  0.1999 -0.8355
  284SOL     OW  867   4.815   2.932   0.980  0.3987  0.3010  0.0644
  284SOL    HW2  868   4.801   3.009   1.034 -1.6324 -0.8767  1.3661
  284SOL    HW3  869   4.778   2.956   0.895 -0.8479  0.5698  0.6559
  284SOL    MW4  870   4.808   2.945   0.976 -0.0143  0.1131 -0.0509
  285SOL     OW  871   4.646   4.610   2.550  0.5422 -0.4083  0.0532
  285SOL    HW2  872   4.693   4.666   2.611  1.2890 -0.8663 -0.0837
  285SOL    HW3  873   4.707   4.538   2.532 -0.0499 -0.7920 -0.4625
  285SOL    MW4  874   4.661   4.608   2.556 -0.1088 -0.3310  0.2292
  286SOL     OW  875   0.456   2.066   3.840 -0.3761 -0.2793  0.3705
  286SOL    HW2  876   0.523   2.051   3.773 -0.8485 -1.8216  0.1819
  286SOL    HW3  877   0.494   2.130   3.900  1.3180 -1.2082  0.3380
  286SOL    MW4  878   0.470   2.072   3.839  0.2802 -0.0126 -0.3987
  287SOL     OW  879   2.957   3.092   4.868  0.2954 -0.9264  0.3482
  287SOL    HW2  880   2.863   3.099   4.855  0.2100 -0.2085  1.2277
  287SOL    HW3  881   2.995   3.148   4.799 -0.0136  0.2823  1.1260
  287SOL    MW4  882   2.950   3.101   4.857  0.4631  0.1387 -0.3943
  288SOL     OW  883   2.207   3.102   0.205 -0.1563 -0.4333  0.4731
  288SOL    HW2  884   2.229   3.195   0.198  1.5968 -0.9503 -1.9578
  288SOL    HW3  885   2.151   3.085   0.130 -0.9471 -1.2767  1.2225
  288SOL    MW4  886   2.202   3.112   0.194 -0.0649 -0.3135  0.2785
  289SOL     OW  887   0.379   1.017   0.143 -0.0161 -0.1126 -0.1907
  289SOL    HW2  888   0.381   0.942   0.084 -0.7946 -1.7680  1.7616
  289SOL    HW3  889   0.347   1.090   0.089 -1.5810 -1.7454 -1.5756
  289SOL    MW4  890   0.375   1.017   0.128 -0.4238  0.0329  0.0443
  290SOL     OW  891   5.179   3.217   5.452 -0.0866  0.0153 -0.3173
  290SOL    HW2  892   5.100   3.221   5.398 -0.6539 -0.5724  0.4525
  290SOL    HW3  893   5.210   3.307   5.455 -0.5404  0.1967 -0.9052
  290SOL    MW4  894   5.173   3.229   5.445 -0.3087 -0.2717  0.1599
  291SOL     OW  895   5.295   0.825   3.434 -0.0740 -0.2708 -0.3977
  291SOL    HW2  896   5.313   0.840   3.527  0.0893 -0.6132 -0.3745
  291SOL    HW3  897   5.284   0.913   3.398 -0.2310 -0.1392 -0.0372
  291SOL    MW4  898   5.296   0.839   3.441  0.0815 -0.0036  0.1784
  292SOL     OW  899   5.481   3.146   5.404  0.2031  0.1643 -0.0163
  292SOL    HW2  900   5.491   3.197   5.485  1.1970 -1.7407  1.1417
  292SOL    HW3  901   5.392   3.165   5.374  0.2618  1.9085  0.8010
  292SOL    MW4  902   5.471   3.155   5.411 -0.3587 -0.2416  0.1783
  293SOL     OW  903   2.158   4.858   1.766 -0.7860  0.0910  0.2902
  293SOL    HW2  904   2.136   4.787   1.826 -0.2198 -0.1008  0.2743
  293SOL    HW3  905   2.129   4.827   1.681  1.6243 -1.1864 -0.1461
  293SOL    MW4  906   2.151   4.844   1.763 -0.1204 -0.1474  0.0347
  294SOL     OW  907   4.695   4.990   1.821 -0.1782 -0.2124 -0.2192
  294SOL    HW2  908   4.648   4.913   1.850 -0.3269  0.3157  0.9817
  294SOL    HW3  909   4.691   5.051   1.895  1.6513  0.1838 -0.3954
  294SOL    MW4  910   4.689   4.988   1.834  0.1358 -0.2186 -0.6146
  295SOL     OW  911   3.652   5.898   3.592 -0.0224 -0.2557  0.0292
  295SOL    HW2  912   3.572   5.875   3.640 -0.1355 -1.5789 -0.7349
  295SOL    HW3  913   3.627   5.895   3.500  0.6899  0.2260 -0.1916
  295SOL    MW4  914   3.638   5.895   3.586  0.1436  0.7158 -0.2284
  296SOL     OW  915   0.342   1.368   4.554  0.1633 -0.0474  0.0821
  296SOL    HW2  916   0.389   1.340   4.475 -1.3350  2.1823 -1.7229
  296SOL    HW3  917   0.299   1.449   4.529  0.7968  1.6041  3.6890
  296SOL    MW4  918   0.343   1.375   4.540  0.1102 -0.6564  0.2129
  297SOL     OW  919   3.698   6.175   3.600  0.0879  0.2267 -0.3171
  297SOL    HW2  920   3.670   6.083   3.603  0.0568  0.2239  3.2909
  297SOL    HW3  921   3.661   6.209   3.519 -1.9821 -2.3144 -0.5580
  297SOL    MW4  922   3.690   6.167   3.589  0.1296  0.0090  0.2671
  298SOL     OW  923   1.498   1.429   2.139  0.1298 -0.5673 -0.6958
  298SOL    HW2  924   1.551   1.450   2.063 -1.1035  2.9867 -0.7575
  298SOL    HW3  925   1.445   1.354   2.112  2.0641 -1.5307 -2.0612
  298SOL    MW4  926   1.498   1.422   2.126  0.4286  0.3977  0.2822
  299SOL     OW  927   2.651   2.827   3.491  0.1748  0.1465  0.2188
  299SOL    HW2  928   2.604   2.744   3.481 -1.9933  1.2434  0.6229
  299SOL    HW3  929   2.680   2.848   3.402  0.2548 -0.7736  0.0188
  299SOL    MW4  930   2.649   2.819   3.478 -0.2780  0.1061  0.0500
  300SOL     OW  931   0.630   2.340   5.600 -0.3027  0.3610  0.5883
  300SOL    HW2  932   0.640   2.417   5.545 -0.4384 -0.3496 -0.4488
  300SOL    HW3  933   0.691   2.354   5.672  0.8560  0.6987 -0.4325
  300SOL    MW4  934   0.639   2.352   5.602  0.2517 -0.6692 -0.5989
  301SOL     OW  935   1.766   3.313   2.142  0.2337  0.1246  0.2104
  301SOL    HW2  936   1.694   3.324   2.203  1.0592  1.1256  1.0547
  301SOL    HW3  937   1.794   3.402   2.121  0.2017 -0.2084 -1.3679
  301SOL    MW4  938   1.760   3.326   2.148 -0.0062 -0.0953  0.3571
  302SOL     OW  939   5.501   4.000   5.506 -0.4692 -0.0875 -0.0155
  302SOL    HW2  940   5.420   3.955   5.480  0.5572 -0.7228 -2.3693
  302SOL    HW3  941   5.490   4.090   5.475 -0.1280 -0.2737 -0.6836
  302SOL    MW4  942   5.489   4.006   5.499 -0.2827  0.1966 -0.7219
  303SOL     OW  943   1.344   0.093   0.494 -0.2989  0.3204 -0.6298
  303SOL    HW2  944   1.291   0.059   0.566 -1.0012 -0.3389 -1.4286
  303SOL    HW3  945   1.426   0.119   0.534 -0.0244 -1.6102  0.1747
  303SOL    MW4  946   1.347   0.092   0.508 -0.2339  0.2275  0.2540
  304SOL     OW  947   1.239   5.807   5.204 -0.0107  0.0606  0.4936
  304SOL    HW2  948   1.307   5.832   5.142  0.5439 -0.0929  1.0353
  304SOL    HW3  949   1.284   5.797   5.288 -0.0435 -3.3048  0.2543
  304SOL    MW4  950   1.254   5.809   5.207  0.0784 -0.2017  0.0680
  305SOL     OW  951   2.244   3.879   2.674  0.2097 -0.0852 -0.1445
  305SOL    HW2  952   2.158   3.880   2.633  1.0772  0.8977 -2.0906
  305SOL    HW3  953   2.275   3.789   2.663 -0.2870 -0.2746 -0.0290
  305SOL    MW4  954   2.237   3.867   2.667 -0.2564 -0.0890  0.3320
  306SOL     OW  955   1.865   0.033   1.616  0.0787  0.2172  0.2576
  306SOL    HW2  956   1.924  -0.034   1.582  0.9302  0.7440  0.6623
  306SOL    HW3  957   1.869   0.022   1.711 -1.2213 -0.3557  0.2670
  306SOL    MW4  958   1.873   0.023   1.624  0.3538  0.1948 -0.1735
  307SOL     OW  959   0.724   2.362   2.404 -0.0386  0.2852 -0.1341
  307SOL    HW2  960   0.668   2.353   2.482 -0.7539 -1.1951 -0.7583
  307SOL    HW3  961   0.771   2.278   2.399  2.5416  1.5964  0.5329
  307SOL    MW4  962   0.723   2.350   2.413 -0.2756 -0.0896  0.3270
  308SOL     OW  963   5.377   3.096   3.709  0.1939  0.0237 -0.0661
  308SOL    HW2  964   5.284   3.075   3.705  0.2372 -0.1617 -0.1607
  308SOL    HW3  965   5.415   3.023   3.759  0.1814  0.4737  0.6016
  308SOL    MW4  966   5.370   3.083   3.715  0.0858 -0.0672  0.3314
  309SOL     OW  967   1.158   4.545   3.319 -0.5389 -0.1535  0.1348
  309SOL    HW2  968   1.083   4.508   3.272 -0.9050  0.1374  0.4867
  309SOL    HW3  969   1.227   4.548   3.254 -1.1266  0.5212 -0.4752
  309SOL    MW4  970   1.157   4.540   3.304  0.4681 -0.1289 -0.1328
  310SOL     OW  971   2.227   0.142   1.494  0.2037  0.0788 -0.5698
  310SOL    HW2  972   2.159   0.181   1.440  1.6250  2.2911 -0.9196
  310SOL    HW3  973   2.302   0.201   1.484  1.5774 -1.2396  1.2344
  310SOL    MW4  974   2.228   0.155   1.486  0.1930 -1.4265 -0.9430
  311SOL     OW  975   2.858   0.146   0.039 -0.0704 -0.1139 -0.1213
  311SOL    HW2  976   2.782   0.115   0.089 -0.9801 -0.5118 -1.6635
  311SOL    HW3  977   2.820   0.180  -0.043  1.4237 -0.4904 -1.0088
  311SOL    MW4  978   2.843   0.147   0.034  0.1905  0.2860 -0.0538
  312SOL     OW  979   3.582   3.182   3.753 -0.0814  0.4487 -0.0583
  312SOL    HW2  980   3.550   3.265   3.717  1.6447  0.0755 -2.7618
  312SOL    HW3  981   3.657   3.207   3.807 -1.2893  0.8291  1.5010
  312SOL    MW4  982   3.588   3.196   3.755  0.3529 -0.7328 -0.1611
  313SOL     OW  983   3.448   3.645   1.974  0.5352  0.2731  0.1824
  313SOL    HW2  984   3.369   3.592   1.983  0.5488  0.0851 -0.6609
  313SOL    HW3  985   3.487   3.645   2.061 -0.2621  0.1618  0.5518
  313SOL    MW4  986   3.443   3.638   1.987 -0.3040  0.2022 -0.5088
  314SOL     OW  987   4.669   6.079   5.204 -0.7262 -0.4384  0.8689
  314SOL    HW2  988   4.731   6.031   5.149 -1.3352  0.8182 -1.0318
  314SOL    HW3  989   4.588   6.030   5.197 -0.7409 -0.4105  0.8427
  314SOL    MW4  990   4.667   6.066   5.196  0.2845 -0.0031  0.5234
  315SOL     OW  991   1.854   5.449   4.736  0.1648 -0.0901 -0.1450
  315SOL    HW2  992   1.848   5.354   4.723 -0.3981  0.0496 -1.0336
  315SOL    HW3  993   1.943   5.471   4.708  0.3505 -0.3806  0.2188
  315SOL    MW4  994   1.865   5.440   4.731  0.0751  0.0392  0.1466
  316SOL     OW  995   1.736   0.404   3.593 -0.5799  0.0615 -0.0463
  316SOL    HW2  996   1.724   0.495   3.621  2.5112  0.4383  0.4018
  316SOL    HW3  997   1.683   0.353   3.655 -0.8683  1.4483  0.8911
  316SOL    MW4  998   1.728   0.409   3.605  0.5009  0.0842 -0.1295
  317SOL     OW  999   5.920   1.194   3.375  0.2685  0.3040 -0.8588
  317SOL    HW2 1000   6.000   1.190   3.427  0.8979  1.7583 -1.6608
  317SOL    HW3 1001   5.851   1.162   3.434  1.4260 -1.0231 -0.1787
  317SOL    MW4 1002   5.921   1.189   3.390 -0.4712 -0.4388  0.0408
  318SOL     OW 1003   5.360   0.724   4.902  0.1328  0.1655  0.0984
  318SOL    HW2 1004   5.306   0.803   4.907 -0.0635 -0.0409  1.5848
  318SOL    HW3 1005   5.314   0.660   4.956 -0.3789 -1.4144 -2.0675
  318SOL    MW4 1006   5.347   0.726   4.910  0.3456  0.1465 -0.4610
  319SOL     OW 1007   1.852   3.489   4.488 -0.2613  0.0495 -0.3429
  319SOL    HW2 1008   1.840   3.413   4.432 -0.6464  0.7053 -1.1713
  319SOL    HW3 1009   1.880   3.559   4.429  0.2622  0.5124  0.4276
  319SOL    MW4 1010   1.854   3.489   4.473 -1.0091  0.3005 -0.0612
  320SOL     OW 1011   2.323   4.122   2.522 -0.7509  0.3976  0.1432
  320SOL    HW2 1012   2.232   4.152   2.518 -1.3092 -1.3683 -2.1307
  320SOL    HW3 1013   2.318   4.033   2.557 -0.1394 -0.3468 -1.5361
  320SOL    MW4 1014   2.311   4.114   2.526  0.3576  0.0950  0.2389
  321SOL     OW 1015   0.328   4.573   2.019  0.0876 -0.3067  0.1639
  321SOL    HW2 1016   0.388   4.498   2.019 -0.3725 -0.7548 -1.9081
  321SOL    HW3 1017   0.384   4.649   2.002  0.2782 -0.4819  0.0076
  321SOL    MW4 1018   0.343   4.573   2.017  0.0986 -0.0277  0.3801
  322SOL     OW 1019   3.676   5.284   4.212 -0.2767  0.2717 -0.2106
  322SOL    HW2 1020   3.619   5.219   4.170  1.1897  0.0440 -1.9913
  322SOL    HW3 1021   3.633   5.368   4.194 -1.7026 -0.0745  1.3157
  322SOL    MW4 1022   3.662   5.286   4.204 -0.1805 -0.4060  0.3957
  323SOL     OW 1023   3.795   0.796   2.531 -0.3132 -0.4878 -0.0828
  323SOL    HW2 1024   3.719   0.837   2.490 -0.6422  1.0920  1.9140
  323SOL    HW3 1025   3.868   0.817   2.472 -1.4814 -3.3067 -2.8281
  323SOL    MW4 1026   3.795   0.805   2.518  0.3027  0.5991  0.2427
  324SOL     OW 1027   4.444   5.259   5.832  0.1610  0.0607  0.1918
  324SOL    HW2 1028   4.475   5.175   5.801 -0.3194  0.5044 -1.6060
  324SOL    HW3 1029   4.398   5.297   5.757 -2.1147  0.7032  1.7882
  324SOL    MW4 1030   4.442   5.253   5.818 -0.7952  0.5370  0.0528
  325SOL     OW 1031   6.125   3.127   5.679 -0.0556 -0.0340 -0.0126
  325SOL    HW2 1032   6.216   3.116   5.708 -0.2057 -2.3443 -0.2727
  325SOL    HW3 1033   6.075   3.070   5.737 -0.8778 -1.5817 -2.1576
  325SOL    MW4 1034   6.131   3.118   5.691 -0.2051  0.0291  0.3420
  326SOL     OW 1035   5.533   5.076   4.724 -0.6519  0.3999  0.2637
  326SOL    HW2 1036   5.564   5.166   4.732  0.6783 -0.0604  0.5256
  326SOL    HW3 1037   5.478   5.063   4.801 -1.4557  1.2041 -0.1560
  326SOL    MW4 1038   5.530   5.086   4.735  0.8552 -0.3028 -0.0105
  327SOL     OW 1039   5.728   4.785   4.854  0.2198 -0.3717 -0.6526
  327SOL    HW2 1040   5.761   4.781   4.765  1.1882  0.3576 -0.3494
  327SOL    HW3 1041   5.726   4.878   4.875 -2.1475 -0.3650 -0.6614
  327SOL    MW4 1042   5.732   4.797   4.845 -0.1513 -0.4300 -0.1873
  328SOL     OW 1043   1.856   5.657   5.226 -0.2537  0.2244 -0.2239
  328SOL    HW2 1044   1.847   5.619   5.139 -0.9259  0.5316 -0.2907
  328SOL    HW3 1045   1.914   5.596   5.273  0.8734  0.5426 -1.1638
  328SOL    MW4 1046   1.863   5.644   5.221 -0.8998  0.1846  0.5061
  329SOL     OW 1047   5.629   1.359   1.352  0.4588  0.0710 -0.1524
  329SOL    HW2 1048   5.546   1.322   1.323  0.7675  0.8941 -2.2548
  329SOL    HW3 1049   5.655   1.304   1.426 -1.6284 -0.5772  0.1665
  329SOL    MW4 1050   5.622   1.347   1.358  0.7445 -0.5974  0.3549
  330SOL     OW 1051   4.725   1.768   1.443  0.2422 -0.2568 -0.1688
  330SOL    HW2 1052   4.690   1.756   1.532  0.5353  0.0863 -0.0072
  330SOL    HW3 1053   4.820   1.762   1.454  0.2312 -1.8936 -0.7110
  330SOL    MW4 1054   4.732   1.765   1.457  0.0076 -0.6759 -0.0531
  331SOL     OW 1055   3.161   5.032   2.177 -0.1824  0.2992  0.0185
  331SOL    HW2 1056   3.138   5.047   2.086  1.1201 -0.4481 -0.4569
  331SOL    HW3 1057   3.096   4.970   2.209 -0.0036 -0.2836 -0.7299
  331SOL    MW4 1058   3.149   5.026   2.169  0.0639 -0.4956  0.1912
  332SOL     OW 1059   4.778   0.199   1.384  0.2424  0.0543  0.0771
  332SOL    HW2 1060   4.738   0.285   1.384  0.9817  0.4576  2.0111
  332SOL    HW3 1061   4.704   0.138   1.385 -0.2892  0.6864  0.1514
  332SOL    MW4 1062   4.763   0.202   1.384  0.4942  0.2335  0.7581
  333SOL     OW 1063   3.552   4.909   1.849 -0.6537 -0.0098  0.1355
  333SOL    HW2 1064   3.584   4.969   1.916  1.7625 -1.0930  0.0581
  333SOL    HW3 1065   3.602   4.932   1.770 -2.7744  0.6239 -1.0901
  333SOL    MW4 1066   3.563   4.920   1.847 -0.6126 -0.5462 -0.2250
  334SOL     OW 1067   4.065   3.734   2.950  0.4995  0.0822  0.0617
  334SOL    HW2 1068   4.076   3.783   3.032  2.1680 -0.4951  0.2134
  334SOL    HW3 1069   4.001   3.666   2.972 -0.4170  1.0128  0.3675
  334SOL    MW4 1070   4.058   3.731   2.964  0.0962 -0.0541 -0.1141
  335SOL     OW 1071   4.210   0.477   4.185 -0.8988 -0.0097  0.1134
  335SOL    HW2 1072   4.186   0.534   4.112 -1.4492  0.7136  0.8399
  335SOL    HW3 1073   4.179   0.390   4.160 -1.4796  0.3203 -0.3182
  335SOL    MW4 1074   4.203   0.473   4.172 -0.3088  0.2789 -0.0779
  336SOL     OW 1075   4.725   5.844   1.359  0.5544 -0.2227 -0.2762
  336SOL    HW2 1076   4.809   5.874   1.394  0.0582  0.8385  0.0787
  336SOL    HW3 1077   4.682   5.802   1.433  0.2180  0.4727 -0.0645
  336SOL    MW4 1078   4.730   5.843   1.374 -0.0787 -0.4226 -0.5791
  337SOL     OW 1079   5.715   4.573   1.262  0.4848  0.0726 -0.2581
  337SOL    HW2 1080   5.806   4.543   1.262  0.1960 -0.8524 -0.6089
  337SOL    HW3 1081   5.699   4.602   1.352  1.2758  0.7536 -0.3233
  337SOL    MW4 1082   5.725   4.573   1.274 -0.0334  0.6306 -0.6063
  338SOL     OW 1083   6.300   2.706   0.869 -0.0120  0.0571  0.4715
  338SOL    HW2 1084   6.322   2.732   0.780 -0.8801 -2.2464 -0.5056
  338SOL    HW3 1085   6.228   2.643   0.858 -0.3923 -0.0023  2.8272
  338SOL    MW4 1086   6.293   2.701   0.856  0.3443  0.0660  0.0940
  339SOL     OW 1087   3.667   4.208   2.147 -0.1329 -0.2458  0.3505
  339SOL    HW2 1088   3.593   4.155   2.119  0.6182 -0.2030 -1.9126
  339SOL    HW3 1089   3.642   4.298   2.125  0.4077 -0.1856 -0.0280
  339SOL    MW4 1090   3.654   4.213   2.140  0.7424  0.3825 -0.1958
  340SOL     OW 1091   0.811   3.834   4.087 -0.0453  0.1606 -0.7347
  340SOL    HW2 1092   0.777   3.760   4.038 -0.7888  0.3281 -0.4822
  340SOL    HW3 1093   0.759   3.837   4.167  1.3635 -0.3126  0.2487
  340SOL    MW4 1094   0.800   3.825   4.091  0.1147  0.1185 -0.1019
  341SOL     OW 1095   0.509   2.729   4.205  0.4400  0.3952  0.3704
  341SOL    HW2 1096   0.558   2.703   4.282  0.3646 -0.9357 -0.0063
  341SOL    HW3 1097   0.494   2.648   4.157  1.9574  1.3610 -1.9336
  341SOL    MW4 1098   0.514   2.715   4.209 -0.0248 -1.3706  0.5034
  342SOL     OW 1099   3.090   3.658   0.746 -0.3410 -0.0636  0.2696
  342SOL    HW2 1100   3.137   3.595   0.691  0.4730 -0.5335  1.4770
  342SOL    HW3 1101   3.159   3.704   0.794 -1.0231  0.6337  0.5969
  342SOL    MW4 1102   3.105   3.656   0.745  0.5154 -0.3065  0.1245
  343SOL     OW 1103   1.330   0.430   1.983 -0.3682 -0.5266 -0.3800
  343SOL    HW2 1104   1.378   0.512   1.973 -2.2628  0.6432 -0.4564
  343SOL    HW3 1105   1.390   0.372   2.029  1.3267  0.6227 -1.0517
  343SOL    MW4 1106   1.344   0.433   1.988  0.0924  0.3156 -0.4626
  344SOL     OW 1107   0.463   3.506   3.559  0.0699  0.0263  0.0245
  344SOL    HW2 1108   0.461   3.537   3.468 -3.7012 -1.3646 -0.5793
  344SOL    HW3 1109   0.493   3.415   3.552  2.4097  0.6850  0.6302
  344SOL    MW4 1110   0.466   3.498   3.546 -0.1182  0.7496 -0.1377
  345SOL     OW 1111   3.333   1.760   2.624 -0.1932  0.1829  0.2243
  345SOL    HW2 1112   3.333   1.667   2.643 -0.0291 -0.3424 -2.0416
  345SOL    HW3 1113   3.349   1.802   2.709 -0.9645 -1.7832  1.4063
  345SOL    MW4 1114   3.335   1.754   2.638  0.4914 -0.3277 -0.1362
  346SOL     OW 1115   4.403   2.284   5.948 -0.0426  0.0426  0.1076
  346SOL    HW2 1116   4.432   2.204   5.905  0.3804  0.0453  0.3786
  346SOL    HW3 1117   4.312   2.267   5.973  0.0092 -0.3059  0.0578
  346SOL    MW4 1118   4.395   2.271   5.945 -0.3028 -1.0706  0.0860
  347SOL     OW 1119   2.150   3.892   5.468  0.0753  0.4534 -0.2422
  347SOL    HW2 1120   2.189   3.948   5.400 -2.0970  2.0030 -0.3424
  347SOL    HW3 1121   2.202   3.909   5.546  0.4261  1.4513 -0.6754
  347SOL    MW4 1122   2.162   3.902   5.470 -0.6981  0.4536 -0.1674
  348SOL     OW 1123   3.471   3.863   1.261 -0.1698 -0.7930  0.2440
  348SOL    HW2 1124   3.551   3.910   1.283 -0.8181  0.7323 -0.5028
  348SOL    HW3 1125   3.423   3.857   1.344  0.4025 -1.0990  0.5553
  348SOL    MW4 1126   3.475   3.868   1.275  0.3260 -0.1698  0.1582
  349SOL     OW 1127   2.979   1.982   5.360  0.1617  0.3721 -0.1572
  349SOL    HW2 1128   2.970   2.010   5.451 -0.0935 -0.9052  0.2250
  349SOL    HW3 1129   3.057   2.028   5.328  1.8833 -1.2147  1.5342
  349SOL    MW4 1130   2.988   1.992   5.368  0.5409  0.1870  0.2151
  350SOL     OW 1131   3.445   4.416   1.975  0.0358  0.8651  0.4884
  350SOL    HW2 1132   3.470   4.497   2.018 -0.9692  1.1721  0.5233
  350SOL    HW3 1133   3.449   4.349   2.043  0.8104  0.8925  0.4721
  350SOL    MW4 1134   3.449   4.418   1.990  0.5233 -0.6175 -0.4089
  351SOL     OW 1135   5.137   4.960   0.262  0.0890  0.1073 -0.1895
  351SOL    HW2 1136   5.166   5.048   0.288  0.5643  0.1011 -0.7045
  351SOL    HW3 1137   5.064   4.975   0.202 -1.4616  0.1194  1.5938
  351SOL    MW4 1138   5.131   4.973   0.258  0.0253  0.9975 -0.0511
  352SOL     OW 1139   1.667   5.476   5.608 -0.0966  0.2597 -0.2023
  352SOL    HW2 1140   1.747   5.477   5.660 -1.2674  0.4070  1.7012
  352SOL    HW3 1141   1.684   5.413   5.539  0.8300 -1.5499  1.5843
  352SOL    MW4 1142   1.680   5.468   5.606 -0.3762  0.3685 -0.4963
  353SOL     OW 1143   3.087   3.241   4.683 -0.4483  0.6777  0.1657
  353SOL    HW2 1144   3.036   3.255   4.604 -1.2228 -2.5419 -0.0314
  353SOL    HW3 1145   3.160   3.186   4.656 -0.0199  0.5601  1.4587
  353SOL    MW4 1146   3.090   3.236   4.669  0.1217  0.1331 -0.1128
  354SOL     OW 1147   2.936   5.915   3.685  0.1325  0.1254  0.3496
  354SOL    HW2 1148   2.954   5.875   3.770 -0.3825 -0.4943  0.1716
  354SOL    HW3 1149   3.017   5.903   3.635 -0.0850 -0.8936  0.2270
  354SOL    MW4 1150   2.949   5.908   3.690 -0.6667 -0.4289  0.1689
  355SOL     OW 1151   2.803   5.180   3.976  0.5265  0.5404  0.0432
  355SOL    HW2 1152   2.891   5.158   3.947 -0.0928 -2.5915  0.2304
  355SOL    HW3 1153   2.751   5.180   3.896  0.0713 -1.3529  0.2926
  355SOL    MW4 1154   2.808   5.177   3.961 -0.2168 -0.0333  0.0967
  356SOL     OW 1155   2.505   2.615   1.340  0.2412 -0.0013  0.1895
  356SOL    HW2 1156   2.532   2.525   1.327 -0.7291 -0.1966 -0.5879
  356SOL    HW3 1157   2.587   2.665   1.343  0.9132 -1.1089  2.6600
  356SOL    MW4 1158   2.520   2.610   1.339 -0.1893  0.3113 -0.2665
  357SOL     OW 1159   6.139   1.113   3.038  0.1993  0.1253  0.4697
  357SOL    HW2 1160   6.064   1.170   3.053  0.8309  0.8989  0.7667
  357SOL    HW3 1161   6.136   1.049   3.110 -1.2064 -0.9987 -0.5454
  357SOL    MW4 1162   6.129   1.112   3.050  0.0739 -0.6211 -0.1404
  358SOL     OW 1163   2.117   6.391   3.540 -0.8571  0.7802 -0.3905
  358SOL    HW2 1164   2.175   6.376   3.466  0.3920 -0.0105  0.7098
  358SOL    HW3 1165   2.066   6.310   3.548  1.1504 -0.3930  1.4214
  358SOL    MW4 1166   2.118   6.379   3.532 -0.3459 -0.1783 -0.1908
  359SOL     OW 1167   1.615   4.104   4.474 -0.6042  0.1049 -0.2617
  359SOL    HW2 1168   1.561   4.107   4.395  0.3631  1.1322 -0.9007
  359SOL    HW3 1169   1.625   4.010   4.492 -1.0701 -0.1347 -1.1840
  359SOL    MW4 1170   1.609   4.092   4.466  0.3203 -0.0128  0.0108
  360SOL     OW 1171   0.153   5.619   1.452  0.3005  0.2493  0.1301
  360SOL    HW2 1172   0.141   5.642   1.544  0.8275 -0.2748  0.3355
  360SOL    HW3 1173   0.139   5.701   1.405  0.4920  0.6258  0.7184
  360SOL    MW4 1174   0.150   5.633   1.458 -0.4237 -0.2738 -0.2868
  361SOL     OW 1175   0.720   2.977   1.199  0.4132 -0.2324  0.6599
  361SOL    HW2 1176   0.690   2.976   1.108  0.2933 -0.5255  0.7013
  361SOL    HW3 1177   0.815   2.976   1.193  0.4004 -1.4337  0.5474
  361SOL    MW4 1178   0.728   2.977   1.186  0.4140  0.2231 -0.6262
  362SOL     OW 1179   5.744   5.012   5.209  0.1271 -0.7428  0.2079
  362SOL    HW2 1180   5.759   5.001   5.303  1.7955 -0.5195  0.0001
  362SOL    HW3 1181   5.810   5.075   5.182 -0.2743 -0.8738 -1.1339
  362SOL    MW4 1182   5.755   5.019   5.218  0.2375 -0.0878  0.2411
  363SOL     OW 1183   2.820   2.557   1.837  0.3921  0.3626 -0.7954
  363SOL    HW2 1184   2.850   2.526   1.752  0.8380  2.4882 -1.4607
  363SOL    HW3 1185   2.801   2.650   1.824 -3.2656 -0.0248  0.4401
  363SOL    MW4 1186   2.821   2.565   1.824  0.1690  0.3240  0.6464
  364SOL     OW 1187   1.326   2.855   6.162 -0.4808  0.0968  0.2280
  364SOL    HW2 1188   1.301   2.824   6.075  2.3172 -0.0248 -0.6539
  364SOL    HW3 1189   1.368   2.780   6.204  2.4495  1.2945 -0.2474
  364SOL    MW4 1190   1.328   2.841   6.156  0.7488 -0.0415  0.2979
  365SOL     OW 1191   1.150   0.849   3.116  0.0871  0.1178  0.0043
  365SOL    HW2 1192   1.227   0.844   3.059 -0.2668  1.1727 -0.5997
  365SOL    HW3 1193   1.150   0.766   3.164  1.1954 -0.1942 -0.4968
  365SOL    MW4 1194   1.161   0.837   3.115 -0.3770 -0.5483  0.5332
  366SOL     OW 1195   5.999   1.773   3.335 -0.0377 -0.4097  0.1131
  366SOL    HW2 1196   5.973   1.847   3.389 -0.2338 -1.0320  0.9030
  366SOL    HW3 1197   5.975   1.798   3.245 -1.9735 -0.3186  0.6046
  366SOL    MW4 1198   5.992   1.786   3.330  0.3285  0.6232  0.2063
  367SOL     OW 1199   5.182   1.594   4.521  0.0771 -0.1629  0.1423
  367SOL    HW2 1200   5.252   1.648   4.559  2.0947 -1.2842 -1.7768
  367SOL    HW3 1201   5.126   1.656   4.475  2.8742  0.3832 -2.8324
  367SOL    MW4 1202   5.184   1.609   4.520 -0.4886 -0.5401  0.3389
  368SOL     OW 1203   4.208   4.627   4.456 -0.0655  0.0155 -0.0446
  368SOL    HW2 1204   4.179   4.537   4.444 -0.3713  0.1351 -0.2316
  368SOL    HW3 1205   4.141   4.667   4.512  0.2702  0.0228  0.3539
  368SOL    MW4 1206   4.195   4.621   4.462  0.5722 -0.1513  0.2369
  369SOL     OW 1207   1.037   4.265   1.241  0.3709  0.6173 -0.9610
  369SOL    HW2 1208   1.078   4.254   1.155  1.4893  0.0331 -0.3828
  369SOL    HW3 1209   1.110   4.257   1.303 -0.0714  3.0618 -0.0262
  369SOL    MW4 1210   1.052   4.262   1.238  0.1043 -0.0084  0.3926
  370SOL     OW 1211   4.337   3.812   1.968 -0.1031  0.1058  0.3522
  370SOL    HW2 1212   4.271   3.872   1.933  0.0125 -0.8932 -1.7451
  370SOL    HW3 1213   4.320   3.729   1.923  0.3479 -1.1946  2.4510
  370SOL    MW4 1214   4.326   3.809   1.957 -0.0050  0.2462  0.4272
  371SOL     OW 1215   4.617   4.389   5.942  0.4227  0.0433 -0.4892
  371SOL    HW2 1216   4.709   4.392   5.968  0.8181 -3.5080 -0.9511
  371SOL    HW3 1217   4.618   4.373   5.848 -0.6653 -0.1126 -0.4923
  371SOL    MW4 1218   4.629   4.387   5.933 -0.1480 -0.4852  0.5318
  372SOL     OW 1219   1.498   2.514   4.524  0.5203  0.1918 -0.2484
  372SOL    HW2 1220   1.494   2.465   4.441 -0.7075  0.3842 -0.3190
  372SOL    HW3 1221   1.478   2.448   4.591 -0.5212  0.4503 -0.2912
  372SOL    MW4 1222   1.495   2.499   4.522 -0.1203  0.4566  0.0808
  373SOL     OW 1223   3.795   6.179   4.379  0.4590  0.0452  0.2299
  373SOL    HW2 1224   3.717   6.214   4.335  0.4324  1.0580  1.0488
  373SOL    HW3 1225   3.833   6.119   4.315 -0.6269  0.0340 -0.4399
  373SOL    MW4 1226   3.789   6.176   4.365  0.5661  0.2980 -0.0178
  374SOL     OW 1227   6.081   4.364   2.298  0.2330 -0.1354 -0.6579
  374SOL    HW2 1228   5.998   4.405   2.272 -0.9432 -0.7823  1.7498
  374SOL    HW3 1229   6.107   4.411   2.378  1.6114 -0.6885 -0.7506
  374SOL    MW4 1230   6.074   4.376   2.305 -0.6221  0.1523 -0.0685
  375SOL     OW 1231   6.376   3.034   5.715  0.7056 -0.1106  0.6952
  375SOL    HW2 1232   6.442   3.064   5.778 -0.0059 -2.2641  2.6163
  375SOL    HW3 1233   6.405   2.946   5.690  0.4454  0.3208 -1.3161
  375SOL    MW4 1234   6.388   3.026   5.720 -0.1594 -0.3902  0.1070
  376SOL     OW 1235   3.394   5.371   1.345  0.3050 -0.8391  0.1476
  376SOL    HW2 1236   3.442   5.418   1.276 -0.5031 -0.0477  0.0965
  376SOL    HW3 1237   3.460   5.349   1.410  0.8008 -0.0728 -0.0807
  376SOL    MW4 1238   3.409   5.375   1.344 -0.2658 -0.2917 -0.1758
  377SOL     OW 1239   5.267   1.228   1.961  0.0749 -0.2608  0.3148
  377SOL    HW2 1240   5.302   1.280   1.888  0.8208  1.1477  1.6059
  377SOL    HW3 1241   5.196   1.282   1.996  0.5856 -0.2780  1.4189
  377SOL    MW4 1242   5.262   1.242   1.956  0.2920  0.1860 -0.2377
  378SOL     OW 1243   2.828   3.357   3.952  0.1563  0.1779  0.0517
  378SOL    HW2 1244   2.755   3.411   3.922  0.6081  0.8546  0.1491
  378SOL    HW3 1245   2.826   3.365   4.048 -2.0657 -2.9762  0.4489
  378SOL    MW4 1246   2.818   3.365   3.961 -0.0267 -0.1518  0.3485
  379SOL     OW 1247   0.884   0.379   3.811 -0.2864 -0.3607  0.2179
  379SOL    HW2 1248   0.852   0.313   3.873  0.7016  0.1952  1.3549
  379SOL    HW3 1249   0.877   0.462   3.858  2.2655 -0.1488  0.3745
  379SOL    MW4 1250   0.879   0.381   3.825 -0.0574  0.2108 -0.0872
  380SOL     OW 1251   5.291   1.971   1.526  0.1568  0.1977 -0.3080
  380SOL    HW2 1252   5.240   2.001   1.452 -2.0977  0.4452  1.2611
  380SOL    HW3 1253   5.362   2.035   1.534  0.7695 -0.1286 -2.5062
  380SOL    MW4 1254   5.294   1.983   1.518  0.6146 -0.0851  0.7841
  381SOL     OW 1255   6.312   2.974   1.244 -0.0552 -0.4220 -0.0245
  381SOL    HW2 1256   6.249   2.908   1.275 -0.7983  0.4593  0.3775
  381SOL    HW3 1257   6.314   2.963   1.149 -2.5031  0.9650 -0.3102
  381SOL    MW4 1258   6.304   2.964   1.236  0.0482 -0.1170  0.7316
  382SOL     OW 1259   0.744   0.297   2.011  0.4888 -0.2158 -0.1898
  382SOL    HW2 1260   0.662   0.328   2.051  0.9989  0.5125  0.3296
  382SOL    HW3 1261   0.724   0.291   1.917 -0.0391  0.3738 -0.1232
  382SOL    MW4 1262   0.730   0.301   2.004 -0.1860  0.2266  0.4612
  383SOL     OW 1263   2.765   0.248   6.235 -0.0757 -0.2909 -0.1043
  383SOL    HW2 1264   2.711   0.182   6.191  0.7730 -1.0755 -0.0018
  383SOL    HW3 1265   2.716   0.330   6.225 -0.6780 -0.7482 -1.0950
  383SOL    MW4 1266   2.751   0.250   6.228  0.0314  0.4310  0.6073
  384SOL     OW 1267   1.141   3.192   5.087  0.4504  0.0858  0.4045
  384SOL    HW2 1268   1.059   3.155   5.054  0.6134  1.2922 -1.5213
  384SOL    HW3 1269   1.207   3.127   5.063  0.0650 -1.1310  2.4096
  384SOL    MW4 1270   1.139   3.179   5.080 -0.1457  0.5190  0.7847
  385SOL     OW 1271   2.002   5.279   4.162 -0.4236 -0.1183  0.4259
  385SOL    HW2 1272   2.004   5.196   4.211 -1.6820  0.3082  1.2392
  385SOL    HW3 1273   2.061   5.336   4.211  1.6748 -0.9246 -0.9894
  385SOL    MW4 1274   2.010   5.275   4.175 -0.0737 -0.6541  0.1235
  386SOL     OW 1275   4.302   2.036   3.559 -0.0841  0.1060 -0.2281
  386SOL    HW2 1276   4.248   2.037   3.480 -0.5984 -1.2569  0.0630
  386SOL    HW3 1277   4.391   2.054   3.529 -0.3253 -0.0838 -1.0773
  386SOL    MW4 1278   4.306   2.038   3.545  0.7665 -0.2256 -0.1379
  387SOL     OW 1279   5.337   3.896   1.886  0.2188  0.7960  0.3665
  387SOL    HW2 1280   5.409   3.897   1.824 -0.2543  0.3784 -0.1984
  387SOL    HW3 1281   5.375   3.864   1.968  0.3452 -0.9471 -0.3419
  387SOL    MW4 1282   5.351   3.892   1.889  0.3646  0.4373 -0.4677
  388SOL     OW 1283   0.468   0.961   4.043 -0.1762  0.0678 -0.2743
  388SOL    HW2 1284   0.517   1.029   4.089 -0.8542  0.2428  0.1939
  388SOL    HW3 1285   0.506   0.959   3.955 -1.0646  2.0323 -0.7456
  388SOL    MW4 1286   0.479   0.969   4.037  0.6372  0.3460  0.6464
  389SOL     OW 1287   2.303   3.927   4.670  0.3788 -0.5288 -0.4830
  389SOL    HW2 1288   2.295   3.846   4.619  0.7149 -1.6952  1.2555
  389SOL    HW3 1289   2.220   3.973   4.656 -0.5904 -2.0681 -0.0245
  389SOL    MW4 1290   2.291   3.923   4.661 -0.0085 -0.1920  0.8443
  390SOL     OW 1291   5.474   0.961   5.107 -0.4014 -0.7561 -0.2413
  390SOL    HW2 1292   5.551   1.007   5.138 -1.5431 -0.2994  2.1878
  390SOL    HW3 1293   5.508   0.891   5.052  1.7041 -0.2463  0.3362
  390SOL    MW4 1294   5.489   0.958   5.104  0.5217 -0.1493  0.5491
  391SOL     OW 1295   3.947   4.662   4.967  0.3745 -0.4589 -0.2729
  391SOL    HW2 1296   3.881   4.594   4.982  1.1325 -1.5763 -1.7202
  391SOL    HW3 1297   3.896   4.743   4.963 -0.5250 -0.8471  1.7770
  391SOL    MW4 1298   3.931   4.663   4.969 -0.7936 -0.2730  0.2658
  392SOL     OW 1299   3.698   4.662   5.743  0.0349  0.4347  0.7816
  392SOL    HW2 1300   3.672   4.618   5.825  0.1117 -1.8194 -0.3239
  392SOL    HW3 1301   3.624   4.718   5.721 -0.2612  0.5691  2.0422
  392SOL    MW4 1302   3.685   4.663   5.751  0.3508  0.1624  0.1616
  393SOL     OW 1303   0.778   3.904   0.145 -0.4446 -0.3002  0.7703
  393SOL    HW2 1304   0.830   3.921   0.224 -0.6368  1.0630  0.6135
  393SOL    HW3 1305   0.690   3.883   0.179 -0.6539  0.7628  0.9190
  393SOL    MW4 1306   0.773   3.903   0.160 -0.2659 -0.8756 -0.2794
  394SOL     OW 1307   2.537   2.643   2.235  0.6764 -0.5121 -0.0446
  394SOL    HW2 1308   2.539   2.548   2.221  0.9861 -0.5640  0.3451
  394SOL    HW3 1309   2.528   2.679   2.147 -2.0323 -0.9724 -0.0527
  394SOL    MW4 1310   2.536   2.635   2.222 -0.0746 -0.3531 -0.1577
  395SOL     OW 1311   5.924   2.190   2.488 -0.4296  0.1923 -0.1656
  395SOL    HW2 1312   5.866   2.244   2.433  0.0391  2.1738  1.1817
  395SOL    HW3 1313   6.007   2.237   2.489  0.3961 -1.2167  0.1053
  395SOL    MW4 1314   5.927   2.204   2.481  0.1268 -0.6017 -0.0033
  396SOL     OW 1315   2.749   5.424   2.092  0.5872  0.1401  0.4705
  396SOL    HW2 1316   2.764   5.345   2.039 -0.8827 -0.1151  0.3787
  396SOL    HW3 1317   2.836   5.449   2.123  0.9477 -2.4220  1.7917
  396SOL    MW4 1318   2.762   5.417   2.089  0.3652 -0.1705 -0.0490
  397SOL     OW 1319   6.172   5.068   5.330  0.3344  0.4047  0.2263
  397SOL    HW2 1320   6.182   4.975   5.308  0.4377  0.2977  0.7237
  397SOL    HW3 1321   6.261   5.100   5.343  0.2209 -0.0359  2.5260
  397SOL    MW4 1322   6.185   5.060   5.329 -0.4131 -0.6976  0.9195
  398SOL     OW 1323   4.235   5.339   0.223  0.4150 -0.2162 -0.5350
  398SOL    HW2 1324   4.179   5.291   0.161 -0.2805  0.4536 -0.4359
  398SOL    HW3 1325   4.257   5.420   0.177 -0.4715  0.4869  0.2584
  398SOL    MW4 1326   4.231   5.343   0.209 -0.1815 -0.2620 -0.7911
  399SOL     OW 1327   3.353   5.375   1.815  0.7270  0.1954 -0.7092
  399SOL    HW2 1328   3.340   5.283   1.792 -1.0981 -0.4932  2.5999
  399SOL    HW3 1329   3.408   5.373   1.893 -2.4073  1.5287  1.7451
  399SOL    MW4 1330   3.359   5.363   1.822  0.4019 -0.4254  0.0331
  400SOL     OW 1331   0.012   5.061   0.832  0.2226  0.0933 -0.3486
  400SOL    HW2 1332   0.092   5.113   0.841  0.2561  0.0573 -0.4400
  400SOL    HW3 1333  -0.059   5.122   0.855  0.3714 -0.2672  1.1754
  400SOL    MW4 1334   0.013   5.076   0.836  0.4337 -0.1982 -0.1476
  401SOL     OW 1335   5.818   6.177   0.493 -0.1560 -0.1127 -0.3554
  401SOL    HW2 1336   5.872   6.124   0.434  0.5854  0.5665 -0.3013
  401SOL    HW3 1337   5.732   6.135   0.491 -0.0567 -0.3008 -1.6755
  401SOL    MW4 1338   5.814   6.165   0.485 -0.2332  0.2886 -0.3800
  402SOL     OW 1339   4.759   1.192   3.741  0.1770 -0.1744  0.1540
  402SOL    HW2 1340   4.697   1.259   3.768  0.6021  0.5718 -0.6607
  402SOL    HW3 1341   4.757   1.195   3.645  1.4440 -0.1507  0.1106
  402SOL    MW4 1342   4.751   1.201   3.732 -0.1975 -0.0809  0.0762
  403SOL     OW 1343   3.517   6.411   0.380  0.2752 -0.0170 -0.4994
  403SOL    HW2 1344   3.540   6.415   0.287 -1.3944  0.7263 -0.9080
  403SOL    HW3 1345   3.564   6.334   0.413 -0.4899 -1.3559 -2.3632
  403SOL    MW4 1346   3.526   6.401   0.373 -0.1867 -0.3114 -0.6319
  404SOL     OW 1347   6.441   4.620   5.652  0.6838  0.5477  0.1343
  404SOL    HW2 1348   6.391   4.607   5.733 -1.0363 -0.0021 -0.9682
  404SOL    HW3 1349   6.461   4.532   5.621 -1.4189  0.5836 -1.6092
  404SOL    MW4 1350   6.437   4.607   5.659  0.2961 -0.6026 -0.1186
  405SOL     OW 1351   0.388   2.959   3.591  0.0991 -0.0843  0.1038
  405SOL    HW2 1352   0.466   2.936   3.641 -0.8856  2.1859  2.9316
  405SOL    HW3 1353   0.418   3.022   3.526  0.7768 -0.0378  0.4543
  405SOL    MW4 1354   0.402   2.964   3.589  0.2119  0.4426 -0.1274
  406SOL     OW 1355   0.064   1.591   3.401 -0.0370 -0.0802 -0.3272
  406SOL    HW2 1356   0.013   1.589   3.482  0.1015  0.8699 -0.1994
  406SOL    HW3 1357   0.035   1.514   3.352 -1.8011  0.5626 -0.3759
  406SOL    MW4 1358   0.053   1.581   3.405 -0.3549  0.1997  0.6094
  407SOL     OW 1359   1.155   1.656   4.722  0.2725  0.3723 -0.0277
  407SOL    HW2 1360   1.059   1.661   4.718  0.3278  0.9490 -2.2479
  407SOL    HW3 1361   1.176   1.574   4.677  0.8112 -0.4087  1.5886
  407SOL    MW4 1362   1.145   1.646   4.715  0.2921 -0.4979 -0.1000
  408SOL     OW 1363   3.413   0.486   0.832 -0.1876  0.6350 -0.2007
  408SOL    HW2 1364   3.341   0.487   0.896  0.9958  2.7524  1.2287
  408SOL    HW3 1365   3.474   0.552   0.865  1.6837 -0.0079 -2.2122
  408SOL    MW4 1366   3.411   0.495   0.845 -0.1039 -0.3823  1.1074
  409SOL     OW 1367   4.000   0.226   1.255  0.1349 -0.1142 -0.7298
  409SOL    HW2 1368   3.908   0.249   1.267  0.4605  0.6318  0.4274
  409SOL    HW3 1369   3.999   0.165   1.181 -1.5048 -1.5828  0.4013
  409SOL    MW4 1370   3.987   0.221   1.247 -0.2258  0.4087  0.0785
  410SOL     OW 1371   2.554   0.038   3.676  0.0862 -0.2013 -0.2115
  410SOL    HW2 1372   2.484   0.080   3.726  2.2067  0.6849  2.2434
  410SOL    HW3 1373   2.553   0.081   3.591 -2.2074 -0.1386 -0.2189
  410SOL    MW4 1374   2.545   0.049   3.672 -0.4152  0.1369 -0.1456
  411SOL     OW 1375   0.711   1.350   1.668  1.1126  0.0435  0.3034
  411SOL    HW2 1376   0.806   1.363   1.676  1.3372  0.5069 -2.3257
  411SOL    HW3 1377   0.702   1.267   1.622  0.3545  1.1142 -1.5451
  411SOL    MW4 1378   0.723   1.341   1.663  0.0188  0.3713 -0.2977
  412SOL     OW 1379   2.851   5.465   6.115 -0.3825 -0.1515 -0.2737
  412SOL    HW2 1380   2.764   5.437   6.085 -1.8780  3.3432  0.1742
  412SOL    HW3 1381   2.832   5.524   6.188  2.4167  0.4290  0.0869
  412SOL    MW4 1382   2.837   5.469   6.121 -0.0234  0.0858  0.4045
  413SOL     OW 1383   5.043   4.875   2.150 -0.5267 -0.7857  0.5925
  413SOL    HW2 1384   5.091   4.803   2.191  0.5609 -1.3565 -1.5628
  413SOL    HW3 1385   5.038   4.851   2.058 -2.6033  0.6030  0.2710
  413SOL    MW4 1386   5.049   4.862   2.143  0.1476  0.0829 -0.0942
  414SOL     OW 1387   6.029   5.554   2.496  0.9555 -0.1627  0.2453
  414SOL    HW2 1388   6.016   5.469   2.538 -0.5270 -0.0707  0.0144
  414SOL    HW3 1389   6.118   5.550   2.461  0.6129 -1.9533 -0.5017
  414SOL    MW4 1390   6.039   5.542   2.497 -0.0086 -0.0552  0.0211
  415SOL     OW 1391   2.833   6.285   6.233  0.5614 -0.2223 -0.3429
  415SOL    HW2 1392   2.924   6.315   6.239  0.9064 -1.5026  2.2098
  415SOL    HW3 1393   2.837   6.208   6.177  0.6511  0.9544 -2.0070
  415SOL    MW4 1394   2.846   6.278   6.227 -0.3024 -0.0296  0.7119
  416SOL     OW 1395   1.285   1.953   4.431 -0.0251  0.2781 -0.1469
  416SOL    HW2 1396   1.325   1.893   4.369  0.1745  0.3968 -0.1325
  416SOL    HW3 1397   1.321   1.928   4.516  0.7033  0.9496 -0.2432
  416SOL    MW4 1398   1.295   1.942   4.434 -0.1714 -0.0376 -0.3425
  417SOL     OW 1399   1.456   0.017   3.725 -0.0589  0.0143 -0.2392
  417SOL    HW2 1400   1.504   0.096   3.749  0.6241 -0.6179  0.5752
  417SOL    HW3 1401   1.467   0.010   3.630  2.8553 -0.9210  0.0478
  417SOL    MW4 1402   1.464   0.026   3.716  0.6130  0.4725  0.6215
  418SOL     OW 1403   4.038   5.113   4.376  0.0304 -0.5148 -0.0256
  418SOL    HW2 1404   4.124   5.084   4.406 -0.1620 -4.1261 -2.2954
  418SOL    HW3 1405   4.052   5.202   4.344  3.1946 -1.3199 -1.2185
  418SOL    MW4 1406   4.051   5.121   4.376  0.0895  0.3609 -0.2116
  419SOL     OW 1407   5.600   0.098   4.871  0.4465  0.2627  0.4596
  419SOL    HW2 1408   5.664   0.068   4.806  2.0891  1.6821  1.3594
  419SOL    HW3 1409   5.645   0.091   4.955 -1.2654 -0.4971  1.3631
  419SOL    MW4 1410   5.614   0.093   4.873  0.2889  0.1476 -0.1616
  420SOL     OW 1411   4.641   6.348   5.131  0.0641  0.1981 -0.0407
  420SOL    HW2 1412   4.717   6.405   5.137 -0.2975  0.5319  2.1691
  420SOL    HW3 1413   4.667   6.267   5.175 -0.9617  0.4884  1.1638
  420SOL    MW4 1414   4.654   6.344   5.137  0.0917  0.4616 -0.7869
  421SOL     OW 1415   4.107   2.046   3.344  0.0973 -0.3564 -0.1887
  421SOL    HW2 1416   4.168   2.033   3.272 -0.1324 -0.9833 -0.2748
  421SOL    HW3 1417   4.024   2.069   3.302  0.1528  0.0232 -0.0926
  421SOL    MW4 1418   4.104   2.047   3.329  0.1162  0.0776  0.6588
  422SOL     OW 1419   3.543   2.016   2.227  0.6970 -0.0990 -0.5815
  422SOL    HW2 1420   3.634   2.039   2.213  0.9735  0.4223  1.6043
  422SOL    HW3 1421   3.521   2.056   2.312 -0.6951 -2.6006  0.3640
  422SOL    MW4 1422   3.552   2.024   2.236 -0.4846 -0.5068  0.3573
  423SOL     OW 1423   3.613   4.782   0.028  0.1728 -0.1383 -0.1143
  423SOL    HW2 1424   3.588   4.873   0.037 -0.6955 -0.3985  0.1575
  423SOL    HW3 1425   3.709   4.784   0.023  0.1079  0.9410 -1.9656
  423SOL    MW4 1426   3.622   4.794   0.028 -0.7124  0.2288  0.5271
  424SOL     OW 1427   1.583   3.512   0.193 -0.5958 -0.0160 -0.2110
  424SOL    HW2 1428   1.536   3.540   0.272  0.3099 -0.3733  0.4789
  424SOL    HW3 1429   1.644   3.445   0.224 -3.1099 -3.3738 -1.8563
  424SOL    MW4 1430   1.585   3.507   0.208 -0.6099  0.1286  0.2359
  425SOL     OW 1431   4.167   3.971   5.931  0.1040 -0.0214  0.2154
  425SOL    HW2 1432   4.176   4.040   5.865  0.4178  1.0544  1.3521
  425SOL    HW3 1433   4.073   3.961   5.943  0.0550  1.3173  1.1431
  425SOL    MW4 1434   4.156   3.979   5.924  0.3343  0.2136 -0.4110
  426SOL     OW 1435   0.188   6.228   2.517 -0.7504 -0.1659  0.4664
  426SOL    HW2 1436   0.261   6.229   2.578  0.3201  1.3126 -0.7600
  426SOL    HW3 1437   0.188   6.140   2.479  1.8552  0.4313 -1.1382
  426SOL    MW4 1438   0.197   6.216   2.520  0.0095  0.0324  0.3452
  427SOL     OW 1439   1.282   4.036   1.824 -0.1958  0.0686  0.6632
  427SOL    HW2 1440   1.268   3.990   1.741  0.0357  1.0089  0.0866
  427SOL    HW3 1441   1.198   4.028   1.870 -0.4698 -0.0943  0.1477
  427SOL    MW4 1442   1.269   4.029   1.819 -0.3395  0.0403  0.3394
  428SOL     OW 1443   1.930   6.183   3.601  0.5620 -0.3833  0.6130
  428SOL    HW2 1444   1.916   6.090   3.588  0.2009 -0.2647  0.1165
  428SOL    HW3 1445   1.884   6.225   3.528 -1.8633  0.3490  2.4345
  428SOL    MW4 1446   1.922   6.177   3.590 -0.1775  0.4107  0.3755
  429SOL     OW 1447   0.039   3.957   0.502  0.1962  0.1307  0.0186
  429SOL    HW2 1448  -0.027   3.999   0.447  0.3001 -1.1079 -1.1259
  429SOL    HW3 1449   0.111   3.937   0.441  1.2870  0.7024  1.0658
  429SOL    MW4 1450   0.040   3.960   0.486  0.0636 -0.1920 -0.1514
  430SOL     OW 1451   0.164   1.668   2.502  0.4133  0.4032  0.4813
  430SOL    HW2 1452   0.074   1.701   2.503 -0.1069 -0.9320  0.1153
  430SOL    HW3 1453   0.210   1.725   2.440 -0.2369  0.9371  0.4790
  430SOL    MW4 1454   0.158   1.680   2.494 -0.3796 -0.1674 -0.3223
  431SOL     OW 1455   6.345   4.351   6.028 -0.2064 -0.1559 -0.0164
  431SOL    HW2 1456   6.359   4.258   6.047 -0.3754 -0.4367 -1.2245
  431SOL    HW3 1457   6.431   4.391   6.038 -0.0306 -0.5348 -0.0275
  431SOL    MW4 1458   6.358   4.344   6.032 -0.0732 -0.5582 -0.0778
  432SOL     OW 1459   5.118   1.588   6.059 -0.5365 -0.3581 -0.3210
  432SOL    HW2 1460   5.119   1.526   6.133 -2.4025 -1.1097 -0.8756
  432SOL    HW3 1461   5.049   1.650   6.081 -2.5496 -1.7594 -2.2776
  432SOL    MW4 1462   5.109   1.588   6.072  0.7795  0.3444  0.9815
  433SOL     OW 1463   0.634   0.763   0.517 -0.5238 -0.1631  0.6342
  433SOL    HW2 1464   0.645   0.669   0.530  0.5963 -0.1885 -0.3616
  433SOL    HW3 1465   0.660   0.779   0.426  1.5947  1.4244  1.4211
  433SOL    MW4 1466   0.639   0.753   0.507  0.1957 -0.1887  0.1918
  434SOL     OW 1467   1.679   0.193   5.358  0.4686 -0.8638  0.1675
  434SOL    HW2 1468   1.690   0.233   5.272 -0.4974 -1.1970 -0.1236
  434SOL    HW3 1469   1.664   0.100   5.340 -2.1469 -0.5714  0.5067
  434SOL    MW4 1470   1.678   0.186   5.344 -0.0491  0.6023 -0.6819
  435SOL     OW 1471   5.504   2.222   0.584  0.5615 -0.2974 -0.2976
  435SOL    HW2 1472   5.506   2.313   0.613  1.2604 -0.4323  0.1075
  435SOL    HW3 1473   5.532   2.171   0.661  0.3774 -0.8370 -0.5791
  435SOL    MW4 1474   5.508   2.227   0.598 -0.0953 -0.3812  0.1085
  436SOL     OW 1475   3.839   1.520   3.486 -0.3935  0.1865  0.4517
  436SOL    HW2 1476   3.875   1.442   3.445 -1.2026  0.6363 -1.1821
  436SOL    HW3 1477   3.906   1.588   3.473 -1.1930  0.6803 -1.4152
  436SOL    MW4 1478   3.853   1.519   3.479 -0.1188  0.1231 -0.8708
  437SOL     OW 1479   2.593   4.189   6.249  0.0350 -0.1381  0.0559
  437SOL    HW2 1480   2.672   4.208   6.199 -0.6923 -0.7679 -1.3894
  437SOL    HW3 1481   2.612   4.107   6.295  0.6741  0.3927  0.7546
  437SOL    MW4 1482   2.606   4.181   6.249 -0.2655 -0.1896 -0.3344
  438SOL     OW 1483   1.676   2.469   2.116 -0.1996  0.4972  0.4709
  438SOL    HW2 1484   1.626   2.520   2.179 -3.6389 -1.5652 -0.3528
  438SOL    HW3 1485   1.670   2.518   2.035  1.0390  1.2790  0.8122
  438SOL    MW4 1486   1.669   2.482   2.114  0.0932  0.2202 -1.4188
  439SOL     OW 1487   2.043   4.816   0.890 -0.4016  0.2146  0.8245
  439SOL    HW2 1488   2.048   4.833   0.984 -2.2606  1.9818  0.6611
  439SOL    HW3 1489   1.953   4.785   0.876  0.1811 -1.0975 -0.2550
  439SOL    MW4 1490   2.032   4.814   0.901  0.1612  0.1794  0.8803
  440SOL     OW 1491   4.416   0.700   2.134  0.3561  0.6038 -0.1264
  440SOL    HW2 1492   4.360   0.763   2.090  0.5054  2.6977  2.4113
  440SOL    HW3 1493   4.505   0.731   2.118  0.5837 -0.3320 -0.7491
  440SOL    MW4 1494   4.420   0.712   2.126  0.2604 -0.7291 -0.4362
  441SOL     OW 1495   2.366   4.238   5.612 -0.3720  0.0742  0.0568
  441SOL    HW2 1496   2.320   4.289   5.679 -1.3272 -1.5953  0.7386
  441SOL    HW3 1497   2.349   4.147   5.635  0.7855 -0.5753 -1.4478
  441SOL    MW4 1498   2.358   4.233   5.624  0.2774  0.2724  0.4410
  442SOL     OW 1499   6.118   0.154   1.149 -0.0674 -0.2167 -0.1604
  442SOL    HW2 1500   6.032   0.193   1.136 -0.6822 -2.0479 -1.9775
  442SOL    HW3 1501   6.105   0.060   1.136  2.2717 -0.5033 -0.8758
  442SOL    MW4 1502   6.105   0.147   1.146  0.1510 -0.4004  0.1045
  443SOL     OW 1503   3.210   2.284   3.202  0.2508 -0.1641  0.1571
  443SOL    HW2 1504   3.149   2.351   3.172  0.2215 -0.3868 -0.2888
  443SOL    HW3 1505   3.266   2.329   3.265  0.5227  0.4118 -0.4719
  443SOL    MW4 1506   3.210   2.299   3.206  0.1933  0.0884 -0.1324
  444SOL     OW 1507   1.938   2.365   3.763 -0.0320 -0.7167  0.3877
  444SOL    HW2 1508   1.887   2.287   3.745  0.6798 -0.7572 -1.7737
  444SOL    HW3 1509   2.014   2.333   3.812  1.6942 -1.9887 -2.7853
  444SOL    MW4 1510   1.941   2.351   3.767 -0.4336  0.0898  0.7122
  445SOL     OW 1511   2.552   6.165   1.236  0.2076 -0.5429 -0.0846
  445SOL    HW2 1512   2.523   6.080   1.268 -0.0629 -0.6964 -0.7206
  445SOL    HW3 1513   2.615   6.195   1.301  0.0362 -1.0639  0.3300
  445SOL    MW4 1514   2.556   6.158   1.249  0.2958 -0.0084  0.0575
  446SOL     OW 1515   3.865   2.039   4.275  0.3543  0.1952 -0.4769
  446SOL    HW2 1516   3.868   2.046   4.371 -0.9304 -2.3983 -0.1682
  446SOL    HW3 1517   3.955   2.018   4.250  0.6741  0.7633  0.1516
  446SOL    MW4 1518   3.877   2.037   4.284 -0.3055  0.0298  0.0398
  447SOL     OW 1519   1.368   1.581   1.932  0.0481  0.4058  0.2881
  447SOL    HW2 1520   1.375   1.544   2.020 -1.4076  2.0675  1.1792
  447SOL    HW3 1521   1.399   1.512   1.874 -1.4173 -1.7451  1.9059
  447SOL    MW4 1522   1.373   1.567   1.936 -0.7638  0.1866 -0.0774
  448SOL     OW 1523   3.244   5.406   2.128  0.1859 -0.2988  0.1174
  448SOL    HW2 1524   3.173   5.470   2.137 -0.5488 -0.9589 -0.8034
  448SOL    HW3 1525   3.204   5.332   2.082  1.6604 -0.3849 -1.0928
  448SOL    MW4 1526   3.229   5.404   2.123  0.0227  0.7143  0.0599
  449SOL     OW 1527   5.244   5.487   0.343  0.4615  0.4085 -0.2315
  449SOL    HW2 1528   5.196   5.553   0.294 -0.2338 -0.2439 -0.4520
  449SOL    HW3 1529   5.333   5.490   0.308  1.0213  2.6491  1.1887
  449SOL    MW4 1530   5.250   5.496   0.332 -0.7662  0.4008  0.3154
  450SOL     OW 1531   5.870   6.334   1.274  0.5918  0.4585 -0.3764
  450SOL    HW2 1532   5.808   6.269   1.240 -0.8963  0.7757  1.5407
  450SOL    HW3 1533   5.829   6.419   1.255  1.6977  0.8103 -1.3263
  450SOL    MW4 1534   5.856   6.337   1.267 -0.2218  0.0866  0.7646
  451SOL     OW 1535   0.413   0.498   3.966 -0.2457 -0.4249  0.2526
  451SOL    HW2 1536   0.467   0.516   3.889 -0.2233 -0.9708  0.1419
  451SOL    HW3 1537   0.419   0.404   3.979 -1.5843 -0.5782 -0.0799
  451SOL    MW4 1538   0.421   0.488   3.957 -0.1695 -0.2619 -0.3821
  452SOL     OW 1539   0.310   2.477   0.398  0.0292 -0.1194 -0.0847
  452SOL    HW2 1540   0.324   2.405   0.460 -1.2423 -1.0718 -0.8519
  452SOL    HW3 1541   0.221   2.506   0.416  0.1669  0.5725 -0.5073
  452SOL    MW4 1542   0.300   2.471   0.409 -0.1676 -1.3216  0.5904
  453SOL     OW 1543   0.124   2.221   4.904  0.2414  0.0175 -0.3006
  453SOL    HW2 1544   0.126   2.304   4.856  0.3816 -0.4585 -1.1301
  453SOL    HW3 1545   0.189   2.233   4.974  0.1412  0.6649 -0.3084
  453SOL    MW4 1546   0.133   2.234   4.907  0.3385 -0.6195 -0.0471
  454SOL     OW 1547   3.918   0.668   1.966 -0.4653 -0.2836 -1.0478
  454SOL    HW2 1548   3.984   0.601   1.980 -0.7872 -0.7206 -1.5362
  454SOL    HW3 1549   3.953   0.722   1.895 -1.5121 -1.7742 -2.7955
  454SOL    MW4 1550   3.931   0.667   1.958 -0.2007  0.3301 -0.1455
  455SOL     OW 1551   4.290   5.293   4.968 -0.4950  0.2311 -0.0417
  455SOL    HW2 1552   4.289   5.346   4.888 -0.3845 -0.8212 -0.7529
  455SOL    HW3 1553   4.298   5.357   5.039  1.5829  1.0966 -0.9746
  455SOL    MW4 1554   4.291   5.309   4.967  0.1333  0.1066  0.5248
  456SOL     OW 1555   0.594   0.270   6.274  0.3054 -0.1666 -0.2777
  456SOL    HW2 1556   0.636   0.217   6.206 -1.7479  1.7785 -3.3448
  456SOL    HW3 1557   0.502   0.244   6.271 -0.0666  0.9289  0.8349
  456SOL    MW4 1558   0.587   0.260   6.264 -0.0300 -0.4053 -0.1431
  457SOL     OW 1559   3.474   3.373   1.651 -0.0134 -0.5586 -0.8811
  457SOL    HW2 1560   3.466   3.453   1.598  3.4650 -0.6021 -1.7134
  457SOL    HW3 1561   3.519   3.401   1.730 -1.9980 -1.1526  0.5355
  457SOL    MW4 1562   3.479   3.387   1.655  0.8292  0.1414 -0.5786
  458SOL     OW 1563   2.230   1.055   4.841  0.1078  0.0182  0.0281
  458SOL    HW2 1564   2.285   1.087   4.912 -0.7535 -0.0549  0.7519
  458SOL    HW3 1565   2.154   1.113   4.841 -0.2865 -0.4839 -0.2948
  458SOL    MW4 1566   2.227   1.067   4.850 -0.2191 -0.3781  0.3828
  459SOL     OW 1567   5.848   1.108   6.067 -0.0617 -0.3845  0.1351
  459SOL    HW2 1568   5.874   1.146   6.151  0.7819 -0.3076 -0.1573
  459SOL    HW3 1569   5.764   1.066   6.085 -0.0491 -0.0810  0.9380
  459SOL    MW4 1570   5.840   1.108   6.080 -0.3099  0.2162 -0.2868
  460SOL     OW 1571   4.829   3.740   2.621  0.0027  0.1816  0.1411
  460SOL    HW2 1572   4.804   3.819   2.669 -3.2561 -1.0540  0.7498
  460SOL    HW3 1573   4.804   3.758   2.530 -1.9342 -0.4879  0.4873
  460SOL    MW4 1574   4.823   3.752   2.615 -0.2232 -0.8073  0.2474
  461SOL     OW 1575   1.398   3.725   5.864 -0.3734 -0.4428  0.1348
  461SOL    HW2 1576   1.349   3.806   5.852 -0.9921 -0.8924 -0.4786
  461SOL    HW3 1577   1.359   3.683   5.940  0.8866  0.4876  1.3501
  461SOL    MW4 1578   1.387   3.730   5.872 -0.1383  0.2696  0.1431
  462SOL     OW 1579   4.989   1.413   3.657  0.1958  0.1575 -0.7745
  462SOL    HW2 1580   5.011   1.406   3.564  0.3447 -1.9026 -0.6419
  462SOL    HW3 1581   4.901   1.375   3.664 -0.7797  2.3548 -0.3533
  462SOL    MW4 1582   4.980   1.407   3.646  0.1573 -0.1032 -0.8315
  463SOL     OW 1583   5.638   3.953   5.226  0.2488  0.5808  0.0925
  463SOL    HW2 1584   5.602   3.979   5.311 -1.5524  0.1470 -0.4799
  463SOL    HW3 1585   5.586   4.002   5.163  0.6500 -0.1117 -0.7943
  463SOL    MW4 1586   5.626   3.963   5.229 -0.2007 -0.0318  0.2597
  464SOL     OW 1587   1.465   1.765   2.534 -0.5253 -0.2202  0.4355
  464SOL    HW2 1588   1.422   1.753   2.449  0.1742 -0.7226  0.1327
  464SOL    HW3 1589   1.555   1.789   2.511  0.5246 -3.2166  0.9293
  464SOL    MW4 1590   1.471   1.766   2.519  0.0158  1.0014 -0.0833
  465SOL     OW 1591   3.579   5.311   5.646  0.1627  0.0583  0.4072
  465SOL    HW2 1592   3.535   5.389   5.610  1.1753  0.1433 -0.7165
  465SOL    HW3 1593   3.553   5.240   5.587  0.8339 -0.0545  0.2358
  465SOL    MW4 1594   3.570   5.312   5.633  0.1114 -0.2832 -0.2415
  466SOL     OW 1595   0.346   5.790   1.124 -0.1843 -0.0622 -0.5982
  466SOL    HW2 1596   0.291   5.800   1.202 -0.8356  0.1541 -1.0660
  466SOL    HW3 1597   0.289   5.818   1.052  0.8811  1.1855 -0.9903
  466SOL    MW4 1598   0.331   5.795   1.125  0.1809 -0.1393 -0.3841
  467SOL     OW 1599   0.512   3.607   5.664  0.0733  0.2350 -0.3017
  467SOL    HW2 1600   0.553   3.676   5.716  0.4100 -1.1894  1.4459
  467SOL    HW3 1601   0.585   3.557   5.628 -0.1615  1.2079 -2.2390
  467SOL    MW4 1602   0.527   3.609   5.666  0.2893  0.1124 -0.2315
  468SOL     OW 1603   5.108   3.004   5.151 -0.1462 -0.0218 -0.4373
  468SOL    HW2 1604   5.103   2.973   5.242 -2.0924 -1.5111 -0.9794
  468SOL    HW3 1605   5.192   2.971   5.119  0.8838  1.1039  0.9744
  468SOL    MW4 1606   5.118   2.995   5.159  0.7301 -0.4192  0.3182
  469SOL     OW 1607   4.378   4.830   2.758  0.3207  0.4855  0.4029
  469SOL    HW2 1608   4.299   4.845   2.811 -0.4140 -2.6700  0.3926
  469SOL    HW3 1609   4.444   4.804   2.822 -0.6649 -3.6935  0.0151
  469SOL    MW4 1610   4.376   4.829   2.774  0.3531  0.6569  0.2001
  470SOL     OW 1611   5.912   3.989   6.135 -0.5823  0.1694 -0.0504
  470SOL    HW2 1612   5.889   3.914   6.080  0.6188 -0.5187  0.3387
  470SOL    HW3 1613   5.886   4.066   6.084 -1.3377 -0.5018 -0.6912
  470SOL    MW4 1614   5.906   3.990   6.121  0.2630  0.5188  0.0986
  471SOL     OW 1615   5.560   2.383   3.086  0.7162 -0.1505 -0.2901
  471SOL    HW2 1616   5.635   2.440   3.103  1.1212 -0.4558 -1.0099
  471SOL    HW3 1617   5.547   2.388   2.991 -0.2906  0.0418 -0.1468
  471SOL    MW4 1618   5.568   2.391   3.076 -0.0487  0.8167 -0.1053
  472SOL     OW 1619   0.725   2.649   2.614  0.7284 -0.1722 -0.7192
  472SOL    HW2 1620   0.632   2.657   2.633 -0.1101 -3.7757 -2.4005
  472SOL    HW3 1621   0.760   2.596   2.686  1.1025 -0.2820 -0.9790
  472SOL    MW4 1622   0.718   2.643   2.626 -0.7378 -0.3048 -0.1642
  473SOL     OW 1623   4.407   6.007   4.348 -0.0576 -0.1099  0.0310
  473SOL    HW2 1624   4.485   5.988   4.296 -0.7571  0.5079 -1.2801
  473SOL    HW3 1625   4.334   5.994   4.288 -0.8775  0.9830  0.7441
  473SOL    MW4 1626   4.407   6.003   4.334 -0.0567 -0.4894 -0.2343
  474SOL     OW 1627   1.004   3.541   1.010  0.3721  0.3299 -0.1564
  474SOL    HW2 1628   0.954   3.605   0.960 -1.7047 -1.1684 -0.1093
  474SOL    HW3 1629   1.025   3.584   1.092  0.7776  1.6014 -0.8974
  474SOL    MW4 1630   1.000   3.555   1.014 -0.7007  0.2321  0.2571
  475SOL     OW 1631   5.382   4.685   1.573 -0.5027  0.4885  0.1546
  475SOL    HW2 1632   5.358   4.615   1.512 -1.1744  0.1942  0.7497
  475SOL    HW3 1633   5.321   4.677   1.645  0.3984  0.7154  0.9692
  475SOL    MW4 1634   5.371   4.675   1.574 -0.4316 -0.2851  0.0497
  476SOL     OW 1635   4.015   2.486   5.010 -0.3159  0.4234  0.1045
  476SOL    HW2 1636   4.090   2.544   5.021 -0.2083 -0.1125  2.6827
  476SOL    HW3 1637   3.955   2.536   4.953  1.8695  0.8930 -1.9362
  476SOL    MW4 1638   4.017   2.501   5.004 -0.0646 -0.0741 -0.1270
  477SOL     OW 1639   3.007   2.450   0.480 -0.4454 -0.2110  0.6130
  477SOL    HW2 1640   2.968   2.365   0.496 -0.0519  0.0532  3.4186
  477SOL    HW3 1641   2.999   2.497   0.563  0.1497  2.1816 -0.5740
  477SOL    MW4 1642   3.001   2.445   0.493 -0.2187 -0.2566 -0.4354
  478SOL     OW 1643   0.174   3.571   1.375 -0.1525  0.3707  0.1342
  478SOL    HW2 1644   0.181   3.484   1.336 -0.2496  0.5572 -0.3008
  478SOL    HW3 1645   0.138   3.555   1.462 -0.5898  0.0150 -0.1102
  478SOL    MW4 1646   0.170   3.557   1.381  0.3229  0.0098 -0.0599
  479SOL     OW 1647   0.199   6.380   0.911 -0.3983 -0.1814  0.2436
  479SOL    HW2 1648   0.236   6.467   0.928  0.9019 -0.0533 -2.6833
  479SOL    HW3 1649   0.254   6.320   0.961 -1.3438  0.6098  2.3424
  479SOL    MW4 1650   0.211   6.384   0.920  0.1839 -0.2880  0.3261
  480SOL     OW 1651   0.421   1.390   6.159 -0.1502 -0.4257  0.1040
  480SOL    HW2 1652   0.486   1.321   6.143 -0.6920 -1.5102  2.2095
  480SOL    HW3 1653   0.376   1.362   6.239 -2.7782  0.6404 -0.8983
  480SOL    MW4 1654   0.424   1.377   6.167  0.3428  0.1216  0.1037
  481SOL     OW 1655   4.185   2.417   1.998  0.1155  0.0815  0.0961
  481SOL    HW2 1656   4.238   2.377   2.067  0.1464  1.9352  1.2175
  481SOL    HW3 1657   4.241   2.484   1.960 -0.5844  0.4025 -0.3899
  481SOL    MW4 1658   4.199   2.420   2.002  0.2389  0.4234 -0.1805
  482SOL     OW 1659   4.549   4.973   3.593 -0.3055 -0.0855 -0.7017
  482SOL    HW2 1660   4.644   4.982   3.586 -0.2751 -0.3698 -0.6727
  482SOL    HW3 1661   4.519   5.059   3.624  0.0662 -0.3289  0.3988
  482SOL    MW4 1662   4.558   4.986   3.596 -0.1294 -0.3112  0.4032
  483SOL     OW 1663   2.103   0.865   1.829  0.1466  0.0313 -0.2605
  483SOL    HW2 1664   2.108   0.907   1.743 -0.6393  0.9579  0.1261
  483SOL    HW3 1665   2.110   0.937   1.891  0.3181 -0.5872  0.4479
  483SOL    MW4 1666   2.104   0.880   1.826 -0.1440 -0.2266 -0.3933
  484SOL     OW 1667   5.702   5.861   6.074  0.1759  0.2167 -0.1806
  484SOL    HW2 1668   5.792   5.872   6.045  0.1610  1.5540  0.2070
  484SOL    HW3 1669   5.708   5.807   6.153  0.5562 -0.2641 -0.5322
  484SOL    MW4 1670   5.714   5.855   6.081 -0.3283  0.3413  0.1166
  485SOL     OW 1671   0.234   5.734   1.969 -0.4863 -0.0833  0.4624
  485SOL    HW2 1672   0.231   5.829   1.961 -1.8316 -0.0617  0.9297
  485SOL    HW3 1673   0.195   5.715   2.054 -0.3726 -1.0564  0.3139
  485SOL    MW4 1674   0.229   5.744   1.979 -0.0345  0.0179  0.2491
  486SOL     OW 1675   1.023   5.606   1.708 -0.4414  0.0890  0.2549
  486SOL    HW2 1676   0.928   5.608   1.710 -0.5649  1.3212 -2.6381
  486SOL    HW3 1677   1.050   5.666   1.778 -1.7346 -0.5389  1.3267
  486SOL    MW4 1678   1.014   5.614   1.718 -0.1765 -0.0534 -0.2770
  487SOL     OW 1679   0.749   4.578   3.150  0.3738  0.6342 -0.6419
  487SOL    HW2 1680   0.771   4.586   3.243  0.3491  0.2383 -0.6002
  487SOL    HW3 1681   0.666   4.624   3.141  0.3665  0.6569 -0.4623
  487SOL    MW4 1682   0.741   4.585   3.161 -0.1235  0.4423 -0.2297
  488SOL     OW 1683   4.047   2.434   4.710  0.4834 -0.0300 -0.0170
  488SOL    HW2 1684   3.984   2.374   4.751  1.0387 -0.3142  0.4257
  488SOL    HW3 1685   4.114   2.448   4.777  0.9494  0.1868 -0.5264
  488SOL    MW4 1686   4.047   2.428   4.724 -1.0426 -0.3338 -0.4725
  489SOL     OW 1687   2.233   6.015   3.610 -0.4479 -0.3467 -0.5943
  489SOL    HW2 1688   2.268   6.080   3.549 -1.1433 -1.4374 -2.2461
  489SOL    HW3 1689   2.138   6.015   3.593 -0.6661 -0.6290  0.5518
  489SOL    MW4 1690   2.225   6.024   3.600  0.7205  0.2358  0.5564
  490SOL     OW 1691   3.508   0.673   5.023  0.6204 -0.1375  0.1971
  490SOL    HW2 1692   3.503   0.600   5.086  1.0727  0.2060  0.6392
  490SOL    HW3 1693   3.493   0.751   5.076 -1.0505  0.0241 -0.4793
  490SOL    MW4 1694   3.506   0.673   5.039 -0.0398 -0.1550  0.5830
  491SOL     OW 1695   4.697   2.644   6.168  0.4846  0.0886  0.1722
  491SOL    HW2 1696   4.659   2.724   6.132 -0.1777 -0.6336 -0.7936
  491SOL    HW3 1697   4.686   2.652   6.263 -0.8939  0.5007 -0.0023
  491SOL    MW4 1698   4.691   2.655   6.176  0.2471  0.0439 -0.3481
  492SOL     OW 1699   2.437   4.226   5.989 -0.7342  0.4333  0.1828
  492SOL    HW2 1700   2.452   4.316   5.959 -0.7559  0.4000  0.0700
  492SOL    HW3 1701   2.472   4.224   6.078  1.6294 -0.1165 -0.6563
  492SOL    MW4 1702   2.444   4.238   5.997 -0.4834 -0.3300 -0.3402
  493SOL     OW 1703   0.833   3.007   3.963 -0.1225 -0.3618  0.2313
  493SOL    HW2 1704   0.880   2.993   4.045  0.6724  0.9325  0.0267
  493SOL    HW3 1705   0.744   2.979   3.981 -0.5686  2.0031  2.3138
  493SOL    MW4 1706   0.828   3.002   3.976  0.1918  0.3422 -0.7276
  494SOL     OW 1707   0.798   2.414   1.929  0.0684 -0.0640 -0.1688
  494SOL    HW2 1708   0.748   2.336   1.954 -0.2526  0.5852  1.3756
  494SOL    HW3 1709   0.885   2.398   1.966  0.4372 -0.3249 -1.1364
  494SOL    MW4 1710   0.803   2.401   1.937  0.0176  0.6014  0.1844
  495SOL     OW 1711   1.741   3.684   1.127  0.0285  0.1405  0.3588
  495SOL    HW2 1712   1.781   3.745   1.066  0.7963  0.4719  1.1779
  495SOL    HW3 1713   1.792   3.603   1.118 -0.4487 -0.1198 -0.1014
  495SOL    MW4 1714   1.753   3.681   1.118 -0.0624 -0.3702  0.8195
  496SOL     OW 1715   3.619   1.164   0.470  0.7346 -0.5103  0.7052
  496SOL    HW2 1716   3.563   1.088   0.489 -0.1515 -0.0089  0.2109
  496SOL    HW3 1717   3.649   1.150   0.381  1.6414 -0.9148  1.0674
  496SOL    MW4 1718   3.615   1.152   0.461 -0.0314 -0.1349  0.0308
  497SOL     OW 1719   3.799   0.254   0.058  0.2062  0.0497  0.8349
  497SOL    HW2 1720   3.785   0.322  -0.007 -0.3656 -0.2701  0.6244
  497SOL    HW3 1721   3.895   0.247   0.065  0.2951  1.5496  1.5706
  497SOL    MW4 1722   3.810   0.262   0.051 -0.0455  0.1165 -0.0218
  498SOL     OW 1723   3.639   2.501   0.656 -0.0392  0.2875 -0.1950
  498SOL    HW2 1724   3.654   2.451   0.737 -0.6274 -2.0154 -1.4018
  498SOL    HW3 1725   3.563   2.555   0.675 -2.1002 -2.4288 -0.0025
  498SOL    MW4 1726   3.631   2.501   0.669 -0.0598 -0.2294 -0.6995
  499SOL     OW 1727   4.713   2.291   4.414 -0.0232  0.1657  0.1912
  499SOL    HW2 1728   4.791   2.338   4.385 -0.3687  0.4280 -0.3599
  499SOL    HW3 1729   4.650   2.361   4.436  0.1738 -0.0366  1.4354
  499SOL    MW4 1730   4.715   2.307   4.413  0.5096 -0.7573 -0.7144
  500SOL     OW 1731   1.349   3.946   2.320  0.0715  0.6480  0.2228
  500SOL    HW2 1732   1.394   3.997   2.252  0.5535 -1.3490 -1.0757
  500SOL    HW3 1733   1.267   3.992   2.335 -1.4322 -0.2074 -3.8839
  500SOL    MW4 1734   1.344   3.959   2.313  0.3769 -0.1988  0.0906
  501SOL     OW 1735   0.492   5.567   1.503  0.1341  0.5683  0.1523
  501SOL    HW2 1736   0.434   5.494   1.524  2.3308 -1.2050  0.4106
  501SOL    HW3 1737   0.450   5.643   1.542 -1.5084 -0.7782  1.1549
  501SOL    MW4 1738   0.479   5.567   1.511  0.3409 -0.0674 -0.2311
  502SOL     OW 1739   6.297   3.404   2.621 -0.7237  0.2924  0.5058
  502SOL    HW2 1740   6.257   3.487   2.593  0.1380  0.6749  0.3575
  502SOL    HW3 1741   6.225   3.342   2.626 -1.2313  0.7934 -0.3918
  502SOL    MW4 1742   6.282   3.407   2.618 -0.1510  0.2911 -0.1089
  503SOL     OW 1743   0.449   5.365   5.148 -0.1409 -0.2207 -0.2978
  503SOL    HW2 1744   0.490   5.297   5.095  1.5930  1.1513 -0.8463
  503SOL    HW3 1745   0.466   5.337   5.239 -0.0192 -0.8240 -0.4995
  503SOL    MW4 1746   0.457   5.352   5.153 -0.2890 -0.0159  0.1953
  504SOL     OW 1747   5.880   4.081   0.200  0.1025 -0.2062 -0.0512
  504SOL    HW2 1748   5.895   4.000   0.249 -2.0807 -1.1529 -0.7815
  504SOL    HW3 1749   5.792   4.109   0.226  1.6385  3.3902  2.0329
  504SOL    MW4 1750   5.870   4.074   0.210  0.3007  0.2503  0.2773
  505SOL     OW 1751   5.850   5.621   4.436 -0.2148  0.1446  0.0118
  505SOL    HW2 1752   5.779   5.653   4.492 -0.7419  1.9752 -1.6210
  505SOL    HW3 1753   5.808   5.599   4.353  1.1251  1.6584 -1.1293
  505SOL    MW4 1754   5.835   5.623   4.433 -0.1107 -0.2523  0.0883
  506SOL     OW 1755   2.277   0.484   1.421 -0.7073  0.1961  0.3672
  506SOL    HW2 1756   2.256   0.484   1.327  1.2510  1.8602 -0.1679
  506SOL    HW3 1757   2.351   0.424   1.429 -1.3069 -0.4669  0.9787
  506SOL    MW4 1758   2.284   0.476   1.409 -0.6144 -0.2842  0.5971
  507SOL     OW 1759   3.078   2.246   5.237 -0.6998 -0.2122  0.2235
  507SOL    HW2 1760   3.045   2.275   5.322 -0.6563 -2.0196  0.9182
  507SOL    HW3 1761   2.999   2.236   5.183 -0.6524  1.8241 -0.2880
  507SOL    MW4 1762   3.063   2.248   5.241  0.0764  0.3728  0.3155
  508SOL     OW 1763   2.232   3.199   4.649  0.3299 -0.0572  0.2437
  508SOL    HW2 1764   2.140   3.178   4.666  0.5767  0.2374  2.2098
  508SOL    HW3 1765   2.228   3.279   4.596 -0.5201 -1.0448 -1.2736
  508SOL    MW4 1766   2.219   3.207   4.644 -0.0177  0.1461  0.5837
  509SOL     OW 1767   1.294   2.492   3.104 -0.1835 -0.4007 -0.1157
  509SOL    HW2 1768   1.336   2.475   3.188  1.5849  2.0183 -0.3908
  509SOL    HW3 1769   1.360   2.467   3.039 -0.5906  0.0144 -0.7041
  509SOL    MW4 1770   1.308   2.487   3.106  0.0261 -0.1914  0.6016
  510SOL     OW 1771   3.550   0.446   1.188 -0.0321  0.5550  0.0502
  510SOL    HW2 1772   3.551   0.509   1.116  0.5814  0.5306  0.0344
  510SOL    HW3 1773   3.590   0.493   1.261 -0.9276  0.6865  0.4778
  510SOL    MW4 1774   3.555   0.461   1.188  0.3383  0.1308  0.5313
  511SOL     OW 1775   4.986   3.029   1.262 -0.1731 -0.3665 -0.0029
  511SOL    HW2 1776   5.051   3.002   1.327  0.1701  2.1369  0.8052
  511SOL    HW3 1777   4.912   3.060   1.314  0.2558  2.0518 -0.7003
  511SOL    MW4 1778   4.985   3.030   1.277  0.3999  0.6178 -0.1140
  512SOL     OW 1779   4.081   5.562   5.715  0.0160  0.2147 -0.3921
  512SOL    HW2 1780   4.020   5.629   5.687 -0.3401  0.5761  1.1649
  512SOL    HW3 1781   4.049   5.534   5.801 -0.0786 -2.2360 -1.1400
  512SOL    MW4 1782   4.069   5.567   5.723 -0.0771  0.4838  0.5007
  513SOL     OW 1783   4.390   6.271   3.073  0.1542  0.1731 -0.6351
  513SOL    HW2 1784   4.451   6.254   3.001  2.1287  0.5090  0.8994
  513SOL    HW3 1785   4.392   6.191   3.125  0.0695  0.5831 -0.0028
  513SOL    MW4 1786   4.398   6.258   3.070 -0.4321  0.4408 -0.7483
  514SOL     OW 1787   2.935   4.866   0.670  0.1615 -0.0063 -0.1713
  514SOL    HW2 1788   2.899   4.934   0.726 -1.1166 -1.1324  0.3976
  514SOL    HW3 1789   2.985   4.915   0.603 -0.3899  1.4509  0.4425
  514SOL    MW4 1790   2.937   4.882   0.668 -0.0092 -0.2956 -0.5927
  515SOL     OW 1791   1.850   3.351   2.799 -0.2267 -0.2067  0.3452
  515SOL    HW2 1792   1.773   3.408   2.789  0.1150  0.0985 -0.6745
  515SOL    HW3 1793   1.907   3.399   2.859  0.3051  0.8348 -0.9293
  515SOL    MW4 1794   1.847   3.365   2.805 -0.1738  0.8779 -0.2443
  516SOL     OW 1795   5.469   5.016   1.671  0.5733  0.4079  0.0106
  516SOL    HW2 1796   5.503   5.104   1.684 -1.5659  1.7330 -2.3326
  516SOL    HW3 1797   5.394   5.010   1.730  0.6358  0.2071  0.0715
  516SOL    MW4 1798   5.463   5.027   1.681  0.1642 -0.1262  0.2665
  517SOL     OW 1799   1.529   5.594   2.154 -0.1710  0.3931  0.3629
  517SOL    HW2 1800   1.504   5.574   2.244 -0.5197 -1.9135 -0.1867
  517SOL    HW3 1801   1.540   5.509   2.113 -1.4387  1.3573 -2.1707
  517SOL    MW4 1802   1.527   5.580   2.161 -0.7608 -0.5300 -0.5109
  518SOL     OW 1803   1.111   2.004   0.245 -0.0242  0.1301 -0.2799
  518SOL    HW2 1804   1.037   2.060   0.268  0.1949  0.3894 -0.1993
  518SOL    HW3 1805   1.168   2.060   0.192  1.5298  0.8821  2.0277
  518SOL    MW4 1806   1.109   2.019   0.241  0.0254 -0.3396  0.4323
  519SOL     OW 1807   2.549   4.681   2.585  0.5838 -0.2763  0.3305
  519SOL    HW2 1808   2.609   4.753   2.605 -1.6330  1.5673  0.7749
  519SOL    HW3 1809   2.536   4.637   2.669  1.1027 -0.5438  0.2769
  519SOL    MW4 1810   2.555   4.685   2.599 -0.1882  0.1270 -0.2823
  520SOL     OW 1811   3.459   5.974   0.764 -0.3718  0.2486 -0.1723
  520SOL    HW2 1812   3.436   6.065   0.746 -3.2575 -0.1577  0.9996
  520SOL    HW3 1813   3.549   5.978   0.795 -0.4210  2.6930 -0.1722
  520SOL    MW4 1814   3.468   5.986   0.766  0.1319 -0.5780  0.1577
  521SOL     OW 1815   3.065   2.760   2.152 -0.0068  0.0053  0.4583
  521SOL    HW2 1816   3.049   2.851   2.174  3.1672  0.2356  2.4744
  521SOL    HW3 1817   2.998   2.711   2.200 -1.1958  1.1742  0.0383
  521SOL    MW4 1818   3.054   2.765   2.161  0.0073  0.7005 -0.1240
  522SOL     OW 1819   0.474   2.519   1.965 -0.0024 -0.1711 -0.1469
  522SOL    HW2 1820   0.543   2.500   2.028 -0.1909  0.9607  0.4225
  522SOL    HW3 1821   0.479   2.614   1.951 -1.6587 -0.0023  0.1888
  522SOL    MW4 1822   0.484   2.529   1.971 -0.2847 -0.0977  0.1599
  523SOL     OW 1823   3.025   1.290   0.388  0.3714  0.5805 -0.3515
  523SOL    HW2 1824   3.085   1.313   0.317  1.7271  0.5119  0.7273
  523SOL    HW3 1825   3.069   1.218   0.433 -0.1802  1.0109  0.8956
  523SOL    MW4 1826   3.039   1.283   0.384 -0.4446  0.2292 -0.4748
  524SOL     OW 1827   0.973   1.353   1.725 -0.3951  0.0523 -0.0844
  524SOL    HW2 1828   1.045   1.297   1.695  0.2417  1.3504 -1.0963
  524SOL    HW3 1829   1.016   1.434   1.753 -1.5696  1.9209 -3.2339
  524SOL    MW4 1830   0.988   1.356   1.725  0.0851  0.1019  0.0308
  525SOL     OW 1831   0.782   1.798   2.608  0.0805  0.0013  0.1204
  525SOL    HW2 1832   0.709   1.747   2.572 -0.8406  0.1126  1.7507
  525SOL    HW3 1833   0.833   1.734   2.658 -2.4462  0.8647  4.3145
  525SOL    MW4 1834   0.779   1.783   2.610 -0.6057  0.3312  0.2855
  526SOL     OW 1835   0.189   5.329   5.111  0.1357  0.8905 -0.3558
  526SOL    HW2 1836   0.163   5.415   5.077  2.0302  1.1967 -1.1275
  526SOL    HW3 1837   0.284   5.333   5.117  0.1058 -0.2962  2.0357
  526SOL    MW4 1838   0.198   5.341   5.107 -0.8681 -0.3020  0.4892
  527SOL     OW 1839   5.309   1.397   1.734 -0.2959  0.9689  0.0778
  527SOL    HW2 1840   5.384   1.399   1.675 -1.6067 -0.8858 -1.8074
  527SOL    HW3 1841   5.310   1.482   1.777  2.2870  1.3744 -0.5760
  527SOL    MW4 1842   5.319   1.408   1.732 -0.1288 -0.5044  0.5894
  528SOL     OW 1843   3.050   0.078   3.372  0.3919 -0.3057  0.0408
  528SOL    HW2 1844   3.056   0.085   3.467 -1.8902  1.1397  0.1611
  528SOL    HW3 1845   3.074   0.164   3.340 -0.6674 -0.1974 -0.5234
  528SOL    MW4 1846   3.054   0.090   3.380  0.2715  0.3199 -0.5556
  529SOL     OW 1847   4.821   1.387   6.351 -0.0716 -0.5451  0.6206
  529SOL    HW2 1848   4.756   1.445   6.311 -0.4723 -0.3797  1.4851
  529SOL    HW3 1849   4.798   1.300   6.318  0.5424 -0.2355 -0.6971
  529SOL    MW4 1850   4.809   1.384   6.341  0.2623  0.1879 -0.0790
  530SOL     OW 1851   1.381   1.202   3.923 -0.2191  0.3764 -0.3565
  530SOL    HW2 1852   1.340   1.117   3.908 -0.1058  0.1770  0.4666
  530SOL    HW3 1853   1.474   1.187   3.909 -0.3680  0.8118 -2.1440
  530SOL    MW4 1854   1.388   1.189   3.919  0.1131 -0.2773 -0.2385
  531SOL     OW 1855   5.005   0.293   1.225 -0.3539 -0.4182 -0.5876
  531SOL    HW2 1856   4.972   0.368   1.177 -0.7060 -1.5903 -2.2705
  531SOL    HW3 1857   4.936   0.274   1.289 -0.8109 -0.0267 -0.9528
  531SOL    MW4 1858   4.992   0.300   1.227 -0.9382  0.2608  0.1582
  532SOL     OW 1859   6.314   1.119   4.044 -0.0882 -0.4320  0.0766
  532SOL    HW2 1860   6.386   1.141   3.985  0.0233 -0.0558  0.3420
  532SOL    HW3 1861   6.322   1.183   4.115 -0.4522 -0.6337  0.3017
  532SOL    MW4 1862   6.324   1.130   4.046 -0.3067 -0.0844 -0.3542
  533SOL     OW 1863   2.257   1.552   0.104 -0.6640  1.2163  0.3504
  533SOL    HW2 1864   2.298   1.587   0.183 -1.0546  1.4249  0.4634
  533SOL    HW3 1865   2.163   1.557   0.121 -0.7467  1.0468 -0.0366
  533SOL    MW4 1866   2.250   1.557   0.116 -0.8279 -0.0136  0.2977
  534SOL     OW 1867   4.312   5.363   5.603  0.2025  0.0299  0.1019
  534SOL    HW2 1868   4.239   5.420   5.625 -0.1376 -0.3082 -0.1398
  534SOL    HW3 1869   4.377   5.421   5.563  0.7270  0.6165  1.7130
  534SOL    MW4 1870   4.311   5.378   5.601  0.8256 -0.2249  0.4133
  535SOL     OW 1871   2.158   0.377   0.404  0.3211 -0.4712 -0.1679
  535SOL    HW2 1872   2.141   0.438   0.475 -0.6037 -2.5990  1.5540
  535SOL    HW3 1873   2.253   0.360   0.409  0.3900 -0.0309  0.0465
  535SOL    MW4 1874   2.169   0.383   0.414  0.6953  0.4455 -0.3112
  536SOL     OW 1875   1.175   6.375   0.052  0.5565  0.3606  0.0563
  536SOL    HW2 1876   1.228   6.379   0.132  1.4130  0.6195 -0.5077
  536SOL    HW3 1877   1.109   6.308   0.070  1.4633 -0.4207  0.5619
  536SOL    MW4 1878   1.174   6.367   0.065  0.0479  0.3575 -0.8973
  537SOL     OW 1879   4.806   0.214   0.197  0.1174  1.4202  0.0961
  537SOL    HW2 1880   4.808   0.139   0.257 -0.2092  0.2015 -1.3542
  537SOL    HW3 1881   4.860   0.280   0.239  2.1529 -0.3635  0.4831
  537SOL    MW4 1882   4.813   0.213   0.211  0.1514  0.0341 -0.2283
  538SOL     OW 1883   2.614   6.082   4.792 -0.1016  0.2117 -0.5152
  538SOL    HW2 1884   2.581   6.003   4.834  0.8461 -0.5106 -1.0873
  538SOL    HW3 1885   2.659   6.131   4.861 -1.4154  0.6932  0.0311
  538SOL    MW4 1886   2.616   6.078   4.806 -0.4251 -0.1588  0.3986
  539SOL     OW 1887   2.938   0.448   4.314  0.3461 -0.1644 -0.4211
  539SOL    HW2 1888   3.031   0.429   4.301  0.8938  1.2845  1.0596
  539SOL    HW3 1889   2.922   0.428   4.406 -0.3651  1.1910 -0.2239
  539SOL    MW4 1890   2.948   0.443   4.324 -0.2619 -0.1100  0.2963
  540SOL     OW 1891   3.231   5.556   4.835 -0.3509  1.0546  0.4805
  540SOL    HW2 1892   3.166   5.598   4.778  0.2307  0.2000 -0.8608
  540SOL    HW3 1893   3.310   5.550   4.781 -0.1951 -1.0838  0.8552
  540SOL    MW4 1894   3.233   5.561   4.820  0.5992 -0.0095 -0.2313
  541SOL     OW 1895   6.271   1.469   2.551 -0.4695 -0.1798  0.8027
  541SOL    HW2 1896   6.235   1.495   2.466 -0.8065  0.7131  1.2038
  541SOL    HW3 1897   6.356   1.432   2.531 -1.8470 -3.0731 -0.2806
  541SOL    MW4 1898   6.277   1.468   2.537  0.4062 -0.1962  0.3640
  542SOL     OW 1899   2.710   5.234   1.026  0.1496 -0.0239  0.2789
  542SOL    HW2 1900   2.764   5.244   1.105  0.6514  0.7989 -0.1556
  542SOL    HW3 1901   2.642   5.302   1.036  0.5103  0.4148 -0.2331
  542SOL    MW4 1902   2.708   5.244   1.038 -0.3111  0.0587 -0.5401
  543SOL     OW 1903   4.203   5.089   4.144 -0.2149 -0.5369  0.5231
  543SOL    HW2 1904   4.175   5.039   4.067  0.5880 -0.3026  0.0700
  543SOL    HW3 1905   4.122   5.127   4.178 -0.9019 -2.3658  1.0651
  543SOL    MW4 1906   4.189   5.088   4.139 -0.2478  0.0017  0.3288
  544SOL     OW 1907   0.515   5.466   6.396  0.0507  0.3621  0.1233
  544SOL    HW2 1908   0.435   5.482   6.447 -0.9691  0.3357 -1.3843
  544SOL    HW3 1909   0.525   5.544   6.342  0.7786  0.1518 -0.0528
  544SOL    MW4 1910   0.506   5.478   6.396 -0.1107  0.3678  0.3334
  545SOL     OW 1911   3.899   5.678   0.219  0.0784 -0.2404  0.3845
  545SOL    HW2 1912   3.949   5.711   0.294 -0.8452 -2.0143  1.8851
  545SOL    HW3 1913   3.823   5.736   0.213 -0.6686 -1.0126  1.8970
  545SOL    MW4 1914   3.896   5.690   0.228 -0.1824  0.4125 -0.3603
  546SOL     OW 1915   4.484   0.436   3.313 -0.7670 -0.0163 -0.3012
  546SOL    HW2 1916   4.507   0.355   3.267 -1.7384 -1.3155  1.3839
  546SOL    HW3 1917   4.413   0.411   3.372 -1.0216  2.0572  0.3615
  546SOL    MW4 1918   4.478   0.422   3.314  0.0952  0.2587  0.0057
  547SOL     OW 1919   2.378   2.227   3.510 -0.2697  0.0923  0.5642
  547SOL    HW2 1920   2.433   2.231   3.588 -0.4748  1.9083  0.6407
  547SOL    HW3 1921   2.315   2.298   3.521 -0.9405 -0.2563 -0.7894
  547SOL    MW4 1922   2.377   2.237   3.522 -0.1475 -0.1982  0.0410
  548SOL     OW 1923   5.834   5.446   0.715  0.0794 -0.2256  0.0608
  548SOL    HW2 1924   5.814   5.531   0.675 -1.9380 -1.6555 -2.2616
  548SOL    HW3 1925   5.809   5.456   0.807 -1.4300  1.3020 -0.4671
  548SOL    MW4 1926   5.828   5.458   0.722 -0.2711 -0.7045  0.7473
  549SOL     OW 1927   4.381   5.071   3.203  0.0153 -0.4242  0.0310
  549SOL    HW2 1928   4.357   4.994   3.254 -0.2578 -1.4301 -1.5526
  549SOL    HW3 1929   4.324   5.068   3.127  2.2136 -0.5130 -1.7200
  549SOL    MW4 1930   4.371   5.061   3.200  0.5378 -0.7226  0.2476
  550SOL     OW 1931   0.341   2.988   6.087  0.2862  0.6049  0.5462
  550SOL    HW2 1932   0.427   3.014   6.055  1.0142 -0.6819  1.3530
  550SOL    HW3 1933   0.312   2.920   6.026  0.5687 -0.0726  1.1399
  550SOL    MW4 1934   0.348   2.982   6.075 -0.0350 -0.1819  0.6193
  551SOL     OW 1935   0.622   2.216   2.028 -0.2847  0.7799 -0.4956
  551SOL    HW2 1936   0.582   2.200   1.943 -0.4364  0.2851 -0.3313
  551SOL    HW3 1937   0.552   2.198   2.091  0.0850  0.2629 -0.2243
  551SOL    MW4 1938   0.608   2.212   2.025 -1.1987 -0.0729  0.1013
  552SOL     OW 1939   6.380   1.353   4.843 -0.2444 -0.0891  0.3255
  552SOL    HW2 1940   6.390   1.432   4.791 -0.5391 -0.2621 -0.0027
  552SOL    HW3 1941   6.421   1.284   4.790 -0.9316 -0.3456  0.1116
  552SOL    MW4 1942   6.387   1.354   4.829  0.0801 -0.0996 -0.1736
  553SOL     OW 1943   3.817   2.654   4.869  0.0121 -0.3259  0.4547
  553SOL    HW2 1944   3.858   2.689   4.790  0.7560 -0.1288  0.9191
  553SOL    HW3 1945   3.790   2.731   4.919  0.7613 -0.4106  1.0154
  553SOL    MW4 1946   3.819   2.669   4.865  0.0827  0.3265  0.5165
  554SOL     OW 1947   0.906   2.086   6.028 -0.2302 -0.0161  0.1697
  554SOL    HW2 1948   0.952   2.170   6.025 -0.6048  0.2059  0.5133
  554SOL    HW3 1949   0.941   2.043   6.106 -2.1203  1.0678  1.7289
  554SOL    MW4 1950   0.917   2.092   6.038 -0.5661 -0.1627  0.1755
  555SOL     OW 1951   3.701   5.945   1.323 -0.2344  0.2339 -0.2896
  555SOL    HW2 1952   3.661   5.929   1.238  0.1288  1.0087 -0.6134
  555SOL    HW3 1953   3.627   5.958   1.383 -0.5263  2.7302 -1.0853
  555SOL    MW4 1954   3.686   5.944   1.320 -0.0916  0.3834  0.0907
  556SOL     OW 1955   2.644   1.104   0.644 -0.1418  0.2166 -0.6680
  556SOL    HW2 1956   2.646   1.182   0.588  1.3132 -0.3331 -1.4341
  556SOL    HW3 1957   2.656   1.138   0.733  0.5413  0.8601 -0.9969
  556SOL    MW4 1958   2.646   1.119   0.648 -0.4105 -0.1171 -0.0414
  557SOL     OW 1959   2.341   0.192   3.800 -0.4294 -0.1227 -0.4759
  557SOL    HW2 1960   2.323   0.251   3.873 -0.9205 -0.4314 -0.3408
  557SOL    HW3 1961   2.264   0.136   3.795  0.6180 -1.7307  0.3681
  557SOL    MW4 1962   2.329   0.192   3.809  0.3306 -0.4851 -0.8658
  558SOL     OW 1963   4.981   4.643   1.029 -0.2320 -0.3245 -0.2562
  558SOL    HW2 1964   5.049   4.578   1.044 -1.4866 -1.4654  0.7101
  558SOL    HW3 1965   4.900   4.592   1.022 -1.4632  1.1671  1.8209
  558SOL    MW4 1966   4.979   4.628   1.030 -0.2449 -0.5545  0.3730
  559SOL     OW 1967   5.829   0.623   4.695  0.1376 -0.2774  0.3584
  559SOL    HW2 1968   5.908   0.677   4.702  0.6256 -0.8080 -0.8485
  559SOL    HW3 1969   5.757   0.686   4.690  0.6109  0.2433  0.0276
  559SOL    MW4 1970   5.830   0.638   4.696  0.2148  0.0299  0.4144
  560SOL     OW 1971   5.920   0.537   1.093  0.5222 -0.7638  0.0926
  560SOL    HW2 1972   6.015   0.545   1.101  0.4414 -0.0873  0.4789
  560SOL    HW3 1973   5.890   0.515   1.181  0.1616  0.9067  0.4298
  560SOL    MW4 1974   5.929   0.535   1.105 -0.0705  0.2266  0.2279
  561SOL     OW 1975   3.929   5.823   1.117 -0.1469  0.5372 -0.0560
  561SOL    HW2 1976   3.877   5.900   1.142 -1.0176 -0.3540  0.9955
  561SOL    HW3 1977   4.019   5.848   1.138 -0.4050  1.3028  0.1871
  561SOL    MW4 1978   3.934   5.837   1.123 -0.0691 -0.2951 -0.1620
  562SOL     OW 1979   4.811   2.991   5.708  0.3366  0.2196 -0.5045
  562SOL    HW2 1980   4.757   2.987   5.788  0.9054 -2.1843 -0.1565
  562SOL    HW3 1981   4.864   2.912   5.712 -0.5689 -0.7052 -3.9521
  562SOL    MW4 1982   4.811   2.980   5.719 -0.4228  0.0951  0.3294
  563SOL     OW 1983   2.596   1.437   4.112 -0.5113  0.2081 -0.2247
  563SOL    HW2 1984   2.555   1.523   4.117  1.2391  1.3658 -3.1735
  563SOL    HW3 1985   2.644   1.428   4.194 -0.7157  2.0679  0.1318
  563SOL    MW4 1986   2.597   1.447   4.123 -0.3652 -0.1455  0.0283
  564SOL     OW 1987   4.777   4.934   2.179 -0.3728 -0.3265  0.2514
  564SOL    HW2 1988   4.789   4.998   2.250 -0.0381  0.9454 -0.9117
  564SOL    HW3 1989   4.866   4.902   2.160  0.1251  2.0862 -2.0135
  564SOL    MW4 1990   4.790   4.938   2.186  0.3212  0.2697  0.0751
  565SOL     OW 1991   5.670   0.813   1.814  0.0458 -0.3894 -0.0958
  565SOL    HW2 1992   5.759   0.836   1.839 -0.8216  1.2705  1.7557
  565SOL    HW3 1993   5.643   0.747   1.877  0.1296 -1.3599 -1.0370
  565SOL    MW4 1994   5.678   0.807   1.825  0.0704  0.0256  0.0619
  566SOL     OW 1995   1.857   1.381   1.207  0.2301 -0.5175  0.1245
  566SOL    HW2 1996   1.786   1.443   1.226  0.6415  0.0968 -0.3053
  566SOL    HW3 1997   1.828   1.334   1.129  0.3744 -0.1333 -0.1631
  566SOL    MW4 1998   1.844   1.383   1.200 -0.2460  0.4610  0.0158
  567SOL     OW 1999   5.892   1.380   2.445 -0.2157  0.1310  0.5376
  567SOL    HW2 2000   5.881   1.370   2.540  0.0961  0.7874  0.6489
  567SOL    HW3 2001   5.819   1.436   2.418  1.0981  2.0721  0.8148
  567SOL    MW4 2002   5.881   1.386   2.454  0.5029 -0.3156 -1.0651
  568SOL     OW 2003   2.516   5.308   4.234 -0.6714 -0.0351 -0.3805
  568SOL    HW2 2004   2.582   5.369   4.200  0.2284  0.3616  1.9179
  568SOL    HW3 2005   2.442   5.364   4.257  0.0679  0.2581  1.5122
  568SOL    MW4 2006   2.515   5.323   4.233 -0.2249 -0.1476  0.2319
  569SOL     OW 2007   3.493   0.634   2.508  0.0790 -0.3102 -0.0204
  569SOL    HW2 2008   3.510   0.724   2.480 -0.7517 -0.0256  0.3386
  569SOL    HW3 2009   3.400   0.634   2.533  0.0303 -1.3099 -0.1694
  569SOL    MW4 2010   3.483   0.646   2.508 -0.6684  0.1626  0.3114
  570SOL     OW 2011   3.379   5.171   5.851  0.3258 -0.0028 -0.1625
  570SOL    HW2 2012   3.463   5.194   5.811  0.2419 -0.2143 -0.4584
  570SOL    HW3 2013   3.355   5.249   5.902  0.6101  0.1281 -0.2260
  570SOL    MW4 2014   3.387   5.185   5.853  0.4027  0.4699 -0.3513
  571SOL     OW 2015   2.468   3.531   2.054  0.2314 -0.4641 -0.3622
  571SOL    HW2 2016   2.405   3.602   2.042 -1.3746 -1.2497  2.5831
  571SOL    HW3 2017   2.544   3.573   2.092  0.0686 -0.0455 -0.4862
  571SOL    MW4 2018   2.469   3.546   2.057 -0.0933 -0.2103  0.0458
  572SOL     OW 2019   4.006   0.131   5.262  0.2028  0.0295 -0.3177
  572SOL    HW2 2020   3.949   0.147   5.187  0.5292  1.2614 -0.3288
  572SOL    HW3 2021   3.949   0.090   5.327 -0.7495  1.3533 -0.2761
  572SOL    MW4 2022   3.991   0.128   5.260 -0.1283  0.0944  0.6762
  573SOL     OW 2023   5.360   2.909   5.058 -0.4137 -0.1125 -0.6498
  573SOL    HW2 2024   5.431   2.877   5.115  1.3943  1.5701 -1.8062
  573SOL    HW3 2025   5.371   2.862   4.976 -0.0842  0.7324 -1.1062
  573SOL    MW4 2026   5.371   2.899   5.055 -0.2684 -0.5856 -0.2767
  574SOL     OW 2027   4.091   0.155   4.385  0.3153  0.7045  0.4801
  574SOL    HW2 2028   4.033   0.111   4.322 -1.9162  2.8537  0.8494
  574SOL    HW3 2029   4.138   0.220   4.333  0.1270  0.9749  0.6403
  574SOL    MW4 2030   4.089   0.158   4.370 -0.1747  0.0831 -0.1868
  575SOL     OW 2031   2.001   0.726   3.424  0.3452  0.1806 -0.3946
  575SOL    HW2 2032   2.093   0.754   3.425 -0.3500  2.7067  0.0314
  575SOL    HW3 2033   1.982   0.711   3.332  1.3242 -1.0311 -0.4340
  575SOL    MW4 2034   2.011   0.728   3.412  0.1697  0.7083 -0.3590
  576SOL     OW 2035   3.453   5.591   0.383 -0.5227 -0.0057 -0.0862
  576SOL    HW2 2036   3.465   5.502   0.351 -1.3700 -0.1804  0.0738
  576SOL    HW3 2037   3.533   5.609   0.432  0.3055 -0.1341 -1.3367
  576SOL    MW4 2038   3.465   5.582   0.385  0.0798  0.5935  0.1635
  577SOL     OW 2039   5.135   5.035   3.785  0.8909  0.4753 -0.4747
  577SOL    HW2 2040   5.077   5.106   3.757  1.7801  1.1306 -0.7193
  577SOL    HW3 2041   5.095   5.001   3.864  0.1692  0.9170 -0.6420
  577SOL    MW4 2042   5.122   5.040   3.792 -0.0200 -0.0402  0.0751
  578SOL     OW 2043   5.622   3.041   4.363  0.3193  0.2460 -0.1800
  578SOL    HW2 2044   5.552   3.016   4.424  0.0241  0.5069 -0.4035
  578SOL    HW3 2045   5.694   2.981   4.382 -0.0863 -0.2446 -0.1746
  578SOL    MW4 2046   5.622   3.030   4.373  0.2034  0.4373 -0.0516
  579SOL     OW 2047   2.175   0.798   5.983  0.3647  0.1488 -0.1359
  579SOL    HW2 2048   2.249   0.848   6.018  1.0949 -0.7726 -0.3049
  579SOL    HW3 2049   2.186   0.710   6.020  0.3870 -0.4824 -1.5856
  579SOL    MW4 2050   2.186   0.793   5.993 -0.1351 -0.2635 -0.4134
  580SOL     OW 2051   4.274   5.343   1.467  0.4586  0.0763 -0.2140
  580SOL    HW2 2052   4.269   5.391   1.550  0.5075 -0.9402  0.3984
  580SOL    HW3 2053   4.352   5.289   1.476  0.9083  0.5248 -1.2531
  580SOL    MW4 2054   4.284   5.342   1.479  0.4043 -0.2757  1.0298
  581SOL     OW 2055   0.138   2.871   0.009 -0.3431  0.2895 -0.3195
  581SOL    HW2 2056   0.064   2.921   0.042  0.7793  1.2495  0.8570
  581SOL    HW3 2057   0.202   2.937  -0.017  0.6990 -0.5043  0.1477
  581SOL    MW4 2058   0.137   2.886   0.010  0.8898 -0.4390 -0.4233
  582SOL     OW 2059   2.550   6.089   2.673 -0.1737 -0.1068 -0.0147
  582SOL    HW2 2060   2.565   6.000   2.704  1.6561  0.0666 -0.2792
  582SOL    HW3 2061   2.513   6.078   2.586  0.4186 -0.6282 -0.2099
  582SOL    MW4 2062   2.547   6.076   2.666 -0.3437 -0.1477  0.2476
  583SOL     OW 2063   3.219   4.717   2.621 -0.3500  0.2764 -0.1174
  583SOL    HW2 2064   3.280   4.790   2.625 -2.9300  2.5235  1.6557
  583SOL    HW3 2065   3.235   4.668   2.702  0.5125 -0.4178 -0.6932
  583SOL    MW4 2066   3.229   4.720   2.632 -0.2352  0.4398  0.1968
  584SOL     OW 2067   2.326   5.616   0.094 -0.1508  0.0896 -0.3848
  584SOL    HW2 2068   2.410   5.580   0.067  0.6732  0.3962  1.5778
  584SOL    HW3 2069   2.266   5.542   0.090 -0.0336  0.0701 -2.6459
  584SOL    MW4 2070   2.329   5.601   0.090  0.7444 -0.1757  0.7213
  585SOL     OW 2071   4.686   2.381   0.258 -0.0575 -0.1315  0.4017
  585SOL    HW2 2072   4.739   2.302   0.251 -1.0662 -0.9827  1.8150
  585SOL    HW3 2073   4.642   2.373   0.343 -2.0144  0.7973 -0.4583
  585SOL    MW4 2074   4.687   2.370   0.268 -0.0459 -0.5579 -0.0166
  586SOL     OW 2075   0.191   2.104   3.171  0.7103 -0.3506 -0.0151
  586SOL    HW2 2076   0.240   2.025   3.150  0.7221 -0.7594  1.4946
  586SOL    HW3 2077   0.254   2.162   3.213  0.4712  0.1010 -0.2588
  586SOL    MW4 2078   0.205   2.101   3.174 -0.3528  0.1169  0.0369
  587SOL     OW 2079   2.998   1.107   2.400  0.3514 -0.0873 -0.0163
  587SOL    HW2 2080   3.091   1.116   2.419  0.4664 -0.3595 -0.4402
  587SOL    HW3 2081   2.969   1.196   2.380  0.0780  0.3175  2.0449
  587SOL    MW4 2082   3.007   1.120   2.400  0.0779 -0.8095 -0.1417
  588SOL     OW 2083   1.513   2.921   4.655  0.0029 -0.4331  0.5192
  588SOL    HW2 2084   1.528   2.872   4.736 -0.4677 -0.0837  0.8253
  588SOL    HW3 2085   1.438   2.977   4.675 -1.2580 -1.6130 -0.7197
  588SOL    MW4 2086   1.505   2.922   4.668 -0.4930  0.7819 -0.5542
  589SOL     OW 2087   6.228   1.266   0.099  0.1515  0.3207 -0.0101
  589SOL    HW2 2088   6.274   1.188   0.130 -1.6511 -0.8109 -0.0408
  589SOL    HW3 2089   6.272   1.339   0.142  1.6025 -0.7332  0.3635
  589SOL    MW4 2090   6.240   1.266   0.108 -0.3253  0.8956 -0.2312
  590SOL     OW 2091   3.316   5.106   2.811  0.4394  0.1384  0.3570
  590SOL    HW2 2092   3.396   5.156   2.800  0.2042  0.3335 -0.4827
  590SOL    HW3 2093   3.263   5.159   2.871  1.3059 -0.4494  1.7083
  590SOL    MW4 2094   3.319   5.119   2.818  0.1726 -0.0033 -0.4655
  591SOL     OW 2095   2.262   3.712   2.054  0.5833  0.2930  0.5784
  591SOL    HW2 2096   2.188   3.679   2.003  0.0213 -0.0650  1.6001
  591SOL    HW3 2097   2.291   3.790   2.006  0.5438 -0.4277 -0.6753
  591SOL    MW4 2098   2.256   3.718   2.041  0.0932  0.1336  0.4280
  592SOL     OW 2099   1.530   4.136   5.235  0.4374 -0.3757 -0.1783
  592SOL    HW2 2100   1.558   4.224   5.262  2.8310 -0.8647 -0.8403
  592SOL    HW3 2101   1.515   4.144   5.141 -0.6826 -0.3843 -0.0093
  592SOL    MW4 2102   1.532   4.149   5.226 -0.3337 -0.1618  0.9057
  593SOL     OW 2103   4.920   2.190   4.975  0.1389 -0.2274  0.3446
  593SOL    HW2 2104   4.833   2.175   4.937  0.1052  0.8048 -0.0259
  593SOL    HW3 2105   4.923   2.133   5.052 -0.7009 -0.5884  0.1227
  593SOL    MW4 2106   4.909   2.181   4.980 -0.0616 -0.3402  0.2233
  594SOL     OW 2107   6.345   6.025   1.265  0.0195  0.0536  0.3770
  594SOL    HW2 2108   6.382   6.113   1.275  0.1766 -0.0729  0.9568
  594SOL    HW3 2109   6.309   6.004   1.351  0.2729 -0.5788  0.3359
  594SOL    MW4 2110   6.346   6.034   1.278  0.2476 -0.4591  0.0619
  595SOL     OW 2111   4.071   5.492   3.413  0.7756 -0.0266  0.6376
  595SOL    HW2 2112   4.104   5.402   3.408  2.9023  0.7341 -0.9483
  595SOL    HW3 2113   4.080   5.525   3.323  0.3077  1.8481  1.2371
  595SOL    MW4 2114   4.077   5.485   3.400 -0.6458  0.2288  0.0113
  596SOL     OW 2115   0.825   5.427   2.770  0.5965  0.9564  0.2293
  596SOL    HW2 2116   0.862   5.340   2.778 -1.0501  0.0817 -1.0262
  596SOL    HW3 2117   0.819   5.443   2.675 -2.3706  0.8786  0.2892
  596SOL    MW4 2118   0.829   5.418   2.758 -0.5290 -0.1561  0.1774
  597SOL     OW 2119   4.970   6.179   1.992 -0.2498 -0.1180 -0.9582
  597SOL    HW2 2120   5.050   6.202   1.943  0.1166  1.7945  0.4100
  597SOL    HW3 2121   4.918   6.128   1.930  1.4988 -0.3687 -2.3051
  597SOL    MW4 2122   4.974   6.176   1.977 -0.1449  0.0718  0.4567
  598SOL     OW 2123   4.369   1.718   1.113 -0.2627  0.0308  0.0296
  598SOL    HW2 2124   4.288   1.678   1.145  0.7632 -1.7625  0.4974
  598SOL    HW3 2125   4.340   1.788   1.055 -2.1527  0.4810  1.4308
  598SOL    MW4 2126   4.355   1.722   1.110  0.3471  0.0527  0.9409
  599SOL     OW 2127   2.169   3.805   3.647  0.1673 -0.2018  0.4518
  599SOL    HW2 2128   2.094   3.850   3.608  1.5706  0.3433 -1.7579
  599SOL    HW3 2129   2.235   3.873   3.659  1.2511 -1.1268 -0.1067
  599SOL    MW4 2130   2.168   3.820   3.644  0.2164 -0.6203 -0.2247
  600SOL     OW 2131   5.696   1.109   2.143  0.1788 -0.0389  0.4673
  600SOL    HW2 2132   5.606   1.080   2.156 -0.0516  0.7791  0.7913
  600SOL    HW3 2133   5.718   1.080   2.054  0.2473 -1.8446  1.0383
  600SOL    MW4 2134   5.687   1.102   2.133  0.1079  0.4290  0.1143
  601SOL     OW 2135   0.687   3.912   1.745 -0.1578  0.3187  0.6223
  601SOL    HW2 2136   0.619   3.895   1.679  1.2539  1.7939 -1.3623
  601SOL    HW3 2137   0.650   3.882   1.827 -3.7752  2.2634 -0.1061
  601SOL    MW4 2138   0.673   3.906   1.747  0.1235  0.5732  0.2107
  602SOL     OW 2139   2.428   3.578   0.445  0.5671 -0.4317 -0.0357
  602SOL    HW2 2140   2.416   3.490   0.409 -1.4430  0.2545 -1.1869
  602SOL    HW3 2141   2.371   3.580   0.522  1.0993 -0.3072  0.3655
  602SOL    MW4 2142   2.419   3.566   0.450 -0.0311  0.8333  0.2882
  603SOL     OW 2143   4.019   0.113   1.520  0.1657  0.7421 -0.2254
  603SOL    HW2 2144   3.927   0.139   1.513  0.0213  0.4387  0.4489
  603SOL    HW3 2145   4.056   0.133   1.434 -0.7760 -0.0697 -0.8519
  603SOL    MW4 2146   4.012   0.119   1.508  0.0585  0.1749  0.3259
  604SOL     OW 2147   6.088   0.610   5.490  0.3266  0.5324 -0.1725
  604SOL    HW2 2148   6.050   0.619   5.402  1.5150  0.0780 -0.7606
  604SOL    HW3 2149   6.066   0.692   5.534 -1.0477  0.4099 -0.5710
  604SOL    MW4 2150   6.080   0.622   5.484 -0.0041  0.1784  0.4609
  605SOL     OW 2151   2.273   5.852   6.387  0.1076 -0.1385 -0.0501
  605SOL    HW2 2152   2.277   5.789   6.459  0.5026  1.5417  1.4666
  605SOL    HW3 2153   2.180   5.854   6.363 -0.2675  0.1713  1.2962
  605SOL    MW4 2154   2.261   5.844   6.393  0.5702 -0.1677  0.5105
  606SOL     OW 2155   2.622   0.974   1.215  0.2417 -0.3976  0.4821
  606SOL    HW2 2156   2.654   1.059   1.186  0.7088 -0.9026 -0.5147
  606SOL    HW3 2157   2.667   0.958   1.298  0.7913 -0.0474  0.2564
  606SOL    MW4 2158   2.632   0.983   1.222 -0.5941 -0.2221 -0.6003
  607SOL     OW 2159   0.775   4.317   1.315 -0.2716 -0.0603 -0.0986
  607SOL    HW2 2160   0.861   4.297   1.280 -0.2060  0.5975 -0.3314
  607SOL    HW3 2161   0.718   4.325   1.238 -0.5147 -0.3647  0.0460
  607SOL    MW4 2162   0.779   4.316   1.300 -0.4146  0.1791  0.1075
  608SOL     OW 2163   6.387   1.069   0.854 -0.4877 -0.6681  0.6120
  608SOL    HW2 2164   6.305   1.117   0.862 -0.0246  0.2603  0.0038
  608SOL    HW3 2165   6.401   1.061   0.760  0.8464  0.5179  0.6598
  608SOL    MW4 2166   6.378   1.074   0.843  0.3024 -0.3183 -0.1340
  609SOL     OW 2167   0.590   4.009   3.123 -0.2353 -0.1888 -0.3523
  609SOL    HW2 2168   0.651   3.938   3.104  0.1897 -0.0088  0.2878
  609SOL    HW3 2169   0.645   4.080   3.156 -0.8782 -0.4770  1.4980
  609SOL    MW4 2170   0.605   4.009   3.125 -0.5079  0.5119  0.1789
  610SOL     OW 2171   1.142   5.549   0.474  0.5057  0.1029  1.1720
  610SOL    HW2 2172   1.092   5.566   0.553 -2.1656  1.7189 -0.7115
  610SOL    HW3 2173   1.108   5.465   0.442  1.3289 -0.3718  1.5082
  610SOL    MW4 2174   1.131   5.540   0.480  0.6502  0.1295 -0.5369
  611SOL     OW 2175   2.965   3.449   3.264  0.6910  0.1648  0.5613
  611SOL    HW2 2176   2.994   3.358   3.256 -1.3306 -0.4415 -0.8612
  611SOL    HW3 2177   3.004   3.493   3.189 -0.6160 -0.2543 -0.3984
  611SOL    MW4 2178   2.974   3.443   3.253 -0.3517  0.2531  0.1274
  612SOL     OW 2179   0.037   3.206   5.503  0.0204 -0.0032 -0.1338
  612SOL    HW2 2180  -0.052   3.206   5.468 -0.8444 -1.8785  1.8355
  612SOL    HW3 2181   0.026   3.197   5.597  2.2900  2.1527  0.4489
  612SOL    MW4 2182   0.024   3.205   5.510  0.1763  0.3972  0.2552
  613SOL     OW 2183   6.330   3.079   4.940  0.3960 -0.2971 -0.6177
  613SOL    HW2 2184   6.299   3.028   4.866 -1.7158 -1.8526  1.1933
  613SOL    HW3 2185   6.426   3.078   4.931  0.2188 -0.2967 -3.3101
  613SOL    MW4 2186   6.339   3.072   4.929  0.8767 -0.1474 -0.6355
  614SOL     OW 2187   1.068   0.725   4.285  0.2289  0.0867 -0.8177
  614SOL    HW2 2188   1.017   0.646   4.303 -0.1317  0.7605  1.5058
  614SOL    HW3 2189   1.005   0.786   4.247 -0.4303  0.4257  0.7198
  614SOL    MW4 2190   1.053   0.723   4.283  0.1017 -0.0153  0.3608
  615SOL     OW 2191   0.157   0.329   4.587 -0.2703 -0.6226  0.2479
  615SOL    HW2 2192   0.131   0.377   4.508 -1.2991 -0.0350  0.9233
  615SOL    HW3 2193   0.216   0.261   4.555  1.9676  1.5944 -0.6479
  615SOL    MW4 2194   0.161   0.326   4.572 -0.1708  0.2781 -1.0368
  616SOL     OW 2195   1.270   2.774   2.199  0.3521 -0.0038 -0.1575
  616SOL    HW2 2196   1.352   2.734   2.227  0.4672  0.6533  0.4757
  616SOL    HW3 2197   1.288   2.868   2.198 -0.8234  0.2883  1.5014
  616SOL    MW4 2198   1.283   2.781   2.202 -0.2631 -0.1558 -0.2422
  617SOL     OW 2199   1.036   2.134   6.410 -0.3267  0.2668 -0.3135
  617SOL    HW2 2200   1.099   2.189   6.362 -0.2378  1.7849  1.4555
  617SOL    HW3 2201   0.970   2.195   6.442  0.2622 -0.4626  2.4991
  617SOL    MW4 2202   1.036   2.149   6.408  0.1575 -0.6048  0.1115
  618SOL     OW 2203   5.972   2.193   0.506  0.1053  0.2378 -0.6058
  618SOL    HW2 2204   5.910   2.260   0.476  1.2657  1.7174  0.1794
  618SOL    HW3 2205   5.994   2.144   0.426  0.4083  1.8087 -1.5323
  618SOL    MW4 2206   5.967   2.196   0.491  0.3086 -0.3471  0.0034
  619SOL     OW 2207   4.910   6.091   3.774 -0.4327  0.7715 -0.5980
  619SOL    HW2 2208   4.906   6.063   3.866  0.2765 -0.1486 -0.8392
  619SOL    HW3 2209   4.957   6.175   3.778 -2.7047  2.1096  0.1370
  619SOL    MW4 2210   4.916   6.099   3.787  0.4903 -0.4201 -0.1008
  620SOL     OW 2211   6.011   2.736   2.450  0.4116  0.0520  0.1273
  620SOL    HW2 2212   6.078   2.774   2.393 -0.3652  0.4287 -0.5594
  620SOL    HW3 2213   6.027   2.642   2.446 -0.3336 -0.0325 -1.6693
  620SOL    MW4 2214   6.022   2.728   2.442 -0.0542  0.6520 -0.8673
  621SOL     OW 2215   3.274   1.087   2.690  0.4485  0.1433  0.6321
  621SOL    HW2 2216   3.287   1.129   2.605  2.3613 -0.9555  0.3280
  621SOL    HW3 2217   3.319   1.003   2.682  1.4912  0.3963  3.0427
  621SOL    MW4 2218   3.282   1.081   2.677  0.7995 -0.3838 -0.2324
  622SOL     OW 2219   4.992   4.423   4.979 -0.2000  0.2886 -0.2086
  622SOL    HW2 2220   5.053   4.489   4.948  0.9280 -0.2907  0.7014
  622SOL    HW3 2221   4.979   4.444   5.072  0.5590 -1.0306  0.2191
  622SOL    MW4 2222   4.998   4.435   4.987 -0.3481 -0.2745 -0.3772
  623SOL     OW 2223   5.117   4.857   1.581 -0.0298  0.0856  0.4176
  623SOL    HW2 2224   5.117   4.775   1.631 -1.2921  0.5069  1.1359
  623SOL    HW3 2225   5.025   4.880   1.572  0.2410  0.7617 -0.9264
  623SOL    MW4 2226   5.105   4.849   1.586  0.4195 -0.4538 -0.3045
  624SOL     OW 2227   3.929   3.976   1.113  0.0117 -0.2276  0.3729
  624SOL    HW2 2228   4.021   3.962   1.089  0.4381 -0.0293  1.8062
  624SOL    HW3 2229   3.880   3.924   1.050  1.1011 -0.2380 -0.4960
  624SOL    MW4 2230   3.935   3.967   1.101  0.0310  0.1537 -0.3384
  625SOL     OW 2231   0.069   0.363   1.930  0.6184 -0.1463 -0.2122
  625SOL    HW2 2232   0.115   0.328   2.006  0.1653 -0.1436  0.0614
  625SOL    HW3 2233   0.064   0.289   1.869  1.2101 -0.0780 -0.3486
  625SOL    MW4 2234   0.075   0.349   1.932  0.1378  0.5935  0.0940
  626SOL     OW 2235   5.202   5.774   4.164 -0.1272 -0.1159 -0.2079
  626SOL    HW2 2236   5.172   5.693   4.124 -1.9259  0.3154  0.1564
  626SOL    HW3 2237   5.186   5.762   4.257  1.7111 -0.1671  0.1397
  626SOL    MW4 2238   5.196   5.762   4.171  0.1005 -0.9005 -0.0309
  627SOL     OW 2239   0.218   1.411   1.112  0.4015 -0.2858 -0.1864
  627SOL    HW2 2240   0.255   1.485   1.160 -0.3672  0.2068 -0.3303
  627SOL    HW3 2241   0.125   1.413   1.134  0.9546 -4.5791  4.3712
  627SOL    MW4 2242   0.211   1.421   1.121 -0.1339  0.1827  0.0398
  628SOL     OW 2243   0.255   5.167   5.534 -0.5022 -0.6948 -0.1036
  628SOL    HW2 2244   0.321   5.201   5.594 -3.7870  0.5319  3.1255
  628SOL    HW3 2245   0.218   5.092   5.579 -2.2767 -0.4842 -1.1320
  628SOL    MW4 2246   0.259   5.162   5.548 -1.0145  0.2978  0.5215
  629SOL     OW 2247   1.486   2.638   2.274 -0.2640  0.4171 -0.0503
  629SOL    HW2 2248   1.511   2.704   2.338  0.8694  1.4041 -1.4490
  629SOL    HW3 2249   1.451   2.566   2.326 -1.1319  1.9182  1.5401
  629SOL    MW4 2250   1.485   2.637   2.289  0.0801 -0.1325 -0.6707
  630SOL     OW 2251   6.149   2.442   6.359  0.3528 -0.0439 -0.3878
  630SOL    HW2 2252   6.152   2.528   6.319  0.3780  0.2607  0.2599
  630SOL    HW3 2253   6.059   2.434   6.393  0.3994 -0.1990 -0.2987
  630SOL    MW4 2254   6.137   2.452   6.358 -0.0287 -0.7652 -0.2993
  631SOL     OW 2255   4.875   4.380   3.933  0.3163 -0.2819  0.1062
  631SOL    HW2 2256   4.866   4.427   4.016  0.1661  0.5311 -0.3530
  631SOL    HW3 2257   4.949   4.423   3.889  2.1466 -2.3982  0.8977
  631SOL    MW4 2258   4.884   4.392   3.938  0.3787  0.2010 -0.3982
  632SOL     OW 2259   5.456   0.714   4.393 -0.2051  0.5856 -0.2197
  632SOL    HW2 2260   5.414   0.645   4.343 -0.7738 -0.1106  1.1468
  632SOL    HW3 2261   5.513   0.759   4.331 -0.3594 -0.6703 -1.2957
  632SOL    MW4 2262   5.458   0.711   4.378 -0.2976 -0.5769  0.1985
  633SOL     OW 2263   5.938   1.761   5.559  0.3997  0.1349  0.0025
  633SOL    HW2 2264   5.957   1.675   5.523  0.7687  0.9117 -1.7542
  633SOL    HW3 2265   5.911   1.814   5.484  0.0001  1.5087  1.0596
  633SOL    MW4 2266   5.937   1.757   5.544 -0.3516  0.5293 -0.3998
  634SOL     OW 2267   2.970   0.639   6.272  0.3574  0.1068 -0.1864
  634SOL    HW2 2268   3.010   0.721   6.300 -0.2533  0.3200  0.0832
  634SOL    HW3 2269   2.939   0.599   6.353  2.1912 -1.2439 -0.0983
  634SOL    MW4 2270   2.971   0.645   6.287 -0.3056  0.7099  0.1553
  635SOL     OW 2271   4.786   1.426   5.302 -0.1172 -0.1039 -0.0628
  635SOL    HW2 2272   4.824   1.361   5.361 -1.0624 -0.4588  0.1792
  635SOL    HW3 2273   4.813   1.397   5.214  0.5894 -0.0558  0.1381
  635SOL    MW4 2274   4.795   1.413   5.298 -0.3043  0.7108  0.7264
  636SOL     OW 2275   0.546   1.190   4.376  0.3702  0.0338  0.6208
  636SOL    HW2 2276   0.604   1.116   4.358 -0.3423 -0.5383  0.6318
  636SOL    HW3 2277   0.458   1.153   4.369 -0.0371  1.1420 -0.5762
  636SOL    MW4 2278   0.542   1.175   4.372  0.3566 -0.4941 -0.7872
  637SOL     OW 2279   2.770   2.078   3.635  0.5420  0.0610 -0.1679
  637SOL    HW2 2280   2.715   2.013   3.590  0.8546  0.0591 -0.5548
  637SOL    HW3 2281   2.793   2.036   3.717 -0.8401  0.4467  0.4525
  637SOL    MW4 2282   2.766   2.064   3.640 -0.0928  0.4581 -0.7424
  638SOL     OW 2283   4.486   0.749   2.499 -0.2138 -0.1634 -0.1291
  638SOL    HW2 2284   4.444   0.792   2.425  0.0815 -1.6628 -1.2099
  638SOL    HW3 2285   4.416   0.740   2.564 -0.9647 -0.4710 -0.9545
  638SOL    MW4 2286   4.471   0.754   2.498  0.3645 -0.0828 -0.0563
  639SOL     OW 2287   6.287   0.288   3.375  0.1657  0.1165 -0.3450
  639SOL    HW2 2288   6.363   0.235   3.349 -0.2567 -1.3208  1.1709
  639SOL    HW3 2289   6.323   0.351   3.437  0.3592  0.4393 -0.7762
  639SOL    MW4 2290   6.302   0.289   3.380  0.1495 -0.4204 -0.5956
  640SOL     OW 2291   2.771   0.549   4.510  0.3183 -0.1137  0.1789
  640SOL    HW2 2292   2.743   0.474   4.562  2.2837 -0.5486  0.6885
  640SOL    HW3 2293   2.747   0.625   4.563 -1.3365 -0.3437 -0.1708
  640SOL    MW4 2294   2.764   0.549   4.524 -0.0402  0.1250 -0.8918
  641SOL     OW 2295   2.499   3.282   5.757  0.1908 -0.3425 -0.2653
  641SOL    HW2 2296   2.445   3.256   5.683  0.2138  0.3809 -0.5446
  641SOL    HW3 2297   2.538   3.366   5.731 -0.2079  0.1873  0.7606
  641SOL    MW4 2298   2.497   3.290   5.744  0.3940 -0.4105 -0.4068
  642SOL     OW 2299   3.894   6.132   0.893  0.4996 -0.0950 -1.0071
  642SOL    HW2 2300   3.946   6.163   0.967 -1.0124  0.4309 -0.1262
  642SOL    HW3 2301   3.818   6.189   0.891  0.1149 -0.6113 -2.4931
  642SOL    MW4 2302   3.891   6.144   0.903  0.2437 -0.1792 -0.0768
  643SOL     OW 2303   6.346   0.266   0.961 -0.4613  0.8780  0.0044
  643SOL    HW2 2304   6.262   0.226   0.983 -0.1590  0.9527  1.4314
  643SOL    HW3 2305   6.354   0.256   0.867 -1.4390 -0.3914  0.0305
  643SOL    MW4 2306   6.336   0.259   0.952  0.0071  0.3890  0.0470
  644SOL     OW 2307   1.450   0.912   0.632 -0.1860 -0.6036 -0.2023
  644SOL    HW2 2308   1.425   1.004   0.622  0.3917 -0.3157  0.8888
  644SOL    HW3 2309   1.420   0.870   0.551  0.4699  0.7454 -1.1822
  644SOL    MW4 2310   1.443   0.918   0.620 -0.7376 -0.1850 -0.5300
  645SOL     OW 2311   2.821   5.083   0.813 -0.3792 -0.1417  0.2828
  645SOL    HW2 2312   2.764   5.089   0.890 -0.8288  1.6413 -0.1342
  645SOL    HW3 2313   2.906   5.116   0.844 -0.4872  0.3182  0.1012
  645SOL    MW4 2314   2.825   5.089   0.828  0.3563  0.3676 -0.6140
  646SOL     OW 2315   1.235   2.602   5.563 -0.5352 -0.2621  0.2030
  646SOL    HW2 2316   1.212   2.695   5.572 -0.5487 -0.3531  1.3543
  646SOL    HW3 2317   1.171   2.568   5.501  0.4831  0.8247 -1.5241
  646SOL    MW4 2318   1.223   2.610   5.556 -0.3010 -0.1860 -0.0644
  647SOL     OW 2319   3.580   0.621   2.772 -0.4337 -0.5509 -0.1164
  647SOL    HW2 2320   3.568   0.587   2.683  1.4737  0.0775 -0.6646
  647SOL    HW3 2321   3.585   0.543   2.827  1.2832 -1.0895 -0.9929
  647SOL    MW4 2322   3.579   0.606   2.768  0.6770  0.1390  0.1459
  648SOL     OW 2323   5.367   4.723   3.538  0.2795  0.3676 -0.6514
  648SOL    HW2 2324   5.434   4.787   3.561  0.4483  0.3910 -1.1908
  648SOL    HW3 2325   5.412   4.638   3.546  0.0693  0.3132  0.0178
  648SOL    MW4 2326   5.382   4.720   3.542  0.3049 -0.0134  0.2410
  649SOL     OW 2327   3.067   0.363   1.694 -0.2309  0.5362 -0.3177
  649SOL    HW2 2328   3.162   0.369   1.703 -0.2893  1.4350 -0.2023
  649SOL    HW3 2329   3.046   0.272   1.717  0.6696  0.1199 -1.0734
  649SOL    MW4 2330   3.076   0.352   1.698 -0.4861  0.2296 -0.0401
  650SOL     OW 2331   0.764   2.214   5.381 -0.6278 -0.9762  0.4862
  650SOL    HW2 2332   0.812   2.135   5.405  1.7974  0.6974  1.6902
  650SOL    HW3 2333   0.725   2.244   5.464 -0.3506 -0.2049  0.3450
  650SOL    MW4 2334   0.765   2.208   5.395  0.4015 -0.5208  0.1470
  651SOL     OW 2335   1.814   1.211   1.412  0.7108  0.0010  0.0185
  651SOL    HW2 2336   1.869   1.254   1.477  2.5382  0.4953 -1.7681
  651SOL    HW3 2337   1.836   1.254   1.329  0.6804 -2.5826 -1.4392
  651SOL    MW4 2338   1.824   1.223   1.410  0.1908  0.3638 -0.5479
  652SOL     OW 2339   1.992   5.028   4.961  0.3503 -0.0145  0.2234
  652SOL    HW2 2340   1.947   4.944   4.951  1.7602 -1.0014  1.6118
  652SOL    HW3 2341   1.927   5.087   4.999 -0.1501 -1.0423  1.0037
  652SOL    MW4 2342   1.978   5.025   4.965 -0.5255 -0.3729  0.2470
  653SOL     OW 2343   2.619   4.786   2.961 -0.7540 -0.3467  0.0797
  653SOL    HW2 2344   2.669   4.867   2.972 -0.6624 -0.4089  0.1250
  653SOL    HW3 2345   2.683   4.722   2.930 -1.1068 -0.0408 -1.3283
  653SOL    MW4 2346   2.634   4.788   2.959 -0.0963 -0.4663  0.3043
  654SOL     OW 2347   0.045   2.213   6.178 -0.6625  0.3886  0.7155
  654SOL    HW2 2348   0.022   2.216   6.085 -3.0820  0.7854  1.2743
  654SOL    HW3 2349   0.087   2.297   6.195 -0.6474  0.5106  0.1062
  654SOL    MW4 2350   0.047   2.224   6.168 -0.4660  0.2098  0.0221
  655SOL     OW 2351   4.662   0.237   2.617 -0.2388 -0.0118 -0.3673
  655SOL    HW2 2352   4.746   0.278   2.597  0.5859 -1.0847  0.7254
  655SOL    HW3 2353   4.642   0.184   2.540  0.2403  0.0207 -0.5169
  655SOL    MW4 2354   4.670   0.236   2.604  0.6890 -0.3878 -0.0184
  656SOL     OW 2355   1.965   6.058   4.907 -0.1915  0.0360  0.4879
  656SOL    HW2 2356   1.917   6.004   4.970  0.2520 -2.0160 -0.8224
  656SOL    HW3 2357   2.049   6.013   4.896 -0.1899  0.4085 -1.4106
  656SOL    MW4 2358   1.970   6.045   4.914  0.0377  0.0382 -0.7503
  657SOL     OW 2359   3.295   1.575   0.488 -0.2922 -0.8416 -0.2965
  657SOL    HW2 2360   3.332   1.653   0.529 -1.7980 -0.8806  1.2504
  657SOL    HW3 2361   3.350   1.503   0.519 -0.1479 -0.6172 -0.0306
  657SOL    MW4 2362   3.307   1.576   0.497 -0.2142  0.3570 -0.3394
  658SOL     OW 2363   3.863   6.048   2.517  0.1148 -0.1265  0.1792
  658SOL    HW2 2364   3.838   6.134   2.485  0.4750 -0.3438 -0.7218
  658SOL    HW3 2365   3.821   6.040   2.603  0.7463  1.2641  0.6387
  658SOL    MW4 2366   3.854   6.058   2.524 -0.0983  0.2086  0.7114
  659SOL     OW 2367   0.061   0.541   4.410  0.0932 -1.0425  0.1316
  659SOL    HW2 2368  -0.025   0.543   4.368 -0.4111  1.5653  1.0743
  659SOL    HW3 2369   0.122   0.561   4.339 -0.1254 -2.2362 -0.4101
  659SOL    MW4 2370   0.058   0.544   4.395  0.4776  0.3820  0.3851
  660SOL     OW 2371   3.255   1.395   3.973 -0.5049  0.5661 -0.6144
  660SOL    HW2 2372   3.267   1.301   3.965 -3.3496  0.1698 -1.1371
  660SOL    HW3 2373   3.339   1.427   4.007  0.2211 -2.2352  0.4863
  660SOL    MW4 2374   3.268   1.387   3.977 -0.1586 -0.1608  0.4530
  661SOL     OW 2375   2.730   0.793   1.864 -0.5865  0.0762  0.5446
  661SOL    HW2 2376   2.703   0.715   1.815 -2.5265  0.0399  1.6115
  661SOL    HW3 2377   2.823   0.804   1.841 -0.3412 -2.3511  0.1229
  661SOL    MW4 2378   2.739   0.784   1.854  0.7681  0.8828 -0.0821
  662SOL     OW 2379   5.836   0.048   5.583 -0.1044 -0.2077 -0.3791
  662SOL    HW2 2380   5.835   0.123   5.523 -2.3907  0.6409  0.5844
  662SOL    HW3 2381   5.879   0.081   5.662  2.4625 -1.1780 -1.2741
  662SOL    MW4 2382   5.841   0.062   5.585 -0.2435 -0.3378 -0.2817
  663SOL     OW 2383   5.701   6.165   4.380 -0.3141 -0.4942 -0.0603
  663SOL    HW2 2384   5.610   6.193   4.376 -0.1160  0.4283  1.2019
  663SOL    HW3 2385   5.732   6.198   4.465  1.1839 -0.7986 -0.4691
  663SOL    MW4 2386   5.693   6.173   4.391 -0.6373  0.5684  0.2923
  664SOL     OW 2387   4.332   4.022   4.487  0.5276  0.2457 -0.2115
  664SOL    HW2 2388   4.378   3.943   4.514 -1.4732 -0.5253  1.1775
  664SOL    HW3 2389   4.331   4.077   4.565  0.2297  0.8078 -0.6078
  664SOL    MW4 2390   4.338   4.019   4.501 -0.0783  0.0251  0.1294
  665SOL     OW 2391   5.996   4.664   4.865 -0.6930 -0.1019 -0.8682
  665SOL    HW2 2392   5.936   4.601   4.824 -1.4297 -0.0651  0.1145
  665SOL    HW3 2393   5.944   4.744   4.872 -0.4272  0.0241 -0.3014
  665SOL    MW4 2394   5.981   4.666   4.861 -0.2786  0.1986  0.1929
  666SOL     OW 2395   2.435   6.218   3.504  0.7284  0.0401 -0.1147
  666SOL    HW2 2396   2.512   6.192   3.454  1.8217  0.9930  0.9859
  666SOL    HW3 2397   2.471   6.250   3.587 -0.8313  0.8257  0.2939
  666SOL    MW4 2398   2.450   6.219   3.509  0.4913 -0.0404  0.2548
  667SOL     OW 2399   2.662   1.266   6.020  0.1296 -0.2164  0.3938
  667SOL    HW2 2400   2.703   1.352   6.021  2.1089 -0.9788 -2.5300
  667SOL    HW3 2401   2.580   1.279   5.974 -0.7390  0.4424  2.0272
  667SOL    MW4 2402   2.657   1.279   6.014 -0.2642 -0.0520 -0.2506
  668SOL     OW 2403   4.301   3.496   0.675 -0.0254  0.3490  0.4743
  668SOL    HW2 2404   4.250   3.439   0.617  1.3868 -1.2493  0.7331
  668SOL    HW3 2405   4.379   3.519   0.624  0.2819  0.5591  1.0360
  668SOL    MW4 2406   4.304   3.491   0.660 -0.0070 -0.3245  0.5386
  669SOL     OW 2407   6.169   5.441   0.642  0.1657 -0.1792  0.0225
  669SOL    HW2 2408   6.147   5.430   0.735 -2.2042  0.5186 -0.3898
  669SOL    HW3 2409   6.119   5.518   0.615  1.8690  0.4176 -1.5377
  669SOL    MW4 2410   6.159   5.449   0.651 -0.0283 -0.1121 -0.2277
  670SOL     OW 2411   5.179   5.755   1.469  0.3935 -0.4246  0.4580
  670SOL    HW2 2412   5.204   5.737   1.560 -1.4239 -0.8252  0.9288
  670SOL    HW3 2413   5.191   5.671   1.424 -0.7236 -0.8164  0.8524
  670SOL    MW4 2414   5.184   5.741   1.475 -0.1930 -0.5665  0.2852
  671SOL     OW 2415   5.711   5.414   1.724  0.1559 -0.0108 -0.0510
  671SOL    HW2 2416   5.696   5.471   1.649 -0.4791  0.8872  0.7200
  671SOL    HW3 2417   5.625   5.378   1.746  0.3263 -0.2464  0.2547
  671SOL    MW4 2418   5.698   5.417   1.717 -0.3160 -0.3856  0.5208
  672SOL     OW 2419   6.216   5.009   4.470 -0.1205 -0.1512  0.0238
  672SOL    HW2 2420   6.274   4.949   4.518 -0.0009  1.0472  1.4458
  672SOL    HW3 2421   6.150   5.035   4.534 -0.2112  1.1743 -0.5798
  672SOL    MW4 2422   6.215   5.004   4.485  0.2374  0.2092  0.4146
  673SOL     OW 2423   5.272   1.672   3.662 -0.3904  1.1471  0.7803
  673SOL    HW2 2424   5.362   1.642   3.653 -0.8441 -0.6564  1.7576
  673SOL    HW3 2425   5.224   1.624   3.594 -1.1685 -0.6413  2.5009
  673SOL    MW4 2426   5.278   1.662   3.652  0.0124 -0.0735  0.1566
  674SOL     OW 2427   5.723   1.455   3.223  0.3607 -0.0575  0.7992
  674SOL    HW2 2428   5.637   1.420   3.199  0.5065  0.2520 -0.2133
  674SOL    HW3 2429   5.785   1.388   3.193  0.4746 -0.5318  2.0002
  674SOL    MW4 2430   5.720   1.441   3.216 -0.5242 -0.0738 -0.0851
  675SOL     OW 2431   2.650   3.048   5.716 -0.7155 -0.7786 -0.5204
  675SOL    HW2 2432   2.634   3.140   5.740 -1.4835 -0.8150 -0.8654
  675SOL    HW3 2433   2.604   3.037   5.632  0.0159 -1.2733 -0.8663
  675SOL    MW4 2434   2.642   3.059   5.708  0.9928 -0.4569  0.0780
  676SOL     OW 2435   0.625   3.750   2.002 -0.3898 -0.0327 -0.6337
  676SOL    HW2 2436   0.717   3.726   1.995 -0.1479 -0.1016  1.9833
  676SOL    HW3 2437   0.621   3.811   2.075 -2.4400 -0.1852 -0.5561
  676SOL    MW4 2438   0.637   3.755   2.010  0.6013  0.1563  0.2521
  677SOL     OW 2439   0.666   1.301   3.721  0.1328 -0.2962  0.2694
  677SOL    HW2 2440   0.673   1.384   3.674  0.6170 -0.6075 -0.2204
  677SOL    HW3 2441   0.621   1.243   3.660  2.2333 -1.1967 -0.5128
  677SOL    MW4 2442   0.661   1.304   3.707  0.3563  0.4436  0.1658
  678SOL     OW 2443   1.425   2.816   4.006 -0.0461  0.0444 -0.0182
  678SOL    HW2 2444   1.440   2.835   4.099 -0.8102 -0.5175  0.2265
  678SOL    HW3 2445   1.330   2.814   3.996  0.0191  0.7676 -0.9649
  678SOL    MW4 2446   1.415   2.818   4.017  0.1203  0.0470 -0.1088
  679SOL     OW 2447   4.176   0.635   2.262 -0.7987 -0.5311  1.0582
  679SOL    HW2 2448   4.138   0.604   2.180 -1.5851  2.5485  0.1164
  679SOL    HW3 2449   4.263   0.666   2.238  0.3937 -2.7607  2.1797
  679SOL    MW4 2450   4.182   0.635   2.248  0.2749  0.2246 -0.6145
  680SOL     OW 2451   4.023   4.934   6.272  0.1171 -0.0698  0.1068
  680SOL    HW2 2452   3.951   4.993   6.295 -0.5867 -1.3912  1.5688
  680SOL    HW3 2453   4.086   4.989   6.226 -0.6647  1.7142  1.0584
  680SOL    MW4 2454   4.022   4.949   6.269  0.1142  0.3836 -0.1297
  681SOL     OW 2455   3.054   4.137   3.946  0.5383 -0.0562 -0.2142
  681SOL    HW2 2456   3.046   4.046   3.916  0.9169 -0.2491  0.2651
  681SOL    HW3 2457   3.032   4.189   3.869  0.7342 -0.5535 -0.6116
  681SOL    MW4 2458   3.050   4.132   3.932  1.0700 -0.3908  0.0139
  682SOL     OW 2459   5.668   2.732   0.855 -0.5281 -0.2276 -0.7675
  682SOL    HW2 2460   5.674   2.760   0.946 -4.8653  1.5845 -0.7959
  682SOL    HW3 2461   5.695   2.640   0.857  1.9232  0.4177  1.7914
  682SOL    MW4 2462   5.672   2.723   0.868 -0.2315  0.0196 -0.0972
  683SOL     OW 2463   2.023   0.309   1.791 -0.0635  0.0317 -0.3683
  683SOL    HW2 2464   1.982   0.356   1.864 -0.4600 -0.1679 -0.4605
  683SOL    HW3 2465   1.952   0.295   1.729  0.5345  1.3375 -1.3974
  683SOL    MW4 2466   2.008   0.314   1.793  0.5130 -0.6444  1.0603
  684SOL     OW 2467   5.434   4.657   0.532 -0.1251 -0.2978 -0.1924
  684SOL    HW2 2468   5.460   4.632   0.621  0.9921 -2.8523 -1.1213
  684SOL    HW3 2469   5.354   4.708   0.544  0.9707  1.0058  2.3470
  684SOL    MW4 2470   5.427   4.660   0.545  0.1624 -0.1134 -0.1682
  685SOL     OW 2471   3.983   4.105   3.735 -0.3972 -0.0504  0.3827
  685SOL    HW2 2472   4.074   4.124   3.758 -0.6626  0.7395  0.8382
  685SOL    HW3 2473   3.932   4.149   3.803 -1.1089 -1.3787  0.7441
  685SOL    MW4 2474   3.988   4.113   3.747  0.3198  0.3281  0.2641
  686SOL     OW 2475   0.251   1.575   0.900  0.1024 -0.1768  0.0405
  686SOL    HW2 2476   0.274   1.507   0.964 -1.5433  1.2065  2.2481
  686SOL    HW3 2477   0.334   1.620   0.883  1.4123 -3.0633 -2.0816
  686SOL    MW4 2478   0.265   1.572   0.906  0.0433 -0.4565  0.1394
  687SOL     OW 2479   2.337   5.689   1.574 -0.3483  0.1696 -0.3501
  687SOL    HW2 2480   2.425   5.663   1.546  0.3133  1.1404  0.7556
  687SOL    HW3 2481   2.319   5.635   1.651 -0.4942  0.3527 -0.2541
  687SOL    MW4 2482   2.347   5.679   1.580  0.0209  0.5628  0.9092
  688SOL     OW 2483   1.421   5.307   0.146 -0.0845 -0.3019  0.2870
  688SOL    HW2 2484   1.390   5.397   0.135  0.4700 -0.0609  0.6602
  688SOL    HW3 2485   1.459   5.305   0.234 -0.4080 -0.9979  0.4159
  688SOL    MW4 2486   1.422   5.318   0.156 -0.2849 -0.5981  0.0787
  689SOL     OW 2487   0.726   0.800   0.260  0.7973 -0.1833 -0.3818
  689SOL    HW2 2488   0.726   0.748   0.179 -1.4238 -2.6255  1.0126
  689SOL    HW3 2489   0.682   0.882   0.236  2.4082  0.2273 -2.1514
  689SOL    MW4 2490   0.720   0.804   0.246 -0.1636 -0.3538  0.7149
  690SOL     OW 2491   0.212   5.625   4.752 -0.5264 -0.4325  0.0304
  690SOL    HW2 2492   0.213   5.697   4.689  0.4145 -1.1694 -0.8190
  690SOL    HW3 2493   0.172   5.552   4.706 -0.2584 -0.8492  0.4473
  690SOL    MW4 2494   0.207   5.625   4.738 -0.4376 -0.3182  0.7013
  691SOL     OW 2495   6.251   0.839   4.118  0.1121  0.4905  0.1166
  691SOL    HW2 2496   6.167   0.860   4.077 -0.1098  1.3618  0.9796
  691SOL    HW3 2497   6.310   0.908   4.087  0.2000  0.5664  0.4514
  691SOL    MW4 2498   6.247   0.851   4.108  0.2151 -0.3809 -0.2074
  692SOL     OW 2499   6.092   3.751   2.991 -0.4440 -0.7524  0.1061
  692SOL    HW2 2500   6.014   3.703   2.963  0.8566 -2.3370 -1.0290
  692SOL    HW3 2501   6.092   3.830   2.937 -2.4404  0.4900  1.7644
  692SOL    MW4 2502   6.082   3.755   2.980 -0.4336  0.7512  0.6021
  693SOL     OW 2503   3.628   5.738   1.949  0.0646 -0.2536 -0.0537
  693SOL    HW2 2504   3.564   5.747   1.879 -1.8508 -0.4616  1.5796
  693SOL    HW3 2505   3.713   5.742   1.905 -1.0543 -1.2995 -2.4789
  693SOL    MW4 2506   3.631   5.740   1.934 -0.4203 -0.1607  0.1868
  694SOL     OW 2507   3.921   5.310   2.512  0.1739  0.6714 -0.3103
  694SOL    HW2 2508   3.974   5.390   2.513  0.5719  0.4546 -2.0272
  694SOL    HW3 2509   3.830   5.341   2.507  0.3889  1.1336 -3.9936
  694SOL    MW4 2510   3.916   5.325   2.512  0.8923 -0.4178  0.2700
  695SOL     OW 2511   2.079   4.284   2.449  0.0324 -0.4163 -0.0577
  695SOL    HW2 2512   2.054   4.314   2.537 -0.7604  1.3873 -0.8539
  695SOL    HW3 2513   2.134   4.354   2.415 -0.8674 -0.3916 -1.5382
  695SOL    MW4 2514   2.083   4.297   2.456  0.2718  0.2436  0.6523
  696SOL     OW 2515   1.092   2.203   2.269 -0.1085 -0.3022  0.3003
  696SOL    HW2 2516   1.078   2.269   2.201 -0.7860 -0.1280  0.6063
  696SOL    HW3 2517   1.006   2.165   2.285  0.6479 -3.3080 -1.8857
  696SOL    MW4 2518   1.079   2.207   2.263 -0.2053  0.1408 -0.0825
  697SOL     OW 2519   2.152   2.073   0.019 -0.7083  0.5119 -0.5232
  697SOL    HW2 2520   2.161   2.115   0.104 -0.6101 -2.0341  0.8262
  697SOL    HW3 2521   2.070   2.107  -0.017 -1.7095  0.3162  1.4338
  697SOL    MW4 2522   2.142   2.083   0.025  0.3276 -0.0127 -0.3364
  698SOL     OW 2523   1.907   4.561   1.089  0.1115  1.0396  0.0674
  698SOL    HW2 2524   1.939   4.477   1.122 -0.0675  0.3126 -1.4818
  698SOL    HW3 2525   1.963   4.626   1.130  2.8818 -0.0996 -1.6060
  698SOL    MW4 2526   1.918   4.558   1.099 -0.4435  0.5235 -0.7014
  699SOL     OW 2527   5.477   6.307   2.821 -0.3032 -0.4083  0.2859
  699SOL    HW2 2528   5.458   6.243   2.889 -2.5222  1.4362  1.5246
  699SOL    HW3 2529   5.394   6.319   2.776 -0.1944  2.1782  0.6466
  699SOL    MW4 2530   5.464   6.300   2.824 -0.6257 -1.0932  0.1042
  700SOL     OW 2531   4.519   3.882   3.132  0.1637  0.4250  0.1630
  700SOL    HW2 2532   4.478   3.929   3.060  0.7430  2.0773  0.8691
  700SOL    HW3 2533   4.613   3.897   3.120  0.2576  0.9494  1.3754
  700SOL    MW4 2534   4.526   3.890   3.121  0.1333  0.0403 -0.7128
  701SOL     OW 2535   4.569   1.857   0.281 -0.1369 -0.2628 -0.1990
  701SOL    HW2 2536   4.508   1.928   0.301 -1.1634 -0.9873 -0.7138
  701SOL    HW3 2537   4.648   1.879   0.331 -0.8225  0.6691  0.5027
  701SOL    MW4 2538   4.571   1.870   0.290  0.2181  0.1601 -0.5083
  702SOL     OW 2539   3.641   0.774   0.608 -0.0496 -0.0900 -0.0916
  702SOL    HW2 2540   3.661   0.687   0.574 -0.2141  0.7317 -2.4348
  702SOL    HW3 2541   3.709   0.790   0.673 -0.4609 -2.2369  0.9648
  702SOL    MW4 2542   3.652   0.764   0.612  0.1092 -0.3652  0.0608
  703SOL     OW 2543   3.099   1.285   4.233 -0.5723  0.1841 -0.2488
  703SOL    HW2 2544   3.046   1.240   4.169 -0.7289 -0.9452  0.6418
  703SOL    HW3 2545   3.176   1.315   4.184 -0.8421 -0.3637 -1.0254
  703SOL    MW4 2546   3.102   1.283   4.218  0.7398 -0.0761  0.9228
  704SOL     OW 2547   2.842   1.969   3.869  0.4156  0.3865 -0.0212
  704SOL    HW2 2548   2.908   1.999   3.931 -0.5443  3.4310 -0.2991
  704SOL    HW3 2549   2.763   2.017   3.892 -0.6814 -0.3294 -1.9991
  704SOL    MW4 2550   2.840   1.979   3.880 -0.1960  0.3223 -0.1502
  705SOL     OW 2551   0.415   2.315   5.932 -0.1811  0.4010  0.0179
  705SOL    HW2 2552   0.420   2.387   5.868 -1.6140  1.6683  1.2246
  705SOL    HW3 2553   0.380   2.241   5.882  2.0365  0.2495 -1.4364
  705SOL    MW4 2554   0.411   2.315   5.917 -0.1255  0.1667  0.3587
  706SOL     OW 2555   1.006   1.903   6.242 -0.3193 -0.4285 -0.4074
  706SOL    HW2 2556   1.043   1.826   6.285 -1.4609  0.2463  1.9344
  706SOL    HW3 2557   1.026   1.976   6.302 -0.1902  0.9552 -2.0377
  706SOL    MW4 2558   1.014   1.903   6.256 -0.3771  0.1639  0.4423
  707SOL     OW 2559   2.283   0.240   1.864  0.4832  0.0766 -0.3852
  707SOL    HW2 2560   2.307   0.315   1.918  0.2261  0.5964 -0.9681
  707SOL    HW3 2561   2.189   0.252   1.847  0.5906  0.0233 -1.0696
  707SOL    MW4 2562   2.274   0.252   1.869  0.0403 -0.0583  0.4329
  708SOL     OW 2563   1.945   1.815   2.073 -0.2116 -0.4835  0.0824
  708SOL    HW2 2564   2.004   1.742   2.055 -1.0757 -1.7585  2.0449
  708SOL    HW3 2565   1.997   1.876   2.125  1.3834  1.8125 -3.7596
  708SOL    MW4 2566   1.960   1.813   2.077  0.4283 -0.0354 -0.4229
  709SOL     OW 2567   0.048   4.799   0.702  0.1015  0.1092 -0.1296
  709SOL    HW2 2568   0.021   4.868   0.763 -1.4135  0.9434 -1.6622
  709SOL    HW3 2569   0.142   4.813   0.689  0.0171  1.2341  0.3834
  709SOL    MW4 2570   0.057   4.810   0.709 -0.0154 -0.9022  0.1836
  710SOL     OW 2571   4.382   2.595   0.258  0.1728 -0.6000 -0.4948
  710SOL    HW2 2572   4.412   2.536   0.189 -2.7192 -2.3557 -0.4247
  710SOL    HW3 2573   4.431   2.676   0.243  0.0144 -1.0085 -4.3860
  710SOL    MW4 2574   4.392   2.598   0.247  0.6752  0.6405  0.0121
  711SOL     OW 2575   3.297   0.101   4.746  0.4219  0.4536 -0.1628
  711SOL    HW2 2576   3.275   0.087   4.838  1.4908 -0.7938 -0.0598
  711SOL    HW3 2577   3.296   0.014   4.707 -0.6342  1.0262 -1.5118
  711SOL    MW4 2578   3.294   0.088   4.753 -0.3395 -0.2826  0.1788
  712SOL     OW 2579   2.237   0.300   2.996  0.6313 -0.6168 -0.0275
  712SOL    HW2 2580   2.305   0.349   2.949 -0.6642  1.2510 -0.0397
  712SOL    HW3 2581   2.183   0.367   3.037 -0.7362 -2.0915  0.6772
  712SOL    MW4 2582   2.239   0.315   2.995 -0.0385 -0.0141  0.3819
  713SOL     OW 2583   4.054   3.097   0.205 -0.7964  0.0586 -0.4336
  713SOL    HW2 2584   4.095   3.183   0.215 -0.8118 -0.0793  0.9929
  713SOL    HW3 2585   4.079   3.069   0.117 -0.0738  1.1410 -0.5956
  713SOL    MW4 2586   4.063   3.105   0.195  0.4998  0.5061 -0.0653
  714SOL     OW 2587   4.862   0.335   1.892  0.2266  0.0591  0.4625
  714SOL    HW2 2588   4.855   0.256   1.838 -0.3282  0.6724 -0.3903
  714SOL    HW3 2589   4.790   0.329   1.954  0.6610 -0.4804  0.9327
  714SOL    MW4 2590   4.852   0.324   1.893  0.1915 -0.4669 -0.1924
  715SOL     OW 2591   0.355   0.763   0.540  0.0722  0.4602  0.2200
  715SOL    HW2 2592   0.328   0.758   0.631 -0.1224 -0.4568  0.1166
  715SOL    HW3 2593   0.449   0.748   0.541  0.1324  0.8248  0.2988
  715SOL    MW4 2594   0.364   0.761   0.552 -0.0693 -0.3089  0.2152
  716SOL     OW 2595   4.375   2.064   0.292 -0.4862 -0.6014 -0.1838
  716SOL    HW2 2596   4.282   2.055   0.312 -0.8388  0.9880 -0.9176
  716SOL    HW3 2597   4.404   2.135   0.350  0.5297 -1.7254  0.7409
  716SOL    MW4 2598   4.367   2.072   0.302  0.7100  0.2154 -0.0196
  717SOL     OW 2599   3.059   4.620   3.178 -0.0638 -0.4177  0.5785
  717SOL    HW2 2600   3.075   4.695   3.120 -0.1138 -0.9269 -0.1178
  717SOL    HW3 2601   2.995   4.652   3.241  0.7974  0.4795  1.0245
  717SOL    MW4 2602   3.053   4.634   3.178 -0.4947 -0.2262 -0.2832
  718SOL     OW 2603   5.294   4.176   5.350  0.4157  0.4583  0.3662
  718SOL    HW2 2604   5.246   4.093   5.358 -0.1388  0.3704 -2.4979
  718SOL    HW3 2605   5.245   4.238   5.402 -1.5053 -0.1740 -0.6098
  718SOL    MW4 2606   5.282   4.173   5.358 -0.1829  0.2119  0.1957
  719SOL     OW 2607   2.827   2.392   5.532 -0.6921  0.0526  0.2489
  719SOL    HW2 2608   2.784   2.477   5.524 -2.0269 -0.5360  0.7234
  719SOL    HW3 2609   2.766   2.330   5.490 -0.5651 -0.8775  1.3672
  719SOL    MW4 2610   2.813   2.395   5.526 -0.6827  0.0164 -0.1467
  720SOL     OW 2611   2.261   0.093   5.872  0.0026 -0.1634 -0.2959
  720SOL    HW2 2612   2.188   0.155   5.878  2.2423  2.9713 -2.1746
  720SOL    HW3 2613   2.254   0.057   5.783 -0.8024 -2.1143  0.5042
  720SOL    MW4 2614   2.250   0.096   5.861  0.2418  0.0076 -0.7365
  721SOL     OW 2615   2.345   2.663   0.221 -0.1776  0.1926 -0.0649
  721SOL    HW2 2616   2.379   2.752   0.222 -1.6011  0.7700 -0.8272
  721SOL    HW3 2617   2.341   2.637   0.313 -2.5240  2.0448  0.4431
  721SOL    MW4 2618   2.349   2.671   0.233 -0.2955 -0.0716  0.3869
  722SOL     OW 2619   5.461   3.362   1.609 -0.0717  0.0111 -0.1390
  722SOL    HW2 2620   5.441   3.449   1.643 -1.7235  0.0247 -1.0649
  722SOL    HW3 2621   5.448   3.303   1.683  1.8824  0.5880  0.7309
  722SOL    MW4 2622   5.457   3.366   1.623 -0.0331  0.4128 -0.5220
  723SOL     OW 2623   1.984   1.361   5.278 -0.1944 -0.0429 -0.4622
  723SOL    HW2 2624   2.079   1.352   5.275 -0.0853  0.4378  0.9782
  723SOL    HW3 2625   1.951   1.273   5.259  0.5336 -0.2248 -0.9094
  723SOL    MW4 2626   1.992   1.348   5.275 -0.5670  0.1724 -0.6843
  724SOL     OW 2627   5.203   0.073   0.921  0.2633  0.2310 -0.6116
  724SOL    HW2 2628   5.176   0.130   0.849 -0.2477  0.9627  0.1415
  724SOL    HW3 2629   5.214   0.132   0.995 -0.8873 -0.7140  0.3554
  724SOL    MW4 2630   5.201   0.088   0.921  0.3416 -0.5814  0.0175
  725SOL     OW 2631   2.045   4.331   2.752 -0.3277 -0.1116  0.0722
  725SOL    HW2 2632   2.004   4.417   2.753 -0.6832 -0.2760  0.2840
  725SOL    HW3 2633   2.133   4.345   2.786 -0.4338  0.1465  0.2411
  725SOL    MW4 2634   2.051   4.344   2.757 -0.8077  0.2164 -0.2060
  726SOL     OW 2635   5.576   0.695   2.536  0.0681  0.2186 -0.1735
  726SOL    HW2 2636   5.491   0.686   2.492  0.9428  1.0669 -2.2040
  726SOL    HW3 2637   5.599   0.787   2.523  1.2546  0.0120  0.4176
  726SOL    MW4 2638   5.568   0.706   2.528  0.2302  0.2911 -0.3237
  727SOL     OW 2639   3.748   1.023   5.551 -0.0446 -0.0496 -0.0235
  727SOL    HW2 2640   3.780   1.113   5.554  0.6079 -0.2491 -0.6992
  727SOL    HW3 2641   3.738   0.998   5.643  0.0256  0.6225  0.1696
  727SOL    MW4 2642   3.751   1.031   5.564 -0.2986 -0.3033 -0.0983
  728SOL     OW 2643   4.548   0.787   4.817  0.3282 -0.5990 -0.6834
  728SOL    HW2 2644   4.462   0.763   4.782  0.3958  0.0402 -1.3345
  728SOL    HW3 2645   4.555   0.881   4.797  1.4057 -0.7722 -1.1586
  728SOL    MW4 2646   4.537   0.797   4.810 -0.2679  0.4456  0.6438
  729SOL     OW 2647   2.956   4.823   5.365 -0.0240 -0.6648  0.2508
  729SOL    HW2 2648   2.875   4.867   5.389 -0.3686 -0.9460 -0.3802
  729SOL    HW3 2649   3.002   4.886   5.310 -0.3946 -0.9893 -0.4320
  729SOL    MW4 2650   2.951   4.837   5.361  0.4224  0.0998 -0.1373
  730SOL     OW 2651   2.191   5.702   4.118  0.6044  0.1126 -0.2158
  730SOL    HW2 2652   2.158   5.738   4.200  1.3207 -1.0085  0.5929
  730SOL    HW3 2653   2.283   5.726   4.115  1.0202 -1.3305  0.1945
  730SOL    MW4 2654   2.199   5.710   4.129 -0.0701  0.2164  0.5223
  731SOL     OW 2655   0.378   6.216   1.049  0.4285  0.1756  0.6317
  731SOL    HW2 2656   0.471   6.230   1.069 -0.1524  1.2668  2.8024
  731SOL    HW3 2657   0.333   6.232   1.131 -1.9003  1.6683 -0.8317
  731SOL    MW4 2658   0.384   6.220   1.062  0.5645 -0.5044 -0.4504
  732SOL     OW 2659   0.641   2.782   6.215  0.4916 -0.3947 -0.1208
  732SOL    HW2 2660   0.650   2.817   6.303 -1.3851 -1.2030  0.4430
  732SOL    HW3 2661   0.731   2.769   6.185  1.2560 -2.4229  2.6529
  732SOL    MW4 2662   0.654   2.785   6.223 -0.0941 -0.1632 -0.2885
  733SOL     OW 2663   2.081   2.739   1.217  0.0400 -0.7046  0.3807
  733SOL    HW2 2664   2.137   2.690   1.156  0.4212 -1.2404  1.1396
  733SOL    HW3 2665   2.000   2.755   1.168  0.9639  0.3922 -0.8563
  733SOL    MW4 2666   2.077   2.734   1.202 -0.7958  0.4170 -0.1027
  734SOL     OW 2667   2.528   5.519   3.284 -0.5235 -0.1715 -0.3521
  734SOL    HW2 2668   2.545   5.430   3.255  0.2110 -0.1751  0.0562
  734SOL    HW3 2669   2.563   5.522   3.373  1.7850  1.2063 -1.2126
  734SOL    MW4 2670   2.535   5.508   3.292  0.4711  0.5638  0.2420
  735SOL     OW 2671   2.848   3.048   1.589  0.1232  0.1716  0.5544
  735SOL    HW2 2672   2.753   3.053   1.588  0.0971 -0.1521  0.8810
  735SOL    HW3 2673   2.873   3.028   1.499 -0.2060 -1.0305  0.7087
  735SOL    MW4 2674   2.839   3.046   1.577 -0.1816  0.0401  0.5955
  736SOL     OW 2675   1.247   4.244   3.347 -0.5692  0.2761  0.1688
  736SOL    HW2 2676   1.157   4.215   3.331 -0.7202  0.9399 -0.1959
  736SOL    HW3 2677   1.240   4.336   3.371 -0.0573  0.1050  1.0245
  736SOL    MW4 2678   1.234   4.252   3.348 -0.0707  0.4595  0.1217
  737SOL     OW 2679   1.111   1.110   4.093  0.8808 -0.3078 -0.0190
  737SOL    HW2 2680   1.117   1.189   4.038 -1.8882 -1.3445 -2.0363
  737SOL    HW3 2681   1.154   1.042   4.041  0.5081 -0.7736  0.2812
  737SOL    MW4 2682   1.118   1.112   4.079 -0.5051  0.1412 -0.6729
  738SOL     OW 2683   0.324   5.775   5.104 -0.4995 -0.3423 -0.1289
  738SOL    HW2 2684   0.379   5.734   5.171 -2.7484  0.5182  2.4307
  738SOL    HW3 2685   0.248   5.717   5.096 -0.2855 -0.4196 -1.9813
  738SOL    MW4 2686   0.321   5.762   5.112 -0.1807 -0.1069  0.0571
  739SOL     OW 2687   1.932   5.288   3.867 -0.0801  0.0287  0.2151
  739SOL    HW2 2688   1.944   5.382   3.854  1.3125 -0.0301  0.9027
  739SOL    HW3 2689   1.967   5.271   3.955 -0.1883 -1.1495  0.0498
  739SOL    MW4 2690   1.938   5.298   3.877 -0.0181 -0.2585 -0.3614
  740SOL     OW 2691   2.106   1.761   5.922  0.3238  0.0856  0.0573
  740SOL    HW2 2692   2.111   1.835   5.861  0.7702 -0.2118 -0.2749
  740SOL    HW3 2693   2.019   1.768   5.961  0.2185  0.5655 -0.2509
  740SOL    MW4 2694   2.096   1.772   5.919 -0.7112 -0.2899  0.3521
  741SOL     OW 2695   2.097   5.343   3.097  0.0038 -0.0804 -0.6930
  741SOL    HW2 2696   2.152   5.392   3.037  1.0063 -1.0946 -0.6456
  741SOL    HW3 2697   2.157   5.281   3.139 -0.9492 -0.3765  0.2766
  741SOL    MW4 2698   2.112   5.341   3.095  0.2381 -0.1032  0.4834
  742SOL     OW 2699   4.452   3.369   3.240  0.4349 -0.1902  0.1830
  742SOL    HW2 2700   4.467   3.368   3.334  0.0339  0.5811  0.2634
  742SOL    HW3 2701   4.486   3.285   3.209  0.5758 -0.4432  1.0093
  742SOL    MW4 2702   4.459   3.358   3.248  0.2725 -1.1015 -0.2068
  743SOL     OW 2703   0.737   2.567   0.824 -0.1771  0.0278  0.2864
  743SOL    HW2 2704   0.734   2.480   0.785 -0.8423  0.1780 -0.0112
  743SOL    HW3 2705   0.829   2.593   0.817  0.0867 -0.7626  0.6429
  743SOL    MW4 2706   0.749   2.559   0.818  0.0013 -0.0509  0.0347
  744SOL     OW 2707   5.908   5.220   0.972  0.1593  0.6670  0.3020
  744SOL    HW2 2708   5.991   5.262   0.949  1.7519 -2.9681 -1.5219
  744SOL    HW3 2709   5.869   5.197   0.887 -0.6972 -1.1215  1.1321
  744SOL    MW4 2710   5.914   5.222   0.957  0.6728 -0.5966 -0.1815
  745SOL     OW 2711   4.278   3.016   5.361  0.5068  0.8041  0.2468
  745SOL    HW2 2712   4.259   3.109   5.376 -0.0780  0.4723  1.7923
  745SOL    HW3 2713   4.206   2.985   5.307 -0.7815  0.6961  1.9220
  745SOL    MW4 2714   4.266   3.024   5.356  0.5263 -0.1688 -0.3461
  746SOL     OW 2715   2.096   4.690   3.069 -0.0059  0.2391 -0.0984
  746SOL    HW2 2716   2.013   4.706   3.023  0.8570  0.5506 -1.5946
  746SOL    HW3 2717   2.098   4.757   3.137 -0.1879  1.3846 -1.1855
  746SOL    MW4 2718   2.085   4.701   3.072 -0.4679 -0.3197  0.3525
  747SOL     OW 2719   6.144   1.221   5.294  0.2324  0.5379 -0.2072
  747SOL    HW2 2720   6.230   1.249   5.261 -0.6001  1.7618 -1.4592
  747SOL    HW3 2721   6.092   1.301   5.298 -0.5098  0.0153  1.7504
  747SOL    MW4 2722   6.149   1.235   5.290  0.4105 -0.0541 -0.1358
  748SOL     OW 2723   1.370   3.039   0.558 -0.0689 -0.1466 -0.1253
  748SOL    HW2 2724   1.306   2.981   0.600  1.7564 -1.8520  0.4617
  748SOL    HW3 2725   1.413   2.983   0.493  1.3726  0.7062  0.0751
  748SOL    MW4 2726   1.367   3.024   0.555 -0.3918 -0.5129 -0.8614
  749SOL     OW 2727   1.545   5.882   1.886  0.7612 -0.4691 -0.4647
  749SOL    HW2 2728   1.485   5.943   1.928  1.9647  0.2965  0.1977
  749SOL    HW3 2729   1.491   5.805   1.867 -0.2914 -0.0333  0.6161
  749SOL    MW4 2730   1.530   5.880   1.889  0.0373  0.8177  0.0359
  750SOL     OW 2731   0.773   2.371   4.989 -0.1959  0.9841 -0.2737
  750SOL    HW2 2732   0.817   2.346   5.070  0.4730  0.4943 -0.7887
  750SOL    HW3 2733   0.710   2.301   4.974  0.8954  0.1621 -1.1099
  750SOL    MW4 2734   0.770   2.359   4.998 -0.3512 -0.0060 -0.0995
  751SOL     OW 2735   0.662   4.266   0.424  0.5581 -0.0865  0.6616
  751SOL    HW2 2736   0.600   4.227   0.486 -0.3046 -1.1357 -0.7814
  751SOL    HW3 2737   0.636   4.231   0.339  1.4671  1.5814 -0.3692
  751SOL    MW4 2738   0.651   4.256   0.421  0.3039 -0.3137  0.1335
  752SOL     OW 2739   1.333   2.097   0.083 -0.5072  0.1629 -0.4234
  752SOL    HW2 2740   1.327   2.192   0.093 -0.2816  0.3502 -1.8284
  752SOL    HW3 2741   1.425   2.077   0.102 -0.3240  0.3650 -1.0754
  752SOL    MW4 2742   1.345   2.107   0.087  0.6043  0.0533  0.5178
  753SOL     OW 2743   2.659   4.124   4.688  0.2228 -0.1153  0.0306
  753SOL    HW2 2744   2.648   4.035   4.655 -0.5045  0.6896 -2.0078
  753SOL    HW3 2745   2.574   4.148   4.723  0.0676  0.2236 -0.5754
  753SOL    MW4 2746   2.647   4.115   4.688  0.0635  0.6374  0.0758
  754SOL     OW 2747   1.140   2.573   0.427 -0.1026  0.1033 -0.1934
  754SOL    HW2 2748   1.207   2.505   0.437  0.7299  0.8336 -0.6441
  754SOL    HW3 2749   1.059   2.530   0.452  0.5812 -0.7070  0.7103
  754SOL    MW4 2750   1.139   2.558   0.431  0.5725 -0.0735  0.1457
  755SOL     OW 2751   5.559   0.360   4.105 -0.0645  0.2574  0.4123
  755SOL    HW2 2752   5.513   0.322   4.030  0.5276 -0.5934  0.4606
  755SOL    HW3 2753   5.652   0.349   4.085  0.1181 -1.1537  1.8074
  755SOL    MW4 2754   5.565   0.353   4.093 -0.1305 -0.1462 -0.0836
  756SOL     OW 2755   4.716   1.147   5.194  0.3801  0.0620  0.5382
  756SOL    HW2 2756   4.653   1.211   5.227  0.9997  0.9920 -0.0322
  756SOL    HW3 2757   4.799   1.171   5.237  0.5871 -0.4363  0.4202
  756SOL    MW4 2758   4.719   1.159   5.204  0.1400  0.2953 -0.2808
  757SOL     OW 2759   0.273   2.348   2.861  0.0420 -0.3144  0.1230
  757SOL    HW2 2760   0.280   2.254   2.844  1.7564 -0.2592  0.2896
  757SOL    HW3 2761   0.257   2.355   2.955 -1.8345 -0.4459 -0.1504
  757SOL    MW4 2762   0.272   2.337   2.871 -0.7658  0.0809 -0.4342
  758SOL     OW 2763   4.742   0.859   6.063  0.4879 -0.6320 -0.6228
  758SOL    HW2 2764   4.737   0.849   6.158  0.4560  0.4875 -0.4935
  758SOL    HW3 2765   4.652   0.877   6.036  0.5897 -0.3570 -0.7841
  758SOL    MW4 2766   4.729   0.860   6.072 -0.2057  0.5132 -0.1653
  759SOL     OW 2767   2.628   3.661   6.419  0.1588  0.4762 -0.0743
  759SOL    HW2 2768   2.675   3.705   6.490 -1.6312  1.5103  0.5431
  759SOL    HW3 2769   2.591   3.582   6.460  0.9056 -0.0672 -0.4285
  759SOL    MW4 2770   2.629   3.656   6.434  0.1454  0.0312 -0.2430
  760SOL     OW 2771   1.268   4.247   5.909  0.0978  0.0533  0.0295
  760SOL    HW2 2772   1.178   4.258   5.941  0.2094  2.3874 -0.2697
  760SOL    HW3 2773   1.321   4.239   5.989 -0.2519 -0.0291  0.2541
  760SOL    MW4 2774   1.263   4.248   5.924  0.1743  0.3146 -0.2783
  761SOL     OW 2775   3.607   4.499   5.552 -0.1183 -0.4169  0.3502
  761SOL    HW2 2776   3.515   4.475   5.565  0.8001 -3.7603  1.3897
  761SOL    HW3 2777   3.633   4.540   5.634 -0.7995  1.3149 -0.2353
  761SOL    MW4 2778   3.598   4.501   5.564 -0.0808 -0.2996 -0.1216
  762SOL     OW 2779   3.619   5.552   6.300 -0.3852  1.2109  0.4304
  762SOL    HW2 2780   3.614   5.512   6.214 -0.2010  1.1583  0.4442
  762SOL    HW3 2781   3.713   5.558   6.319 -0.3579  2.7662 -0.0876
  762SOL    MW4 2782   3.631   5.547   6.291  0.4129 -0.2336  0.3991
  763SOL     OW 2783   0.188   0.453   3.620 -0.0725  0.2785  0.0785
  763SOL    HW2 2784   0.185   0.512   3.696  1.0715  1.9120 -1.0831
  763SOL    HW3 2785   0.262   0.395   3.639  1.0102  1.4784 -0.2724
  763SOL    MW4 2786   0.197   0.453   3.633 -0.2731  0.0627 -0.6958
  764SOL     OW 2787   3.133   5.926   0.631 -0.0633  0.1422  0.4624
  764SOL    HW2 2788   3.189   5.886   0.565 -2.4827  0.2570 -1.8371
  764SOL    HW3 2789   3.146   6.020   0.621 -0.6615  0.1707 -0.1106
  764SOL    MW4 2790   3.142   5.933   0.621 -0.6680 -0.1582 -0.5636
  765SOL     OW 2791   3.357   3.956   2.801 -0.1861 -0.2502 -0.0067
  765SOL    HW2 2792   3.272   3.998   2.815  1.3182  2.9045  0.4493
  765SOL    HW3 2793   3.397   3.953   2.888  0.9460  0.1822 -0.4966
  765SOL    MW4 2794   3.351   3.961   2.814 -0.5464 -0.1563  0.1352
  766SOL     OW 2795   2.003   4.828   0.482 -0.2194 -0.2027 -0.0741
  766SOL    HW2 2796   2.054   4.891   0.533 -0.1617 -0.8784  0.7128
  766SOL    HW3 2797   2.017   4.855   0.391 -0.6011  1.2212  0.2613
  766SOL    MW4 2798   2.012   4.840   0.477  0.0235 -0.3443  0.0949
  767SOL     OW 2799   5.285   3.126   6.266 -0.2411 -0.1320 -0.3615
  767SOL    HW2 2800   5.208   3.150   6.318  0.8980  3.7106 -0.1089
  767SOL    HW3 2801   5.320   3.049   6.310 -2.4433 -0.3820  1.1230
  767SOL    MW4 2802   5.279   3.119   6.279  0.6560 -0.2334 -0.4381
  768SOL     OW 2803   3.458   6.306   5.821 -0.3196  0.2977 -0.1714
  768SOL    HW2 2804   3.420   6.311   5.909 -0.1791  2.4986 -0.1876
  768SOL    HW3 2805   3.467   6.212   5.804 -0.9369 -0.1818  1.9013
  768SOL    MW4 2806   3.454   6.294   5.831  0.4024  0.4140 -0.2843
  769SOL     OW 2807   1.872   0.896   1.510  0.5412 -0.3156  0.5423
  769SOL    HW2 2808   1.888   0.805   1.487  2.0754  0.3128 -1.1780
  769SOL    HW3 2809   1.781   0.912   1.486  0.6797 -1.0261 -0.5234
  769SOL    MW4 2810   1.862   0.886   1.503  0.2846  0.5638  0.5263
  770SOL     OW 2811   3.304   5.098   1.704  0.0127 -0.0492 -0.9645
  770SOL    HW2 2812   3.319   5.027   1.767  0.9226  0.1897 -0.9022
  770SOL    HW3 2813   3.382   5.098   1.649  0.1946  1.1373 -0.7388
  770SOL    MW4 2814   3.316   5.089   1.705  0.2873  0.0562 -0.2775
  771SOL     OW 2815   1.701   0.824   4.561  0.3205  0.4876  0.1122
  771SOL    HW2 2816   1.641   0.749   4.566 -0.0839  0.7077 -1.1473
  771SOL    HW3 2817   1.648   0.899   4.588  0.6154  0.3824  0.9937
  771SOL    MW4 2818   1.686   0.824   4.565  0.0567 -0.3247 -0.7317
  772SOL     OW 2819   3.153   4.808   6.399 -0.1252 -0.0350  0.0592
  772SOL    HW2 2820   3.229   4.855   6.434  1.2137 -1.5336 -0.7040
  772SOL    HW3 2821   3.163   4.814   6.304  0.1922 -1.9500 -0.0684
  772SOL    MW4 2822   3.165   4.815   6.391  0.2972 -0.7555 -0.2257
  773SOL     OW 2823   1.366   2.141   1.191 -0.3818 -0.1853  0.0134
  773SOL    HW2 2824   1.395   2.216   1.139  0.7039  0.2321  1.1593
  773SOL    HW3 2825   1.445   2.109   1.233 -0.7959 -2.1402 -0.6043
  773SOL    MW4 2826   1.380   2.147   1.190 -0.5330 -0.2117 -0.0827
  774SOL     OW 2827   0.279   3.306   5.452 -0.0847  0.6854 -0.1683
  774SOL    HW2 2828   0.291   3.398   5.473  0.2993  0.6223 -0.1084
  774SOL    HW3 2829   0.192   3.285   5.484  0.6507  0.4650  1.7722
  774SOL    MW4 2830   0.269   3.315   5.459  0.5282 -0.2049  0.0661
  775SOL     OW 2831   0.187   2.894   2.285  0.2501 -0.5663 -0.0045
  775SOL    HW2 2832   0.263   2.862   2.236  1.9595 -0.2674  2.2714
  775SOL    HW3 2833   0.163   2.976   2.241 -0.7690 -2.1237 -2.5858
  775SOL    MW4 2834   0.194   2.901   2.273 -0.4771  0.0312 -0.7967
  776SOL     OW 2835   6.250   4.108   2.303 -0.5973  0.2076  0.3576
  776SOL    HW2 2836   6.343   4.125   2.284  0.6634 -1.8838  3.6480
  776SOL    HW3 2837   6.238   4.016   2.278 -1.6032  0.2914  0.5238
  776SOL    MW4 2838   6.261   4.098   2.297 -0.2020  0.0157 -0.4545
  777SOL     OW 2839   0.364   4.898   3.025  0.1926 -0.1182 -0.0662
  777SOL    HW2 2840   0.403   4.817   3.056  0.4211  0.1809  0.4336
  777SOL    HW3 2841   0.383   4.900   2.931  1.0322 -0.1698  0.0992
  777SOL    MW4 2842   0.372   4.888   3.017  0.4475  0.0612 -0.1974
  778SOL     OW 2843   1.006   4.353   4.497 -0.0369  0.0024 -0.1165
  778SOL    HW2 2844   0.975   4.406   4.570 -1.1126  0.2382 -0.7211
  778SOL    HW3 2845   0.950   4.276   4.497 -1.4875  0.9727 -1.9252
  778SOL    MW4 2846   0.994   4.350   4.506 -0.5215  0.1692 -0.0868
  779SOL     OW 2847   3.786   5.005   4.673 -0.0768  0.0448 -0.2636
  779SOL    HW2 2848   3.856   5.070   4.667 -1.3638  1.3438 -2.3300
  779SOL    HW3 2849   3.706   5.054   4.653 -1.2141 -1.9937 -0.9774
  779SOL    MW4 2850   3.785   5.020   4.670 -0.4534 -0.8162  0.1575
  780SOL     OW 2851   3.648   3.459   0.164  0.2491 -0.0349 -0.3888
  780SOL    HW2 2852   3.608   3.379   0.131  2.0672 -0.4328 -1.7671
  780SOL    HW3 2853   3.576   3.508   0.203 -0.9717 -2.1573  0.1496
  780SOL    MW4 2854   3.633   3.455   0.165  0.3139 -1.0561 -0.3433
  781SOL     OW 2855   5.628   5.448   3.996 -0.0148  0.1934  0.3393
  781SOL    HW2 2856   5.571   5.400   4.056 -1.4374  1.2501 -0.1193
  781SOL    HW3 2857   5.638   5.534   4.036  1.4782 -0.0417  0.5227
  781SOL    MW4 2858   5.622   5.453   4.009  0.0898  0.2648  0.3345
  782SOL     OW 2859   1.267   1.412   4.565  0.2516  0.4977  0.0907
  782SOL    HW2 2860   1.359   1.432   4.582  0.8065 -0.8776 -1.1321
  782SOL    HW3 2861   1.252   1.329   4.610 -0.2424  0.4393 -0.1768
  782SOL    MW4 2862   1.277   1.404   4.573 -0.4969  0.0753  0.2520
  783SOL     OW 2863   1.886   1.278   3.246 -0.1205  0.0244 -0.0701
  783SOL    HW2 2864   1.948   1.339   3.286 -0.2402 -1.6172  2.9638
  783SOL    HW3 2865   1.939   1.201   3.224 -0.5387 -0.1275 -0.5683
  783SOL    MW4 2866   1.901   1.276   3.249 -0.1035  0.4849 -0.0923
  784SOL     OW 2867   0.665   1.067   1.791 -0.3951  0.5007 -0.0388
  784SOL    HW2 2868   0.758   1.088   1.795 -0.4752  0.6150  2.2032
  784SOL    HW3 2869   0.622   1.147   1.822 -1.1727  0.0335  0.0954
  784SOL    MW4 2870   0.672   1.081   1.795  0.3716 -0.6540  0.3011
  785SOL     OW 2871   0.443   1.753   2.265 -0.0456  0.4213 -0.2371
  785SOL    HW2 2872   0.372   1.688   2.263 -0.8208  1.2669 -0.9001
  785SOL    HW3 2873   0.401   1.833   2.296  0.6067  0.9625 -0.7418
  785SOL    MW4 2874   0.428   1.755   2.269  0.1906  0.0511 -0.2761
  786SOL     OW 2875   5.426   2.781   2.828 -0.7065 -0.6699  0.1374
  786SOL    HW2 2876   5.509   2.795   2.783 -0.9337  1.6093  0.2955
  786SOL    HW3 2877   5.441   2.813   2.917 -1.5413 -0.8825  0.3709
  786SOL    MW4 2878   5.439   2.787   2.834 -0.8338  0.1052 -0.0387
  787SOL     OW 2879   0.020   0.355   4.985 -0.5198 -0.2438 -0.2335
  787SOL    HW2 2880   0.073   0.423   4.945 -1.6982  0.4839 -0.5969
  787SOL    HW3 2881  -0.062   0.398   5.009 -1.1541 -1.4420 -0.1381
  787SOL    MW4 2882   0.016   0.369   4.983 -0.0272  0.5698 -0.0676
  788SOL     OW 2883   5.670   5.887   2.607  0.5856  0.4303 -0.1135
  788SOL    HW2 2884   5.647   5.856   2.519  0.6708 -0.8310  0.2767
  788SOL    HW3 2885   5.650   5.812   2.663  0.1393  1.3590  1.0007
  788SOL    MW4 2886   5.664   5.873   2.603 -0.2972 -0.2155 -0.1528
  789SOL     OW 2887   6.110   6.309   3.103  0.2532 -0.3550 -0.2468
  789SOL    HW2 2888   6.103   6.371   3.030  0.1289 -0.6739 -0.5074
  789SOL    HW3 2889   6.204   6.298   3.116  0.2878  0.4159  0.2563
  789SOL    MW4 2890   6.122   6.316   3.095 -0.1497 -0.1403  0.3017
  790SOL     OW 2891   6.099   5.845   5.293 -0.2477  0.3354 -0.3133
  790SOL    HW2 2892   6.179   5.882   5.257 -0.5884  0.6400 -0.7721
  790SOL    HW3 2893   6.046   5.823   5.216 -0.8161  0.6196 -0.0094
  790SOL    MW4 2894   6.103   5.847   5.278  0.2497 -0.1981 -0.2171
  791SOL     OW 2895   4.261   1.689   3.234  0.5162  0.2277  0.3418
  791SOL    HW2 2896   4.245   1.779   3.208  1.6142 -0.1878 -2.0274
  791SOL    HW3 2897   4.346   1.690   3.278  0.4436  0.3664  0.4778
  791SOL    MW4 2898   4.270   1.701   3.236 -0.8706 -0.2045  0.4916
  792SOL     OW 2899   2.825   2.064   4.848 -0.0303  0.1869  0.2922
  792SOL    HW2 2900   2.801   2.120   4.774  0.6509  0.4905  0.2920
  792SOL    HW3 2901   2.906   2.021   4.820  1.6336  2.1348  1.7508
  792SOL    MW4 2902   2.833   2.066   4.835  0.2942  0.3074 -0.1369
  793SOL     OW 2903   4.686   3.742   6.420 -0.3292  0.4143  0.0857
  793SOL    HW2 2904   4.778   3.749   6.446 -0.1540  2.5347 -0.8809
  793SOL    HW3 2905   4.660   3.832   6.403 -3.4888  0.3099  3.2679
  793SOL    MW4 2906   4.695   3.755   6.421 -0.2854 -0.5253  0.4482
  794SOL     OW 2907   5.949   3.299   6.215  0.3160  0.1472 -0.1770
  794SOL    HW2 2908   5.897   3.360   6.267  0.5691  0.5034 -0.3393
  794SOL    HW3 2909   5.885   3.254   6.160  0.0652 -0.1268  0.3357
  794SOL    MW4 2910   5.934   3.301   6.214 -0.5607 -0.6555 -0.3533
  795SOL     OW 2911   1.587   1.390   5.595 -1.1236  0.8069 -0.1714
  795SOL    HW2 2912   1.625   1.360   5.513 -0.2814  0.3559  0.3639
  795SOL    HW3 2913   1.547   1.474   5.574 -2.0494  0.1092 -1.3263
  795SOL    MW4 2914   1.586   1.397   5.582  0.7464 -0.5625  0.6519
  796SOL     OW 2915   5.516   0.815   1.542  0.5760  0.2956 -0.0139
  796SOL    HW2 2916   5.591   0.849   1.590  0.2050  1.8651 -0.4868
  796SOL    HW3 2917   5.555   0.763   1.471  1.2825  1.8377 -0.8085
  796SOL    MW4 2918   5.531   0.812   1.539 -1.0219 -0.5630 -0.0069
  797SOL     OW 2919   2.432   4.510   4.404 -0.1584 -0.7302  0.5623
  797SOL    HW2 2920   2.380   4.451   4.349 -1.1542  1.0187 -0.4899
  797SOL    HW3 2921   2.387   4.595   4.397  1.8945  0.4690  0.9957
  797SOL    MW4 2922   2.419   4.514   4.396  0.0721 -0.4709 -0.1776
  798SOL     OW 2923   4.305   0.398   0.932 -0.0391 -0.3796 -0.1129
  798SOL    HW2 2924   4.263   0.432   0.853 -0.4053 -0.1592  0.1702
  798SOL    HW3 2925   4.384   0.450   0.942  0.9155 -1.5350 -1.2712
  798SOL    MW4 2926   4.310   0.409   0.923 -0.6066 -0.5466  0.0370
  799SOL     OW 2927   3.250   3.971   1.122  0.4777 -0.5593 -0.1089
  799SOL    HW2 2928   3.228   4.054   1.165 -1.0351 -0.8316 -0.3217
  799SOL    HW3 2929   3.332   3.944   1.163  0.3732  0.4588  0.8042
  799SOL    MW4 2930   3.258   3.978   1.133 -0.1207 -0.0706  0.1850
  800SOL     OW 2931   5.417   4.422   1.755 -0.3372  0.0327  0.1743
  800SOL    HW2 2932   5.383   4.338   1.787 -0.2739 -0.4407 -0.9384
  800SOL    HW3 2933   5.339   4.474   1.735 -0.4362 -0.6763 -1.4161
  800SOL    MW4 2934   5.402   4.418   1.756 -0.5149 -0.0656 -0.1495
  801SOL     OW 2935   5.161   4.216   0.106 -0.2149  0.0329  0.5870
  801SOL    HW2 2936   5.101   4.189   0.176  0.3614  0.9472  1.4519
  801SOL    HW3 2937   5.240   4.245   0.151  0.5113 -0.2011 -0.4927
  801SOL    MW4 2938   5.163   4.216   0.121  0.3052  0.6256  0.0002
  802SOL     OW 2939   1.639   5.350   0.745 -0.0189 -0.7744 -0.2661
  802SOL    HW2 2940   1.636   5.304   0.829 -0.3849 -0.8428 -0.3162
  802SOL    HW3 2941   1.605   5.437   0.764  0.9418 -0.4109 -0.1079
  802SOL    MW4 2942   1.634   5.356   0.758 -0.1477  0.9840  0.0392
  803SOL     OW 2943   2.656   5.439   1.397 -0.2021  0.3614 -0.0959
  803SOL    HW2 2944   2.648   5.345   1.409 -0.8461  0.3167 -0.7655
  803SOL    HW3 2945   2.629   5.476   1.481  1.3420 -0.0728  0.6144
  803SOL    MW4 2946   2.651   5.432   1.410  0.0838  0.2483  0.1549
  804SOL     OW 2947   5.445   0.988   2.917 -0.0639  0.1347 -0.0834
  804SOL    HW2 2948   5.413   0.968   2.829 -1.1769  0.0619  0.3212
  804SOL    HW3 2949   5.385   1.055   2.950  1.1669  1.1768  0.1254
  804SOL    MW4 2950   5.433   0.994   2.909  0.1534  0.2192 -0.0800
  805SOL     OW 2951   3.307   2.384   6.385 -0.0823 -0.2248  0.9339
  805SOL    HW2 2952   3.297   2.292   6.360 -2.4519  0.1551  0.2606
  805SOL    HW3 2953   3.250   2.395   6.461 -1.4947  1.1292 -0.2607
  805SOL    MW4 2954   3.298   2.373   6.392 -0.0896 -0.7590 -0.5211
  806SOL     OW 2955   0.008   0.467   2.635 -0.3967 -0.7823  1.3543
  806SOL    HW2 2956  -0.052   0.418   2.691 -1.7938  0.1192  0.7098
  806SOL    HW3 2957  -0.026   0.452   2.546 -0.6487  1.0110  1.1113
  806SOL    MW4 2958  -0.005   0.458   2.630  0.0992 -0.0101 -0.0306
  807SOL     OW 2959   5.573   4.558   4.216 -0.5047 -0.0033  0.3745
  807SOL    HW2 2960   5.594   4.650   4.198 -1.1205  0.2730  1.0233
  807SOL    HW3 2961   5.635   4.534   4.285  2.3167 -1.2593 -2.3543
  807SOL    MW4 2962   5.584   4.567   4.223  0.4188 -0.1863  0.1411
  808SOL     OW 2963   3.619   0.636   0.955 -0.5219 -0.4939  1.0592
  808SOL    HW2 2964   3.645   0.719   0.997 -2.5920  1.1352 -0.6650
  808SOL    HW3 2965   3.691   0.616   0.896 -0.5950  0.8572  0.4783
  808SOL    MW4 2966   3.632   0.645   0.953 -0.0514  0.3556 -0.5217
  809SOL     OW 2967   3.308   3.890   3.887 -0.4022  0.2549  0.3589
  809SOL    HW2 2968   3.254   3.909   3.964 -1.6312 -0.5787 -0.2596
  809SOL    HW3 2969   3.353   3.808   3.908 -3.1433 -1.7414 -0.9066
  809SOL    MW4 2970   3.307   3.881   3.900 -0.5380  0.0433  0.0045
  810SOL     OW 2971   0.013   1.455   5.583 -0.6608  0.6742  0.1137
  810SOL    HW2 2972  -0.046   1.505   5.527 -0.0359  0.3710 -0.8195
  810SOL    HW3 2973   0.034   1.376   5.533  0.9044  0.9910  0.2324
  810SOL    MW4 2974   0.008   1.451   5.569  0.3547  0.1708  0.2008
  811SOL     OW 2975   2.521   2.597   0.740 -0.4315  0.2915 -0.3994
  811SOL    HW2 2976   2.605   2.639   0.723 -0.4061  0.3182 -0.2093
  811SOL    HW3 2977   2.461   2.671   0.757 -0.0697  0.2169  1.3955
  811SOL    MW4 2978   2.524   2.613   0.740  0.4303 -0.5386 -0.1021
  812SOL     OW 2979   0.410   3.605   6.155  0.0344 -0.2719  0.0617
  812SOL    HW2 2980   0.478   3.550   6.117 -0.6881 -1.9541  1.0984
  812SOL    HW3 2981   0.429   3.606   6.249  0.4539  1.9018  0.0046
  812SOL    MW4 2982   0.421   3.598   6.163 -0.3436  0.0846 -0.2928
  813SOL     OW 2983   6.242   2.251   5.613 -0.3800 -0.3993  0.1597
  813SOL    HW2 2984   6.204   2.191   5.677 -2.2423 -1.1928 -1.5624
  813SOL    HW3 2985   6.166   2.288   5.567  0.8637 -0.6772 -2.2600
  813SOL    MW4 2986   6.227   2.248   5.615  0.4543  0.0430 -0.1302
  814SOL     OW 2987   1.706   5.257   2.800  0.5616 -0.0694 -0.0828
  814SOL    HW2 2988   1.621   5.214   2.791  0.8064 -0.3828 -0.9815
  814SOL    HW3 2989   1.716   5.268   2.895 -1.1207  1.3174 -0.0200
  814SOL    MW4 2990   1.696   5.253   2.811 -0.0776 -0.8189 -0.1843
  815SOL     OW 2991   0.524   4.499   1.446  0.3292  0.5529 -0.4602
  815SOL    HW2 2992   0.542   4.423   1.503 -0.2504  0.5214 -0.3110
  815SOL    HW3 2993   0.608   4.543   1.438  0.5349  0.2540 -0.0118
  815SOL    MW4 2994   0.537   4.495   1.453  0.1564 -0.1572 -0.7181
  816SOL     OW 2995   3.998   2.793   2.575 -0.1489 -0.3966  0.0081
  816SOL    HW2 2996   4.088   2.809   2.549  0.0790 -0.2184  0.8744
  816SOL    HW3 2997   3.972   2.715   2.526  0.2057  0.0104 -0.8499
  816SOL    MW4 2998   4.006   2.785   2.565  0.4228  0.0360  0.4856
  817SOL     OW 2999   2.606   5.641   0.865 -0.6876  0.8379 -0.3092
  817SOL    HW2 3000   2.683   5.593   0.898 -1.5446  0.6670  1.5948
  817SOL    HW3 3001   2.535   5.578   0.872 -1.4969  1.8206  0.4909
  817SOL    MW4 3002   2.607   5.626   0.870 -0.2992  0.4898  0.0992
  818SOL     OW 3003   1.369   5.104   5.581  0.4298 -0.2537  1.1081
  818SOL    HW2 3004   1.350   5.108   5.675  1.5581 -0.8326  1.3836
  818SOL    HW3 3005   1.464   5.116   5.576  0.3693 -0.1517  0.0303
  818SOL    MW4 3006   1.379   5.106   5.593  0.3320 -0.0397  0.2816
  819SOL     OW 3007   0.079   5.836   3.329  0.3451 -0.2499  0.8732
  819SOL    HW2 3008   0.096   5.745   3.356 -0.8719 -0.9140 -0.4742
  819SOL    HW3 3009   0.162   5.865   3.291  1.5905  0.1579  3.6064
  819SOL    MW4 3010   0.093   5.828   3.328 -0.1317 -0.2208 -0.0644
  820SOL     OW 3011   5.192   0.819   0.070 -0.1403 -0.4677 -0.6331
  820SOL    HW2 3012   5.248   0.743   0.056 -0.5796 -0.9060 -0.0094
  820SOL    HW3 3013   5.229   0.886   0.012  0.8298 -0.8478 -0.4709
  820SOL    MW4 3014   5.204   0.818   0.060  0.0852  0.3577 -0.1531
  821SOL     OW 3015   0.998   0.775   1.839 -0.3960  0.6547 -0.4378
  821SOL    HW2 3016   0.975   0.685   1.861  0.0350  0.0423 -2.3331
  821SOL    HW3 3017   1.088   0.785   1.870 -1.1129  1.1645  1.6691
  821SOL    MW4 3018   1.007   0.765   1.846 -0.1671 -0.3300 -0.5473
  822SOL     OW 3019   4.593   3.302   6.328  0.4223  0.7823 -0.3554
  822SOL    HW2 3020   4.572   3.233   6.265 -1.5224  0.1514  0.9076
  822SOL    HW3 3021   4.645   3.365   6.278  1.0083 -0.8637 -1.9283
  822SOL    MW4 3022   4.597   3.301   6.313  0.3857  0.4079  0.1542
  823SOL     OW 3023   4.463   6.357   2.462 -0.1010  0.2264 -0.3284
  823SOL    HW2 3024   4.494   6.324   2.546  0.9473  2.1397  0.0798
  823SOL    HW3 3025   4.478   6.285   2.401 -0.9859 -1.2433  1.0916
  823SOL    MW4 3026   4.469   6.343   2.465  0.2795  0.4260  0.5956
  824SOL     OW 3027   1.036   1.292   5.720  0.5692 -0.0195 -0.1742
  824SOL    HW2 3028   1.082   1.296   5.636 -1.0174  1.3257 -1.0495
  824SOL    HW3 3029   0.945   1.273   5.697  0.2996 -0.7627  1.3465
  824SOL    MW4 3030   1.030   1.290   5.706  0.3699 -0.0904  0.4420
  825SOL     OW 3031   0.897   3.306   2.894 -0.1073  0.6143  0.4676
  825SOL    HW2 3032   0.923   3.236   2.954 -1.7956 -0.5317 -0.0484
  825SOL    HW3 3033   0.911   3.387   2.942  0.3716 -0.1761  1.6914
  825SOL    MW4 3034   0.902   3.307   2.908 -0.3577 -0.9619  0.6723
  826SOL     OW 3035   3.396   1.100   4.285 -0.2406  0.1887  0.1010
  826SOL    HW2 3036   3.427   1.016   4.321  1.3571  1.1334  1.0539
  826SOL    HW3 3037   3.336   1.075   4.215  0.9195 -1.7707 -0.2791
  826SOL    MW4 3038   3.392   1.085   4.281  0.8055 -0.2032  0.1362
  827SOL     OW 3039   1.991   5.864   6.322  0.0650  0.0105  0.1736
  827SOL    HW2 3040   1.988   5.929   6.252  1.4832 -1.8347 -1.6821
  827SOL    HW3 3041   1.919   5.804   6.302 -1.1268  0.7882  1.7881
  827SOL    MW4 3042   1.981   5.865   6.310  0.4421  0.0014  0.0250
  828SOL     OW 3043   2.973   2.644   1.116  0.2665 -0.1520 -0.2522
  828SOL    HW2 3044   2.992   2.727   1.073 -1.2945 -0.4048 -1.5786
  828SOL    HW3 3045   3.057   2.599   1.122  1.1501  1.5675  0.6381
  828SOL    MW4 3046   2.987   2.649   1.111  0.5090  0.7808  0.3226
  829SOL     OW 3047   4.965   6.259   6.037 -0.0164 -0.3684 -0.2568
  829SOL    HW2 3048   4.956   6.296   5.949  1.7940 -0.1720 -0.3960
  829SOL    HW3 3049   4.930   6.171   6.030  0.5629 -0.5288 -1.3238
  829SOL    MW4 3050   4.959   6.253   6.025  0.2350 -0.0625 -0.2654
  830SOL     OW 3051   1.960   3.094   0.336 -0.0183  0.0608 -0.0623
  830SOL    HW2 3052   1.932   3.006   0.311  1.4356 -1.2324  2.3956
  830SOL    HW3 3053   2.047   3.103   0.298  0.2930 -0.0588  0.5954
  830SOL    MW4 3054   1.968   3.083   0.328  0.1184 -0.2188  0.2731
  831SOL     OW 3055   1.505   6.076   3.588  0.8279 -0.6736  0.2450
  831SOL    HW2 3056   1.537   6.112   3.670 -0.9166 -0.7466  0.9997
  831SOL    HW3 3057   1.584   6.054   3.539  1.9744  2.2837  0.5596
  831SOL    MW4 3058   1.520   6.078   3.592 -0.1570 -0.2597  0.0929
  832SOL     OW 3059   4.720   0.055   1.777  0.8301 -0.0905 -0.0119
  832SOL    HW2 3060   4.683   0.039   1.865  2.0967 -1.5547  0.3049
  832SOL    HW3 3061   4.643   0.067   1.721 -0.0810 -0.9305  0.9991
  832SOL    MW4 3062   4.705   0.054   1.782  0.5274 -0.1563  0.2456
  833SOL     OW 3063   4.754   0.804   5.208  0.7949  0.2670 -0.0384
  833SOL    HW2 3064   4.774   0.896   5.191 -1.1977  0.6633 -0.4765
  833SOL    HW3 3065   4.666   0.792   5.174  0.1167 -1.2298  2.0210
  833SOL    MW4 3066   4.745   0.815   5.201  0.4996 -0.0848  0.1995
  834SOL     OW 3067   4.675   2.231   6.230 -0.5691  0.1564 -0.4062
  834SOL    HW2 3068   4.749   2.289   6.252  0.8480 -1.3818 -0.8738
  834SOL    HW3 3069   4.599   2.288   6.231  0.5717  1.7524  0.4689
  834SOL    MW4 3070   4.675   2.246   6.233 -0.0637  0.1206  0.1989
  835SOL     OW 3071   0.439   4.821   3.717  0.3753  0.0535  0.2821
  835SOL    HW2 3072   0.483   4.837   3.800  2.5477 -2.5441 -0.1988
  835SOL    HW3 3073   0.509   4.828   3.651 -1.1646  1.4545 -1.3010
  835SOL    MW4 3074   0.454   4.824   3.719 -0.2228 -0.1931  0.5431
  836SOL     OW 3075   4.403   3.767   3.373  0.2134 -0.6180 -0.6829
  836SOL    HW2 3076   4.399   3.833   3.442  0.5433 -1.4950  0.2023
  836SOL    HW3 3077   4.427   3.816   3.294  0.0599  0.3703 -0.1294
  836SOL    MW4 3078   4.406   3.783   3.372  0.0532  0.0725 -0.3718
  837SOL     OW 3079   6.272   1.410   2.069  0.1152  0.0883  0.5594
  837SOL    HW2 3080   6.292   1.477   2.004 -0.5570 -0.7777 -0.5717
  837SOL    HW3 3081   6.348   1.353   2.069 -0.2558 -0.4235 -0.1534
  837SOL    MW4 3082   6.284   1.411   2.060  0.0890  0.2113 -0.3569
  838SOL     OW 3083   2.897   0.580   2.319 -0.0465  0.0858  0.0857
  838SOL    HW2 3084   2.820   0.606   2.370 -0.5292  0.8941 -1.0177
  838SOL    HW3 3085   2.952   0.533   2.382 -0.9656  0.3793  1.1526
  838SOL    MW4 3086   2.894   0.577   2.334  0.0203  0.3031 -0.9228
  839SOL     OW 3087   0.574   5.714   6.278 -0.2018 -0.1771  0.0705
  839SOL    HW2 3088   0.667   5.719   6.255  0.2017 -0.1307  1.6263
  839SOL    HW3 3089   0.530   5.768   6.212  0.8835 -0.0616 -0.5802
  839SOL    MW4 3090   0.580   5.722   6.266 -0.3087  0.5821  0.1055
  840SOL     OW 3091   5.232   3.681   0.725 -0.0791  0.1770 -0.5164
  840SOL    HW2 3092   5.217   3.775   0.728  2.2148  0.6139  2.4338
  840SOL    HW3 3093   5.320   3.671   0.690  0.9201 -0.5301  1.9533
  840SOL    MW4 3094   5.241   3.692   0.721  0.4782 -0.1807 -0.4158
  841SOL     OW 3095   5.588   2.110   2.328 -0.3333 -0.3797 -0.0088
  841SOL    HW2 3096   5.602   2.034   2.385 -2.4265 -1.5520 -0.9592
  841SOL    HW3 3097   5.506   2.149   2.360 -0.0159  0.6657 -0.4264
  841SOL    MW4 3098   5.579   2.105   2.340  0.7069 -0.0175 -0.5140
  842SOL     OW 3099   5.731   5.305   3.582  0.0767 -0.6690  0.1307
  842SOL    HW2 3100   5.661   5.345   3.635 -0.7667 -0.6628 -0.9522
  842SOL    HW3 3101   5.792   5.377   3.566  0.3723 -0.6795  1.1095
  842SOL    MW4 3102   5.730   5.320   3.587 -0.3702 -0.1913 -0.0861
  843SOL     OW 3103   1.755   6.079   2.124  0.1973 -0.5329  0.0989
  843SOL    HW2 3104   1.747   6.095   2.031 -0.4698 -0.5668  0.1451
  843SOL    HW3 3105   1.775   6.165   2.162  3.2041 -0.9425 -0.3417
  843SOL    MW4 3106   1.757   6.093   2.117  0.9092  0.2832  0.1521
  844SOL     OW 3107   3.475   2.027   5.144  0.1113  0.0109  0.3206
  844SOL    HW2 3108   3.551   1.972   5.124 -0.8456 -0.6593 -1.7856
  844SOL    HW3 3109   3.422   1.973   5.203 -0.0151 -0.6745 -0.3971
  844SOL    MW4 3110   3.478   2.012   5.149  0.3701  0.2166  0.5299
  845SOL     OW 3111   0.788   3.196   2.134  0.2261 -0.2195  1.5692
  845SOL    HW2 3112   0.838   3.278   2.133  0.6165 -0.3174 -2.4825
  845SOL    HW3 3113   0.697   3.224   2.123  0.4718 -0.2252 -1.1111
  845SOL    MW4 3114   0.782   3.211   2.132 -0.6529  0.2934  0.4867
  846SOL     OW 3115   3.539   0.730   3.646  0.1754 -0.5724 -0.5331
  846SOL    HW2 3116   3.627   0.691   3.647 -0.0863 -1.1674  0.2135
  846SOL    HW3 3117   3.554   0.824   3.657  0.6422 -0.8611  1.7108
  846SOL    MW4 3118   3.553   0.737   3.648 -0.2882  0.9590 -0.2948
  847SOL     OW 3119   0.622   2.131   0.905 -0.2060 -0.3024  0.5580
  847SOL    HW2 3120   0.621   2.199   0.973  0.1630  1.0616 -0.7373
  847SOL    HW3 3121   0.715   2.121   0.883 -0.4168  0.5063 -0.8690
  847SOL    MW4 3122   0.634   2.139   0.911  0.2329 -0.2658  0.4031
  848SOL     OW 3123   4.267   3.630   1.766  0.1462 -0.0617  0.1580
  848SOL    HW2 3124   4.287   3.691   1.695  1.5439 -1.6341 -0.8664
  848SOL    HW3 3125   4.173   3.642   1.781  0.4421  2.6720  0.3878
  848SOL    MW4 3126   4.257   3.639   1.758 -0.0069 -0.0813  0.2759
  849SOL     OW 3127   5.291   0.743   0.999 -0.3226  0.1772  0.2346
  849SOL    HW2 3128   5.204   0.784   0.997  0.4210  1.7701 -1.5280
  849SOL    HW3 3129   5.304   0.711   0.910  0.2255 -1.6095  0.9167
  849SOL    MW4 3130   5.281   0.744   0.987 -0.4714 -0.1343  0.6824
  850SOL     OW 3131   0.651   0.957   2.377  0.1849  0.4704  0.0040
  850SOL    HW2 3132   0.599   0.897   2.324  0.9545  0.0334 -0.2710
  850SOL    HW3 3133   0.602   0.967   2.458 -0.6323  0.5554 -0.4949
  850SOL    MW4 3134   0.638   0.950   2.381 -0.5296  0.5432 -0.6589
  851SOL     OW 3135   2.973   3.759   3.126 -0.4636  0.0388  0.1287
  851SOL    HW2 3136   3.023   3.779   3.204 -1.2053  0.6593  0.4616
  851SOL    HW3 3137   2.896   3.815   3.131  0.1961  1.2326 -1.8181
  851SOL    MW4 3138   2.969   3.769   3.137 -0.2640 -0.0931 -0.2667
  852SOL     OW 3139   1.744   5.818   0.536 -0.0157  0.3744  0.1562
  852SOL    HW2 3140   1.827   5.855   0.508 -0.4828 -1.1573 -4.0622
  852SOL    HW3 3141   1.681   5.890   0.525  0.2173  0.5007 -0.3961
  852SOL    MW4 3142   1.746   5.832   0.531 -0.3420 -0.0783  0.7623
  853SOL     OW 3143   6.177   1.256   2.733 -0.0660 -0.0227  0.4549
  853SOL    HW2 3144   6.201   1.323   2.668  1.5956  1.3286  2.3351
  853SOL    HW3 3145   6.105   1.296   2.782  0.7036  0.2646  1.3666
  853SOL    MW4 3146   6.171   1.270   2.731  0.5098  0.6387 -0.1303
  854SOL     OW 3147   1.869   2.923   3.182  0.1226  0.4112 -0.0195
  854SOL    HW2 3148   1.947   2.974   3.201  2.4323 -1.7962 -2.6660
  854SOL    HW3 3149   1.842   2.950   3.094 -1.3457  0.2063  0.3290
  854SOL    MW4 3150   1.876   2.933   3.173  0.0014 -0.8543 -0.3142
  855SOL     OW 3151   3.632   6.121   1.707 -1.1236  0.1454 -0.4569
  855SOL    HW2 3152   3.574   6.190   1.740 -0.2337  0.7022 -0.0165
  855SOL    HW3 3153   3.670   6.083   1.786 -0.8169 -0.1509 -0.7470
  855SOL    MW4 3154   3.629   6.126   1.722  0.4079  0.5866 -0.2256
  856SOL     OW 3155   0.609   0.879   0.831  0.2140  0.5626 -0.1260
  856SOL    HW2 3156   0.573   0.941   0.768 -2.3205  1.4550  2.0128
  856SOL    HW3 3157   0.653   0.933   0.896  1.3126 -0.2144 -0.1933
  856SOL    MW4 3158   0.610   0.894   0.831 -0.3551 -0.4973 -0.0551
  857SOL     OW 3159   1.165   4.946   1.194 -0.0984 -0.1453  0.0959
  857SOL    HW2 3160   1.098   4.880   1.176 -0.4007  0.1714  0.0396
  857SOL    HW3 3161   1.158   5.007   1.120  0.4713 -0.2830 -0.0762
  857SOL    MW4 3162   1.155   4.945   1.182 -0.4595  0.1159 -0.4245
  858SOL     OW 3163   2.282   3.973   2.935  0.1003  0.4235  0.3601
  858SOL    HW2 3164   2.353   4.035   2.920  2.9389 -2.5346  0.3847
  858SOL    HW3 3165   2.263   3.936   2.848  0.1871 -0.3511  0.6575
  858SOL    MW4 3166   2.289   3.976   2.922 -0.1518 -0.0795 -0.4245
  859SOL     OW 3167   3.410   4.436   0.911 -0.2832 -0.0666  0.4243
  859SOL    HW2 3168   3.363   4.516   0.936  0.5660  0.9006 -0.9482
  859SOL    HW3 3169   3.341   4.374   0.889 -0.9546  1.1049 -0.8904
  859SOL    MW4 3170   3.395   4.439   0.912  0.0515  0.1163  0.0750
  860SOL     OW 3171   0.236   1.991   6.096  0.1384 -0.1695  0.3200
  860SOL    HW2 3172   0.261   2.001   6.004  1.5192  3.0628  0.9197
  860SOL    HW3 3173   0.175   2.063   6.112 -0.9981 -1.3755  1.6914
  860SOL    MW4 3174   0.231   2.002   6.086 -0.0983  0.4092  0.0583
  861SOL     OW 3175   5.284   5.540   5.997  0.4494 -0.0609 -0.0704
  861SOL    HW2 3176   5.322   5.532   5.910 -0.3359  0.2541 -0.4546
  861SOL    HW3 3177   5.300   5.630   6.023  0.3810 -0.0568 -0.0402
  861SOL    MW4 3178   5.291   5.551   5.989  0.0549  0.0891 -0.0791
  862SOL     OW 3179   0.814   6.159   2.536  0.0552 -0.8165 -0.5242
  862SOL    HW2 3180   0.873   6.131   2.466  0.5482 -1.5576  0.1682
  862SOL    HW3 3181   0.839   6.106   2.612  1.0697  1.5467  0.8951
  862SOL    MW4 3182   0.825   6.148   2.537 -0.2601  0.5959  0.0495
  863SOL     OW 3183   3.075   1.589   0.627  0.4036  0.1054 -0.2124
  863SOL    HW2 3184   2.999   1.564   0.575 -0.5971 -0.6274  1.5174
  863SOL    HW3 3185   3.145   1.604   0.563 -0.5261 -1.5980 -1.6934
  863SOL    MW4 3186   3.074   1.588   0.612 -0.4852  0.1778 -0.0272
  864SOL     OW 3187   5.970   5.883   4.118 -0.4775 -0.3251  0.5878
  864SOL    HW2 3188   5.974   5.942   4.194 -3.1829 -0.5136  0.9707
  864SOL    HW3 3189   6.015   5.931   4.048 -1.1105  1.4986  1.3637
  864SOL    MW4 3190   5.976   5.897   4.119 -0.5773  0.7872 -0.5463
  865SOL     OW 3191   4.633   0.179   5.548 -0.6922 -0.4775 -0.2574
  865SOL    HW2 3192   4.614   0.254   5.605 -1.0638 -1.3613  0.8192
  865SOL    HW3 3193   4.553   0.167   5.497 -0.3364  0.3552 -1.0445
  865SOL    MW4 3194   4.620   0.187   5.549 -0.1260 -0.2091  0.0508
  866SOL     OW 3195   2.913   3.138   5.963  0.0142 -0.0623 -0.4956
  866SOL    HW2 3196   2.884   3.074   6.028 -2.5121  0.9156 -0.5276
  866SOL    HW3 3197   3.000   3.109   5.937  0.2393 -1.6577  1.7774
  866SOL    MW4 3198   2.921   3.126   5.968  0.0379 -0.1646  0.2746
  867SOL     OW 3199   5.575   2.915   5.242  0.2556  0.2751 -0.7027
  867SOL    HW2 3200   5.641   2.963   5.193  1.2572 -0.5910 -0.2363
  867SOL    HW3 3201   5.540   2.979   5.304  1.4635  0.4710 -0.1931
  867SOL    MW4 3202   5.579   2.930   5.244 -0.6058 -0.3930  0.1456
  868SOL     OW 3203   3.138   4.268   4.588 -0.2833  0.0839  0.1518
  868SOL    HW2 3204   3.150   4.224   4.504  1.2795  1.4344 -0.3693
  868SOL    HW3 3205   3.185   4.214   4.651 -2.1994 -1.4221  0.3808
  868SOL    MW4 3206   3.145   4.255   4.585 -0.3430  0.2393  0.7444
  869SOL     OW 3207   4.598   5.877   2.713  0.2138  0.6328  0.1665
  869SOL    HW2 3208   4.564   5.794   2.745  1.0495  0.2155  0.0106
  869SOL    HW3 3209   4.599   5.934   2.790  0.5071  0.2056  0.4826
  869SOL    MW4 3210   4.594   5.874   2.727  0.5137  0.4481  1.0790
  870SOL     OW 3211   0.332   1.139   1.176  0.4487  0.2975 -0.2457
  870SOL    HW2 3212   0.308   1.231   1.180 -1.0510 -0.0720 -0.2532
  870SOL    HW3 3213   0.276   1.096   1.241 -1.4603 -1.1000 -2.6463
  870SOL    MW4 3214   0.321   1.145   1.185  0.0719  0.0654  0.0775
  871SOL     OW 3215   4.378   4.864   0.697 -0.1802  0.6421 -0.3984
  871SOL    HW2 3216   4.359   4.831   0.610  0.0647 -0.3355 -0.0961
  871SOL    HW3 3217   4.340   4.799   0.756 -0.7749  1.5346  0.2416
  871SOL    MW4 3218   4.370   4.851   0.694  0.2646 -0.3569  0.3352
  872SOL     OW 3219   1.678   3.773   0.381  0.4668 -0.4658  1.1382
  872SOL    HW2 3220   1.626   3.695   0.401  1.0923 -1.0820  0.4405
  872SOL    HW3 3221   1.713   3.756   0.293  0.8446  0.4820  1.0953
  872SOL    MW4 3222   1.676   3.760   0.372 -0.1034  0.8676 -0.2948
  873SOL     OW 3223   0.175   5.358   0.589  0.4008 -0.3704  0.7700
  873SOL    HW2 3224   0.106   5.378   0.526  1.8523 -0.1060 -0.7853
  873SOL    HW3 3225   0.137   5.383   0.674 -0.9468  0.9426 -0.1684
  873SOL    MW4 3226   0.161   5.364   0.592 -0.1315  0.2083 -0.6513
  874SOL     OW 3227   0.058   5.230   1.782 -0.3621 -0.2516  0.1278
  874SOL    HW2 3228   0.019   5.163   1.839  0.5154 -1.8372 -1.0611
  874SOL    HW3 3229  -0.018   5.278   1.747 -1.0544 -1.0723  0.4639
  874SOL    MW4 3230   0.043   5.228   1.785 -0.4956 -0.0426 -0.0154
  875SOL     OW 3231   1.019   3.579   3.818 -0.1985  0.3001 -0.1004
  875SOL    HW2 3232   1.035   3.543   3.731  0.1971  0.5748 -0.1437
  875SOL    HW3 3233   1.016   3.674   3.805 -0.3752  0.3301  0.1467
  875SOL    MW4 3234   1.021   3.587   3.805 -0.2933  0.3878 -0.1218
  876SOL     OW 3235   0.712   5.455   5.946 -0.2839 -0.1959 -0.1475
  876SOL    HW2 3236   0.692   5.384   6.008  0.0944  1.6944  2.3133
  876SOL    HW3 3237   0.630   5.503   5.938 -0.5242 -0.8033 -1.7642
  876SOL    MW4 3238   0.698   5.452   5.953 -0.3404 -0.4885 -0.1931
  877SOL     OW 3239   4.133   2.195   6.037  0.3649 -0.3834 -0.5617
  877SOL    HW2 3240   4.111   2.222   6.126  1.8287 -1.5851  0.1969
  877SOL    HW3 3241   4.094   2.263   5.982 -0.8213  0.2290  0.9611
  877SOL    MW4 3242   4.125   2.208   6.041 -0.4093 -0.1370  0.4368
  878SOL     OW 3243   3.531   3.618   2.265 -0.2501 -0.0668  0.7337
  878SOL    HW2 3244   3.549   3.712   2.264 -0.0954 -0.0968  0.1265
  878SOL    HW3 3245   3.454   3.608   2.321 -0.8825  0.5333 -0.0143
  878SOL    MW4 3246   3.523   3.629   2.273 -0.8707 -0.0378 -0.4758
  879SOL     OW 3247   0.858   3.431   4.247 -0.0969  0.8548 -0.1086
  879SOL    HW2 3248   0.778   3.435   4.195 -0.4251 -2.7309 -0.1071
  879SOL    HW3 3249   0.828   3.411   4.336  0.7508 -0.3748 -0.0730
  879SOL    MW4 3250   0.843   3.429   4.252 -0.8713  0.0455  0.2355
  880SOL     OW 3251   2.615   3.550   4.867  0.0866 -0.2381 -0.0791
  880SOL    HW2 3252   2.654   3.507   4.944  0.4896  0.5647  0.1727
  880SOL    HW3 3253   2.540   3.494   4.844  0.3674 -0.8584  0.4777
  880SOL    MW4 3254   2.610   3.537   4.874  0.2166 -0.1345 -0.2023
  881SOL     OW 3255   0.038   5.253   6.357 -0.5329  0.1912  0.5284
  881SOL    HW2 3256   0.121   5.285   6.323  0.4124 -1.2557  1.3597
  881SOL    HW3 3257  -0.014   5.333   6.372  0.3676  1.0623 -0.7920
  881SOL    MW4 3258   0.042   5.268   6.355  0.1087  0.3307 -0.3473
  882SOL     OW 3259   3.253   1.621   2.163  0.3052 -0.0496  0.3559
  882SOL    HW2 3260   3.159   1.602   2.159  0.4908 -1.2888  1.1541
  882SOL    HW3 3261   3.260   1.692   2.227 -0.3125  2.1198 -1.8478
  882SOL    MW4 3262   3.242   1.628   2.171  0.0829  0.4700  0.2492
  883SOL     OW 3263   5.300   1.959   2.580  0.0399 -0.2051  0.0606
  883SOL    HW2 3264   5.291   2.007   2.663 -0.0840 -0.3660  0.1418
  883SOL    HW3 3265   5.229   1.894   2.583 -0.6864  0.5353 -0.6799
  883SOL    MW4 3266   5.289   1.957   2.591  0.6593  0.5173 -0.3395
  884SOL     OW 3267   3.693   2.909   1.515  0.1025 -0.0347 -0.3182
  884SOL    HW2 3268   3.786   2.899   1.536 -0.1468 -0.2496  0.7546
  884SOL    HW3 3269   3.663   2.979   1.574 -1.0167 -1.8321  1.4042
  884SOL    MW4 3270   3.701   2.917   1.526  0.7154 -0.0335  0.1434
  885SOL     OW 3271   5.226   3.793   3.007 -0.2036  0.4766  0.4336
  885SOL    HW2 3272   5.250   3.728   2.941 -0.2812 -0.1319  0.9884
  885SOL    HW3 3273   5.134   3.810   2.991 -0.2968  0.1118  0.5561
  885SOL    MW4 3274   5.217   3.786   2.996  0.7797 -0.4473 -0.0072
  886SOL     OW 3275   4.969   3.636   6.109  0.1575  0.0516  0.2190
  886SOL    HW2 3276   5.004   3.697   6.174 -0.2759  0.3050  0.2184
  886SOL    HW3 3277   4.989   3.550   6.144  2.8278  0.1326 -0.8621
  886SOL    MW4 3278   4.976   3.633   6.122  0.4513  0.0890  0.5091
  887SOL     OW 3279   2.049   1.859   0.751 -0.1587  0.1072 -0.5371
  887SOL    HW2 3280   2.094   1.906   0.821 -0.9630 -2.0278  1.5679
  887SOL    HW3 3281   2.071   1.767   0.766 -2.1731 -0.6405 -1.7139
  887SOL    MW4 3282   2.058   1.853   0.762  0.3011 -0.2654  0.0000
  888SOL     OW 3283   1.119   3.858   4.057 -0.2122  0.3653  0.1408
  888SOL    HW2 3284   1.098   3.862   3.963 -0.4538  0.3815  0.1969
  888SOL    HW3 3285   1.086   3.941   4.093 -0.1271  0.3551  0.2424
  888SOL    MW4 3286   1.112   3.870   4.049  0.5321 -0.3744  0.2967
  889SOL     OW 3287   4.743   2.900   0.714  0.0273  0.0846 -0.6653
  889SOL    HW2 3288   4.727   2.809   0.739  0.8734  0.1522  0.1889
  889SOL    HW3 3289   4.656   2.937   0.701 -0.3692 -0.5556  0.0823
  889SOL    MW4 3290   4.730   2.893   0.716  0.1168 -0.1299 -0.2547
  890SOL     OW 3291   5.691   5.999   1.966 -0.6927 -0.5283 -0.3775
  890SOL    HW2 3292   5.713   6.030   2.053 -1.1128  1.7528 -1.0301
  890SOL    HW3 3293   5.739   5.916   1.957  0.4134 -0.1409  1.4886
  890SOL    MW4 3294   5.700   5.992   1.976 -0.5431  0.1079  0.1262
  891SOL     OW 3295   2.823   5.041   4.217  0.5059 -0.6965  1.1013
  891SOL    HW2 3296   2.794   5.085   4.138  1.9480 -2.1430 -0.3183
  891SOL    HW3 3297   2.908   5.080   4.237  0.5110 -0.8941  1.4867
  891SOL    MW4 3298   2.830   5.052   4.210  1.0617 -0.4200  0.8642
  892SOL     OW 3299   0.120   5.584   3.452 -0.2363 -0.3062 -0.2008
  892SOL    HW2 3300   0.068   5.504   3.452  1.7365 -1.6826  1.1345
  892SOL    HW3 3301   0.189   5.568   3.388  0.1557  0.3310  0.0498
  892SOL    MW4 3302   0.123   5.572   3.443 -0.4415  0.1609 -0.1425
  893SOL     OW 3303   5.659   4.914   3.162 -0.2909 -0.3663  0.6289
  893SOL    HW2 3304   5.677   4.866   3.243  1.3327  1.0771  1.1854
  893SOL    HW3 3305   5.608   4.990   3.190 -1.2327 -0.7447  0.0103
  893SOL    MW4 3306   5.654   4.918   3.176 -0.2033 -0.5696  0.5689
  894SOL     OW 3307   1.776   3.263   6.066  0.0723  0.3549  0.4304
  894SOL    HW2 3308   1.765   3.293   6.157 -0.2791  0.6755  0.2859
  894SOL    HW3 3309   1.867   3.286   6.044  0.3503 -0.2808  0.9020
  894SOL    MW4 3310   1.787   3.270   6.075  0.4087  0.0633  0.3815
  895SOL     OW 3311   0.802   4.650   2.104  0.5440  0.2260 -0.4927
  895SOL    HW2 3312   0.851   4.570   2.084  0.7735 -0.2924  1.8390
  895SOL    HW3 3313   0.862   4.721   2.082  0.4879 -0.2220 -2.2234
  895SOL    MW4 3314   0.816   4.649   2.099 -0.0069 -0.1114 -0.3811
  896SOL     OW 3315   5.691   5.177   1.378  0.2312 -0.8415 -0.1726
  896SOL    HW2 3316   5.606   5.190   1.421  1.7928 -1.3247  3.4479
  896SOL    HW3 3317   5.692   5.084   1.355 -0.1430 -0.8850 -0.0222
  896SOL    MW4 3318   5.680   5.166   1.381  0.3460 -0.5940 -0.3906
  897SOL     OW 3319   2.492   5.621   3.013  0.0392 -0.1124  0.3324
  897SOL    HW2 3320   2.490   5.587   3.102  0.9799  1.1213  0.8460
  897SOL    HW3 3321   2.574   5.589   2.977  0.8209  1.3640  0.7417
  897SOL    MW4 3322   2.502   5.612   3.020 -0.4343  0.6495  0.4026
  898SOL     OW 3323   2.502   0.758   5.005  0.7116 -0.5690  0.3366
  898SOL    HW2 3324   2.428   0.766   4.945  1.9181  0.8793 -1.0486
  898SOL    HW3 3325   2.560   0.693   4.964  0.4899 -1.2774  1.1228
  898SOL    MW4 3326   2.500   0.750   4.992  0.8097  0.0556  0.6754
  899SOL     OW 3327   5.976   0.580   3.595  1.1930 -0.3633 -0.0757
  899SOL    HW2 3328   6.012   0.668   3.610 -0.2441  0.0765  0.9763
  899SOL    HW3 3329   5.956   0.548   3.683 -0.9366 -0.5948 -0.6085
  899SOL    MW4 3330   5.978   0.588   3.609  0.1675  0.0206  0.1253
  900SOL     OW 3331   5.166   0.595   4.733  0.2470 -0.7740 -0.1784
  900SOL    HW2 3332   5.213   0.528   4.684  1.9419  0.2568 -0.0614
  900SOL    HW3 3333   5.235   0.640   4.783 -0.9319  0.5804  0.2887
  900SOL    MW4 3334   5.181   0.592   4.733 -0.1944 -0.0007 -0.2807
  901SOL     OW 3335   5.612   5.567   5.428 -0.0177 -0.2349 -0.8557
  901SOL    HW2 3336   5.661   5.575   5.510  0.5308  0.3218 -1.2335
  901SOL    HW3 3337   5.532   5.520   5.453 -0.9830  1.9645  0.4691
  901SOL    MW4 3338   5.607   5.562   5.442  0.2291 -0.7628 -0.8250
  902SOL     OW 3339   5.305   5.913   3.796 -1.1216 -0.2750  0.4674
  902SOL    HW2 3340   5.353   5.991   3.769 -2.3630  0.6912  0.9635
  902SOL    HW3 3341   5.233   5.907   3.733  0.9164 -3.1911 -1.9198
  902SOL    MW4 3342   5.302   5.922   3.784  0.3032  0.2792 -0.3440
  903SOL     OW 3343   2.536   0.235   5.870  0.5406  0.0025  0.5133
  903SOL    HW2 3344   2.461   0.212   5.816  1.3624  0.5581 -0.9057
  903SOL    HW3 3345   2.504   0.225   5.960 -1.4377  0.8787 -0.0378
  903SOL    MW4 3346   2.522   0.231   5.875 -0.7998  0.3379  0.3435
  904SOL     OW 3347   0.480   2.313   6.206 -0.2309 -0.2376  0.2503
  904SOL    HW2 3348   0.457   2.311   6.113 -1.2505  0.2866  0.4807
  904SOL    HW3 3349   0.398   2.331   6.251  0.6849  2.2133  1.0969
  904SOL    MW4 3350   0.466   2.315   6.200 -1.1114 -0.0375  0.2131
  905SOL     OW 3351   4.837   3.494   5.508  0.8165 -0.4308 -0.0601
  905SOL    HW2 3352   4.880   3.436   5.570  4.4487  0.0738 -1.8490
  905SOL    HW3 3353   4.807   3.435   5.438  1.9731 -0.4755 -0.5389
  905SOL    MW4 3354   4.838   3.478   5.507 -0.2030  0.4038  0.3809
  906SOL     OW 3355   0.535   3.845   0.270 -0.7096 -0.1717 -0.2447
  906SOL    HW2 3356   0.520   3.754   0.296 -1.0023 -0.2615 -0.7172
  906SOL    HW3 3357   0.579   3.884   0.346 -2.1534 -0.2542  0.6780
  906SOL    MW4 3358   0.539   3.838   0.284  0.6242 -0.3217 -0.2666
  907SOL     OW 3359   4.696   2.624   3.238 -0.1183 -0.7328  0.4377
  907SOL    HW2 3360   4.766   2.571   3.199  0.5193  0.9759 -0.9019
  907SOL    HW3 3361   4.623   2.614   3.178 -0.9613 -2.1845  1.6217
  907SOL    MW4 3362   4.696   2.616   3.225 -0.4712  0.4416 -0.2526
  908SOL     OW 3363   0.838   4.297   1.601 -0.0179  0.1210 -0.1699
  908SOL    HW2 3364   0.782   4.368   1.635 -2.6235 -1.3057 -1.1580
  908SOL    HW3 3365   0.813   4.289   1.509  0.3415 -1.9139 -0.1303
  908SOL    MW4 3366   0.827   4.305   1.594  0.2568 -0.1379  0.0976
  909SOL     OW 3367   2.188   4.997   5.758 -0.0620  0.1511 -0.2136
  909SOL    HW2 3368   2.138   4.917   5.771 -0.4533  0.0476 -2.0889
  909SOL    HW3 3369   2.275   4.977   5.791 -0.7857 -0.1964  1.6201
  909SOL    MW4 3370   2.193   4.984   5.764 -0.6521 -0.0637  0.1848
  910SOL     OW 3371   2.228   2.076   3.728 -0.2836  0.1120  0.1925
  910SOL    HW2 3372   2.194   2.124   3.803  1.7094  0.7880  0.7211
  910SOL    HW3 3373   2.233   2.141   3.658  1.4716  0.4840  0.6202
  910SOL    MW4 3374   2.224   2.091   3.729 -0.4987  0.5707 -0.6019
  911SOL     OW 3375   1.235   2.604   1.335  0.2668 -0.5210  0.2403
  911SOL    HW2 3376   1.262   2.515   1.359 -0.0462 -0.9680 -0.9684
  911SOL    HW3 3377   1.259   2.611   1.243  0.9125  0.9037  0.4956
  911SOL    MW4 3378   1.242   2.593   1.326  0.4442  0.1815  0.3655
  912SOL     OW 3379   4.059   5.861   2.424  0.0398 -0.1876  0.5513
  912SOL    HW2 3380   4.058   5.786   2.484  0.5859  0.0853  0.9154
  912SOL    HW3 3381   3.988   5.917   2.455 -1.5430 -1.3581 -0.8068
  912SOL    MW4 3382   4.049   5.859   2.436 -0.0251 -0.3750 -0.4183
  913SOL     OW 3383   4.652   5.054   6.308  0.6126 -0.0936  0.1078
  913SOL    HW2 3384   4.621   4.964   6.303  2.0109 -0.5793 -0.4347
  913SOL    HW3 3385   4.744   5.049   6.281  0.1170  1.8091 -2.3551
  913SOL    MW4 3386   4.660   5.041   6.304  0.5109 -0.4472 -0.3974
  914SOL     OW 3387   3.611   5.150   2.306 -0.3997 -0.3395  0.1505
  914SOL    HW2 3388   3.531   5.107   2.336 -0.6284  0.1161  0.1962
  914SOL    HW3 3389   3.679   5.118   2.366 -0.9955  1.2040  1.7133
  914SOL    MW4 3390   3.609   5.140   2.318  0.0058  0.1260 -0.4551
  915SOL     OW 3391   0.449   5.290   4.828 -0.6546 -0.6356  0.0537
  915SOL    HW2 3392   0.361   5.254   4.843 -1.1147  0.8402  1.0855
  915SOL    HW3 3393   0.436   5.356   4.760 -0.0162 -1.5622 -1.0039
  915SOL    MW4 3394   0.436   5.294   4.821 -0.2005 -0.1805 -0.0648
  916SOL     OW 3395   3.065   2.376   4.632 -0.0118  0.0128 -0.4199
  916SOL    HW2 3396   3.104   2.293   4.660 -1.0470 -0.6347 -0.8120
  916SOL    HW3 3397   2.977   2.352   4.603 -0.3427  1.2635 -0.5114
  916SOL    MW4 3398   3.059   2.362   4.632  0.1374  0.1933  0.2110
  917SOL     OW 3399   3.358   4.234   1.495  0.7496  0.0848  0.0381
  917SOL    HW2 3400   3.429   4.212   1.435  1.8314  0.6821  1.0501
  917SOL    HW3 3401   3.337   4.325   1.474  0.0919 -0.1676 -0.4279
  917SOL    MW4 3402   3.365   4.243   1.484 -0.4524 -0.0072  0.0247
  918SOL     OW 3403   2.038   4.893   4.015 -0.1756  0.6560 -0.0751
  918SOL    HW2 3404   2.128   4.861   4.009 -0.6248 -0.6031 -0.4358
  918SOL    HW3 3405   1.984   4.815   4.004 -1.3317  1.4836 -0.4727
  918SOL    MW4 3406   2.043   4.878   4.013 -0.2327  0.8527  0.0786
  919SOL     OW 3407   4.759   0.554   2.250 -0.1384  0.4923  0.2055
  919SOL    HW2 3408   4.707   0.619   2.205 -0.0856  2.2406  2.4670
  919SOL    HW3 3409   4.762   0.584   2.341  0.9724 -2.0019  1.1025
  919SOL    MW4 3410   4.753   0.566   2.256 -0.5859  0.3306  0.9159
  920SOL     OW 3411   0.990   5.850   4.287 -0.0941 -0.5654  0.0361
  920SOL    HW2 3412   0.995   5.909   4.212 -0.1708 -1.6542 -0.8596
  920SOL    HW3 3413   1.079   5.846   4.320 -0.1974  0.5071  0.4971
  920SOL    MW4 3414   1.002   5.857   4.281 -1.0116  0.2996  0.1666
  921SOL     OW 3415   3.667   1.746   4.421  0.2371 -0.1450  0.2508
  921SOL    HW2 3416   3.644   1.726   4.512  0.0146 -0.0972  0.2046
  921SOL    HW3 3417   3.761   1.726   4.416 -0.1314 -1.9623 -0.0144
  921SOL    MW4 3418   3.677   1.741   4.433  0.0826 -0.4677  0.0932
  922SOL     OW 3419   6.044   6.098   2.825  0.7013  0.2845  0.3501
  922SOL    HW2 3420   6.009   6.059   2.745  0.9136  0.0067  0.3907
  922SOL    HW3 3421   5.966   6.123   2.876  0.5580  1.7220 -0.5334
  922SOL    MW4 3422   6.029   6.096   2.821  0.2524  0.1156  0.5089
  923SOL     OW 3423   2.776   4.531   5.528 -1.0275  0.2373  0.0559
  923SOL    HW2 3424   2.721   4.456   5.553 -2.7052  1.1569 -0.7315
  923SOL    HW3 3425   2.858   4.491   5.497 -1.5729 -1.2250  0.4197
  923SOL    MW4 3426   2.780   4.516   5.527  0.3152 -0.3101  0.3594
  924SOL     OW 3427   4.867   3.464   2.591 -0.2276 -0.1613  0.3751
  924SOL    HW2 3428   4.961   3.481   2.591 -0.4297  1.1834 -0.9278
  924SOL    HW3 3429   4.827   3.548   2.615 -1.1227 -0.1199 -1.0968
  924SOL    MW4 3430   4.874   3.477   2.594 -0.0684 -0.0032 -0.0959
  925SOL     OW 3431   1.306   2.130   4.174  0.1640  0.4540  0.1068
  925SOL    HW2 3432   1.270   2.079   4.101 -0.6626  0.4034  0.5362
  925SOL    HW3 3433   1.229   2.169   4.216  0.8170  2.4870 -0.5102
  925SOL    MW4 3434   1.291   2.128   4.170 -0.3454 -0.5145 -0.4118
  926SOL     OW 3435   3.015   1.018   4.132 -0.1015  0.1046 -0.6623
  926SOL    HW2 3436   2.991   0.992   4.043 -2.5945 -1.7566  0.4472
  926SOL    HW3 3437   3.057   0.941   4.169  0.1951  0.5890  0.0273
  926SOL    MW4 3438   3.017   1.005   4.125 -0.2012  0.6426 -0.1912
  927SOL     OW 3439   1.259   0.687   2.218  0.4924 -0.1508  0.0961
  927SOL    HW2 3440   1.211   0.758   2.262 -0.8589 -1.1906  0.3760
  927SOL    HW3 3441   1.263   0.713   2.127  1.5490  1.0854  0.4657
  927SOL    MW4 3442   1.253   0.700   2.212  0.3424 -0.1257 -0.6812
  928SOL     OW 3443   2.695   3.195   4.844 -0.6506 -0.1480  0.0535
  928SOL    HW2 3444   2.691   3.244   4.926 -3.9004  1.2872 -0.7788
  928SOL    HW3 3445   2.663   3.108   4.866 -0.0467 -0.2461  0.5657
  928SOL    MW4 3446   2.690   3.190   4.857  0.5750  0.3003  0.1124
  929SOL     OW 3447   5.107   3.150   6.028  0.8404  0.0943  0.2454
  929SOL    HW2 3448   5.019   3.190   6.026  1.4756  1.5443 -0.0137
  929SOL    HW3 3449   5.132   3.153   6.121  1.0926  0.8198  0.1639
  929SOL    MW4 3450   5.098   3.156   6.040 -0.4317 -0.1918 -0.3553
  930SOL     OW 3451   6.076   5.604   0.428  0.5428  0.0270 -0.1706
  930SOL    HW2 3452   6.007   5.538   0.423  0.8814 -0.2348 -2.5166
  930SOL    HW3 3453   6.029   5.687   0.437 -0.0533 -0.2337 -0.7974
  930SOL    MW4 3454   6.060   5.606   0.429  0.5698  0.4775  0.6719
  931SOL     OW 3455   2.658   0.852   2.284 -0.0267 -0.1043  0.0747
  931SOL    HW2 3456   2.594   0.856   2.213  1.8515 -0.5745 -1.7381
  931SOL    HW3 3457   2.724   0.916   2.260  0.2881  0.2889  1.8454
  931SOL    MW4 3458   2.658   0.861   2.271 -0.0290 -0.5694  0.5561
  932SOL     OW 3459   2.820   0.440   3.423 -0.3289 -0.3664  0.0371
  932SOL    HW2 3460   2.818   0.460   3.517 -3.7547  1.3407 -0.2550
  932SOL    HW3 3461   2.872   0.511   3.385 -0.3210 -0.1433  0.4573
  932SOL    MW4 3462   2.827   0.452   3.431 -0.4338  0.1707  0.1698
  933SOL     OW 3463   0.312   4.621   0.079 -0.1228 -0.7045 -0.1609
  933SOL    HW2 3464   0.219   4.642   0.072  0.4195  1.8654 -0.8696
  933SOL    HW3 3465   0.333   4.638   0.171 -0.3464 -1.2300 -0.0138
  933SOL    MW4 3466   0.302   4.626   0.090 -0.7055 -0.0831 -0.1273
  934SOL     OW 3467   0.498   3.204   2.156 -0.0357  0.8846 -0.0888
  934SOL    HW2 3468   0.512   3.254   2.237  0.8517  1.9593 -0.8696
  934SOL    HW3 3469   0.419   3.241   2.118 -0.7510  0.0297  0.5075
  934SOL    MW4 3470   0.489   3.215   2.162 -0.1554  0.6512  0.1424
  935SOL     OW 3471   5.114   5.941   2.125 -0.0616 -0.0982 -0.1107
  935SOL    HW2 3472   5.165   5.992   2.188  1.4353 -0.3808 -1.0371
  935SOL    HW3 3473   5.063   6.005   2.077  1.2000  0.4817 -0.7255
  935SOL    MW4 3474   5.114   5.956   2.127  0.1230  0.0387 -0.0325
  936SOL     OW 3475   3.652   3.318   1.347 -0.0707 -0.3068 -0.3683
  936SOL    HW2 3476   3.689   3.305   1.435  0.8265 -1.9733 -0.9507
  936SOL    HW3 3477   3.562   3.287   1.355  0.2678 -1.3077 -0.2253
  936SOL    MW4 3478   3.645   3.312   1.360 -0.0601 -0.4277 -0.1693
  937SOL     OW 3479   2.693   5.569   4.871 -0.2034  0.3399  0.0741
  937SOL    HW2 3480   2.610   5.554   4.918 -1.0607 -1.0783 -1.7776
  937SOL    HW3 3481   2.718   5.482   4.840  2.2697  0.6633  0.9649
  937SOL    MW4 3482   2.685   5.556   4.873 -0.0744 -0.3886 -0.3642
  938SOL     OW 3483   5.267   1.029   6.354  1.0907  0.0191  0.0681
  938SOL    HW2 3484   5.267   1.080   6.435 -1.6976 -0.3327  0.4040
  938SOL    HW3 3485   5.332   1.071   6.299  2.7421  0.5486  2.2940
  938SOL    MW4 3486   5.275   1.041   6.357  0.1369 -0.0385  0.2059
  939SOL     OW 3487   5.176   2.242   5.507  0.1377 -0.1248 -0.2350
  939SOL    HW2 3488   5.201   2.333   5.493 -1.1395  0.5055  1.3355
  939SOL    HW3 3489   5.133   2.241   5.592 -0.1911 -2.1421 -0.3689
  939SOL    MW4 3490   5.174   2.254   5.516  0.0351  0.1063 -0.3034
  940SOL     OW 3491   4.319   2.507   3.256  0.5028  0.1329 -0.1308
  940SOL    HW2 3492   4.251   2.453   3.216  0.4901 -0.5855  0.8155
  940SOL    HW3 3493   4.275   2.549   3.330  0.9482  0.0802  0.1664
  940SOL    MW4 3494   4.304   2.506   3.260 -0.4559  1.0393  0.3614
  941SOL     OW 3495   5.682   0.085   5.166 -0.3342 -0.2368  0.5389
  941SOL    HW2 3496   5.668   0.005   5.218 -2.3690  0.5549  1.3020
  941SOL    HW3 3497   5.615   0.146   5.197  0.8931  1.6395 -0.3337
  941SOL    MW4 3498   5.671   0.082   5.177  0.7792  0.2115 -0.3308
  942SOL     OW 3499   2.153   5.093   1.307 -0.2412 -0.6255 -0.3257
  942SOL    HW2 3500   2.079   5.071   1.250 -0.1309  1.4744 -1.3837
  942SOL    HW3 3501   2.180   5.180   1.278  0.7882 -0.1053  1.9932
  942SOL    MW4 3502   2.147   5.101   1.295  0.4013 -0.2151  0.4411
  943SOL     OW 3503   5.532   2.779   0.551 -0.0411 -0.0056 -0.0969
  943SOL    HW2 3504   5.625   2.792   0.567 -0.2693  1.4317  0.1775
  943SOL    HW3 3505   5.510   2.841   0.481 -0.7706 -0.3982 -0.2328
  943SOL    MW4 3506   5.541   2.789   0.544  0.2088  0.1430 -0.4657
  944SOL     OW 3507   0.838   2.024   1.585 -0.2494  0.0043  0.0438
  944SOL    HW2 3508   0.929   2.048   1.598 -0.7125  1.4549  0.7584
  944SOL    HW3 3509   0.822   1.955   1.650  0.5979 -1.0322 -0.8063
  944SOL    MW4 3510   0.848   2.018   1.595 -0.0505  0.0523  0.0275
  945SOL     OW 3511   6.110   4.787   0.904 -0.1053 -0.5602 -0.3277
  945SOL    HW2 3512   6.200   4.777   0.936 -1.2016 -0.8719  3.0688
  945SOL    HW3 3513   6.078   4.697   0.893 -0.5494 -0.4946  0.3463
  945SOL    MW4 3514   6.117   4.774   0.907  0.2842  0.0049  0.1340
  946SOL     OW 3515   0.856   6.257   1.670  0.1628 -1.1793 -0.5119
  946SOL    HW2 3516   0.917   6.283   1.602 -1.3754 -0.6862 -1.7589
  946SOL    HW3 3517   0.854   6.331   1.731  0.8980 -1.2642 -0.3771
  946SOL    MW4 3518   0.864   6.270   1.669 -0.0261 -0.6254 -0.5261
  947SOL     OW 3519   3.688   6.213   0.517 -0.0741 -0.0635 -0.2158
  947SOL    HW2 3520   3.749   6.159   0.466 -0.3486  0.1357 -0.7642
  947SOL    HW3 3521   3.744   6.276   0.563  0.1378  0.1489 -0.7505
  947SOL    MW4 3522   3.704   6.214   0.516 -0.0342 -0.2528  0.4691
  948SOL     OW 3523   2.640   5.654   2.382  0.7627 -0.1433  0.3116
  948SOL    HW2 3524   2.655   5.747   2.367 -1.6024  0.6896  2.5294
  948SOL    HW3 3525   2.686   5.635   2.463  0.6050 -0.7313  0.2665
  948SOL    MW4 3526   2.648   5.664   2.391 -0.3551 -1.0697 -0.3825
  949SOL     OW 3527   2.914   2.972   4.060  0.1709  0.0270  0.2492
  949SOL    HW2 3528   2.944   2.903   4.119 -1.5734 -0.1968  0.9466
  949SOL    HW3 3529   2.856   3.026   4.113 -1.3752 -0.1137 -1.1877
  949SOL    MW4 3530   2.910   2.970   4.075  0.3161  0.6689  0.0923
  950SOL     OW 3531   4.406   4.040   0.642  0.2963  0.2733  0.1635
  950SOL    HW2 3532   4.341   3.993   0.590 -2.4689  1.8364  1.9526
  950SOL    HW3 3533   4.430   3.978   0.711  0.6154 -0.2572 -0.4146
  950SOL    MW4 3534   4.401   4.025   0.644  0.1126 -0.8407 -0.8829
  951SOL     OW 3535   4.074   4.557   5.646  0.7062 -0.4991 -0.1102
  951SOL    HW2 3536   4.024   4.544   5.565  0.1209 -0.0418  0.1683
  951SOL    HW3 3537   4.164   4.534   5.623  0.4190 -1.0679 -0.6984
  951SOL    MW4 3538   4.079   4.552   5.632 -0.0133  0.0214  0.3857
  952SOL     OW 3539   2.528   3.273   3.692  0.1306  0.2225 -0.4627
  952SOL    HW2 3540   2.449   3.327   3.697 -0.7972 -1.0427 -0.7889
  952SOL    HW3 3541   2.550   3.253   3.783 -0.8417 -0.6560 -0.4026
  952SOL    MW4 3542   2.521   3.278   3.705 -0.4308  0.4489 -0.2042
  953SOL     OW 3543   5.449   1.151   6.009 -0.5542 -0.1923  0.1365
  953SOL    HW2 3544   5.385   1.184   5.945 -1.3747 -2.6396 -0.4328
  953SOL    HW3 3545   5.439   1.056   6.005  1.8107 -0.5651  1.4657
  953SOL    MW4 3546   5.439   1.143   6.000  0.1275 -0.1253 -0.1931
  954SOL     OW 3547   2.346   1.218   5.628 -0.3589  0.1567 -0.2562
  954SOL    HW2 3548   2.252   1.221   5.646 -0.5772 -3.2839 -0.1775
  954SOL    HW3 3549   2.387   1.235   5.712 -0.9815 -0.3951  0.1693
  954SOL    MW4 3550   2.339   1.221   5.641  0.0132 -0.2950 -0.0945
  955SOL     OW 3551   0.627   2.016   3.621  0.0473 -0.0615 -0.3485
  955SOL    HW2 3552   0.608   1.930   3.585 -0.1408 -0.1951  0.0641
  955SOL    HW3 3553   0.714   2.007   3.661 -0.1487 -0.1793  0.0589
  955SOL    MW4 3554   0.636   2.003   3.622 -0.1939 -0.6794  0.1876
  956SOL     OW 3555   6.226   2.424   4.220 -0.0330  0.1272  0.3212
  956SOL    HW2 3556   6.273   2.429   4.303  2.7488  1.4191 -1.1977
  956SOL    HW3 3557   6.233   2.513   4.184 -2.5524  0.0112 -0.6377
  956SOL    MW4 3558   6.233   2.437   4.227 -0.0451  0.4734 -0.2503
  957SOL     OW 3559   1.547   0.407   5.930 -0.0692 -0.4571 -0.1300
  957SOL    HW2 3560   1.488   0.479   5.954  1.5816  0.7708  0.4081
  957SOL    HW3 3561   1.593   0.438   5.853 -0.1304 -1.4299 -0.5767
  957SOL    MW4 3562   1.545   0.420   5.923  0.2554 -1.2254 -0.2011
  958SOL     OW 3563   3.260   5.226   4.078 -0.3835  0.0976 -0.0015
  958SOL    HW2 3564   3.313   5.149   4.096 -0.1403  0.0281 -0.9511
  958SOL    HW3 3565   3.300   5.296   4.131  0.1396 -0.1475 -0.0690
  958SOL    MW4 3566   3.273   5.225   4.087 -1.2666  1.0076 -0.7112
  959SOL     OW 3567   1.529   2.248   3.655  0.1814  0.0666 -0.2367
  959SOL    HW2 3568   1.518   2.269   3.748  0.5498  0.5655 -0.3013
  959SOL    HW3 3569   1.439   2.246   3.620  0.0462 -0.0739  0.1175
  959SOL    MW4 3570   1.515   2.251   3.663  0.8244 -0.0776  0.8303
  960SOL     OW 3571   1.243   5.055   3.768 -0.3156 -0.5810  0.1636
  960SOL    HW2 3572   1.210   5.122   3.828  0.3124 -1.4051  1.4765
  960SOL    HW3 3573   1.165   5.020   3.725 -0.5495  2.2773 -2.0578
  960SOL    MW4 3574   1.228   5.059   3.770  0.2396  0.0813 -0.2420
  961SOL     OW 3575   5.352   1.637   4.271 -0.1664  0.0436  0.4514
  961SOL    HW2 3576   5.315   1.557   4.236 -0.2560  0.8633 -1.4330
  961SOL    HW3 3577   5.359   1.696   4.196  1.4710  1.2215  1.4456
  961SOL    MW4 3578   5.348   1.635   4.256 -0.2864  0.0995 -0.9315
  962SOL     OW 3579   4.843   1.621   5.921 -0.0429  0.4924  0.2203
  962SOL    HW2 3580   4.805   1.634   6.008 -0.0360  0.0250  0.2985
  962SOL    HW3 3581   4.813   1.696   5.870  0.3106  0.9937  0.7432
  962SOL    MW4 3582   4.834   1.633   5.926  0.5162 -0.0676 -0.2698
  963SOL     OW 3583   4.377   0.979   2.329  0.4182  0.0078 -0.1628
  963SOL    HW2 3584   4.294   0.983   2.377  0.1909 -0.1927 -0.5333
  963SOL    HW3 3585   4.354   1.000   2.239  0.6923 -0.4968 -0.3542
  963SOL    MW4 3586   4.363   0.982   2.323  0.5403  0.2617  0.0077
  964SOL     OW 3587   6.180   1.285   0.598  0.6794 -0.5519 -0.1566
  964SOL    HW2 3588   6.118   1.213   0.583  1.1865 -1.0327  0.0240
  964SOL    HW3 3589   6.161   1.347   0.528  2.9150 -2.6758 -2.8880
  964SOL    MW4 3590   6.169   1.283   0.586 -0.5730 -0.4832  0.4325
  965SOL     OW 3591   1.515   0.511   5.260  0.2607 -0.2726  0.1411
  965SOL    HW2 3592   1.421   0.508   5.245  0.2025 -1.0908  0.6543
  965SOL    HW3 3593   1.529   0.466   5.343  1.0290  0.5090  0.4541
  965SOL    MW4 3594   1.505   0.505   5.269  0.7225  0.5981 -0.5222
  966SOL     OW 3595   4.869   6.022   0.957  0.1431  0.1258 -0.0062
  966SOL    HW2 3596   4.826   5.981   0.882  0.1762  0.5833 -0.2816
  966SOL    HW3 3597   4.850   6.116   0.947  0.5973  0.2515  0.2611
  966SOL    MW4 3598   4.861   6.029   0.945  0.1465  0.4618  0.3125
  967SOL     OW 3599   1.204   4.720   0.920 -0.0837  0.1294 -0.5425
  967SOL    HW2 3600   1.167   4.651   0.974  0.1955  0.4216  0.0294
  967SOL    HW3 3601   1.130   4.778   0.901 -0.1939 -0.0081 -0.5265
  967SOL    MW4 3602   1.189   4.719   0.925 -0.6513 -0.3645  0.1841
  968SOL     OW 3603   4.135   6.384   5.443 -0.4432  0.4303 -0.0364
  968SOL    HW2 3604   4.095   6.386   5.530  0.1257  1.0304  0.2190
  968SOL    HW3 3605   4.199   6.455   5.444 -1.4869  1.4446 -1.4636
  968SOL    MW4 3606   4.138   6.393   5.454 -0.0276 -0.3153 -0.3045
  969SOL     OW 3607   2.169   2.383   3.587  0.3877  0.8484 -0.2600
  969SOL    HW2 3608   2.093   2.388   3.645 -0.2557 -1.2869 -0.8272
  969SOL    HW3 3609   2.140   2.422   3.505  0.0713  0.5485 -0.2924
  969SOL    MW4 3610   2.155   2.389   3.584  0.2840 -0.2559  0.4213
  970SOL     OW 3611   3.611   4.653   2.429 -0.0515  0.1236 -0.2133
  970SOL    HW2 3612   3.629   4.709   2.506 -0.8889  0.3477 -0.1710
  970SOL    HW3 3613   3.692   4.604   2.416 -0.2427 -0.7416  1.4974
  970SOL    MW4 3614   3.624   4.654   2.438  0.1925 -0.2142 -0.8607
  971SOL     OW 3615   4.925   3.935   4.721  0.3274  0.0509  0.1370
  971SOL    HW2 3616   4.830   3.927   4.725  0.2012  1.2253 -0.0783
  971SOL    HW3 3617   4.952   3.871   4.656 -0.3220 -0.2566  0.1638
  971SOL    MW4 3618   4.916   3.925   4.713  0.3847  0.6942  0.0890
  972SOL     OW 3619   5.320   0.787   3.946 -0.6041  0.1129  0.5344
  972SOL    HW2 3620   5.328   0.859   4.009 -1.9781  0.5955  0.1895
  972SOL    HW3 3621   5.228   0.761   3.952 -0.6784 -0.0569 -1.0198
  972SOL    MW4 3622   5.309   0.793   3.955  0.3224  0.1102 -0.2209
  973SOL     OW 3623   1.593   2.014   0.203 -0.9354  0.0700 -0.0312
  973SOL    HW2 3624   1.580   1.960   0.281 -0.4649  0.3393  0.2344
  973SOL    HW3 3625   1.645   2.089   0.233 -0.4241 -0.0159 -0.6757
  973SOL    MW4 3626   1.598   2.017   0.217  0.1541  0.5558 -0.5467
  974SOL     OW 3627   3.680   4.286   1.583 -0.0912  0.5635 -0.0517
  974SOL    HW2 3628   3.675   4.261   1.491 -0.5807 -1.9567  0.5688
  974SOL    HW3 3629   3.755   4.344   1.589  1.7000 -1.4448 -1.6264
  974SOL    MW4 3630   3.689   4.290   1.572  0.3651  0.0302 -0.0362
  975SOL     OW 3631   3.869   2.469   3.225 -0.5158 -0.0961  0.0294
  975SOL    HW2 3632   3.881   2.554   3.267 -0.9117 -0.8170  1.7005
  975SOL    HW3 3633   3.810   2.421   3.284  1.4669 -2.3345  0.3523
  975SOL    MW4 3634   3.863   2.474   3.239  0.2968  0.1005 -0.1180
  976SOL     OW 3635   5.052   4.316   3.332  0.0101  0.0233 -0.1890
  976SOL    HW2 3636   5.057   4.408   3.305  0.0206 -0.3567 -1.5568
  976SOL    HW3 3637   4.959   4.296   3.331  0.0713 -0.2685 -0.9771
  976SOL    MW4 3638   5.040   4.326   3.328  0.1374 -0.3376  0.1323
  977SOL     OW 3639   0.936   2.965   4.669 -0.4012 -0.3394  0.3609
  977SOL    HW2 3640   0.902   2.897   4.727 -0.6235  1.7583  2.8493
  977SOL    HW3 3641   1.028   2.973   4.694 -0.4040  0.3559  0.1599
  977SOL    MW4 3642   0.944   2.957   4.680 -0.2849 -0.0961 -0.5070
  978SOL     OW 3643   5.285   5.035   3.405  0.0870 -0.1410  0.5401
  978SOL    HW2 3644   5.291   4.949   3.363 -2.0739 -0.9505  1.7306
  978SOL    HW3 3645   5.340   5.028   3.482  1.1634  0.1083 -0.1858
  978SOL    MW4 3646   5.293   5.023   3.409  0.2509  0.0152  0.7437
  979SOL     OW 3647   1.592   2.793   5.209 -0.0432  0.5160 -0.7401
  979SOL    HW2 3648   1.582   2.707   5.248 -0.1645  0.8049 -0.1186
  979SOL    HW3 3649   1.670   2.830   5.251 -0.2891  0.9047 -0.6176
  979SOL    MW4 3650   1.601   2.787   5.220  0.2463 -0.2892  0.4301
  980SOL     OW 3651   0.922   4.606   5.848 -0.0086 -0.2870 -0.0364
  980SOL    HW2 3652   0.902   4.589   5.940  1.7945 -3.2576 -0.0822
  980SOL    HW3 3653   0.939   4.700   5.845  0.7150 -0.2272  2.8528
  980SOL    MW4 3654   0.921   4.616   5.860  0.2026 -0.1451 -0.2911
  981SOL     OW 3655   3.591   2.671   3.237 -0.0141  0.5157 -0.0922
  981SOL    HW2 3656   3.554   2.700   3.320 -0.5323  3.6902 -1.2898
  981SOL    HW3 3657   3.525   2.694   3.171  2.5660  3.4490 -1.9440
  981SOL    MW4 3658   3.577   2.677   3.239  0.0168  0.4852  0.7402
  982SOL     OW 3659   4.412   1.265   0.846 -0.0698 -0.1864 -0.1154
  982SOL    HW2 3660   4.332   1.214   0.836  0.3046 -0.5610 -1.3374
  982SOL    HW3 3661   4.382   1.351   0.876 -0.7342 -0.9635  1.6014
  982SOL    MW4 3662   4.397   1.270   0.849 -0.2549 -0.0229  0.4951
  983SOL     OW 3663   5.184   5.763   5.351  0.2254 -0.1360 -0.3232
  983SOL    HW2 3664   5.211   5.761   5.443 -0.0114  0.8471 -0.2218
  983SOL    HW3 3665   5.132   5.683   5.340  0.4447 -0.3782  0.3308
  983SOL    MW4 3666   5.181   5.752   5.362  0.2555  0.1784  0.5632
  984SOL     OW 3667   5.752   1.529   6.259  0.1279  0.5358 -0.4110
  984SOL    HW2 3668   5.796   1.480   6.190 -1.7794 -3.7760  1.1149
  984SOL    HW3 3669   5.802   1.509   6.338 -0.6696  1.1816  0.2794
  984SOL    MW4 3670   5.765   1.520   6.260  0.3679 -0.0160  0.4271
  985SOL     OW 3671   0.772   5.812   5.028  0.1758  0.6215  0.2788
  985SOL    HW2 3672   0.714   5.882   5.059 -0.9676 -0.8042  1.4786
  985SOL    HW3 3673   0.818   5.783   5.107  0.4374 -0.1600 -0.1540
  985SOL    MW4 3674   0.771   5.818   5.043  0.4965 -0.4738 -0.1650
  986SOL     OW 3675   3.995   4.397   4.661  0.3493  0.0613  0.0133
  986SOL    HW2 3676   3.951   4.481   4.669  0.7640  0.2967 -0.1290
  986SOL    HW3 3677   3.929   4.332   4.685  0.7899  0.5603  3.0905
  986SOL    MW4 3678   3.981   4.400   4.665 -0.2138 -0.0536  0.4767
  987SOL     OW 3679   5.944   3.058   0.683 -0.1284  0.0566  0.2104
  987SOL    HW2 3680   6.026   3.020   0.651 -0.7443 -0.9366 -0.2754
  987SOL    HW3 3681   5.952   3.058   0.778  0.5374  0.2130  0.1544
  987SOL    MW4 3682   5.956   3.053   0.691  0.1227 -0.1205 -0.2433
  988SOL     OW 3683   3.018   1.573   3.940 -0.0614 -0.1418  0.6142
  988SOL    HW2 3684   3.087   1.506   3.942  0.2647  0.1949  2.6832
  988SOL    HW3 3685   2.945   1.531   3.895  0.3166 -1.7128  1.4252
  988SOL    MW4 3686   3.018   1.559   3.934 -0.0010 -0.3155  0.0364
  989SOL     OW 3687   1.806   1.950   3.242  0.1046  0.3315 -0.2951
  989SOL    HW2 3688   1.726   2.002   3.240 -0.2648 -0.2333 -0.7299
  989SOL    HW3 3689   1.816   1.923   3.333 -0.1809  0.4385 -0.2321
  989SOL    MW4 3690   1.797   1.953   3.253  0.2074  0.2033 -0.2939
  990SOL     OW 3691   1.679   1.925   2.935  0.3516 -0.4347 -0.2792
  990SOL    HW2 3692   1.724   1.864   2.993  1.4041 -1.5515 -2.1579
  990SOL    HW3 3693   1.727   2.007   2.946  0.9243 -0.7956  0.0052
  990SOL    MW4 3694   1.691   1.928   2.944  0.2336  0.2174 -0.0846
  991SOL     OW 3695   5.690   2.584   5.838 -0.4932  0.4014 -0.3691
  991SOL    HW2 3696   5.626   2.512   5.844 -0.3318  0.2996  0.1222
  991SOL    HW3 3697   5.771   2.547   5.871 -0.0372  0.3760 -1.4737
  991SOL    MW4 3698   5.692   2.569   5.843  0.0214  0.6764  0.3341
  992SOL     OW 3699   4.989   6.296   5.747  0.3548 -0.1818 -0.0082
  992SOL    HW2 3700   5.016   6.206   5.761 -1.9077 -0.7967  0.8674
  992SOL    HW3 3701   4.929   6.292   5.673  0.5071  0.6723 -0.1880
  992SOL    MW4 3702   4.985   6.284   5.739 -0.0933  0.8852  0.2109
  993SOL     OW 3703   0.053   4.006   2.019 -0.6806  0.1690 -0.3620
  993SOL    HW2 3704  -0.033   3.967   2.033 -1.0034  0.7173 -0.7883
  993SOL    HW3 3705   0.062   4.010   1.923 -1.5009  2.9282 -0.3935
  993SOL    MW4 3706   0.043   4.001   2.008 -0.2027  0.8023  0.6988
  994SOL     OW 3707   2.779   4.386   2.585 -0.2691 -0.3444 -0.3263
  994SOL    HW2 3708   2.811   4.458   2.531 -0.5096  0.1893  0.2324
  994SOL    HW3 3709   2.839   4.314   2.567 -0.0144  0.0015 -0.8776
  994SOL    MW4 3710   2.792   4.386   2.576 -0.1226 -0.0886 -0.6099
  995SOL     OW 3711   3.250   5.290   6.270 -0.1505  0.1487 -0.0716
  995SOL    HW2 3712   3.189   5.266   6.339 -0.4076  1.4678  0.1900
  995SOL    HW3 3713   3.284   5.207   6.237 -1.5606 -0.5705  0.2493
  995SOL    MW4 3714   3.247   5.276   6.274  0.2058 -0.0105 -0.4938
  996SOL     OW 3715   1.507   5.420   5.278 -0.2214 -0.4209  0.1785
  996SOL    HW2 3716   1.432   5.393   5.331 -0.3457 -0.2503  0.0952
  996SOL    HW3 3717   1.581   5.369   5.311 -0.3690 -0.5665  0.2839
  996SOL    MW4 3718   1.507   5.410   5.289 -0.0643 -0.8413 -0.3119
  997SOL     OW 3719   2.652   0.058   1.610  0.2597 -0.0180 -0.8917
  997SOL    HW2 3720   2.616   0.135   1.654  1.6024  0.3083 -0.3339
  997SOL    HW3 3721   2.743   0.080   1.591  0.6208 -1.3924 -0.9030
  997SOL    MW4 3722   2.659   0.071   1.613  0.0710  1.0474 -0.2400
  998SOL     OW 3723   3.824   1.446   4.544  0.1481  0.3231  0.3691
  998SOL    HW2 3724   3.761   1.492   4.599 -0.0428  0.0742  0.3619
  998SOL    HW3 3725   3.787   1.452   4.455 -0.9964 -1.6596  0.6415
  998SOL    MW4 3726   3.811   1.453   4.539  0.4617  0.1216  0.3964
  999SOL     OW 3727   3.443   4.184   6.380 -0.0840 -0.0665  0.5988
  999SOL    HW2 3728   3.434   4.279   6.387 -0.8354 -0.0800  0.0268
  999SOL    HW3 3729   3.353   4.151   6.386  0.1241 -0.7076  0.3279
  999SOL    MW4 3730   3.430   4.192   6.382 -0.4605  0.0953 -0.7707
 1000SOL     OW 3731   3.190   5.775   3.625  0.1981 -0.2129  0.0355
 1000SOL    HW2 3732   3.236   5.704   3.670  0.3292  0.1008  0.4012
 1000SOL    HW3 3733   3.198   5.754   3.532 -0.5588 -1.1716  0.1677
 1000SOL    MW4 3734   3.197   5.762   3.619  0.2922 -0.1463 -0.3808
 1001SOL     OW 3735   3.014   2.935   2.503 -0.0375  0.2734  0.1994
 1001SOL    HW2 3736   2.980   3.015   2.544  1.0262  1.1795 -0.5907
 1001SOL    HW3 3737   3.109   2.946   2.506  0.1058  0.2700 -2.1911
 1001SOL    MW4 3738   3.022   2.947   2.509 -0.6573 -0.3759  0.6690
 1002SOL     OW 3739   3.616   5.406   6.036 -0.3236 -0.2879 -0.0628
 1002SOL    HW2 3740   3.534   5.413   5.987 -0.3522  0.7204  0.1045
 1002SOL    HW3 3741   3.683   5.393   5.970 -0.5413 -0.5069 -0.2434
 1002SOL    MW4 3742   3.614   5.405   6.021  0.4082 -0.1052 -0.4436
 1003SOL     OW 3743   1.243   6.202   5.647 -0.0751 -0.0894 -0.4358
 1003SOL    HW2 3744   1.247   6.285   5.693  0.3767 -0.8960  1.0319
 1003SOL    HW3 3745   1.334   6.180   5.628  0.1172 -1.6586  1.8930
 1003SOL    MW4 3746   1.256   6.210   5.651  0.1855 -0.2720  0.2330
 1004SOL     OW 3747   1.756   0.234   0.815 -0.1222  0.2462  0.5667
 1004SOL    HW2 3748   1.687   0.232   0.748  0.6278  1.2213 -0.2552
 1004SOL    HW3 3749   1.765   0.143   0.843 -1.6298  0.0741  0.5794
 1004SOL    MW4 3750   1.748   0.222   0.810  0.0894 -0.5346 -0.0846
 1005SOL     OW 3751   6.091   1.373   4.129  0.4584 -0.1747  0.5217
 1005SOL    HW2 3752   6.116   1.432   4.058  1.9337 -0.5294  0.7190
 1005SOL    HW3 3753   6.172   1.359   4.179 -0.4194 -0.3967  1.9418
 1005SOL    MW4 3754   6.105   1.379   4.126 -0.3775  0.1354 -0.0610
 1006SOL     OW 3755   5.992   3.515   4.864  0.2076  0.3332 -0.0520
 1006SOL    HW2 3756   5.967   3.431   4.903 -0.2678  0.7241  0.4864
 1006SOL    HW3 3757   5.911   3.551   4.830  0.0127  1.5678  1.6257
 1006SOL    MW4 3758   5.978   3.508   4.865 -0.1899  0.3490 -0.4971
 1007SOL     OW 3759   5.060   1.425   2.828  0.1119 -0.7210  0.1068
 1007SOL    HW2 3760   4.966   1.444   2.826 -0.0414 -1.4540  0.1992
 1007SOL    HW3 3761   5.066   1.331   2.812  0.9498 -0.3631 -2.0019
 1007SOL    MW4 3762   5.048   1.415   2.826  0.1957 -0.4949 -0.1479
 1008SOL     OW 3763   1.083   2.427   3.471  0.5266  0.1692 -0.1914
 1008SOL    HW2 3764   1.018   2.430   3.541 -0.8763 -0.4016 -1.4083
 1008SOL    HW3 3765   1.100   2.519   3.449  1.1221  0.3570  0.9932
 1008SOL    MW4 3766   1.077   2.440   3.477 -0.3983 -0.2925  0.2287
 1009SOL     OW 3767   1.654   6.302   1.509  0.4807  0.3382  0.6544
 1009SOL    HW2 3768   1.637   6.230   1.570 -0.6329 -0.1919 -0.2424
 1009SOL    HW3 3769   1.708   6.363   1.559 -1.0181  0.2974  2.4505
 1009SOL    MW4 3770   1.658   6.300   1.524  0.0034 -0.3072  0.1010
 1010SOL     OW 3771   1.533   0.056   5.582  0.3340 -0.4695  0.6535
 1010SOL    HW2 3772   1.506  -0.030   5.552 -0.1092 -0.1766  0.1954
 1010SOL    HW3 3773   1.620   0.042   5.621  0.7241 -0.9363 -0.3602
 1010SOL    MW4 3774   1.541   0.043   5.583  0.1203  0.2799  0.5246
 1011SOL     OW 3775   1.444   6.176   2.537 -0.0672  0.0964  0.1984
 1011SOL    HW2 3776   1.349   6.176   2.524  0.1387 -1.6230 -1.8490
 1011SOL    HW3 3777   1.479   6.138   2.457  2.3744  0.6936  0.9039
 1011SOL    MW4 3778   1.436   6.171   2.525  0.2358  0.4062  0.4902
 1012SOL     OW 3779   1.854   2.795   1.055  0.5052 -0.5584  0.2024
 1012SOL    HW2 3780   1.856   2.890   1.060  2.4763 -0.5557  0.0384
 1012SOL    HW3 3781   1.776   2.770   1.105  0.7564  1.0650  1.4677
 1012SOL    MW4 3782   1.844   2.804   1.062 -0.7661  0.0883 -0.5185
 1013SOL     OW 3783   0.548   4.755   2.333  0.8416 -0.8874 -0.3134
 1013SOL    HW2 3784   0.613   4.823   2.320  3.2600 -2.9306  0.3184
 1013SOL    HW3 3785   0.486   4.792   2.396  0.4645  1.6443 -2.0175
 1013SOL    MW4 3786   0.548   4.769   2.340  0.0690 -0.5368  0.1540
 1014SOL     OW 3787   1.993   5.016   6.188 -0.0499  0.0983 -0.7635
 1014SOL    HW2 3788   2.089   5.024   6.182 -0.0129 -0.8664 -1.6702
 1014SOL    HW3 3789   1.979   4.937   6.239 -0.3863  0.8447  0.3341
 1014SOL    MW4 3790   2.004   5.007   6.194  0.1111 -0.1115  0.3597
 1015SOL     OW 3791   0.615   2.481   1.525  0.3961 -0.3352 -0.4001
 1015SOL    HW2 3792   0.704   2.484   1.491 -0.4150  0.9598 -2.5878
 1015SOL    HW3 3793   0.578   2.400   1.489  0.0047  0.2856 -1.4385
 1015SOL    MW4 3794   0.622   2.471   1.516 -0.0073  0.3951 -0.0011
 1016SOL     OW 3795   6.377   5.664   0.554 -0.5095  0.4265  0.2270
 1016SOL    HW2 3796   6.428   5.667   0.473 -0.3969  1.1708  0.3170
 1016SOL    HW3 3797   6.310   5.597   0.538  1.4943 -1.8002  0.7229
 1016SOL    MW4 3798   6.375   5.656   0.541  0.3430 -0.0520  0.0689
 1017SOL     OW 3799   6.353   5.952   5.652  0.1657 -0.5428  0.0451
 1017SOL    HW2 3800   6.287   5.961   5.583  0.7090 -1.5836 -0.6375
 1017SOL    HW3 3801   6.434   5.985   5.613  0.3898 -0.7597  0.3152
 1017SOL    MW4 3802   6.355   5.957   5.638 -0.0346 -0.4805  0.3861
 1018SOL     OW 3803   5.237   2.273   1.919  0.4871  0.2390 -0.2102
 1018SOL    HW2 3804   5.240   2.248   2.012 -0.6761  1.4438  0.1861
 1018SOL    HW3 3805   5.205   2.195   1.875  1.5182 -0.5125  0.3196
 1018SOL    MW4 3806   5.233   2.259   1.926  0.2030 -0.5618 -0.6951
 1019SOL     OW 3807   3.016   3.741   2.493  0.7743 -0.7835  0.1939
 1019SOL    HW2 3808   3.014   3.833   2.468  1.4569 -0.7963  0.0993
 1019SOL    HW3 3809   3.016   3.742   2.589  1.9323 -0.6528  0.2032
 1019SOL    MW4 3810   3.015   3.753   2.502 -0.3950  0.6393 -0.1820
 1020SOL     OW 3811   0.964   0.033   3.387 -0.7343  0.4515 -0.3118
 1020SOL    HW2 3812   1.008   0.116   3.370  1.9235 -1.0262 -1.1961
 1020SOL    HW3 3813   0.979  -0.019   3.308 -1.8040 -1.0886  0.4512
 1020SOL    MW4 3814   0.971   0.037   3.375  0.1361  0.3154 -0.2304
 1021SOL     OW 3815   5.297   6.117   3.207  0.1537 -0.0381  0.1231
 1021SOL    HW2 3816   5.351   6.121   3.129 -1.6660  0.6120 -1.1567
 1021SOL    HW3 3817   5.360   6.108   3.279  1.9001  0.0032 -1.3305
 1021SOL    MW4 3818   5.313   6.116   3.207 -0.2641  0.0023 -0.1915
 1022SOL     OW 3819   5.563   6.155   2.395 -0.2856 -0.1346 -0.2337
 1022SOL    HW2 3820   5.614   6.174   2.316 -3.2657 -0.5494 -2.4684
 1022SOL    HW3 3821   5.497   6.225   2.397 -0.8160 -0.6537  1.3863
 1022SOL    MW4 3822   5.561   6.167   2.385  0.6518 -0.4522 -0.4739
 1023SOL     OW 3823   3.502   2.654   1.692  0.2652  0.4430 -0.2635
 1023SOL    HW2 3824   3.492   2.622   1.603 -1.1469  0.9246 -0.3046
 1023SOL    HW3 3825   3.521   2.575   1.744 -0.2654 -0.0343 -0.7858
 1023SOL    MW4 3826   3.503   2.639   1.687  0.1440  0.0692  0.0418
 1024SOL     OW 3827   1.784   2.753   0.682  0.0456 -0.4459 -0.0471
 1024SOL    HW2 3828   1.736   2.829   0.715  1.3947  0.5291 -0.2193
 1024SOL    HW3 3829   1.742   2.731   0.599  0.3409  0.8566 -0.5631
 1024SOL    MW4 3830   1.772   2.760   0.675  0.3095  0.1434  0.1119
 1025SOL     OW 3831   6.186   2.983   0.550  0.1645  0.4001 -0.9638
 1025SOL    HW2 3832   6.230   3.067   0.535 -0.8347  1.4009  1.2202
 1025SOL    HW3 3833   6.256   2.925   0.581  0.6523  0.7743 -1.3398
 1025SOL    MW4 3834   6.201   2.986   0.552  0.0445  0.4427 -0.0737
 1026SOL     OW 3835   2.645   3.264   3.243 -0.5396  0.0016 -0.8433
 1026SOL    HW2 3836   2.680   3.311   3.167  1.6991 -1.1002 -0.5931
 1026SOL    HW3 3837   2.699   3.294   3.317  0.8034 -2.5962 -0.6251
 1026SOL    MW4 3838   2.657   3.274   3.243  0.6295  0.4940  0.1064
 1027SOL     OW 3839   0.304   4.208   5.424  0.0512  0.1806 -0.0297
 1027SOL    HW2 3840   0.275   4.237   5.338 -1.0329 -0.0036  0.2568
 1027SOL    HW3 3841   0.245   4.251   5.485  0.2943 -0.3152  0.5679
 1027SOL    MW4 3842   0.292   4.217   5.421  0.6986  0.2547 -0.7585
 1028SOL     OW 3843   1.132   6.278   1.115 -0.5102  0.2818 -0.0147
 1028SOL    HW2 3844   1.136   6.225   1.036 -1.2221 -0.6483  0.5632
 1028SOL    HW3 3845   1.064   6.238   1.169 -2.4763  2.8730 -0.3596
 1028SOL    MW4 3846   1.124   6.266   1.112 -0.6931  0.5463  0.5095
 1029SOL     OW 3847   2.963   1.301   1.058  0.3635 -0.1985  0.0105
 1029SOL    HW2 3848   3.017   1.363   1.009  0.6867 -0.5234 -0.0535
 1029SOL    HW3 3849   3.002   1.215   1.039  0.6011 -0.3202  0.9681
 1029SOL    MW4 3850   2.975   1.298   1.049 -0.3817 -0.5020 -0.3869
 1030SOL     OW 3851   5.320   2.283   5.080  0.1090 -0.3319  0.9879
 1030SOL    HW2 3852   5.252   2.216   5.093 -2.1484  1.5280 -0.5598
 1030SOL    HW3 3853   5.367   2.254   5.002  0.6367 -1.1906  1.5912
 1030SOL    MW4 3854   5.317   2.270   5.072  0.2852 -0.1194  0.0302
 1031SOL     OW 3855   4.885   0.643   0.476  0.2976 -0.3267  0.1732
 1031SOL    HW2 3856   4.863   0.588   0.552  0.3679  0.6163  0.8934
 1031SOL    HW3 3857   4.813   0.706   0.470 -0.6648 -1.4963 -1.6867
 1031SOL    MW4 3858   4.873   0.644   0.485 -0.5263 -0.1949 -0.2723
 1032SOL     OW 3859   5.232   2.545   4.345  0.0576  0.0062  0.0132
 1032SOL    HW2 3860   5.266   2.626   4.383  0.3299 -1.4010  3.0629
 1032SOL    HW3 3861   5.300   2.479   4.363 -1.0260 -1.3177 -0.5270
 1032SOL    MW4 3862   5.245   2.547   4.352 -0.4816  0.3496 -0.4395
 1033SOL     OW 3863   5.539   6.203   0.942 -0.5123 -0.5560  0.1948
 1033SOL    HW2 3864   5.471   6.196   1.009 -1.0296  0.4905 -0.2065
 1033SOL    HW3 3865   5.518   6.283   0.894  1.3925  0.1777  0.4941
 1033SOL    MW4 3866   5.527   6.212   0.944 -0.0744  0.2104  0.4226
 1034SOL     OW 3867   3.784   4.883   4.949 -0.7828  0.1375  0.1966
 1034SOL    HW2 3868   3.689   4.886   4.966 -0.6588  1.4877  0.7661
 1034SOL    HW3 3869   3.795   4.931   4.868 -0.7843 -1.8113 -1.0137
 1034SOL    MW4 3870   3.773   4.889   4.941 -0.3036 -0.0112 -0.2287
 1035SOL     OW 3871   0.228   1.624   4.497  0.0943  0.0929 -0.6679
 1035SOL    HW2 3872   0.162   1.652   4.434 -0.5032 -1.5392 -0.8001
 1035SOL    HW3 3873   0.178   1.599   4.575  0.5822 -0.7391 -0.6103
 1035SOL    MW4 3874   0.213   1.625   4.499 -0.4707  0.2719 -0.4500
 1036SOL     OW 3875   4.709   3.023   3.374  0.2946  0.1061  0.3502
 1036SOL    HW2 3876   4.785   3.005   3.320  0.1159  1.2081 -0.2895
 1036SOL    HW3 3877   4.634   2.998   3.319  0.1652 -0.3095  0.7096
 1036SOL    MW4 3878   4.709   3.017   3.360  0.2101 -0.1699  0.0388
 1037SOL     OW 3879   0.225   5.632   0.744  0.0466 -0.2003  0.0848
 1037SOL    HW2 3880   0.137   5.599   0.725 -0.1464  0.1132  0.4168
 1037SOL    HW3 3881   0.266   5.561   0.793  0.6364 -1.1211 -1.6553
 1037SOL    MW4 3882   0.218   5.618   0.748  0.2557 -0.5226 -0.2438
 1038SOL     OW 3883   4.612   1.332   2.518 -0.4140  0.2852  0.0957
 1038SOL    HW2 3884   4.554   1.335   2.594 -0.7190  1.3812 -0.1619
 1038SOL    HW3 3885   4.564   1.379   2.449  1.0283  1.8470  0.0748
 1038SOL    MW4 3886   4.598   1.339   2.519  0.1775  0.2824  0.1056
 1039SOL     OW 3887   4.754   2.059   2.247  0.1373  0.4235  0.4800
 1039SOL    HW2 3888   4.745   2.154   2.239 -0.8138  0.4925  1.8932
 1039SOL    HW3 3889   4.842   2.046   2.283 -0.2504  0.8860  1.6391
 1039SOL    MW4 3890   4.764   2.070   2.251 -0.3181  0.0250  0.0662
 1040SOL     OW 3891   0.028   1.189   2.719  0.2365 -0.3713  0.2622
 1040SOL    HW2 3892  -0.042   1.253   2.702  1.0029  0.4780  0.2612
 1040SOL    HW3 3893  -0.019   1.111   2.749 -0.7057  0.2565  0.4814
 1040SOL    MW4 3894   0.012   1.187   2.720 -0.1106 -0.2261  0.1963
 1041SOL     OW 3895   3.086   3.857   3.633 -0.5793 -0.1035  0.5556
 1041SOL    HW2 3896   3.168   3.908   3.635  0.0183 -0.9659 -0.9163
 1041SOL    HW3 3897   3.089   3.804   3.713  0.6342 -0.6053  0.1959
 1041SOL    MW4 3898   3.097   3.857   3.644  0.6078  0.4488  0.1013
 1042SOL     OW 3899   4.477   0.175   0.852 -0.7648  0.0258  0.5877
 1042SOL    HW2 3900   4.547   0.178   0.918 -1.1968  0.7492  1.0336
 1042SOL    HW3 3901   4.427   0.256   0.867 -0.8597  0.2159 -0.6502
 1042SOL    MW4 3902   4.479   0.186   0.863  0.1331  0.1612  0.7535
 1043SOL     OW 3903   6.430   0.741   2.606 -0.4433 -0.3578 -0.4576
 1043SOL    HW2 3904   6.424   0.650   2.636 -2.4045 -0.2269 -0.3328
 1043SOL    HW3 3905   6.518   0.769   2.632 -0.0480 -1.9955  0.1037
 1043SOL    MW4 3906   6.441   0.733   2.613  0.5249 -0.3806  0.0723
 1044SOL     OW 3907   1.027   2.861   0.521 -0.1616 -0.1547 -0.1569
 1044SOL    HW2 3908   0.958   2.846   0.457 -1.6117  1.0657  1.0558
 1044SOL    HW3 3909   1.094   2.796   0.499 -1.5398 -1.1906 -1.5447
 1044SOL    MW4 3910   1.027   2.851   0.509  0.3233  0.1221 -0.1441
 1045SOL     OW 3911   4.513   5.682   4.165  0.4013  0.2008  0.6904
 1045SOL    HW2 3912   4.560   5.603   4.139 -0.6900 -0.3044  0.1607
 1045SOL    HW3 3913   4.470   5.658   4.248  1.6814  0.9198  1.5970
 1045SOL    MW4 3914   4.513   5.668   4.173  0.6334  0.2797  0.0382
 1046SOL     OW 3915   2.733   1.336   5.663 -0.0643  0.0887 -0.0029
 1046SOL    HW2 3916   2.686   1.380   5.593  3.1095  0.2183 -2.2774
 1046SOL    HW3 3917   2.719   1.242   5.647  0.7350  0.1119 -0.9884
 1046SOL    MW4 3918   2.725   1.329   5.652 -0.0429  0.2795 -0.1250
 1047SOL     OW 3919   0.667   2.488   6.325  0.2041  0.1898  0.0868
 1047SOL    HW2 3920   0.600   2.427   6.296  0.5520 -0.3292  0.3579
 1047SOL    HW3 3921   0.637   2.574   6.293 -0.2542 -0.1259 -0.3470
 1047SOL    MW4 3922   0.654   2.491   6.317 -0.1564 -0.1995 -0.1365
 1048SOL     OW 3923   4.945   3.752   5.646  0.1905  0.8304 -0.2387
 1048SOL    HW2 3924   4.996   3.728   5.569  1.1676 -0.2130  0.6865
 1048SOL    HW3 3925   4.933   3.669   5.693 -1.3419  1.2528  0.1824
 1048SOL    MW4 3926   4.950   3.738   5.642 -0.2256  0.7589  0.2338
 1049SOL     OW 3927   0.910   1.851   3.411 -0.8368  0.7834 -0.4214
 1049SOL    HW2 3928   0.836   1.824   3.358 -0.4979  0.0043 -0.5068
 1049SOL    HW3 3929   0.911   1.947   3.403 -1.2885  0.7389 -1.1427
 1049SOL    MW4 3930   0.901   1.860   3.403 -0.3388  0.0093 -0.4722
 1050SOL     OW 3931   2.191   6.421   2.052 -0.1109  0.5313 -0.3998
 1050SOL    HW2 3932   2.098   6.401   2.044  0.2393 -0.6123 -2.0781
 1050SOL    HW3 3933   2.209   6.480   1.978  0.9359 -1.1751 -1.5966
 1050SOL    MW4 3934   2.181   6.426   2.041 -0.0216  0.4483 -0.1880
 1051SOL     OW 3935   6.345   3.387   4.518  0.3316  0.0961  0.2690
 1051SOL    HW2 3936   6.441   3.390   4.522  0.6208 -3.5054 -0.3377
 1051SOL    HW3 3937   6.324   3.411   4.428  0.6263  0.9304  0.4118
 1051SOL    MW4 3938   6.355   3.391   4.507 -0.0350  0.3573  0.2197
 1052SOL     OW 3939   0.727   0.257   4.322  0.4519 -0.2022 -0.1856
 1052SOL    HW2 3940   0.744   0.191   4.389  1.1901  0.4885  0.3258
 1052SOL    HW3 3941   0.774   0.224   4.245  1.2864 -0.0215  0.2288
 1052SOL    MW4 3942   0.736   0.244   4.320 -0.3721 -0.4507  0.2394
 1053SOL     OW 3943   2.529   3.052   0.961  0.7425 -0.6033  0.3539
 1053SOL    HW2 3944   2.440   3.018   0.951  0.6160  0.0958 -1.3429
 1053SOL    HW3 3945   2.539   3.069   1.055 -0.6947 -1.2553  0.6427
 1053SOL    MW4 3946   2.519   3.050   0.972  0.4884 -0.0589 -0.3087
 1054SOL     OW 3947   5.616   2.281   0.142  0.2232 -0.0705  0.1021
 1054SOL    HW2 3948   5.534   2.284   0.191  0.3926 -0.0691  0.3930
 1054SOL    HW3 3949   5.648   2.192   0.156 -0.9745 -0.9190 -2.1077
 1054SOL    MW4 3950   5.609   2.269   0.151  0.1003 -0.4563 -0.1508
 1055SOL     OW 3951   4.817   2.812   0.330 -0.2365 -0.0797  0.0378
 1055SOL    HW2 3952   4.833   2.758   0.253  2.7469 -1.4010  1.4728
 1055SOL    HW3 3953   4.820   2.752   0.404 -0.0510  1.5771  1.4478
 1055SOL    MW4 3954   4.819   2.797   0.330  0.0651 -0.1555 -0.3815
 1056SOL     OW 3955   5.733   1.349   0.786 -0.0504 -0.9006  0.0906
 1056SOL    HW2 3956   5.750   1.331   0.693  0.4078 -2.7706  0.4969
 1056SOL    HW3 3957   5.693   1.436   0.786 -0.2854 -0.9526 -1.8811
 1056SOL    MW4 3958   5.730   1.358   0.773 -0.0407  0.8749 -0.8002
 1057SOL     OW 3959   2.652   2.136   3.954  0.1828  0.0149 -0.3385
 1057SOL    HW2 3960   2.579   2.078   3.973  0.3265 -0.4578 -1.1825
 1057SOL    HW3 3961   2.653   2.198   4.027 -0.4773 -0.5387  0.1542
 1057SOL    MW4 3962   2.642   2.137   3.966  0.0863 -0.0857  0.0953
 1058SOL     OW 3963   2.295   2.317   1.912 -0.3682  0.3431 -0.2954
 1058SOL    HW2 3964   2.215   2.357   1.946 -2.2225 -3.3357  0.1978
 1058SOL    HW3 3965   2.292   2.333   1.818 -1.6375  0.4032 -0.2599
 1058SOL    MW4 3966   2.284   2.324   1.904 -0.0226  0.2032  0.4413
 1059SOL     OW 3967   2.687   1.941   0.589 -0.2767  0.5063  0.1214
 1059SOL    HW2 3968   2.765   1.890   0.611 -0.3912  0.5162  0.5553
 1059SOL    HW3 3969   2.660   1.907   0.504 -0.9181 -0.8533  0.8378
 1059SOL    MW4 3970   2.694   1.930   0.580 -0.0002 -0.3173 -0.7895
 1060SOL     OW 3971   1.787   3.776   0.104  0.9180  1.1791  0.2798
 1060SOL    HW2 3972   1.845   3.845   0.134  1.1043  1.1110  0.0765
 1060SOL    HW3 3973   1.715   3.822   0.061  0.0089  1.3460  1.8946
 1060SOL    MW4 3974   1.785   3.791   0.103 -0.4227 -0.4340 -0.4802
 1061SOL     OW 3975   0.215   2.204   4.058  0.0047  0.0786 -0.0543
 1061SOL    HW2 3976   0.131   2.219   4.015  0.4393  4.9891  0.2694
 1061SOL    HW3 3977   0.278   2.195   3.987 -0.3896 -0.6448 -0.3172
 1061SOL    MW4 3978   0.212   2.205   4.043 -0.7392 -0.1519 -0.0347
 1062SOL     OW 3979   6.422   1.825   1.628  0.4708 -0.1330  0.1230
 1062SOL    HW2 3980   6.462   1.797   1.711 -0.1463 -2.5478 -0.3197
 1062SOL    HW3 3981   6.494   1.867   1.580  1.1781  0.0827  1.3301
 1062SOL    MW4 3982   6.437   1.827   1.633 -0.5067 -0.2252  0.4832
 1063SOL     OW 3983   2.155   5.112   2.180 -0.6820 -0.0329 -0.2330
 1063SOL    HW2 3984   2.183   5.021   2.191  1.1185  0.6388  1.2266
 1063SOL    HW3 3985   2.233   5.157   2.148 -0.9170  1.3653  1.0757
 1063SOL    MW4 3986   2.169   5.106   2.177  0.6689 -0.1721  0.0649
 1064SOL     OW 3987   3.233   3.499   0.525  0.4060 -0.2226  0.7591
 1064SOL    HW2 3988   3.247   3.407   0.505  3.0599 -0.3228  2.5365
 1064SOL    HW3 3989   3.305   3.544   0.480  1.3071  0.5046  2.8413
 1064SOL    MW4 3990   3.244   3.493   0.516 -0.1239 -0.3615 -0.5404
 1065SOL     OW 3991   1.713   4.870   3.333  0.0356  0.1313 -0.3498
 1065SOL    HW2 3992   1.641   4.903   3.387  0.5712  1.0804 -0.1795
 1065SOL    HW3 3993   1.771   4.826   3.395  0.4707  0.9094 -0.1837
 1065SOL    MW4 3994   1.711   4.869   3.349  0.6467 -0.1399 -0.5101
 1066SOL     OW 3995   4.814   4.795   2.719  0.5483 -0.5253  0.5267
 1066SOL    HW2 3996   4.755   4.845   2.774 -0.1273  0.3469 -0.9240
 1066SOL    HW3 3997   4.875   4.860   2.683  2.3758 -1.3763  1.8962
 1066SOL    MW4 3998   4.814   4.810   2.721 -0.4592 -0.1931 -0.3335
 1067SOL     OW 3999   5.437   4.280   4.168  0.2448 -0.0209 -0.1258
 1067SOL    HW2 4000   5.389   4.271   4.250  0.6438 -0.1079  0.1062
 1067SOL    HW3 4001   5.460   4.373   4.164 -0.8757  0.2382 -0.7815
 1067SOL    MW4 4002   5.434   4.291   4.178  0.1180 -0.0080  0.1185
 1068SOL     OW 4003   3.071   3.053   3.841  0.5526 -0.0963 -0.3192
 1068SOL    HW2 4004   3.000   3.080   3.783 -0.3105 -3.4284 -1.0659
 1068SOL    HW3 4005   3.031   3.046   3.927  0.5224  0.0386 -0.3226
 1068SOL    MW4 4006   3.057   3.055   3.845  0.1035 -0.0656  0.1195
 1069SOL     OW 4007   2.177   4.006   1.153 -0.1526  0.3766  0.6215
 1069SOL    HW2 4008   2.262   3.989   1.195  0.5816 -0.9558 -1.2450
 1069SOL    HW3 4009   2.130   3.922   1.160 -1.5136  1.1881  1.9170
 1069SOL    MW4 4010   2.182   3.992   1.160  0.2676 -0.0947 -0.2668
 1070SOL     OW 4011   2.936   4.478   2.805 -0.0756 -0.1391 -0.0776
 1070SOL    HW2 4012   2.938   4.405   2.867 -0.3509 -1.4630 -1.5713
 1070SOL    HW3 4013   2.861   4.459   2.749  1.2679 -0.0353 -2.0123
 1070SOL    MW4 4014   2.926   4.466   2.806 -0.1105  0.2618 -0.1447
 1071SOL     OW 4015   5.903   3.274   1.566  0.1142 -0.0459 -0.2379
 1071SOL    HW2 4016   5.834   3.312   1.620 -0.1579 -0.7232 -0.0883
 1071SOL    HW3 4017   5.889   3.310   1.479 -2.7562 -2.9043 -1.1500
 1071SOL    MW4 4018   5.892   3.283   1.562 -0.9813 -0.2394 -0.7375
 1072SOL     OW 4019   5.567   3.147   2.609 -0.5690  0.1742 -0.0302
 1072SOL    HW2 4020   5.596   3.120   2.696 -1.4901  1.4596  0.6969
 1072SOL    HW3 4021   5.500   3.083   2.585  0.2243 -0.6368 -0.1535
 1072SOL    MW4 4022   5.562   3.135   2.617 -0.5111  0.1523  0.1559
 1073SOL     OW 4023   5.482   1.184   3.356 -0.1727  0.4763  0.2871
 1073SOL    HW2 4024   5.470   1.246   3.429 -0.0719  0.9501 -0.0956
 1073SOL    HW3 4025   5.488   1.240   3.278 -0.4758 -0.0422 -0.1086
 1073SOL    MW4 4026   5.481   1.200   3.356  0.2351  0.0348 -0.0684
 1074SOL     OW 4027   1.347   5.954   2.705 -0.1696 -0.0251  0.4123
 1074SOL    HW2 4028   1.321   5.889   2.640  0.3057  0.4200 -0.2302
 1074SOL    HW3 4029   1.413   6.008   2.661  0.0913  0.3445  1.2279
 1074SOL    MW4 4030   1.352   5.953   2.691  0.2304 -0.3741  0.5052
 1075SOL     OW 4031   5.048   4.524   3.758 -0.1888 -0.3280  0.0166
 1075SOL    HW2 4032   5.108   4.463   3.716  0.0498  0.5152 -0.9260
 1075SOL    HW3 4033   5.088   4.610   3.744 -1.3791  0.2034 -0.2301
 1075SOL    MW4 4034   5.061   4.527   3.750 -0.1738 -0.2884  0.1647
 1076SOL     OW 4035   0.383   5.166   0.573  0.5121 -0.3166  0.5460
 1076SOL    HW2 4036   0.454   5.221   0.606  0.4402  2.1695 -2.9030
 1076SOL    HW3 4037   0.304   5.203   0.612  0.6814  0.4634  0.1654
 1076SOL    MW4 4038   0.382   5.178   0.582 -0.1293  1.1462  0.5872
 1077SOL     OW 4039   1.395   4.949   4.685  0.2709  0.4127 -0.0046
 1077SOL    HW2 4040   1.440   5.013   4.740  0.1615  1.2111 -0.8336
 1077SOL    HW3 4041   1.333   4.906   4.745  1.6964 -0.3043  1.0229
 1077SOL    MW4 4042   1.393   4.952   4.700  0.4781  0.2603  0.0450
 1078SOL     OW 4043   0.025   3.634   4.110  0.2824 -0.0560 -0.0671
 1078SOL    HW2 4044   0.011   3.716   4.158  1.8803  0.3398 -0.2374
 1078SOL    HW3 4045  -0.003   3.653   4.021 -0.2739 -0.0056  0.1141
 1078SOL    MW4 4046   0.019   3.647   4.105  0.1745 -0.0684 -0.2845
 1079SOL     OW 4047   6.001   5.176   6.110  0.1470  0.2155  0.2347
 1079SOL    HW2 4048   6.022   5.092   6.070 -1.5711  0.1979 -0.7406
 1079SOL    HW3 4049   5.989   5.156   6.203  1.9531 -0.1690  0.4149
 1079SOL    MW4 4050   6.002   5.162   6.117 -0.0907 -0.2990 -0.9262
 1080SOL     OW 4051   1.561   4.552   6.351  0.1931 -0.1033  0.3535
 1080SOL    HW2 4052   1.478   4.556   6.399  0.2886  0.3380  0.4855
 1080SOL    HW3 4053   1.622   4.601   6.406  0.3849  0.1251 -0.0627
 1080SOL    MW4 4054   1.558   4.559   6.365  0.3689 -0.0549  0.1335
 1081SOL     OW 4055   4.397   3.887   1.230  0.1710  0.3371 -0.0666
 1081SOL    HW2 4056   4.464   3.893   1.162 -0.6527 -0.7335 -1.0249
 1081SOL    HW3 4057   4.393   3.974   1.269  0.7526  0.9395 -1.3195
 1081SOL    MW4 4058   4.405   3.899   1.226  0.7320 -0.1498 -0.1050
 1082SOL     OW 4059   3.158   3.610   5.103  0.2175 -0.4195  0.1078
 1082SOL    HW2 4060   3.218   3.537   5.119  0.1655 -0.5564 -0.2942
 1082SOL    HW3 4061   3.213   3.688   5.102 -0.0834 -0.0288  3.5892
 1082SOL    MW4 4062   3.173   3.610   5.105  0.0349  0.0666  0.2269
 1083SOL     OW 4063   2.283   4.307   3.135  0.8850 -0.1886 -0.1614
 1083SOL    HW2 4064   2.199   4.342   3.165  1.8109  0.4596  1.8211
 1083SOL    HW3 4065   2.346   4.377   3.152  2.0523 -1.1678 -0.3154
 1083SOL    MW4 4066   2.280   4.321   3.141 -0.0833  0.2160  0.4685
 1084SOL     OW 4067   3.978   3.224   4.734  0.3744  0.4243  0.4705
 1084SOL    HW2 4068   4.040   3.179   4.677 -0.6364  1.5887 -1.6723
 1084SOL    HW3 4069   3.926   3.154   4.773  0.3122 -0.3947 -1.0071
 1084SOL    MW4 4070   3.979   3.209   4.732 -0.5104  0.3545 -0.2079
 1085SOL     OW 4071   1.558   3.580   4.487  0.3067 -0.6248  0.0166
 1085SOL    HW2 4072   1.550   3.564   4.581 -0.6123  0.6291  0.1871
 1085SOL    HW3 4073   1.647   3.554   4.465  0.8022 -0.1612  1.4027
 1085SOL    MW4 4074   1.569   3.575   4.497  0.2817  0.0521 -0.1314
 1086SOL     OW 4075   1.743   3.964   5.219 -0.4031  0.0777 -0.5521
 1086SOL    HW2 4076   1.673   4.025   5.240 -0.9318 -0.3605 -0.9659
 1086SOL    HW3 4077   1.768   3.925   5.303 -0.8853  0.0034 -0.4401
 1086SOL    MW4 4078   1.737   3.967   5.233  0.0561  0.6417  0.0410
 1087SOL     OW 4079   2.646   2.297   3.423  0.0936 -0.3672  0.3462
 1087SOL    HW2 4080   2.570   2.258   3.466  0.9322 -3.1858 -0.4754
 1087SOL    HW3 4081   2.715   2.232   3.433  2.1908  1.7332  0.3212
 1087SOL    MW4 4082   2.645   2.283   3.430  0.2012 -0.1897  0.0372
 1088SOL     OW 4083   5.429   3.471   3.594  0.1196 -0.2037  0.2683
 1088SOL    HW2 4084   5.394   3.470   3.505 -4.1280 -0.4011  1.7415
 1088SOL    HW3 4085   5.442   3.563   3.614 -0.6701 -0.0471  0.0590
 1088SOL    MW4 4086   5.426   3.483   3.585  0.0335  0.2907 -0.0947
 1089SOL     OW 4087   3.146   3.158   5.636 -0.0632 -0.0589 -0.2210
 1089SOL    HW2 4088   3.065   3.118   5.603 -0.8293  0.0468  1.4335
 1089SOL    HW3 4089   3.145   3.140   5.730  0.9358  1.5081  0.1217
 1089SOL    MW4 4090   3.135   3.150   5.644  0.0214  0.2421 -0.1623
 1090SOL     OW 4091   2.447   5.815   4.040  0.1904  0.1254  0.4754
 1090SOL    HW2 4092   2.501   5.740   4.066  0.5777  0.6028  1.0776
 1090SOL    HW3 4093   2.449   5.813   3.944 -0.0662 -0.8168  0.4815
 1090SOL    MW4 4094   2.455   5.804   4.031 -0.0107 -0.0759  0.3107
 1091SOL     OW 4095   0.607   3.805   2.403 -0.3205  0.3907  0.4088
 1091SOL    HW2 4096   0.608   3.789   2.497  1.1151  1.1492  0.5437
 1091SOL    HW3 4097   0.602   3.718   2.364 -2.3676  0.1115  1.1497
 1091SOL    MW4 4098   0.606   3.791   2.410 -0.0410 -0.0217 -0.0392
 1092SOL     OW 4099   4.868   0.865   3.278 -0.2007 -0.3032  0.2372
 1092SOL    HW2 4100   4.774   0.879   3.267 -0.1044  0.1967  0.0543
 1092SOL    HW3 4101   4.879   0.851   3.372 -0.5339 -0.9452  0.1879
 1092SOL    MW4 4102   4.857   0.865   3.289 -0.3186 -0.7650 -0.3263
 1093SOL     OW 4103   0.995   0.369   0.004  0.6926 -0.1270 -0.2123
 1093SOL    HW2 4104   1.087   0.346   0.012  0.8832  0.6306 -0.1368
 1093SOL    HW3 4105   0.993   0.439  -0.061  0.0518 -0.7980 -0.9389
 1093SOL    MW4 4106   1.007   0.375  -0.003 -0.0961  0.6314  0.4946
 1094SOL     OW 4107   5.825   4.008   4.794 -0.0323 -0.1381  0.0710
 1094SOL    HW2 4108   5.791   4.098   4.788  0.7769  0.1054 -1.4126
 1094SOL    HW3 4109   5.891   4.012   4.864  0.3012  0.5389 -0.2691
 1094SOL    MW4 4110   5.829   4.021   4.803  0.3326 -0.1278  0.3931
 1095SOL     OW 4111   2.699   0.276   2.105 -0.0111 -0.1040  0.2254
 1095SOL    HW2 4112   2.707   0.368   2.079 -1.2084 -0.2143 -0.6238
 1095SOL    HW3 4113   2.604   0.261   2.111  0.1765 -1.1983  0.6619
 1095SOL    MW4 4114   2.687   0.286   2.103  0.5923 -0.3200  0.0319
 1096SOL     OW 4115   5.242   1.639   4.914  0.1772 -0.3052  0.5062
 1096SOL    HW2 4116   5.330   1.645   4.875  0.2799 -0.7999  0.6637
 1096SOL    HW3 4117   5.196   1.577   4.859 -0.0472 -0.1156  0.4806
 1096SOL    MW4 4118   5.248   1.632   4.901  0.4913  0.1312  0.9502
 1097SOL     OW 4119   1.116   1.403   2.366  0.6153 -0.2144  0.0614
 1097SOL    HW2 4120   1.112   1.456   2.445  0.2423 -1.2108  0.7383
 1097SOL    HW3 4121   1.037   1.349   2.369  1.6838 -1.8370  0.1651
 1097SOL    MW4 4122   1.105   1.403   2.377  0.5545  0.5103 -0.0234
 1098SOL     OW 4123   1.012   1.322   2.696 -0.2537  0.3342 -0.6067
 1098SOL    HW2 4124   0.963   1.321   2.614  0.5108 -1.6155 -1.0870
 1098SOL    HW3 4125   1.059   1.239   2.697 -0.9455 -0.1321  2.2375
 1098SOL    MW4 4126   1.012   1.311   2.685  0.2104 -0.5266  0.5343
 1099SOL     OW 4127   5.283   3.720   2.521  0.3604 -0.0060  0.2429
 1099SOL    HW2 4128   5.219   3.652   2.544 -0.5071  0.8406  0.3880
 1099SOL    HW3 4129   5.257   3.749   2.434  0.2137  0.7212  0.5234
 1099SOL    MW4 4130   5.271   3.715   2.513 -0.6334  0.6316 -0.5737
 1100SOL     OW 4131   0.947   1.638   2.795 -0.1854 -0.8327  0.1741
 1100SOL    HW2 4132   0.988   1.708   2.845 -1.1585  0.0020 -0.1621
 1100SOL    HW3 4133   0.875   1.608   2.850 -0.3808 -0.8934 -0.1092
 1100SOL    MW4 4134   0.943   1.643   2.809 -0.2727  0.6094  0.2107
 1101SOL     OW 4135   3.115   1.341   4.758  0.2709  0.5030 -0.2718
 1101SOL    HW2 4136   3.123   1.421   4.707  2.4780  1.2238  1.0617
 1101SOL    HW3 4137   3.081   1.276   4.697  0.3299  1.9546 -1.9114
 1101SOL    MW4 4138   3.112   1.343   4.743 -0.3860  0.1419 -0.0779
 1102SOL     OW 4139   1.722   0.360   2.296 -0.2870 -0.7050  0.2123
 1102SOL    HW2 4140   1.770   0.300   2.353  1.3280  0.7547  0.4818
 1102SOL    HW3 4141   1.698   0.433   2.352 -1.2655 -0.5684 -0.3545
 1102SOL    MW4 4142   1.725   0.362   2.311 -0.3349  0.5394 -0.2386
 1103SOL     OW 4143   3.871   0.124   3.528  0.4883 -0.7798  0.2433
 1103SOL    HW2 4144   3.807   0.091   3.590 -1.5129 -0.6598 -1.6589
 1103SOL    HW3 4145   3.835   0.207   3.497  0.0844 -2.0096 -2.9037
 1103SOL    MW4 4146   3.858   0.130   3.532  0.3287  0.5601  0.0476
 1104SOL     OW 4147   3.163   1.586   3.263  0.4133 -0.0622 -0.0316
 1104SOL    HW2 4148   3.122   1.649   3.322 -2.2924  0.2690 -2.0470
 1104SOL    HW3 4149   3.100   1.514   3.258 -0.1039  0.4354 -3.2197
 1104SOL    MW4 4150   3.149   1.585   3.270 -0.2116  0.1140 -0.0496
 1105SOL     OW 4151   5.542   1.592   5.962  0.5531  0.0308 -0.1387
 1105SOL    HW2 4152   5.636   1.594   5.946  0.5809  2.4772 -0.0847
 1105SOL    HW3 4153   5.509   1.670   5.917 -1.1484  0.3195  1.5025
 1105SOL    MW4 4154   5.550   1.603   5.954 -0.3154  0.2119  0.0756
 1106SOL     OW 4155   2.751   5.182   5.223 -0.2743  0.3091  0.2225
 1106SOL    HW2 4156   2.710   5.268   5.225  1.7290  1.3775 -0.6474
 1106SOL    HW3 4157   2.743   5.154   5.132 -0.8213 -0.3892  0.4788
 1106SOL    MW4 4158   2.745   5.190   5.211  0.5214 -0.2435 -0.1855
 1107SOL     OW 4159   2.115   4.046   0.711 -0.1378 -0.1260  0.3556
 1107SOL    HW2 4160   2.208   4.049   0.733 -0.3898 -1.4557  1.8015
 1107SOL    HW3 4161   2.080   4.128   0.746  0.0366 -0.8539  2.3620
 1107SOL    MW4 4162   2.123   4.057   0.719  0.1171  0.7473 -0.5776
 1108SOL     OW 4163   3.148   0.171   0.497  0.1347  0.0315 -0.2909
 1108SOL    HW2 4164   3.082   0.217   0.446 -0.6313 -0.2125  0.4637
 1108SOL    HW3 4165   3.180   0.237   0.559  2.4540  0.9214 -2.2458
 1108SOL    MW4 4166   3.144   0.186   0.499  0.8039  0.2996  0.0727
 1109SOL     OW 4167   2.705   0.228   3.055 -0.0654  0.4357  0.1519
 1109SOL    HW2 4168   2.729   0.198   3.142  1.7029  0.5007 -0.2758
 1109SOL    HW3 4169   2.638   0.166   3.026  1.2894 -1.2864  0.4936
 1109SOL    MW4 4170   2.699   0.216   3.063  0.4645 -0.0445  0.2362
 1110SOL     OW 4171   0.134   2.018   0.864 -0.2388 -0.3457 -0.1668
 1110SOL    HW2 4172   0.157   2.111   0.858 -0.5552 -0.2151  0.5512
 1110SOL    HW3 4173   0.212   1.972   0.833  0.0705  0.1483 -0.1322
 1110SOL    MW4 4174   0.148   2.025   0.859  0.8743 -0.0760  0.1150
 1111SOL     OW 4175   5.625   0.692   5.052 -0.2534  0.9135  0.0083
 1111SOL    HW2 4176   5.573   0.698   5.132 -0.9615 -0.4096 -0.3302
 1111SOL    HW3 4177   5.561   0.681   4.982  0.4355  0.0730 -0.5115
 1111SOL    MW4 4178   5.610   0.692   5.053  0.2050 -1.1459 -0.1842
 1112SOL     OW 4179   0.602   4.177   1.816  0.4601 -0.0854 -0.6259
 1112SOL    HW2 4180   0.650   4.095   1.813  0.0069 -0.4524  1.1061
 1112SOL    HW3 4181   0.525   4.158   1.871 -0.2911  1.1713 -1.1927
 1112SOL    MW4 4182   0.598   4.164   1.823 -0.0600 -0.3242 -0.6859
 1113SOL     OW 4183   0.583   0.633   1.615  0.1611 -0.3065 -0.1639
 1113SOL    HW2 4184   0.650   0.695   1.645 -1.0492  1.2390 -0.4980
 1113SOL    HW3 4185   0.521   0.687   1.565 -1.1233 -1.7421 -0.2003
 1113SOL    MW4 4186   0.584   0.648   1.613 -0.0092 -0.5614 -0.7216
 1114SOL     OW 4187   4.754   3.014   4.815 -0.1019 -0.2544 -0.0296
 1114SOL    HW2 4188   4.748   3.109   4.825  1.8470  0.0142 -0.8996
 1114SOL    HW3 4189   4.664   2.986   4.797 -0.9361  1.2231  1.5184
 1114SOL    MW4 4190   4.741   3.022   4.814  0.3192  0.4338 -0.7115
 1115SOL     OW 4191   0.517   5.619   2.637  0.0318  0.4153 -0.2390
 1115SOL    HW2 4192   0.556   5.586   2.718  0.0985  1.9465  0.4032
 1115SOL    HW3 4193   0.542   5.712   2.635 -1.4465  0.8320 -1.1228
 1115SOL    MW4 4194   0.526   5.627   2.647 -0.3142  0.0479  0.0956
 1116SOL     OW 4195   0.108   5.384   2.484 -0.0662  0.0159 -0.3055
 1116SOL    HW2 4196   0.156   5.435   2.548  0.4582  0.8467 -1.3233
 1116SOL    HW3 4197   0.144   5.412   2.399 -1.4143 -0.3233 -1.0211
 1116SOL    MW4 4198   0.119   5.394   2.481 -0.1416  0.2297 -0.2004
 1117SOL     OW 4199   5.312   4.759   3.254 -0.4793  0.0093 -0.2770
 1117SOL    HW2 4200   5.387   4.728   3.202 -1.5592 -1.2329 -1.1615
 1117SOL    HW3 4201   5.331   4.731   3.343 -0.1741 -0.8744 -0.6105
 1117SOL    MW4 4202   5.324   4.751   3.259 -0.3514 -0.4081  0.1856
 1118SOL     OW 4203   4.129   3.723   5.212  0.0850  0.1019 -0.1380
 1118SOL    HW2 4204   4.098   3.710   5.122 -0.3117 -1.2411  0.1721
 1118SOL    HW3 4205   4.216   3.683   5.213 -0.1490 -0.4099  0.2143
 1118SOL    MW4 4206   4.136   3.716   5.200  0.3630 -0.0566  0.1357
 1119SOL     OW 4207   0.484   2.237   2.276  0.2053  0.0605 -0.2868
 1119SOL    HW2 4208   0.415   2.218   2.339  0.6577 -2.1076 -0.3471
 1119SOL    HW3 4209   0.562   2.254   2.329  0.2931 -0.5138 -0.2182
 1119SOL    MW4 4210   0.486   2.237   2.291  0.2443 -0.2885  0.0666
 1120SOL     OW 4211   3.904   0.764   0.025  0.3762 -0.0645  0.3163
 1120SOL    HW2 4212   3.926   0.727   0.110  0.9344 -0.6627 -0.0816
 1120SOL    HW3 4213   3.969   0.834   0.011  0.5219 -0.2203  0.2132
 1120SOL    MW4 4214   3.916   0.769   0.034 -0.0452  0.0598  0.3449
 1121SOL     OW 4215   2.409   4.062   1.293  0.0737  0.4429 -0.2470
 1121SOL    HW2 4216   2.465   4.055   1.370  0.0074  0.0540 -0.2332
 1121SOL    HW3 4217   2.363   4.145   1.305  0.1794  0.4604  0.0533
 1121SOL    MW4 4218   2.410   4.072   1.304 -0.0506 -0.0891 -0.0851
 1122SOL     OW 4219   0.676   3.470   1.057  0.1941  0.3769 -0.5106
 1122SOL    HW2 4220   0.621   3.399   1.024 -1.7893  1.3010  0.6401
 1122SOL    HW3 4221   0.735   3.428   1.119  2.0677 -0.9110 -2.9607
 1122SOL    MW4 4222   0.677   3.455   1.061 -1.1050  0.3191 -0.1934
 1123SOL     OW 4223   1.268   4.748   5.038  0.3970  0.8928  0.0393
 1123SOL    HW2 4224   1.304   4.837   5.035 -1.2182  1.6284 -3.6303
 1123SOL    HW3 4225   1.344   4.691   5.039  1.4866  2.2860  1.5309
 1123SOL    MW4 4226   1.283   4.752   5.038  0.3977  0.5939  0.0943
 1124SOL     OW 4227   2.318   0.901   0.404 -0.3737  0.2926  0.0512
 1124SOL    HW2 4228   2.291   0.918   0.494  0.1492 -1.7818  0.6440
 1124SOL    HW3 4229   2.413   0.914   0.404 -0.4635  1.0245 -0.4085
 1124SOL    MW4 4230   2.327   0.905   0.416  0.3548  0.2446 -0.4481
 1125SOL     OW 4231   5.115   2.311   0.351  0.0765 -0.2925  0.2409
 1125SOL    HW2 4232   5.084   2.368   0.421  0.9538  0.4303  0.0706
 1125SOL    HW3 4233   5.156   2.237   0.396 -0.8075 -0.6578  0.4655
 1125SOL    MW4 4234   5.117   2.309   0.366  0.3649  0.3168 -0.1032
 1126SOL     OW 4235   1.746   5.374   4.451 -0.3097 -0.2632 -0.1555
 1126SOL    HW2 4236   1.749   5.317   4.528 -0.2259  1.6243  1.3227
 1126SOL    HW3 4237   1.835   5.410   4.444 -0.4606  0.0029 -0.8028
 1126SOL    MW4 4238   1.758   5.371   4.460 -0.2770  0.4227  0.3013
 1127SOL     OW 4239   4.109   3.970   1.912 -0.2378 -0.6264  0.8480
 1127SOL    HW2 4240   4.068   3.981   1.826  0.5114 -0.7010  0.4712
 1127SOL    HW3 4241   4.145   4.056   1.932  0.7913 -0.9429  0.4414
 1127SOL    MW4 4242   4.108   3.983   1.903  0.9897  0.2345  0.1448
 1128SOL     OW 4243   0.550   5.599   2.365 -0.5063 -0.5384  0.4210
 1128SOL    HW2 4244   0.471   5.561   2.329 -1.0280  0.7169  0.2054
 1128SOL    HW3 4245   0.539   5.591   2.460 -1.3076  0.4204  0.4216
 1128SOL    MW4 4246   0.538   5.592   2.373 -0.3981  0.3897 -0.0511
 1129SOL     OW 4247   0.383   2.284   0.591  0.1855 -0.5703  0.2146
 1129SOL    HW2 4248   0.449   2.339   0.633 -0.1881 -0.5560  0.7976
 1129SOL    HW3 4249   0.324   2.259   0.662 -0.9849  0.1949 -0.4627
 1129SOL    MW4 4250   0.384   2.288   0.606 -0.1443  0.3277 -1.2686
 1130SOL     OW 4251   4.646   6.245   3.424  0.0475 -0.2534 -0.2749
 1130SOL    HW2 4252   4.702   6.176   3.388  2.6831  1.0867  0.9081
 1130SOL    HW3 4253   4.594   6.275   3.349  2.2761 -0.3948 -2.0021
 1130SOL    MW4 4254   4.647   6.240   3.409  0.4361 -0.1459  0.0205
 1131SOL     OW 4255   0.365   2.799   5.602  0.6747 -0.1600 -0.0646
 1131SOL    HW2 4256   0.320   2.832   5.680 -0.2273 -2.7910  0.6506
 1131SOL    HW3 4257   0.456   2.828   5.612  0.8929 -1.4595  2.6954
 1131SOL    MW4 4258   0.371   2.807   5.614 -0.3107  0.2453 -0.1055
 1132SOL     OW 4259   3.870   4.034   3.018  0.3992 -0.3679 -0.1207
 1132SOL    HW2 4260   3.938   4.004   3.078 -0.4249 -0.9431  0.5465
 1132SOL    HW3 4261   3.795   3.978   3.036 -0.7292  1.1695  0.1701
 1132SOL    MW4 4262   3.869   4.023   3.028  0.1590 -0.0845 -0.3119
 1133SOL     OW 4263   3.992   4.707   3.559  0.1176  0.2039 -0.0048
 1133SOL    HW2 4264   4.066   4.755   3.596  1.8655  0.0456 -2.9601
 1133SOL    HW3 4265   3.984   4.630   3.614  1.4799  0.7375  1.0071
 1133SOL    MW4 4266   4.001   4.703   3.571 -0.3075  1.0878  0.3689
 1134SOL     OW 4267   4.002   2.751   2.856  0.1740  0.4608 -0.6815
 1134SOL    HW2 4268   4.088   2.713   2.868 -0.3228  0.0651  2.2788
 1134SOL    HW3 4269   3.997   2.769   2.762  2.6742 -1.3126 -1.2575
 1134SOL    MW4 4270   4.013   2.749   2.845  0.1184  0.4359 -0.3387
 1135SOL     OW 4271   1.682   1.876   6.387 -0.3645 -0.1792 -0.4132
 1135SOL    HW2 4272   1.600   1.904   6.346  0.1632  2.5892  0.1954
 1135SOL    HW3 4273   1.686   1.926   6.468  0.9779 -1.8341  0.5997
 1135SOL    MW4 4274   1.672   1.886   6.392 -0.1397 -0.0832 -0.2689
 1136SOL     OW 4275   2.416   4.294   1.046  0.0556 -0.3622  0.0614
 1136SOL    HW2 4276   2.449   4.279   1.134  1.3254  1.3528 -0.0856
 1136SOL    HW3 4277   2.325   4.320   1.059  0.1089 -0.5368  0.8271
 1136SOL    MW4 4278   2.408   4.295   1.059  0.7102 -0.1975 -0.0761
 1137SOL     OW 4279   3.051   0.707   0.903 -0.1398  0.3447 -0.0684
 1137SOL    HW2 4280   3.108   0.631   0.911 -1.8283 -1.0837 -0.7420
 1137SOL    HW3 4281   3.086   0.771   0.964  1.4341 -0.9109  0.4043
 1137SOL    MW4 4282   3.063   0.706   0.912  0.2123  0.3777  0.4118
 1138SOL     OW 4283   0.204   4.779   1.036 -0.1924  0.4520  0.7963
 1138SOL    HW2 4284   0.230   4.868   1.061  0.8790 -0.2480  2.3550
 1138SOL    HW3 4285   0.287   4.732   1.028 -0.7977 -0.9487  2.2164
 1138SOL    MW4 4286   0.219   4.784   1.038 -0.1940  0.0242  0.2000
 1139SOL     OW 4287   5.378   3.221   4.815  0.2284  0.5123 -0.2653
 1139SOL    HW2 4288   5.413   3.266   4.892  0.3975 -0.0143 -0.0298
 1139SOL    HW3 4289   5.336   3.290   4.764  1.7781  1.2021 -0.6480
 1139SOL    MW4 4290   5.377   3.236   4.819  0.0696  0.0880 -0.0556
 1140SOL     OW 4291   1.968   0.329   2.074 -0.1803 -0.0469 -0.1786
 1140SOL    HW2 4292   2.053   0.308   2.113 -0.3521 -0.4288 -0.0036
 1140SOL    HW3 4293   1.913   0.350   2.149 -0.7124 -1.4748 -0.1344
 1140SOL    MW4 4294   1.972   0.329   2.089  0.3884  0.4455 -0.0771
 1141SOL     OW 4295   5.671   0.837   4.270 -0.5919  0.2613 -0.1428
 1141SOL    HW2 4296   5.673   0.854   4.176  0.2418 -0.1108 -0.1912
 1141SOL    HW3 4297   5.715   0.754   4.282 -0.9063  0.1785  0.5610
 1141SOL    MW4 4298   5.677   0.829   4.259  0.4419  0.0967  0.4253
 1142SOL     OW 4299   0.016   1.217   2.138 -0.3140 -0.5584  0.1694
 1142SOL    HW2 4300   0.104   1.189   2.164 -0.4927 -0.2957  1.0787
 1142SOL    HW3 4301  -0.030   1.231   2.220 -1.2505 -0.8120 -0.3007
 1142SOL    MW4 4302   0.022   1.215   2.152 -0.0865 -0.3790 -0.1231
 1143SOL     OW 4303   2.893   2.562   2.519 -0.4657 -0.1334  0.0864
 1143SOL    HW2 4304   2.885   2.581   2.426 -0.1160 -0.9885 -0.1261
 1143SOL    HW3 4305   2.804   2.567   2.553 -0.9222 -1.9234 -0.7258
 1143SOL    MW4 4306   2.880   2.565   2.511  0.2177 -0.3780  0.3462
 1144SOL     OW 4307   6.068   6.360   4.077  0.1807 -0.1497  0.2449
 1144SOL    HW2 4308   6.138   6.327   4.134  0.3629 -0.8629 -0.3847
 1144SOL    HW3 4309   6.000   6.293   4.081  0.8634 -1.0169 -1.6298
 1144SOL    MW4 4310   6.068   6.347   4.085  0.2706  0.0505 -0.4816
 1145SOL     OW 4311   2.120   3.794   5.823 -0.2337  0.1219 -0.4499
 1145SOL    HW2 4312   2.104   3.715   5.874  1.5859  0.3520  0.5460
 1145SOL    HW3 4313   2.063   3.784   5.746  0.2784 -2.4080 -0.6123
 1145SOL    MW4 4314   2.111   3.782   5.819  0.0126 -0.5134 -0.2399
 1146SOL     OW 4315   4.964   4.313   0.821  0.3893 -0.1000 -0.5484
 1146SOL    HW2 4316   5.019   4.384   0.789  0.6958  0.7871  1.8153
 1146SOL    HW3 4317   4.916   4.350   0.895 -1.8607 -1.4566 -1.2141
 1146SOL    MW4 4318   4.965   4.327   0.826  0.4902  0.4237 -0.5125
 1147SOL     OW 4319   6.404   3.815   2.988 -0.6874  0.4802 -0.2557
 1147SOL    HW2 4320   6.380   3.856   2.904 -0.6225  0.4322 -0.2980
 1147SOL    HW3 4321   6.325   3.770   3.016 -1.0594  1.4611  0.2825
 1147SOL    MW4 4322   6.391   3.815   2.980  0.2960  0.0358  0.1303
 1148SOL     OW 4323   1.005   2.695   5.836 -0.5470  0.3122  0.4444
 1148SOL    HW2 4324   1.078   2.756   5.833 -0.9479  0.8378  1.1454
 1148SOL    HW3 4325   1.044   2.610   5.813 -0.0066  0.8304 -0.6440
 1148SOL    MW4 4326   1.020   2.692   5.833 -0.3415  0.4694 -0.2884
 1149SOL     OW 4327   3.346   5.432   4.241  0.1473  0.4556  0.4036
 1149SOL    HW2 4328   3.421   5.492   4.228  0.3497 -0.0693 -1.1050
 1149SOL    HW3 4329   3.375   5.373   4.310  0.7809  0.8161  0.4624
 1149SOL    MW4 4330   3.360   5.432   4.248  0.0739  0.1193  0.4038
 1150SOL     OW 4331   3.630   1.516   4.719 -0.1374  0.3985 -0.0614
 1150SOL    HW2 4332   3.635   1.567   4.801 -0.3546 -0.2098  0.3382
 1150SOL    HW3 4333   3.652   1.427   4.745  0.9283  0.4068 -0.8912
 1150SOL    MW4 4334   3.634   1.511   4.733  0.8093 -0.1432 -0.2666
 1151SOL     OW 4335   3.076   4.987   4.943  0.1645 -0.0357 -0.2614
 1151SOL    HW2 4336   3.121   4.963   5.024 -0.1926 -1.2233 -0.4014
 1151SOL    HW3 4337   3.071   5.082   4.946 -0.3761 -0.0867  1.4015
 1151SOL    MW4 4338   3.082   4.996   4.954 -0.0950  0.2019 -0.0788
 1152SOL     OW 4339   3.994   0.915   5.617  0.1335  0.9193 -0.6372
 1152SOL    HW2 4340   3.907   0.944   5.588 -0.5941 -1.6477 -1.2866
 1152SOL    HW3 4341   4.019   0.979   5.684 -1.4194  2.7794 -1.7058
 1152SOL    MW4 4342   3.986   0.928   5.622  0.3862 -0.5720 -0.1049
 1153SOL     OW 4343   5.992   2.036   0.252 -0.3064  0.1282 -0.4240
 1153SOL    HW2 4344   5.911   2.028   0.201  0.1757  1.0455 -1.3534
 1153SOL    HW3 4345   6.062   2.018   0.190  0.3526  2.4283 -0.4237
 1153SOL    MW4 4346   5.990   2.033   0.237  0.1293  0.1274  0.0427
 1154SOL     OW 4347   2.780   5.549   3.811  0.1603 -0.1086 -0.2824
 1154SOL    HW2 4348   2.816   5.613   3.872  1.8501  0.1488 -1.4815
 1154SOL    HW3 4349   2.856   5.501   3.778 -0.9385 -1.8922 -0.3839
 1154SOL    MW4 4350   2.795   5.551   3.815  0.3805  0.1731 -0.0284
 1155SOL     OW 4351   5.584   0.976   2.523  0.2244 -0.1239 -0.1083
 1155SOL    HW2 4352   5.584   1.063   2.485  1.3219  0.9930  2.2231
 1155SOL    HW3 4353   5.499   0.969   2.567 -0.0416 -0.4126 -0.6665
 1155SOL    MW4 4354   5.573   0.987   2.524  0.1028  0.0540  0.1364
 1156SOL     OW 4355   4.279   2.434   4.877 -0.1081 -0.4673 -0.1349
 1156SOL    HW2 4356   4.278   2.360   4.937 -1.7761  0.5157  1.1326
 1156SOL    HW3 4357   4.365   2.474   4.889 -0.1782 -0.6583  1.1565
 1156SOL    MW4 4358   4.290   2.430   4.886 -0.0301 -0.0231 -0.3952
 1157SOL     OW 4359   2.806   4.196   6.096 -0.2940 -0.7508  0.5911
 1157SOL    HW2 4360   2.879   4.134   6.104  0.1785 -0.1620  1.0091
 1157SOL    HW3 4361   2.764   4.173   6.013  0.8188 -0.6382 -0.0297
 1157SOL    MW4 4362   2.810   4.185   6.086  0.4901 -0.2184 -0.5790
 1158SOL     OW 4363   3.592   1.021   4.013 -0.2991  0.1803 -0.0226
 1158SOL    HW2 4364   3.637   1.046   4.094  0.4008  1.2014 -0.7095
 1158SOL    HW3 4365   3.660   0.981   3.959 -0.7333 -0.3601 -0.1766
 1158SOL    MW4 4366   3.607   1.019   4.017 -0.2374  0.7329  0.0301
 1159SOL     OW 4367   4.654   2.403   5.933  0.2073  0.0484  0.4568
 1159SOL    HW2 4368   4.658   2.445   6.019 -0.5569  0.9257  0.0821
 1159SOL    HW3 4369   4.569   2.358   5.932  0.3113 -0.1452  0.2470
 1159SOL    MW4 4370   4.643   2.402   5.944  0.6514  0.0722 -0.3754
 1160SOL     OW 4371   0.046   0.750   1.283  0.6334 -0.2881 -0.0257
 1160SOL    HW2 4372   0.083   0.758   1.196  0.0732 -0.9137 -0.3291
 1160SOL    HW3 4373   0.002   0.665   1.283 -0.4225  0.2364  0.4559
 1160SOL    MW4 4374   0.045   0.740   1.272  0.1611 -0.5030  0.1515
 1161SOL     OW 4375   0.942   3.050   4.963  0.1681 -0.1274 -0.3225
 1161SOL    HW2 4376   0.877   3.040   5.032  0.5587  1.1702  0.2567
 1161SOL    HW3 4377   0.891   3.067   4.883 -0.2204  0.4055  0.0348
 1161SOL    MW4 4378   0.927   3.051   4.961  0.3720  0.1065 -0.1569
 1162SOL     OW 4379   0.389   2.197   3.350 -0.4335  0.2326  0.3858
 1162SOL    HW2 4380   0.477   2.230   3.367  0.4859 -2.5614  1.6529
 1162SOL    HW3 4381   0.351   2.182   3.437 -1.6122  0.0299 -0.1339
 1162SOL    MW4 4382   0.395   2.199   3.364 -0.3778 -0.0962  0.3638
 1163SOL     OW 4383   1.342   0.450   3.598 -0.0697 -0.2987  0.0851
 1163SOL    HW2 4384   1.333   0.506   3.675 -1.7093 -0.8390  0.3273
 1163SOL    HW3 4385   1.254   0.417   3.582  0.6621 -1.9989 -0.6763
 1163SOL    MW4 4386   1.329   0.453   3.606 -0.0277  0.5418  0.1112
 1164SOL     OW 4387   4.369   6.047   3.238  0.2102 -0.6745 -1.0526
 1164SOL    HW2 4388   4.325   5.967   3.209 -0.0963 -0.1857 -1.9961
 1164SOL    HW3 4389   4.458   6.018   3.260 -0.4859 -1.6280  0.6642
 1164SOL    MW4 4390   4.375   6.033   3.237  0.1617  0.4168  0.1357
 1165SOL     OW 4391   2.054   4.052   4.614  0.1801  0.7833  0.3591
 1165SOL    HW2 4392   2.019   4.137   4.588 -0.7909  0.5563  0.8809
 1165SOL    HW3 4393   1.979   3.993   4.612  0.7543  0.0273  0.4268
 1165SOL    MW4 4394   2.040   4.055   4.610  0.1459 -0.2091  0.7770
 1166SOL     OW 4395   4.077   5.949   3.415 -0.2847  0.4008  0.1625
 1166SOL    HW2 4396   4.022   6.022   3.443 -0.4202  0.5537 -0.4791
 1166SOL    HW3 4397   4.164   5.969   3.451 -0.6608  0.1045  1.2629
 1166SOL    MW4 4398   4.082   5.961   3.423 -0.1927  0.1154 -0.1723
 1167SOL     OW 4399   2.989   5.633   1.849  0.2777 -0.1024 -0.2695
 1167SOL    HW2 4400   3.048   5.569   1.809  0.7344  0.4996 -0.5853
 1167SOL    HW3 4401   3.047   5.703   1.879 -0.0880 -0.4103  1.2162
 1167SOL    MW4 4402   3.004   5.634   1.848  0.4640 -0.7029 -0.2707
 1168SOL     OW 4403   3.673   5.372   5.009 -0.0946  0.1546  0.1387
 1168SOL    HW2 4404   3.691   5.279   5.025 -0.5484 -0.2080 -1.2974
 1168SOL    HW3 4405   3.750   5.417   5.044 -0.7512 -0.5561  2.7015
 1168SOL    MW4 4406   3.685   5.365   5.016 -0.7385 -0.4106  0.0709
 1169SOL     OW 4407   1.957   2.465   4.423 -1.0209 -0.4285  0.3298
 1169SOL    HW2 4408   2.020   2.418   4.477 -0.3176 -0.4100 -0.4575
 1169SOL    HW3 4409   1.910   2.521   4.484  0.8124  0.7380  0.7215
 1169SOL    MW4 4410   1.959   2.466   4.438  0.2887  0.3957  0.6545
 1170SOL     OW 4411   0.959   1.514   0.927 -0.4141 -0.6580  0.0355
 1170SOL    HW2 4412   1.034   1.551   0.973 -0.5523  1.0036 -0.9797
 1170SOL    HW3 4413   0.886   1.573   0.948 -1.2932 -1.8363  0.4240
 1170SOL    MW4 4414   0.959   1.527   0.936  0.0717  0.8681 -0.8928
 1171SOL     OW 4415   0.776   2.580   4.004  0.2509 -0.6909  0.2540
 1171SOL    HW2 4416   0.809   2.639   3.936  0.2169 -1.5102 -0.4929
 1171SOL    HW3 4417   0.684   2.606   4.016  0.2623 -0.5317  0.0053
 1171SOL    MW4 4418   0.768   2.591   3.997 -0.5068 -0.1876  0.4495
 1172SOL     OW 4419   0.495   6.370   5.970  0.0837  0.1338  1.0806
 1172SOL    HW2 4420   0.531   6.302   5.913 -0.0078 -0.5504  1.8079
 1172SOL    HW3 4421   0.472   6.323   6.051  0.3651  1.0904  1.7403
 1172SOL    MW4 4422   0.497   6.355   5.973  0.6730  0.5255 -0.6593
 1173SOL     OW 4423   5.466   2.608   3.230  0.1816 -0.3667  0.3281
 1173SOL    HW2 4424   5.487   2.553   3.155  0.0871 -0.0912  0.0958
 1173SOL    HW3 4425   5.520   2.574   3.301  0.5409 -0.4022  0.0409
 1173SOL    MW4 4426   5.476   2.596   3.229 -0.2157  0.4217 -0.3582
 1174SOL     OW 4427   5.056   3.273   4.517 -0.3282 -0.1504  0.0525
 1174SOL    HW2 4428   5.110   3.208   4.473  1.3608  0.3058  1.3494
 1174SOL    HW3 4429   4.991   3.222   4.564  0.4014 -0.8512  0.3170
 1174SOL    MW4 4430   5.055   3.258   4.517 -0.6681 -0.0990  0.3446
 1175SOL     OW 4431   1.943   4.829   2.042 -0.4429 -0.4157  0.1348
 1175SOL    HW2 4432   1.885   4.850   1.969 -1.0843 -1.2211  0.4053
 1175SOL    HW3 4433   1.987   4.748   2.015  1.8564  1.0284 -0.8077
 1175SOL    MW4 4434   1.941   4.821   2.029 -0.3201 -0.0091  0.6397
 1176SOL     OW 4435   6.387   3.538   0.081  0.2135  0.0276  0.5368
 1176SOL    HW2 4436   6.441   3.558   0.004  1.7235 -0.8773  1.3137
 1176SOL    HW3 4437   6.362   3.624   0.116 -0.4658  0.4550 -0.9016
 1176SOL    MW4 4438   6.391   3.552   0.075 -0.0558 -0.0150  0.3552
 1177SOL     OW 4439   6.242   4.622   4.282 -0.3570 -0.1005 -0.2554
 1177SOL    HW2 4440   6.210   4.649   4.196 -0.0815 -0.3114 -0.4279
 1177SOL    HW3 4441   6.334   4.648   4.282  0.2438 -2.0477 -0.8805
 1177SOL    MW4 4442   6.250   4.629   4.271  0.5560 -0.0582 -0.5946
 1178SOL     OW 4443   4.094   4.568   2.089  0.7197 -0.0166  0.0636
 1178SOL    HW2 4444   4.188   4.581   2.078  0.4190  2.6054 -0.0558
 1178SOL    HW3 4445   4.056   4.591   2.004 -0.0757 -1.0717  0.1006
 1178SOL    MW4 4446   4.101   4.572   2.077  0.1509 -0.0939 -0.7848
 1179SOL     OW 4447   2.656   1.284   4.623 -0.2492  0.1363  0.0636
 1179SOL    HW2 4448   2.685   1.193   4.628 -0.9108 -0.1575 -0.9956
 1179SOL    HW3 4449   2.703   1.328   4.693 -0.0578 -1.0598  0.7163
 1179SOL    MW4 4450   2.666   1.278   4.633 -0.0302 -0.3139 -0.1341
 1180SOL     OW 4451   5.916   5.259   2.025 -0.1786 -0.1812  0.3561
 1180SOL    HW2 4452   5.845   5.196   2.039  0.6684 -1.2143  0.2102
 1180SOL    HW3 4453   5.917   5.273   1.931 -0.7207  0.4887  0.4469
 1180SOL    MW4 4454   5.907   5.252   2.014  0.1749  0.3220  0.0484
 1181SOL     OW 4455   5.618   4.800   2.026  0.6046 -0.2740 -0.3776
 1181SOL    HW2 4456   5.629   4.891   2.052  0.5380  0.0642 -1.4903
 1181SOL    HW3 4457   5.658   4.795   1.939 -1.2567 -0.8030 -1.2456
 1181SOL    MW4 4458   5.625   4.811   2.018 -0.1385 -0.4562  0.2969
 1182SOL     OW 4459   5.345   2.883   0.016  0.1489 -0.5023 -0.3574
 1182SOL    HW2 4460   5.341   2.973   0.049 -1.1125 -0.5937 -0.1998
 1182SOL    HW3 4461   5.352   2.829   0.094  0.4185 -0.5669 -0.4260
 1182SOL    MW4 4462   5.345   2.888   0.030 -0.1022  0.2816  0.4650
 1183SOL     OW 4463   4.990   0.237   4.533  0.3137  0.0055  0.4935
 1183SOL    HW2 4464   4.903   0.275   4.529  0.3043 -0.0129  0.5207
 1183SOL    HW3 4465   4.990   0.185   4.614 -0.5678 -2.2526 -0.8481
 1183SOL    MW4 4466   4.979   0.235   4.543 -0.1395 -0.1702  0.6771
 1184SOL     OW 4467   1.459   3.870   2.027  0.1319 -0.2085  0.2979
 1184SOL    HW2 4468   1.426   3.810   1.960  0.9836 -1.3161  0.8393
 1184SOL    HW3 4469   1.490   3.946   1.977 -0.1291 -0.6002 -0.4823
 1184SOL    MW4 4470   1.459   3.872   2.011 -0.3568  0.6426  0.1696
 1185SOL     OW 4471   1.361   6.003   2.070 -0.0773 -0.1890 -1.1442
 1185SOL    HW2 4472   1.334   6.095   2.069  1.0140  0.1651 -3.3239
 1185SOL    HW3 4473   1.296   5.960   2.126 -1.4618  1.6530 -1.2338
 1185SOL    MW4 4474   1.349   6.010   2.077 -0.0737 -0.2976  0.2095
 1186SOL     OW 4475   5.517   2.060   5.692 -0.2661 -0.6109  0.6357
 1186SOL    HW2 4476   5.449   2.116   5.728  0.8809  0.2465  1.5205
 1186SOL    HW3 4477   5.559   2.113   5.624 -0.0821 -0.9045  0.5174
 1186SOL    MW4 4478   5.514   2.074   5.688  0.3263 -0.1011 -0.3233
 1187SOL     OW 4479   1.848   4.408   2.206 -0.4123 -0.1091  0.4586
 1187SOL    HW2 4480   1.936   4.433   2.176 -1.1364  2.3201  0.0892
 1187SOL    HW3 4481   1.794   4.412   2.127 -0.8467 -1.8077  0.6368
 1187SOL    MW4 4482   1.852   4.412   2.191  0.2423 -0.2030  0.0604
 1188SOL     OW 4483   3.126   1.360   3.542  0.3600 -0.6143 -0.7648
 1188SOL    HW2 4484   3.073   1.368   3.463  0.1008 -1.4042 -0.6798
 1188SOL    HW3 4485   3.079   1.296   3.596  0.8946 -0.6013 -0.2701
 1188SOL    MW4 4486   3.113   1.352   3.539 -0.3220 -0.5286  0.5271
 1189SOL     OW 4487   4.166   1.904   1.825 -0.7224 -0.3309 -0.2377
 1189SOL    HW2 4488   4.231   1.968   1.798 -0.0271 -1.9441 -2.7536
 1189SOL    HW3 4489   4.217   1.826   1.846 -1.6715 -0.7231  0.6508
 1189SOL    MW4 4490   4.181   1.902   1.824  0.3324 -0.2774  0.0239
 1190SOL     OW 4491   3.820   3.894   4.055 -0.2216 -0.4866 -0.6361
 1190SOL    HW2 4492   3.852   3.874   4.143  1.1747 -0.7050 -1.1618
 1190SOL    HW3 4493   3.727   3.911   4.066  0.1808  0.8987  1.1158
 1190SOL    MW4 4494   3.812   3.894   4.068  0.1114 -0.0317  0.1356
 1191SOL     OW 4495   4.285   1.761   1.563 -0.1332 -0.1743 -0.1996
 1191SOL    HW2 4496   4.228   1.730   1.633  0.8349 -1.3972  0.0860
 1191SOL    HW3 4497   4.302   1.683   1.510  1.2460  0.1604 -0.2836
 1191SOL    MW4 4498   4.280   1.747   1.565  0.3466 -0.0359  0.5666
 1192SOL     OW 4499   1.858   4.234   4.520  0.4526  0.1745  0.0374
 1192SOL    HW2 4500   1.890   4.257   4.433  1.7631  0.1149  0.4812
 1192SOL    HW3 4501   1.775   4.188   4.503  0.1521  1.0732 -1.1008
 1192SOL    MW4 4502   1.851   4.231   4.506  0.2160  0.3896 -0.1153
 1193SOL     OW 4503   4.231   3.661   1.271  0.7914 -0.0208  0.4904
 1193SOL    HW2 4504   4.279   3.740   1.245  1.5676 -0.1882  1.3639
 1193SOL    HW3 4505   4.296   3.591   1.268  0.2022 -0.5598  0.1010
 1193SOL    MW4 4506   4.246   3.663   1.267 -0.1123  0.3574  0.0013
 1194SOL     OW 4507   5.742   1.270   1.115 -0.7742  0.0595  0.6407
 1194SOL    HW2 4508   5.780   1.349   1.076 -0.7150 -1.2856 -2.2944
 1194SOL    HW3 4509   5.705   1.300   1.198 -0.1343  3.0040 -0.0050
 1194SOL    MW4 4510   5.742   1.285   1.121  0.4506 -0.1362  0.4077
 1195SOL     OW 4511   1.884   6.118   1.411  0.2835  0.6231  0.5639
 1195SOL    HW2 4512   1.915   6.130   1.321 -0.0511  0.7127  0.4578
 1195SOL    HW3 4513   1.789   6.112   1.403  0.2841  0.1505  0.8642
 1195SOL    MW4 4514   1.875   6.119   1.398  0.3868  0.0541 -0.3231
 1196SOL     OW 4515   0.424   2.712   1.433 -0.1995  0.5811  0.2673
 1196SOL    HW2 4516   0.489   2.654   1.473  1.5461  2.6917  0.6891
 1196SOL    HW3 4517   0.359   2.653   1.395 -0.2021 -1.6211  3.3017
 1196SOL    MW4 4518   0.424   2.696   1.433  0.5000  0.0256 -0.1408
 1197SOL     OW 4519   5.097   0.017   2.107 -0.0548  0.2687  0.2058
 1197SOL    HW2 4520   5.130   0.093   2.155  1.5121 -0.4370  0.2832
 1197SOL    HW3 4521   5.078  -0.048   2.174  0.9052 -0.2529 -0.0079
 1197SOL    MW4 4522   5.099   0.019   2.122  0.1251  0.1783  0.8876
 1198SOL     OW 4523   0.930   4.086   6.230 -0.3640  0.0457 -0.1988
 1198SOL    HW2 4524   0.851   4.103   6.282  0.3544 -1.8156  1.6481
 1198SOL    HW3 4525   1.000   4.077   6.295  1.4756  1.8605 -1.7852
 1198SOL    MW4 4526   0.929   4.087   6.246 -0.0562 -0.0924 -0.1449
 1199SOL     OW 4527   1.611   1.774   1.620 -0.3862 -0.0435  0.0801
 1199SOL    HW2 4528   1.536   1.773   1.561  0.2850  0.4069 -0.8156
 1199SOL    HW3 4529   1.574   1.791   1.706 -1.3639 -0.4088 -0.2521
 1199SOL    MW4 4530   1.596   1.776   1.623  0.0480 -0.0204 -0.5288
 1200SOL     OW 4531   0.497   5.882   3.315 -0.0720 -0.4361 -0.5070
 1200SOL    HW2 4532   0.421   5.926   3.276 -0.0750 -0.7984 -0.9196
 1200SOL    HW3 4533   0.521   5.937   3.390 -1.6415 -1.0670  0.5220
 1200SOL    MW4 4534   0.490   5.895   3.320 -0.5685  0.0186  0.3400
 1201SOL     OW 4535   5.913   1.922   2.424  0.5151 -0.2766  0.2676
 1201SOL    HW2 4536   5.963   1.893   2.500  0.3940  1.6798  1.1552
 1201SOL    HW3 4537   5.915   2.017   2.429 -1.4200 -0.1208 -0.9171
 1201SOL    MW4 4538   5.920   1.931   2.435  0.1277 -0.3406  0.2186
 1202SOL     OW 4539   2.946   1.746   4.995 -0.1045  0.7067  0.6635
 1202SOL    HW2 4540   2.972   1.656   5.017 -0.5291  0.8204  1.6781
 1202SOL    HW3 4541   3.026   1.797   5.005 -0.2696  0.7442  1.9421
 1202SOL    MW4 4542   2.960   1.741   4.999 -0.7671  0.1594 -0.3197
 1203SOL     OW 4543   0.617   3.708   3.021  0.2500 -0.6831 -0.3411
 1203SOL    HW2 4544   0.568   3.631   3.050 -0.5760  0.2463  0.8419
 1203SOL    HW3 4545   0.579   3.729   2.935 -0.2441 -0.9869 -0.2039
 1203SOL    MW4 4546   0.605   3.700   3.014  0.2626 -0.1633 -0.6466
 1204SOL     OW 4547   3.587   5.953   0.492 -0.0097  0.3216  0.2511
 1204SOL    HW2 4548   3.561   6.043   0.512  0.9458  0.4220  1.1073
 1204SOL    HW3 4549   3.589   5.910   0.577  0.5801 -0.2293 -0.0377
 1204SOL    MW4 4550   3.584   5.959   0.506  0.3250  0.4157  0.2402
 1205SOL     OW 4551   2.021   0.215   1.332  0.3024 -0.1483 -0.0075
 1205SOL    HW2 4552   2.066   0.178   1.256  0.7793  0.4450 -0.0197
 1205SOL    HW3 4553   1.947   0.156   1.347  1.1459 -1.2132  0.0870
 1205SOL    MW4 4554   2.018   0.203   1.324  0.3771 -0.9335 -0.4602
 1206SOL     OW 4555   1.830   5.299   1.988  0.1491 -0.7229 -0.1975
 1206SOL    HW2 4556   1.865   5.259   2.068  1.6873  2.4061  0.8589
 1206SOL    HW3 4557   1.736   5.309   2.007  0.5402  0.2997  1.4451
 1206SOL    MW4 4558   1.822   5.295   2.001  0.2250 -0.0752 -0.6169
 1207SOL     OW 4559   5.177   3.564   4.213 -0.4221  0.0692 -0.1885
 1207SOL    HW2 4560   5.153   3.502   4.145  2.4973 -0.9359 -0.4499
 1207SOL    HW3 4561   5.258   3.529   4.250  0.5115  2.8989  0.7426
 1207SOL    MW4 4562   5.185   3.552   4.209 -0.4316 -0.3271 -0.3353
 1208SOL     OW 4563   2.279   1.545   6.042 -0.1269 -0.0836 -0.2917
 1208SOL    HW2 4564   2.249   1.635   6.034  1.9094  0.6583 -0.2048
 1208SOL    HW3 4565   2.229   1.497   5.975 -0.6957  1.2600 -0.8618
 1208SOL    MW4 4566   2.269   1.550   6.032 -0.8550 -0.2240 -0.1470
 1209SOL     OW 4567   0.968   6.053   2.752  0.0526 -0.1130 -0.5249
 1209SOL    HW2 4568   0.922   5.988   2.805  0.3924  1.3191  1.6405
 1209SOL    HW3 4569   1.061   6.033   2.764  0.1538  0.6091  0.0130
 1209SOL    MW4 4570   0.974   6.042   2.760 -0.5063 -0.1355  0.5001
 1210SOL     OW 4571   2.855   5.308   0.269  0.3427  0.2548 -0.4505
 1210SOL    HW2 4572   2.924   5.338   0.209 -1.1746  3.0836 -0.9378
 1210SOL    HW3 4573   2.901   5.293   0.352  1.8478  0.0278 -1.2781
 1210SOL    MW4 4574   2.870   5.310   0.272  0.2960  0.4348 -1.1172
 1211SOL     OW 4575   2.012   2.172   0.820 -0.2128 -0.0663 -0.1892
 1211SOL    HW2 4576   1.984   2.239   0.883  0.3204  0.9762 -1.0239
 1211SOL    HW3 4577   2.062   2.110   0.872  0.2988  0.8185  0.4099
 1211SOL    MW4 4578   2.015   2.173   0.835  0.3544 -0.9080 -0.1076
 1212SOL     OW 4579   0.447   1.227   1.854 -0.1206 -0.9514  0.5394
 1212SOL    HW2 4580   0.392   1.154   1.880 -2.9055  0.7307 -0.2009
 1212SOL    HW3 4581   0.464   1.275   1.935 -0.7748 -0.8232  0.6000
 1212SOL    MW4 4582   0.442   1.224   1.868  0.1460  0.2937 -0.0937
 1213SOL     OW 4583   6.075   0.242   0.759  0.2194  0.5753  0.7221
 1213SOL    HW2 4584   6.104   0.332   0.741 -1.3051  0.8857 -0.3518
 1213SOL    HW3 4585   6.020   0.251   0.838 -1.1207  0.8755 -0.2016
 1213SOL    MW4 4586   6.071   0.255   0.767 -0.2444 -0.7940  0.4213
 1214SOL     OW 4587   2.966   5.995   1.304 -0.3101 -0.1466 -0.1226
 1214SOL    HW2 4588   2.977   6.043   1.387 -0.7675 -1.1398  0.5275
 1214SOL    HW3 4589   2.931   6.060   1.244 -0.9137  0.3550  0.7451
 1214SOL    MW4 4590   2.963   6.010   1.307 -0.2983  0.7048  0.0744
 1215SOL     OW 4591   3.977   0.590   1.200  0.4282  0.1312  0.4842
 1215SOL    HW2 4592   4.052   0.585   1.259 -0.3105  0.1484  1.4471
 1215SOL    HW3 4593   3.943   0.679   1.212 -0.3288 -0.1964  0.7997
 1215SOL    MW4 4594   3.982   0.601   1.210 -0.3486  0.2179  0.4101
 1216SOL     OW 4595   1.140   5.251   3.515 -0.4392  0.4442 -0.3001
 1216SOL    HW2 4596   1.219   5.246   3.461  0.5682  1.5646  0.9766
 1216SOL    HW3 4597   1.082   5.310   3.467 -1.3936 -1.8944 -2.2262
 1216SOL    MW4 4598   1.143   5.258   3.502 -0.3935 -0.3998 -0.1709
 1217SOL     OW 4599   2.595   5.056   5.631  0.3204 -0.0047  0.2588
 1217SOL    HW2 4600   2.624   5.016   5.548  0.0908  2.1334 -0.9309
 1217SOL    HW3 4601   2.671   5.106   5.661  0.0524  0.1091  0.7565
 1217SOL    MW4 4602   2.609   5.057   5.624 -0.4483  0.1221 -0.4184
 1218SOL     OW 4603   1.195   2.290   6.252  0.0809  0.0368 -0.4936
 1218SOL    HW2 4604   1.284   2.270   6.221  0.5891  0.2296  0.8008
 1218SOL    HW3 4605   1.199   2.381   6.279 -0.0636 -0.3955  1.0645
 1218SOL    MW4 4606   1.207   2.299   6.251  0.4175 -0.3426 -0.4222
 1219SOL     OW 4607   2.666   5.784   3.314 -0.3467 -0.1502 -0.8614
 1219SOL    HW2 4608   2.639   5.692   3.307 -1.8098 -0.1503  2.8136
 1219SOL    HW3 4609   2.593   5.833   3.277 -0.8226 -0.4132 -0.2858
 1219SOL    MW4 4610   2.653   5.778   3.308 -0.0765  0.6480  0.9729
 1220SOL     OW 4611   1.395   1.648   1.271  0.2841  0.0037  0.1380
 1220SOL    HW2 4612   1.474   1.670   1.222 -0.6165  0.7599 -1.0330
 1220SOL    HW3 4613   1.325   1.647   1.205 -0.3335 -3.0870  0.6565
 1220SOL    MW4 4614   1.396   1.651   1.256  0.2220 -0.3932  0.4879
 1221SOL     OW 4615   3.656   2.237   4.919 -0.1852 -0.1136 -0.2595
 1221SOL    HW2 4616   3.621   2.149   4.907 -0.8277  0.2219 -0.9441
 1221SOL    HW3 4617   3.658   2.249   5.014  2.6899 -1.9414  0.0187
 1221SOL    MW4 4618   3.652   2.227   4.930 -0.2543  0.1395 -0.7620
 1222SOL     OW 4619   2.436   1.306   5.874  0.1806 -0.4551 -0.0022
 1222SOL    HW2 4620   2.347   1.299   5.907 -0.1550 -1.9100 -1.1019
 1222SOL    HW3 4621   2.446   1.398   5.851 -1.4015 -0.4466 -0.8029
 1222SOL    MW4 4622   2.426   1.317   5.875  0.5583 -0.4881  0.6838
 1223SOL     OW 4623   4.365   0.176   4.587 -0.0676  0.1368 -0.1731
 1223SOL    HW2 4624   4.308   0.237   4.635 -0.4252 -0.5106  0.2306
 1223SOL    HW3 4625   4.434   0.154   4.649  0.5577  0.7994 -0.6107
 1223SOL    MW4 4626   4.366   0.181   4.602 -0.0027  0.2285 -0.2357
 1224SOL     OW 4627   1.070   1.546   5.574 -0.7444  0.3308 -0.3994
 1224SOL    HW2 4628   1.115   1.545   5.658 -0.9018  0.4733 -0.3123
 1224SOL    HW3 4629   1.113   1.615   5.524 -0.5839  0.1775 -0.4728
 1224SOL    MW4 4630   1.081   1.555   5.579 -0.4276 -0.0296  0.1400
 1225SOL     OW 4631   1.956   2.154   2.375 -0.3398  0.2859  0.2225
 1225SOL    HW2 4632   2.038   2.203   2.377  1.3243 -2.2656  0.5771
 1225SOL    HW3 4633   1.933   2.149   2.282  1.8552 -1.7616 -0.3201
 1225SOL    MW4 4634   1.964   2.159   2.363  0.0269  0.7267 -0.4078
 1226SOL     OW 4635   0.307   4.312   4.362 -0.2247  0.2421 -0.6542
 1226SOL    HW2 4636   0.343   4.401   4.365 -0.6003  0.4049 -0.9298
 1226SOL    HW3 4637   0.238   4.311   4.428 -0.1322  0.1137 -0.5579
 1226SOL    MW4 4638   0.303   4.323   4.371  0.9705  0.6984 -0.1604
 1227SOL     OW 4639   6.100   2.465   2.428 -0.4166  0.2315  0.0133
 1227SOL    HW2 4640   6.190   2.464   2.394 -0.3868 -1.0242  0.0922
 1227SOL    HW3 4641   6.046   2.479   2.351 -0.1286  1.6962  0.0569
 1227SOL    MW4 4642   6.105   2.467   2.414 -0.4808 -0.0287  0.0077
 1228SOL     OW 4643   2.240   3.558   4.254 -0.2495 -0.1270 -0.0893
 1228SOL    HW2 4644   2.157   3.589   4.218 -0.4410 -2.1244 -1.5614
 1228SOL    HW3 4645   2.279   3.507   4.183  2.1600  0.5662  0.6359
 1228SOL    MW4 4646   2.234   3.555   4.240 -0.1824  0.2097 -0.2929
 1229SOL     OW 4647   3.084   3.985   5.665  0.0724  0.2616  0.1123
 1229SOL    HW2 4648   3.099   4.079   5.665  0.7070  0.1721 -0.4032
 1229SOL    HW3 4649   3.146   3.950   5.729  0.3697  0.1283 -0.2418
 1229SOL    MW4 4650   3.094   3.993   5.673 -0.0935 -0.0990 -0.1587
 1230SOL     OW 4651   1.407   1.552   6.399 -0.1899 -0.1925 -0.0120
 1230SOL    HW2 4652   1.396   1.583   6.489 -0.0389 -2.7207  0.9444
 1230SOL    HW3 4653   1.361   1.469   6.396 -0.3959 -0.0651 -2.3811
 1230SOL    MW4 4654   1.399   1.545   6.411 -0.4725  0.3902  0.1758
 1231SOL     OW 4655   3.221   0.971   3.210  0.7634 -0.4103 -0.1016
 1231SOL    HW2 4656   3.262   0.937   3.131  0.7283  1.2094 -0.8520
 1231SOL    HW3 4657   3.293   1.004   3.263  0.6310  0.2652 -0.3380
 1231SOL    MW4 4658   3.236   0.971   3.207 -0.2184  0.0568 -0.5444
 1232SOL     OW 4659   2.363   1.477   3.789 -0.2719  0.2290  0.2445
 1232SOL    HW2 4660   2.390   1.525   3.867 -2.7268 -0.9652  1.9813
 1232SOL    HW3 4661   2.268   1.469   3.798 -0.3753 -1.8031 -1.7823
 1232SOL    MW4 4662   2.354   1.482   3.801  0.0291 -0.2041  0.1823
 1233SOL     OW 4663   1.659   4.562   3.087  0.2339  0.4512  0.2069
 1233SOL    HW2 4664   1.565   4.554   3.106  0.5449 -0.1461  1.5852
 1233SOL    HW3 4665   1.686   4.475   3.059  0.1085  0.9628 -1.6641
 1233SOL    MW4 4666   1.650   4.550   3.085  0.6570  0.7665  0.3207
 1234SOL     OW 4667   6.082   4.367   4.585  0.2904  0.1616 -0.0877
 1234SOL    HW2 4668   6.170   4.365   4.622  0.1573  1.1837  0.3295
 1234SOL    HW3 4669   6.024   4.376   4.661 -0.0786  0.8154 -0.4339
 1234SOL    MW4 4670   6.086   4.368   4.600  0.0868  0.6873 -0.1768
 1235SOL     OW 4671   1.730   5.286   5.375 -0.6044 -0.0262 -0.1910
 1235SOL    HW2 4672   1.821   5.270   5.349 -1.0211 -1.3589 -0.9821
 1235SOL    HW3 4673   1.705   5.206   5.422 -1.3267  0.3808  0.1209
 1235SOL    MW4 4674   1.739   5.273   5.378 -0.0011 -0.1748 -0.1019
 1236SOL     OW 4675   3.813   3.088   6.159 -0.2402  0.1650  0.2559
 1236SOL    HW2 4676   3.821   3.122   6.249  2.2201  0.2893  0.0542
 1236SOL    HW3 4677   3.785   3.163   6.108  0.3514  0.6444  0.6141
 1236SOL    MW4 4678   3.811   3.103   6.164 -0.7544 -0.1311  0.4969
 1237SOL     OW 4679   2.632   1.916   5.651  0.4627 -0.9685 -0.2850
 1237SOL    HW2 4680   2.690   1.988   5.673 -0.2015 -0.0534 -1.3975
 1237SOL    HW3 4681   2.665   1.842   5.702  1.5524 -0.0527  0.3899
 1237SOL    MW4 4682   2.644   1.915   5.661  0.3478 -0.3365 -0.2062
 1238SOL     OW 4683   0.984   0.620   6.284  0.2043 -0.0573  0.1150
 1238SOL    HW2 4684   1.074   0.616   6.316  0.5464  1.0633 -0.6347
 1238SOL    HW3 4685   0.993   0.612   6.188 -0.6533 -1.7209  0.1493
 1238SOL    MW4 4686   0.997   0.618   6.275  0.3315 -0.1870  0.1463
 1239SOL     OW 4687   4.696   3.252   3.884 -0.5236  0.1428  0.7647
 1239SOL    HW2 4688   4.671   3.237   3.793  1.6521 -1.1131  0.2992
 1239SOL    HW3 4689   4.620   3.223   3.935 -0.6986 -1.9737 -0.5819
 1239SOL    MW4 4690   4.683   3.246   3.879 -0.5161  0.4150  0.3658
 1240SOL     OW 4691   4.179   1.141   0.751 -0.1362  0.2394  0.2120
 1240SOL    HW2 4692   4.118   1.209   0.723 -0.8584 -0.2220  0.6250
 1240SOL    HW3 4693   4.148   1.115   0.838  0.4120 -0.2846  0.2630
 1240SOL    MW4 4694   4.167   1.146   0.759  0.1921  0.3806 -0.6287
 1241SOL     OW 4695   0.114   0.838   5.432  0.3310 -0.1268 -0.0926
 1241SOL    HW2 4696   0.044   0.852   5.496 -0.2421 -0.7673 -0.5700
 1241SOL    HW3 4697   0.149   0.926   5.416  1.4195 -0.0848  2.1077
 1241SOL    MW4 4698   0.109   0.852   5.439 -0.1184  0.0152  0.2736
 1242SOL     OW 4699   1.488   0.693   6.249 -0.5934  0.5088 -0.1976
 1242SOL    HW2 4700   1.563   0.649   6.207  1.7276 -0.7534  4.6294
 1242SOL    HW3 4701   1.518   0.782   6.263  0.2770 -0.0785  2.0179
 1242SOL    MW4 4702   1.502   0.699   6.245  0.0340 -0.2630 -0.1636
 1243SOL     OW 4703   6.399   0.697   3.456  0.2201  0.0355  0.2886
 1243SOL    HW2 4704   6.321   0.657   3.418  0.4747 -0.4407  0.2705
 1243SOL    HW3 4705   6.409   0.780   3.409  0.8409 -0.7808 -1.0634
 1243SOL    MW4 4706   6.390   0.703   3.445  0.0994 -0.0511 -0.2736
 1244SOL     OW 4707   6.190   0.404   5.070  0.1803 -0.5328  0.0915
 1244SOL    HW2 4708   6.143   0.353   5.003 -1.9735 -0.0571  1.1381
 1244SOL    HW3 4709   6.157   0.493   5.059 -0.8022 -0.5813  2.2211
 1244SOL    MW4 4710   6.179   0.409   5.060  0.3780 -0.1147 -0.0977
 1245SOL     OW 4711   0.032   2.413   1.398 -0.2135 -0.3868  0.2184
 1245SOL    HW2 4712   0.083   2.362   1.461  0.2213 -0.5897 -0.2888
 1245SOL    HW3 4713   0.041   2.504   1.428  0.4939 -0.4147  0.1063
 1245SOL    MW4 4714   0.040   2.418   1.410 -0.2830  0.3079 -0.7707
 1246SOL     OW 4715   5.248   1.916   4.820 -0.1608 -0.2032  0.1735
 1246SOL    HW2 4716   5.314   1.972   4.860 -0.5002 -0.0590  0.5367
 1246SOL    HW3 4717   5.250   1.835   4.872  0.3110 -0.5192 -0.3336
 1246SOL    MW4 4718   5.257   1.913   4.832 -0.1847  0.1746  0.6548
 1247SOL     OW 4719   4.595   3.188   4.272 -0.1800  0.6527 -0.3003
 1247SOL    HW2 4720   4.538   3.155   4.202 -0.4747 -0.8097  0.5713
 1247SOL    HW3 4721   4.663   3.237   4.226 -0.2979 -0.3476 -1.6222
 1247SOL    MW4 4722   4.596   3.190   4.256 -0.2242 -0.2613 -0.0893
 1248SOL     OW 4723   2.366   5.465   0.830 -0.2634  0.4400 -0.3423
 1248SOL    HW2 4724   2.365   5.439   0.738  0.3454 -0.2243 -0.1676
 1248SOL    HW3 4725   2.284   5.513   0.842 -0.4956  0.2596 -1.1524
 1248SOL    MW4 4726   2.355   5.468   0.819 -0.2860 -0.4689  0.2531
 1249SOL     OW 4727   2.135   2.844   0.512  0.2688 -0.3082 -0.4329
 1249SOL    HW2 4728   2.110   2.779   0.578  1.1803 -0.3889 -0.1418
 1249SOL    HW3 4729   2.059   2.851   0.454 -1.1385  0.8488  1.4495
 1249SOL    MW4 4730   2.122   2.836   0.513  0.3864 -0.6617 -0.0776
 1250SOL     OW 4731   6.058   2.787   3.359  0.3683  1.0429 -0.0042
 1250SOL    HW2 4732   6.135   2.817   3.408  0.8276  0.0921 -0.1226
 1250SOL    HW3 4733   6.085   2.703   3.322 -1.0299  0.2890  0.6479
 1250SOL    MW4 4734   6.072   2.780   3.360 -0.7790  0.0198 -0.2072
 1251SOL     OW 4735   3.278   0.283   5.494 -0.1967 -0.0613  0.1128
 1251SOL    HW2 4736   3.248   0.224   5.563 -0.7127  1.3958  1.1804
 1251SOL    HW3 4737   3.252   0.370   5.523 -0.4701  0.6127 -1.9539
 1251SOL    MW4 4738   3.271   0.287   5.507 -0.7319  0.0462 -0.3181
 1252SOL     OW 4739   1.722   6.145   5.604  0.0694 -0.7551 -0.5878
 1252SOL    HW2 4740   1.782   6.199   5.553 -0.6819  0.9085  0.2116
 1252SOL    HW3 4741   1.774   6.119   5.681  0.0091  0.1015 -0.2422
 1252SOL    MW4 4742   1.737   6.149   5.608  0.4065 -0.2160  0.1271
 1253SOL     OW 4743   6.312   0.460   5.916  0.1997  0.4528  0.2863
 1253SOL    HW2 4744   6.241   0.514   5.881  1.1778  1.0057 -0.9195
 1253SOL    HW3 4745   6.380   0.462   5.848  0.7756 -1.2874  0.7536
 1253SOL    MW4 4746   6.312   0.467   5.902 -0.2298  0.1039 -0.5374
 1254SOL     OW 4747   6.040   0.322   3.472 -0.1632  0.3990  0.1903
 1254SOL    HW2 4748   6.127   0.298   3.441 -0.3125  2.3505 -2.0632
 1254SOL    HW3 4749   6.055   0.392   3.535 -0.0075 -1.8550  2.8648
 1254SOL    MW4 4750   6.053   0.328   3.476  0.0050 -0.1397 -0.6834
 1255SOL     OW 4751   0.998   3.956   0.316 -0.5560 -0.2541 -0.3283
 1255SOL    HW2 4752   0.979   4.037   0.364 -1.9557 -0.4527 -0.5057
 1255SOL    HW3 4753   1.020   3.892   0.384  2.1273  0.6128 -0.2618
 1255SOL    MW4 4754   0.999   3.958   0.331  0.1907  0.2090  0.1015
 1256SOL     OW 4755   4.589   0.510   0.265  0.0783  0.3956 -0.1681
 1256SOL    HW2 4756   4.674   0.553   0.254  1.6287 -1.9331  1.5969
 1256SOL    HW3 4757   4.594   0.434   0.208 -0.7686  0.1403  0.0926
 1256SOL    MW4 4758   4.601   0.506   0.256  0.2449 -0.4812 -0.0396
 1257SOL     OW 4759   6.039   4.631   4.493  0.2589  0.0086 -0.7703
 1257SOL    HW2 4760   6.053   4.540   4.519 -0.1575 -1.4453 -4.8942
 1257SOL    HW3 4761   6.122   4.659   4.454  0.0665  1.0815 -0.4621
 1257SOL    MW4 4762   6.052   4.623   4.491 -0.2338 -0.2501  0.0928
 1258SOL     OW 4763   1.904   1.688   6.152  0.2930  0.2601  0.2048
 1258SOL    HW2 4764   1.839   1.756   6.136  0.1285 -0.0546 -0.4943
 1258SOL    HW3 4765   1.954   1.720   6.228 -0.8060  0.4061  0.8906
 1258SOL    MW4 4766   1.902   1.701   6.160  0.6789 -0.3971  0.3808
 1259SOL     OW 4767   6.213   3.698   2.505  0.1125 -0.5683 -0.2378
 1259SOL    HW2 4768   6.160   3.776   2.493 -0.2318 -0.9779 -1.6288
 1259SOL    HW3 4769   6.271   3.718   2.578  0.5723  1.2821 -1.0653
 1259SOL    MW4 4770   6.214   3.711   2.513 -0.3624 -0.0005 -0.4471
 1260SOL     OW 4771   4.248   0.854   2.931 -0.2500 -0.1461 -0.7797
 1260SOL    HW2 4772   4.329   0.839   2.883  0.5744  0.2758  0.4296
 1260SOL    HW3 4773   4.262   0.938   2.976 -0.5181 -1.0286  1.0612
 1260SOL    MW4 4774   4.261   0.863   2.931  0.0571 -0.5882 -0.0972
 1261SOL     OW 4775   6.347   5.121   3.614 -0.0475 -0.4902  0.7644
 1261SOL    HW2 4776   6.255   5.101   3.628  0.5103 -2.9273  1.5345
 1261SOL    HW3 4777   6.389   5.104   3.698  1.2422 -0.4101  0.1770
 1261SOL    MW4 4778   6.341   5.116   3.627 -0.0509 -0.8068  0.6658
 1262SOL     OW 4779   4.075   2.911   5.919  0.3397  0.0267 -0.5718
 1262SOL    HW2 4780   4.084   2.933   6.012  0.7661 -1.5479 -0.2091
 1262SOL    HW3 4781   4.114   2.986   5.873 -0.1851  0.9807  0.4902
 1262SOL    MW4 4782   4.081   2.924   5.925  0.8381 -0.2876  0.1779
 1263SOL     OW 4783   1.158   2.581   6.261  0.3336 -0.2494  0.5505
 1263SOL    HW2 4784   1.181   2.608   6.171 -1.1075  0.8370  0.4724
 1263SOL    HW3 4785   1.237   2.600   6.312 -0.5043  4.6211  0.5455
 1263SOL    MW4 4786   1.172   2.587   6.256  0.4754 -0.1279  0.2148
 1264SOL     OW 4787   0.203   5.144   5.999  0.0233 -0.2776  0.2406
 1264SOL    HW2 4788   0.159   5.163   5.916  0.6693 -0.4996 -0.1577
 1264SOL    HW3 4789   0.202   5.049   6.006  0.5013 -0.2854  0.1997
 1264SOL    MW4 4790   0.197   5.134   5.989 -0.0404  0.5708  0.0953
 1265SOL     OW 4791   0.895   2.667   6.097 -0.0458 -0.1152 -0.2582
 1265SOL    HW2 4792   0.889   2.572   6.108  0.7897 -0.4102 -2.0362
 1265SOL    HW3 4793   0.930   2.679   6.009  4.1363  1.6958  1.3798
 1265SOL    MW4 4794   0.899   2.656   6.087  0.3910 -0.0592  0.4947
 1266SOL     OW 4795   3.069   2.665   5.322 -0.2712  0.0760 -0.0343
 1266SOL    HW2 4796   2.977   2.662   5.295 -0.3552 -1.5306  0.2771
 1266SOL    HW3 4797   3.118   2.657   5.241 -0.4098  0.8707 -0.1968
 1266SOL    MW4 4798   3.063   2.663   5.308  0.0508 -0.2285 -0.0378
 1267SOL     OW 4799   4.898   0.623   4.850  0.1775 -0.4425  0.1038
 1267SOL    HW2 4800   4.901   0.592   4.940  0.4020 -0.7793 -0.0181
 1267SOL    HW3 4801   4.980   0.593   4.811  0.2670  0.0510 -0.1017
 1267SOL    MW4 4802   4.909   0.615   4.856 -0.1846 -0.2754 -0.2875
 1268SOL     OW 4803   6.316   6.301   4.214 -0.2136  0.0946 -0.8563
 1268SOL    HW2 4804   6.366   6.367   4.166  0.3700 -0.6398 -1.2882
 1268SOL    HW3 4805   6.326   6.325   4.306  0.5085  0.2533 -0.9692
 1268SOL    MW4 4806   6.324   6.313   4.220  0.1056  0.2087 -0.1568
 1269SOL     OW 4807   1.197   6.105   6.371 -0.1514 -0.3128 -0.4577
 1269SOL    HW2 4808   1.239   6.104   6.285 -0.1042 -0.7122 -0.4294
 1269SOL    HW3 4809   1.226   6.187   6.411 -0.5320  0.0980 -0.9986
 1269SOL    MW4 4810   1.206   6.116   6.365 -0.1638 -0.1171  0.5564
 1270SOL     OW 4811   2.054   4.471   6.339 -0.5589 -0.4283 -0.0825
 1270SOL    HW2 4812   2.134   4.505   6.298 -0.1623  2.3435  2.6562
 1270SOL    HW3 4813   2.085   4.416   6.411 -0.9165  1.7823  1.8972
 1270SOL    MW4 4814   2.069   4.468   6.343  0.4146  0.1713  0.1838
 1271SOL     OW 4815   6.395   0.684   5.070  0.3525 -0.2731 -0.3615
 1271SOL    HW2 4816   6.390   0.687   4.975  1.0579  0.4981 -0.3899
 1271SOL    HW3 4817   6.341   0.757   5.099  0.0779 -0.5521 -0.1683
 1271SOL    MW4 4818   6.388   0.694   5.061 -0.0480 -0.1225 -0.3780
 1272SOL     OW 4819   3.157   3.451   1.029  0.7496 -0.1119 -0.2427
 1272SOL    HW2 4820   3.109   3.527   1.063 -1.2426 -1.5031  0.2433
 1272SOL    HW3 4821   3.149   3.384   1.097  0.2260 -1.5808 -1.6667
 1272SOL    MW4 4822   3.149   3.452   1.042  0.0781 -0.2693 -0.1663
 1273SOL     OW 4823   1.437   1.281   1.492  0.1265 -0.3149 -0.1477
 1273SOL    HW2 4824   1.503   1.213   1.481 -0.9340 -1.5053  0.5929
 1273SOL    HW3 4825   1.355   1.239   1.466 -0.5616  0.6649  0.3807
 1273SOL    MW4 4826   1.435   1.266   1.487  0.2739 -0.3981 -0.5801
 1274SOL     OW 4827   0.922   0.529   1.992  0.5734  0.0789  0.1553
 1274SOL    HW2 4828   0.855   0.460   1.996 -1.7288  2.2089  2.7768
 1274SOL    HW3 4829   0.956   0.534   2.082  0.7439  2.2484  0.0078
 1274SOL    MW4 4830   0.918   0.520   2.005  0.4555  0.6218 -0.0194
 1275SOL     OW 4831   0.208   4.255   1.624 -0.3059  0.1894  0.3885
 1275SOL    HW2 4832   0.229   4.313   1.697 -1.7465 -0.1195  1.0866
 1275SOL    HW3 4833   0.144   4.303   1.572  0.4403  0.2572 -0.4884
 1275SOL    MW4 4834   0.202   4.269   1.627 -0.3313  0.0330  0.0780
 1276SOL     OW 4835   5.646   1.959   4.967  0.2899  0.5465 -0.3691
 1276SOL    HW2 4836   5.680   1.869   4.968  1.6142  1.0237 -0.2418
 1276SOL    HW3 4837   5.653   1.986   4.875  1.9024  1.2192 -0.0793
 1276SOL    MW4 4838   5.652   1.950   4.955 -0.5165  0.3298 -0.6843
 1277SOL     OW 4839   0.929   0.107   4.179 -0.9853  0.2691 -0.4575
 1277SOL    HW2 4840   0.998   0.051   4.216  0.0456  1.1435 -1.0166
 1277SOL    HW3 4841   0.950   0.113   4.086 -2.5637 -0.4798 -0.8946
 1277SOL    MW4 4842   0.941   0.100   4.172  0.8777  0.1077  0.0852
 1278SOL     OW 4843   5.141   1.301   5.544  0.1849 -0.7705  0.0241
 1278SOL    HW2 4844   5.225   1.343   5.561 -0.3546  1.3636 -2.0520
 1278SOL    HW3 4845   5.077   1.356   5.589 -0.3709 -0.3310 -1.2435
 1278SOL    MW4 4846   5.144   1.314   5.552 -0.0040 -0.5743  0.4414
 1279SOL     OW 4847   2.647   5.015   2.554  0.0774 -0.0118  0.1223
 1279SOL    HW2 4848   2.606   5.097   2.583  1.2258  0.7624 -0.4052
 1279SOL    HW3 4849   2.739   5.036   2.541  0.2420 -1.1850 -0.8333
 1279SOL    MW4 4850   2.653   5.028   2.556  0.0019 -0.3401 -0.4373
 1280SOL     OW 4851   0.708   0.250   4.013 -0.1022 -0.1511  0.2274
 1280SOL    HW2 4852   0.616   0.232   3.997 -0.4612 -1.8935  3.4438
 1280SOL    HW3 4853   0.708   0.333   4.061 -0.0098 -0.3491  0.5656
 1280SOL    MW4 4854   0.696   0.259   4.017 -0.3046  0.6319  0.2587
 1281SOL     OW 4855   0.269   2.513   3.389  0.0033  0.2434 -0.6934
 1281SOL    HW2 4856   0.220   2.474   3.462 -2.0646  0.7383 -1.7533
 1281SOL    HW3 4857   0.250   2.606   3.394  2.1301  0.7182 -0.2511
 1281SOL    MW4 4858   0.260   2.520   3.399 -0.0337 -0.4350 -0.6061
 1282SOL     OW 4859   2.954   5.770   6.207 -0.4834 -0.1995  0.2212
 1282SOL    HW2 4860   2.981   5.771   6.299  1.5343  0.2258 -0.3129
 1282SOL    HW3 4861   2.865   5.736   6.208 -0.6727  0.2173  2.3682
 1282SOL    MW4 4862   2.946   5.766   6.219  0.1163  0.6813  0.4987
 1283SOL     OW 4863   1.276   5.874   5.509 -0.2833 -0.6780 -0.2765
 1283SOL    HW2 4864   1.348   5.927   5.544 -1.0564 -0.8277  1.7149
 1283SOL    HW3 4865   1.304   5.784   5.524  0.4726 -0.8525 -2.4799
 1283SOL    MW4 4866   1.289   5.869   5.516  0.3322  0.1354  0.1328
 1284SOL     OW 4867   4.183   4.175   5.493  0.0705  0.2903 -0.1459
 1284SOL    HW2 4868   4.109   4.133   5.449  0.2368 -0.0453 -0.1079
 1284SOL    HW3 4869   4.191   4.260   5.449  0.8365 -0.4223 -1.4416
 1284SOL    MW4 4870   4.174   4.181   5.481 -0.5317  0.1391 -0.1168
 1285SOL     OW 4871   0.732   1.532   2.963 -0.4139  0.2234 -0.5534
 1285SOL    HW2 4872   0.814   1.512   3.009  0.3945  0.2693 -1.9302
 1285SOL    HW3 4873   0.715   1.624   2.985  0.3372  0.4479 -0.8862
 1285SOL    MW4 4874   0.740   1.542   2.972 -0.1415 -0.0778  0.0994
 1286SOL     OW 4875   6.389   0.753   4.571  0.5899 -0.1407 -0.5717
 1286SOL    HW2 4876   6.418   0.676   4.522  1.5328  0.0223 -0.2702
 1286SOL    HW3 4877   6.451   0.821   4.547 -0.4854  0.6615 -1.1674
 1286SOL    MW4 4878   6.401   0.752   4.561 -0.4367 -0.3333  0.5264
 1287SOL     OW 4879   0.302   2.649   6.407 -0.2503  0.2483 -0.0317
 1287SOL    HW2 4880   0.351   2.695   6.339  1.0500 -0.1151  0.6236
 1287SOL    HW3 4881   0.233   2.710   6.433  0.9990  1.5609  0.3300
 1287SOL    MW4 4882   0.299   2.663   6.401  0.0408  0.2992 -0.0894
 1288SOL     OW 4883   4.072   4.344   1.094  0.1326 -0.3627  0.2711
 1288SOL    HW2 4884   4.019   4.422   1.079  0.2790 -0.4357 -0.6411
 1288SOL    HW3 4885   4.034   4.277   1.037  1.3634 -0.3343 -0.6168
 1288SOL    MW4 4886   4.060   4.346   1.085 -0.0356  0.0979  0.5191
 1289SOL     OW 4887   5.717   0.322   2.617 -0.2478 -0.8455  0.8885
 1289SOL    HW2 4888   5.705   0.340   2.524 -1.6752 -0.4050  1.1348
 1289SOL    HW3 4889   5.808   0.348   2.635 -0.0190 -0.7381 -0.3214
 1289SOL    MW4 4890   5.728   0.328   2.607  0.0819  0.1887  0.7368
 1290SOL     OW 4891   3.986   1.533   2.668  0.0593  0.3100  0.4617
 1290SOL    HW2 4892   3.986   1.623   2.637  0.4719  0.0734 -0.2349
 1290SOL    HW3 4893   3.893   1.514   2.685 -0.3280  0.1484 -1.5570
 1290SOL    MW4 4894   3.973   1.542   2.666 -0.4492 -0.0908 -0.0118
 1291SOL     OW 4895   1.102   3.328   0.406  0.4017 -0.0081  0.2300
 1291SOL    HW2 4896   1.068   3.397   0.349 -0.0869  0.7498  1.4039
 1291SOL    HW3 4897   1.029   3.267   0.417  0.8593 -0.7961 -0.8764
 1291SOL    MW4 4898   1.088   3.329   0.400  0.2512  0.0074  0.1873
 1292SOL     OW 4899   3.587   3.358   3.360 -0.7197 -0.1477  0.3927
 1292SOL    HW2 4900   3.499   3.394   3.370 -0.8005 -0.3137  0.2852
 1292SOL    HW3 4901   3.576   3.264   3.376 -0.4366 -0.0655  1.1037
 1292SOL    MW4 4902   3.574   3.350   3.364  0.2133  0.1329  0.0906
 1293SOL     OW 4903   2.714   0.619   5.522 -0.0436 -0.5600  0.5399
 1293SOL    HW2 4904   2.755   0.699   5.553  1.4112 -1.2788  0.5465
 1293SOL    HW3 4905   2.682   0.576   5.602  3.2299 -2.1490  1.1958
 1293SOL    MW4 4906   2.715   0.624   5.537  0.2137 -0.4396 -0.0816
 1294SOL     OW 4907   1.398   1.035   0.045  0.0386  0.0968 -0.5668
 1294SOL    HW2 4908   1.356   1.120   0.030  1.1298  0.8542  0.4404
 1294SOL    HW3 4909   1.325   0.972   0.045 -0.8813  1.1272 -0.6385
 1294SOL    MW4 4910   1.382   1.038   0.043 -0.5460  0.6712 -0.1852
 1295SOL     OW 4911   3.306   0.607   2.909 -0.0685  0.1466 -0.1399
 1295SOL    HW2 4912   3.365   0.617   2.834  0.2102  0.0669  0.0698
 1295SOL    HW3 4913   3.225   0.572   2.870  0.2305 -0.3307 -0.3412
 1295SOL    MW4 4914   3.303   0.603   2.894  0.5454 -0.2445 -0.5346
 1296SOL     OW 4915   6.007   1.347   1.613  0.0982  0.5837  0.0394
 1296SOL    HW2 4916   5.991   1.437   1.640  0.9645  0.7167  0.1308
 1296SOL    HW3 4917   6.038   1.304   1.693  0.9452  0.5334 -0.3095
 1296SOL    MW4 4918   6.009   1.353   1.627  0.2388 -0.0024 -0.0602
 1297SOL     OW 4919   2.354   1.937   5.560 -0.2162  0.2750  0.6831
 1297SOL    HW2 4920   2.437   1.948   5.607 -0.0872  1.1970  0.2550
 1297SOL    HW3 4921   2.339   1.842   5.561  1.7039 -0.1120 -0.6749
 1297SOL    MW4 4922   2.363   1.926   5.566  0.4553  0.4365 -0.0690
 1298SOL     OW 4923   1.837   2.390   1.473  0.2092 -0.0742  0.1354
 1298SOL    HW2 4924   1.867   2.479   1.492 -0.3338  0.4613 -1.4141
 1298SOL    HW3 4925   1.913   2.335   1.489  0.5885  0.6652  0.9808
 1298SOL    MW4 4926   1.851   2.395   1.478 -0.2227 -0.0622 -0.2141
 1299SOL     OW 4927   6.413   4.334   3.340  0.5149  0.2309  0.6470
 1299SOL    HW2 4928   6.459   4.418   3.332  1.7333 -0.2094  2.4691
 1299SOL    HW3 4929   6.388   4.312   3.250  2.1898  1.4396 -0.1702
 1299SOL    MW4 4930   6.416   4.342   3.327  0.0989 -0.2699 -0.1541
 1300SOL     OW 4931   0.573   5.108   1.967  0.8163  0.6184 -0.3303
 1300SOL    HW2 4932   0.565   5.014   1.949  1.0616  0.2393  1.3902
 1300SOL    HW3 4933   0.665   5.120   1.992  0.4781  1.0592  0.7577
 1300SOL    MW4 4934   0.584   5.097   1.968 -0.3702 -0.3286  0.1781
 1301SOL     OW 4935   3.209   0.590   2.556  0.0396  0.2290  0.1534
 1301SOL    HW2 4936   3.172   0.663   2.606  1.9626  1.1979  0.2760
 1301SOL    HW3 4937   3.196   0.614   2.464 -2.7594 -1.1671  0.0668
 1301SOL    MW4 4938   3.203   0.603   2.551 -0.3037  0.1059 -0.2064
 1302SOL     OW 4939   3.918   3.858   4.308  0.3064  0.0118  0.8769
 1302SOL    HW2 4940   3.840   3.886   4.356 -0.3147  0.6596 -0.4387
 1302SOL    HW3 4941   3.913   3.762   4.309 -0.3204  0.0425  1.1135
 1302SOL    MW4 4942   3.907   3.849   4.314  0.1245  0.1216 -0.3010
 1303SOL     OW 4943   0.655   5.891   2.619 -0.0405 -0.3142  0.2835
 1303SOL    HW2 4944   0.683   5.964   2.674 -0.1966 -0.0996  0.0792
 1303SOL    HW3 4945   0.597   5.931   2.554  0.3164 -0.5304 -0.1675
 1303SOL    MW4 4946   0.651   5.906   2.618 -0.4246 -0.2124  0.4722
 1304SOL     OW 4947   3.031   5.363   4.584  0.0491  0.4309  0.0673
 1304SOL    HW2 4948   3.056   5.276   4.616  0.1461 -0.1723 -1.5431
 1304SOL    HW3 4949   3.036   5.419   4.661 -1.4070 -1.2527  1.4952
 1304SOL    MW4 4950   3.035   5.359   4.598  0.0014 -0.4311  0.3201
 1305SOL     OW 4951   6.385   3.361   4.964 -0.0500 -0.0288 -0.3498
 1305SOL    HW2 4952   6.307   3.414   4.981  0.0669  0.0748 -0.1236
 1305SOL    HW3 4953   6.352   3.274   4.943 -0.1909 -0.2286  0.6735
 1305SOL    MW4 4954   6.371   3.357   4.964 -0.2273  0.2189  0.7079
 1306SOL     OW 4955   1.049   3.913   6.047 -0.1482  0.1161  0.2567
 1306SOL    HW2 4956   1.130   3.925   6.096 -0.4755  1.6738  0.4579
 1306SOL    HW3 4957   0.980   3.945   6.106 -0.5982  1.5682 -1.0067
 1306SOL    MW4 4958   1.051   3.919   6.061  0.6450 -0.1851  0.6248
 1307SOL     OW 4959   1.309   0.195   4.373  0.2344  0.3853  0.1913
 1307SOL    HW2 4960   1.301   0.189   4.468  0.0309  0.0939  0.1576
 1307SOL    HW3 4961   1.231   0.243   4.345 -0.7993 -1.3080 -0.0133
 1307SOL    MW4 4962   1.297   0.200   4.382  0.1940 -0.1389  0.5407
 1308SOL     OW 4963   2.060   5.635   2.664 -0.6787 -0.4427 -0.3079
 1308SOL    HW2 4964   1.979   5.673   2.699  0.7501  1.1185  1.5390
 1308SOL    HW3 4965   2.075   5.681   2.581 -0.4692  1.0573  0.5241
 1308SOL    MW4 4966   2.051   5.646   2.658  0.3406  0.0986 -0.3787
 1309SOL     OW 4967   2.942   2.485   1.608  0.2244  0.3929 -0.1829
 1309SOL    HW2 4968   3.033   2.514   1.607 -0.2644  2.1282 -2.3283
 1309SOL    HW3 4969   2.930   2.440   1.525 -0.7322 -0.3569  0.3405
 1309SOL    MW4 4970   2.952   2.483   1.597 -0.5819  0.0859 -0.0538
 1310SOL     OW 4971   5.378   2.453   3.850  0.3902 -0.1345  0.0936
 1310SOL    HW2 4972   5.332   2.481   3.929  0.1627 -1.0758  0.3114
 1310SOL    HW3 4973   5.431   2.528   3.825  1.3124 -0.1720  1.7694
 1310SOL    MW4 4974   5.379   2.467   3.857 -0.1643 -0.1530  0.4599
 1311SOL     OW 4975   1.917   0.072   2.024  0.2941  0.6492  0.2919
 1311SOL    HW2 4976   1.831   0.075   1.983  1.3360  0.3291 -2.1014
 1311SOL    HW3 4977   1.942   0.164   2.033  0.4157  0.7319 -0.7290
 1311SOL    MW4 4978   1.909   0.085   2.020  0.6017 -0.7859  0.3187
 1312SOL     OW 4979   6.033   5.087   3.664  0.3604 -0.0510 -0.3969
 1312SOL    HW2 4980   5.960   5.084   3.601  1.0172  1.0312 -1.2613
 1312SOL    HW3 4981   6.022   5.009   3.717 -1.1037 -0.2141 -0.8806
 1312SOL    MW4 4982   6.022   5.077   3.663  0.2237 -0.4165  0.1810
 1313SOL     OW 4983   5.480   1.302   4.348  0.0102  0.0476 -0.2680
 1313SOL    HW2 4984   5.536   1.372   4.316  1.5762 -1.3827 -0.8073
 1313SOL    HW3 4985   5.529   1.263   4.420 -0.6585 -0.7245 -0.2095
 1313SOL    MW4 4986   5.494   1.306   4.353 -0.1972 -0.4854  0.1411
 1314SOL     OW 4987   3.601   4.692   4.712 -0.2834 -0.8900 -0.3469
 1314SOL    HW2 4988   3.571   4.754   4.645  1.9120  1.2299  0.5177
 1314SOL    HW3 4989   3.690   4.669   4.687  0.5735 -0.1057  1.7393
 1314SOL    MW4 4990   3.608   4.697   4.700  0.2104 -0.1204 -0.4122
 1315SOL     OW 4991   2.230   2.681   0.974  0.3982  0.6667  0.0073
 1315SOL    HW2 4992   2.161   2.651   0.915  0.8469  0.4515 -0.4200
 1315SOL    HW3 4993   2.243   2.773   0.952  1.0421  0.4152 -0.7286
 1315SOL    MW4 4994   2.223   2.689   0.964  0.0934  0.3519 -0.0673
 1316SOL     OW 4995   4.299   1.930   0.929 -0.5928  0.5102  0.1895
 1316SOL    HW2 4996   4.208   1.949   0.905  0.1100  0.2970 -3.0412
 1316SOL    HW3 4997   4.346   2.011   0.913  0.1812 -0.0934 -0.7339
 1316SOL    MW4 4998   4.293   1.943   0.924 -0.4202 -0.0635 -0.1883
 1317SOL     OW 4999   4.055   2.422   0.460  0.2083 -0.4397  0.3112
 1317SOL    HW2 5000   4.078   2.486   0.392  1.8769 -0.5130  0.7557
 1317SOL    HW3 5001   4.055   2.338   0.414 -0.1430 -0.3237  0.0984
 1317SOL    MW4 5002   4.058   2.420   0.445  0.2715 -0.7307  0.1373
 1318SOL     OW 5003   4.026   5.989   1.857  0.2599  0.5611  0.1818
 1318SOL    HW2 5004   4.079   5.973   1.779  0.4371  0.1284  0.3893
 1318SOL    HW3 5005   4.057   6.073   1.892 -1.2621  1.8744 -1.4064
 1318SOL    MW4 5006   4.037   5.998   1.851  0.1701  0.1588 -0.0297
 1319SOL     OW 5007   5.289   3.963   6.175 -0.0249 -0.1384  0.2897
 1319SOL    HW2 5008   5.197   3.938   6.181 -0.5425  1.8317  1.8915
 1319SOL    HW3 5009   5.304   3.975   6.081 -1.9530  1.2013  0.0833
 1319SOL    MW4 5010   5.279   3.962   6.163  0.1763  0.3261 -0.2192
 1320SOL     OW 5011   1.532   5.890   4.487  0.5178 -0.0127  0.8958
 1320SOL    HW2 5012   1.603   5.917   4.429  0.4072 -0.7244  0.4254
 1320SOL    HW3 5013   1.542   5.795   4.496 -0.1494 -0.0678  1.1306
 1320SOL    MW4 5014   1.542   5.881   4.481  0.0375  0.4198  0.1049
 1321SOL     OW 5015   6.404   6.109   6.364 -0.6061 -0.5722  0.1250
 1321SOL    HW2 5016   6.397   6.203   6.347  1.2429 -0.6441 -1.3479
 1321SOL    HW3 5017   6.491   6.098   6.404  0.2123 -1.8723 -1.8764
 1321SOL    MW4 5018   6.415   6.120   6.367 -0.2379 -0.2427  0.3623
 1322SOL     OW 5019   0.076   0.114   6.040 -0.5728  0.4617  0.3863
 1322SOL    HW2 5020   0.023   0.091   5.964  2.0474 -2.8033 -0.7115
 1322SOL    HW3 5021   0.098   0.030   6.080 -1.1272  1.9953  4.3650
 1322SOL    MW4 5022   0.072   0.100   6.035 -0.2605  0.2386  0.0103
 1323SOL     OW 5023   6.363   5.582   4.346 -0.2237 -0.2837  0.8898
 1323SOL    HW2 5024   6.344   5.675   4.337 -1.2456 -0.6015 -0.6362
 1323SOL    HW3 5025   6.278   5.540   4.343  0.1671 -1.2411  2.3513
 1323SOL    MW4 5026   6.350   5.589   4.344 -0.2910 -0.2500 -0.1006
 1324SOL     OW 5027   2.011   2.897   5.712  0.0698 -0.0715 -0.6323
 1324SOL    HW2 5028   2.099   2.930   5.730 -0.0916 -0.6780  1.5425
 1324SOL    HW3 5029   2.009   2.811   5.753 -0.7465 -1.2228 -2.9047
 1324SOL    MW4 5030   2.022   2.890   5.720  0.6371  0.6241 -0.0632
 1325SOL     OW 5031   2.959   5.236   2.294 -0.0058  0.2492  0.3684
 1325SOL    HW2 5032   3.015   5.291   2.348  0.8899  0.8295 -1.0691
 1325SOL    HW3 5033   3.010   5.221   2.214 -0.5787 -1.9458  0.3332
 1325SOL    MW4 5034   2.973   5.241   2.290  0.1369  0.2371  0.5079
 1326SOL     OW 5035   4.782   0.508   1.673  0.2138 -0.0712 -0.2231
 1326SOL    HW2 5036   4.698   0.504   1.719  0.5323  0.4014  0.4114
 1326SOL    HW3 5037   4.842   0.458   1.729  0.7520  1.0311  0.2010
 1326SOL    MW4 5038   4.779   0.501   1.686  0.4916 -0.2035 -0.3920
 1327SOL     OW 5039   5.096   6.250   3.084 -0.2290  0.6452  0.7857
 1327SOL    HW2 5040   5.165   6.218   3.142  0.1771  1.6920  0.9120
 1327SOL    HW3 5041   5.132   6.331   3.047 -0.7181  0.3156 -0.4703
 1327SOL    MW4 5042   5.110   6.257   3.087 -0.5514  0.3779 -0.5333
 1328SOL     OW 5043   2.532   4.593   5.433 -0.0289 -0.3194  0.2986
 1328SOL    HW2 5044   2.621   4.579   5.465 -0.3180 -1.9086  0.4717
 1328SOL    HW3 5045   2.489   4.642   5.503  0.6694  0.3881  0.2476
 1328SOL    MW4 5046   2.538   4.597   5.447 -0.2979 -0.5746  0.2283
 1329SOL     OW 5047   1.301   0.048   5.271 -0.0719 -1.1611 -0.2929
 1329SOL    HW2 5048   1.279   0.123   5.326  1.7029 -0.4462 -0.5126
 1329SOL    HW3 5049   1.258  -0.026   5.314  1.1708 -0.6133  2.0622
 1329SOL    MW4 5050   1.293   0.048   5.284  0.2207  0.3488  0.3159
 1330SOL     OW 5051   0.920   2.159   0.352 -0.3372  0.4407 -0.7593
 1330SOL    HW2 5052   0.835   2.144   0.310  0.0787  0.5854 -1.6789
 1330SOL    HW3 5053   0.907   2.133   0.443 -1.0601 -0.6164 -1.1461
 1330SOL    MW4 5054   0.907   2.153   0.358  0.0213 -0.0263  0.2421
 1331SOL     OW 5055   4.567   0.480   6.227 -0.5981 -0.0217 -0.1173
 1331SOL    HW2 5056   4.658   0.478   6.196 -0.9287  1.8813 -1.3622
 1331SOL    HW3 5057   4.543   0.387   6.234  1.4312 -0.5869  0.3265
 1331SOL    MW4 5058   4.576   0.467   6.224  0.1215  0.3753  0.0333
 1332SOL     OW 5059   0.493   3.914   4.210  0.1275  0.5274  0.4772
 1332SOL    HW2 5060   0.404   3.919   4.177 -0.4302  1.0970  1.9969
 1332SOL    HW3 5061   0.506   3.822   4.233 -1.0497  0.8474  2.7154
 1332SOL    MW4 5062   0.483   3.902   4.209 -0.5482  0.1767 -0.1056
 1333SOL     OW 5063   6.437   0.615   1.832 -0.0036  0.2314  0.1368
 1333SOL    HW2 5064   6.441   0.539   1.889 -3.2283 -0.8312 -0.8343
 1333SOL    HW3 5065   6.467   0.583   1.747  0.4084  0.5906  0.1398
 1333SOL    MW4 5066   6.442   0.601   1.828  0.1157  0.1139  0.3157
 1334SOL     OW 5067   5.679   2.711   5.007  0.1094 -0.0219 -0.5964
 1334SOL    HW2 5068   5.676   2.793   5.056 -0.5529 -0.6545  0.4635
 1334SOL    HW3 5069   5.758   2.718   4.953  2.1568 -0.1613  2.1594
 1334SOL    MW4 5070   5.689   2.722   5.006  0.5389 -0.2842  0.5911
 1335SOL     OW 5071   4.083   5.410   4.395  0.3145 -0.1039 -0.2663
 1335SOL    HW2 5072   3.993   5.395   4.423 -0.0517  0.3294 -1.1622
 1335SOL    HW3 5073   4.131   5.426   4.476 -0.5100  0.1392  0.1918
 1335SOL    MW4 5074   4.077   5.410   4.410 -0.4168  0.6051 -0.0595
 1336SOL     OW 5075   4.522   4.754   3.885 -0.2978  0.2311 -0.2804
 1336SOL    HW2 5076   4.527   4.762   3.980 -3.3761 -0.0315  0.0186
 1336SOL    HW3 5077   4.542   4.662   3.868  0.5102  0.3334  0.0472
 1336SOL    MW4 5078   4.525   4.743   3.895 -0.0741  0.0992 -0.4708
 1337SOL     OW 5079   3.981   5.218   5.996  0.7194 -0.5424  0.2960
 1337SOL    HW2 5080   4.065   5.172   5.992  0.7059 -0.5040 -0.5930
 1337SOL    HW3 5081   3.931   5.182   5.923 -0.2074 -0.8742  1.0759
 1337SOL    MW4 5082   3.985   5.207   5.986 -0.0684  0.1095  0.2306
 1338SOL     OW 5083   1.217   5.126   2.277 -0.3987 -0.2004 -0.2711
 1338SOL    HW2 5084   1.215   5.199   2.215  0.2576  0.3493  0.3410
 1338SOL    HW3 5085   1.227   5.167   2.363  0.9563 -1.0464  0.0038
 1338SOL    MW4 5086   1.218   5.141   2.280  0.0268 -0.2246 -0.0462
 1339SOL     OW 5087   1.103   3.656   3.449 -0.4227 -0.7358 -0.4044
 1339SOL    HW2 5088   1.112   3.751   3.438  0.7429 -0.8373 -0.4635
 1339SOL    HW3 5089   1.009   3.641   3.455 -0.6893  0.2876 -1.6218
 1339SOL    MW4 5090   1.092   3.667   3.448 -0.7362 -0.0737  0.1847
 1340SOL     OW 5091   2.001   0.207   6.228  0.2609  0.5578 -0.9603
 1340SOL    HW2 5092   2.031   0.126   6.269 -1.1272  0.7764  0.6237
 1340SOL    HW3 5093   2.011   0.273   6.297  0.9296  1.6633 -2.0756
 1340SOL    MW4 5094   2.006   0.205   6.243 -0.7060  0.4777 -0.6914
 1341SOL     OW 5095   0.834   1.011   4.855 -0.0453 -0.4921  0.4171
 1341SOL    HW2 5096   0.845   0.918   4.832 -1.2184 -0.4287 -0.4822
 1341SOL    HW3 5097   0.798   1.051   4.776 -0.5163  0.5273  1.1302
 1341SOL    MW4 5098   0.830   1.004   4.841 -0.0334  0.1305 -0.4689
 1342SOL     OW 5099   4.545   2.371   3.344  0.6189  0.7096 -0.0091
 1342SOL    HW2 5100   4.466   2.407   3.305  0.0127 -1.3593 -0.8367
 1342SOL    HW3 5101   4.605   2.445   3.352 -0.1561  1.6999 -2.5408
 1342SOL    MW4 5102   4.543   2.385   3.340 -0.1327  0.0948  0.1636
 1343SOL     OW 5103   2.351   3.447   6.272  0.4136  0.5744  0.7075
 1343SOL    HW2 5104   2.395   3.397   6.203 -0.6791  0.9196 -0.2612
 1343SOL    HW3 5105   2.408   3.436   6.348  1.3096 -0.3618 -0.0564
 1343SOL    MW4 5106   2.365   3.439   6.273 -0.0528  0.6416 -0.2557
 1344SOL     OW 5107   1.844   2.760   4.995  0.0438 -0.3377  0.1313
 1344SOL    HW2 5108   1.873   2.845   4.960 -0.7872 -0.2897 -0.4774
 1344SOL    HW3 5109   1.754   2.751   4.964  0.1956 -1.5524 -0.0048
 1344SOL    MW4 5110   1.836   2.770   4.986  0.4959  0.0260  0.5054
 1345SOL     OW 5111   4.769   5.504   1.872  0.2769  0.0775 -0.0118
 1345SOL    HW2 5112   4.706   5.493   1.943 -0.5394  1.2113 -0.5292
 1345SOL    HW3 5113   4.717   5.493   1.792  1.2025 -1.2828 -0.4658
 1345SOL    MW4 5114   4.754   5.501   1.871 -0.1820  0.1569  0.2779
 1346SOL     OW 5115   2.045   2.430   2.031  0.2604 -0.1243  0.5127
 1346SOL    HW2 5116   2.073   2.495   2.097  0.9411 -0.4606  0.5655
 1346SOL    HW3 5117   1.966   2.391   2.068 -0.0904  0.5948  0.5358
 1346SOL    MW4 5118   2.038   2.434   2.045  0.3250  0.0418  0.2038
 1347SOL     OW 5119   0.361   2.116   1.590 -0.0003  0.2479  0.4754
 1347SOL    HW2 5120   0.307   2.049   1.549  0.2169  0.9401 -0.9857
 1347SOL    HW3 5121   0.400   2.164   1.517  0.7616  1.2330  1.4955
 1347SOL    MW4 5122   0.359   2.113   1.575 -0.2578 -0.3185  0.4611
 1348SOL     OW 5123   1.496   6.036   4.732 -0.4690  0.1070  0.0570
 1348SOL    HW2 5124   1.500   5.994   4.646  2.0096 -0.1613  0.2341
 1348SOL    HW3 5125   1.495   6.130   4.714  0.4236  0.0592 -0.2824
 1348SOL    MW4 5126   1.497   6.043   4.718 -0.0831 -1.0691  0.4584
 1349SOL     OW 5127   3.471   3.021   6.366 -0.2272 -0.5794  0.3104
 1349SOL    HW2 5128   3.497   3.105   6.404 -1.0052 -0.5999  0.9217
 1349SOL    HW3 5129   3.376   3.028   6.355 -0.1419 -0.9453 -0.7377
 1349SOL    MW4 5130   3.461   3.033   6.370  0.5314 -0.2883 -0.5554
 1350SOL     OW 5131   0.929   3.375   6.058 -0.0277  0.3175 -0.1004
 1350SOL    HW2 5132   0.942   3.468   6.073 -1.6464  0.3014  1.9723
 1350SOL    HW3 5133   0.898   3.368   5.968  1.0781  1.6330 -0.6138
 1350SOL    MW4 5134   0.927   3.386   6.048 -0.2823  0.0581 -0.0978
 1351SOL     OW 5135   5.511   3.564   1.409  0.7388 -0.2444 -0.2157
 1351SOL    HW2 5136   5.502   3.481   1.455  0.8189 -1.1450 -1.7475
 1351SOL    HW3 5137   5.572   3.615   1.463 -0.0986 -0.7640  1.2709
 1351SOL    MW4 5138   5.518   3.560   1.422 -0.5757 -0.4567  0.2699
 1352SOL     OW 5139   3.243   3.295   3.820 -0.0856 -0.5594  0.3672
 1352SOL    HW2 5140   3.192   3.214   3.829 -0.6684 -0.5212 -1.9137
 1352SOL    HW3 5141   3.177   3.363   3.806  0.5000 -0.3031 -1.3655
 1352SOL    MW4 5142   3.227   3.293   3.820  0.2015  0.3151 -0.1826
 1353SOL     OW 5143   4.271   5.203   5.377 -0.1604  0.4488  0.0600
 1353SOL    HW2 5144   4.285   5.243   5.463  0.9753  1.4584 -0.5664
 1353SOL    HW3 5145   4.357   5.170   5.352 -0.7847 -1.2176 -0.0576
 1353SOL    MW4 5146   4.284   5.204   5.385 -0.1053  0.4029 -0.1898
 1354SOL     OW 5147   2.540   5.988   6.056 -0.0877  0.3530 -0.3640
 1354SOL    HW2 5148   2.516   5.915   6.112 -0.1207  0.1654 -0.6199
 1354SOL    HW3 5149   2.591   6.047   6.113 -1.9697  1.2596  0.4671
 1354SOL    MW4 5150   2.544   5.986   6.071  0.4582  0.0388  0.4592
 1355SOL     OW 5151   2.228   2.727   2.537  0.5682 -1.0980  0.3154
 1355SOL    HW2 5152   2.211   2.698   2.627  0.5622 -2.3721 -0.0798
 1355SOL    HW3 5153   2.172   2.805   2.526  1.2934 -0.3520  1.7097
 1355SOL    MW4 5154   2.218   2.733   2.547  0.3187  0.6213 -0.0748
 1356SOL     OW 5155   4.814   1.134   1.908 -0.2968  0.0237 -0.2423
 1356SOL    HW2 5156   4.855   1.053   1.878 -0.3385 -0.5772  1.2599
 1356SOL    HW3 5157   4.735   1.142   1.855  0.2103 -0.3897 -1.0790
 1356SOL    MW4 5158   4.809   1.124   1.897  0.7929 -0.7363  0.6568
 1357SOL     OW 5159   3.718   5.132   1.117  0.4417  0.1627  0.4760
 1357SOL    HW2 5160   3.785   5.143   1.050  0.1841 -1.9466 -0.1891
 1357SOL    HW3 5161   3.635   5.134   1.069  0.2456 -1.1658  0.7199
 1357SOL    MW4 5162   3.716   5.134   1.102  0.4133 -0.3359  0.3035
 1358SOL     OW 5163   6.421   6.306   0.666  0.6590 -0.1185 -0.1593
 1358SOL    HW2 5164   6.396   6.213   0.668 -2.4390  0.6393  1.1090
 1358SOL    HW3 5165   6.466   6.321   0.749  0.9012 -0.3994 -0.2367
 1358SOL    MW4 5166   6.424   6.295   0.677 -0.1003  0.1241  0.0510
 1359SOL     OW 5167   4.996   1.799   3.329  0.3592 -0.5162  0.1609
 1359SOL    HW2 5168   4.923   1.836   3.378 -0.4209 -0.6100 -0.9049
 1359SOL    HW3 5169   4.957   1.762   3.250  1.7554  1.3136 -1.5295
 1359SOL    MW4 5170   4.981   1.799   3.325 -0.4346 -0.4291 -0.1499
 1360SOL     OW 5171   5.752   1.801   1.558 -0.2616 -0.4628 -0.4518
 1360SOL    HW2 5172   5.786   1.875   1.608  1.9704  0.2444 -2.8174
 1360SOL    HW3 5173   5.719   1.741   1.624  1.0978  1.0769  1.7562
 1360SOL    MW4 5174   5.752   1.803   1.573  0.1785 -0.2850 -0.3188
 1361SOL     OW 5175   3.500   6.080   1.484  0.2871  0.0032  0.0566
 1361SOL    HW2 5176   3.438   6.019   1.525  0.8326  0.6150  1.8952
 1361SOL    HW3 5177   3.575   6.081   1.543  0.9916  1.1945 -0.8181
 1361SOL    MW4 5178   3.502   6.072   1.497  0.4366  0.0189  0.3017
 1362SOL     OW 5179   3.373   5.034   4.263  0.3085 -0.4930 -0.1829
 1362SOL    HW2 5180   3.318   4.956   4.259  1.3602 -1.2821  0.2733
 1362SOL    HW3 5181   3.456   5.003   4.298  0.8276  0.7972 -0.2156
 1362SOL    MW4 5182   3.377   5.020   4.267 -0.2491 -0.2059 -0.1292
 1363SOL     OW 5183   0.382   5.503   1.816  0.9868 -0.1351  0.1709
 1363SOL    HW2 5184   0.387   5.597   1.830 -0.2492  0.1424 -1.0007
 1363SOL    HW3 5185   0.318   5.473   1.880  0.7668 -0.0377 -0.0011
 1363SOL    MW4 5186   0.374   5.511   1.826  0.0732 -0.1971 -0.1767
 1364SOL     OW 5187   5.998   3.158   4.320  0.0136  0.3742  0.1228
 1364SOL    HW2 5188   6.036   3.074   4.346  1.3563  0.4328 -1.4858
 1364SOL    HW3 5189   6.001   3.211   4.399  0.0043 -0.7787  0.9337
 1364SOL    MW4 5190   6.003   3.154   4.334 -0.0296 -0.6673 -0.2751
 1365SOL     OW 5191   6.016   0.474   6.091  0.7090  0.3133  0.1406
 1365SOL    HW2 5192   5.948   0.431   6.143 -0.3510  1.8177  0.0857
 1365SOL    HW3 5193   6.094   0.472   6.146  0.8306 -1.9629 -0.0235
 1365SOL    MW4 5194   6.017   0.468   6.105 -0.1271  0.1868  0.2946
 1366SOL     OW 5195   6.371   2.784   5.305 -0.0529 -0.3773  0.1261
 1366SOL    HW2 5196   6.451   2.831   5.332  0.0065 -0.9735  1.0535
 1366SOL    HW3 5197   6.323   2.847   5.252  1.3243 -0.2127 -0.9933
 1366SOL    MW4 5198   6.375   2.798   5.302  0.2222  0.1072  0.3594
 1367SOL     OW 5199   4.237   2.506   1.287  0.0855  0.3998  0.0955
 1367SOL    HW2 5200   4.291   2.467   1.218 -0.7348 -0.3102 -0.1654
 1367SOL    HW3 5201   4.293   2.505   1.365  0.8283  0.7014 -0.4249
 1367SOL    MW4 5202   4.252   2.501   1.288  0.0503  0.2660 -0.0851
 1368SOL     OW 5203   3.071   4.992   0.470  0.1242  0.1446  0.2734
 1368SOL    HW2 5204   3.161   4.973   0.444  0.7832  2.3833  0.7656
 1368SOL    HW3 5205   3.018   4.944   0.406  1.6106 -1.7661  0.3701
 1368SOL    MW4 5206   3.076   4.983   0.458 -0.0431  0.6011  0.7142
 1369SOL     OW 5207   0.701   0.592   4.129  0.1785 -0.1449  0.3924
 1369SOL    HW2 5208   0.622   0.645   4.143 -0.5490 -1.6429  2.2624
 1369SOL    HW3 5209   0.739   0.581   4.216  2.3872  0.3366 -0.4248
 1369SOL    MW4 5210   0.696   0.598   4.142  0.0586 -0.1085 -0.4138
 1370SOL     OW 5211   4.440   1.360   4.771 -0.5056  0.2449 -0.1855
 1370SOL    HW2 5212   4.405   1.307   4.844 -0.2553  1.5033  0.8910
 1370SOL    HW3 5213   4.367   1.370   4.711 -1.1109  0.2837  0.5459
 1370SOL    MW4 5214   4.426   1.354   4.773  0.2784  0.0008 -0.4831
 1371SOL     OW 5215   6.135   5.448   5.376 -0.2127  0.1818  0.0660
 1371SOL    HW2 5216   6.050   5.424   5.414  0.0715 -0.0981  0.5329
 1371SOL    HW3 5217   6.191   5.373   5.395  0.1729  0.4150 -0.1415
 1371SOL    MW4 5218   6.131   5.435   5.383 -0.2906 -0.3846 -0.5684
 1372SOL     OW 5219   4.413   0.625   6.016 -0.5331 -0.6892  0.1604
 1372SOL    HW2 5220   4.418   0.577   6.100 -0.1052 -0.9539 -0.0122
 1372SOL    HW3 5221   4.502   0.624   5.983 -0.6236 -0.2208 -0.1051
 1372SOL    MW4 5222   4.425   0.618   6.023 -0.1593 -0.2308 -0.3950
 1373SOL     OW 5223   3.002   3.731   6.254  0.1742  0.0844 -0.1911
 1373SOL    HW2 5224   2.975   3.796   6.189 -0.2731  0.3848  0.2885
 1373SOL    HW3 5225   3.008   3.780   6.336 -1.4481 -0.7182  0.4379
 1373SOL    MW4 5226   2.999   3.746   6.256  0.2477 -0.4659 -0.2043
 1374SOL     OW 5227   0.164   5.220   1.502 -0.2822  0.2224 -0.0342
 1374SOL    HW2 5228   0.256   5.230   1.524  0.1718 -1.4520 -0.9547
 1374SOL    HW3 5229   0.119   5.209   1.586  0.2796  1.4924  0.4434
 1374SOL    MW4 5230   0.170   5.220   1.516  0.3092 -0.3622 -0.2802
 1375SOL     OW 5231   6.260   0.919   2.388 -0.4175 -0.6222 -0.2032
 1375SOL    HW2 5232   6.234   1.009   2.371 -1.9228 -0.2941  3.1230
 1375SOL    HW3 5233   6.183   0.867   2.364 -0.2657 -0.8163 -0.2727
 1375SOL    MW4 5234   6.247   0.924   2.382  0.6872 -0.4372 -0.3906
 1376SOL     OW 5235   1.524   1.398   1.262 -0.1704  0.4088 -0.7948
 1376SOL    HW2 5236   1.482   1.484   1.258 -0.6159  0.2295 -0.2228
 1376SOL    HW3 5237   1.489   1.359   1.343  0.6688  0.0252 -0.6131
 1376SOL    MW4 5238   1.514   1.404   1.272  0.1896 -0.4347  0.3637
 1377SOL     OW 5239   5.480   3.785   2.115 -0.7278 -0.9911  0.2202
 1377SOL    HW2 5240   5.483   3.831   2.199  1.7540 -0.7579  0.1001
 1377SOL    HW3 5241   5.561   3.811   2.071 -2.3895 -0.3264 -2.7158
 1377SOL    MW4 5242   5.491   3.794   2.121  0.5521  0.6486  0.2376
 1378SOL     OW 5243   6.214   2.947   4.727  0.9119  0.6522  0.1208
 1378SOL    HW2 5244   6.228   2.865   4.775  0.4401  1.7677  2.2749
 1378SOL    HW3 5245   6.247   2.929   4.639  0.5592 -1.9330  0.4405
 1378SOL    MW4 5246   6.221   2.934   4.722  0.5111  0.3697 -0.3795
 1379SOL     OW 5247   3.636   5.152   6.135  0.1094 -0.3796  0.6667
 1379SOL    HW2 5248   3.637   5.243   6.105  0.0007 -0.4616  0.4130
 1379SOL    HW3 5249   3.705   5.148   6.202  1.4302 -0.5730 -0.6729
 1379SOL    MW4 5250   3.645   5.164   6.140  0.5551  0.2387 -0.2636
 1380SOL     OW 5251   3.920   4.443   1.618  0.7660 -0.5890 -0.2818
 1380SOL    HW2 5252   3.933   4.495   1.539  0.0954 -0.2699 -0.1909
 1380SOL    HW3 5253   3.908   4.507   1.688 -1.6457 -0.8072 -0.4229
 1380SOL    MW4 5254   3.920   4.458   1.617  0.0762 -0.1290  0.2095
 1381SOL     OW 5255   6.328   2.848   3.838 -0.1745  0.1200 -0.6193
 1381SOL    HW2 5256   6.397   2.903   3.800  0.1694  0.3481  0.3169
 1381SOL    HW3 5257   6.274   2.909   3.888  0.4572 -0.4306  0.7797
 1381SOL    MW4 5258   6.330   2.864   3.840  0.4634 -0.0463  0.2860
 1382SOL     OW 5259   5.103   4.963   3.122  0.1764 -0.0801  0.0504
 1382SOL    HW2 5260   5.173   4.916   3.167  1.8967  1.4808 -0.8489
 1382SOL    HW3 5261   5.024   4.944   3.173  1.0578 -2.5681  0.6282
 1382SOL    MW4 5262   5.102   4.954   3.135  0.0620 -0.4453  0.2925
 1383SOL     OW 5263   1.579   4.148   2.194 -0.1131 -0.1028 -0.0183
 1383SOL    HW2 5264   1.645   4.169   2.260  2.0709 -0.4593 -1.9662
 1383SOL    HW3 5265   1.515   4.219   2.200  1.7098  1.5919  0.3483
 1383SOL    MW4 5266   1.579   4.160   2.204 -0.1038 -0.5123  0.3435
 1384SOL     OW 5267   2.392   3.593   3.982  0.2333 -0.4489 -0.1605
 1384SOL    HW2 5268   2.317   3.572   3.927  0.1939 -0.9310  0.0747
 1384SOL    HW3 5269   2.464   3.540   3.946  0.2702 -0.5724  0.0951
 1384SOL    MW4 5270   2.392   3.584   3.970 -0.3920 -0.3148 -0.2743
 1385SOL     OW 5271   0.567   2.989   0.948 -0.3828  0.0886 -0.6638
 1385SOL    HW2 5272   0.578   2.961   0.857 -1.5013  0.4230 -0.9194
 1385SOL    HW3 5273   0.486   2.946   0.977 -1.0759  1.4526 -0.4500
 1385SOL    MW4 5274   0.557   2.980   0.940  0.5785 -0.3081  0.1000
 1386SOL     OW 5275   1.411   5.050   2.479 -0.4291 -0.0156  0.3328
 1386SOL    HW2 5276   1.459   5.087   2.404  1.5785  1.2871  2.1470
 1386SOL    HW3 5277   1.386   5.126   2.532 -0.7972 -0.9627  1.5664
 1386SOL    MW4 5278   1.414   5.065   2.476  0.7616 -0.3503  0.7464
 1387SOL     OW 5279   5.771   2.982   5.060  0.3320 -0.1135 -0.7436
 1387SOL    HW2 5280   5.770   3.018   4.971  0.2091 -1.5435 -1.3443
 1387SOL    HW3 5281   5.860   2.948   5.070  0.7458  1.1705  0.1768
 1387SOL    MW4 5282   5.783   2.983   5.049  0.0521 -0.5221 -0.2931
 1388SOL     OW 5283   3.552   5.194   2.657 -0.2816 -0.6646  0.4111
 1388SOL    HW2 5284   3.529   5.122   2.598  0.3357  0.0704 -0.7676
 1388SOL    HW3 5285   3.593   5.259   2.600 -2.5442  1.4871  1.0736
 1388SOL    MW4 5286   3.555   5.193   2.641  0.0799 -0.1383  0.1992
 1389SOL     OW 5287   0.005   0.168   3.890 -1.0254  0.2099 -0.1612
 1389SOL    HW2 5288  -0.088   0.164   3.915 -1.4093 -1.6655 -1.5913
 1389SOL    HW3 5289   0.003   0.170   3.794  0.4326  0.7202 -0.2008
 1389SOL    MW4 5290  -0.008   0.168   3.881  0.4579  0.0778  0.6479
 1390SOL     OW 5291   6.167   3.616   0.615  0.5339  0.1919  0.2288
 1390SOL    HW2 5292   6.144   3.678   0.685  0.5935 -0.5769  0.9526
 1390SOL    HW3 5293   6.203   3.540   0.662 -1.4617 -1.2669 -0.4619
 1390SOL    MW4 5294   6.168   3.614   0.630  0.1691  0.4047 -0.0763
 1391SOL     OW 5295   4.075   5.052   5.260  0.1696 -0.1950 -0.1896
 1391SOL    HW2 5296   4.117   4.971   5.288  0.6251 -0.1371 -0.6996
 1391SOL    HW3 5297   4.127   5.121   5.303  0.2627 -0.1444 -0.3846
 1391SOL    MW4 5298   4.088   5.050   5.270 -0.2130  0.1425 -0.6329
 1392SOL     OW 5299   4.175   2.649   5.882  0.1369 -0.1327 -0.0424
 1392SOL    HW2 5300   4.156   2.741   5.896  1.0162 -0.0591  0.7901
 1392SOL    HW3 5301   4.257   2.648   5.834 -1.2815 -0.4650 -2.6230
 1392SOL    MW4 5302   4.183   2.661   5.878  0.2262 -0.1792  0.4119
 1393SOL     OW 5303   0.496   4.666   3.109 -0.2155 -0.7445 -0.5451
 1393SOL    HW2 5304   0.483   4.685   3.202 -0.9924 -0.7058 -0.6580
 1393SOL    HW3 5305   0.466   4.576   3.098 -0.3272 -0.6772 -0.7991
 1393SOL    MW4 5306   0.490   4.657   3.120  0.5678  0.2467  0.4861
 1394SOL     OW 5307   0.851   2.763   3.811 -0.2726 -0.7355  0.6591
 1394SOL    HW2 5308   0.879   2.838   3.863 -1.3735  0.0611  0.1489
 1394SOL    HW3 5309   0.775   2.795   3.762  0.6157 -1.4817 -1.3248
 1394SOL    MW4 5310   0.844   2.777   3.811 -0.1790  0.2224  0.2581
 1395SOL     OW 5311   5.759   3.651   2.650 -0.1499  0.6352  0.1567
 1395SOL    HW2 5312   5.765   3.745   2.634  0.0454  0.2792 -2.1248
 1395SOL    HW3 5313   5.840   3.616   2.612 -0.9138 -0.6148 -0.3341
 1395SOL    MW4 5314   5.771   3.659   2.643  0.0127  0.2891 -0.4544
 1396SOL     OW 5315   0.754   4.290   5.021 -0.2994  0.1098  0.3504
 1396SOL    HW2 5316   0.718   4.208   5.053 -0.0019  0.1834  0.8744
 1396SOL    HW3 5317   0.816   4.318   5.089 -1.8393  1.7719  1.1427
 1396SOL    MW4 5318   0.758   4.283   5.034  0.0113  0.1294 -0.4553
 1397SOL     OW 5319   4.619   4.212   0.885 -0.3374  0.0801 -0.0709
 1397SOL    HW2 5320   4.683   4.270   0.927  0.0579 -0.4200  0.0418
 1397SOL    HW3 5321   4.541   4.265   0.874 -0.1147  0.5129  0.4006
 1397SOL    MW4 5322   4.617   4.226   0.889  0.2822  0.0430  0.3881
 1398SOL     OW 5323   5.876   1.553   1.221 -0.4753  0.4441  0.1952
 1398SOL    HW2 5324   5.784   1.578   1.218 -0.9801 -1.3434 -0.4009
 1398SOL    HW3 5325   5.913   1.588   1.140 -0.9624 -0.0651 -0.2456
 1398SOL    MW4 5326   5.869   1.561   1.210  0.1841  0.2333  0.1705
 1399SOL     OW 5327   1.814   1.886   3.507  0.6992 -0.0638 -0.8007
 1399SOL    HW2 5328   1.776   1.811   3.554 -0.2447  0.3224 -0.9311
 1399SOL    HW3 5329   1.906   1.888   3.535  1.1888 -2.2292 -1.9918
 1399SOL    MW4 5330   1.821   1.876   3.517 -0.2558 -0.4853 -0.4338
 1400SOL     OW 5331   5.423   3.039   4.591  0.1882 -0.1267  0.4521
 1400SOL    HW2 5332   5.411   3.095   4.668  2.0304  0.6469  0.2227
 1400SOL    HW3 5333   5.475   2.965   4.622  0.0937 -0.3231  0.1518
 1400SOL    MW4 5334   5.428   3.037   4.605 -0.4721  0.4416 -0.3519
 1401SOL     OW 5335   5.919   3.919   5.266 -0.2775  0.0342 -0.0265
 1401SOL    HW2 5336   5.968   3.939   5.186  0.3441  0.0123  0.3416
 1401SOL    HW3 5337   5.829   3.906   5.236 -0.3560  1.5023 -0.5318
 1401SOL    MW4 5338   5.914   3.920   5.251 -0.1358  0.3401  0.0153
 1402SOL     OW 5339   2.723   5.048   0.303  0.0372  0.1191  0.2077
 1402SOL    HW2 5340   2.751   5.138   0.318  0.5219 -0.2428  1.6419
 1402SOL    HW3 5341   2.650   5.034   0.363  0.2645 -0.5806  0.3342
 1402SOL    MW4 5342   2.717   5.058   0.313 -0.4617  0.1855 -0.5128
 1403SOL     OW 5343   0.981   5.085   6.076 -0.5536 -0.2321  0.2946
 1403SOL    HW2 5344   1.010   5.150   6.013 -1.7200  0.8963  0.8990
 1403SOL    HW3 5345   0.954   5.010   6.023  1.8934 -0.7519 -0.3673
 1403SOL    MW4 5346   0.982   5.083   6.061  0.0687  0.4448 -0.0779
 1404SOL     OW 5347   2.520   1.768   6.099 -0.1610  0.3886 -0.0971
 1404SOL    HW2 5348   2.452   1.826   6.064 -0.5995 -0.3386 -0.4846
 1404SOL    HW3 5349   2.596   1.825   6.113 -0.7840  1.1781  0.1511
 1404SOL    MW4 5350   2.521   1.783   6.096 -0.6798  0.1550 -0.3189
 1405SOL     OW 5351   0.494   5.992   4.660  0.2105  0.6339 -0.0076
 1405SOL    HW2 5352   0.440   5.965   4.734 -1.9678 -1.9015 -2.3061
 1405SOL    HW3 5353   0.569   5.932   4.662  0.9107  1.5065  0.8849
 1405SOL    MW4 5354   0.497   5.981   4.670  0.5730 -0.0516 -0.2933
 1406SOL     OW 5355   5.508   0.616   5.310  0.1379 -0.2262 -0.1043
 1406SOL    HW2 5356   5.471   0.536   5.275 -0.9175  0.3311 -0.2896
 1406SOL    HW3 5357   5.564   0.587   5.383 -2.1410 -0.9958  1.4563
 1406SOL    MW4 5358   5.511   0.602   5.315 -0.1128  0.0211 -0.0918
 1407SOL     OW 5359   0.940   0.446   5.237  0.5851 -0.4224 -0.3209
 1407SOL    HW2 5360   0.934   0.353   5.214 -0.3890 -0.0692 -1.6065
 1407SOL    HW3 5361   0.930   0.449   5.332  1.7273 -1.7113 -0.1339
 1407SOL    MW4 5362   0.938   0.434   5.247  0.5500 -0.2856 -0.0620
 1408SOL     OW 5363   1.554   5.222   3.352 -0.1662 -0.7348  0.0912
 1408SOL    HW2 5364   1.577   5.157   3.419 -0.2207 -1.4742 -0.5958
 1408SOL    HW3 5365   1.621   5.290   3.360 -2.1993  1.1875  3.4509
 1408SOL    MW4 5366   1.566   5.222   3.362 -0.6559 -0.1219 -0.3841
 1409SOL     OW 5367   1.907   3.956   1.484 -0.4521 -0.4186 -0.0812
 1409SOL    HW2 5368   1.909   3.861   1.468 -1.5753 -0.1789 -1.9236
 1409SOL    HW3 5369   1.841   3.967   1.552 -0.1977 -0.9810  0.2587
 1409SOL    MW4 5370   1.898   3.945   1.491  0.0752 -0.0255 -0.5426
 1410SOL     OW 5371   1.365   5.528   4.698  0.3696 -0.2104  0.3637
 1410SOL    HW2 5372   1.440   5.532   4.758  2.4867 -1.4473 -1.9870
 1410SOL    HW3 5373   1.404   5.526   4.611 -2.5066  0.4160 -1.0647
 1410SOL    MW4 5374   1.380   5.528   4.695 -0.0420  0.1268  0.5661
 1411SOL     OW 5375   2.700   0.562   4.926  0.0489 -0.0653 -0.2060
 1411SOL    HW2 5376   2.723   0.604   4.843 -1.4135 -0.1176 -0.6599
 1411SOL    HW3 5377   2.632   0.499   4.903 -0.8622  0.3886  1.1260
 1411SOL    MW4 5378   2.694   0.559   4.912  0.2766  0.7334  0.3788
 1412SOL     OW 5379   1.593   2.055   1.305  0.3665  0.2184  0.4632
 1412SOL    HW2 5380   1.658   2.119   1.276  0.4172 -0.1529 -0.2621
 1412SOL    HW3 5381   1.639   1.971   1.302 -0.8049 -0.4316 -2.5094
 1412SOL    MW4 5382   1.608   2.052   1.301  0.2063 -0.5701 -0.1866
 1413SOL     OW 5383   4.240   0.781   5.503 -0.0877  0.3553  0.4154
 1413SOL    HW2 5384   4.194   0.697   5.499 -0.2619  0.4734 -0.2964
 1413SOL    HW3 5385   4.186   0.834   5.561 -0.3155  0.1739  0.3734
 1413SOL    MW4 5386   4.227   0.777   5.510  0.1087 -0.1602 -0.5595
 1414SOL     OW 5387   5.511   5.281   4.190 -0.3402 -0.1264  0.2755
 1414SOL    HW2 5388   5.483   5.321   4.273  1.0280  0.9348  0.2654
 1414SOL    HW3 5389   5.594   5.239   4.211 -0.7251 -1.1921 -0.2338
 1414SOL    MW4 5390   5.518   5.281   4.204 -0.5630 -0.1523 -0.1874
 1415SOL     OW 5391   1.727   1.402   5.099  1.0318 -0.0455  0.3044
 1415SOL    HW2 5392   1.729   1.330   5.162  0.8594 -0.1515  0.1906
 1415SOL    HW3 5393   1.812   1.446   5.110  0.5137  0.6963  1.4813
 1415SOL    MW4 5394   1.739   1.398   5.109 -0.4571 -0.2132 -0.2533
 1416SOL     OW 5395   0.527   3.618   5.210 -0.4552  0.4327 -0.0616
 1416SOL    HW2 5396   0.446   3.668   5.215 -0.7894 -0.0689 -0.4914
 1416SOL    HW3 5397   0.505   3.539   5.161  0.5776  0.8749 -1.3062
 1416SOL    MW4 5398   0.514   3.614   5.204 -0.0556 -0.1501 -0.1421
 1417SOL     OW 5399   0.135   3.289   1.752  0.6368 -0.4655 -0.2481
 1417SOL    HW2 5400   0.177   3.318   1.833  1.0755 -1.4047 -0.1260
 1417SOL    HW3 5401   0.197   3.226   1.714  0.3424 -0.1895 -1.2135
 1417SOL    MW4 5402   0.149   3.284   1.758 -0.1829  0.1252  0.1920
 1418SOL     OW 5403   1.939   2.596   4.791  0.2305 -0.1079  0.1871
 1418SOL    HW2 5404   1.912   2.653   4.862 -0.4777  0.8334 -0.7941
 1418SOL    HW3 5405   2.032   2.613   4.779  0.3155 -0.1588  0.7836
 1418SOL    MW4 5406   1.948   2.606   4.799 -0.0804 -0.1137  0.1033
 1419SOL     OW 5407   4.860   1.131   3.148 -0.1522 -0.2261 -0.7513
 1419SOL    HW2 5408   4.869   1.057   3.208 -0.4631  0.5809  0.3245
 1419SOL    HW3 5409   4.935   1.123   3.089  0.5146 -0.6915  0.1348
 1419SOL    MW4 5410   4.871   1.120   3.148  0.3621  0.7572 -0.2557
 1420SOL     OW 5411   1.791   1.788   5.810 -0.0500  0.0538 -0.6616
 1420SOL    HW2 5412   1.775   1.695   5.798 -0.4843  0.0370 -0.0280
 1420SOL    HW3 5413   1.806   1.822   5.722 -0.7716 -0.4558 -0.9924
 1420SOL    MW4 5414   1.791   1.781   5.797  0.3936 -0.5647  0.0859
 1421SOL     OW 5415   4.523   5.276   3.487 -0.2064 -0.0207  0.6559
 1421SOL    HW2 5416   4.456   5.274   3.419  0.5749  2.9471 -0.3832
 1421SOL    HW3 5417   4.604   5.252   3.441  0.1209  0.7928  0.7750
 1421SOL    MW4 5418   4.525   5.273   3.472  0.6731  0.2222  0.6929
 1422SOL     OW 5419   1.693   6.274   6.295  0.7796 -0.1464 -0.7812
 1422SOL    HW2 5420   1.742   6.310   6.220 -0.7128  0.8697 -1.3031
 1422SOL    HW3 5421   1.685   6.181   6.274  2.1064 -0.2693 -0.8778
 1422SOL    MW4 5422   1.699   6.266   6.282  0.4967 -0.0198  0.7605
 1423SOL     OW 5423   0.296   0.266   4.206  0.1569 -0.6772 -0.1686
 1423SOL    HW2 5424   0.325   0.241   4.118 -0.2574 -0.0720 -0.4862
 1423SOL    HW3 5425   0.266   0.356   4.196  1.3484 -0.1468  0.8813
 1423SOL    MW4 5426   0.296   0.275   4.193  0.5048  0.0809 -0.2948
 1424SOL     OW 5427   0.573   3.174   6.421 -0.0135  0.4297 -0.0324
 1424SOL    HW2 5428   0.629   3.193   6.346 -0.2870 -2.1406 -0.9997
 1424SOL    HW3 5429   0.625   3.115   6.475  0.0537  1.9967  1.7091
 1424SOL    MW4 5430   0.588   3.169   6.418 -0.9360  0.3120 -0.7162
 1425SOL     OW 5431   0.304   3.974   0.648 -0.1984  0.3392  0.3820
 1425SOL    HW2 5432   0.333   4.014   0.566  1.0796  2.1428  1.6342
 1425SOL    HW3 5433   0.232   4.029   0.678 -0.4043 -0.0721  0.6546
 1425SOL    MW4 5434   0.298   3.987   0.641 -0.3425  0.1061 -0.2854
 1426SOL     OW 5435   5.560   2.875   6.290  0.0848  0.1584 -0.5254
 1426SOL    HW2 5436   5.489   2.881   6.354  0.8952  1.4394  0.2913
 1426SOL    HW3 5437   5.516   2.881   6.205 -0.9056 -0.5255 -0.0863
 1426SOL    MW4 5438   5.545   2.876   6.287  0.4380 -0.4533 -0.3330
 1427SOL     OW 5439   0.084   2.520   5.943  0.1779 -0.0989  0.7241
 1427SOL    HW2 5440   0.040   2.602   5.963  1.6964  0.9850 -0.1306
 1427SOL    HW3 5441   0.123   2.534   5.856  0.4927 -1.7215  0.5645
 1427SOL    MW4 5442   0.084   2.533   5.934  0.3996  0.5618  0.4299
 1428SOL     OW 5443   0.079   1.156   6.295  0.1275  0.1380 -0.3272
 1428SOL    HW2 5444   0.021   1.231   6.282 -0.7121 -0.1162  1.6342
 1428SOL    HW3 5445   0.114   1.138   6.207 -1.0772  1.6398 -1.1789
 1428SOL    MW4 5446   0.076   1.164   6.281  0.0808 -0.6112  0.0235
 1429SOL     OW 5447   5.779   1.938   1.923  0.7855  0.2312  0.2513
 1429SOL    HW2 5448   5.783   1.847   1.951  0.5978  0.1727  0.0919
 1429SOL    HW3 5449   5.705   1.975   1.973  0.1338 -0.0018 -0.5252
 1429SOL    MW4 5450   5.770   1.931   1.934  0.3971  0.1840 -0.0118
 1430SOL     OW 5451   0.165   2.318   1.610  0.0286 -0.5247  0.0549
 1430SOL    HW2 5452   0.217   2.240   1.590 -0.1343 -1.1474  1.8912
 1430SOL    HW3 5453   0.227   2.379   1.651  0.0808  0.2025 -1.0621
 1430SOL    MW4 5454   0.180   2.316   1.613  0.4722  0.2407  0.0644
 1431SOL     OW 5455   0.071   4.843   5.504  0.6283  0.2862 -0.1755
 1431SOL    HW2 5456   0.050   4.761   5.549  0.3812  0.5537  0.1986
 1431SOL    HW3 5457   0.008   4.907   5.538  1.2660  0.8021  0.0598
 1431SOL    MW4 5458   0.060   4.841   5.514  0.0439 -0.0502  0.1089
 1432SOL     OW 5459   4.683   3.965   4.003  0.0161  0.0557  0.6879
 1432SOL    HW2 5460   4.674   4.060   4.012  1.0411  0.3282 -0.8528
 1432SOL    HW3 5461   4.598   3.937   3.969 -0.0512  0.5389  0.4413
 1432SOL    MW4 5462   4.670   3.974   4.000  0.2348 -0.0453  0.5483
 1433SOL     OW 5463   0.538   1.774   4.186  0.0100  0.1261  0.2186
 1433SOL    HW2 5464   0.513   1.835   4.255  0.7099  0.1851  0.4318
 1433SOL    HW3 5465   0.601   1.715   4.228 -0.6636 -0.7513  0.0178
 1433SOL    MW4 5466   0.543   1.775   4.200  0.2308  0.1537  0.3209
 1434SOL     OW 5467   4.902   0.894   1.782  0.3622 -0.1677  0.2820
 1434SOL    HW2 5468   4.863   0.834   1.847 -0.3924  3.1584  3.2014
 1434SOL    HW3 5469   4.991   0.907   1.812  0.2487  0.8196  0.2250
 1434SOL    MW4 5470   4.908   0.887   1.795 -0.0288 -0.1271  0.2381
 1435SOL     OW 5471   3.207   2.472   3.453  0.4587  0.0833 -0.2042
 1435SOL    HW2 5472   3.125   2.487   3.499 -0.7899 -1.5678 -1.7796
 1435SOL    HW3 5473   3.275   2.496   3.517 -1.1833  2.1941  0.8723
 1435SOL    MW4 5474   3.205   2.477   3.468  0.3966  0.5877  1.0467
 1436SOL     OW 5475   1.976   0.162   0.293  0.9570 -0.2392  0.4893
 1436SOL    HW2 5476   1.894   0.195   0.329  1.5973  0.4504  1.3814
 1436SOL    HW3 5477   2.044   0.214   0.337  1.8725 -0.8025 -0.2107
 1436SOL    MW4 5478   1.974   0.173   0.304  0.3643 -0.2630  0.2458
 1437SOL     OW 5479   2.506   2.335   0.815 -0.2839  0.2760 -0.4989
 1437SOL    HW2 5480   2.520   2.426   0.789  1.2700  0.8266  1.9651
 1437SOL    HW3 5481   2.415   2.317   0.793 -0.7578  2.5696 -0.6352
 1437SOL    MW4 5482   2.496   2.344   0.808  0.3572 -0.6826  0.5420
 1438SOL     OW 5483   0.666   3.862   0.536  0.4042  0.2277 -0.1755
 1438SOL    HW2 5484   0.605   3.836   0.606 -0.2750 -0.0078 -0.8479
 1438SOL    HW3 5485   0.716   3.783   0.517  1.0721  0.4686  0.5061
 1438SOL    MW4 5486   0.665   3.848   0.543 -0.4268 -0.5147  0.8463
 1439SOL     OW 5487   3.330   3.002   5.492  0.3585 -0.3484  0.1845
 1439SOL    HW2 5488   3.293   2.914   5.487 -1.5457  0.4724 -2.2562
 1439SOL    HW3 5489   3.272   3.049   5.551  0.8162 -0.4293  0.7172
 1439SOL    MW4 5490   3.318   2.996   5.499  0.1716  0.3807 -0.4703
 1440SOL     OW 5491   3.683   3.680   1.776  0.0785 -0.1190 -0.2687
 1440SOL    HW2 5492   3.665   3.747   1.842 -2.0334 -0.3780 -0.5040
 1440SOL    HW3 5493   3.668   3.597   1.822  0.1454 -0.3434 -0.6504
 1440SOL    MW4 5494   3.678   3.678   1.791 -0.6467  0.1391 -0.1331
 1441SOL     OW 5495   4.392   3.756   1.546 -0.8091 -0.1608  0.5741
 1441SOL    HW2 5496   4.476   3.772   1.589 -0.8207  0.4175  0.3880
 1441SOL    HW3 5497   4.401   3.668   1.510 -0.0076  0.1697 -0.0729
 1441SOL    MW4 5498   4.405   3.747   1.547  0.3045  0.2731 -0.6892
 1442SOL     OW 5499   1.129   4.132   0.999  0.0330  0.5981  0.1042
 1442SOL    HW2 5500   1.064   4.118   0.931  0.7719  0.3309 -0.5633
 1442SOL    HW3 5501   1.190   4.196   0.961 -0.1491  1.2780  0.9323
 1442SOL    MW4 5502   1.129   4.139   0.985  0.4302  0.5274  0.4587
 1443SOL     OW 5503   5.968   0.445   2.628 -0.3197 -0.0389  0.4580
 1443SOL    HW2 5504   5.985   0.426   2.536 -1.1802  1.6186 -0.0935
 1443SOL    HW3 5505   6.017   0.526   2.645 -0.4122 -0.1627  1.3599
 1443SOL    MW4 5506   5.977   0.453   2.618  0.1820  0.0785 -0.1165
 1444SOL     OW 5507   0.465   3.360   2.391 -0.2652 -0.7125 -0.0779
 1444SOL    HW2 5508   0.499   3.425   2.329 -0.5908 -0.8876 -0.4408
 1444SOL    HW3 5509   0.506   3.384   2.475  0.1360 -0.4436 -0.3453
 1444SOL    MW4 5510   0.475   3.372   2.394 -0.2001 -0.3885  0.3103
 1445SOL     OW 5511   0.150   2.987   4.071  0.0392 -0.4388  0.3407
 1445SOL    HW2 5512   0.118   2.907   4.031 -0.9562 -0.3835  1.0215
 1445SOL    HW3 5513   0.209   2.958   4.140  2.6335 -0.5429 -1.7232
 1445SOL    MW4 5514   0.154   2.973   4.075 -0.1729 -0.2184 -0.4018
 1446SOL     OW 5515   5.239   2.199   3.735  0.2714 -0.3887 -0.1963
 1446SOL    HW2 5516   5.278   2.279   3.771  0.0975 -0.8408  1.0549
 1446SOL    HW3 5517   5.296   2.175   3.662 -0.1870  1.3659 -1.1978
 1446SOL    MW4 5518   5.252   2.207   3.730 -0.8697 -0.2046  0.4657
 1447SOL     OW 5519   1.337   4.378   4.292  0.4775 -0.5046 -0.4418
 1447SOL    HW2 5520   1.402   4.448   4.289 -0.8413  0.8502  0.9671
 1447SOL    HW3 5521   1.316   4.368   4.385 -2.0617 -0.1687 -0.9001
 1447SOL    MW4 5522   1.343   4.386   4.304  0.4368  0.8038  0.1476
 1448SOL     OW 5523   3.023   1.141   5.703  0.4057 -0.0709  0.4253
 1448SOL    HW2 5524   3.082   1.073   5.669  0.2942  0.7714 -1.6118
 1448SOL    HW3 5525   3.021   1.126   5.798  3.1208 -0.7560  0.4793
 1448SOL    MW4 5526   3.031   1.130   5.711  0.1134 -0.4192  0.3865
 1449SOL     OW 5527   2.195   5.617   2.276  0.3186 -0.4319 -0.0035
 1449SOL    HW2 5528   2.145   5.534   2.279  2.4867 -1.8335 -0.5756
 1449SOL    HW3 5529   2.142   5.678   2.328 -2.5003 -1.4859 -1.4145
 1449SOL    MW4 5530   2.181   5.614   2.283 -0.3945 -0.0968 -0.6303
 1450SOL     OW 5531   2.373   2.405   2.838  0.4292 -0.5784  0.4785
 1450SOL    HW2 5532   2.332   2.330   2.794  2.4225 -1.9564  0.8681
 1450SOL    HW3 5533   2.466   2.386   2.837  0.7957  0.6733  2.8457
 1450SOL    MW4 5534   2.380   2.393   2.832  0.8581  0.5708 -0.3223
 1451SOL     OW 5535   3.794   1.252   0.060 -0.1059  0.0551 -0.1612
 1451SOL    HW2 5536   3.861   1.290   0.003  0.0164  1.0636  0.6142
 1451SOL    HW3 5537   3.750   1.328   0.098 -2.4754 -0.5369 -1.5119
 1451SOL    MW4 5538   3.797   1.267   0.058 -0.1140 -0.0628 -0.1622
 1452SOL     OW 5539   0.676   4.262   1.049 -0.2488 -0.1579 -0.3291
 1452SOL    HW2 5540   0.691   4.169   1.034  0.7527 -0.2533  1.0759
 1452SOL    HW3 5541   0.584   4.275   1.026 -0.4895 -1.5555 -0.2610
 1452SOL    MW4 5542   0.666   4.251   1.044  0.6630 -0.5450  0.9513
 1453SOL     OW 5543   2.167   5.650   1.320 -0.0015  0.6344 -0.2634
 1453SOL    HW2 5544   2.200   5.644   1.409  2.6151  0.6850 -1.1449
 1453SOL    HW3 5545   2.144   5.742   1.309  0.8351  0.8797 -0.0057
 1453SOL    MW4 5546   2.168   5.661   1.330 -0.4733 -0.1761  0.1342
 1454SOL     OW 5547   1.275   4.042   2.783 -0.1432 -0.7285  0.4095
 1454SOL    HW2 5548   1.349   4.097   2.807  0.9469 -1.1533 -1.6574
 1454SOL    HW3 5549   1.205   4.103   2.759 -0.3473 -0.3210  1.9613
 1454SOL    MW4 5550   1.276   4.057   2.783 -0.0273 -0.3688  1.0155
 1455SOL     OW 5551   6.171   4.798   5.269 -0.2776 -0.6051 -0.3560
 1455SOL    HW2 5552   6.076   4.804   5.262 -0.1940  1.1005 -0.4687
 1455SOL    HW3 5553   6.186   4.738   5.342 -1.4505 -0.1832  0.2519
 1455SOL    MW4 5554   6.161   4.791   5.278  0.0878  0.2610 -0.4134
 1456SOL     OW 5555   4.346   1.076   3.087 -0.6447 -0.1872 -0.3541
 1456SOL    HW2 5556   4.404   1.136   3.133 -0.3341 -0.9519  0.2631
 1456SOL    HW3 5557   4.262   1.085   3.132 -1.4334  1.8908 -2.0551
 1456SOL    MW4 5558   4.342   1.086   3.099 -0.6061  0.2414  0.4407
 1457SOL     OW 5559   1.394   6.359   1.429  0.6324 -0.4357  0.0919
 1457SOL    HW2 5560   1.358   6.425   1.489  0.2255 -0.2006 -0.4060
 1457SOL    HW3 5561   1.483   6.343   1.462  1.2527  1.3979 -0.5935
 1457SOL    MW4 5562   1.401   6.366   1.442 -0.5440  0.4282  0.1388
 1458SOL     OW 5563   1.798   3.438   0.498 -0.0850 -0.0955  0.1425
 1458SOL    HW2 5564   1.774   3.346   0.494  0.4064 -0.2181 -0.0829
 1458SOL    HW3 5565   1.851   3.453   0.420  0.4765  0.1918  0.5677
 1458SOL    MW4 5566   1.802   3.428   0.487 -0.2025  0.3309  0.2137
 1459SOL     OW 5567   0.994   1.558   0.130  0.2094 -0.4200  0.0839
 1459SOL    HW2 5568   1.052   1.611   0.075 -0.2275 -0.2278 -0.1979
 1459SOL    HW3 5569   0.953   1.621   0.188 -1.1562 -0.2636 -0.9927
 1459SOL    MW4 5570   0.996   1.573   0.130  0.0690 -0.1026  0.4237
 1460SOL     OW 5571   0.329   3.049   3.876 -0.4461 -0.4868  0.1543
 1460SOL    HW2 5572   0.274   3.024   3.951  0.1988 -0.3656  0.6704
 1460SOL    HW3 5573   0.300   2.991   3.806 -0.6136 -1.0431  0.6714
 1460SOL    MW4 5574   0.318   3.038   3.877  0.2558  0.1342  0.1090
 1461SOL     OW 5575   2.556   1.023   5.247  0.2077 -0.2320 -0.1743
 1461SOL    HW2 5576   2.536   0.946   5.301  0.5245  0.4119  0.8961
 1461SOL    HW3 5577   2.614   0.990   5.179 -1.3271 -1.3447 -0.9964
 1461SOL    MW4 5578   2.561   1.008   5.245  0.0899 -0.0726  0.3028
 1462SOL     OW 5579   3.202   2.852   1.416  0.4732  0.1404  0.3060
 1462SOL    HW2 5580   3.222   2.759   1.418  3.2807  0.6562  1.3901
 1462SOL    HW3 5581   3.273   2.891   1.365  0.1330  1.8054  1.0308
 1462SOL    MW4 5582   3.214   2.845   1.410 -0.3477  0.2719 -0.0453
 1463SOL     OW 5583   0.416   0.784   1.447  0.0907 -0.4422  0.1673
 1463SOL    HW2 5584   0.466   0.749   1.374  0.3714 -0.1198  0.1984
 1463SOL    HW3 5585   0.466   0.861   1.475 -1.3886  1.0093 -1.0091
 1463SOL    MW4 5586   0.429   0.790   1.441 -0.2367 -0.7135  0.6635
 1464SOL     OW 5587   2.593   0.489   6.215  0.2230 -0.5739 -0.1535
 1464SOL    HW2 5588   2.609   0.548   6.289  0.1227 -1.1097  0.3023
 1464SOL    HW3 5589   2.601   0.545   6.138  0.7023 -0.0828  0.2416
 1464SOL    MW4 5590   2.596   0.505   6.215 -0.0981 -0.0117  0.6657
 1465SOL     OW 5591   4.262   0.686   3.299 -0.0811  0.2037  0.1231
 1465SOL    HW2 5592   4.339   0.710   3.247  0.8491 -3.3091 -0.4132
 1465SOL    HW3 5593   4.191   0.678   3.235 -0.7452  2.4086  0.4782
 1465SOL    MW4 5594   4.263   0.688   3.284  0.1038  0.0103  0.3354
 1466SOL     OW 5595   1.480   3.960   0.428  0.3257 -0.0238 -0.0028
 1466SOL    HW2 5596   1.558   3.905   0.435  0.5528  0.2806 -0.1425
 1466SOL    HW3 5597   1.409   3.905   0.461  0.6611 -0.1751  0.4778
 1466SOL    MW4 5598   1.480   3.946   0.434 -0.6723  0.1446  0.3764
 1467SOL     OW 5599   5.983   6.154   0.023  0.1219 -0.4463  0.2359
 1467SOL    HW2 5600   6.011   6.137  -0.067  1.9644 -1.2441  0.9171
 1467SOL    HW3 5601   5.904   6.100   0.034 -0.6959  0.4041 -1.1670
 1467SOL    MW4 5602   5.976   6.144   0.013 -0.6805 -0.0114  0.0723
 1468SOL     OW 5603   4.894   2.405   5.548  0.2876  0.4880  0.0529
 1468SOL    HW2 5604   4.838   2.337   5.511 -0.6677  0.7161  1.0332
 1468SOL    HW3 5605   4.942   2.361   5.618  0.7474  0.4986 -0.2453
 1468SOL    MW4 5606   4.893   2.390   5.552  0.0814  0.0958  0.0097
 1469SOL     OW 5607   3.235   0.036   5.013  0.9026  0.2674 -0.0898
 1469SOL    HW2 5608   3.241  -0.049   5.055  0.5920  0.7931  1.0451
 1469SOL    HW3 5609   3.251   0.099   5.083  1.6737  1.1391 -1.0167
 1469SOL    MW4 5610   3.238   0.033   5.028 -0.3332  0.1700  0.2276
 1470SOL     OW 5611   5.628   1.243   5.797 -0.1132  1.1560  0.2259
 1470SOL    HW2 5612   5.609   1.161   5.752  2.1095  0.9384 -0.4612
 1470SOL    HW3 5613   5.578   1.238   5.878  0.0430 -0.9498  0.2476
 1470SOL    MW4 5614   5.619   1.231   5.802 -0.1579 -0.5371 -0.2819
 1471SOL     OW 5615   4.594   5.513   1.624 -0.0912  0.0888  0.0999
 1471SOL    HW2 5616   4.658   5.461   1.574 -0.4205 -0.3955  0.1740
 1471SOL    HW3 5617   4.552   5.449   1.681  0.1882  0.6149  0.9103
 1471SOL    MW4 5618   4.597   5.498   1.625 -0.1897 -0.7431 -0.4608
 1472SOL     OW 5619   4.405   1.323   5.782 -0.1430  0.9078 -0.0583
 1472SOL    HW2 5620   4.484   1.354   5.827 -0.6140  0.7453  0.9037
 1472SOL    HW3 5621   4.412   1.228   5.786 -0.4531  0.8936  0.1461
 1472SOL    MW4 5622   4.417   1.315   5.789  0.3272 -0.5046  0.2282
 1473SOL     OW 5623   1.653   6.396   0.776  0.1050 -0.3943  0.1271
 1473SOL    HW2 5624   1.690   6.314   0.807 -0.5785 -0.1828  1.5571
 1473SOL    HW3 5625   1.559   6.389   0.793 -0.2614 -0.1152 -1.6051
 1473SOL    MW4 5626   1.646   6.384   0.782 -0.2865 -0.2033  0.3190
 1474SOL     OW 5627   1.858   4.486   5.946  0.1250 -0.7745  0.2623
 1474SOL    HW2 5628   1.875   4.426   6.018  2.2821  0.3355  0.7816
 1474SOL    HW3 5629   1.839   4.570   5.989 -2.7215 -0.9418 -0.4427
 1474SOL    MW4 5630   1.858   4.489   5.961 -0.0779 -0.2134  0.1919
 1475SOL     OW 5631   5.765   6.273   5.263  0.0182  1.1684  0.0125
 1475SOL    HW2 5632   5.792   6.182   5.251 -2.6468 -0.0039  1.9685
 1475SOL    HW3 5633   5.764   6.287   5.357 -1.6399  2.5260 -0.1433
 1475SOL    MW4 5634   5.769   6.263   5.274  0.3443  0.2108  0.0213
 1476SOL     OW 5635   4.279   0.991   5.187 -0.1316  0.0751 -0.4125
 1476SOL    HW2 5636   4.337   0.915   5.190 -0.0671  0.1327 -0.1851
 1476SOL    HW3 5637   4.194   0.958   5.215 -0.0865  0.1022 -0.2438
 1476SOL    MW4 5638   4.276   0.977   5.191 -0.4715 -0.7184 -0.4425
 1477SOL     OW 5639   5.700   3.319   4.407  0.6974  0.0792 -0.2494
 1477SOL    HW2 5640   5.693   3.226   4.387  1.4091 -0.3481  1.2992
 1477SOL    HW3 5641   5.791   3.330   4.434  0.7881  1.3642 -1.0372
 1477SOL    MW4 5642   5.711   3.308   4.408 -0.3300  0.1829 -0.3329
 1478SOL     OW 5643   5.125   1.378   3.093  0.4316  0.4331  0.0190
 1478SOL    HW2 5644   5.191   1.309   3.087 -0.3518 -0.4199  0.8036
 1478SOL    HW3 5645   5.100   1.396   3.002  0.8314 -0.1259 -0.2059
 1478SOL    MW4 5646   5.130   1.372   3.080 -0.0189 -0.2383 -0.0952
 1479SOL     OW 5647   3.487   3.741   3.361  0.2772 -0.2377  0.0408
 1479SOL    HW2 5648   3.436   3.819   3.341  0.8183  0.5486  1.5608
 1479SOL    HW3 5649   3.421   3.673   3.376 -0.1780 -0.2739 -1.8838
 1479SOL    MW4 5650   3.471   3.742   3.361  0.3794  0.2825 -0.8512
 1480SOL     OW 5651   4.468   2.310   4.677  0.6910  0.2138  0.9882
 1480SOL    HW2 5652   4.444   2.363   4.601  2.7014 -0.6362 -0.3488
 1480SOL    HW3 5653   4.411   2.340   4.747 -0.7060  1.5875 -0.6527
 1480SOL    MW4 5654   4.458   2.321   4.676  0.1479 -0.1296 -0.1309
 1481SOL     OW 5655   2.217   2.664   2.143  0.3536 -0.3647 -0.4038
 1481SOL    HW2 5656   2.194   2.621   2.226  1.1197  1.7974  0.9979
 1481SOL    HW3 5657   2.178   2.751   2.150 -1.5367 -0.8339 -3.3458
 1481SOL    MW4 5658   2.209   2.670   2.155 -0.4407 -0.6664  0.0583
 1482SOL     OW 5659   4.002   0.790   1.750 -0.2859  0.2013 -0.0114
 1482SOL    HW2 5660   3.938   0.830   1.690 -1.2166 -1.4262 -0.1519
 1482SOL    HW3 5661   4.084   0.836   1.730 -1.1743  1.6550 -0.5279
 1482SOL    MW4 5662   4.004   0.801   1.739 -0.5849  0.3570 -0.7598
 1483SOL     OW 5663   2.549   0.944   5.830  0.3323  0.5692 -0.4760
 1483SOL    HW2 5664   2.571   0.975   5.918  0.5521 -1.4784  0.2564
 1483SOL    HW3 5665   2.604   0.996   5.771 -0.0292  2.1792  0.5497
 1483SOL    MW4 5666   2.559   0.955   5.834 -0.2610  0.5174  0.0835
 1484SOL     OW 5667   0.400   6.375   3.688 -0.5563  0.1629 -0.0657
 1484SOL    HW2 5668   0.362   6.370   3.600 -1.1069  1.2125  0.0926
 1484SOL    HW3 5669   0.325   6.381   3.746 -0.2186 -1.2931  0.5696
 1484SOL    MW4 5670   0.385   6.375   3.684  0.4878 -0.1759  0.3771
 1485SOL     OW 5671   1.364   2.417   5.394  0.8295 -0.5541 -0.4390
 1485SOL    HW2 5672   1.380   2.329   5.429  2.4842 -0.1949 -0.2166
 1485SOL    HW3 5673   1.335   2.468   5.469  3.3416 -0.0548  0.2777
 1485SOL    MW4 5674   1.362   2.412   5.408  0.3233 -0.3017  0.3596
 1486SOL     OW 5675   5.813   2.993   0.182  0.2683 -0.7366 -0.6926
 1486SOL    HW2 5676   5.899   2.979   0.223  0.3633 -0.2241 -0.7152
 1486SOL    HW3 5677   5.782   2.905   0.162 -1.1799 -1.3792  3.3017
 1486SOL    MW4 5678   5.820   2.979   0.185  0.1659 -0.2724  0.3341
 1487SOL     OW 5679   2.773   5.982   4.590 -0.2068  0.1424  0.2726
 1487SOL    HW2 5680   2.736   6.015   4.672 -0.1136 -0.8623  0.7421
 1487SOL    HW3 5681   2.743   5.891   4.586  0.8515 -0.2036 -0.1610
 1487SOL    MW4 5682   2.764   5.974   4.601 -0.5251  0.3456 -0.0100
 1488SOL     OW 5683   6.236   2.710   4.893 -0.1538 -0.2918 -0.4929
 1488SOL    HW2 5684   6.164   2.676   4.840 -0.6802  0.3798 -0.2134
 1488SOL    HW3 5685   6.239   2.651   4.969 -0.1460 -0.5566 -0.6952
 1488SOL    MW4 5686   6.227   2.698   4.896  0.1160 -0.0972  0.4013
 1489SOL     OW 5687   5.579   1.943   2.536  0.0455 -0.5983  0.4497
 1489SOL    HW2 5688   5.487   1.970   2.546  0.5157  0.6203  1.9031
 1489SOL    HW3 5689   5.621   1.972   2.617  1.5282 -2.0011  0.2285
 1489SOL    MW4 5690   5.572   1.950   2.548  0.6704  0.4550 -0.2904
 1490SOL     OW 5691   0.518   5.746   4.485 -0.2687 -0.3292  0.1054
 1490SOL    HW2 5692   0.520   5.677   4.552 -0.9751  0.8005  1.3490
 1490SOL    HW3 5693   0.609   5.777   4.480 -0.0721 -0.9065 -0.0002
 1490SOL    MW4 5694   0.530   5.741   4.493  0.0650 -0.1404  0.0531
 1491SOL     OW 5695   4.404   0.941   1.049  0.1359  0.0551 -0.3643
 1491SOL    HW2 5696   4.400   0.908   1.139  0.6955 -0.0062 -0.3561
 1491SOL    HW3 5697   4.456   1.020   1.055  1.2201 -0.6059 -0.8101
 1491SOL    MW4 5698   4.410   0.947   1.062 -0.2717  0.3744  0.3115
 1492SOL     OW 5699   5.045   0.474   2.261  0.5820 -0.2062  0.4101
 1492SOL    HW2 5700   5.048   0.513   2.348 -1.9908 -2.1785  1.4970
 1492SOL    HW3 5701   4.962   0.503   2.224  0.1765 -1.8873 -0.0816
 1492SOL    MW4 5702   5.035   0.483   2.268 -0.1016 -0.0622  0.4230
 1493SOL     OW 5703   3.011   5.250   0.496 -0.2192 -0.4181 -0.0113
 1493SOL    HW2 5704   3.029   5.156   0.492  2.3058  0.0456 -1.0486
 1493SOL    HW3 5705   3.075   5.290   0.437 -0.7218  2.0391  0.9725
 1493SOL    MW4 5706   3.021   5.243   0.488  0.3265  0.0373 -0.0938
 1494SOL     OW 5707   4.317   5.859   6.307  0.4799 -0.0894  0.2998
 1494SOL    HW2 5708   4.359   5.875   6.392  0.7972 -0.3702  0.1973
 1494SOL    HW3 5709   4.372   5.905   6.244  0.2896  0.0492  0.2337
 1494SOL    MW4 5710   4.330   5.867   6.310  0.4379  0.5384  0.4426
 1495SOL     OW 5711   4.109   4.115   2.688 -0.0058 -0.1859 -0.9777
 1495SOL    HW2 5712   4.046   4.052   2.723  1.0446 -0.0931  1.3039
 1495SOL    HW3 5713   4.057   4.173   2.633 -1.6113 -1.0593 -0.4559
 1495SOL    MW4 5714   4.094   4.115   2.686 -0.4599  0.7700  0.0303
 1496SOL     OW 5715   5.968   4.458   1.320 -0.6159 -0.0239  0.0041
 1496SOL    HW2 5716   5.972   4.551   1.340  0.3708 -0.4051  1.7739
 1496SOL    HW3 5717   5.920   4.420   1.394  0.7698 -1.1660  0.3609
 1496SOL    MW4 5718   5.962   4.465   1.332  0.5804 -0.3587  0.1785
 1497SOL     OW 5719   4.099   1.901   2.876 -0.3199  0.2491  0.2250
 1497SOL    HW2 5720   4.092   1.883   2.782  0.3975  0.7076  0.0803
 1497SOL    HW3 5721   4.082   1.995   2.883  0.5300  0.3915  0.4470
 1497SOL    MW4 5722   4.096   1.911   2.864  0.2920 -0.2169 -0.2966
 1498SOL     OW 5723   4.924   1.319   0.777  0.3666  0.1176 -0.3050
 1498SOL    HW2 5724   4.964   1.233   0.763 -0.0675 -0.1349 -0.0452
 1498SOL    HW3 5725   4.830   1.304   0.764  0.2711  0.5141 -0.0944
 1498SOL    MW4 5726   4.917   1.306   0.774  0.0839  0.2764 -0.1403
 1499SOL     OW 5727   2.284   0.751   6.331 -0.4274 -0.4000 -0.2860
 1499SOL    HW2 5728   2.258   0.814   6.398 -2.7417 -1.1962 -0.3325
 1499SOL    HW3 5729   2.317   0.804   6.259  2.1115  0.4838  1.3930
 1499SOL    MW4 5730   2.285   0.766   6.330  0.8196 -0.3642 -0.5208
 1500SOL     OW 5731   5.441   4.940   0.715 -0.5269  0.5561  0.9111
 1500SOL    HW2 5732   5.354   4.900   0.712  0.0533 -0.6806 -0.8104
 1500SOL    HW3 5733   5.440   5.005   0.645  0.0811  0.1882  0.5544
 1500SOL    MW4 5734   5.429   4.944   0.705 -0.5819  0.4933 -0.0773
 1501SOL     OW 5735   3.041   4.299   3.714 -0.0131 -0.3813 -0.2748
 1501SOL    HW2 5736   2.964   4.352   3.696 -1.0769 -1.8690 -0.3030
 1501SOL    HW3 5737   3.115   4.355   3.691 -1.0733  1.1122 -0.1504
 1501SOL    MW4 5738   3.041   4.313   3.709  0.1915  0.0109 -0.2877
 1502SOL     OW 5739   4.839   2.785   2.599  0.4385  0.2723  0.3025
 1502SOL    HW2 5740   4.878   2.738   2.526  1.3218 -0.3583  1.1571
 1502SOL    HW3 5741   4.868   2.875   2.588 -0.5722  0.4802 -0.8713
 1502SOL    MW4 5742   4.848   2.791   2.588  0.3076 -0.1420  0.0830
 1503SOL     OW 5743   6.040   0.830   4.607 -0.0514 -0.5828  0.0966
 1503SOL    HW2 5744   6.045   0.866   4.518 -0.0287 -2.2986 -0.6411
 1503SOL    HW3 5745   6.121   0.858   4.649 -0.0885  0.3054 -0.3926
 1503SOL    MW4 5746   6.051   0.838   4.601 -0.0397 -0.1659  0.1971
 1504SOL     OW 5747   2.366   3.303   1.823 -0.8702  0.4440 -0.2742
 1504SOL    HW2 5748   2.423   3.379   1.815  0.1027 -0.2738 -0.2835
 1504SOL    HW3 5749   2.374   3.259   1.739 -2.9979  1.3724 -1.0355
 1504SOL    MW4 5750   2.374   3.307   1.811  0.2470 -0.0783  0.0553
 1505SOL     OW 5751   2.624   0.694   4.161 -0.0167 -0.4010  0.5111
 1505SOL    HW2 5752   2.613   0.764   4.226  0.3760 -0.3068  0.4745
 1505SOL    HW3 5753   2.718   0.691   4.145 -0.2826  1.2134 -1.8565
 1505SOL    MW4 5754   2.635   0.703   4.168  0.5548  0.1557 -0.0720
 1506SOL     OW 5755   6.193   4.609   3.377  0.3641 -0.0888  0.4033
 1506SOL    HW2 5756   6.253   4.594   3.303 -1.6003 -0.4854 -1.2098
 1506SOL    HW3 5757   6.168   4.521   3.405  1.0448  0.0641  1.5485
 1506SOL    MW4 5758   6.198   4.595   3.371 -0.1946  0.1893 -0.0537
 1507SOL     OW 5759   0.971   2.509   1.712  0.0857 -0.5725 -0.8848
 1507SOL    HW2 5760   0.898   2.483   1.767 -0.6522 -1.2087 -2.1111
 1507SOL    HW3 5761   0.935   2.509   1.623  1.2041  0.5060 -1.3698
 1507SOL    MW4 5762   0.957   2.506   1.707  0.0970  0.2147 -0.3431
 1508SOL     OW 5763   5.141   1.574   3.443  0.8443 -0.2773 -0.5190
 1508SOL    HW2 5764   5.191   1.583   3.362  0.6919  1.1634 -0.4826
 1508SOL    HW3 5765   5.073   1.641   3.436  0.2415 -0.7776  0.3838
 1508SOL    MW4 5766   5.139   1.584   3.431 -0.3977  0.3328 -0.3831
 1509SOL     OW 5767   3.387   0.935   4.886  0.4780 -0.0875 -0.3036
 1509SOL    HW2 5768   3.388   1.006   4.950 -0.5758  1.2459 -1.7012
 1509SOL    HW3 5769   3.299   0.898   4.892  0.5299 -0.2742 -0.6410
 1509SOL    MW4 5770   3.376   0.940   4.895 -0.3019 -0.6694  0.3513
 1510SOL     OW 5771   4.227   6.421   2.205  0.2800  0.4258  0.2374
 1510SOL    HW2 5772   4.295   6.477   2.241  0.3459 -0.0989  0.9685
 1510SOL    HW3 5773   4.200   6.366   2.279  0.8668 -1.1315 -0.6495
 1510SOL    MW4 5774   4.232   6.421   2.219  0.3673 -0.0223  0.6293
 1511SOL     OW 5775   5.703   0.072   2.835  0.3935 -0.0509  0.6413
 1511SOL    HW2 5776   5.655  -0.008   2.815 -1.1736  0.8092  0.7583
 1511SOL    HW3 5777   5.758   0.088   2.759  0.7151 -1.2266  0.6166
 1511SOL    MW4 5778   5.704   0.064   2.823 -0.2159  0.8253 -0.2455
 1512SOL     OW 5779   3.026   0.509   1.204 -0.1278  0.5427  0.2977
 1512SOL    HW2 5780   2.939   0.502   1.242 -0.9009  1.9134 -1.1199
 1512SOL    HW3 5781   3.066   0.583   1.250 -0.1127  0.5754  0.2327
 1512SOL    MW4 5782   3.020   0.518   1.215 -0.0225  0.0949 -0.0263
 1513SOL     OW 5783   5.828   1.426   2.147 -0.4800 -0.4971  0.1517
 1513SOL    HW2 5784   5.864   1.441   2.234 -2.0585  0.6487  0.6501
 1513SOL    HW3 5785   5.880   1.353   2.112  2.4953  1.1755  0.6623
 1513SOL    MW4 5786   5.840   1.418   2.154  0.2323  0.2465  0.4189
 1514SOL     OW 5787   1.489   4.548   2.791 -0.0905  0.1562  0.2082
 1514SOL    HW2 5788   1.448   4.463   2.804 -0.3300  0.0358 -1.1354
 1514SOL    HW3 5789   1.557   4.553   2.858  0.6098 -1.5236 -0.3219
 1514SOL    MW4 5790   1.492   4.538   2.801  0.5015 -0.0377  0.1794
 1515SOL     OW 5791   2.863   4.210   4.522 -0.2695  0.9445  0.3878
 1515SOL    HW2 5792   2.801   4.163   4.578  0.1683 -0.8765 -0.5590
 1515SOL    HW3 5793   2.945   4.211   4.571 -0.5364  1.5949  0.8209
 1515SOL    MW4 5794   2.866   4.204   4.536 -0.5166 -0.0685 -0.7769
 1516SOL     OW 5795   1.769   6.126   4.706 -0.0984  0.1731 -0.5060
 1516SOL    HW2 5796   1.691   6.089   4.747  0.5464 -2.5031 -1.4688
 1516SOL    HW3 5797   1.836   6.122   4.774 -0.6176  1.9417  0.1460
 1516SOL    MW4 5798   1.767   6.120   4.720  0.4029  0.1570 -0.0038
 1517SOL     OW 5799   0.351   4.169   5.911 -0.0272  0.1194 -0.1668
 1517SOL    HW2 5800   0.333   4.207   5.997  0.8036 -1.3232  0.6876
 1517SOL    HW3 5801   0.272   4.120   5.889 -0.1918  0.3831 -0.1670
 1517SOL    MW4 5802   0.338   4.167   5.920  0.5400 -0.0747 -0.0286
 1518SOL     OW 5803   0.300   6.070   3.444 -0.0601 -0.4354 -0.4961
 1518SOL    HW2 5804   0.302   5.985   3.489 -0.9540 -1.1831 -1.7956
 1518SOL    HW3 5805   0.213   6.106   3.465  0.8660  0.9004  1.2873
 1518SOL    MW4 5806   0.288   6.063   3.453  0.3090 -0.2621 -0.0488
 1519SOL     OW 5807   5.035   5.209   5.228 -0.0135  0.4354  0.5853
 1519SOL    HW2 5808   5.020   5.115   5.230 -0.3385  0.4604 -0.2068
 1519SOL    HW3 5809   5.047   5.229   5.135  0.8475  1.0527  0.8150
 1519SOL    MW4 5810   5.035   5.199   5.216  0.2272 -0.3235  0.3598
 1520SOL     OW 5811   1.630   3.138   3.688  0.4868 -0.0015  0.1119
 1520SOL    HW2 5812   1.606   3.046   3.695  1.2220 -0.0952  2.0574
 1520SOL    HW3 5813   1.546   3.185   3.686  0.0112 -0.7436 -3.3865
 1520SOL    MW4 5814   1.616   3.132   3.689  0.7839  0.9272 -0.7708
 1521SOL     OW 5815   2.463   6.188   2.940  0.3980  0.3895  0.2653
 1521SOL    HW2 5816   2.474   6.147   2.854  1.1216 -0.2953  0.6764
 1521SOL    HW3 5817   2.528   6.145   2.996 -0.5427  0.3286  1.3380
 1521SOL    MW4 5818   2.473   6.177   2.936  0.1823 -0.5425  0.2573
 1522SOL     OW 5819   1.367   0.535   3.337 -0.1268 -0.8211 -0.4759
 1522SOL    HW2 5820   1.361   0.508   3.429  0.7113 -1.4805 -0.6002
 1522SOL    HW3 5821   1.445   0.490   3.304  0.5357  0.6998 -1.0829
 1522SOL    MW4 5822   1.376   0.525   3.345 -0.5982 -0.1577 -0.4883
 1523SOL     OW 5823   1.581   0.354   0.991  0.0405 -0.0741 -0.2481
 1523SOL    HW2 5824   1.662   0.327   0.948 -0.5705 -1.4758 -0.5740
 1523SOL    HW3 5825   1.581   0.450   0.985  0.8731 -0.1360 -1.7272
 1523SOL    MW4 5826   1.591   0.363   0.984 -0.6608  0.4556 -0.4566
 1524SOL     OW 5827   4.226   5.755   4.642 -0.5227 -0.7283  0.2920
 1524SOL    HW2 5828   4.172   5.778   4.718 -0.6466 -2.1136  0.6584
 1524SOL    HW3 5829   4.301   5.814   4.647  0.8830 -2.5451  3.1218
 1524SOL    MW4 5830   4.229   5.766   4.653 -0.0199 -0.7554  0.0481
 1525SOL     OW 5831   3.189   4.229   1.240  0.1833  0.9383  0.0005
 1525SOL    HW2 5832   3.211   4.247   1.331 -0.7091  1.2660  0.1626
 1525SOL    HW3 5833   3.148   4.310   1.209 -1.8075  0.0293  0.0680
 1525SOL    MW4 5834   3.186   4.242   1.248 -0.3475 -0.0759  0.3099
 1526SOL     OW 5835   6.165   2.920   4.431 -0.1507  0.4179 -0.3298
 1526SOL    HW2 5836   6.236   2.920   4.366 -1.4898 -0.2025 -1.8578
 1526SOL    HW3 5837   6.112   2.843   4.408 -1.4875  1.0299  0.5998
 1526SOL    MW4 5838   6.168   2.910   4.419  0.0917  0.4224  0.0082
 1527SOL     OW 5839   3.477   5.341   0.022  0.0014  0.4291  0.1336
 1527SOL    HW2 5840   3.525   5.417  -0.011  0.4651  0.0608 -0.0589
 1527SOL    HW3 5841   3.394   5.342  -0.026 -0.2834  1.1972  0.6242
 1527SOL    MW4 5842   3.473   5.351   0.011 -0.5926  0.2516 -0.1885
 1528SOL     OW 5843   4.541   1.156   0.419  0.5542  0.2996 -0.0519
 1528SOL    HW2 5844   4.622   1.147   0.469  1.3652  0.6740 -1.2450
 1528SOL    HW3 5845   4.473   1.117   0.475  1.5861 -0.1979  0.8877
 1528SOL    MW4 5846   4.542   1.149   0.433  0.3568  0.3487  0.4929
 1529SOL     OW 5847   5.249   0.540   4.321  0.1357  0.1915 -0.1169
 1529SOL    HW2 5848   5.221   0.468   4.263 -1.8715  1.0828 -0.3258
 1529SOL    HW3 5849   5.247   0.501   4.408  1.5858 -0.6990 -0.4392
 1529SOL    MW4 5850   5.245   0.525   4.325  0.3544 -0.2839  0.1047
 1530SOL     OW 5851   0.099   4.859   6.367 -0.0678  0.0559  0.6066
 1530SOL    HW2 5852   0.056   4.945   6.368 -1.4015 -0.5477  2.7333
 1530SOL    HW3 5853   0.192   4.878   6.363 -0.3795  1.5023 -1.4485
 1530SOL    MW4 5854   0.105   4.873   6.367  0.6542  0.1718  0.6335
 1531SOL     OW 5855   1.656   2.101   4.534 -0.9269  0.6982  0.0829
 1531SOL    HW2 5856   1.644   2.017   4.578  1.6188  0.8217  1.1563
 1531SOL    HW3 5857   1.619   2.165   4.595 -0.6507  0.5612  0.3964
 1531SOL    MW4 5858   1.649   2.099   4.548  0.1027 -0.1154  0.2674
 1532SOL     OW 5859   0.795   2.017   4.080  0.1734 -0.8566 -0.3613
 1532SOL    HW2 5860   0.821   2.104   4.050 -1.2332 -1.0686 -2.3418
 1532SOL    HW3 5861   0.873   1.963   4.066  0.4303 -0.3358 -1.0106
 1532SOL    MW4 5862   0.809   2.021   4.074  0.0793  0.1328 -0.4282
 1533SOL     OW 5863   6.026   3.319   0.821  0.2524  0.5750  0.2377
 1533SOL    HW2 5864   5.980   3.373   0.757  0.5493 -0.0542 -0.5070
 1533SOL    HW3 5865   6.009   3.229   0.794 -0.3029  0.2702  1.5111
 1533SOL    MW4 5866   6.017   3.314   0.809  0.6046 -0.1005  0.5785
 1534SOL     OW 5867   3.435   0.859   2.702  0.7950  0.1106 -0.4771
 1534SOL    HW2 5868   3.489   0.788   2.738  0.1438  0.2257  0.7852
 1534SOL    HW3 5869   3.499   0.924   2.672  1.3995  0.2155  0.9368
 1534SOL    MW4 5870   3.451   0.858   2.703  0.0511  0.3307  0.8470
 1535SOL     OW 5871   3.879   5.744   1.826  0.3839  0.5103  0.4986
 1535SOL    HW2 5872   3.901   5.717   1.737  1.1046  0.2271  0.7549
 1535SOL    HW3 5873   3.896   5.838   1.827  1.0967  0.3808  0.5494
 1535SOL    MW4 5874   3.884   5.753   1.814  0.9826  0.7766  0.1371
 1536SOL     OW 5875   0.850   2.307   6.287 -0.1530  0.6266  0.6771
 1536SOL    HW2 5876   0.790   2.377   6.312 -0.6152  0.5153 -0.1063
 1536SOL    HW3 5877   0.794   2.233   6.264  0.2626  0.6131 -0.3404
 1536SOL    MW4 5878   0.835   2.306   6.287 -0.2606 -0.4176 -0.1016
 1537SOL     OW 5879   5.430   3.850   0.544  0.1580  0.4609 -0.0429
 1537SOL    HW2 5880   5.490   3.918   0.576 -0.8164  1.0612  0.5597
 1537SOL    HW3 5881   5.467   3.768   0.578 -0.6926  1.0348  2.5523
 1537SOL    MW4 5882   5.443   3.848   0.553  0.1040  0.1851  0.2247
 1538SOL     OW 5883   6.025   2.968   3.131  0.4871 -0.1524 -0.2706
 1538SOL    HW2 5884   6.068   3.039   3.179  0.4420 -0.1193 -0.2792
 1538SOL    HW3 5885   6.035   2.892   3.188  2.5628 -0.6965 -1.2654
 1538SOL    MW4 5886   6.032   2.968   3.145  0.2739  0.1525  0.2189
 1539SOL     OW 5887   5.577   2.971   5.713  0.2620  0.5387  0.0102
 1539SOL    HW2 5888   5.646   3.038   5.708 -0.4373  1.2445 -0.4734
 1539SOL    HW3 5889   5.515   2.995   5.644  0.1443 -0.8049 -0.3795
 1539SOL    MW4 5890   5.578   2.983   5.704  0.4513  0.0184  0.0103
 1540SOL     OW 5891   4.962   5.333   0.721 -0.5239  0.6008 -0.2713
 1540SOL    HW2 5892   4.998   5.405   0.670 -0.1183 -1.2776 -2.7869
 1540SOL    HW3 5893   4.946   5.371   0.808  2.9120  2.7887 -0.4355
 1540SOL    MW4 5894   4.964   5.348   0.726 -0.4641  0.1611 -0.5085
 1541SOL     OW 5895   3.442   1.931   3.233 -0.0091  0.2732  0.4251
 1541SOL    HW2 5896   3.466   1.962   3.321 -1.4836  2.3248  0.1772
 1541SOL    HW3 5897   3.442   1.836   3.241  2.2389  0.3160  1.9719
 1541SOL    MW4 5898   3.445   1.923   3.246 -0.1589  0.8596  0.1542
 1542SOL     OW 5899   2.192   4.367   4.904 -0.2032 -0.7496  0.0632
 1542SOL    HW2 5900   2.121   4.431   4.898  0.2213 -0.2832 -0.1415
 1542SOL    HW3 5901   2.151   4.288   4.937 -0.5181 -0.0158  1.5011
 1542SOL    MW4 5902   2.177   4.365   4.907 -0.0131  0.5046 -0.5037
 1543SOL     OW 5903   4.348   2.106   0.620  0.0395  0.1177 -0.2356
 1543SOL    HW2 5904   4.349   2.143   0.709 -0.8724 -0.7674  0.1546
 1543SOL    HW3 5905   4.416   2.038   0.622 -0.5904 -0.5117  0.0618
 1543SOL    MW4 5906   4.357   2.102   0.632 -0.1861  0.6188 -0.2507
 1544SOL     OW 5907   1.596   3.993   3.866  0.7408 -0.9075 -0.0617
 1544SOL    HW2 5908   1.530   3.946   3.918 -0.1969  1.8140  1.3917
 1544SOL    HW3 5909   1.546   4.059   3.819  2.4090  1.8806  1.8017
 1544SOL    MW4 5910   1.581   3.995   3.867  0.1338  0.3171 -0.3681
 1545SOL     OW 5911   5.858   4.516   2.251  0.1218 -0.2193 -0.0988
 1545SOL    HW2 5912   5.804   4.541   2.177  1.5240 -0.5646 -1.2791
 1545SOL    HW3 5913   5.795   4.498   2.322 -1.1545  1.5399 -0.7321
 1545SOL    MW4 5914   5.842   4.517   2.251  0.3053 -0.4611 -0.5349
 1546SOL     OW 5915   0.182   5.418   1.267 -0.2998  0.9388 -1.0429
 1546SOL    HW2 5916   0.154   5.482   1.333  0.4281  0.7616 -0.5469
 1546SOL    HW3 5917   0.188   5.335   1.315  0.9104  0.9393 -1.1551
 1546SOL    MW4 5918   0.179   5.415   1.282 -0.0363 -0.2831 -0.7822
 1547SOL     OW 5919   1.338   0.891   1.231 -0.1883  0.3058  0.1778
 1547SOL    HW2 5920   1.289   0.810   1.244 -0.4809  0.3974 -0.3303
 1547SOL    HW3 5921   1.300   0.930   1.153  0.5383  0.4983 -0.0907
 1547SOL    MW4 5922   1.327   0.886   1.223 -0.0242  0.1874  0.0390
 1548SOL     OW 5923   0.225   0.984   0.397  0.0356 -0.4363 -0.5407
 1548SOL    HW2 5924   0.284   0.979   0.322  1.8401 -1.1199  0.8472
 1548SOL    HW3 5925   0.220   0.894   0.429  0.6873  0.0648  1.1232
 1548SOL    MW4 5926   0.232   0.971   0.391 -0.0897 -0.2747 -0.1551
 1549SOL     OW 5927   4.236   6.137   5.693  0.8080 -0.2995  0.5217
 1549SOL    HW2 5928   4.202   6.083   5.764  0.9433 -0.3729  0.5300
 1549SOL    HW3 5929   4.208   6.093   5.613  0.0287  0.1666  0.5225
 1549SOL    MW4 5930   4.228   6.124   5.692  0.6284 -0.0619  0.4027
 1550SOL     OW 5931   0.355   3.863   1.668 -0.2618  0.3502  0.1378
 1550SOL    HW2 5932   0.352   3.875   1.574 -1.5003 -1.2672 -0.0583
 1550SOL    HW3 5933   0.274   3.903   1.700 -0.0652  0.4815  0.4809
 1550SOL    MW4 5934   0.344   3.870   1.660  0.0630 -0.1209 -0.0272
 1551SOL     OW 5935   4.687   5.109   5.963  0.1506  0.2578  0.2199
 1551SOL    HW2 5936   4.764   5.152   6.000  1.0049 -1.6790  0.8235
 1551SOL    HW3 5937   4.714   5.018   5.951 -1.3583  0.0054 -1.6361
 1551SOL    MW4 5938   4.700   5.102   5.967  0.4191 -0.2695  0.4927
 1552SOL     OW 5939   6.398   1.221   4.581 -0.0706  0.7334 -0.5216
 1552SOL    HW2 5940   6.490   1.193   4.579  0.2753  1.7708 -0.0773
 1552SOL    HW3 5941   6.353   1.158   4.525  0.4307 -1.4855  1.3813
 1552SOL    MW4 5942   6.404   1.209   4.574 -0.0522  0.1646  0.4448
 1553SOL     OW 5943   4.557   1.814   4.356 -0.2475  0.1824 -0.2468
 1553SOL    HW2 5944   4.468   1.837   4.381 -0.2539 -0.5239  0.4279
 1553SOL    HW3 5945   4.593   1.772   4.434 -0.4633 -2.7078 -1.5833
 1553SOL    MW4 5946   4.550   1.812   4.370  0.3764 -0.5009  0.1683
 1554SOL     OW 5947   1.563   6.184   3.849  0.2782  0.0131 -0.0732
 1554SOL    HW2 5948   1.561   6.277   3.826  1.9916  0.5768  1.8364
 1554SOL    HW3 5949   1.522   6.179   3.935  0.1319 -1.0465 -0.1823
 1554SOL    MW4 5950   1.557   6.195   3.857 -0.3288  0.6879  0.2808
 1555SOL     OW 5951   5.705   1.173   5.448 -0.1639  0.2544 -0.1517
 1555SOL    HW2 5952   5.653   1.118   5.506 -0.6983  0.7998 -0.1168
 1555SOL    HW3 5953   5.721   1.117   5.371  0.8868 -0.6106  0.6662
 1555SOL    MW4 5954   5.700   1.158   5.445 -0.2157  0.8327  0.1931
 1556SOL     OW 5955   2.622   2.353   1.317  0.0179  0.0179  0.2093
 1556SOL    HW2 5956   2.574   2.337   1.399 -0.4169  1.6143  0.2958
 1556SOL    HW3 5957   2.577   2.297   1.253 -0.4156 -0.3347  0.8041
 1556SOL    MW4 5958   2.610   2.344   1.320 -0.0761  0.0770  0.0914
 1557SOL     OW 5959   0.171   6.293   3.814  0.5733  0.1231  0.1838
 1557SOL    HW2 5960   0.215   6.208   3.808  0.4464  0.1010 -0.5502
 1557SOL    HW3 5961   0.129   6.292   3.900 -0.4936 -1.0978 -0.3163
 1557SOL    MW4 5962   0.171   6.282   3.824  0.6123  0.3908  0.0889
 1558SOL     OW 5963   1.265   5.920   3.626 -0.1807 -0.1375 -0.1407
 1558SOL    HW2 5964   1.326   5.989   3.598  0.0319 -0.4365 -0.4294
 1558SOL    HW3 5965   1.186   5.935   3.574 -0.2110  0.0137 -0.0514
 1558SOL    MW4 5966   1.263   5.931   3.615 -0.5279  0.2363  0.3243
 1559SOL     OW 5967   0.393   0.279   5.057  0.2170 -0.1119  0.7235
 1559SOL    HW2 5968   0.480   0.274   5.096  0.2700 -1.3188  0.4901
 1559SOL    HW3 5969   0.362   0.367   5.078  2.1561  0.9801 -0.6337
 1559SOL    MW4 5970   0.401   0.290   5.065  0.6160 -0.2422  0.6634
 1560SOL     OW 5971   3.989   5.282   2.248  0.1268 -0.0588  0.3934
 1560SOL    HW2 5972   3.959   5.273   2.338  2.1234 -1.2783  0.9974
 1560SOL    HW3 5973   4.079   5.313   2.256  0.4384 -0.4831 -1.1740
 1560SOL    MW4 5974   3.997   5.285   2.261 -0.3746 -0.2119 -0.0137
 1561SOL     OW 5975   5.725   1.356   5.137 -0.1165 -0.1281  0.1405
 1561SOL    HW2 5976   5.790   1.366   5.206 -0.3658  0.9199  0.2326
 1561SOL    HW3 5977   5.659   1.423   5.155 -0.0623  0.3319 -1.2366
 1561SOL    MW4 5978   5.725   1.366   5.148 -0.6713 -0.0227 -0.0696
 1562SOL     OW 5979   1.383   4.773   1.554 -0.9897 -0.1494 -0.3589
 1562SOL    HW2 5980   1.340   4.707   1.608 -1.2596  2.5251  3.0266
 1562SOL    HW3 5981   1.360   4.749   1.464 -2.5914 -3.4996  0.7791
 1562SOL    MW4 5982   1.374   4.761   1.549 -0.4357  0.1054  0.3038
 1563SOL     OW 5983   5.913   5.336   4.673  0.3542  0.6927 -0.0654
 1563SOL    HW2 5984   5.823   5.350   4.702  1.2759 -0.4257  3.8505
 1563SOL    HW3 5985   5.947   5.423   4.656 -1.6750  1.0940 -2.8455
 1563SOL    MW4 5986   5.906   5.349   4.674 -0.0730 -0.4427  0.0404
 1564SOL     OW 5987   3.210   3.035   6.295  0.1035 -0.1932  0.0229
 1564SOL    HW2 5988   3.208   3.021   6.201  1.8095 -0.8126  0.0478
 1564SOL    HW3 5989   3.141   2.977   6.329 -0.3122 -0.1987 -0.7949
 1564SOL    MW4 5990   3.200   3.025   6.287  0.1087 -0.3510  0.8034
 1565SOL     OW 5991   0.432   2.864   1.681  0.2939 -0.6492 -0.1814
 1565SOL    HW2 5992   0.415   2.821   1.597 -1.8731  1.5155 -0.9706
 1565SOL    HW3 5993   0.513   2.913   1.666  0.2132 -0.7030 -0.8255
 1565SOL    MW4 5994   0.440   2.865   1.668 -0.0363  0.1184  0.0380
 1566SOL     OW 5995   4.873   5.987   5.945  0.0880  0.0042 -0.2271
 1566SOL    HW2 5996   4.937   6.010   5.878  2.8042  1.7269  2.6445
 1566SOL    HW3 5997   4.895   5.897   5.970 -0.3425 -0.3185 -0.9761
 1566SOL    MW4 5998   4.885   5.978   5.940 -0.3040 -0.6310 -0.4894
 1567SOL     OW 5999   3.324   3.059   1.609  0.3318  0.0991  0.1166
 1567SOL    HW2 6000   3.362   3.111   1.538  0.4477  0.6571  0.5747
 1567SOL    HW3 6001   3.250   3.014   1.569  0.4305  0.3636 -0.3718
 1567SOL    MW4 6002   3.320   3.060   1.595 -0.5549  0.2448 -0.4358
 1568SOL     OW 6003   2.891   5.794   3.932 -0.5188  0.5388  0.2709
 1568SOL    HW2 6004   2.962   5.833   3.984 -1.7716  1.1670  1.5951
 1568SOL    HW3 6005   2.820   5.858   3.938 -1.0287  0.1783 -1.4779
 1568SOL    MW4 6006   2.891   5.808   3.940 -0.2115  0.0094 -0.7829
 1569SOL     OW 6007   3.658   0.817   0.312 -0.0482 -0.3837  0.1853
 1569SOL    HW2 6008   3.625   0.813   0.402  0.1969  1.4907  0.3926
 1569SOL    HW3 6009   3.712   0.896   0.309 -0.4209 -0.1468 -1.7228
 1569SOL    MW4 6010   3.661   0.827   0.323  0.1801  0.1151 -0.2930
 1570SOL     OW 6011   6.426   0.904   3.279  0.2176  0.7975 -0.0320
 1570SOL    HW2 6012   6.336   0.936   3.271  0.5834  1.8027 -0.3184
 1570SOL    HW3 6013   6.477   0.981   3.305  0.5366 -0.3780  3.3604
 1570SOL    MW4 6014   6.421   0.919   3.281  0.2898 -0.1703  0.1134
 1571SOL     OW 6015   2.573   5.531   4.519  1.1439 -0.1888  0.2603
 1571SOL    HW2 6016   2.629   5.453   4.518  0.8874 -0.4718  2.7122
 1571SOL    HW3 6017   2.513   5.517   4.592  0.6801  2.0544  0.3808
 1571SOL    MW4 6018   2.572   5.519   4.528 -0.5473 -0.0000 -0.1688
 1572SOL     OW 6019   5.209   0.145   5.464 -0.2894 -0.3241 -0.2955
 1572SOL    HW2 6020   5.207   0.109   5.375 -1.4852  1.1447 -0.9094
 1572SOL    HW3 6021   5.118   0.164   5.484 -0.0077 -0.3907  1.1784
 1572SOL    MW4 6022   5.197   0.143   5.455 -0.2699 -0.4128 -0.3807
 1573SOL     OW 6023   5.136   5.267   4.972  0.5723 -0.0095 -0.2342
 1573SOL    HW2 6024   5.187   5.195   4.935 -0.2807 -0.6392 -0.2203
 1573SOL    HW3 6025   5.115   5.322   4.897  1.4058  0.3597 -0.2142
 1573SOL    MW4 6026   5.140   5.265   4.957 -0.0862 -0.3140 -0.4091
 1574SOL     OW 6027   5.885   1.238   3.086 -0.1074 -0.1651 -0.7702
 1574SOL    HW2 6028   5.826   1.179   3.039  0.7422 -1.7642  0.1149
 1574SOL    HW3 6029   5.895   1.199   3.173  0.5505  1.2425 -0.1829
 1574SOL    MW4 6030   5.879   1.225   3.091 -0.3189  0.1894 -0.3925
 1575SOL     OW 6031   1.258   5.262   0.555 -0.6014 -0.0170  0.7094
 1575SOL    HW2 6032   1.323   5.206   0.598  0.2306  0.9023  0.6793
 1575SOL    HW3 6033   1.232   5.213   0.477  1.5827  0.4451 -0.3928
 1575SOL    MW4 6034   1.263   5.248   0.551 -0.1760  0.2794  0.4477
 1576SOL     OW 6035   3.188   0.795   4.274 -0.4003  0.0174 -0.3869
 1576SOL    HW2 6036   3.098   0.781   4.306  0.0043 -0.8852  0.4141
 1576SOL    HW3 6037   3.184   0.773   4.181 -1.1918  0.8279 -0.5544
 1576SOL    MW4 6038   3.175   0.790   4.266  0.5132 -0.0610  0.0273
 1577SOL     OW 6039   4.916   1.924   1.778  0.1938  0.5209 -0.1040
 1577SOL    HW2 6040   4.854   1.954   1.844 -0.3916  1.6115 -1.1006
 1577SOL    HW3 6041   4.872   1.850   1.736  0.6880 -0.3531  0.8955
 1577SOL    MW4 6042   4.902   1.918   1.781  0.1108 -0.7339  0.6091
 1578SOL     OW 6043   2.834   2.947   0.300  0.1910  0.1311  0.2514
 1578SOL    HW2 6044   2.866   3.030   0.267 -0.3199  0.2036 -0.0699
 1578SOL    HW3 6045   2.793   2.968   0.384 -0.8086  0.3703 -0.2832
 1578SOL    MW4 6046   2.833   2.960   0.307 -0.7952  0.6078 -0.1697
 1579SOL     OW 6047   3.830   0.497   5.734 -0.2508 -0.3198  0.3345
 1579SOL    HW2 6048   3.882   0.574   5.758  1.0884 -0.6659 -1.2911
 1579SOL    HW3 6049   3.756   0.533   5.685  1.3377 -0.0969 -2.0507
 1579SOL    MW4 6050   3.827   0.512   5.731  0.0508 -0.0975  0.1245
 1580SOL     OW 6051   4.087   6.391   2.580 -0.7472  0.3617  0.6144
 1580SOL    HW2 6052   4.143   6.463   2.610  0.0499 -0.9432  2.4818
 1580SOL    HW3 6053   4.145   6.335   2.529 -1.6231  1.5235 -1.7664
 1580SOL    MW4 6054   4.102   6.393   2.577  0.4918 -0.5038  0.1576
 1581SOL     OW 6055   0.658   0.341   3.626  0.1306 -0.6192  0.0031
 1581SOL    HW2 6056   0.725   0.275   3.640  0.2997 -0.0964  1.9782
 1581SOL    HW3 6057   0.670   0.403   3.698  1.9049  3.2734 -3.2825
 1581SOL    MW4 6058   0.668   0.341   3.637  0.2318  0.1417 -0.4586
 1582SOL     OW 6059   4.151   4.035   0.197 -0.6545 -0.0364 -0.2300
 1582SOL    HW2 6060   4.228   3.979   0.201 -0.7469 -0.1282  0.2452
 1582SOL    HW3 6061   4.149   4.066   0.106 -0.2269 -0.2667 -0.3199
 1582SOL    MW4 6062   4.161   4.032   0.185 -0.2500  0.3817  0.2478
 1583SOL     OW 6063   6.376   4.024   3.597 -0.0372  0.4246 -0.1742
 1583SOL    HW2 6064   6.319   3.999   3.524 -0.0652 -0.2356  0.0734
 1583SOL    HW3 6065   6.455   4.059   3.554  0.8292 -1.8664 -0.5802
 1583SOL    MW4 6066   6.379   4.025   3.581 -0.4818  0.4640 -0.1349
 1584SOL     OW 6067   3.681   4.498   2.100 -0.4163 -0.2407  0.3970
 1584SOL    HW2 6068   3.730   4.541   2.170 -0.0423 -2.7554  1.7646
 1584SOL    HW3 6069   3.683   4.561   2.028  1.9376  1.1257  1.5435
 1584SOL    MW4 6070   3.688   4.512   2.100  0.3860  0.0589 -0.2737
 1585SOL     OW 6071   2.397   1.830   3.755  0.4574  0.7784 -0.1363
 1585SOL    HW2 6072   2.358   1.917   3.756 -2.6482 -0.4580 -0.7878
 1585SOL    HW3 6073   2.372   1.793   3.670  0.0481 -1.3774  0.8420
 1585SOL    MW4 6074   2.389   1.837   3.744 -0.1127  0.5494  0.2446
 1586SOL     OW 6075   5.089   0.555   5.896 -0.1738  0.9642 -0.0521
 1586SOL    HW2 6076   5.042   0.634   5.872 -1.1193  1.0380  1.8739
 1586SOL    HW3 6077   5.046   0.485   5.846 -1.4406  1.2345  0.6266
 1586SOL    MW4 6078   5.077   0.556   5.886  0.2078  0.1654  0.0578
 1587SOL     OW 6079   4.276   0.307   3.521  0.1599 -0.1700  0.1410
 1587SOL    HW2 6080   4.321   0.325   3.604 -0.3484 -0.3286  0.4513
 1587SOL    HW3 6081   4.303   0.219   3.498  3.3288  1.1369 -1.8079
 1587SOL    MW4 6082   4.286   0.298   3.529  0.9756 -0.0830 -0.0077
 1588SOL     OW 6083   5.547   2.778   1.743  0.4323  0.0125 -0.0173
 1588SOL    HW2 6084   5.465   2.751   1.785 -0.1487 -0.3206 -1.2963
 1588SOL    HW3 6085   5.533   2.870   1.722 -0.2465 -0.4080 -1.5664
 1588SOL    MW4 6086   5.534   2.786   1.746 -0.1489  0.4931  0.3139
 1589SOL     OW 6087   4.800   5.921   5.037  0.0313 -0.1513 -0.2745
 1589SOL    HW2 6088   4.890   5.909   5.067  0.2542  0.5015 -0.6662
 1589SOL    HW3 6089   4.808   5.960   4.950 -0.6229 -0.9145 -0.6897
 1589SOL    MW4 6090   4.813   5.925   5.030 -0.3810 -0.9211 -0.5224
 1590SOL     OW 6091   0.239   2.562   3.914 -0.2783  0.4723  0.1923
 1590SOL    HW2 6092   0.170   2.616   3.952 -0.9100 -0.3404  0.2191
 1590SOL    HW3 6093   0.290   2.623   3.860 -0.9915  1.0851  0.1950
 1590SOL    MW4 6094   0.237   2.577   3.912  0.5477  0.2285  0.2864
 1591SOL     OW 6095   2.259   5.614   5.181 -0.2095 -0.2092  0.2107
 1591SOL    HW2 6096   2.251   5.707   5.203  0.5097  0.1829 -1.1184
 1591SOL    HW3 6097   2.216   5.569   5.254 -0.0850  1.1344  1.1503
 1591SOL    MW4 6098   2.252   5.621   5.194 -0.7168 -0.4879  0.1524
 1592SOL     OW 6099   5.587   3.621   2.412  0.4017  0.3661 -0.0027
 1592SOL    HW2 6100   5.503   3.667   2.422  0.5209  0.4093  0.8194
 1592SOL    HW3 6101   5.620   3.611   2.501 -1.0706 -4.1340  0.2857
 1592SOL    MW4 6102   5.580   3.626   2.425  0.1972  0.2802 -0.2380
 1593SOL     OW 6103   1.206   3.371   0.884  0.8722 -0.0005  0.0972
 1593SOL    HW2 6104   1.275   3.351   0.947 -0.0340  0.2565  1.1999
 1593SOL    HW3 6105   1.149   3.432   0.930 -0.8673 -1.2786 -0.2615
 1593SOL    MW4 6106   1.207   3.376   0.898  0.5440 -0.5702 -0.7612
 1594SOL     OW 6107   4.704   5.541   2.901  0.1907  0.2952  0.0908
 1594SOL    HW2 6108   4.671   5.452   2.894  0.6187 -0.0025  1.6079
 1594SOL    HW3 6109   4.665   5.576   2.980  0.6702  1.1771 -0.0437
 1594SOL    MW4 6110   4.695   5.534   2.910  0.6516  0.6015 -0.2991
 1595SOL     OW 6111   1.560   1.766   4.980  0.1910 -0.7113 -0.0149
 1595SOL    HW2 6112   1.518   1.694   4.933  0.1858 -1.0587  0.5154
 1595SOL    HW3 6113   1.591   1.727   5.062 -0.3723  0.0167  0.5631
 1595SOL    MW4 6114   1.558   1.752   4.985 -0.3289  0.1587 -0.1609
 1596SOL     OW 6115   1.304   5.776   2.492  0.3403 -0.1068 -0.0852
 1596SOL    HW2 6116   1.271   5.808   2.408  0.9736 -1.3746 -0.8532
 1596SOL    HW3 6117   1.345   5.692   2.471 -0.7975 -1.1786  1.7266
 1596SOL    MW4 6118   1.305   5.769   2.478  0.3694 -0.1046 -0.0679
 1597SOL     OW 6119   2.746   3.911   4.068  0.0530 -0.5086  0.2234
 1597SOL    HW2 6120   2.743   3.923   3.973 -2.9646  0.3394  0.3032
 1597SOL    HW3 6121   2.660   3.876   4.091  0.7402 -0.8295  2.6378
 1597SOL    MW4 6122   2.734   3.908   4.059 -0.2152 -0.0875 -0.1367
 1598SOL     OW 6123   5.988   2.642   0.145  0.2484  0.0926 -0.3567
 1598SOL    HW2 6124   5.967   2.639   0.238  1.0970 -0.2227 -0.1729
 1598SOL    HW3 6125   5.997   2.550   0.119 -0.4407  0.1566 -0.8621
 1598SOL    MW4 6126   5.986   2.630   0.154  0.1457  0.8339 -0.2870
 1599SOL     OW 6127   6.290   2.774   2.592 -0.1564 -0.2520  0.4141
 1599SOL    HW2 6128   6.225   2.720   2.637 -0.7337 -0.3947 -0.5347
 1599SOL    HW3 6129   6.374   2.741   2.620 -0.4688  0.2992  2.1175
 1599SOL    MW4 6130   6.292   2.763   2.601  0.2557  0.7210 -0.0068
 1600SOL     OW 6131   5.808   0.008   4.689  0.1400  0.0751 -0.7218
 1600SOL    HW2 6132   5.857   0.037   4.612  1.6588  0.4018  0.3360
 1600SOL    HW3 6133   5.875  -0.013   4.754 -1.1225  0.0872  0.6233
 1600SOL    MW4 6134   5.823   0.009   4.688  0.2070 -0.5635  0.3366
 1601SOL     OW 6135   6.341   3.134   1.708 -0.6081  0.1147 -0.2211
 1601SOL    HW2 6136   6.260   3.162   1.752 -0.5152  0.2971 -0.1644
 1601SOL    HW3 6137   6.399   3.210   1.715 -1.1869  0.7957 -2.1946
 1601SOL    MW4 6138   6.338   3.148   1.715  0.1650  0.6301 -0.1746
 1602SOL     OW 6139   4.548   3.843   4.536 -0.6366 -0.2501 -0.3783
 1602SOL    HW2 6140   4.555   3.888   4.451 -0.2973 -2.8206 -1.8201
 1602SOL    HW3 6141   4.598   3.763   4.524  0.6488 -0.0242  2.8124
 1602SOL    MW4 6142   4.555   3.839   4.523 -0.2949  0.5730 -0.4654
 1603SOL     OW 6143   1.064   3.131   5.722 -0.0088  0.0424 -0.4707
 1603SOL    HW2 6144   1.073   3.131   5.818 -0.3576  0.0807 -0.4400
 1603SOL    HW3 6145   1.153   3.146   5.690  0.3225 -1.1439 -0.1629
 1603SOL    MW4 6146   1.077   3.133   5.731 -0.5285  0.3711  0.0560
 1604SOL     OW 6147   2.226   6.140   0.005  0.0688 -0.2394 -0.3785
 1604SOL    HW2 6148   2.258   6.060  -0.035  1.1620 -0.2738  0.5165
 1604SOL    HW3 6149   2.209   6.199  -0.069  0.2122 -0.9430 -0.9849
 1604SOL    MW4 6150   2.228   6.137  -0.010 -0.0625 -0.0983 -0.6570
 1605SOL     OW 6151   0.326   3.173   3.169 -0.5262  0.1312 -0.3322
 1605SOL    HW2 6152   0.324   3.079   3.155 -0.4841  0.2373 -1.0768
 1605SOL    HW3 6153   0.287   3.210   3.090 -2.2342  0.6611  0.6947
 1605SOL    MW4 6154   0.320   3.166   3.157 -0.0961  0.4956 -0.6257
 1606SOL     OW 6155   4.615   3.250   1.189 -0.0561 -0.2784  0.2085
 1606SOL    HW2 6156   4.577   3.164   1.175 -2.2081  0.7744 -0.9459
 1606SOL    HW3 6157   4.690   3.254   1.129  1.2453 -1.9581  1.6321
 1606SOL    MW4 6158   4.620   3.239   1.179 -0.0647  0.4088 -0.0781
 1607SOL     OW 6159   4.370   4.386   0.817 -0.3250  0.2030 -0.9225
 1607SOL    HW2 6160   4.407   4.468   0.848 -1.7172  0.2121  0.8850
 1607SOL    HW3 6161   4.391   4.384   0.724 -1.1072  3.1048 -1.2619
 1607SOL    MW4 6162   4.378   4.396   0.809  0.0368 -0.4450 -0.2692
 1608SOL     OW 6163   6.413   3.821   0.745  0.2124  0.6391 -0.3198
 1608SOL    HW2 6164   6.489   3.861   0.785 -0.3966  1.7251 -0.2164
 1608SOL    HW3 6165   6.407   3.861   0.658 -0.4940  0.8854 -0.1613
 1608SOL    MW4 6166   6.422   3.831   0.739  0.5505  0.1168 -0.3034
 1609SOL     OW 6167   0.952   3.055   3.088 -0.0761  0.6884  0.6026
 1609SOL    HW2 6168   0.990   2.975   3.053 -0.7867  0.9803 -0.9361
 1609SOL    HW3 6169   1.017   3.088   3.150  0.9189 -0.2449  0.0810
 1609SOL    MW4 6170   0.966   3.049   3.092 -0.2096 -0.0693 -0.3818
 1610SOL     OW 6171   4.127   0.988   1.018 -0.2886  0.2787 -0.5256
 1610SOL    HW2 6172   4.217   0.954   1.019 -1.2417 -2.5250 -0.6579
 1610SOL    HW3 6173   4.075   0.916   0.982 -2.7051  1.5463  0.2329
 1610SOL    MW4 6174   4.132   0.974   1.014 -0.9611  0.0062  0.0789
 1611SOL     OW 6175   4.399   6.289   4.379  0.2444 -0.1394  0.0955
 1611SOL    HW2 6176   4.409   6.195   4.367  2.9102 -0.0557  1.0489
 1611SOL    HW3 6177   4.323   6.297   4.437  0.1544 -1.7079  0.2498
 1611SOL    MW4 6178   4.390   6.278   4.385 -0.1050 -0.1757 -0.0709
 1612SOL     OW 6179   4.931   5.019   0.094 -0.1690  0.1716 -0.3840
 1612SOL    HW2 6180   4.919   5.017  -0.001  1.9369 -0.0325 -0.6907
 1612SOL    HW3 6181   4.935   5.112   0.116 -2.1207  0.2675 -0.2282
 1612SOL    MW4 6182   4.930   5.031   0.085 -0.3164 -0.1365 -0.6259
 1613SOL     OW 6183   4.792   5.304   4.975 -0.1045  0.1015  0.7809
 1613SOL    HW2 6184   4.831   5.217   4.965 -2.2426 -0.8037 -0.3878
 1613SOL    HW3 6185   4.759   5.326   4.888 -2.5442  0.5612  1.7322
 1613SOL    MW4 6186   4.792   5.295   4.962 -0.0636 -0.1638 -0.6092
 1614SOL     OW 6187   6.226   2.040   1.609 -0.5154 -0.1268  0.5251
 1614SOL    HW2 6188   6.270   1.956   1.623 -2.1367 -1.0184  0.4689
 1614SOL    HW3 6189   6.269   2.076   1.531 -0.2125 -1.1864  0.1852
 1614SOL    MW4 6190   6.238   2.034   1.601 -0.6864  0.0306 -0.1188
 1615SOL     OW 6191   6.135   3.687   4.555 -0.2081 -0.0391 -0.1444
 1615SOL    HW2 6192   6.102   3.608   4.513  1.0751 -0.6438 -0.0340
 1615SOL    HW3 6193   6.144   3.663   4.647  1.0331 -0.0556 -0.2598
 1615SOL    MW4 6194   6.132   3.673   4.562  0.0240 -0.1736 -0.5733
 1616SOL     OW 6195   1.752   3.341   6.351 -0.2072  0.3214  0.1460
 1616SOL    HW2 6196   1.802   3.423   6.351 -2.0716  1.5204  0.3210
 1616SOL    HW3 6197   1.755   3.312   6.442 -0.3396  0.7035  0.2732
 1616SOL    MW4 6198   1.759   3.348   6.363  0.2164 -0.8681 -0.0995
 1617SOL     OW 6199   1.364   0.847   0.360 -0.1869 -0.3291  0.2641
 1617SOL    HW2 6200   1.319   0.925   0.329 -0.3741 -1.1105 -1.5870
 1617SOL    HW3 6201   1.445   0.845   0.309 -0.4628 -1.6417 -0.1560
 1617SOL    MW4 6202   1.369   0.857   0.349 -0.0557  0.1419 -0.1094
 1618SOL     OW 6203   5.537   0.742   3.084 -0.0852  0.2230  0.5173
 1618SOL    HW2 6204   5.476   0.707   3.150  1.2985 -0.6162  1.3966
 1618SOL    HW3 6205   5.487   0.812   3.041 -2.1126 -1.2382  0.3159
 1618SOL    MW4 6206   5.522   0.747   3.087 -0.1735  0.2047 -0.1413
 1619SOL     OW 6207   1.493   5.744   3.684  0.2233  0.4244 -0.1660
 1619SOL    HW2 6208   1.406   5.776   3.661  0.1499 -0.3650 -1.0429
 1619SOL    HW3 6209   1.535   5.818   3.728 -0.5035  1.1787 -0.7176
 1619SOL    MW4 6210   1.487   5.758   3.686  0.0350  0.0377 -0.2510
 1620SOL     OW 6211   0.593   5.314   1.761  0.6727  0.2115  0.2223
 1620SOL    HW2 6212   0.562   5.249   1.825 -1.6552  1.1989  0.1830
 1620SOL    HW3 6213   0.540   5.391   1.778  0.6654  0.8349 -2.2697
 1620SOL    MW4 6214   0.582   5.315   1.772 -0.2867  0.0060  0.3825
 1621SOL     OW 6215   5.732   2.062   1.670  0.2448 -0.0823 -0.0312
 1621SOL    HW2 6216   5.754   2.015   1.750 -0.1837 -1.3666 -0.6428
 1621SOL    HW3 6217   5.817   2.091   1.636  0.3536  1.3433  1.3741
 1621SOL    MW4 6218   5.746   2.060   1.676  0.1133 -0.2544  0.0267
 1622SOL     OW 6219   1.192   3.426   6.339  0.1058  0.0831 -0.3435
 1622SOL    HW2 6220   1.286   3.426   6.316  0.8308 -1.1312  2.3096
 1622SOL    HW3 6221   1.165   3.335   6.328 -0.5992  0.3030 -0.4443
 1622SOL    MW4 6222   1.201   3.414   6.334 -0.6716 -0.3122  0.1831
 1623SOL     OW 6223   1.952   5.917   3.720 -0.4483  0.2970  0.0204
 1623SOL    HW2 6224   2.031   5.923   3.774  0.1587  0.7893 -0.9014
 1623SOL    HW3 6225   1.883   5.891   3.781  0.4363 -0.2094  0.8280
 1623SOL    MW4 6226   1.953   5.915   3.735 -0.5089 -0.4466  0.4265
 1624SOL     OW 6227   5.733   1.017   0.678 -0.1783  0.1898  0.4123
 1624SOL    HW2 6228   5.826   1.006   0.699 -0.0259  0.6304 -0.0060
 1624SOL    HW3 6229   5.704   0.929   0.653  0.8860  0.4975 -2.3566
 1624SOL    MW4 6230   5.741   1.004   0.677  0.5280 -0.1533  0.4382
 1625SOL     OW 6231   2.464   0.802   2.761  0.6270  0.0693  0.3855
 1625SOL    HW2 6232   2.459   0.876   2.821 -0.3227  0.2168  0.1296
 1625SOL    HW3 6233   2.448   0.839   2.674 -0.2902 -0.4975  0.3027
 1625SOL    MW4 6234   2.461   0.817   2.757 -0.2512 -0.3558  0.1205
 1626SOL     OW 6235   0.593   2.854   3.054  0.2824  0.2174 -0.4168
 1626SOL    HW2 6236   0.604   2.759   3.060  1.8678  0.4423  0.8743
 1626SOL    HW3 6237   0.642   2.879   2.976 -0.5824 -0.0652 -1.0652
 1626SOL    MW4 6238   0.601   2.844   3.045  0.0353  0.2032 -0.0323
 1627SOL     OW 6239   4.678   3.236   2.517  0.2712 -0.4787 -0.0106
 1627SOL    HW2 6240   4.590   3.264   2.542  0.4966  0.9721 -0.7321
 1627SOL    HW3 6241   4.735   3.306   2.547  1.2939 -1.7645  1.1280
 1627SOL    MW4 6242   4.674   3.248   2.524  0.7605  0.0777  0.2885
 1628SOL     OW 6243   6.369   0.498   5.515 -0.8775 -0.2652 -0.1496
 1628SOL    HW2 6244   6.402   0.501   5.425 -0.8307  0.4661 -0.1128
 1628SOL    HW3 6245   6.288   0.549   5.512 -1.3069 -0.9216  0.0519
 1628SOL    MW4 6246   6.362   0.506   5.503 -0.1691 -0.0993  0.2760
 1629SOL     OW 6247   1.923   1.477   3.507 -0.1048 -0.0694 -0.3553
 1629SOL    HW2 6248   1.858   1.546   3.521 -0.2065 -0.1209 -0.5646
 1629SOL    HW3 6249   1.929   1.431   3.590 -1.2114 -0.8190 -0.6742
 1629SOL    MW4 6250   1.916   1.480   3.520  0.3947 -0.5239  0.4391
 1630SOL     OW 6251   3.492   5.154   3.045  0.2165 -0.4762 -0.2926
 1630SOL    HW2 6252   3.524   5.210   3.116 -1.1572 -1.0015  0.7720
 1630SOL    HW3 6253   3.567   5.146   2.986  1.0138  0.9677  0.4694
 1630SOL    MW4 6254   3.506   5.160   3.046 -0.2857  0.4626  0.0865
 1631SOL     OW 6255   3.397   2.887   1.233  0.0211 -0.2470  0.3160
 1631SOL    HW2 6256   3.418   2.866   1.142 -1.0920 -0.9394  0.2046
 1631SOL    HW3 6257   3.457   2.958   1.255 -0.7329  1.0205 -1.4533
 1631SOL    MW4 6258   3.408   2.893   1.224  0.7209 -0.1878 -0.1089
 1632SOL     OW 6259   0.988   1.890   2.428  0.2178 -0.4817 -0.2726
 1632SOL    HW2 6260   1.054   1.872   2.496  2.0164  0.2497 -1.7485
 1632SOL    HW3 6261   0.910   1.842   2.457  1.0153 -0.4570  2.1248
 1632SOL    MW4 6262   0.986   1.881   2.441 -0.2461  0.8880 -0.1596
 1633SOL     OW 6263   4.453   0.889   0.779  0.0814  0.1978 -0.1937
 1633SOL    HW2 6264   4.501   0.807   0.767 -0.1796 -0.0039  0.1262
 1633SOL    HW3 6265   4.460   0.907   0.873 -1.6628 -0.5719  0.1139
 1633SOL    MW4 6266   4.460   0.881   0.790  0.2982 -0.2759 -1.0377
 1634SOL     OW 6267   6.190   5.594   1.271 -0.1245 -0.7453  0.2114
 1634SOL    HW2 6268   6.178   5.519   1.329 -1.2178 -0.7752 -0.0259
 1634SOL    HW3 6269   6.102   5.616   1.242  0.4495 -1.1666 -2.0019
 1634SOL    MW4 6270   6.177   5.587   1.275 -0.1758 -0.7011 -0.2439
 1635SOL     OW 6271   0.133   3.843   3.667  0.6285 -0.0020 -0.4262
 1635SOL    HW2 6272   0.052   3.892   3.651 -0.3468 -1.0420  1.0422
 1635SOL    HW3 6273   0.183   3.899   3.727  0.6915  0.3330 -0.7878
 1635SOL    MW4 6274   0.129   3.857   3.673 -0.5426 -0.3986  0.5490
 1636SOL     OW 6275   2.588   5.057   4.374 -0.3325 -0.1792 -0.0147
 1636SOL    HW2 6276   2.672   5.050   4.329 -0.8316  1.0336 -1.2076
 1636SOL    HW3 6277   2.540   5.122   4.324 -2.0692 -0.9908  0.5324
 1636SOL    MW4 6278   2.593   5.064   4.362 -0.3983  1.2811  0.2068
 1637SOL     OW 6279   2.408   4.947   1.382 -0.1224  0.0403  0.4739
 1637SOL    HW2 6280   2.416   4.897   1.463  0.4176 -1.8107 -0.6624
 1637SOL    HW3 6281   2.320   4.985   1.386 -0.4849 -0.8597  1.4614
 1637SOL    MW4 6282   2.397   4.946   1.393 -0.3307  0.0267 -0.1538
 1638SOL     OW 6283   0.305   3.722   2.179  0.1470  0.4901 -0.1697
 1638SOL    HW2 6284   0.256   3.678   2.247 -1.5224  0.7908 -1.1301
 1638SOL    HW3 6285   0.257   3.705   2.098  0.6196  2.2556 -0.8930
 1638SOL    MW4 6286   0.292   3.714   2.177  0.3597  0.2256  0.5308
 1639SOL     OW 6287   5.774   2.427   4.406 -0.4713  0.3804  0.1240
 1639SOL    HW2 6288   5.796   2.448   4.497 -1.0714  1.6533 -0.0027
 1639SOL    HW3 6289   5.831   2.484   4.354 -1.8355  1.4765 -0.2415
 1639SOL    MW4 6290   5.785   2.437   4.411 -0.2084  0.0064  0.2675
 1640SOL     OW 6291   2.344   4.048   2.249 -0.0338 -0.0526  0.5789
 1640SOL    HW2 6292   2.328   4.084   2.336 -0.5848  0.4471  0.2774
 1640SOL    HW3 6293   2.270   4.079   2.196  1.2508  1.2238 -0.5461
 1640SOL    MW4 6294   2.332   4.057   2.254 -0.4034  0.4406 -0.3850
 1641SOL     OW 6295   2.668   3.378   5.068 -0.5979 -0.0765  0.1439
 1641SOL    HW2 6296   2.739   3.409   5.125 -0.7930 -1.7855  1.4158
 1641SOL    HW3 6297   2.590   3.421   5.102 -0.8159 -1.5603  1.6750
 1641SOL    MW4 6298   2.667   3.388   5.080  0.5626 -0.0855  0.0435
 1642SOL     OW 6299   2.681   5.974   3.966  0.3735  0.2192  0.6069
 1642SOL    HW2 6300   2.600   5.927   3.989  0.0245  0.9388  0.8648
 1642SOL    HW3 6301   2.657   6.028   3.891  0.8076 -0.0955  0.2361
 1642SOL    MW4 6302   2.667   5.975   3.959 -0.2185  0.2506 -0.3340
 1643SOL     OW 6303   3.071   3.448   5.671 -0.8209  0.0441  0.2013
 1643SOL    HW2 6304   3.094   3.368   5.624  1.9797  1.4468 -1.0715
 1643SOL    HW3 6305   3.053   3.512   5.602 -1.0898  1.0335  1.1546
 1643SOL    MW4 6306   3.071   3.446   5.656  0.1869 -0.2019 -0.1977
 1644SOL     OW 6307   2.272   4.763   4.009  0.1917  0.0820 -0.0651
 1644SOL    HW2 6308   2.347   4.818   4.030  1.3070 -1.0307 -0.9721
 1644SOL    HW3 6309   2.299   4.675   4.035 -1.7510 -0.0310  1.8654
 1644SOL    MW4 6310   2.285   4.758   4.015 -0.0186  0.5815 -0.5255
 1645SOL     OW 6311   2.022   6.340   5.815 -0.2544 -0.3489  0.3164
 1645SOL    HW2 6312   1.948   6.390   5.782 -0.4985 -0.0353  1.3108
 1645SOL    HW3 6313   2.065   6.398   5.878  1.8303  0.1262 -1.4075
 1645SOL    MW4 6314   2.018   6.354   5.819  0.7301  0.0904 -0.3244
 1646SOL     OW 6315   4.909   0.903   4.832  0.0665 -0.1977  0.0728
 1646SOL    HW2 6316   4.878   0.813   4.839  0.9477 -0.5493 -0.4028
 1646SOL    HW3 6317   4.953   0.907   4.747  0.0188  0.6871  0.0801
 1646SOL    MW4 6318   4.911   0.892   4.822 -0.1648 -0.2219 -0.0153
 1647SOL     OW 6319   3.190   3.340   1.469 -0.2153 -0.2019  0.1046
 1647SOL    HW2 6320   3.192   3.435   1.455 -1.2505 -0.0442  0.8886
 1647SOL    HW3 6321   3.206   3.330   1.563  0.7893 -0.8637 -0.1333
 1647SOL    MW4 6322   3.192   3.351   1.480 -0.3791  0.0381 -0.3376
 1648SOL     OW 6323   5.139   0.404   1.831  0.0137  1.1808 -0.0333
 1648SOL    HW2 6324   5.205   0.344   1.863  1.4007  2.2967 -0.6829
 1648SOL    HW3 6325   5.055   0.364   1.855  0.9139 -0.3183  0.7004
 1648SOL    MW4 6326   5.136   0.391   1.838 -0.4409 -0.0468 -0.6179
 1649SOL     OW 6327   3.866   4.785   5.907 -0.5128 -0.6267 -0.5780
 1649SOL    HW2 6328   3.808   4.855   5.938 -0.9727 -1.5853  0.7998
 1649SOL    HW3 6329   3.818   4.745   5.834 -0.7308 -0.2244 -0.6611
 1649SOL    MW4 6330   3.852   4.789   5.901 -0.7157 -0.3661 -0.8439
 1650SOL     OW 6331   2.863   4.474   6.177 -0.5135 -0.2907 -0.1786
 1650SOL    HW2 6332   2.853   4.396   6.123  0.1708  1.2250 -2.6679
 1650SOL    HW3 6333   2.939   4.456   6.233  0.1973 -1.0672 -1.3623
 1650SOL    MW4 6334   2.872   4.461   6.178 -0.8281  0.0146 -0.1424
 1651SOL     OW 6335   5.854   0.122   3.208 -0.2170  0.2304  0.3087
 1651SOL    HW2 6336   5.819   0.042   3.170  0.2605  0.2545 -0.2060
 1651SOL    HW3 6337   5.792   0.146   3.277 -1.8373  0.9068 -1.3063
 1651SOL    MW4 6338   5.841   0.115   3.212  0.1156 -0.2989  0.0371
 1652SOL     OW 6339   5.356   1.237   1.261 -0.4773 -0.2049 -0.2660
 1652SOL    HW2 6340   5.270   1.272   1.287 -0.4031 -0.0979 -0.1639
 1652SOL    HW3 6341   5.349   1.223   1.167 -0.7956 -0.7197 -0.1738
 1652SOL    MW4 6342   5.344   1.240   1.252  0.2758  0.1981 -0.0123
 1653SOL     OW 6343   0.121   2.704   2.648 -0.2861  0.2330  0.0589
 1653SOL    HW2 6344   0.155   2.793   2.642  0.5148 -0.0746 -0.1294
 1653SOL    HW3 6345   0.114   2.675   2.557 -1.1605  0.3146  0.0852
 1653SOL    MW4 6346   0.124   2.712   2.635 -0.1682  0.1937 -0.1592
 1654SOL     OW 6347   5.964   4.820   1.645 -0.4889 -0.1924 -0.4067
 1654SOL    HW2 6348   6.055   4.846   1.635  0.1319 -2.2910 -0.8003
 1654SOL    HW3 6349   5.927   4.882   1.707  1.8223 -0.5793  1.4725
 1654SOL    MW4 6350   5.971   4.831   1.652 -0.2629 -0.0590  0.5039
 1655SOL     OW 6351   3.267   3.856   5.844 -0.0308  0.0929 -0.3825
 1655SOL    HW2 6352   3.227   3.811   5.919 -1.9084 -0.4290 -1.6104
 1655SOL    HW3 6353   3.324   3.922   5.883 -0.8289 -0.2586  1.5010
 1655SOL    MW4 6354   3.269   3.858   5.859  0.7063 -0.1809 -0.3545
 1656SOL     OW 6355   2.405   6.351   4.475 -0.0386  0.2955 -0.0113
 1656SOL    HW2 6356   2.452   6.434   4.484  0.4098 -0.0935  1.5093
 1656SOL    HW3 6357   2.312   6.375   4.476  0.0491  0.7066  1.8342
 1656SOL    MW4 6358   2.399   6.365   4.476  0.5982 -0.1398  0.2833
 1657SOL     OW 6359   0.383   0.268   3.662  0.2430  0.4236  0.2807
 1657SOL    HW2 6360   0.467   0.288   3.620 -0.1921  1.4755 -0.1110
 1657SOL    HW3 6361   0.360   0.182   3.627  0.0384  1.1447 -1.4478
 1657SOL    MW4 6362   0.391   0.259   3.652 -0.0982 -0.0051 -0.4564
 1658SOL     OW 6363   3.485   5.848   4.690  0.2962 -0.5213 -0.0654
 1658SOL    HW2 6364   3.425   5.850   4.615  0.4380 -0.0413 -0.1686
 1658SOL    HW3 6365   3.434   5.886   4.761  1.0146  1.4989 -0.5624
 1658SOL    MW4 6366   3.470   5.853   4.689 -0.3400 -0.3737  0.8148
 1659SOL     OW 6367   2.579   0.346   2.429  0.1045 -0.0511 -0.0485
 1659SOL    HW2 6368   2.547   0.391   2.351  0.7156  0.1567 -0.1834
 1659SOL    HW3 6369   2.608   0.416   2.487  1.3152 -0.2638 -0.3700
 1659SOL    MW4 6370   2.579   0.361   2.426 -0.4158  0.5329  0.0038
 1660SOL     OW 6371   2.949   4.857   3.304 -0.1845 -0.3737  0.5411
 1660SOL    HW2 6372   2.975   4.912   3.378  0.9899  0.8939 -0.7652
 1660SOL    HW3 6373   2.915   4.918   3.239  2.0116 -0.9827 -1.3257
 1660SOL    MW4 6374   2.948   4.872   3.306 -0.6932  0.4274 -0.2298
 1661SOL     OW 6375   5.279   3.925   3.590  0.4558  0.4837 -0.2953
 1661SOL    HW2 6376   5.199   3.916   3.641  0.9021  0.0216  0.3270
 1661SOL    HW3 6377   5.314   4.011   3.615  0.9284  0.0541  0.5582
 1661SOL    MW4 6378   5.273   3.935   3.600  0.3589 -0.3099  0.0384
 1662SOL     OW 6379   1.250   3.493   5.996  0.3001 -0.3030  0.0304
 1662SOL    HW2 6380   1.306   3.423   6.029  0.7308 -1.7034 -3.2357
 1662SOL    HW3 6381   1.181   3.502   6.061  2.5475 -0.7251  2.6357
 1662SOL    MW4 6382   1.248   3.485   6.009  0.0656  0.1591 -0.6049
 1663SOL     OW 6383   4.721   5.688   5.168 -0.1647 -0.5690  0.6259
 1663SOL    HW2 6384   4.801   5.636   5.162  0.1787 -0.0575  0.7432
 1663SOL    HW3 6385   4.745   5.773   5.130 -0.7012 -0.4739  0.4959
 1663SOL    MW4 6386   4.735   5.692   5.162 -0.2594  0.3456 -0.4193
 1664SOL     OW 6387   1.445   1.212   5.901  0.2731 -0.3866  0.4430
 1664SOL    HW2 6388   1.401   1.139   5.944 -1.8193  1.3441  1.4286
 1664SOL    HW3 6389   1.452   1.185   5.809  1.2453 -2.5293  1.0890
 1664SOL    MW4 6390   1.440   1.199   5.894 -0.2041 -0.4209  0.2115
 1665SOL     OW 6391   3.315   2.528   3.849  0.0154  0.0133 -0.2933
 1665SOL    HW2 6392   3.254   2.516   3.922  0.3352 -2.7223 -0.3580
 1665SOL    HW3 6393   3.345   2.618   3.857 -0.9364  0.1926  2.1695
 1665SOL    MW4 6394   3.311   2.538   3.859 -0.0805  0.4927  0.2786
 1666SOL     OW 6395   0.205   3.501   5.799  0.3463 -0.4019  0.2462
 1666SOL    HW2 6396   0.189   3.593   5.820 -0.8421 -0.3977 -0.5644
 1666SOL    HW3 6397   0.214   3.499   5.704 -0.4137 -1.2103  0.1714
 1666SOL    MW4 6398   0.204   3.513   5.790  0.4471  0.1402 -0.6260
 1667SOL     OW 6399   3.166   6.220   0.666 -0.4976 -0.1390  0.0649
 1667SOL    HW2 6400   3.151   6.293   0.726  2.4060  1.0969 -0.5584
 1667SOL    HW3 6401   3.193   6.261   0.584  5.0855 -1.6186  0.7372
 1667SOL    MW4 6402   3.168   6.235   0.663  0.2132 -0.2014  0.2487
 1668SOL     OW 6403   1.692   1.141   2.832 -0.2847 -0.0029 -0.2034
 1668SOL    HW2 6404   1.707   1.157   2.739  0.8531  1.1560  0.1442
 1668SOL    HW3 6405   1.762   1.189   2.876 -1.2908  0.1599  1.2938
 1668SOL    MW4 6406   1.703   1.149   2.826  0.5797  0.6559  0.0196
 1669SOL     OW 6407   5.421   3.139   0.160 -0.2592 -0.2264 -0.6333
 1669SOL    HW2 6408   5.446   3.093   0.240 -2.1985  2.5072  1.7413
 1669SOL    HW3 6409   5.496   3.196   0.141 -0.2382 -0.0775 -0.1098
 1669SOL    MW4 6410   5.434   3.140   0.168 -0.2160 -0.5049 -0.2680
 1670SOL     OW 6411   4.105   0.485   2.038  0.0507 -0.1465  0.1591
 1670SOL    HW2 6412   4.194   0.449   2.042 -0.1735 -0.6297  1.1740
 1670SOL    HW3 6413   4.048   0.408   2.046 -0.4584  0.1839 -0.2606
 1670SOL    MW4 6414   4.109   0.470   2.039  0.4317 -0.2509 -0.1427
 1671SOL     OW 6415   0.711   5.694   1.636  0.4597 -0.0502  0.3200
 1671SOL    HW2 6416   0.644   5.631   1.608 -0.1034  0.5509  0.3048
 1671SOL    HW3 6417   0.698   5.703   1.730  0.8261 -0.2878  0.3941
 1671SOL    MW4 6418   0.700   5.687   1.644  0.1981 -0.2140 -0.5772
 1672SOL     OW 6419   4.050   1.820   2.545 -0.1580 -0.4179  0.0917
 1672SOL    HW2 6420   3.987   1.793   2.478 -1.0438  2.5206 -0.4131
 1672SOL    HW3 6421   4.059   1.915   2.532  0.3622  0.1285  3.5248
 1672SOL    MW4 6422   4.043   1.829   2.534 -0.1872  0.4088  0.0731
 1673SOL     OW 6423   5.216   1.010   5.206  0.6714 -0.0073  0.2413
 1673SOL    HW2 6424   5.215   1.106   5.214  0.4305  0.0759 -0.6763
 1673SOL    HW3 6425   5.308   0.989   5.193  0.6840  0.1291  0.1057
 1673SOL    MW4 6426   5.228   1.020   5.205 -0.0760  0.7426  0.0542
 1674SOL     OW 6427   1.420   3.379   2.127  0.6316  0.3292  0.5328
 1674SOL    HW2 6428   1.449   3.365   2.217  0.5126  0.6008  0.6120
 1674SOL    HW3 6429   1.330   3.410   2.135  0.5095  0.0393  0.3078
 1674SOL    MW4 6430   1.412   3.381   2.140  0.0191  0.2237  0.0184
 1675SOL     OW 6431   5.430   5.309   1.771  0.4049 -0.1015  0.0327
 1675SOL    HW2 6432   5.345   5.279   1.803  0.9265 -0.4793  1.0815
 1675SOL    HW3 6433   5.410   5.345   1.684 -0.7573 -0.5402  0.0908
 1675SOL    MW4 6434   5.416   5.310   1.764 -0.0386  0.8295  0.4908
 1676SOL     OW 6435   6.146   3.216   4.683 -0.2028 -0.5989 -0.1218
 1676SOL    HW2 6436   6.195   3.261   4.614  1.4037  1.7001  2.3113
 1676SOL    HW3 6437   6.173   3.125   4.676  1.7089 -0.0074 -1.1271
 1676SOL    MW4 6438   6.156   3.210   4.673 -0.3329 -0.2643 -1.1283
 1677SOL     OW 6439   5.718   0.895   6.397 -0.6524 -0.2209  0.2582
 1677SOL    HW2 6440   5.639   0.867   6.443 -0.5143  0.6227  1.0472
 1677SOL    HW3 6441   5.690   0.908   6.306 -1.0931 -1.2445  0.2443
 1677SOL    MW4 6442   5.704   0.893   6.391  0.0059 -0.4030  0.3857
 1678SOL     OW 6443   4.103   1.088   3.213 -0.1700 -0.0715  0.0046
 1678SOL    HW2 6444   4.011   1.071   3.194 -0.1177  0.9630 -1.3603
 1678SOL    HW3 6445   4.105   1.177   3.247  0.4024  0.2812 -0.9002
 1678SOL    MW4 6446   4.091   1.097   3.215  0.1672  0.2587  0.5245
 1679SOL     OW 6447   4.362   2.870   1.806 -0.4995 -0.1594 -0.6694
 1679SOL    HW2 6448   4.422   2.940   1.831  0.3057 -1.4591  1.2953
 1679SOL    HW3 6449   4.315   2.904   1.730  0.3227  2.2222 -0.1813
 1679SOL    MW4 6450   4.363   2.884   1.799  0.4968  0.0824  0.3273
 1680SOL     OW 6451   0.151   2.493   4.767 -0.0790 -0.2236  0.0794
 1680SOL    HW2 6452   0.077   2.523   4.713  0.0874 -1.0292 -0.6214
 1680SOL    HW3 6453   0.228   2.531   4.726 -0.0775  0.4361  0.6808
 1680SOL    MW4 6454   0.151   2.502   4.755  0.1316 -0.3609  0.1118
 1681SOL     OW 6455   2.911   3.571   3.511  0.2473  0.3199 -0.1223
 1681SOL    HW2 6456   2.968   3.544   3.439  0.0704 -1.3166  0.2964
 1681SOL    HW3 6457   2.878   3.657   3.486  3.2822  1.6138 -0.1553
 1681SOL    MW4 6458   2.914   3.578   3.498  0.2433  0.0395  0.1568
 1682SOL     OW 6459   0.978   3.779   6.399 -0.1293  0.1359 -0.0880
 1682SOL    HW2 6460   1.056   3.834   6.408  0.4912 -0.9249  1.4127
 1682SOL    HW3 6461   0.911   3.822   6.450  0.1758 -0.1436  0.5647
 1682SOL    MW4 6462   0.980   3.792   6.407  0.0431 -0.0055  0.2479
 1683SOL     OW 6463   1.131   0.965   1.028  0.1237 -0.1365 -0.5029
 1683SOL    HW2 6464   1.136   1.008   0.943 -0.8158 -1.0004 -1.0118
 1683SOL    HW3 6465   1.076   0.889   1.013  1.0158 -1.0341  0.5813
 1683SOL    MW4 6466   1.125   0.961   1.015 -0.5198 -0.6934  0.2715
 1684SOL     OW 6467   1.136   2.816   3.952 -0.3611  0.0764  0.0980
 1684SOL    HW2 6468   1.138   2.908   3.976  0.0075  0.1469 -0.1914
 1684SOL    HW3 6469   1.095   2.772   4.027  0.9665  0.2553  0.9568
 1684SOL    MW4 6470   1.131   2.822   3.965  0.0447  0.8779  0.5703
 1685SOL     OW 6471   1.028   0.579   4.937  0.2515 -0.0051  0.6574
 1685SOL    HW2 6472   0.966   0.610   5.003 -0.4112  1.1341 -0.4487
 1685SOL    HW3 6473   0.983   0.506   4.894  0.6449 -0.6858  1.3788
 1685SOL    MW4 6474   1.014   0.574   4.940  0.3113 -0.8355  0.3475
 1686SOL     OW 6475   3.590   3.626   3.129 -0.2671  0.0761 -0.2647
 1686SOL    HW2 6476   3.684   3.607   3.131 -0.2324  0.3191  0.9356
 1686SOL    HW3 6477   3.570   3.655   3.217 -1.4965 -0.0464 -0.4935
 1686SOL    MW4 6478   3.600   3.627   3.141 -0.2071 -0.2055  0.7188
 1687SOL     OW 6479   2.301   4.123   6.423  0.3474  0.5172  0.0550
 1687SOL    HW2 6480   2.392   4.120   6.394  0.8555 -1.0179  1.5978
 1687SOL    HW3 6481   2.249   4.115   6.343  1.5340  1.7173 -0.8786
 1687SOL    MW4 6482   2.306   4.122   6.409 -0.2600  0.4300  0.2507
 1688SOL     OW 6483   6.249   1.020   0.381 -0.3257 -0.1806 -0.1652
 1688SOL    HW2 6484   6.292   0.989   0.301 -0.3369  0.0084 -0.2455
 1688SOL    HW3 6485   6.174   1.071   0.349 -0.1251  0.1972 -0.0430
 1688SOL    MW4 6486   6.245   1.023   0.366  0.1896  0.0684  0.4195
 1689SOL     OW 6487   5.723   1.063   5.187  0.2060  0.0338  0.1883
 1689SOL    HW2 6488   5.767   1.001   5.128  0.0408 -1.1225  1.2422
 1689SOL    HW3 6489   5.759   1.149   5.162 -0.4824 -0.2741 -2.1715
 1689SOL    MW4 6490   5.734   1.066   5.176  0.1677 -0.7588  0.0182
 1690SOL     OW 6491   3.386   0.804   0.724  0.5524 -0.0530 -0.6097
 1690SOL    HW2 6492   3.405   0.860   0.798  1.6473  1.8255 -2.2095
 1690SOL    HW3 6493   3.471   0.784   0.686 -0.0346  0.4953 -2.3426
 1690SOL    MW4 6494   3.400   0.809   0.729 -0.1720  0.4575 -0.4465
 1691SOL     OW 6495   6.414   4.954   3.411 -0.0092  0.2803 -0.1903
 1691SOL    HW2 6496   6.400   5.002   3.492 -0.2398  0.5052 -0.3600
 1691SOL    HW3 6497   6.328   4.920   3.387  0.0262  0.3534 -0.4251
 1691SOL    MW4 6498   6.401   4.956   3.418 -0.2117 -0.4631  0.3015
 1692SOL     OW 6499   1.809   1.467   0.542 -0.0355  0.0611 -0.2939
 1692SOL    HW2 6500   1.724   1.505   0.519  0.1284  0.4020 -0.3533
 1692SOL    HW3 6501   1.805   1.377   0.511 -0.5176 -0.0397  0.0461
 1692SOL    MW4 6502   1.797   1.460   0.535  0.2142  0.0435  0.0251
 1693SOL     OW 6503   3.298   0.278   5.933  0.1971 -0.0553  0.4042
 1693SOL    HW2 6504   3.301   0.255   6.026  1.6993  1.5342  0.7969
 1693SOL    HW3 6505   3.378   0.239   5.897  0.0484  0.0475 -0.0413
 1693SOL    MW4 6506   3.309   0.270   5.941 -0.0335  0.0337 -0.8185
 1694SOL     OW 6507   5.402   4.175   3.203 -0.6700 -0.6151  0.2423
 1694SOL    HW2 6508   5.307   4.168   3.186 -0.7090  1.6761 -0.8871
 1694SOL    HW3 6509   5.438   4.094   3.166 -2.0756 -1.0567 -0.2569
 1694SOL    MW4 6510   5.394   4.163   3.196 -0.0657  0.4674  0.2668
 1695SOL     OW 6511   3.602   3.876   2.253  0.1406 -0.6583  0.5189
 1695SOL    HW2 6512   3.687   3.917   2.264  0.3464 -0.7520 -0.5546
 1695SOL    HW3 6513   3.539   3.946   2.274  0.4715 -0.5241  1.0928
 1695SOL    MW4 6514   3.605   3.891   2.257  0.3232  0.7557  0.1233
 1696SOL     OW 6515   3.607   4.736   5.345 -0.0700 -0.2868  0.6476
 1696SOL    HW2 6516   3.688   4.787   5.340 -0.3862  0.1478 -0.2968
 1696SOL    HW3 6517   3.624   4.672   5.414  1.9518 -1.6476 -0.9400
 1696SOL    MW4 6518   3.620   4.734   5.353 -0.3058 -0.2209  0.9016
 1697SOL     OW 6519   2.836   3.344   6.222  0.4850  0.9890 -0.6714
 1697SOL    HW2 6520   2.784   3.393   6.158 -0.7340  0.7547  0.1142
 1697SOL    HW3 6521   2.881   3.277   6.171 -0.8613  0.4863 -1.2347
 1697SOL    MW4 6522   2.835   3.342   6.207 -0.6251 -0.0508  0.9093
 1698SOL     OW 6523   5.191   1.861   2.166 -0.2187  0.1253 -0.0495
 1698SOL    HW2 6524   5.128   1.823   2.228  0.3095  1.3615  1.3028
 1698SOL    HW3 6525   5.161   1.831   2.080 -0.1564 -2.8665  0.8384
 1698SOL    MW4 6526   5.179   1.852   2.163 -0.2415  0.0160 -0.7658
 1699SOL     OW 6527   3.176   0.722   3.383  0.2756 -0.5034  0.2573
 1699SOL    HW2 6528   3.201   0.678   3.464  1.9377 -2.9986 -1.4814
 1699SOL    HW3 6529   3.252   0.711   3.325 -0.9164  1.0386 -1.7276
 1699SOL    MW4 6530   3.190   0.715   3.386 -0.5067 -0.4261  0.0965
 1700SOL     OW 6531   6.300   3.586   1.366  0.6289  0.0163 -0.1926
 1700SOL    HW2 6532   6.392   3.561   1.382  0.0760 -2.8350 -0.8628
 1700SOL    HW3 6533   6.258   3.505   1.338 -1.7474  1.6163 -1.6100
 1700SOL    MW4 6534   6.307   3.572   1.365  0.0758 -0.1907 -0.3859
 1701SOL     OW 6535   0.867   4.412   0.876 -0.1722  0.2112 -0.2769
 1701SOL    HW2 6536   0.915   4.339   0.837  0.5262 -0.0674  1.0534
 1701SOL    HW3 6537   0.785   4.372   0.907 -0.3209  0.2506 -0.6082
 1701SOL    MW4 6538   0.862   4.397   0.875  0.2241  0.2957  0.2990
 1702SOL     OW 6539   3.865   5.126   0.177 -0.4562 -0.4768  0.7503
 1702SOL    HW2 6540   3.951   5.086   0.162 -1.9922 -3.2504 -1.7731
 1702SOL    HW3 6541   3.883   5.219   0.193  2.9187 -0.7484 -0.7808
 1702SOL    MW4 6542   3.879   5.133   0.177  0.1624 -0.1444 -0.1559
 1703SOL     OW 6543   5.310   2.990   3.183  0.1905  0.2378 -0.3454
 1703SOL    HW2 6544   5.236   3.009   3.125 -1.2679 -0.5043  1.1940
 1703SOL    HW3 6545   5.371   2.941   3.128 -1.5091 -1.1694 -1.0896
 1703SOL    MW4 6546   5.308   2.986   3.168 -0.4598  0.3359  0.2835
 1704SOL     OW 6547   1.456   1.977   6.243  0.3790 -0.4714  0.4656
 1704SOL    HW2 6548   1.441   2.006   6.333 -2.0714 -0.8015  0.2382
 1704SOL    HW3 6549   1.482   2.056   6.197 -0.1183  0.0852  1.1114
 1704SOL    MW4 6550   1.458   1.991   6.249 -0.1966  0.1311  0.2401
 1705SOL     OW 6551   1.261   5.373   1.519  0.0641  0.6131  0.1169
 1705SOL    HW2 6552   1.171   5.342   1.529  0.2969 -0.2354 -0.4200
 1705SOL    HW3 6553   1.312   5.295   1.497  1.2250  0.7777  2.0263
 1705SOL    MW4 6554   1.256   5.359   1.518 -0.1928 -0.1042 -0.0187
 1706SOL     OW 6555   3.137   3.057   5.267 -0.1508  0.0625 -0.1693
 1706SOL    HW2 6556   3.218   3.041   5.316  0.3910 -1.0201 -1.3403
 1706SOL    HW3 6557   3.154   3.019   5.180 -2.0012 -0.3906 -0.3711
 1706SOL    MW4 6558   3.150   3.050   5.262 -0.3995  0.8323 -0.4095
 1707SOL     OW 6559   0.895   4.820   0.810 -0.3998  0.4014 -0.3778
 1707SOL    HW2 6560   0.803   4.815   0.784 -1.1317 -2.4503  2.0668
 1707SOL    HW3 6561   0.938   4.751   0.759 -0.0027  0.6170 -0.3364
 1707SOL    MW4 6562   0.889   4.810   0.800 -0.7800 -0.8029  0.6250
 1708SOL     OW 6563   4.998   2.834  -0.000 -0.1086 -0.6644  0.1044
 1708SOL    HW2 6564   5.023   2.866  -0.087 -0.5790  0.6986  0.4568
 1708SOL    HW3 6565   5.062   2.765   0.019 -0.8846 -2.0614 -1.9405
 1708SOL    MW4 6566   5.010   2.829  -0.009  0.0566  0.4983 -0.7453
 1709SOL     OW 6567   0.147   1.494   1.799  0.3205  0.2712 -0.2595
 1709SOL    HW2 6568   0.105   1.416   1.764 -0.0459  0.4914 -0.3153
 1709SOL    HW3 6569   0.182   1.539   1.722  1.2036 -0.2287 -0.1524
 1709SOL    MW4 6570   0.146   1.490   1.784  0.1168  0.1844  0.7788
 1710SOL     OW 6571   6.363   0.135   0.460  0.0044 -0.0121  0.7294
 1710SOL    HW2 6572   6.446   0.142   0.412 -1.7206 -0.4183 -2.6093
 1710SOL    HW3 6573   6.344   0.042   0.462 -1.5581  0.2186 -0.9218
 1710SOL    MW4 6574   6.371   0.124   0.454  0.2365  0.9149  0.1945
 1711SOL     OW 6575   5.268   1.511   4.033  0.3493 -0.2767  0.0292
 1711SOL    HW2 6576   5.361   1.522   4.013  0.0973 -2.0411 -2.5756
 1711SOL    HW3 6577   5.222   1.546   3.957 -1.2114  0.9028  1.4257
 1711SOL    MW4 6578   5.274   1.517   4.021  0.4447 -0.4093  0.3969
 1712SOL     OW 6579   2.508   2.010   5.262 -0.0614 -0.4899  0.0782
 1712SOL    HW2 6580   2.554   1.993   5.179 -1.6181  1.3394 -1.2483
 1712SOL    HW3 6581   2.463   1.928   5.281  1.6226 -1.4801  0.0398
 1712SOL    MW4 6582   2.508   1.997   5.253  0.0095 -0.2220 -0.5923
 1713SOL     OW 6583   1.785   1.854   4.820  0.3419 -0.8624  0.1190
 1713SOL    HW2 6584   1.724   1.827   4.889  0.9381  0.4065  1.1811
 1713SOL    HW3 6585   1.860   1.796   4.831  0.8948  0.0368  1.2704
 1713SOL    MW4 6586   1.787   1.843   4.831  0.0429 -0.2111  0.5297
 1714SOL     OW 6587   2.774   0.155   2.364  0.1606 -0.3664  0.2283
 1714SOL    HW2 6588   2.709   0.213   2.405  1.0286  0.6069  0.2522
 1714SOL    HW3 6589   2.784   0.189   2.275  0.3289 -0.7782  0.0868
 1714SOL    MW4 6590   2.767   0.167   2.357 -0.6056 -0.4450 -0.0816
 1715SOL     OW 6591   3.276   3.797   0.904  0.2480  0.4460 -0.6444
 1715SOL    HW2 6592   3.279   3.870   0.843 -1.8737  0.4481 -0.8194
 1715SOL    HW3 6593   3.241   3.834   0.985  1.5755  0.1240  0.1051
 1715SOL    MW4 6594   3.271   3.812   0.907  0.2788  0.0219  0.4931
 1716SOL     OW 6595   0.185   2.487   1.992 -0.2564 -0.2062 -0.0620
 1716SOL    HW2 6596   0.163   2.528   1.909  0.9791 -0.1352 -0.3751
 1716SOL    HW3 6597   0.281   2.495   1.998 -0.2752 -0.6716  1.1172
 1716SOL    MW4 6598   0.195   2.494   1.982 -0.0302 -0.2035 -0.2834
 1717SOL     OW 6599   4.708   0.688   0.826  0.2045 -0.1434  0.5628
 1717SOL    HW2 6600   4.738   0.773   0.859  0.1286 -0.5136  1.6154
 1717SOL    HW3 6601   4.788   0.636   0.819  0.7454  0.8741 -2.9572
 1717SOL    MW4 6602   4.723   0.692   0.829 -0.0994 -0.2984 -0.2075
 1718SOL     OW 6603   5.495   1.525   6.323 -0.3953  0.0290 -0.6808
 1718SOL    HW2 6604   5.458   1.584   6.258  0.1105  1.4434  0.2590
 1718SOL    HW3 6605   5.589   1.525   6.305 -0.0598  1.4603  0.7585
 1718SOL    MW4 6606   5.503   1.533   6.312  0.1622  0.4708  0.0753
 1719SOL     OW 6607   1.094   3.254   2.046  0.0536 -0.3303 -0.1392
 1719SOL    HW2 6608   1.097   3.207   2.129  1.0012 -0.5109 -0.2639
 1719SOL    HW3 6609   1.104   3.347   2.070  1.2048 -0.4475 -0.0929
 1719SOL    MW4 6610   1.096   3.260   2.060 -0.9145 -0.5633 -0.9467
 1720SOL     OW 6611   1.170   4.747   1.769 -0.4937  0.6241 -0.3263
 1720SOL    HW2 6612   1.158   4.730   1.862  0.4826 -0.4277 -0.3701
 1720SOL    HW3 6613   1.154   4.841   1.759  0.3454  0.9333  1.0644
 1720SOL    MW4 6614   1.166   4.757   1.780 -0.3339  0.2824  0.1072
 1721SOL     OW 6615   3.955   4.482   3.711  0.3078  0.0042  0.0275
 1721SOL    HW2 6616   3.908   4.517   3.787  1.3840  1.2324  0.1546
 1721SOL    HW3 6617   4.046   4.474   3.740  0.6549  0.0752 -0.9990
 1721SOL    MW4 6618   3.961   4.485   3.725  0.1227 -0.0757 -0.2072
 1722SOL     OW 6619   1.571   5.696   5.314 -0.2352 -0.6734  0.1990
 1722SOL    HW2 6620   1.665   5.707   5.300 -0.2228  0.0548  0.7928
 1722SOL    HW3 6621   1.554   5.605   5.290  0.4396 -0.5441 -0.8817
 1722SOL    MW4 6622   1.581   5.685   5.309  0.4437  0.0045 -0.1721
 1723SOL     OW 6623   3.978   5.212   4.646  0.0954 -0.6325  0.2114
 1723SOL    HW2 6624   3.976   5.273   4.721 -0.0382 -2.1454  1.4791
 1723SOL    HW3 6625   3.934   5.260   4.576 -0.4439  0.5611  1.3167
 1723SOL    MW4 6626   3.972   5.227   4.647 -0.0268  0.5054  0.1914
 1724SOL     OW 6627   5.286   6.408   0.165  0.4241 -0.2947 -0.5417
 1724SOL    HW2 6628   5.306   6.351   0.240  0.3371  1.7884  1.1365
 1724SOL    HW3 6629   5.197   6.384   0.140 -0.0588 -0.0882  0.9146
 1724SOL    MW4 6630   5.277   6.397   0.172 -0.1730  0.0634  0.1080
 1725SOL     OW 6631   0.845   4.281   2.571  0.2146  0.1047  0.1631
 1725SOL    HW2 6632   0.751   4.290   2.553  0.4103 -0.9271 -1.5623
 1725SOL    HW3 6633   0.883   4.362   2.537 -0.1161  0.8555  1.5382
 1725SOL    MW4 6634   0.838   4.293   2.564 -0.2742  0.0122 -0.0365
 1726SOL     OW 6635   1.098   3.144   5.987 -0.4722  0.3147 -0.3302
 1726SOL    HW2 6636   1.045   3.220   6.009 -2.7832 -0.9107 -1.3132
 1726SOL    HW3 6637   1.096   3.090   6.066  2.7145  1.9350  1.0577
 1726SOL    MW4 6638   1.091   3.147   6.000 -0.2415  0.0230  0.1798
 1727SOL     OW 6639   5.419   0.236   1.642  0.2267 -0.2324  0.7133
 1727SOL    HW2 6640   5.402   0.289   1.565  1.9911 -1.2648 -0.4600
 1727SOL    HW3 6641   5.412   0.146   1.611  0.2502 -0.6759  1.9345
 1727SOL    MW4 6642   5.416   0.231   1.628 -0.5904 -0.7045  0.6905
 1728SOL     OW 6643   5.788   0.583   1.712 -0.3511  0.1741  0.1287
 1728SOL    HW2 6644   5.699   0.548   1.708 -0.6844  1.0379 -0.2656
 1728SOL    HW3 6645   5.778   0.667   1.758  0.2276  0.3823 -0.1221
 1728SOL    MW4 6646   5.775   0.590   1.718  0.0406 -0.0338 -0.2772
 1729SOL     OW 6647   2.151   2.632   0.031  0.0998 -0.1195 -0.1016
 1729SOL    HW2 6648   2.218   2.652   0.096 -0.6432 -2.1708  1.4108
 1729SOL    HW3 6649   2.182   2.552  -0.012 -0.8734 -0.5155 -0.0918
 1729SOL    MW4 6650   2.164   2.624   0.034 -0.0565 -0.4959 -0.1792
 1730SOL     OW 6651   6.049   5.418   5.968 -0.6109  0.5180 -0.7797
 1730SOL    HW2 6652   6.053   5.333   6.013 -0.0479  0.5292 -0.8104
 1730SOL    HW3 6653   6.111   5.410   5.896  0.3333  1.3696 -0.0875
 1730SOL    MW4 6654   6.058   5.406   5.965  0.7204  0.5819 -0.6898
 1731SOL     OW 6655   0.030   6.417   0.160 -0.8108  0.3651  0.2580
 1731SOL    HW2 6656  -0.048   6.471   0.144 -0.9717 -0.3942 -1.8135
 1731SOL    HW3 6657   0.036   6.361   0.083  1.0445 -0.5324  1.0060
 1731SOL    MW4 6658   0.020   6.417   0.148 -0.3259 -1.0008 -0.7296
 1732SOL     OW 6659   5.148   6.292   5.395 -0.3241  0.4085 -0.0074
 1732SOL    HW2 6660   5.237   6.265   5.418 -0.5063 -0.1743  0.0471
 1732SOL    HW3 6661   5.158   6.338   5.311 -0.0632 -0.3799 -0.4242
 1732SOL    MW4 6662   5.161   6.294   5.387  0.2279 -0.0936  0.3155
 1733SOL     OW 6663   2.453   5.766   6.198  0.3887  0.4329  0.3833
 1733SOL    HW2 6664   2.376   5.768   6.254  1.3026  0.4806  1.6781
 1733SOL    HW3 6665   2.436   5.695   6.136 -1.5752  1.7787 -0.7089
 1733SOL    MW4 6666   2.441   5.757   6.197 -0.2896 -0.2621  0.5172
 1734SOL     OW 6667   0.283   0.851   3.585  0.3040 -0.6413  1.0961
 1734SOL    HW2 6668   0.379   0.852   3.580  0.2795  0.9427  0.3010
 1734SOL    HW3 6669   0.259   0.762   3.562  1.4977 -0.4357 -1.2722
 1734SOL    MW4 6670   0.293   0.840   3.582 -0.4124 -0.5376  0.4009
 1735SOL     OW 6671   0.014   2.705   4.601 -0.8366  0.3281 -0.4634
 1735SOL    HW2 6672   0.104   2.739   4.595 -0.9820  0.5795 -1.3033
 1735SOL    HW3 6673   0.006   2.645   4.527 -1.0070 -0.5691  0.2603
 1735SOL    MW4 6674   0.025   2.702   4.590 -0.0517  0.3033 -0.3876
 1736SOL     OW 6675   1.169   4.216   3.794 -0.2233 -0.7497 -0.0671
 1736SOL    HW2 6676   1.265   4.220   3.792 -0.2088 -0.8222  0.3593
 1736SOL    HW3 6677   1.141   4.307   3.796 -0.0517 -0.6095  3.6150
 1736SOL    MW4 6678   1.178   4.229   3.794  0.0046 -0.3486 -0.4559
 1737SOL     OW 6679   0.186   3.355   4.789  0.3396 -1.0111  0.5359
 1737SOL    HW2 6680   0.095   3.339   4.812  0.4824  0.3924  2.3179
 1737SOL    HW3 6681   0.231   3.274   4.812 -0.2591 -1.2164  1.0317
 1737SOL    MW4 6682   0.180   3.342   4.795 -0.2377  0.2000 -0.3559
 1738SOL     OW 6683   3.525   5.390   2.242 -0.4087  0.0836 -0.5049
 1738SOL    HW2 6684   3.431   5.391   2.225 -0.2202 -1.8530 -1.9516
 1738SOL    HW3 6685   3.548   5.297   2.244  1.9373  0.4960 -3.1305
 1738SOL    MW4 6686   3.516   5.378   2.240  0.0599 -0.0980 -0.4678
 1739SOL     OW 6687   2.896   3.014   5.358 -0.4756  0.3857  0.0136
 1739SOL    HW2 6688   2.988   3.027   5.335 -0.0108 -1.2922  0.7329
 1739SOL    HW3 6689   2.898   2.982   5.448 -1.4277 -3.1518 -1.0363
 1739SOL    MW4 6690   2.908   3.011   5.367  0.4300  0.5994 -0.2728
 1740SOL     OW 6691   0.212   1.165   3.191 -0.2135 -0.2520 -0.5002
 1740SOL    HW2 6692   0.266   1.232   3.234 -0.1998 -0.9479  0.6020
 1740SOL    HW3 6693   0.231   1.176   3.098 -0.1941  1.2585 -0.3492
 1740SOL    MW4 6694   0.222   1.175   3.185 -0.1770  0.0791  0.2175
 1741SOL     OW 6695   5.675   1.636   0.766  0.5925  0.2697 -0.9332
 1741SOL    HW2 6696   5.628   1.659   0.687  0.4541 -1.0046 -1.2358
 1741SOL    HW3 6697   5.650   1.704   0.829 -1.4697 -0.2403 -1.1456
 1741SOL    MW4 6698   5.666   1.648   0.764 -0.0507  0.9277  0.3882
 1742SOL     OW 6699   2.814   4.325   0.959  0.2634  0.3376  0.2563
 1742SOL    HW2 6700   2.764   4.340   0.879  1.6315 -0.2843 -0.7528
 1742SOL    HW3 6701   2.845   4.235   0.952 -0.5220 -0.1110  2.0378
 1742SOL    MW4 6702   2.812   4.315   0.948 -0.0327 -0.7349 -0.0176
 1743SOL     OW 6703   6.013   4.259   0.845 -0.2550 -0.5129  0.5165
 1743SOL    HW2 6704   5.954   4.220   0.781 -0.2865  3.2507 -2.1048
 1743SOL    HW3 6705   5.955   4.298   0.910 -0.3853 -1.5551  1.0288
 1743SOL    MW4 6706   5.998   4.259   0.845 -0.4883  0.3743  0.3304
 1744SOL     OW 6707   6.193   1.976   0.056 -0.3159  0.1165 -0.1154
 1744SOL    HW2 6708   6.178   2.043  -0.011 -0.8457  0.5862  0.4640
 1744SOL    HW3 6709   6.267   1.925   0.022  2.2067  2.8473  0.8250
 1744SOL    MW4 6710   6.201   1.978   0.043 -0.4339  0.4663  0.5508
 1745SOL     OW 6711   1.344   2.413   0.588  0.6532  0.0702 -0.1303
 1745SOL    HW2 6712   1.434   2.436   0.612  0.4317  0.3605  0.4438
 1745SOL    HW3 6713   1.341   2.318   0.593  0.1715  0.1433  2.7596
 1745SOL    MW4 6714   1.355   2.404   0.592 -0.2254 -0.7905 -0.3873
 1746SOL     OW 6715   5.887   1.684   2.007 -0.4543  0.3765  0.3518
 1746SOL    HW2 6716   5.912   1.746   2.077 -2.2496  1.4674  0.1030
 1746SOL    HW3 6717   5.864   1.604   2.054 -3.3584  1.6268  1.3288
 1746SOL    MW4 6718   5.887   1.682   2.023 -0.1891  0.0074 -0.4425
 1747SOL     OW 6719   5.014   5.481   3.320 -0.0287 -0.1143  0.1831
 1747SOL    HW2 6720   5.077   5.497   3.250 -1.0839  0.0023 -0.7609
 1747SOL    HW3 6721   5.053   5.409   3.371  0.4133 -0.7053 -0.9482
 1747SOL    MW4 6722   5.028   5.474   3.318 -0.4239 -0.0010 -0.2700
 1748SOL     OW 6723   5.216   5.532   4.016 -0.0577 -0.1345  0.5326
 1748SOL    HW2 6724   5.282   5.571   3.959  0.8184 -0.0064  1.5935
 1748SOL    HW3 6725   5.267   5.484   4.081 -1.0494 -0.8004  0.8337
 1748SOL    MW4 6726   5.231   5.531   4.017 -0.2699  0.1289 -0.0066
 1749SOL     OW 6727   1.293   3.943   6.191  0.4317  0.2802 -0.5797
 1749SOL    HW2 6728   1.350   3.867   6.177 -0.0631 -0.2648  0.3021
 1749SOL    HW3 6729   1.344   4.017   6.158  0.8231 -0.4472 -1.6883
 1749SOL    MW4 6730   1.307   3.943   6.184  0.1649  0.1713  0.7966
 1750SOL     OW 6731   2.842   2.243   1.003 -0.1024 -0.2500  0.0624
 1750SOL    HW2 6732   2.811   2.333   0.992 -2.3896 -0.9482  0.3128
 1750SOL    HW3 6733   2.814   2.198   0.923 -0.3240 -1.0844  0.5980
 1750SOL    MW4 6734   2.835   2.249   0.991 -0.1441 -0.1714  0.5519
 1751SOL     OW 6735   3.350   5.755   2.239 -0.4543  0.0436  0.6005
 1751SOL    HW2 6736   3.333   5.712   2.156 -0.4395  1.4190 -0.1386
 1751SOL    HW3 6737   3.432   5.716   2.270 -0.9898 -1.2064  0.4999
 1751SOL    MW4 6738   3.359   5.744   2.232 -0.4254 -0.2204  0.2609
 1752SOL     OW 6739   1.411   2.920   1.189  0.2703  0.1973  0.3678
 1752SOL    HW2 6740   1.358   2.962   1.257  0.8544  2.1597 -0.3460
 1752SOL    HW3 6741   1.360   2.842   1.164 -1.9804  1.6420  0.1688
 1752SOL    MW4 6742   1.397   2.915   1.195  0.3777  0.3968 -0.3186
 1753SOL     OW 6743   3.468   4.809   1.386  0.0662  0.3881  0.0035
 1753SOL    HW2 6744   3.379   4.812   1.351  0.6563 -1.1227 -1.7984
 1753SOL    HW3 6745   3.501   4.899   1.375 -1.5242  1.2034  1.6195
 1753SOL    MW4 6746   3.461   4.822   1.380 -0.4488 -0.1162  0.2264
 1754SOL     OW 6747   6.083   4.672   6.027 -0.4488  0.6622 -0.0048
 1754SOL    HW2 6748   6.033   4.605   6.073  0.0783 -0.4005 -0.9201
 1754SOL    HW3 6749   6.114   4.731   6.095  2.2961 -2.1207  1.3893
 1754SOL    MW4 6750   6.080   4.671   6.042 -0.4691 -0.1064 -0.4122
 1755SOL     OW 6751   3.338   4.285   2.957 -0.1932  0.2946 -0.2718
 1755SOL    HW2 6752   3.282   4.276   2.880  1.5874 -0.5411 -1.5445
 1755SOL    HW3 6753   3.308   4.215   3.016 -0.7934  0.1622 -0.7211
 1755SOL    MW4 6754   3.327   4.274   2.955 -0.4291  0.1527  0.0712
 1756SOL     OW 6755   3.801   0.618   5.219 -0.0234 -0.0987  0.5116
 1756SOL    HW2 6756   3.799   0.576   5.133  0.2031  0.4517  0.2338
 1756SOL    HW3 6757   3.893   0.615   5.245 -0.0785 -0.1908  0.7008
 1756SOL    MW4 6758   3.813   0.612   5.211  0.2820 -0.0535  0.3767
 1757SOL     OW 6759   2.074   1.493   3.274  0.4151  0.8054  0.4497
 1757SOL    HW2 6760   2.027   1.513   3.355 -1.0535  1.4106 -0.5024
 1757SOL    HW3 6761   2.166   1.488   3.299  0.0642  1.7401  2.0063
 1757SOL    MW4 6762   2.080   1.495   3.288  0.3827 -0.3752  0.2733
 1758SOL     OW 6763   4.623   5.558   3.389  0.1068 -0.0177 -0.0253
 1758SOL    HW2 6764   4.610   5.646   3.425  0.4630  0.4532 -1.0132
 1758SOL    HW3 6765   4.534   5.526   3.372 -0.0124  1.2869 -2.2826
 1758SOL    MW4 6766   4.609   5.565   3.391 -0.0410 -0.4637 -0.0390
 1759SOL     OW 6767   4.911   3.244   0.239 -0.2683 -0.1787  0.2936
 1759SOL    HW2 6768   4.836   3.273   0.292 -0.4493 -0.8886  0.4287
 1759SOL    HW3 6769   4.875   3.180   0.179 -0.0197  0.4732 -0.5720
 1759SOL    MW4 6770   4.897   3.239   0.238  0.3575 -0.7791 -0.4723
 1760SOL     OW 6771   0.214   6.068   0.086 -0.0406 -0.5532 -0.0892
 1760SOL    HW2 6772   0.171   6.049   0.170 -0.9916 -1.7605 -0.8041
 1760SOL    HW3 6773   0.274   5.994   0.073  1.1191  0.3240  0.1517
 1760SOL    MW4 6774   0.216   6.055   0.095 -0.6121  0.1248 -0.6590
 1761SOL     OW 6775   0.830   4.309   5.849 -1.0281  0.3056 -0.4083
 1761SOL    HW2 6776   0.902   4.270   5.898 -0.7665 -0.8347 -1.6385
 1761SOL    HW3 6777   0.825   4.399   5.880 -0.4359 -0.1768  1.1894
 1761SOL    MW4 6778   0.839   4.315   5.860 -0.0117 -0.4644  0.9164
 1762SOL     OW 6779   5.451   2.556   6.130  0.8964  0.1195 -0.0180
 1762SOL    HW2 6780   5.442   2.521   6.041 -0.4302 -0.0011  0.1402
 1762SOL    HW3 6781   5.448   2.651   6.118  0.4905  0.1003 -0.0914
 1762SOL    MW4 6782   5.449   2.564   6.117 -0.0652 -0.0289 -0.3900
 1763SOL     OW 6783   5.969   4.693   3.184  0.2029  0.5880  0.0111
 1763SOL    HW2 6784   6.049   4.659   3.224 -0.5709 -1.3970  0.0026
 1763SOL    HW3 6785   5.994   4.777   3.146  1.8688  0.7690  1.3925
 1763SOL    MW4 6786   5.983   4.700   3.184  0.2861  0.2393 -0.3333
 1764SOL     OW 6787   1.033   2.709   3.398  0.0279  0.6564 -0.5932
 1764SOL    HW2 6788   1.056   2.756   3.318  0.5161  1.4754  0.0252
 1764SOL    HW3 6789   0.988   2.773   3.453  0.1176  0.2270 -0.0059
 1764SOL    MW4 6790   1.030   2.723   3.394 -0.0222  0.3020  0.1280
 1765SOL     OW 6791   5.073   0.799   0.665  0.2401  0.1648  0.0229
 1765SOL    HW2 6792   5.045   0.768   0.579  0.9251  1.2905 -0.6330
 1765SOL    HW3 6793   5.164   0.769   0.673 -0.4006 -1.6069  1.2138
 1765SOL    MW4 6794   5.082   0.791   0.655 -0.4562  0.6777  0.3291
 1766SOL     OW 6795   3.005   5.401   4.911 -0.3347 -0.0046 -0.3134
 1766SOL    HW2 6796   2.970   5.450   4.985  0.4075  1.1809 -0.7339
 1766SOL    HW3 6797   3.096   5.430   4.904 -0.2619 -0.4680 -1.3903
 1766SOL    MW4 6798   3.012   5.411   4.920 -0.2346  0.4477 -0.0445
 1767SOL     OW 6799   6.182   1.022   3.289  0.1479  0.0730 -0.1110
 1767SOL    HW2 6800   6.168   1.111   3.322  0.3225  0.2640 -0.5486
 1767SOL    HW3 6801   6.138   0.966   3.353  2.0005  0.2881  1.4734
 1767SOL    MW4 6802   6.174   1.026   3.302 -0.6253  0.5239 -0.3189
 1768SOL     OW 6803   4.383   4.258   4.328  0.0993  0.3366 -0.4132
 1768SOL    HW2 6804   4.295   4.285   4.356  0.3259 -0.1799  0.8490
 1768SOL    HW3 6805   4.386   4.164   4.345  1.4955  0.6490  1.2777
 1768SOL    MW4 6806   4.372   4.249   4.334 -0.3025  0.0242 -0.4823
 1769SOL     OW 6807   4.112   4.981   4.801  0.2616  0.3327 -0.9850
 1769SOL    HW2 6808   4.185   4.949   4.853 -0.9702  0.0804  0.6778
 1769SOL    HW3 6809   4.076   5.053   4.852 -1.1393 -0.0709 -1.3628
 1769SOL    MW4 6810   4.117   4.986   4.814 -0.2650 -0.7975  0.1215
 1770SOL     OW 6811   1.848   1.317   1.894  0.2465  0.3605 -0.1531
 1770SOL    HW2 6812   1.941   1.298   1.910  0.3877 -0.3224 -1.6848
 1770SOL    HW3 6813   1.843   1.338   1.801 -1.3115 -0.7710 -0.3589
 1770SOL    MW4 6814   1.860   1.317   1.884 -0.1572 -0.6189  0.1728
 1771SOL     OW 6815   1.656   3.391   1.416 -0.1604 -0.4559  0.7054
 1771SOL    HW2 6816   1.662   3.363   1.508 -0.9360  0.4509  1.0496
 1771SOL    HW3 6817   1.687   3.315   1.366  1.0171 -0.6979  1.7336
 1771SOL    MW4 6818   1.661   3.377   1.422  0.0741  0.4876  0.2434
 1772SOL     OW 6819   3.158   6.060   5.538  0.1738 -0.3554  0.3212
 1772SOL    HW2 6820   3.142   6.058   5.443  0.3298  1.7817  0.2008
 1772SOL    HW3 6821   3.075   6.091   5.575  0.3261 -0.5364  0.8133
 1772SOL    MW4 6822   3.145   6.064   5.530  0.5691  0.4332 -0.1346
 1773SOL     OW 6823   3.889   3.899   5.940  0.4803  0.3465 -0.4552
 1773SOL    HW2 6824   3.859   3.822   5.989  0.4711 -0.1464 -1.2143
 1773SOL    HW3 6825   3.808   3.936   5.903  0.6011  0.0580 -1.0206
 1773SOL    MW4 6826   3.874   3.894   5.942 -0.4067 -0.5867  0.2942
 1774SOL     OW 6827   2.393   3.790   6.361 -0.5472 -0.1771  0.1019
 1774SOL    HW2 6828   2.469   3.737   6.337 -0.4678 -0.0775  0.1337
 1774SOL    HW3 6829   2.330   3.775   6.290 -0.6735 -0.6123  0.3004
 1774SOL    MW4 6830   2.395   3.781   6.348 -0.3132  0.3166 -0.7380
 1775SOL     OW 6831   3.231   2.125   2.598  0.3626 -1.1242  0.2536
 1775SOL    HW2 6832   3.223   2.147   2.690 -1.6695 -2.5469  0.4862
 1775SOL    HW3 6833   3.177   2.046   2.587 -1.5874  0.3980 -2.6206
 1775SOL    MW4 6834   3.223   2.118   2.608  0.0333  0.6634  0.4719
 1776SOL     OW 6835   5.815   4.815   4.161 -0.5465  0.3059  0.6500
 1776SOL    HW2 6836   5.754   4.824   4.234 -1.4335 -1.2224  0.1535
 1776SOL    HW3 6837   5.899   4.844   4.197 -1.2836  1.1609  1.7653
 1776SOL    MW4 6838   5.818   4.820   4.176  0.1757  0.2242  0.4626
 1777SOL     OW 6839   2.037   4.064   2.258 -0.2850 -0.0157  0.4071
 1777SOL    HW2 6840   1.955   4.014   2.259 -0.9581  1.0244 -0.4150
 1777SOL    HW3 6841   2.023   4.134   2.322  0.0305  0.0736  0.3813
 1777SOL    MW4 6842   2.024   4.066   2.266 -0.0037  0.3964  0.2769
 1778SOL     OW 6843   4.630   5.975   3.124  0.0064  0.2252 -0.0823
 1778SOL    HW2 6844   4.723   5.957   3.108  0.0267 -0.1317  0.4288
 1778SOL    HW3 6845   4.602   6.024   3.047  0.6540  0.4549 -0.1778
 1778SOL    MW4 6846   4.639   5.979   3.111  0.0044  1.0879 -0.0181
 1779SOL     OW 6847   6.069   3.947   1.194 -0.1274  0.2607 -0.0302
 1779SOL    HW2 6848   6.065   3.858   1.159  2.1333 -1.1685  2.9296
 1779SOL    HW3 6849   6.143   3.988   1.148 -0.8139  0.4592 -0.9872
 1779SOL    MW4 6850   6.078   3.941   1.183  0.0710  0.3762  0.6853
 1780SOL     OW 6851   3.212   6.022   5.888  0.1097 -0.1932  0.4393
 1780SOL    HW2 6852   3.299   6.006   5.851  1.2494  1.1734  2.3702
 1780SOL    HW3 6853   3.178   5.935   5.909  0.6786 -0.7827 -0.9634
 1780SOL    MW4 6854   3.219   6.008   5.886 -0.1172  0.8124 -0.5031
 1781SOL     OW 6855   5.955   2.338   2.930  0.0810 -0.4160 -0.3229
 1781SOL    HW2 6856   5.991   2.383   2.854 -0.1381 -1.4365 -1.0413
 1781SOL    HW3 6857   6.001   2.377   3.005  1.2610 -0.3286 -1.0687
 1781SOL    MW4 6858   5.966   2.349   2.930 -0.0366  0.1632  0.0693
 1782SOL     OW 6859   5.039   0.216   3.105 -0.4522  0.7432  0.1207
 1782SOL    HW2 6860   5.095   0.149   3.067  1.1204  1.3425  1.2674
 1782SOL    HW3 6861   5.033   0.284   3.037 -0.8073  0.1328 -0.4662
 1782SOL    MW4 6862   5.046   0.216   3.091 -0.5298 -0.4060 -0.2947
 1783SOL     OW 6863   1.416   1.809   4.192  0.0777  0.2083  0.2210
 1783SOL    HW2 6864   1.506   1.793   4.222 -0.3573 -2.0631  0.5326
 1783SOL    HW3 6865   1.420   1.893   4.147  1.8952  1.1776  2.0440
 1783SOL    MW4 6866   1.429   1.818   4.190  0.1910  0.3504 -0.2012
 1784SOL     OW 6867   3.315   1.549   0.232 -0.6748  0.0050 -0.2666
 1784SOL    HW2 6868   3.320   1.568   0.326 -0.8429 -0.2323 -0.2082
 1784SOL    HW3 6869   3.288   1.457   0.228 -0.0464 -0.1719 -0.5444
 1784SOL    MW4 6870   3.312   1.539   0.244  0.7911  0.6041 -0.0459
 1785SOL     OW 6871   5.220   3.103   4.376  0.4001  0.0651  0.2581
 1785SOL    HW2 6872   5.221   3.041   4.303 -0.6873 -0.6806  0.8422
 1785SOL    HW3 6873   5.306   3.092   4.417  0.7442 -0.0372 -0.4765
 1785SOL    MW4 6874   5.231   3.093   4.372  0.6845  0.0491 -0.0183
 1786SOL     OW 6875   5.782   4.551   5.874  0.0138 -0.0847 -0.5767
 1786SOL    HW2 6876   5.845   4.618   5.847 -0.4689  0.0645 -1.3604
 1786SOL    HW3 6877   5.826   4.468   5.858  0.5017  0.0299  0.1173
 1786SOL    MW4 6878   5.796   4.549   5.869  0.4073  0.3311 -0.2388
 1787SOL     OW 6879   4.312   5.106   2.129  0.0220  0.0315  0.3566
 1787SOL    HW2 6880   4.253   5.041   2.167 -0.0366 -0.0163  0.1841
 1787SOL    HW3 6881   4.276   5.191   2.156  0.6835 -0.0242  1.4571
 1787SOL    MW4 6882   4.300   5.109   2.138 -0.1699  0.5508  0.1114
 1788SOL     OW 6883   0.644   5.048   0.854  0.0767  0.2726  0.9699
 1788SOL    HW2 6884   0.658   4.996   0.774 -0.8652  2.6581 -0.8691
 1788SOL    HW3 6885   0.554   5.029   0.879  0.6914 -1.2924  2.1866
 1788SOL    MW4 6886   0.634   5.038   0.847 -0.0259  0.0551  0.1505
 1789SOL     OW 6887   1.520   0.310   3.770 -0.3980  0.4946 -0.5625
 1789SOL    HW2 6888   1.462   0.352   3.708 -2.5542 -1.6183 -0.1155
 1789SOL    HW3 6889   1.497   0.349   3.855  0.3308  1.1235 -0.6417
 1789SOL    MW4 6890   1.510   0.321   3.773 -0.7254 -0.0003 -0.4941
 1790SOL     OW 6891   5.425   2.473   5.861 -0.4683  0.6569  0.1061
 1790SOL    HW2 6892   5.391   2.388   5.832  3.5801 -1.0262 -0.5157
 1790SOL    HW3 6893   5.424   2.527   5.782  0.0638 -0.0331 -0.3913
 1790SOL    MW4 6894   5.421   2.469   5.846 -0.2708  0.4645  0.5122
 1791SOL     OW 6895   4.208   5.068   6.054 -0.1768 -0.4500 -0.1993
 1791SOL    HW2 6896   4.211   4.980   6.017  0.8980 -0.9217  0.9366
 1791SOL    HW3 6897   4.296   5.103   6.041 -0.4636  0.2803 -0.2300
 1791SOL    MW4 6898   4.220   5.061   6.048 -0.3070 -0.5317  0.9999
 1792SOL     OW 6899   1.880   5.862   1.196 -0.3599 -0.5716  0.0321
 1792SOL    HW2 6900   1.793   5.843   1.233  0.3295 -0.4626  1.8191
 1792SOL    HW3 6901   1.889   5.800   1.123 -2.2515 -0.0325 -0.7302
 1792SOL    MW4 6902   1.869   5.851   1.191  0.8058  0.1370 -0.2616
 1793SOL     OW 6903   5.350   2.863   6.074  0.0338  0.7181  0.2018
 1793SOL    HW2 6904   5.258   2.867   6.101  0.2156  2.4033  0.6690
 1793SOL    HW3 6905   5.348   2.829   5.985 -0.9300 -0.4249  0.6205
 1793SOL    MW4 6906   5.338   2.859   6.066  0.0097 -0.3743 -0.3108
 1794SOL     OW 6907   0.453   4.353   2.115  0.3109  0.2688  0.2636
 1794SOL    HW2 6908   0.405   4.280   2.077 -0.8168  1.0765  0.0909
 1794SOL    HW3 6909   0.540   4.348   2.075  0.2147 -0.9007  0.1757
 1794SOL    MW4 6910   0.458   4.343   2.105 -0.0990  0.1849 -0.3301
 1795SOL     OW 6911   2.512   0.415   4.091  0.0452 -0.4027 -1.0915
 1795SOL    HW2 6912   2.533   0.396   4.183 -2.3340 -0.3888 -0.4963
 1795SOL    HW3 6913   2.530   0.509   4.082 -2.2652  0.2214  0.1796
 1795SOL    MW4 6914   2.517   0.425   4.102  0.1462  0.4097 -0.5253
 1796SOL     OW 6915   2.709   1.928   2.017 -0.0484  0.0267  0.1003
 1796SOL    HW2 6916   2.714   1.834   2.000 -2.0052 -0.3628  1.2599
 1796SOL    HW3 6917   2.773   1.968   1.958  1.7798 -2.1223  0.5304
 1796SOL    MW4 6918   2.718   1.921   2.007  0.7711  0.0141 -0.8043
 1797SOL     OW 6919   2.700   0.728   4.706 -0.0425  0.0271 -0.2319
 1797SOL    HW2 6920   2.605   0.719   4.699 -0.0735  0.1723  0.0003
 1797SOL    HW3 6921   2.714   0.821   4.722 -0.0134 -0.3079  2.1371
 1797SOL    MW4 6922   2.689   0.739   4.707 -0.2605  0.3802 -0.2419
 1798SOL     OW 6923   3.752   2.470   2.957 -0.4359 -0.2738  0.0860
 1798SOL    HW2 6924   3.781   2.485   3.047  3.0032 -0.3791 -0.8633
 1798SOL    HW3 6925   3.745   2.558   2.920 -1.8999 -0.2287  0.4267
 1798SOL    MW4 6926   3.755   2.484   2.964 -0.2868 -0.4758  0.2015
 1799SOL     OW 6927   6.260   2.359   3.464 -0.5035  0.5459  0.4729
 1799SOL    HW2 6928   6.243   2.266   3.453  0.8300  0.1546  1.4197
 1799SOL    HW3 6929   6.306   2.385   3.385 -0.5325  0.3045  0.3768
 1799SOL    MW4 6930   6.264   2.350   3.452  0.1626  0.2214 -0.2505
 1800SOL     OW 6931   3.647   1.480   0.160 -0.0783 -0.4260 -0.5989
 1800SOL    HW2 6932   3.685   1.558   0.203 -1.5394 -0.4949  0.9411
 1800SOL    HW3 6933   3.553   1.498   0.157 -0.7967 -2.9422  1.8027
 1800SOL    MW4 6934   3.640   1.493   0.165 -0.0925 -0.4811 -0.0836
 1801SOL     OW 6935   3.528   0.899   4.655  0.0002  0.0641  0.0143
 1801SOL    HW2 6936   3.621   0.921   4.664 -0.4134  2.4938 -0.9084
 1801SOL    HW3 6937   3.492   0.911   4.743  0.7278 -2.2393  0.7076
 1801SOL    MW4 6938   3.536   0.904   4.668 -0.1169 -0.3242  0.0644
 1802SOL     OW 6939   1.576   0.294   6.373  0.0479 -0.0247 -0.0673
 1802SOL    HW2 6940   1.599   0.229   6.439 -0.1563  0.7079  0.7404
 1802SOL    HW3 6941   1.612   0.259   6.291 -0.1939 -1.2209  0.3152
 1802SOL    MW4 6942   1.583   0.281   6.371  0.1411  0.3375  0.2938
 1803SOL     OW 6943   5.922   1.691   3.838 -0.0726  0.3635 -0.0549
 1803SOL    HW2 6944   5.994   1.656   3.890 -0.6936  2.0901  2.1382
 1803SOL    HW3 6945   5.949   1.781   3.818 -0.7783  0.3897 -0.9621
 1803SOL    MW4 6946   5.935   1.698   3.842 -0.8279 -0.4678 -0.1668
 1804SOL     OW 6947   4.439   2.765   5.813  0.3916  0.0070  0.0767
 1804SOL    HW2 6948   4.507   2.722   5.762 -1.0051 -1.5370 -0.5931
 1804SOL    HW3 6949   4.385   2.810   5.747 -0.1284 -0.1205  0.4057
 1804SOL    MW4 6950   4.441   2.765   5.797 -0.0137 -0.1969 -0.6777
 1805SOL     OW 6951   3.260   4.083   3.528  0.1219 -0.5933  0.2217
 1805SOL    HW2 6952   3.338   4.076   3.583  1.1807  0.5951 -1.0440
 1805SOL    HW3 6953   3.266   4.171   3.490 -1.9325 -0.4175  0.2065
 1805SOL    MW4 6954   3.271   4.094   3.530  0.3265 -0.4872 -0.1343
 1806SOL     OW 6955   4.865   4.002   2.736  0.4239  0.4984  0.0916
 1806SOL    HW2 6956   4.937   4.027   2.793  0.6847  0.8492 -0.3798
 1806SOL    HW3 6957   4.787   4.039   2.777  0.5208  0.1549  0.5808
 1806SOL    MW4 6958   4.865   4.010   2.749  0.3909  0.1858  0.2285
 1807SOL     OW 6959   0.717   4.233   3.181  0.1239  0.1150 -0.1966
 1807SOL    HW2 6960   0.689   4.294   3.249  1.0865  1.1357 -0.6632
 1807SOL    HW3 6961   0.691   4.276   3.099  1.0806  0.0587 -0.5436
 1807SOL    MW4 6962   0.710   4.247   3.179  0.5001  0.4252 -0.0430
 1808SOL     OW 6963   5.989   0.173   2.719 -0.0404  0.2376  0.4404
 1808SOL    HW2 6964   5.976   0.128   2.636  0.7935 -0.5862  0.7258
 1808SOL    HW3 6965   5.985   0.266   2.698  0.2826  0.0364 -0.5373
 1808SOL    MW4 6966   5.987   0.179   2.705 -0.2441 -0.0846  0.1796
 1809SOL     OW 6967   5.410   5.253   6.060  0.2370  0.6256 -0.1877
 1809SOL    HW2 6968   5.340   5.227   6.120  1.3339  1.2645  1.4270
 1809SOL    HW3 6969   5.367   5.314   5.999  0.1219  4.5259  3.3876
 1809SOL    MW4 6970   5.395   5.257   6.060  0.8934 -0.6887  0.1174
 1810SOL     OW 6971   1.254   3.406   4.327 -0.1551 -0.3044  0.2164
 1810SOL    HW2 6972   1.201   3.376   4.253  1.1860  0.0494 -0.9406
 1810SOL    HW3 6973   1.310   3.332   4.349 -0.1057 -0.1994  0.4504
 1810SOL    MW4 6974   1.254   3.393   4.320  0.7144  0.6607  0.2112
 1811SOL     OW 6975   4.591   5.787   3.932  1.0958  0.1663  0.8353
 1811SOL    HW2 6976   4.677   5.745   3.939  1.2484  0.6594  2.0790
 1811SOL    HW3 6977   4.545   5.762   4.012 -0.1143 -0.4935 -0.0429
 1811SOL    MW4 6978   4.596   5.778   3.943  0.2845 -0.5462 -0.2946
 1812SOL     OW 6979   0.234   3.833   0.327 -0.0592 -0.3899  0.4107
 1812SOL    HW2 6980   0.204   3.819   0.237 -0.6771  1.9611  0.1852
 1812SOL    HW3 6981   0.321   3.871   0.318  0.0749 -0.5902  0.8238
 1812SOL    MW4 6982   0.241   3.836   0.314  0.3280  0.0430  0.7686
 1813SOL     OW 6983   4.867   2.201   5.917 -0.4299  0.3667 -0.7917
 1813SOL    HW2 6984   4.823   2.131   5.966 -0.5952 -0.7214 -2.4050
 1813SOL    HW3 6985   4.804   2.274   5.918 -0.7159  0.1131  0.0148
 1813SOL    MW4 6986   4.853   2.202   5.923 -0.1146  0.5679  0.1384
 1814SOL     OW 6987   2.956   6.040   2.014  0.2039  0.5722 -0.4332
 1814SOL    HW2 6988   2.972   6.034   2.108  0.8379 -1.0044 -0.6094
 1814SOL    HW3 6989   2.871   5.998   2.001 -0.7945  2.4839 -0.3703
 1814SOL    MW4 6990   2.947   6.034   2.025 -0.1359 -0.2275 -0.3139
 1815SOL     OW 6991   0.272   0.291   1.387 -0.0742 -0.3276 -0.4998
 1815SOL    HW2 6992   0.339   0.329   1.444  0.2245 -2.5527  0.7787
 1815SOL    HW3 6993   0.306   0.304   1.299  1.1423  0.2246  0.0205
 1815SOL    MW4 6994   0.285   0.297   1.383 -0.1218 -0.2373 -0.2266
 1816SOL     OW 6995   3.251   2.516   2.934 -0.6633  0.3802  0.3128
 1816SOL    HW2 6996   3.162   2.518   2.969 -1.5625 -0.5617 -1.7806
 1816SOL    HW3 6997   3.243   2.552   2.846  0.7370 -1.1961 -0.5015
 1816SOL    MW4 6998   3.238   2.521   2.927  0.4002 -0.0565 -0.3525
 1817SOL     OW 6999   1.194   0.134   3.572  0.4066  0.0055  0.7137
 1817SOL    HW2 7000   1.149   0.055   3.601 -1.0194  0.2196 -0.7705
 1817SOL    HW3 7001   1.285   0.107   3.562  0.0053 -1.3750  0.5697
 1817SOL    MW4 7002   1.200   0.120   3.575  0.0538  0.0645 -0.0616
 1818SOL     OW 7003   1.202   3.752   0.890  0.4450  0.1873 -0.9559
 1818SOL    HW2 7004   1.245   3.806   0.957 -0.5307 -0.8878  0.5989
 1818SOL    HW3 7005   1.271   3.692   0.861  1.1388  1.2878 -1.6525
 1818SOL    MW4 7006   1.217   3.751   0.895  0.2190 -0.8729  0.4346
 1819SOL     OW 7007   2.964   4.099   0.357  0.7345 -0.1223  0.1779
 1819SOL    HW2 7008   3.002   4.044   0.288  2.5649  2.5816 -1.1387
 1819SOL    HW3 7009   2.870   4.100   0.338  0.7982 -1.8019 -0.4167
 1819SOL    MW4 7010   2.957   4.092   0.346 -0.5623  0.8194 -0.3150
 1820SOL     OW 7011   0.419   5.811   1.649  0.8410  0.2148  0.1523
 1820SOL    HW2 7012   0.344   5.849   1.694 -0.1876 -0.0178 -1.2911
 1820SOL    HW3 7013   0.494   5.860   1.682 -0.1076  1.4513  0.5507
 1820SOL    MW4 7014   0.419   5.822   1.660 -0.3919  0.3740  0.4121
 1821SOL     OW 7015   2.838   5.154   5.681 -0.2188  0.1906 -0.2561
 1821SOL    HW2 7016   2.883   5.159   5.596  0.5796  0.7070  0.1798
 1821SOL    HW3 7017   2.808   5.243   5.697 -0.9577 -0.0442 -0.2930
 1821SOL    MW4 7018   2.840   5.166   5.672 -0.2063  0.1243 -0.0259
 1822SOL     OW 7019   1.841   0.698   6.333 -0.4876  0.2079  0.0099
 1822SOL    HW2 7020   1.811   0.629   6.391 -0.4525  0.0924 -0.1094
 1822SOL    HW3 7021   1.801   0.677   6.248  0.9595 -0.6589 -0.4769
 1822SOL    MW4 7022   1.832   0.686   6.330  0.5774  0.2097  0.2142
 1823SOL     OW 7023   3.055   1.867   6.235  0.4380  0.0317 -0.8679
 1823SOL    HW2 7024   3.143   1.836   6.216  1.2128 -0.0898  2.3512
 1823SOL    HW3 7025   3.030   1.819   6.314 -2.6139 -0.0354 -1.7446
 1823SOL    MW4 7026   3.063   1.857   6.243  0.2363 -0.4525  0.4323
 1824SOL     OW 7027   6.289   1.554   1.004  0.5777 -0.0788  0.1945
 1824SOL    HW2 7028   6.242   1.503   1.070 -0.2508  0.9149  0.4061
 1824SOL    HW3 7029   6.300   1.495   0.930 -2.0727 -0.0483 -0.3407
 1824SOL    MW4 7030   6.284   1.540   1.003  0.1408 -0.1287 -0.3628
 1825SOL     OW 7031   0.415   1.404   1.551 -0.0062  0.5437  0.5390
 1825SOL    HW2 7032   0.455   1.373   1.633  0.5392 -1.2978 -0.3743
 1825SOL    HW3 7033   0.335   1.353   1.543  0.8033 -0.5590 -0.9050
 1825SOL    MW4 7034   0.410   1.393   1.561 -0.0370  0.0101  0.3910
 1826SOL     OW 7035   1.044   1.574   3.920 -0.1379  0.1748  0.1574
 1826SOL    HW2 7036   1.138   1.581   3.938  0.4702 -1.7846 -1.8731
 1826SOL    HW3 7037   1.031   1.622   3.839 -0.4398 -1.3826 -0.7497
 1826SOL    MW4 7038   1.055   1.581   3.912 -0.4339  0.1323  0.0341
 1827SOL     OW 7039   3.887   3.502   5.922  0.3941  0.3919 -0.5242
 1827SOL    HW2 7040   3.843   3.422   5.950  0.2088  0.7369  0.1744
 1827SOL    HW3 7041   3.826   3.542   5.859 -0.1611  0.7116  0.2086
 1827SOL    MW4 7042   3.873   3.497   5.917 -0.2885  0.2206 -0.6323
 1828SOL     OW 7043   0.247   1.640   2.770 -0.0984  0.3103  0.3457
 1828SOL    HW2 7044   0.212   1.652   2.682 -1.1742 -1.2119  0.5395
 1828SOL    HW3 7045   0.171   1.647   2.828  0.1500 -1.2610  0.9213
 1828SOL    MW4 7046   0.232   1.643   2.766 -0.0215 -0.5853 -0.1666
 1829SOL     OW 7047   1.985   5.123   2.738  0.1329  0.1030  0.3140
 1829SOL    HW2 7048   1.999   5.201   2.685 -1.3425  0.2136  0.0507
 1829SOL    HW3 7049   1.893   5.129   2.766  0.4479 -0.7204  1.6166
 1829SOL    MW4 7050   1.974   5.134   2.735 -0.1730 -0.0385  0.4252
 1830SOL     OW 7051   1.181   5.150   4.047  0.2219  0.1707 -0.3172
 1830SOL    HW2 7052   1.105   5.203   4.024  0.0214 -0.1685 -0.4275
 1830SOL    HW3 7053   1.146   5.064   4.068  0.1697  0.8845  3.0180
 1830SOL    MW4 7054   1.167   5.146   4.047  0.4019 -0.0573  0.1004
 1831SOL     OW 7055   2.650   1.837   3.372 -0.4034  0.2826  0.0613
 1831SOL    HW2 7056   2.664   1.819   3.279 -0.5166  0.2824  0.0440
 1831SOL    HW3 7057   2.567   1.795   3.392  1.0180 -2.3878  0.8780
 1831SOL    MW4 7058   2.641   1.829   3.362 -1.4326 -0.8718  0.3666
 1832SOL     OW 7059   6.330   3.615   2.269  0.7668 -0.4046  0.3749
 1832SOL    HW2 7060   6.276   3.644   2.343 -0.7256  0.9993 -1.1815
 1832SOL    HW3 7061   6.281   3.542   2.231  0.4414  0.2022 -0.4161
 1832SOL    MW4 7062   6.317   3.609   2.274  0.0864 -0.5037 -0.0899
 1833SOL     OW 7063   0.869   3.959   5.821 -0.2798  0.3466  0.2509
 1833SOL    HW2 7064   0.934   3.969   5.891  0.1118 -4.3202  0.8931
 1833SOL    HW3 7065   0.791   4.003   5.854  0.9110  1.1842  2.0791
 1833SOL    MW4 7066   0.867   3.966   5.835 -0.1178 -0.5752 -0.3709
 1834SOL     OW 7067   3.615   2.914   5.566 -0.6127 -0.5159  0.1433
 1834SOL    HW2 7068   3.680   2.878   5.506 -0.1727  1.0695 -0.3913
 1834SOL    HW3 7069   3.535   2.919   5.515 -0.7437 -0.9688  0.3007
 1834SOL    MW4 7070   3.613   2.910   5.552  0.1074 -0.4495  0.1870
 1835SOL     OW 7071   0.424   0.320   5.754 -0.3796 -0.2804  0.1393
 1835SOL    HW2 7072   0.398   0.242   5.803 -1.2410  0.6947  1.3150
 1835SOL    HW3 7073   0.346   0.376   5.754  0.2699  0.6638 -0.4915
 1835SOL    MW4 7074   0.411   0.317   5.761 -0.3525 -0.5559  0.3395
 1836SOL     OW 7075   4.690   0.658   5.886 -0.7298 -0.5767 -0.4254
 1836SOL    HW2 7076   4.722   0.703   5.964  0.4235 -0.2214 -1.0890
 1836SOL    HW3 7077   4.760   0.668   5.821 -2.0748  0.0684 -1.8616
 1836SOL    MW4 7078   4.703   0.665   5.888  0.5700  0.0899  0.5308
 1837SOL     OW 7079   6.399   6.278   2.746 -0.0910 -0.1047 -0.1695
 1837SOL    HW2 7080   6.445   6.345   2.696 -0.9856  0.0360 -0.8300
 1837SOL    HW3 7081   6.317   6.319   2.772 -0.4061 -0.7615 -0.1000
 1837SOL    MW4 7082   6.394   6.292   2.743  0.0485 -0.0574 -0.3060
 1838SOL     OW 7083   2.003   2.089   4.227  0.1942  0.7982 -0.7640
 1838SOL    HW2 7084   2.046   2.016   4.183 -0.0519  0.9380 -1.2366
 1838SOL    HW3 7085   1.921   2.102   4.178  1.0826  2.5921 -1.8543
 1838SOL    MW4 7086   1.998   2.081   4.215  0.1145  0.6104  0.2870
 1839SOL     OW 7087   2.689   4.486   1.411 -0.3374  0.0563 -0.5254
 1839SOL    HW2 7088   2.723   4.480   1.500  0.6685  2.0923 -0.7240
 1839SOL    HW3 7089   2.726   4.410   1.366 -0.3164 -0.6220  0.6069
 1839SOL    MW4 7090   2.698   4.475   1.417 -0.3258  0.2636 -0.2512
 1840SOL     OW 7091   1.816   2.960   1.867  0.3375 -0.0218  0.0307
 1840SOL    HW2 7092   1.894   2.905   1.867  0.8429  0.6686 -0.5673
 1840SOL    HW3 7093   1.851   3.050   1.862 -0.4979  0.2808 -0.4663
 1840SOL    MW4 7094   1.831   2.965   1.866  0.2625  0.0040  0.3624
 1841SOL     OW 7095   2.028   0.632   2.017 -1.1545 -0.1126 -0.4124
 1841SOL    HW2 7096   2.040   0.703   1.953 -0.3898 -0.7360 -0.9886
 1841SOL    HW3 7097   2.027   0.676   2.102  0.5000  0.4991 -0.6739
 1841SOL    MW4 7098   2.030   0.648   2.020  0.2694  0.1145  0.6756
 1842SOL     OW 7099   3.721   3.046   4.760 -0.5259 -0.4829 -1.0223
 1842SOL    HW2 7100   3.669   3.126   4.761 -0.5239 -0.4696  0.6842
 1842SOL    HW3 7101   3.658   2.976   4.745 -0.8272 -0.3451 -0.3947
 1842SOL    MW4 7102   3.706   3.047   4.758 -0.1742 -0.1266  0.0356
 1843SOL     OW 7103   1.056   1.391   0.456  0.5314  0.1042 -0.1127
 1843SOL    HW2 7104   0.989   1.335   0.417  1.8454 -0.5253 -1.6319
 1843SOL    HW3 7105   1.029   1.480   0.434 -0.1683 -0.0957 -0.0743
 1843SOL    MW4 7106   1.044   1.395   0.448 -0.4213  0.3570 -0.4846
 1844SOL     OW 7107   0.486   4.838   4.941 -0.2173 -0.3587 -0.0888
 1844SOL    HW2 7108   0.461   4.775   5.008 -1.1785 -0.5819 -0.6281
 1844SOL    HW3 7109   0.512   4.917   4.989 -2.0802 -0.0878  0.5437
 1844SOL    MW4 7110   0.486   4.840   4.956  1.0165  0.6543  0.3428
 1845SOL     OW 7111   5.418   4.207   3.512 -0.3841 -0.1356 -0.3110
 1845SOL    HW2 7112   5.326   4.226   3.533 -1.0280 -1.2285 -1.9382
 1845SOL    HW3 7113   5.417   4.188   3.418  1.0694 -2.6176  0.0964
 1845SOL    MW4 7114   5.406   4.207   3.503 -0.3041 -0.6645 -0.5204
 1846SOL     OW 7115   3.994   0.080   0.299 -1.0876  0.4499 -0.0394
 1846SOL    HW2 7116   4.061   0.011   0.296 -1.0819  0.3910  1.1023
 1846SOL    HW3 7117   4.032   0.148   0.354 -1.7684  0.6277  0.2199
 1846SOL    MW4 7118   4.008   0.080   0.306 -0.1395 -0.5596  0.2173
 1847SOL     OW 7119   4.796   2.050   3.120 -0.0398 -0.2447  0.3319
 1847SOL    HW2 7120   4.840   2.051   3.034  0.1396 -1.2143  0.4000
 1847SOL    HW3 7121   4.866   2.068   3.183 -0.0803 -0.0134  0.3118
 1847SOL    MW4 7122   4.811   2.053   3.117 -0.3649 -0.5553  0.2045
 1848SOL     OW 7123   1.068   3.293   5.347 -0.0520 -0.2565  0.0764
 1848SOL    HW2 7124   1.013   3.371   5.345 -0.7420 -0.7159  0.7345
 1848SOL    HW3 7125   1.076   3.268   5.255  0.7182  0.9410 -0.2106
 1848SOL    MW4 7126   1.062   3.300   5.334  0.2137  0.5686 -0.1961
 1849SOL     OW 7127   2.635   2.028   1.411  0.2771 -0.3377  0.1658
 1849SOL    HW2 7128   2.592   1.950   1.376  2.4522 -1.2773 -0.6332
 1849SOL    HW3 7129   2.703   2.048   1.346  1.5711  0.5441  1.7139
 1849SOL    MW4 7130   2.638   2.020   1.397 -0.0637  0.5044  0.0095
 1850SOL     OW 7131   1.183   5.358   1.075  0.9108  0.0193 -0.7962
 1850SOL    HW2 7132   1.193   5.374   0.981  0.4331 -0.7891 -0.9979
 1850SOL    HW3 7133   1.103   5.404   1.098  0.0248 -1.2460 -1.1902
 1850SOL    MW4 7134   1.174   5.366   1.066 -0.1078 -0.2591 -0.1718
 1851SOL     OW 7135   0.178   1.257   0.280  0.2869 -0.0969 -0.0704
 1851SOL    HW2 7136   0.259   1.302   0.303  0.1150  0.6302 -0.8421
 1851SOL    HW3 7137   0.174   1.184   0.341  0.4107  1.1022  1.4420
 1851SOL    MW4 7138   0.188   1.253   0.291 -0.5536 -0.0562 -0.1814
 1852SOL     OW 7139   1.480   5.608   4.080  0.1219  0.0671  0.6871
 1852SOL    HW2 7140   1.414   5.585   4.146 -0.3407  0.6153  0.4181
 1852SOL    HW3 7141   1.510   5.523   4.046 -0.1321 -0.1965  1.1190
 1852SOL    MW4 7142   1.475   5.593   4.084 -0.1826  0.0064  0.0826
 1853SOL     OW 7143   5.559   4.133   3.782 -0.2104 -0.0447 -0.0792
 1853SOL    HW2 7144   5.633   4.194   3.789  0.9385 -1.2141 -1.5038
 1853SOL    HW3 7145   5.548   4.119   3.688 -2.3027  0.1094  0.0932
 1853SOL    MW4 7146   5.567   4.140   3.771 -0.0035  0.4785  0.5248
 1854SOL     OW 7147   5.622   0.807   4.787 -0.1051 -0.0300  0.1875
 1854SOL    HW2 7148   5.678   0.835   4.859 -0.3152 -1.8161  1.1017
 1854SOL    HW3 7149   5.541   0.857   4.798 -0.2045 -0.4074  1.3278
 1854SOL    MW4 7150   5.619   0.817   4.798  0.0225 -0.4446  1.1369
 1855SOL     OW 7151   3.587   6.334   4.256 -0.6702 -0.2613  0.2382
 1855SOL    HW2 7152   3.533   6.290   4.322  1.0281 -2.3674  0.3399
 1855SOL    HW3 7153   3.563   6.293   4.173 -0.3533 -0.0872  0.0559
 1855SOL    MW4 7154   3.577   6.323   4.254 -0.3234  0.5915  0.5019
 1856SOL     OW 7155   4.115   4.211   1.592 -0.2879 -0.1864 -0.0567
 1856SOL    HW2 7156   4.070   4.295   1.605 -1.3624 -0.8093  0.4631
 1856SOL    HW3 7157   4.049   4.145   1.615 -0.4155 -1.2787 -3.0441
 1856SOL    MW4 7158   4.100   4.213   1.597  0.4282  0.2992  0.4782
 1857SOL     OW 7159   0.350   4.501   2.334 -0.3259 -0.4369 -0.0317
 1857SOL    HW2 7160   0.392   4.586   2.322 -2.4133  0.7516  0.6081
 1857SOL    HW3 7161   0.363   4.457   2.250  4.8967 -1.5925  1.0028
 1857SOL    MW4 7162   0.357   4.506   2.321  0.0282 -0.2030  0.5006
 1858SOL     OW 7163   6.282   2.418   4.811  0.4310  0.2936  0.1637
 1858SOL    HW2 7164   6.305   2.345   4.753  1.8007  1.0052 -0.2283
 1858SOL    HW3 7165   6.275   2.378   4.898 -2.7031 -0.9963 -0.5345
 1858SOL    MW4 7166   6.284   2.403   4.815 -0.3437  0.3161 -0.1138
 1859SOL     OW 7167   2.519   0.268   1.726 -0.1859  0.2576  0.1030
 1859SOL    HW2 7168   2.562   0.353   1.742 -0.3059  0.3814 -0.2316
 1859SOL    HW3 7169   2.437   0.273   1.774  0.8911 -0.6201  2.1656
 1859SOL    MW4 7170   2.514   0.280   1.734 -1.0751 -0.3782 -0.1028
 1860SOL     OW 7171   2.860   3.831   1.082 -0.0234  0.0033  0.0570
 1860SOL    HW2 7172   2.863   3.800   0.991  1.0222  1.7708 -0.5870
 1860SOL    HW3 7173   2.898   3.760   1.133 -0.0948 -0.7959 -0.9606
 1860SOL    MW4 7174   2.865   3.818   1.077 -0.2841  0.2502 -0.0842
 1861SOL     OW 7175   0.104   6.016   2.329  0.0912  0.2560  0.3841
 1861SOL    HW2 7176   0.110   5.941   2.388 -0.7642  1.0669  1.5485
 1861SOL    HW3 7177   0.027   5.998   2.275  0.4985 -0.1805 -0.0661
 1861SOL    MW4 7178   0.094   6.004   2.330 -0.3286 -0.0596 -0.2750
 1862SOL     OW 7179   4.043   5.847   4.853 -0.2568 -0.8772  0.3693
 1862SOL    HW2 7180   4.035   5.819   4.944  2.2438 -1.8818  0.3652
 1862SOL    HW3 7181   4.043   5.943   4.858  2.4510 -0.8355  1.8559
 1862SOL    MW4 7182   4.042   5.856   4.866  0.3732  0.2139 -0.4018
 1863SOL     OW 7183   4.816   2.913   3.596 -0.2374  0.1323 -0.2814
 1863SOL    HW2 7184   4.775   2.963   3.526 -2.7400 -1.9856 -0.4554
 1863SOL    HW3 7185   4.869   2.847   3.551 -1.4817 -0.9353 -0.2363
 1863SOL    MW4 7186   4.818   2.911   3.581  0.1971  0.5905  0.0427
 1864SOL     OW 7187   1.237   4.669   3.604 -0.5659 -0.0472  0.0231
 1864SOL    HW2 7188   1.207   4.757   3.583  0.1385  0.3105  0.4628
 1864SOL    HW3 7189   1.235   4.623   3.520 -1.8968  0.0825 -0.0279
 1864SOL    MW4 7190   1.233   4.675   3.590 -0.2470  0.5011 -0.5419
 1865SOL     OW 7191   0.259   0.068   3.448 -0.3101  0.0289  0.5439
 1865SOL    HW2 7192   0.204   0.074   3.369  0.0503  0.4800  0.3267
 1865SOL    HW3 7193   0.348   0.060   3.415 -0.1349  0.4701  0.9127
 1865SOL    MW4 7194   0.263   0.067   3.433  0.0867  0.1159  0.3707
 1866SOL     OW 7195   3.633   3.538   4.665 -0.0402  0.0780 -0.1291
 1866SOL    HW2 7196   3.702   3.590   4.707  0.1055 -0.7261  0.6552
 1866SOL    HW3 7197   3.552   3.586   4.685  0.0017 -0.4122  1.2965
 1866SOL    MW4 7198   3.631   3.552   4.673 -0.0234 -0.3737  0.3997
 1867SOL     OW 7199   6.144   0.660   3.348 -0.3465  0.6957 -0.2725
 1867SOL    HW2 7200   6.076   0.726   3.361  0.2039  1.1646  0.2303
 1867SOL    HW3 7201   6.095   0.578   3.338 -0.9666  0.9340  0.6778
 1867SOL    MW4 7202   6.128   0.658   3.348 -0.3686  0.0730 -0.3917
 1868SOL     OW 7203   2.276   3.579   0.687 -0.1407  0.7123  0.1194
 1868SOL    HW2 7204   2.358   3.620   0.715  1.3483 -0.8523 -1.7089
 1868SOL    HW3 7205   2.208   3.627   0.734  1.8887  0.8507  3.1853
 1868SOL    MW4 7206   2.278   3.591   0.697 -0.3491  0.0242  0.0654
 1869SOL     OW 7207   1.932   2.773   0.325 -0.4350  0.3051  0.5106
 1869SOL    HW2 7208   1.852   2.751   0.371 -0.7851 -1.0400 -0.6621
 1869SOL    HW3 7209   1.905   2.784   0.234  0.6291  0.3360  0.1817
 1869SOL    MW4 7210   1.918   2.771   0.319  0.4756 -0.0376  0.0080
 1870SOL     OW 7211   1.603   1.251   3.533 -0.0651 -0.9393 -0.7923
 1870SOL    HW2 7212   1.538   1.181   3.533 -1.6056  0.3562  1.4940
 1870SOL    HW3 7213   1.685   1.208   3.510 -0.9167 -3.5372  0.6401
 1870SOL    MW4 7214   1.605   1.236   3.530  0.2103  0.0532 -0.5290
 1871SOL     OW 7215   3.320   1.816   2.354  0.3115 -0.2516  0.2775
 1871SOL    HW2 7216   3.330   1.800   2.448 -1.2506  2.0386  0.9136
 1871SOL    HW3 7217   3.394   1.872   2.331 -0.1176  0.4235  0.5085
 1871SOL    MW4 7218   3.331   1.821   2.363 -0.5537  0.1385 -0.0322
 1872SOL     OW 7219   1.709   5.805   3.013 -0.2088 -0.3828  0.3920
 1872SOL    HW2 7220   1.726   5.897   3.033  0.1480 -0.4844  0.5616
 1872SOL    HW3 7221   1.636   5.807   2.952 -0.7033 -0.0220  0.9883
 1872SOL    MW4 7222   1.702   5.817   3.007 -0.2647 -0.3574 -0.0757
 1873SOL     OW 7223   3.203   3.543   4.523  0.5472 -0.2059  0.1996
 1873SOL    HW2 7224   3.178   3.473   4.583 -1.4656  0.3904  0.1412
 1873SOL    HW3 7225   3.279   3.584   4.564  0.3387 -0.9805  1.4131
 1873SOL    MW4 7226   3.209   3.539   4.537  0.1056  0.4465  0.4497
 1874SOL     OW 7227   3.011   4.331   5.211 -0.0482  0.0535 -0.3212
 1874SOL    HW2 7228   3.043   4.420   5.195 -0.7449  0.9644  2.6987
 1874SOL    HW3 7229   3.090   4.277   5.213  0.3484  0.4543 -2.6438
 1874SOL    MW4 7230   3.025   4.336   5.209 -0.5005 -0.8542  0.5557
 1875SOL     OW 7231   3.408   1.495   3.706  0.6701 -0.8050 -0.2283
 1875SOL    HW2 7232   3.316   1.506   3.680  0.8213  0.3595 -0.3547
 1875SOL    HW3 7233   3.421   1.564   3.772  1.1383 -1.7181  0.6574
 1875SOL    MW4 7234   3.397   1.506   3.711  0.7482 -0.8400 -0.5754
 1876SOL     OW 7235   0.204   4.348   4.681 -0.4865 -0.6035  0.4804
 1876SOL    HW2 7236   0.208   4.441   4.704  1.2350 -0.1227 -1.4807
 1876SOL    HW3 7237   0.279   4.308   4.724 -0.7631 -0.9385  0.6633
 1876SOL    MW4 7238   0.214   4.355   4.689  0.0821 -0.4052 -0.1751
 1877SOL     OW 7239   1.270   3.475   0.164  0.1042 -0.2055  0.2628
 1877SOL    HW2 7240   1.235   3.445   0.080 -0.1687 -1.5241  0.8159
 1877SOL    HW3 7241   1.193   3.505   0.213 -0.1345 -1.9185  1.0043
 1877SOL    MW4 7242   1.255   3.475   0.160 -0.6376 -0.7724  0.1484
 1878SOL     OW 7243   6.351   3.281   1.113 -0.1405 -0.4165  0.1357
 1878SOL    HW2 7244   6.425   3.319   1.160 -1.3165  0.7321  1.1116
 1878SOL    HW3 7245   6.358   3.187   1.129  2.5142 -0.6681 -1.8775
 1878SOL    MW4 7246   6.362   3.274   1.121 -0.3295  0.3974 -0.4729
 1879SOL     OW 7247   3.777   4.634   4.342  0.6359 -0.6510 -0.2466
 1879SOL    HW2 7248   3.829   4.711   4.319  1.2889 -1.2807 -0.9654
 1879SOL    HW3 7249   3.687   4.657   4.319  0.8270 -0.1220 -0.4771
 1879SOL    MW4 7250   3.772   4.647   4.336  0.6822  0.4542 -0.0293
 1880SOL     OW 7251   3.079   3.447   2.737  0.0464  0.0600 -0.3618
 1880SOL    HW2 7252   3.095   3.541   2.727 -0.5765 -0.0562 -3.2629
 1880SOL    HW3 7253   3.157   3.406   2.701 -0.0912 -0.5457  0.0229
 1880SOL    MW4 7254   3.092   3.454   2.731  0.7642 -0.2390 -0.2962
 1881SOL     OW 7255   0.501   4.530   4.741 -0.2548 -0.0408 -0.4616
 1881SOL    HW2 7256   0.529   4.485   4.821 -1.1257  0.9604  0.4268
 1881SOL    HW3 7257   0.571   4.593   4.723 -0.1239 -0.1737 -0.4192
 1881SOL    MW4 7258   0.514   4.532   4.749 -0.3326  0.0648  0.4298
 1882SOL     OW 7259   3.599   5.922   5.075  0.5153 -0.0322  0.3640
 1882SOL    HW2 7260   3.656   5.897   5.002 -1.5224  1.7241 -1.9922
 1882SOL    HW3 7261   3.610   6.017   5.082 -1.2799  0.1866  0.5994
 1882SOL    MW4 7262   3.608   5.932   5.067  0.3061 -0.6440  0.4104
 1883SOL     OW 7263   1.063   6.046   5.183 -0.1469  0.1194  0.3614
 1883SOL    HW2 7264   1.008   5.997   5.121  0.4375 -0.8200  0.5583
 1883SOL    HW3 7265   1.125   5.981   5.216  1.8165  1.3589 -0.6751
 1883SOL    MW4 7266   1.064   6.031   5.179 -0.0694  0.2190 -0.1728
 1884SOL     OW 7267   5.055   1.849   2.965 -0.0430  0.1546  0.2541
 1884SOL    HW2 7268   4.993   1.784   2.999  0.6585 -1.1059 -0.7760
 1884SOL    HW3 7269   5.004   1.929   2.955 -1.5097 -0.8392 -0.5379
 1884SOL    MW4 7270   5.040   1.851   2.968  0.4166  0.3766  0.3976
 1885SOL     OW 7271   0.490   0.771   2.230  0.1400 -0.3090  0.5088
 1885SOL    HW2 7272   0.406   0.731   2.209  0.2386 -0.6487  0.7450
 1885SOL    HW3 7273   0.531   0.787   2.145  0.5329 -1.6720  0.4129
 1885SOL    MW4 7274   0.485   0.768   2.216 -0.3408  0.1187  0.2556
 1886SOL     OW 7275   2.807   0.191   3.308 -0.3380  0.3522 -0.2975
 1886SOL    HW2 7276   2.888   0.146   3.333 -0.4625  0.0782 -0.3871
 1886SOL    HW3 7277   2.821   0.282   3.335 -1.6540 -0.4445  3.7840
 1886SOL    MW4 7278   2.820   0.197   3.315 -0.1980  0.0128  0.2755
 1887SOL     OW 7279   4.938   3.256   5.299  0.1987 -0.5213 -0.0024
 1887SOL    HW2 7280   4.844   3.274   5.305  0.2819  1.1228 -2.2333
 1887SOL    HW3 7281   4.958   3.267   5.206  2.8954  0.9183  0.6512
 1887SOL    MW4 7282   4.928   3.260   5.288  0.4264  0.2663  0.7567
 1888SOL     OW 7283   3.790   1.587   5.779  0.1486  0.0105 -0.3256
 1888SOL    HW2 7284   3.766   1.496   5.799  1.6228 -0.3558 -0.0534
 1888SOL    HW3 7285   3.743   1.639   5.844 -0.4277 -0.5922 -0.2477
 1888SOL    MW4 7286   3.781   1.582   5.790 -0.3418 -0.2258  0.0916
 1889SOL     OW 7287   1.487   6.368  -0.001 -0.1483 -0.0831  0.2368
 1889SOL    HW2 7288   1.565   6.340  -0.049  0.8366  1.8626  0.5789
 1889SOL    HW3 7289   1.481   6.305   0.072  0.9567 -0.4359  0.0548
 1889SOL    MW4 7290   1.497   6.356   0.002  0.6820 -0.1911 -0.0823
 1890SOL     OW 7291   5.506   5.264   5.234  0.0023  0.7123 -0.2673
 1890SOL    HW2 7292   5.436   5.328   5.220  0.9363  1.6424 -0.9432
 1890SOL    HW3 7293   5.463   5.179   5.229 -1.0122  1.2492 -1.0601
 1890SOL    MW4 7294   5.491   5.261   5.232 -0.1003 -0.1558 -0.1821
 1891SOL     OW 7295   5.478   4.973   5.630 -0.0223  0.1585 -0.1703
 1891SOL    HW2 7296   5.438   4.912   5.692 -0.0326  0.1577 -0.1782
 1891SOL    HW3 7297   5.505   5.048   5.684 -0.3007  0.2897 -0.2117
 1891SOL    MW4 7298   5.477   4.975   5.645  0.0683  0.2841 -0.2972
 1892SOL     OW 7299   0.824   5.243   3.878  0.3792 -0.1296  0.0970
 1892SOL    HW2 7300   0.906   5.266   3.836 -0.4237  1.2162 -0.8262
 1892SOL    HW3 7301   0.849   5.211   3.965  1.8911 -0.2491 -0.3653
 1892SOL    MW4 7302   0.838   5.242   3.884  0.3046  0.0292  0.2750
 1893SOL     OW 7303   5.514   5.426   0.802 -0.1054 -0.0988 -0.4489
 1893SOL    HW2 7304   5.442   5.395   0.856  0.0999  0.0736 -0.0739
 1893SOL    HW3 7305   5.591   5.418   0.857  0.4758 -2.0187 -1.4517
 1893SOL    MW4 7306   5.515   5.421   0.816 -1.3813 -0.0345 -0.3372
 1894SOL     OW 7307   4.541   2.821   0.296  0.0568 -0.3542  0.0622
 1894SOL    HW2 7308   4.499   2.868   0.368 -0.2444 -1.4176  0.6155
 1894SOL    HW3 7309   4.634   2.819   0.320  0.0109 -0.3894  0.2426
 1894SOL    MW4 7310   4.548   2.827   0.309 -0.0903 -0.3599 -0.8450
 1895SOL     OW 7311   0.937   5.788   2.544  0.5030  0.0551 -0.0920
 1895SOL    HW2 7312   0.881   5.848   2.593  0.6467 -0.2828  0.5101
 1895SOL    HW3 7313   0.996   5.752   2.611 -0.5706 -1.9107 -0.1176
 1895SOL    MW4 7314   0.937   5.791   2.560  0.0652 -0.8821  0.0722
 1896SOL     OW 7315   2.961   5.735   5.535 -0.5954 -0.4905  0.3068
 1896SOL    HW2 7316   3.023   5.783   5.590  0.9264 -2.4477  0.4329
 1896SOL    HW3 7317   2.906   5.687   5.596 -0.9824 -0.2465  0.1561
 1896SOL    MW4 7318   2.962   5.735   5.550 -0.0738  0.2039  0.1576
 1897SOL     OW 7319   0.016   5.864   2.886  0.4780 -0.0170 -0.2411
 1897SOL    HW2 7320  -0.019   5.862   2.975  0.4421  0.6824 -0.2341
 1897SOL    HW3 7321   0.075   5.788   2.882  2.1706  1.1572  1.0749
 1897SOL    MW4 7322   0.019   5.853   2.897  0.0895 -0.0463  0.5803
 1898SOL     OW 7323   1.530   6.289   3.348  0.7033  0.1439  0.0344
 1898SOL    HW2 7324   1.502   6.221   3.409 -1.3058  1.4829  0.7054
 1898SOL    HW3 7325   1.625   6.291   3.356  0.7839 -2.2238  0.3345
 1898SOL    MW4 7326   1.539   6.280   3.357 -0.1306 -0.5317 -0.5648
 1899SOL     OW 7327   6.158   3.900   3.872 -0.3599 -0.6129 -0.0704
 1899SOL    HW2 7328   6.086   3.926   3.929  0.0523  0.4126 -0.0046
 1899SOL    HW3 7329   6.230   3.956   3.897  0.1409 -0.8740 -0.8928
 1899SOL    MW4 7330   6.158   3.911   3.883  0.0052 -0.0390 -0.4273
 1900SOL     OW 7331   6.245   1.796   5.607 -0.3561  0.5859 -0.0522
 1900SOL    HW2 7332   6.157   1.831   5.618 -0.0535  1.6713 -0.8555
 1900SOL    HW3 7333   6.295   1.831   5.681 -0.1593  1.5489 -0.6214
 1900SOL    MW4 7334   6.240   1.805   5.618 -0.3217  0.0815 -0.2569
 1901SOL     OW 7335   5.200   1.536   2.600 -0.4713 -0.6923 -0.3387
 1901SOL    HW2 7336   5.145   1.496   2.532 -0.4955 -1.2166 -0.0159
 1901SOL    HW3 7337   5.163   1.505   2.682 -0.4525 -0.0440 -0.0794
 1901SOL    MW4 7338   5.188   1.526   2.602 -0.3008 -0.4235 -0.1563
 1902SOL     OW 7339   1.483   2.354   4.294 -0.1638  0.4797  1.1026
 1902SOL    HW2 7340   1.416   2.313   4.349 -0.1485 -0.1739  0.6396
 1902SOL    HW3 7341   1.436   2.419   4.242 -0.9599 -1.6751 -1.0631
 1902SOL    MW4 7342   1.468   2.357   4.295  0.7882 -0.0986  0.2118
 1903SOL     OW 7343   2.549   2.504   0.096  0.2138 -0.4415 -0.4533
 1903SOL    HW2 7344   2.612   2.570   0.125 -1.4949  1.3433 -0.5760
 1903SOL    HW3 7345   2.467   2.528   0.141 -1.1564 -0.8239 -2.5869
 1903SOL    MW4 7346   2.546   2.516   0.106 -0.1014  0.8728 -0.5469
 1904SOL     OW 7347   3.412   1.986   5.863 -0.4859  0.4077 -0.4345
 1904SOL    HW2 7348   3.404   2.060   5.923 -1.1595 -1.2236  1.5719
 1904SOL    HW3 7349   3.332   1.990   5.810  0.0054  1.7197 -1.1304
 1904SOL    MW4 7350   3.401   1.997   5.864 -0.1899  0.3859 -0.2877
 1905SOL     OW 7351   2.423   4.525   4.836 -0.3040 -0.0179 -0.7438
 1905SOL    HW2 7352   2.489   4.470   4.794  0.2063 -1.0838  1.3063
 1905SOL    HW3 7353   2.349   4.465   4.852 -0.8682  0.6051 -0.9607
 1905SOL    MW4 7354   2.422   4.510   4.833  0.3206  0.2670  0.0195
 1906SOL     OW 7355   4.350   3.471   5.521 -0.6002  0.1850 -0.2515
 1906SOL    HW2 7356   4.443   3.453   5.537 -0.3685 -0.9060 -2.4355
 1906SOL    HW3 7357   4.311   3.473   5.608  1.5792  1.4906  0.8039
 1906SOL    MW4 7358   4.357   3.469   5.535 -0.3415  0.3572  0.5858
 1907SOL     OW 7359   4.305   3.585   6.323 -0.9527 -0.0399 -0.1942
 1907SOL    HW2 7360   4.299   3.679   6.342  1.2018 -0.1420  1.3863
 1907SOL    HW3 7361   4.392   3.573   6.286 -0.2085 -1.7004  1.8875
 1907SOL    MW4 7362   4.315   3.596   6.321 -0.2606  0.1967  0.1895
 1908SOL     OW 7363   6.187   4.205   2.574  0.3201 -0.0763 -0.2138
 1908SOL    HW2 7364   6.169   4.299   2.577  0.6147 -0.0053 -0.6349
 1908SOL    HW3 7365   6.216   4.189   2.485  2.7322 -0.0985  0.5170
 1908SOL    MW4 7366   6.188   4.215   2.563  0.5171  0.1591 -0.2178
 1909SOL     OW 7367   1.553   4.133   1.907  0.1091 -0.1933 -0.0984
 1909SOL    HW2 7368   1.563   4.144   2.002  0.1942 -2.5949  0.2250
 1909SOL    HW3 7369   1.458   4.137   1.893  0.0783 -0.1067  0.1213
 1909SOL    MW4 7370   1.541   4.135   1.918 -0.2565  0.5113  0.3002
 1910SOL     OW 7371   2.905   5.600   1.376 -0.1092  0.2432  0.2305
 1910SOL    HW2 7372   2.840   5.536   1.404  0.1761 -0.1041  0.1083
 1910SOL    HW3 7373   2.919   5.581   1.284  1.9917 -1.3607  0.7893
 1910SOL    MW4 7374   2.898   5.589   1.368  0.1406  0.0781 -0.2651
 1911SOL     OW 7375   6.059   4.420   5.732 -0.0560  0.1227  0.6454
 1911SOL    HW2 7376   6.133   4.458   5.780  0.1878 -0.9115  1.1251
 1911SOL    HW3 7377   6.064   4.326   5.752  1.0005 -0.6384 -2.6776
 1911SOL    MW4 7378   6.070   4.412   5.741  0.1536  0.2113  0.6246
 1912SOL     OW 7379   2.057   3.169   1.411  0.4323  0.2858  0.2639
 1912SOL    HW2 7380   2.110   3.091   1.395  1.0873  0.9249 -0.8256
 1912SOL    HW3 7381   2.092   3.206   1.493  0.0263 -0.6210  0.8571
 1912SOL    MW4 7382   2.068   3.164   1.420 -0.3910  0.1799  0.4592
 1913SOL     OW 7383   0.785   2.298   4.018 -0.1982  0.5950  0.0587
 1913SOL    HW2 7384   0.773   2.388   3.989 -0.9643  0.5073  0.0826
 1913SOL    HW3 7385   0.866   2.300   4.069  0.7239  0.9186 -1.3482
 1913SOL    MW4 7386   0.794   2.310   4.021  0.7678  0.3764 -0.0130
 1914SOL     OW 7387   6.179   2.703   5.478  0.6028  0.5923 -0.0525
 1914SOL    HW2 7388   6.162   2.765   5.549 -0.1636  0.7380 -0.3519
 1914SOL    HW3 7389   6.254   2.740   5.431  1.9457 -0.1392  1.4001
 1914SOL    MW4 7390   6.187   2.716   5.481  0.1722  0.6387  0.4630
 1915SOL     OW 7391   6.428   3.299   0.201 -0.5162  0.2772 -0.2347
 1915SOL    HW2 7392   6.484   3.288   0.278  0.9118 -0.4218 -1.3418
 1915SOL    HW3 7393   6.433   3.392   0.181  0.5288  0.1633 -0.5260
 1915SOL    MW4 7394   6.436   3.310   0.209 -0.2798 -0.2737  0.1253
 1916SOL     OW 7395   1.625   4.629   1.521 -0.5231 -0.5611 -0.6907
 1916SOL    HW2 7396   1.677   4.703   1.489 -0.5551  0.5425  1.6302
 1916SOL    HW3 7397   1.543   4.669   1.551 -0.0357 -1.2731  1.8070
 1916SOL    MW4 7398   1.621   4.644   1.520 -0.1329  0.4373 -0.0271
 1917SOL     OW 7399   2.266   0.770   1.481  0.3520 -0.8489 -0.1122
 1917SOL    HW2 7400   2.287   0.679   1.460  0.3120 -0.7644 -0.5331
 1917SOL    HW3 7401   2.199   0.795   1.417 -1.0071 -1.0948  1.1664
 1917SOL    MW4 7402   2.260   0.761   1.469 -0.7033 -0.1024  0.2597
 1918SOL     OW 7403   3.920   2.438   0.109  0.2195  0.2018 -0.0257
 1918SOL    HW2 7404   3.849   2.390   0.065 -2.1673  2.6736  0.7885
 1918SOL    HW3 7405   3.944   2.507   0.047  0.8656  0.2767  0.3065
 1918SOL    MW4 7406   3.914   2.441   0.095  0.4397 -0.2849  0.0423
 1919SOL     OW 7407   2.461   3.771   5.976  0.3967  0.2134 -0.1085
 1919SOL    HW2 7408   2.488   3.839   5.915  0.1665  2.1457  1.8059
 1919SOL    HW3 7409   2.537   3.756   6.032 -0.1608  0.3409  0.7086
 1919SOL    MW4 7410   2.474   3.778   5.976 -0.2207 -0.2349 -0.3750
 1920SOL     OW 7411   5.421   0.044   2.482  0.3305 -0.2972 -0.0712
 1920SOL    HW2 7412   5.421  -0.008   2.402 -2.4092 -1.5769  0.6529
 1920SOL    HW3 7413   5.370  -0.007   2.544 -0.0214  1.9550  1.6310
 1920SOL    MW4 7414   5.415   0.031   2.480  0.0953  0.9894 -1.2059
 1921SOL     OW 7415   2.218   4.413   4.270  0.0712  0.4951 -0.1540
 1921SOL    HW2 7416   2.178   4.500   4.274  0.1916  0.5094  3.2439
 1921SOL    HW3 7417   2.146   4.353   4.289  0.6927  0.1642  1.2451
 1921SOL    MW4 7418   2.203   4.416   4.273  0.4964 -0.2556  0.3215
 1922SOL     OW 7419   3.172   2.691   5.056 -0.1378  0.1766 -0.3728
 1922SOL    HW2 7420   3.146   2.780   5.034  1.9637  0.5592 -1.6472
 1922SOL    HW3 7421   3.130   2.636   4.990 -0.1563  0.4275 -0.5719
 1922SOL    MW4 7422   3.163   2.695   5.044 -0.3521  0.3550  0.3641
 1923SOL     OW 7423   3.596   1.785   6.163 -0.5354 -0.2871  0.4443
 1923SOL    HW2 7424   3.631   1.698   6.183  0.3520  0.1266  0.7528
 1923SOL    HW3 7425   3.633   1.806   6.077 -0.5132 -0.1044  0.4973
 1923SOL    MW4 7426   3.606   1.777   6.154  0.7409 -0.0907 -0.0744
 1924SOL     OW 7427   1.900   2.196   0.553 -0.3487 -0.1133  0.0072
 1924SOL    HW2 7428   1.948   2.152   0.483  0.0546 -0.0558  0.2481
 1924SOL    HW3 7429   1.950   2.176   0.632 -1.3250 -0.9944  0.4319
 1924SOL    MW4 7430   1.913   2.187   0.554 -0.1137  0.2207 -0.0554
 1925SOL     OW 7431   1.546   3.327   5.722  0.6810 -0.2714  0.0638
 1925SOL    HW2 7432   1.536   3.298   5.631  0.6078  0.5961 -0.2189
 1925SOL    HW3 7433   1.475   3.284   5.769 -0.0015  0.1896 -0.5256
 1925SOL    MW4 7434   1.535   3.318   5.716  0.3304 -0.0762  0.5566
 1926SOL     OW 7435   1.032   4.960   2.376  0.2415  0.1373 -0.0815
 1926SOL    HW2 7436   1.095   5.014   2.328  1.7471 -2.1627 -0.8811
 1926SOL    HW3 7437   1.086   4.912   2.440 -1.1283  0.0660  1.0672
 1926SOL    MW4 7438   1.048   4.961   2.378 -0.5811 -0.3666 -0.3402
 1927SOL     OW 7439   4.378   4.284   0.269 -0.0108  0.5704  0.2202
 1927SOL    HW2 7440   4.387   4.288   0.365  0.2347 -0.2825  0.2383
 1927SOL    HW3 7441   4.287   4.310   0.253 -0.2424  0.1103  0.7334
 1927SOL    MW4 7442   4.367   4.288   0.280 -0.2737  0.0341  0.3050
 1928SOL     OW 7443   3.480   1.509   1.047 -0.5863 -0.3088 -0.1281
 1928SOL    HW2 7444   3.460   1.593   1.089  0.9946 -0.3413  0.7491
 1928SOL    HW3 7445   3.521   1.534   0.963  0.0474 -0.1911  0.2116
 1928SOL    MW4 7446   3.483   1.523   1.041  0.8356 -0.2435 -0.1269
 1929SOL     OW 7447   3.997   5.336   6.379  0.1073  0.1090  0.3374
 1929SOL    HW2 7448   3.976   5.405   6.317  1.9952  1.1731  0.8172
 1929SOL    HW3 7449   4.089   5.315   6.363  0.2301 -0.6226  1.7875
 1929SOL    MW4 7450   4.006   5.342   6.369  0.2587  0.1127 -0.0639
 1930SOL     OW 7451   4.502   2.396   2.893  0.0228 -0.4152 -0.0019
 1930SOL    HW2 7452   4.456   2.312   2.890  0.3725 -0.6558  1.0779
 1930SOL    HW3 7453   4.573   2.383   2.956  0.4344  0.5205 -0.2523
 1930SOL    MW4 7454   4.505   2.383   2.901 -0.2057 -0.2809 -0.3120
 1931SOL     OW 7455   3.096   1.151   2.932 -0.4705  0.3727 -0.2111
 1931SOL    HW2 7456   3.163   1.087   2.907 -0.1343  0.3152  0.8121
 1931SOL    HW3 7457   3.141   1.210   2.992 -1.2170  0.5960  0.1311
 1931SOL    MW4 7458   3.111   1.150   2.936  0.3767 -0.1543 -0.3448
 1932SOL     OW 7459   3.942   3.052   1.866 -0.3962 -0.3789 -0.2262
 1932SOL    HW2 7460   3.952   3.144   1.843 -0.9195 -0.3292 -0.2599
 1932SOL    HW3 7461   3.848   3.036   1.861 -0.3019 -0.9346 -0.2975
 1932SOL    MW4 7462   3.931   3.062   1.862 -0.6112 -0.3783 -0.3595
 1933SOL     OW 7463   4.486   2.833   6.116  0.1026 -0.0842 -0.0809
 1933SOL    HW2 7464   4.432   2.761   6.147 -0.3511  0.0539 -0.5353
 1933SOL    HW3 7465   4.491   2.821   6.021  2.8757 -1.4814  0.1295
 1933SOL    MW4 7466   4.480   2.822   6.107  0.3655  0.2244 -0.3243
 1934SOL     OW 7467   2.631   4.313   3.450  0.5449 -0.5230 -0.7364
 1934SOL    HW2 7468   2.586   4.336   3.368  0.1863  0.9225 -0.1757
 1934SOL    HW3 7469   2.613   4.387   3.508  0.3307 -1.7610  0.8479
 1934SOL    MW4 7470   2.622   4.326   3.447  0.3529  0.0151  0.2048
 1935SOL     OW 7471   1.111   0.057   1.930  0.2320 -0.2725  0.9981
 1935SOL    HW2 7472   1.145   0.137   1.891  0.6691 -0.6207  0.6546
 1935SOL    HW3 7473   1.135   0.062   2.022 -0.2747  0.2711  1.1053
 1935SOL    MW4 7474   1.118   0.068   1.937  0.0788  0.0825  0.0644
 1936SOL     OW 7475   4.870   1.639   3.907  0.0113  0.6200  0.0167
 1936SOL    HW2 7476   4.904   1.558   3.944 -2.0280 -0.3113 -0.0373
 1936SOL    HW3 7477   4.858   1.697   3.983 -3.6128 -1.0824  0.9407
 1936SOL    MW4 7478   4.873   1.636   3.922  0.7589 -0.0010  0.3214
 1937SOL     OW 7479   2.946   0.346   0.383  0.0220 -0.2614 -0.3601
 1937SOL    HW2 7480   2.949   0.420   0.443 -0.1015  0.1633 -0.8745
 1937SOL    HW3 7481   3.008   0.368   0.314 -0.9357 -0.0498 -1.1773
 1937SOL    MW4 7482   2.954   0.359   0.382 -0.0450  0.0196  0.2957
 1938SOL     OW 7483   6.300   0.954   2.808 -0.4440  0.4016  0.3235
 1938SOL    HW2 7484   6.236   1.014   2.847 -1.3954 -0.3871 -0.0033
 1938SOL    HW3 7485   6.349   0.920   2.882  2.0257  3.6036  0.3985
 1938SOL    MW4 7486   6.298   0.958   2.823  0.9747  0.1903 -0.0518
 1939SOL     OW 7487   4.851   5.727   4.457  0.2091  0.1150 -0.0698
 1939SOL    HW2 7488   4.814   5.648   4.417  0.9428 -0.1163 -0.3127
 1939SOL    HW3 7489   4.792   5.748   4.529  1.3567 -2.1595  1.6849
 1939SOL    MW4 7490   4.839   5.719   4.461 -0.1061  0.1229  0.5753
 1940SOL     OW 7491   4.758   4.633   5.295 -0.2674 -0.1665  0.2623
 1940SOL    HW2 7492   4.718   4.717   5.316 -1.4921 -0.2151 -1.6628
 1940SOL    HW3 7493   4.759   4.630   5.199 -1.4066 -2.8247  0.2351
 1940SOL    MW4 7494   4.753   4.644   5.285  0.1975  0.6569  0.2375
 1941SOL     OW 7495   0.497   0.743   4.241  0.0608 -0.1574 -0.7773
 1941SOL    HW2 7496   0.426   0.753   4.305 -1.1716 -2.0950 -1.7868
 1941SOL    HW3 7497   0.481   0.813   4.177 -1.7943 -1.3795 -1.7261
 1941SOL    MW4 7498   0.485   0.754   4.241  0.2332 -0.4526  0.6969
 1942SOL     OW 7499   0.094   5.163   3.259  0.0240  0.6079 -0.0108
 1942SOL    HW2 7500   0.068   5.147   3.168  1.1246  0.8204 -0.3720
 1942SOL    HW3 7501   0.090   5.076   3.300  0.1205  0.4045 -0.4252
 1942SOL    MW4 7502   0.090   5.149   3.252  0.1653 -0.6992 -0.4088
 1943SOL     OW 7503   1.353   3.570   4.920 -0.2739  0.6174  0.3815
 1943SOL    HW2 7504   1.368   3.640   4.984 -1.9508 -0.2491  1.8137
 1943SOL    HW3 7505   1.437   3.560   4.875  0.7827  1.7145  2.0017
 1943SOL    MW4 7506   1.366   3.578   4.923 -0.0798  0.1831 -0.4354
 1944SOL     OW 7507   0.492   1.727   4.857 -0.3685 -0.0845 -0.2248
 1944SOL    HW2 7508   0.495   1.802   4.917  1.5112 -1.0518  0.9864
 1944SOL    HW3 7509   0.528   1.759   4.775  1.6509  0.0681  0.6749
 1944SOL    MW4 7510   0.497   1.741   4.854 -0.1657 -0.1162  0.2058
 1945SOL     OW 7511   4.765   1.263   3.472  0.5214 -0.3473  0.2142
 1945SOL    HW2 7512   4.829   1.304   3.414 -0.1455  0.8618  0.3077
 1945SOL    HW3 7513   4.694   1.235   3.414 -0.2982  1.1595  0.4493
 1945SOL    MW4 7514   4.764   1.265   3.457  0.2479  0.2707  0.3878
 1946SOL     OW 7515   1.049   3.873   3.778  0.7653  0.0822 -0.1157
 1946SOL    HW2 7516   0.977   3.928   3.747 -0.7468 -2.1032 -0.7877
 1946SOL    HW3 7517   1.121   3.891   3.718 -0.8290 -1.1355 -2.6150
 1946SOL    MW4 7518   1.049   3.882   3.766 -0.3597  0.1476 -0.5064
 1947SOL     OW 7519   1.601   2.548   5.370  0.4233  0.2586 -0.0002
 1947SOL    HW2 7520   1.519   2.499   5.370  0.6315 -0.1285 -1.3837
 1947SOL    HW3 7521   1.596   2.604   5.448 -1.3109  0.5156 -0.2642
 1947SOL    MW4 7522   1.590   2.549   5.380 -0.5844  0.3088  0.0502
 1948SOL     OW 7523   4.601   5.333   0.581 -0.5067 -0.0750 -0.3485
 1948SOL    HW2 7524   4.572   5.264   0.521  1.0182 -1.4470  0.3965
 1948SOL    HW3 7525   4.686   5.361   0.546  0.7667 -1.4016  1.4192
 1948SOL    MW4 7526   4.609   5.327   0.569  0.1664  0.2471  0.3208
 1949SOL     OW 7527   0.542   2.350   2.640 -0.0771 -0.9961  0.4177
 1949SOL    HW2 7528   0.587   2.322   2.719 -0.4185 -3.2224 -0.0967
 1949SOL    HW3 7529   0.485   2.421   2.668 -0.0573 -1.6138  2.1205
 1949SOL    MW4 7530   0.540   2.355   2.654 -0.3484  0.2745  0.5822
 1950SOL     OW 7531   2.908   2.035   1.573 -0.5664 -0.3903  0.4976
 1950SOL    HW2 7532   2.949   2.088   1.505  0.7921 -1.8383  0.1277
 1950SOL    HW3 7533   2.820   2.017   1.540  0.3541 -1.8275 -1.3938
 1950SOL    MW4 7534   2.902   2.039   1.560 -0.6341  0.2486  0.3231
 1951SOL     OW 7535   0.089   0.570   3.234  0.4715 -0.1204 -0.3269
 1951SOL    HW2 7536   0.154   0.514   3.276 -0.8469  0.6592  3.1984
 1951SOL    HW3 7537   0.057   0.625   3.305 -1.4285  2.0529 -2.6914
 1951SOL    MW4 7538   0.093   0.570   3.249  0.1447 -0.1473  0.4693
 1952SOL     OW 7539   5.711   1.114   2.885 -0.0080  0.0697  0.7654
 1952SOL    HW2 7540   5.618   1.094   2.872  0.0755  0.9624 -1.7886
 1952SOL    HW3 7541   5.755   1.029   2.873 -0.3665 -0.0332  0.1402
 1952SOL    MW4 7542   5.705   1.100   2.882  0.1171  0.2237  0.0057
 1953SOL     OW 7543   6.361   3.148   2.499 -0.2653  0.1144  0.2785
 1953SOL    HW2 7544   6.283   3.118   2.545  0.6756 -0.3853  1.6185
 1953SOL    HW3 7545   6.363   3.242   2.512 -0.8702  0.1914 -0.1481
 1953SOL    MW4 7546   6.351   3.156   2.507  0.9695  0.4340 -0.8934
 1954SOL     OW 7547   5.062   3.267   0.466 -0.1838 -0.5714 -0.1897
 1954SOL    HW2 7548   5.036   3.354   0.497  1.6133  0.5485 -1.6296
 1954SOL    HW3 7549   5.019   3.258   0.381  1.2415 -0.1756 -0.9852
 1954SOL    MW4 7550   5.052   3.277   0.459  0.4021 -0.7093 -0.1151
 1955SOL     OW 7551   3.131   2.962   5.016 -0.0367 -0.0868 -0.5958
 1955SOL    HW2 7552   3.061   3.016   4.980  1.5709  2.4097 -0.2416
 1955SOL    HW3 7553   3.204   2.975   4.955  0.0260 -3.1532 -1.3352
 1955SOL    MW4 7554   3.132   2.971   5.003  0.3868 -0.8149  0.5700
 1956SOL     OW 7555   0.058   4.382   5.530 -0.1871  0.1124 -0.9117
 1956SOL    HW2 7556   0.021   4.306   5.576 -2.5737  1.7407  0.0631
 1956SOL    HW3 7557  -0.010   4.407   5.467  0.3144  1.7680 -0.8349
 1956SOL    MW4 7558   0.044   4.375   5.528 -0.7774  0.7687 -0.0027
 1957SOL     OW 7559   6.264   2.138   0.976  0.5796  0.1180  0.5087
 1957SOL    HW2 7560   6.222   2.154   0.891 -1.7500 -2.7855  0.9691
 1957SOL    HW3 7561   6.215   2.192   1.037 -0.5273 -0.8821  0.5539
 1957SOL    MW4 7562   6.252   2.147   0.973 -0.3259  0.5562  0.0217
 1958SOL     OW 7563   2.536   4.860   3.751 -0.3756 -0.1826 -0.4112
 1958SOL    HW2 7564   2.567   4.787   3.804  0.5085  1.0741  0.8807
 1958SOL    HW3 7565   2.539   4.828   3.661  1.2761 -1.3121  0.0030
 1958SOL    MW4 7566   2.540   4.846   3.746 -0.0795  0.3366  0.7353
 1959SOL     OW 7567   5.076   4.813   5.437  0.2753 -0.1616  0.0964
 1959SOL    HW2 7568   5.019   4.869   5.489  0.7997  0.8244 -0.3571
 1959SOL    HW3 7569   5.100   4.741   5.496 -0.8367 -0.2067  0.5132
 1959SOL    MW4 7570   5.072   4.811   5.452 -0.0959 -0.0686 -0.3015
 1960SOL     OW 7571   0.013   2.767   5.633  0.1598  0.2232  0.3044
 1960SOL    HW2 7572   0.062   2.711   5.573  0.3048  1.7140 -1.0477
 1960SOL    HW3 7573  -0.034   2.707   5.690 -0.0422 -1.2576 -1.3556
 1960SOL    MW4 7574   0.014   2.752   5.632 -0.6257 -0.3982 -0.3771
 1961SOL     OW 7575   5.202   0.165   3.522 -0.3173  0.1806  0.4118
 1961SOL    HW2 7576   5.295   0.187   3.526 -0.4421  0.5361  2.8810
 1961SOL    HW3 7577   5.162   0.237   3.474  0.3949  1.2392  1.3533
 1961SOL    MW4 7578   5.209   0.177   3.516 -0.0779 -0.4102 -0.0223
 1962SOL     OW 7579   4.155   5.899   1.422  0.0793  0.4018  0.4798
 1962SOL    HW2 7580   4.072   5.912   1.469  0.8066 -0.2866  2.0133
 1962SOL    HW3 7581   4.153   5.807   1.396  0.5234  0.2722  0.8860
 1962SOL    MW4 7582   4.144   5.888   1.425  0.2544 -0.3689  0.5672
 1963SOL     OW 7583   3.086   3.518   3.044 -0.1377 -0.9323  0.0576
 1963SOL    HW2 7584   3.072   3.495   2.952 -0.4631  0.8389 -0.3755
 1963SOL    HW3 7585   3.037   3.600   3.055  0.6351 -0.6547  1.5754
 1963SOL    MW4 7586   3.077   3.526   3.033  0.6049  0.8704  0.4084
 1964SOL     OW 7587   0.968   5.705   4.644 -0.2512 -0.3629  0.5329
 1964SOL    HW2 7588   0.893   5.755   4.614  0.3186 -0.0258 -0.3854
 1964SOL    HW3 7589   1.033   5.772   4.667 -0.1598 -0.6538  1.1395
 1964SOL    MW4 7590   0.967   5.721   4.643 -0.0481 -0.1373 -0.4088
 1965SOL     OW 7591   1.309   4.451   5.739 -0.5966  0.0468  0.0259
 1965SOL    HW2 7592   1.299   4.371   5.792 -1.4560 -0.3028 -0.6489
 1965SOL    HW3 7593   1.222   4.468   5.705 -0.5183  1.5501  0.5188
 1965SOL    MW4 7594   1.296   4.442   5.741 -0.4735  0.0974 -0.0097
 1966SOL     OW 7595   5.426   5.527   2.563 -0.2117  0.2366 -0.4674
 1966SOL    HW2 7596   5.450   5.477   2.641  0.7654  1.3382 -0.0447
 1966SOL    HW3 7597   5.332   5.510   2.552 -0.2462 -0.3767  0.6144
 1966SOL    MW4 7598   5.417   5.518   2.572 -0.4622 -0.6300 -0.1668
 1967SOL     OW 7599   3.611   2.901   3.658 -0.5548  0.0583  0.1540
 1967SOL    HW2 7600   3.609   2.995   3.675 -0.6829  0.0172  0.3701
 1967SOL    HW3 7601   3.634   2.863   3.743 -1.2123 -0.1543  0.2414
 1967SOL    MW4 7602   3.614   2.908   3.671  0.1570  0.7315  0.3048
 1968SOL     OW 7603   6.185   4.294   1.890 -0.1549  0.5040  0.0310
 1968SOL    HW2 7604   6.273   4.303   1.926  0.0560 -1.8006  0.2275
 1968SOL    HW3 7605   6.195   4.238   1.814 -1.2791  1.4532 -0.8606
 1968SOL    MW4 7606   6.198   4.288   1.885  0.0357  0.4082 -0.0391
 1969SOL     OW 7607   6.231   1.973   2.098 -0.8539  0.4140  0.4627
 1969SOL    HW2 7608   6.291   2.006   2.165  0.1238 -0.3189 -0.0263
 1969SOL    HW3 7609   6.278   1.987   2.015 -1.0011 -0.9113  0.1323
 1969SOL    MW4 7610   6.245   1.979   2.096 -0.0746 -0.6177  0.0819
 1970SOL     OW 7611   1.272   2.196   5.899 -0.5664  0.4195 -0.3196
 1970SOL    HW2 7612   1.245   2.133   5.965 -0.0008  0.2194 -0.2738
 1970SOL    HW3 7613   1.296   2.143   5.823 -0.7537  0.6199 -0.5213
 1970SOL    MW4 7614   1.271   2.181   5.897  0.1052 -0.1557 -0.0117
 1971SOL     OW 7615   2.347   3.149   1.588  0.0198 -0.1574  0.5580
 1971SOL    HW2 7616   2.416   3.083   1.594 -0.1705 -0.5960 -1.3173
 1971SOL    HW3 7617   2.341   3.169   1.494 -1.5500  0.7739  0.8118
 1971SOL    MW4 7618   2.355   3.143   1.576 -0.1827  0.0011 -0.2053
 1972SOL     OW 7619   2.233   4.584   0.849  0.0082 -0.4748  0.9869
 1972SOL    HW2 7620   2.152   4.634   0.838  1.0202  0.9878 -0.3700
 1972SOL    HW3 7621   2.280   4.596   0.766  1.3707 -1.7472  1.5193
 1972SOL    MW4 7622   2.229   4.592   0.837  0.3831  0.3531  0.1671
 1973SOL     OW 7623   2.959   6.406   4.642  0.4546 -0.2362 -0.1566
 1973SOL    HW2 7624   2.994   6.471   4.582  0.8253 -0.6654 -0.4017
 1973SOL    HW3 7625   2.912   6.344   4.587 -1.4027  0.7511  0.2192
 1973SOL    MW4 7626   2.957   6.406   4.627  0.4995  0.3028  0.0030
 1974SOL     OW 7627   3.383   2.287   1.748 -0.0116 -0.0448 -0.1073
 1974SOL    HW2 7628   3.317   2.254   1.808  1.2226  0.2108  1.4452
 1974SOL    HW3 7629   3.338   2.293   1.664 -1.5624 -1.1713  0.6008
 1974SOL    MW4 7630   3.369   2.283   1.745  0.0668 -0.4377 -0.5191
 1975SOL     OW 7631   5.358   2.687   1.506 -0.8083 -0.6648  0.6035
 1975SOL    HW2 7632   5.439   2.705   1.555 -0.5140 -0.3445  0.0095
 1975SOL    HW3 7633   5.359   2.751   1.434 -1.2913 -1.0583  0.2445
 1975SOL    MW4 7634   5.369   2.698   1.503 -0.1530 -0.0684  0.1589
 1976SOL     OW 7635   5.755   2.525   1.121 -0.3620 -0.7042 -0.1002
 1976SOL    HW2 7636   5.665   2.554   1.137 -0.5060  0.5690 -2.6622
 1976SOL    HW3 7637   5.807   2.572   1.187 -1.3848  0.0295  0.2125
 1976SOL    MW4 7638   5.750   2.535   1.132 -0.9002  0.7786  0.3888
 1977SOL     OW 7639   4.952   2.465   4.358  0.1534  0.6669 -0.2977
 1977SOL    HW2 7640   4.904   2.510   4.427 -1.3859 -1.2951 -0.0046
 1977SOL    HW3 7641   5.035   2.512   4.351  0.9020  0.2651  3.7298
 1977SOL    MW4 7642   4.957   2.477   4.366  0.6466  0.4748  0.0085
 1978SOL     OW 7643   2.784   5.985   0.737  0.3201  0.4535 -0.5778
 1978SOL    HW2 7644   2.821   5.934   0.810 -2.4111 -0.8636  0.0259
 1978SOL    HW3 7645   2.777   6.074   0.772  1.6869  0.4789 -0.2986
 1978SOL    MW4 7646   2.788   5.990   0.751 -0.0437  0.6775  0.0130
 1979SOL     OW 7647   5.297   3.254   3.309  0.2985  0.1977 -0.0710
 1979SOL    HW2 7648   5.328   3.167   3.284 -0.3818 -0.2750  0.6710
 1979SOL    HW3 7649   5.225   3.237   3.370 -0.9411  1.2532 -1.1648
 1979SOL    MW4 7650   5.291   3.240   3.313 -0.4552  0.4405 -0.0402
 1980SOL     OW 7651   0.465   5.952   2.181  0.4105 -0.1409  0.3564
 1980SOL    HW2 7652   0.389   5.910   2.140  1.2883  0.2348 -1.7886
 1980SOL    HW3 7653   0.440   5.963   2.273 -0.9652 -2.6813  0.3672
 1980SOL    MW4 7654   0.452   5.948   2.188 -0.2885 -0.7485 -0.4114
 1981SOL     OW 7655   3.156   1.673   3.001  0.0679 -0.2126  0.1996
 1981SOL    HW2 7656   3.230   1.616   2.979  0.2738  0.0083  0.3205
 1981SOL    HW3 7657   3.147   1.667   3.096  0.5077  0.4568  0.2965
 1981SOL    MW4 7658   3.165   1.665   3.010 -0.3715 -0.0663  0.2586
 1982SOL     OW 7659   6.267   5.629   1.792 -0.8420  0.1589  0.4596
 1982SOL    HW2 7660   6.176   5.660   1.792 -1.2565 -0.9953  0.9122
 1982SOL    HW3 7661   6.260   5.538   1.763  0.2130  0.1492  0.2189
 1982SOL    MW4 7662   6.254   5.621   1.788 -0.0446  0.1296 -0.1828
 1983SOL     OW 7663   5.449   1.335   0.757  0.1115 -0.2603  0.0064
 1983SOL    HW2 7664   5.435   1.419   0.713 -0.1815 -0.3001  0.0231
 1983SOL    HW3 7665   5.543   1.319   0.748 -0.0368 -0.5657 -1.1450
 1983SOL    MW4 7666   5.460   1.344   0.750  0.3472 -0.2935 -0.4118
 1984SOL     OW 7667   1.998   1.705   4.723 -1.0219 -0.1994  0.3741
 1984SOL    HW2 7668   1.945   1.693   4.644 -0.3582 -1.3988  0.0794
 1984SOL    HW3 7669   2.072   1.758   4.695  0.1169 -2.0196 -0.2926
 1984SOL    MW4 7670   2.001   1.710   4.709 -0.8408  0.1460  0.1523
 1985SOL     OW 7671   0.387   1.513   1.958 -0.1932  0.7894  0.3244
 1985SOL    HW2 7672   0.309   1.470   1.923 -0.4510  1.0255  0.6022
 1985SOL    HW3 7673   0.404   1.585   1.897 -0.1222  0.6684  0.1999
 1985SOL    MW4 7674   0.379   1.517   1.946 -0.0155  0.5616 -0.2848
 1986SOL     OW 7675   1.884   3.071   5.156  0.0602  0.0360  0.1430
 1986SOL    HW2 7676   1.949   3.130   5.194 -0.0154 -0.9137  1.8202
 1986SOL    HW3 7677   1.929   3.029   5.083  0.9425  0.2832  0.5331
 1986SOL    MW4 7678   1.899   3.073   5.151 -0.3497  0.0321 -0.1342
 1987SOL     OW 7679   0.666   0.590   2.592  0.3039 -0.3481  0.6573
 1987SOL    HW2 7680   0.688   0.644   2.668 -0.4789  0.5562  0.2672
 1987SOL    HW3 7681   0.652   0.502   2.628  0.9184 -0.1498  1.4046
 1987SOL    MW4 7682   0.667   0.586   2.607  0.5914  0.0350  0.8586
 1988SOL     OW 7683   3.613   3.202   0.701 -0.2952 -0.0557 -0.8638
 1988SOL    HW2 7684   3.557   3.258   0.647 -2.2590 -0.3282  0.8061
 1988SOL    HW3 7685   3.669   3.263   0.748  0.8581  0.2227 -2.4979
 1988SOL    MW4 7686   3.613   3.217   0.700 -0.2991  0.2577  0.4071
 1989SOL     OW 7687   4.781   2.940   1.837 -0.3930  0.4558  0.1286
 1989SOL    HW2 7688   4.717   2.959   1.768  0.6224 -0.0515 -1.0060
 1989SOL    HW3 7689   4.785   2.845   1.841 -1.7171  0.4433  2.1723
 1989SOL    MW4 7690   4.773   2.930   1.828 -0.0644  0.2236 -0.2027
 1990SOL     OW 7691   3.711   1.540   6.191  0.2269  0.3621  0.2707
 1990SOL    HW2 7692   3.772   1.490   6.137  1.4322  1.7103  0.3348
 1990SOL    HW3 7693   3.762   1.567   6.267 -0.8434  0.3830  1.0029
 1990SOL    MW4 7694   3.726   1.537   6.194 -0.1212 -0.1978 -0.6212
 1991SOL     OW 7695   5.810   0.845   3.843  0.1349  0.5679 -0.4358
 1991SOL    HW2 7696   5.743   0.867   3.908 -0.3624  1.2642 -1.1754
 1991SOL    HW3 7697   5.763   0.833   3.761  0.5783 -1.7926 -0.4200
 1991SOL    MW4 7698   5.795   0.846   3.841 -0.6936  0.1003 -0.2292
 1992SOL     OW 7699   4.989   4.540   4.606 -0.5479 -1.0029  0.2376
 1992SOL    HW2 7700   5.012   4.596   4.532  0.3126  1.3034  2.1278
 1992SOL    HW3 7701   4.944   4.465   4.567  1.2521 -0.6831 -2.7388
 1992SOL    MW4 7702   4.986   4.537   4.591 -0.2862 -0.2554 -0.6554
 1993SOL     OW 7703   5.846   1.273   4.179  0.1507 -0.2160  0.1908
 1993SOL    HW2 7704   5.853   1.233   4.265  0.0131 -0.2973  0.1641
 1993SOL    HW3 7705   5.934   1.309   4.162  0.9338 -2.3559 -0.6887
 1993SOL    MW4 7706   5.859   1.272   4.188  0.3360 -0.1819  0.1769
 1994SOL     OW 7707   0.097   5.127   4.676 -0.2190  0.1841 -0.2817
 1994SOL    HW2 7708   0.155   5.133   4.752 -0.3657  0.3841 -0.1852
 1994SOL    HW3 7709   0.011   5.111   4.713  0.1039 -2.5653 -0.4927
 1994SOL    MW4 7710   0.093   5.125   4.691  0.5170  0.0568 -0.2751
 1995SOL     OW 7711   5.002   3.242   5.014 -0.1453 -0.0699 -0.2893
 1995SOL    HW2 7712   5.056   3.168   5.039 -0.2950  0.4676  1.8131
 1995SOL    HW3 7713   5.065   3.314   5.000 -0.1981  0.2674  1.0694
 1995SOL    MW4 7714   5.018   3.242   5.015 -0.1983 -0.2991 -0.2425
 1996SOL     OW 7715   6.342   4.188   5.127  0.3216 -0.0248 -0.7150
 1996SOL    HW2 7716   6.279   4.241   5.176 -0.2795 -0.7337 -0.6822
 1996SOL    HW3 7717   6.334   4.101   5.166  1.2102 -0.1653 -0.8310
 1996SOL    MW4 7718   6.333   4.183   5.139 -0.4999 -0.3124 -0.3753
 1997SOL     OW 7719   1.141   1.656   6.361  0.0378 -0.2563  0.3318
 1997SOL    HW2 7720   1.230   1.620   6.352 -0.5544 -2.4287  2.0638
 1997SOL    HW3 7721   1.086   1.593   6.315 -0.7531  0.1389  0.7295
 1997SOL    MW4 7722   1.146   1.643   6.354 -0.0525 -0.1999  0.3073
 1998SOL     OW 7723   2.935   4.793   2.647 -0.2882 -0.7062  0.0763
 1998SOL    HW2 7724   3.030   4.783   2.640 -0.4048 -2.6196  0.6536
 1998SOL    HW3 7725   2.920   4.887   2.640  1.5003 -0.4757 -1.6156
 1998SOL    MW4 7726   2.945   4.804   2.645 -0.2201 -0.3253 -0.1473
 1999SOL     OW 7727   2.942   1.378   2.378 -0.0531 -0.1541 -0.1248
 1999SOL    HW2 7728   2.979   1.435   2.310 -1.2961  0.0244 -0.6808
 1999SOL    HW3 7729   2.963   1.422   2.460  1.6585 -0.4802 -0.3504
 1999SOL    MW4 7730   2.950   1.392   2.380  0.5018 -0.3309  0.0134
 2000SOL     OW 7731   0.774   6.342   0.933  0.0968  0.0440  0.4350
 2000SOL    HW2 7732   0.800   6.402   1.003  0.6895  0.6734 -0.3081
 2000SOL    HW3 7733   0.705   6.389   0.886  1.1750  0.5433 -0.6894
 2000SOL    MW4 7734   0.769   6.356   0.936  0.6529 -0.2508 -0.1967
 2001SOL     OW 7735   0.586   0.012   1.582  0.1768 -0.3831 -0.2707
 2001SOL    HW2 7736   0.565  -0.014   1.672 -0.9166 -1.7154 -0.8703
 2001SOL    HW3 7737   0.500   0.019   1.539  0.7144 -0.2435 -1.3416
 2001SOL    MW4 7738   0.572   0.010   1.589 -0.2330  0.5676  0.1529
 2002SOL     OW 7739   4.722   3.280   4.870 -0.4333 -0.0673  0.2213
 2002SOL    HW2 7740   4.805   3.299   4.915  0.8079 -0.2182 -1.8481
 2002SOL    HW3 7741   4.657   3.279   4.939  1.2871  0.1111  1.9377
 2002SOL    MW4 7742   4.725   3.282   4.885 -0.2336  0.2737  0.4425
 2003SOL     OW 7743   3.286   2.235   4.353 -0.1885  0.3536 -0.2787
 2003SOL    HW2 7744   3.225   2.166   4.380  0.3506  0.0881  0.2711
 2003SOL    HW3 7745   3.295   2.223   4.259  0.5304 -0.8554 -0.0730
 2003SOL    MW4 7746   3.279   2.224   4.344 -0.3026 -0.0251  0.7495
 2004SOL     OW 7747   6.299   1.886   3.563 -0.2913 -0.5054 -0.1111
 2004SOL    HW2 7748   6.296   1.933   3.647 -0.0077 -2.9030  1.3339
 2004SOL    HW3 7749   6.381   1.914   3.523 -0.4480  0.7037  0.3521
 2004SOL    MW4 7750   6.309   1.896   3.569  0.0603  0.4492 -0.4106
 2005SOL     OW 7751   2.344   0.190   2.437  0.5618  0.1263 -0.1925
 2005SOL    HW2 7752   2.354   0.129   2.510  0.1983 -0.3608 -0.5509
 2005SOL    HW3 7753   2.416   0.252   2.448  0.3737  0.2025  0.7209
 2005SOL    MW4 7754   2.355   0.190   2.448 -0.0327  0.6391 -0.3657
 2006SOL     OW 7755   1.016   3.092   1.194 -0.2586  0.1775  0.5816
 2006SOL    HW2 7756   1.067   3.098   1.275 -0.5459 -1.0441  0.8719
 2006SOL    HW3 7757   0.955   3.165   1.200 -0.0187  0.3372  1.2872
 2006SOL    MW4 7758   1.015   3.102   1.206 -0.2986  0.3752 -0.3030
 2007SOL     OW 7759   6.389   0.799   3.020  0.1491  0.4949  0.0694
 2007SOL    HW2 7760   6.396   0.861   3.093 -0.5915  1.6607 -0.8024
 2007SOL    HW3 7761   6.476   0.759   3.014  0.4255  0.8874  1.1319
 2007SOL    MW4 7762   6.402   0.802   3.029  0.4537  0.2942  0.4112
 2008SOL     OW 7763   3.495   5.785   1.138  0.4881 -0.1951 -0.6921
 2008SOL    HW2 7764   3.431   5.799   1.207  1.2961  0.1413  0.0083
 2008SOL    HW3 7765   3.443   5.779   1.058 -0.4475 -0.4017 -0.0908
 2008SOL    MW4 7766   3.480   5.786   1.136 -0.1818  0.6120  0.6109
 2009SOL     OW 7767   0.338   1.250   4.817 -0.0533 -0.6303 -0.1805
 2009SOL    HW2 7768   0.404   1.284   4.878 -2.7123  1.0387  2.0155
 2009SOL    HW3 7769   0.341   1.310   4.742  1.1807 -0.8353 -0.3069
 2009SOL    MW4 7770   0.347   1.263   4.815 -0.0091 -0.2835 -0.1641
 2010SOL     OW 7771   2.991   6.216   1.081  0.2003  0.5395 -0.2822
 2010SOL    HW2 7772   2.901   6.238   1.057  0.1174  0.8135  0.2519
 2010SOL    HW3 7773   3.027   6.171   1.005  0.0668  1.6958 -1.0342
 2010SOL    MW4 7774   2.984   6.213   1.068 -0.2315 -0.3667 -0.4573
 2011SOL     OW 7775   3.450   6.221   4.040  0.2515 -0.1713 -0.3614
 2011SOL    HW2 7776   3.420   6.305   4.075 -0.7688  0.1114 -1.8140
 2011SOL    HW3 7777   3.509   6.245   3.969 -0.8285 -0.6356 -1.4455
 2011SOL    MW4 7778   3.454   6.236   4.035  0.0767  0.0058  0.3084
 2012SOL     OW 7779   4.428   0.706   3.919  0.2499 -0.2068 -0.3931
 2012SOL    HW2 7780   4.418   0.622   3.963 -0.6633 -0.4958 -1.1096
 2012SOL    HW3 7781   4.453   0.767   3.989  2.5488 -1.3551 -0.1387
 2012SOL    MW4 7782   4.430   0.703   3.934 -0.1618  0.1141 -0.3623
 2013SOL     OW 7783   4.781   5.906   2.483  0.3172  0.5533  0.1371
 2013SOL    HW2 7784   4.707   5.922   2.542 -1.4212  1.0272 -2.0389
 2013SOL    HW3 7785   4.763   5.961   2.407  1.8903 -0.8318 -1.3136
 2013SOL    MW4 7786   4.769   5.916   2.481 -0.9058 -0.2671  0.1429
 2014SOL     OW 7787   4.014   4.829   4.585 -0.2159 -1.0714  0.0174
 2014SOL    HW2 7788   3.952   4.875   4.529  0.3340 -1.5999 -1.0518
 2014SOL    HW3 7789   4.019   4.883   4.665 -0.1523  0.3145 -0.8896
 2014SOL    MW4 7790   4.006   4.843   4.588  0.6327 -0.2987 -0.3227
 2015SOL     OW 7791   2.961   3.990   3.352 -0.1735 -0.7235  0.1854
 2015SOL    HW2 7792   2.956   4.008   3.446  2.3855  0.6898  0.1420
 2015SOL    HW3 7793   2.898   4.052   3.313 -1.1824 -1.2560  0.9324
 2015SOL    MW4 7794   2.952   4.001   3.359  0.2055  0.0290 -0.3303
 2016SOL     OW 7795   1.988   3.702   2.885 -0.4285  0.0709 -0.2889
 2016SOL    HW2 7796   2.037   3.620   2.888 -1.7536 -0.7271  1.7803
 2016SOL    HW3 7797   2.034   3.759   2.946 -0.4765  0.2838 -0.4531
 2016SOL    MW4 7798   2.000   3.698   2.893  0.1074 -0.3874  0.0619
 2017SOL     OW 7799   2.320   4.897   0.339  0.5128  0.0540  0.6182
 2017SOL    HW2 7800   2.285   4.978   0.303 -0.7675 -1.0352 -0.7558
 2017SOL    HW3 7801   2.409   4.918   0.365  1.4932  1.0902 -2.9639
 2017SOL    MW4 7802   2.327   4.910   0.338  0.4043 -0.0600  0.0162
 2018SOL     OW 7803   1.516   3.636   1.367 -0.5946 -0.1842  0.2320
 2018SOL    HW2 7804   1.567   3.557   1.381 -1.3072 -0.7960 -0.5169
 2018SOL    HW3 7805   1.513   3.646   1.272 -1.3769  0.1537  0.2824
 2018SOL    MW4 7806   1.522   3.627   1.356 -0.4902 -0.0467 -0.3767
 2019SOL     OW 7807   5.370   5.860   1.966  0.3079  0.1448 -0.3566
 2019SOL    HW2 7808   5.296   5.904   2.007 -0.1613 -1.0735  0.1632
 2019SOL    HW3 7809   5.440   5.864   2.031  0.7983  1.5139 -0.9450
 2019SOL    MW4 7810   5.370   5.866   1.980  0.1148 -0.5417  0.1434
 2020SOL     OW 7811   4.624   4.984   4.532  0.1893 -0.3298 -0.1247
 2020SOL    HW2 7812   4.622   5.047   4.604 -2.1600  0.5365 -0.8764
 2020SOL    HW3 7813   4.535   4.950   4.526  0.2104 -0.1602 -2.7609
 2020SOL    MW4 7814   4.612   4.988   4.541  0.2536 -0.0581 -0.1842
 2021SOL     OW 7815   4.180   5.913   4.190  0.2656  0.6818 -0.3134
 2021SOL    HW2 7816   4.151   5.823   4.199  2.5141 -0.0192  0.5753
 2021SOL    HW3 7817   4.166   5.934   4.098 -0.5308 -0.4767 -0.4647
 2021SOL    MW4 7818   4.175   5.904   4.179 -0.1226  0.7815  0.2294
 2022SOL     OW 7819   0.508   1.914   4.640  0.3281 -0.1296 -0.5619
 2022SOL    HW2 7820   0.445   1.986   4.645 -0.6139 -1.0036  2.7384
 2022SOL    HW3 7821   0.593   1.956   4.652 -0.1632  0.5351  0.8166
 2022SOL    MW4 7822   0.511   1.929   4.642 -0.1921 -0.1401 -0.5779
 2023SOL     OW 7823   4.045   1.028   3.676 -0.4682 -0.7904  0.3099
 2023SOL    HW2 7824   4.072   1.079   3.599  0.0657  0.3478  1.2103
 2023SOL    HW3 7825   4.110   0.959   3.684 -2.0376 -2.6389 -1.8150
 2023SOL    MW4 7826   4.057   1.026   3.667 -0.9068 -0.1387 -0.0598
 2024SOL     OW 7827   4.375   2.911   0.509  0.0803  0.2305 -0.1053
 2024SOL    HW2 7828   4.285   2.923   0.480 -0.8448  3.0871  3.1982
 2024SOL    HW3 7829   4.371   2.839   0.572  0.5408 -0.8020 -1.2095
 2024SOL    MW4 7830   4.363   2.903   0.513 -0.2850  0.1449  0.1503
 2025SOL     OW 7831   0.180   0.942   4.064  0.2969  0.0460 -0.3599
 2025SOL    HW2 7832   0.264   0.983   4.043 -0.4215  2.3672  0.9202
 2025SOL    HW3 7833   0.139   0.927   3.979  1.2420  0.5801 -0.9399
 2025SOL    MW4 7834   0.186   0.945   4.050  0.2141 -0.1881 -0.5537
 2026SOL     OW 7835   2.964   4.603   0.063  0.3903 -0.1847 -0.5065
 2026SOL    HW2 7836   3.021   4.663   0.015 -0.7845  0.4525 -1.1707
 2026SOL    HW3 7837   3.023   4.538   0.101  1.4953  0.1209 -1.6381
 2026SOL    MW4 7838   2.979   4.603   0.061 -0.0181  0.5532 -0.1110
 2027SOL     OW 7839   1.387   4.431   5.072  0.4542 -0.6344 -0.1697
 2027SOL    HW2 7840   1.297   4.427   5.104  0.7165 -0.7908  0.5523
 2027SOL    HW3 7841   1.412   4.339   5.060  0.7765 -0.6242  0.3785
 2027SOL    MW4 7842   1.378   4.418   5.074 -0.2500 -0.1849 -0.4529
 2028SOL     OW 7843   1.714   1.825   2.467  0.0550 -0.4983  0.5825
 2028SOL    HW2 7844   1.789   1.808   2.410 -0.4682  1.7961 -0.8984
 2028SOL    HW3 7845   1.747   1.888   2.532 -0.0958 -0.9761  1.1324
 2028SOL    MW4 7846   1.728   1.831   2.468  0.1027  0.1628 -0.3789
 2029SOL     OW 7847   4.554   2.082   0.875 -0.0070  0.2114  0.2238
 2029SOL    HW2 7848   4.534   2.001   0.829  1.2559 -0.4170  0.7181
 2029SOL    HW3 7849   4.613   2.056   0.946  0.9444  1.6184  0.0123
 2029SOL    MW4 7850   4.559   2.068   0.878 -0.3269  0.1118  0.0126
 2030SOL     OW 7851   3.907   1.778   1.880  0.0806 -0.4164  0.2935
 2030SOL    HW2 7852   3.982   1.816   1.925 -0.6890  1.7319 -0.1182
 2030SOL    HW3 7853   3.884   1.843   1.813 -1.7146 -1.3297 -0.0341
 2030SOL    MW4 7854   3.913   1.792   1.877  0.4422 -0.6085 -0.4063
 2031SOL     OW 7855   3.662   5.081   0.347 -0.3008  0.3848  0.5811
 2031SOL    HW2 7856   3.657   4.989   0.374 -0.1247 -0.8501 -3.1239
 2031SOL    HW3 7857   3.745   5.088   0.301 -0.4886  2.3179  0.4691
 2031SOL    MW4 7858   3.672   5.070   0.345 -0.3329  0.8441  0.0805
 2032SOL     OW 7859   1.079   0.377   0.763  0.1094  0.2529  0.2590
 2032SOL    HW2 7860   0.985   0.357   0.762  0.0982  0.2820  0.8891
 2032SOL    HW3 7861   1.088   0.453   0.819  0.7002 -0.7295  1.5433
 2032SOL    MW4 7862   1.068   0.384   0.770  0.1824 -0.3310 -0.1828
 2033SOL     OW 7863   1.053   2.177   3.802 -0.3467  0.0747  0.2341
 2033SOL    HW2 7864   0.983   2.118   3.772 -1.6446  1.5968  0.1713
 2033SOL    HW3 7865   1.107   2.122   3.859 -0.6727 -1.5619 -0.9422
 2033SOL    MW4 7866   1.051   2.162   3.805 -0.2125  0.0869 -0.1880
 2034SOL     OW 7867   3.464   0.670   4.152 -0.2884  0.2354  0.3181
 2034SOL    HW2 7868   3.480   0.736   4.219 -0.2388  0.7474 -0.1866
 2034SOL    HW3 7869   3.465   0.587   4.199  0.2168  0.5473  0.8763
 2034SOL    MW4 7870   3.467   0.668   4.167 -0.1543  0.0000 -0.4031
 2035SOL     OW 7871   2.147   1.027   2.613 -0.0768  0.2661  0.4747
 2035SOL    HW2 7872   2.076   0.965   2.602  0.3909 -0.1233 -0.4449
 2035SOL    HW3 7873   2.109   1.112   2.592 -0.3492  0.1001  0.2955
 2035SOL    MW4 7874   2.133   1.030   2.609 -0.3002  0.1087  0.0600
 2036SOL     OW 7875   3.918   5.546   6.232  0.1482 -0.0149  0.0388
 2036SOL    HW2 7876   3.968   5.621   6.264  0.3306 -0.5966  1.1848
 2036SOL    HW3 7877   3.925   5.550   6.137  0.4587  1.2067  0.1028
 2036SOL    MW4 7878   3.925   5.556   6.224 -0.7320 -0.3055  0.3471
 2037SOL     OW 7879   2.142   6.176   1.912 -0.3586  0.2244 -0.0796
 2037SOL    HW2 7880   2.137   6.129   1.828  1.5343 -0.8379  0.3525
 2037SOL    HW3 7881   2.197   6.252   1.893  1.5272 -0.9175  0.5122
 2037SOL    MW4 7882   2.148   6.180   1.898 -0.2990  0.0169 -0.1007
 2038SOL     OW 7883   0.859   1.466   0.638 -0.5578 -0.3236 -0.8304
 2038SOL    HW2 7884   0.937   1.438   0.590 -0.1116  1.4316 -1.2151
 2038SOL    HW3 7885   0.892   1.492   0.724 -0.6033  0.8553 -1.1434
 2038SOL    MW4 7886   0.873   1.466   0.643  0.1277  0.6389  0.4120
 2039SOL     OW 7887   5.973   0.474   3.255 -0.0459 -0.5232 -0.4227
 2039SOL    HW2 7888   5.966   0.402   3.318  0.8168 -0.7854 -0.6183
 2039SOL    HW3 7889   5.887   0.517   3.258 -0.1057 -0.7043  0.7166
 2039SOL    MW4 7890   5.960   0.470   3.263  0.4803  0.2798  0.0738
 2040SOL     OW 7891   1.664   4.304   6.304  0.1584 -0.5297 -0.6778
 2040SOL    HW2 7892   1.626   4.391   6.310 -2.1267 -1.5674  1.5756
 2040SOL    HW3 7893   1.705   4.289   6.389  0.4276 -1.6888 -0.9841
 2040SOL    MW4 7894   1.664   4.313   6.316  0.5242 -0.1073  0.4500
 2041SOL     OW 7895   2.894   1.645   0.212  0.1258  0.1063 -0.1181
 2041SOL    HW2 7896   2.891   1.599   0.296  0.6390  1.6645  0.7940
 2041SOL    HW3 7897   2.845   1.588   0.152 -2.5563  0.1422  1.8149
 2041SOL    MW4 7898   2.887   1.631   0.215  0.3351  0.6331 -0.3069
 2042SOL     OW 7899   4.570   0.484   1.860 -0.0756 -0.3115  0.5706
 2042SOL    HW2 7900   4.502   0.549   1.843  0.4266  0.2359  0.6387
 2042SOL    HW3 7901   4.528   0.400   1.839 -0.7246  0.0279  0.4776
 2042SOL    MW4 7902   4.555   0.482   1.855  0.4853  0.1885 -0.1028
 2043SOL     OW 7903   3.355   4.897   0.425  0.3612  0.3574  0.2840
 2043SOL    HW2 7904   3.415   4.836   0.382 -0.5250 -0.0625 -0.3863
 2043SOL    HW3 7905   3.409   4.941   0.490  1.4500  0.1416 -0.4401
 2043SOL    MW4 7906   3.370   4.894   0.428 -0.0501  0.2943  0.3457
 2044SOL     OW 7907   6.322   5.905   0.191  0.1880  0.0833  0.3163
 2044SOL    HW2 7908   6.315   5.999   0.177  2.9337  0.5033  1.1472
 2044SOL    HW3 7909   6.310   5.894   0.286 -1.8494 -0.6638  0.0110
 2044SOL    MW4 7910   6.320   5.916   0.202 -0.1218 -0.3156 -0.0951
 2045SOL     OW 7911   3.814   0.705   3.065 -0.2352 -0.1022 -0.1675
 2045SOL    HW2 7912   3.743   0.768   3.078  1.3572  2.0318 -1.2735
 2045SOL    HW3 7913   3.770   0.627   3.030 -2.0500  1.0697 -0.6437
 2045SOL    MW4 7914   3.798   0.703   3.062  0.1875  0.2383 -0.2733
 2046SOL     OW 7915   1.826   0.593   5.245 -0.3415  0.3773 -0.5107
 2046SOL    HW2 7916   1.784   0.664   5.294 -1.6390  0.4289 -1.6272
 2046SOL    HW3 7917   1.919   0.615   5.244 -0.4409  0.9451  0.9562
 2046SOL    MW4 7918   1.832   0.606   5.251  0.1615 -0.0215  0.4409
 2047SOL     OW 7919   5.713   1.822   2.230  0.2102  0.3854 -0.0943
 2047SOL    HW2 7920   5.759   1.872   2.297 -0.2085  0.2362  0.3094
 2047SOL    HW3 7921   5.620   1.832   2.252  0.1023 -0.2120 -0.2667
 2047SOL    MW4 7922   5.706   1.830   2.242  0.4968 -0.5946  0.4261
 2048SOL     OW 7923   5.407   1.355   5.663  0.3991  0.1989  0.0368
 2048SOL    HW2 7924   5.500   1.350   5.681  0.1647  0.9561  1.5247
 2048SOL    HW3 7925   5.389   1.448   5.651 -0.0575  0.0014 -0.9602
 2048SOL    MW4 7926   5.417   1.366   5.663 -0.3168  0.2089  0.1699
 2049SOL     OW 7927   5.809   3.204   5.980  0.4036 -0.3882 -0.1265
 2049SOL    HW2 7928   5.791   3.228   5.889 -0.3249  0.0211  0.1138
 2049SOL    HW3 7929   5.729   3.160   6.010  0.2563  0.3252  0.5881
 2049SOL    MW4 7930   5.796   3.202   5.972 -0.3502  0.5896 -0.1037
 2050SOL     OW 7931   0.410   5.843   0.023  0.1908  0.1969 -0.0530
 2050SOL    HW2 7932   0.474   5.790  -0.025 -0.4351 -0.3459 -0.3018
 2050SOL    HW3 7933   0.434   5.832   0.115  0.8443  0.5120 -0.1807
 2050SOL    MW4 7934   0.421   5.835   0.029  0.2426  0.1705 -0.3007
 2051SOL     OW 7935   4.236   1.743   0.493  0.2639 -1.0109  0.6882
 2051SOL    HW2 7936   4.174   1.757   0.422  0.2640 -0.1344  0.8466
 2051SOL    HW3 7937   4.183   1.750   0.572  0.4435 -0.9593  0.8036
 2051SOL    MW4 7938   4.221   1.746   0.494 -0.4949 -0.3782  0.4434
 2052SOL     OW 7939   5.301   0.186   0.418 -0.2445 -0.1147 -0.1595
 2052SOL    HW2 7940   5.288   0.135   0.337 -0.8735 -0.4455  0.1447
 2052SOL    HW3 7941   5.387   0.157   0.450 -0.1510 -0.2449 -0.5201
 2052SOL    MW4 7942   5.311   0.175   0.411 -0.0082 -0.5080 -0.0781
 2053SOL     OW 7943   4.611   0.209   3.487 -0.8567  0.5499 -0.1239
 2053SOL    HW2 7944   4.592   0.303   3.485 -1.1384  0.4859 -0.5961
 2053SOL    HW3 7945   4.706   0.204   3.478 -0.7407  0.8169  0.8160
 2053SOL    MW4 7946   4.621   0.221   3.486  0.5955 -0.3932  0.1520
 2054SOL     OW 7947   1.763   3.191   0.173 -0.5125 -0.0792  0.3408
 2054SOL    HW2 7948   1.841   3.173   0.225  0.6640  0.3204 -1.2343
 2054SOL    HW3 7949   1.691   3.184   0.236  0.7599 -0.5145  1.8183
 2054SOL    MW4 7950   1.764   3.188   0.188 -0.4189 -0.3560  0.3093
 2055SOL     OW 7951   4.399   6.080   2.045 -0.1262  0.5663  0.5044
 2055SOL    HW2 7952   4.320   6.129   2.021 -0.7455  0.2138  1.7510
 2055SOL    HW3 7953   4.470   6.145   2.038 -0.2240  0.5191 -2.1226
 2055SOL    MW4 7954   4.398   6.095   2.041 -0.2341  0.2247 -0.3179
 2056SOL     OW 7955   4.120   3.381   3.198  0.6001 -0.2256  0.0835
 2056SOL    HW2 7956   4.196   3.403   3.144  1.0417 -1.9458 -0.0605
 2056SOL    HW3 7957   4.137   3.426   3.281  1.6409 -0.3472 -0.0408
 2056SOL    MW4 7958   4.133   3.390   3.202 -0.1601 -0.5587 -0.3498
 2057SOL     OW 7959   6.397   2.444   4.423 -0.4536  0.4259 -0.0022
 2057SOL    HW2 7960   6.383   2.388   4.499 -2.8503 -0.5216 -1.0496
 2057SOL    HW3 7961   6.477   2.410   4.382  1.3990  1.5083  2.4714
 2057SOL    MW4 7962   6.406   2.432   4.428  0.1510 -0.3738  0.5524
 2058SOL     OW 7963   3.903   4.842   4.022 -0.0313  0.1895  0.6539
 2058SOL    HW2 7964   3.923   4.756   3.985  0.9744  0.7026 -0.0586
 2058SOL    HW3 7965   3.812   4.858   3.999 -0.1636 -0.5895  0.6085
 2058SOL    MW4 7966   3.894   4.833   4.014 -0.6579 -0.3617  0.0393
 2059SOL     OW 7967   0.931   2.906   1.569  0.4136  0.0082 -0.0853
 2059SOL    HW2 7968   0.976   2.851   1.633 -0.7064  0.8899  1.5440
 2059SOL    HW3 7969   0.947   2.996   1.599 -1.8466  0.3781  0.2333
 2059SOL    MW4 7970   0.939   2.911   1.581  0.0217  0.3130  0.3556
 2060SOL     OW 7971   4.396   5.444   3.274  0.2621 -0.6093 -0.1584
 2060SOL    HW2 7972   4.394   5.440   3.179 -1.7143  0.6102 -0.2242
 2060SOL    HW3 7973   4.305   5.455   3.300  0.4687 -2.8901  2.0280
 2060SOL    MW4 7974   4.384   5.445   3.265  0.0820 -0.1073 -0.1676
 2061SOL     OW 7975   0.013   2.139   0.122 -0.4451  0.5039  0.5928
 2061SOL    HW2 7976  -0.062   2.103   0.075  1.0968 -1.3894 -0.5701
 2061SOL    HW3 7977  -0.008   2.232   0.134 -1.7674  0.6628 -2.1756
 2061SOL    MW4 7978   0.001   2.146   0.117  0.0716 -0.2779 -0.7738
 2062SOL     OW 7979   1.249   5.073   0.943 -0.2281  0.2687  0.0681
 2062SOL    HW2 7980   1.193   5.070   0.865  1.9451 -0.2619 -1.5805
 2062SOL    HW3 7981   1.258   5.166   0.963 -0.7358  0.4180 -0.3748
 2062SOL    MW4 7982   1.243   5.085   0.935  0.0681 -0.1542 -0.7536
 2063SOL     OW 7983   0.191   3.314   2.434  0.6061 -0.6448 -0.2933
 2063SOL    HW2 7984   0.191   3.267   2.518  0.8529  1.2346  0.8218
 2063SOL    HW3 7985   0.284   3.321   2.412  0.5926 -0.3849 -0.2688
 2063SOL    MW4 7986   0.204   3.309   2.442 -0.7438  0.4074 -0.0966
 2064SOL     OW 7987   0.398   0.846   4.930 -0.3608  0.1533  0.0989
 2064SOL    HW2 7988   0.461   0.785   4.969  0.2132  1.5979  1.5762
 2064SOL    HW3 7989   0.325   0.848   4.992  0.7573  2.8191  1.5552
 2064SOL    MW4 7990   0.397   0.838   4.944 -0.6750 -0.1654  0.2287
 2065SOL     OW 7991   4.041   0.882   5.302 -0.0780 -0.3604 -0.0295
 2065SOL    HW2 7992   4.103   0.833   5.356 -0.6294 -2.4734 -1.1787
 2065SOL    HW3 7993   4.036   0.832   5.220 -3.7993 -0.7430  0.2683
 2065SOL    MW4 7994   4.049   0.869   5.298 -0.6034 -0.1785 -0.4123
 2066SOL     OW 7995   6.266   3.645   3.235 -0.3726  0.2999  0.0605
 2066SOL    HW2 7996   6.196   3.692   3.190  0.8807  1.5869 -0.6258
 2066SOL    HW3 7997   6.283   3.697   3.313  0.9345  0.9342 -0.6302
 2066SOL    MW4 7998   6.259   3.658   3.239 -0.0026  0.2649  0.6674
 2067SOL     OW 7999   0.635   2.729   4.451  0.3592 -0.5000 -0.2050
 2067SOL    HW2 8000   0.729   2.745   4.459  0.4365 -1.4200  1.0756
 2067SOL    HW3 8001   0.624   2.636   4.473 -0.6561 -0.8876 -2.1742
 2067SOL    MW4 8002   0.646   2.719   4.455 -0.6409  0.2756 -0.4411
 2068SOL     OW 8003   1.745   2.974   6.389 -0.1176 -0.2140  0.0926
 2068SOL    HW2 8004   1.732   3.047   6.450  0.4457 -0.3292  0.3541
 2068SOL    HW3 8005   1.804   2.915   6.435  1.7333  0.5149 -1.2370
 2068SOL    MW4 8006   1.751   2.976   6.403  0.7404 -0.3597 -0.2841
 2069SOL     OW 8007   2.112   0.482   3.794 -0.4445 -0.1735  0.0461
 2069SOL    HW2 8008   2.130   0.574   3.814  0.9643 -0.4908  0.2915
 2069SOL    HW3 8009   2.179   0.457   3.731  0.3338 -1.5353  1.3605
 2069SOL    MW4 8010   2.123   0.491   3.788  0.0976  0.1762  0.7390
 2070SOL     OW 8011   3.604   5.908   2.432 -0.4615 -0.2582 -0.1738
 2070SOL    HW2 8012   3.625   5.862   2.350  0.6905 -1.6778  0.8574
 2070SOL    HW3 8013   3.689   5.926   2.472 -1.0004  0.6428  0.5960
 2070SOL    MW4 8014   3.618   5.904   2.426  0.0421 -0.2417  0.4104
 2071SOL     OW 8015   3.565   6.263   2.142 -0.1081 -0.4783  0.2794
 2071SOL    HW2 8016   3.535   6.344   2.101  2.4602  0.1978 -0.4371
 2071SOL    HW3 8017   3.539   6.271   2.233 -0.4417  0.8892  0.0816
 2071SOL    MW4 8018   3.558   6.275   2.148 -0.1926  0.6617  0.5568
 2072SOL     OW 8019   5.789   4.746   6.122  0.0590  0.5271  0.2505
 2072SOL    HW2 8020   5.748   4.765   6.038  1.1690  0.1586 -0.3854
 2072SOL    HW3 8021   5.787   4.651   6.130  2.0936  0.3738 -0.4955
 2072SOL    MW4 8022   5.783   4.736   6.112  0.0566 -0.0734  0.2904
 2073SOL     OW 8023   1.600   5.432   6.400 -0.5412  0.3067  0.3184
 2073SOL    HW2 8024   1.555   5.424   6.316 -0.9429 -2.1013  0.7135
 2073SOL    HW3 8025   1.550   5.377   6.460  0.8631  0.4391  1.6757
 2073SOL    MW4 8026   1.587   5.424   6.397 -0.3245 -0.1629  0.2167
 2074SOL     OW 8027   0.465   3.343   3.899  0.0771  0.2458 -0.8111
 2074SOL    HW2 8028   0.408   3.267   3.893  0.1148  0.3160 -2.2599
 2074SOL    HW3 8029   0.547   3.315   3.859  0.5685  0.6177 -0.0927
 2074SOL    MW4 8030   0.468   3.330   3.893  0.0101  0.2583  0.1183
 2075SOL     OW 8031   2.899   2.550   2.868 -0.1478 -0.4994  0.4217
 2075SOL    HW2 8032   2.807   2.575   2.874 -0.1997 -0.5820 -0.0032
 2075SOL    HW3 8033   2.898   2.461   2.832  0.1681  0.3123 -1.7078
 2075SOL    MW4 8034   2.887   2.541   2.864 -0.2458 -0.0320  0.7463
 2076SOL     OW 8035   0.060   2.946   1.849 -0.4476  0.4590 -0.1763
 2076SOL    HW2 8036   0.017   3.017   1.801 -2.0463  0.0147  0.5019
 2076SOL    HW3 8037  -0.010   2.882   1.864 -0.0616  0.5947  2.7240
 2076SOL    MW4 8038   0.045   2.947   1.845 -0.5335 -0.3264  0.5915
 2077SOL     OW 8039   3.878   5.622   4.709 -0.1426  0.1634 -0.4257
 2077SOL    HW2 8040   3.841   5.677   4.778  0.3868 -0.2238  0.1716
 2077SOL    HW3 8041   3.924   5.683   4.652 -1.2552  0.5903 -0.9019
 2077SOL    MW4 8042   3.879   5.637   4.711 -0.7745 -0.7609 -0.2027
 2078SOL     OW 8043   4.110   0.674   3.075 -0.1258 -0.2858 -0.1753
 2078SOL    HW2 8044   4.150   0.742   3.020  0.5257 -0.4948  0.0250
 2078SOL    HW3 8045   4.019   0.702   3.086  0.4093  1.1572  0.8457
 2078SOL    MW4 8046   4.103   0.686   3.069 -0.5427 -0.7888  0.1767
 2079SOL     OW 8047   2.134   4.772   3.554 -0.2365  0.1409 -0.3771
 2079SOL    HW2 8048   2.204   4.834   3.538  1.1616 -0.8558  1.4293
 2079SOL    HW3 8049   2.170   4.712   3.620 -2.5531 -0.8048  0.1286
 2079SOL    MW4 8050   2.148   4.772   3.561  0.2683  0.4145 -0.5960
 2080SOL     OW 8051   3.201   5.883   2.617  0.1481  0.5773  0.0758
 2080SOL    HW2 8052   3.178   5.975   2.600  0.2783  1.0349  2.1271
 2080SOL    HW3 8053   3.128   5.849   2.669  0.0021 -0.5754 -0.8405
 2080SOL    MW4 8054   3.188   5.891   2.622 -0.3920 -0.1946 -0.0682
 2081SOL     OW 8055   3.684   1.635   0.416 -0.4610  0.3046 -0.0386
 2081SOL    HW2 8056   3.616   1.702   0.418 -0.8344 -0.0821  0.2450
 2081SOL    HW3 8057   3.637   1.552   0.416  0.0121 -0.0514  2.6576
 2081SOL    MW4 8058   3.669   1.632   0.416 -0.6035 -0.2131  0.2725
 2082SOL     OW 8059   2.247   6.220   0.451  0.1766  0.7141 -0.0591
 2082SOL    HW2 8060   2.237   6.273   0.530 -1.8719  1.0096 -0.4590
 2082SOL    HW3 8061   2.314   6.155   0.474 -0.5384  0.6313  2.0286
 2082SOL    MW4 8062   2.254   6.218   0.464  0.7126 -0.0856 -0.2860
 2083SOL     OW 8063   2.698   5.129   6.113 -0.0248 -0.3122 -0.3805
 2083SOL    HW2 8064   2.673   5.037   6.129 -0.4368  0.1878  2.4813
 2083SOL    HW3 8065   2.793   5.131   6.128  0.5300 -0.6990 -3.2371
 2083SOL    MW4 8066   2.707   5.117   6.117  0.0567 -0.3024  0.2158
 2084SOL     OW 8067   5.089   4.073   4.074  0.2088  0.2599  0.8561
 2084SOL    HW2 8068   5.073   3.987   4.034 -0.5946  0.7815 -0.0012
 2084SOL    HW3 8069   5.149   4.116   4.013  0.5900  0.3244  1.2716
 2084SOL    MW4 8070   5.095   4.067   4.060 -0.1308  0.4322  0.2027
 2085SOL     OW 8071   6.358   0.411   2.374  0.0675 -0.4554 -0.4371
 2085SOL    HW2 8072   6.372   0.493   2.327 -3.9036  0.6218 -0.1210
 2085SOL    HW3 8073   6.410   0.346   2.327 -0.8437  1.2290 -4.0794
 2085SOL    MW4 8074   6.367   0.413   2.362  0.0147  0.7761  0.0407
 2086SOL     OW 8075   1.540   2.242   6.174  0.6957 -0.0856 -0.2784
 2086SOL    HW2 8076   1.614   2.235   6.115  1.1316  1.3941  0.0500
 2086SOL    HW3 8077   1.571   2.298   6.246 -0.7133  0.5832 -0.1410
 2086SOL    MW4 8078   1.554   2.249   6.176 -0.0899 -0.0179 -0.3592
 2087SOL     OW 8079   5.949   3.080   2.879 -0.4237  0.9800  0.0446
 2087SOL    HW2 8080   6.030   3.077   2.828 -0.3786 -0.2361  0.1506
 2087SOL    HW3 8081   5.977   3.059   2.968 -0.7803  1.0798  0.1789
 2087SOL    MW4 8082   5.963   3.077   2.884  0.5273 -0.1355  0.5018
 2088SOL     OW 8083   1.096   1.759   2.203 -0.3041  0.0493 -0.1490
 2088SOL    HW2 8084   1.180   1.748   2.248  0.1267  0.1455 -0.9120
 2088SOL    HW3 8085   1.036   1.789   2.271  0.6413  1.4550  0.1150
 2088SOL    MW4 8086   1.099   1.762   2.218 -0.1961  0.0579 -0.2151
 2089SOL     OW 8087   6.296   4.188   3.126  0.3098  0.3444 -0.1136
 2089SOL    HW2 8088   6.295   4.158   3.035  2.5495  1.2099 -0.4841
 2089SOL    HW3 8089   6.229   4.257   3.129  0.5861  0.6818 -1.2485
 2089SOL    MW4 8090   6.287   4.193   3.114  0.4586 -0.9280  0.0528
 2090SOL     OW 8091   4.418   0.090   4.208  0.4012 -0.2010 -0.5393
 2090SOL    HW2 8092   4.506   0.074   4.174  0.3805 -1.1643 -0.1609
 2090SOL    HW3 8093   4.389   0.006   4.241 -0.6884  0.1020 -0.6862
 2090SOL    MW4 8094   4.426   0.077   4.208 -0.1812  0.3793  0.0155
 2091SOL     OW 8095   2.502   4.463   3.196  0.1118 -0.4054 -0.4039
 2091SOL    HW2 8096   2.480   4.553   3.223  1.8450  0.1342 -0.6897
 2091SOL    HW3 8097   2.580   4.473   3.142  2.0263 -2.3118  1.8248
 2091SOL    MW4 8098   2.509   4.477   3.193  0.1874  0.1324  0.5608
 2092SOL     OW 8099   6.396   6.363   6.272  0.0812 -0.0562  0.5704
 2092SOL    HW2 8100   6.476   6.343   6.224  0.7256  3.3043 -0.0172
 2092SOL    HW3 8101   6.337   6.399   6.205 -0.5341  0.8916  1.5910
 2092SOL    MW4 8102   6.398   6.366   6.256 -0.7349  0.1059  0.4259
 2093SOL     OW 8103   4.994   2.768   2.904 -0.4790 -0.0725  0.1350
 2093SOL    HW2 8104   5.003   2.676   2.879 -2.5682 -0.6847  1.3460
 2093SOL    HW3 8105   4.910   2.796   2.866 -0.2457  1.1018  0.4298
 2093SOL    MW4 8106   4.984   2.760   2.896 -0.3390 -0.5246  0.0947
 2094SOL     OW 8107   2.219   6.097   3.045  0.5285 -0.4021 -0.8077
 2094SOL    HW2 8108   2.282   6.153   3.000 -0.0036 -0.9323 -2.2485
 2094SOL    HW3 8109   2.267   6.016   3.063  0.9519  0.0628  0.2544
 2094SOL    MW4 8110   2.234   6.094   3.042  0.0685 -0.4111 -0.0244
 2095SOL     OW 8111   0.137   5.001   1.345  0.0060  0.1866  1.1342
 2095SOL    HW2 8112   0.147   5.079   1.399  0.3742 -0.4714  2.0568
 2095SOL    HW3 8113   0.225   4.985   1.310  0.0258 -0.0448  1.2876
 2095SOL    MW4 8114   0.150   5.009   1.348 -0.3571 -0.0891 -0.3890
 2096SOL     OW 8115   0.754   3.603   0.474 -0.3032  0.1978 -0.4414
 2096SOL    HW2 8116   0.673   3.581   0.429 -0.6235  0.1646  0.1480
 2096SOL    HW3 8117   0.737   3.583   0.566  0.2639  0.4906 -0.2684
 2096SOL    MW4 8118   0.741   3.598   0.480  0.0590  0.3262 -0.0821
 2097SOL     OW 8119   3.707   5.712   5.442  0.1081 -0.4486 -0.6290
 2097SOL    HW2 8120   3.751   5.722   5.526 -0.3330 -0.1524 -0.4377
 2097SOL    HW3 8121   3.777   5.726   5.377  0.3753 -0.3438 -0.3211
 2097SOL    MW4 8122   3.722   5.715   5.444  0.0209 -0.7758  0.6821
 2098SOL     OW 8123   1.504   1.619   3.403 -0.0886 -0.5571 -0.1666
 2098SOL    HW2 8124   1.582   1.576   3.369 -0.3358  0.0674 -1.6005
 2098SOL    HW3 8125   1.439   1.612   3.332 -1.0616 -0.3426  0.6742
 2098SOL    MW4 8126   1.505   1.612   3.389 -0.0747  1.2325 -0.7108
 2099SOL     OW 8127   4.518   2.994   1.127 -0.1869 -0.3710 -0.1339
 2099SOL    HW2 8128   4.486   2.986   1.037  2.6226 -0.2343 -1.2434
 2099SOL    HW3 8129   4.548   2.906   1.149  0.6559 -0.0477  0.0302
 2099SOL    MW4 8130   4.518   2.981   1.118 -0.3073  0.0947 -0.1344
 2100SOL     OW 8131   0.915   3.963   2.533  0.1006  0.2890  0.2696
 2100SOL    HW2 8132   0.864   4.043   2.514 -0.2805  0.4945  2.0145
 2100SOL    HW3 8133   0.896   3.944   2.625  1.5453 -0.8499  0.3574
 2100SOL    MW4 8134   0.905   3.971   2.542  0.1710  0.2479  0.0615
 2101SOL     OW 8135   5.943   1.787   5.850 -0.8512 -0.0807  0.0228
 2101SOL    HW2 8136   5.930   1.803   5.756  0.1020 -0.0570 -0.1155
 2101SOL    HW3 8137   5.914   1.868   5.892  1.9832  1.3207 -0.5229
 2101SOL    MW4 8138   5.937   1.800   5.843  0.0746 -0.0602 -0.0798
 2102SOL     OW 8139   3.666   5.737   2.216  0.1945 -0.5674 -0.1912
 2102SOL    HW2 8140   3.652   5.719   2.123 -0.1753  1.6830 -0.6125
 2102SOL    HW3 8141   3.751   5.696   2.236  1.0359  0.2593 -1.9268
 2102SOL    MW4 8142   3.676   5.729   2.207  0.1145 -0.0210 -0.0467
 2103SOL     OW 8143   6.172   2.062   3.177  0.1312 -0.1130  0.5474
 2103SOL    HW2 8144   6.207   1.973   3.174  1.4968  0.3591  1.5037
 2103SOL    HW3 8145   6.166   2.082   3.270  1.9912  1.5628  0.3784
 2103SOL    MW4 8146   6.176   2.053   3.189 -0.4677 -0.4437 -0.3507
 2104SOL     OW 8147   2.156   3.347   3.714  0.5899  0.1653 -0.2517
 2104SOL    HW2 8148   2.090   3.281   3.692  1.8076 -1.5731  1.0348
 2104SOL    HW3 8149   2.145   3.416   3.648  0.3968 -2.1262 -2.7593
 2104SOL    MW4 8150   2.146   3.348   3.703 -0.0630  0.2534 -0.3062
 2105SOL     OW 8151   0.393   5.685   5.655 -0.0913 -0.2126  0.5122
 2105SOL    HW2 8152   0.414   5.626   5.727  2.6930 -3.0473 -2.2408
 2105SOL    HW3 8153   0.314   5.648   5.616 -0.0455 -0.3497  0.5480
 2105SOL    MW4 8154   0.386   5.672   5.659 -0.1736 -0.1409 -0.4650
 2106SOL     OW 8155   2.388   2.758   4.207 -0.1139  0.3963 -0.4417
 2106SOL    HW2 8156   2.357   2.676   4.246  0.1244 -0.1330 -1.3320
 2106SOL    HW3 8157   2.348   2.826   4.261  1.2020 -0.2828  1.5054
 2106SOL    MW4 8158   2.378   2.756   4.219  0.3518 -0.3310  0.7988
 2107SOL     OW 8159   4.241   4.158   2.072 -0.2357 -0.3895  0.4101
 2107SOL    HW2 8160   4.239   4.225   2.140 -1.7559 -0.3936  0.3926
 2107SOL    HW3 8161   4.257   4.076   2.119  0.0533 -0.2268  0.6001
 2107SOL    MW4 8162   4.243   4.156   2.087  0.7458 -0.0416  0.2352
 2108SOL     OW 8163   2.416   0.749   4.724 -0.0673  0.4094  0.1234
 2108SOL    HW2 8164   2.393   0.833   4.685 -0.7018  0.6015  0.8723
 2108SOL    HW3 8165   2.392   0.684   4.658 -2.0363  0.6635  0.5087
 2108SOL    MW4 8166   2.410   0.751   4.710 -0.3251  0.0102  0.1080
 2109SOL     OW 8167   1.570   2.069   4.253 -0.0460 -0.1901  0.3917
 2109SOL    HW2 8168   1.483   2.107   4.244  0.1525  0.2792  0.4505
 2109SOL    HW3 8169   1.593   2.084   4.345  1.0220  1.7137 -0.1261
 2109SOL    MW4 8170   1.562   2.076   4.264  0.1234  0.4216  0.3018
 2110SOL     OW 8171   4.679   4.319   1.231 -0.2070 -0.4035  0.2829
 2110SOL    HW2 8172   4.620   4.244   1.238  2.0125 -2.1362  1.7878
 2110SOL    HW3 8173   4.634   4.389   1.278 -2.5373 -0.5364 -1.5428
 2110SOL    MW4 8174   4.665   4.318   1.238 -0.1415  0.1689 -0.8474
 2111SOL     OW 8175   2.718   2.403   2.060  0.3500  0.0297  0.0255
 2111SOL    HW2 8176   2.782   2.441   2.000  1.5350 -1.0682  0.5307
 2111SOL    HW3 8177   2.756   2.319   2.085 -1.3397 -0.6869  0.3189
 2111SOL    MW4 8178   2.732   2.397   2.056  0.4595  0.2282 -0.4106
 2112SOL     OW 8179   4.507   4.910   1.162 -0.1120 -0.2135 -0.3877
 2112SOL    HW2 8180   4.458   4.828   1.168  0.3576 -0.7153 -2.7289
 2112SOL    HW3 8181   4.588   4.893   1.210 -0.3969 -0.7860 -0.0902
 2112SOL    MW4 8182   4.511   4.897   1.169 -0.0988 -0.2952 -0.1983
 2113SOL     OW 8183   1.203   1.139   0.315 -0.2508  0.2516 -0.6999
 2113SOL    HW2 8184   1.250   1.205   0.366  2.1066 -1.7503 -0.0965
 2113SOL    HW3 8185   1.141   1.101   0.377  1.3347 -0.9164  0.2366
 2113SOL    MW4 8186   1.201   1.142   0.330  0.0412 -0.4615 -0.0987
 2114SOL     OW 8187   0.540   4.969   3.937  0.1167 -0.2659  0.0831
 2114SOL    HW2 8188   0.472   4.970   4.004  0.6024  2.2161  0.6145
 2114SOL    HW3 8189   0.615   4.927   3.979 -0.8984 -2.7554 -0.4122
 2114SOL    MW4 8190   0.541   4.964   3.951  0.6773 -0.0538  0.5163
 2115SOL     OW 8191   1.056   6.115   3.465 -0.4334  0.0140 -0.2659
 2115SOL    HW2 8192   1.046   6.166   3.545  0.6133  0.9934 -0.7297
 2115SOL    HW3 8193   0.998   6.040   3.477 -2.3140  1.4891  0.2805
 2115SOL    MW4 8194   1.047   6.112   3.477  0.4986 -0.2410  0.2944
 2116SOL     OW 8195   4.922   4.366   1.367  0.2443  0.8299  0.5504
 2116SOL    HW2 8196   4.841   4.320   1.343  0.6621 -0.2878  1.2476
 2116SOL    HW3 8197   4.892   4.441   1.418 -0.2828 -1.1656  3.3766
 2116SOL    MW4 8198   4.907   4.370   1.370  0.0616 -0.2788  0.0437
 2117SOL     OW 8199   2.282   5.305   0.551  0.0315 -0.4165 -0.6283
 2117SOL    HW2 8200   2.200   5.322   0.505 -1.0680  1.6114  1.8547
 2117SOL    HW3 8201   2.268   5.221   0.595 -0.7421 -0.0788 -0.2100
 2117SOL    MW4 8202   2.269   5.296   0.551  0.0724 -0.1607 -0.5150
 2118SOL     OW 8203   1.820   1.515   5.448 -0.6272 -0.3928  0.6459
 2118SOL    HW2 8204   1.884   1.455   5.411 -0.8920 -1.0585  1.2331
 2118SOL    HW3 8205   1.871   1.580   5.497 -0.3986 -0.9548  1.1610
 2118SOL    MW4 8206   1.835   1.516   5.450  0.3516 -0.1450 -0.0006
 2119SOL     OW 8207   6.220   1.345   1.161 -0.3200 -0.1542  0.3731
 2119SOL    HW2 8208   6.157   1.337   1.232 -0.2489  0.5099  0.5204
 2119SOL    HW3 8209   6.305   1.340   1.203 -0.2696  1.2475  0.4840
 2119SOL    MW4 8210   6.223   1.343   1.176 -0.3553 -0.3824  0.1767
 2120SOL     OW 8211   3.795   4.963   2.453  0.6567 -0.2960 -0.5559
 2120SOL    HW2 8212   3.882   4.993   2.479  0.5959 -0.5867 -0.0058
 2120SOL    HW3 8213   3.770   4.900   2.520  1.2832 -2.4864 -2.2506
 2120SOL    MW4 8214   3.803   4.958   2.465  0.5479  0.2274  0.3435
 2121SOL     OW 8215   4.301   6.407   1.220  0.0830  0.5765  0.4770
 2121SOL    HW2 8216   4.238   6.463   1.175 -0.6103 -0.2855  0.3529
 2121SOL    HW3 8217   4.313   6.332   1.162 -1.3319 -0.8882  1.9309
 2121SOL    MW4 8218   4.294   6.405   1.207  0.2425  0.2259  0.1595
 2122SOL     OW 8219   3.399   4.443   5.858  0.5341 -0.4503 -0.6056
 2122SOL    HW2 8220   3.382   4.391   5.779 -2.2418 -1.1573  0.3196
 2122SOL    HW3 8221   3.321   4.498   5.867  1.0377  0.0003  1.3402
 2122SOL    MW4 8222   3.386   4.443   5.849  0.0925  0.1917 -0.0434
 2123SOL     OW 8223   4.536   5.297   1.830  0.2051  0.1508  0.3427
 2123SOL    HW2 8224   4.456   5.248   1.811  0.1930 -0.0045  0.7783
 2123SOL    HW3 8225   4.576   5.250   1.903  1.8795 -1.1022 -1.2882
 2123SOL    MW4 8226   4.531   5.285   1.837 -0.2657  0.2014 -0.3288
 2124SOL     OW 8227   1.788   0.548   4.097 -0.0171  0.2089 -0.4380
 2124SOL    HW2 8228   1.766   0.466   4.141 -2.3225  0.6659 -0.6229
 2124SOL    HW3 8229   1.760   0.616   4.158 -0.5222  0.8468 -1.3655
 2124SOL    MW4 8230   1.782   0.546   4.111  1.1387  0.3483  0.5052
 2125SOL     OW 8231   4.056   2.557   3.900  0.0847 -0.2020 -0.1029
 2125SOL    HW2 8232   4.106   2.629   3.938 -0.2102 -0.1395  0.1665
 2125SOL    HW3 8233   4.029   2.504   3.975 -0.0621 -0.3589 -0.2665
 2125SOL    MW4 8234   4.059   2.559   3.915  0.4070  0.5400  0.1255
 2126SOL     OW 8235   2.897   4.108   4.878 -0.7251 -0.1371 -0.0241
 2126SOL    HW2 8236   2.853   4.146   4.954 -2.3529 -0.9720 -0.5118
 2126SOL    HW3 8237   2.826   4.079   4.821  0.4346  1.4800 -2.4277
 2126SOL    MW4 8238   2.882   4.109   4.881  0.4391  0.2346  0.1613
 2127SOL     OW 8239   0.285   1.109   4.319 -0.1941 -0.5500  0.3558
 2127SOL    HW2 8240   0.247   1.045   4.259 -0.9482 -0.2872  0.5365
 2127SOL    HW3 8241   0.260   1.078   4.406  0.2641 -0.5307  0.4970
 2127SOL    MW4 8242   0.277   1.096   4.323 -0.2309  0.1658  0.1453
 2128SOL     OW 8243   0.370   3.823   6.001 -0.3948 -0.5006 -0.1661
 2128SOL    HW2 8244   0.384   3.740   6.047 -0.4897 -0.3177  0.2019
 2128SOL    HW3 8245   0.372   3.888   6.071  0.2178 -0.1336 -0.5219
 2128SOL    MW4 8246   0.372   3.820   6.016  0.2603  0.4035  0.3174
 2129SOL     OW 8247   6.033   2.220   4.195 -0.3055 -0.3467 -0.6172
 2129SOL    HW2 8248   6.074   2.306   4.206 -0.3749 -0.4048  0.2260
 2129SOL    HW3 8249   5.939   2.239   4.193 -0.5214 -0.5802  2.3873
 2129SOL    MW4 8250   6.026   2.234   4.196 -0.3204  0.3703  0.1286
 2130SOL     OW 8251   0.107   4.416   3.001  0.8197 -0.4763  0.3046
 2130SOL    HW2 8252   0.029   4.464   3.029  0.1085 -0.6741 -1.2356
 2130SOL    HW3 8253   0.155   4.477   2.945  1.5470 -0.5216  0.8578
 2130SOL    MW4 8254   0.103   4.430   2.997 -0.3952 -0.5931  0.6623
 2131SOL     OW 8255   5.930   5.780   5.088 -0.2985  0.2624  0.3060
 2131SOL    HW2 8256   5.968   5.692   5.081 -2.2426 -0.6378  0.3593
 2131SOL    HW3 8257   5.977   5.832   5.023  0.4160 -0.9954 -0.2182
 2131SOL    MW4 8258   5.941   5.775   5.079  1.0535  0.2395  0.0009
 2132SOL     OW 8259   5.308   4.722   2.347  0.8183 -0.1746  0.1967
 2132SOL    HW2 8260   5.265   4.658   2.404 -0.6203  0.7453  0.1855
 2132SOL    HW3 8261   5.379   4.672   2.305 -0.1318 -1.7090  0.3283
 2132SOL    MW4 8262   5.312   4.707   2.349 -0.5051  0.2083 -1.0610
 2133SOL     OW 8263   3.253   4.764   5.142 -0.3939 -0.3427 -0.2586
 2133SOL    HW2 8264   3.323   4.740   5.081 -0.9528  1.1750 -1.5595
 2133SOL    HW3 8265   3.296   4.819   5.207 -0.2538  0.1228 -0.7343
 2133SOL    MW4 8266   3.268   4.768   5.142 -0.0983 -0.2289  0.1302
 2134SOL     OW 8267   5.152   4.382   1.212  0.0243 -0.3960  0.0787
 2134SOL    HW2 8268   5.210   4.430   1.272  0.2279 -0.4857 -0.0446
 2134SOL    HW3 8269   5.076   4.360   1.265 -0.7805  1.4055 -0.2453
 2134SOL    MW4 8270   5.150   4.386   1.227 -0.5007 -0.2832 -0.7943
 2135SOL     OW 8271   4.768   5.728   3.613  0.2254  0.1497 -0.1666
 2135SOL    HW2 8272   4.700   5.690   3.669  1.1360  0.8264  1.4739
 2135SOL    HW3 8273   4.737   5.817   3.596  1.0806  0.8019  1.4039
 2135SOL    MW4 8274   4.755   5.735   3.618 -0.3807 -0.5253 -0.1479
 2136SOL     OW 8275   0.646   6.200   1.148 -0.1551 -0.0705  0.8502
 2136SOL    HW2 8276   0.630   6.108   1.129  0.1535 -0.2504  1.4453
 2136SOL    HW3 8277   0.707   6.229   1.080 -0.3867 -0.2582  0.5614
 2136SOL    MW4 8278   0.652   6.192   1.137 -0.3297 -0.1621 -0.7892
 2137SOL     OW 8279   3.281   5.727   1.311 -0.3584  0.4687  0.0653
 2137SOL    HW2 8280   3.222   5.720   1.386 -0.5526 -0.8382 -0.1880
 2137SOL    HW3 8281   3.234   5.782   1.248  0.1869  2.3504  1.2296
 2137SOL    MW4 8282   3.267   5.733   1.313 -0.1569  0.4030  0.2734
 2138SOL     OW 8283   1.856   3.656   1.387 -0.5393 -0.0618 -0.4594
 2138SOL    HW2 8284   1.809   3.701   1.317 -1.7043 -0.3762  0.0803
 2138SOL    HW3 8285   1.788   3.638   1.453  0.6408  0.8920  1.0919
 2138SOL    MW4 8286   1.841   3.659   1.387  0.4141 -0.0054 -0.1766
 2139SOL     OW 8287   3.132   0.070   0.168  0.4730  0.3655  0.2247
 2139SOL    HW2 8288   3.119   0.011   0.243  0.0261 -0.4789 -0.4908
 2139SOL    HW3 8289   3.044   0.096   0.143  0.2593 -2.2107 -2.1816
 2139SOL    MW4 8290   3.119   0.065   0.175  0.2613  0.0851 -0.3878
 2140SOL     OW 8291   0.108   2.655   1.019  0.1211 -0.5119 -0.3460
 2140SOL    HW2 8292   0.041   2.649   0.951  0.2311  2.3645 -0.8317
 2140SOL    HW3 8293   0.073   2.717   1.082  2.3458  1.2088 -0.6981
 2140SOL    MW4 8294   0.095   2.662   1.018 -0.6371 -0.3551  0.3276
 2141SOL     OW 8295   5.037   1.838   1.143  0.0633 -0.4611  0.8258
 2141SOL    HW2 8296   4.946   1.815   1.161  0.0980 -2.0963 -0.7564
 2141SOL    HW3 8297   5.087   1.789   1.208 -0.1597  1.7639  2.8333
 2141SOL    MW4 8298   5.032   1.829   1.154 -0.0363  0.1950  0.5820
 2142SOL     OW 8299   4.112   4.055   4.327 -0.2610 -0.0894 -0.1284
 2142SOL    HW2 8300   4.176   4.020   4.389 -0.7237  0.8025  0.8855
 2142SOL    HW3 8301   4.037   3.996   4.335  0.1902 -0.7933 -0.8923
 2142SOL    MW4 8302   4.110   4.042   4.336 -0.3403 -0.0491 -0.6763
 2143SOL     OW 8303   0.915   1.955   3.706  0.3783 -0.2296  0.0375
 2143SOL    HW2 8304   0.979   1.900   3.661  0.2679 -0.7234  0.4735
 2143SOL    HW3 8305   0.869   1.895   3.764  0.0618  0.2746  0.3111
 2143SOL    MW4 8306   0.917   1.939   3.708  0.0917  0.0862  0.0972
 2144SOL     OW 8307   2.893   3.474   0.237 -0.2400 -0.2670 -0.1577
 2144SOL    HW2 8308   2.903   3.501   0.146 -0.0386 -0.8948 -0.3279
 2144SOL    HW3 8309   2.947   3.536   0.286  1.5164 -1.2760 -0.6971
 2144SOL    MW4 8310   2.902   3.485   0.232 -0.1235 -0.4679  0.3774
 2145SOL     OW 8311   1.079   0.138   5.589  0.4859 -0.0955  0.6166
 2145SOL    HW2 8312   1.127   0.194   5.528  0.5412 -2.6965 -1.9167
 2145SOL    HW3 8313   0.992   0.176   5.592  0.6885  0.5158 -0.5537
 2145SOL    MW4 8314   1.074   0.150   5.581 -0.0513  0.3143 -0.2774
 2146SOL     OW 8315   1.554   5.130   4.280  0.4621 -0.6135 -0.2848
 2146SOL    HW2 8316   1.528   5.044   4.313  1.2795 -0.8662 -0.2629
 2146SOL    HW3 8317   1.478   5.186   4.294 -0.2014 -1.4153 -0.6182
 2146SOL    MW4 8318   1.541   5.126   4.286  0.2105  0.2122 -0.3238
 2147SOL     OW 8319   0.955   4.872   2.023 -0.1300 -0.6710  0.2597
 2147SOL    HW2 8320   0.951   4.946   2.083 -0.0083 -0.6289  0.2158
 2147SOL    HW3 8321   0.913   4.903   1.943 -0.5819 -0.8327  0.4344
 2147SOL    MW4 8322   0.949   4.886   2.020  0.4692  0.6159  0.1999
 2148SOL     OW 8323   4.871   3.825   0.442 -0.2030  1.1507 -0.1695
 2148SOL    HW2 8324   4.816   3.757   0.481 -0.2066  1.4868  0.4298
 2148SOL    HW3 8325   4.875   3.802   0.349  1.3906 -0.7603  0.3140
 2148SOL    MW4 8326   4.864   3.813   0.435  0.2536 -0.7389  0.0632
 2149SOL     OW 8327   2.334   2.510   4.373 -0.3345 -0.1608 -0.3126
 2149SOL    HW2 8328   2.429   2.505   4.364 -0.2125  0.7317  0.2777
 2149SOL    HW3 8329   2.301   2.433   4.327  0.7340 -1.1304  0.4797
 2149SOL    MW4 8330   2.342   2.500   4.366 -0.4848 -0.3970  0.6037
 2150SOL     OW 8331   4.996   2.218   4.028  0.1070  0.0259 -0.4485
 2150SOL    HW2 8332   5.052   2.177   4.094 -0.3088  0.3544  0.1135
 2150SOL    HW3 8333   4.911   2.176   4.040  0.2365 -0.5106 -1.3369
 2150SOL    MW4 8334   4.992   2.207   4.038 -0.0264  0.3853  0.4598
 2151SOL     OW 8335   0.580   1.922   5.323  0.2981 -0.1079  0.0156
 2151SOL    HW2 8336   0.570   2.004   5.274 -0.5870 -0.5139 -0.4984
 2151SOL    HW3 8337   0.675   1.914   5.335  0.3933  1.0771  0.2304
 2151SOL    MW4 8338   0.591   1.932   5.318 -0.1547 -0.1096  0.3316
 2152SOL     OW 8339   1.015   0.391   1.586  0.3430 -0.1650 -0.0749
 2152SOL    HW2 8340   1.055   0.316   1.541 -0.9693 -0.2334 -1.1983
 2152SOL    HW3 8341   1.043   0.382   1.677 -1.1732 -3.0254  0.2047
 2152SOL    MW4 8342   1.024   0.380   1.592 -0.3557 -0.1502  0.2571
 2153SOL     OW 8343   0.328   3.915   5.532  0.1548  0.1315 -0.2571
 2153SOL    HW2 8344   0.424   3.915   5.535  0.2266 -0.7111 -1.4668
 2153SOL    HW3 8345   0.305   3.998   5.491  0.4927 -0.4160 -1.6306
 2153SOL    MW4 8346   0.338   3.926   5.527 -0.0442 -0.2679 -0.4782
 2154SOL     OW 8347   4.815   5.008   3.523  0.0720 -0.0010  0.4505
 2154SOL    HW2 8348   4.852   4.935   3.473 -0.3142 -0.3374  0.6609
 2154SOL    HW3 8349   4.800   5.076   3.457 -0.0884 -0.3114  0.1638
 2154SOL    MW4 8350   4.818   5.007   3.507 -0.2869 -0.2354  0.5050
 2155SOL     OW 8351   5.928   4.778   6.348  0.1382  0.3479 -0.2376
 2155SOL    HW2 8352   5.942   4.869   6.374 -0.4452  0.2753  0.3498
 2155SOL    HW3 8353   5.902   4.782   6.256  2.0819  0.6232 -0.8198
 2155SOL    MW4 8354   5.927   4.790   6.339  0.3632  0.2589 -0.1287
 2156SOL     OW 8355   0.631   4.349   2.397  0.4027  0.8641 -0.2264
 2156SOL    HW2 8356   0.599   4.420   2.340  1.6186  2.3888  0.8965
 2156SOL    HW3 8357   0.689   4.298   2.341  0.7369  1.6952 -0.6478
 2156SOL    MW4 8358   0.634   4.352   2.382  0.5014 -0.4123 -0.2371
 2157SOL     OW 8359   1.880   0.387   6.001  0.7039 -0.2584 -0.0205
 2157SOL    HW2 8360   1.910   0.343   6.081 -0.3585  0.1480  0.6136
 2157SOL    HW3 8361   1.935   0.349   5.931  0.2620 -2.1235  0.5823
 2157SOL    MW4 8362   1.891   0.376   6.002  0.0940 -0.3784 -0.1425
 2158SOL     OW 8363   5.978   1.316   1.325  0.4844 -0.0218 -0.6979
 2158SOL    HW2 8364   6.008   1.336   1.414 -0.0059 -1.8779 -0.0535
 2158SOL    HW3 8365   5.933   1.394   1.296 -1.2275 -0.0773  1.5413
 2158SOL    MW4 8366   5.976   1.329   1.333 -0.1453  0.1753  0.0350
 2159SOL     OW 8367   2.399   5.816   2.484  0.8646 -0.0009 -0.3993
 2159SOL    HW2 8368   2.471   5.766   2.446  2.3574  1.2345  0.6664
 2159SOL    HW3 8369   2.391   5.894   2.429  0.3903 -0.0918 -0.4634
 2159SOL    MW4 8370   2.407   5.819   2.472  0.3280 -0.2597  0.4731
 2160SOL     OW 8371   3.693   5.668   2.554  0.0284  0.6717  0.0882
 2160SOL    HW2 8372   3.650   5.737   2.503 -3.0112 -0.5815  0.7874
 2160SOL    HW3 8373   3.663   5.682   2.644  0.7042 -0.5815  0.5329
 2160SOL    MW4 8374   3.684   5.679   2.559  0.3219  0.0689 -0.4794
 2161SOL     OW 8375   5.840   2.726   1.329  0.5243  0.5110  0.5797
 2161SOL    HW2 8376   5.933   2.738   1.311  0.2239 -0.3383 -1.9693
 2161SOL    HW3 8377   5.796   2.781   1.264 -0.7337 -0.6233  0.4413
 2161SOL    MW4 8378   5.846   2.735   1.318 -0.3564 -0.1160 -0.0361
 2162SOL     OW 8379   3.085   4.384   2.512 -0.4652  0.2081  0.1364
 2162SOL    HW2 8380   3.176   4.410   2.499 -0.4638 -0.3321 -1.0953
 2162SOL    HW3 8381   3.034   4.462   2.493 -0.4092 -0.3036 -2.5927
 2162SOL    MW4 8382   3.090   4.397   2.508 -0.3520 -0.0890  0.7275
 2163SOL     OW 8383   4.731   4.080   3.752 -0.4998 -0.1066 -0.0880
 2163SOL    HW2 8384   4.735   4.018   3.825 -1.2741  1.6169  1.5174
 2163SOL    HW3 8385   4.802   4.142   3.769 -0.4118  0.0718 -1.0601
 2163SOL    MW4 8386   4.741   4.080   3.764  1.0517  0.3090 -0.2367
 2164SOL     OW 8387   0.548   1.152   6.082 -0.4700  0.0046  0.0785
 2164SOL    HW2 8388   0.629   1.162   6.031 -0.2633 -2.3257 -0.1539
 2164SOL    HW3 8389   0.483   1.124   6.018 -1.3447  1.2896  0.3732
 2164SOL    MW4 8390   0.550   1.150   6.067 -0.2667  0.6248  0.1364
 2165SOL     OW 8391   0.742   4.596   0.678 -0.5810 -0.1240 -0.0790
 2165SOL    HW2 8392   0.770   4.525   0.736 -1.4987 -0.8484 -0.4948
 2165SOL    HW3 8393   0.824   4.634   0.646 -0.0346 -1.8850 -0.9108
 2165SOL    MW4 8394   0.757   4.592   0.681  0.0339 -0.5676 -0.1482
 2166SOL     OW 8395   2.562   4.489   2.780  0.5601 -0.2259 -0.0822
 2166SOL    HW2 8396   2.581   4.438   2.701 -1.8079 -1.6439  0.1787
 2166SOL    HW3 8397   2.481   4.452   2.814  1.6346  0.1609  3.2217
 2166SOL    MW4 8398   2.554   4.478   2.774 -0.3130  0.1079  0.2609
 2167SOL     OW 8399   4.739   1.702   1.734  0.0805  0.6221  0.0222
 2167SOL    HW2 8400   4.746   1.611   1.706 -2.8053  0.2017  0.4292
 2167SOL    HW3 8401   4.713   1.697   1.826  1.7156  1.9229  0.6067
 2167SOL    MW4 8402   4.737   1.689   1.742 -0.2124 -0.3851  0.3267
 2168SOL     OW 8403   3.992   3.637   5.483 -0.5894 -0.2808  0.2340
 2168SOL    HW2 8404   3.982   3.716   5.537  1.6529 -0.2136  0.6421
 2168SOL    HW3 8405   4.025   3.670   5.399  2.0532 -0.8110  0.9623
 2168SOL    MW4 8406   3.995   3.652   5.479 -0.1077  0.4233 -0.0188
 2169SOL     OW 8407   5.957   2.155   5.690  0.6534 -0.2360  0.6065
 2169SOL    HW2 8408   5.925   2.164   5.600 -0.3272 -0.5423  0.9111
 2169SOL    HW3 8409   5.877   2.153   5.744  1.2049 -0.6069  1.4309
 2169SOL    MW4 8410   5.942   2.156   5.685  0.9040  0.4026  0.2927
 2170SOL     OW 8411   5.950   5.434   0.016  0.7691 -0.1147  0.1569
 2170SOL    HW2 8412   5.868   5.389   0.039  0.2845  0.0276 -1.2354
 2170SOL    HW3 8413   6.014   5.400   0.079 -0.1175 -1.0254  0.5950
 2170SOL    MW4 8414   5.948   5.423   0.028  0.6963  0.3865 -0.2069
 2171SOL     OW 8415   1.181   0.260   1.392  0.1410 -0.5997  0.3533
 2171SOL    HW2 8416   1.276   0.274   1.395  0.0358  0.5955 -1.0570
 2171SOL    HW3 8417   1.168   0.199   1.319 -0.3330  1.1001 -1.0386
 2171SOL    MW4 8418   1.192   0.254   1.383  0.6526 -0.4586  0.5034
 2172SOL     OW 8419   3.820   0.842   1.291  0.1756 -0.5675 -0.0834
 2172SOL    HW2 8420   3.898   0.893   1.270  0.3227 -0.6885  0.1745
 2172SOL    HW3 8421   3.749   0.890   1.248 -0.0721  1.3288  2.2132
 2172SOL    MW4 8422   3.821   0.855   1.283  0.1703 -0.1174 -0.5756
 2173SOL     OW 8423   4.523   0.985   2.763  0.5179  0.0178 -0.1844
 2173SOL    HW2 8424   4.535   0.989   2.668  0.7716  1.6406 -0.1117
 2173SOL    HW3 8425   4.552   0.897   2.787 -2.0161 -1.3958 -1.8971
 2173SOL    MW4 8426   4.528   0.974   2.754  0.7439  0.2356 -0.0263
 2174SOL     OW 8427   2.120   2.287   4.541  0.4097  0.5655  0.1203
 2174SOL    HW2 8428   2.057   2.216   4.537  0.7276  0.0780  2.1982
 2174SOL    HW3 8429   2.152   2.298   4.452 -0.1229 -1.4649 -0.3538
 2174SOL    MW4 8430   2.116   2.279   4.529  0.2552 -0.3813  0.1408
 2175SOL     OW 8431   1.656   0.411   4.488 -0.0517  0.2292 -0.1777
 2175SOL    HW2 8432   1.652   0.317   4.508 -0.0781  0.4283  0.8102
 2175SOL    HW3 8433   1.746   0.426   4.460 -0.3743 -0.3167 -1.6125
 2175SOL    MW4 8434   1.667   0.400   4.487 -0.5741  0.0707 -0.2910
 2176SOL     OW 8435   1.266   1.267   6.412 -0.5152 -0.3012 -0.4700
 2176SOL    HW2 8436   1.220   1.248   6.330 -1.4602 -0.3567  0.0590
 2176SOL    HW3 8437   1.198   1.263   6.479 -0.0410  1.2386  0.1311
 2176SOL    MW4 8438   1.251   1.264   6.410  0.4089 -0.3007 -0.3554
 2177SOL     OW 8439   3.585   4.248   3.847 -0.0724 -0.4432 -0.6937
 2177SOL    HW2 8440   3.644   4.266   3.774 -0.8515  3.0071 -0.6310
 2177SOL    HW3 8441   3.546   4.163   3.826  1.6936 -0.7919 -2.9042
 2177SOL    MW4 8442   3.588   4.239   3.835 -0.1156 -0.1152  0.4273
 2178SOL     OW 8443   1.281   2.686   2.701  0.4035  0.6821  0.2337
 2178SOL    HW2 8444   1.376   2.686   2.700  0.4039  0.7748 -0.6412
 2178SOL    HW3 8445   1.256   2.688   2.608 -0.4329 -1.9689  0.3256
 2178SOL    MW4 8446   1.290   2.686   2.688  0.6581  0.2881  0.1912
 2179SOL     OW 8447   3.762   1.031   5.842  0.3057  0.1407 -0.2591
 2179SOL    HW2 8448   3.822   1.026   5.917 -2.1515  0.3413  1.8747
 2179SOL    HW3 8449   3.747   1.125   5.830  0.2474  0.0846 -0.6282
 2179SOL    MW4 8450   3.768   1.043   5.850  0.2028 -0.4936  0.0090
 2180SOL     OW 8451   1.949   0.183   3.456 -0.1919 -0.3485 -0.4129
 2180SOL    HW2 8452   1.977   0.275   3.457  0.6485 -0.6021 -0.2477
 2180SOL    HW3 8453   2.028   0.134   3.478 -0.6071 -1.1231 -0.6395
 2180SOL    MW4 8454   1.963   0.189   3.459 -0.1872  0.1903 -0.0635
 2181SOL     OW 8455   5.375   3.368   2.166 -0.1175  0.4779  0.2351
 2181SOL    HW2 8456   5.410   3.426   2.233 -0.0128  1.0489 -0.3009
 2181SOL    HW3 8457   5.288   3.404   2.147 -1.1142 -1.0152  1.6715
 2181SOL    MW4 8458   5.368   3.381   2.172  0.3493  0.0355 -0.6230
 2182SOL     OW 8459   1.754   0.043   3.851  0.1499  0.3427  0.1281
 2182SOL    HW2 8460   1.810   0.120   3.867  0.8049 -0.1961  0.4727
 2182SOL    HW3 8461   1.814  -0.031   3.855 -0.5657 -0.2339  0.3090
 2182SOL    MW4 8462   1.769   0.044   3.854  0.2882 -0.3894 -0.4098
 2183SOL     OW 8463   0.515   5.402   3.195 -0.4061  0.2517 -0.4392
 2183SOL    HW2 8464   0.530   5.338   3.264  0.5360 -0.3022 -1.1386
 2183SOL    HW3 8465   0.430   5.378   3.158 -1.1695  0.8566  0.8091
 2183SOL    MW4 8466   0.505   5.391   3.199  0.6397 -1.0241  0.1768
 2184SOL     OW 8467   4.549   0.054   1.315  0.5016 -0.0350  0.0287
 2184SOL    HW2 8468   4.454   0.048   1.302  0.3579  0.1009  0.9677
 2184SOL    HW3 8469   4.577  -0.037   1.327  0.7780 -0.2706 -2.0021
 2184SOL    MW4 8470   4.540   0.041   1.315 -0.0576 -0.0892  0.0082
 2185SOL     OW 8471   3.679   4.077   2.568  0.5038  0.0245  0.3963
 2185SOL    HW2 8472   3.732   4.066   2.489 -0.4787  1.4952 -0.5112
 2185SOL    HW3 8473   3.742   4.105   2.634  1.3934 -1.5128  0.2557
 2185SOL    MW4 8474   3.694   4.080   2.566 -0.2076  0.3877  0.4084
 2186SOL     OW 8475   1.205   5.068   1.448  0.6753  0.0786 -0.3823
 2186SOL    HW2 8476   1.152   5.028   1.518 -0.8194  1.3856 -0.7034
 2186SOL    HW3 8477   1.167   5.033   1.367  0.5570  0.7153 -0.6047
 2186SOL    MW4 8478   1.193   5.058   1.447  0.2867  0.0889 -0.8200
 2187SOL     OW 8479   0.657   3.026   6.038  0.1226 -0.2081 -0.4643
 2187SOL    HW2 8480   0.659   2.955   6.102 -0.6354  0.2787  0.1177
 2187SOL    HW3 8481   0.729   3.006   5.979  1.3921 -0.2332  1.0155
 2187SOL    MW4 8482   0.667   3.014   6.039 -0.0056 -0.1960  0.4615
 2188SOL     OW 8483   4.687   3.411   0.310  0.4030  0.0615 -0.2407
 2188SOL    HW2 8484   4.647   3.495   0.287  0.1448  0.3460  1.1553
 2188SOL    HW3 8485   4.640   3.347   0.257 -0.5255  0.6311 -0.1344
 2188SOL    MW4 8486   4.675   3.413   0.300  0.1634  0.0389  0.9125
 2189SOL     OW 8487   1.936   3.749   5.608  0.2913 -0.2028  0.6440
 2189SOL    HW2 8488   1.966   3.658   5.602  0.7401 -0.0112 -0.1288
 2189SOL    HW3 8489   1.982   3.794   5.538  0.6763  0.7937  1.5039
 2189SOL    MW4 8490   1.946   3.742   5.598  0.2883 -0.3912 -0.2398
 2190SOL     OW 8491   3.858   1.878   3.027 -0.5138 -0.4345  0.1098
 2190SOL    HW2 8492   3.812   1.956   2.998 -0.6692 -0.1221  1.1629
 2190SOL    HW3 8493   3.944   1.883   2.985 -0.9929 -0.3868 -0.8802
 2190SOL    MW4 8494   3.863   1.889   3.018 -0.0992 -0.1754 -0.1717
 2191SOL     OW 8495   4.897   1.571   4.401 -0.0794 -0.0431  0.3009
 2191SOL    HW2 8496   4.955   1.498   4.380 -2.4243 -1.8348 -0.4583
 2191SOL    HW3 8497   4.869   1.554   4.491 -2.3425 -1.5000 -0.5629
 2191SOL    MW4 8498   4.901   1.559   4.410 -0.2817 -0.1022 -0.0853
 2192SOL     OW 8499   1.752   5.023   3.094  0.5965  0.2337  0.2121
 2192SOL    HW2 8500   1.739   4.968   3.171  0.5839 -0.5511 -0.3338
 2192SOL    HW3 8501   1.732   4.965   3.020 -0.8588  1.3925 -0.3458
 2192SOL    MW4 8502   1.748   5.008   3.094 -0.0632  0.0620 -0.0851
 2193SOL     OW 8503   3.539   2.774   0.969 -0.6793  0.3867  0.2943
 2193SOL    HW2 8504   3.492   2.755   0.888 -1.1100  2.3956  0.0058
 2193SOL    HW3 8505   3.620   2.723   0.963 -1.9255 -1.6530 -0.0832
 2193SOL    MW4 8506   3.544   2.765   0.957  0.2619 -0.2268 -0.0339
 2194SOL     OW 8507   2.097   6.300   6.251 -0.2500  0.5018  0.1927
 2194SOL    HW2 8508   2.161   6.319   6.182  0.9512 -0.8953  0.8601
 2194SOL    HW3 8509   2.040   6.234   6.212 -0.9818  1.3626 -0.2205
 2194SOL    MW4 8510   2.098   6.293   6.237  0.1041 -0.0145  0.3852
 2195SOL     OW 8511   0.981   4.290   0.225  0.0517  0.0263  0.9370
 2195SOL    HW2 8512   1.064   4.244   0.217 -0.8075 -1.7269  1.4902
 2195SOL    HW3 8513   0.949   4.267   0.312 -0.8441  0.9688  0.8809
 2195SOL    MW4 8514   0.988   4.281   0.236  0.0357  0.0868  0.0267
 2196SOL     OW 8515   5.845   0.444   1.360 -0.0396 -0.0584  0.6382
 2196SOL    HW2 8516   5.897   0.511   1.403  0.3383  0.0854 -0.0348
 2196SOL    HW3 8517   5.756   0.478   1.361  0.3902  1.3061 -1.2668
 2196SOL    MW4 8518   5.840   0.457   1.365  0.2419 -0.5707  0.3609
 2197SOL     OW 8519   1.570   2.910   5.820 -0.2472  0.2916  0.3335
 2197SOL    HW2 8520   1.662   2.935   5.834 -0.0482  0.0200 -0.4574
 2197SOL    HW3 8521   1.552   2.846   5.889  0.5273 -0.5438 -0.2150
 2197SOL    MW4 8522   1.580   2.905   5.831  0.7649 -0.5581  0.1422
 2198SOL     OW 8523   5.731   5.742   3.502 -0.1926  0.4332 -0.7045
 2198SOL    HW2 8524   5.774   5.761   3.418 -0.3165  0.5425 -0.7430
 2198SOL    HW3 8525   5.784   5.671   3.540  0.7466  1.3744 -0.1963
 2198SOL    MW4 8526   5.744   5.735   3.496 -0.1678  0.4434  0.0223
 2199SOL     OW 8527   3.125   5.816   1.992 -0.6262 -0.6896  0.1947
 2199SOL    HW2 8528   3.048   5.872   2.004 -0.9800 -1.0773 -0.2434
 2199SOL    HW3 8529   3.190   5.874   1.951 -0.8850 -0.5128  0.0269
 2199SOL    MW4 8530   3.123   5.831   1.988  0.2354 -0.3693  0.3290
 2200SOL     OW 8531   2.545   0.693   5.971 -0.6225 -0.3798  0.1281
 2200SOL    HW2 8532   2.637   0.705   5.998 -0.8906 -0.6181  1.1701
 2200SOL    HW3 8533   2.518   0.780   5.942 -0.0768 -0.2988 -0.1481
 2200SOL    MW4 8534   2.554   0.706   5.971  0.2236  0.2858  0.1067
 2201SOL     OW 8535   0.477   2.577   5.829 -0.3370  0.6178  0.0828
 2201SOL    HW2 8536   0.451   2.654   5.880  1.4690  1.4276 -0.1737
 2201SOL    HW3 8537   0.554   2.605   5.780 -0.2378 -1.0710 -0.7848
 2201SOL    MW4 8538   0.484   2.591   5.829  0.0136  0.6609  0.1527
 2202SOL     OW 8539   4.263   2.851   3.241 -0.2818 -0.1311  0.9830
 2202SOL    HW2 8540   4.184   2.888   3.200  1.6247  2.2086 -0.9243
 2202SOL    HW3 8541   4.230   2.789   3.305 -3.6458  0.1300 -0.2829
 2202SOL    MW4 8542   4.248   2.848   3.244 -0.4589 -0.7037  0.2407
 2203SOL     OW 8543   4.975   0.132   1.720 -0.0527  0.3278  0.4844
 2203SOL    HW2 8544   5.003   0.103   1.633  0.5369  0.3965  0.6514
 2203SOL    HW3 8545   4.906   0.070   1.744  0.4997 -0.3277  0.4107
 2203SOL    MW4 8546   4.969   0.120   1.711  0.3668  0.3009  0.4204
 2204SOL     OW 8547   1.768   1.536   2.549  0.4220  0.1507 -0.3268
 2204SOL    HW2 8548   1.745   1.556   2.640 -1.6125  1.6562 -1.0829
 2204SOL    HW3 8549   1.758   1.619   2.504  1.6594 -0.5187 -1.9024
 2204SOL    MW4 8550   1.764   1.549   2.555  0.0717  0.3425  0.3027
 2205SOL     OW 8551   5.964   2.047   4.944 -0.3568 -0.6850  0.6525
 2205SOL    HW2 8552   5.967   2.007   5.030  0.1315  0.2707  1.0945
 2205SOL    HW3 8553   5.963   2.141   4.961 -0.1336 -0.4803 -0.3789
 2205SOL    MW4 8554   5.964   2.054   4.957  0.3590 -0.4767 -0.2032
 2206SOL     OW 8555   3.690   1.847   4.158 -0.6438  0.7162  0.4202
 2206SOL    HW2 8556   3.663   1.817   4.245 -1.4995  1.6860  0.5152
 2206SOL    HW3 8557   3.749   1.920   4.175 -0.8940  0.9745  0.1853
 2206SOL    MW4 8558   3.694   1.852   4.172 -0.5254 -0.0416 -0.1266
 2207SOL     OW 8559   5.905   0.517   0.012  0.1926  0.4673 -0.2025
 2207SOL    HW2 8560   5.894   0.435   0.060 -1.2328 -0.2477 -1.6399
 2207SOL    HW3 8561   5.942   0.578   0.076 -1.2940 -0.5132  1.6966
 2207SOL    MW4 8562   5.908   0.514   0.026  0.4626 -0.3117  0.1465
 2208SOL     OW 8563   2.762   1.827   6.425 -0.6443  0.9767  0.6211
 2208SOL    HW2 8564   2.690   1.889   6.410 -1.3136  0.1588  0.4149
 2208SOL    HW3 8565   2.829   1.880   6.468 -0.8761  2.0545 -0.2725
 2208SOL    MW4 8566   2.761   1.842   6.429 -0.0886 -0.3237  0.1650
 2209SOL     OW 8567   5.170   1.268   3.953  0.1769  0.6936  0.0698
 2209SOL    HW2 8568   5.174   1.273   3.857 -2.1329 -0.8732 -0.1835
 2209SOL    HW3 8569   5.224   1.342   3.982  0.1738  1.8169 -2.4319
 2209SOL    MW4 8570   5.177   1.279   3.944  0.3705 -0.0919  0.1347
 2210SOL     OW 8571   6.265   4.569   5.848 -0.2317 -0.2521  0.0655
 2210SOL    HW2 8572   6.233   4.636   5.907 -0.9781 -0.3299 -0.2365
 2210SOL    HW3 8573   6.287   4.495   5.905 -2.1104 -0.7871  0.1887
 2210SOL    MW4 8574   6.263   4.568   5.863 -0.0762  0.2861  0.1363
 2211SOL     OW 8575   4.705   5.841   0.247 -0.5354 -0.3480 -0.2830
 2211SOL    HW2 8576   4.751   5.788   0.312 -1.6214  1.1546  1.8357
 2211SOL    HW3 8577   4.627   5.791   0.226 -1.2256  0.0583  1.2039
 2211SOL    MW4 8578   4.701   5.828   0.253  0.2017  0.4992  0.0831
 2212SOL     OW 8579   3.315   3.635   2.449 -0.5243 -0.7437 -0.1023
 2212SOL    HW2 8580   3.348   3.666   2.533  0.2682 -2.8996  0.4376
 2212SOL    HW3 8581   3.224   3.666   2.446 -0.4723 -0.3904  1.3982
 2212SOL    MW4 8582   3.307   3.643   2.459 -0.2044 -0.2415 -0.7219
 2213SOL     OW 8583   5.815   3.393   2.027 -0.3116  0.0148 -0.4605
 2213SOL    HW2 8584   5.729   3.421   1.996 -0.9095 -0.7011  0.5060
 2213SOL    HW3 8585   5.815   3.412   2.120  0.0789 -1.1556 -0.1980
 2213SOL    MW4 8586   5.804   3.399   2.035  0.7848  0.0075 -1.2900
 2214SOL     OW 8587   1.716   3.778   2.887 -0.4072  0.7522  0.5415
 2214SOL    HW2 8588   1.677   3.707   2.837 -0.7644  0.8937  0.6205
 2214SOL    HW3 8589   1.809   3.754   2.894  0.0881  1.6732 -1.8720
 2214SOL    MW4 8590   1.723   3.765   2.881  0.4992  0.1956  0.5346
 2215SOL     OW 8591   3.630   2.732   1.290  0.5585  0.0819 -0.1452
 2215SOL    HW2 8592   3.644   2.761   1.380 -2.2653  0.1429  0.3685
 2215SOL    HW3 8593   3.565   2.793   1.255  0.5752 -0.7834 -1.7723
 2215SOL    MW4 8594   3.624   2.744   1.298 -0.3681  0.2634 -0.0204
 2216SOL     OW 8595   2.862   3.432   2.578 -0.4768 -0.2057 -0.0360
 2216SOL    HW2 8596   2.806   3.361   2.611  0.1053 -0.7148 -0.1209
 2216SOL    HW3 8597   2.945   3.421   2.625 -0.0266 -0.2336 -0.8213
 2216SOL    MW4 8598   2.866   3.421   2.589  0.3961 -0.5407 -0.0276
 2217SOL     OW 8599   4.907   0.208   3.871  0.1472  0.1122  0.3455
 2217SOL    HW2 8600   4.870   0.125   3.842  1.2544 -1.3299  2.7301
 2217SOL    HW3 8601   5.001   0.192   3.874  0.3950  1.5224  0.7069
 2217SOL    MW4 8602   4.915   0.195   3.868 -0.5944  0.6733  0.0437
 2218SOL     OW 8603   0.323   4.819   0.652  0.6407  0.1638  0.3449
 2218SOL    HW2 8604   0.341   4.743   0.596  1.2884 -0.8909  1.8859
 2218SOL    HW3 8605   0.384   4.886   0.621  0.3429 -0.0762 -0.7952
 2218SOL    MW4 8606   0.334   4.818   0.641  0.1018  0.1909  0.4738
 2219SOL     OW 8607   0.318   2.883   3.107  0.3811  0.5164 -0.2636
 2219SOL    HW2 8608   0.282   2.889   3.019  1.9253  2.4205 -0.8414
 2219SOL    HW3 8609   0.412   2.869   3.094  0.5529  0.2153  1.1002
 2219SOL    MW4 8610   0.326   2.882   3.094  0.3450  0.9705 -0.5492
 2220SOL     OW 8611   6.013   5.187   4.228  0.5581 -0.4256 -0.2843
 2220SOL    HW2 8612   5.960   5.219   4.154 -2.2661 -1.9786  0.9036
 2220SOL    HW3 8613   6.055   5.266   4.263 -0.7364  0.8787 -1.5039
 2220SOL    MW4 8614   6.011   5.202   4.223 -0.9269  0.1812  0.1319
 2221SOL     OW 8615   4.684   2.232   5.388 -0.3185 -0.6042 -0.2639
 2221SOL    HW2 8616   4.654   2.176   5.317 -1.1103 -0.6756  0.1213
 2221SOL    HW3 8617   4.604   2.269   5.425  0.1489  0.2229 -0.0574
 2221SOL    MW4 8618   4.670   2.230   5.384  0.2204 -0.4336 -0.2557
 2222SOL     OW 8619   5.586   4.349   2.058 -0.1002 -0.0299  0.0720
 2222SOL    HW2 8620   5.524   4.306   1.999 -0.3269  0.6815 -0.2266
 2222SOL    HW3 8621   5.672   4.330   2.021 -0.1913 -0.3231  0.0121
 2222SOL    MW4 8622   5.589   4.341   2.045  0.0551 -0.3150 -0.1514
 2223SOL     OW 8623   4.848   3.426   6.257  0.1339 -0.3002  0.4470
 2223SOL    HW2 8624   4.879   3.339   6.282 -1.5024 -0.6170  1.5595
 2223SOL    HW3 8625   4.836   3.472   6.340 -1.0429  0.2467 -0.0057
 2223SOL    MW4 8626   4.851   3.421   6.271 -0.4860  0.7662 -0.4281
 2224SOL     OW 8627   5.583   1.930   4.424  0.0171  0.7845 -0.2374
 2224SOL    HW2 8628   5.656   1.874   4.451  2.1596  3.4593 -0.0505
 2224SOL    HW3 8629   5.509   1.899   4.477  1.5958 -0.5810  1.3151
 2224SOL    MW4 8630   5.583   1.918   4.435 -0.4348  0.1946  0.1961
 2225SOL     OW 8631   0.820   0.081   3.645 -0.3729  0.2028  1.1001
 2225SOL    HW2 8632   0.870   0.041   3.573 -1.1786 -0.6940  1.0229
 2225SOL    HW3 8633   0.887   0.114   3.705  0.4225 -3.0540  2.1913
 2225SOL    MW4 8634   0.835   0.080   3.643 -0.0107  0.2943 -0.2473
 2226SOL     OW 8635   1.590   3.415   4.224  0.5568 -0.2742 -0.4716
 2226SOL    HW2 8636   1.607   3.424   4.130  2.0033  1.1436 -0.1259
 2226SOL    HW3 8637   1.673   3.383   4.260  1.2929  2.6847  0.7545
 2226SOL    MW4 8638   1.604   3.412   4.217  0.5981  0.2837  0.0034
 2227SOL     OW 8639   0.396   3.697   1.292  0.0088 -0.1495  0.1333
 2227SOL    HW2 8640   0.327   3.639   1.324  0.4464  0.0715  1.5312
 2227SOL    HW3 8641   0.410   3.669   1.202 -1.4689 -0.6026  0.0090
 2227SOL    MW4 8642   0.388   3.686   1.284  0.2133  0.0077  0.2561
 2228SOL     OW 8643   3.377   5.029   6.201 -0.3062 -0.5691  0.0052
 2228SOL    HW2 8644   3.457   5.081   6.203 -0.6887  0.1290 -1.2979
 2228SOL    HW3 8645   3.404   4.944   6.164 -0.3890  0.1763 -1.8861
 2228SOL    MW4 8646   3.391   5.024   6.196  0.0799  0.2858 -0.6050
 2229SOL     OW 8647   3.461   5.077   0.607  0.0113  0.0619  0.1611
 2229SOL    HW2 8648   3.399   5.143   0.639 -0.8458 -0.7842  0.3325
 2229SOL    HW3 8649   3.546   5.105   0.640 -0.6494 -0.0747  2.1381
 2229SOL    MW4 8650   3.464   5.089   0.616 -0.4607  0.3671  0.6966
 2230SOL     OW 8651   0.671   0.713   6.008 -0.5461  0.3284  0.0562
 2230SOL    HW2 8652   0.619   0.754   5.939  1.7330  0.7944 -1.5018
 2230SOL    HW3 8653   0.668   0.619   5.987 -2.1524  0.1215  1.0408
 2230SOL    MW4 8654   0.664   0.706   5.996 -0.0722 -0.6336  0.1614
 2231SOL     OW 8655   1.199   1.993   3.956 -0.2455  0.0043  0.4153
 2231SOL    HW2 8656   1.131   1.936   3.992 -1.8860  0.6540 -1.4383
 2231SOL    HW3 8657   1.247   1.937   3.894 -1.3518  0.3593 -0.8175
 2231SOL    MW4 8658   1.196   1.978   3.952  0.6979 -0.1399 -0.0825
 2232SOL     OW 8659   3.316   3.117   4.631  0.1361 -0.5927  0.4871
 2232SOL    HW2 8660   3.389   3.148   4.577 -0.0603 -0.4404  0.3107
 2232SOL    HW3 8661   3.359   3.082   4.710  0.4946 -1.7853 -0.2135
 2232SOL    MW4 8662   3.331   3.116   4.635  0.1912 -0.2443 -0.0973
 2233SOL     OW 8663   3.992   1.154   4.826  0.5114  0.6738  0.0668
 2233SOL    HW2 8664   4.053   1.082   4.843 -1.3510 -1.3782 -1.4484
 2233SOL    HW3 8665   4.002   1.173   4.732 -0.1811  1.2865  0.1018
 2233SOL    MW4 8666   4.002   1.147   4.816  0.2457 -0.1374  0.0116
 2234SOL     OW 8667   4.152   6.332   4.522  0.2786  0.1520  0.0056
 2234SOL    HW2 8668   4.128   6.289   4.440 -0.9254  0.9013 -0.0579
 2234SOL    HW3 8669   4.146   6.426   4.503 -0.2577  0.3342  1.0144
 2234SOL    MW4 8670   4.148   6.339   4.509  0.2216  0.0928 -0.1860
 2235SOL     OW 8671   0.409   4.181   3.254  0.4223  0.3191  0.5300
 2235SOL    HW2 8672   0.325   4.151   3.290 -0.0109  0.9167  0.0432
 2235SOL    HW3 8673   0.458   4.101   3.237 -0.3661 -0.0825  0.0827
 2235SOL    MW4 8674   0.404   4.166   3.256  0.4814 -0.6711 -0.0776
 2236SOL     OW 8675   4.317   1.667   4.624 -0.2718 -0.7344 -0.3372
 2236SOL    HW2 8676   4.388   1.671   4.688 -0.6594 -0.1973  0.0675
 2236SOL    HW3 8677   4.238   1.687   4.674 -0.7075 -1.2768 -0.7921
 2236SOL    MW4 8678   4.316   1.671   4.639  0.4360 -0.4004  0.4892
 2237SOL     OW 8679   1.183   0.027   0.726  0.4443  0.6985 -0.3141
 2237SOL    HW2 8680   1.102  -0.023   0.735  0.2758  0.9174 -0.6209
 2237SOL    HW3 8681   1.164   0.111   0.768  1.3567 -0.1832  1.9927
 2237SOL    MW4 8682   1.170   0.031   0.733 -0.2015 -0.2723 -0.2617
 2238SOL     OW 8683   5.249   2.501   2.258 -0.2390 -0.0195  0.2671
 2238SOL    HW2 8684   5.187   2.555   2.209 -0.8685 -1.4754 -0.5935
 2238SOL    HW3 8685   5.195   2.455   2.322  0.0400 -0.8381 -0.0784
 2238SOL    MW4 8686   5.234   2.502   2.260  0.4235 -0.1684  0.3309
 2239SOL     OW 8687   4.611   4.421   0.220 -0.1984  0.1191  0.2787
 2239SOL    HW2 8688   4.523   4.386   0.237 -0.3897  0.0412 -0.8071
 2239SOL    HW3 8689   4.670   4.354   0.253 -0.5591 -0.8510 -1.0022
 2239SOL    MW4 8690   4.607   4.408   0.227 -0.0843 -0.2944 -1.0317
 2240SOL     OW 8691   5.717   2.733   0.100 -0.0927 -0.4630  0.1586
 2240SOL    HW2 8692   5.658   2.675   0.053 -1.4277  1.2604 -0.4152
 2240SOL    HW3 8693   5.805   2.700   0.081 -0.5339  0.1644 -3.6664
 2240SOL    MW4 8694   5.721   2.721   0.092  0.0700 -0.3833  0.0283
 2241SOL     OW 8695   6.016   0.734   0.155 -0.3716  0.0902 -0.6585
 2241SOL    HW2 8696   6.030   0.815   0.105  0.1291  0.0918 -0.5182
 2241SOL    HW3 8697   6.104   0.706   0.180 -0.5163 -0.7029 -1.0221
 2241SOL    MW4 8698   6.030   0.741   0.152 -0.3097  0.1744  0.1103
 2242SOL     OW 8699   2.833   0.647   6.020  0.4496  0.1066  0.4523
 2242SOL    HW2 8700   2.845   0.559   5.986 -0.5257 -0.4282  1.4366
 2242SOL    HW3 8701   2.866   0.643   6.110  0.6946  0.8450  0.4067
 2242SOL    MW4 8702   2.839   0.635   6.027 -0.1805  0.1841 -0.1183
 2243SOL     OW 8703   6.318   4.228   3.767 -0.0842  0.0305  0.3397
 2243SOL    HW2 8704   6.348   4.147   3.727  0.4079  0.1310  0.5004
 2243SOL    HW3 8705   6.222   4.221   3.767 -0.1496  0.3484 -1.5248
 2243SOL    MW4 8706   6.309   4.217   3.762 -0.3450  0.0129  0.1312
 2244SOL     OW 8707   4.100   4.324   0.045  0.5511 -0.3500 -0.2337
 2244SOL    HW2 8708   4.023   4.380   0.031 -0.3416 -1.0005  1.7200
 2244SOL    HW3 8709   4.084   4.248  -0.010 -1.6254 -1.7182  2.0541
 2244SOL    MW4 8710   4.088   4.321   0.036 -0.0768  0.1843  0.1480
 2245SOL     OW 8711   3.939   5.292   5.573 -0.0178 -0.1378  0.6658
 2245SOL    HW2 8712   3.996   5.328   5.505  0.0977  0.0866  0.8834
 2245SOL    HW3 8713   3.929   5.362   5.636  0.4178 -0.5624  1.2238
 2245SOL    MW4 8714   3.945   5.306   5.572  0.6759  0.2033  0.3066
 2246SOL     OW 8715   3.503   4.349   4.418  0.4653  0.1546  0.1732
 2246SOL    HW2 8716   3.425   4.322   4.466 -0.3769 -0.4275 -1.4297
 2246SOL    HW3 8717   3.486   4.439   4.391 -0.1938 -0.3283 -1.1283
 2246SOL    MW4 8718   3.491   4.358   4.421 -0.0984  0.2219  0.4160
 2247SOL     OW 8719   3.991   3.170   5.649  0.0298  0.2784  0.2118
 2247SOL    HW2 8720   3.974   3.133   5.563 -2.5005 -0.8708  1.1113
 2247SOL    HW3 8721   4.008   3.262   5.633  0.9543 -0.1575 -1.5932
 2247SOL    MW4 8722   3.991   3.177   5.636  0.6155 -0.4864  0.6703
 2248SOL     OW 8723   3.265   5.734   2.931 -0.1728  0.6123  0.0054
 2248SOL    HW2 8724   3.302   5.794   2.996  1.3358  0.9894 -1.1475
 2248SOL    HW3 8725   3.283   5.776   2.847  1.3258 -1.6070 -0.8773
 2248SOL    MW4 8726   3.272   5.748   2.929  0.0857 -0.1017  0.2052
 2249SOL     OW 8727   5.227   4.323   2.094  0.4917  0.4736 -0.5750
 2249SOL    HW2 8728   5.233   4.419   2.092  1.5789  0.4095 -0.8363
 2249SOL    HW3 8729   5.134   4.306   2.112  0.2765  1.5712 -0.5373
 2249SOL    MW4 8730   5.215   4.333   2.096 -0.6563 -0.1001  0.2619
 2250SOL     OW 8731   2.167   4.879   2.738 -0.2920  0.1884 -0.0835
 2250SOL    HW2 8732   2.220   4.883   2.817  0.4547 -1.1226 -0.4945
 2250SOL    HW3 8733   2.104   4.951   2.747  0.5102  0.7498  1.1589
 2250SOL    MW4 8734   2.166   4.889   2.749  0.6437  0.2486  0.8108
 2251SOL     OW 8735   1.991   1.732   2.425  0.1384  0.1082 -0.6048
 2251SOL    HW2 8736   2.014   1.721   2.518  0.2115  1.4271 -0.4489
 2251SOL    HW3 8737   2.049   1.802   2.394 -0.8124  0.6191 -1.2833
 2251SOL    MW4 8738   2.002   1.740   2.433  0.3122 -0.3833  0.2941
 2252SOL     OW 8739   5.044   6.049   5.439  0.1281 -0.2646  0.0175
 2252SOL    HW2 8740   5.079   6.137   5.430  0.6666 -0.6002 -1.3374
 2252SOL    HW3 8741   5.069   6.004   5.358 -0.9264 -1.3863  0.2763
 2252SOL    MW4 8742   5.052   6.055   5.427 -0.9476  0.0588 -0.3367
 2253SOL     OW 8743   3.027   0.387   4.571 -0.0381  0.1272  0.1816
 2253SOL    HW2 8744   2.985   0.361   4.653  0.4063  2.4359  1.2066
 2253SOL    HW3 8745   3.063   0.474   4.589  2.0230 -0.2261 -1.7701
 2253SOL    MW4 8746   3.026   0.395   4.584 -0.5774 -0.0040 -0.4934
 2254SOL     OW 8747   4.469   0.316   3.778  0.1403  0.1466  0.2713
 2254SOL    HW2 8748   4.438   0.345   3.864 -1.2685 -0.3249 -0.0518
 2254SOL    HW3 8749   4.515   0.392   3.742  0.3209  0.5076  1.2290
 2254SOL    MW4 8750   4.471   0.329   3.785 -0.4320 -0.1195  0.0407
 2255SOL     OW 8751   5.451   2.743   4.097 -0.0768 -0.2694 -0.0331
 2255SOL    HW2 8752   5.481   2.790   4.019  0.5196 -0.6679 -0.0411
 2255SOL    HW3 8753   5.362   2.715   4.075  0.1539 -0.5361 -0.6402
 2255SOL    MW4 8754   5.443   2.746   4.084  0.2336  0.2948  0.5820
 2256SOL     OW 8755   5.699   1.789   6.166 -0.2259 -0.1307 -0.2139
 2256SOL    HW2 8756   5.707   1.701   6.201 -0.4035  0.7336  2.2109
 2256SOL    HW3 8757   5.784   1.830   6.181 -0.4846  0.4417 -0.2428
 2256SOL    MW4 8758   5.711   1.783   6.173 -0.2754 -0.1612 -0.2218
 2257SOL     OW 8759   4.902   3.516   0.076  0.2066  0.9450  0.0862
 2257SOL    HW2 8760   4.992   3.504   0.046  0.5545  0.1925  1.3350
 2257SOL    HW3 8761   4.887   3.442   0.135 -1.2851  0.9847 -0.2034
 2257SOL    MW4 8762   4.912   3.505   0.080 -0.4438  0.3881 -0.4609
 2258SOL     OW 8763   1.046   4.185   2.987 -0.0092  0.0232 -0.3354
 2258SOL    HW2 8764   1.023   4.265   3.033 -0.6499 -0.4922  0.2604
 2258SOL    HW3 8765   0.996   4.116   3.031  2.1460 -1.0618  0.6088
 2258SOL    MW4 8766   1.037   4.186   2.999  0.3596  0.0622  0.2669
 2259SOL     OW 8767   2.547   5.005   1.782  0.3536 -0.8282 -0.3556
 2259SOL    HW2 8768   2.627   5.035   1.740  0.6977 -0.3239  0.6494
 2259SOL    HW3 8769   2.516   5.080   1.832 -1.6437 -0.4596 -1.9815
 2259SOL    MW4 8770   2.553   5.019   1.783 -0.2497  0.1130  0.5245
 2260SOL     OW 8771   1.449   4.767   2.064  0.0189  0.1223  0.1041
 2260SOL    HW2 8772   1.429   4.860   2.071 -0.3139  0.3556 -2.6928
 2260SOL    HW3 8773   1.364   4.724   2.060  0.1694 -0.2116  0.3753
 2260SOL    MW4 8774   1.435   4.774   2.064  0.3492  0.3842 -0.1811
 2261SOL     OW 8775   5.580   4.280   5.894  0.5884  0.5021 -0.0116
 2261SOL    HW2 8776   5.671   4.251   5.907  0.2703 -0.4963  0.0753
 2261SOL    HW3 8777   5.531   4.199   5.880  0.0732  1.1337 -2.4294
 2261SOL    MW4 8778   5.586   4.265   5.894  0.0061  0.1648  0.7250
 2262SOL     OW 8779   0.648   1.579   3.944 -0.1191 -0.7505 -0.1223
 2262SOL    HW2 8780   0.557   1.553   3.951  0.0820 -0.9828  2.2527
 2262SOL    HW3 8781   0.698   1.499   3.960  0.4886 -0.2603  0.5085
 2262SOL    MW4 8782   0.643   1.565   3.947  0.2890  0.7787 -0.9128
 2263SOL     OW 8783   5.450   3.926   2.366 -0.5446  0.6340 -0.2951
 2263SOL    HW2 8784   5.468   3.902   2.457  0.1149 -0.7108 -0.7459
 2263SOL    HW3 8785   5.511   3.997   2.347 -0.3075  0.5503  0.1454
 2263SOL    MW4 8786   5.460   3.932   2.376 -0.1297  0.8754 -0.1559
 2264SOL     OW 8787   5.722   3.404   1.702 -0.1617 -0.1305 -0.0131
 2264SOL    HW2 8788   5.720   3.400   1.798  1.0300  1.6632  0.1455
 2264SOL    HW3 8789   5.633   3.383   1.675 -1.4180  2.5033  1.6921
 2264SOL    MW4 8790   5.710   3.401   1.711  0.9256 -0.0012  0.1943
 2265SOL     OW 8791   0.996   1.120   1.223  0.0681 -0.3296 -0.2320
 2265SOL    HW2 8792   1.041   1.098   1.142  0.7260  1.4483 -0.3936
 2265SOL    HW3 8793   0.943   1.197   1.202  0.3326  0.2343  1.0171
 2265SOL    MW4 8794   0.995   1.127   1.210  0.0386  0.0723 -0.0496
 2266SOL     OW 8795   2.248   1.448   0.494  0.0864 -0.2204  0.1326
 2266SOL    HW2 8796   2.274   1.414   0.580  0.7489  1.7456  0.7397
 2266SOL    HW3 8797   2.323   1.431   0.437 -0.4319 -1.7164 -0.1696
 2266SOL    MW4 8798   2.261   1.441   0.498 -0.4063 -0.1380  0.3773
 2267SOL     OW 8799   0.910   2.438   3.724 -0.1073  0.5488 -0.5545
 2267SOL    HW2 8800   0.967   2.512   3.743 -0.1567  0.1421  1.3424
 2267SOL    HW3 8801   0.958   2.362   3.755  0.0089 -0.2918 -2.6191
 2267SOL    MW4 8802   0.924   2.438   3.730  0.1796  0.4114  0.1037
 2268SOL     OW 8803   5.104   5.739   1.811  0.2670 -0.1707  0.3299
 2268SOL    HW2 8804   5.121   5.657   1.857 -0.8980 -0.6899 -0.1496
 2268SOL    HW3 8805   5.011   5.757   1.828 -0.9896 -1.6961 -3.8147
 2268SOL    MW4 8806   5.094   5.731   1.819  0.2959 -0.0943 -0.6083
 2269SOL     OW 8807   6.358   2.012   5.469 -0.0821  0.1202 -0.1282
 2269SOL    HW2 8808   6.332   1.929   5.508  0.8541 -0.5680 -0.9220
 2269SOL    HW3 8809   6.342   2.077   5.538  0.2342 -0.8686  0.9144
 2269SOL    MW4 8810   6.353   2.010   5.484 -0.7969  0.2200  0.0193
 2270SOL     OW 8811   2.566   1.963   4.899  0.2001 -0.2869 -0.4711
 2270SOL    HW2 8812   2.646   1.984   4.851  0.9119 -0.9320  0.3946
 2270SOL    HW3 8813   2.510   2.040   4.888  0.6516 -0.1117 -1.6724
 2270SOL    MW4 8814   2.570   1.976   4.892  0.2771  0.6623  0.4265
 2271SOL     OW 8815   1.611   1.771   3.809  0.2149 -0.2421  0.2786
 2271SOL    HW2 8816   1.572   1.696   3.853 -0.3967  0.2438  0.5831
 2271SOL    HW3 8817   1.539   1.812   3.761  0.7596 -0.4532 -0.7625
 2271SOL    MW4 8818   1.596   1.767   3.808  0.0431 -0.3802  0.0104
 2272SOL     OW 8819   2.545   1.606   4.960  0.1409 -0.1977  0.8570
 2272SOL    HW2 8820   2.583   1.670   5.020 -0.4227  0.3051  0.6899
 2272SOL    HW3 8821   2.619   1.552   4.933  1.0064  1.5648 -0.4868
 2272SOL    MW4 8822   2.560   1.607   4.965 -0.2653 -0.2268 -0.3676
 2273SOL     OW 8823   2.695   1.800   4.565  0.1675 -0.7985  0.4049
 2273SOL    HW2 8824   2.627   1.741   4.596  0.4529 -0.3209  2.0335
 2273SOL    HW3 8825   2.772   1.779   4.619  0.9345 -0.4386 -0.5070
 2273SOL    MW4 8826   2.696   1.790   4.576 -0.1060 -0.2371 -0.0859
 2274SOL     OW 8827   6.168   3.464   3.853  0.1723 -0.4743 -0.4572
 2274SOL    HW2 8828   6.121   3.511   3.783  2.8839  0.9820 -1.4699
 2274SOL    HW3 8829   6.170   3.526   3.926  2.5005  0.5566 -1.2895
 2274SOL    MW4 8830   6.162   3.479   3.853 -0.1118 -0.3660  0.1528
 2275SOL     OW 8831   2.882   4.163   1.752 -0.1317  0.2331  0.0527
 2275SOL    HW2 8832   2.965   4.118   1.764  0.0689  0.8446  1.0974
 2275SOL    HW3 8833   2.860   4.197   1.839 -1.4432  0.1390 -0.2126
 2275SOL    MW4 8834   2.890   4.162   1.765  0.6565  0.5135 -0.3043
 2276SOL     OW 8835   0.796   5.861   2.895  0.3416  0.1102  0.5505
 2276SOL    HW2 8836   0.778   5.770   2.873  0.4985  0.0458  0.6818
 2276SOL    HW3 8837   0.774   5.869   2.988  0.0868  0.2714  0.4774
 2276SOL    MW4 8838   0.791   5.850   2.904  0.2110 -0.4741 -0.1528
 2277SOL     OW 8839   5.622   1.662   1.789 -0.2026 -0.9529 -0.3847
 2277SOL    HW2 8840   5.575   1.733   1.833 -0.0869 -0.7128 -0.6437
 2277SOL    HW3 8841   5.619   1.590   1.851 -0.7944 -0.8956 -0.3341
 2277SOL    MW4 8842   5.615   1.662   1.803  0.1953  0.6274 -0.1558
 2278SOL     OW 8843   4.217   6.417   5.135 -0.3936 -0.2314 -0.4082
 2278SOL    HW2 8844   4.293   6.476   5.142 -0.4039 -0.0855 -1.4030
 2278SOL    HW3 8845   4.144   6.469   5.166 -0.5333  0.5754 -1.9816
 2278SOL    MW4 8846   4.218   6.431   5.140  0.1497  0.7930  0.1124
 2279SOL     OW 8847   1.411   1.638   0.762  0.5590 -0.0545  0.6556
 2279SOL    HW2 8848   1.391   1.548   0.789  2.0245 -0.1379  1.5461
 2279SOL    HW3 8849   1.474   1.628   0.691 -0.2749  0.2585 -0.1379
 2279SOL    MW4 8850   1.416   1.624   0.756 -0.0169 -0.7935  0.0786
 2280SOL     OW 8851   2.379   1.415   5.438  0.1069  0.0749  0.6443
 2280SOL    HW2 8852   2.365   1.348   5.504  0.1727  1.0632  1.6824
 2280SOL    HW3 8853   2.474   1.430   5.440  0.3418 -0.9521 -0.7681
 2280SOL    MW4 8854   2.390   1.408   5.447 -0.1257 -0.4581 -0.3670
 2281SOL     OW 8855   5.298   0.289   2.527  0.0161 -0.6460 -0.1966
 2281SOL    HW2 8856   5.343   0.206   2.510  0.3956 -0.5754  0.4466
 2281SOL    HW3 8857   5.351   0.332   2.594 -0.0960  0.1958 -0.6492
 2281SOL    MW4 8858   5.311   0.283   2.534  0.1864  0.2955 -0.5225
 2282SOL     OW 8859   1.677   3.360   1.713 -0.4980 -0.5785 -0.3064
 2282SOL    HW2 8860   1.759   3.318   1.739  0.2429  0.3090 -1.1679
 2282SOL    HW3 8861   1.615   3.336   1.782  1.2897  1.4409  2.1848
 2282SOL    MW4 8862   1.679   3.351   1.726  0.0674 -0.1679 -0.6792
 2283SOL     OW 8863   6.030   5.143   2.377  0.3626  0.5553 -0.0103
 2283SOL    HW2 8864   6.089   5.074   2.405  0.2734  0.4196 -0.1584
 2283SOL    HW3 8865   5.953   5.097   2.344 -0.7197  0.7213  2.0838
 2283SOL    MW4 8866   6.027   5.128   2.377 -0.2185 -0.0145 -0.4966
 2284SOL     OW 8867   0.868   3.561   2.996 -0.0457 -0.1959 -0.3090
 2284SOL    HW2 8868   0.927   3.571   3.070 -0.8582 -3.3051  0.9450
 2284SOL    HW3 8869   0.792   3.615   3.018  0.0247 -0.5340  0.8341
 2284SOL    MW4 8870   0.866   3.569   3.009  1.1190 -0.2105 -0.2904
 2285SOL     OW 8871   3.906   2.147   1.019  0.6695 -0.2991 -0.5905
 2285SOL    HW2 8872   3.954   2.196   1.086 -1.0508  1.8606 -0.8145
 2285SOL    HW3 8873   3.862   2.077   1.067  2.3283 -1.0355 -0.0795
 2285SOL    MW4 8874   3.907   2.144   1.034 -0.3448 -0.2463  0.0158
 2286SOL     OW 8875   5.506   4.847   2.651 -0.0302  0.0325 -0.1263
 2286SOL    HW2 8876   5.439   4.886   2.595 -0.8367  1.1136  1.5137
 2286SOL    HW3 8877   5.484   4.753   2.651 -1.6260  0.3796  0.4576
 2286SOL    MW4 8878   5.494   4.840   2.643  0.1397 -1.0667  0.0120
 2287SOL     OW 8879   1.865   5.426   1.118 -0.3014  0.3941  0.0626
 2287SOL    HW2 8880   1.838   5.485   1.188  1.1754  1.8752 -0.5352
 2287SOL    HW3 8881   1.959   5.415   1.131 -0.4908 -1.6246 -0.0401
 2287SOL    MW4 8882   1.874   5.433   1.129  0.3428  0.3652 -0.0214
 2288SOL     OW 8883   6.129   2.523   1.521 -0.6333 -0.1326  0.2715
 2288SOL    HW2 8884   6.066   2.571   1.575 -1.2034  0.4706 -0.9009
 2288SOL    HW3 8885   6.075   2.469   1.463 -0.0756  0.2332 -0.5993
 2288SOL    MW4 8886   6.114   2.522   1.521  0.4896 -0.0804 -0.5824
 2289SOL     OW 8887   0.098   4.065   5.878 -0.7084  0.0608 -0.1033
 2289SOL    HW2 8888   0.061   4.046   5.964 -0.7925  1.6353  0.2459
 2289SOL    HW3 8889   0.116   3.979   5.840  1.2159 -0.7149  2.2790
 2289SOL    MW4 8890   0.095   4.051   5.884 -0.2369 -0.0760 -0.4341
 2290SOL     OW 8891   0.410   0.096   0.037  0.0188 -0.7317  0.5079
 2290SOL    HW2 8892   0.340   0.159   0.021  0.5338 -0.7471 -2.3250
 2290SOL    HW3 8893   0.471   0.142   0.094 -0.0253  1.1087 -0.8134
 2290SOL    MW4 8894   0.409   0.110   0.042  0.0960 -0.7498 -0.1796
 2291SOL     OW 8895   5.766   6.076   1.069 -0.4086  0.0422 -0.2324
 2291SOL    HW2 8896   5.688   6.120   1.034 -0.3816 -1.2469 -2.0500
 2291SOL    HW3 8897   5.837   6.106   1.013  0.3799  0.9669  1.2204
 2291SOL    MW4 8898   5.765   6.086   1.057 -0.8422 -0.0369 -0.3578
 2292SOL     OW 8899   1.483   6.347   1.150 -0.1312 -0.3446 -0.4000
 2292SOL    HW2 8900   1.433   6.349   1.232  1.2759  3.1441  0.5750
 2292SOL    HW3 8901   1.550   6.279   1.165 -0.5311 -0.4765  0.9237
 2292SOL    MW4 8902   1.486   6.338   1.163 -0.2511  0.3067 -0.1084
 2293SOL     OW 8903   3.787   2.406   1.443 -0.3640  0.3319  0.3296
 2293SOL    HW2 8904   3.867   2.415   1.391 -0.6563  3.3849  0.2340
 2293SOL    HW3 8905   3.817   2.411   1.534  0.1221 -4.8015  0.7153
 2293SOL    MW4 8906   3.802   2.408   1.448  0.1305 -0.5142 -0.4688
 2294SOL     OW 8907   2.953   0.376   3.756 -0.0778 -0.2628 -0.4104
 2294SOL    HW2 8908   2.972   0.341   3.843 -0.5509  0.3704 -0.0440
 2294SOL    HW3 8909   2.857   0.371   3.749 -0.4133  2.7952  0.4936
 2294SOL    MW4 8910   2.943   0.371   3.767  0.4810  0.1958  0.1551
 2295SOL     OW 8911   2.935   3.232   2.255  0.1826 -0.7725 -0.7227
 2295SOL    HW2 8912   3.025   3.230   2.286  0.5098 -1.1227 -1.6926
 2295SOL    HW3 8913   2.925   3.153   2.202 -1.4981 -2.2567  1.5818
 2295SOL    MW4 8914   2.945   3.221   2.252  0.3541 -0.2534 -0.1980
 2296SOL     OW 8915   0.058   2.711   4.049  0.5988  0.2434 -0.1398
 2296SOL    HW2 8916   0.032   2.730   4.140  0.3117  2.1004 -0.5671
 2296SOL    HW3 8917  -0.016   2.738   3.996  1.3847  0.7354 -1.0284
 2296SOL    MW4 8918   0.045   2.717   4.054  0.0360 -0.6236  0.0012
 2297SOL     OW 8919   6.303   0.747   3.712  0.6848  0.5743 -0.0232
 2297SOL    HW2 8920   6.211   0.773   3.712  0.5057  0.0132 -1.5094
 2297SOL    HW3 8921   6.321   0.719   3.623  2.1178 -0.0095  0.4092
 2297SOL    MW4 8922   6.293   0.747   3.700 -0.2245 -0.6413  0.2709
 2298SOL     OW 8923   2.932   3.208   0.185  0.2502 -0.3537 -0.0754
 2298SOL    HW2 8924   3.006   3.206   0.124  0.4657  0.8232  0.1256
 2298SOL    HW3 8925   2.942   3.290   0.232 -0.6927 -0.6022  0.5881
 2298SOL    MW4 8926   2.943   3.218   0.183 -0.2867  0.8165  0.1404
 2299SOL     OW 8927   5.196   0.446   0.625 -0.0638 -0.3574  0.1695
 2299SOL    HW2 8928   5.214   0.448   0.531  0.7235 -0.9262  0.2902
 2299SOL    HW3 8929   5.276   0.409   0.663 -0.5575 -0.5746  1.0137
 2299SOL    MW4 8930   5.209   0.441   0.617  0.0940  0.3970  0.4175
 2300SOL     OW 8931   2.022   4.267   3.738 -0.1478  0.0512 -0.1110
 2300SOL    HW2 8932   2.044   4.185   3.782  1.0143 -0.3998 -1.4604
 2300SOL    HW3 8933   1.932   4.255   3.708  0.7774 -1.7961 -2.4784
 2300SOL    MW4 8934   2.013   4.255   3.740  0.0877 -0.4013 -0.0518
 2301SOL     OW 8935   1.125   6.313   5.413 -0.4720  0.3639  0.3356
 2301SOL    HW2 8936   1.101   6.396   5.455 -0.2447  0.5170  0.1642
 2301SOL    HW3 8937   1.173   6.265   5.480 -1.8976 -0.2743  0.9580
 2301SOL    MW4 8938   1.128   6.318   5.427 -0.6430 -0.2871  0.3770
 2302SOL     OW 8939   1.887   3.686   0.553  0.2067  0.3760 -0.7974
 2302SOL    HW2 8940   1.869   3.592   0.554  0.9929  0.1642 -2.3887
 2302SOL    HW3 8941   1.822   3.722   0.492  1.1851  0.5202 -1.7951
 2302SOL    MW4 8942   1.876   3.679   0.545  0.3051 -0.5624 -0.1031
 2303SOL     OW 8943   2.753   5.692   4.623 -0.3881 -0.5495 -0.3132
 2303SOL    HW2 8944   2.689   5.643   4.572 -1.2848 -0.0099  0.2810
 2303SOL    HW3 8945   2.723   5.685   4.713  1.0316 -1.2494  0.1287
 2303SOL    MW4 8946   2.741   5.685   4.628  0.4250 -0.0395 -0.0315
 2304SOL     OW 8947   4.151   4.547   0.489  0.2937 -0.2398  0.2941
 2304SOL    HW2 8948   4.125   4.519   0.576  1.5431 -1.4977  0.2965
 2304SOL    HW3 8949   4.124   4.475   0.431 -0.0767  0.3581 -0.2892
 2304SOL    MW4 8950   4.144   4.534   0.493 -0.6027  0.2828  0.0879
 2305SOL     OW 8951   3.204   2.889   0.939  0.0115  0.0093 -0.5128
 2305SOL    HW2 8952   3.258   2.930   0.871  0.1152  1.7138  0.5415
 2305SOL    HW3 8953   3.122   2.938   0.937  0.4263  0.8530  1.3119
 2305SOL    MW4 8954   3.201   2.901   0.930  0.1251  0.0858  0.2691
 2306SOL     OW 8955   4.382   4.039   2.929  0.1567  0.1354  0.0826
 2306SOL    HW2 8956   4.375   4.015   2.836  0.1715 -1.5832  0.5034
 2306SOL    HW3 8957   4.330   4.119   2.936 -1.8769 -1.0088 -0.9556
 2306SOL    MW4 8958   4.375   4.046   2.918  0.7114  0.2822  0.1249
 2307SOL     OW 8959   3.399   4.042   2.351 -0.7293 -0.1183  0.3476
 2307SOL    HW2 8960   3.401   4.131   2.317  0.7716 -0.1184  0.3443
 2307SOL    HW3 8961   3.414   4.052   2.446  0.3003 -0.3845  0.2315
 2307SOL    MW4 8962   3.402   4.055   2.359 -0.4970 -0.1867 -0.1025
 2308SOL     OW 8963   3.991   3.387   2.776 -0.2865  0.2151 -0.0219
 2308SOL    HW2 8964   4.059   3.395   2.843  0.0359  1.7989 -0.4892
 2308SOL    HW3 8965   3.994   3.295   2.750  1.0530  0.0530  0.6086
 2308SOL    MW4 8966   4.000   3.376   2.782  0.0695  0.5529 -0.2337
 2309SOL     OW 8967   3.327   3.226   2.165 -0.3949 -0.1596 -0.2322
 2309SOL    HW2 8968   3.417   3.198   2.149 -0.3580 -1.7554  2.2312
 2309SOL    HW3 8969   3.274   3.172   2.106  0.1628  0.0778 -0.9726
 2309SOL    MW4 8970   3.332   3.215   2.155  0.1081  0.1381 -0.0213
 2310SOL     OW 8971   5.719   6.321   3.128 -0.1349  0.1548  0.0266
 2310SOL    HW2 8972   5.626   6.346   3.132 -0.3178 -0.6539  1.4813
 2310SOL    HW3 8973   5.723   6.257   3.057 -0.8004 -0.1887  0.2875
 2310SOL    MW4 8974   5.707   6.316   3.119 -0.0770 -0.7232  0.0296
 2311SOL     OW 8975   6.149   4.796   5.651  0.2848  0.3650 -0.1047
 2311SOL    HW2 8976   6.152   4.701   5.659  0.2733  0.3432 -0.3701
 2311SOL    HW3 8977   6.157   4.827   5.741  0.0049  0.1053  0.0137
 2311SOL    MW4 8978   6.150   4.787   5.664 -0.2388 -0.2126 -0.0165
 2312SOL     OW 8979   1.581   5.744   1.603 -0.6226  0.1314 -0.6445
 2312SOL    HW2 8980   1.490   5.712   1.605 -0.2664 -0.9568 -0.7691
 2312SOL    HW3 8981   1.633   5.664   1.612  0.3217  0.9108  1.2080
 2312SOL    MW4 8982   1.576   5.729   1.604  0.2120 -0.0224  0.2612
 2313SOL     OW 8983   1.507   1.101   3.241  0.0117  0.1790 -0.8396
 2313SOL    HW2 8984   1.535   1.193   3.238  0.3144  0.1059 -0.3009
 2313SOL    HW3 8985   1.476   1.088   3.330  0.9909 -0.5369 -0.5849
 2313SOL    MW4 8986   1.507   1.112   3.252  0.0523 -0.3577 -0.0728
 2314SOL     OW 8987   5.063   4.604   3.245  0.0147 -0.1050  0.0668
 2314SOL    HW2 8988   5.144   4.650   3.221  1.6808 -2.1623  1.3266
 2314SOL    HW3 8989   5.016   4.665   3.302 -0.0550  1.6646 -1.8053
 2314SOL    MW4 8990   5.068   4.618   3.249 -0.1845 -0.0752 -0.0158
 2315SOL     OW 8991   1.095   4.475   1.045  0.3779 -0.2879  0.1835
 2315SOL    HW2 8992   1.020   4.491   0.988  1.0602 -1.0665 -0.9721
 2315SOL    HW3 8993   1.163   4.441   0.987  1.6203  0.3417  1.2048
 2315SOL    MW4 8994   1.094   4.473   1.030 -0.0814  1.0873  0.4098
 2316SOL     OW 8995   1.240   4.297   5.435 -0.0901 -0.8300 -0.2463
 2316SOL    HW2 8996   1.301   4.369   5.415  0.5415 -0.3642  2.8985
 2316SOL    HW3 8997   1.297   4.222   5.454 -0.5402 -0.9179  0.8233
 2316SOL    MW4 8998   1.256   4.297   5.435  0.1585  0.4148  1.1113
 2317SOL     OW 8999   1.075   3.183   3.724 -0.2514 -0.3854 -0.3087
 2317SOL    HW2 9000   1.084   3.148   3.635 -0.7211 -1.4362  0.0442
 2317SOL    HW3 9001   0.983   3.208   3.731 -0.0990  0.1717 -0.2876
 2317SOL    MW4 9002   1.064   3.181   3.713 -0.7441  0.0689  0.0295
 2318SOL     OW 9003   4.720   2.523   3.598  0.0938 -0.4963  0.2138
 2318SOL    HW2 9004   4.648   2.490   3.651 -0.9829  2.5639  0.7986
 2318SOL    HW3 9005   4.795   2.527   3.657 -0.1938 -0.3081  0.5617
 2318SOL    MW4 9006   4.721   2.519   3.613  0.0309 -0.0606  0.2503
 2319SOL     OW 9007   1.874   2.579   2.311 -0.0569  0.3452  0.1684
 2319SOL    HW2 9008   1.826   2.518   2.255 -1.7507 -0.6611  2.5403
 2319SOL    HW3 9009   1.856   2.665   2.274 -0.6856 -0.3046 -1.1073
 2319SOL    MW4 9010   1.866   2.582   2.299  0.1865  0.7895 -0.0292
 2320SOL     OW 9011   4.617   0.466   1.432  0.0966  0.1442  0.0763
 2320SOL    HW2 9012   4.651   0.524   1.364  0.0612  0.3323  0.2188
 2320SOL    HW3 9013   4.689   0.459   1.495  0.1087  0.0152  0.0492
 2320SOL    MW4 9014   4.631   0.473   1.431  0.7035  0.3298 -0.1824
 2321SOL     OW 9015   0.343   4.005   5.061 -0.2471  0.3016 -0.7340
 2321SOL    HW2 9016   0.301   4.087   5.084  1.1852  1.1749 -1.1386
 2321SOL    HW3 9017   0.330   3.997   4.966 -1.2877 -0.4977 -0.5519
 2321SOL    MW4 9018   0.336   4.015   5.051 -0.0215  0.1391  0.2017
 2322SOL     OW 9019   2.086   4.780   1.210 -0.7956  0.0188 -0.4754
 2322SOL    HW2 9020   2.172   4.784   1.167 -0.3064  2.1099  0.5417
 2322SOL    HW3 9021   2.103   4.808   1.300 -2.2283 -1.6404  0.3661
 2322SOL    MW4 9022   2.100   4.784   1.216 -0.0257  0.4882  0.3881
 2323SOL     OW 9023   4.736   2.331   2.237  0.1643 -0.3122  0.2919
 2323SOL    HW2 9024   4.681   2.384   2.295  0.2990  0.3538 -0.1884
 2323SOL    HW3 9025   4.684   2.319   2.158  0.7198  0.3760 -0.1922
 2323SOL    MW4 9026   4.722   2.336   2.234  0.1383 -0.3465  0.0472
 2324SOL     OW 9027   3.871   2.652   5.721  0.4316  0.1638 -0.0914
 2324SOL    HW2 9028   3.852   2.731   5.772 -1.2515 -0.2401 -0.0560
 2324SOL    HW3 9029   3.816   2.584   5.760  1.5097 -0.9358 -0.4195
 2324SOL    MW4 9030   3.861   2.653   5.733 -0.2800 -0.2375  0.1840
 2325SOL     OW 9031   2.530   2.518   1.809  0.0158  0.7563 -0.4060
 2325SOL    HW2 9032   2.507   2.425   1.815  0.0448  0.8201  0.9087
 2325SOL    HW3 9033   2.621   2.521   1.837  0.5385  0.9913 -2.0226
 2325SOL    MW4 9034   2.539   2.506   1.813 -0.4546  0.1174  0.6025
 2326SOL     OW 9035   0.232   4.518   0.535 -0.2482 -0.1446 -0.1091
 2326SOL    HW2 9036   0.173   4.558   0.599 -2.5467 -0.5478 -1.8269
 2326SOL    HW3 9037   0.237   4.581   0.463 -0.0811 -0.8949 -0.7759
 2326SOL    MW4 9038   0.225   4.531   0.534 -0.6364 -0.0246 -0.5440
 2327SOL     OW 9039   2.682   1.510   2.144 -0.2876 -0.0813 -0.0666
 2327SOL    HW2 9040   2.653   1.564   2.218 -2.4938  0.4312 -1.2276
 2327SOL    HW3 9041   2.674   1.568   2.068 -1.3476 -1.5831 -1.1576
 2327SOL    MW4 9042   2.677   1.525   2.144 -0.4242  0.1335  0.3370
 2328SOL     OW 9043   0.636   5.205   1.170  0.1672  0.0627 -0.5390
 2328SOL    HW2 9044   0.721   5.167   1.193  0.4049  0.4817 -0.7209
 2328SOL    HW3 9045   0.639   5.295   1.203 -0.2360  0.0575 -0.4766
 2328SOL    MW4 9046   0.647   5.212   1.177  0.3002 -0.0925 -0.2948
 2329SOL     OW 9047   5.779   0.244   5.392  0.3394 -0.1978  0.3853
 2329SOL    HW2 9048   5.769   0.179   5.323  1.0251 -2.4533  2.2635
 2329SOL    HW3 9049   5.867   0.279   5.379  0.7763 -1.1940  0.5399
 2329SOL    MW4 9050   5.789   0.240   5.381  0.1840 -0.2402  0.1699
 2330SOL     OW 9051   1.352   4.739   5.686  0.0897 -0.1672 -0.0838
 2330SOL    HW2 9052   1.391   4.652   5.690 -0.2575 -0.3858 -1.0945
 2330SOL    HW3 9053   1.263   4.724   5.657 -0.4442  0.4179  1.1764
 2330SOL    MW4 9054   1.346   4.725   5.683 -0.1024  0.2366  0.3705
 2331SOL     OW 9055   4.274   2.969   2.803 -1.1555 -0.5355  0.0664
 2331SOL    HW2 9056   4.356   3.010   2.833  0.6549 -1.3942 -3.2247
 2331SOL    HW3 9057   4.281   2.878   2.835  0.4792 -1.2842 -2.1321
 2331SOL    MW4 9058   4.286   2.962   2.811  0.1256  0.1073  0.0134
 2332SOL     OW 9059   4.547   3.224   0.159 -0.0878 -0.2782 -0.3873
 2332SOL    HW2 9060   4.473   3.265   0.203 -0.1978  1.1943 -1.8582
 2332SOL    HW3 9061   4.556   3.271   0.076  1.5213 -1.4514 -0.9481
 2332SOL    MW4 9062   4.539   3.235   0.154 -0.2282  0.9267  0.5641
 2333SOL     OW 9063   1.466   3.704   3.663  0.6128 -0.2674  0.3472
 2333SOL    HW2 9064   1.559   3.725   3.663  0.2155  2.0033 -1.8888
 2333SOL    HW3 9065   1.454   3.647   3.586  0.2480 -1.1485  1.0414
 2333SOL    MW4 9066   1.476   3.699   3.653 -0.9455  0.1316  0.3462
 2334SOL     OW 9067   2.674   2.877   6.003  0.1752 -0.3834 -0.1336
 2334SOL    HW2 9068   2.691   2.920   5.919 -0.6922  0.5223  0.1447
 2334SOL    HW3 9069   2.759   2.877   6.047  0.2786  0.6982 -0.3071
 2334SOL    MW4 9070   2.688   2.883   5.998  0.2696 -0.5031  0.4316
 2335SOL     OW 9071   4.087   0.285   0.036  0.1435 -0.8738  0.2747
 2335SOL    HW2 9072   4.152   0.308   0.102 -0.5099  1.2113  0.2721
 2335SOL    HW3 9073   4.126   0.212  -0.013  2.1278 -0.1904  0.7701
 2335SOL    MW4 9074   4.101   0.278   0.038 -0.4273  0.3302 -0.4481
 2336SOL     OW 9075   2.675   0.256   3.912 -0.5964  0.5008 -0.0562
 2336SOL    HW2 9076   2.639   0.171   3.937 -0.1614  0.5327  0.6983
 2336SOL    HW3 9077   2.634   0.319   3.971  1.2986  0.4305  1.4331
 2336SOL    MW4 9078   2.665   0.253   3.923  0.1266 -0.0405 -0.1648
 2337SOL     OW 9079   3.447   1.235   5.725  0.3077 -0.2343  0.0110
 2337SOL    HW2 9080   3.437   1.227   5.820  0.9781  0.7036  0.1667
 2337SOL    HW3 9081   3.442   1.329   5.708  2.8755 -0.1444 -0.5574
 2337SOL    MW4 9082   3.445   1.246   5.735 -0.2448  0.1508 -0.0043
 2338SOL     OW 9083   5.555   3.441   1.944 -0.1504  0.4167 -0.0962
 2338SOL    HW2 9084   5.492   3.409   2.008 -0.0570 -0.3965 -0.4006
 2338SOL    HW3 9085   5.515   3.519   1.907 -0.9221 -0.0212 -0.1957
 2338SOL    MW4 9086   5.542   3.447   1.948  0.3737  0.2326  0.0292
 2339SOL     OW 9087   0.425   5.792   0.316  0.4294 -0.3299 -0.7878
 2339SOL    HW2 9088   0.495   5.819   0.375  0.8248  1.0559 -1.8382
 2339SOL    HW3 9089   0.345   5.826   0.355  0.2098 -2.3362  0.6732
 2339SOL    MW4 9090   0.423   5.800   0.329  0.1958 -0.6176  0.6248
 2340SOL     OW 9091   4.985   1.303   2.026 -0.0591 -0.2867 -0.4965
 2340SOL    HW2 9092   4.935   1.381   2.002  0.0254  0.2674  0.9943
 2340SOL    HW3 9093   4.931   1.230   1.996 -1.3400  0.3137  0.2417
 2340SOL    MW4 9094   4.971   1.304   2.019  0.0499  0.0238  0.1277
 2341SOL     OW 9095   4.201   5.598   1.320 -0.0672  0.2552 -0.7088
 2341SOL    HW2 9096   4.246   5.527   1.366  1.0121  1.8450  0.8637
 2341SOL    HW3 9097   4.141   5.554   1.260  0.9591 -1.9579 -0.2265
 2341SOL    MW4 9098   4.199   5.583   1.318 -0.1208  0.2968 -0.2358
 2342SOL     OW 9099   0.664   2.259   1.201  0.4475  0.0213  0.1144
 2342SOL    HW2 9100   0.730   2.243   1.269  0.8226 -0.5388 -0.3738
 2342SOL    HW3 9101   0.678   2.350   1.176  1.0206 -0.0822  0.0357
 2342SOL    MW4 9102   0.675   2.269   1.207 -0.1332 -0.4037 -0.2985
 2343SOL     OW 9103   4.278   1.955   6.071 -0.2261 -0.1486 -0.3401
 2343SOL    HW2 9104   4.272   1.908   5.987  1.7373 -0.0454 -0.5865
 2343SOL    HW3 9105   4.228   2.035   6.057  0.4215  0.0686 -1.5788
 2343SOL    MW4 9106   4.271   1.959   6.058  0.3478  0.6859 -0.2632
 2344SOL     OW 9107   5.322   6.142   1.524  0.0178  0.2383  0.6145
 2344SOL    HW2 9108   5.232   6.114   1.544  0.2121 -0.6711  0.2764
 2344SOL    HW3 9109   5.376   6.095   1.588  0.3985 -0.5843 -0.2868
 2344SOL    MW4 9110   5.317   6.132   1.535 -0.0407 -0.1893  0.1968
 2345SOL     OW 9111   5.182   0.944   4.927  0.8546 -0.2869 -0.2712
 2345SOL    HW2 9112   5.093   0.930   4.898  1.4967 -1.4469 -1.8132
 2345SOL    HW3 9113   5.173   0.981   5.015 -1.1211  0.2524 -0.6591
 2345SOL    MW4 9114   5.169   0.947   4.935 -0.1861 -0.0517 -0.5490
 2346SOL     OW 9115   5.377   2.815   5.802 -0.1186  0.1278  0.2673
 2346SOL    HW2 9116   5.333   2.863   5.732  2.0820  0.5806 -0.8902
 2346SOL    HW3 9117   5.464   2.855   5.809  0.9355 -2.0773  0.9462
 2346SOL    MW4 9118   5.383   2.827   5.794  0.0439  0.9853  0.5865
 2347SOL     OW 9119   4.001   5.079   2.877  0.3913  0.4925 -0.2374
 2347SOL    HW2 9120   3.907   5.090   2.888  0.2828  0.4229 -1.0136
 2347SOL    HW3 9121   4.014   5.077   2.782  1.1330  0.1557 -0.1380
 2347SOL    MW4 9122   3.990   5.080   2.865  0.5946 -0.4834  0.5116
 2348SOL     OW 9123   2.201   1.656   0.869 -0.3818 -0.1230  0.0080
 2348SOL    HW2 9124   2.223   1.565   0.849 -1.9184 -0.5965  0.3351
 2348SOL    HW3 9125   2.284   1.696   0.896  0.4763 -1.1846 -0.9590
 2348SOL    MW4 9126   2.215   1.649   0.870  0.0028  0.2176 -0.5467
 2349SOL     OW 9127   5.390   0.725   0.426  0.0516 -0.4301  0.5314
 2349SOL    HW2 9128   5.480   0.699   0.448 -0.0165 -1.5818 -0.4661
 2349SOL    HW3 9129   5.350   0.646   0.390 -1.2781  0.1489  0.6651
 2349SOL    MW4 9130   5.396   0.711   0.424 -1.6246 -0.0793 -0.2138
 2350SOL     OW 9131   5.600   0.928   3.994 -0.0445  0.3177  0.0578
 2350SOL    HW2 9132   5.547   0.989   4.045  0.9592  0.7284  0.6374
 2350SOL    HW3 9133   5.576   0.947   3.903 -0.6333  0.7334  0.2933
 2350SOL    MW4 9134   5.590   0.939   3.988  0.1538 -0.3819 -0.6958
 2351SOL     OW 9135   1.961   0.735   3.101 -0.5321  0.3242 -0.4847
 2351SOL    HW2 9136   1.987   0.825   3.121  1.0756 -0.2304  0.0226
 2351SOL    HW3 9137   2.013   0.711   3.024  1.2521 -1.1049  1.0778
 2351SOL    MW4 9138   1.971   0.744   3.093 -0.0554  0.8366 -0.1369
 2352SOL     OW 9139   5.819   0.013   2.557 -0.4057 -0.4001 -0.7649
 2352SOL    HW2 9140   5.773   0.092   2.528  1.2835  0.7110 -0.5742
 2352SOL    HW3 9141   5.750  -0.043   2.592 -1.5381  1.5311  0.2998
 2352SOL    MW4 9142   5.804   0.016   2.558  0.0121  0.5770  1.0165
 2353SOL     OW 9143   5.335   2.178   2.406 -0.1661 -0.1859  0.4145
 2353SOL    HW2 9144   5.283   2.253   2.432  0.4262  0.0158  1.0410
 2353SOL    HW3 9145   5.315   2.110   2.470 -3.7667 -2.0349 -2.3240
 2353SOL    MW4 9146   5.326   2.179   2.418 -0.5588 -0.1313 -0.4388
 2354SOL     OW 9147   3.781   4.238   4.396  0.4394  0.4810  0.3071
 2354SOL    HW2 9148   3.704   4.294   4.387  0.8430  1.1285  0.8471
 2354SOL    HW3 9149   3.841   4.267   4.328 -0.1674 -0.6741 -0.7592
 2354SOL    MW4 9150   3.779   4.249   4.386 -0.4675 -0.1476 -0.3907
 2355SOL     OW 9151   0.535   0.593   2.962 -0.6606 -0.2693 -0.2236
 2355SOL    HW2 9152   0.486   0.525   2.917 -1.4813  1.4123 -1.9755
 2355SOL    HW3 9153   0.611   0.610   2.906 -0.4668  0.2879  0.1911
 2355SOL    MW4 9154   0.539   0.587   2.949 -0.7092  0.9473 -0.0983
 2356SOL     OW 9155   4.741   0.626   2.529 -0.7889  0.1841 -0.3181
 2356SOL    HW2 9156   4.648   0.648   2.522 -0.7920  0.7388  1.2697
 2356SOL    HW3 9157   4.785   0.710   2.541 -0.0658 -0.0814 -0.9832
 2356SOL    MW4 9158   4.735   0.640   2.529 -0.1822 -0.0150  0.4262
 2357SOL     OW 9159   1.120   1.883   5.548  0.4035  0.3636 -0.2716
 2357SOL    HW2 9160   1.171   1.942   5.492  1.5579 -0.2821  0.0798
 2357SOL    HW3 9161   1.074   1.942   5.609  1.4479  0.9187  0.0044
 2357SOL    MW4 9162   1.120   1.899   5.548 -0.0488 -0.0918  0.1277
 2358SOL     OW 9163   2.381   4.472   5.803  0.4013 -0.0157 -0.6885
 2358SOL    HW2 9164   2.384   4.551   5.749 -2.4144  1.0964  0.5822
 2358SOL    HW3 9165   2.384   4.505   5.893 -0.5027 -1.3865 -0.1277
 2358SOL    MW4 9166   2.382   4.487   5.808  0.3589 -0.1290 -0.7286
 2359SOL     OW 9167   5.774   3.435   1.320 -0.2445  0.2073 -0.1817
 2359SOL    HW2 9168   5.780   3.523   1.356  2.6046 -0.2355  0.6551
 2359SOL    HW3 9169   5.809   3.443   1.231 -0.4838 -0.0051 -0.2982
 2359SOL    MW4 9170   5.779   3.447   1.313  0.4400 -0.1513  0.6751
 2360SOL     OW 9171   1.028   1.838   1.771 -0.1953  0.2096 -0.0392
 2360SOL    HW2 9172   1.058   1.898   1.840 -0.1179  0.2095 -0.0730
 2360SOL    HW3 9173   1.071   1.755   1.791  0.0724  0.2925 -0.2655
 2360SOL    MW4 9174   1.038   1.835   1.783  0.6885  0.2428  0.1658
 2361SOL     OW 9175   3.587   6.232   3.102 -0.1266 -0.1853  0.5992
 2361SOL    HW2 9176   3.516   6.295   3.116 -0.4015 -0.5585  0.9178
 2361SOL    HW3 9177   3.646   6.276   3.041 -0.7406  0.0488  0.1577
 2361SOL    MW4 9178   3.585   6.246   3.096 -0.1533 -0.1371  0.4452
 2362SOL     OW 9179   3.703   5.385   4.735  0.0026 -0.3591  0.0805
 2362SOL    HW2 9180   3.768   5.454   4.723 -1.7488  1.3798  0.0183
 2362SOL    HW3 9181   3.696   5.374   4.829 -0.5381  0.4337  0.1467
 2362SOL    MW4 9182   3.711   5.393   4.746 -0.5618  0.0511 -0.0113
 2363SOL     OW 9183   1.617   4.126   3.214  0.1249  0.2080 -0.2718
 2363SOL    HW2 9184   1.689   4.136   3.278  1.0394 -0.4622 -1.1646
 2363SOL    HW3 9185   1.617   4.033   3.193 -2.3917 -0.2043  1.2318
 2363SOL    MW4 9186   1.627   4.115   3.220 -0.3237  0.0916 -0.3049
 2364SOL     OW 9187   2.901   1.680   4.726 -0.1378  0.6889  0.1772
 2364SOL    HW2 9188   2.976   1.657   4.671 -0.7127 -1.8515  0.3341
 2364SOL    HW3 9189   2.940   1.706   4.810  0.6201 -0.5754  0.2483
 2364SOL    MW4 9190   2.916   1.681   4.730  0.7535 -0.2970  0.4425
 2365SOL     OW 9191   1.497   2.302   4.714 -0.3523  0.5580  0.5241
 2365SOL    HW2 9192   1.451   2.232   4.761  0.1267 -1.1276 -1.3940
 2365SOL    HW3 9193   1.522   2.363   4.783 -0.8609 -1.0986  2.2978
 2365SOL    MW4 9194   1.494   2.301   4.729 -0.1901  0.2645 -0.0133
 2366SOL     OW 9195   0.282   4.985   3.558  0.0297  0.0220  0.1138
 2366SOL    HW2 9196   0.220   4.913   3.548  1.5296 -1.1810 -0.9862
 2366SOL    HW3 9197   0.334   4.961   3.635 -0.2024  0.5323  0.4390
 2366SOL    MW4 9198   0.281   4.972   3.567 -0.4319  0.5866  0.4389
 2367SOL     OW 9199   6.035   6.048   4.676 -0.0308  0.2076  0.1237
 2367SOL    HW2 9200   6.073   6.133   4.657 -1.5417  0.6721 -0.9629
 2367SOL    HW3 9201   5.941   6.060   4.664 -0.5408 -0.9869  2.3442
 2367SOL    MW4 9202   6.028   6.061   4.672 -0.2072  0.3848 -0.5431
 2368SOL     OW 9203   4.714   0.297   4.818 -0.2526  0.2775 -0.1140
 2368SOL    HW2 9204   4.723   0.348   4.737 -0.2231 -0.4700 -0.5942
 2368SOL    HW3 9205   4.662   0.221   4.792  0.0097 -0.1201  0.5072
 2368SOL    MW4 9206   4.708   0.294   4.804  0.2710 -0.0579  0.2353
 2369SOL     OW 9207   0.672   0.079   6.104 -0.9953  0.1332  0.2308
 2369SOL    HW2 9208   0.600   0.032   6.063  0.0011 -1.1738 -0.0659
 2369SOL    HW3 9209   0.690   0.030   6.184 -0.2311  0.2669  0.1463
 2369SOL    MW4 9210   0.665   0.066   6.109 -0.2929  0.0314  0.4756
 2370SOL     OW 9211   1.678   0.338   5.117  0.2325  0.0113  0.0605
 2370SOL    HW2 9212   1.645   0.414   5.165 -0.0496  0.6408 -1.0688
 2370SOL    HW3 9213   1.633   0.343   5.032 -1.1012 -2.4178  0.5628
 2370SOL    MW4 9214   1.668   0.349   5.112  0.1331  0.2110  0.3320
 2371SOL     OW 9215   4.511   3.531   4.013 -0.0530 -0.0443  0.2191
 2371SOL    HW2 9216   4.510   3.437   4.031  0.5219 -0.2128 -0.5718
 2371SOL    HW3 9217   4.496   3.572   4.098  1.4662 -0.8288  0.9047
 2371SOL    MW4 9218   4.509   3.524   4.027 -0.5074  0.0217  0.0356
 2372SOL     OW 9219   3.735   1.823   3.481 -0.2075  0.0418 -0.3856
 2372SOL    HW2 9220   3.708   1.731   3.489  1.0508 -0.3204  0.0230
 2372SOL    HW3 9221   3.656   1.873   3.499 -0.8350 -0.9658 -0.2570
 2372SOL    MW4 9222   3.721   1.817   3.484  0.0187  0.3536 -0.1517
 2373SOL     OW 9223   2.478   2.359   5.157  0.2885  0.0202  0.0865
 2373SOL    HW2 9224   2.419   2.301   5.206  1.2031 -1.4435 -0.4590
 2373SOL    HW3 9225   2.559   2.359   5.207  0.6721 -0.1134 -0.5198
 2373SOL    MW4 9226   2.481   2.351   5.170  0.2212  0.2386 -0.4217
 2374SOL     OW 9227   1.014   5.309   0.422 -0.3561 -0.0846 -0.3502
 2374SOL    HW2 9228   1.032   5.224   0.382 -1.0912  0.7815 -2.6389
 2374SOL    HW3 9229   0.930   5.296   0.468  0.0333 -0.8365  0.1670
 2374SOL    MW4 9230   1.005   5.296   0.423  0.6205 -0.0852 -0.1753
 2375SOL     OW 9231   0.839   5.999   1.583  0.8039  0.3628  1.0294
 2375SOL    HW2 9232   0.783   5.966   1.513  1.0882  0.5421  0.7191
 2375SOL    HW3 9233   0.810   6.089   1.598  2.3893  1.1809 -0.5809
 2375SOL    MW4 9234   0.828   6.006   1.576  0.1267  0.5685 -0.3427
 2376SOL     OW 9235   3.711   0.627   3.989  0.1940 -0.1746  0.1032
 2376SOL    HW2 9236   3.736   0.699   3.931 -0.4757 -0.7074 -0.8909
 2376SOL    HW3 9237   3.634   0.659   4.035  0.0432 -0.1568 -0.1566
 2376SOL    MW4 9238   3.704   0.641   3.987 -0.1876  0.0036 -0.1492
 2377SOL     OW 9239   3.354   2.881   4.006  0.5435 -0.0048 -0.2404
 2377SOL    HW2 9240   3.305   2.882   3.924 -0.4810  1.3053  0.3518
 2377SOL    HW3 9241   3.392   2.968   4.013  0.2684  0.0511  0.8564
 2377SOL    MW4 9242   3.352   2.893   3.996  0.1533  0.2938 -0.2068
 2378SOL     OW 9243   3.948   4.254   1.332 -0.6988  0.8053 -0.0460
 2378SOL    HW2 9244   4.030   4.208   1.350 -0.3092  1.2650 -0.6176
 2378SOL    HW3 9245   3.959   4.289   1.244 -1.1795  1.5856  0.1897
 2378SOL    MW4 9246   3.960   4.253   1.323 -0.1559  0.1795 -0.0825
 2379SOL     OW 9247   5.561   3.867   4.041  0.0036  0.0317 -0.0994
 2379SOL    HW2 9248   5.629   3.858   4.107 -1.3102 -0.7092  1.2237
 2379SOL    HW3 9249   5.535   3.778   4.020  0.9894  0.1996 -2.3364
 2379SOL    MW4 9250   5.566   3.854   4.047 -0.1782 -0.3112 -0.1432
 2380SOL     OW 9251   0.820   5.121   3.291 -0.2466  0.0613 -0.4039
 2380SOL    HW2 9252   0.856   5.180   3.225 -0.4555  1.2256  0.4954
 2380SOL    HW3 9253   0.735   5.159   3.314  0.3005  0.3237  1.3316
 2380SOL    MW4 9254   0.813   5.134   3.285  0.4972  0.2073  0.7861
 2381SOL     OW 9255   6.437   3.627   4.713 -0.2028 -0.0701 -0.1048
 2381SOL    HW2 9256   6.477   3.579   4.785 -1.4672 -0.2103  0.5231
 2381SOL    HW3 9257   6.387   3.561   4.665 -0.1869  0.2145 -0.5233
 2381SOL    MW4 9258   6.435   3.612   4.716  0.4815  1.1484 -0.7179
 2382SOL     OW 9259   5.058   3.875   1.893 -0.1367  0.5576  0.1690
 2382SOL    HW2 9260   5.021   3.880   1.805  0.2896  1.1803  0.0177
 2382SOL    HW3 9261   5.153   3.871   1.879 -0.1328 -1.7381  0.5212
 2382SOL    MW4 9262   5.066   3.875   1.880 -0.3775 -0.2704  0.7212
 2383SOL     OW 9263   3.669   3.965   4.375  0.5997  0.1123  0.0907
 2383SOL    HW2 9264   3.624   3.941   4.456  1.4179  0.6782  0.7355
 2383SOL    HW3 9265   3.710   4.050   4.395  1.1136  0.0813 -0.7931
 2383SOL    MW4 9266   3.668   3.973   4.388  0.1097 -0.6145  0.3235
 2384SOL     OW 9267   1.923   2.601   1.822  1.2398  0.0831  0.2661
 2384SOL    HW2 9268   1.957   2.521   1.863  1.9107 -0.1894 -0.7890
 2384SOL    HW3 9269   1.830   2.601   1.845  1.8002  0.6233  2.8427
 2384SOL    MW4 9270   1.915   2.590   1.831  0.0318 -0.6374 -0.6167
 2385SOL     OW 9271   2.967   0.506   5.480  0.6255 -0.4133 -0.3834
 2385SOL    HW2 9272   2.951   0.419   5.516 -1.7373 -0.1948 -0.7538
 2385SOL    HW3 9273   2.880   0.544   5.470  1.5074  1.4005 -1.7109
 2385SOL    MW4 9274   2.954   0.500   5.484 -0.4382  0.2993 -0.1054
 2386SOL     OW 9275   1.926   6.342   2.471 -0.2845 -0.2810 -0.1182
 2386SOL    HW2 9276   1.871   6.289   2.529  1.1655 -0.1094  1.5018
 2386SOL    HW3 9277   1.899   6.433   2.489  0.0326 -0.2394  0.1597
 2386SOL    MW4 9278   1.915   6.347   2.481 -0.6310  0.4678 -0.5476
 2387SOL     OW 9279   5.245   4.690   4.078  0.3838  0.0720  0.2041
 2387SOL    HW2 9280   5.174   4.753   4.065  0.6577  0.3324 -0.0327
 2387SOL    HW3 9281   5.211   4.629   4.144  0.2720  0.7130  0.7512
 2387SOL    MW4 9282   5.231   4.690   4.085 -0.0269 -0.1451  0.2132
 2388SOL     OW 9283   3.557   2.736   4.121 -0.2245  0.3781  0.1632
 2388SOL    HW2 9284   3.478   2.781   4.090 -0.7128  0.6134  1.6987
 2388SOL    HW3 9285   3.596   2.797   4.184 -0.5473 -1.0523  1.8141
 2388SOL    MW4 9286   3.552   2.750   4.125  0.1357  0.0795  0.3743
 2389SOL     OW 9287   3.871   3.686   2.239 -0.4623  0.0102  0.1400
 2389SOL    HW2 9288   3.930   3.703   2.313 -0.9227 -0.4515  0.6156
 2389SOL    HW3 9289   3.869   3.769   2.191  0.5185  0.0618  0.1515
 2389SOL    MW4 9290   3.879   3.700   2.242  0.1624  0.2419 -0.1222
 2390SOL     OW 9291   6.351   4.082   6.112 -0.6748 -0.3342 -0.2006
 2390SOL    HW2 9292   6.284   4.020   6.082 -1.1332  0.4679 -0.8871
 2390SOL    HW3 9293   6.368   4.056   6.203 -2.2191 -0.3099  0.1352
 2390SOL    MW4 9294   6.344   4.070   6.120 -0.5452 -0.0063  0.2650
 2391SOL     OW 9295   4.072   3.887   3.183 -0.5892  0.1884 -0.4209
 2391SOL    HW2 9296   4.134   3.945   3.227 -1.8725  0.8605  0.5676
 2391SOL    HW3 9297   4.025   3.844   3.254 -0.5432 -1.1273 -1.1513
 2391SOL    MW4 9298   4.074   3.889   3.198  0.1096  0.0108  0.2084
 2392SOL     OW 9299   6.356   4.394   0.059 -0.3931  0.6290  0.4222
 2392SOL    HW2 9300   6.430   4.340   0.086  0.0873  0.8880 -0.3626
 2392SOL    HW3 9301   6.383   4.484   0.078  0.2228  0.8772 -1.4952
 2392SOL    MW4 9302   6.369   4.399   0.065 -0.2158  0.0519 -0.1439
 2393SOL     OW 9303   0.697   3.222   5.446 -0.7358  0.1875  0.2831
 2393SOL    HW2 9304   0.626   3.201   5.507 -0.0413 -0.6360  0.8290
 2393SOL    HW3 9305   0.768   3.163   5.470 -0.0670  0.5820 -0.6454
 2393SOL    MW4 9306   0.697   3.211   5.457 -0.3385  0.2500  0.5771
 2394SOL     OW 9307   5.905   1.607   2.665 -0.3506 -0.0327 -0.3267
 2394SOL    HW2 9308   5.952   1.542   2.612  1.1547  1.0082 -0.3296
 2394SOL    HW3 9309   5.826   1.625   2.615  0.5114  0.1265 -1.7068
 2394SOL    MW4 9310   5.901   1.600   2.651 -0.4490  0.7380 -0.4911
 2395SOL     OW 9311   4.409   0.576   4.627 -0.2043  0.0194 -0.1274
 2395SOL    HW2 9312   4.412   0.579   4.532 -1.0507  0.3509 -0.1488
 2395SOL    HW3 9313   4.501   0.567   4.654  0.0432 -0.0022 -0.9630
 2395SOL    MW4 9314   4.422   0.575   4.618 -0.1419  0.0016  0.0291
 2396SOL     OW 9315   1.084   5.008   1.699 -0.1777 -0.2410 -0.0542
 2396SOL    HW2 9316   1.142   5.046   1.765  0.2851  1.0122 -1.1514
 2396SOL    HW3 9317   0.996   5.035   1.725 -0.0028  0.2121  0.0686
 2396SOL    MW4 9318   1.080   5.016   1.712  0.1042 -0.8197  0.1754
 2397SOL     OW 9319   4.422   3.493   1.498 -0.8722 -0.4486 -0.3388
 2397SOL    HW2 9320   4.369   3.423   1.460 -0.3210 -1.5425  0.8228
 2397SOL    HW3 9321   4.438   3.464   1.588  1.1830  0.1305 -0.4676
 2397SOL    MW4 9322   4.417   3.480   1.505  0.9761  0.2509  0.2080
 2398SOL     OW 9323   0.184   4.954   5.718 -0.0155 -0.2879 -0.1877
 2398SOL    HW2 9324   0.164   4.903   5.639  0.1771 -1.4145  0.4619
 2398SOL    HW3 9325   0.271   4.925   5.744 -0.3627 -0.4735  0.8331
 2398SOL    MW4 9326   0.193   4.943   5.711  0.4797 -0.6611 -0.3908
 2399SOL     OW 9327   4.371   4.883   1.843  0.1915  0.0508 -0.1817
 2399SOL    HW2 9328   4.350   4.800   1.887 -0.4264  0.2030 -0.1762
 2399SOL    HW3 9329   4.397   4.942   1.914  0.0925  0.0235 -0.1224
 2399SOL    MW4 9330   4.372   4.880   1.858  0.1517 -0.0964  0.0676
 2400SOL     OW 9331   0.597   6.363   0.359 -0.1807 -0.2548 -0.2018
 2400SOL    HW2 9332   0.558   6.447   0.336 -0.0148 -0.1135  0.0322
 2400SOL    HW3 9333   0.564   6.343   0.446  3.1367  1.6925  1.7151
 2400SOL    MW4 9334   0.588   6.372   0.367  0.4885  0.5305  0.4835
 2401SOL     OW 9335   1.113   4.477   6.175 -0.1989 -0.2039  0.4795
 2401SOL    HW2 9336   1.167   4.497   6.252  0.0316 -1.9310  0.7918
 2401SOL    HW3 9337   1.029   4.519   6.194 -0.0815 -0.4500  1.5894
 2401SOL    MW4 9338   1.109   4.485   6.188  0.1691  0.3066  0.0343
 2402SOL     OW 9339   5.370   0.273   1.947 -0.1093 -0.4144  0.1551
 2402SOL    HW2 9340   5.390   0.197   1.893 -0.7801 -0.2338 -0.3658
 2402SOL    HW3 9341   5.399   0.348   1.895  1.8754 -0.3532  1.2673
 2402SOL    MW4 9342   5.376   0.273   1.933 -0.7725  0.0219 -0.3164
 2403SOL     OW 9343   1.971   4.765   0.154  0.0993  0.1982 -0.2125
 2403SOL    HW2 9344   2.044   4.709   0.180 -0.8191 -0.3909  1.1955
 2403SOL    HW3 9345   2.011   4.832   0.099  1.3780 -1.2434 -1.1081
 2403SOL    MW4 9346   1.986   4.766   0.150  0.3065  0.0682 -0.2356
 2404SOL     OW 9347   4.517   3.127   1.794  1.0505 -0.4475 -0.3955
 2404SOL    HW2 9348   4.560   3.143   1.878 -1.5697  0.3513  0.8740
 2404SOL    HW3 9349   4.472   3.209   1.774  0.4848 -1.0886 -1.9066
 2404SOL    MW4 9350   4.517   3.140   1.802  0.0715  0.3271  0.8901
 2405SOL     OW 9351   4.659   3.361   5.344 -0.5454  0.3051  0.1174
 2405SOL    HW2 9352   4.585   3.301   5.337  0.7053 -1.2342 -0.3625
 2405SOL    HW3 9353   4.652   3.417   5.267 -0.3976 -0.7991 -0.7218
 2405SOL    MW4 9354   4.648   3.361   5.333  0.6643 -0.5421  0.0414
 2406SOL     OW 9355   6.232   2.881   1.928  0.0622 -0.2689 -0.6271
 2406SOL    HW2 9356   6.204   2.790   1.941  1.1827 -0.5650 -0.1955
 2406SOL    HW3 9357   6.168   2.917   1.865 -0.5941 -1.2422 -0.5391
 2406SOL    MW4 9358   6.220   2.874   1.921 -0.1217  0.1124 -0.2465
 2407SOL     OW 9359   5.448   6.107   3.465  0.4290  0.2861 -0.4441
 2407SOL    HW2 9360   5.457   6.014   3.488  0.9623  0.7684  1.4952
 2407SOL    HW3 9361   5.535   6.133   3.434  0.6983  0.4757  0.4427
 2407SOL    MW4 9362   5.461   6.098   3.464  0.6373 -0.2643  0.5095
 2408SOL     OW 9363   4.229   4.500   3.792 -0.0857  0.1846 -0.3007
 2408SOL    HW2 9364   4.298   4.543   3.741  1.6985 -0.1894  1.6981
 2408SOL    HW3 9365   4.196   4.568   3.851 -0.2308 -0.0934 -0.0581
 2408SOL    MW4 9366   4.234   4.515   3.793  0.3486  0.8824  0.5710
 2409SOL     OW 9367   2.339   0.763   1.140 -0.0990  0.2692  0.1422
 2409SOL    HW2 9368   2.370   0.829   1.202 -0.6248  1.0080 -0.3622
 2409SOL    HW3 9369   2.252   0.738   1.171  0.4957 -0.9651  0.9096
 2409SOL    MW4 9370   2.332   0.768   1.152 -0.6017 -0.3279 -0.3690
 2410SOL     OW 9371   0.965   5.310   1.446  0.4805  0.6732  0.2697
 2410SOL    HW2 9372   0.963   5.378   1.379 -0.0921  0.7009  0.3132
 2410SOL    HW3 9373   0.956   5.228   1.398  1.5162  0.5914  0.1833
 2410SOL    MW4 9374   0.964   5.308   1.431 -0.7366 -0.1168  0.2594
 2411SOL     OW 9375   3.432   0.773   1.327  0.0543  0.3334 -0.5318
 2411SOL    HW2 9376   3.508   0.716   1.330  0.3382  0.7238  0.0337
 2411SOL    HW3 9377   3.444   0.833   1.401 -0.8647  0.3178 -0.3501
 2411SOL    MW4 9378   3.443   0.774   1.337  0.1710  0.4031 -0.3803
 2412SOL     OW 9379   2.764   1.915   2.615 -0.6123 -0.3213  0.2523
 2412SOL    HW2 9380   2.732   1.856   2.547  0.6624 -2.7528  1.6550
 2412SOL    HW3 9381   2.806   1.986   2.566 -1.3966 -1.0005 -1.4974
 2412SOL    MW4 9382   2.765   1.917   2.599  0.0653 -0.3954  0.1538
 2413SOL     OW 9383   2.960   3.024   2.072 -0.0536  0.5114 -0.2904
 2413SOL    HW2 9384   2.964   3.057   1.982  0.9829  1.6943  0.1622
 2413SOL    HW3 9385   2.869   2.995   2.083 -1.7942  5.1852 -0.1058
 2413SOL    MW4 9386   2.949   3.025   2.061 -0.3944  0.0417  0.0092
 2414SOL     OW 9387   2.144   3.400   4.475 -0.1843  0.1345 -0.4900
 2414SOL    HW2 9388   2.158   3.442   4.391  0.3060 -0.4624 -0.7163
 2414SOL    HW3 9389   2.050   3.411   4.492 -0.1239  1.0133 -0.6947
 2414SOL    MW4 9390   2.133   3.407   4.466 -0.3580  0.0575 -0.6029
 2415SOL     OW 9391   1.420   0.828   5.403  0.1055  0.0014 -0.5049
 2415SOL    HW2 9392   1.387   0.739   5.390  0.8561 -0.5812  1.2568
 2415SOL    HW3 9393   1.454   0.829   5.492 -2.4445  2.8781  0.6120
 2415SOL    MW4 9394   1.420   0.817   5.413  0.1661 -0.0568 -0.2310
 2416SOL     OW 9395   6.102   1.226   2.319 -0.6933 -0.1537  0.1149
 2416SOL    HW2 9396   6.052   1.293   2.366 -2.0870 -0.9743 -0.1697
 2416SOL    HW3 9397   6.071   1.231   2.229  0.8964  0.3918 -0.4435
 2416SOL    MW4 9398   6.091   1.236   2.313  0.8056  0.0080 -0.1743
 2417SOL     OW 9399   0.017   5.065   5.283  0.6521  0.4962 -0.6627
 2417SOL    HW2 9400   0.079   5.004   5.324 -0.1608 -0.9182 -1.4525
 2417SOL    HW3 9401  -0.009   5.021   5.202 -2.1610  0.5364  0.1262
 2417SOL    MW4 9402   0.022   5.051   5.278 -0.1094 -0.7230 -0.0951
 2418SOL     OW 9403   5.653   3.529   6.066  0.0649  0.2596  0.2795
 2418SOL    HW2 9404   5.577   3.472   6.075  0.3044 -0.2261 -0.5739
 2418SOL    HW3 9405   5.703   3.515   6.146 -0.7805  0.6482  0.8851
 2418SOL    MW4 9406   5.650   3.519   6.077  0.0459 -0.4244  0.7280
 2419SOL     OW 9407   3.287   2.883   2.604 -0.2004  0.0796 -0.2772
 2419SOL    HW2 9408   3.379   2.905   2.621 -0.2802 -0.2147  0.5458
 2419SOL    HW3 9409   3.250   2.864   2.690 -0.8723 -0.4373 -0.6707
 2419SOL    MW4 9410   3.294   2.883   2.617  0.2637 -0.2506 -0.4196
 2420SOL     OW 9411   2.521   3.734   0.770 -0.3055 -0.1091 -0.2286
 2420SOL    HW2 9412   2.578   3.674   0.721  0.6790  1.0079 -0.5094
 2420SOL    HW3 9413   2.574   3.813   0.782 -0.5929 -0.2473  2.4851
 2420SOL    MW4 9414   2.535   3.737   0.765 -0.2301 -0.2101  0.1784
 2421SOL     OW 9415   0.984   1.663   0.402 -0.6268  0.4273  0.2370
 2421SOL    HW2 9416   0.951   1.679   0.490 -2.4160  2.7476 -0.7534
 2421SOL    HW3 9417   1.066   1.712   0.398 -1.1331  1.2870  0.2730
 2421SOL    MW4 9418   0.991   1.671   0.413  0.1104 -0.5685  0.7258
 2422SOL     OW 9419   3.348   0.063   0.891  0.0546 -0.1780 -0.0240
 2422SOL    HW2 9420   3.329   0.030   0.979 -0.8738 -1.0092 -0.5243
 2422SOL    HW3 9421   3.263   0.080   0.852  0.4286  2.9578  0.1928
 2422SOL    MW4 9422   3.335   0.061   0.898 -0.1061 -0.9352 -0.2329
 2423SOL     OW 9423   5.301   0.268   6.430 -0.3664 -0.3326 -0.0900
 2423SOL    HW2 9424   5.390   0.259   6.463 -0.7782 -0.8233  0.9360
 2423SOL    HW3 9425   5.249   0.211   6.487 -0.9181 -2.3065 -2.3947
 2423SOL    MW4 9426   5.306   0.259   6.442 -0.5586  0.5876  0.7516
 2424SOL     OW 9427   4.022   5.422   4.822 -0.1446  0.7031  0.1454
 2424SOL    HW2 9428   4.008   5.430   4.916 -0.2719  2.4552  0.0101
 2424SOL    HW3 9429   3.978   5.498   4.784 -0.1459  0.0082 -1.3441
 2424SOL    MW4 9430   4.014   5.433   4.829 -0.6025  0.0694 -0.2955
 2425SOL     OW 9431   4.043   4.316   3.335  0.0755 -0.2220  0.0852
 2425SOL    HW2 9432   3.967   4.306   3.393  0.7961  0.6547  1.2417
 2425SOL    HW3 9433   4.008   4.306   3.247 -1.2618 -0.5016  0.6225
 2425SOL    MW4 9434   4.028   4.313   3.331  0.3347  0.2632  0.3076
 2426SOL     OW 9435   3.219   3.138   5.905 -0.1071 -0.4591  0.4481
 2426SOL    HW2 9436   3.242   3.045   5.903 -0.8292 -0.6523 -1.7702
 2426SOL    HW3 9437   3.299   3.183   5.878 -0.6456 -0.7475 -1.8870
 2426SOL    MW4 9438   3.232   3.131   5.901  0.2288  0.4117 -0.5916
 2427SOL     OW 9439   2.450   2.225   4.901  0.2919 -0.6565 -0.0253
 2427SOL    HW2 9440   2.361   2.235   4.868 -0.1586 -1.1711  1.0038
 2427SOL    HW3 9441   2.444   2.244   4.995  1.7680  2.0386 -0.3581
 2427SOL    MW4 9442   2.438   2.229   4.909  0.4571 -0.0839 -0.6048
 2428SOL     OW 9443   0.873   0.840   4.555 -0.1802  0.1560 -0.0402
 2428SOL    HW2 9444   0.835   0.756   4.580 -1.6749  1.3931  2.1953
 2428SOL    HW3 9445   0.820   0.869   4.481  0.8191 -1.1311 -1.3261
 2428SOL    MW4 9446   0.861   0.833   4.549  0.5470 -0.2654  0.2404
 2429SOL     OW 9447   2.159   0.901   0.100 -0.4175 -0.2671 -0.4765
 2429SOL    HW2 9448   2.239   0.938   0.136 -0.9180  1.4644 -1.0789
 2429SOL    HW3 9449   2.155   0.812   0.137  1.8560 -0.4620 -0.6164
 2429SOL    MW4 9450   2.169   0.894   0.110  0.4224 -0.6160  0.6071
 2430SOL     OW 9451   3.440   5.742   1.746 -0.7203 -0.3358 -0.2690
 2430SOL    HW2 9452   3.365   5.685   1.729 -0.5614 -0.5194 -0.3569
 2430SOL    HW3 9453   3.491   5.739   1.665  0.4851 -1.8717  0.4790
 2430SOL    MW4 9454   3.437   5.734   1.733  0.4467 -0.8147 -0.2252
 2431SOL     OW 9455   3.833   3.705   3.776  0.2169  0.4500 -0.0350
 2431SOL    HW2 9456   3.886   3.643   3.726  0.9552  1.9314 -1.1485
 2431SOL    HW3 9457   3.896   3.761   3.820 -0.4289 -0.3020  1.9772
 2431SOL    MW4 9458   3.848   3.704   3.776  0.0014  0.1253 -0.2019
 2432SOL     OW 9459   3.580   1.574   0.785  0.2758  0.1174 -0.0534
 2432SOL    HW2 9460   3.673   1.576   0.762  0.2788 -0.6471 -0.1631
 2432SOL    HW3 9461   3.541   1.513   0.721 -0.5493  1.4221 -0.8384
 2432SOL    MW4 9462   3.587   1.566   0.773  0.7250 -0.2385 -0.0446
 2433SOL     OW 9463   1.303   3.196   2.843 -0.2225 -0.0789  0.1327
 2433SOL    HW2 9464   1.231   3.241   2.799 -1.1107  0.5234  2.0628
 2433SOL    HW3 9465   1.289   3.104   2.824 -0.8602  0.1182 -0.4125
 2433SOL    MW4 9466   1.292   3.190   2.835  0.2614  0.1323  0.0557
 2434SOL     OW 9467   2.661   3.785   1.868  0.0168  0.1876  0.3953
 2434SOL    HW2 9468   2.614   3.866   1.850  0.4014  0.0821 -1.2198
 2434SOL    HW3 9469   2.717   3.771   1.791  1.2589 -0.7005  1.3962
 2434SOL    MW4 9470   2.662   3.793   1.855 -0.4830  0.5782  0.2773
 2435SOL     OW 9471   1.209   0.539   0.961  0.1268 -0.1997 -0.0294
 2435SOL    HW2 9472   1.228   0.500   1.047  0.0806 -2.2005 -0.8623
 2435SOL    HW3 9473   1.148   0.610   0.980  0.7299 -0.0901  1.6642
 2435SOL    MW4 9474   1.203   0.543   0.975  0.3076 -0.1820 -0.7850
 2436SOL     OW 9475   4.830   4.411   0.564 -0.3832 -0.2514  0.3641
 2436SOL    HW2 9476   4.826   4.507   0.570  0.7740 -0.1568 -0.1175
 2436SOL    HW3 9477   4.864   4.383   0.649  0.2218 -0.1515  0.1608
 2436SOL    MW4 9478   4.834   4.420   0.576  0.2184 -0.0519 -0.0869
 2437SOL     OW 9479   0.090   5.690   5.828 -0.1587  0.1486 -0.2156
 2437SOL    HW2 9480   0.032   5.684   5.904  1.4259 -0.1040  1.0403
 2437SOL    HW3 9481   0.140   5.609   5.831  0.8355  0.7270 -0.7612
 2437SOL    MW4 9482   0.089   5.678   5.838  0.8638 -0.7698  0.3610
 2438SOL     OW 9483   2.096   4.145   3.392 -0.1390  0.3534  0.0506
 2438SOL    HW2 9484   2.061   4.076   3.447  1.2717 -0.8947 -0.5496
 2438SOL    HW3 9485   2.174   4.107   3.351  1.7949  2.8668  1.1063
 2438SOL    MW4 9486   2.101   4.131   3.394  0.0367  0.4080 -0.2684
 2439SOL     OW 9487   0.637   6.370   5.002 -0.3331  0.1546 -0.1202
 2439SOL    HW2 9488   0.638   6.283   4.962 -1.3689  0.9263 -1.9251
 2439SOL    HW3 9489   0.552   6.407   4.979 -1.9363  0.0138  4.4405
 2439SOL    MW4 9490   0.626   6.363   4.994 -0.5222  0.6084  0.1987
 2440SOL     OW 9491   3.149   0.546   3.610 -0.4486  0.0353 -0.1553
 2440SOL    HW2 9492   3.209   0.478   3.580 -0.3712  1.0688 -2.5169
 2440SOL    HW3 9493   3.074   0.499   3.645 -1.0035 -1.3543 -2.9425
 2440SOL    MW4 9494   3.147   0.531   3.611  0.3502  0.3681 -0.7476
 2441SOL     OW 9495   1.345   3.227   4.703  0.1682 -0.0515  0.3520
 2441SOL    HW2 9496   1.290   3.276   4.764  0.7293 -0.2013  0.9991
 2441SOL    HW3 9497   1.295   3.148   4.683 -0.6629  0.6899 -0.5587
 2441SOL    MW4 9498   1.332   3.223   4.709  0.4310  0.1928  0.4227
 2442SOL     OW 9499   1.786   2.513   5.680  0.0005  0.1506  0.3373
 2442SOL    HW2 9500   1.724   2.582   5.658 -0.8927 -0.1451  1.7822
 2442SOL    HW3 9501   1.755   2.437   5.629  0.8248  0.6994 -1.0406
 2442SOL    MW4 9502   1.774   2.512   5.670  0.2970 -1.1163 -0.0807
 2443SOL     OW 9503   0.836   0.089   1.452  0.6943  0.2115  0.1945
 2443SOL    HW2 9504   0.912   0.036   1.474  0.0838 -0.8970 -0.3142
 2443SOL    HW3 9505   0.763   0.046   1.496  0.2001  0.6912 -0.1448
 2443SOL    MW4 9506   0.836   0.077   1.461  0.3989 -0.3416 -0.1950
 2444SOL     OW 9507   2.806   5.650   5.721 -0.2863  0.6027 -0.5515
 2444SOL    HW2 9508   2.733   5.710   5.739  0.2345  1.8229 -2.2316
 2444SOL    HW3 9509   2.859   5.653   5.801  0.3907  3.4741 -0.9778
 2444SOL    MW4 9510   2.803   5.658   5.734  0.2744 -0.4012 -0.3050
 2445SOL     OW 9511   0.896   2.260   1.355 -0.6234 -0.2289 -0.3384
 2445SOL    HW2 9512   0.897   2.188   1.418 -2.3716 -0.0732 -0.0622
 2445SOL    HW3 9513   0.974   2.248   1.302 -0.5686 -1.9892  0.0816
 2445SOL    MW4 9514   0.906   2.249   1.356  0.4804  0.1641  0.1194
 2446SOL     OW 9515   5.154   2.749   3.228 -0.1674  0.3668  0.5729
 2446SOL    HW2 9516   5.198   2.832   3.217  0.3019  0.4314  2.5206
 2446SOL    HW3 9517   5.068   2.761   3.187  0.9614  0.7635 -1.8339
 2446SOL    MW4 9518   5.148   2.761   3.221 -0.3323  1.3421 -0.9027
 2447SOL     OW 9519   4.823   3.313   3.369 -0.1323  0.0605 -0.3690
 2447SOL    HW2 9520   4.850   3.374   3.301 -0.4393 -0.8978 -1.3880
 2447SOL    HW3 9521   4.786   3.238   3.321  0.2239 -0.9212  0.8307
 2447SOL    MW4 9522   4.821   3.311   3.354 -0.5558 -0.7235 -0.2042
 2448SOL     OW 9523   2.863   1.013   2.173  0.4531 -0.5229 -0.1998
 2448SOL    HW2 9524   2.898   1.064   2.100  1.3955 -1.3407 -0.3392
 2448SOL    HW3 9525   2.929   1.023   2.242 -0.5734  0.5060  0.6870
 2448SOL    MW4 9526   2.877   1.021   2.173 -0.1362  0.0551  0.3740
 2449SOL     OW 9527   1.329   2.136   4.871 -0.4033  0.4687 -0.0198
 2449SOL    HW2 9528   1.303   2.058   4.823  1.2925  0.1414 -0.4454
 2449SOL    HW3 9529   1.256   2.152   4.932 -0.7842 -1.4016  0.0630
 2449SOL    MW4 9530   1.316   2.128   4.873  0.4267 -0.3884  0.5901
 2450SOL     OW 9531   5.230   1.025   5.684 -0.3820 -0.1653 -0.1242
 2450SOL    HW2 9532   5.264   1.112   5.661  1.0949 -0.9663 -1.1123
 2450SOL    HW3 9533   5.186   0.995   5.604 -2.2340  0.2444  0.6821
 2450SOL    MW4 9534   5.229   1.033   5.670  0.3988 -0.2187 -0.3754
 2451SOL     OW 9535   4.784   1.478   2.793 -0.1268 -0.4769 -0.0636
 2451SOL    HW2 9536   4.709   1.421   2.807  0.4938 -0.9766  1.4107
 2451SOL    HW3 9537   4.777   1.506   2.701 -2.0293 -0.5971  0.0128
 2451SOL    MW4 9538   4.773   1.474   2.783  0.2338  0.1164  0.5411
 2452SOL     OW 9539   1.380   4.768   1.270 -0.0918 -0.3695  0.0434
 2452SOL    HW2 9540   1.404   4.705   1.201 -0.0496  0.2128 -0.4808
 2452SOL    HW3 9541   1.326   4.833   1.225  0.6505  0.4955  0.3703
 2452SOL    MW4 9542   1.376   4.768   1.255  0.2480 -0.5736  0.4304
 2453SOL     OW 9543   1.773   3.158   3.937 -0.0623  0.3357  0.3905
 2453SOL    HW2 9544   1.771   3.068   3.970 -1.1365  0.9387  2.1181
 2453SOL    HW3 9545   1.726   3.155   3.855 -1.7867 -0.3865  1.3610
 2453SOL    MW4 9546   1.767   3.146   3.931  0.0419  0.3553 -0.0989
 2454SOL     OW 9547   3.143   5.962   2.236  0.8079  0.7090 -0.3340
 2454SOL    HW2 9548   3.228   5.995   2.266  0.7338 -0.6678  1.5607
 2454SOL    HW3 9549   3.165   5.894   2.172  1.3091 -1.2422  1.7870
 2454SOL    MW4 9550   3.157   5.958   2.231  0.3264 -0.5209 -0.6653
 2455SOL     OW 9551   0.658   1.661   0.595  0.0984 -0.2221 -0.4703
 2455SOL    HW2 9552   0.734   1.603   0.590 -0.3715 -0.7923 -1.2320
 2455SOL    HW3 9553   0.681   1.735   0.538  0.1975 -0.2459 -0.4625
 2455SOL    MW4 9554   0.671   1.663   0.586 -0.4558 -0.2399  0.0728
 2456SOL     OW 9555   0.492   5.621   5.920 -0.5844  0.1423  0.0079
 2456SOL    HW2 9556   0.405   5.611   5.958 -0.3732 -1.1198  0.1856
 2456SOL    HW3 9557   0.499   5.715   5.901 -0.6058  0.9423  3.3091
 2456SOL    MW4 9558   0.481   5.632   5.923  0.1498 -0.2793  0.0072
 2457SOL     OW 9559   2.662   0.116   1.054  0.0873  0.5959 -0.3482
 2457SOL    HW2 9560   2.712   0.159   0.984  0.2692  2.0555  0.6138
 2457SOL    HW3 9561   2.728   0.092   1.119 -0.2174  0.4936 -0.0755
 2457SOL    MW4 9562   2.677   0.119   1.053  0.3651  0.0333 -0.0243
 2458SOL     OW 9563   0.686   1.783   1.405  0.3986  0.1319 -0.6692
 2458SOL    HW2 9564   0.740   1.858   1.431 -0.5315 -0.1621  2.4871
 2458SOL    HW3 9565   0.654   1.747   1.487 -4.0075 -0.1545 -2.2345
 2458SOL    MW4 9566   0.689   1.788   1.419  0.5763  0.2573  0.2892
 2459SOL     OW 9567   3.461   2.343   4.706  0.6470  0.2241 -0.0001
 2459SOL    HW2 9568   3.518   2.355   4.783  1.0958 -0.6598 -0.1885
 2459SOL    HW3 9569   3.501   2.398   4.639 -0.2464  1.7121  0.6240
 2459SOL    MW4 9570   3.474   2.352   4.707 -1.0592 -0.0061  0.4423
 2460SOL     OW 9571   5.748   4.695   0.681  0.0809 -0.0675 -0.4234
 2460SOL    HW2 9572   5.752   4.635   0.606  1.8712  0.8682 -1.1551
 2460SOL    HW3 9573   5.740   4.782   0.641 -1.8774  0.2584  0.5992
 2460SOL    MW4 9574   5.747   4.698   0.666  0.4041  0.2880  0.1083
 2461SOL     OW 9575   4.521   2.925   3.086  0.0181  0.4915 -0.3174
 2461SOL    HW2 9576   4.564   2.857   3.034  0.3976  0.4611  0.0337
 2461SOL    HW3 9577   4.436   2.887   3.108  0.1326  0.2282 -0.3265
 2461SOL    MW4 9578   4.515   2.911   3.082  0.4054  0.1586  0.1612
 2462SOL     OW 9579   3.593   3.310   4.816 -0.0243 -0.0052  0.1237
 2462SOL    HW2 9580   3.604   3.389   4.764 -0.9361 -0.3508 -0.6139
 2462SOL    HW3 9581   3.498   3.300   4.827  0.1043 -0.5626  0.8922
 2462SOL    MW4 9582   3.582   3.319   4.811  0.0035  0.4579 -0.0705
 2463SOL     OW 9583   3.207   5.839   3.351  0.2136  0.1669 -0.0722
 2463SOL    HW2 9584   3.280   5.841   3.289 -1.0431 -0.3467 -1.6466
 2463SOL    HW3 9585   3.215   5.920   3.400  0.5112  1.2736 -1.8504
 2463SOL    MW4 9586   3.218   5.850   3.349 -1.1154  0.1899  0.3936
 2464SOL     OW 9587   2.677   1.557   6.255  0.5154 -0.2178  0.3953
 2464SOL    HW2 9588   2.627   1.565   6.173 -0.1836 -1.6289  0.6422
 2464SOL    HW3 9589   2.701   1.646   6.278  0.0661  0.2776 -0.9476
 2464SOL    MW4 9590   2.674   1.570   6.247  0.2782  0.2383 -0.1720
 2465SOL     OW 9591   5.058   0.143   2.624  0.1403  0.6852  0.1600
 2465SOL    HW2 9592   5.005   0.153   2.544 -1.7940  0.2503  1.3313
 2465SOL    HW3 9593   5.137   0.194   2.606 -0.5314  1.1433 -1.7807
 2465SOL    MW4 9594   5.062   0.151   2.611 -0.0249  0.4379  0.3677
 2466SOL     OW 9595   2.626   3.058   2.530  0.4161 -0.2759 -0.3320
 2466SOL    HW2 9596   2.610   2.965   2.538 -0.1784 -0.2993 -1.5553
 2466SOL    HW3 9597   2.553   3.091   2.479  1.2620  0.6375 -0.9973
 2466SOL    MW4 9598   2.614   3.050   2.524  0.2210  0.1930  0.0756
 2467SOL     OW 9599   1.261   4.936   3.447 -0.0820  0.0233 -0.2432
 2467SOL    HW2 9600   1.252   4.886   3.366 -0.0475 -0.5853  0.1171
 2467SOL    HW3 9601   1.199   5.008   3.439  0.0622  0.0791 -0.8920
 2467SOL    MW4 9602   1.252   4.939   3.435  0.0893  0.5134 -0.4087
 2468SOL     OW 9603   6.059   6.163   5.067 -0.4293 -0.2763 -0.4189
 2468SOL    HW2 9604   6.071   6.091   5.005  0.5630  1.2557 -2.0774
 2468SOL    HW3 9605   6.148   6.192   5.087 -0.8010  0.1863  0.6135
 2468SOL    MW4 9606   6.072   6.157   5.062  0.1274 -0.0852  0.3106
 2469SOL     OW 9607   2.105   1.098   1.123 -0.4214  0.5678  0.0006
 2469SOL    HW2 9608   2.173   1.086   1.189 -0.0060  0.1214 -0.4984
 2469SOL    HW3 9609   2.101   1.192   1.110 -2.4940  0.9661  2.6988
 2469SOL    MW4 9610   2.113   1.109   1.130 -0.2911  0.0391 -0.2284
 2470SOL     OW 9611   1.393   3.488   3.434  0.3797 -0.1645 -0.0678
 2470SOL    HW2 9612   1.309   3.534   3.429  0.8657  0.6653 -1.2123
 2470SOL    HW3 9613   1.397   3.437   3.353  1.0306 -0.1042 -0.0789
 2470SOL    MW4 9614   1.383   3.487   3.422  0.0488  0.3312  0.3189
 2471SOL     OW 9615   6.088   3.691   1.112 -0.0932  0.6839 -0.5460
 2471SOL    HW2 9616   6.155   3.663   1.049 -0.2543  1.0060 -0.8624
 2471SOL    HW3 9617   6.017   3.628   1.100  1.3469 -1.6232  1.9727
 2471SOL    MW4 9618   6.088   3.679   1.102 -0.3774  0.1772  0.0185
 2472SOL     OW 9619   1.414   3.020   2.235 -0.1987 -0.0221  0.7318
 2472SOL    HW2 9620   1.474   3.024   2.160 -2.1703  0.7524 -0.8777
 2472SOL    HW3 9621   1.451   3.082   2.298  0.4516  0.7706 -0.3911
 2472SOL    MW4 9622   1.427   3.028   2.234 -0.0098  0.4373  0.1889
 2473SOL     OW 9623   6.190   1.201   1.787  0.2071 -0.2885  0.1313
 2473SOL    HW2 9624   6.171   1.126   1.730 -1.3093 -0.6233  1.0138
 2473SOL    HW3 9625   6.223   1.161   1.868 -0.1212  0.0138  0.4180
 2473SOL    MW4 9626   6.192   1.186   1.790 -0.5677  0.4177 -0.1907
 2474SOL     OW 9627   2.485   1.060   4.358  0.3738 -0.2377 -0.1113
 2474SOL    HW2 9628   2.520   1.096   4.277  2.5426  0.4979  1.0792
 2474SOL    HW3 9629   2.551   0.998   4.388 -0.1616 -0.1649  1.3157
 2474SOL    MW4 9630   2.498   1.057   4.351 -0.3600 -0.0639 -0.3129
 2475SOL     OW 9631   6.355   4.757   1.018  0.4510 -0.2028 -0.3274
 2475SOL    HW2 9632   6.326   4.714   1.099 -1.7147  0.4503 -0.7071
 2475SOL    HW3 9633   6.447   4.731   1.009  0.3993 -1.2800  1.6857
 2475SOL    MW4 9634   6.364   4.748   1.028  0.2117 -0.2514  0.2971
 2476SOL     OW 9635   0.819   2.938   5.788  0.6075 -0.1054  0.1698
 2476SOL    HW2 9636   0.912   2.945   5.768  0.6809  0.4319  0.6676
 2476SOL    HW3 9637   0.801   2.844   5.789  0.8987 -0.1868 -1.0247
 2476SOL    MW4 9638   0.829   2.927   5.785 -0.0148  0.0256 -0.4825
 2477SOL     OW 9639   2.270   1.317   2.459 -0.3202 -0.1731 -0.0434
 2477SOL    HW2 9640   2.256   1.398   2.410  0.7821  1.3041  1.9558
 2477SOL    HW3 9641   2.292   1.252   2.392 -4.4931  0.1931 -2.1443
 2477SOL    MW4 9642   2.271   1.319   2.444 -0.0131  0.0631  0.5594
 2478SOL     OW 9643   5.327   0.902   3.708  0.0274  0.9510 -0.2819
 2478SOL    HW2 9644   5.313   0.861   3.794  1.1313  0.5368 -0.2805
 2478SOL    HW3 9645   5.403   0.959   3.721  1.3334 -0.4541 -1.3929
 2478SOL    MW4 9646   5.335   0.904   3.721  0.0355  0.8626 -0.7730
 2479SOL     OW 9647   2.346   3.913   0.358 -0.2578  0.2887  0.4393
 2479SOL    HW2 9648   2.435   3.887   0.382  0.5800 -0.9772 -3.3999
 2479SOL    HW3 9649   2.290   3.846   0.397  0.4605  0.7872  2.4320
 2479SOL    MW4 9650   2.350   3.901   0.366 -0.1719  0.1879  0.7670
 2480SOL     OW 9651   6.058   2.451   3.152 -0.0722  0.0226  0.1494
 2480SOL    HW2 9652   6.133   2.413   3.197  1.1192  0.3503 -1.4579
 2480SOL    HW3 9653   6.093   2.528   3.107 -1.2332 -0.1632 -1.1565
 2480SOL    MW4 9654   6.072   2.456   3.152  0.3260 -0.3076  0.1086
 2481SOL     OW 9655   4.029   1.027   4.306 -0.4600 -0.0069 -0.5554
 2481SOL    HW2 9656   3.982   1.086   4.248 -1.6247 -1.3098 -0.9854
 2481SOL    HW3 9657   3.983   0.944   4.299  1.1771 -1.0178 -0.0453
 2481SOL    MW4 9658   4.017   1.024   4.297  0.7959  0.2348  0.4546
 2482SOL     OW 9659   2.698   0.894   4.420 -0.2654  0.6925  0.4449
 2482SOL    HW2 9660   2.706   0.899   4.515  0.4003 -1.7270  0.5881
 2482SOL    HW3 9661   2.753   0.964   4.387  2.6755 -0.7751  1.8386
 2482SOL    MW4 9662   2.706   0.904   4.428  0.7135 -0.0332  0.5302
 2483SOL     OW 9663   3.894   3.309   1.743 -0.1277  0.1043 -0.4063
 2483SOL    HW2 9664   3.916   3.364   1.818 -1.1793  0.2259 -0.1659
 2483SOL    HW3 9665   3.974   3.305   1.691 -0.2478  2.6568 -0.9378
 2483SOL    MW4 9666   3.907   3.316   1.746 -0.1516 -1.1613  0.1162
 2484SOL     OW 9667   6.437   4.708   0.372 -0.5598 -0.7027  0.1718
 2484SOL    HW2 9668   6.381   4.633   0.391 -0.8555 -0.6166 -0.3515
 2484SOL    HW3 9669   6.377   4.783   0.367 -0.0298  0.0811  3.3265
 2484SOL    MW4 9670   6.422   4.708   0.374  0.0322 -0.6158  0.0592
 2485SOL     OW 9671   3.953   5.928   5.355  0.0967  0.7383 -0.7385
 2485SOL    HW2 9672   3.951   5.939   5.450 -2.6294  0.0206 -0.6193
 2485SOL    HW3 9673   3.932   6.015   5.320 -0.9893  0.5427 -0.5888
 2485SOL    MW4 9674   3.950   5.941   5.363 -0.2383 -0.2665  0.1964
 2486SOL     OW 9675   5.581   1.975   0.392  0.1235 -0.9633  0.2637
 2486SOL    HW2 9676   5.497   1.974   0.346  0.5487  1.4829 -0.7413
 2486SOL    HW3 9677   5.572   2.045   0.457  2.0393  0.9661 -1.3919
 2486SOL    MW4 9678   5.569   1.984   0.394  0.2073 -0.2884  0.0796
 2487SOL     OW 9679   2.939   0.761   1.412 -0.2910 -0.3221 -0.2697
 2487SOL    HW2 9680   3.031   0.736   1.419  0.0392  0.6023 -1.1073
 2487SOL    HW3 9681   2.932   0.801   1.325 -1.1319  1.0206  0.3909
 2487SOL    MW4 9682   2.950   0.763   1.401 -0.0356 -0.0625 -0.2825
 2488SOL     OW 9683   1.509   3.910   4.842  0.2554  0.4636 -0.2873
 2488SOL    HW2 9684   1.593   3.879   4.877  1.1613  3.2188  0.2374
 2488SOL    HW3 9685   1.446   3.890   4.911  0.4585 -1.5341 -0.6341
 2488SOL    MW4 9686   1.512   3.903   4.856 -0.4420 -0.0221  0.1036
 2489SOL     OW 9687   2.043   3.545   1.616 -0.1308 -0.8503 -0.1252
 2489SOL    HW2 9688   2.086   3.589   1.543  0.6002 -3.2408 -1.2445
 2489SOL    HW3 9689   2.065   3.598   1.692  0.9482  0.5134 -1.3322
 2489SOL    MW4 9690   2.052   3.557   1.616 -0.3687 -0.3128 -0.0009
 2490SOL     OW 9691   1.710   0.142   4.568  0.1119 -0.4047 -0.1369
 2490SOL    HW2 9692   1.800   0.120   4.546  0.4940  1.6023 -0.8005
 2490SOL    HW3 9693   1.682   0.073   4.629  2.1091 -1.0073  0.1607
 2490SOL    MW4 9694   1.718   0.130   4.574 -0.4722 -0.4906 -0.2218
 2491SOL     OW 9695   5.476   1.870   3.754 -0.4396 -0.9518 -0.1100
 2491SOL    HW2 9696   5.546   1.871   3.819  0.2047 -2.2479 -0.7491
 2491SOL    HW3 9697   5.403   1.914   3.797  1.4347  2.6722 -0.2831
 2491SOL    MW4 9698   5.475   1.876   3.768  0.3327 -0.2038  0.1395
 2492SOL     OW 9699   4.527   1.173   1.088  0.2126 -0.7015  0.0811
 2492SOL    HW2 9700   4.502   1.222   1.010 -0.9354  1.4038  1.6828
 2492SOL    HW3 9701   4.610   1.212   1.116 -0.3795 -0.0392  0.9947
 2492SOL    MW4 9702   4.535   1.185   1.082 -0.2110  0.6574 -0.3873
 2493SOL     OW 9703   0.427   0.058   4.866  0.2366 -0.0601  0.3894
 2493SOL    HW2 9704   0.461   0.115   4.798  0.7474 -0.5619  0.2168
 2493SOL    HW3 9705   0.379   0.116   4.925  0.8164  0.5599  0.2632
 2493SOL    MW4 9706   0.425   0.073   4.865  0.2653 -0.0739  0.1663
 2494SOL     OW 9707   5.683   2.104   3.726 -0.0758  0.0276 -0.1480
 2494SOL    HW2 9708   5.616   2.037   3.711  0.2992 -0.0518 -1.6939
 2494SOL    HW3 9709   5.690   2.149   3.642  2.1878 -0.3063 -0.1959
 2494SOL    MW4 9710   5.675   2.101   3.713  0.2214 -0.9493 -0.0814
 2495SOL     OW 9711   5.963   2.291   0.936 -0.4013 -0.5370 -0.5965
 2495SOL    HW2 9712   5.978   2.297   1.030  1.7977  0.9232 -0.9692
 2495SOL    HW3 9713   5.986   2.201   0.914 -1.1857 -0.9661  0.2788
 2495SOL    MW4 9714   5.968   2.280   0.946 -0.0124  0.0322  0.4444
 2496SOL     OW 9715   2.972   6.389   4.922  0.0974  0.3134  0.4273
 2496SOL    HW2 9716   2.968   6.379   4.827 -0.1563  1.8727  0.2519
 2496SOL    HW3 9717   3.054   6.434   4.939 -0.4126  1.1082  0.8360
 2496SOL    MW4 9718   2.982   6.393   4.912  0.4220  0.3609 -0.0473
 2497SOL     OW 9719   5.477   1.000   1.856  0.0412  0.0759  0.4454
 2497SOL    HW2 9720   5.552   0.943   1.837 -0.6997 -0.5382 -0.7896
 2497SOL    HW3 9721   5.511   1.089   1.844  0.1045 -0.2070 -2.2828
 2497SOL    MW4 9722   5.492   1.004   1.852 -0.3470 -0.3518  0.2102
 2498SOL     OW 9723   0.653   2.133   0.503  0.4277 -0.6541  0.1343
 2498SOL    HW2 9724   0.579   2.120   0.445 -0.4751 -0.6030  1.2404
 2498SOL    HW3 9725   0.692   2.046   0.513  0.1541 -0.7875  0.0223
 2498SOL    MW4 9726   0.648   2.120   0.497 -0.1866  0.0957  0.1272
 2499SOL     OW 9727   2.512   2.622   6.292  0.3846  0.1486  0.7618
 2499SOL    HW2 9728   2.598   2.627   6.250  0.2945 -0.6193  0.4657
 2499SOL    HW3 9729   2.522   2.554   6.358 -0.4397 -1.1768 -0.4102
 2499SOL    MW4 9730   2.524   2.614   6.295 -0.2606 -0.0174  0.2919
 2500SOL     OW 9731   5.458   0.504   1.809 -0.2567 -0.3299 -0.1099
 2500SOL    HW2 9732   5.433   0.579   1.755  0.9412  0.9552  1.0445
 2500SOL    HW3 9733   5.511   0.542   1.879 -0.4600 -2.1423  1.0791
 2500SOL    MW4 9734   5.461   0.519   1.811 -0.1995 -0.1138  0.1001
 2501SOL     OW 9735   4.274   5.775   1.936 -0.5341 -0.5963 -0.2952
 2501SOL    HW2 9736   4.287   5.849   1.877  0.6508  0.7896  1.5817
 2501SOL    HW3 9737   4.204   5.804   1.995 -0.3228 -1.1144  0.2152
 2501SOL    MW4 9738   4.267   5.789   1.936 -0.0632 -0.0954  0.0530
 2502SOL     OW 9739   1.908   3.570   6.366  0.1796 -0.1265  0.4839
 2502SOL    HW2 9740   1.870   3.646   6.410  0.2263  0.6880 -0.8214
 2502SOL    HW3 9741   1.999   3.568   6.395  0.6175  1.3008 -0.6636
 2502SOL    MW4 9742   1.915   3.579   6.376 -0.3127 -0.3803  0.3708
 2503SOL     OW 9743   2.205   0.463   5.763 -0.0291 -0.3191 -0.5027
 2503SOL    HW2 9744   2.208   0.550   5.721 -1.0458 -1.3799 -2.9536
 2503SOL    HW3 9745   2.191   0.482   5.856 -1.3159  2.1286 -1.1044
 2503SOL    MW4 9746   2.204   0.477   5.770 -0.1106 -0.0690  0.0584
 2504SOL     OW 9747   1.933   6.334   4.939 -0.4930 -0.5711  0.5089
 2504SOL    HW2 9748   2.024   6.354   4.916 -0.6807  0.7751  0.8360
 2504SOL    HW3 9749   1.929   6.239   4.941  1.4931 -0.7205  2.6389
 2504SOL    MW4 9750   1.945   6.324   4.937 -0.0068  0.3070 -0.2986
 2505SOL     OW 9751   4.873   2.381   1.019 -0.1299 -0.3283  0.2267
 2505SOL    HW2 9752   4.784   2.393   0.986 -1.0221 -2.4503  1.5929
 2505SOL    HW3 9753   4.890   2.287   1.008  1.9902  0.0350 -0.0492
 2505SOL    MW4 9754   4.863   2.370   1.013  0.1252  0.3265 -0.4961
 2506SOL     OW 9755   0.217   2.924   0.650 -0.1155 -0.5609  0.1077
 2506SOL    HW2 9756   0.289   2.861   0.650 -0.2988 -0.7910  1.2985
 2506SOL    HW3 9757   0.250   2.998   0.598  1.6145  0.0349  1.9275
 2506SOL    MW4 9758   0.231   2.925   0.643  0.4792  0.9131 -0.4598
 2507SOL     OW 9759   5.742   3.235   3.417 -0.2265  0.5036 -0.6210
 2507SOL    HW2 9760   5.735   3.253   3.323 -0.9773  1.4756 -0.4003
 2507SOL    HW3 9761   5.656   3.201   3.441  0.9535 -3.1301 -0.9019
 2507SOL    MW4 9762   5.729   3.233   3.408 -0.4081  0.6012 -0.1441
 2508SOL     OW 9763   4.884   0.511   3.263 -0.3208 -0.2984  0.0911
 2508SOL    HW2 9764   4.954   0.525   3.326 -0.1457 -2.4723  0.4584
 2508SOL    HW3 9765   4.917   0.548   3.181  0.2895  0.7219  0.7812
 2508SOL    MW4 9766   4.897   0.518   3.260 -0.1799 -0.6058  0.0208
 2509SOL     OW 9767   5.561   5.249   5.697  0.7907  0.4472 -0.4498
 2509SOL    HW2 9768   5.581   5.207   5.613  0.3004 -1.6672  0.4366
 2509SOL    HW3 9769   5.645   5.254   5.742  0.6346 -1.1142  0.0718
 2509SOL    MW4 9770   5.574   5.244   5.692 -0.0741  0.4171 -0.1361
 2510SOL     OW 9771   4.920   2.671   1.515 -0.2305 -0.7523  0.0847
 2510SOL    HW2 9772   4.899   2.690   1.424 -0.2354  2.3288  0.6395
 2510SOL    HW3 9773   4.968   2.588   1.512  0.7461 -0.1718 -2.8143
 2510SOL    MW4 9774   4.923   2.662   1.503  0.2524 -0.2197 -0.1622
 2511SOL     OW 9775   0.804   1.210   5.561 -0.5823  0.0708 -0.4272
 2511SOL    HW2 9776   0.761   1.137   5.516 -2.0159  0.1980  0.6500
 2511SOL    HW3 9777   0.731   1.266   5.588  0.3511  0.7784  0.6761
 2511SOL    MW4 9778   0.788   1.208   5.558  0.0494  0.3545  0.2115
 2512SOL     OW 9779   2.778   6.292   4.450  0.3069  0.1602 -0.7123
 2512SOL    HW2 9780   2.729   6.211   4.467  1.0530 -0.1804 -0.0825
 2512SOL    HW3 9781   2.815   6.279   4.362  0.0571  0.0080 -0.7961
 2512SOL    MW4 9782   2.776   6.279   4.441 -0.1157 -0.2657 -0.3832
 2513SOL     OW 9783   1.786   1.237   0.883  0.1190 -0.1454  0.0698
 2513SOL    HW2 9784   1.781   1.146   0.856  0.4805 -0.4891  1.1487
 2513SOL    HW3 9785   1.697   1.261   0.908 -0.0070 -0.1453 -0.3723
 2513SOL    MW4 9786   1.774   1.228   0.882 -0.4392  0.6503  0.3007
 2514SOL     OW 9787   1.110   0.846   6.040  0.0401  0.1556 -0.1577
 2514SOL    HW2 9788   1.107   0.752   6.021 -0.0849  0.0292  0.4783
 2514SOL    HW3 9789   1.178   0.880   5.983 -0.9152 -0.0702 -1.4868
 2514SOL    MW4 9790   1.118   0.838   6.030 -0.3390  0.0277  0.1246
 2515SOL     OW 9791   3.848   4.089   5.019  0.1545 -0.3950  0.2551
 2515SOL    HW2 9792   3.940   4.102   4.997 -0.4748  0.2178 -2.2706
 2515SOL    HW3 9793   3.835   4.143   5.097  1.2994  1.8253 -0.9906
 2515SOL    MW4 9794   3.859   4.098   5.027  0.2112 -0.6511 -0.0869
 2516SOL     OW 9795   6.238   4.031   0.081  0.0056 -0.0848  0.2756
 2516SOL    HW2 9796   6.316   4.040   0.026 -0.4817 -1.1353 -0.6154
 2516SOL    HW3 9797   6.165   4.054   0.024 -0.4977 -1.0567  0.4969
 2516SOL    MW4 9798   6.239   4.035   0.066  0.0758 -0.5853 -0.0054
 2517SOL     OW 9799   5.303   0.559   0.043 -0.2149  0.2101  0.2260
 2517SOL    HW2 9800   5.263   0.477   0.014  0.6720  0.0209 -0.5116
 2517SOL    HW3 9801   5.359   0.585  -0.030  0.2772  0.9558  0.8587
 2517SOL    MW4 9802   5.305   0.552   0.029 -0.7005 -0.4388  0.1287
 2518SOL     OW 9803   0.851   0.759   1.202  0.2022  0.2978 -0.2041
 2518SOL    HW2 9804   0.870   0.691   1.267  1.1285 -0.1581 -0.9344
 2518SOL    HW3 9805   0.824   0.835   1.255 -0.3615 -0.4656  0.6430
 2518SOL    MW4 9806   0.850   0.760   1.218 -0.0630  0.2425  0.7331
 2519SOL     OW 9807   1.226   0.137   2.525 -0.1769 -0.0269  0.5968
 2519SOL    HW2 9808   1.277   0.216   2.507 -0.3792  0.0110  0.1697
 2519SOL    HW3 9809   1.235   0.123   2.619 -0.2075  0.5498  0.6844
 2519SOL    MW4 9810   1.234   0.145   2.535 -0.0668 -0.4539 -0.5116
 2520SOL     OW 9811   6.153   4.494   2.523 -0.0151 -0.2330 -0.2496
 2520SOL    HW2 9812   6.062   4.520   2.534 -0.0185 -0.3098 -0.0826
 2520SOL    HW3 9813   6.192   4.507   2.610 -0.4170 -2.3433  0.2946
 2520SOL    MW4 9814   6.146   4.499   2.536  0.3881  0.0310 -0.0553
 2521SOL     OW 9815   3.851   3.473   2.050 -0.2566 -0.2277 -0.0181
 2521SOL    HW2 9816   3.842   3.543   2.114  0.7385 -0.4004  0.3312
 2521SOL    HW3 9817   3.917   3.415   2.088  0.8051 -0.0177 -1.4788
 2521SOL    MW4 9818   3.858   3.474   2.063  0.4501  0.3938  0.3052
 2522SOL     OW 9819   4.827   4.709   0.540  0.1417  0.0868  0.0074
 2522SOL    HW2 9820   4.800   4.791   0.582 -0.8468 -0.4831  0.5279
 2522SOL    HW3 9821   4.748   4.678   0.496  0.7838 -0.0797 -1.0483
 2522SOL    MW4 9822   4.813   4.716   0.540 -0.4684 -0.0670  0.0030
 2523SOL     OW 9823   4.700   0.619   1.216  0.0811  0.5334  0.2271
 2523SOL    HW2 9824   4.712   0.708   1.251  0.3991  0.5263  0.1351
 2523SOL    HW3 9825   4.780   0.602   1.167 -0.3718  0.5501 -0.5276
 2523SOL    MW4 9826   4.712   0.629   1.214  0.4661  0.4909 -0.2691
 2524SOL     OW 9827   3.586   5.644   0.871 -0.3894 -0.0601 -0.1688
 2524SOL    HW2 9828   3.627   5.724   0.903 -0.3468 -0.2129  0.1586
 2524SOL    HW3 9829   3.492   5.662   0.874 -0.3602  0.2098 -0.7083
 2524SOL    MW4 9830   3.579   5.657   0.875  0.0508 -0.0909 -0.2299
 2525SOL     OW 9831   2.981   4.326   4.163 -0.0461 -0.7121 -0.0732
 2525SOL    HW2 9832   3.041   4.296   4.095 -1.3382 -0.3263 -1.4222
 2525SOL    HW3 9833   2.942   4.246   4.198 -0.1900 -0.8473 -0.5466
 2525SOL    MW4 9834   2.984   4.312   4.159 -0.4761  0.4258  0.2394
 2526SOL     OW 9835   1.627   5.753   3.398 -0.1031  0.0849  0.0200
 2526SOL    HW2 9836   1.586   5.735   3.482 -0.6978  1.0683 -0.0412
 2526SOL    HW3 9837   1.581   5.697   3.336  0.0302 -0.3052  0.2693
 2526SOL    MW4 9838   1.616   5.744   3.401 -0.8806 -0.4205  0.5800
 2527SOL     OW 9839   2.465   0.289   1.438 -0.4177  0.3769 -0.3884
 2527SOL    HW2 9840   2.495   0.211   1.390 -0.7618  0.2931 -0.4686
 2527SOL    HW3 9841   2.469   0.264   1.530  1.2099  0.8690 -0.2945
 2527SOL    MW4 9842   2.470   0.275   1.444  0.3090  0.0634 -0.3944
 2528SOL     OW 9843   2.813   3.389   4.214  0.0605  0.1469 -0.2991
 2528SOL    HW2 9844   2.777   3.303   4.235  1.1483  0.5384  4.2225
 2528SOL    HW3 9845   2.738   3.448   4.217 -0.1134 -0.1062  1.1628
 2528SOL    MW4 9846   2.798   3.385   4.218  0.3788 -0.1822 -0.6948
 2529SOL     OW 9847   2.905   4.479   4.457  0.6224 -0.2502 -0.4769
 2529SOL    HW2 9848   2.901   4.383   4.457 -0.4306 -0.2211 -1.6195
 2529SOL    HW3 9849   2.862   4.505   4.376 -0.4129  1.2454  0.5056
 2529SOL    MW4 9850   2.899   4.470   4.446 -0.5082 -0.5789 -0.3998
 2530SOL     OW 9851   2.658   4.420   0.533 -0.2696 -0.1806 -0.1042
 2530SOL    HW2 9852   2.657   4.350   0.598 -0.4722  0.5391  0.6904
 2530SOL    HW3 9853   2.665   4.500   0.585  3.3419  0.2817 -1.0704
 2530SOL    MW4 9854   2.659   4.421   0.549 -0.4261  0.0713  0.2764
 2531SOL     OW 9855   0.097   1.736   6.120  0.1179  0.5302  0.0545
 2531SOL    HW2 9856   0.096   1.665   6.055 -1.5410  1.2577 -0.7737
 2531SOL    HW3 9857   0.178   1.784   6.100  1.3527 -1.1515  0.7270
 2531SOL    MW4 9858   0.108   1.733   6.109 -0.2533 -0.2069 -0.5232
 2532SOL     OW 9859   1.571   2.473   1.580 -0.1636 -0.2735  0.1850
 2532SOL    HW2 9860   1.650   2.429   1.550 -0.3122 -0.2021 -0.3171
 2532SOL    HW3 9861   1.499   2.415   1.554 -0.3417  0.1367 -0.2567
 2532SOL    MW4 9862   1.572   2.460   1.573  0.1472  0.0467 -0.1638
 2533SOL     OW 9863   5.207   6.197   1.851  0.2032  0.1468  0.0136
 2533SOL    HW2 9864   5.200   6.291   1.864 -0.1439  0.1864 -0.4565
 2533SOL    HW3 9865   5.295   6.175   1.882 -0.1088  0.4454  1.1548
 2533SOL    MW4 9866   5.218   6.207   1.857 -0.2048 -0.0954  0.1309
 2534SOL     OW 9867   2.643   2.976   3.231 -0.0416 -0.2666  0.4539
 2534SOL    HW2 9868   2.721   2.958   3.178 -1.8739 -2.0510 -1.8406
 2534SOL    HW3 9869   2.647   3.070   3.248  2.3644 -0.2244  0.0788
 2534SOL    MW4 9870   2.654   2.986   3.227  0.1701 -0.4851  0.5900
 2535SOL     OW 9871   3.412   1.666   3.249 -0.2679 -0.5711  0.4153
 2535SOL    HW2 9872   3.435   1.630   3.335  1.1103 -2.4518 -0.6614
 2535SOL    HW3 9873   3.326   1.630   3.230  1.0594 -3.5687 -0.6270
 2535SOL    MW4 9874   3.404   1.656   3.258  0.3336 -1.0395  0.4159
 2536SOL     OW 9875   1.904   4.472   0.798  0.0652  0.3453 -0.1437
 2536SOL    HW2 9876   1.827   4.418   0.782 -0.1426  0.5706  0.1025
 2536SOL    HW3 9877   1.874   4.542   0.855  0.2624  0.9005 -0.7063
 2536SOL    MW4 9878   1.890   4.474   0.803  0.1779 -0.3288  0.6060
 2537SOL     OW 9879   5.226   0.248   2.261  0.5558  0.3472 -0.3539
 2537SOL    HW2 9880   5.237   0.246   2.356 -2.0918 -1.2063  0.0394
 2537SOL    HW3 9881   5.163   0.319   2.246 -0.0733 -0.2743 -0.7472
 2537SOL    MW4 9882   5.219   0.258   2.272 -0.0665 -0.5702  0.1746
 2538SOL     OW 9883   3.069   1.873   2.585  0.7864  0.0581  0.3481
 2538SOL    HW2 9884   3.156   1.833   2.585  0.5004 -0.5864  0.7706
 2538SOL    HW3 9885   3.026   1.836   2.662  0.3671  0.8842  0.5165
 2538SOL    MW4 9886   3.075   1.863   2.595  0.4332 -0.0852 -0.4198
 2539SOL     OW 9887   6.005   2.071   2.891  0.6172  0.2672 -0.2212
 2539SOL    HW2 9888   5.989   2.165   2.885 -0.6203  0.2285  1.5682
 2539SOL    HW3 9889   6.060   2.060   2.969 -0.8842 -0.5900  0.7757
 2539SOL    MW4 9890   6.010   2.082   2.901 -0.0042  0.4223  0.3727
 2540SOL     OW 9891   5.782   5.023   3.506 -0.1529 -0.1999  0.5692
 2540SOL    HW2 9892   5.837   5.031   3.429  1.5798 -0.0640  1.7541
 2540SOL    HW3 9893   5.746   5.111   3.520  0.3442  0.0185  0.4873
 2540SOL    MW4 9894   5.785   5.036   3.498 -0.0838 -0.0382  0.2936
 2541SOL     OW 9895   2.731   1.212   0.893  0.3587  0.1584 -0.4928
 2541SOL    HW2 9896   2.652   1.235   0.941  0.2546  1.6909 -1.3378
 2541SOL    HW3 9897   2.799   1.204   0.961 -0.3654 -0.5700  0.1690
 2541SOL    MW4 9898   2.730   1.214   0.909  0.2964  0.0871 -0.1110
 2542SOL     OW 9899   2.425   1.428   4.544  0.5056  0.2371  0.1490
 2542SOL    HW2 9900   2.493   1.369   4.576  1.2618  0.5506 -0.8306
 2542SOL    HW3 9901   2.344   1.377   4.553  0.8545 -0.1662  1.2649
 2542SOL    MW4 9902   2.423   1.413   4.550  0.5648  0.2950 -0.3414
 2543SOL     OW 9903   1.054   2.319   5.596 -0.1435  0.1754 -0.1452
 2543SOL    HW2 9904   1.078   2.380   5.666 -1.1219 -0.2260  0.5670
 2543SOL    HW3 9905   1.037   2.236   5.641  1.3785 -0.7214 -1.1163
 2543SOL    MW4 9906   1.055   2.316   5.611 -0.1795 -0.7983 -0.1293
 2544SOL     OW 9907   4.337   1.021   0.548  0.2826 -0.3932  0.1405
 2544SOL    HW2 9908   4.375   0.979   0.625  0.0694  0.1931  0.5672
 2544SOL    HW3 9909   4.260   1.066   0.580  0.6777  0.5899 -0.2456
 2544SOL    MW4 9910   4.332   1.021   0.562  0.3492 -0.5604 -0.3204
 2545SOL     OW 9911   4.291   5.389   4.211 -0.2769 -0.5004 -0.3834
 2545SOL    HW2 9912   4.217   5.386   4.272  1.1663 -0.0331  1.4710
 2545SOL    HW3 9913   4.278   5.313   4.154 -2.3759 -0.2008 -0.3976
 2545SOL    MW4 9914   4.279   5.378   4.211  0.4200 -0.4978  0.3615
 2546SOL     OW 9915   5.573   3.934   1.140 -0.1835  0.0466 -0.2188
 2546SOL    HW2 9916   5.667   3.949   1.128 -0.0539  0.3745  1.0210
 2546SOL    HW3 9917   5.534   3.956   1.055  0.9146 -0.6693 -0.9327
 2546SOL    MW4 9918   5.580   3.939   1.127  0.9188 -0.4829 -0.4321
 2547SOL     OW 9919   1.899   0.290   3.862 -0.7385  0.3649  0.1373
 2547SOL    HW2 9920   1.976   0.344   3.845 -1.9495  2.4024  0.9061
 2547SOL    HW3 9921   1.829   0.329   3.810 -1.6639 -0.4135  0.7587
 2547SOL    MW4 9922   1.900   0.302   3.853 -0.4663  0.0483  0.0797
 2548SOL     OW 9923   2.345   2.529   0.464  0.3272  0.2225 -0.3945
 2548SOL    HW2 9924   2.438   2.530   0.487  0.2404  0.4872 -0.0431
 2548SOL    HW3 9925   2.330   2.441   0.430  0.2303 -0.5680  1.5503
 2548SOL    MW4 9926   2.356   2.518   0.462 -0.3318 -0.5106  0.1909
 2549SOL     OW 9927   1.019   4.530   4.736  0.4043  0.3431 -0.1342
 2549SOL    HW2 9928   0.973   4.603   4.778  0.3323 -0.0813  0.5304
 2549SOL    HW3 9929   0.976   4.451   4.771  1.7108 -0.0691  0.5951
 2549SOL    MW4 9930   1.007   4.529   4.746 -0.3865 -0.4648  0.0211
 2550SOL     OW 9931   0.772   1.014   1.019  0.4269 -0.0069 -0.2506
 2550SOL    HW2 9932   0.776   1.003   1.113  1.7018  0.4633 -0.2264
 2550SOL    HW3 9933   0.845   1.073   0.998  0.1435 -0.0614 -1.5177
 2550SOL    MW4 9934   0.782   1.020   1.028 -0.2414 -0.2136 -0.1734
 2551SOL     OW 9935   4.096   2.617   2.367 -0.2005 -0.3255  0.4215
 2551SOL    HW2 9936   4.086   2.676   2.292  0.1097  0.2399  0.8196
 2551SOL    HW3 9937   4.100   2.529   2.328 -0.2787 -0.0537 -0.2044
 2551SOL    MW4 9938   4.096   2.613   2.352 -0.2944 -0.2786  0.0120
 2552SOL     OW 9939   5.211   4.510   4.797  0.3276  0.2247 -0.1088
 2552SOL    HW2 9940   5.240   4.420   4.781  0.3667  0.4341 -1.2555
 2552SOL    HW3 9941   5.137   4.522   4.738 -0.7267  0.4238  1.1998
 2552SOL    MW4 9942   5.205   4.500   4.787  0.4697  0.0069  0.0944
 2553SOL     OW 9943   1.956   0.686   0.457 -0.1617  0.2702  0.2135
 2553SOL    HW2 9944   1.989   0.766   0.417 -0.5481 -0.2205 -1.1483
 2553SOL    HW3 9945   2.026   0.657   0.515  1.1102  0.1507 -1.3238
 2553SOL    MW4 9946   1.969   0.693   0.459  0.1731  0.4591  0.0805
 2554SOL     OW 9947   2.332   0.772   4.369  0.0719  0.6138 -0.5702
 2554SOL    HW2 9948   2.359   0.863   4.355 -1.3312  1.2929  0.8415
 2554SOL    HW3 9949   2.245   0.778   4.407 -0.3140 -1.3663 -1.0242
 2554SOL    MW4 9950   2.324   0.785   4.372 -0.3427  0.5973  0.6470
 2555SOL     OW 9951   5.405   1.566   0.613 -0.1543  0.2041  0.2542
 2555SOL    HW2 9952   5.391   1.624   0.688  1.7912  0.1108  0.7528
 2555SOL    HW3 9953   5.470   1.611   0.559 -0.1123 -0.5905 -0.3767
 2555SOL    MW4 9954   5.412   1.579   0.616  0.0250 -0.0807 -0.7920
 2556SOL     OW 9955   0.689   4.320   4.273 -0.5860 -0.1659  0.1376
 2556SOL    HW2 9956   0.689   4.349   4.364 -1.3818  1.5450 -0.3607
 2556SOL    HW3 9957   0.782   4.317   4.248 -0.2812 -1.8477  1.3160
 2556SOL    MW4 9958   0.701   4.324   4.281  0.5236 -0.2606 -0.2252
 2557SOL     OW 9959   3.518   3.281  -0.006  0.0106  0.1464  0.5905
 2557SOL    HW2 9960   3.450   3.326  -0.057 -1.0977  0.3580  2.1622
 2557SOL    HW3 9961   3.598   3.291  -0.057 -1.4562 -1.8459 -2.3654
 2557SOL    MW4 9962   3.519   3.288  -0.019  0.4867  0.0090  0.1938
 2558SOL     OW 9963   3.578   2.086   6.268 -0.3910  0.0502 -0.0527
 2558SOL    HW2 9964   3.562   2.137   6.189 -0.4002  0.6704  0.3461
 2558SOL    HW3 9965   3.576   1.995   6.239 -1.7688  0.2127 -0.5386
 2558SOL    MW4 9966   3.575   2.081   6.254  0.6328  0.7726  0.1508
 2559SOL     OW 9967   5.137   2.511   0.605 -0.3105 -0.4213 -0.2077
 2559SOL    HW2 9968   5.152   2.605   0.614  1.5655 -0.7985  1.5359
 2559SOL    HW3 9969   5.064   2.493   0.664  0.9714 -0.3641  1.4746
 2559SOL    MW4 9970   5.130   2.521   0.614 -0.9759  0.2177 -0.4996
 2560SOL     OW 9971   3.752   0.234   1.440 -0.1787 -0.1658 -0.5153
 2560SOL    HW2 9972   3.706   0.242   1.357 -2.6239  0.6123  0.8055
 2560SOL    HW3 9973   3.709   0.298   1.497  1.3988 -0.6880  1.3676
 2560SOL    MW4 9974   3.740   0.243   1.437 -0.3109 -0.6857  0.1528
 2561SOL     OW 9975   0.868   1.569   6.024 -0.1741 -0.0559 -0.5133
 2561SOL    HW2 9976   0.805   1.512   5.981  0.0688 -0.4685 -0.3295
 2561SOL    HW3 9977   0.912   1.615   5.953  1.3581 -1.9120 -0.8423
 2561SOL    MW4 9978   0.866   1.567   6.009  0.4997 -0.3614  0.5511
 2562SOL     OW 9979   3.247   3.214   0.489  0.3634  0.5839  0.0727
 2562SOL    HW2 9980   3.236   3.170   0.405  0.1939  2.1868 -0.7897
 2562SOL    HW3 9981   3.160   3.209   0.529  0.7319 -1.2599  0.7597
 2562SOL    MW4 9982   3.234   3.208   0.483  0.2749 -0.4911  0.4279
 2563SOL     OW 9983   6.291   0.743   2.029  0.0014 -0.5959  0.4980
 2563SOL    HW2 9984   6.342   0.716   1.953 -0.4916 -0.0250 -0.0520
 2563SOL    HW3 9985   6.337   0.705   2.103  0.8591 -0.6329 -0.0331
 2563SOL    MW4 9986   6.304   0.735   2.028 -0.7068 -0.0085  0.3037
 2564SOL     OW 9987   5.465   0.627   3.318  0.0474 -0.2326 -0.1478
 2564SOL    HW2 9988   5.403   0.684   3.363  0.8201  0.3690  0.1772
 2564SOL    HW3 9989   5.411   0.558   3.280 -1.0909  1.3966 -1.6730
 2564SOL    MW4 9990   5.450   0.625   3.319  0.3943  0.0446  0.1302
 2565SOL     OW 9991   2.051   2.843   1.850  0.0893  0.3535  0.3085
 2565SOL    HW2 9992   2.103   2.829   1.929 -0.6054  0.5250  0.8034
 2565SOL    HW3 9993   2.004   2.760   1.839  1.1123 -0.1244 -0.6382
 2565SOL    MW4 9994   2.052   2.830   1.859  0.2390  0.2323  0.2451
 2566SOL     OW 9995   1.626   1.019   1.140 -0.4991 -0.4596 -0.0816
 2566SOL    HW2 9996   1.589   0.950   1.084  0.4023  0.4259 -1.8664
 2566SOL    HW3 9997   1.717   0.994   1.151 -0.7580 -0.8221  1.3692
 2566SOL    MW4 9998   1.633   1.007   1.134  0.2306  0.0483  0.0974
 2567SOL     OW 9999   5.519   1.716   0.088 -0.0094 -0.0071  0.1493
 2567SOL    HW210000   5.493   1.654   0.019  0.5193  0.0420 -0.0996
 2567SOL    HW310001   5.493   1.802   0.054  0.5288  0.0492 -0.1299
 2567SOL    MW410002   5.512   1.719   0.074  0.1739  0.4064 -0.1551
 2568SOL     OW10003   5.624   0.632   1.348  0.0309 -0.5726  0.1880
 2568SOL    HW210004   5.658   0.690   1.280  0.3394 -1.3662 -0.3540
 2568SOL    HW310005   5.534   0.614   1.321 -0.8724  1.4793  1.5904
 2568SOL    MW410006   5.616   0.637   1.336 -0.7669 -0.3837  0.1446
 2569SOL     OW10007   0.695   6.043   5.226 -0.0483 -0.0594 -0.3375
 2569SOL    HW210008   0.722   6.132   5.249  0.3584  0.1887 -1.7021
 2569SOL    HW310009   0.713   5.991   5.304 -0.1000  1.0139  0.4008
 2569SOL    MW410010   0.701   6.048   5.239  0.3763 -0.1831 -0.0973
 2570SOL     OW10011   0.062   4.740   4.290  0.1511  0.2905  0.4780
 2570SOL    HW210012   0.062   4.766   4.198  0.4004  1.4326  0.7766
 2570SOL    HW310013   0.130   4.795   4.330 -0.7172  0.6245  1.5392
 2570SOL    MW410014   0.071   4.751   4.283 -0.3346  0.2524  0.3916
 2571SOL     OW10015   3.775   3.205   0.417  0.3290  0.3485 -0.3585
 2571SOL    HW210016   3.739   3.161   0.340 -0.0493 -0.7363  0.4126
 2571SOL    HW310017   3.700   3.251   0.455  0.0917 -0.5859  0.3432
 2571SOL    MW410018   3.761   3.205   0.412  0.7224 -0.5623 -0.4147
 2572SOL     OW10019   6.095   0.518   0.672 -0.2451 -0.0042  0.2409
 2572SOL    HW210020   6.150   0.593   0.648 -1.5647  0.9406  0.0539
 2572SOL    HW310021   6.050   0.546   0.751  0.7473 -1.4097  1.3513
 2572SOL    MW410022   6.096   0.532   0.679  0.5311  0.0022  0.0960
 2573SOL     OW10023   5.840   4.347   1.536 -0.8420 -0.0669  0.0350
 2573SOL    HW210024   5.873   4.284   1.600  0.8803 -1.0759 -1.7445
 2573SOL    HW310025   5.748   4.324   1.525 -0.3982 -1.9351 -0.1170
 2573SOL    MW410026   5.832   4.336   1.543  0.5651 -0.5958 -0.0893
 2574SOL     OW10027   1.583   5.678   6.025 -0.2200 -0.6413 -0.2756
 2574SOL    HW210028   1.498   5.671   6.068 -0.4837 -0.3953 -0.7495
 2574SOL    HW310029   1.582   5.611   5.957  0.8295 -2.1424  1.1213
 2574SOL    MW410030   1.572   5.669   6.022 -0.1254  0.1501 -0.6583
 2575SOL     OW10031   3.302   2.596   1.095 -0.7170 -0.1032  0.0615
 2575SOL    HW210032   3.333   2.679   1.060 -0.2009  0.3683  1.5562
 2575SOL    HW310033   3.378   2.538   1.090  0.3055  0.8189  2.9817
 2575SOL    MW410034   3.316   2.599   1.090 -0.1466 -0.4228 -0.2742
 2576SOL     OW10035   0.623   2.815   2.297 -0.6106 -0.3343 -0.0467
 2576SOL    HW210036   0.668   2.742   2.256  0.3886  0.2383 -0.0139
 2576SOL    HW310037   0.553   2.838   2.235  1.0894  0.7538 -1.6747
 2576SOL    MW410038   0.620   2.809   2.283 -0.1350 -0.3769 -0.1644
 2577SOL     OW10039   5.235   1.289   0.487  0.3782  0.2250  0.0030
 2577SOL    HW210040   5.270   1.227   0.550 -1.1121 -0.3526  0.2980
 2577SOL    HW310041   5.156   1.247   0.452 -0.6982  1.9420  0.2487
 2577SOL    MW410042   5.229   1.276   0.491  0.0469 -0.3898  0.3401
 2578SOL     OW10043   0.852   4.391   4.001  0.6800 -0.2638  0.0959
 2578SOL    HW210044   0.888   4.302   4.009 -1.3143 -1.1201  0.2993
 2578SOL    HW310045   0.875   4.433   4.083  0.7926 -0.9466  0.4252
 2578SOL    MW410046   0.860   4.384   4.013 -0.3276  0.0799 -0.2979
 2579SOL     OW10047   1.878   2.064   0.257  0.1907  0.0767 -0.2118
 2579SOL    HW210048   1.956   2.119   0.264 -0.3273  1.0072 -1.3783
 2579SOL    HW310049   1.911   1.978   0.234  0.8478  0.6494 -1.4786
 2579SOL    MW410050   1.893   2.060   0.255  0.2225 -0.0769 -0.6413
 2580SOL     OW10051   0.325   5.908   5.382 -0.5647 -0.0268 -0.3885
 2580SOL    HW210052   0.253   5.852   5.411 -0.2917  0.2688  0.9555
 2580SOL    HW310053   0.404   5.861   5.409 -0.3178  0.6001  0.0105
 2580SOL    MW410054   0.326   5.895   5.390  0.6195  0.2318 -0.0919
 2581SOL     OW10055   6.108   3.238   3.192  0.4059 -0.1065 -0.0878
 2581SOL    HW210056   6.190   3.286   3.184  0.1535  0.2580 -0.5511
 2581SOL    HW310057   6.066   3.275   3.270  0.9815 -0.7633  0.5434
 2581SOL    MW410058   6.113   3.250   3.201 -0.2984 -0.0323 -0.0620
 2582SOL     OW10059   5.057   3.896   4.974  0.8208  0.0014 -0.2964
 2582SOL    HW210060   5.025   3.878   4.886 -0.9180 -0.7343  0.4218
 2582SOL    HW310061   5.029   3.985   4.992 -0.3231 -0.4153  0.0868
 2582SOL    MW410062   5.049   3.905   4.965  0.3663 -0.4262 -0.4815
 2583SOL     OW10063   0.733   5.261   2.377 -0.5299 -0.4262 -0.0384
 2583SOL    HW210064   0.663   5.263   2.312 -0.0864 -0.1340 -0.5171
 2583SOL    HW310065   0.688   5.248   2.461 -1.2936  1.2885 -0.1411
 2583SOL    MW410066   0.718   5.260   2.380  0.2826 -0.5739  0.2626
 2584SOL     OW10067   4.421   6.353   0.268 -0.2583  0.4501  0.1920
 2584SOL    HW210068   4.487   6.284   0.273 -0.2486  0.3485 -0.9838
 2584SOL    HW310069   4.411   6.369   0.174 -1.8177  0.5502  0.3461
 2584SOL    MW410070   4.429   6.346   0.256 -0.2131  0.9007  0.1579
 2585SOL     OW10071   1.942   0.364   5.367 -0.0515  0.5591  0.3777
 2585SOL    HW210072   2.038   0.365   5.367 -0.0311  0.0509 -0.5162
 2585SOL    HW310073   1.918   0.449   5.329  0.1288 -0.4315 -2.1466
 2585SOL    MW410074   1.952   0.376   5.362 -0.1427 -0.6858  0.2909
 2586SOL     OW10075   5.315   4.641   1.099 -0.6405  0.3033  0.1496
 2586SOL    HW210076   5.311   4.719   1.043  1.4583 -0.0702 -0.5953
 2586SOL    HW310077   5.251   4.659   1.168 -0.0789  2.8178  0.1353
 2586SOL    MW410078   5.306   4.654   1.101  0.9054  1.3567 -0.1114
 2587SOL     OW10079   2.737   2.139   5.966  0.4998  0.1081 -0.4571
 2587SOL    HW210080   2.763   2.205   6.029 -0.6575 -1.0086  1.2762
 2587SOL    HW310081   2.642   2.147   5.959  0.6365  0.5814 -2.5487
 2587SOL    MW410082   2.728   2.149   5.973 -0.2817  0.0034 -0.5099
 2588SOL     OW10083   3.460   1.083   2.965 -0.2771  0.4614  0.5190
 2588SOL    HW210084   3.399   1.058   2.897  0.5169  0.8884 -0.3670
 2588SOL    HW310085   3.412   1.146   3.019 -1.1684 -0.4557  0.8449
 2588SOL    MW410086   3.446   1.088   2.963  0.0049  0.6050  0.3169
 2589SOL     OW10087   5.206   5.368   4.286 -0.7825 -0.8690 -0.3524
 2589SOL    HW210088   5.288   5.371   4.335 -1.6252  1.0181  1.0708
 2589SOL    HW310089   5.171   5.280   4.302 -0.1124 -0.9320  0.8584
 2589SOL    MW410090   5.212   5.357   4.294  0.1021 -0.0982  0.3476
 2590SOL     OW10091   5.321   5.120   4.561 -0.0188 -0.0322  0.1797
 2590SOL    HW210092   5.287   5.031   4.553 -1.2071  0.4891 -0.9689
 2590SOL    HW310093   5.402   5.110   4.611  1.9110 -2.2329 -2.9852
 2590SOL    MW410094   5.327   5.107   4.567  0.3295  0.5786 -0.0315
 2591SOL     OW10095   2.996   2.625   6.391 -0.2739  0.4537  0.1701
 2591SOL    HW210096   3.071   2.581   6.433  0.4525  1.3289 -0.1737
 2591SOL    HW310097   2.937   2.646   6.464  1.3995  2.8017  0.9583
 2591SOL    MW410098   2.998   2.622   6.406  0.5580 -0.5159  0.2268
 2592SOL     OW10099   2.604   3.505   5.568  0.0550  0.3026  0.0912
 2592SOL    HW210100   2.636   3.416   5.554 -0.0045  0.3409 -0.2983
 2592SOL    HW310101   2.515   3.504   5.532  0.2150  0.6365 -0.3165
 2592SOL    MW410102   2.596   3.493   5.562  0.1469  0.7677 -0.1396
 2593SOL     OW10103   3.301   5.918   4.463  0.0015 -0.2058  0.4076
 2593SOL    HW210104   3.290   5.836   4.415 -0.5175  0.5524 -0.8113
 2593SOL    HW310105   3.223   5.924   4.519  1.2136 -1.7195  2.4056
 2593SOL    MW410106   3.289   5.908   4.464 -0.2026 -0.3430  0.4179
 2594SOL     OW10107   3.698   6.307   0.840  0.2412 -0.2517  0.0570
 2594SOL    HW210108   3.668   6.289   0.929 -0.6171  0.5312 -0.0629
 2594SOL    HW310109   3.628   6.275   0.784  0.6592 -0.4957 -0.3393
 2594SOL    MW410110   3.685   6.301   0.844  0.6474  0.0363  0.5130
 2595SOL     OW10111   2.234   5.066   4.806  0.4371  0.4624  0.1091
 2595SOL    HW210112   2.279   4.981   4.801  1.2817  0.9656 -3.1128
 2595SOL    HW310113   2.149   5.046   4.844  1.1719 -1.5770  0.8007
 2595SOL    MW410114   2.229   5.052   4.810 -0.0893 -0.2926 -0.6437
 2596SOL     OW10115   2.653   3.367   4.620  0.1933  0.3069  0.0362
 2596SOL    HW210116   2.730   3.369   4.563  1.5924  1.1218  1.8253
 2596SOL    HW310117   2.689   3.362   4.709 -1.8780 -0.9278  0.8832
 2596SOL    MW410118   2.668   3.367   4.624 -0.6174  0.1233 -0.1112
 2597SOL     OW10119   0.065   4.535   1.145 -0.0301 -0.0131 -0.1509
 2597SOL    HW210120  -0.019   4.567   1.178 -0.0904 -0.2615 -0.0622
 2597SOL    HW310121   0.121   4.613   1.142 -0.4130  0.2457 -0.6959
 2597SOL    MW410122   0.062   4.549   1.149  0.4953  0.0395  0.0142
 2598SOL     OW10123   5.913   2.182   5.416 -0.3985 -0.2300 -0.4153
 2598SOL    HW210124   5.860   2.146   5.345 -0.6317 -1.8377  0.5268
 2598SOL    HW310125   5.994   2.211   5.374 -0.3660 -1.5037 -1.2913
 2598SOL    MW410126   5.916   2.181   5.401  0.2634 -0.5875  0.0087
 2599SOL     OW10127   6.009   5.481   5.118  0.9362 -0.4846 -0.1472
 2599SOL    HW210128   5.920   5.480   5.152  0.8243 -0.5531 -0.4359
 2599SOL    HW310129   6.065   5.483   5.195  0.6974 -1.2545  0.0574
 2599SOL    MW410130   6.004   5.481   5.132 -0.4176  0.3290  0.1329
 2600SOL     OW10131   4.116   4.203   0.718 -0.0154 -0.2335 -0.3481
 2600SOL    HW210132   4.053   4.203   0.790 -1.1011  1.2068 -1.2438
 2600SOL    HW310133   4.199   4.175   0.758 -0.1182  2.3610  1.9136
 2600SOL    MW410134   4.119   4.199   0.733 -0.2801 -0.0341  0.1090
 2601SOL     OW10135   5.270   4.301   2.842 -0.1009  0.8428  0.2653
 2601SOL    HW210136   5.232   4.369   2.897 -0.5651  1.5348 -0.8712
 2601SOL    HW310137   5.214   4.225   2.855 -0.1041  0.9486  0.8716
 2601SOL    MW410138   5.258   4.300   2.851  0.5764 -0.1834  0.5237
 2602SOL     OW10139   6.100   6.096   3.440 -0.4984 -0.0689 -0.0824
 2602SOL    HW210140   6.079   6.061   3.354 -2.2315 -0.4618  0.4609
 2602SOL    HW310141   6.160   6.032   3.479 -0.4206 -0.3402 -0.6519
 2602SOL    MW410142   6.105   6.083   3.434 -0.1850 -0.9085 -0.3299
 2603SOL     OW10143   0.493   2.171   5.241 -0.3086  0.0863  0.0657
 2603SOL    HW210144   0.421   2.211   5.288 -1.1269 -1.6747  0.3783
 2603SOL    HW310145   0.571   2.219   5.271 -1.0425  0.3470  1.6291
 2603SOL    MW410146   0.494   2.183   5.251  0.5266 -0.1299  0.2318
 2604SOL     OW10147   5.738   6.156   3.402 -0.1355 -0.2023 -0.0421
 2604SOL    HW210148   5.742   6.232   3.344  1.1468 -1.3387 -1.5391
 2604SOL    HW310149   5.767   6.188   3.487 -0.6715  1.2037 -0.3695
 2604SOL    MW410150   5.742   6.170   3.405 -0.2998  0.1064  0.2152
 2605SOL     OW10151   0.800   2.403   3.100  0.7034  0.2040  0.3461
 2605SOL    HW210152   0.880   2.384   3.149 -0.1657  0.2774  1.8272
 2605SOL    HW310153   0.784   2.323   3.049  0.9790 -0.3233  1.0770
 2605SOL    MW410154   0.808   2.390   3.099  0.6410 -0.3070  0.2527
 2606SOL     OW10155   4.004   2.747   4.222  0.4101 -0.5884 -0.7737
 2606SOL    HW210156   4.094   2.760   4.253  0.1463  2.4195 -0.9585
 2606SOL    HW310157   3.979   2.832   4.186 -2.3569 -1.4989 -1.2084
 2606SOL    MW410158   4.013   2.760   4.221  0.0469 -0.1938  0.5555
 2607SOL     OW10159   4.773   4.333   6.403  0.1348 -0.0569  0.3388
 2607SOL    HW210160   4.695   4.287   6.372  0.5730 -1.8619  1.6999
 2607SOL    HW310161   4.752   4.356   6.493  0.9492 -0.0487  0.5332
 2607SOL    MW410162   4.760   4.330   6.411 -0.0583  0.0847  0.5354
 2608SOL     OW10163   0.761   1.857   1.788  0.0983  0.1616 -0.5038
 2608SOL    HW210164   0.741   1.769   1.755 -1.8283  0.4169 -0.1308
 2608SOL    HW310165   0.855   1.856   1.803  0.3049 -1.4320 -1.6804
 2608SOL    MW410166   0.770   1.845   1.786  0.0830 -0.1348 -0.0621
 2609SOL     OW10167   4.180   0.556   1.387  0.7718  0.0892  0.2432
 2609SOL    HW210168   4.184   0.563   1.482  0.5269 -0.6074  0.3108
 2609SOL    HW310169   4.217   0.470   1.367 -1.2792 -0.7772 -0.0920
 2609SOL    MW410170   4.185   0.546   1.397  0.4180  0.5601  0.4522
 2610SOL     OW10171   1.219   2.680   5.112 -0.1775  0.4328  0.3176
 2610SOL    HW210172   1.207   2.598   5.065 -0.7097 -0.2736  1.6247
 2610SOL    HW310173   1.131   2.702   5.144  0.1135  1.0439  0.7150
 2610SOL    MW410174   1.206   2.672   5.110 -0.0227 -0.2840 -0.2134
 2611SOL     OW10175   4.815   4.801   0.240 -0.1414  0.5535  0.0256
 2611SOL    HW210176   4.779   4.860   0.306 -1.4062  0.8173 -0.8611
 2611SOL    HW310177   4.849   4.858   0.172 -1.2860  0.3006 -0.7930
 2611SOL    MW410178   4.815   4.816   0.240 -0.3777 -0.2920  0.2546
 2612SOL     OW10179   0.546   3.406   4.164 -0.3105  0.5029  0.0564
 2612SOL    HW210180   0.523   3.414   4.072 -2.1208  1.6832  0.5699
 2612SOL    HW310181   0.470   3.364   4.204  0.6954 -0.5457  0.9430
 2612SOL    MW410182   0.533   3.401   4.157 -0.3283  0.1945 -0.7874
 2613SOL     OW10183   6.082   6.141   5.371 -0.0684 -0.1375  0.2804
 2613SOL    HW210184   6.167   6.101   5.391 -0.5359 -1.3740 -0.0786
 2613SOL    HW310185   6.078   6.143   5.276  0.2080  1.4173  0.2760
 2613SOL    MW410186   6.092   6.136   5.361 -0.2372  0.1820  0.1443
 2614SOL     OW10187   3.418   3.484   4.269  0.3567  0.5032  0.0513
 2614SOL    HW210188   3.402   3.548   4.200 -1.0464 -0.3318 -0.4373
 2614SOL    HW310189   3.355   3.506   4.338  1.4014  1.0168  0.8772
 2614SOL    MW410190   3.407   3.495   4.269 -0.1662 -0.5905  0.7852
 2615SOL     OW10191   4.168   1.618   6.254  0.0397 -0.0810 -0.4778
 2615SOL    HW210192   4.185   1.547   6.316 -0.3528 -0.7860 -1.1579
 2615SOL    HW310193   4.249   1.669   6.253 -0.2433  0.4664  1.2557
 2615SOL    MW410194   4.181   1.616   6.262 -0.1694  0.5762 -0.3272
 2616SOL     OW10195   0.981   6.122   2.302  0.5767 -0.3420  0.2741
 2616SOL    HW210196   1.005   6.105   2.210 -1.5827  1.1178 -0.6432
 2616SOL    HW310197   1.059   6.159   2.341  2.0561 -2.4543 -0.4912
 2616SOL    MW410198   0.994   6.125   2.295  0.7744  0.1936 -0.1363
 2617SOL     OW10199   5.877   5.547   3.617  0.5282 -0.0226 -0.5395
 2617SOL    HW210200   5.884   5.523   3.709 -0.4014 -1.1363 -0.7467
 2617SOL    HW310201   5.962   5.524   3.579 -0.2251 -2.9531 -0.6867
 2617SOL    MW410202   5.889   5.541   3.624  0.3698 -0.2395 -0.3716
 2618SOL     OW10203   3.279   0.547   5.866  0.1778 -0.5703 -0.6406
 2618SOL    HW210204   3.269   0.459   5.902 -2.3396 -0.3120 -0.4952
 2618SOL    HW310205   3.248   0.540   5.776  0.9188 -0.0224 -0.9539
 2618SOL    MW410206   3.273   0.535   5.859 -0.3026 -0.2970  0.3517
 2619SOL     OW10207   3.337   2.760   2.109 -0.0031 -0.1222 -0.5807
 2619SOL    HW210208   3.340   2.842   2.061  0.8302 -0.8349 -1.8031
 2619SOL    HW310209   3.245   2.734   2.108 -0.1416  0.3744 -0.9115
 2619SOL    MW410210   3.326   2.767   2.103  0.6447  0.1582  0.1950
 2620SOL     OW10211   5.500   4.587   0.815  0.3822 -0.2338 -0.6275
 2620SOL    HW210212   5.495   4.631   0.900 -0.5075 -1.1962 -0.1687
 2620SOL    HW310213   5.591   4.602   0.786  1.3100 -1.5368  1.3997
 2620SOL    MW410214   5.512   4.595   0.822 -0.2731 -0.0630  0.5391
 2621SOL     OW10215   0.758   1.234   0.764 -0.4110  0.5807  0.2995
 2621SOL    HW210216   0.670   1.265   0.789 -1.1547 -0.4468 -0.9428
 2621SOL    HW310217   0.792   1.303   0.706 -0.8436  0.4900 -0.0691
 2621SOL    MW410218   0.751   1.247   0.760  0.0222 -0.0346 -0.3143
 2622SOL     OW10219   5.866   4.225   5.980 -0.0531  0.1160 -0.1635
 2622SOL    HW210220   5.948   4.208   5.934 -0.2229 -0.2273 -0.3405
 2622SOL    HW310221   5.891   4.284   6.052  0.3900 -0.1707 -0.0747
 2622SOL    MW410222   5.880   4.230   5.984 -0.4473  0.0702  0.3802
 2623SOL     OW10223   3.913   3.584   0.044 -0.0003  0.0312 -0.3009
 2623SOL    HW210224   3.978   3.559   0.109  2.0565 -0.1455 -2.3021
 2623SOL    HW310225   3.848   3.634   0.093  1.5311  0.0547  1.8382
 2623SOL    MW410226   3.913   3.587   0.059  0.5037 -0.0755  0.4977
 2624SOL     OW10227   2.250   4.314   4.603  0.3086  0.9643  1.0272
 2624SOL    HW210228   2.280   4.286   4.690  1.3404  0.9629  0.6899
 2624SOL    HW310229   2.328   4.305   4.548 -0.1837  1.5220  0.2328
 2624SOL    MW410230   2.264   4.309   4.607  0.4198  0.6695 -0.1237
 2625SOL     OW10231   3.924   0.940   6.087  0.3272  0.8558  0.1328
 2625SOL    HW210232   3.938   1.011   6.150  2.0147  1.2515 -0.6244
 2625SOL    HW310233   4.005   0.937   6.037 -0.3296 -0.5832 -0.8974
 2625SOL    MW410234   3.937   0.949   6.089 -0.2586 -0.0418 -0.0352
 2626SOL     OW10235   3.178   4.685   0.505  0.6005 -0.1258  0.3926
 2626SOL    HW210236   3.220   4.764   0.471  1.1561 -1.3052 -1.8731
 2626SOL    HW310237   3.249   4.622   0.516 -0.1149 -1.0977 -0.3273
 2626SOL    MW410238   3.193   4.687   0.502  0.3566 -0.0930  0.3558
 2627SOL     OW10239   4.432   2.483   4.444  0.0985  0.3329 -0.6436
 2627SOL    HW210240   4.337   2.489   4.434  0.1033  1.2884 -0.1506
 2627SOL    HW310241   4.466   2.559   4.397  0.6520 -0.1805 -1.0959
 2627SOL    MW410242   4.424   2.494   4.436  0.0232  1.0358 -0.0239
 2628SOL     OW10243   2.144   2.584   0.650 -0.5019 -0.3883  0.1984
 2628SOL    HW210244   2.064   2.538   0.623  0.1788 -1.0857 -0.6751
 2628SOL    HW310245   2.205   2.571   0.578  0.3732  0.2336  0.8085
 2628SOL    MW410246   2.142   2.576   0.637  0.2608 -0.6460  0.2021
 2629SOL     OW10247   0.050   3.208   3.295  0.1174  0.2008 -0.1169
 2629SOL    HW210248   0.144   3.227   3.294 -0.2026  1.8405 -0.2808
 2629SOL    HW310249   0.011   3.274   3.238 -1.1964 -0.2402  0.2364
 2629SOL    MW410250   0.058   3.219   3.287 -0.3214 -0.0633  0.3825
 2630SOL     OW10251   3.460   3.605   1.476  0.2545 -0.1305 -0.6119
 2630SOL    HW210252   3.553   3.595   1.455  0.2632 -1.4929 -0.0617
 2630SOL    HW310253   3.416   3.599   1.392  0.5925 -0.6460 -0.7580
 2630SOL    MW410254   3.467   3.603   1.462  0.2099  0.1071 -0.2699
 2631SOL     OW10255   3.018   0.748   1.737 -0.0637 -0.0850 -0.4519
 2631SOL    HW210256   3.069   0.746   1.818 -1.6053  2.5353  0.7022
 2631SOL    HW310257   3.067   0.806   1.679 -0.1064 -0.1662 -0.5698
 2631SOL    MW410258   3.031   0.755   1.740  0.4475  0.1227  0.0255
 2632SOL     OW10259   3.482   4.691   6.237  0.4091  0.1708  0.0140
 2632SOL    HW210260   3.500   4.733   6.322 -2.5489 -1.5943  1.6708
 2632SOL    HW310261   3.567   4.657   6.209  1.5268  1.0179  2.1327
 2632SOL    MW410262   3.496   4.692   6.245 -0.3837  0.1122  0.0127
 2633SOL     OW10263   5.409   2.471   5.569  0.0495  0.1925 -0.3098
 2633SOL    HW210264   5.440   2.510   5.488  1.7845  1.3180  0.8287
 2633SOL    HW310265   5.462   2.392   5.579  0.4113  0.4888  0.1276
 2633SOL    MW410266   5.420   2.466   5.560 -0.1578  0.2202 -0.2450
 2634SOL     OW10267   0.634   0.129   5.395 -0.8672  0.2984 -0.1204
 2634SOL    HW210268   0.619   0.044   5.355 -1.9880 -0.1079  1.0924
 2634SOL    HW310269   0.546   0.166   5.407 -0.4036  1.6100 -0.5678
 2634SOL    MW410270   0.620   0.123   5.391 -0.1919 -0.4373 -0.0504
 2635SOL     OW10271   3.924   0.017   4.233 -0.3792 -0.5681  0.0605
 2635SOL    HW210272   3.889   0.072   4.164  1.1627  1.4952  0.8167
 2635SOL    HW310273   3.855  -0.047   4.251 -1.6743  0.2185 -1.8306
 2635SOL    MW410274   3.910   0.016   4.227 -0.0162  0.0019 -0.7745
 2636SOL     OW10275   1.265   2.253   4.435 -0.4923  0.1991 -0.0772
 2636SOL    HW210276   1.177   2.281   4.461  0.4197  0.5507  3.0079
 2636SOL    HW310277   1.262   2.158   4.438 -0.4157  0.2242  1.5574
 2636SOL    MW410278   1.253   2.244   4.438 -0.6496 -0.0972 -0.7146
 2637SOL     OW10279   2.347   1.477   3.348 -0.0038  0.0181  0.1313
 2637SOL    HW210280   2.367   1.400   3.402 -0.6448 -0.3373 -0.1245
 2637SOL    HW310281   2.397   1.463   3.267  0.0618 -0.0141  0.1772
 2637SOL    MW410282   2.356   1.465   3.344 -0.1269 -0.7472  0.7462
 2638SOL     OW10283   1.298   3.557   5.270 -0.2426 -0.0112 -0.4366
 2638SOL    HW210284   1.335   3.645   5.278  0.1104 -0.1668 -0.3473
 2638SOL    HW310285   1.257   3.540   5.354  0.9190 -0.4855  0.0622
 2638SOL    MW410286   1.298   3.566   5.282 -0.7146 -0.2727  0.0786
 2639SOL     OW10287   1.294   4.316   0.424  0.3256  0.1596 -0.3075
 2639SOL    HW210288   1.336   4.265   0.493 -1.6425  1.2502  1.8340
 2639SOL    HW310289   1.261   4.250   0.363 -0.0008 -1.0227  1.0814
 2639SOL    MW410290   1.295   4.300   0.425 -0.2238  0.0967 -0.2348
 2640SOL     OW10291   1.946   4.505   4.901  0.6776 -0.1883  0.3760
 2640SOL    HW210292   1.925   4.527   4.810  0.8406  0.6040  0.5263
 2640SOL    HW310293   1.873   4.449   4.930 -0.5528  1.4127  0.4678
 2640SOL    MW410294   1.934   4.500   4.893  0.0465  0.9283  1.0076
 2641SOL     OW10295   5.602   0.262   0.028 -0.3110 -0.2951 -0.1310
 2641SOL    HW210296   5.613   0.348  -0.014  2.0373 -0.6581 -0.3763
 2641SOL    HW310297   5.587   0.202  -0.045 -0.7015 -0.2812 -0.0635
 2641SOL    MW410298   5.602   0.265   0.013 -0.3050 -0.8397 -0.2927
 2642SOL     OW10299   2.351   1.024   1.563  0.2842  0.4395  0.3038
 2642SOL    HW210300   2.388   1.031   1.651 -1.1375 -1.5293  1.1365
 2642SOL    HW310301   2.336   0.930   1.551 -1.1440  0.8317 -1.3619
 2642SOL    MW410302   2.354   1.012   1.573 -0.1970  0.3749 -0.1757
 2643SOL     OW10303   5.125   2.101   1.323  0.1647 -0.3400 -0.0275
 2643SOL    HW210304   5.137   2.059   1.238 -1.1400 -0.1781 -0.3164
 2643SOL    HW310305   5.033   2.084   1.345  0.7098 -1.2135  1.8140
 2643SOL    MW410306   5.114   2.093   1.315  0.7133  0.6354 -0.0992
 2644SOL     OW10307   4.124   5.010   0.127  0.0808  0.4410  0.3977
 2644SOL    HW210308   4.172   4.961   0.194 -0.3722  0.2450  0.5839
 2644SOL    HW310309   4.175   4.997   0.047 -1.0507 -2.0181 -0.0274
 2644SOL    MW410310   4.138   5.002   0.126 -0.1138  0.7321 -0.3616
 2645SOL     OW10311   0.539   4.185   0.176  1.0201 -0.5711  0.9145
 2645SOL    HW210312   0.477   4.242   0.130 -0.7111 -1.9316  1.4629
 2645SOL    HW310313   0.601   4.158   0.108  1.1954  1.0156  0.4058
 2645SOL    MW410314   0.539   4.189   0.161 -0.0717  0.8400  0.0688
 2646SOL     OW10315   0.686   2.870   0.034 -0.2032  0.5110  0.4341
 2646SOL    HW210316   0.769   2.823   0.032 -0.2358  0.1488  3.2995
 2646SOL    HW310317   0.620   2.803   0.052 -0.8118  1.0797  0.3775
 2646SOL    MW410318   0.688   2.855   0.036 -0.4404 -0.1526 -0.0877
 2647SOL     OW10319   4.530   4.563   0.990  0.2965 -0.3216  0.6155
 2647SOL    HW210320   4.516   4.581   1.083 -0.6584 -1.0861  0.6291
 2647SOL    HW310321   4.563   4.646   0.955 -0.8435  0.4562  1.3299
 2647SOL    MW410322   4.532   4.577   0.997  0.0752 -0.3547 -0.6696
 2648SOL     OW10323   4.436   3.801   0.808  0.3180  0.3799  0.1709
 2648SOL    HW210324   4.491   3.845   0.872  0.6932  0.5987 -0.2923
 2648SOL    HW310325   4.347   3.811   0.841  0.5007  0.5622  0.6095
 2648SOL    MW410326   4.432   3.808   0.821 -0.5717 -0.2119 -0.1658
 2649SOL     OW10327   0.885   1.232   3.895  0.1285 -0.0931 -0.1443
 2649SOL    HW210328   0.837   1.233   3.978  0.1710  0.5334 -0.1238
 2649SOL    HW310329   0.817   1.247   3.828  0.0471 -0.8946 -0.2575
 2649SOL    MW410330   0.870   1.234   3.897 -0.3353  0.2417 -0.2340
 2650SOL     OW10331   1.997   5.550   3.803  0.3139  0.0683  0.1244
 2650SOL    HW210332   1.969   5.588   3.886  1.5300 -0.0114  0.5859
 2650SOL    HW310333   1.938   5.588   3.738 -0.6578  0.1248  1.0178
 2650SOL    MW410334   1.985   5.560   3.805 -0.4475  0.1317  0.6353
 2651SOL     OW10335   1.013   3.684   4.282  0.0435 -0.0522  0.3569
 2651SOL    HW210336   0.970   3.603   4.254 -0.5813  0.1884  0.5944
 2651SOL    HW310337   0.983   3.750   4.219 -1.4421  0.5156  1.5986
 2651SOL    MW410338   1.003   3.682   4.270 -0.5427 -0.0444  0.8208
 2652SOL     OW10339   0.235   5.569   2.627  0.0990  0.0171  0.6276
 2652SOL    HW210340   0.203   5.644   2.577  1.1672 -0.1473 -0.3432
 2652SOL    HW310341   0.330   5.571   2.617  0.1017 -2.2103 -0.5525
 2652SOL    MW410342   0.244   5.579   2.619  0.2633  0.5004 -0.3409
 2653SOL     OW10343   6.120   6.061   1.780 -0.0884 -0.1864 -0.2840
 2653SOL    HW210344   6.151   6.084   1.693  0.7306  1.3954  0.3830
 2653SOL    HW310345   6.102   6.145   1.823 -2.1142 -0.9567  0.5240
 2653SOL    MW410346   6.122   6.075   1.774 -0.0536  0.1278  0.3600
 2654SOL     OW10347   0.275   2.148   0.039  0.2652 -0.0133 -0.3085
 2654SOL    HW210348   0.180   2.147   0.055  0.3950 -0.7842  0.4695
 2654SOL    HW310349   0.301   2.238   0.060 -0.3550  0.3174 -0.9242
 2654SOL    MW410350   0.266   2.160   0.044  0.6469 -0.1517 -0.2683
 2655SOL     OW10351   2.833   3.736   0.544  0.2694  0.4082 -0.4748
 2655SOL    HW210352   2.813   3.704   0.633  1.5848  1.5493  0.2732
 2655SOL    HW310353   2.747   3.745   0.502 -0.2693 -2.0976 -0.0462
 2655SOL    MW410354   2.819   3.733   0.551 -0.0577 -0.4346 -0.0039
 2656SOL     OW10355   5.527   4.606   5.400 -0.0953  0.2534 -0.7847
 2656SOL    HW210356   5.444   4.573   5.365 -0.6272  1.3918 -0.6342
 2656SOL    HW310357   5.538   4.559   5.483 -0.2422 -0.3914 -1.1191
 2656SOL    MW410358   5.517   4.595   5.406  0.5662 -0.2626 -0.4824
 2657SOL     OW10359   1.846   0.298   4.812 -0.1787  0.8449 -0.1892
 2657SOL    HW210360   1.834   0.227   4.749 -1.8938 -0.0326  1.0358
 2657SOL    HW310361   1.939   0.318   4.808  0.8817 -2.9808  0.9640
 2657SOL    MW410362   1.856   0.291   4.803 -0.3447 -0.2512 -0.1582
 2658SOL     OW10363   1.464   4.036   2.570  0.0946 -0.4298  0.3467
 2658SOL    HW210364   1.441   3.987   2.491  0.1836 -1.2493  0.8186
 2658SOL    HW310365   1.406   4.001   2.638  0.0202  0.2617  0.6432
 2658SOL    MW410366   1.454   4.025   2.569  0.2216  0.1399  0.4831
 2659SOL     OW10367   2.941   4.256   0.051 -0.1867  0.0924  0.0105
 2659SOL    HW210368   2.847   4.257   0.070 -0.1874 -0.6657  0.0677
 2659SOL    HW310369   2.981   4.308   0.121 -0.5146  0.0411  0.2343
 2659SOL    MW410370   2.934   4.263   0.062 -0.0769 -0.0079  0.0131
 2660SOL     OW10371   0.327   4.299   6.187 -0.4542  0.5155  0.4640
 2660SOL    HW210372   0.398   4.363   6.177 -0.6072  0.4250 -1.5818
 2660SOL    HW310373   0.249   4.343   6.152 -0.6282 -0.6445 -0.6933
 2660SOL    MW410374   0.326   4.313   6.181 -0.0019  0.1371 -0.0707
 2661SOL     OW10375   2.604   0.658   0.795  0.0252 -0.7646 -0.4474
 2661SOL    HW210376   2.666   0.709   0.742 -2.8987  2.3222 -1.2391
 2661SOL    HW310377   2.621   0.687   0.884  0.0492 -0.3144 -0.5941
 2661SOL    MW410378   2.615   0.669   0.799 -0.3282  0.2688 -0.2556
 2662SOL     OW10379   2.725   1.401   4.347  0.0438 -0.3978 -0.7736
 2662SOL    HW210380   2.701   1.396   4.440 -2.8546  2.6123 -1.1833
 2662SOL    HW310381   2.814   1.437   4.348 -0.5092  1.0613  0.8750
 2662SOL    MW410382   2.734   1.405   4.360 -0.0176  0.2487  0.0871
 2663SOL     OW10383   3.532   0.179   5.811  0.5225  0.2683  0.3825
 2663SOL    HW210384   3.549   0.093   5.850  0.6971  0.8098  1.5455
 2663SOL    HW310385   3.563   0.171   5.721  0.5904 -0.8674  0.4898
 2663SOL    MW410386   3.539   0.167   5.804  0.1852 -0.1320  0.4189
 2664SOL     OW10387   1.040   1.276   0.129  0.0334 -0.0361  0.3343
 2664SOL    HW210388   1.093   1.239   0.200  1.4247 -0.1858 -0.7370
 2664SOL    HW310389   1.016   1.363   0.160 -0.4931 -0.5690  1.5064
 2664SOL    MW410390   1.044   1.282   0.143  0.3399 -0.4979  0.2488
 2665SOL     OW10391   5.054   0.086   0.558 -0.3656 -0.2846 -0.2685
 2665SOL    HW210392   5.128   0.146   0.547  0.2768 -0.8463  0.8163
 2665SOL    HW310393   5.004   0.123   0.631 -0.3997 -0.6377 -0.1130
 2665SOL    MW410394   5.057   0.099   0.566  0.0544  0.2025 -0.2575
 2666SOL     OW10395   0.820   3.667   1.495 -0.0625  0.6642 -0.5007
 2666SOL    HW210396   0.743   3.723   1.495 -0.7738 -0.1499  2.5130
 2666SOL    HW310397   0.872   3.697   1.569  0.1487 -1.7471  0.4372
 2666SOL    MW410398   0.817   3.678   1.505  0.7594 -0.4565  0.2170
 2667SOL     OW10399   5.723   2.023   3.028  0.4709 -0.3210 -0.0094
 2667SOL    HW210400   5.760   2.052   2.945 -0.5552  0.0884 -0.3353
 2667SOL    HW310401   5.764   2.079   3.094  0.1856  0.3587 -0.3998
 2667SOL    MW410402   5.733   2.034   3.026  0.2915 -0.6788 -0.4909
 2668SOL     OW10403   3.754   5.707   5.921 -0.1426 -0.0491  0.4393
 2668SOL    HW210404   3.793   5.766   5.985 -0.3818  0.1125  0.4342
 2668SOL    HW310405   3.663   5.735   5.913 -0.5015 -0.9770  1.1014
 2668SOL    MW410406   3.747   5.718   5.928  0.4646 -0.0918 -0.6034
 2669SOL     OW10407   2.483   4.773   3.474  0.5473 -0.0017 -0.6370
 2669SOL    HW210408   2.520   4.790   3.388 -2.0526 -0.2178 -1.8966
 2669SOL    HW310409   2.437   4.690   3.464 -0.0427  0.1062  0.8863
 2669SOL    MW410410   2.482   4.764   3.461 -0.3626 -0.2302  0.4830
 2670SOL     OW10411   5.469   5.771   5.268  0.3847 -0.2481  0.4280
 2670SOL    HW210412   5.382   5.754   5.302 -0.5297  2.2516 -0.4120
 2670SOL    HW310413   5.528   5.736   5.334 -1.1423 -3.5986  0.2121
 2670SOL    MW410414   5.465   5.765   5.281 -0.5604  0.1952  1.0200
 2671SOL     OW10415   3.210   0.635   0.088  0.5528 -0.1941  0.2471
 2671SOL    HW210416   3.260   0.561   0.123  1.3542 -0.1816 -0.8170
 2671SOL    HW310417   3.268   0.710   0.098 -0.1290  0.2430  1.0152
 2671SOL    MW410418   3.224   0.635   0.094 -0.1416  0.4126 -0.4802
 2672SOL     OW10419   5.468   4.374   4.535  0.1440  0.2367  0.3669
 2672SOL    HW210420   5.510   4.292   4.509 -2.1483 -1.0536  0.5207
 2672SOL    HW310421   5.531   4.415   4.595  2.0212 -0.5908 -0.9278
 2672SOL    MW410422   5.482   4.369   4.540 -0.4980 -0.0579  0.4178
 2673SOL     OW10423   2.085   1.274   5.678  0.6903  0.3356  0.2503
 2673SOL    HW210424   2.114   1.350   5.728  0.3236 -0.5372  1.8285
 2673SOL    HW310425   2.033   1.222   5.739  1.9475 -1.8297 -0.4098
 2673SOL    MW410426   2.082   1.277   5.693 -0.0924 -0.5944  0.1198
 2674SOL     OW10427   1.429   2.895   3.378 -0.3368 -0.1291 -0.0313
 2674SOL    HW210428   1.405   2.831   3.445 -0.3666  2.1040  2.2689
 2674SOL    HW310429   1.523   2.909   3.391  0.2975 -1.6075 -2.3733
 2674SOL    MW410430   1.438   2.888   3.389 -0.4862 -0.3723 -0.3337
 2675SOL     OW10431   4.172   3.267   3.534  0.4962 -0.1318 -0.1893
 2675SOL    HW210432   4.198   3.175   3.529 -1.0579 -0.7304  1.6041
 2675SOL    HW310433   4.250   3.316   3.508  1.8947 -1.9129  0.4767
 2675SOL    MW410434   4.186   3.261   3.530  0.0045 -0.5316 -0.0849
 2676SOL     OW10435   3.289   5.952   4.903 -0.0799 -0.5971  0.3854
 2676SOL    HW210436   3.197   5.977   4.916  0.5859  1.0096  2.5895
 2676SOL    HW310437   3.303   5.880   4.965  0.2056 -0.6834  0.2186
 2676SOL    MW410438   3.279   5.946   4.913  0.0805 -0.2811  0.8341
 2677SOL     OW10439   1.751   2.097   4.066  0.4870 -0.5965 -1.0642
 2677SOL    HW210440   1.685   2.098   4.136  0.4386  0.7553 -1.0961
 2677SOL    HW310441   1.745   2.009   4.029  0.2469 -1.2250  0.3767
 2677SOL    MW410442   1.742   2.086   4.071  0.1570  0.0533  0.1926
 2678SOL     OW10443   4.949   4.925   1.114  0.3892  0.2781  0.0481
 2678SOL    HW210444   4.958   4.833   1.087 -0.7387  0.4093 -0.8187
 2678SOL    HW310445   5.033   4.946   1.154  0.3779 -1.3961  1.0665
 2678SOL    MW410446   4.961   4.915   1.116  0.4247  0.2328  0.4933
 2679SOL     OW10447   1.500   2.481   4.929  0.2996  0.3059 -0.4468
 2679SOL    HW210448   1.417   2.456   4.971  0.8937 -1.8903 -0.4300
 2679SOL    HW310449   1.565   2.474   4.998  0.7196  0.5186 -0.8156
 2679SOL    MW410450   1.497   2.477   4.943  0.0465 -0.6047 -0.2405
 2680SOL     OW10451   2.042   6.300   0.834 -0.0426  0.1222 -0.0505
 2680SOL    HW210452   1.986   6.346   0.897  0.0347  0.5417 -0.2780
 2680SOL    HW310453   2.062   6.367   0.767 -1.4481 -0.7312 -1.3832
 2680SOL    MW410454   2.037   6.315   0.833 -0.1377  0.0563  0.6951
 2681SOL     OW10455   5.346   1.417   5.092 -0.0492 -0.0435  0.1426
 2681SOL    HW210456   5.304   1.472   5.025 -0.0087  0.9881  0.9371
 2681SOL    HW310457   5.278   1.356   5.119 -1.2555  1.8408  1.6755
 2681SOL    MW410458   5.331   1.416   5.087  0.1945  0.0493 -0.4505
 2682SOL     OW10459   5.408   3.081   2.140 -0.5999 -0.2552 -0.3658
 2682SOL    HW210460   5.420   3.175   2.155  0.8728 -0.2052 -1.6026
 2682SOL    HW310461   5.483   3.041   2.184  1.0414 -0.4846 -3.1794
 2682SOL    MW410462   5.420   3.088   2.148 -0.6807 -0.1111 -0.5634
 2683SOL     OW10463   3.355   2.864   0.111 -0.0761  0.3097  0.1996
 2683SOL    HW210464   3.422   2.894   0.050 -1.5128  1.2864 -0.9697
 2683SOL    HW310465   3.395   2.788   0.154  2.3005  1.6865  0.6261
 2683SOL    MW410466   3.369   2.858   0.109  0.1869  0.0869  0.1063
 2684SOL     OW10467   1.724   5.672   4.223 -0.2210 -0.5007  0.2103
 2684SOL    HW210468   1.648   5.630   4.182 -1.8662  0.4120  2.1694
 2684SOL    HW310469   1.734   5.627   4.307  1.3229 -0.4730  0.0734
 2684SOL    MW410470   1.715   5.660   4.229 -0.1170 -0.8051 -0.1346
 2685SOL     OW10471   6.395   5.370   3.421 -0.4748 -0.8846  0.2737
 2685SOL    HW210472   6.397   5.307   3.349 -0.0828 -0.2940 -0.2417
 2685SOL    HW310473   6.303   5.398   3.425 -0.2406  0.1325 -0.9369
 2685SOL    MW410474   6.383   5.365   3.412  0.2253  0.2942  0.2962
 2686SOL     OW10475   2.576   6.051   0.119  0.2264  0.3791  0.1184
 2686SOL    HW210476   2.619   5.995   0.184 -0.9073 -1.9573 -0.9881
 2686SOL    HW310477   2.648   6.090   0.069  1.0795 -0.1170  0.9305
 2686SOL    MW410478   2.591   6.048   0.121 -0.5206  0.5431  0.0105
 2687SOL     OW10479   1.087   2.196   1.180  0.3927 -0.1748  0.3894
 2687SOL    HW210480   1.069   2.254   1.106  0.6060 -1.0902 -0.3961
 2687SOL    HW310481   1.182   2.199   1.191  0.3418  0.1207  0.7658
 2687SOL    MW410482   1.097   2.204   1.171 -0.2541 -0.3369  0.2058
 2688SOL     OW10483   4.730   3.902   5.790  0.1970 -0.3705 -0.2603
 2688SOL    HW210484   4.801   3.937   5.845 -0.1336  1.4967 -0.9444
 2688SOL    HW310485   4.775   3.848   5.725  0.7120 -1.4776  0.9852
 2688SOL    MW410486   4.746   3.900   5.788  0.1456 -0.3681 -0.4349
 2689SOL     OW10487   0.793   0.630   0.057 -0.8358  0.3622  0.0923
 2689SOL    HW210488   0.733   0.566   0.020  0.0407 -0.4299  0.0296
 2689SOL    HW310489   0.852   0.653  -0.014  1.1847 -1.5489  1.0528
 2689SOL    MW410490   0.793   0.625   0.043  0.2628 -0.2946 -0.2339
 2690SOL     OW10491   6.248   5.459   3.754  0.4469  0.1649 -0.0904
 2690SOL    HW210492   6.338   5.431   3.739  0.7879  1.3406 -0.3857
 2690SOL    HW310493   6.208   5.387   3.803  1.2827 -0.7622 -0.7253
 2690SOL    MW410494   6.254   5.446   3.758  0.5741  0.6451  0.2752
 2691SOL     OW10495   0.825   6.099   3.810  0.5423  0.5285 -0.0244
 2691SOL    HW210496   0.755   6.159   3.785 -0.6118  0.1520  2.0737
 2691SOL    HW310497   0.784   6.013   3.809  0.7707  0.3617  1.7401
 2691SOL    MW410498   0.811   6.096   3.806  0.3241 -0.3300  0.1294
 2692SOL     OW10499   2.069   4.473   3.216 -0.6805  0.5149 -0.2338
 2692SOL    HW210500   2.057   4.546   3.155  0.2308  1.5679  0.7801
 2692SOL    HW310501   2.139   4.503   3.275  1.5614 -2.1793 -1.3118
 2692SOL    MW410502   2.077   4.487   3.216 -0.3106  0.3424 -0.5341
 2693SOL     OW10503   0.877   6.188   3.273  0.3237  0.8529  0.1101
 2693SOL    HW210504   0.803   6.222   3.323 -0.5229  0.5553 -0.9013
 2693SOL    HW310505   0.946   6.176   3.338 -0.7561  0.4168  1.2185
 2693SOL    MW410506   0.876   6.191   3.288  0.1370  0.9401 -0.4722
 2694SOL     OW10507   0.574   0.574   5.292 -0.2648  0.2543 -0.2658
 2694SOL    HW210508   0.593   0.482   5.276 -0.4126  0.2615 -0.4813
 2694SOL    HW310509   0.634   0.599   5.362 -0.9492 -0.2931  0.5488
 2694SOL    MW410510   0.584   0.565   5.299 -0.2227 -0.4020  0.7049
 2695SOL     OW10511   0.486   6.133   0.237  0.5451 -0.3451 -0.3319
 2695SOL    HW210512   0.504   6.222   0.269  0.1435 -0.3048 -0.2067
 2695SOL    HW310513   0.426   6.096   0.301 -0.2552 -0.2729 -1.0110
 2695SOL    MW410514   0.480   6.140   0.249 -0.2513  0.2326  1.0142
 2696SOL     OW10515   3.779   2.136   2.036  0.4127  0.1627 -0.2368
 2696SOL    HW210516   3.825   2.220   2.041  1.1597 -0.1415 -1.3382
 2696SOL    HW310517   3.795   2.106   1.946 -0.1732 -0.9685  0.0151
 2696SOL    MW410518   3.787   2.143   2.024  0.0098 -0.3516  0.2052
 2697SOL     OW10519   0.281   5.540   0.090  0.2806 -0.1324 -0.1167
 2697SOL    HW210520   0.305   5.570   0.178 -1.0280  1.4781 -0.2706
 2697SOL    HW310521   0.206   5.594   0.066 -0.3364 -1.5919 -1.6345
 2697SOL    MW410522   0.274   5.551   0.099  0.3690  0.0792 -0.1312
 2698SOL     OW10523   2.100   0.306   2.552 -0.1130  0.0855  0.1220
 2698SOL    HW210524   2.073   0.260   2.631  2.4725  0.7724  1.5259
 2698SOL    HW310525   2.174   0.256   2.519  1.2987  1.8680  0.4060
 2698SOL    MW410526   2.106   0.294   2.558  0.4024 -0.4466 -0.9656
 2699SOL     OW10527   4.882   1.034   5.879 -0.6967  0.4981  0.4819
 2699SOL    HW210528   4.867   0.989   5.962  0.7911 -1.2208 -0.1111
 2699SOL    HW310529   4.963   1.083   5.893  0.7529 -1.4703 -0.5056
 2699SOL    MW410530   4.891   1.034   5.892  0.3504 -0.3862  0.3404
 2700SOL     OW10531   4.054   6.208   1.106 -0.8162 -0.0032  0.6480
 2700SOL    HW210532   3.998   6.191   1.181  0.0044  1.2523  1.5897
 2700SOL    HW310533   4.044   6.302   1.089  2.1601  0.6649  1.9028
 2700SOL    MW410534   4.045   6.219   1.114  0.1204  0.5005 -0.2850
 2701SOL     OW10535   1.871   1.966   1.535  0.2099 -0.4988  0.6454
 2701SOL    HW210536   1.834   1.923   1.458 -0.0123  0.4645  0.2002
 2701SOL    HW310537   1.882   1.895   1.598 -1.7680 -0.9450  0.5592
 2701SOL    MW410538   1.867   1.951   1.533  0.0547 -0.6443 -0.3551
 2702SOL     OW10539   2.494   1.544   0.686 -0.3251 -0.3985 -0.6592
 2702SOL    HW210540   2.544   1.596   0.750  2.5085 -1.1760 -2.0744
 2702SOL    HW310541   2.434   1.491   0.739  1.2453 -0.3262  1.2893
 2702SOL    MW410542   2.493   1.544   0.701  0.0853 -0.0453  0.1914
 2703SOL     OW10543   0.141   3.799   4.484  0.6335 -0.0356 -0.1612
 2703SOL    HW210544   0.187   3.882   4.501  0.6645 -0.1827  0.5113
 2703SOL    HW310545   0.098   3.779   4.567 -0.9504  0.2739 -0.8776
 2703SOL    MW410546   0.141   3.807   4.497  0.3150 -0.4890 -0.5741
 2704SOL     OW10547   1.369   4.557   1.742  0.1132 -0.1192  0.5059
 2704SOL    HW210548   1.439   4.596   1.795 -0.0122 -0.4850  0.9498
 2704SOL    HW310549   1.289   4.593   1.779 -0.0299 -1.1086  1.2036
 2704SOL    MW410550   1.368   4.567   1.754 -0.7838  0.1892 -0.3987
 2705SOL     OW10551   5.178   3.769   2.274  0.2743  0.1370 -0.3158
 2705SOL    HW210552   5.095   3.809   2.300 -0.9147 -0.8742 -2.3127
 2705SOL    HW310553   5.218   3.834   2.215  0.1308 -0.0440 -0.6135
 2705SOL    MW410554   5.173   3.783   2.270 -0.0152 -0.1917  0.8889
 2706SOL     OW10555   1.231   0.272   0.318 -0.1904 -0.5610  0.3458
 2706SOL    HW210556   1.282   0.224   0.383 -0.2381 -0.5916  0.3607
 2706SOL    HW310557   1.184   0.338   0.368  1.4394  0.8508  0.0921
 2706SOL    MW410558   1.231   0.274   0.333 -0.1929  0.6160 -0.4451
 2707SOL     OW10559   0.479   1.053   0.624  0.1067 -0.1774  0.0693
 2707SOL    HW210560   0.416   0.995   0.582  0.1502 -0.1793  0.0057
 2707SOL    HW310561   0.508   1.111   0.554  1.7368 -1.5088 -0.4313
 2707SOL    MW410562   0.475   1.053   0.609 -0.1792 -0.7284  0.1978
 2708SOL     OW10563   6.400   6.340   4.774 -0.9526  0.6815 -0.2869
 2708SOL    HW210564   6.474   6.306   4.825 -2.0061  0.9289  1.4996
 2708SOL    HW310565   6.417   6.434   4.767  0.7611  0.2638 -3.1849
 2708SOL    MW410566   6.412   6.348   4.780  0.4962  0.2079  0.1126
 2709SOL     OW10567   5.751   4.748   3.354  0.3973  0.7097 -0.6751
 2709SOL    HW210568   5.725   4.658   3.376 -0.6129  1.5392  2.0129
 2709SOL    HW310569   5.831   4.738   3.302  1.8132 -1.7678  1.6727
 2709SOL    MW410570   5.758   4.734   3.350  0.0241 -0.5719  0.3314
 2710SOL     OW10571   2.189   5.118   1.899 -0.3910  0.3734  0.0537
 2710SOL    HW210572   2.198   5.028   1.868 -0.1990  1.0991 -2.1352
 2710SOL    HW310573   2.157   5.109   1.989 -0.8480 -1.8625 -0.2765
 2710SOL    MW410574   2.186   5.105   1.907  0.4047  0.4161 -0.7227
 2711SOL     OW10575   1.250   0.605   6.370 -0.0546  0.0979 -0.1645
 2711SOL    HW210576   1.328   0.651   6.338  0.5078 -0.7050  0.0108
 2711SOL    HW310577   1.282   0.552   6.444 -0.5514 -1.0073 -0.7134
 2711SOL    MW410578   1.265   0.604   6.376  0.6852 -0.1243 -0.1008
 2712SOL     OW10579   3.116   1.005   1.621  0.1208 -0.2543 -0.2015
 2712SOL    HW210580   3.043   1.050   1.578 -0.6742 -0.0042  1.3224
 2712SOL    HW310581   3.102   1.021   1.714  2.0782 -0.2979  0.1509
 2712SOL    MW410582   3.105   1.013   1.627 -0.6939  1.0574  0.1866
 2713SOL     OW10583   3.551   2.393   2.787  0.4590  0.2138  0.1690
 2713SOL    HW210584   3.608   2.453   2.834  1.7625 -0.0654 -1.0021
 2713SOL    HW310585   3.517   2.444   2.713  0.5189 -0.1029 -0.0813
 2713SOL    MW410586   3.554   2.407   2.783  0.3338  0.1530 -0.2626
 2714SOL     OW10587   1.514   1.692   4.465 -0.4060 -0.3084  0.5510
 2714SOL    HW210588   1.521   1.630   4.537 -1.0611 -2.2468 -0.9548
 2714SOL    HW310589   1.598   1.686   4.419 -0.9398 -1.1224 -0.3576
 2714SOL    MW410590   1.526   1.683   4.468 -0.5554 -0.7069  0.2116
 2715SOL     OW10591   1.051   2.371   2.011 -0.1375  0.4516  0.2269
 2715SOL    HW210592   1.055   2.447   2.069 -1.0921 -0.2048  1.1874
 2715SOL    HW310593   1.129   2.378   1.957 -0.1377  2.0398  0.3916
 2715SOL    MW410594   1.062   2.382   2.012 -0.3258  0.2338 -0.2130
 2716SOL     OW10595   2.151   5.494   4.726  0.0584  0.0827 -0.7113
 2716SOL    HW210596   2.241   5.468   4.710  0.6833  1.2713  0.6743
 2716SOL    HW310597   2.147   5.511   4.820 -1.3326  1.0420 -0.9118
 2716SOL    MW410598   2.162   5.493   4.736 -0.1424  0.0581 -0.1600
 2717SOL     OW10599   0.587   4.390   4.525  0.4991  0.2153  0.5085
 2717SOL    HW210600   0.558   4.299   4.518 -0.1806  0.2322  2.4222
 2717SOL    HW310601   0.558   4.418   4.612  1.8158  1.8671  0.4777
 2717SOL    MW410602   0.580   4.382   4.536  0.4134 -0.0119  0.2999
 2718SOL     OW10603   2.114   0.887   5.105 -0.7428 -0.5644  0.1047
 2718SOL    HW210604   2.057   0.963   5.113 -0.6786 -0.2704 -1.7317
 2718SOL    HW310605   2.202   0.923   5.095 -0.6619 -0.8759 -0.3634
 2718SOL    MW410606   2.118   0.902   5.105  0.3094 -1.0162 -0.3179
 2719SOL     OW10607   2.670   2.405   4.076 -0.2134  0.0678  0.4411
 2719SOL    HW210608   2.740   2.465   4.048 -1.4088  1.4686  0.3763
 2719SOL    HW310609   2.664   2.417   4.170 -0.5886  0.1726  0.4017
 2719SOL    MW410610   2.679   2.414   4.084  0.7365  0.6281 -0.0012
 2720SOL     OW10611   1.704   2.947   3.411 -0.0951  0.0268 -0.0680
 2720SOL    HW210612   1.764   2.949   3.486 -0.3198  1.8244  0.1012
 2720SOL    HW310613   1.761   2.938   3.335  0.1667 -1.3059  0.2575
 2720SOL    MW410614   1.719   2.946   3.411  0.3085 -0.1421 -0.8083
 2721SOL     OW10615   3.727   2.128   2.895 -0.6236  0.7889 -0.6037
 2721SOL    HW210616   3.727   2.129   2.799 -0.0602  0.3677 -0.6150
 2721SOL    HW310617   3.724   2.221   2.920  0.1889  0.9430 -1.0440
 2721SOL    MW410618   3.727   2.141   2.886 -0.7647  0.3481  0.3138
 2722SOL     OW10619   2.861   0.862   5.611  0.0205 -0.0934 -0.2415
 2722SOL    HW210620   2.927   0.859   5.542  0.3706 -1.9465  0.1145
 2722SOL    HW310621   2.911   0.873   5.692 -0.4204  2.6894 -0.2305
 2722SOL    MW410622   2.876   0.863   5.613 -0.3156 -0.5221  0.1466
 2723SOL     OW10623   4.028   3.201   0.787 -0.0820  0.7847 -0.0319
 2723SOL    HW210624   4.021   3.155   0.870  1.2450  1.1851  0.3099
 2723SOL    HW310625   3.968   3.153   0.729 -0.5351  0.1107  0.9563
 2723SOL    MW410626   4.019   3.189   0.790  0.0510  0.1897 -0.7244
 2724SOL     OW10627   0.980   0.746   0.973  0.3198  0.2349 -0.3005
 2724SOL    HW210628   0.917   0.765   1.043 -0.0852  0.6358 -0.7560
 2724SOL    HW310629   0.925   0.737   0.894  0.4952 -2.6529 -0.1981
 2724SOL    MW410630   0.964   0.748   0.972 -0.1948 -0.1623 -0.4573
 2725SOL     OW10631   6.412   2.800   0.630  0.1169 -0.3247  0.2802
 2725SOL    HW210632   6.417   2.721   0.578  0.0982  1.1104 -2.0380
 2725SOL    HW310633   6.498   2.841   0.621 -0.2939  0.5794  0.3101
 2725SOL    MW410634   6.424   2.795   0.622 -0.4306  0.8249  0.1215
 2726SOL     OW10635   0.950   1.242   0.959  0.0284 -0.5280 -0.4648
 2726SOL    HW210636   0.953   1.336   0.972  4.1695 -0.2754 -1.7066
 2726SOL    HW310637   0.893   1.229   0.883 -0.7222  0.9413 -0.1754
 2726SOL    MW410638   0.943   1.252   0.951  0.5710  0.3964  0.4517
 2727SOL     OW10639   5.763   3.466   3.792 -0.4483  0.5764 -0.1648
 2727SOL    HW210640   5.831   3.400   3.804  0.1760  1.2837  0.3183
 2727SOL    HW310641   5.768   3.489   3.699  0.3646  1.0315 -0.0146
 2727SOL    MW410642   5.772   3.460   3.781  0.0929  0.1545 -0.2183
 2728SOL     OW10643   6.070   0.607   4.457 -0.0661  0.2700  0.4595
 2728SOL    HW210644   6.049   0.524   4.499  0.0627  0.3567  0.6948
 2728SOL    HW310645   6.068   0.672   4.528  1.8908  0.1470  0.6846
 2728SOL    MW410646   6.067   0.605   4.472  0.0677 -0.5855 -0.3899
 2729SOL     OW10647   1.705   1.372   3.758  0.4322  0.6649  0.0174
 2729SOL    HW210648   1.673   1.282   3.751  2.9140 -0.3294  0.2544
 2729SOL    HW310649   1.694   1.409   3.671  1.6468 -0.7401 -0.7689
 2729SOL    MW410650   1.700   1.365   3.746  0.2738  0.4550  0.3562
 2730SOL     OW10651   6.325   2.994   3.266  0.4758 -0.0235 -0.0347
 2730SOL    HW210652   6.252   3.020   3.323 -0.5013  0.3234 -1.3681
 2730SOL    HW310653   6.383   3.070   3.265 -1.9195  2.0174 -3.2093
 2730SOL    MW410654   6.323   3.008   3.273  0.5654 -0.1243 -0.2904
 2731SOL     OW10655   4.759   0.966   0.865 -0.0156  0.0283 -0.3958
 2731SOL    HW210656   4.685   1.005   0.818 -0.0194 -0.3284 -0.6924
 2731SOL    HW310657   4.836   0.997   0.818 -0.0836 -2.4467 -2.3654
 2731SOL    MW410658   4.759   0.975   0.853 -1.2906  0.1711  0.2032
 2732SOL     OW10659   2.406   1.681   0.310  0.1609 -0.0324  0.1799
 2732SOL    HW210660   2.477   1.745   0.309 -0.7342  0.9709 -0.3261
 2732SOL    HW310661   2.355   1.702   0.388 -0.3586  0.1265 -0.1996
 2732SOL    MW410662   2.409   1.692   0.320  0.3925 -0.5156  0.2916
 2733SOL     OW10663   2.052   5.962   5.438 -0.0086 -0.5672 -0.3111
 2733SOL    HW210664   2.078   6.054   5.446 -0.7216 -0.2376 -1.5546
 2733SOL    HW310665   2.019   5.939   5.524  1.0805  0.0408  0.3005
 2733SOL    MW410666   2.051   5.971   5.450  0.0181  0.1591  0.1359
 2734SOL     OW10667   1.093   0.333   1.846  0.2044 -0.2288  0.4250
 2734SOL    HW210668   1.028   0.381   1.899  0.1270  0.7892 -0.5508
 2734SOL    HW310669   1.177   0.365   1.879  0.1477  1.3334 -0.8368
 2734SOL    MW410670   1.095   0.344   1.858 -0.0463 -0.4251  0.4069
 2735SOL     OW10671   4.527   5.044   0.174  0.1100  0.2723  0.8296
 2735SOL    HW210672   4.578   4.982   0.226  0.8207 -0.3772 -0.5794
 2735SOL    HW310673   4.587   5.075   0.107 -1.4626 -1.1229 -1.3868
 2735SOL    MW410674   4.541   5.040   0.172  0.4121  0.0735 -0.0343
 2736SOL     OW10675   0.563   3.067   4.240  0.0211  0.2518  0.2654
 2736SOL    HW210676   0.590   3.000   4.178  2.1899  0.9645  0.3609
 2736SOL    HW310677   0.568   3.149   4.191  2.4387  0.9122  1.4688
 2736SOL    MW410678   0.567   3.069   4.225 -0.3392  0.3027  0.1680
 2737SOL     OW10679   6.434   4.317   2.007  0.0396 -0.0210 -0.2138
 2737SOL    HW210680   6.406   4.375   2.078  0.0390  0.9912 -1.0166
 2737SOL    HW310681   6.479   4.245   2.051 -0.4274  0.3146  0.8424
 2737SOL    MW410682   6.436   4.315   2.022 -0.9881 -0.8879  0.5019
 2738SOL     OW10683   4.105   2.175   2.910  0.1207 -0.4157  0.2171
 2738SOL    HW210684   4.196   2.173   2.881 -0.3262 -1.2179 -1.2403
 2738SOL    HW310685   4.067   2.248   2.861  0.3836  1.1689  2.2457
 2738SOL    MW410686   4.112   2.185   2.900 -0.4279 -0.3955 -0.7446
 2739SOL     OW10687   3.800   4.585   3.932  0.0216  0.7872 -0.7107
 2739SOL    HW210688   3.728   4.648   3.943  0.8843  1.5264  1.2588
 2739SOL    HW310689   3.789   4.524   4.004 -0.0065 -0.5514 -1.8212
 2739SOL    MW410690   3.789   4.585   3.943 -0.2924  0.2110 -0.0194
 2740SOL     OW10691   4.350   3.963   2.670 -0.2388  0.1000  0.2671
 2740SOL    HW210692   4.413   4.011   2.616 -0.2813 -0.7498 -0.5680
 2740SOL    HW310693   4.269   4.014   2.665 -0.7968 -0.8682 -2.0042
 2740SOL    MW410694   4.348   3.976   2.662  0.7421 -0.0205 -0.0492
 2741SOL     OW10695   0.694   5.374   0.939  0.0063 -0.2221  0.0824
 2741SOL    HW210696   0.669   5.324   1.017  0.6682  0.0689  0.4834
 2741SOL    HW310697   0.780   5.341   0.915 -0.4831 -0.8179 -0.9695
 2741SOL    MW410698   0.702   5.363   0.946 -0.2434 -0.1644  0.0277
 2742SOL     OW10699   2.733   5.511   2.887 -0.3787  0.5073 -0.4183
 2742SOL    HW210700   2.823   5.525   2.918  0.0634  0.2985 -1.5481
 2742SOL    HW310701   2.707   5.428   2.926 -1.6381  2.4217  3.2732
 2742SOL    MW410702   2.742   5.502   2.897  0.1536  0.1871 -0.6375
 2743SOL     OW10703   3.374   6.334   2.693 -0.2960 -0.0901 -0.3308
 2743SOL    HW210704   3.429   6.412   2.690  0.1221 -0.3620  0.0071
 2743SOL    HW310705   3.428   6.265   2.654  0.0410 -0.6038  0.9752
 2743SOL    MW410706   3.389   6.335   2.688 -0.6388 -0.2005 -0.2060
 2744SOL     OW10707   5.311   3.260   5.879 -0.3472  0.1436 -0.1132
 2744SOL    HW210708   5.386   3.209   5.910 -0.0132 -0.3196 -1.5942
 2744SOL    HW310709   5.236   3.223   5.925  0.3390  0.8202  1.6378
 2744SOL    MW410710   5.311   3.248   5.889  0.0534  0.4555 -0.2106
 2745SOL     OW10711   6.369   2.361   3.185 -0.5619 -0.5660  0.3967
 2745SOL    HW210712   6.417   2.429   3.138 -0.5149 -0.5093  0.5252
 2745SOL    HW310713   6.368   2.286   3.125 -0.2464 -0.5913  0.4205
 2745SOL    MW410714   6.375   2.360   3.171 -0.1601  0.4241  0.6061
 2746SOL     OW10715   2.279   3.393   2.238  0.3225 -0.1414  0.7219
 2746SOL    HW210716   2.348   3.442   2.194  0.0284  0.9514  1.4268
 2746SOL    HW310717   2.322   3.355   2.315  0.1302  0.7247  1.2849
 2746SOL    MW410718   2.294   3.395   2.243  0.3158 -0.0646 -0.3450
 2747SOL     OW10719   3.622   1.246   4.807  0.3586 -0.4676 -0.1372
 2747SOL    HW210720   3.663   1.166   4.838  1.6931  0.2240 -0.0513
 2747SOL    HW310721   3.540   1.217   4.767 -0.2987 -1.6191  1.9118
 2747SOL    MW410722   3.617   1.232   4.806  0.5476 -0.1015 -0.2339
 2748SOL     OW10723   1.604   1.032   1.433 -0.0610  0.6026 -0.5839
 2748SOL    HW210724   1.683   1.087   1.435  0.1447  0.2867  0.7886
 2748SOL    HW310725   1.585   1.023   1.340  0.9646  1.4834 -0.9113
 2748SOL    MW410726   1.612   1.038   1.421 -0.5957 -0.1323 -0.2900
 2749SOL     OW10727   2.365   6.082   4.147 -0.0978  0.3948  0.4511
 2749SOL    HW210728   2.412   5.999   4.131  0.1332  0.6568 -0.2463
 2749SOL    HW310729   2.328   6.105   4.062 -0.4042  0.8636  0.7118
 2749SOL    MW410730   2.366   6.074   4.134 -0.1359 -0.7342 -0.1309
 2750SOL     OW10731   5.677   3.721   5.089 -0.0805  0.4451  0.2099
 2750SOL    HW210732   5.646   3.798   5.137 -1.4996 -0.0176  0.0893
 2750SOL    HW310733   5.686   3.653   5.156 -0.4520  0.2594  0.0743
 2750SOL    MW410734   5.674   3.722   5.105  0.2602  0.0856 -0.4845
 2751SOL     OW10735   5.030   0.715   3.948  0.7134  0.9881  0.2645
 2751SOL    HW210736   4.984   0.695   3.866  0.0859 -1.2358  1.0766
 2751SOL    HW310737   4.963   0.710   4.016  0.8312  4.7137  0.8241
 2751SOL    MW410738   5.015   0.711   3.946  0.1884  0.2913  0.0459
 2752SOL     OW10739   3.192   4.269   2.742  0.1590  0.2644  0.0054
 2752SOL    HW210740   3.134   4.319   2.684 -0.7322 -1.8843 -1.0790
 2752SOL    HW310741   3.260   4.234   2.683 -0.7295 -1.9191  0.1650
 2752SOL    MW410742   3.193   4.271   2.726  0.6702  0.0508 -0.0011
 2753SOL     OW10743   2.890   3.809   2.033 -0.0917 -0.0351 -0.0006
 2753SOL    HW210744   2.822   3.803   1.966 -0.6103  2.2783  0.2128
 2753SOL    HW310745   2.936   3.725   2.029  0.3218  0.1862 -3.7054
 2753SOL    MW410746   2.887   3.798   2.024  0.7035  0.8225 -0.7005
 2754SOL     OW10747   6.437   2.750   0.288 -0.3436 -0.2161 -0.0045
 2754SOL    HW210748   6.421   2.844   0.279 -1.3825 -0.2960  0.8975
 2754SOL    HW310749   6.381   2.710   0.221  0.6579 -0.1807 -0.9027
 2754SOL    MW410750   6.427   2.757   0.278 -1.0368 -0.0854  0.0859
 2755SOL     OW10751   2.077   5.790   4.378  0.4558 -0.0612  0.4401
 2755SOL    HW210752   2.024   5.722   4.420 -0.8598  0.0353 -0.9635
 2755SOL    HW310753   2.137   5.819   4.447 -1.1402 -0.3672  2.0694
 2755SOL    MW410754   2.078   5.785   4.393 -0.1160  0.2650 -0.0656
 2756SOL     OW10755   4.471   1.625   5.220 -0.5237  0.2926 -0.3949
 2756SOL    HW210756   4.533   1.652   5.288  0.0075 -0.7753 -0.4431
 2756SOL    HW310757   4.486   1.531   5.209 -2.0906  0.0236 -0.4769
 2756SOL    MW410758   4.481   1.616   5.227 -0.3017  0.5898  0.1799
 2757SOL     OW10759   1.261   3.732   4.428  0.2350 -0.0188  0.2679
 2757SOL    HW210760   1.183   3.701   4.384  0.9719 -0.4814 -0.7341
 2757SOL    HW310761   1.257   3.693   4.516 -1.6918  1.6286  0.9881
 2757SOL    MW410762   1.250   3.723   4.434  0.2141  0.1085  0.3165
 2758SOL     OW10763   1.498   4.188   4.955  0.1599  0.0571 -0.2277
 2758SOL    HW210764   1.506   4.230   4.869  3.8273 -0.1632 -0.1447
 2758SOL    HW310765   1.527   4.098   4.939  2.3836  0.4047  1.4329
 2758SOL    MW410766   1.503   4.181   4.941 -0.2943 -0.4395  0.0955
 2759SOL     OW10767   2.657   3.436   0.620 -0.1415 -0.0281 -0.2030
 2759SOL    HW210768   2.740   3.389   0.618  0.5366  1.1395 -0.5083
 2759SOL    HW310769   2.598   3.381   0.672  1.3138 -0.0726  1.4813
 2759SOL    MW410770   2.660   3.423   0.626 -0.8414 -0.1003  0.5533
 2760SOL     OW10771   5.785   5.594   5.643 -0.2343 -0.1890 -0.6995
 2760SOL    HW210772   5.840   5.672   5.637 -1.2665  0.5915 -0.1909
 2760SOL    HW310773   5.746   5.598   5.730 -1.6067 -0.3819 -1.2789
 2760SOL    MW410774   5.787   5.605   5.653  0.2056  0.0712 -0.4941
 2761SOL     OW10775   3.792   0.560   0.767 -0.4783  0.3572  0.2052
 2761SOL    HW210776   3.847   0.487   0.795  0.3530  1.0379  0.3701
 2761SOL    HW310777   3.761   0.534   0.680 -0.3722 -0.2841  0.3505
 2761SOL    MW410778   3.795   0.547   0.759  0.5212 -0.1148  0.2097
 2762SOL     OW10779   5.539   1.848   1.389  0.2572  0.1285  0.7024
 2762SOL    HW210780   5.606   1.840   1.458 -0.6873 -0.1575  1.6014
 2762SOL    HW310781   5.463   1.884   1.434 -0.3576 -0.0040 -0.2227
 2762SOL    MW410782   5.538   1.852   1.404 -0.4165 -0.5364 -0.3089
 2763SOL     OW10783   3.481   2.163   2.453 -0.1170 -0.0990 -0.2832
 2763SOL    HW210784   3.502   2.252   2.425  1.8403 -0.4165  0.0440
 2763SOL    HW310785   3.395   2.171   2.494  0.0137  1.6370 -0.2572
 2763SOL    MW410786   3.473   2.176   2.455 -0.6825 -0.1424  0.0702
 2764SOL     OW10787   0.293   2.813   4.570 -0.1425 -0.0510 -0.2124
 2764SOL    HW210788   0.301   2.834   4.477  1.1366 -1.2455 -0.4013
 2764SOL    HW310789   0.254   2.891   4.610  2.0190  1.6362 -1.2607
 2764SOL    MW410790   0.289   2.826   4.563 -0.2987 -0.0492 -0.2085
 2765SOL     OW10791   3.843   2.743   3.567 -0.2058  0.1008  0.3889
 2765SOL    HW210792   3.763   2.793   3.584 -0.0220  0.7231 -0.5087
 2765SOL    HW310793   3.864   2.762   3.476 -0.1252 -1.6147  0.0147
 2765SOL    MW410794   3.835   2.752   3.557 -0.6238  0.3530  0.1440
 2766SOL     OW10795   0.326   0.436   3.344  0.2906  0.8554 -0.5494
 2766SOL    HW210796   0.298   0.440   3.436  0.7679 -1.0521 -0.2878
 2766SOL    HW310797   0.414   0.399   3.347  0.4163  1.0074 -1.7666
 2766SOL    MW410798   0.334   0.432   3.357  0.1303  0.7097  0.9142
 2767SOL     OW10799   1.686   4.312   2.633 -0.3048 -0.0528 -0.4609
 2767SOL    HW210800   1.598   4.331   2.600 -0.3616  0.5003 -0.0078
 2767SOL    HW310801   1.686   4.217   2.646 -1.5535  0.1427  1.4641
 2767SOL    MW410802   1.674   4.302   2.630  0.2364  0.0536  0.1432
 2768SOL     OW10803   3.871   0.676   6.186  0.6855  0.1415  0.4205
 2768SOL    HW210804   3.882   0.708   6.276  1.5557  1.5100 -0.1427
 2768SOL    HW310805   3.880   0.754   6.131  0.0514 -0.6501 -0.8647
 2768SOL    MW410806   3.874   0.691   6.191  0.2774 -0.5555  0.5810
 2769SOL     OW10807   0.256   5.977   3.148  0.1724  0.4661 -0.3427
 2769SOL    HW210808   0.210   6.035   3.088  0.0788 -0.0613 -0.7862
 2769SOL    HW310809   0.277   5.900   3.096  1.2718  0.5555 -0.0564
 2769SOL    MW410810   0.253   5.974   3.134  0.2393 -0.0656 -0.1131
 2770SOL     OW10811   0.322   5.778   3.560  0.2858 -0.2143  0.8202
 2770SOL    HW210812   0.257   5.709   3.545  0.4086  0.0582 -1.3133
 2770SOL    HW310813   0.406   5.733   3.554  0.3495 -0.3071  2.1099
 2770SOL    MW410814   0.325   5.763   3.557  0.2497  0.4638  0.2563
 2771SOL     OW10815   5.162   4.990   6.058 -0.2692  0.1150  0.4967
 2771SOL    HW210816   5.154   5.025   6.147  0.7236 -1.2417  1.1374
 2771SOL    HW310817   5.182   4.898   6.070 -1.6899 -0.4600 -1.1640
 2771SOL    MW410818   5.164   4.983   6.071  0.2160 -0.2276 -0.2176
 2772SOL     OW10819   1.083   2.753   0.169 -0.4873  0.6044 -0.4077
 2772SOL    HW210820   1.009   2.770   0.227  0.4883 -0.9458  1.3753
 2772SOL    HW310821   1.110   2.663   0.188  2.9341  1.6239  0.3377
 2772SOL    MW410822   1.077   2.744   0.179  0.1055 -0.2150 -0.3987
 2773SOL     OW10823   3.015   1.991   3.527  0.5108 -0.0085 -0.1992
 2773SOL    HW210824   3.083   2.032   3.580  1.1749 -1.8538  0.4672
 2773SOL    HW310825   2.933   2.021   3.565  0.9500  1.3402 -0.2875
 2773SOL    MW410826   3.013   2.000   3.539  0.2342 -0.2366 -0.6862
 2774SOL     OW10827   1.295   2.245   5.153  0.3118 -0.3691  0.3348
 2774SOL    HW210828   1.253   2.176   5.204  0.3184  0.3833  1.3996
 2774SOL    HW310829   1.308   2.316   5.216 -1.2112  1.2390 -1.0682
 2774SOL    MW410830   1.291   2.245   5.168 -0.2728  0.9477 -0.5121
 2775SOL     OW10831   1.249   3.576   1.433 -0.0311  0.6096  0.4945
 2775SOL    HW210832   1.330   3.605   1.392  0.3863 -0.8583  0.2240
 2775SOL    HW310833   1.180   3.608   1.374  0.4837 -0.0587 -0.5005
 2775SOL    MW410834   1.250   3.584   1.420  0.6076 -0.3357 -0.1049
 2776SOL     OW10835   2.212   2.852   1.620  0.2409 -0.5473 -0.2463
 2776SOL    HW210836   2.150   2.875   1.689 -0.1108 -0.9944 -0.4121
 2776SOL    HW310837   2.292   2.828   1.667 -0.0309 -0.9535  0.0136
 2776SOL    MW410838   2.215   2.852   1.635  0.4496 -0.1322  0.3417
 2777SOL     OW10839   5.040   4.459   5.862 -0.4370  0.2024 -0.4296
 2777SOL    HW210840   5.119   4.435   5.910 -1.8794 -1.3162  1.3041
 2777SOL    HW310841   5.020   4.382   5.808 -1.3806  0.0722  0.0773
 2777SOL    MW410842   5.048   4.445   5.861  0.2252 -0.4646  0.8543
 2778SOL     OW10843   5.946   2.863   3.807  0.2546  0.3296 -0.4020
 2778SOL    HW210844   5.953   2.898   3.896 -1.4375 -1.6482  0.6023
 2778SOL    HW310845   5.880   2.918   3.765 -0.4683  0.0191  0.2910
 2778SOL    MW410846   5.938   2.875   3.813  0.1159 -0.5852 -0.6540
 2779SOL     OW10847   2.175   2.239   5.882 -0.0417 -0.4998 -0.1201
 2779SOL    HW210848   2.164   2.274   5.793  0.8156  0.7824  0.2477
 2779SOL    HW310849   2.268   2.217   5.887 -0.6040 -3.2422 -0.4407
 2779SOL    MW410850   2.186   2.241   5.871 -0.3171  0.5091 -0.4773
 2780SOL     OW10851   0.864   3.412   4.816  0.4784 -0.1527 -0.4592
 2780SOL    HW210852   0.958   3.428   4.803  0.4624 -0.3292 -0.8121
 2780SOL    HW310853   0.822   3.494   4.793  0.7436  0.9550  2.6178
 2780SOL    MW410854   0.871   3.425   4.811  0.1546 -0.1454 -0.2533
 2781SOL     OW10855   4.551   2.540   4.911 -0.7621 -0.2125 -0.5227
 2781SOL    HW210856   4.597   2.502   4.985  0.9548 -0.3344 -1.6111
 2781SOL    HW310857   4.513   2.621   4.945 -0.4144 -0.4994  0.5888
 2781SOL    MW410858   4.552   2.546   4.925  0.4194  0.3726  0.1456
 2782SOL     OW10859   1.039   3.573   0.295  0.5923 -0.5904 -0.5708
 2782SOL    HW210860   0.971   3.601   0.356  0.6595 -0.2854 -0.6332
 2782SOL    HW310861   0.993   3.554   0.214  0.1287 -3.4619  0.2546
 2782SOL    MW410862   1.024   3.574   0.293  0.2046  0.9754 -0.2012
 2783SOL     OW10863   0.853   1.291   2.469  0.1129 -0.1333  0.5505
 2783SOL    HW210864   0.790   1.356   2.500 -0.6254 -0.3151 -0.5244
 2783SOL    HW310865   0.827   1.210   2.513 -0.4038 -0.2011  0.1350
 2783SOL    MW410866   0.841   1.289   2.479 -0.1861 -0.0480  0.2923
 2784SOL     OW10867   4.463   3.197   4.010  0.0811 -0.2268  0.0855
 2784SOL    HW210868   4.400   3.254   3.965 -0.8561 -1.0065  0.3910
 2784SOL    HW310869   4.458   3.114   3.963  1.2319 -0.1658 -0.1745
 2784SOL    MW410870   4.454   3.194   3.998 -0.0486 -0.4904  0.0435
 2785SOL     OW10871   3.645   3.414   1.858 -0.6117  0.3472  0.7211
 2785SOL    HW210872   3.646   3.318   1.866  3.7904  0.2214  0.9921
 2785SOL    HW310873   3.701   3.445   1.929 -1.6097  3.1555  0.4011
 2785SOL    MW410874   3.653   3.405   1.868 -0.5608 -0.0431 -0.2290
 2786SOL     OW10875   3.030   5.068   5.869  0.5508  0.4406  0.0299
 2786SOL    HW210876   3.036   5.152   5.915  0.4714  1.5159 -1.7985
 2786SOL    HW310877   2.948   5.074   5.821 -0.1150 -1.2772  0.9029
 2786SOL    MW410878   3.020   5.080   5.869 -0.0082 -0.0265  0.1597
 2787SOL     OW10879   1.015   3.781   0.553 -0.2168  0.4870 -0.2988
 2787SOL    HW210880   1.024   3.688   0.576  2.3100  0.8377  0.3326
 2787SOL    HW310881   0.991   3.824   0.635 -1.1359  0.4556 -0.5385
 2787SOL    MW410882   1.013   3.774   0.566  0.2571 -0.1084 -0.1514
 2788SOL     OW10883   6.411   1.903   5.052 -0.1441  0.6567 -0.1776
 2788SOL    HW210884   6.491   1.910   5.001  0.2052  0.7435  0.3696
 2788SOL    HW310885   6.352   1.967   5.014  0.6135  1.7412  0.4266
 2788SOL    MW410886   6.414   1.912   5.040  0.1106 -0.0571  0.1654
 2789SOL     OW10887   5.429   0.477   2.247  0.4601 -0.3165  0.1712
 2789SOL    HW210888   5.501   0.436   2.296  1.3023 -0.4619 -1.1500
 2789SOL    HW310889   5.371   0.404   2.224 -0.1970 -0.1875  1.3161
 2789SOL    MW410890   5.431   0.462   2.250  0.1366 -0.1150 -0.2987
 2790SOL     OW10891   6.349   5.906   2.157 -0.5502 -0.1243  0.0187
 2790SOL    HW210892   6.379   5.943   2.074  1.5971 -1.9962 -0.1326
 2790SOL    HW310893   6.274   5.852   2.134  0.1395 -0.7759 -0.7952
 2790SOL    MW410894   6.343   5.904   2.143 -0.3720 -0.2525  0.1191
 2791SOL     OW10895   5.245   2.449   2.685 -0.0843 -0.0527 -0.0574
 2791SOL    HW210896   5.279   2.513   2.623 -1.8339  1.4014  0.4134
 2791SOL    HW310897   5.168   2.412   2.642  0.2078 -0.9783  0.1879
 2791SOL    MW410898   5.240   2.452   2.671  0.6798 -0.0661 -0.2955
 2792SOL     OW10899   5.040   6.288   0.037 -0.2143 -0.6321 -0.7967
 2792SOL    HW210900   4.952   6.280   0.072  0.4778 -0.0324  1.2166
 2792SOL    HW310901   5.072   6.198   0.030 -0.6241 -0.7969 -0.5718
 2792SOL    MW410902   5.033   6.275   0.040 -0.3693 -0.5952  0.1061
 2793SOL     OW10903   5.053   5.373   1.220  0.5607 -0.2938 -0.2684
 2793SOL    HW210904   4.996   5.296   1.221 -0.6474  0.5521 -0.6338
 2793SOL    HW310905   5.053   5.401   1.128  2.8446 -1.1425 -0.5850
 2793SOL    MW410906   5.045   5.367   1.208  0.1119 -0.0718  0.4202
 2794SOL     OW10907   4.633   4.727   6.269  0.1806 -0.5098 -0.1948
 2794SOL    HW210908   4.623   4.731   6.364  0.2247  1.5715 -0.2324
 2794SOL    HW310909   4.545   4.708   6.236 -0.3229  1.0755  0.1788
 2794SOL    MW410910   4.620   4.725   6.277  0.2346 -0.3667 -0.0301
 2795SOL     OW10911   4.926   4.833   4.460 -0.2855  0.1710 -0.3325
 2795SOL    HW210912   4.911   4.928   4.461  0.2430  0.2718 -1.0965
 2795SOL    HW310913   4.867   4.799   4.528  0.0339  1.1120  0.4383
 2795SOL    MW410914   4.916   4.841   4.469 -0.0564 -0.2130  0.3410
 2796SOL     OW10915   5.005   1.790   0.858 -0.3034  0.7495  0.1348
 2796SOL    HW210916   5.020   1.810   0.950 -0.1062  2.2036 -0.1829
 2796SOL    HW310917   4.913   1.765   0.853  0.1965 -1.5553  1.0354
 2796SOL    MW410918   4.995   1.789   0.870 -0.2254 -0.3190  0.1265
 2797SOL     OW10919   1.436   1.154   5.633 -0.5533 -0.9006 -0.0208
 2797SOL    HW210920   1.494   1.227   5.614  0.1306 -1.5144 -0.3517
 2797SOL    HW310921   1.351   1.182   5.599 -0.1360 -0.5371 -0.8083
 2797SOL    MW410922   1.432   1.167   5.626 -0.0593  0.5565  0.0930
 2798SOL     OW10923   1.161   3.569   1.709  0.0416  0.8420 -0.2988
 2798SOL    HW210924   1.175   3.476   1.729 -0.6053  0.2994 -2.0946
 2798SOL    HW310925   1.203   3.581   1.623 -1.0491  1.8590 -0.7175
 2798SOL    MW410926   1.168   3.558   1.700 -0.6631 -0.3395  0.1310
 2799SOL     OW10927   0.468   1.488   0.060 -0.1850 -0.3327 -0.2827
 2799SOL    HW210928   0.442   1.402   0.026 -1.6840  0.2130 -0.6186
 2799SOL    HW310929   0.553   1.473   0.100 -0.3957 -1.9688 -0.3620
 2799SOL    MW410930   0.476   1.475   0.061  0.5365  0.9993 -0.3342
 2800SOL     OW10931   1.168   3.114   3.973  0.1929 -0.6776  0.5854
 2800SOL    HW210932   1.263   3.126   3.986  0.0941  0.0852  0.6483
 2800SOL    HW310933   1.154   3.137   3.881 -0.1070  0.4617  0.8898
 2800SOL    MW410934   1.179   3.119   3.962 -0.2414 -0.1698  0.5157
 2801SOL     OW10935   3.997   3.942   4.617 -0.2207 -0.2972 -0.3300
 2801SOL    HW210936   4.013   3.852   4.589  0.3865 -0.2136 -0.2575
 2801SOL    HW310937   4.079   3.970   4.656 -0.3328  0.3677 -0.5596
 2801SOL    MW410938   4.010   3.934   4.618  0.4957 -0.3015 -0.5280
 2802SOL     OW10939   2.751   6.296   2.331  0.4301  0.0827 -0.4032
 2802SOL    HW210940   2.759   6.392   2.331  0.1501  0.1064 -0.4370
 2802SOL    HW310941   2.841   6.265   2.320  0.4612  0.3509 -0.9781
 2802SOL    MW410942   2.764   6.305   2.329  0.2174  0.0196  0.3374
 2803SOL     OW10943   1.940   2.840   2.278  0.2393 -0.3498  0.2774
 2803SOL    HW210944   1.894   2.918   2.247  1.5552  0.0482 -0.7536
 2803SOL    HW310945   1.977   2.866   2.362  0.7223  0.1611 -0.0913
 2803SOL    MW410946   1.939   2.854   2.285 -0.4747 -0.0312  0.5507
 2804SOL     OW10947   4.206   0.835   5.967 -1.1274 -0.2191 -0.0813
 2804SOL    HW210948   4.152   0.777   5.913 -1.5911 -2.2039  2.3085
 2804SOL    HW310949   4.262   0.776   6.017 -0.0601  1.5465  0.9288
 2804SOL    MW410950   4.207   0.820   5.967 -0.2100  0.5652 -0.6914
 2805SOL     OW10951   2.889   6.215   3.444  0.0591  0.0117  0.1704
 2805SOL    HW210952   2.960   6.168   3.488  1.7713  1.9702 -0.3337
 2805SOL    HW310953   2.851   6.270   3.512  0.0593  0.0931  0.1052
 2805SOL    MW410954   2.894   6.216   3.458 -0.0358 -0.1831 -0.0584
 2806SOL     OW10955   3.639   2.596   2.572 -0.2989 -0.4504  0.4043
 2806SOL    HW210956   3.714   2.548   2.537 -0.2422  1.4173 -2.4171
 2806SOL    HW310957   3.611   2.652   2.500 -1.7595  2.0596  2.7147
 2806SOL    MW410958   3.645   2.597   2.558  0.4591 -0.0693  0.3182
 2807SOL     OW10959   2.566   1.137   4.091 -0.0119  0.0297  0.6181
 2807SOL    HW210960   2.590   1.230   4.100  3.1129 -0.6354  0.4799
 2807SOL    HW310961   2.609   1.110   4.010 -0.8333 -1.5640  0.6956
 2807SOL    MW410962   2.575   1.146   4.082  0.0332  0.1940  0.1027
 2808SOL     OW10963   5.264   1.989   3.112 -0.0325  0.4115 -0.0571
 2808SOL    HW210964   5.323   1.919   3.141  0.4298  1.0666  0.6362
 2808SOL    HW310965   5.205   1.947   3.050  0.1905 -0.6030  0.4029
 2808SOL    MW410966   5.264   1.974   3.108 -0.2320  0.4252 -0.5762
 2809SOL     OW10967   5.432   0.648   6.233  0.3959 -0.4553 -0.0148
 2809SOL    HW210968   5.397   0.734   6.207  0.1626 -0.2733  0.8562
 2809SOL    HW310969   5.423   0.594   6.155 -0.2876  0.0680 -0.3134
 2809SOL    MW410970   5.426   0.652   6.219  0.3259  0.3399  0.7856
 2810SOL     OW10971   5.156   1.389   1.355  0.0460 -0.8305  0.3558
 2810SOL    HW210972   5.135   1.419   1.444 -2.4303  0.7857 -0.6457
 2810SOL    HW310973   5.074   1.352   1.323  0.5279 -0.2622 -1.6573
 2810SOL    MW410974   5.142   1.388   1.362  1.0526 -0.3334 -0.6766
 2811SOL     OW10975   3.901   6.191   2.201  0.5154  0.0727 -0.3588
 2811SOL    HW210976   3.918   6.277   2.162 -1.2631  0.4208 -0.4300
 2811SOL    HW310977   3.843   6.209   2.275  1.1089 -0.9519  0.3843
 2811SOL    MW410978   3.896   6.205   2.206  0.1843  0.1106 -0.0459
 2812SOL     OW10979   5.963   3.655   5.607  0.7110  0.2658  0.0968
 2812SOL    HW210980   5.930   3.639   5.696 -0.6151  0.1768 -0.3844
 2812SOL    HW310981   6.045   3.606   5.602 -0.0679 -1.1594  0.7205
 2812SOL    MW410982   5.970   3.647   5.618  0.5661 -0.0956 -0.7083
 2813SOL     OW10983   1.732   1.053   1.970 -0.5332  1.1005  0.8860
 2813SOL    HW210984   1.755   0.997   1.896 -1.0961 -0.7971  2.0847
 2813SOL    HW310985   1.752   1.142   1.940  2.3000  0.1411 -0.3822
 2813SOL    MW410986   1.737   1.058   1.957  0.5417 -0.3420  0.0001
 2814SOL     OW10987   1.414   0.691   0.859 -0.2453  0.9604 -0.3120
 2814SOL    HW210988   1.341   0.636   0.888  0.3796 -0.2140 -0.8845
 2814SOL    HW310989   1.376   0.747   0.792 -0.2790 -0.9941 -2.0475
 2814SOL    MW410990   1.399   0.691   0.854  0.1020  0.3616 -0.3171
 2815SOL     OW10991   5.955   5.290   1.747  0.0712  0.3423 -0.3969
 2815SOL    HW210992   5.928   5.201   1.770 -1.4748  0.4869 -1.4736
 2815SOL    HW310993   5.873   5.334   1.724  0.8380  1.9845 -0.1142
 2815SOL    MW410994   5.940   5.284   1.747 -0.2937  0.1264 -0.5568
 2816SOL     OW10995   2.538   2.983   1.914 -0.3000  0.0763  0.5520
 2816SOL    HW210996   2.530   3.044   1.987  0.5735  0.1564  0.5907
 2816SOL    HW310997   2.534   2.896   1.955  0.7333  0.1177  0.7812
 2816SOL    MW410998   2.536   2.979   1.929  0.5187  0.2110  0.2653
 2817SOL     OW10999   4.365   3.599   5.093 -0.3124  0.3050  0.2222
 2817SOL    HW211000   4.418   3.625   5.168  1.2148  1.4849 -1.1968
 2817SOL    HW311001   4.403   3.646   5.019 -0.8408 -1.9177 -1.5761
 2817SOL    MW411002   4.377   3.609   5.093 -0.3927  0.3580 -0.1683
 2818SOL     OW11003   4.878   4.006   5.357 -0.1343  0.6338 -0.0290
 2818SOL    HW211004   4.843   4.030   5.443  0.4212 -2.7860  1.3156
 2818SOL    HW311005   4.814   3.944   5.321  1.0117 -0.1792 -0.7542
 2818SOL    MW411006   4.865   4.001   5.364  0.0262  0.2260 -0.0646
 2819SOL     OW11007   6.052   1.173   4.639 -0.8076 -0.2773 -0.7522
 2819SOL    HW211008   6.132   1.122   4.643 -0.9179 -0.4644 -0.9195
 2819SOL    HW311009   5.984   1.113   4.670 -0.6235  0.4238  1.1758
 2819SOL    MW411010   6.053   1.159   4.644 -0.4411 -0.4309  0.1096
 2820SOL     OW11011   2.330   0.565   2.759  0.3294  0.4666 -0.1895
 2820SOL    HW211012   2.383   0.645   2.760  0.1366  0.6060  1.2580
 2820SOL    HW311013   2.381   0.502   2.809 -0.7186  0.5192  0.9797
 2820SOL    MW411014   2.344   0.567   2.765  0.1163 -0.4892  0.8652
 2821SOL     OW11015   1.979   0.817   2.520  0.2139  0.2584 -0.2326
 2821SOL    HW211016   2.009   0.731   2.551 -0.6274 -0.0159 -0.1387
 2821SOL    HW311017   1.885   0.806   2.509  0.0346  1.2929  0.1777
 2821SOL    MW411018   1.971   0.804   2.523  0.3996 -0.2037  0.3899
 2822SOL     OW11019   5.272   0.228   1.142 -0.3135  0.0502 -0.0569
 2822SOL    HW211020   5.279   0.156   1.205  0.8947 -0.3202 -0.5805
 2822SOL    HW311021   5.199   0.280   1.173 -1.3396 -1.5009  0.2584
 2822SOL    MW411022   5.263   0.225   1.154 -0.4076  0.0992  0.4258
 2823SOL     OW11023   1.182   2.863   5.529 -0.0786 -0.4382  0.6187
 2823SOL    HW211024   1.220   2.866   5.442 -2.6295 -2.1767 -0.6907
 2823SOL    HW311025   1.107   2.923   5.526 -2.1532 -2.8411  0.4144
 2823SOL    MW411026   1.177   2.871   5.517 -0.1941  0.1225  0.0713
 2824SOL     OW11027   2.493   4.331   2.133  0.3101 -0.1074 -0.0458
 2824SOL    HW211028   2.496   4.328   2.229 -0.7323  0.4357  0.0135
 2824SOL    HW311029   2.473   4.240   2.108 -2.2698  0.2503  0.4164
 2824SOL    MW411030   2.490   4.318   2.142  0.3118  0.3551 -0.0642
 2825SOL     OW11031   0.793   6.330   2.242 -0.7858 -0.4906  0.0191
 2825SOL    HW211032   0.857   6.262   2.263 -1.1170 -0.6659  0.4790
 2825SOL    HW311033   0.736   6.290   2.176 -0.1069 -0.1482 -0.7959
 2825SOL    MW411034   0.794   6.316   2.236  0.4443 -0.1407  0.3010
 2826SOL     OW11035   6.271   4.589   5.422 -0.0644  0.1426  0.9211
 2826SOL    HW211036   6.330   4.608   5.495  0.8306 -1.5204  0.6717
 2826SOL    HW311037   6.196   4.546   5.462 -0.2280  0.5272  1.0260
 2826SOL    MW411038   6.269   4.586   5.437  0.1342  0.0121 -0.0664
 2827SOL     OW11039   0.803   1.151   3.180 -0.3529 -0.1045 -0.2235
 2827SOL    HW211040   0.785   1.191   3.095  1.8479 -0.3256 -0.8597
 2827SOL    HW311041   0.894   1.124   3.175  0.1509  0.7473  2.5741
 2827SOL    MW411042   0.812   1.153   3.168  0.2814  0.1483  0.4687
 2828SOL     OW11043   6.001   5.169   0.259  0.2525 -0.0683 -0.8269
 2828SOL    HW211044   6.056   5.230   0.309  0.6359 -1.8125  0.9715
 2828SOL    HW311045   5.914   5.178   0.297  0.4230 -1.0028 -0.1983
 2828SOL    MW411046   5.997   5.178   0.270  0.2042  0.1837 -0.0307
 2829SOL     OW11047   0.175   0.606   3.827  0.4837  0.2866  0.7861
 2829SOL    HW211048   0.143   0.695   3.844  1.9715  0.9502  0.1775
 2829SOL    HW311049   0.253   0.598   3.882  2.8720  0.9335 -2.2351
 2829SOL    MW411050   0.181   0.617   3.837  0.3747  1.0607 -0.0126
 2830SOL     OW11051   4.532   0.227   0.172 -0.4947 -0.3604  0.2037
 2830SOL    HW211052   4.495   0.149   0.131 -0.8206 -0.6973  1.1081
 2830SOL    HW311053   4.624   0.226   0.146 -0.7491 -0.4188 -0.7170
 2830SOL    MW411054   4.540   0.216   0.163  0.3838  0.5018 -0.6903
 2831SOL     OW11055   0.846   1.375   1.247  0.0139 -0.2265 -0.0731
 2831SOL    HW211056   0.872   1.457   1.290  1.2253  0.2860 -1.7061
 2831SOL    HW311057   0.773   1.400   1.191  0.2787 -0.2984 -0.4496
 2831SOL    MW411058   0.840   1.389   1.245 -0.3276  0.0082  0.3831
 2832SOL     OW11059   1.775   4.742   0.834  0.5605  0.1160 -0.0227
 2832SOL    HW211060   1.693   4.749   0.882  0.1902 -1.9248 -0.2336
 2832SOL    HW311061   1.760   4.790   0.753  0.3139  1.4469  0.7838
 2832SOL    MW411062   1.762   4.749   0.829  0.4960 -0.2619 -0.2871
 2833SOL     OW11063   1.269   2.216   3.563 -0.3508 -0.1342  0.2089
 2833SOL    HW211064   1.249   2.282   3.496 -2.1847 -2.4442 -1.6613
 2833SOL    HW311065   1.197   2.222   3.626 -0.6818 -0.5637 -0.1298
 2833SOL    MW411066   1.257   2.226   3.563  0.7993  0.1898 -0.3899
 2834SOL     OW11067   0.100   2.043   4.305 -0.6513  0.3295 -0.3318
 2834SOL    HW211068   0.121   2.089   4.224  1.6671 -2.7265 -1.6646
 2834SOL    HW311069   0.009   2.014   4.294 -0.6787  0.7881 -1.3914
 2834SOL    MW411070   0.091   2.045   4.293 -0.8497  0.1986 -0.4241
 2835SOL     OW11071   5.734   2.508   0.281  0.0106  0.1134  0.8808
 2835SOL    HW211072   5.697   2.424   0.255  1.2188 -0.3168  0.4873
 2835SOL    HW311073   5.687   2.573   0.229  1.2497 -0.5926 -1.2607
 2835SOL    MW411074   5.723   2.506   0.271  0.5545 -0.2172 -0.5882
 2836SOL     OW11075   3.176   4.718   3.629  0.5369 -0.1652 -0.1997
 2836SOL    HW211076   3.227   4.706   3.549 -1.1045 -0.4057 -1.2591
 2836SOL    HW311077   3.109   4.783   3.605  1.2816  1.3775  1.6212
 2836SOL    MW411078   3.174   4.725   3.615  0.1261 -0.0653 -0.6776
 2837SOL     OW11079   0.841   2.611   4.696 -0.1391 -0.0153  0.2262
 2837SOL    HW211080   0.919   2.633   4.645 -0.2037 -1.7057 -0.6794
 2837SOL    HW311081   0.855   2.653   4.781  1.1467  0.7843 -0.3547
 2837SOL    MW411082   0.853   2.620   4.700  0.4705 -0.4581  0.6370
 2838SOL     OW11083   5.213   2.909   2.028 -0.1000  0.0147 -0.0815
 2838SOL    HW211084   5.279   2.938   2.091  0.5405 -0.1334 -0.6714
 2838SOL    HW311085   5.174   2.990   1.995  0.0557  0.1165 -0.0178
 2838SOL    MW411086   5.217   2.923   2.032 -0.0297  0.2029 -0.1940
 2839SOL     OW11087   1.535   4.602   4.352 -0.0280  1.0857  0.1181
 2839SOL    HW211088   1.539   4.585   4.446  1.8873  2.6152  0.3894
 2839SOL    HW311089   1.621   4.575   4.318 -1.1374 -0.7022 -1.4923
 2839SOL    MW411090   1.547   4.596   4.360 -0.0352  0.3257  0.0055
 2840SOL     OW11091   4.590   0.935   3.299 -0.3819 -0.6809  0.0219
 2840SOL    HW211092   4.585   1.031   3.299  1.5881 -0.4957  1.9673
 2840SOL    HW311093   4.558   0.909   3.386 -0.2424 -1.7439 -0.2267
 2840SOL    MW411094   4.585   0.944   3.310  0.7669 -0.0050 -0.3112
 2841SOL     OW11095   3.098   4.616   1.281 -0.7687  0.1186  0.6877
 2841SOL    HW211096   3.093   4.547   1.215  0.0327 -0.7048  1.4433
 2841SOL    HW311097   3.007   4.633   1.305 -1.0458  0.1606 -0.3407
 2841SOL    MW411098   3.086   4.609   1.276 -0.1021  0.0430 -0.4121
 2842SOL     OW11099   1.125   4.688   5.522  0.3264 -0.2188 -0.3691
 2842SOL    HW211100   1.094   4.602   5.551 -0.4777  0.0594 -0.3625
 2842SOL    HW311101   1.126   4.681   5.426 -0.3241 -0.0506 -0.3938
 2842SOL    MW411102   1.121   4.675   5.513  0.3468  0.3387 -0.0190
 2843SOL     OW11103   5.476   4.432   6.091  0.2680 -0.3812 -0.2751
 2843SOL    HW211104   5.497   4.382   6.170  1.6507 -0.1217 -0.4561
 2843SOL    HW311105   5.521   4.385   6.021 -0.4980 -0.2987 -0.8289
 2843SOL    MW411106   5.485   4.419   6.092 -0.7392  0.2215 -0.3016
 2844SOL     OW11107   5.782   4.486   3.082 -0.4050 -0.7923  0.1341
 2844SOL    HW211108   5.843   4.551   3.116  0.2609 -1.9450  1.2456
 2844SOL    HW311109   5.705   4.491   3.139 -0.9236 -0.0700 -0.6123
 2844SOL    MW411110   5.780   4.495   3.094 -0.0007 -0.7843  0.4291
 2845SOL     OW11111   4.935   1.407   4.041 -0.2496 -0.3376  0.2394
 2845SOL    HW211112   5.009   1.370   3.993  0.3332  2.8959 -1.6576
 2845SOL    HW311113   4.974   1.457   4.112 -0.3358  2.4330 -1.5110
 2845SOL    MW411114   4.950   1.409   4.044 -0.4029 -0.6775  0.1759
 2846SOL     OW11115   4.890   0.515   5.472 -0.1671 -0.2673 -0.8823
 2846SOL    HW211116   4.921   0.453   5.538 -1.0867 -0.6224 -0.7676
 2846SOL    HW311117   4.859   0.590   5.523 -2.2156 -1.1210 -0.7648
 2846SOL    MW411118   4.890   0.517   5.487 -0.1985  0.1653  0.2944
 2847SOL     OW11119   5.386   1.563   0.306  0.2249  0.6859 -0.8118
 2847SOL    HW211120   5.460   1.618   0.280  1.4035 -1.3402 -2.0673
 2847SOL    HW311121   5.356   1.523   0.224 -2.0414  1.1382 -0.2628
 2847SOL    MW411122   5.392   1.565   0.291  0.5821  0.2818  0.0789
 2848SOL     OW11123   5.790   5.983   3.726  0.0128 -0.6482  0.4366
 2848SOL    HW211124   5.776   5.952   3.637  0.0770 -0.3085  0.3073
 2848SOL    HW311125   5.774   5.906   3.781 -0.0797 -0.8440  0.1371
 2848SOL    MW411126   5.786   5.969   3.722 -0.7820 -0.1879  0.1378
 2849SOL     OW11127   3.855   4.385   5.507  0.1997  0.6773 -0.2434
 2849SOL    HW211128   3.762   4.403   5.516 -0.0970 -1.1819  0.6912
 2849SOL    HW311129   3.867   4.365   5.414 -0.6993 -0.8998 -0.0407
 2849SOL    MW411130   3.844   4.385   5.496  0.3659  0.1129  0.5819
 2850SOL     OW11131   1.624   3.835   0.702  0.6156  0.0271 -0.4264
 2850SOL    HW211132   1.713   3.854   0.734 -0.1190 -1.2605  2.7634
 2850SOL    HW311133   1.625   3.742   0.680  0.5655  0.4774 -2.5060
 2850SOL    MW411134   1.636   3.826   0.704  0.0452  0.6308 -1.0098
 2851SOL     OW11135   3.685   3.596   2.506 -0.3390 -0.3737 -0.4352
 2851SOL    HW211136   3.771   3.555   2.498  0.8399  1.9948 -0.7844
 2851SOL    HW311137   3.659   3.616   2.417  0.9255  2.9690 -0.1786
 2851SOL    MW411138   3.693   3.593   2.493  0.3196  0.1289  0.4136
 2852SOL     OW11139   4.637   0.965   4.330 -0.2796  0.2312  0.3602
 2852SOL    HW211140   4.690   1.043   4.350 -0.0133 -0.3472  2.0261
 2852SOL    HW311141   4.555   0.980   4.377 -0.2887 -0.4194  0.5534
 2852SOL    MW411142   4.633   0.977   4.338  0.8186 -0.0226 -0.3826
 2853SOL     OW11143   3.852   6.189   1.331 -0.3432 -0.1447 -0.0328
 2853SOL    HW211144   3.808   6.104   1.329 -0.8964  0.1485 -0.8119
 2853SOL    HW311145   3.874   6.202   1.423 -0.1966 -1.1563  0.0864
 2853SOL    MW411146   3.849   6.179   1.343 -0.6677  0.0166 -0.0567
 2854SOL     OW11147   3.065   2.307   2.454 -0.2092  0.0350 -0.1807
 2854SOL    HW211148   3.051   2.383   2.510 -0.8433 -0.9749  1.0836
 2854SOL    HW311149   3.128   2.253   2.503  2.0722  0.7639 -2.1077
 2854SOL    MW411150   3.072   2.310   2.468  0.1186 -0.2269  0.4584
 2855SOL     OW11151   6.126   5.482   3.507  0.1590 -0.0445  0.4379
 2855SOL    HW211152   6.155   5.570   3.484  0.1574 -0.2348 -0.3265
 2855SOL    HW311153   6.170   5.462   3.589 -0.8961  1.1865  1.3345
 2855SOL    MW411154   6.136   5.491   3.515  0.2167  0.3566  0.5206
 2856SOL     OW11155   2.492   3.563   3.584 -0.2392  0.3973 -0.1102
 2856SOL    HW211156   2.507   3.634   3.523  1.2767  1.5161  1.4664
 2856SOL    HW311157   2.407   3.526   3.558 -0.3799  1.8216 -1.8531
 2856SOL    MW411158   2.483   3.567   3.573  0.0456 -0.0129  0.1306
 2857SOL     OW11159   5.138   1.169   5.912 -0.1508  0.1746 -0.1036
 2857SOL    HW211160   5.175   1.109   5.847  2.7429  1.6679 -0.0185
 2857SOL    HW311161   5.127   1.252   5.865  1.8982  1.2525  1.1535
 2857SOL    MW411162   5.141   1.172   5.897  0.5031 -0.0654  0.1255
 2858SOL     OW11163   5.167   1.081   3.032  0.1746  0.1467 -0.4437
 2858SOL    HW211164   5.150   0.994   2.997 -0.4958  0.3659 -0.6786
 2858SOL    HW311165   5.200   1.066   3.120 -1.1856 -0.3157  0.0087
 2858SOL    MW411166   5.169   1.068   3.039 -0.0920 -0.5109 -0.0177
 2859SOL     OW11167   3.493   4.589   3.789 -0.2230  0.3187 -0.0720
 2859SOL    HW211168   3.502   4.540   3.707  1.4846 -1.5237  1.1126
 2859SOL    HW311169   3.401   4.575   3.814 -0.3966 -0.2862 -0.9686
 2859SOL    MW411170   3.482   4.581   3.781 -0.4911  0.1773  0.1737
 2860SOL     OW11171   0.920   6.043   2.024  0.5736 -0.4879  0.8054
 2860SOL    HW211172   0.843   6.099   2.033  1.9311  1.3063  2.1841
 2860SOL    HW311173   0.969   6.080   1.950  0.1063 -1.6587 -0.1099
 2860SOL    MW411174   0.917   6.055   2.016 -0.0826  0.3736  0.2117
 2861SOL     OW11175   1.195   3.755   2.473 -0.0894  0.5492  0.2926
 2861SOL    HW211176   1.265   3.792   2.419  0.1098  0.9535  0.8321
 2861SOL    HW311177   1.122   3.742   2.411  0.8986 -1.2104 -0.5945
 2861SOL    MW411178   1.195   3.758   2.458 -0.1066  0.3354  0.2872
 2862SOL     OW11179   1.322   1.594   3.618 -0.4878 -0.5236  0.0634
 2862SOL    HW211180   1.328   1.502   3.643  1.5602 -0.4331  0.1365
 2862SOL    HW311181   1.386   1.604   3.548 -0.4175  0.9035  0.2915
 2862SOL    MW411182   1.332   1.583   3.612 -0.2005 -0.5939  0.5384
 2863SOL     OW11183   3.814   3.098   4.492  0.6095 -0.5603 -0.0619
 2863SOL    HW211184   3.817   3.096   4.587  1.7502 -0.3681 -0.0788
 2863SOL    HW311185   3.857   3.017   4.465 -1.2073 -1.4370 -0.4175
 2863SOL    MW411186   3.820   3.087   4.501 -0.4846 -0.5199 -0.0353
 2864SOL     OW11187   3.862   4.627   4.690 -0.2103 -0.2919  0.1324
 2864SOL    HW211188   3.891   4.655   4.777  2.5941  0.1497 -0.8247
 2864SOL    HW311189   3.903   4.690   4.631 -1.1533 -1.2415 -1.5821
 2864SOL    MW411190   3.871   4.639   4.694  0.1444  0.6883 -0.2630
 2865SOL     OW11191   4.458   3.154   6.012 -0.7438  0.1099  0.6260
 2865SOL    HW211192   4.438   3.248   6.008 -1.7930 -0.1183  0.2284
 2865SOL    HW311193   4.390   3.113   5.959 -1.5582 -1.0652  2.4811
 2865SOL    MW411194   4.446   3.161   6.004 -0.4818 -0.3361  0.7643
 2866SOL     OW11195   0.831   0.465   0.292  0.1793  0.2893 -0.0611
 2866SOL    HW211196   0.850   0.524   0.366  0.3130  0.3847 -0.1703
 2866SOL    HW311197   0.826   0.523   0.216  0.9054  0.0938 -0.2647
 2866SOL    MW411198   0.833   0.481   0.292  0.0228 -0.0808 -0.3011
 2867SOL     OW11199   1.385   5.652   1.924 -0.1421 -0.1969  0.5096
 2867SOL    HW211200   1.405   5.571   1.878 -1.0006 -0.2958  0.2905
 2867SOL    HW311201   1.408   5.635   2.016  0.8924 -0.2417  0.2573
 2867SOL    MW411202   1.391   5.639   1.930  0.1641 -0.2039 -0.3539
 2868SOL     OW11203   1.748   3.816   3.728 -0.1484 -0.0850  0.3771
 2868SOL    HW211204   1.693   3.878   3.776  1.2539  0.6497  1.0966
 2868SOL    HW311205   1.825   3.804   3.784  1.0632 -0.0199 -1.1979
 2868SOL    MW411206   1.751   3.823   3.742  0.6318 -0.3200  0.4198
 2869SOL     OW11207   0.599   5.302   5.391 -0.3431 -0.9255  0.2033
 2869SOL    HW211208   0.655   5.379   5.405 -0.3196 -1.3993  3.5638
 2869SOL    HW311209   0.652   5.243   5.338  1.3425 -0.3039  1.1112
 2869SOL    MW411210   0.614   5.305   5.386 -0.3855 -0.0759  0.1705
 2870SOL     OW11211   4.495   1.886   1.307  0.2150  0.4804 -0.0574
 2870SOL    HW211212   4.483   1.838   1.226  1.4174  1.0647 -0.6045
 2870SOL    HW311213   4.584   1.865   1.335 -0.1935  0.2593  1.1298
 2870SOL    MW411214   4.505   1.877   1.300  0.7692 -0.2226  0.4647
 2871SOL     OW11215   1.044   5.423   2.348  0.1551 -0.4157  0.0053
 2871SOL    HW211216   1.090   5.353   2.394 -1.6978 -2.9375 -1.7364
 2871SOL    HW311217   1.003   5.475   2.418  1.4830 -1.0930  1.3305
 2871SOL    MW411218   1.045   5.421   2.363 -0.0305  0.4628 -0.4445
 2872SOL     OW11219   0.787   3.513   3.933  0.0047 -0.3800  0.1358
 2872SOL    HW211220   0.775   3.424   3.901  1.5817  0.1369 -2.1867
 2872SOL    HW311221   0.878   3.534   3.912  0.6291  0.7601  3.4587
 2872SOL    MW411222   0.797   3.504   3.926 -0.1278  0.9386 -0.4778
 2873SOL     OW11223   1.212   1.981   6.084  0.1094 -0.2565 -0.2148
 2873SOL    HW211224   1.288   1.956   6.138 -0.3910 -0.3731  0.4436
 2873SOL    HW311225   1.136   1.957   6.137 -0.4029 -1.1005 -1.3100
 2873SOL    MW411226   1.212   1.975   6.098  0.2598 -0.4749  0.1107
 2874SOL     OW11227   2.591   3.911   2.287 -0.4569  0.3615  0.0199
 2874SOL    HW211228   2.498   3.927   2.268 -1.0163  0.0550  2.2388
 2874SOL    HW311229   2.596   3.818   2.308  0.2141  0.5153  0.5926
 2874SOL    MW411230   2.579   3.901   2.287  0.2289  0.1727  0.1296
 2875SOL     OW11231   1.057   1.897   0.935 -0.1697  0.4252 -0.1410
 2875SOL    HW211232   1.151   1.904   0.952 -0.1712  0.6422 -0.2256
 2875SOL    HW311233   1.018   1.893   1.022 -0.0536 -0.0670 -0.1060
 2875SOL    MW411234   1.064   1.898   0.949  0.3628 -0.1274  0.1882
 2876SOL     OW11235   3.592   1.286   3.693  0.1476  0.4392 -0.0762
 2876SOL    HW211236   3.644   1.312   3.768 -0.1130  0.2337  0.1748
 2876SOL    HW311237   3.512   1.338   3.701 -0.9832 -1.4173  1.1884
 2876SOL    MW411238   3.588   1.296   3.704  0.1736 -0.2186 -0.2154
 2877SOL     OW11239   5.836   5.916   3.312 -0.1275 -0.2571  0.4294
 2877SOL    HW211240   5.903   5.954   3.256  1.5008 -2.4513  0.7149
 2877SOL    HW311241   5.806   5.988   3.367  2.0590  0.8267  0.3123
 2877SOL    MW411242   5.841   5.930   3.312  0.6904 -0.2788  0.6616
 2878SOL     OW11243   0.925   4.394   3.555 -0.0146 -0.2195 -0.0690
 2878SOL    HW211244   0.846   4.389   3.608 -0.0499  0.2662 -0.0723
 2878SOL    HW311245   0.995   4.414   3.617 -0.3255  2.1578 -0.4009
 2878SOL    MW411246   0.924   4.396   3.570 -0.0509 -0.2997 -0.5181
 2879SOL     OW11247   3.997   2.805   2.162  0.2511 -0.2147  0.3125
 2879SOL    HW211248   3.961   2.866   2.226 -1.2052 -0.6313 -0.0728
 2879SOL    HW311249   4.056   2.858   2.109 -1.0769  0.9217 -0.0947
 2879SOL    MW411250   4.000   2.820   2.163  0.0110 -0.5381  0.2391
 2880SOL     OW11251   4.736   1.806   5.717 -0.6140 -0.7876 -0.0550
 2880SOL    HW211252   4.747   1.867   5.644  0.2989 -0.6788  0.1622
 2880SOL    HW311253   4.673   1.741   5.685 -2.7944  1.0649  0.2260
 2880SOL    MW411254   4.729   1.805   5.703  0.8372 -0.8115  0.0561
 2881SOL     OW11255   0.600   5.735   4.211 -0.5428  0.3989 -0.5888
 2881SOL    HW211256   0.546   5.712   4.286  0.4811  0.1251  0.0839
 2881SOL    HW311257   0.603   5.831   4.213  0.9970  0.3706  0.8713
 2881SOL    MW411258   0.593   5.745   4.221 -0.2212  0.3302  0.1641
 2882SOL     OW11259   5.196   3.310   1.457 -0.2716 -0.6000  0.1809
 2882SOL    HW211260   5.192   3.341   1.366  0.2445  0.3844  0.4820
 2882SOL    HW311261   5.287   3.325   1.483 -0.3954 -0.9581  0.8360
 2882SOL    MW411262   5.207   3.316   1.448 -0.4294  0.0840  0.4572
 2883SOL     OW11263   3.420   4.718   4.080 -0.7622 -0.5758  0.0626
 2883SOL    HW211264   3.338   4.752   4.116 -0.6141 -1.3127  1.1586
 2883SOL    HW311265   3.393   4.654   4.015 -1.0786 -1.2983  0.8918
 2883SOL    MW411266   3.406   4.714   4.076  0.1142 -0.1228 -0.1668
 2884SOL     OW11267   3.442   2.682   0.733 -0.7853  0.1041 -0.7739
 2884SOL    HW211268   3.493   2.760   0.711 -0.9404  0.9962  1.7329
 2884SOL    HW311269   3.355   2.700   0.696 -0.1645 -0.0621 -2.4034
 2884SOL    MW411270   3.437   2.695   0.725  0.0887  0.0648  0.0202
 2885SOL     OW11271   5.322   0.043   4.510 -0.5737  0.2397  0.1315
 2885SOL    HW211272   5.266   0.065   4.436 -1.4006 -0.8231  0.4118
 2885SOL    HW311273   5.404   0.014   4.470 -1.3034 -1.1476 -0.4456
 2885SOL    MW411274   5.325   0.042   4.495  0.4185 -0.0167 -0.1044
 2886SOL     OW11275   3.008   1.842   5.803  0.0472  0.2775 -0.3073
 2886SOL    HW211276   2.923   1.800   5.817  0.7069 -1.0742 -0.1990
 2886SOL    HW311277   3.033   1.816   5.715 -0.3313  1.9744 -0.9594
 2886SOL    MW411278   3.000   1.833   5.793 -0.4470  0.3177 -0.2019
 2887SOL     OW11279   0.566   2.926   3.992  0.4015 -0.3532 -0.4088
 2887SOL    HW211280   0.555   2.831   3.999 -0.4169 -0.2116  0.5237
 2887SOL    HW311281   0.484   2.957   3.953  0.6749 -0.0316 -0.7347
 2887SOL    MW411282   0.554   2.918   3.988  0.5107  0.0667 -0.3824
 2888SOL     OW11283   2.802   6.351   3.723  0.4729  0.1962 -0.6011
 2888SOL    HW211284   2.804   6.267   3.768 -2.0481 -0.5076 -1.6269
 2888SOL    HW311285   2.709   6.366   3.704  0.9681  2.6859 -1.4336
 2888SOL    MW411286   2.790   6.342   3.726  0.0141  0.3212 -0.0052
 2889SOL     OW11287   2.914   0.806   3.005  0.5514  0.0812 -0.5465
 2889SOL    HW211288   2.928   0.757   3.086  0.9951  0.5612 -0.3241
 2889SOL    HW311289   2.865   0.747   2.949  0.0032 -0.1604  0.1760
 2889SOL    MW411290   2.910   0.792   3.008 -0.0125  0.1214  0.5138
 2890SOL     OW11291   0.101   6.178   4.977  0.3800 -0.0219 -0.1800
 2890SOL    HW211292   0.019   6.184   5.027  1.0214  1.0970  0.7889
 2890SOL    HW311293   0.167   6.153   5.042  0.7902 -1.1194 -0.9974
 2890SOL    MW411294   0.099   6.176   4.992 -0.2160  0.5325  0.1062
 2891SOL     OW11295   4.093   1.634   0.725  0.1805 -0.6435 -0.0338
 2891SOL    HW211296   4.134   1.563   0.675 -1.3185 -0.7688 -1.1379
 2891SOL    HW311297   4.077   1.596   0.812  1.4800 -0.8954  0.1142
 2891SOL    MW411298   4.096   1.620   0.730 -0.4114  0.0207 -0.2116
 2892SOL     OW11299   3.389   4.324   2.261  0.5565  0.1844 -0.0756
 2892SOL    HW211300   3.312   4.296   2.211  1.3762 -0.0261 -1.2613
 2892SOL    HW311301   3.355   4.385   2.326 -0.4227  1.1763 -1.4827
 2892SOL    MW411302   3.374   4.328   2.263 -0.3315  0.2346  0.1481
 2893SOL     OW11303   5.490   5.900   2.209  0.0671  0.1683  0.0040
 2893SOL    HW211304   5.535   5.967   2.261  0.4174  0.2926 -0.4562
 2893SOL    HW311305   5.483   5.825   2.268  1.8200 -0.2331 -0.2378
 2893SOL    MW411306   5.495   5.899   2.224  0.2995  0.7069  0.1180
 2894SOL     OW11307   2.853   1.122   4.362 -0.2697 -0.1934  0.7416
 2894SOL    HW211308   2.920   1.104   4.296 -0.1185 -1.3780  1.1935
 2894SOL    HW311309   2.815   1.206   4.336  0.0894 -0.4278 -0.5844
 2894SOL    MW411310   2.857   1.131   4.350 -0.0275 -0.0682 -0.4326
 2895SOL     OW11311   0.909   0.190   5.119 -0.2789  0.1037  0.5789
 2895SOL    HW211312   0.913   0.101   5.154  2.7985 -0.8619 -1.7159
 2895SOL    HW311313   0.879   0.178   5.029 -1.0425  1.5777  0.6159
 2895SOL    MW411314   0.905   0.176   5.111 -0.5918  0.0389 -0.1848
 2896SOL     OW11315   1.822   0.574   0.936 -0.1874 -0.2547 -0.0301
 2896SOL    HW211316   1.805   0.566   0.842 -1.4685  0.9023  0.0715
 2896SOL    HW311317   1.779   0.656   0.961  0.7591 -0.1718  1.4297
 2896SOL    MW411318   1.814   0.584   0.927  0.4802 -0.4032 -0.3592
 2897SOL     OW11319   4.964   2.497   3.167  0.3314 -0.3217 -0.1814
 2897SOL    HW211320   4.964   2.413   3.212  2.1960 -1.2026 -1.6525
 2897SOL    HW311321   4.971   2.475   3.074  0.1170  1.4415 -0.6577
 2897SOL    MW411322   4.965   2.483   3.160  0.4122 -0.2555  0.2709
 2898SOL     OW11323   5.487   1.216   6.256  0.0285 -0.0961  0.1104
 2898SOL    HW211324   5.462   1.192   6.166 -1.5475  1.7437 -0.0200
 2898SOL    HW311325   5.459   1.307   6.264  2.6909  0.6943  1.5872
 2898SOL    MW411326   5.480   1.225   6.245 -0.2856 -0.4176 -0.2385
 2899SOL     OW11327   2.007   2.986   4.930  0.3796 -0.7261 -0.1656
 2899SOL    HW211328   2.100   2.986   4.954  0.1592 -1.7516  0.7630
 2899SOL    HW311329   2.006   3.011   4.837  1.3397  2.4144  0.5391
 2899SOL    MW411330   2.019   2.989   4.921 -0.4683 -0.4925 -0.2001
 2900SOL     OW11331   2.818   5.439   4.112 -0.1200  0.0303  0.3456
 2900SOL    HW211332   2.877   5.430   4.187  1.8465 -0.0620 -1.1238
 2900SOL    HW311333   2.818   5.352   4.071 -1.8468 -0.1550  0.6779
 2900SOL    MW411334   2.826   5.426   4.117 -0.1071  0.3467  0.1045
 2901SOL     OW11335   2.149   4.062   1.802  0.7193  0.5014 -0.0318
 2901SOL    HW211336   2.140   4.092   1.712 -0.7761  1.9002  0.5042
 2901SOL    HW311337   2.073   4.005   1.816 -0.0290  1.6502  0.7858
 2901SOL    MW411338   2.138   4.059   1.792  0.1230 -0.4712 -0.0753
 2902SOL     OW11339   3.665   5.832   0.211 -0.1602  0.2181 -0.1947
 2902SOL    HW211340   3.572   5.826   0.186 -0.1419  1.0704 -0.5133
 2902SOL    HW311341   3.663   5.868   0.300 -0.1684 -1.1011  0.3569
 2902SOL    MW411342   3.652   5.836   0.219  0.7684  0.5211 -0.0343
 2903SOL     OW11343   2.417   2.939   0.201  0.0248 -0.2303  0.1526
 2903SOL    HW211344   2.329   2.974   0.214  0.0447 -0.1613  0.0966
 2903SOL    HW311345   2.426   2.930   0.106 -0.1939 -0.9213  0.1919
 2903SOL    MW411346   2.407   2.942   0.190  0.1984  0.4824  0.0759
 2904SOL     OW11347   4.461   5.475   5.154  0.7267  0.0448  0.2453
 2904SOL    HW211348   4.550   5.501   5.133  0.7395 -0.2897 -0.1408
 2904SOL    HW311349   4.455   5.484   5.250  1.1242  0.2123  0.2568
 2904SOL    MW411350   4.472   5.479   5.164  0.1153 -0.4539  0.2904
 2905SOL     OW11351   6.239   0.768   0.907 -0.2270  0.4297 -0.0409
 2905SOL    HW211352   6.239   0.811   0.821 -0.6788  0.1419 -0.1872
 2905SOL    HW311353   6.332   0.763   0.930 -0.1833  1.8677  0.1811
 2905SOL    MW411354   6.251   0.773   0.898 -0.3352 -0.0335  0.2682
 2906SOL     OW11355   4.765   3.533   0.534 -0.2518  0.1012 -0.5859
 2906SOL    HW211356   4.860   3.535   0.532 -0.2308  0.4945  0.4691
 2906SOL    HW311357   4.741   3.475   0.461  0.7366  1.0763 -1.7327
 2906SOL    MW411358   4.774   3.526   0.524 -0.0748 -0.4829  0.2319
 2907SOL     OW11359   4.523   6.094   0.597  0.4141 -0.3347  0.0255
 2907SOL    HW211360   4.437   6.053   0.592  0.7904 -1.1187 -0.2063
 2907SOL    HW311361   4.556   6.092   0.507  0.6138  0.1147  0.0829
 2907SOL    MW411362   4.516   6.089   0.584  0.2350  0.4116 -0.7775
 2908SOL     OW11363   4.923   5.553   1.453 -0.4964 -0.1300  0.1667
 2908SOL    HW211364   4.861   5.480   1.444 -0.6052 -0.0815  0.5231
 2908SOL    HW311365   4.924   5.593   1.366 -3.1734  1.6441  0.8064
 2908SOL    MW411366   4.915   5.548   1.440  0.5420  0.1458 -0.4688
 2909SOL     OW11367   5.531   0.206   1.249 -0.0002  0.1522  0.2191
 2909SOL    HW211368   5.440   0.207   1.219 -0.3114  1.0964  1.1195
 2909SOL    HW311369   5.525   0.222   1.343  1.1015  0.2416  0.2862
 2909SOL    MW411370   5.518   0.208   1.257  0.1507  0.3514  0.0903
 2910SOL     OW11371   1.384   5.414   1.776  0.0106  0.1500  0.4688
 2910SOL    HW211372   1.335   5.420   1.694 -1.0784 -1.8319  0.9047
 2910SOL    HW311373   1.471   5.382   1.750 -0.3421 -0.5018  0.0668
 2910SOL    MW411374   1.389   5.411   1.762 -0.0198 -0.0841 -0.4111
 2911SOL     OW11375   5.188   0.141   6.102 -0.0754  0.2210  0.0033
 2911SOL    HW211376   5.210   0.232   6.119 -1.0320  0.1572  1.7815
 2911SOL    HW311377   5.246   0.091   6.159  0.1285 -0.2905 -0.6307
 2911SOL    MW411378   5.198   0.146   6.112  0.3104  0.2260  0.3879
 2912SOL     OW11379   3.851   1.983   5.728  0.2772  0.0881 -0.2292
 2912SOL    HW211380   3.823   1.956   5.641  0.4664 -3.2930  0.5819
 2912SOL    HW311381   3.780   2.038   5.761 -0.5296  0.1193 -1.9535
 2912SOL    MW411382   3.838   1.986   5.721  0.3456  0.5976  0.4362
 2913SOL     OW11383   0.723   2.514   1.086  0.0715  0.0799  0.3279
 2913SOL    HW211384   0.717   2.533   0.992  0.6015  0.3806  0.3505
 2913SOL    HW311385   0.687   2.592   1.129  0.1111  0.0718  0.3767
 2913SOL    MW411386   0.717   2.527   1.079 -0.7364  0.2778 -0.2729
 2914SOL     OW11387   3.143   1.067   0.511 -0.0681  0.0613 -0.1788
 2914SOL    HW211388   3.091   1.004   0.562  1.6924  0.4646  2.3108
 2914SOL    HW311389   3.216   1.016   0.478 -0.1039  0.2468 -0.5488
 2914SOL    MW411390   3.145   1.052   0.514 -0.1224 -0.0434  0.5405
 2915SOL     OW11391   0.120   6.056   6.056  0.3218 -0.1614 -0.4150
 2915SOL    HW211392   0.157   5.983   6.105 -0.6720 -0.1428  0.3846
 2915SOL    HW311393   0.026   6.039   6.054  0.0323  1.2466  0.0665
 2915SOL    MW411394   0.112   6.044   6.062  0.4773  0.1951  0.0373
 2916SOL     OW11395   6.154   4.628   6.404  0.0055  0.2508  0.4044
 2916SOL    HW211396   6.111   4.543   6.404 -0.6758  0.5799 -0.4464
 2916SOL    HW311397   6.082   4.691   6.403  0.4676  0.8892  2.4000
 2916SOL    MW411398   6.139   4.625   6.404 -0.4169  0.0851 -0.3192
 2917SOL     OW11399   3.491   5.741   5.899 -0.1856 -0.3089  0.0509
 2917SOL    HW211400   3.470   5.683   5.825 -0.3090 -1.7357  1.1475
 2917SOL    HW311401   3.467   5.828   5.868  1.1564 -0.6194 -2.1353
 2917SOL    MW411402   3.485   5.745   5.885 -0.4410  0.1227 -0.2444
 2918SOL     OW11403   3.573   0.179   5.533  0.1150  0.2947 -0.0073
 2918SOL    HW211404   3.478   0.187   5.526 -0.3422 -1.3981  2.7902
 2918SOL    HW311405   3.607   0.254   5.484 -2.7055  2.5439  1.2042
 2918SOL    MW411406   3.565   0.190   5.525 -0.4800 -0.3522  0.1158
 2919SOL     OW11407   0.168   2.418   3.689  0.1277 -0.0014 -0.3349
 2919SOL    HW211408   0.111   2.491   3.665 -0.8792 -1.1983 -1.7766
 2919SOL    HW311409   0.201   2.441   3.776 -0.2508  2.0863 -0.6859
 2919SOL    MW411410   0.165   2.431   3.697  0.6556 -0.2246 -0.3790
 2920SOL     OW11411   2.963   6.140   3.864 -0.0524  0.5390 -0.4524
 2920SOL    HW211412   2.944   6.081   3.791  0.0182 -0.8064  0.5964
 2920SOL    HW311413   3.018   6.208   3.825  0.6272 -0.5710 -1.5126
 2920SOL    MW411414   2.968   6.141   3.849 -0.0877  0.1819 -0.0425
 2921SOL     OW11415   4.074   3.786   0.516  0.2882  0.1933  0.2568
 2921SOL    HW211416   4.029   3.871   0.520 -0.0287  0.0266  0.1991
 2921SOL    HW311417   4.081   3.759   0.608 -0.7419 -0.3165  0.1907
 2921SOL    MW411418   4.069   3.794   0.529 -0.1087 -0.1406 -0.0562
 2922SOL     OW11419   3.578   0.905   1.115  0.1945  0.3023 -0.4811
 2922SOL    HW211420   3.532   0.939   1.038 -0.4826  3.0859  1.0281
 2922SOL    HW311421   3.510   0.865   1.168  0.2775  0.4327 -0.2772
 2922SOL    MW411422   3.563   0.904   1.112 -0.5895  0.3022  0.4440
 2923SOL     OW11423   0.238   5.922   5.824  0.4322  0.0271 -0.5315
 2923SOL    HW211424   0.200   5.981   5.889 -0.6871  0.1809 -1.2909
 2923SOL    HW311425   0.188   5.841   5.834  0.8382 -0.2348 -0.6187
 2923SOL    MW411426   0.227   5.919   5.834  0.7355 -0.7661 -0.1077
 2924SOL     OW11427   4.201   3.971   1.040  0.2888 -0.0226 -0.1829
 2924SOL    HW211428   4.228   4.060   1.019 -1.6348  0.5234 -0.4991
 2924SOL    HW311429   4.271   3.937   1.096  1.2153  1.5423 -0.3407
 2924SOL    MW411430   4.214   3.978   1.045 -0.2402  0.7964 -0.2967
 2925SOL     OW11431   5.258   5.901   0.501  0.7653  0.1353  0.2497
 2925SOL    HW211432   5.207   5.908   0.421 -0.2617 -0.2521  0.8508
 2925SOL    HW311433   5.200   5.934   0.570 -0.4303 -4.2025  1.6245
 2925SOL    MW411434   5.244   5.906   0.500 -0.3042 -0.2028  0.0117
 2926SOL     OW11435   4.754   2.755   5.281  0.3907  0.7834 -0.3005
 2926SOL    HW211436   4.675   2.703   5.264  0.3642  0.7153  0.0137
 2926SOL    HW311437   4.789   2.775   5.195  0.2178  0.5204 -0.4333
 2926SOL    MW411438   4.748   2.750   5.268  0.1271  0.4909 -0.3167
 2927SOL     OW11439   2.893   2.755   1.535  0.1780  0.2009 -0.1630
 2927SOL    HW211440   2.981   2.790   1.549  0.5663 -0.2962 -1.2655
 2927SOL    HW311441   2.899   2.663   1.564 -0.2587  0.4380  0.7091
 2927SOL    MW411442   2.905   2.747   1.541  0.2444  0.1056  0.0771
 2928SOL     OW11443   0.377   3.673   1.011 -0.0154  0.3605  0.2224
 2928SOL    HW211444   0.316   3.600   1.002 -1.5707  1.3413  2.1103
 2928SOL    HW311445   0.324   3.751   0.993  1.4768  1.1212 -1.1702
 2928SOL    MW411446   0.362   3.674   1.007  0.5246 -0.5375 -0.2820
 2929SOL     OW11447   2.849   2.226   5.082 -0.4045 -0.1036 -0.6367
 2929SOL    HW211448   2.862   2.169   5.006  0.4298  1.3258 -1.6111
 2929SOL    HW311449   2.829   2.311   5.044 -0.1959  0.5921  0.7739
 2929SOL    MW411450   2.848   2.229   5.067  0.1110  0.5440  0.0981
 2930SOL     OW11451   1.842   6.251   1.868 -0.3113 -0.6958 -0.1627
 2930SOL    HW211452   1.842   6.173   1.813 -0.5106 -0.7369 -0.1062
 2930SOL    HW311453   1.935   6.270   1.883 -0.2341 -2.2839  1.7372
 2930SOL    MW411454   1.854   6.244   1.863 -0.2926  0.2265  0.3686
 2931SOL     OW11455   3.868   0.188   4.530 -0.0493  0.2928  0.4755
 2931SOL    HW211456   3.947   0.184   4.476 -0.7156 -0.3534 -0.4980
 2931SOL    HW311457   3.862   0.102   4.570 -0.0188  0.4887  0.9013
 2931SOL    MW411458   3.877   0.176   4.528  0.0377  0.0527 -0.8796
 2932SOL     OW11459   4.702   0.260   4.498  0.0910 -0.4433  0.2613
 2932SOL    HW211460   4.698   0.165   4.485  0.3194 -0.4016 -0.1085
 2932SOL    HW311461   4.624   0.293   4.453  0.0340 -0.4501  0.3541
 2932SOL    MW411462   4.691   0.252   4.491  0.2874 -0.0079 -0.1326
 2933SOL     OW11463   2.749   3.109   4.261 -0.0644 -0.1998  0.0923
 2933SOL    HW211464   2.710   3.119   4.348 -1.7346  0.2843 -0.6696
 2933SOL    HW311465   2.705   3.032   4.224 -0.5815  0.5438 -0.9069
 2933SOL    MW411466   2.738   3.100   4.268 -0.3423 -0.4040  0.5479
 2934SOL     OW11467   0.987   3.184   1.667  0.1731  0.1749  0.7085
 2934SOL    HW211468   0.955   3.267   1.631  0.7149  0.5391  1.0361
 2934SOL    HW311469   0.932   3.169   1.744  2.9756  2.7395  3.5429
 2934SOL    MW411470   0.976   3.193   1.672 -0.2053  0.0898 -0.0181
 2935SOL     OW11471   5.089   0.098   5.812 -0.2680  0.1982 -0.1980
 2935SOL    HW211472   5.108   0.100   5.906  1.2403 -1.0574 -0.4454
 2935SOL    HW311473   5.043   0.015   5.799 -2.5179  1.3535 -0.2800
 2935SOL    MW411474   5.085   0.088   5.823 -0.0624 -0.8178 -0.4035
 2936SOL     OW11475   5.515   4.860   0.354 -0.0575  0.3305  0.3429
 2936SOL    HW211476   5.498   4.793   0.419  1.7172 -0.6564 -0.1471
 2936SOL    HW311477   5.461   4.836   0.279 -1.0773  0.7194  0.9224
 2936SOL    MW411478   5.506   4.848   0.353 -0.5644 -0.2542 -0.5191
 2937SOL     OW11479   2.369   3.880   4.925 -0.1115 -0.3155  1.2471
 2937SOL    HW211480   2.360   3.895   4.831 -0.5738 -1.0424  1.1709
 2937SOL    HW311481   2.462   3.897   4.943 -0.1636  0.4874  0.7864
 2937SOL    MW411482   2.380   3.884   4.915 -0.2112 -0.0623 -0.1649
 2938SOL     OW11483   3.320   1.289   3.094 -0.0086 -0.4387 -0.1851
 2938SOL    HW211484   3.351   1.375   3.066 -0.9482 -0.1611 -0.4045
 2938SOL    HW311485   3.314   1.296   3.190  1.0636 -0.6583 -0.0962
 2938SOL    MW411486   3.323   1.301   3.103 -0.5515  0.0202 -0.0459
 2939SOL     OW11487   5.389   4.176   2.591 -0.4121  0.1355 -0.2298
 2939SOL    HW211488   5.351   4.224   2.664  1.4479  0.8321  0.3201
 2939SOL    HW311489   5.368   4.230   2.514  0.7371  1.3172  0.2532
 2939SOL    MW411490   5.381   4.190   2.590  0.4765  0.5787  0.2943
 2940SOL     OW11491   3.328   0.388   1.623 -0.0104  0.1995  0.1903
 2940SOL    HW211492   3.275   0.361   1.548 -0.7888  1.5740  0.2045
 2940SOL    HW311493   3.317   0.483   1.626  0.0748  0.1730  1.9977
 2940SOL    MW411494   3.320   0.397   1.613  0.0376  0.0597  0.0892
 2941SOL     OW11495   4.148   1.137   4.530  0.2679 -0.0102  0.5419
 2941SOL    HW211496   4.092   1.105   4.459 -0.9848 -0.2611  1.6032
 2941SOL    HW311497   4.237   1.128   4.496 -0.2797 -0.3466 -0.8980
 2941SOL    MW411498   4.152   1.132   4.516  1.1029  0.3563  0.0417
 2942SOL     OW11499   2.485   5.501   5.053  0.2034 -0.5432 -0.1409
 2942SOL    HW211500   2.410   5.548   5.090  0.0972  0.9737 -2.1173
 2942SOL    HW311501   2.449   5.416   5.027  0.2917 -1.7010  3.0576
 2942SOL    MW411502   2.470   5.496   5.054  0.3272  0.5504  0.8587
 2943SOL     OW11503   0.787   0.254   5.604 -0.0511  0.3200 -0.4113
 2943SOL    HW211504   0.725   0.207   5.548 -0.4388  0.0784  0.2043
 2943SOL    HW311505   0.764   0.225   5.693 -0.4395  1.8418  0.0047
 2943SOL    MW411506   0.775   0.244   5.608 -0.4359  0.0802  0.7932
 2944SOL     OW11507   5.254   1.055   3.291  0.5726  0.0174 -0.2199
 2944SOL    HW211508   5.195   1.082   3.361 -0.8375  1.8348 -1.9716
 2944SOL    HW311509   5.340   1.088   3.317  0.1706  0.2405  0.8610
 2944SOL    MW411510   5.258   1.063   3.304 -0.0015 -0.5387 -0.3165
 2945SOL     OW11511   4.727   2.262   4.753 -0.0441  0.1507 -0.3006
 2945SOL    HW211512   4.639   2.294   4.732  0.3837  0.8186 -1.1499
 2945SOL    HW311513   4.780   2.342   4.759  0.3615 -0.1961  0.9564
 2945SOL    MW411514   4.722   2.277   4.751 -0.2592 -0.7314 -0.0376
 2946SOL     OW11515   6.115   4.964   2.886  0.2092 -0.0889  0.1739
 2946SOL    HW211516   6.142   5.053   2.862 -1.8093  0.5423  0.0294
 2946SOL    HW311517   6.028   4.975   2.925 -0.8812 -2.1682 -1.4788
 2946SOL    MW411518   6.107   4.978   2.888 -0.5108  0.5629  0.1832
 2947SOL     OW11519   2.378   2.013   1.674  0.0920  0.2145  0.1649
 2947SOL    HW211520   2.343   2.024   1.585  1.1309  0.8766 -0.1745
 2947SOL    HW311521   2.366   1.919   1.692 -1.3488  0.3182 -0.1344
 2947SOL    MW411522   2.372   2.002   1.665  0.2914 -0.4716  0.2391
 2948SOL     OW11523   5.555   5.918   4.466 -0.0396  0.1313  0.4679
 2948SOL    HW211524   5.597   6.001   4.445 -1.3005  0.5963 -0.3320
 2948SOL    HW311525   5.523   5.885   4.382  1.6003 -1.8546  0.5435
 2948SOL    MW411526   5.556   5.924   4.452  0.6083  0.3318  0.2208
 2949SOL     OW11527   1.794   5.003   5.246 -0.0221  0.0463 -0.1129
 2949SOL    HW211528   1.713   4.993   5.296  1.0310  0.8031  1.9039
 2949SOL    HW311529   1.782   5.084   5.197 -0.7230 -0.1862 -0.3299
 2949SOL    MW411530   1.782   5.013   5.246 -0.2633 -0.0154  0.5542
 2950SOL     OW11531   2.572   4.415   4.623 -0.6373 -0.1922  0.0784
 2950SOL    HW211532   2.538   4.441   4.537 -0.3394  0.2307  0.0832
 2950SOL    HW311533   2.627   4.339   4.605 -0.1275  0.2380 -0.1849
 2950SOL    MW411534   2.574   4.408   4.609 -0.1194 -0.4443  0.3412
 2951SOL     OW11535   1.693   3.749   5.479 -0.1895 -0.3745 -0.0656
 2951SOL    HW211536   1.777   3.735   5.524 -0.2812  1.0282  0.5927
 2951SOL    HW311537   1.628   3.708   5.536 -0.1158 -0.1010  0.2184
 2951SOL    MW411538   1.696   3.741   5.493  0.0600 -0.4909 -0.0329
 2952SOL     OW11539   3.897   1.335   1.444 -0.4564  0.5506 -0.3789
 2952SOL    HW211540   3.836   1.384   1.498 -0.1334 -0.1567  0.6563
 2952SOL    HW311541   3.933   1.269   1.502  0.3493  0.1423 -1.3094
 2952SOL    MW411542   3.894   1.333   1.459  0.3317 -0.0837  0.1115
 2953SOL     OW11543   0.718   0.990   2.842 -0.1661  0.4244 -0.2350
 2953SOL    HW211544   0.796   1.045   2.848  0.6198 -0.7344  1.2384
 2953SOL    HW311545   0.663   1.018   2.915  0.8082 -1.4391  1.3353
 2953SOL    MW411546   0.721   1.001   2.853  0.1726  0.5259 -0.3490
 2954SOL     OW11547   4.243   6.003   0.680 -0.5537  0.5327  0.6155
 2954SOL    HW211548   4.232   5.923   0.731  0.5026  0.6422  1.0405
 2954SOL    HW311549   4.155   6.038   0.671 -0.9232 -0.2358  1.1531
 2954SOL    MW411550   4.230   5.997   0.685 -0.5787 -0.4506 -0.1749
 2955SOL     OW11551   5.493   4.578   2.659  0.5236 -0.1659 -0.1120
 2955SOL    HW211552   5.407   4.551   2.626 -0.4058  1.4176  0.8698
 2955SOL    HW311553   5.510   4.519   2.733 -0.1369  0.0766  0.2391
 2955SOL    MW411554   5.484   4.567   2.665 -0.3674 -0.0266  0.1294
 2956SOL     OW11555   0.738   5.733   0.932  0.1683  0.2167  0.2423
 2956SOL    HW211556   0.704   5.801   0.992 -0.0267  0.8071 -0.5200
 2956SOL    HW311557   0.680   5.658   0.947 -1.8271  1.3380 -1.3218
 2956SOL    MW411558   0.726   5.732   0.942 -0.0859 -0.5697 -0.0994
 2957SOL     OW11559   5.987   1.423   2.898  0.2896 -0.7392  0.2261
 2957SOL    HW211560   5.947   1.404   2.983  0.7918 -0.2937  0.5702
 2957SOL    HW311561   6.019   1.513   2.907  1.7717 -1.2342  0.1281
 2957SOL    MW411562   5.986   1.432   2.911  0.2179 -1.2221 -0.3546
 2958SOL     OW11563   1.311   5.654   1.541 -0.3650 -0.4776  0.2743
 2958SOL    HW211564   1.281   5.564   1.526 -1.9059 -0.2057  1.4530
 2958SOL    HW311565   1.230   5.704   1.556  0.0956  1.8512 -3.6716
 2958SOL    MW411566   1.296   5.649   1.541 -0.4617  0.0080  0.6756
 2959SOL     OW11567   5.796   0.840   5.542 -0.0049  0.4584  0.2055
 2959SOL    HW211568   5.769   0.750   5.524 -0.0723  0.6808 -0.8338
 2959SOL    HW311569   5.871   0.831   5.601  1.8965 -0.3921 -2.1965
 2959SOL    MW411570   5.802   0.827   5.548 -0.0269  0.1942 -0.3321
 2960SOL     OW11571   5.859   3.229   4.090  0.2461 -0.3066  0.3454
 2960SOL    HW211572   5.798   3.296   4.121  0.5552  1.2995 -2.1809
 2960SOL    HW311573   5.904   3.199   4.169 -0.6905  1.6802  1.7159
 2960SOL    MW411574   5.857   3.234   4.104  0.1727  0.2866  0.3304
 2961SOL     OW11575   4.693   6.392   6.361  0.3227 -0.0211  0.5372
 2961SOL    HW211576   4.714   6.370   6.452  0.3093 -3.0660 -0.0800
 2961SOL    HW311577   4.768   6.442   6.330 -0.0091  1.7437  2.3897
 2961SOL    MW411578   4.706   6.396   6.369 -0.4394 -0.2877  0.1893
 2962SOL     OW11579   6.387   3.258   6.043  0.5647 -0.0058  0.1073
 2962SOL    HW211580   6.310   3.279   6.096 -0.0347  0.1801 -0.8122
 2962SOL    HW311581   6.444   3.335   6.052  0.9254 -0.3968  1.2748
 2962SOL    MW411582   6.384   3.271   6.051 -0.0177 -0.1540 -0.5417
 2963SOL     OW11583   5.489   3.407   0.467 -0.4568 -0.5149 -0.4529
 2963SOL    HW211584   5.418   3.364   0.420 -1.8904  2.2491 -1.0284
 2963SOL    HW311585   5.541   3.449   0.399  1.1339 -1.5252  0.0582
 2963SOL    MW411586   5.487   3.407   0.452 -0.3627  0.0357 -0.5048
 2964SOL     OW11587   3.931   2.802   0.023  0.9563 -0.4993 -0.3856
 2964SOL    HW211588   3.968   2.878  -0.023  0.4938 -0.4646 -0.7158
 2964SOL    HW311589   3.897   2.838   0.105 -1.7966  0.2389 -1.7260
 2964SOL    MW411590   3.931   2.817   0.027 -0.2126  0.1167 -0.5645
 2965SOL     OW11591   3.849   5.729   3.207  0.1044  0.0552 -0.0181
 2965SOL    HW211592   3.940   5.712   3.181  0.5624  1.6843  0.3880
 2965SOL    HW311593   3.849   5.714   3.302  0.7951  3.0925  0.5479
 2965SOL    MW411594   3.861   5.724   3.216 -0.3220  0.8536 -0.0634
 2966SOL     OW11595   5.798   5.744   0.670  0.3595 -0.3927  0.9084
 2966SOL    HW211596   5.745   5.815   0.706 -0.4958 -1.0804  1.0349
 2966SOL    HW311597   5.834   5.780   0.589 -1.7644 -0.4862 -0.1329
 2966SOL    MW411598   5.796   5.758   0.664 -0.5628  0.4840 -0.2243
 2967SOL     OW11599   1.961   0.308   1.018 -0.2548 -0.6282  0.2452
 2967SOL    HW211600   1.901   0.374   0.982  0.1898  0.0253  0.6854
 2967SOL    HW311601   2.047   0.335   0.989 -0.2075 -1.9319 -0.9403
 2967SOL    MW411602   1.964   0.320   1.010 -0.6457  0.0237 -0.2663
 2968SOL     OW11603   0.076   3.760   1.174  0.1476  0.0154 -0.0336
 2968SOL    HW211604   0.098   3.681   1.223 -1.2582 -1.1613 -1.2064
 2968SOL    HW311605   0.065   3.828   1.241 -0.2490 -1.1682  1.1364
 2968SOL    MW411606   0.077   3.758   1.189 -0.4960 -0.0468  0.3815
 2969SOL     OW11607   2.875   6.363   0.335  0.6030 -0.5380  0.0029
 2969SOL    HW211608   2.941   6.297   0.313  1.9010  0.6116  0.3137
 2969SOL    HW311609   2.801   6.312   0.368  1.6977 -1.8350  0.5640
 2969SOL    MW411610   2.874   6.348   0.336  0.0872 -0.2407  0.9749
 2970SOL     OW11611   1.252   4.582   6.382  0.2660 -0.3436  0.3953
 2970SOL    HW211612   1.234   4.674   6.367 -0.4833 -0.3472  1.1693
 2970SOL    HW311613   1.265   4.575   6.477 -2.1371 -1.4050  0.7036
 2970SOL    MW411614   1.252   4.593   6.393 -0.1789  0.1961 -0.3830
 2971SOL     OW11615   5.686   4.236   4.067  0.5482 -0.0486 -0.0953
 2971SOL    HW211616   5.596   4.223   4.037 -0.1714  2.8640  0.5133
 2971SOL    HW311617   5.737   4.243   3.986  0.4807 -2.6206 -0.4522
 2971SOL    MW411618   5.681   4.235   4.052 -0.4027 -0.4290 -0.6864
 2972SOL     OW11619   1.540   1.263   1.020  0.4671  0.1969 -0.3707
 2972SOL    HW211620   1.576   1.179   1.048  1.9939  0.7194 -0.6591
 2972SOL    HW311621   1.547   1.320   1.097 -0.1374  0.1941 -0.3095
 2972SOL    MW411622   1.546   1.259   1.034  0.2628  0.2745  0.0296
 2973SOL     OW11623   1.825   4.240   3.381 -0.0294 -0.5376  0.2984
 2973SOL    HW211624   1.917   4.216   3.373  0.0516  0.1004 -0.7576
 2973SOL    HW311625   1.824   4.336   3.374 -0.8515 -0.5998 -0.5460
 2973SOL    MW411626   1.837   4.250   3.379 -0.4338  0.3611  0.3655
 2974SOL     OW11627   4.548   1.112   1.778 -0.0081  0.1873  0.1112
 2974SOL    HW211628   4.518   1.112   1.869  1.0022  0.2582  0.4628
 2974SOL    HW311629   4.541   1.021   1.750  1.1109 -0.1264  0.7758
 2974SOL    MW411630   4.543   1.100   1.786 -0.0728 -0.7167 -0.2001
 2975SOL     OW11631   3.075   5.959   4.045 -0.4239 -0.1728  0.0567
 2975SOL    HW211632   3.171   5.960   4.041 -0.4222  0.6048  0.1362
 2975SOL    HW311633   3.049   6.028   3.984 -0.9355 -0.3808  0.0409
 2975SOL    MW411634   3.085   5.968   4.036 -0.5660 -0.4347 -0.4214
 2976SOL     OW11635   6.085   4.155   5.816  0.5696 -0.6580  0.5888
 2976SOL    HW211636   6.073   4.061   5.804  1.4494 -0.5849 -1.0248
 2976SOL    HW311637   6.174   4.164   5.851  0.2176 -0.4626  1.4550
 2976SOL    MW411638   6.095   4.144   5.819  0.3706 -0.4879 -0.0943
 2977SOL     OW11639   6.323   3.789   0.191  0.1582 -0.4568 -0.4270
 2977SOL    HW211640   6.248   3.740   0.225  0.2822 -0.4867 -0.1971
 2977SOL    HW311641   6.287   3.840   0.118 -0.5396  1.1214  0.9612
 2977SOL    MW411642   6.308   3.789   0.186  0.3753 -0.2289  0.2301
 2978SOL     OW11643   1.595   5.139   2.257 -0.1801 -0.1732 -0.1410
 2978SOL    HW211644   1.681   5.172   2.283  0.0119 -0.9478  0.2332
 2978SOL    HW311645   1.606   5.044   2.255 -1.4159 -0.3787  1.3531
 2978SOL    MW411646   1.608   5.131   2.260 -0.4601  0.0075  0.2545
 2979SOL     OW11647   6.255   2.779   2.276 -0.2900  0.3925 -0.5152
 2979SOL    HW211648   6.286   2.868   2.261 -0.1050  0.2684 -0.8918
 2979SOL    HW311649   6.299   2.751   2.356 -1.9287  1.3693  0.7920
 2979SOL    MW411650   6.265   2.787   2.285 -0.4225 -0.3450 -0.3543
 2980SOL     OW11651   4.337   4.761   0.157 -0.5989  0.5633  0.5013
 2980SOL    HW211652   4.430   4.741   0.147 -0.2578  0.2198  3.4364
 2980SOL    HW311653   4.294   4.717   0.084  1.4107 -0.3979 -0.1544
 2980SOL    MW411654   4.344   4.753   0.146  0.0896 -0.4583 -0.2417
 2981SOL     OW11655   0.244   3.842   0.002 -0.0905 -0.2131  0.1729
 2981SOL    HW211656   0.204   3.762  -0.032 -0.0111  0.4447 -1.5511
 2981SOL    HW311657   0.338   3.822   0.004  0.1525  0.4364 -2.1340
 2981SOL    MW411658   0.252   3.829  -0.002 -0.4423  0.1268  0.1636
 2982SOL     OW11659   1.760   4.207   3.651 -0.1812 -0.5826  0.2144
 2982SOL    HW211660   1.785   4.191   3.560 -0.4120  1.9903 -0.3869
 2982SOL    HW311661   1.714   4.291   3.648  0.3341 -0.1325  2.7946
 2982SOL    MW411662   1.757   4.216   3.638  0.5561  0.0418  0.1699
 2983SOL     OW11663   5.092   2.014   5.828 -0.2030 -0.3831  1.0356
 2983SOL    HW211664   5.016   2.064   5.856  0.1270  0.6320  0.2283
 2983SOL    HW311665   5.090   1.934   5.880 -0.2659  0.8498  3.0455
 2983SOL    MW411666   5.082   2.010   5.838 -0.0560  0.3221 -0.1462
 2984SOL     OW11667   3.779   5.397   3.012 -0.4214 -0.2252  0.3861
 2984SOL    HW211668   3.708   5.458   3.034  0.6939  1.4183 -0.3115
 2984SOL    HW311669   3.815   5.370   3.097 -0.1237  1.1467  0.7314
 2984SOL    MW411670   3.775   5.402   3.026  0.2911  0.4810  0.3772
 2985SOL     OW11671   0.384   3.764   4.769  0.8624 -0.2163 -0.3390
 2985SOL    HW211672   0.312   3.820   4.796 -0.6233 -1.5096 -1.4488
 2985SOL    HW311673   0.443   3.762   4.845 -0.2916  0.8243  0.6123
 2985SOL    MW411674   0.382   3.771   4.783  0.0033  0.2860 -0.0768
 2986SOL     OW11675   4.606   1.051   2.482  0.7112 -0.0889 -0.2519
 2986SOL    HW211676   4.539   1.042   2.414  1.7488 -0.3856 -1.2570
 2986SOL    HW311677   4.621   1.146   2.488 -1.8785  0.2845  2.0959
 2986SOL    MW411678   4.599   1.063   2.474 -0.6070 -0.1019 -0.0017
 2987SOL     OW11679   1.611   5.771   4.923  0.2469  0.9358  0.1192
 2987SOL    HW211680   1.660   5.751   4.843 -0.2849  0.3414 -0.0707
 2987SOL    HW311681   1.671   5.825   4.975  0.6565  1.2031 -0.6103
 2987SOL    MW411682   1.626   5.775   4.919 -0.5052  0.2161 -0.3141
 2988SOL     OW11683   0.247   2.231   5.340  0.0262  0.1370 -0.3156
 2988SOL    HW211684   0.266   2.247   5.432  1.5357  1.8681 -0.8559
 2988SOL    HW311685   0.216   2.141   5.336  0.8622 -0.2811  1.7534
 2988SOL    MW411686   0.246   2.221   5.351  0.6644  0.6039 -0.8774
 2989SOL     OW11687   0.815   4.926   4.992 -0.5113  0.7269 -0.7146
 2989SOL    HW211688   0.892   4.971   5.028 -1.2590  0.1976  1.7189
 2989SOL    HW311689   0.769   4.995   4.943  0.4015  1.6063 -0.3853
 2989SOL    MW411690   0.819   4.941   4.990 -0.1738  0.5739  0.0922
 2990SOL     OW11691   3.399   4.119   2.594 -0.0127 -0.5542  0.4736
 2990SOL    HW211692   3.355   4.063   2.658 -1.9167 -0.0458 -0.3256
 2990SOL    HW311693   3.492   4.112   2.616 -0.4096 -2.2130  1.8092
 2990SOL    MW411694   3.405   4.111   2.605 -0.4339 -0.2120  0.0034
 2991SOL     OW11695   2.951   4.127   2.588 -0.0073 -0.0918  0.4735
 2991SOL    HW211696   3.019   4.103   2.525 -0.4104  1.3164 -0.5591
 2991SOL    HW311697   2.873   4.081   2.557 -0.0369  0.0328  0.3626
 2991SOL    MW411698   2.950   4.118   2.576  0.0928 -0.0792  0.2602
 2992SOL     OW11699   4.110   3.042   3.887 -0.0889 -0.6170 -0.6151
 2992SOL    HW211700   4.075   3.038   3.797 -2.4969 -1.1908  0.2610
 2992SOL    HW311701   4.156   2.959   3.899 -1.5992 -1.5097 -0.6850
 2992SOL    MW411702   4.111   3.030   3.876  0.0817 -0.2958 -0.1298
 2993SOL     OW11703   1.227   6.002   5.838  0.2606  0.2509 -0.6219
 2993SOL    HW211704   1.251   6.056   5.763  1.1763  0.7929  0.0403
 2993SOL    HW311705   1.256   5.914   5.814  0.1054  0.3310 -1.1049
 2993SOL    MW411706   1.234   5.997   5.825  0.3990  0.8778 -0.3765
 2994SOL     OW11707   4.593   2.314   4.107  1.0238 -0.0181 -0.1539
 2994SOL    HW211708   4.650   2.245   4.074 -0.0633 -0.1031 -2.0409
 2994SOL    HW311709   4.535   2.271   4.169 -0.1304 -1.0340 -1.8610
 2994SOL    MW411710   4.593   2.300   4.111  0.0001 -0.0294  0.4892
 2995SOL     OW11711   3.426   0.299   1.859  0.1094  0.0743 -0.9747
 2995SOL    HW211712   3.413   0.394   1.868 -1.2296 -0.0170 -1.6646
 2995SOL    HW311713   3.422   0.284   1.764 -3.2773 -1.0669 -0.7965
 2995SOL    MW411714   3.424   0.310   1.848 -0.3765  0.2138  0.6273
 2996SOL     OW11715   5.359   5.164   0.581  0.2904  0.3873 -0.1682
 2996SOL    HW211716   5.440   5.215   0.578  0.4092  0.1950 -0.1800
 2996SOL    HW311717   5.317   5.191   0.663  0.4436  0.3634 -0.0831
 2996SOL    MW411718   5.364   5.175   0.591  0.6104 -0.1388  0.0727
 2997SOL     OW11719   5.074   1.838   5.609 -0.7332  0.9667  0.0951
 2997SOL    HW211720   5.076   1.897   5.684 -0.6457  0.6653  0.3314
 2997SOL    HW311721   4.990   1.855   5.566 -1.3484  0.2345  0.9894
 2997SOL    MW411722   5.063   1.848   5.613 -0.6061  0.5895  0.2164
 2998SOL     OW11723   3.987   5.775   4.509 -0.6630  0.0586 -0.1452
 2998SOL    HW211724   3.939   5.802   4.430 -1.1443  2.0267  0.7537
 2998SOL    HW311725   4.079   5.786   4.486 -0.7603 -0.2959 -0.7306
 2998SOL    MW411726   3.993   5.780   4.496  0.2331  0.2115  0.1545
 2999SOL     OW11727   3.713   6.062   5.968 -0.1360 -0.2210 -0.1549
 2999SOL    HW211728   3.690   6.138   6.022  0.2837  0.1987 -0.5597
 2999SOL    HW311729   3.717   5.989   6.029 -2.0351 -0.2255  0.0323
 2999SOL    MW411730   3.710   6.062   5.983  0.1885 -0.2206  0.2248
 3000SOL     OW11731   4.498   5.639   3.698 -0.4145  0.2893 -0.5025
 3000SOL    HW211732   4.475   5.690   3.775 -2.0645 -0.4434 -0.4666
 3000SOL    HW311733   4.528   5.555   3.732  2.5460  1.1980 -0.5480
 3000SOL    MW411734   4.499   5.634   3.713  0.0354 -0.1634 -0.3034
 3001SOL     OW11735   4.185   3.589   3.405  0.0149 -0.0521 -0.3594
 3001SOL    HW211736   4.251   3.650   3.372 -1.5509  1.2324 -1.2157
 3001SOL    HW311737   4.102   3.637   3.399 -0.7749 -0.7850  2.7223
 3001SOL    MW411738   4.183   3.603   3.400  0.0358  0.0929 -0.0962
 3002SOL     OW11739   5.498   4.441   1.186 -0.3383 -0.2974 -0.8190
 3002SOL    HW211740   5.572   4.491   1.221 -0.1998 -0.6789 -0.5655
 3002SOL    HW311741   5.430   4.507   1.172 -0.0175  0.0287 -0.8759
 3002SOL    MW411742   5.499   4.456   1.189  0.0862  0.0796  0.1856
 3003SOL     OW11743   2.637   0.563   0.493  0.4296 -0.3559 -0.4928
 3003SOL    HW211744   2.638   0.522   0.407  1.3311 -2.6690  0.5440
 3003SOL    HW311745   2.577   0.509   0.545  0.2975  0.6753  0.4789
 3003SOL    MW411746   2.629   0.550   0.489  0.1102  0.5526  0.3259
 3004SOL     OW11747   5.990   1.596   1.734 -0.5554  0.4221 -0.3120
 3004SOL    HW211748   5.941   1.628   1.809  0.5994 -0.2312  0.7542
 3004SOL    HW311749   6.081   1.622   1.751 -0.0828 -0.7487 -0.8907
 3004SOL    MW411750   5.996   1.603   1.746  0.3640  0.0166  0.3961
 3005SOL     OW11751   4.000   0.348   4.766  0.0374  0.2727  0.9529
 3005SOL    HW211752   3.976   0.426   4.717  1.7593  0.5336  0.4651
 3005SOL    HW311753   3.976   0.275   4.708  1.9261  0.5716 -0.3199
 3005SOL    MW411754   3.994   0.348   4.752  0.4922  0.5367 -0.2396
 3006SOL     OW11755   3.047   3.298   1.232  0.2021  0.2659 -0.4054
 3006SOL    HW211756   3.087   3.314   1.318 -0.9260 -1.0526  0.4089
 3006SOL    HW311757   2.953   3.304   1.248 -0.0084  1.1972 -1.8362
 3006SOL    MW411758   3.040   3.301   1.246 -0.1776 -0.0599  0.0669
 3007SOL     OW11759   0.722   4.545   0.415  0.0897 -0.2902  0.2212
 3007SOL    HW211760   0.706   4.565   0.508 -0.1088  0.2837  0.0682
 3007SOL    HW311761   0.710   4.450   0.409 -1.9104 -0.1084  0.4116
 3007SOL    MW411762   0.718   4.535   0.427 -0.5257 -0.3593  0.1693
 3008SOL     OW11763   4.808   2.029   1.565  0.0780  0.2948 -0.4806
 3008SOL    HW211764   4.796   2.123   1.576  0.7586  0.2949  0.3871
 3008SOL    HW311765   4.874   2.005   1.630 -0.7024 -0.9244 -0.0780
 3008SOL    MW411766   4.815   2.038   1.575  0.2965  0.4810  0.0022
 3009SOL     OW11767   1.713   3.367   0.914  0.0654  0.0817  0.1076
 3009SOL    HW211768   1.793   3.419   0.919  0.3442 -0.2297 -0.9032
 3009SOL    HW311769   1.733   3.288   0.964  2.0900 -2.0904 -3.6767
 3009SOL    MW411770   1.727   3.363   0.922 -0.2938  0.2588  0.1567
 3010SOL     OW11771   3.744   4.786   2.666 -0.3580 -0.7967  0.0928
 3010SOL    HW211772   3.797   4.707   2.676 -0.1106 -0.6951 -0.3995
 3010SOL    HW311773   3.697   4.793   2.749  0.5162 -0.8009  0.6083
 3010SOL    MW411774   3.745   4.776   2.678 -0.7886  0.2026  0.1131
 3011SOL     OW11775   4.895   5.962   4.309 -0.5077  0.3691  0.1354
 3011SOL    HW211776   4.983   5.997   4.319 -1.5231  2.7841  1.2873
 3011SOL    HW311777   4.898   5.877   4.354  1.0416  0.7031  0.7367
 3011SOL    MW411778   4.907   5.955   4.316 -0.0767  0.0087  0.1998
 3012SOL     OW11779   2.861   4.699   1.767  0.6714  0.4184 -0.0955
 3012SOL    HW211780   2.945   4.684   1.811  0.5750 -1.1275 -0.3651
 3012SOL    HW311781   2.808   4.747   1.830  2.3243  3.0158 -0.5578
 3012SOL    MW411782   2.865   4.703   1.781  0.5919  0.3851  0.2098
 3013SOL     OW11783   4.338   4.333   1.505 -0.0249  0.3397 -0.5706
 3013SOL    HW211784   4.265   4.280   1.535  0.5960 -0.1434  0.1353
 3013SOL    HW311785   4.375   4.371   1.585  1.6506 -0.9517 -0.6788
 3013SOL    MW411786   4.333   4.331   1.520  0.2248 -0.2669 -0.3577
 3014SOL     OW11787   2.089   1.724   1.154 -0.3544 -0.6774 -0.2407
 3014SOL    HW211788   2.104   1.700   1.063  0.4214  0.8307 -0.5236
 3014SOL    HW311789   2.150   1.669   1.203  1.2489  0.4955 -0.8592
 3014SOL    MW411790   2.099   1.713   1.148  0.4728 -0.0164 -0.8811
 3015SOL     OW11791   6.230   4.503   2.811  0.3033  0.0164 -0.3352
 3015SOL    HW211792   6.257   4.595   2.813  1.2857 -0.2636  0.5313
 3015SOL    HW311793   6.312   4.454   2.817 -0.3367 -0.8914  2.1516
 3015SOL    MW411794   6.245   4.509   2.812 -0.1919 -0.2901  0.1500
 3016SOL     OW11795   5.172   4.455   4.244 -0.5525 -0.3102  0.2175
 3016SOL    HW211796   5.076   4.459   4.247 -0.6669 -1.3990 -0.8841
 3016SOL    HW311797   5.194   4.378   4.297 -0.4010 -0.8335 -0.5798
 3016SOL    MW411798   5.162   4.445   4.251  0.5091 -0.8978  0.4602
 3017SOL     OW11799   5.989   4.502   5.462  0.4977 -0.1621  0.5567
 3017SOL    HW211800   5.961   4.465   5.545  0.4006 -2.4637 -0.4287
 3017SOL    HW311801   5.913   4.492   5.405  0.1452  2.4937  0.4644
 3017SOL    MW411802   5.975   4.496   5.465  0.3319  0.1849 -0.5376
 3018SOL     OW11803   1.185   0.351   2.209 -0.2886 -0.2952 -0.3689
 3018SOL    HW211804   1.254   0.373   2.147  0.6551  0.2416  0.8501
 3018SOL    HW311805   1.218   0.380   2.294 -3.0246  2.3041 -0.0362
 3018SOL    MW411806   1.198   0.358   2.212  0.1360  0.6842 -0.2412
 3019SOL     OW11807   3.224   6.229   5.180  0.4837 -0.1398 -0.0419
 3019SOL    HW211808   3.145   6.276   5.208 -2.3602 -4.3324 -0.0108
 3019SOL    HW311809   3.276   6.219   5.260 -0.8779 -0.5061  0.8327
 3019SOL    MW411810   3.220   6.234   5.194 -0.2167  0.0729  0.2448
 3020SOL     OW11811   5.115   1.031   3.583 -0.0261  0.3832  0.4827
 3020SOL    HW211812   5.165   0.970   3.637  1.0745  0.9782  0.1623
 3020SOL    HW311813   5.033   0.985   3.564  0.9273 -1.1454 -0.0655
 3020SOL    MW411814   5.111   1.017   3.588 -0.0985  0.1516  0.3731
 3021SOL     OW11815   1.966   2.695   5.441 -0.3833 -0.4121  0.1709
 3021SOL    HW211816   1.926   2.782   5.438  1.4872  0.5288 -3.5044
 3021SOL    HW311817   2.046   2.707   5.492 -0.3662 -0.0582  0.0637
 3021SOL    MW411818   1.971   2.708   5.447  0.2137 -0.5354 -0.6602
 3022SOL     OW11819   5.302   2.600   5.113  0.2387 -0.6012  0.2858
 3022SOL    HW211820   5.290   2.510   5.141 -0.2513 -1.2687 -1.8871
 3022SOL    HW311821   5.228   2.618   5.055  0.6254  1.0246  0.2341
 3022SOL    MW411822   5.291   2.591   5.109  0.7543  0.1307  0.5187
 3023SOL     OW11823   2.119   3.561   5.413  0.5991  0.0506  0.2091
 3023SOL    HW211824   2.190   3.505   5.382 -0.3423 -0.8841 -0.3397
 3023SOL    HW311825   2.072   3.507   5.476 -0.0287  0.4089  0.0567
 3023SOL    MW411826   2.122   3.546   5.417  0.8887 -0.2432  0.3176
 3024SOL     OW11827   2.275   2.869   4.579 -0.1346  0.0096  0.5474
 3024SOL    HW211828   2.203   2.926   4.607 -1.4689 -0.7946 -1.0322
 3024SOL    HW311829   2.231   2.794   4.540  1.5932 -0.8522  0.1930
 3024SOL    MW411830   2.259   2.867   4.578 -0.2365  0.0658  0.4871
 3025SOL     OW11831   4.825   2.678   1.776  0.4916  0.3719 -0.0242
 3025SOL    HW211832   4.840   2.687   1.682  0.6322  1.2812  0.0727
 3025SOL    HW311833   4.793   2.589   1.787  2.6906 -0.5534 -0.6483
 3025SOL    MW411834   4.823   2.668   1.765 -0.1466  0.5200  0.1468
 3026SOL     OW11835   5.167   3.686   1.309  0.5573  0.4956  0.1633
 3026SOL    HW211836   5.221   3.606   1.315 -1.6924 -1.2421 -1.0797
 3026SOL    HW311837   5.127   3.694   1.396  1.6887  0.9681  0.6519
 3026SOL    MW411838   5.169   3.676   1.321 -0.5263 -0.2874 -0.1116
 3027SOL     OW11839   2.763   1.190   3.818 -0.1291  0.4738 -0.0497
 3027SOL    HW211840   2.757   1.281   3.849  0.6612  0.9281 -1.1534
 3027SOL    HW311841   2.815   1.196   3.738  1.2119 -1.1426  0.6556
 3027SOL    MW411842   2.769   1.203   3.811 -0.1790 -0.1051  0.1830
 3028SOL     OW11843   0.794   1.779   4.465  0.6700  0.3333  0.0848
 3028SOL    HW211844   0.747   1.858   4.438  0.3406  0.6281  1.4114
 3028SOL    HW311845   0.883   1.791   4.432  0.6943  1.3998  0.4881
 3028SOL    MW411846   0.799   1.791   4.457 -0.1567 -0.4747 -0.0036
 3029SOL     OW11847   0.233   3.530   3.700 -0.6706  0.3115 -0.0681
 3029SOL    HW211848   0.253   3.582   3.777  2.3864 -2.8333  1.5645
 3029SOL    HW311849   0.317   3.521   3.655 -1.5199 -1.3428 -1.4445
 3029SOL    MW411850   0.247   3.535   3.704 -0.2649  0.8758  0.3851
 3030SOL     OW11851   6.381   0.191   2.170  0.4673 -0.0564 -0.6211
 3030SOL    HW211852   6.371   0.103   2.135 -1.0938 -0.1209 -0.1168
 3030SOL    HW311853   6.329   0.246   2.111  0.4091  0.3201 -0.2241
 3030SOL    MW411854   6.373   0.187   2.158  0.4838 -0.5215 -0.0222
 3031SOL     OW11855   6.247   5.304   3.015  0.0594  0.0991 -0.6863
 3031SOL    HW211856   6.189   5.299   3.091 -0.7505 -0.3374 -1.3166
 3031SOL    HW311857   6.283   5.393   3.019 -0.6833  0.3950 -0.2963
 3031SOL    MW411858   6.244   5.315   3.026  0.4205  0.2303  0.2385
 3032SOL     OW11859   2.584   0.864   3.905 -0.6450  0.3018  0.6068
 3032SOL    HW211860   2.620   0.819   3.981 -0.3345  0.1057  0.3461
 3032SOL    HW311861   2.503   0.817   3.885 -0.2823 -0.1970  0.2882
 3032SOL    MW411862   2.578   0.852   3.912 -0.2261  0.4225  0.6127
 3033SOL     OW11863   5.050   2.762   0.928 -0.5446 -0.5905  0.0607
 3033SOL    HW211864   5.123   2.799   0.978  0.1476 -0.8794 -0.7054
 3033SOL    HW311865   4.976   2.820   0.946  0.3131  0.7318 -0.4872
 3033SOL    MW411866   5.050   2.775   0.937 -0.2964 -0.1930 -0.1862
 3034SOL     OW11867   4.079   1.066   0.304 -0.3853  0.4696  0.0399
 3034SOL    HW211868   4.125   1.145   0.333  1.9101 -0.7086 -0.2257
 3034SOL    HW311869   4.084   1.006   0.378 -0.6157 -0.0377 -0.3494
 3034SOL    MW411870   4.086   1.069   0.318 -0.3150 -0.8772 -0.0087
 3035SOL     OW11871   1.939   5.337   0.734  0.3493  0.5324  0.2234
 3035SOL    HW211872   1.956   5.295   0.818  0.4466 -0.9040 -0.4736
 3035SOL    HW311873   1.845   5.324   0.720  0.5914 -0.5611 -0.5393
 3035SOL    MW411874   1.929   5.330   0.743  0.0653 -0.0396  0.4335
 3036SOL     OW11875   4.021   5.074   2.606  0.7044 -0.0148  0.4047
 3036SOL    HW211876   4.108   5.061   2.569  1.1144  0.9597  0.9842
 3036SOL    HW311877   3.993   5.159   2.572  0.2316 -0.0469  0.7029
 3036SOL    MW411878   4.029   5.084   2.597 -0.6716 -0.4170 -0.0315
 3037SOL     OW11879   0.860   0.691   5.142 -0.4295  0.5298  1.0200
 3037SOL    HW211880   0.776   0.680   5.098  0.0386  0.0056  0.2409
 3037SOL    HW311881   0.875   0.607   5.186  0.8812 -0.3622 -0.9787
 3037SOL    MW411882   0.851   0.679   5.142 -0.0195 -0.1422 -0.1720
 3038SOL     OW11883   3.800   2.097   0.236 -0.0572 -0.2580  0.3420
 3038SOL    HW211884   3.744   2.040   0.289 -0.8763  1.9077  1.9199
 3038SOL    HW311885   3.746   2.173   0.215  0.2728 -0.8642 -3.5709
 3038SOL    MW411886   3.786   2.099   0.240  0.4879  0.0010 -0.7059
 3039SOL     OW11887   2.386   5.590   4.329  0.0053 -0.0415  0.2572
 3039SOL    HW211888   2.381   5.685   4.325 -0.0407 -0.0634 -0.1824
 3039SOL    HW311889   2.467   5.573   4.378  1.2927  0.2173 -1.6670
 3039SOL    MW411890   2.396   5.600   4.335  0.1744  0.5411 -0.0926
 3040SOL     OW11891   2.718   4.745   4.848  0.5319 -0.0540 -0.2118
 3040SOL    HW211892   2.764   4.829   4.845 -0.0435  0.2449 -0.8860
 3040SOL    HW311893   2.657   4.748   4.775  1.0195 -1.3774 -0.6996
 3040SOL    MW411894   2.716   4.756   4.838 -0.1601 -0.3590  0.6031
 3041SOL     OW11895   5.221   5.153   6.271 -0.1286  0.6001 -0.7838
 3041SOL    HW211896   5.172   5.211   6.329  2.3971  2.6386 -0.4625
 3041SOL    HW311897   5.279   5.104   6.329 -0.8400 -0.8175 -1.2396
 3041SOL    MW411898   5.222   5.154   6.286  0.0984  0.0338 -0.2782
 3042SOL     OW11899   2.041   5.049   3.788  0.5951 -0.9546 -0.2382
 3042SOL    HW211900   2.049   4.991   3.864  0.8968 -1.6080 -0.7492
 3042SOL    HW311901   1.999   5.128   3.821 -1.9837 -2.3282  0.0545
 3042SOL    MW411902   2.037   5.051   3.802  0.0537  0.1829  0.0803
 3043SOL     OW11903   1.248   3.310   5.576 -0.1513  0.1788  0.6770
 3043SOL    HW211904   1.195   3.310   5.496 -0.4719  1.8059  0.8555
 3043SOL    HW311905   1.194   3.356   5.641  0.1713 -0.9546  1.8125
 3043SOL    MW411906   1.234   3.316   5.574  0.0995  0.1607 -0.2796
 3044SOL     OW11907   4.765   1.056   0.568 -0.1410 -0.0725  0.1834
 3044SOL    HW211908   4.832   1.081   0.505 -0.8609 -0.7439 -0.8833
 3044SOL    HW311909   4.750   0.963   0.552 -1.5327  0.1282  0.1849
 3044SOL    MW411910   4.772   1.047   0.558 -0.0248 -0.4182 -0.8906
 3045SOL     OW11911   5.680   1.980   4.135 -0.1163  0.5740 -0.6209
 3045SOL    HW211912   5.695   2.073   4.150 -0.9413  0.6623 -0.2743
 3045SOL    HW311913   5.667   1.943   4.223 -1.0310  0.3653 -0.8332
 3045SOL    MW411914   5.680   1.987   4.149  0.2080  0.5113 -0.0917
 3046SOL     OW11915   4.594   1.831   5.423  0.0329  0.1184  0.0736
 3046SOL    HW211916   4.512   1.877   5.443  0.3065  0.4022  0.5666
 3046SOL    HW311917   4.662   1.899   5.430  0.3220 -0.1400 -0.2205
 3046SOL    MW411918   4.592   1.846   5.427 -0.2210 -0.0525  0.0200
 3047SOL     OW11919   2.465   6.352   4.210 -0.6576  0.1536  0.5125
 3047SOL    HW211920   2.463   6.256   4.203 -2.0731  0.1976  0.1338
 3047SOL    HW311921   2.444   6.369   4.302 -1.4571  0.1225  0.3405
 3047SOL    MW411922   2.462   6.342   4.222  0.5175  0.3019 -0.5161
 3048SOL     OW11923   5.912   4.698   3.617  0.4755 -0.1105 -0.0475
 3048SOL    HW211924   5.856   4.706   3.540  0.5426  0.7832 -0.0105
 3048SOL    HW311925   5.938   4.605   3.618 -0.2036 -0.3175 -0.6129
 3048SOL    MW411926   5.908   4.686   3.607  0.2003 -0.2776  1.3001
 3049SOL     OW11927   0.191   4.501   5.016  0.0247  0.4908 -0.3510
 3049SOL    HW211928   0.203   4.543   4.931  0.5279 -0.1600 -0.6081
 3049SOL    HW311929   0.153   4.570   5.071  1.1511  1.3977 -0.6587
 3049SOL    MW411930   0.187   4.516   5.012  0.7820  0.0580  0.2520
 3050SOL     OW11931   4.066   5.154   1.470  0.0314 -0.2256 -0.2240
 3050SOL    HW211932   4.004   5.201   1.526 -0.6224  0.2443 -1.3350
 3050SOL    HW311933   4.129   5.220   1.442 -0.6395 -0.0740 -1.4323
 3050SOL    MW411934   4.066   5.169   1.474 -0.1267 -0.1341  0.0995
 3051SOL     OW11935   6.271   5.878   0.458 -0.5813  0.3851 -0.2696
 3051SOL    HW211936   6.301   5.959   0.500 -0.6842  0.4469 -0.3141
 3051SOL    HW311937   6.318   5.809   0.504 -0.7329  0.4476 -0.0131
 3051SOL    MW411938   6.281   5.880   0.470 -0.0963  0.0922  0.2991
 3052SOL     OW11939   3.807   1.792   0.921 -0.2899  0.2382  0.8293
 3052SOL    HW211940   3.768   1.830   1.000  1.6557  1.8574  1.1133
 3052SOL    HW311941   3.771   1.845   0.849 -0.6881 -0.0632  0.8035
 3052SOL    MW411942   3.797   1.804   0.922  0.2593  0.0714  0.5568
 3053SOL     OW11943   6.102   4.019   4.673 -0.3332  0.5816 -0.3676
 3053SOL    HW211944   6.028   4.010   4.733  0.9312 -0.7720  1.0753
 3053SOL    HW311945   6.159   4.083   4.715 -0.7742  1.8778 -1.6424
 3053SOL    MW411946   6.099   4.026   4.687  0.2141 -0.0318 -0.6356
 3054SOL     OW11947   2.038   3.942   3.103  0.1034  0.5848 -0.0653
 3054SOL    HW211948   1.985   3.987   3.038  0.7438  1.7952  0.2249
 3054SOL    HW311949   2.128   3.954   3.073  0.2898 -0.7779 -0.1374
 3054SOL    MW411950   2.043   3.949   3.091  0.5604  0.4204 -0.1829
 3055SOL     OW11951   0.184   0.136   5.579 -0.3063  0.9857 -0.0657
 3055SOL    HW211952   0.268   0.178   5.559 -0.9374  1.6371 -1.4932
 3055SOL    HW311953   0.189   0.051   5.537 -0.1392  0.7821  0.3609
 3055SOL    MW411954   0.196   0.130   5.571  0.3216 -0.8674 -0.1803
 3056SOL     OW11955   6.116   4.731   4.027  0.0194 -0.2265  0.4209
 3056SOL    HW211956   6.120   4.799   4.094 -0.2557  0.4105 -0.2090
 3056SOL    HW311957   6.076   4.773   3.951  1.6013 -0.5457 -0.6353
 3056SOL    MW411958   6.111   4.745   4.026 -0.3556 -0.6328  0.0785
 3057SOL     OW11959   3.986   3.871   5.663 -0.2507 -0.2181 -0.3097
 3057SOL    HW211960   3.959   3.949   5.615 -0.5412 -0.2488 -0.1984
 3057SOL    HW311961   3.960   3.888   5.754  0.3590 -0.1289 -0.1424
 3057SOL    MW411962   3.979   3.883   5.669 -0.3509 -0.3778 -0.3064
 3058SOL     OW11963   0.358   6.354   2.311 -0.4110  0.1061 -0.4279
 3058SOL    HW211964   0.433   6.405   2.341 -2.5338  3.5721 -0.4574
 3058SOL    HW311965   0.316   6.324   2.392 -0.2609  0.1885 -0.3191
 3058SOL    MW411966   0.363   6.357   2.326 -0.1774  0.7134 -0.4408
 3059SOL     OW11967   3.078   4.841   5.626 -0.5995 -0.0590 -0.1662
 3059SOL    HW211968   3.108   4.931   5.620  0.5532 -0.4093  0.1984
 3059SOL    HW311969   3.012   4.833   5.556 -0.0046  0.7822 -0.8369
 3059SOL    MW411970   3.073   4.852   5.616  0.4672  0.3792 -0.2069
 3060SOL     OW11971   2.957   1.163   1.962  0.1356  0.4932  0.2483
 3060SOL    HW211972   3.052   1.155   1.950 -0.1022 -0.1443 -1.5648
 3060SOL    HW311973   2.938   1.255   1.942  0.3336  0.5582  0.3537
 3060SOL    MW411974   2.967   1.174   1.958  0.0142 -0.1620 -0.4759
 3061SOL     OW11975   1.350   2.894   0.086 -0.0330  0.4768 -0.1174
 3061SOL    HW211976   1.265   2.882   0.127 -0.1972  1.1124 -0.2599
 3061SOL    HW311977   1.351   2.985   0.058  0.7796  0.5379  0.0687
 3061SOL    MW411978   1.339   2.904   0.087  0.0644 -0.5914 -0.3393
 3062SOL     OW11979   2.670   0.710   6.371 -0.2700  0.1763 -0.0526
 3062SOL    HW211980   2.678   0.805   6.367 -2.4002  0.3677 -1.0984
 3062SOL    HW311981   2.599   0.695   6.434  0.2801 -0.7623  0.3707
 3062SOL    MW411982   2.661   0.720   6.379  0.2531 -0.4819  0.2311
 3063SOL     OW11983   3.336   3.282   2.866 -0.3119 -0.0219 -0.3391
 3063SOL    HW211984   3.424   3.249   2.850 -0.7883 -0.9816 -1.0753
 3063SOL    HW311985   3.348   3.355   2.927  0.8937 -0.7729  0.3598
 3063SOL    MW411986   3.349   3.287   2.872  0.3361  0.0832  0.6606
 3064SOL     OW11987   6.275   0.051   5.056  0.0855  0.1172  0.4498
 3064SOL    HW211988   6.188   0.070   5.090 -0.5500 -0.8497 -0.5457
 3064SOL    HW311989   6.277   0.092   4.969  0.4187 -0.3225  0.2432
 3064SOL    MW411990   6.264   0.059   5.049 -0.4638  0.6547 -0.1231
 3065SOL     OW11991   3.750   3.724   2.767  0.3618  0.1531  0.2109
 3065SOL    HW211992   3.722   3.694   2.681 -1.3962  1.0524  0.4070
 3065SOL    HW311993   3.828   3.777   2.751 -0.1098  0.5400 -0.8807
 3065SOL    MW411994   3.756   3.727   2.754  0.1294  0.4115 -0.3886
 3066SOL     OW11995   5.829   3.129   4.840  0.0639  0.5134  0.1530
 3066SOL    HW211996   5.892   3.177   4.892 -0.2761  0.0932  0.9691
 3066SOL    HW311997   5.763   3.194   4.814  0.9516  1.0087 -0.9306
 3066SOL    MW411998   5.828   3.144   4.843  0.5861  0.6692  0.2028
 3067SOL     OW11999   4.061   1.591   5.314 -0.1550 -0.1151  0.1259
 3067SOL    HW212000   4.133   1.654   5.304  0.4472 -0.9358 -0.8468
 3067SOL    HW312001   4.046   1.587   5.408 -1.3576  2.7391  0.1846
 3067SOL    MW412002   4.068   1.599   5.325 -0.1765  0.4191  0.4211
 3068SOL     OW12003   2.650   3.101   1.249  0.4960  0.3720  0.4831
 3068SOL    HW212004   2.580   3.115   1.313  0.7972  0.3425  0.8246
 3068SOL    HW312005   2.696   3.023   1.281  1.7542  1.3759  1.2364
 3068SOL    MW412006   2.647   3.093   1.262 -0.0669  0.6435  0.0657
 3069SOL     OW12007   5.879   4.279   3.371 -0.0056 -0.1450 -0.1104
 3069SOL    HW212008   5.858   4.187   3.352 -1.3003 -0.7016  3.1923
 3069SOL    HW312009   5.971   4.278   3.395  0.5901 -0.1073 -2.2338
 3069SOL    MW412010   5.888   4.267   3.372  0.0196 -0.5948  0.2233
 3070SOL     OW12011   3.789   3.675   6.103 -0.0643 -0.1190 -0.0408
 3070SOL    HW212012   3.805   3.613   6.031  0.1332  1.1989 -1.1881
 3070SOL    HW312013   3.869   3.671   6.156 -0.0190 -0.7723 -0.1515
 3070SOL    MW412014   3.802   3.666   6.100 -0.8295  0.5094  0.0067
 3071SOL     OW12015   2.755   3.736   5.693 -0.1721 -0.0080  0.0497
 3071SOL    HW212016   2.791   3.762   5.608  1.9369 -1.7492  0.3261
 3071SOL    HW312017   2.691   3.668   5.671  0.0952 -0.1909 -0.1746
 3071SOL    MW412018   2.752   3.730   5.679 -0.2719  0.0514  0.4087
 3072SOL     OW12019   0.373   3.628   4.452  0.2416  0.1514  0.0209
 3072SOL    HW212020   0.372   3.622   4.357  0.9558 -0.2720  0.0348
 3072SOL    HW312021   0.301   3.688   4.473  1.3970  1.9504 -0.8911
 3072SOL    MW412022   0.363   3.635   4.443  0.3073  0.2092  0.3224
 3073SOL     OW12023   2.180   5.223   5.584  0.0651 -0.2389 -0.0108
 3073SOL    HW212024   2.183   5.148   5.644  1.9744  0.7237  1.1904
 3073SOL    HW312025   2.258   5.213   5.530  0.4502  0.9592  0.2946
 3073SOL    MW412026   2.191   5.211   5.585  0.3269 -0.9806  0.0233
 3074SOL     OW12027   2.030   4.444   1.525 -0.3032  0.2883  0.8871
 3074SOL    HW212028   1.956   4.416   1.471 -1.1626  1.2530  1.5373
 3074SOL    HW312029   2.067   4.362   1.558  0.5489 -0.3485 -1.5099
 3074SOL    MW412030   2.025   4.429   1.522  0.2511 -0.0500  0.0786
 3075SOL     OW12031   1.039   3.505   0.627 -0.5770 -0.3907  0.1674
 3075SOL    HW212032   1.062   3.435   0.566  0.1948  1.2853 -1.5548
 3075SOL    HW312033   1.124   3.541   0.655 -0.9667 -0.0013  0.8636
 3075SOL    MW412034   1.054   3.501   0.623 -0.1135 -0.0130  0.1484
 3076SOL     OW12035   4.397   5.959   4.635  0.2977 -0.6853 -0.6295
 3076SOL    HW212036   4.386   5.980   4.543  1.4738 -0.8406 -0.8238
 3076SOL    HW312037   4.366   6.036   4.682  1.8978  0.3841 -1.2460
 3076SOL    MW412038   4.392   5.972   4.629  0.1115 -0.7377 -0.4077
 3077SOL     OW12039   4.785   4.447   1.014  0.2661 -0.7869  0.1380
 3077SOL    HW212040   4.705   4.496   0.998  1.6664  1.1405 -1.4798
 3077SOL    HW312041   4.766   4.393   1.091 -2.2886  0.1788  0.2583
 3077SOL    MW412042   4.772   4.446   1.022 -0.3621 -0.0075  0.0210
 3078SOL     OW12043   2.230   0.089   5.320 -0.0978  0.2173 -0.0223
 3078SOL    HW212044   2.242   0.184   5.323  0.5287  0.1629 -0.5693
 3078SOL    HW312045   2.160   0.076   5.256  0.1388  0.2820 -0.2929
 3078SOL    MW412046   2.222   0.100   5.312  0.3169 -0.0075  0.8395
 3079SOL     OW12047   1.447   5.428   3.617  0.1794 -0.1297 -0.0158
 3079SOL    HW212048   1.391   5.464   3.685  1.4396 -0.2049  1.0982
 3079SOL    HW312049   1.536   5.454   3.642  0.7302 -0.6235 -1.3354
 3079SOL    MW412050   1.452   5.436   3.629  0.1469  0.0138 -0.0910
 3080SOL     OW12051   0.881   6.401   0.677  0.6678 -0.2059  0.3242
 3080SOL    HW212052   0.865   6.317   0.634  0.6922 -0.4771  0.8337
 3080SOL    HW312053   0.865   6.384   0.769 -0.1002  0.5592  0.3367
 3080SOL    MW412054   0.877   6.388   0.683  0.5444 -1.0398 -0.1175
 3081SOL     OW12055   3.175   0.341   1.385 -0.1934  0.3333  0.3783
 3081SOL    HW212056   3.235   0.294   1.327 -2.7287 -1.2411 -1.0926
 3081SOL    HW312057   3.138   0.410   1.330  1.0719  2.1329  1.6361
 3081SOL    MW412058   3.178   0.344   1.370 -0.5885 -0.0533 -0.1002
 3082SOL     OW12059   6.404   3.399   2.876 -0.0774  0.0279  0.1998
 3082SOL    HW212060   6.477   3.339   2.868 -1.7212 -1.8599 -1.8769
 3082SOL    HW312061   6.364   3.401   2.789 -4.3358 -1.5537  1.8438
 3082SOL    MW412062   6.408   3.392   2.863  0.0443  0.1844  0.5838
 3083SOL     OW12063   0.382   4.954   0.889 -0.2173  0.2617 -0.4301
 3083SOL    HW212064   0.327   5.031   0.874 -1.5891 -0.4924  0.5600
 3083SOL    HW312065   0.349   4.889   0.827 -0.9467 -0.4206  0.6382
 3083SOL    MW412066   0.370   4.956   0.879  0.2496 -0.4041  0.2340
 3084SOL     OW12067   1.541   4.861   5.847 -0.1072 -0.4038  0.3292
 3084SOL    HW212068   1.492   4.809   5.783 -1.8422 -0.5640  1.7250
 3084SOL    HW312069   1.538   4.809   5.927  0.5317  0.5823  1.0075
 3084SOL    MW412070   1.534   4.848   5.849  0.1809  0.2189  0.0987
 3085SOL     OW12071   1.976   3.529   0.950  0.1670 -0.4378  0.1798
 3085SOL    HW212072   2.031   3.465   0.905 -0.0227  0.3686 -1.2674
 3085SOL    HW312073   1.961   3.598   0.885 -0.8524  0.3584  1.2086
 3085SOL    MW412074   1.981   3.530   0.936 -0.7556 -0.1554 -0.4816
 3086SOL     OW12075   2.751   4.620   5.109 -0.6489 -0.0954 -0.3989
 3086SOL    HW212076   2.835   4.574   5.109 -1.0760 -0.8994  0.1871
 3086SOL    HW312077   2.753   4.673   5.030  1.2753  1.4881  0.6017
 3086SOL    MW412078   2.763   4.621   5.099 -0.0076  0.4557 -0.0045
 3087SOL     OW12079   5.489   5.844   4.212  0.3437  0.1945  0.3441
 3087SOL    HW212080   5.484   5.923   4.158  1.1636  0.0634  0.0607
 3087SOL    HW312081   5.406   5.799   4.197 -0.4802  1.4012  1.1475
 3087SOL    MW412082   5.478   5.848   4.203 -0.4069  0.1361  0.4264
 3088SOL     OW12083   4.292   5.585   2.406  0.3778 -0.5188 -0.1468
 3088SOL    HW212084   4.197   5.593   2.421  0.2557  1.2441 -1.4914
 3088SOL    HW312085   4.327   5.554   2.489 -1.2209  0.1439  0.8312
 3088SOL    MW412086   4.284   5.582   2.419 -0.5651 -0.2406 -0.2376
 3089SOL     OW12087   1.529   5.623   0.746  0.1296 -0.3650  0.2476
 3089SOL    HW212088   1.446   5.665   0.766 -0.0253 -1.2499  1.6058
 3089SOL    HW312089   1.596   5.683   0.778 -0.0022 -0.0032 -0.1481
 3089SOL    MW412090   1.527   5.636   0.753 -0.2492  0.3216  1.1069
 3090SOL     OW12091   3.730   4.790   0.870  0.0863 -0.6262  0.4075
 3090SOL    HW212092   3.653   4.845   0.858  0.4974 -0.4696 -2.2398
 3090SOL    HW312093   3.770   4.822   0.951 -0.4470  2.1006 -0.2924
 3090SOL    MW412094   3.725   4.802   0.879 -0.4106 -0.0759 -0.0682
 3091SOL     OW12095   1.383   0.255   5.770  0.1716 -0.3375  0.0873
 3091SOL    HW212096   1.432   0.295   5.841 -0.1597  0.8149 -0.3074
 3091SOL    HW312097   1.426   0.171   5.754  0.5853 -0.3583  1.2658
 3091SOL    MW412098   1.395   0.249   5.777  0.2859 -1.0781  0.0109
 3092SOL     OW12099   4.537   5.185   1.480  0.2217  0.0582 -0.2346
 3092SOL    HW212100   4.531   5.147   1.392  1.8228 -0.1716 -0.2771
 3092SOL    HW312101   4.608   5.249   1.473 -1.4747  2.0934  0.2057
 3092SOL    MW412102   4.546   5.189   1.468  0.8237 -0.0296  0.1875
 3093SOL     OW12103   4.069   4.527   0.753 -0.0422  0.0117 -0.2532
 3093SOL    HW212104   4.111   4.595   0.805 -1.4396  1.0726 -0.4506
 3093SOL    HW312105   4.117   4.447   0.775  0.6462  0.7751  1.1746
 3093SOL    MW412106   4.081   4.525   0.763 -0.0588 -0.2163 -0.3248
 3094SOL     OW12107   4.617   0.398   2.876 -0.1806  0.0969  0.1951
 3094SOL    HW212108   4.659   0.371   2.795 -1.6949  0.3621 -0.7140
 3094SOL    HW312109   4.524   0.404   2.855 -0.6014  0.3218  1.9118
 3094SOL    MW412110   4.610   0.395   2.863  0.1920  0.3118  0.3535
 3095SOL     OW12111   3.253   3.577   0.080  0.0764  0.0899 -0.6209
 3095SOL    HW212112   3.287   3.537  -0.000  1.6047 -0.1389  0.1078
 3095SOL    HW312113   3.163   3.544   0.086  0.1882 -0.5036 -1.8348
 3095SOL    MW412114   3.245   3.567   0.071 -0.6733  0.8429  0.5836
 3096SOL     OW12115   5.088   1.587   0.690 -0.4844 -0.6402  0.6788
 3096SOL    HW212116   5.049   1.506   0.723  0.6218 -0.9125  1.3688
 3096SOL    HW312117   5.054   1.655   0.749  0.6019 -0.9735  1.7203
 3096SOL    MW412118   5.078   1.586   0.703 -0.1902 -0.4273 -0.2963
 3097SOL     OW12119   1.573   0.129   3.003  0.1972 -0.1330  0.4359
 3097SOL    HW212120   1.624   0.050   3.022  0.1091  0.0174  1.3534
 3097SOL    HW312121   1.527   0.108   2.922  2.9840  0.3691 -1.4111
 3097SOL    MW412122   1.573   0.115   2.995 -0.0490  0.3225  0.0887
 3098SOL     OW12123   3.510   4.237   0.395  0.0486 -0.4952 -0.2960
 3098SOL    HW212124   3.562   4.183   0.336  1.4828 -1.2884  1.5823
 3098SOL    HW312125   3.444   4.177   0.430  1.2525 -0.9201  1.3233
 3098SOL    MW412126   3.508   4.222   0.392 -0.6516 -0.2959  0.5712
 3099SOL     OW12127   0.379   1.199   5.564  0.3924  0.0906 -0.1177
 3099SOL    HW212128   0.359   1.285   5.600 -0.1993 -0.2517  0.3965
 3099SOL    HW312129   0.428   1.155   5.634  2.4050  0.6695 -1.0978
 3099SOL    MW412130   0.383   1.205   5.578 -0.1844  0.3279 -0.2387
 3100SOL     OW12131   4.470   2.939   0.024  0.2577 -0.2478  0.4933
 3100SOL    HW212132   4.508   2.946   0.112 -1.0070  1.3855  0.9568
 3100SOL    HW312133   4.521   3.000  -0.029  1.6305 -1.9091 -0.1908
 3100SOL    MW412134   4.482   2.948   0.029 -0.4877  0.8971  0.0354
 3101SOL     OW12135   4.821   5.092   4.131 -0.5251 -0.3256 -0.5722
 3101SOL    HW212136   4.767   5.123   4.203  0.8129  0.3752  0.1605
 3101SOL    HW312137   4.758   5.056   4.068 -1.7283 -0.7699  0.8366
 3101SOL    MW412138   4.806   5.092   4.132 -0.0660  0.2083 -0.2322
 3102SOL     OW12139   2.515   0.864   2.056  0.5678 -0.1752  0.2607
 3102SOL    HW212140   2.468   0.811   1.993 -1.2185  1.0873  0.4621
 3102SOL    HW312141   2.606   0.862   2.026 -0.0605 -0.4213 -1.7709
 3102SOL    MW412142   2.521   0.857   2.044  0.1339  0.3037  0.7577
 3103SOL     OW12143   3.560   2.813   4.731  0.0477  0.4464 -0.5887
 3103SOL    HW212144   3.573   2.793   4.638  0.4834 -0.0002 -0.4357
 3103SOL    HW312145   3.527   2.733   4.769  1.0255  0.2401 -0.1307
 3103SOL    MW412146   3.558   2.800   4.724  0.5305  0.3370 -0.2943
 3104SOL     OW12147   0.967   4.640   1.606  0.0568  0.2895  1.0601
 3104SOL    HW212148   1.005   4.616   1.521 -0.2385  0.2372  0.9393
 3104SOL    HW312149   1.037   4.685   1.652  0.8980 -1.4813  1.6046
 3104SOL    MW412150   0.981   4.643   1.601 -0.5621  0.2086  0.1864
 3105SOL     OW12151   2.228   2.943   1.354 -0.3289  1.0069 -0.0474
 3105SOL    HW212152   2.236   2.910   1.443 -0.6892  0.4702 -0.2135
 3105SOL    HW312153   2.193   2.870   1.303  0.7737  1.0006 -0.8313
 3105SOL    MW412154   2.225   2.929   1.359  0.0144  0.6232  0.1706
 3106SOL     OW12155   4.113   0.290   1.760  0.3206  0.3506  0.1642
 3106SOL    HW212156   4.072   0.236   1.692 -1.1074  1.3304  0.1948
 3106SOL    HW312157   4.077   0.256   1.842  1.0159  0.0207  0.3324
 3106SOL    MW412158   4.103   0.278   1.762 -0.4584 -0.6890 -0.5819
 3107SOL     OW12159   4.855   6.094   0.425 -0.6047  0.2079 -0.3993
 3107SOL    HW212160   4.928   6.042   0.394  0.0054  0.5838  0.3647
 3107SOL    HW312161   4.895   6.164   0.476 -1.4002  1.4958 -1.4881
 3107SOL    MW412162   4.870   6.096   0.428  0.0440  0.1090 -0.4017
 3108SOL     OW12163   5.267   0.216   4.789  0.6911  0.4452 -0.1367
 3108SOL    HW212164   5.174   0.206   4.772  0.6974  0.0823  0.0182
 3108SOL    HW312165   5.303   0.128   4.777  0.7295  0.1992  1.4945
 3108SOL    MW412166   5.260   0.203   4.785  0.2875  0.4643 -0.2097
 3109SOL     OW12167   1.141   4.363   5.181  0.3764  0.2425 -0.0517
 3109SOL    HW212168   1.173   4.332   5.265  0.4164  0.4097 -0.0038
 3109SOL    HW312169   1.144   4.287   5.124 -3.3748 -1.0179  1.1113
 3109SOL    MW412170   1.145   4.349   5.185  0.1270 -0.6121  0.5237
 3110SOL     OW12171   0.389   4.418   2.619 -0.0060 -0.9831  0.2046
 3110SOL    HW212172   0.374   4.324   2.623  1.5051 -1.2615 -0.0814
 3110SOL    HW312173   0.388   4.439   2.525 -1.0293 -0.5815  0.2949
 3110SOL    MW412174   0.387   4.409   2.607  0.3336  0.4192  0.5929
 3111SOL     OW12175   2.913   5.273   2.987 -0.2474 -0.4367  0.0048
 3111SOL    HW212176   2.896   5.346   3.046 -0.3372 -0.2780 -0.2180
 3111SOL    HW312177   3.006   5.280   2.965 -0.0865 -0.8033  0.5426
 3111SOL    MW412178   2.923   5.283   2.992  0.0053  0.1152  0.1354
 3112SOL     OW12179   5.650   4.640   1.552  1.0991 -0.2229 -0.0338
 3112SOL    HW212180   5.672   4.587   1.629 -0.0116 -1.8709 -0.7749
 3112SOL    HW312181   5.555   4.650   1.557  1.0147 -0.3717 -1.1786
 3112SOL    MW412182   5.641   4.634   1.563 -0.2096 -0.2291  0.0748
 3113SOL     OW12183   5.110   6.281   3.783  0.3493 -0.2145 -0.0810
 3113SOL    HW212184   5.197   6.244   3.795  1.1395  1.8789  1.3761
 3113SOL    HW312185   5.090   6.266   3.691  1.6853 -1.8466 -0.1562
 3113SOL    MW412186   5.119   6.274   3.773 -0.0859 -1.0283 -0.3485
 3114SOL     OW12187   1.018   5.982   5.647 -0.4011  0.6008  0.6796
 3114SOL    HW212188   1.075   6.021   5.713 -1.0555  0.2513  1.4669
 3114SOL    HW312189   1.068   5.990   5.565  1.6313 -1.3869  1.6131
 3114SOL    MW412190   1.032   5.988   5.645  0.0387 -0.2910  0.1947
 3115SOL     OW12191   5.243   0.281   5.060  0.7744  0.8163  0.0386
 3115SOL    HW212192   5.269   0.270   4.969  1.6837 -1.7413  0.5180
 3115SOL    HW312193   5.320   0.253   5.111 -0.4629 -0.0423  1.5422
 3115SOL    MW412194   5.257   0.276   5.055  0.4167 -0.1348  0.2938
 3116SOL     OW12195   2.147   4.337   0.745  0.4142 -0.5596 -0.3992
 3116SOL    HW212196   2.063   4.380   0.730  0.0916 -0.4062  1.5660
 3116SOL    HW312197   2.201   4.403   0.789  0.5519 -1.5062  0.9419
 3116SOL    MW412198   2.143   4.351   0.749  0.2888  0.4587 -0.0405
 3117SOL     OW12199   5.467   1.797   5.784 -0.6097 -0.0440 -0.1442
 3117SOL    HW212200   5.395   1.747   5.745 -0.1220 -0.5100 -0.4635
 3117SOL    HW312201   5.462   1.883   5.743 -1.2597  0.0726  0.1696
 3117SOL    MW412202   5.457   1.801   5.774 -0.4145 -0.5310  0.3427
 3118SOL     OW12203   1.843   2.033   1.041 -0.0425  0.1222 -0.1125
 3118SOL    HW212204   1.839   2.125   1.068 -4.2750 -0.6889  2.9591
 3118SOL    HW312205   1.807   2.032   0.952  0.1310  1.3967 -0.2144
 3118SOL    MW412206   1.838   2.045   1.032  0.3287  0.5414  0.3937
 3119SOL     OW12207   2.052   2.210   1.508 -0.1459 -0.0646 -0.3093
 3119SOL    HW212208   2.008   2.127   1.519 -1.2549  0.3010 -1.6604
 3119SOL    HW312209   2.124   2.191   1.448 -0.0982 -0.1425 -0.2275
 3119SOL    MW412210   2.056   2.197   1.501 -0.1371 -0.0288 -0.0301
 3120SOL     OW12211   6.255   1.759   0.344  0.2304 -0.2506  0.2100
 3120SOL    HW212212   6.309   1.803   0.278 -0.3641 -1.1258 -0.8992
 3120SOL    HW312213   6.190   1.711   0.293 -1.4953  0.6158  1.4972
 3120SOL    MW412214   6.254   1.758   0.329  0.2752  0.1364  0.3810
 3121SOL     OW12215   4.022   1.562   6.004  0.3378 -0.1002  0.3134
 3121SOL    HW212216   3.982   1.639   5.962  0.4642  0.5928  1.4217
 3121SOL    HW312217   4.073   1.598   6.077 -0.3295 -1.2911  1.4187
 3121SOL    MW412218   4.023   1.577   6.008  0.3252 -0.1894 -0.2282
 3122SOL     OW12219   0.057   3.537   0.565  0.2358 -0.1339  0.1876
 3122SOL    HW212220   0.147   3.568   0.575 -0.1048  0.3455  2.2100
 3122SOL    HW312221   0.002   3.612   0.587 -0.6598 -0.6753 -0.1282
 3122SOL    MW412222   0.062   3.551   0.569 -0.6373 -0.8741 -0.0300
 3123SOL     OW12223   1.013   0.778   5.640  0.3149 -0.3516  0.6074
 3123SOL    HW212224   0.989   0.821   5.722  3.2352  1.7980  0.4846
 3123SOL    HW312225   1.039   0.690   5.666 -1.4970 -0.6726  1.5052
 3123SOL    MW412226   1.013   0.772   5.654 -0.4752 -0.2950  0.5436
 3124SOL     OW12227   4.750   2.077   4.081  0.2299  0.6872 -0.4309
 3124SOL    HW212228   4.762   2.054   4.173 -1.0535 -0.5798 -0.5536
 3124SOL    HW312229   4.704   2.002   4.043 -1.8394  2.3918 -1.4570
 3124SOL    MW412230   4.746   2.064   4.088  0.4087 -0.3541 -0.2654
 3125SOL     OW12231   3.127   5.408   2.702 -0.2606 -0.4171 -0.0356
 3125SOL    HW212232   3.067   5.442   2.635  0.2156  1.0268  0.2249
 3125SOL    HW312233   3.212   5.407   2.660 -0.1285 -0.4609  0.2289
 3125SOL    MW412234   3.130   5.412   2.688 -0.6224 -0.2426 -0.3447
 3126SOL     OW12235   3.874   0.452   4.132 -0.4747  0.3679  0.1201
 3126SOL    HW212236   3.800   0.510   4.112 -1.2141 -0.4213  0.5324
 3126SOL    HW312237   3.838   0.364   4.125  0.2183 -0.0083  1.1558
 3126SOL    MW412238   3.859   0.448   4.128  0.9184  0.6361  0.3958
 3127SOL     OW12239   1.165   0.074   2.197 -0.0993  0.0303  0.2556
 3127SOL    HW212240   1.123   0.058   2.282 -0.2686  0.3211  0.2262
 3127SOL    HW312241   1.195   0.164   2.201 -0.1813  0.0705 -0.0278
 3127SOL    MW412242   1.163   0.084   2.209 -0.5292 -0.6439 -0.4576
 3128SOL     OW12243   3.688   0.023   3.308 -0.6613  0.1415 -0.1211
 3128SOL    HW212244   3.636  -0.055   3.329 -1.5207  0.4126 -1.1442
 3128SOL    HW312245   3.626   0.095   3.318 -0.1137  0.6079 -0.0728
 3128SOL    MW412246   3.673   0.022   3.312  0.1213  0.1896  0.2541
 3129SOL     OW12247   3.671   4.466   5.923 -0.4511 -0.4737  0.2544
 3129SOL    HW212248   3.578   4.448   5.911 -0.5685 -0.1864  0.7026
 3129SOL    HW312249   3.715   4.390   5.884 -0.8296 -0.0206 -1.0858
 3129SOL    MW412250   3.665   4.453   5.916  0.1037 -0.0577  0.1730
 3130SOL     OW12251   4.911   0.269   2.406 -0.3221  0.4877 -0.0962
 3130SOL    HW212252   4.922   0.337   2.339  1.2607 -1.0079 -1.4656
 3130SOL    HW312253   4.832   0.222   2.381 -1.0298  1.3540  0.4556
 3130SOL    MW412254   4.902   0.272   2.394  0.4544 -0.2436 -0.0104
 3131SOL     OW12255   3.939   5.590   2.232  0.0852  0.0874  0.0804
 3131SOL    HW212256   3.910   5.527   2.166  0.3751 -0.8525  0.8283
 3131SOL    HW312257   3.989   5.655   2.183 -0.0464 -0.3651 -0.6769
 3131SOL    MW412258   3.942   5.591   2.217 -0.0206 -0.3566  0.2234
 3132SOL     OW12259   5.651   6.065   6.255  0.4508  0.3040 -0.0461
 3132SOL    HW212260   5.684   6.008   6.185  0.3416  1.0901 -0.7450
 3132SOL    HW312261   5.699   6.037   6.333  0.9003 -0.2816 -0.5235
 3132SOL    MW412262   5.662   6.054   6.256  0.7260 -0.5098 -0.4125
 3133SOL     OW12263   2.994   5.702   4.733 -0.5570  0.3089 -0.0567
 3133SOL    HW212264   3.024   5.773   4.675  0.5350 -1.7527 -2.1787
 3133SOL    HW312265   2.908   5.679   4.700 -1.0489  0.8182  0.8372
 3133SOL    MW412266   2.987   5.709   4.721 -0.0950  0.1410  0.2351
 3134SOL     OW12267   0.568   5.198   3.383  0.1451  0.1142  0.2499
 3134SOL    HW212268   0.522   5.253   3.446 -0.3101  0.1686 -0.1189
 3134SOL    HW312269   0.499   5.143   3.345  0.0060  1.5625 -1.7454
 3134SOL    MW412270   0.553   5.198   3.386  0.1826 -0.0128 -0.8825
 3135SOL     OW12271   2.344   1.774   5.268  0.7335 -0.8347 -0.6870
 3135SOL    HW212272   2.311   1.730   5.190 -0.4935 -1.7998  0.3504
 3135SOL    HW312273   2.291   1.853   5.276  1.0832 -0.5639 -1.0018
 3135SOL    MW412274   2.333   1.779   5.259 -0.6155  0.0527 -0.2544
 3136SOL     OW12275   2.198   4.638   5.969  0.1739  0.3771  0.1080
 3136SOL    HW212276   2.158   4.554   5.993  0.0628 -0.0179 -1.3579
 3136SOL    HW312277   2.131   4.683   5.918  0.6316  0.8788 -0.0617
 3136SOL    MW412278   2.184   4.633   5.966  0.1362  0.2407  0.2372
 3137SOL     OW12279   3.908   0.316   5.548 -0.2343 -0.0901 -0.2121
 3137SOL    HW212280   3.985   0.280   5.591 -1.4997 -1.7183  0.7662
 3137SOL    HW312281   3.871   0.376   5.612  0.9779  1.8761 -1.2428
 3137SOL    MW412282   3.913   0.319   5.562  0.1449 -0.1026  0.2784
 3138SOL     OW12283   4.731   3.961   6.266  0.1383  0.1960 -0.3067
 3138SOL    HW212284   4.662   4.027   6.264 -0.5438 -0.1028  3.9493
 3138SOL    HW312285   4.702   3.894   6.204 -1.4896  1.7515 -1.3058
 3138SOL    MW412286   4.718   3.961   6.258  0.3136  0.1990 -0.1325
 3139SOL     OW12287   1.421   5.615   0.446 -0.2652  0.4398  0.5473
 3139SOL    HW212288   1.332   5.588   0.469  0.1409 -1.2258  0.3038
 3139SOL    HW312289   1.459   5.643   0.529 -0.5507 -0.2834  0.9341
 3139SOL    MW412290   1.414   5.615   0.460  0.4109 -0.0720  0.4400
 3140SOL     OW12291   5.440   6.231   4.299 -0.3106  0.4396  0.3578
 3140SOL    HW212292   5.465   6.313   4.257 -2.6562  0.2661 -1.6237
 3140SOL    HW312293   5.431   6.169   4.226 -2.8390 -0.3745  1.2453
 3140SOL    MW412294   5.442   6.233   4.284 -0.1335 -0.4170 -0.2564
 3141SOL     OW12295   1.195   5.410   0.790  0.1299 -0.1259 -0.5676
 3141SOL    HW212296   1.163   5.499   0.775 -0.1638 -0.1737 -0.2326
 3141SOL    HW312297   1.219   5.378   0.702  0.0608  0.2133 -0.7114
 3141SOL    MW412298   1.194   5.417   0.776  0.2402 -0.1297 -0.5441
 3142SOL     OW12299   2.280   5.168   3.236  0.0675 -0.0365 -0.5910
 3142SOL    HW212300   2.266   5.221   3.315  2.0309  0.7164 -0.6989
 3142SOL    HW312301   2.277   5.077   3.268 -1.0304  0.1927  0.0014
 3142SOL    MW412302   2.278   5.163   3.251  0.1145 -0.6280 -0.0657
 3143SOL     OW12303   4.471   3.967   5.764 -0.0478  0.8454 -0.0075
 3143SOL    HW212304   4.416   3.888   5.758 -2.2244  2.0525  2.2847
 3143SOL    HW312305   4.559   3.932   5.775 -0.7876 -1.2703 -0.1304
 3143SOL    MW412306   4.475   3.952   5.765  0.5791  0.1519 -0.3824
 3144SOL     OW12307   1.961   1.402   0.767 -0.0831  0.1960  0.0726
 3144SOL    HW212308   1.919   1.432   0.687 -1.3588  2.3709  1.4464
 3144SOL    HW312309   1.909   1.327   0.795 -1.0162  0.7824 -0.0316
 3144SOL    MW412310   1.948   1.396   0.760 -0.5086 -0.4676 -0.0800
 3145SOL     OW12311   2.925   2.635   5.955  0.4483  0.3753 -0.0938
 3145SOL    HW212312   2.847   2.615   5.904 -0.1418 -0.6767  1.1618
 3145SOL    HW312313   2.989   2.569   5.927  0.4970  0.4943 -0.2653
 3145SOL    MW412314   2.923   2.623   5.945 -0.0362  0.3160 -0.4214
 3146SOL     OW12315   0.490   2.682   4.920 -0.2753  0.0582  0.0909
 3146SOL    HW212316   0.463   2.650   4.834  1.2321  0.5182 -0.5883
 3146SOL    HW312317   0.498   2.777   4.908  0.1532  0.0988  0.6755
 3146SOL    MW412318   0.487   2.691   4.907  0.1168  0.2549 -0.3250
 3147SOL     OW12319   4.486   4.467   2.244 -0.5929  0.1135 -0.3295
 3147SOL    HW212320   4.567   4.427   2.276 -0.1763  0.1034 -1.3873
 3147SOL    HW312321   4.509   4.558   2.228 -1.5423  0.8811  2.0867
 3147SOL    MW412322   4.499   4.474   2.246 -0.1639  0.0524  0.6398
 3148SOL     OW12323   6.419   0.671   2.272 -0.1844 -0.2097  0.0090
 3148SOL    HW212324   6.510   0.688   2.246  0.4053 -1.5217  1.0562
 3148SOL    HW312325   6.406   0.724   2.350 -0.6087  0.6017 -0.5973
 3148SOL    MW412326   6.429   0.680   2.279 -0.4149  0.5499  0.0802
 3149SOL     OW12327   1.551   3.411   3.936 -0.3622 -0.2030 -0.0472
 3149SOL    HW212328   1.472   3.433   3.887 -0.2999 -3.0899 -1.6684
 3149SOL    HW312329   1.618   3.397   3.869  0.0871 -2.9547  0.8233
 3149SOL    MW412330   1.549   3.412   3.921 -0.0882 -0.7019 -0.0774
 3150SOL     OW12331   1.505   4.051   1.289 -0.4312  0.2448  0.0837
 3150SOL    HW212332   1.430   4.086   1.337  0.6271 -2.4540  4.2841
 3150SOL    HW312333   1.467   3.998   1.219 -2.4794 -0.5538  1.7096
 3150SOL    MW412334   1.490   4.049   1.286  0.4055  1.1984  0.4120
 3151SOL     OW12335   4.677   5.167   2.036 -0.2518 -0.1976 -0.3020
 3151SOL    HW212336   4.690   5.088   2.088 -2.0766  0.6663  1.6148
 3151SOL    HW312337   4.765   5.203   2.026  0.5810 -2.2381 -0.9498
 3151SOL    MW412338   4.690   5.161   2.041  0.3142 -0.6149  0.3897
 3152SOL     OW12339   1.085   5.787   6.045 -0.3100 -0.5398  0.7517
 3152SOL    HW212340   1.071   5.882   6.043 -1.2219 -0.6722 -0.7525
 3152SOL    HW312341   1.042   5.759   6.126  1.9642  0.5487  2.4613
 3152SOL    MW412342   1.077   5.796   6.056  0.8264  0.7191 -0.7225
 3153SOL     OW12343   5.213   4.606   2.039 -0.0973  0.1134  0.0019
 3153SOL    HW212344   5.264   4.681   2.069 -1.3530  0.8333  0.4308
 3153SOL    HW312345   5.219   4.610   1.943 -0.5994  1.1003 -0.0003
 3153SOL    MW412346   5.220   4.616   2.030 -0.2096 -0.4792  0.0454
 3154SOL     OW12347   1.890   2.047   5.335 -0.8089 -0.1587  0.1258
 3154SOL    HW212348   1.950   1.992   5.284  0.7597  0.8674  0.7586
 3154SOL    HW312349   1.853   2.108   5.271 -0.0791  0.0978 -0.0671
 3154SOL    MW412350   1.893   2.048   5.320 -0.1668 -0.3120 -0.8083
 3155SOL     OW12351   2.656   4.604   2.350 -0.0301 -0.1491 -0.0561
 3155SOL    HW212352   2.600   4.625   2.425 -1.0825 -1.2651 -0.4954
 3155SOL    HW312353   2.598   4.612   2.274  0.5769 -0.6996 -0.5870
 3155SOL    MW412354   2.641   4.608   2.350  0.7095 -0.4464  0.9268
 3156SOL     OW12355   1.168   3.750   2.075  0.5471  0.1958  0.5156
 3156SOL    HW212356   1.146   3.818   2.139  0.6663  1.7650 -1.0061
 3156SOL    HW312357   1.246   3.784   2.031  0.3013 -0.6809 -0.6315
 3156SOL    MW412358   1.175   3.764   2.077 -0.0568  0.1492 -0.6220
 3157SOL     OW12359   5.713   2.638   4.132  0.5788 -0.1388  0.2787
 3157SOL    HW212360   5.627   2.658   4.095  1.2645  2.1701 -0.1940
 3157SOL    HW312361   5.769   2.621   4.057  1.2155  1.3546  0.3864
 3157SOL    MW412362   5.709   2.638   4.117  0.1145 -0.4094  0.4178
 3158SOL     OW12363   4.697   2.423   5.131  0.5947  0.2154  0.3527
 3158SOL    HW212364   4.792   2.421   5.124  0.5045  0.3353 -1.4104
 3158SOL    HW312365   4.671   2.330   5.132  0.6618  0.1732 -0.7816
 3158SOL    MW412366   4.706   2.410   5.130  0.0588 -0.0049  0.0240
 3159SOL     OW12367   2.837   2.070   1.231  0.1364  0.1051  0.1243
 3159SOL    HW212368   2.862   1.981   1.205  0.5384  0.7861 -1.9885
 3159SOL    HW312369   2.832   2.119   1.149  1.4316  2.4386  1.3240
 3159SOL    MW412370   2.839   2.065   1.216 -0.2742 -0.2439  0.1249
 3160SOL     OW12371   5.193   2.011   1.785  0.5780 -0.3538 -0.2837
 3160SOL    HW212372   5.102   1.982   1.789  0.4920 -0.3121 -1.5464
 3160SOL    HW312373   5.220   1.993   1.695  1.6501  0.1445 -0.0799
 3160SOL    MW412374   5.185   2.005   1.773  0.0584  0.4684  0.1911
 3161SOL     OW12375   5.569   5.982   5.402 -0.2655 -0.0815  0.1667
 3161SOL    HW212376   5.525   5.925   5.339  1.4496  0.0018 -1.1781
 3161SOL    HW312377   5.658   5.991   5.368  0.4473  0.7383  2.1241
 3161SOL    MW412378   5.575   5.976   5.389  0.6053  0.3211  0.1332
 3162SOL     OW12379   1.721   3.976   2.689  0.0916  0.6240  0.3921
 3162SOL    HW212380   1.636   3.970   2.646  0.5432 -0.2651 -0.4108
 3162SOL    HW312381   1.716   3.912   2.761  0.2361  0.2382  0.0620
 3162SOL    MW412382   1.709   3.967   2.693 -0.5949 -0.2364  0.0471
 3163SOL     OW12383   5.140   3.878   5.789 -1.0086 -0.0178 -0.4456
 3163SOL    HW212384   5.081   3.822   5.738 -1.5647  0.0144  0.1510
 3163SOL    HW312385   5.083   3.921   5.853 -0.1934 -0.8217  0.8815
 3163SOL    MW412386   5.125   3.876   5.791 -0.1115  0.1861 -0.6415
 3164SOL     OW12387   6.011   4.028   5.000  0.2731 -0.2277 -0.1394
 3164SOL    HW212388   6.021   4.122   5.014 -1.1122 -0.1662  0.6898
 3164SOL    HW312389   6.099   3.996   4.983  0.7542  1.2335 -0.5292
 3164SOL    MW412390   6.024   4.036   4.999  0.2808 -0.1953  0.0561
 3165SOL     OW12391   5.276   6.252   5.082 -0.9688 -0.5318  0.2427
 3165SOL    HW212392   5.218   6.209   5.019 -1.0436 -0.0719  0.0005
 3165SOL    HW312393   5.235   6.336   5.101 -0.5552 -0.3431  0.3260
 3165SOL    MW412394   5.263   6.257   5.076  0.1242 -0.1416  0.8771
 3166SOL     OW12395   2.467   2.605   5.011 -0.3376 -0.0013  0.6557
 3166SOL    HW212396   2.461   2.525   5.063 -0.5122 -1.3403 -1.2805
 3166SOL    HW312397   2.558   2.609   4.983  0.4331  2.1689  3.1168
 3166SOL    MW412398   2.478   2.595   5.014  0.0713 -0.1612 -0.2829
 3167SOL     OW12399   2.885   4.077   4.238  0.3579 -0.4093  0.0289
 3167SOL    HW212400   2.845   4.009   4.184  2.2192 -1.4188 -0.1435
 3167SOL    HW312401   2.909   4.033   4.319  0.1610  0.4392  0.5661
 3167SOL    MW412402   2.883   4.063   4.242  0.8960 -0.1592  0.7500
 3168SOL     OW12403   0.780   0.983   1.384 -0.4026 -0.0740  0.1054
 3168SOL    HW212404   0.719   1.056   1.370  0.6284  0.8755  0.4142
 3168SOL    HW312405   0.865   1.017   1.355  0.7995  0.1310  3.3772
 3168SOL    MW412406   0.783   0.997   1.379 -0.3110 -0.2856 -0.3158
 3169SOL     OW12407   3.890   6.019   0.385  0.0790 -0.8252  0.1911
 3169SOL    HW212408   3.984   6.035   0.378  0.0497 -1.4893 -2.4117
 3169SOL    HW312409   3.883   5.945   0.445  1.1824 -0.6886  0.5144
 3169SOL    MW412410   3.902   6.012   0.392  0.7426 -0.0423  0.3687
 3170SOL     OW12411   2.656   3.768   2.655 -0.0644 -0.4133  0.1286
 3170SOL    HW212412   2.696   3.690   2.693 -0.2396 -0.9913 -0.8382
 3170SOL    HW312413   2.580   3.734   2.607 -0.9345  0.5106  0.8239
 3170SOL    MW412414   2.651   3.753   2.653 -0.1089  0.8045 -0.5940
 3171SOL     OW12415   5.936   4.872   0.268 -0.1464  0.2391 -0.2598
 3171SOL    HW212416   5.959   4.965   0.274 -1.4027  0.5632 -0.2188
 3171SOL    HW312417   5.873   4.858   0.339  0.8138 -0.9109  0.4079
 3171SOL    MW412418   5.930   4.882   0.278 -0.2567  0.2142 -0.4120
 3172SOL     OW12419   1.547   0.591   4.647  0.4105  0.4743 -0.2097
 3172SOL    HW212420   1.556   0.538   4.726  1.8082  0.2142 -0.5150
 3172SOL    HW312421   1.596   0.543   4.580  0.5230  1.4337 -0.8411
 3172SOL    MW412422   1.555   0.578   4.649  0.2018 -0.1919 -0.2189
 3173SOL     OW12423   2.869   5.596   5.091 -0.0658  0.0328  0.5132
 3173SOL    HW212424   2.815   5.601   5.012  0.6671  0.2245  0.0110
 3173SOL    HW312425   2.815   5.549   5.154 -0.6004 -0.2733 -0.1577
 3173SOL    MW412426   2.855   5.590   5.089  0.2606  0.4441  0.2817
 3174SOL     OW12427   0.383   4.130   0.422 -0.2044 -0.3551  0.2581
 3174SOL    HW212428   0.422   4.126   0.335  0.1549  0.2494  0.3870
 3174SOL    HW312429   0.303   4.181   0.409  1.4249  2.5705  0.8090
 3174SOL    MW412430   0.377   4.137   0.409  0.1191  0.0148 -0.2207
 3175SOL     OW12431   3.743   4.318   3.631 -0.0180  0.3818  0.3273
 3175SOL    HW212432   3.826   4.360   3.652  0.7774  0.0115 -1.8019
 3175SOL    HW312433   3.685   4.390   3.604  1.1352  0.3256 -2.6729
 3175SOL    MW412434   3.746   4.333   3.630 -0.1075 -0.3019  0.1046
 3176SOL     OW12435   1.286   4.608   5.988  0.3499 -0.0771  0.0518
 3176SOL    HW212436   1.279   4.565   5.903  0.0374 -0.7374  0.4052
 3176SOL    HW312437   1.217   4.568   6.041 -0.8143  1.7479  0.0194
 3176SOL    MW412438   1.276   4.597   5.984  0.4732 -0.2687 -0.3250
 3177SOL     OW12439   6.268   3.971   5.552  0.5737 -0.2361 -0.0395
 3177SOL    HW212440   6.277   3.980   5.457  2.6842  0.8873  0.2064
 3177SOL    HW312441   6.177   3.995   5.569  0.3949  0.4123 -1.7005
 3177SOL    MW412442   6.257   3.976   5.542 -0.0599 -0.1864  0.6995
 3178SOL     OW12443   1.326   5.657   6.097  0.1990  0.0745 -0.9790
 3178SOL    HW212444   1.262   5.727   6.083  1.4910  1.4719 -0.3267
 3178SOL    HW312445   1.277   5.588   6.142 -0.7382  1.3525  0.0704
 3178SOL    MW412446   1.311   5.657   6.101  0.5913 -0.0892 -0.5718
 3179SOL     OW12447   1.834   5.469   5.013 -0.3814  0.5450 -0.6294
 3179SOL    HW212448   1.804   5.478   4.923  0.5769  0.9658 -0.9179
 3179SOL    HW312449   1.927   5.446   5.006 -0.2406  0.7895  0.2450
 3179SOL    MW412450   1.842   5.468   5.000 -0.2844  0.5292 -0.2768
 3180SOL     OW12451   0.664   2.315   0.709  0.0751  0.0248 -0.4399
 3180SOL    HW212452   0.658   2.260   0.631 -0.5224  0.7550 -0.9363
 3180SOL    HW312453   0.626   2.263   0.779 -1.3144  0.1175 -1.0902
 3180SOL    MW412454   0.658   2.301   0.708  1.0453  0.0886 -0.3536
 3181SOL     OW12455   0.613   1.382   2.071  0.1110  0.3844 -0.4395
 3181SOL    HW212456   0.702   1.405   2.097  0.3308  0.6517 -1.3873
 3181SOL    HW312457   0.597   1.434   1.992 -0.3154 -0.8194 -1.1689
 3181SOL    MW412458   0.622   1.392   2.064 -0.0374  0.5971  0.3153
 3182SOL     OW12459   1.079   5.835   1.571 -0.1427  0.3796  0.1106
 3182SOL    HW212460   1.049   5.753   1.609  0.7760  0.1977  0.4772
 3182SOL    HW312461   1.005   5.895   1.580 -0.4996 -0.1375  0.6830
 3182SOL    MW412462   1.065   5.833   1.577 -0.0524 -0.2055  0.5108
 3183SOL     OW12463   6.149   1.829   0.604  0.0312 -0.1163 -0.3922
 3183SOL    HW212464   6.065   1.783   0.599 -0.8992  1.5688 -0.7803
 3183SOL    HW312465   6.191   1.812   0.520  0.2733 -1.2713 -0.0565
 3183SOL    MW412466   6.144   1.821   0.592 -0.5526  0.4279  0.5660
 3184SOL     OW12467   6.332   5.112   1.230  0.1520  0.2017  0.0721
 3184SOL    HW212468   6.411   5.062   1.251  0.4060  1.5025  2.6011
 3184SOL    HW312469   6.261   5.049   1.242  0.6761 -1.5737 -4.1191
 3184SOL    MW412470   6.333   5.097   1.234  0.5706  0.1675 -0.0832
 3185SOL     OW12471   5.764   6.398   1.624  0.0304 -0.2271 -0.3948
 3185SOL    HW212472   5.716   6.384   1.542  1.5088  1.2466 -1.5867
 3185SOL    HW312473   5.846   6.349   1.612 -0.0367 -0.5885  0.5273
 3185SOL    MW412474   5.768   6.389   1.612 -0.7194  0.6751 -0.0828
 3186SOL     OW12475   2.191   1.983   4.953 -0.7356 -0.0636  0.3397
 3186SOL    HW212476   2.102   1.992   4.918 -1.2994 -3.3787  0.6527
 3186SOL    HW312477   2.239   1.936   4.884  0.2890  0.0583  0.9452
 3186SOL    MW412478   2.186   1.978   4.939  0.3152 -0.1496  0.0694
 3187SOL     OW12479   1.325   0.720   5.090  0.0845  0.2971 -0.6110
 3187SOL    HW212480   1.295   0.735   5.000 -0.4462 -1.8704 -0.8490
 3187SOL    HW312481   1.251   0.748   5.144  0.1298  0.9541 -0.8818
 3187SOL    MW412482   1.311   0.726   5.085  0.6750  0.2936  0.4822
 3188SOL     OW12483   4.037   4.374   4.084  0.1988 -0.1966  0.1742
 3188SOL    HW212484   4.133   4.370   4.085  0.4548  2.6714 -1.5828
 3188SOL    HW312485   4.011   4.291   4.045  1.8284 -1.7104  2.1015
 3188SOL    MW412486   4.047   4.363   4.079 -0.5142  0.0719 -0.0923
 3189SOL     OW12487   1.880   2.713   0.035 -0.1021 -0.4449 -0.6293
 3189SOL    HW212488   1.964   2.668   0.049 -0.9729 -1.9012  0.1699
 3189SOL    HW312489   1.846   2.674  -0.046  0.0406  0.2285 -1.0149
 3189SOL    MW412490   1.887   2.702   0.026  0.4605 -0.0746 -0.3723
 3190SOL     OW12491   3.870   1.292   1.014 -0.0721  0.3903  0.0124
 3190SOL    HW212492   3.801   1.226   1.018  0.3862 -0.1791 -1.0432
 3190SOL    HW312493   3.928   1.271   1.086 -0.0903 -0.1922 -0.1383
 3190SOL    MW412494   3.868   1.280   1.024 -0.1911 -0.3582 -0.2276
 3191SOL     OW12495   0.124   2.970   2.550 -0.1586  0.0788  0.4401
 3191SOL    HW212496   0.164   2.951   2.465 -0.5212 -0.8398  0.4598
 3191SOL    HW312497   0.058   3.037   2.531  2.1787  2.5944  0.6215
 3191SOL    MW412498   0.120   2.976   2.536 -0.4808  0.0101  0.6877
 3192SOL     OW12499   4.548   5.790   4.889 -0.6211  0.9429  0.3045
 3192SOL    HW212500   4.632   5.814   4.928 -0.7659  0.4401  0.9475
 3192SOL    HW312501   4.564   5.790   4.794  0.6017 -0.8801  0.4691
 3192SOL    MW412502   4.561   5.793   4.881 -0.0831 -0.0109 -0.1329
 3193SOL     OW12503   2.668   5.810   1.147 -0.5381  0.2288 -0.7862
 3193SOL    HW212504   2.677   5.842   1.236 -1.0895  1.2277 -1.0743
 3193SOL    HW312505   2.593   5.750   1.150 -1.4683  1.3635 -0.8516
 3193SOL    MW412506   2.659   5.806   1.159  0.1383 -0.2233  0.0716
 3194SOL     OW12507   3.808   2.334   4.342  0.1217  0.1115 -0.1817
 3194SOL    HW212508   3.859   2.254   4.353  0.3495 -0.0016 -1.8168
 3194SOL    HW312509   3.861   2.389   4.284 -0.8687  0.6754 -0.5772
 3194SOL    MW412510   3.821   2.331   4.336  0.2589 -0.1488 -0.4657
 3195SOL     OW12511   5.624   3.518   5.340  0.0167  0.7117 -0.6389
 3195SOL    HW212512   5.585   3.526   5.427  0.9506  0.9031 -0.2307
 3195SOL    HW312513   5.703   3.571   5.344  0.9443 -0.5995 -1.1015
 3195SOL    MW412514   5.629   3.526   5.352  0.1022  0.5734 -0.6044
 3196SOL     OW12515   4.848   5.633   2.260 -0.1750 -0.4502  0.4947
 3196SOL    HW212516   4.811   5.616   2.347 -2.1040 -0.3779 -0.2672
 3196SOL    HW312517   4.798   5.576   2.201  0.4708  0.1728 -0.6877
 3196SOL    MW412518   4.837   5.623   2.264 -0.5461  0.2296  0.6051
 3197SOL     OW12519   0.852   5.231   1.700  0.0689 -0.1667  0.2588
 3197SOL    HW212520   0.768   5.276   1.707  0.6215  1.3216 -1.6058
 3197SOL    HW312521   0.881   5.250   1.610  1.6905 -1.9045  0.3661
 3197SOL    MW412522   0.845   5.240   1.689 -0.3332  0.1657 -0.2953
 3198SOL     OW12523   1.397   3.122   5.866  0.0018 -0.3273  0.0673
 3198SOL    HW212524   1.391   3.142   5.959 -0.4863 -1.4518  0.2974
 3198SOL    HW312525   1.466   3.055   5.860 -0.8253 -1.1751 -0.2049
 3198SOL    MW412526   1.406   3.116   5.878  0.2019  0.4749  0.6075
 3199SOL     OW12527   4.109   6.235   4.264  0.3442 -0.2115  0.4009
 3199SOL    HW212528   4.058   6.309   4.232  1.2137 -0.2307 -1.1377
 3199SOL    HW312529   4.191   6.240   4.215  0.5917 -1.9495  0.5736
 3199SOL    MW412530   4.113   6.245   4.253  0.4653 -0.1581 -1.0916
 3200SOL     OW12531   2.261   1.377   0.780 -0.4920 -0.1408  0.4137
 3200SOL    HW212532   2.272   1.297   0.831 -0.2254 -0.2773  0.1491
 3200SOL    HW312533   2.167   1.383   0.764 -0.7198  0.4785  1.8276
 3200SOL    MW412534   2.250   1.367   0.785  0.0261 -0.7200 -0.0747
 3201SOL     OW12535   5.961   5.786   5.593  0.8654  0.4538 -0.1637
 3201SOL    HW212536   5.953   5.808   5.500  3.4460  2.4358 -0.0355
 3201SOL    HW312537   5.911   5.854   5.638 -0.8637 -0.8300 -0.0396
 3201SOL    MW412538   5.953   5.798   5.587  0.1396  0.2877  0.0562
 3202SOL     OW12539   4.835   4.368   4.428 -0.0335  0.5376 -0.2197
 3202SOL    HW212540   4.742   4.347   4.419  0.2345 -0.8727  0.0796
 3202SOL    HW312541   4.880   4.285   4.417  1.2086  1.2096 -0.3961
 3202SOL    MW412542   4.829   4.354   4.426  0.6942  0.3147  0.9239
 3203SOL     OW12543   5.986   2.661   0.450 -0.1675  0.2158 -0.0925
 3203SOL    HW212544   6.061   2.645   0.507 -0.4515  1.1011  0.5525
 3203SOL    HW312545   5.921   2.702   0.507 -0.7021  0.5214 -0.9086
 3203SOL    MW412546   5.987   2.664   0.465 -0.8903  0.1959  0.2330
 3204SOL     OW12547   3.942   3.453   2.508  0.3344 -0.1492  0.5501
 3204SOL    HW212548   3.956   3.399   2.586 -0.5304 -2.1922 -0.6229
 3204SOL    HW312549   4.021   3.442   2.456 -0.3488 -1.3701 -0.2705
 3204SOL    MW412550   3.954   3.445   2.511 -0.6147  0.2217  0.4865
 3205SOL     OW12551   5.575   6.348   1.426 -0.3182  0.2308 -0.1246
 3205SOL    HW212552   5.517   6.355   1.502  0.2028  0.1177  0.2942
 3205SOL    HW312553   5.594   6.254   1.420 -1.1510  0.1066 -1.0093
 3205SOL    MW412554   5.570   6.336   1.436 -0.2975 -0.1448 -0.2849
 3206SOL     OW12555   4.068   4.315   0.325  0.0140 -0.4266  0.2081
 3206SOL    HW212556   4.020   4.246   0.370 -1.9474  0.9078  0.2844
 3206SOL    HW312557   4.066   4.289   0.232 -0.5675 -0.5506  0.2557
 3206SOL    MW412558   4.062   4.302   0.318  0.2664  0.1762 -0.3866
 3207SOL     OW12559   2.409   4.421   5.254  0.1192 -0.4401 -0.0746
 3207SOL    HW212560   2.393   4.489   5.189  0.5384 -0.7073 -0.4611
 3207SOL    HW312561   2.444   4.468   5.330  2.4487 -0.4161 -1.0743
 3207SOL    MW412562   2.411   4.436   5.255 -0.7136 -0.0099  0.1738
 3208SOL     OW12563   2.015   2.620   5.803  0.6334  0.8701 -0.7785
 3208SOL    HW212564   1.950   2.584   5.743  0.7006  1.0678 -0.9699
 3208SOL    HW312565   2.003   2.570   5.884  1.1818 -0.0517 -1.2469
 3208SOL    MW412566   2.005   2.609   5.806  0.1986 -0.1260  0.0424
 3209SOL     OW12567   0.463   3.773   0.757  0.0114 -0.0316  0.3221
 3209SOL    HW212568   0.398   3.843   0.752  0.7813  0.6575 -0.4218
 3209SOL    HW312569   0.432   3.716   0.827 -2.4598 -0.8349 -1.2926
 3209SOL    MW412570   0.450   3.774   0.766  0.5185 -0.1594  0.1897
 3210SOL     OW12571   4.254   3.283   4.557  0.3261 -0.7225 -0.1671
 3210SOL    HW212572   4.213   3.197   4.550  1.6424 -1.3396 -0.5807
 3210SOL    HW312573   4.181   3.343   4.573 -0.5931 -1.9300  0.3276
 3210SOL    MW412574   4.239   3.280   4.558  0.1824 -0.2306  0.0820
 3211SOL     OW12575   5.794   0.713   6.139 -0.6092  0.0297 -0.1683
 3211SOL    HW212576   5.758   0.680   6.056 -0.8590 -1.1423  0.3943
 3211SOL    HW312577   5.840   0.639   6.177 -1.2503  0.2960  1.1708
 3211SOL    MW412578   5.795   0.699   6.133 -0.6477  0.1529  0.3596
 3212SOL     OW12579   3.793   1.648   3.960 -0.3799 -0.1250 -0.2930
 3212SOL    HW212580   3.776   1.683   4.048 -0.4194  1.2120 -0.8236
 3212SOL    HW312581   3.836   1.719   3.914  1.4693 -1.4949 -0.7654
 3212SOL    MW412582   3.796   1.662   3.966  0.2558  0.6163 -0.7474
 3213SOL     OW12583   0.205   5.642   4.254 -0.0392 -0.0267  0.0640
 3213SOL    HW212584   0.113   5.618   4.268 -0.2881  1.1612  0.5803
 3213SOL    HW312585   0.209   5.669   4.162 -0.3200  0.3604  0.1617
 3213SOL    MW412586   0.193   5.642   4.244 -0.3675 -0.0552  0.6479
 3214SOL     OW12587   4.900   3.269   2.816 -0.2348 -0.0603 -0.5667
 3214SOL    HW212588   4.876   3.361   2.817  2.3852  0.6976 -0.6000
 3214SOL    HW312589   4.889   3.241   2.907  0.2803  0.6943 -0.2594
 3214SOL    MW412590   4.896   3.277   2.828 -0.4888  0.0928  0.2490
 3215SOL     OW12591   2.456   4.059   4.429 -0.3190 -0.1540 -0.4937
 3215SOL    HW212592   2.471   4.040   4.521  0.2398  0.4864 -0.4467
 3215SOL    HW312593   2.399   3.988   4.399 -0.4831 -0.3831  0.3312
 3215SOL    MW412594   2.450   4.047   4.437  0.1575  0.2968  0.7352
 3216SOL     OW12595   6.126   1.656   6.393 -0.5984 -0.1544 -0.1310
 3216SOL    HW212596   6.058   1.598   6.428 -1.6906  0.3308 -1.3741
 3216SOL    HW312597   6.146   1.619   6.307 -0.0834  0.3583 -0.2307
 3216SOL    MW412598   6.119   1.643   6.386  0.3095  0.4589  0.9226
 3217SOL     OW12599   5.662   1.796   3.950 -0.2232 -0.4404  0.3007
 3217SOL    HW212600   5.666   1.871   4.010 -0.7267 -0.5675  0.5018
 3217SOL    HW312601   5.753   1.769   3.939  0.4213  2.3329 -2.5310
 3217SOL    MW412602   5.675   1.802   3.957  0.2195 -0.7607  0.2142
 3218SOL     OW12603   2.113   3.519   3.940  0.2510  0.4210  0.3249
 3218SOL    HW212604   2.091   3.443   3.994  0.4932  0.4437  0.4539
 3218SOL    HW312605   2.137   3.482   3.855  1.0993  0.3027  0.6109
 3218SOL    MW412606   2.113   3.504   3.936 -0.1622  0.4795 -0.0182
 3219SOL     OW12607   0.152   1.753   5.586 -0.0734 -0.1579 -0.1048
 3219SOL    HW212608   0.201   1.834   5.600  0.4604 -0.4774 -0.0605
 3219SOL    HW312609   0.095   1.746   5.663  0.2139 -0.0566  0.1209
 3219SOL    MW412610   0.151   1.762   5.598 -0.1216  0.5089 -0.4519
 3220SOL     OW12611   1.368   3.696   1.845  0.2737 -0.3660  0.1310
 3220SOL    HW212612   1.289   3.662   1.802  0.9803 -0.8303 -0.8525
 3220SOL    HW312613   1.413   3.745   1.776  1.0597 -0.4867  0.5481
 3220SOL    MW412614   1.364   3.698   1.830  0.7754 -0.5072 -0.6593
 3221SOL     OW12615   3.506   4.709   0.271  0.8301  0.0631  0.1744
 3221SOL    HW212616   3.452   4.630   0.276 -0.0886  0.7237  0.8361
 3221SOL    HW312617   3.544   4.706   0.183  0.2506 -0.7498 -0.0577
 3221SOL    MW412618   3.504   4.698   0.260 -0.1680  0.1482 -0.0017
 3222SOL     OW12619   1.564   5.539   3.183 -0.3100  0.0683 -0.2819
 3222SOL    HW212620   1.634   5.490   3.226  0.5810  1.1105 -0.4865
 3222SOL    HW312621   1.558   5.500   3.096 -1.1512 -1.1216  0.2914
 3222SOL    MW412622   1.573   5.528   3.177 -0.1158 -0.0310  0.4682
 3223SOL     OW12623   1.505   2.855   2.442 -0.3744 -0.4612 -0.8117
 3223SOL    HW212624   1.457   2.902   2.374  0.4489 -0.1691 -1.1953
 3223SOL    HW312625   1.572   2.916   2.471 -1.0683 -0.3630  0.6828
 3223SOL    MW412626   1.507   2.869   2.437  0.2396  0.4984 -0.4656
 3224SOL     OW12627   0.374   4.992   6.399 -0.0465 -0.8497 -0.2736
 3224SOL    HW212628   0.414   5.055   6.338  0.5165 -2.4665 -1.6859
 3224SOL    HW312629   0.373   5.037   6.483  2.2127  0.3241 -0.7753
 3224SOL    MW412630   0.379   5.006   6.402 -0.2690  0.1713 -0.6752
 3225SOL     OW12631   4.547   2.127   3.475 -0.0007 -0.3349  0.1027
 3225SOL    HW212632   4.562   2.203   3.419  1.3198 -0.1597  0.6288
 3225SOL    HW312633   4.580   2.155   3.561  1.3707 -1.7789  0.0968
 3225SOL    MW412634   4.554   2.141   3.479  0.2744  0.1065  0.0987
 3226SOL     OW12635   2.683   4.716   0.613 -0.0482  0.1661  0.4984
 3226SOL    HW212636   2.769   4.757   0.606  0.5054 -1.0089  0.2263
 3226SOL    HW312637   2.649   4.716   0.524  0.5594 -1.2118  0.2488
 3226SOL    MW412638   2.690   4.721   0.601 -0.0149  0.0945  0.2118
 3227SOL     OW12639   3.685   0.379   2.162 -0.5813  0.0076 -0.3315
 3227SOL    HW212640   3.725   0.438   2.226 -1.2913  0.6560 -0.4769
 3227SOL    HW312641   3.617   0.333   2.212  0.1115 -0.8670 -0.1625
 3227SOL    MW412642   3.681   0.381   2.177  0.1275 -0.4944  0.2117
 3228SOL     OW12643   3.192   4.369   1.887 -0.0767  0.3404 -0.0555
 3228SOL    HW212644   3.186   4.326   1.972 -1.0559  0.1693 -0.2058
 3228SOL    HW312645   3.279   4.410   1.887  0.6875 -1.1826  0.2967
 3228SOL    MW412646   3.203   4.369   1.898  0.4877  0.0406 -0.0552
 3229SOL     OW12647   4.123   4.956   3.917 -0.7113  0.1494  0.3724
 3229SOL    HW212648   4.063   4.905   3.971  2.3191 -1.3529  2.6583
 3229SOL    HW312649   4.151   4.895   3.849  0.9086 -0.4872  1.5364
 3229SOL    MW412650   4.119   4.941   3.915  0.0352  0.0346  0.0044
 3230SOL     OW12651   5.258   1.727   1.282  0.1744 -0.7347 -0.3872
 3230SOL    HW212652   5.278   1.660   1.217 -1.4819 -0.0269 -1.6911
 3230SOL    HW312653   5.292   1.692   1.364  1.0245 -2.3048 -1.3680
 3230SOL    MW412654   5.265   1.714   1.284 -0.1368 -0.1587 -0.0574
 3231SOL     OW12655   3.148   6.191   3.010  0.1393  0.9694  0.4200
 3231SOL    HW212656   3.098   6.234   2.940  1.3525 -0.0133 -1.1142
 3231SOL    HW312657   3.236   6.182   2.974  0.3053 -1.3826  1.2602
 3231SOL    MW412658   3.153   6.195   2.996  0.2337  0.5507  0.1407
 3232SOL     OW12659   1.871   4.534   2.701 -0.0260 -0.5278  0.3489
 3232SOL    HW212660   1.863   4.571   2.613 -0.0726 -0.7758  0.2464
 3232SOL    HW312661   1.805   4.465   2.704 -1.6396  0.9895  1.3891
 3232SOL    MW412662   1.861   4.530   2.690  0.3278 -0.4511 -0.1392
 3233SOL     OW12663   3.793   5.374   4.470 -0.0764  0.3067  0.2987
 3233SOL    HW212664   3.732   5.352   4.540 -0.3622 -0.3674 -0.1457
 3233SOL    HW312665   3.753   5.336   4.391  2.0714 -2.4345  0.3572
 3233SOL    MW412666   3.780   5.366   4.469  0.4535  0.1239  0.3401
 3234SOL     OW12667   3.008   6.314   5.620 -0.4727  0.1618 -0.4066
 3234SOL    HW212668   2.947   6.388   5.621  0.6904  1.1620 -0.9566
 3234SOL    HW312669   3.020   6.291   5.712  0.2600  1.6031 -0.1303
 3234SOL    MW412670   3.001   6.320   5.632 -0.7518  0.5605 -0.6559
 3235SOL     OW12671   0.985   3.780   5.289  0.1552  0.5165  0.5885
 3235SOL    HW212672   0.993   3.734   5.206  0.0441 -0.4191  1.0896
 3235SOL    HW312673   0.890   3.793   5.300  0.1509  0.3783  0.7125
 3235SOL    MW412674   0.973   3.776   5.279  0.0097  0.2586 -0.6689
 3236SOL     OW12675   4.971   4.841   1.871  0.7567 -0.2687  0.0481
 3236SOL    HW212676   4.976   4.780   1.797  0.7895  0.0496 -0.2138
 3236SOL    HW312677   4.893   4.894   1.853  0.7186 -0.2406  0.2853
 3236SOL    MW412678   4.961   4.840   1.859  0.4550 -0.1309  0.1575
 3237SOL     OW12679   3.454   5.527   4.670  0.3391  0.0318  0.5979
 3237SOL    HW212680   3.545   5.499   4.683  0.8617  1.3100 -0.1817
 3237SOL    HW312681   3.459   5.622   4.663 -0.9759  0.0571 -0.2163
 3237SOL    MW412682   3.467   5.536   4.671 -0.2744  0.1886  0.4718
 3238SOL     OW12683   0.723   3.931   3.465 -0.7980  0.3564 -0.1718
 3238SOL    HW212684   0.794   3.991   3.486  0.5286 -0.6870 -1.4152
 3238SOL    HW312685   0.643   3.984   3.471  0.1077  1.6501  0.9092
 3238SOL    MW412686   0.722   3.946   3.468  0.4875  0.0006  0.1588
 3239SOL     OW12687   2.031   5.525   3.305 -0.2769  0.3297  0.0009
 3239SOL    HW212688   2.070   5.474   3.233  0.2250  1.0399 -0.2467
 3239SOL    HW312689   2.007   5.608   3.264  0.3674  0.8897  0.7293
 3239SOL    MW412690   2.033   5.529   3.290  0.0536 -0.1131 -0.4905
 3240SOL     OW12691   3.272   3.702   6.100  0.3483  1.1725 -0.2415
 3240SOL    HW212692   3.309   3.784   6.134  1.6355 -0.6206  3.1940
 3240SOL    HW312693   3.206   3.678   6.164  0.9557 -1.1215 -0.4040
 3240SOL    MW412694   3.268   3.710   6.113 -0.0333  0.3350 -0.2703
 3241SOL     OW12695   1.417   5.768   2.948  0.3780 -0.1759  0.5331
 3241SOL    HW212696   1.397   5.830   2.878  3.0915  0.1674 -0.0511
 3241SOL    HW312697   1.441   5.823   3.023  2.2160 -0.4536  0.1926
 3241SOL    MW412698   1.418   5.783   2.949 -0.0029  0.1751 -0.5398
 3242SOL     OW12699   4.357   1.542   2.933 -0.2735 -0.4679  0.5919
 3242SOL    HW212700   4.422   1.612   2.936  1.4301 -1.8407 -1.3852
 3242SOL    HW312701   4.352   1.509   3.022  3.1182 -1.4353  0.5630
 3242SOL    MW412702   4.365   1.547   2.945 -0.0176  0.0840 -0.1780
 3243SOL     OW12703   0.874   6.348   0.336  0.0452  0.3332  0.0095
 3243SOL    HW212704   0.780   6.365   0.345 -0.1099  2.2047 -3.3248
 3243SOL    HW312705   0.916   6.426   0.373  0.1100  0.7277 -0.8643
 3243SOL    MW412706   0.867   6.361   0.342 -0.4284 -0.6275 -0.6886
 3244SOL     OW12707   3.698   6.352   2.877 -0.1160 -0.8496 -0.4138
 3244SOL    HW212708   3.786   6.337   2.841 -0.3837 -0.5491 -1.2048
 3244SOL    HW312709   3.643   6.287   2.832 -0.5747 -0.0273 -1.0597
 3244SOL    MW412710   3.703   6.341   2.866  0.3240  0.2614 -0.3488
 3245SOL     OW12711   3.617   0.223   0.448  0.3636 -0.3813 -0.1431
 3245SOL    HW212712   3.656   0.255   0.367  0.5079  0.0840  0.1035
 3245SOL    HW312713   3.580   0.138   0.425  0.3308 -0.2195 -0.7153
 3245SOL    MW412714   3.617   0.216   0.434  0.6094 -0.0321 -0.2672
 3246SOL     OW12715   5.079   5.648   6.376  0.3304 -0.3214 -0.0032
 3246SOL    HW212716   5.017   5.705   6.330  0.4093  0.0395  0.3375
 3246SOL    HW312717   5.123   5.705   6.438  0.9795 -0.5865 -0.2109
 3246SOL    MW412718   5.077   5.663   6.378  0.3912 -0.7110  0.0277
 3247SOL     OW12719   3.829   0.824   4.293 -0.4219 -0.4937 -0.2690
 3247SOL    HW212720   3.813   0.734   4.264  0.4365 -0.6155 -0.3998
 3247SOL    HW312721   3.856   0.816   4.385  1.0144 -0.5225 -0.6644
 3247SOL    MW412722   3.830   0.811   4.302 -0.4183 -0.2208 -0.2403
 3248SOL     OW12723   1.610   1.361   2.406 -0.5922 -0.1806  0.1161
 3248SOL    HW212724   1.648   1.438   2.448  0.9044  0.4823 -2.2298
 3248SOL    HW312725   1.616   1.380   2.312  2.3398 -4.1907 -0.7495
 3248SOL    MW412726   1.616   1.374   2.399 -0.3471  0.0607 -0.3072
 3249SOL     OW12727   0.099   5.444   4.558 -0.0621  0.0288 -0.0685
 3249SOL    HW212728   0.143   5.369   4.517 -1.2642  0.0363 -1.4870
 3249SOL    HW312729   0.054   5.488   4.485 -0.8666  1.0870  1.0173
 3249SOL    MW412730   0.099   5.440   4.543 -0.5831 -0.3572  0.1159
 3250SOL     OW12731   0.522   3.684   6.398 -0.3428 -0.4193  1.0625
 3250SOL    HW212732   0.557   3.625   6.466 -1.0628  0.4049  2.1674
 3250SOL    HW312733   0.600   3.716   6.353  0.1878 -0.5097  1.8907
 3250SOL    MW412734   0.537   3.680   6.401 -0.2031 -0.3144  0.0867
 3251SOL     OW12735   3.558   0.404   4.220  0.2360  0.4458 -0.3921
 3251SOL    HW212736   3.538   0.344   4.292 -1.6871 -0.0948 -1.3058
 3251SOL    HW312737   3.537   0.355   4.141 -0.8606  2.1062 -1.1851
 3251SOL    MW412738   3.552   0.390   4.219  0.0806  0.7566 -0.0903
 3252SOL     OW12739   1.278   4.330   0.889 -0.1568  0.1019 -0.3878
 3252SOL    HW212740   1.257   4.357   0.799 -1.0880  0.9601  0.0612
 3252SOL    HW312741   1.367   4.363   0.904 -0.1295  0.2581 -0.8814
 3252SOL    MW412742   1.287   4.338   0.879 -0.0677  0.0899  0.2095
 3253SOL     OW12743   3.042   4.269   5.749 -0.6280  0.1041  0.1900
 3253SOL    HW212744   2.992   4.299   5.674 -0.4802 -0.6975 -0.2360
 3253SOL    HW312745   3.042   4.344   5.809 -2.0174  0.2388  0.0454
 3253SOL    MW412746   3.035   4.283   5.747 -0.0316 -0.0255  0.2047
 3254SOL     OW12747   5.294   1.453   0.064 -0.2792 -0.0822 -0.1080
 3254SOL    HW212748   5.356   1.479  -0.004 -0.0204  0.2082  0.2385
 3254SOL    HW312749   5.209   1.455   0.019 -0.0506 -0.4116 -0.5624
 3254SOL    MW412750   5.291   1.457   0.049 -0.3718  0.2207  0.3653
 3255SOL     OW12751   3.358   4.462   0.231 -0.5446 -0.1263 -0.3985
 3255SOL    HW212752   3.273   4.420   0.246 -0.6493  0.4502  0.7979
 3255SOL    HW312753   3.422   4.392   0.245 -0.7229  0.0118  1.4252
 3255SOL    MW412754   3.355   4.447   0.235 -0.0820 -0.1237 -0.5137
 3256SOL     OW12755   5.428   5.256   1.471  0.0181  0.1981 -0.3367
 3256SOL    HW212756   5.342   5.224   1.500  0.2821 -1.2180 -1.0750
 3256SOL    HW312757   5.407   5.321   1.403 -0.4871 -1.0458 -1.4206
 3256SOL    MW412758   5.414   5.261   1.466 -0.3887 -0.5328  0.6314
 3257SOL     OW12759   3.417   1.507   4.513 -0.0928 -0.1124  0.5096
 3257SOL    HW212760   3.441   1.415   4.502  1.6085  0.3844 -0.1908
 3257SOL    HW312761   3.474   1.539   4.583  1.0016  0.9621 -0.8133
 3257SOL    MW412762   3.427   1.499   4.521  0.0110 -0.2715  0.7188
 3258SOL     OW12763   5.790   5.358   1.172 -0.2568  0.4310 -0.2099
 3258SOL    HW212764   5.742   5.300   1.231  0.4234  0.6710  0.6133
 3258SOL    HW312765   5.833   5.298   1.110  1.1064 -0.0490  1.1279
 3258SOL    MW412766   5.790   5.342   1.172 -0.0693  0.1141 -0.3163
 3259SOL     OW12767   2.596   0.025   6.189  0.3535 -0.0545  0.4140
 3259SOL    HW212768   2.659  -0.046   6.191  0.5506 -0.0076 -1.6929
 3259SOL    HW312769   2.512  -0.017   6.168 -0.3152 -0.0751  2.8375
 3259SOL    MW412770   2.593   0.010   6.186 -0.3217 -0.2138 -0.0069
 3260SOL     OW12771   0.016   3.501   1.615  0.8881 -0.4904  0.0468
 3260SOL    HW212772  -0.042   3.558   1.667  0.2937  0.0986 -1.1973
 3260SOL    HW312773   0.054   3.441   1.679 -0.1420 -0.0854  1.0927
 3260SOL    MW412774   0.013   3.501   1.630 -0.3980 -0.7303 -0.0166
 3261SOL     OW12775   2.402   0.256   6.136  0.5326 -0.6135  0.2154
 3261SOL    HW212776   2.378   0.207   6.215 -0.3812 -0.0010  0.3343
 3261SOL    HW312777   2.445   0.335   6.169  0.5509 -0.5688  0.0851
 3261SOL    MW412778   2.405   0.260   6.151  0.6914 -0.2274 -0.3862
 3262SOL     OW12779   2.101   4.434   5.737  0.4383 -0.1811  0.1447
 3262SOL    HW212780   2.185   4.473   5.760 -0.0886  0.1629  1.5588
 3262SOL    HW312781   2.045   4.449   5.813 -1.1954  0.4041 -1.1062
 3262SOL    MW412782   2.104   4.441   5.750 -0.0836 -0.2169 -0.4829
 3263SOL     OW12783   6.049   1.775   2.236 -0.3893 -0.3913 -0.1976
 3263SOL    HW212784   6.108   1.832   2.187  2.1060  0.0685  2.9994
 3263SOL    HW312785   6.010   1.832   2.302 -1.5730 -1.5009  0.1042
 3263SOL    MW412786   6.051   1.790   2.238 -0.3290 -0.3429  0.4378
 3264SOL     OW12787   1.602   2.144   3.385  0.9771 -0.1999 -0.0979
 3264SOL    HW212788   1.658   2.139   3.463  2.4986 -2.4231 -1.2237
 3264SOL    HW312789   1.541   2.071   3.396 -0.6456  1.1832  0.3014
 3264SOL    MW412790   1.602   2.133   3.397  0.4875 -0.1593  0.6304
 3265SOL     OW12791   0.623   6.174   2.052  0.3095 -0.1654  0.5336
 3265SOL    HW212792   0.577   6.241   2.001  1.2503 -1.3313 -2.0043
 3265SOL    HW312793   0.553   6.118   2.087 -0.4032  1.2417  1.4784
 3265SOL    MW412794   0.608   6.176   2.050 -0.1175  0.3420  0.2085
 3266SOL     OW12795   3.606   6.413   4.606  0.5498 -0.1984  0.0561
 3266SOL    HW212796   3.602   6.467   4.527 -3.2267  0.3320  0.3978
 3266SOL    HW312797   3.595   6.476   4.678  0.9585 -0.9704  0.8154
 3266SOL    MW412798   3.604   6.429   4.605  0.2623  0.0866 -0.5292
 3267SOL     OW12799   5.946   4.426   6.156  0.0658 -0.2340  0.6268
 3267SOL    HW212800   6.017   4.392   6.210 -0.0743  0.8142  1.5124
 3267SOL    HW312801   5.867   4.411   6.209 -0.7069 -3.1157 -1.1189
 3267SOL    MW412802   5.945   4.420   6.171 -0.2651  0.0702  0.1746
 3268SOL     OW12803   4.256   2.986   3.508  0.1278  0.2793 -0.5155
 3268SOL    HW212804   4.258   2.959   3.416 -0.6285  1.0858 -0.7834
 3268SOL    HW312805   4.179   2.943   3.545  0.0938  0.4260 -0.4134
 3268SOL    MW412806   4.246   2.977   3.501  0.2327  0.2676 -0.1037
 3269SOL     OW12807   5.746   6.129   2.910 -0.0514  0.0573 -0.1047
 3269SOL    HW212808   5.750   6.126   2.814 -1.2541 -0.6956 -0.1480
 3269SOL    HW312809   5.654   6.118   2.930  0.0803  1.0894  1.1291
 3269SOL    MW412810   5.735   6.127   2.900 -0.1686 -0.5614  0.0821
 3270SOL     OW12811   4.943   4.204   4.686 -0.3245 -0.4471 -0.6066
 3270SOL    HW212812   4.938   4.109   4.699 -0.2811 -0.5504 -1.3043
 3270SOL    HW312813   5.033   4.227   4.710 -0.2528 -0.6295 -0.6960
 3270SOL    MW412814   4.954   4.194   4.691 -0.0494  0.1608 -0.4995
 3271SOL     OW12815   3.556   2.500   6.395  0.1641 -0.0625  0.5699
 3271SOL    HW212816   3.468   2.473   6.420  0.2288 -0.2574  0.5931
 3271SOL    HW312817   3.560   2.593   6.417  0.2468 -0.2459  1.3816
 3271SOL    MW412818   3.545   2.509   6.401 -0.2904  0.3150  0.1784
 3272SOL     OW12819   4.605   2.699   0.023  0.2971  0.2206  0.6293
 3272SOL    HW212820   4.542   2.627   0.033 -1.9435  1.9330 -0.4351
 3272SOL    HW312821   4.555   2.778   0.039  2.0659  1.7223 -0.7790
 3272SOL    MW412822   4.590   2.700   0.026 -0.4068  0.2155 -0.1443
 3273SOL     OW12823   3.032   2.747   4.199 -0.0830  0.0933 -0.1390
 3273SOL    HW212824   3.021   2.719   4.290 -1.5636  0.5902 -0.1463
 3273SOL    HW312825   3.089   2.680   4.161 -0.4706 -0.8235  0.8147
 3273SOL    MW412826   3.038   2.734   4.206 -0.2792 -0.5910 -0.2249
 3274SOL     OW12827   6.157   4.890   6.173  0.5265 -0.1854  0.0845
 3274SOL    HW212828   6.130   4.892   6.265  1.1706 -0.8111  0.3000
 3274SOL    HW312829   6.236   4.945   6.171  0.5052 -0.1629 -0.0987
 3274SOL    MW412830   6.164   4.898   6.185 -0.7480 -0.0192 -0.4678
 3275SOL     OW12831   2.942   3.117   3.567  0.2568  0.2955 -0.3644
 3275SOL    HW212832   2.864   3.168   3.546  0.6268  0.3564 -1.7047
 3275SOL    HW312833   2.956   3.061   3.490  0.9519 -0.4548  0.2804
 3275SOL    MW412834   2.934   3.116   3.554  0.3225  0.3442 -0.3179
 3276SOL     OW12835   2.888   0.533   5.142  0.0425  0.2771  0.4937
 3276SOL    HW212836   2.826   0.538   5.069  2.6470 -0.3288 -1.9489
 3276SOL    HW312837   2.927   0.620   5.146  0.9027 -0.0738  0.1407
 3276SOL    MW412838   2.885   0.545   5.133  0.1834  0.6310 -0.4539
 3277SOL     OW12839   3.861   3.233   2.337  0.2875  0.2016 -0.6798
 3277SOL    HW212840   3.857   3.308   2.396  1.4158  0.1481 -0.5083
 3277SOL    HW312841   3.852   3.157   2.394 -1.9527  0.1899 -0.9705
 3277SOL    MW412842   3.860   3.233   2.352  0.6395  0.4338  0.0736
 3278SOL     OW12843   0.986   4.489   2.478  0.0249 -0.4731 -0.2582
 3278SOL    HW212844   0.920   4.556   2.494  0.3680 -0.4932  1.4036
 3278SOL    HW312845   1.068   4.530   2.505  0.3601 -1.2681 -0.0588
 3278SOL    MW412846   0.988   4.503   2.484  0.1700  0.0684 -0.3603
 3279SOL     OW12847   5.040   5.897   3.647 -0.8370  0.1313  0.3279
 3279SOL    HW212848   5.071   5.938   3.566  1.9673  0.9839  1.7066
 3279SOL    HW312849   4.977   5.959   3.683  0.5934  1.5555  0.5199
 3279SOL    MW412850   5.036   5.911   3.641 -0.5815 -0.3392 -0.1807
 3280SOL     OW12851   2.343   1.048   5.093 -0.7418  0.6221 -0.3454
 3280SOL    HW212852   2.306   1.130   5.126 -0.9735  0.0639  0.8407
 3280SOL    HW312853   2.416   1.030   5.152 -1.8695 -0.9916  0.6257
 3280SOL    MW412854   2.348   1.057   5.105 -0.1354 -0.6537 -0.1435
 3281SOL     OW12855   6.041   1.043   1.252  1.1585  0.5408  0.3013
 3281SOL    HW212856   6.023   0.996   1.170 -0.9831 -2.4187  2.2433
 3281SOL    HW312857   6.009   1.132   1.236  1.1612  0.1835 -2.1649
 3281SOL    MW412858   6.034   1.048   1.239  0.2022  0.3843 -0.0650
 3282SOL     OW12859   4.573   2.749   3.494 -0.1846 -0.2112  0.2732
 3282SOL    HW212860   4.591   2.720   3.405  0.2111 -0.9412  0.5766
 3282SOL    HW312861   4.635   2.700   3.548 -1.2137 -0.6815  1.0711
 3282SOL    MW412862   4.583   2.738   3.489 -0.2845 -0.0936 -0.2338
 3283SOL     OW12863   3.502   2.072   4.361  0.2561  0.3204  0.3149
 3283SOL    HW212864   3.429   2.131   4.345  0.0742 -0.3589 -1.6086
 3283SOL    HW312865   3.551   2.071   4.279  0.4037 -1.9624  0.3657
 3283SOL    MW412866   3.499   2.079   4.348 -0.2684 -0.7151 -0.1470
 3284SOL     OW12867   2.023   0.328   0.068  0.0282 -0.0393 -0.0041
 3284SOL    HW212868   2.118   0.343   0.073 -0.2262  1.5893  0.6946
 3284SOL    HW312869   2.003   0.275   0.145  0.4574 -1.0879 -0.5866
 3284SOL    MW412870   2.033   0.323   0.078 -0.3238 -0.5524  0.2133
 3285SOL     OW12871   1.445   1.566   2.740 -0.0699 -0.1360  0.3230
 3285SOL    HW212872   1.360   1.553   2.698 -0.8304 -0.7076  1.9702
 3285SOL    HW312873   1.490   1.629   2.683 -1.2865 -0.3892 -0.9764
 3285SOL    MW412874   1.439   1.573   2.727  0.0378 -0.1090 -0.1281
 3286SOL     OW12875   0.909   6.192   1.281 -0.0462  0.1909  0.1736
 3286SOL    HW212876   0.877   6.109   1.246  1.4712 -0.5750  0.4863
 3286SOL    HW312877   0.972   6.166   1.349  0.7040  1.6000  0.0522
 3286SOL    MW412878   0.913   6.177   1.286 -0.1700  0.0430 -0.7873
 3287SOL     OW12879   2.758   2.138   3.129 -0.3135  0.3907 -0.1570
 3287SOL    HW212880   2.804   2.164   3.209 -0.5197  0.4541 -0.0564
 3287SOL    HW312881   2.817   2.077   3.086  0.5431  1.6381 -0.8092
 3287SOL    MW412882   2.772   2.134   3.134 -0.2742 -0.7662  0.1163
 3288SOL     OW12883   3.349   2.841   4.396  0.1604  0.4069 -0.2394
 3288SOL    HW212884   3.337   2.765   4.339 -0.6118 -0.9283  1.5995
 3288SOL    HW312885   3.318   2.915   4.344 -1.3485 -0.8778 -1.2636
 3288SOL    MW412886   3.343   2.841   4.382  0.4157  0.1612  0.3025
 3289SOL     OW12887   0.114   1.743   4.115 -0.0249  0.2428 -0.5833
 3289SOL    HW212888   0.139   1.656   4.084  1.0313 -1.3076  3.8562
 3289SOL    HW312889   0.185   1.800   4.086  0.9601 -1.0425 -0.7845
 3289SOL    MW412890   0.126   1.739   4.107  0.5721 -0.3741  0.1416
 3290SOL     OW12891   4.441   0.019   1.971  0.7022  0.4206 -0.8223
 3290SOL    HW212892   4.497  -0.057   1.960  0.6075 -0.0468  1.5507
 3290SOL    HW312893   4.375  -0.008   2.035  0.1887  2.2564 -0.5212
 3290SOL    MW412894   4.439   0.006   1.978 -0.0743 -0.2434 -0.0646
 3291SOL     OW12895   5.913   6.004   2.566 -0.3287  0.5584 -0.0127
 3291SOL    HW212896   5.821   5.978   2.566 -0.1125 -0.2076  0.1633
 3291SOL    HW312897   5.913   6.089   2.520 -0.6061 -1.2315 -3.6590
 3291SOL    MW412898   5.901   6.012   2.560  0.2486  0.3050  0.5769
 3292SOL     OW12899   2.055   5.454   0.033 -0.2814  0.4826  0.1239
 3292SOL    HW212900   1.982   5.499   0.074 -1.0743 -0.7614  0.1154
 3292SOL    HW312901   2.019   5.416  -0.047 -0.3210 -2.1611  1.2701
 3292SOL    MW412902   2.041   5.455   0.028 -0.1330  0.1858 -0.1951
 3293SOL     OW12903   3.507   5.486   3.965  0.2064 -0.5392 -0.0081
 3293SOL    HW212904   3.562   5.509   4.040  0.3808  0.4304 -0.4164
 3293SOL    HW312905   3.551   5.525   3.890 -0.8950  0.0504 -0.3804
 3293SOL    MW412906   3.520   5.494   3.965 -0.4500  0.6239  0.4446
 3294SOL     OW12907   5.205   5.220   0.821  0.0856 -0.6167  0.4492
 3294SOL    HW212908   5.243   5.274   0.890 -3.0485 -0.1591  1.9943
 3294SOL    HW312909   5.128   5.269   0.790  0.8348 -1.2266 -2.8259
 3294SOL    MW412910   5.200   5.233   0.826 -0.5180  0.5304 -0.0975
 3295SOL     OW12911   0.617   3.586   2.238 -0.7357  0.1717 -0.8682
 3295SOL    HW212912   0.695   3.559   2.191 -0.6554 -0.7617 -0.2357
 3295SOL    HW312913   0.553   3.607   2.170 -0.3954 -0.4644 -1.3912
 3295SOL    MW412914   0.619   3.586   2.223 -0.0577  0.0110 -0.3572
 3296SOL     OW12915   2.819   2.734   4.789 -0.5343  0.0098 -0.2065
 3296SOL    HW212916   2.888   2.771   4.734 -0.9592 -0.7639 -1.3047
 3296SOL    HW312917   2.751   2.706   4.726 -1.1984 -0.5698  0.7412
 3296SOL    MW412918   2.819   2.735   4.773  0.5424 -0.1187 -0.1184
 3297SOL     OW12919   4.316   2.950   1.331 -0.1846 -0.9510 -0.6253
 3297SOL    HW212920   4.373   2.974   1.258 -0.6517 -2.3285 -1.4868
 3297SOL    HW312921   4.293   3.033   1.372  0.2331 -0.1547 -1.9433
 3297SOL    MW412922   4.320   2.964   1.327  0.3471 -0.1933  0.6536
 3298SOL     OW12923   3.548   5.504   5.408 -0.1126  0.5356  0.0333
 3298SOL    HW212924   3.619   5.568   5.411 -0.1864  0.6092  0.2492
 3298SOL    HW312925   3.517   5.506   5.318  1.3967 -0.8508 -0.5724
 3298SOL    MW412926   3.554   5.513   5.397  0.2826  0.1814  0.1208
 3299SOL     OW12927   3.402   6.159   2.921  0.4570 -0.8763  0.2208
 3299SOL    HW212928   3.394   6.236   2.865 -2.0654 -1.1677  0.0733
 3299SOL    HW312929   3.448   6.191   2.999 -0.9796  0.9485  0.4000
 3299SOL    MW412930   3.407   6.174   2.924 -0.4112 -0.2510 -1.0794
 3300SOL     OW12931   5.560   2.970   0.340 -0.5286  1.0424  0.1345
 3300SOL    HW212932   5.576   3.038   0.405  0.8194  0.7809  0.0920
 3300SOL    HW312933   5.646   2.943   0.310 -1.1201  1.3470 -2.0058
 3300SOL    MW412934   5.573   2.975   0.345  0.1096 -0.2552 -0.7530
 3301SOL     OW12935   1.115   0.580   3.218  0.0312 -0.2493 -0.3222
 3301SOL    HW212936   1.068   0.643   3.274 -0.2812 -0.8889  0.1446
 3301SOL    HW312937   1.198   0.565   3.262 -0.9739 -2.2312  1.0593
 3301SOL    MW412938   1.120   0.586   3.231 -0.3316  0.3116  0.0545
 3302SOL     OW12939   4.794   4.251   5.233 -0.5196 -0.2215  0.3801
 3302SOL    HW212940   4.840   4.174   5.268 -0.7986 -0.6817 -0.2559
 3302SOL    HW312941   4.790   4.235   5.139 -0.0681  0.8498  0.1722
 3302SOL    MW412942   4.800   4.238   5.225  0.1076 -0.1653  0.4391
 3303SOL     OW12943   4.917   1.271   1.277 -0.2511 -0.1106 -0.6566
 3303SOL    HW212944   4.903   1.203   1.211  0.7077 -0.1592 -0.8243
 3303SOL    HW312945   4.882   1.234   1.358 -0.4338 -0.4901 -0.9093
 3303SOL    MW412946   4.910   1.257   1.279 -0.6288  0.3013 -0.1348
 3304SOL     OW12947   0.696   6.295   3.499 -0.0564 -0.0685 -0.2021
 3304SOL    HW212948   0.707   6.339   3.583  1.3178 -1.6205  0.4858
 3304SOL    HW312949   0.658   6.210   3.522 -0.6381 -0.1054 -1.2657
 3304SOL    MW412950   0.692   6.289   3.513  0.7378  0.1630 -0.2391
 3305SOL     OW12951   5.744   2.986   3.140  0.1454 -0.1394 -0.6043
 3305SOL    HW212952   5.838   2.970   3.129 -0.1958 -2.9926 -0.0586
 3305SOL    HW312953   5.726   2.958   3.230 -1.0418  1.6184 -0.2569
 3305SOL    MW412954   5.754   2.980   3.151  0.5998 -0.3532  0.6627
 3306SOL     OW12955   4.701   2.321   1.286  0.6873 -0.0940  0.3446
 3306SOL    HW212956   4.737   2.371   1.212  0.0850  0.8479  0.6625
 3306SOL    HW312957   4.627   2.373   1.316 -0.4139 -1.5590  0.2547
 3306SOL    MW412958   4.696   2.335   1.280 -0.3111  0.0471  0.0576
 3307SOL     OW12959   2.986   3.272   5.078 -0.2443 -0.2624 -0.5052
 3307SOL    HW212960   2.999   3.209   5.007 -1.3259 -0.6331 -0.3833
 3307SOL    HW312961   3.010   3.224   5.157 -0.1639 -0.2189 -0.5029
 3307SOL    MW412962   2.991   3.258   5.079  0.1481  0.1630  0.6305
 3308SOL     OW12963   2.155   1.465   4.817  0.6054 -0.4447  0.3624
 3308SOL    HW212964   2.092   1.411   4.864  0.6166 -0.3963  0.4322
 3308SOL    HW312965   2.104   1.541   4.787  0.7266 -0.1964  0.7825
 3308SOL    MW412966   2.140   1.468   4.819  0.0711  0.3999  0.9293
 3309SOL     OW12967   1.965   3.453   5.607  0.0250  0.5701  0.3353
 3309SOL    HW212968   1.895   3.441   5.671 -0.3922 -0.1055 -0.2355
 3309SOL    HW312969   2.043   3.420   5.651 -0.7361 -2.5421 -0.4657
 3309SOL    MW412970   1.966   3.447   5.621  0.4676  0.0069 -0.3738
 3310SOL     OW12971   6.130   1.202   5.929  0.5420 -0.2330  0.2258
 3310SOL    HW212972   6.113   1.120   5.975  1.5289 -0.5161  0.1112
 3310SOL    HW312973   6.045   1.228   5.894  0.0983 -0.8804  0.7909
 3310SOL    MW412974   6.117   1.195   5.931  0.2030 -0.0382  0.9402
 3311SOL     OW12975   4.038   6.226   0.658 -0.1931 -0.5682  0.1785
 3311SOL    HW212976   3.982   6.204   0.732 -1.5603  0.3000 -0.5639
 3311SOL    HW312977   4.003   6.309   0.625 -0.0386 -1.2578 -1.8311
 3311SOL    MW412978   4.026   6.234   0.663  0.0516  0.6628 -0.1122
 3312SOL     OW12979   0.422   2.266   4.436 -0.1395  0.2668 -0.3958
 3312SOL    HW212980   0.354   2.319   4.396 -0.9270  0.3295  0.9645
 3312SOL    HW312981   0.377   2.217   4.504  0.9934 -0.4661 -0.1563
 3312SOL    MW412982   0.407   2.267   4.440 -0.0824  0.1688  0.6138
 3313SOL     OW12983   2.690   1.779   5.095 -0.7083  0.0247 -0.0809
 3313SOL    HW212984   2.662   1.842   5.028 -0.5678 -0.5144 -0.6510
 3313SOL    HW312985   2.786   1.785   5.095 -0.7351  0.6779  0.7189
 3313SOL    MW412986   2.699   1.788   5.086 -0.1737  0.1167 -0.5468
 3314SOL     OW12987   1.971   3.620   6.066 -0.6793  0.0684  0.1785
 3314SOL    HW212988   1.895   3.642   6.011 -0.2680  1.8622  0.2698
 3314SOL    HW312989   1.935   3.610   6.154 -1.0310 -0.7126 -0.0436
 3314SOL    MW412990   1.956   3.622   6.070  0.1979 -0.2331 -0.5175
 3315SOL     OW12991   0.099   5.410   5.366  0.1547 -0.2493  0.0470
 3315SOL    HW212992   0.150   5.355   5.426 -1.0601 -1.6147 -0.0999
 3315SOL    HW312993   0.112   5.369   5.280 -0.8311 -0.3767 -0.0551
 3315SOL    MW412994   0.107   5.397   5.362 -0.1895 -0.4440 -0.1940
 3316SOL     OW12995   2.562   3.517   1.755  0.6182  0.3393  0.0901
 3316SOL    HW212996   2.528   3.573   1.826 -0.0495 -0.5168  0.4677
 3316SOL    HW312997   2.564   3.575   1.679  0.8383  1.1375  0.6792
 3316SOL    MW412998   2.558   3.532   1.754  0.9400  0.1926 -0.0108
 3317SOL     OW12999   4.124   1.193   3.881 -0.1424  0.2462 -0.3262
 3317SOL    HW213000   4.050   1.250   3.901 -0.6822 -0.4417 -0.3527
 3317SOL    HW313001   4.094   1.138   3.809  0.5803  0.3206 -0.6948
 3317SOL    MW413002   4.110   1.193   3.874  0.3203  0.3343 -0.3904
 3318SOL     OW13003   2.163   6.425   0.141  0.2827 -0.5667  0.1936
 3318SOL    HW213004   2.105   6.494   0.174  1.4870  0.7924 -0.4327
 3318SOL    HW313005   2.105   6.366   0.094 -0.9716 -0.7033  1.8247
 3318SOL    MW413006   2.147   6.427   0.139 -0.2529 -0.2878  0.2075
 3319SOL     OW13007   6.390   5.039   0.531  0.3164  0.0383  0.2776
 3319SOL    HW213008   6.473   5.007   0.496  0.1071 -0.7220  0.4718
 3319SOL    HW313009   6.406   5.053   0.624  0.9222  2.2208 -0.0850
 3319SOL    MW413010   6.403   5.037   0.539 -0.1047  0.4414 -0.4140
 3320SOL     OW13011   5.184   0.322   4.134 -0.2060 -0.3986  0.0124
 3320SOL    HW213012   5.089   0.316   4.140 -0.1058 -1.5514  0.6489
 3320SOL    HW313013   5.216   0.236   4.159  1.0261  0.0365  0.0376
 3320SOL    MW413014   5.176   0.310   4.138 -0.8304  0.4555 -0.5735
 3321SOL     OW13015   3.484   6.428   1.239 -0.0688  0.4662 -0.3159
 3321SOL    HW213016   3.451   6.400   1.324 -0.8539 -1.0697 -1.0840
 3321SOL    HW313017   3.499   6.347   1.191  1.9495  1.2428 -1.1016
 3321SOL    MW413018   3.481   6.414   1.244  0.3667  0.2463 -0.1430
 3322SOL     OW13019   6.436   0.294   1.437  0.9462 -0.0363  0.1537
 3322SOL    HW213020   6.404   0.371   1.391  1.2469  0.8716  1.4328
 3322SOL    HW313021   6.525   0.282   1.405  0.1727 -1.2706 -1.7678
 3322SOL    MW413022   6.443   0.302   1.427 -0.2451 -0.5381  0.1368
 3323SOL     OW13023   4.340   3.851   4.914  0.3313  0.2620 -0.2095
 3323SOL    HW213024   4.428   3.849   4.952  1.9272  0.1300 -3.5623
 3323SOL    HW313025   4.348   3.801   4.833 -2.4573  1.5982 -1.4338
 3323SOL    MW413026   4.352   3.844   4.908  0.6014  0.3283 -0.7829
 3324SOL     OW13027   3.549   6.133   2.629  0.4474  0.2139 -0.8278
 3324SOL    HW213028   3.607   6.095   2.695 -0.4819  1.4588  0.7599
 3324SOL    HW313029   3.570   6.085   2.549  1.9771 -0.9887  0.2320
 3324SOL    MW413030   3.560   6.122   2.627 -0.3600  0.0594 -0.1496
 3325SOL     OW13031   1.690   1.306   4.827  0.2655  0.3826 -0.0224
 3325SOL    HW213032   1.617   1.247   4.845 -0.9723  1.4647 -1.1815
 3325SOL    HW313033   1.709   1.347   4.911 -0.7797  0.4043  0.2221
 3325SOL    MW413034   1.683   1.304   4.840  0.5058 -0.5656 -0.3461
 3326SOL     OW13035   2.282   5.815   3.017 -0.2607  0.7849  0.0560
 3326SOL    HW213036   2.245   5.832   2.930 -1.7012 -1.2323  0.2115
 3326SOL    HW313037   2.366   5.772   2.999  0.2977  1.9930 -0.3104
 3326SOL    MW413038   2.288   5.811   3.003  0.3962  0.4215  0.3398
 3327SOL     OW13039   3.160   2.773   6.151 -0.2150 -0.0319  0.1154
 3327SOL    HW213040   3.188   2.810   6.234 -1.3863 -0.0610  0.5401
 3327SOL    HW313041   3.196   2.685   6.150  0.6859  0.3209  0.1050
 3327SOL    MW413042   3.168   2.767   6.162 -0.1785  0.6345 -0.7414
 3328SOL     OW13043   5.267   2.932   4.160 -0.0041 -0.2472 -0.3113
 3328SOL    HW213044   5.348   2.881   4.163  0.3746  0.4167  1.1912
 3328SOL    HW313045   5.287   3.004   4.100  0.8428  0.4140  0.7258
 3328SOL    MW413046   5.280   2.935   4.152  0.0867  0.3110 -0.3500
 3329SOL     OW13047   4.790   5.082   5.441 -0.3133 -0.0418 -0.4034
 3329SOL    HW213048   4.783   5.112   5.532 -0.2240 -1.3320  0.0524
 3329SOL    HW313049   4.804   5.161   5.390 -0.0618  0.6719  0.7496
 3329SOL    MW413050   4.791   5.096   5.446 -0.4049 -0.1553 -0.0898
 3330SOL     OW13051   3.259   0.071   2.373 -0.4771 -0.0560 -0.2014
 3330SOL    HW213052   3.172   0.048   2.406 -0.0994 -0.6658  0.3955
 3330SOL    HW313053   3.275   0.158   2.407 -0.3449 -0.4381  0.7421
 3330SOL    MW413054   3.249   0.079   2.381  0.0427 -0.1693 -0.0438
 3331SOL     OW13055   0.033   4.193   4.440 -0.0803 -0.3179 -0.1092
 3331SOL    HW213056  -0.012   4.226   4.517 -0.2746 -2.1946  0.6475
 3331SOL    HW313057  -0.036   4.180   4.375  0.2338  2.3702 -1.0892
 3331SOL    MW413058   0.018   4.195   4.442  0.0523 -0.0620  0.3152
 3332SOL     OW13059   3.390   4.516   0.525 -0.4060 -0.0855 -0.1546
 3332SOL    HW213060   3.438   4.541   0.604  0.0122  0.4111 -0.5573
 3332SOL    HW313061   3.458   4.490   0.463 -0.7777 -1.2489 -0.0925
 3332SOL    MW413062   3.405   4.516   0.527  0.0068  0.1917  0.3557
 3333SOL     OW13063   4.181   1.833   3.703 -0.5634  0.6073  0.6763
 3333SOL    HW213064   4.232   1.901   3.660  0.4262 -0.6220 -0.1785
 3333SOL    HW313065   4.119   1.804   3.636 -0.2762 -0.0245  0.6741
 3333SOL    MW413066   4.180   1.838   3.688 -0.1400 -0.1804 -0.5676
 3334SOL     OW13067   5.574   0.620   3.975 -0.1499 -0.5619 -0.0502
 3334SOL    HW213068   5.552   0.529   3.993 -0.2379 -0.3175  1.2086
 3334SOL    HW313069   5.496   0.669   4.001 -0.4138 -0.1814 -1.5042
 3334SOL    MW413070   5.561   0.615   3.981 -0.4794 -0.1913  0.6256
 3335SOL     OW13071   5.915   4.930   1.050 -0.1518  0.3154 -0.3067
 3335SOL    HW213072   5.989   4.887   1.008  1.5001  0.2893  2.4056
 3335SOL    HW313073   5.940   5.022   1.056  0.4424  0.0659  1.9833
 3335SOL    MW413074   5.928   4.936   1.046 -0.9963 -0.1606  0.5484
 3336SOL     OW13075   0.468   4.522   3.709 -0.1262 -0.2676  0.3350
 3336SOL    HW213076   0.437   4.612   3.706  1.2403  0.2147 -0.8428
 3336SOL    HW313077   0.440   4.489   3.794  0.5659  1.7304  1.3966
 3336SOL    MW413078   0.460   4.529   3.720 -0.3412  0.1035  0.3640
 3337SOL     OW13079   1.818   0.023   1.267  0.5155  0.4644  0.0471
 3337SOL    HW213080   1.800  -0.042   1.335  0.0141 -0.4753 -0.9548
 3337SOL    HW313081   1.736   0.072   1.259  0.5706  0.5668  0.1082
 3337SOL    MW413082   1.804   0.021   1.275 -0.2103  0.4229  0.0434
 3338SOL     OW13083   3.395   5.483   2.626  0.5013  0.3493  0.1706
 3338SOL    HW213084   3.353   5.527   2.551  2.0892  0.7820 -0.4978
 3338SOL    HW313085   3.447   5.413   2.588  0.4961 -0.1110  0.9772
 3338SOL    MW413086   3.396   5.480   2.611 -0.1254  0.2392  0.2027
 3339SOL     OW13087   6.180   0.230   3.029 -0.5801 -0.4410  0.8316
 3339SOL    HW213088   6.171   0.208   3.121 -0.9945  0.9611  1.1512
 3339SOL    HW313089   6.148   0.320   3.022 -1.6440 -0.9046 -0.8808
 3339SOL    MW413090   6.175   0.239   3.040 -0.1359  0.2207 -0.1504
 3340SOL     OW13091   1.642   4.524   5.048 -0.6139  0.0385 -0.5869
 3340SOL    HW213092   1.677   4.438   5.026 -0.6955 -0.2066  0.2333
 3340SOL    HW313093   1.547   4.513   5.042 -0.6099  0.2198 -1.0158
 3340SOL    MW413094   1.634   4.511   5.044  0.4881  0.3110 -0.2523
 3341SOL     OW13095   1.325   1.833   3.773  0.7177  0.4171  0.1353
 3341SOL    HW213096   1.313   1.740   3.753 -1.1553  0.4516  0.9073
 3341SOL    HW313097   1.297   1.879   3.694  1.8618  0.3455 -0.3302
 3341SOL    MW413098   1.320   1.827   3.760 -0.5217  0.1509 -0.3125
 3342SOL     OW13099   6.002   1.058   0.741  0.0232 -0.2187  0.3467
 3342SOL    HW213100   6.056   0.986   0.710 -1.1082 -1.1378  0.4505
 3342SOL    HW313101   6.048   1.091   0.818  1.0103 -0.2238 -0.2164
 3342SOL    MW413102   6.015   1.053   0.747 -0.0432 -0.2136 -0.4385
 3343SOL     OW13103   4.524   2.540   0.486 -0.2674 -0.3484 -0.4884
 3343SOL    HW213104   4.480   2.583   0.559  1.3372  0.8402 -0.1580
 3343SOL    HW313105   4.488   2.583   0.408 -0.8782 -0.5487 -0.3225
 3343SOL    MW413106   4.513   2.552   0.485  0.0236 -0.2551  0.5253
 3344SOL     OW13107   3.916   4.853   2.236 -0.1203  1.2149 -0.0585
 3344SOL    HW213108   3.855   4.877   2.306 -0.4905 -0.2898  0.1766
 3344SOL    HW313109   3.911   4.925   2.174 -0.8778  1.8976  0.7652
 3344SOL    MW413110   3.908   4.865   2.237 -0.2730  0.1994  0.8142
 3345SOL     OW13111   0.738   3.766   6.262 -0.4341  0.2194  0.1748
 3345SOL    HW213112   0.718   3.860   6.265 -1.2866  0.0838 -0.6881
 3345SOL    HW313113   0.822   3.758   6.307  0.7584  1.7077 -1.6483
 3345SOL    MW413114   0.746   3.777   6.269 -0.2323 -0.8736  0.2197
 3346SOL     OW13115   2.698   4.806   1.947 -0.4217 -0.4535  0.5875
 3346SOL    HW213116   2.640   4.730   1.942  0.4291 -1.0484 -2.7670
 3346SOL    HW313117   2.644   4.879   1.917  0.0170 -0.7085 -0.9297
 3346SOL    MW413118   2.683   4.805   1.942  0.0273 -0.5123 -0.3434
 3347SOL     OW13119   3.369   5.304   4.515 -0.0472 -0.1385  0.3019
 3347SOL    HW213120   3.274   5.305   4.506  0.0865  0.2409 -1.5736
 3347SOL    HW313121   3.389   5.387   4.559 -0.4328  1.4590 -2.2832
 3347SOL    MW413122   3.359   5.315   4.519 -0.4056 -0.2721  0.0315
 3348SOL     OW13123   3.838   2.458   3.556  0.1305  0.1045 -0.1802
 3348SOL    HW213124   3.774   2.431   3.622  0.1614  1.9208  0.6416
 3348SOL    HW313125   3.833   2.554   3.555  2.2685  0.2572 -0.6835
 3348SOL    MW413126   3.829   2.467   3.564 -0.1120  0.0902 -0.4454
 3349SOL     OW13127   5.404   2.198   6.097  0.3928 -0.5641 -0.3631
 3349SOL    HW213128   5.444   2.236   6.175  0.3476  1.7224 -1.3785
 3349SOL    HW313129   5.466   2.131   6.068  1.6708  0.3441  0.1924
 3349SOL    MW413130   5.417   2.194   6.103  0.8983 -0.0699 -0.1899
 3350SOL     OW13131   1.880   2.996   4.270 -0.2742  0.0166 -0.1647
 3350SOL    HW213132   1.816   2.981   4.339 -1.1670  2.3134 -0.3951
 3350SOL    HW313133   1.965   2.989   4.313 -0.5279 -3.5254  0.0627
 3350SOL    MW413134   1.883   2.993   4.285  0.1562  0.7029 -0.1758
 3351SOL     OW13135   3.535   4.486   1.721 -0.4566 -0.1990 -0.4165
 3351SOL    HW213136   3.512   4.459   1.811  0.7490  1.9643  0.6233
 3351SOL    HW313137   3.563   4.405   1.678  1.0144 -0.9939  1.8509
 3351SOL    MW413138   3.536   4.472   1.728  0.1887 -0.1330  0.1548
 3352SOL     OW13139   2.638   4.297   5.593 -0.5951  0.3350  0.2248
 3352SOL    HW213140   2.543   4.298   5.597 -0.7243 -1.9353 -0.8719
 3352SOL    HW313141   2.659   4.222   5.537  1.8889 -1.2896  3.0581
 3352SOL    MW413142   2.628   4.287   5.586  0.7253  0.1667  0.1371
 3353SOL     OW13143   4.461   3.873   3.840 -0.3603 -0.0213  0.3888
 3353SOL    HW213144   4.485   3.822   3.763 -0.6416 -0.0742  0.3334
 3353SOL    HW313145   4.402   3.815   3.889  0.9225 -0.5454  1.3642
 3353SOL    MW413146   4.456   3.858   3.836 -0.3804 -0.0999 -0.1608
 3354SOL     OW13147   0.973   2.396   0.994  0.3289  0.1216  0.0531
 3354SOL    HW213148   0.909   2.456   1.031  0.0132 -0.7931  1.0430
 3354SOL    HW313149   1.025   2.450   0.934 -2.0354  0.6741 -1.6837
 3354SOL    MW413150   0.971   2.411   0.991 -0.4175 -0.2838  0.6158
 3355SOL     OW13151   6.227   3.855   5.013  0.0455  0.4665 -0.5418
 3355SOL    HW213152   6.291   3.870   4.944  1.1775 -0.2875  0.3203
 3355SOL    HW313153   6.215   3.760   5.016 -2.5989  0.6440 -1.9634
 3355SOL    MW413154   6.234   3.845   5.004  0.1865 -0.4718  0.4545
 3356SOL     OW13155   1.159   0.127   1.141  0.3696  0.2714  0.7385
 3356SOL    HW213156   1.150   0.037   1.110 -0.9454  0.7564 -0.3713
 3356SOL    HW313157   1.215   0.170   1.077  1.2929  0.1782  1.4590
 3356SOL    MW413158   1.165   0.121   1.129 -0.4321 -0.4179  0.5851
 3357SOL     OW13159   0.615   5.505   2.102 -0.1005  0.1050 -0.3490
 3357SOL    HW213160   0.602   5.561   2.178 -0.0392 -0.4086  0.0457
 3357SOL    HW313161   0.701   5.466   2.115 -0.3470 -0.4585 -0.3629
 3357SOL    MW413162   0.624   5.507   2.114  0.1394  0.2718 -0.1055
 3358SOL     OW13163   0.437   2.270   1.366 -0.4458 -0.0722  0.0766
 3358SOL    HW213164   0.385   2.347   1.345 -0.5835  0.0700  0.8971
 3358SOL    HW313165   0.507   2.270   1.300 -0.8598  0.3419 -0.3707
 3358SOL    MW413166   0.440   2.281   1.354  0.9245 -0.4987 -0.1719
 3359SOL     OW13167   4.825   1.881   4.922  0.5540  0.4209 -0.1629
 3359SOL    HW213168   4.752   1.869   4.982 -0.3786  1.2410 -1.1104
 3359SOL    HW313169   4.902   1.860   4.975 -0.3685 -1.0351  0.6952
 3359SOL    MW413170   4.826   1.877   4.937  0.5760 -0.5814 -0.2493
 3360SOL     OW13171   2.334   1.721   1.902 -0.3449  0.3087  0.4105
 3360SOL    HW213172   2.417   1.681   1.877  0.5780  1.3787  1.6306
 3360SOL    HW313173   2.280   1.715   1.824  0.9288 -0.2958 -0.4520
 3360SOL    MW413174   2.338   1.715   1.889 -0.1045 -0.3999 -0.0612
 3361SOL     OW13175   2.021   3.266   4.055  0.6732  0.2726 -0.3102
 3361SOL    HW213176   1.939   3.245   4.011 -0.1314  2.2228  0.1519
 3361SOL    HW313177   2.082   3.198   4.026 -1.0347 -1.1365 -0.7830
 3361SOL    MW413178   2.019   3.254   4.046 -0.3186  0.1677 -0.1302
 3362SOL     OW13179   2.434   3.311   6.035  0.2314  0.3681 -0.2611
 3362SOL    HW213180   2.445   3.226   6.078  0.7081  0.4277 -0.2652
 3362SOL    HW313181   2.434   3.291   5.942  1.9870  0.5399 -0.3325
 3362SOL    MW413182   2.435   3.297   6.028 -0.0365 -0.2107  0.1753
 3363SOL     OW13183   5.026   1.723   1.969 -0.2050  0.2348 -0.7874
 3363SOL    HW213184   4.970   1.786   1.922 -1.2980  0.7399  1.0526
 3363SOL    HW313185   4.970   1.692   2.041  1.7083  0.3632  0.8317
 3363SOL    MW413186   5.011   1.728   1.972 -0.0440 -0.1330 -0.3458
 3364SOL     OW13187   3.834   0.118   5.047 -0.5353 -0.7573 -0.6879
 3364SOL    HW213188   3.823   0.032   5.008 -0.4399 -1.4684  0.7680
 3364SOL    HW313189   3.757   0.128   5.104  1.3274 -1.6602  2.2197
 3364SOL    MW413190   3.822   0.108   5.050 -0.3893  0.0712  0.1388
 3365SOL     OW13191   2.658   6.100   3.379  0.0170  0.2678 -0.6101
 3365SOL    HW213192   2.640   6.022   3.430 -0.3868  1.0636  0.5137
 3365SOL    HW313193   2.749   6.123   3.400 -0.5594  1.3683  0.9033
 3365SOL    MW413194   2.668   6.093   3.388 -0.5218 -0.0267  0.5867
 3366SOL     OW13195   2.923   4.577   4.744 -0.0892 -0.2877 -0.1412
 3366SOL    HW213196   2.841   4.612   4.779  0.5464  1.2119 -0.1081
 3366SOL    HW313197   2.899   4.542   4.658 -0.6566  0.6745 -0.3883
 3366SOL    MW413198   2.909   4.577   4.738 -0.4398  0.5553  0.2099
 3367SOL     OW13199   6.366   3.922   1.574 -0.2503 -0.1052 -0.1424
 3367SOL    HW213200   6.290   3.866   1.562 -0.4843 -0.0087  0.8213
 3367SOL    HW313201   6.412   3.920   1.490  0.7710 -3.2125  0.3766
 3367SOL    MW413202   6.362   3.915   1.561 -0.5932 -0.4932  1.0347
 3368SOL     OW13203   0.859   5.088   1.283  0.4431 -0.1716  0.3535
 3368SOL    HW213204   0.830   5.014   1.336 -0.3246  0.9074  1.4860
 3368SOL    HW313205   0.878   5.050   1.197 -0.7705 -1.5411  0.6564
 3368SOL    MW413206   0.858   5.073   1.279  0.0637  0.2200  0.0253
 3369SOL     OW13207   0.669   4.234   5.622  0.1588  0.5206  0.9751
 3369SOL    HW213208   0.683   4.306   5.561  1.2996 -0.2593  0.2736
 3369SOL    HW313209   0.740   4.241   5.686  1.0122 -0.6466  0.2054
 3369SOL    MW413210   0.680   4.244   5.623  0.1307 -0.7552  0.1904
 3370SOL     OW13211   6.108   3.332   0.284 -0.5346  0.1219  0.2086
 3370SOL    HW213212   6.188   3.294   0.319  0.0025  1.2344  0.2368
 3370SOL    HW313213   6.075   3.266   0.223 -1.3556 -1.7487  2.5106
 3370SOL    MW413214   6.114   3.319   0.280 -0.3121  0.1878 -0.3953
 3371SOL     OW13215   5.828   1.243   3.737  0.1706  0.8278 -0.4255
 3371SOL    HW213216   5.836   1.318   3.678 -1.0967  2.4372  1.3365
 3371SOL    HW313217   5.838   1.167   3.680 -0.1337  2.3027 -2.5666
 3371SOL    MW413218   5.830   1.243   3.722  0.0088  0.5134  0.0724
 3372SOL     OW13219   3.640   4.092   0.217 -0.1140 -0.0562  1.0033
 3372SOL    HW213220   3.629   4.149   0.141 -0.7805 -1.6627 -0.1767
 3372SOL    HW313221   3.734   4.077   0.223 -0.0892 -0.2779  0.1888
 3372SOL    MW413222   3.651   4.098   0.208 -0.2168 -0.2391  0.3192
 3373SOL     OW13223   4.340   4.783   6.222 -0.3626  1.0321  0.5585
 3373SOL    HW213224   4.287   4.722   6.274 -2.1275  3.2982  1.6021
 3373SOL    HW313225   4.300   4.781   6.135 -0.2892  0.5893  0.5323
 3373SOL    MW413226   4.328   4.775   6.217  0.3055 -0.2406  0.3658
 3374SOL     OW13227   3.716   4.211   0.598 -0.0267  0.0102 -0.3132
 3374SOL    HW213228   3.653   4.230   0.528  1.3104 -1.3019 -1.9632
 3374SOL    HW313229   3.763   4.293   0.610 -1.5961  0.8466  0.5546
 3374SOL    MW413230   3.714   4.224   0.590  0.3846  0.0712  0.2042
 3375SOL     OW13231   3.172   4.114   6.375  0.2066 -0.2462 -0.4124
 3375SOL    HW213232   3.096   4.172   6.382  0.2996 -0.0198 -1.1965
 3375SOL    HW313233   3.175   4.091   6.283 -0.1448 -1.9313 -0.0327
 3375SOL    MW413234   3.162   4.119   6.364  0.3991  0.0633 -0.1913
 3376SOL     OW13235   2.994   0.030   2.472 -0.7291  0.3845  0.4750
 3376SOL    HW213236   2.990   0.025   2.567  0.1198  0.2596  0.5111
 3376SOL    HW313237   2.917   0.081   2.447 -0.0660  1.8861  1.3516
 3376SOL    MW413238   2.983   0.036   2.481 -0.6810 -0.1979 -0.2307
 3377SOL     OW13239   0.735   3.232   6.200 -0.3925  0.6191 -0.4572
 3377SOL    HW213240   0.812   3.275   6.162  1.4702 -1.5046  0.6792
 3377SOL    HW313241   0.707   3.170   6.133 -1.0242  1.2595 -0.7955
 3377SOL    MW413242   0.742   3.230   6.186 -0.4471  0.6326 -0.5852
 3378SOL     OW13243   3.909   0.610   4.728  0.0726 -0.1816 -0.2199
 3378SOL    HW213244   3.849   0.652   4.790  1.2598 -0.2254  1.0130
 3378SOL    HW313245   3.933   0.679   4.667 -0.3086  0.1566  0.0130
 3378SOL    MW413246   3.905   0.625   4.728  0.8195  0.7954 -0.3117
 3379SOL     OW13247   3.847   4.579   2.304  0.0232 -0.2677  0.1688
 3379SOL    HW213248   3.898   4.517   2.252  0.0347  0.5518 -0.8433
 3379SOL    HW313249   3.876   4.665   2.273  0.0107  0.2493  1.5352
 3379SOL    MW413250   3.858   4.583   2.293 -0.2572 -0.2281 -0.2987
 3380SOL     OW13251   4.415   1.747   1.856  0.2577  0.7675 -0.0482
 3380SOL    HW213252   4.446   1.790   1.776  1.1500 -1.8270 -1.1782
 3380SOL    HW313253   4.492   1.739   1.911  0.0502  0.7982  0.2511
 3380SOL    MW413254   4.429   1.752   1.853 -0.4995  0.0483 -0.0368
 3381SOL     OW13255   4.421   1.633   0.697  0.3685  0.5192 -0.3140
 3381SOL    HW213256   4.499   1.588   0.664  0.8105 -0.7490  2.2353
 3381SOL    HW313257   4.357   1.625   0.626  1.4964 -1.3395 -1.2067
 3381SOL    MW413258   4.423   1.626   0.683  0.3947  0.0614 -0.0380
 3382SOL     OW13259   4.214   2.490   3.684 -0.1168 -0.1330  0.0256
 3382SOL    HW213260   4.165   2.430   3.629 -1.5768 -0.6565  1.8211
 3382SOL    HW313261   4.156   2.510   3.757  1.1763  1.7111  0.6410
 3382SOL    MW413262   4.200   2.485   3.686  0.3048  0.4163 -0.1350
 3383SOL     OW13263   1.442   1.098   5.278 -0.8373 -0.2173  0.0460
 3383SOL    HW213264   1.407   1.152   5.349 -0.2168 -0.2176  0.3541
 3383SOL    HW313265   1.422   1.008   5.304 -3.5606 -0.1248 -1.3456
 3383SOL    MW413266   1.435   1.094   5.291 -0.3589  0.5742 -0.1856
 3384SOL     OW13267   2.779   6.233   0.881 -0.0960  0.1909  0.5096
 3384SOL    HW213268   2.689   6.265   0.882 -0.0135  0.4473 -0.0051
 3384SOL    HW313269   2.825   6.292   0.821  0.0004 -1.0310 -0.6874
 3384SOL    MW413270   2.773   6.245   0.873  0.1412  0.1590 -0.2594
 3385SOL     OW13271   0.242   4.003   2.445  0.4520 -0.0929 -0.0089
 3385SOL    HW213272   0.282   4.055   2.515 -1.4314  1.2284  0.1576
 3385SOL    HW313273   0.316   3.978   2.389  1.4320  3.5774 -0.6338
 3385SOL    MW413274   0.257   4.007   2.447  0.2977  0.0201 -0.3058
 3386SOL     OW13275   5.496   6.050   2.986 -0.4063 -0.6798 -0.3119
 3386SOL    HW213276   5.463   6.002   2.909 -1.4758 -0.6227  0.0865
 3386SOL    HW313277   5.546   5.984   3.035  0.4695 -0.6621 -1.1470
 3386SOL    MW413278   5.498   6.035   2.982 -0.0401 -0.3216 -0.0153
 3387SOL     OW13279   1.465   6.344   2.842  0.7194 -0.0804  0.2810
 3387SOL    HW213280   1.466   6.346   2.746 -4.7363  1.1101 -0.0900
 3387SOL    HW313281   1.507   6.261   2.865  2.6329 -0.1944 -3.0276
 3387SOL    MW413282   1.470   6.333   2.832  0.7155 -0.3303 -0.6209
 3388SOL     OW13283   2.106   4.292   0.103 -0.2172 -0.6952 -0.1380
 3388SOL    HW213284   2.169   4.225   0.074 -0.0647 -0.4168 -0.4701
 3388SOL    HW313285   2.131   4.312   0.193  0.8391  0.1530 -0.5937
 3388SOL    MW413286   2.118   4.286   0.111  0.0383  0.5025  0.1042
 3389SOL     OW13287   4.482   2.950   5.188 -0.2743  0.3277  0.2118
 3389SOL    HW213288   4.407   2.963   5.245 -0.2300 -0.5903  0.5055
 3389SOL    HW313289   4.557   2.950   5.247 -0.2232 -0.5701  0.1712
 3389SOL    MW413290   4.482   2.952   5.203 -0.1360 -0.3658 -0.1561
 3390SOL     OW13291   4.461   3.388   4.418 -0.1708  0.3291 -0.1399
 3390SOL    HW213292   4.394   3.343   4.470 -0.2542 -0.9927 -1.3290
 3390SOL    HW313293   4.507   3.317   4.373  0.5119  1.3752 -1.1265
 3390SOL    MW413294   4.458   3.372   4.419  0.3186 -0.4452 -0.0104
 3391SOL     OW13295   5.029   6.234   3.494  0.1206 -0.2652 -0.3967
 3391SOL    HW213296   4.956   6.296   3.486  0.3474  0.2138  1.0353
 3391SOL    HW313297   5.099   6.273   3.442 -0.0005  0.2847 -0.1580
 3391SOL    MW413298   5.029   6.248   3.486 -0.1743  0.0865 -0.0245
 3392SOL     OW13299   1.334   0.236   4.875  0.0051 -0.0553  0.3407
 3392SOL    HW213300   1.296   0.163   4.924  0.0533  0.9039  1.8559
 3392SOL    HW313301   1.275   0.309   4.890  0.5898  0.5347 -0.1716
 3392SOL    MW413302   1.321   0.236   4.883 -0.4959 -0.3106 -0.3515
 3393SOL     OW13303   3.387   4.082   5.448  0.2961  0.1810  0.7476
 3393SOL    HW213304   3.385   3.993   5.484 -0.4586  0.1889  0.7551
 3393SOL    HW313305   3.384   4.139   5.525  2.9953  0.2717  0.8722
 3393SOL    MW413306   3.386   4.078   5.463  0.1704 -0.0256  1.5312
 3394SOL     OW13307   3.817   4.167   4.654  0.2443 -0.1664  0.2533
 3394SOL    HW213308   3.881   4.098   4.634 -0.7593 -0.8537 -0.7314
 3394SOL    HW313309   3.795   4.203   4.568 -1.0619 -0.2935  0.5207
 3394SOL    MW413310   3.823   4.162   4.640  0.6029 -0.0234  0.0529
 3395SOL     OW13311   2.691   0.729   1.058 -0.1198 -0.4628 -0.1948
 3395SOL    HW213312   2.690   0.669   1.132 -0.3517  0.9140  0.9570
 3395SOL    HW313313   2.628   0.796   1.080 -2.3787 -1.4733 -2.9589
 3395SOL    MW413314   2.683   0.730   1.071  0.2424 -0.0055 -0.2521
 3396SOL     OW13315   1.720   4.830   4.264 -0.0855 -0.4326 -0.5869
 3396SOL    HW213316   1.651   4.774   4.298 -1.5176  2.6242  2.0069
 3396SOL    HW313317   1.678   4.880   4.194 -0.0900  0.3688 -0.0207
 3396SOL    MW413318   1.706   4.829   4.259 -0.3816  0.7888  0.0429
 3397SOL     OW13319   4.143   0.779   0.421  0.0761 -0.2156 -0.0067
 3397SOL    HW213320   4.060   0.744   0.390  0.4437  0.2473 -1.6172
 3397SOL    HW313321   4.205   0.707   0.410  0.5563  0.4614 -2.0475
 3397SOL    MW413322   4.140   0.765   0.416  0.3001  0.2156 -0.8377
 3398SOL     OW13323   5.647   2.732   5.601  0.2005  0.2863  0.0007
 3398SOL    HW213324   5.667   2.688   5.683  3.5134  1.2141 -0.1852
 3398SOL    HW313325   5.615   2.819   5.627  0.9354  0.4635  0.3377
 3398SOL    MW413326   5.646   2.738   5.615 -0.4052  0.5758 -0.1374
 3399SOL     OW13327   3.915   1.875   3.847  0.0217  0.1531 -0.5298
 3399SOL    HW213328   3.943   1.964   3.870 -0.8838  0.1051  0.9204
 3399SOL    HW313329   3.972   1.849   3.775  0.8790  1.5807 -0.3967
 3399SOL    MW413330   3.926   1.883   3.841 -0.0931 -0.2179 -0.0278
 3400SOL     OW13331   3.192   0.150   2.711  0.6639  0.5297  0.3699
 3400SOL    HW213332   3.207   0.055   2.718  0.7833  0.5125 -0.1006
 3400SOL    HW313333   3.254   0.179   2.644 -0.9541  0.5662 -1.1945
 3400SOL    MW413334   3.202   0.141   2.703  0.8352 -0.0285 -0.0915
 3401SOL     OW13335   0.312   2.064   2.775  0.0633  0.4709  0.6712
 3401SOL    HW213336   0.373   1.997   2.805 -0.0072 -0.8836 -1.9296
 3401SOL    HW313337   0.336   2.079   2.684 -2.1012  1.5135  0.2154
 3401SOL    MW413338   0.323   2.057   2.767 -0.0246 -0.2812  0.1150
 3402SOL     OW13339   5.997   2.015   0.909  0.4470  0.2620  0.0904
 3402SOL    HW213340   6.065   1.949   0.923 -0.4616 -0.7529 -0.1755
 3402SOL    HW313341   5.941   2.009   0.987 -1.6270 -1.7513 -1.4256
 3402SOL    MW413342   5.999   2.006   0.922 -0.3556 -0.4792  0.0344
 3403SOL     OW13343   3.274   4.867   5.847 -0.2361 -0.5757  0.0142
 3403SOL    HW213344   3.250   4.939   5.905 -0.5902 -1.0800  0.5124
 3403SOL    HW313345   3.199   4.857   5.788  0.1155 -0.0767 -0.5193
 3403SOL    MW413346   3.261   4.875   5.847 -0.5800 -0.2102 -0.1485
 3404SOL     OW13347   0.361   5.597   3.293  0.9365  0.4626 -0.5234
 3404SOL    HW213348   0.420   5.532   3.255  0.6376  0.1903 -0.5198
 3404SOL    HW313349   0.418   5.650   3.349  1.0753 -0.1716 -0.0473
 3404SOL    MW413350   0.376   5.595   3.295 -0.1022  0.1699 -0.1610
 3405SOL     OW13351   3.896   6.166   1.623  0.1281  0.3985  0.3943
 3405SOL    HW213352   3.958   6.228   1.660  0.2554  0.9555 -0.7337
 3405SOL    HW313353   3.818   6.175   1.677  1.4071 -1.2553  2.6815
 3405SOL    MW413354   3.894   6.175   1.635  0.4568 -0.1958  0.0524
 3406SOL     OW13355   0.256   0.364   2.187 -0.7625 -0.2111  0.2416
 3406SOL    HW213356   0.351   0.377   2.189 -0.8270  0.2488  0.6961
 3406SOL    HW313357   0.244   0.269   2.183 -0.2830 -0.2522 -0.4165
 3406SOL    MW413358   0.267   0.353   2.187  0.4485  0.4488 -0.1483
 3407SOL     OW13359   5.338   4.910   2.895  0.4693 -0.2698  0.1522
 3407SOL    HW213360   5.261   4.874   2.851  1.0609 -1.0421 -0.2892
 3407SOL    HW313361   5.406   4.912   2.827  0.7531  0.7274  0.4397
 3407SOL    MW413362   5.337   4.906   2.880  0.2253  0.2147  0.1480
 3408SOL     OW13363   3.483   4.763   4.972 -0.6987 -0.4417 -0.6098
 3408SOL    HW213364   3.539   4.741   4.897  1.3060 -0.2761  0.7553
 3408SOL    HW313365   3.482   4.858   4.974  1.6311 -0.3496  1.1144
 3408SOL    MW413366   3.490   4.772   4.963 -0.3656 -0.2784  0.3108
 3409SOL     OW13367   2.792   5.792   1.709  0.5622  0.1999 -0.0974
 3409SOL    HW213368   2.758   5.859   1.769 -0.9037 -0.5592 -0.0194
 3409SOL    HW313369   2.858   5.745   1.761 -0.3157 -0.1117  0.7784
 3409SOL    MW413370   2.796   5.794   1.724  0.0927 -0.6711  0.0646
 3410SOL     OW13371   5.650   0.597   0.413 -0.3606 -0.2071 -0.7597
 3410SOL    HW213372   5.725   0.654   0.393 -1.0621  0.7323 -0.7635
 3410SOL    HW313373   5.682   0.539   0.481  0.0932  0.8279 -0.0710
 3410SOL    MW413374   5.664   0.597   0.419 -0.1517 -0.1753  0.3234
 3411SOL     OW13375   4.244   0.824   3.751  0.0589  0.8091 -0.0723
 3411SOL    HW213376   4.224   0.754   3.689 -0.1874  0.5831  0.2575
 3411SOL    HW313377   4.307   0.785   3.812  0.9312  1.2742 -0.6381
 3411SOL    MW413378   4.250   0.809   3.751 -0.7639 -0.1469  0.1639
 3412SOL     OW13379   4.379   3.416   6.065 -0.0501 -0.2497 -0.6577
 3412SOL    HW213380   4.364   3.481   5.997 -1.0694  0.3488  0.1201
 3412SOL    HW313381   4.456   3.449   6.113 -0.4537  0.2950 -0.3770
 3412SOL    MW413382   4.387   3.429   6.063 -0.5055  0.7087  0.0558
 3413SOL     OW13383   4.902   5.688   1.207  0.3368  0.3446 -0.2680
 3413SOL    HW213384   4.838   5.752   1.237 -0.4987 -0.4501 -0.3025
 3413SOL    HW313385   4.850   5.619   1.166  1.2943  0.2022 -1.2988
 3413SOL    MW413386   4.887   5.687   1.206  0.0086 -0.8998  0.6602
 3414SOL     OW13387   1.851   3.874   0.926  0.3206  0.1351 -0.4419
 3414SOL    HW213388   1.925   3.827   0.887 -0.2814  0.3010 -1.8234
 3414SOL    HW313389   1.883   3.963   0.938  0.3555  0.2070 -1.0425
 3414SOL    MW413390   1.865   3.879   0.923  0.5622 -0.3867 -0.4960
 3415SOL     OW13391   2.059   4.485   3.929  0.7153  0.2012  0.1460
 3415SOL    HW213392   1.982   4.531   3.961  1.5108  2.7923 -1.3982
 3415SOL    HW313393   2.025   4.424   3.863 -0.1481  0.0384  0.7238
 3415SOL    MW413394   2.045   4.483   3.925 -1.0139  0.2869  0.0038
 3416SOL     OW13395   3.559   3.700   0.595  0.5101  0.5479  0.2201
 3416SOL    HW213396   3.633   3.666   0.544  1.0792 -0.3407  1.5925
 3416SOL    HW313397   3.573   3.795   0.595  0.7799  0.5304 -0.8127
 3416SOL    MW413398   3.571   3.708   0.588  0.6759 -0.0125  0.3324
 3417SOL     OW13399   3.375   1.904   3.752 -0.3006  0.3778  0.0494
 3417SOL    HW213400   3.437   1.835   3.777  0.7822  1.5411  0.7033
 3417SOL    HW313401   3.290   1.860   3.749  0.3176 -0.9294  0.6952
 3417SOL    MW413402   3.372   1.889   3.755  0.3668 -0.1089 -0.1944
 3418SOL     OW13403   6.019   1.203   0.341  0.3761  0.2056 -0.2697
 3418SOL    HW213404   5.949   1.233   0.398  1.1195  0.2809  0.6157
 3418SOL    HW313405   6.058   1.284   0.306  2.4830  0.3843  2.2404
 3418SOL    MW413406   6.015   1.218   0.344  0.0639  0.1090  0.1347
 3419SOL     OW13407   4.656   0.027   5.789 -0.6598  0.2871 -0.3030
 3419SOL    HW213408   4.620  -0.056   5.759 -1.9664  1.0116 -0.7968
 3419SOL    HW313409   4.670   0.078   5.710 -2.9643  1.7474  0.1355
 3419SOL    MW413410   4.653   0.022   5.775 -0.1158  0.4627 -0.5984
 3420SOL     OW13411   4.938   0.026   4.280  0.2191  0.1260 -0.6505
 3420SOL    HW213412   4.845   0.002   4.283 -0.0205  1.0677 -0.3514
 3420SOL    HW313413   4.940   0.118   4.305  1.3291 -0.1263  0.2837
 3420SOL    MW413414   4.926   0.035   4.284  0.6321  0.0278 -0.1742
 3421SOL     OW13415   4.699   4.315   2.365 -0.3530 -0.1055 -0.1872
 3421SOL    HW213416   4.785   4.279   2.386 -0.2796 -0.4886 -1.0767
 3421SOL    HW313417   4.640   4.240   2.366 -0.6231  0.1073  0.1156
 3421SOL    MW413418   4.703   4.300   2.368  0.0486 -0.8737 -0.2999
 3422SOL     OW13419   0.897   1.475   4.964  0.7826  0.2708  0.0624
 3422SOL    HW213420   0.924   1.432   4.883 -0.3498 -0.8501  0.2383
 3422SOL    HW313421   0.859   1.404   5.017  0.0867  1.2539  0.9305
 3422SOL    MW413422   0.896   1.460   4.960 -1.1280 -0.2486  0.0178
 3423SOL     OW13423   4.228   1.413   0.633  0.4390  0.2345 -0.1588
 3423SOL    HW213424   4.220   1.369   0.549 -0.6887  0.5978 -0.2540
 3423SOL    HW313425   4.279   1.353   0.687  1.0565 -0.0629 -1.0512
 3423SOL    MW413426   4.234   1.400   0.629  0.3858 -0.3420 -0.8383
 3424SOL     OW13427   0.234   6.284   1.268 -0.1555  0.1073 -0.2745
 3424SOL    HW213428   0.140   6.279   1.283  0.1388 -1.4186  1.3740
 3424SOL    HW313429   0.271   6.315   1.351  0.9746 -1.8757  0.0421
 3424SOL    MW413430   0.227   6.287   1.281 -0.1206 -0.0841 -0.2830
 3425SOL     OW13431   5.391   3.736   4.840  0.7497  0.5614 -0.0518
 3425SOL    HW213432   5.362   3.761   4.928 -0.4085 -0.0848 -0.2325
 3425SOL    HW313433   5.483   3.711   4.852  0.7052  0.8052  0.9084
 3425SOL    MW413434   5.399   3.736   4.853 -0.2129 -0.6385 -0.1162
 3426SOL     OW13435   0.435   2.709   2.515  0.1426  0.2307 -0.6355
 3426SOL    HW213436   0.393   2.633   2.476  2.0799 -2.2473  1.7395
 3426SOL    HW313437   0.481   2.751   2.442  0.0700 -1.6122 -1.7985
 3426SOL    MW413438   0.435   2.705   2.500 -0.1876 -0.6859  0.1355
 3427SOL     OW13439   1.317   4.125   3.086  0.4797 -0.4517  0.1377
 3427SOL    HW213440   1.226   4.114   3.056  0.2104 -0.2232  0.8445
 3427SOL    HW313441   1.309   4.168   3.171  1.3886  2.5442 -1.1601
 3427SOL    MW413442   1.304   4.129   3.093  0.9915 -0.2360  0.3944
 3428SOL     OW13443   1.536   1.811   5.759  0.0841 -0.1535 -0.3325
 3428SOL    HW213444   1.623   1.823   5.796  0.4866  0.5557 -1.4462
 3428SOL    HW313445   1.491   1.754   5.821  1.1597 -0.0945  0.5325
 3428SOL    MW413446   1.541   1.805   5.772  0.1168  0.0510 -0.3683
 3429SOL     OW13447   6.032   0.635   5.187  0.0157  0.0309  0.3598
 3429SOL    HW213448   6.009   0.726   5.207 -0.2854  0.3604 -1.3109
 3429SOL    HW313449   5.950   0.596   5.156  0.6296 -0.1274 -1.1509
 3429SOL    MW413450   6.018   0.642   5.186  0.2480 -0.1256  0.0170
 3430SOL     OW13451   0.685   1.403   2.699  0.1290  0.4598  0.0378
 3430SOL    HW213452   0.714   1.451   2.777  0.2909  2.4998 -1.2023
 3430SOL    HW313453   0.593   1.384   2.716 -0.3623  2.5573 -0.0149
 3430SOL    MW413454   0.677   1.407   2.712 -0.5723 -0.3216 -0.0083
 3431SOL     OW13455   0.041   2.235   0.504 -0.2619 -0.5629 -0.0843
 3431SOL    HW213456   0.057   2.140   0.511 -1.0809 -0.8305 -1.4507
 3431SOL    HW313457  -0.054   2.244   0.514 -0.1213  0.2029  0.6867
 3431SOL    MW413458   0.031   2.223   0.506  0.2215  0.6623 -0.1279
 3432SOL     OW13459   1.610   4.646   1.875 -0.3897  0.6054 -0.4566
 3432SOL    HW213460   1.565   4.700   1.940  0.3476  1.8412 -0.9199
 3432SOL    HW313461   1.636   4.567   1.922 -1.1658  0.8194  0.3540
 3432SOL    MW413462   1.608   4.643   1.890 -0.2720  0.4385  0.0127
 3433SOL     OW13463   1.530   0.671   1.257 -0.0207 -0.1309  0.0758
 3433SOL    HW213464   1.492   0.743   1.307 -0.0420 -1.0011  1.3830
 3433SOL    HW313465   1.458   0.609   1.245  0.3047 -0.5262  0.1270
 3433SOL    MW413466   1.515   0.672   1.262  0.1302 -0.0244  0.1006
 3434SOL     OW13467   2.655   3.556   3.827  0.3043 -0.1523  0.4476
 3434SOL    HW213468   2.608   3.526   3.749  0.9646  0.4234 -0.1919
 3434SOL    HW313469   2.697   3.637   3.800  3.4543 -1.6826  0.2506
 3434SOL    MW413470   2.655   3.563   3.813  0.1907  0.3953 -0.0165
 3435SOL     OW13471   3.557   0.193   4.009 -0.1234 -0.7045  0.4640
 3435SOL    HW213472   3.521   0.256   3.946  0.1342 -2.9029 -2.0273
 3435SOL    HW313473   3.481   0.140   4.035  0.3113 -1.9735 -0.7215
 3435SOL    MW413474   3.542   0.194   4.004 -0.5244 -0.4093  0.1499
 3436SOL     OW13475   3.754   4.581   6.171 -0.1233  0.2027  0.2117
 3436SOL    HW213476   3.716   4.526   6.102 -1.8373  0.2842  1.0373
 3436SOL    HW313477   3.837   4.611   6.134 -0.3640 -0.8339 -1.2803
 3436SOL    MW413478   3.760   4.578   6.157 -0.2083  0.0863  0.1500
 3437SOL     OW13479   3.183   1.994   3.160 -0.1027  0.2309  0.2633
 3437SOL    HW213480   3.261   1.944   3.187 -1.2560 -0.1981  3.2225
 3437SOL    HW313481   3.201   2.083   3.189 -0.5949  0.1805  0.7332
 3437SOL    MW413482   3.196   1.999   3.168  0.6731 -0.0131  0.1233
 3438SOL     OW13483   0.185   4.884   4.606 -0.4396  0.4636 -0.0208
 3438SOL    HW213484   0.158   4.969   4.638  1.7903  1.1425  0.2347
 3438SOL    HW313485   0.242   4.903   4.531 -1.8114 -0.9242 -1.5254
 3438SOL    MW413486   0.189   4.898   4.600 -0.3650 -0.2261 -0.4909
 3439SOL     OW13487   0.772   0.202   0.043  0.1985 -0.3015 -0.5916
 3439SOL    HW213488   0.833   0.273   0.065 -1.9486  1.1616  1.0461
 3439SOL    HW313489   0.725   0.234  -0.034 -0.4385 -0.1613 -0.1447
 3439SOL    MW413490   0.774   0.216   0.036  0.0629 -0.2592 -0.4571
 3440SOL     OW13491   1.596   2.147   0.511  0.1240 -0.4728  0.2357
 3440SOL    HW213492   1.691   2.160   0.514 -0.1803  2.0575  1.4912
 3440SOL    HW313493   1.573   2.116   0.599 -0.1930 -1.4080 -0.1688
 3440SOL    MW413494   1.605   2.145   0.523 -0.0350 -0.0906  0.3722
 3441SOL     OW13495   5.185   0.465   6.154  0.4293  0.9858 -0.0857
 3441SOL    HW213496   5.211   0.549   6.192 -0.6317  1.4343 -0.3293
 3441SOL    HW313497   5.144   0.487   6.071  1.9893  0.0617 -1.1683
 3441SOL    MW413498   5.183   0.479   6.148  0.4400 -0.2859 -0.2581
 3442SOL     OW13499   2.411   1.821   3.013 -0.0268  0.2368 -0.3429
 3442SOL    HW213500   2.321   1.790   3.003  0.2822 -0.5175 -0.8275
 3442SOL    HW313501   2.413   1.861   3.100 -1.2180  1.6128 -0.9069
 3442SOL    MW413502   2.399   1.823   3.023  0.4300  0.2937 -0.1023
 3443SOL     OW13503   1.075   5.270   5.861 -0.2834  0.1125 -0.1089
 3443SOL    HW213504   1.031   5.351   5.886  0.1346  0.3175 -0.0330
 3443SOL    HW313505   1.016   5.229   5.797 -0.1082  0.8799 -0.7791
 3443SOL    MW413506   1.061   5.275   5.856  0.1343  0.2712  0.4804
 3444SOL     OW13507   3.467   5.561   5.687  0.7567 -0.1216  0.1297
 3444SOL    HW213508   3.488   5.569   5.594  0.8181  0.1319  0.1659
 3444SOL    HW313509   3.376   5.531   5.688  0.1585  1.5639 -0.0085
 3444SOL    MW413510   3.458   5.558   5.675  0.2320 -0.7696  0.0063
 3445SOL     OW13511   1.708   5.107   3.839  0.4334 -0.3758 -0.5057
 3445SOL    HW213512   1.778   5.172   3.829  0.9419 -1.1304 -2.2608
 3445SOL    HW313513   1.635   5.140   3.787 -1.2283  1.1961  2.5622
 3445SOL    MW413514   1.708   5.120   3.831 -0.1046 -0.0033 -0.4753
 3446SOL     OW13515   3.204   4.817   4.201  0.2804  0.4848 -1.1074
 3446SOL    HW213516   3.133   4.838   4.140 -0.7677  0.9066  0.2067
 3446SOL    HW313517   3.159   4.785   4.279  1.5331  1.0751 -0.1114
 3446SOL    MW413518   3.188   4.815   4.203 -0.1493  0.0259 -0.3575
 3447SOL     OW13519   4.182   4.110   1.320  0.1890 -0.6215  0.3822
 3447SOL    HW213520   4.173   4.034   1.379  1.0754  0.0862  1.4665
 3447SOL    HW313521   4.169   4.074   1.232 -2.5462 -1.4802  1.0562
 3447SOL    MW413522   4.179   4.095   1.316  0.5434  0.4192 -0.0976
 3448SOL     OW13523   3.673   2.061   2.639 -0.0791 -0.6537 -0.3407
 3448SOL    HW213524   3.601   2.102   2.591 -0.0095  2.2885  1.8105
 3448SOL    HW313525   3.752   2.090   2.594 -0.1057 -0.6536 -0.3873
 3448SOL    MW413526   3.674   2.070   2.627  0.0861  0.2036 -0.6754
 3449SOL     OW13527   5.521   3.109   5.979 -0.5940 -0.1087 -0.9104
 3449SOL    HW213528   5.445   3.057   6.008 -1.4392  1.2668 -0.5602
 3449SOL    HW313529   5.570   3.050   5.922 -0.8147 -1.7180  0.4802
 3449SOL    MW413530   5.517   3.094   5.975 -0.1583 -0.5157 -0.7177
 3450SOL     OW13531   5.444   1.790   3.190  0.1664 -0.2586  0.0907
 3450SOL    HW213532   5.504   1.769   3.118  1.5531  1.6110  0.6097
 3450SOL    HW313533   5.500   1.793   3.268 -0.8645  0.1393  0.8433
 3450SOL    MW413534   5.459   1.788   3.191  0.3443 -0.0523 -0.0242
 3451SOL     OW13535   4.268   5.983   1.695  0.5574 -0.3470  0.2411
 3451SOL    HW213536   4.362   5.998   1.705  0.3837  0.4900  0.7963
 3451SOL    HW313537   4.256   5.962   1.603  1.2398 -0.0228  0.0715
 3451SOL    MW413538   4.279   5.983   1.684 -0.3657  0.2168  0.1567
 3452SOL     OW13539   1.670   1.770   0.381 -0.4546 -0.7315 -0.4279
 3452SOL    HW213540   1.722   1.777   0.301 -0.7741  0.9349 -0.5276
 3452SOL    HW313541   1.734   1.784   0.452 -0.1787 -2.1712 -0.3450
 3452SOL    MW413542   1.685   1.773   0.380  0.3406  0.6371 -0.3107
 3453SOL     OW13543   1.646   0.829   0.259 -0.2186 -0.0809  0.0604
 3453SOL    HW213544   1.690   0.745   0.273  1.3424  0.3880 -1.7180
 3453SOL    HW313545   1.690   0.868   0.184 -2.7059  1.1362 -0.9112
 3453SOL    MW413546   1.657   0.823   0.251 -0.4389 -0.2870 -0.0239
 3454SOL     OW13547   2.728   2.940   2.258  0.1490 -0.2689  0.2511
 3454SOL    HW213548   2.781   2.902   2.328  0.9955 -0.7652 -0.6408
 3454SOL    HW313549   2.665   2.996   2.304  1.2530  0.1177  1.3556
 3454SOL    MW413550   2.727   2.942   2.273  0.5279 -0.1327 -0.7574
 3455SOL     OW13551   1.322   1.822   5.142 -1.0061 -0.1055  0.2993
 3455SOL    HW213552   1.259   1.753   5.124 -0.2320 -1.1368  1.3218
 3455SOL    HW313553   1.393   1.807   5.080 -1.2576  0.3502 -0.0978
 3455SOL    MW413554   1.323   1.811   5.132  0.0870  0.3192 -0.0729
 3456SOL     OW13555   6.045   1.527   3.461  0.2430 -0.0771  0.0717
 3456SOL    HW213556   5.958   1.528   3.502  0.4691  0.3287  0.5533
 3456SOL    HW313557   6.039   1.593   3.392 -0.4456 -1.4435 -1.2381
 3456SOL    MW413558   6.032   1.536   3.458  0.0173  0.0271  0.2510
 3457SOL     OW13559   0.438   1.966   4.996  0.3910  1.5677 -0.2192
 3457SOL    HW213560   0.405   1.932   5.078  0.4907  2.2422  0.1072
 3457SOL    HW313561   0.363   1.966   4.937  0.8093 -1.0699 -0.8641
 3457SOL    MW413562   0.424   1.962   4.999 -0.3738 -0.1131  0.0529
 3458SOL     OW13563   0.900   2.434   0.483  0.0795 -0.2968 -0.2983
 3458SOL    HW213564   0.926   2.355   0.436  0.2664 -0.2667 -0.2486
 3458SOL    HW313565   0.812   2.453   0.452  0.1020 -0.4244 -0.4425
 3458SOL    MW413566   0.892   2.426   0.473  0.0304  0.5896 -0.2843
 3459SOL     OW13567   3.088   1.673   5.585  0.1851 -0.2507 -0.2458
 3459SOL    HW213568   3.092   1.585   5.622  1.5269 -0.8454 -1.7168
 3459SOL    HW313569   3.069   1.660   5.492  0.7382  0.9692 -0.5556
 3459SOL    MW413570   3.086   1.660   5.578  0.4716  0.3445 -0.2943
 3460SOL     OW13571   5.215   5.151   2.751  0.0009 -0.4459  0.2912
 3460SOL    HW213572   5.287   5.214   2.742 -0.0157  0.0399  2.7638
 3460SOL    HW313573   5.252   5.081   2.804 -0.4517 -1.8279 -1.1491
 3460SOL    MW413574   5.230   5.150   2.757 -0.6222 -0.6277  0.6031
 3461SOL     OW13575   0.380   0.018   5.236  0.4339 -0.1147 -0.2175
 3461SOL    HW213576   0.302   0.045   5.187  0.0594 -0.0324  0.4067
 3461SOL    HW313577   0.346  -0.026   5.314  1.0375 -1.4323 -0.6780
 3461SOL    MW413578   0.365   0.016   5.240 -0.2502 -0.2474 -0.1357
 3462SOL     OW13579   1.701   4.394   1.941  0.4461 -0.1858  0.2814
 3462SOL    HW213580   1.662   4.309   1.922  0.3754 -0.2401  0.6636
 3462SOL    HW313581   1.756   4.412   1.865 -0.4696 -0.0162 -0.3475
 3462SOL    MW413582   1.703   4.385   1.929 -0.4876 -0.0179  0.4256
 3463SOL     OW13583   0.021   5.128   4.301 -0.0108  0.3127 -0.0428
 3463SOL    HW213584  -0.037   5.063   4.341  0.3349  0.4263  0.6601
 3463SOL    HW313585  -0.034   5.174   4.238 -0.3070 -0.5354 -0.4040
 3463SOL    MW413586   0.006   5.126   4.298 -0.9354  0.6333 -0.2887
 3464SOL     OW13587   4.451   3.142   5.633  0.2651  0.5179 -0.6968
 3464SOL    HW213588   4.369   3.098   5.654 -0.3085  0.7834 -2.2106
 3464SOL    HW313589   4.498   3.079   5.577  0.1866  1.1296 -1.4766
 3464SOL    MW413590   4.447   3.127   5.628  0.5749  0.0675 -0.3194
 3465SOL     OW13591   1.638   0.485   2.547  0.0337  0.0866  0.1267
 3465SOL    HW213592   1.601   0.573   2.546  1.7688  0.8733  0.4536
 3465SOL    HW313593   1.724   0.496   2.588  0.5081 -1.6826 -0.3051
 3465SOL    MW413594   1.645   0.498   2.552  0.4959  0.8053  0.0128
 3466SOL     OW13595   3.495   0.899   5.216 -0.4553 -0.1397 -0.2392
 3466SOL    HW213596   3.589   0.904   5.232 -0.6907 -0.2755  1.3503
 3466SOL    HW313597   3.472   0.984   5.180  0.5761 -0.7785 -2.6328
 3466SOL    MW413598   3.504   0.911   5.213  0.1027  0.1397 -0.0800
 3467SOL     OW13599   1.234   4.849   2.527  0.3422  0.2938  0.5517
 3467SOL    HW213600   1.252   4.778   2.464 -0.1862  1.8031 -1.3947
 3467SOL    HW313601   1.300   4.915   2.508 -1.1082  1.6723  0.1096
 3467SOL    MW413602   1.245   4.848   2.516 -0.3115 -0.5072  0.4173
 3468SOL     OW13603   6.010   6.407   0.186  0.3136 -0.3195  0.1932
 3468SOL    HW213604   6.014   6.343   0.114  0.4758  1.1177 -1.1422
 3468SOL    HW313605   5.916   6.413   0.207 -0.0016  0.6222 -1.2674
 3468SOL    MW413606   5.998   6.400   0.179  0.3676 -0.0488 -0.3290
 3469SOL     OW13607   2.930   1.439   6.165 -0.3896  0.0990  0.1974
 3469SOL    HW213608   2.917   1.457   6.072 -1.4595 -0.7701  0.1508
 3469SOL    HW313609   2.867   1.496   6.209 -0.9449 -0.5637  0.2813
 3469SOL    MW413610   2.920   1.449   6.158  0.2637 -0.7305  0.1766
 3470SOL     OW13611   0.390   4.227   0.938  0.2273 -0.0247  0.5145
 3470SOL    HW213612   0.346   4.312   0.943  0.5570  0.1454  0.5795
 3470SOL    HW313613   0.342   4.171   0.999  1.3154  0.7145  2.1232
 3470SOL    MW413614   0.378   4.231   0.947  0.6201  0.0419 -0.4223
 3471SOL     OW13615   5.247   1.512   1.110 -0.1141 -0.3723  0.4985
 3471SOL    HW213616   5.272   1.435   1.060  0.9441  0.5670 -0.4857
 3471SOL    HW313617   5.213   1.478   1.193  2.1210 -1.8308  0.8927
 3471SOL    MW413618   5.245   1.498   1.114 -0.2090  0.1326  0.5077
 3472SOL     OW13619   5.437   5.017   5.161  0.9263  0.4855 -0.3751
 3472SOL    HW213620   5.383   4.990   5.235  0.5067 -3.1319 -1.8142
 3472SOL    HW313621   5.526   4.990   5.185  0.9849  0.3485 -0.7513
 3472SOL    MW413622   5.442   5.010   5.174 -0.6042  0.3047 -0.1636
 3473SOL     OW13623   5.860   3.670   3.933 -0.1463 -0.0171 -0.2174
 3473SOL    HW213624   5.832   3.598   3.877 -1.2048 -0.2267  0.5354
 3473SOL    HW313625   5.825   3.749   3.891 -0.6890 -0.1472 -0.0241
 3473SOL    MW413626   5.852   3.671   3.920 -0.1441 -0.1432 -0.3457
 3474SOL     OW13627   6.309   5.498   2.040 -0.4987 -0.2827  0.5161
 3474SOL    HW213628   6.287   5.528   1.951 -1.2534  0.6685  1.0067
 3474SOL    HW313629   6.268   5.413   2.048  0.7909 -1.0481 -0.5432
 3474SOL    MW413630   6.301   5.491   2.029  0.3898 -0.1403  0.2344
 3475SOL     OW13631   0.218   4.174   1.162 -0.5982  0.1049  0.2466
 3475SOL    HW213632   0.255   4.262   1.174 -0.1607  0.2305 -1.7961
 3475SOL    HW313633   0.287   4.115   1.193 -0.3074  0.4417  0.2534
 3475SOL    MW413634   0.232   4.178   1.168 -0.0385  0.1793 -0.0693
 3476SOL     OW13635   4.986   4.886   5.720 -0.4958  0.3822  0.0495
 3476SOL    HW213636   4.998   4.818   5.786  0.7225  0.3912 -0.1337
 3476SOL    HW313637   5.050   4.954   5.744  0.2878  0.1901 -1.3751
 3476SOL    MW413638   4.996   4.886   5.732 -0.3520  0.4720 -0.0280
 3477SOL     OW13639   1.809   4.393   1.362  0.5234 -0.1682 -0.6232
 3477SOL    HW213640   1.802   4.300   1.339  2.5959 -1.2536  2.5947
 3477SOL    HW313641   1.734   4.409   1.419  1.6589 -0.7350  1.1130
 3477SOL    MW413642   1.798   4.382   1.366  0.3682  0.0637  0.2777
 3478SOL     OW13643   5.966   0.865   3.409 -0.4093 -0.1622  0.1088
 3478SOL    HW213644   5.912   0.886   3.485 -0.8458  2.1815 -0.7722
 3478SOL    HW313645   5.904   0.857   3.337  0.1635 -0.4263 -0.3666
 3478SOL    MW413646   5.951   0.867   3.409 -0.4358 -0.3905 -0.2227
 3479SOL     OW13647   6.286   5.955   3.858 -0.4965  0.5056 -1.3172
 3479SOL    HW213648   6.304   5.940   3.765  0.5277  0.1063 -1.0672
 3479SOL    HW313649   6.195   5.985   3.860 -1.0789 -1.0621 -2.2964
 3479SOL    MW413650   6.276   5.957   3.846 -0.3122  0.5635 -0.1638
 3480SOL     OW13651   0.122   2.638   2.379 -0.1065  0.4616 -0.7852
 3480SOL    HW213652   0.131   2.725   2.340 -0.2732  0.1619 -1.5129
 3480SOL    HW313653   0.200   2.591   2.352  1.1104  1.0395  1.4488
 3480SOL    MW413654   0.133   2.644   2.371  0.1443 -0.2463 -0.1019
 3481SOL     OW13655   3.729   3.945   1.333  0.2286  0.2755 -0.0339
 3481SOL    HW213656   3.804   3.962   1.275  0.3136  0.9623  0.2710
 3481SOL    HW313657   3.768   3.910   1.413  0.1702  0.0443 -0.1051
 3481SOL    MW413658   3.744   3.943   1.336 -0.0438  0.0480 -0.4952
 3482SOL     OW13659   5.571   2.004   5.990  1.1790 -0.0184 -0.7424
 3482SOL    HW213660   5.546   1.957   5.911  0.5355 -0.6224 -0.1914
 3482SOL    HW313661   5.617   1.939   6.043  1.2600  0.2732 -0.4506
 3482SOL    MW413662   5.574   1.990   5.987 -0.1895 -0.0390  0.2977
 3483SOL     OW13663   5.042   6.233   0.565  0.2143 -0.2043 -0.2131
 3483SOL    HW213664   5.117   6.223   0.506  1.7372 -0.0632  1.6325
 3483SOL    HW313665   5.055   6.319   0.606  1.0248 -1.6022  2.7163
 3483SOL    MW413666   5.054   6.243   0.562 -0.1908 -0.5502  0.6959
 3484SOL     OW13667   3.656   1.155   1.564  0.0747 -0.3500 -0.6530
 3484SOL    HW213668   3.661   1.251   1.564 -1.1294 -0.2209  1.1697
 3484SOL    HW313669   3.712   1.128   1.637  0.2534 -1.0172 -1.0284
 3484SOL    MW413670   3.664   1.164   1.574  0.5371 -0.4653 -0.0327
 3485SOL     OW13671   3.752   3.386   6.302 -0.2049 -0.2798 -0.2340
 3485SOL    HW213672   3.733   3.453   6.236 -2.3746 -0.9011 -0.3231
 3485SOL    HW313673   3.763   3.435   6.383  1.8460  0.4390 -0.8950
 3485SOL    MW413674   3.751   3.401   6.304 -0.1033  0.0400  0.0578
 3486SOL     OW13675   4.832   0.014   0.381  0.1390  0.1360  0.0020
 3486SOL    HW213676   4.768   0.010   0.452  1.3793 -2.1540  1.0965
 3486SOL    HW313677   4.912   0.047   0.423  0.8386 -1.0975 -0.2999
 3486SOL    MW413678   4.834   0.018   0.396 -0.4575 -0.0033 -0.4263
 3487SOL     OW13679   6.236   2.177   6.285  0.3185 -0.1865 -0.3483
 3487SOL    HW213680   6.190   2.260   6.300  0.2914 -0.4008  0.8890
 3487SOL    HW313681   6.325   2.202   6.264  0.2265  0.1682 -0.3244
 3487SOL    MW413682   6.241   2.191   6.284  0.1268  0.1035  0.8700
 3488SOL     OW13683   5.047   0.027   1.481 -0.6652  0.4632  0.2558
 3488SOL    HW213684   4.997  -0.050   1.454  0.7760 -0.6064  0.5061
 3488SOL    HW313685   5.022   0.095   1.419 -0.4537 -0.7866 -1.2478
 3488SOL    MW413686   5.037   0.026   1.469 -0.2268  0.2445  0.4494
 3489SOL     OW13687   4.642   6.008   1.124  0.7180 -0.0520  0.4355
 3489SOL    HW213688   4.714   5.993   1.063  1.8900 -0.2400  1.8209
 3489SOL    HW313689   4.658   5.947   1.196 -0.3171  0.5538  1.2104
 3489SOL    MW413690   4.653   5.998   1.125  0.6367 -0.4239  0.3320
 3490SOL     OW13691   2.635   0.173   5.222  0.1190 -0.0306  0.0140
 3490SOL    HW213692   2.728   0.172   5.243  0.0308 -1.4910  0.4263
 3490SOL    HW313693   2.604   0.258   5.253  1.1946  0.2423  0.3798
 3490SOL    MW413694   2.643   0.184   5.229  0.3686  0.3026 -0.2316
 3491SOL     OW13695   3.366   0.033   4.135 -0.1071 -0.0500 -0.4079
 3491SOL    HW213696   3.373   0.047   4.229 -0.2368 -0.3834 -0.3484
 3491SOL    HW313697   3.273   0.015   4.120 -0.2299  0.7775 -0.7070
 3491SOL    MW413698   3.355   0.033   4.145 -0.2653  0.3237  0.0737
 3492SOL     OW13699   6.217   2.316   0.434  0.6390  0.2466  0.0355
 3492SOL    HW213700   6.232   2.303   0.340  1.0987  0.7757  0.0283
 3492SOL    HW313701   6.129   2.282   0.449  1.2570 -1.6310 -0.2148
 3492SOL    MW413702   6.207   2.310   0.424  0.3108 -0.2200 -0.2726
 3493SOL     OW13703   1.928   0.560   5.604  0.1729 -0.4973 -0.9181
 3493SOL    HW213704   1.956   0.509   5.527 -1.4145  0.8166 -2.4515
 3493SOL    HW313705   2.002   0.619   5.621  2.0304 -3.1223  0.8674
 3493SOL    MW413706   1.942   0.561   5.596  0.0879  0.2837 -0.2497
 3494SOL     OW13707   3.430   5.910   3.088  0.0342  0.2278 -0.6512
 3494SOL    HW213708   3.425   5.996   3.046 -1.1113  0.4532 -0.1027
 3494SOL    HW313709   3.515   5.875   3.063  1.5429  2.4818  0.9245
 3494SOL    MW413710   3.441   5.917   3.079  0.2839  0.0236 -0.1236
 3495SOL     OW13711   6.180   4.811   0.197  0.2825  0.3627  0.0487
 3495SOL    HW213712   6.086   4.817   0.215  0.3104  1.0588 -0.0163
 3495SOL    HW313713   6.186   4.752   0.122 -0.1122  0.4203 -0.0300
 3495SOL    MW413714   6.168   4.804   0.189  0.2066 -0.3401 -0.2003
 3496SOL     OW13715   2.673   4.166   5.861 -0.2131 -0.5430  0.4744
 3496SOL    HW213716   2.594   4.183   5.913 -1.0913  0.1089 -1.0152
 3496SOL    HW313717   2.658   4.213   5.779  0.5541 -2.5560 -0.8980
 3496SOL    MW413718   2.661   4.175   5.857 -0.6626  0.2519  0.0352
 3497SOL     OW13719   5.373   4.007   4.665 -0.3894 -0.0310 -0.0211
 3497SOL    HW213720   5.371   3.937   4.730 -0.9893 -0.5702 -0.6030
 3497SOL    HW313721   5.386   3.962   4.582 -0.5319  0.5716 -0.3752
 3497SOL    MW413722   5.375   3.992   4.663  0.0996  0.2383 -0.2723
 3498SOL     OW13723   1.707   0.954   3.047 -0.2791  0.1650  0.1114
 3498SOL    HW213724   1.675   1.014   2.981 -0.1178  0.4205  0.2625
 3498SOL    HW313725   1.669   0.986   3.129 -0.8720 -0.4374  0.0753
 3498SOL    MW413726   1.698   0.966   3.049 -0.0964  0.2998 -0.0650
 3499SOL     OW13727   2.198   2.962   3.747  0.3237  0.4807  0.4536
 3499SOL    HW213728   2.259   2.977   3.675  0.2079  0.0252  0.2590
 3499SOL    HW313729   2.194   2.867   3.756 -0.3330  0.5071  0.4785
 3499SOL    MW413730   2.205   2.952   3.739 -0.0803  0.0452  0.5417
 3500SOL     OW13731   1.166   1.981   3.507 -0.3061 -0.1391 -0.0640
 3500SOL    HW213732   1.221   2.057   3.525  1.2799 -1.1937 -0.2291
 3500SOL    HW313733   1.085   2.017   3.471  0.6544  1.4337 -0.7355
 3500SOL    MW413734   1.162   1.996   3.505 -0.0377  0.3375  0.1614
 3501SOL     OW13735   1.505   4.561   4.638 -0.0832 -0.3251 -0.3141
 3501SOL    HW213736   1.519   4.474   4.675  0.3692  0.6904  2.1097
 3501SOL    HW313737   1.436   4.599   4.693 -0.9652  0.5413 -1.9467
 3501SOL    MW413738   1.497   4.554   4.651 -0.0306 -0.6673 -0.5249
 3502SOL     OW13739   3.685   4.027   5.799 -0.1552  0.0427  0.3859
 3502SOL    HW213740   3.736   4.108   5.800 -1.9243  1.2092  0.7633
 3502SOL    HW313741   3.603   4.050   5.842 -0.4835 -2.1243  1.0264
 3502SOL    MW413742   3.681   4.041   5.805  0.1095 -0.0133  0.0382
 3503SOL     OW13743   3.189   4.322   0.529 -0.3237 -0.2395 -0.1162
 3503SOL    HW213744   3.258   4.387   0.539 -0.5362  0.3003 -1.8602
 3503SOL    HW313745   3.138   4.351   0.454 -1.1527 -1.7837 -0.2077
 3503SOL    MW413746   3.191   4.334   0.521 -0.0384  0.2112  0.9902
 3504SOL     OW13747   2.986   3.473   6.414 -1.1504 -0.8772  0.1468
 3504SOL    HW213748   2.925   3.410   6.375  0.7714 -2.0571 -1.0794
 3504SOL    HW313749   2.996   3.541   6.348  0.4884 -1.8052 -0.6145
 3504SOL    MW413750   2.979   3.474   6.400  0.1512  0.1733 -0.2191
 3505SOL     OW13751   2.547   4.000   0.836 -0.7465  0.3498  0.6062
 3505SOL    HW213752   2.458   4.023   0.810 -0.0114  1.0748 -1.4665
 3505SOL    HW313753   2.554   4.029   0.928 -2.8912 -0.5664  1.1028
 3505SOL    MW413754   2.536   4.007   0.845  0.1214 -0.5449 -0.2674
 3506SOL     OW13755   0.912   2.767   6.384 -0.3683  0.4193  0.1271
 3506SOL    HW213756   0.984   2.762   6.447 -0.5295 -0.0585  0.2808
 3506SOL    HW313757   0.947   2.725   6.306 -0.4190  0.3458  0.1438
 3506SOL    MW413758   0.927   2.761   6.382 -0.1633  0.2490  0.0115
 3507SOL     OW13759   3.697   2.122   1.404  0.1027 -0.3192  0.3499
 3507SOL    HW213760   3.677   2.087   1.491  1.3188 -1.9558  0.0339
 3507SOL    HW313761   3.746   2.202   1.421  1.4772 -1.3043  1.2424
 3507SOL    MW413762   3.701   2.128   1.418  0.0860 -0.0898 -0.2501
 3508SOL     OW13763   2.426   2.681   5.841 -0.4898 -0.2789 -0.2039
 3508SOL    HW213764   2.393   2.642   5.760 -0.2430 -1.4497  0.2445
 3508SOL    HW313765   2.521   2.673   5.835 -0.3758  0.9536 -0.4306
 3508SOL    MW413766   2.434   2.675   5.829  0.1149  0.0806 -0.5487
 3509SOL     OW13767   2.568   2.252   3.721 -0.4089  0.3286 -0.3765
 3509SOL    HW213768   2.637   2.190   3.698 -0.9611 -0.7216  0.6892
 3509SOL    HW313769   2.573   2.261   3.816 -0.5284  1.7241 -0.4791
 3509SOL    MW413770   2.577   2.245   3.730 -0.0404 -0.3750  0.2112
 3510SOL     OW13771   6.155   1.194   0.946  0.3359  0.0328 -0.6330
 3510SOL    HW213772   6.121   1.270   0.899 -0.8388 -0.6067 -0.8366
 3510SOL    HW313773   6.168   1.225   1.035  0.7298  0.7129 -0.9148
 3510SOL    MW413774   6.153   1.208   0.951  0.0935 -0.2895  0.3149
 3511SOL     OW13775   2.062   4.940   5.236  0.1411 -0.2647 -0.5535
 3511SOL    HW213776   1.971   4.965   5.250  0.1678  0.2686 -1.2300
 3511SOL    HW313777   2.057   4.863   5.180  0.1071  0.5247 -1.6780
 3511SOL    MW413778   2.049   4.933   5.230  0.0193  0.7776 -0.5576
 3512SOL     OW13779   3.909   5.477   5.110  0.0136  0.2500 -0.4653
 3512SOL    HW213780   3.951   5.438   5.186  0.0894  0.8601 -0.1872
 3512SOL    HW313781   3.880   5.564   5.140  0.5575  0.7336 -1.2872
 3512SOL    MW413782   3.910   5.484   5.124  0.2984 -0.0404  0.5683
 3513SOL     OW13783   3.482   4.844   3.716 -0.2204  0.0269  0.0750
 3513SOL    HW213784   3.407   4.885   3.758  0.1970  0.1918  0.6747
 3513SOL    HW313785   3.475   4.751   3.739 -0.1026  0.0843  0.3487
 3513SOL    MW413786   3.471   4.837   3.725 -0.0073 -0.5298 -0.0805
 3514SOL     OW13787   3.363   1.346   3.398 -0.2671 -0.3825 -0.9018
 3514SOL    HW213788   3.295   1.347   3.465  0.6782 -1.2158  0.1003
 3514SOL    HW313789   3.419   1.421   3.419 -0.2376 -0.3547 -1.0716
 3514SOL    MW413790   3.362   1.356   3.410  0.4339 -0.2883 -0.6873
 3515SOL     OW13791   0.550   4.472   6.195  0.4572 -0.0124  0.0541
 3515SOL    HW213792   0.514   4.551   6.234 -0.2126 -1.0131  1.5893
 3515SOL    HW313793   0.605   4.434   6.264  1.2573 -0.5809 -0.8597
 3515SOL    MW413794   0.552   4.477   6.209  0.6991 -0.1320 -0.2514
 3516SOL     OW13795   4.824   4.606   1.470 -0.4286 -0.2051 -0.0559
 3516SOL    HW213796   4.737   4.607   1.511 -0.5405 -1.4088 -0.2119
 3516SOL    HW313797   4.885   4.619   1.543 -0.6667 -1.4756  0.3990
 3516SOL    MW413798   4.821   4.607   1.485 -0.2479  0.6819 -0.1421
 3517SOL     OW13799   3.235   0.610   5.070  0.3654 -0.5358 -0.1034
 3517SOL    HW213800   3.322   0.599   5.033 -0.4934 -4.0159 -1.4562
 3517SOL    HW313801   3.187   0.662   5.005  0.4206 -1.8618 -1.2414
 3517SOL    MW413802   3.240   0.615   5.057 -0.3444  0.1263  0.4835
 3518SOL     OW13803   5.994   1.008   0.083  0.1804 -0.4733 -0.2818
 3518SOL    HW213804   5.910   0.979   0.048  1.1648 -2.1630 -1.3748
 3518SOL    HW313805   5.973   1.044   0.169 -1.6978 -0.5216 -0.6837
 3518SOL    MW413806   5.980   1.009   0.090  0.2756 -0.1330 -0.3542
 3519SOL     OW13807   3.117   3.993   2.381 -0.5010  0.2946  0.2079
 3519SOL    HW213808   3.210   4.014   2.375  0.0924 -2.0366  0.1447
 3519SOL    HW313809   3.084   4.003   2.292  0.5471 -2.1465 -0.5449
 3519SOL    MW413810   3.125   3.997   2.368 -0.4779 -0.2718 -0.3193
 3520SOL     OW13811   5.609   3.022   1.304 -0.4469  0.5293 -0.6724
 3520SOL    HW213812   5.601   3.113   1.275  1.1784  0.8615 -0.1923
 3520SOL    HW313813   5.574   3.022   1.393  0.0925  0.8395 -0.4509
 3520SOL    MW413814   5.603   3.034   1.312 -0.1088 -0.1129  0.1323
 3521SOL     OW13815   3.081   5.744   1.520 -0.2383  0.5657  0.0281
 3521SOL    HW213816   2.990   5.742   1.490  0.0500  0.7247 -0.8949
 3521SOL    HW313817   3.077   5.719   1.613 -1.1022 -0.5101 -0.2801
 3521SOL    MW413818   3.069   5.740   1.529 -0.3481  0.2112 -0.1821
 3522SOL     OW13819   1.250   6.048   1.701 -0.0977  0.1208 -0.1091
 3522SOL    HW213820   1.216   6.118   1.756 -0.2943  0.1393 -0.2543
 3522SOL    HW313821   1.211   5.968   1.736 -1.7695  0.3160 -1.4039
 3522SOL    MW413822   1.241   6.047   1.713 -0.3601 -0.0505  0.1395
 3523SOL     OW13823   2.640   1.007   6.079  0.1260 -0.4640  0.1180
 3523SOL    HW213824   2.661   1.100   6.073  0.3418 -0.4710  0.7318
 3523SOL    HW313825   2.643   0.988   6.173 -1.4414 -0.7330  0.1416
 3523SOL    MW413826   2.643   1.017   6.091  0.4780 -0.2264  0.2146
 3524SOL     OW13827   1.321   2.762   0.561 -0.4066 -0.0761 -0.1599
 3524SOL    HW213828   1.256   2.697   0.533  0.4335 -0.3096 -1.6302
 3524SOL    HW313829   1.350   2.730   0.647 -2.0244 -0.0991  0.4201
 3524SOL    MW413830   1.316   2.749   0.569 -0.1755  0.5286 -0.1519
 3525SOL     OW13831   1.702   5.340   4.149  0.0611  0.0973 -0.1084
 3525SOL    HW213832   1.793   5.310   4.155  0.3210  1.0266  0.9516
 3525SOL    HW313833   1.654   5.283   4.208 -0.1296 -0.6440 -0.9605
 3525SOL    MW413834   1.708   5.329   4.158 -0.0655 -0.3598  0.3667
 3526SOL     OW13835   6.213   5.208   0.917  0.0958  0.3026 -0.2618
 3526SOL    HW213836   6.225   5.302   0.935 -0.0435  0.4853 -1.1064
 3526SOL    HW313837   6.227   5.166   1.002  0.7363  1.0390  0.0097
 3526SOL    MW413838   6.217   5.215   0.931  0.4901  0.2238  0.3565
 3527SOL     OW13839   0.102   6.412   4.058  0.8401  0.4565  0.4133
 3527SOL    HW213840   0.110   6.461   4.140 -2.0339  0.1883  0.9682
 3527SOL    HW313841   0.072   6.477   3.994 -2.2781 -0.2540  0.9804
 3527SOL    MW413842   0.099   6.427   4.060  0.2739  0.4127  0.2683
 3528SOL     OW13843   3.118   1.039   5.166  1.4131 -0.0495 -0.2674
 3528SOL    HW213844   3.050   1.103   5.185  1.2999  0.0369 -0.9695
 3528SOL    HW313845   3.111   0.975   5.238  0.7811  0.1067 -0.1847
 3528SOL    MW413846   3.108   1.039   5.178 -0.5595  0.3416 -0.7709
 3529SOL     OW13847   2.986   0.061   2.984  0.2389  0.3939  0.2260
 3529SOL    HW213848   2.997   0.150   3.015  0.0135  1.1874 -1.8348
 3529SOL    HW313849   2.904   0.032   3.023 -0.1506  1.4261  0.1930
 3529SOL    MW413850   2.977   0.069   2.993 -0.3769 -0.0698  0.3120
 3530SOL     OW13851   5.153   3.411   0.032  0.2889  0.1184 -0.2377
 3530SOL    HW213852   5.230   3.460   0.005 -0.2719 -0.3484 -3.0192
 3530SOL    HW313853   5.171   3.385   0.122  2.1096  2.3742  0.1319
 3530SOL    MW413854   5.166   3.414   0.040  1.0016  0.5996  0.4555
 3531SOL     OW13855   1.080   1.734   5.845  0.0070  0.0739  0.0601
 3531SOL    HW213856   1.090   1.828   5.855 -0.6238  0.0645  0.8459
 3531SOL    HW313857   1.164   1.697   5.873  0.3631  0.4074 -0.5408
 3531SOL    MW413858   1.092   1.741   5.850 -0.2409  0.4906 -0.2255
 3532SOL     OW13859   4.783   6.144   4.505 -0.1172 -0.5758 -0.1339
 3532SOL    HW213860   4.803   6.073   4.443 -1.7910  0.0592 -1.4883
 3532SOL    HW313861   4.854   6.207   4.492  0.1916 -0.9919 -0.5365
 3532SOL    MW413862   4.795   6.143   4.495  0.1372  0.2457 -0.3995
 3533SOL     OW13863   5.459   0.214   2.851  0.2893 -0.2457 -0.2432
 3533SOL    HW213864   5.469   0.284   2.787  0.0848 -0.5921 -0.6609
 3533SOL    HW313865   5.545   0.172   2.855  0.3593 -0.0918 -0.1351
 3533SOL    MW413866   5.472   0.217   2.843 -0.1088 -0.4157 -0.3028
 3534SOL     OW13867   0.639   5.959   0.421 -0.2153 -0.3704 -0.0170
 3534SOL    HW213868   0.717   5.915   0.387  0.2415 -0.8162  1.5135
 3534SOL    HW313869   0.621   6.029   0.358  0.9262 -0.7901 -0.8348
 3534SOL    MW413870   0.647   5.963   0.408  0.0700 -0.0845 -0.0430
 3535SOL     OW13871   0.166   5.851   0.914 -0.1206  0.2870 -0.1493
 3535SOL    HW213872   0.076   5.863   0.942 -0.6091 -1.3940 -0.8631
 3535SOL    HW313873   0.165   5.768   0.866  1.9865 -0.2300  0.6081
 3535SOL    MW413874   0.154   5.842   0.911 -1.0514  0.3099 -0.8009
 3536SOL     OW13875   6.293   3.436   4.248 -0.0512 -0.4149 -0.2689
 3536SOL    HW213876   6.377   3.471   4.217  0.7698 -0.4197  1.8161
 3536SOL    HW313877   6.228   3.475   4.189  1.2304  1.1237 -0.7486
 3536SOL    MW413878   6.295   3.446   4.236 -0.1975 -0.1792 -0.0710
 3537SOL     OW13879   4.895   5.054   4.964 -0.1166  0.3707  0.7893
 3537SOL    HW213880   4.949   5.008   5.029 -0.5826 -1.7615 -0.2334
 3537SOL    HW313881   4.954   5.068   4.890 -0.3446  0.1675  0.5689
 3537SOL    MW413882   4.910   5.050   4.963  0.4484  0.1528 -0.5431
 3538SOL     OW13883   0.626   4.933   6.192 -0.0722 -0.0778 -0.1286
 3538SOL    HW213884   0.714   4.921   6.229 -0.4432 -0.7199  0.5615
 3538SOL    HW313885   0.632   4.892   6.105 -0.1543 -1.6791  0.5881
 3538SOL    MW413886   0.639   4.926   6.185  0.1377  0.6623 -0.1481
 3539SOL     OW13887   0.757   0.922   3.346 -0.3305  0.0412 -0.1971
 3539SOL    HW213888   0.767   0.991   3.280  1.8488  1.1250  1.1509
 3539SOL    HW313889   0.742   0.842   3.295  0.8079  0.9035 -2.0068
 3539SOL    MW413890   0.757   0.921   3.330 -0.6240  0.0750 -0.8205
 3540SOL     OW13891   3.138   5.602   0.476  0.7958 -0.2302  0.5579
 3540SOL    HW213892   3.158   5.528   0.418  1.6626  0.5972 -0.2183
 3540SOL    HW313893   3.042   5.603   0.481  0.7764 -1.6741  0.9517
 3540SOL    MW413894   3.128   5.592   0.469 -0.0656 -0.1144 -0.7637
 3541SOL     OW13895   3.363   4.699   1.632  0.1069 -0.8515 -0.0524
 3541SOL    HW213896   3.388   4.760   1.563  1.3418 -0.4714  0.6904
 3541SOL    HW313897   3.441   4.646   1.647  0.9121  0.9349  2.9287
 3541SOL    MW413898   3.376   4.700   1.625 -0.1542  0.7180  0.4777
 3542SOL     OW13899   2.146   4.597   4.585  0.3880 -0.2647  0.3303
 3542SOL    HW213900   2.208   4.662   4.618  1.5088 -0.3141 -1.5151
 3542SOL    HW313901   2.187   4.513   4.604  0.3632 -0.3290  0.1100
 3542SOL    MW413902   2.160   4.595   4.592  0.0417 -0.1651 -0.0544
 3543SOL     OW13903   0.079   6.203   3.562  0.4428 -0.3960  0.5154
 3543SOL    HW213904   0.018   6.260   3.514  0.1669 -0.3978  0.8675
 3543SOL    HW313905   0.082   6.240   3.650  1.7487  0.2447  0.2362
 3543SOL    MW413906   0.072   6.216   3.567 -0.8451 -0.9272 -0.8063
 3544SOL     OW13907   5.725   5.801   4.869 -0.2015 -0.1209 -0.3356
 3544SOL    HW213908   5.668   5.875   4.892  1.7532  0.9010  1.5267
 3544SOL    HW313909   5.780   5.788   4.946  2.1983 -0.9481 -2.0824
 3544SOL    MW413910   5.725   5.809   4.882  0.3416 -0.2159  0.0248
 3545SOL     OW13911   5.961   1.844   6.230  0.3828  0.2179  0.1110
 3545SOL    HW213912   6.017   1.799   6.294  0.0543 -0.2625  0.0661
 3545SOL    HW313913   6.018   1.859   6.155  0.1662 -1.3279 -0.4065
 3545SOL    MW413914   5.976   1.840   6.229  0.0699 -0.0031  0.4936
 3546SOL     OW13915   0.630   4.766   1.142 -0.3582  0.0977 -0.1884
 3546SOL    HW213916   0.665   4.727   1.222  0.4098  1.1026 -0.0171
 3546SOL    HW313917   0.706   4.805   1.099 -0.9350  0.4802 -0.8838
 3546SOL    MW413918   0.645   4.766   1.147 -0.1454  0.5213 -0.4177
 3547SOL     OW13919   6.175   1.537   2.310  0.0132  0.5578  0.0636
 3547SOL    HW213920   6.132   1.615   2.276  0.8712  1.4346  0.9273
 3547SOL    HW313921   6.216   1.497   2.234  0.3038  1.4269 -0.2432
 3547SOL    MW413922   6.174   1.542   2.296  0.5149  0.4321  0.5680
 3548SOL     OW13923   3.106   3.597   1.425 -0.0549 -0.0614  0.1229
 3548SOL    HW213924   3.121   3.625   1.516 -0.2105  1.1708 -0.2239
 3548SOL    HW313925   3.021   3.553   1.428 -1.2232  2.0518  0.1720
 3548SOL    MW413926   3.097   3.595   1.438  0.2889  0.2386  0.1215
 3549SOL     OW13927   0.287   3.051   1.348  0.3386  0.1602  0.3938
 3549SOL    HW213928   0.256   2.984   1.287 -0.1989 -0.1394  0.9881
 3549SOL    HW313929   0.371   3.079   1.311 -0.7734  1.2603 -1.4398
 3549SOL    MW413930   0.294   3.046   1.335 -0.0061  0.0964 -0.1760
 3550SOL     OW13931   1.820   3.036   5.849  0.2532 -0.0532  0.3727
 3550SOL    HW213932   1.819   3.008   5.941  1.2806 -0.1015  0.3887
 3550SOL    HW313933   1.892   2.985   5.810  0.1016  0.2788 -0.3558
 3550SOL    MW413934   1.829   3.025   5.856  0.4146  0.0505  0.4190
 3551SOL     OW13935   0.519   0.437   2.125  0.7798 -0.1617 -0.3356
 3551SOL    HW213936   0.503   0.509   2.065  2.8412  0.2485 -0.4686
 3551SOL    HW313937   0.566   0.476   2.199 -1.2143 -0.7553  1.3546
 3551SOL    MW413938   0.523   0.451   2.127 -0.6026 -0.3593 -0.3653
 3552SOL     OW13939   5.652   5.699   4.598  0.0542  0.3782 -0.4741
 3552SOL    HW213940   5.692   5.734   4.678  0.0796  0.8375 -0.6831
 3552SOL    HW313941   5.625   5.777   4.549  1.2676  0.1609 -1.5455
 3552SOL    MW413942   5.654   5.714   4.602 -0.5030  0.1280 -0.5670
 3553SOL     OW13943   1.914   5.290   6.253  0.9128 -0.0801  0.0950
 3553SOL    HW213944   1.924   5.205   6.211 -1.2980 -0.5665  0.4711
 3553SOL    HW313945   1.885   5.348   6.183  0.7360 -0.0365  0.2057
 3553SOL    MW413946   1.912   5.287   6.238 -0.0946  0.2035  0.2284
 3554SOL     OW13947   2.636   1.233   0.174 -0.3511  0.5112 -0.4319
 3554SOL    HW213948   2.681   1.309   0.137 -0.2209 -0.1900 -1.7822
 3554SOL    HW313949   2.702   1.191   0.229 -0.3510  1.2177  0.1349
 3554SOL    MW413950   2.651   1.238   0.177  0.2753  0.1617  0.6584
 3555SOL     OW13951   2.404   4.818   1.637 -0.3973  0.0020  0.2250
 3555SOL    HW213952   2.320   4.811   1.682 -1.6110  1.3890 -1.6080
 3555SOL    HW313953   2.454   4.881   1.689 -0.7883 -0.2545  0.9248
 3555SOL    MW413954   2.399   4.826   1.650 -0.1562  0.1396 -0.7255
 3556SOL     OW13955   5.825   2.516   2.590  0.6551  0.6757 -0.5661
 3556SOL    HW213956   5.902   2.483   2.541 -0.1051  0.8008 -1.9012
 3556SOL    HW313957   5.763   2.540   2.522 -0.2254  1.4482  0.4901
 3556SOL    MW413958   5.827   2.515   2.574  0.1506 -0.5438 -0.0463
 3557SOL     OW13959   6.033   3.771   6.414  0.3447 -0.1825 -0.7660
 3557SOL    HW213960   6.008   3.864   6.406 -0.3228 -0.4164 -1.5328
 3557SOL    HW313961   5.966   3.734   6.472  0.4598 -0.2443 -0.6719
 3557SOL    MW413962   6.021   3.779   6.421  0.0792 -0.2677  0.2231
 3558SOL     OW13963   4.241   0.883   2.032  0.1702  0.4281 -0.1612
 3558SOL    HW213964   4.161   0.929   2.058  0.1266  0.6092 -0.5997
 3558SOL    HW313965   4.240   0.885   1.936  0.8400  0.6769 -0.1723
 3558SOL    MW413966   4.230   0.890   2.023  0.3519 -0.0604  0.0940
 3559SOL     OW13967   3.671   2.149   5.585 -0.1371  0.2838 -0.1018
 3559SOL    HW213968   3.580   2.173   5.573 -0.6586 -2.1072 -1.6821
 3559SOL    HW313969   3.718   2.196   5.516 -0.6616 -0.6390 -1.1301
 3559SOL    MW413970   3.665   2.158   5.574  0.0228  0.1096 -0.1133
 3560SOL     OW13971   5.907   2.956   4.083 -0.3667  0.1123  0.3689
 3560SOL    HW213972   5.881   3.047   4.096 -3.0839 -0.1222 -2.1627
 3560SOL    HW313973   5.868   2.909   4.156 -0.5331  0.7671  0.7028
 3560SOL    MW413974   5.898   2.962   4.094  0.8214 -0.5755  0.2142
 3561SOL     OW13975   5.660   4.200   6.410  0.1599 -0.0984 -0.5927
 3561SOL    HW213976   5.678   4.107   6.403 -0.9321 -0.3002 -0.9306
 3561SOL    HW313977   5.567   4.208   6.388 -0.1944  0.8448  1.0608
 3561SOL    MW413978   5.650   4.189   6.406 -0.6949  0.6269 -0.9262
 3562SOL     OW13979   1.465   3.650   1.097  0.1717  0.2599  0.2764
 3562SOL    HW213980   1.557   3.653   1.072  0.3426 -0.2247  0.8232
 3562SOL    HW313981   1.440   3.741   1.109  1.3217  0.3365  2.7277
 3562SOL    MW413982   1.474   3.662   1.096 -0.5714 -0.1979 -0.3982
 3563SOL     OW13983   0.014   2.707   6.266 -0.3097  0.2080 -0.2050
 3563SOL    HW213984   0.079   2.636   6.259 -0.7265 -0.2701  0.6229
 3563SOL    HW313985   0.049   2.764   6.334 -1.0468 -0.3917  0.7033
 3563SOL    MW413986   0.027   2.705   6.274  0.4798  0.3092 -0.2384
 3564SOL     OW13987   4.985   3.972   2.326  0.1000 -0.0542  0.1355
 3564SOL    HW213988   4.918   3.971   2.257  0.0769  0.3155  0.1466
 3564SOL    HW313989   5.061   4.013   2.285 -0.2698  1.1881  0.6343
 3564SOL    MW413990   4.986   3.977   2.311 -0.7683  0.4885  0.1843
 3565SOL     OW13991   1.987   1.782   0.232  0.3358  0.1422  0.1750
 3565SOL    HW213992   1.922   1.720   0.200 -2.8711  2.5984  1.2810
 3565SOL    HW313993   2.026   1.740   0.309 -0.1299 -1.3235 -0.3671
 3565SOL    MW413994   1.984   1.769   0.238  0.3731 -0.0590  0.1682
 3566SOL     OW13995   0.716   3.074   0.301  0.4816 -0.3263 -0.4546
 3566SOL    HW213996   0.774   3.020   0.249  1.1597  1.3490 -1.5126
 3566SOL    HW313997   0.773   3.136   0.346 -0.3512  0.2363 -0.1284
 3566SOL    MW413998   0.731   3.075   0.300  0.3089 -0.3065  0.2921
 3567SOL     OW13999   3.854   6.007   4.653 -0.3434  0.0429 -0.4435
 3567SOL    HW214000   3.901   5.943   4.600  1.1633  0.9726 -0.2845
 3567SOL    HW314001   3.923   6.056   4.699 -1.5192  0.6933  0.6909
 3567SOL    MW414002   3.869   6.005   4.652  0.5543  0.0731 -0.2607
 3568SOL     OW14003   5.957   4.869   3.834 -0.2042  0.9392 -0.2698
 3568SOL    HW214004   5.940   4.810   3.760  0.3854  0.3391  0.0579
 3568SOL    HW314005   5.870   4.893   3.866 -0.4944 -0.8065  0.3956
 3568SOL    MW414006   5.943   4.864   3.828 -0.0113 -0.6045 -0.6421
 3569SOL     OW14007   0.631   4.889   0.080 -0.2051 -0.1622 -0.5284
 3569SOL    HW214008   0.553   4.918   0.032 -0.2181  1.1461  0.2343
 3569SOL    HW314009   0.701   4.945   0.048 -0.2600  0.8998  1.1151
 3569SOL    MW414010   0.630   4.900   0.069 -0.0612  0.0012  0.2058
 3570SOL     OW14011   3.296   0.421   2.168 -0.1127  0.3975  0.5365
 3570SOL    HW214012   3.329   0.441   2.081  1.4988 -0.2451  0.9685
 3570SOL    HW314013   3.215   0.372   2.153  0.5943 -0.4627 -0.6287
 3570SOL    MW414014   3.290   0.417   2.155  0.1761 -0.2509  0.0008
 3571SOL     OW14015   1.275   2.350   0.244 -0.1184 -0.1905 -0.1223
 3571SOL    HW214016   1.198   2.377   0.194 -0.7987 -0.8505  0.5484
 3571SOL    HW314017   1.240   2.297   0.315  0.7728  1.2586  1.4520
 3571SOL    MW414018   1.260   2.346   0.246  0.2627 -0.1267  0.3639
 3572SOL     OW14019   3.800   4.507   2.641  0.3744  0.6038  0.0736
 3572SOL    HW214020   3.745   4.445   2.594  1.6414 -0.4008 -0.1393
 3572SOL    HW314021   3.799   4.475   2.732  0.2026  0.8893  0.1746
 3572SOL    MW414022   3.792   4.495   2.647  0.5771  0.4607  0.5099
 3573SOL     OW14023   2.788   3.583   2.811 -0.6570 -0.0061 -0.1723
 3573SOL    HW214024   2.787   3.534   2.893 -0.9503  0.0839 -0.1201
 3573SOL    HW314025   2.826   3.522   2.747 -1.5195 -0.5088 -0.2258
 3573SOL    MW414026   2.793   3.568   2.813  0.2946 -0.0734 -0.1926
 3574SOL     OW14027   3.143   3.995   4.950 -0.3190 -0.0890  0.9265
 3574SOL    HW214028   3.061   4.044   4.949  0.9892  2.2105 -0.0279
 3574SOL    HW314029   3.139   3.939   4.873 -1.2969 -0.5788  1.3206
 3574SOL    MW414030   3.132   3.994   4.940  0.4892  0.5039  0.4680
 3575SOL     OW14031   0.394   3.175   4.529  0.3025 -0.4947  0.5997
 3575SOL    HW214032   0.438   3.092   4.548 -1.8432 -2.2086 -1.4042
 3575SOL    HW314033   0.405   3.186   4.434 -0.6339  0.8124  0.6222
 3575SOL    MW414034   0.401   3.166   4.519 -0.2712 -0.3256  0.0521
 3576SOL     OW14035   3.698   0.581   4.401  0.3429  0.5344  0.0822
 3576SOL    HW214036   3.717   0.532   4.482 -1.2863 -0.1720  0.0934
 3576SOL    HW314037   3.662   0.515   4.342  1.7649  0.9858 -1.3632
 3576SOL    MW414038   3.696   0.566   4.404  0.1506 -0.7393  0.3006
 3577SOL     OW14039   6.336   5.939   3.147 -0.0843 -0.2038  0.3491
 3577SOL    HW214040   6.366   6.030   3.142  0.3961 -0.3416  0.6119
 3577SOL    HW314041   6.393   5.899   3.213  1.7808 -1.4907 -1.9002
 3577SOL    MW414042   6.348   5.946   3.155 -0.4051 -0.0605 -0.0933
 3578SOL     OW14043   2.642   4.393   5.007  0.1255  0.1494 -0.4807
 3578SOL    HW214044   2.548   4.384   5.026 -0.1662 -1.5439 -2.3987
 3578SOL    HW314045   2.666   4.477   5.047 -2.0940  0.4411  0.4191
 3578SOL    MW414046   2.633   4.403   5.015 -0.1513  0.2929  0.1463
 3579SOL     OW14047   4.802   4.968   3.174 -0.3669  0.3398 -0.9724
 3579SOL    HW214048   4.785   4.972   3.080 -1.8031 -0.6115 -0.7811
 3579SOL    HW314049   4.756   4.890   3.204 -0.4332  0.9513  0.6260
 3579SOL    MW414050   4.794   4.958   3.165 -0.5107 -0.2779  0.0087
 3580SOL     OW14051   2.541   2.251   1.551 -0.3193 -0.4464  0.4075
 3580SOL    HW214052   2.621   2.247   1.604  0.7957  0.7753 -1.0727
 3580SOL    HW314053   2.547   2.174   1.493  0.5367  0.3559 -0.6277
 3580SOL    MW414054   2.553   2.240   1.550  0.1566 -0.0761  0.3295
 3581SOL     OW14055   5.026   2.622   4.973  0.0259 -0.2523 -0.7032
 3581SOL    HW214056   5.093   2.634   4.905  0.4655 -0.6339 -0.3448
 3581SOL    HW314057   4.987   2.708   4.985  0.1589 -0.1155 -1.2163
 3581SOL    MW414058   5.029   2.635   4.965  0.0739  0.1191 -0.0967
 3582SOL     OW14059   3.572   3.202   4.476  0.0769 -0.2167 -0.1653
 3582SOL    HW214060   3.655   3.155   4.464 -0.3454 -0.3774 -3.0193
 3582SOL    HW314061   3.595   3.294   4.464  0.2471  0.0317  1.7322
 3582SOL    MW414062   3.586   3.208   4.473  0.0039 -0.3912 -0.0304
 3583SOL     OW14063   3.915   4.590   1.169  0.5700 -1.2757  0.1235
 3583SOL    HW214064   3.821   4.577   1.180  0.4659 -0.6789 -0.0492
 3583SOL    HW314065   3.944   4.629   1.252  0.6769 -1.5134  0.1992
 3583SOL    MW414066   3.907   4.594   1.181  0.4245 -0.1534 -0.1908
 3584SOL     OW14067   2.976   1.792   2.838  0.1424 -0.2434  0.0323
 3584SOL    HW214068   2.917   1.721   2.811 -0.5821  0.0391  0.8190
 3584SOL    HW314069   3.048   1.748   2.882 -0.0440 -0.5244  0.0596
 3584SOL    MW414070   2.978   1.777   2.840  0.1380 -0.8155  0.1676
 3585SOL     OW14071   6.116   0.976   1.652  0.3453  0.2672 -0.0195
 3585SOL    HW214072   6.179   0.960   1.582 -0.1983 -0.4474 -0.3730
 3585SOL    HW314073   6.096   0.888   1.686 -1.5419  0.2894 -0.9092
 3585SOL    MW414074   6.121   0.962   1.647 -0.0793  0.2555 -0.8799
 3586SOL     OW14075   0.798   3.400   4.521  0.2003  0.7348 -0.5771
 3586SOL    HW214076   0.801   3.305   4.530  0.1938  0.8166  0.3880
 3586SOL    HW314077   0.706   3.423   4.531  0.2539  0.8709 -0.3708
 3586SOL    MW414078   0.787   3.390   4.524  0.3847  0.3163  1.0274
 3587SOL     OW14079   6.109   2.758   1.358 -0.6518  0.3379  0.1572
 3587SOL    HW214080   6.112   2.682   1.416 -0.9699  0.4428  0.3137
 3587SOL    HW314081   6.066   2.826   1.410  0.0913  0.7841  0.2059
 3587SOL    MW414082   6.104   2.757   1.373 -0.2836  0.0255 -0.0557
 3588SOL     OW14083   4.620   5.803   4.622  0.4304  0.1015 -0.0925
 3588SOL    HW214084   4.582   5.730   4.575 -0.2045 -0.0550  0.6297
 3588SOL    HW314085   4.552   5.870   4.621  0.5607  0.2418  0.2532
 3588SOL    MW414086   4.606   5.802   4.616 -0.3067 -0.6663 -0.3712
 3589SOL     OW14087   4.389   0.412   5.517 -0.2659  0.2741 -0.1621
 3589SOL    HW214088   4.481   0.433   5.503  0.0814 -0.3964  1.0504
 3589SOL    HW314089   4.346   0.439   5.435  1.1870 -0.6173 -1.2676
 3589SOL    MW414090   4.395   0.419   5.504 -0.3071  0.1769  0.4815
 3590SOL     OW14091   5.312   0.006   1.300 -0.3874  0.5220  0.4163
 3590SOL    HW214092   5.393  -0.027   1.340 -0.1064  2.4057  1.4696
 3590SOL    HW314093   5.244  -0.014   1.364 -0.6420 -0.3080 -0.1002
 3590SOL    MW414094   5.314  -0.001   1.313 -0.4796 -0.4071 -0.0241
 3591SOL     OW14095   2.573   5.044   2.280  0.8049 -0.5723  0.0928
 3591SOL    HW214096   2.592   5.025   2.372 -0.7927 -0.6302  0.4506
 3591SOL    HW314097   2.604   5.133   2.266 -1.3881  0.5062  1.5213
 3591SOL    MW414098   2.579   5.053   2.290 -0.4337  1.0704  0.2830
 3592SOL     OW14099   3.872   2.873   0.823 -0.1981  0.5808 -0.7620
 3592SOL    HW214100   3.805   2.936   0.846 -0.3773  0.1768 -0.1590
 3592SOL    HW314101   3.906   2.904   0.739  0.6858  2.2542  0.1562
 3592SOL    MW414102   3.868   2.885   0.815 -0.5097 -0.5275  0.1863
 3593SOL     OW14103   3.253   5.560   3.890 -0.0983  0.0485 -0.1168
 3593SOL    HW214104   3.334   5.524   3.925 -0.6833  0.5206  1.8403
 3593SOL    HW314105   3.205   5.590   3.967 -2.1399 -0.2363 -1.2094
 3593SOL    MW414106   3.257   5.559   3.904 -0.0774  0.0263  0.0698
 3594SOL     OW14107   3.023   0.394   2.465 -0.0029  0.3258  0.0396
 3594SOL    HW214108   3.050   0.363   2.378  0.1997  0.3775  0.0821
 3594SOL    HW314109   3.106   0.417   2.508 -0.0961  0.2178  0.2772
 3594SOL    MW414110   3.038   0.393   2.459  0.1014 -0.0979 -0.5992
 3595SOL     OW14111   0.688   2.847   5.350 -0.0831 -0.5678  0.0382
 3595SOL    HW214112   0.723   2.901   5.279  1.3861 -2.0583 -0.4165
 3595SOL    HW314113   0.685   2.906   5.426  0.2759  0.4804 -0.7442
 3595SOL    MW414114   0.692   2.862   5.351 -0.0322 -0.2888 -0.4064
 3596SOL     OW14115   1.243   2.956   2.728  0.4148  0.0932  0.4678
 3596SOL    HW214116   1.150   2.954   2.708  0.7917 -1.2304 -1.4025
 3596SOL    HW314117   1.270   2.864   2.727  1.4127  0.2756  2.9094
 3596SOL    MW414118   1.234   2.944   2.725 -0.1548 -0.4978 -0.4974
 3597SOL     OW14119   0.216   3.819   5.764  0.0663 -0.2666 -0.4612
 3597SOL    HW214120   0.278   3.851   5.699 -0.7545  0.7655 -0.7683
 3597SOL    HW314121   0.266   3.814   5.845  0.4175  1.1754 -0.5651
 3597SOL    MW414122   0.230   3.822   5.766 -0.0501 -0.7113 -0.0956
 3598SOL     OW14123   3.256   4.537   4.959  0.0524 -0.3949 -0.3460
 3598SOL    HW214124   3.185   4.472   4.959  0.0933 -0.4536  0.4173
 3598SOL    HW314125   3.218   4.613   4.916 -0.6426 -0.2695  0.4505
 3598SOL    MW414126   3.241   4.538   4.954 -0.1195  0.1223  0.8398
 3599SOL     OW14127   1.213   0.021   5.004  0.4297 -0.1242  0.3045
 3599SOL    HW214128   1.234   0.032   5.097 -0.3861  1.6893  0.3161
 3599SOL    HW314129   1.135  -0.034   5.003  0.9707 -0.9104  0.6314
 3599SOL    MW414130   1.206   0.015   5.016  0.5359  0.1329  0.5178
 3600SOL     OW14131   0.421   6.107   4.401 -0.1336 -0.4073  0.6629
 3600SOL    HW214132   0.326   6.103   4.411 -0.1387  0.6134  1.1058
 3600SOL    HW314133   0.456   6.060   4.477 -0.2783 -1.1588  0.2738
 3600SOL    MW414134   0.413   6.100   4.412 -0.6022 -0.0005 -0.6962
 3601SOL     OW14135   3.173   5.365   0.283 -0.2894 -0.6359  0.8808
 3601SOL    HW214136   3.172   5.402   0.195  2.0847  2.4368  1.9724
 3601SOL    HW314137   3.263   5.334   0.294 -0.5218 -0.8801  2.2506
 3601SOL    MW414138   3.185   5.366   0.273 -0.3972 -0.6055 -0.4959
 3602SOL     OW14139   1.762   4.426   4.031 -0.3950 -0.9340 -0.2484
 3602SOL    HW214140   1.680   4.437   3.982 -0.3840 -0.5654 -0.1893
 3602SOL    HW314141   1.787   4.515   4.056 -0.4506 -1.1180  0.5077
 3602SOL    MW414142   1.754   4.439   4.028 -0.8259  0.4957 -0.1471
 3603SOL     OW14143   2.264   3.403   0.235  0.0808 -0.0266 -0.1645
 3603SOL    HW214144   2.224   3.468   0.177  2.5728  2.9076  1.1553
 3603SOL    HW314145   2.212   3.408   0.315  1.6452  2.2730  0.8084
 3603SOL    MW414146   2.252   3.412   0.238  0.2695 -0.4215 -0.1013
 3604SOL     OW14147   5.190   2.102   4.190  0.0888  0.1327 -0.2868
 3604SOL    HW214148   5.236   2.082   4.108  2.3620  1.0973  0.6721
 3604SOL    HW314149   5.145   2.020   4.213 -0.0289 -0.3625 -2.1021
 3604SOL    MW414150   5.190   2.088   4.182 -0.1356 -0.0183 -0.0150
 3605SOL     OW14151   2.708   4.971   5.393  0.4686  0.3642 -0.1630
 3605SOL    HW214152   2.723   5.053   5.344 -1.7727  0.3901 -0.9457
 3605SOL    HW314153   2.657   4.917   5.333 -1.7631  0.0864  1.8564
 3605SOL    MW414154   2.703   4.975   5.378  0.1200 -0.4656 -0.2247
 3606SOL     OW14155   2.126   3.278   3.335  0.5775  0.2678  0.0963
 3606SOL    HW214156   2.080   3.284   3.419 -0.1201  0.6765 -0.3075
 3606SOL    HW314157   2.207   3.327   3.348  0.4003  0.4620  0.4852
 3606SOL    MW414158   2.131   3.285   3.348  0.8983  0.9206 -0.0250
 3607SOL     OW14159   2.157   1.690   1.685  0.2832 -0.4904  0.2670
 3607SOL    HW214160   2.062   1.703   1.691  0.2033 -0.6786 -0.4667
 3607SOL    HW314161   2.182   1.734   1.604  0.5634 -1.8193 -0.3950
 3607SOL    MW414162   2.148   1.697   1.675 -0.5037  0.7634 -0.0602
 3608SOL     OW14163   4.498   4.695   1.511 -0.0196  0.1121  0.1592
 3608SOL    HW214164   4.431   4.653   1.565 -0.0776 -0.2756 -0.2099
 3608SOL    HW314165   4.488   4.788   1.529  1.4749 -0.0983  2.5886
 3608SOL    MW414166   4.488   4.702   1.521 -0.5972  0.2922  0.3724
 3609SOL     OW14167   4.625   4.774   3.291  0.2735  0.4383  0.0318
 3609SOL    HW214168   4.541   4.807   3.324 -0.8360 -0.9399 -1.2593
 3609SOL    HW314169   4.635   4.688   3.331  0.2275 -0.1072 -1.0814
 3609SOL    MW414170   4.615   4.767   3.301 -0.6475  0.5036  0.3373
 3610SOL     OW14171   0.046   1.051   1.638  0.0492 -0.0204  0.2729
 3610SOL    HW214172  -0.011   1.041   1.562  0.2614  0.6694  0.0148
 3610SOL    HW314173   0.111   0.981   1.630 -2.1949 -2.4536  1.9127
 3610SOL    MW414174   0.047   1.041   1.627  0.9126  0.1324  0.3825
 3611SOL     OW14175   4.998   5.370   5.637  0.1900 -0.1092  0.2621
 3611SOL    HW214176   5.065   5.319   5.591 -0.1468 -0.6629  0.3691
 3611SOL    HW314177   4.937   5.304   5.670 -0.0398  0.3431  0.7545
 3611SOL    MW414178   4.999   5.354   5.635  0.7581  0.0208  0.6338
 3612SOL     OW14179   6.274   3.322   6.357 -0.4180 -0.0155  0.2759
 3612SOL    HW214180   6.295   3.392   6.419  0.0783  0.9105 -0.9214
 3612SOL    HW314181   6.185   3.295   6.381 -0.6362  1.0491  0.7308
 3612SOL    MW414182   6.265   3.327   6.369  0.0431 -0.0143 -0.7319
 3613SOL     OW14183   3.001   5.605   5.929  0.3398 -0.1818 -0.0910
 3613SOL    HW214184   3.007   5.690   5.972  1.3536 -2.0077  3.7871
 3613SOL    HW314185   2.949   5.551   5.989  0.9560 -2.7017 -1.6575
 3613SOL    MW414186   2.995   5.609   5.943 -0.0817 -0.0284 -0.1574
 3614SOL     OW14187   3.303   1.487   2.687  0.2489  0.5719  0.0542
 3614SOL    HW214188   3.209   1.474   2.678  0.3157  0.1601 -0.0768
 3614SOL    HW314189   3.342   1.404   2.658  0.5888  0.2014  1.4668
 3614SOL    MW414190   3.296   1.474   2.682  0.1528 -0.1295 -0.1058
 3615SOL     OW14191   2.169   0.266   4.810  0.2912 -0.7174 -0.1158
 3615SOL    HW214192   2.198   0.298   4.725  0.9278  0.2738  0.4570
 3615SOL    HW314193   2.227   0.310   4.873 -0.8905 -0.5757  0.8953
 3615SOL    MW414194   2.181   0.276   4.807  0.2210  0.0927  0.5831
 3616SOL     OW14195   6.277   3.999   3.330  0.6057  1.1559  0.4227
 3616SOL    HW214196   6.293   4.067   3.265  0.4469 -0.0348 -0.9141
 3616SOL    HW314197   6.201   3.951   3.297 -0.3242  1.3550  2.1989
 3616SOL    MW414198   6.269   4.001   3.317 -0.8270  0.2003 -0.3354
 3617SOL     OW14199   2.718   2.843   1.337  0.0716  0.3970 -0.4621
 3617SOL    HW214200   2.783   2.811   1.399 -2.3920 -4.3692  0.1188
 3617SOL    HW314201   2.744   2.805   1.253 -0.4330  0.8521 -0.8318
 3617SOL    MW414202   2.730   2.834   1.334  0.0473 -0.2837 -0.4443
 3618SOL     OW14203   3.155   4.041   4.425 -0.0832 -0.1765  0.0747
 3618SOL    HW214204   3.171   4.008   4.337 -1.2181 -0.0611 -0.1794
 3618SOL    HW314205   3.098   3.976   4.465  0.6443 -0.3720  0.8339
 3618SOL    MW414206   3.150   4.028   4.419  0.0379 -0.3073 -0.0474
 3619SOL     OW14207   1.365   4.761   0.332 -0.6084  0.5343  0.3706
 3619SOL    HW214208   1.456   4.731   0.340 -0.8812 -0.1457  1.0625
 3619SOL    HW314209   1.370   4.837   0.275  0.3641  0.3336  0.1648
 3619SOL    MW414210   1.378   4.767   0.326 -0.0676 -0.3420  0.1991
 3620SOL     OW14211   0.098   2.075   1.229  0.0702  0.3886  0.1681
 3620SOL    HW214212   0.026   2.124   1.267 -0.5063 -0.2376 -0.0892
 3620SOL    HW314213   0.170   2.138   1.222 -0.3608  0.9411  0.6920
 3620SOL    MW414214   0.098   2.090   1.233 -0.0346 -0.2920 -0.0391
 3621SOL     OW14215   6.210   1.296   3.385 -0.3241 -0.0821  0.1256
 3621SOL    HW214216   6.273   1.342   3.329  0.3426 -0.8916  0.1901
 3621SOL    HW314217   6.150   1.364   3.414  0.0728  0.5777 -0.5501
 3621SOL    MW414218   6.211   1.311   3.381 -0.1257 -0.4999 -0.2193
 3622SOL     OW14219   0.963   4.898   3.419  0.5814  0.0573 -0.3557
 3622SOL    HW214220   0.916   4.815   3.408  1.0748 -0.1239 -1.2559
 3622SOL    HW314221   0.906   4.963   3.378  1.5078 -0.3133 -2.3717
 3622SOL    MW414222   0.949   4.895   3.412  0.7418 -0.1016  0.3851
 3623SOL     OW14223   1.939   2.599   0.870  0.4328  0.5379  0.2281
 3623SOL    HW214224   1.908   2.639   0.789  1.1788 -0.4832 -0.5853
 3623SOL    HW314225   1.906   2.656   0.939 -0.5326  1.2247 -0.7684
 3623SOL    MW414226   1.930   2.611   0.869 -0.3504  0.2641  0.1524
 3624SOL     OW14227   0.383   5.033   1.204 -0.0614  0.0425 -0.0043
 3624SOL    HW214228   0.446   5.104   1.191 -0.5720  0.7419  1.2033
 3624SOL    HW314229   0.410   4.965   1.142  0.9899  0.9169 -0.5299
 3624SOL    MW414230   0.395   5.034   1.194 -0.1458  0.3253 -0.2069
 3625SOL     OW14231   0.792   5.545   4.082  0.0773  0.0533 -0.0925
 3625SOL    HW214232   0.756   5.614   4.138  0.2345 -0.8770  1.1829
 3625SOL    HW314233   0.717   5.490   4.060 -0.4430  1.5787 -2.6757
 3625SOL    MW414234   0.777   5.547   4.086 -0.1733 -0.1035 -0.1601
 3626SOL     OW14235   4.823   0.557   0.100 -0.0524  0.0475  0.2076
 3626SOL    HW214236   4.893   0.532   0.160  0.4678 -1.2362 -0.9008
 3626SOL    HW314237   4.850   0.524   0.015 -0.5485  2.2153 -0.8851
 3626SOL    MW414238   4.836   0.550   0.096  0.4888  0.1537  0.1017
 3627SOL     OW14239   1.881   5.721   2.258  0.2617 -0.1935  0.4162
 3627SOL    HW214240   1.801   5.747   2.304 -0.0460 -1.1180  0.4192
 3627SOL    HW314241   1.861   5.735   2.165 -0.5088 -1.9507  0.2854
 3627SOL    MW414242   1.868   5.726   2.252  0.2273  0.2255  0.0386
 3628SOL     OW14243   0.855   4.638   3.397  0.2124  0.6916 -0.7315
 3628SOL    HW214244   0.776   4.657   3.447 -0.1688  1.3654 -1.5402
 3628SOL    HW314245   0.894   4.562   3.439 -1.7222 -0.6761 -1.2606
 3628SOL    MW414246   0.850   4.631   3.409 -0.5517  0.3878  0.1632
 3629SOL     OW14247   5.560   5.286   2.197 -0.1610 -0.6824 -0.1273
 3629SOL    HW214248   5.568   5.307   2.290 -0.6507 -1.4202  0.0832
 3629SOL    HW314249   5.515   5.362   2.159 -0.5951 -0.6882  0.3642
 3629SOL    MW414250   5.555   5.299   2.204 -0.3031  0.1961 -0.3492
 3630SOL     OW14251   2.084   3.276   1.658 -0.2292 -0.2369 -0.2422
 3630SOL    HW214252   2.073   3.371   1.649 -0.5601 -0.1629  0.7764
 3630SOL    HW314253   2.172   3.266   1.694 -0.9778 -0.1523  1.7389
 3630SOL    MW414254   2.094   3.287   1.662 -0.2237 -0.1393 -0.4550
 3631SOL     OW14255   3.658   5.025   1.371 -0.0410 -0.5012 -0.3784
 3631SOL    HW214256   3.698   5.062   1.292  2.5402 -2.6101 -0.1996
 3631SOL    HW314257   3.731   4.984   1.418 -1.9134 -1.5359  1.8334
 3631SOL    MW414258   3.673   5.025   1.367 -0.4913 -0.1271  1.0732
 3632SOL     OW14259   4.793   3.542   2.947  0.6088 -0.4157  0.2852
 3632SOL    HW214260   4.742   3.566   2.870  0.6097 -1.7413 -0.1507
 3632SOL    HW314261   4.728   3.526   3.015  0.4808 -1.1625 -0.0018
 3632SOL    MW414262   4.778   3.543   2.946  0.4929  0.2186  0.6127
 3633SOL     OW14263   0.716   0.487   0.617 -0.7826  0.4603 -0.0519
 3633SOL    HW214264   0.653   0.470   0.686 -0.4502  0.0551  0.1512
 3633SOL    HW314265   0.762   0.404   0.604  0.3070  0.9680  0.4041
 3633SOL    MW414266   0.714   0.474   0.624  0.1891  0.3307  0.7034
 3634SOL     OW14267   4.145   6.010   5.903  0.1342 -0.8821 -0.4633
 3634SOL    HW214268   4.161   5.926   5.946 -4.5060 -2.2649 -0.9050
 3634SOL    HW314269   4.099   6.062   5.969 -1.0921 -0.4663 -1.6023
 3634SOL    MW414270   4.141   6.006   5.918  0.1729  0.1332 -0.3910
 3635SOL     OW14271   0.425   5.207   1.570  0.4018 -0.8022 -0.0952
 3635SOL    HW214272   0.468   5.125   1.545  1.9603 -0.3060  0.7926
 3635SOL    HW314273   0.481   5.243   1.639 -0.4822  0.8016 -0.1718
 3635SOL    MW414274   0.438   5.201   1.576  0.3734  0.9597 -0.1598
 3636SOL     OW14275   0.675   2.265   2.880 -0.2128  0.0141 -0.2356
 3636SOL    HW214276   0.613   2.239   2.948  0.2768 -0.6939 -0.0433
 3636SOL    HW314277   0.720   2.183   2.856 -0.5668  0.1999 -1.6140
 3636SOL    MW414278   0.673   2.250   2.886 -0.1033  0.4629  0.5172
 3637SOL     OW14279   1.069   6.203   1.859 -0.1595  0.3444  0.7430
 3637SOL    HW214280   1.069   6.292   1.894 -0.3900  0.8654 -0.5096
 3637SOL    HW314281   1.020   6.210   1.777  1.9765 -0.3764 -0.6908
 3637SOL    MW414282   1.062   6.216   1.853 -0.0001  0.1274  0.3297
 3638SOL     OW14283   5.730   4.907   1.292 -0.2246  0.0839  0.1411
 3638SOL    HW214284   5.790   4.841   1.327  3.7701  2.1050 -2.1674
 3638SOL    HW314285   5.750   4.910   1.199 -4.4885  0.5998 -0.9422
 3638SOL    MW414286   5.741   4.899   1.284 -0.2931 -0.0912 -0.5874
 3639SOL     OW14287   5.511   0.370   5.182  0.1208  0.3901  0.2818
 3639SOL    HW214288   5.505   0.410   5.095 -2.2934  0.4774  0.4306
 3639SOL    HW314289   5.602   0.384   5.209  0.2672  2.6084 -1.1551
 3639SOL    MW414290   5.522   0.377   5.174  0.0569 -0.1420 -0.3265
 3640SOL     OW14291   4.619   5.971   4.174  0.1279 -0.8308  0.3440
 3640SOL    HW214292   4.634   5.902   4.110  1.0963  0.8863 -1.3677
 3640SOL    HW314293   4.703   5.978   4.221  0.5887  0.2538 -0.6084
 3640SOL    MW414294   4.632   5.963   4.172  0.4231 -0.1164 -0.0589
 3641SOL     OW14295   4.068   6.358   5.713  0.4758 -0.5162  0.1437
 3641SOL    HW214296   4.121   6.278   5.713 -0.5917 -1.2447 -0.0040
 3641SOL    HW314297   3.979   6.327   5.701  0.2149  0.8245 -1.8498
 3641SOL    MW414298   4.064   6.344   5.711  0.0677 -0.2229  0.4577
 3642SOL     OW14299   4.230   3.282   5.350  0.4900 -0.3448 -0.9309
 3642SOL    HW214300   4.266   3.354   5.401 -1.0643  1.2316 -1.9078
 3642SOL    HW314301   4.252   3.304   5.259 -0.4730 -0.7918 -1.2904
 3642SOL    MW414302   4.238   3.295   5.344  0.8928  0.3486  0.2581
 3643SOL     OW14303   5.768   0.338   3.471 -0.1839  0.1234 -0.0621
 3643SOL    HW214304   5.861   0.339   3.494 -0.0572 -2.0679 -0.2486
 3643SOL    HW314305   5.753   0.421   3.425  1.7628  0.3381 -0.3720
 3643SOL    MW414306   5.778   0.349   3.468 -0.3938 -0.0885  0.1054
 3644SOL     OW14307   3.253   5.264   0.661  0.0343  0.6326  0.4104
 3644SOL    HW214308   3.273   5.358   0.662 -1.0044  0.8611  0.6571
 3644SOL    HW314309   3.166   5.258   0.621 -0.2399 -0.1533  1.0945
 3644SOL    MW414310   3.244   5.276   0.656  0.1084 -0.3600  0.4218
 3645SOL     OW14311   0.041   1.238   3.847 -0.2252  0.5415 -0.3261
 3645SOL    HW214312   0.127   1.197   3.854  0.9841  2.6472 -1.6694
 3645SOL    HW314313   0.005   1.206   3.765 -1.7243 -1.9045  1.1533
 3645SOL    MW414314   0.048   1.229   3.837  0.2672  0.1049  0.2113
 3646SOL     OW14315   2.836   0.542   1.594 -0.3844 -0.1767 -0.5233
 3646SOL    HW214316   2.900   0.494   1.647 -1.2756  1.1621  1.9797
 3646SOL    HW314317   2.879   0.625   1.573 -1.1834  0.7327  1.1778
 3646SOL    MW414318   2.850   0.547   1.598  0.1168 -0.0293 -0.1189
 3647SOL     OW14319   2.848   5.513   0.932  0.1435  0.4037 -0.1915
 3647SOL    HW214320   2.874   5.476   1.017 -0.6001 -0.2127 -0.2252
 3647SOL    HW314321   2.848   5.439   0.872  2.4055  1.1021 -1.1932
 3647SOL    MW414322   2.852   5.499   0.935 -0.3166 -0.0918 -0.4268
 3648SOL     OW14323   3.476   2.076   3.003 -0.2495  0.7227 -0.3302
 3648SOL    HW214324   3.570   2.080   2.985 -0.4136  1.2157 -1.1712
 3648SOL    HW314325   3.469   2.028   3.085  0.8891  2.6576  0.9858
 3648SOL    MW414326   3.488   2.070   3.011 -0.7718  0.3006 -0.5764
 3649SOL     OW14327   0.764   0.280   1.718 -0.2869 -0.4826 -0.5668
 3649SOL    HW214328   0.846   0.291   1.671  0.5658 -1.0428  0.7255
 3649SOL    HW314329   0.696   0.295   1.652  0.8418 -0.1923 -1.7021
 3649SOL    MW414330   0.766   0.284   1.703 -0.2968 -0.1934  0.7831
 3650SOL     OW14331   3.984   1.231   6.243  0.1191  0.0622 -0.0169
 3650SOL    HW214332   4.017   1.285   6.316 -1.8085  1.9543 -0.4572
 3650SOL    HW314333   4.063   1.197   6.201  1.4272  2.0639  0.6704
 3650SOL    MW414334   3.999   1.234   6.247 -0.0923 -0.2489 -0.2511
 3651SOL     OW14335   0.824   5.609   0.463 -0.3709  0.2698  0.0014
 3651SOL    HW214336   0.895   5.627   0.401  0.1584 -0.3185  0.4280
 3651SOL    HW314337   0.832   5.676   0.530  0.2312 -0.2177  0.4250
 3651SOL    MW414338   0.834   5.620   0.464 -0.4154  0.2092 -0.5370
 3652SOL     OW14339   5.559   4.268   5.413 -0.1149 -0.5435 -0.9350
 3652SOL    HW214340   5.496   4.270   5.341  0.0520  1.3189 -1.0795
 3652SOL    HW314341   5.644   4.283   5.370 -0.1786  2.3444 -0.2845
 3652SOL    MW414342   5.562   4.271   5.398  0.6154  0.1046  0.6841
 3653SOL     OW14343   5.556   5.817   1.513  0.1277  0.3180 -0.6379
 3653SOL    HW214344   5.529   5.838   1.423 -3.1796 -1.1597 -0.1301
 3653SOL    HW314345   5.569   5.902   1.555  0.6612  1.0495 -2.2128
 3653SOL    MW414346   5.554   5.831   1.506  0.3716 -0.4695  0.1834
 3654SOL     OW14347   0.212   2.507   5.692  0.0186  0.5254  0.4137
 3654SOL    HW214348   0.161   2.515   5.611 -3.1706 -0.3020  2.1611
 3654SOL    HW314349   0.285   2.568   5.681 -1.1129  1.5262 -2.4574
 3654SOL    MW414350   0.215   2.516   5.680  0.3728  0.4389 -0.1478
 3655SOL     OW14351   3.203   4.030   4.155 -0.2145  0.5243 -0.0283
 3655SOL    HW214352   3.147   4.104   4.132 -0.6504  0.8904  2.0345
 3655SOL    HW314353   3.288   4.070   4.172 -0.2243  0.4367  0.2258
 3655SOL    MW414354   3.207   4.045   4.154 -0.4509 -0.0646  0.4098
 3656SOL     OW14355   2.723   6.272   4.960  0.4115 -0.0688  0.1037
 3656SOL    HW214356   2.716   6.243   5.051 -1.9431  1.6879  0.5669
 3656SOL    HW314357   2.805   6.321   4.957  0.1762  0.4492  1.4583
 3656SOL    MW414358   2.733   6.274   4.972  0.0180 -0.0479 -0.1098
 3657SOL     OW14359   2.353   1.613   4.305 -0.0636 -0.5812 -0.4531
 3657SOL    HW214360   2.395   1.556   4.369  0.5602 -0.3057 -0.6043
 3657SOL    HW314361   2.290   1.664   4.355 -2.2517 -2.9089 -0.6507
 3657SOL    MW414362   2.350   1.612   4.320 -0.0789  0.0275  0.0529
 3658SOL     OW14363   4.233   4.736   1.152 -0.1939 -0.1258 -0.0394
 3658SOL    HW214364   4.186   4.806   1.197  1.1005  0.7329  0.0493
 3658SOL    HW314365   4.192   4.655   1.182 -0.3512  0.5018  1.5270
 3658SOL    MW414366   4.222   4.734   1.162  0.1560 -0.0426 -0.2275
 3659SOL     OW14367   1.089   6.112   0.356  0.0966 -0.0989  0.0235
 3659SOL    HW214368   1.122   6.199   0.335  0.1283 -0.0197  0.3938
 3659SOL    HW314369   1.167   6.064   0.385  0.0832 -0.2562 -0.2000
 3659SOL    MW414370   1.104   6.117   0.357 -0.1816 -0.2691 -0.6785
 3660SOL     OW14371   3.749   3.541   3.517  0.1284  0.1000 -0.0012
 3660SOL    HW214372   3.695   3.485   3.461 -0.1806  0.6945 -0.3090
 3660SOL    HW314373   3.807   3.481   3.563 -2.1643 -0.8358  1.9451
 3660SOL    MW414374   3.749   3.526   3.516 -0.0412 -0.0996  0.4773
 3661SOL     OW14375   1.111   5.584   6.416 -0.2219  0.1352  0.6717
 3661SOL    HW214376   1.132   5.675   6.434  1.4361 -0.3242  1.2377
 3661SOL    HW314377   1.080   5.548   6.499  0.5463 -0.1811  0.8275
 3661SOL    MW414378   1.110   5.591   6.429 -0.3958 -0.6272 -0.5338
 3662SOL     OW14379   0.940   0.196   0.351 -0.1654 -0.3348 -0.7123
 3662SOL    HW214380   0.884   0.271   0.328 -0.0219 -0.2530 -0.7966
 3662SOL    HW314381   1.029   0.226   0.331  0.2856  0.7082  2.2950
 3662SOL    MW414382   0.945   0.210   0.346 -0.1195 -0.2559  1.1048
 3663SOL     OW14383   5.636   5.397   2.451  0.0669  0.2637  0.3057
 3663SOL    HW214384   5.550   5.434   2.473 -1.8034 -3.5224  0.1903
 3663SOL    HW314385   5.673   5.372   2.536 -0.6921 -1.4286  0.1775
 3663SOL    MW414386   5.630   5.399   2.465 -0.2136 -0.5003 -0.3333
 3664SOL     OW14387   4.251   4.168   5.767  0.3625  0.2594  0.2893
 3664SOL    HW214388   4.223   4.183   5.677 -0.5646 -1.3437  0.2679
 3664SOL    HW314389   4.331   4.117   5.759 -0.5173 -1.1965  0.3248
 3664SOL    MW414390   4.258   4.163   5.754 -1.2244  0.9518 -0.5634
 3665SOL     OW14391   6.435   2.757   3.320  0.2331 -0.0947 -0.2677
 3665SOL    HW214392   6.386   2.840   3.319  0.9506  0.4438  2.0891
 3665SOL    HW314393   6.523   2.782   3.345  0.1516 -1.6691  1.8236
 3665SOL    MW414394   6.440   2.772   3.323  0.3609 -0.6371 -0.4344
 3666SOL     OW14395   3.966   1.553   3.743  0.1417  0.0132  0.2207
 3666SOL    HW214396   3.919   1.526   3.664  1.6394 -1.4286 -0.2295
 3666SOL    HW314397   3.897   1.574   3.806 -1.0794  0.0012 -1.0623
 3666SOL    MW414398   3.951   1.552   3.741  0.0550  0.5454  0.2578
 3667SOL     OW14399   1.046   5.371   5.305 -0.4347 -0.0325  0.0595
 3667SOL    HW214400   0.966   5.382   5.357 -0.5304 -0.4262 -0.0008
 3667SOL    HW314401   1.046   5.446   5.246 -0.9885 -0.2571 -0.2342
 3667SOL    MW414402   1.035   5.382   5.304 -0.2413 -0.8298  0.6213
 3668SOL     OW14403   6.159   6.279   0.458 -0.7056 -0.2583 -0.2381
 3668SOL    HW214404   6.107   6.360   0.462 -0.7124 -0.3194  2.1751
 3668SOL    HW314405   6.170   6.254   0.549  1.3765 -1.6789 -0.8352
 3668SOL    MW414406   6.153   6.287   0.470  0.3085  0.1206 -0.0389
 3669SOL     OW14407   4.468   2.195   4.324 -0.6812  0.0191 -1.0239
 3669SOL    HW214408   4.413   2.268   4.350 -0.4950  0.2206 -1.1987
 3669SOL    HW314409   4.554   2.214   4.360 -1.1377 -1.1818  0.8358
 3669SOL    MW414410   4.472   2.207   4.332  0.1421  0.2857 -0.4872
 3670SOL     OW14411   1.605   4.947   4.053  0.0265 -0.2243 -0.5003
 3670SOL    HW214412   1.568   5.019   4.105  0.0707  0.9662 -2.0356
 3670SOL    HW314413   1.641   4.990   3.975 -1.5005 -2.0507 -2.3431
 3670SOL    MW414414   1.605   4.962   4.049  0.0791  0.4258  0.3957
 3671SOL     OW14415   1.529   1.913   5.448 -0.0972  0.0866 -0.3714
 3671SOL    HW214416   1.561   1.872   5.367 -0.1791  0.7129 -0.7326
 3671SOL    HW314417   1.606   1.916   5.505  0.5509  1.6369 -1.2550
 3671SOL    MW414418   1.543   1.908   5.445  0.1499 -0.0438 -0.6261
 3672SOL     OW14419   4.066   5.648   0.439 -0.6390  0.3459  0.3838
 3672SOL    HW214420   4.003   5.673   0.507 -1.8296  0.4347 -0.7025
 3672SOL    HW314421   4.063   5.552   0.437 -2.1686  0.3572 -0.8639
 3672SOL    MW414422   4.057   5.639   0.447  0.0945 -0.2986  0.3901
 3673SOL     OW14423   1.054   1.394   3.318  0.4151 -0.2682  0.5318
 3673SOL    HW214424   1.103   1.472   3.343  2.4642 -1.2793 -0.0671
 3673SOL    HW314425   1.099   1.323   3.364 -0.1473 -1.3111 -0.4963
 3673SOL    MW414426   1.067   1.395   3.328  0.0500  0.2733 -0.2153
 3674SOL     OW14427   5.068   5.916   4.674  0.0750 -0.2987 -0.5099
 3674SOL    HW214428   5.035   5.858   4.606  0.3030  0.4945 -1.3035
 3674SOL    HW314429   5.159   5.933   4.650  1.4261 -2.9597  1.9650
 3674SOL    MW414430   5.076   5.911   4.662  0.4402 -0.4216 -0.4854
 3675SOL     OW14431   4.174   2.340   0.137 -0.1575 -0.3414 -0.1371
 3675SOL    HW214432   4.175   2.277   0.209 -1.9100 -0.2868 -0.0360
 3675SOL    HW314433   4.083   2.368   0.130  0.2735  0.8978 -1.3108
 3675SOL    MW414434   4.162   2.335   0.145  0.2195 -0.0534 -0.1453
 3676SOL     OW14435   3.782   2.936   2.839 -0.0495 -0.3172 -0.3933
 3676SOL    HW214436   3.827   2.854   2.860 -0.8334 -1.2357 -2.0484
 3676SOL    HW314437   3.825   2.967   2.759 -0.6884  0.1304 -0.5686
 3676SOL    MW414438   3.794   2.929   2.831  0.6932  0.0058 -0.2097
 3677SOL     OW14439   3.777   3.482   5.435 -0.3663  0.0534 -0.5693
 3677SOL    HW214440   3.700   3.498   5.490 -0.2897  1.3883 -0.8091
 3677SOL    HW314441   3.837   3.554   5.458 -0.3914  0.7361 -2.4884
 3677SOL    MW414442   3.775   3.494   5.445 -0.0026 -0.0612 -0.0412
 3678SOL     OW14443   2.639   5.240   6.391 -0.6523  0.2289 -0.0574
 3678SOL    HW214444   2.664   5.221   6.301 -0.6372  0.8153 -0.1766
 3678SOL    HW314445   2.552   5.200   6.401  0.7513 -2.9513  0.7327
 3678SOL    MW414446   2.631   5.232   6.381  0.2570  0.1324 -0.2283
 3679SOL     OW14447   6.089   0.694   2.408 -0.3289  0.6102  0.0292
 3679SOL    HW214448   6.004   0.724   2.378  0.3434  0.7985 -1.8104
 3679SOL    HW314449   6.085   0.598   2.402  0.0227  0.6680 -1.3930
 3679SOL    MW414450   6.077   0.685   2.404 -0.1753  0.2213 -0.0123
 3680SOL     OW14451   1.216   4.452   2.696  0.3076 -0.4124 -0.0439
 3680SOL    HW214452   1.164   4.372   2.688  0.3794 -0.4380 -0.2606
 3680SOL    HW314453   1.200   4.482   2.786 -1.4447  0.5274 -0.6209
 3680SOL    MW414454   1.207   4.445   2.707  0.3815  0.3566  0.2332
 3681SOL     OW14455   3.399   0.175   4.405  0.1370 -0.2761  0.1158
 3681SOL    HW214456   3.305   0.175   4.427 -0.5067 -0.3388 -2.3453
 3681SOL    HW314457   3.436   0.245   4.460 -1.7852  1.2750 -0.4266
 3681SOL    MW414458   3.391   0.185   4.415 -0.3533  0.1876 -0.3480
 3682SOL     OW14459   1.070   3.377   4.091 -0.1470 -0.3013 -0.3543
 3682SOL    HW214460   0.978   3.391   4.114 -0.4615 -1.2269 -0.9805
 3682SOL    HW314461   1.067   3.322   4.012  0.9440 -2.2312  0.8714
 3682SOL    MW414462   1.057   3.372   4.083 -0.2428  0.3009 -0.5344
 3683SOL     OW14463   1.362   3.307   1.345  0.0335 -0.1420  0.1716
 3683SOL    HW214464   1.317   3.388   1.368 -0.0241 -0.3982  0.9900
 3683SOL    HW314465   1.431   3.298   1.411  0.8825 -0.0970 -0.6688
 3683SOL    MW414466   1.365   3.316   1.356 -0.3075  0.1750 -1.0657
 3684SOL     OW14467   0.432   0.232   3.943  0.3241 -0.4162 -0.3517
 3684SOL    HW214468   0.424   0.231   3.847  1.3384 -0.0851 -0.4481
 3684SOL    HW314469   0.398   0.146   3.970 -2.9032  0.5825 -0.7251
 3684SOL    MW414470   0.426   0.220   3.934  0.0785 -0.3756  0.0679
 3685SOL     OW14471   5.648   1.030   0.961 -0.3837  0.0907 -0.1782
 3685SOL    HW214472   5.697   1.027   0.879 -1.1289  2.2790 -0.7806
 3685SOL    HW314473   5.669   1.116   0.998 -1.7691  0.0357  0.8220
 3685SOL    MW414474   5.657   1.041   0.955 -0.1065 -0.3369  0.1232
 3686SOL     OW14475   4.887   5.731   3.377  0.2247 -0.2392 -0.1200
 3686SOL    HW214476   4.862   5.753   3.467 -1.2014  1.4873 -0.8562
 3686SOL    HW314477   4.890   5.636   3.375  1.4127 -0.3092  2.0130
 3686SOL    MW414478   4.884   5.722   3.389  0.1796  0.2446 -0.9121
 3687SOL     OW14479   4.976   4.120   4.340  0.2319  0.6464  0.1152
 3687SOL    HW214480   4.981   4.115   4.244 -0.2277  0.4250  0.0993
 3687SOL    HW314481   4.953   4.032   4.368 -1.3608  1.0921  0.3013
 3687SOL    MW414482   4.974   4.108   4.331  0.2290 -0.1416  0.4263
 3688SOL     OW14483   4.375   0.917   0.266 -0.3372 -0.2257 -0.0104
 3688SOL    HW214484   4.451   0.951   0.314  1.3572 -0.0881 -2.6134
 3688SOL    HW314485   4.312   0.893   0.335  1.9090 -0.0575  2.2435
 3688SOL    MW414486   4.376   0.919   0.282 -0.0236 -0.6691 -0.2719
 3689SOL     OW14487   5.252   3.861   1.098 -0.3122 -0.1088  0.0653
 3689SOL    HW214488   5.339   3.839   1.066 -1.9303 -2.1392 -3.5256
 3689SOL    HW314489   5.238   3.802   1.172  0.6856 -1.1017 -0.5145
 3689SOL    MW414490   5.261   3.850   1.104 -0.4157  0.4803  0.2255
 3690SOL     OW14491   5.400   4.200   6.285  0.3854 -0.4413  1.0101
 3690SOL    HW214492   5.317   4.230   6.321  0.2107 -0.7328  0.8529
 3690SOL    HW314493   5.379   4.118   6.241  0.7800 -0.5881  1.0876
 3690SOL    MW414494   5.386   4.193   6.284  0.4634 -0.3402  0.5178
 3691SOL     OW14495   0.111   5.051   2.745 -0.2826 -0.3141 -0.1257
 3691SOL    HW214496   0.068   5.077   2.664  1.6867 -0.8640 -1.4202
 3691SOL    HW314497   0.098   4.956   2.750 -1.2113 -0.1666  0.7519
 3691SOL    MW414498   0.103   5.042   2.735  0.0384 -0.4342 -0.3896
 3692SOL     OW14499   5.883   3.497   1.039  0.3485 -0.6633 -0.1293
 3692SOL    HW214500   5.807   3.534   0.995 -0.2666 -2.7943 -0.9706
 3692SOL    HW314501   5.916   3.430   0.979  1.5020 -1.3655  1.2189
 3692SOL    MW414502   5.877   3.493   1.025  0.5922 -0.3463 -0.5892
 3693SOL     OW14503   0.910   3.527   5.338  0.3515  0.3452 -0.2095
 3693SOL    HW214504   0.863   3.526   5.255 -0.6560  0.7699  0.3458
 3693SOL    HW314505   0.952   3.613   5.342 -0.1648  0.5927  0.0194
 3693SOL    MW414506   0.909   3.538   5.328  0.3962 -0.0340  0.3786
 3694SOL     OW14507   4.062   3.315   2.165 -0.1638 -0.3483 -0.1987
 3694SOL    HW214508   3.995   3.269   2.217  1.1047 -0.5112  1.3687
 3694SOL    HW314509   4.102   3.375   2.227  1.4808 -0.6029 -0.9739
 3694SOL    MW414510   4.058   3.317   2.180  0.0105 -0.0779 -0.9831
 3695SOL     OW14511   2.969   3.546   2.019 -0.2884 -0.1726  0.8061
 3695SOL    HW214512   3.054   3.522   1.981 -0.6807 -0.9299  0.3897
 3695SOL    HW314513   2.972   3.513   2.108 -0.2453 -0.4452  0.7050
 3695SOL    MW414514   2.981   3.539   2.025  0.0709 -0.6817  0.1701
 3696SOL     OW14515   4.739   4.831   1.280 -0.4826 -0.2839  0.0935
 3696SOL    HW214516   4.819   4.855   1.234  0.1868 -2.4968 -0.0201
 3696SOL    HW314517   4.762   4.751   1.327 -1.1967  1.5282  4.0497
 3696SOL    MW414518   4.753   4.824   1.280 -0.5871  0.7770  0.1995
 3697SOL     OW14519   2.368   0.620   0.409 -1.0653 -0.7233 -0.1686
 3697SOL    HW214520   2.346   0.714   0.409 -1.6303 -0.8176  1.9160
 3697SOL    HW314521   2.453   0.615   0.454 -0.3473 -1.1119 -1.5098
 3697SOL    MW414522   2.377   0.632   0.415  0.1845  0.2074  0.3315
 3698SOL     OW14523   3.679   1.491   4.310 -0.8290 -0.3900 -0.1792
 3698SOL    HW214524   3.631   1.568   4.342 -1.4950 -1.1443  0.6747
 3698SOL    HW314525   3.611   1.434   4.274 -0.3551 -0.6614 -0.6494
 3698SOL    MW414526   3.664   1.494   4.309  0.8003  0.4633 -0.0510
 3699SOL     OW14527   3.857   2.953   2.383  0.0033 -0.2197  0.6065
 3699SOL    HW214528   3.784   2.896   2.361  0.2172 -0.2178 -0.1378
 3699SOL    HW314529   3.911   2.902   2.442 -0.6185 -0.2050  1.2007
 3699SOL    MW414530   3.854   2.939   2.388  1.0438  0.1450  0.1242
 3700SOL     OW14531   5.494   2.409   4.430 -0.3099 -0.5319 -0.0718
 3700SOL    HW214532   5.476   2.319   4.404 -1.0770  0.2928 -2.6689
 3700SOL    HW314533   5.589   2.413   4.440 -0.3620 -1.8897  1.3461
 3700SOL    MW414534   5.504   2.398   4.428 -0.6135  0.3220 -0.3142
 3701SOL     OW14535   0.483   4.242   0.673  0.0960 -0.1730 -0.7176
 3701SOL    HW214536   0.438   4.188   0.609  1.3385 -1.8044 -0.2857
 3701SOL    HW314537   0.438   4.226   0.755 -0.6731  0.8974 -0.9139
 3701SOL    MW414538   0.471   4.233   0.675  0.0002  0.4377 -0.4188
 3702SOL     OW14539   6.261   5.354   1.695 -0.4732  0.0133  0.3384
 3702SOL    HW214540   6.251   5.361   1.600  2.2945  2.0664  0.0591
 3702SOL    HW314541   6.172   5.341   1.728 -1.7318  0.9518 -2.3956
 3702SOL    MW414542   6.248   5.353   1.687  0.1434 -0.3210 -0.3053
 3703SOL     OW14543   3.608   5.457   1.958 -0.2656 -0.8823  0.8335
 3703SOL    HW214544   3.596   5.448   2.052 -0.7456 -0.6611  0.7963
 3703SOL    HW314545   3.625   5.550   1.945 -0.1496 -0.9213  0.7062
 3703SOL    MW414546   3.608   5.468   1.969  0.2590  0.4881 -0.1098
 3704SOL     OW14547   5.286   3.408   4.616  0.6933 -0.5959 -0.5650
 3704SOL    HW214548   5.210   3.372   4.571 -0.2822  0.9628 -0.2296
 3704SOL    HW314549   5.279   3.503   4.604  1.5824 -0.2869  1.0377
 3704SOL    MW414550   5.275   3.416   4.608 -0.0336 -0.2995 -0.4653
 3705SOL     OW14551   4.260   6.175   4.718 -0.1321  0.1937  0.0226
 3705SOL    HW214552   4.231   6.247   4.663  0.0732  0.6136  0.4524
 3705SOL    HW314553   4.316   6.216   4.784 -0.4098 -0.2863  0.5707
 3705SOL    MW414554   4.263   6.190   4.720 -0.2264  0.1397 -0.6529
 3706SOL     OW14555   1.623   4.353   0.283 -0.1088 -0.5945  0.4314
 3706SOL    HW214556   1.698   4.342   0.224 -0.1552 -0.6633  0.3859
 3706SOL    HW314557   1.551   4.308   0.239 -0.4599  0.4044 -0.0575
 3706SOL    MW414558   1.623   4.346   0.269  0.6518  0.8706  0.2433
 3707SOL     OW14559   5.373   5.094   2.130 -0.1602 -0.3852 -0.4610
 3707SOL    HW214560   5.445   5.154   2.152  0.8579 -1.8555  0.4057
 3707SOL    HW314561   5.319   5.144   2.069  2.0195  0.5001 -1.7982
 3707SOL    MW414562   5.375   5.109   2.125  0.1867 -0.4182  0.1578
 3708SOL     OW14563   1.081   1.967   2.012 -0.1447 -0.1904  0.6321
 3708SOL    HW214564   1.110   1.878   2.030 -1.4142 -1.4333 -2.6734
 3708SOL    HW314565   1.158   2.011   1.977  0.1392 -0.4494  0.9242
 3708SOL    MW414566   1.095   1.961   2.010  0.4182 -0.2775  0.0744
 3709SOL     OW14567   4.476   5.128   4.128 -0.4178 -0.0685 -0.4238
 3709SOL    HW214568   4.475   5.106   4.035 -0.1788 -0.4282 -0.3462
 3709SOL    HW314569   4.390   5.101   4.161 -0.8074  0.8214 -0.7083
 3709SOL    MW414570   4.465   5.121   4.120 -0.1357  0.0604 -0.1477
 3710SOL     OW14571   1.735   1.522   5.810  0.0688  0.4909 -0.1758
 3710SOL    HW214572   1.709   1.470   5.886  2.5975 -0.0682  0.3935
 3710SOL    HW314573   1.732   1.461   5.737  1.5866 -0.1223  0.2339
 3710SOL    MW414574   1.731   1.507   5.810  0.4952 -0.3626 -0.0874
 3711SOL     OW14575   0.341   2.495   2.294  0.1846 -0.3190 -0.4113
 3711SOL    HW214576   0.289   2.476   2.216  0.2063  2.1532 -1.1093
 3711SOL    HW314577   0.417   2.437   2.287 -1.4474 -2.5858 -0.3852
 3711SOL    MW414578   0.344   2.485   2.283  0.4228 -0.2799  0.6788
 3712SOL     OW14579   1.108   4.190   4.949  0.3929 -0.1695  0.2326
 3712SOL    HW214580   1.046   4.142   5.005 -0.8469  0.9825 -0.1227
 3712SOL    HW314581   1.136   4.125   4.884 -1.9712 -0.2382 -0.8142
 3712SOL    MW414582   1.104   4.175   4.948  0.0200 -0.5808  0.0640
 3713SOL     OW14583   0.751   5.217   0.204 -0.0148 -0.1150 -0.5767
 3713SOL    HW214584   0.670   5.166   0.196  0.0214 -0.0876 -1.2402
 3713SOL    HW314585   0.725   5.307   0.185 -0.2179  0.2674  1.3261
 3713SOL    MW414586   0.737   5.222   0.200  0.6468  0.2819  0.0605
 3714SOL     OW14587   2.555   0.581   1.254 -0.6133 -0.1000 -0.1143
 3714SOL    HW214588   2.542   0.624   1.338 -0.2399  0.4988 -0.3522
 3714SOL    HW314589   2.480   0.607   1.201 -0.2112  0.5554 -0.3719
 3714SOL    MW414590   2.544   0.590   1.258 -0.3556  0.1901  0.1958
 3715SOL     OW14591   3.454   1.786   1.139  0.1585  0.3281 -0.6174
 3715SOL    HW214592   3.468   1.878   1.114  0.5441  0.4293 -0.0426
 3715SOL    HW314593   3.415   1.791   1.226 -0.8039 -0.0354 -1.0112
 3715SOL    MW414594   3.451   1.799   1.147  0.5992 -0.1986  0.6120
 3716SOL     OW14595   6.150   6.298   4.649 -0.4184  0.0098 -0.2079
 3716SOL    HW214596   6.179   6.331   4.564  0.1621  1.1080  0.3884
 3716SOL    HW314597   6.229   6.301   4.704 -1.2156  1.3268  0.9378
 3716SOL    MW414598   6.165   6.303   4.645  0.0945  0.1597 -0.2859
 3717SOL     OW14599   4.447   4.953   1.587 -0.0151 -0.0430 -0.1141
 3717SOL    HW214600   4.490   5.038   1.581 -1.5827  0.7387 -1.0273
 3717SOL    HW314601   4.423   4.943   1.679  0.6675  0.2470  0.0949
 3717SOL    MW414602   4.449   4.963   1.598  0.2295  0.2836  0.0530
 3718SOL     OW14603   4.251   2.932   4.323  0.3750 -0.3403  0.4823
 3718SOL    HW214604   4.262   2.993   4.250  0.5992 -1.2401 -0.2642
 3718SOL    HW314605   4.339   2.903   4.344  0.2318 -0.8088  0.4588
 3718SOL    MW414606   4.264   2.936   4.316  0.2425  0.1662 -0.1385
 3719SOL     OW14607   4.799   4.513   6.187 -0.6704 -0.1668  0.0368
 3719SOL    HW214608   4.736   4.585   6.183  0.5361  0.9561  0.6231
 3719SOL    HW314609   4.782   4.470   6.271 -0.2166  0.5726  0.5191
 3719SOL    MW414610   4.789   4.517   6.197  0.8607 -0.1005  0.1778
 3720SOL     OW14611   4.783   0.973   2.244 -0.3754 -0.0168 -0.0964
 3720SOL    HW214612   4.751   1.049   2.195  0.8348 -0.4015 -1.5680
 3720SOL    HW314613   4.749   0.986   2.333 -0.4760  2.0714 -0.3745
 3720SOL    MW414614   4.774   0.985   2.249  0.0123 -0.1959  0.0062
 3721SOL     OW14615   0.801   0.209   5.882  0.1690  0.0553 -0.3734
 3721SOL    HW214616   0.887   0.243   5.906 -0.2881  2.1497 -1.4777
 3721SOL    HW314617   0.762   0.181   5.965  1.2319  0.7400  0.3806
 3721SOL    MW414618   0.807   0.210   5.896  0.3334 -0.1184  0.0308
 3722SOL     OW14619   5.464   1.093   0.413 -0.1769  0.5415 -0.0369
 3722SOL    HW214620   5.445   1.030   0.483  0.4836  2.0538  1.5756
 3722SOL    HW314621   5.379   1.107   0.371 -0.8675  0.5428  1.2901
 3722SOL    MW414622   5.450   1.086   0.417 -1.1668 -0.3356 -0.3249
 3723SOL     OW14623   1.419   3.345   1.054  0.4937  0.3780 -0.5043
 3723SOL    HW214624   1.474   3.424   1.056  0.0086  0.7076  0.3491
 3723SOL    HW314625   1.404   3.324   1.146 -3.6030  2.2759 -0.5397
 3723SOL    MW414626   1.424   3.353   1.067 -0.1388 -0.1619  0.1752
 3724SOL     OW14627   5.725   1.633   2.423  0.4178  0.3662  0.3171
 3724SOL    HW214628   5.631   1.617   2.434  0.2562  0.2011 -1.1226
 3724SOL    HW314629   5.730   1.693   2.349  1.3792  1.6738  1.3946
 3724SOL    MW414630   5.713   1.639   2.415 -0.0762  0.2782  0.1801
 3725SOL     OW14631   0.088   0.454   0.289 -0.0632  0.5515  0.7022
 3725SOL    HW214632   0.174   0.460   0.331  0.3923 -4.8986  1.2977
 3725SOL    HW314633   0.026   0.474   0.359  0.6769  1.1859  1.2006
 3725SOL    MW414634   0.091   0.457   0.304  0.5035  0.6076 -0.2015
 3726SOL     OW14635   3.072   2.113   5.587 -1.0945  0.0290  0.3533
 3726SOL    HW214636   3.106   2.203   5.578  0.8256 -0.5000  1.6931
 3726SOL    HW314637   2.986   2.124   5.626 -0.9109  1.3047  0.4667
 3726SOL    MW414638   3.065   2.126   5.591 -0.0853 -0.8878 -0.4061
 3727SOL     OW14639   4.734   5.293   5.241  0.0450  0.2374  0.4430
 3727SOL    HW214640   4.767   5.275   5.152  1.5766 -0.2383  1.0723
 3727SOL    HW314641   4.657   5.237   5.250  1.0067 -1.2092  0.0847
 3727SOL    MW414642   4.728   5.283   5.230 -0.1883  0.0321  0.4802
 3728SOL     OW14643   4.070   2.331   3.513  0.6726  1.0876 -0.0334
 3728SOL    HW214644   3.988   2.380   3.523  0.8829  1.4280  0.0248
 3728SOL    HW314645   4.082   2.322   3.419 -0.1777 -0.2207 -0.0447
 3728SOL    MW414646   4.061   2.336   3.502 -0.1463  0.6458 -0.1941
 3729SOL     OW14647   0.787   1.318   3.376 -0.6024  0.3794 -0.0002
 3729SOL    HW214648   0.876   1.353   3.382  0.0089 -1.2797  1.6618
 3729SOL    HW314649   0.790   1.258   3.302  0.5104 -1.6925  1.6079
 3729SOL    MW414650   0.799   1.314   3.367  0.4414  0.0664  0.2334
 3730SOL     OW14651   5.945   0.878   5.308 -0.0216  0.5217 -0.8881
 3730SOL    HW214652   5.894   0.944   5.260  0.1141  0.3493 -1.2750
 3730SOL    HW314653   5.897   0.866   5.390  0.5816  1.9424 -0.2934
 3730SOL    MW414654   5.932   0.885   5.312 -0.0198 -0.3693  0.1424
 3731SOL     OW14655   4.793   6.055   1.580  0.2659  0.0006  0.6449
 3731SOL    HW214656   4.849   5.978   1.577  1.7134  0.9976  0.8053
 3731SOL    HW314657   4.828   6.113   1.513  0.0944  1.0686  1.4448
 3731SOL    MW414658   4.805   6.053   1.571  0.4189 -0.3593  0.3044
 3732SOL     OW14659   3.944   1.493   0.352 -0.6113 -0.3098  0.0261
 3732SOL    HW214660   3.990   1.575   0.335 -0.5164 -0.5166 -0.7670
 3732SOL    HW314661   3.903   1.505   0.438  0.7195 -0.0405  0.6391
 3732SOL    MW414662   3.945   1.506   0.361 -0.5529 -0.0440  0.3220
 3733SOL     OW14663   2.700   1.828   0.311  0.2048 -0.3066 -0.1279
 3733SOL    HW214664   2.698   1.890   0.238 -1.1406 -0.4412 -0.2164
 3733SOL    HW314665   2.762   1.761   0.283 -0.3375 -0.3914 -1.1831
 3733SOL    MW414666   2.708   1.827   0.297 -0.3419 -0.3844  0.5637
 3734SOL     OW14667   3.117   3.526   4.069 -0.0018  0.6342  0.3011
 3734SOL    HW214668   3.075   3.536   3.984  1.6461  3.5553 -0.2948
 3734SOL    HW314669   3.135   3.432   4.077 -0.7812  0.2104 -2.2376
 3734SOL    MW414670   3.114   3.515   4.059  0.1171 -0.0183 -0.3571
 3735SOL     OW14671   0.416   1.662   0.471 -0.4153  0.2838  0.4281
 3735SOL    HW214672   0.498   1.660   0.520 -0.2486 -0.0440  0.1429
 3735SOL    HW314673   0.422   1.739   0.415 -0.0108 -0.1133 -0.0816
 3735SOL    MW414674   0.427   1.672   0.470  0.9476 -0.6349 -0.5345
 3736SOL     OW14675   1.851   1.092   4.697  0.4526 -0.5262 -0.8195
 3736SOL    HW214676   1.762   1.126   4.688  0.9472  0.9953 -0.2598
 3736SOL    HW314677   1.840   1.001   4.723 -0.9513 -0.0614  0.2910
 3736SOL    MW414678   1.838   1.084   4.699  0.2373  0.0237  0.1176
 3737SOL     OW14679   1.674   6.163   1.180 -0.0951 -0.1630  0.0455
 3737SOL    HW214680   1.659   6.086   1.236 -0.6210  0.1523  0.3425
 3737SOL    HW314681   1.663   6.130   1.091  1.4428 -0.8322  0.0560
 3737SOL    MW414682   1.671   6.148   1.176  0.4365  0.5776  0.4270
 3738SOL     OW14683   5.678   4.863   1.766  0.1428  0.1800  0.0056
 3738SOL    HW214684   5.605   4.916   1.733  1.8914  1.5477 -1.9553
 3738SOL    HW314685   5.698   4.803   1.694  1.6240  0.5921  0.0300
 3738SOL    MW414686   5.671   4.862   1.752  0.0121  0.2152 -0.1736
 3739SOL     OW14687   1.160   5.140   3.071 -0.3630  0.5045 -0.3075
 3739SOL    HW214688   1.225   5.093   3.019 -0.8532 -0.8568  0.2837
 3739SOL    HW314689   1.212   5.185   3.138 -0.0672 -1.8296  1.1441
 3739SOL    MW414690   1.176   5.140   3.073  0.5210 -0.3717  0.7408
 3740SOL     OW14691   0.865   0.396   4.778  0.0694 -0.4137 -0.5153
 3740SOL    HW214692   0.939   0.391   4.716  0.7317 -0.5176  0.2623
 3740SOL    HW314693   0.844   0.304   4.797  0.2526 -0.3853 -0.1559
 3740SOL    MW414694   0.872   0.383   4.772  0.6098 -0.2300  0.0262
 3741SOL     OW14695   1.526   6.103   1.698  0.1255 -0.3357  0.2528
 3741SOL    HW214696   1.597   6.046   1.728  0.4562 -0.1911 -0.2402
 3741SOL    HW314697   1.448   6.049   1.702  0.7643 -1.6709 -2.5094
 3741SOL    MW414698   1.525   6.088   1.702 -0.2555  0.0375  0.6293
 3742SOL     OW14699   1.581   1.111   4.585  0.4225 -0.0229 -0.0921
 3742SOL    HW214700   1.593   1.098   4.491  1.1638  2.7981 -0.4982
 3742SOL    HW314701   1.487   1.097   4.599  0.0045  1.0280 -1.5848
 3742SOL    MW414702   1.570   1.108   4.574  0.4337 -0.1207 -0.3499
 3743SOL     OW14703   5.527   3.359   3.857  0.0769 -0.1512 -0.1349
 3743SOL    HW214704   5.471   3.378   3.782  0.5404  2.4253  0.0957
 3743SOL    HW314705   5.615   3.383   3.828  0.2666  0.8857  1.1796
 3743SOL    MW414706   5.532   3.365   3.844  0.0334  0.5016  0.5453
 3744SOL     OW14707   2.164   5.470   5.957  0.0886  0.2580  0.0046
 3744SOL    HW214708   2.085   5.508   5.996 -1.1927 -1.3407 -0.8943
 3744SOL    HW314709   2.135   5.385   5.923  2.5284 -0.9798  0.8225
 3744SOL    MW414710   2.149   5.464   5.958  0.1075 -0.0410  0.2574
 3745SOL     OW14711   5.927   2.355   0.054  0.1808  0.0671  0.2322
 3745SOL    HW214712   5.948   2.265   0.079  1.4983  0.2750 -0.0505
 3745SOL    HW314713   5.834   2.354   0.034  0.4222 -1.5334 -1.0006
 3745SOL    MW414714   5.918   2.343   0.055 -0.1130  0.1511  0.3543
 3746SOL     OW14715   3.717   3.593   1.355  0.5316  0.4772  0.1995
 3746SOL    HW214716   3.742   3.638   1.274 -0.1093 -1.0524 -0.9136
 3746SOL    HW314717   3.711   3.501   1.329 -0.9229  0.1141  1.6889
 3746SOL    MW414718   3.719   3.587   1.341 -0.6066 -0.2801 -0.3355
 3747SOL     OW14719   6.324   5.575   2.974 -0.7711  0.2138 -0.2807
 3747SOL    HW214720   6.295   5.646   2.917 -0.7714  1.5534  1.3153
 3747SOL    HW314721   6.420   5.579   2.971 -0.7339 -0.8621 -1.5072
 3747SOL    MW414722   6.333   5.585   2.966 -0.2916 -0.2473  0.5617
 3748SOL     OW14723   3.146   6.254   4.368 -0.1464 -0.2965 -0.1985
 3748SOL    HW214724   3.149   6.344   4.401  0.7221 -0.6922  0.8544
 3748SOL    HW314725   3.230   6.216   4.394 -0.9526 -1.7602  0.3695
 3748SOL    MW414726   3.158   6.261   4.375 -0.3168 -0.3460 -0.0231
 3749SOL     OW14727   5.668   0.039   3.430  0.3114 -0.2141 -0.2028
 3749SOL    HW214728   5.684  -0.027   3.497  1.2541  0.4837  0.2828
 3749SOL    HW314729   5.712   0.117   3.462  1.0997  0.0392 -1.8076
 3749SOL    MW414730   5.676   0.041   3.443 -0.3631 -0.0849 -0.9197
 3750SOL     OW14731   1.268   4.193   1.397  0.2452 -0.0245 -0.3672
 3750SOL    HW214732   1.269   4.201   1.492  0.4598  0.2470 -0.3899
 3750SOL    HW314733   1.324   4.265   1.366  1.5320 -1.0987 -0.6289
 3750SOL    MW414734   1.275   4.204   1.405 -0.6992 -0.2339 -0.4867
 3751SOL     OW14735   5.781   4.407   2.725  0.1431  0.0820  0.0661
 3751SOL    HW214736   5.841   4.477   2.703 -0.0918  1.0496  2.2872
 3751SOL    HW314737   5.732   4.439   2.801 -0.1230 -2.3802  1.0430
 3751SOL    MW414738   5.782   4.420   2.732  0.3626  0.1315 -0.1424
 3752SOL     OW14739   3.694   1.217   3.427 -0.2934 -0.1605 -0.7725
 3752SOL    HW214740   3.701   1.289   3.364 -0.7268  0.8497  0.2831
 3752SOL    HW314741   3.672   1.260   3.510  0.1699 -1.4558  0.0555
 3752SOL    MW414742   3.692   1.232   3.430 -0.1462  0.4648 -0.0409
 3753SOL     OW14743   4.880   3.298   6.003  0.0327  0.4550 -0.4001
 3753SOL    HW214744   4.899   3.349   5.925  1.2523  0.7492  0.0677
 3753SOL    HW314745   4.853   3.363   6.068  0.6813  0.4031 -0.0765
 3753SOL    MW414746   4.879   3.313   6.001  0.7294  0.1622 -0.6164
 3754SOL     OW14747   2.678   4.797   1.057  0.2634 -0.4550  0.1926
 3754SOL    HW214748   2.622   4.759   0.990  0.1640 -1.9384  1.0661
 3754SOL    HW314749   2.622   4.858   1.104  0.3059  0.5136 -0.9727
 3754SOL    MW414750   2.663   4.800   1.055 -0.5209 -0.7656  0.2573
 3755SOL     OW14751   1.366   2.906   3.095 -0.0664 -0.0332 -0.3342
 3755SOL    HW214752   1.380   2.875   3.184 -2.0601 -0.2181 -0.0471
 3755SOL    HW314753   1.420   2.848   3.040  0.3409 -0.5979  0.6401
 3755SOL    MW414754   1.375   2.895   3.099 -0.1894 -0.3337  0.2552
 3756SOL     OW14755   0.511   2.168   3.060  1.0409 -0.5660  0.1110
 3756SOL    HW214756   0.521   2.190   3.153  0.9453 -0.7993  0.1788
 3756SOL    HW314757   0.461   2.086   3.061 -0.2294  0.1691 -0.1787
 3756SOL    MW414758   0.506   2.160   3.073  0.2132 -0.1159 -0.5857
 3757SOL     OW14759   1.093   1.562   1.858 -0.2106 -0.3020 -0.2065
 3757SOL    HW214760   1.186   1.562   1.883  0.2175  0.6736 -1.6660
 3757SOL    HW314761   1.046   1.547   1.940  1.2758 -2.5872  0.3015
 3757SOL    MW414762   1.099   1.560   1.872 -0.0359  0.0665 -0.1450
 3758SOL     OW14763   2.552   4.312   2.407  0.2857  0.0562 -0.1228
 3758SOL    HW214764   2.535   4.251   2.478  1.7176 -1.3356 -0.9095
 3758SOL    HW314765   2.635   4.354   2.431  1.0907 -0.8506 -1.2114
 3758SOL    MW414766   2.561   4.310   2.420  0.5042  0.1266  0.4972
 3759SOL     OW14767   2.759   2.505   4.989 -0.2956  0.0472 -0.4252
 3759SOL    HW214768   2.824   2.553   4.938  0.7986 -1.4558 -0.5115
 3759SOL    HW314769   2.721   2.442   4.928 -0.1802 -0.6377  0.1988
 3759SOL    MW414770   2.762   2.503   4.975 -0.0441  0.1974  0.4649
 3760SOL     OW14771   5.831   5.997   5.263  0.4199 -0.1823  0.2767
 3760SOL    HW214772   5.846   5.923   5.204  1.5163  0.8498 -0.7902
 3760SOL    HW314773   5.915   6.009   5.308  0.2048  0.3048  0.5550
 3760SOL    MW414774   5.844   5.989   5.261 -0.5061  0.1155  0.2253
 3761SOL     OW14775   4.584   4.528   4.668  0.5766  0.5188 -0.3639
 3761SOL    HW214776   4.615   4.618   4.678  2.0772  0.0713 -0.7547
 3761SOL    HW314777   4.647   4.475   4.717 -1.4282 -0.2008  1.6957
 3761SOL    MW414778   4.596   4.533   4.676 -0.8013  0.2055  0.0435
 3762SOL     OW14779   2.795   5.620   2.619  0.0131  0.3666 -0.0622
 3762SOL    HW214780   2.762   5.581   2.700  2.3009  0.4221  0.9723
 3762SOL    HW314781   2.841   5.699   2.648  0.2942  0.7461 -1.4949
 3762SOL    MW414782   2.797   5.625   2.634 -0.3790  0.2478 -0.1046
 3763SOL     OW14783   5.963   5.179   5.161  0.0438  0.3038  0.0808
 3763SOL    HW214784   6.026   5.126   5.210  1.0619  2.3351  1.0635
 3763SOL    HW314785   6.010   5.260   5.140 -1.4737  0.8818 -1.3299
 3763SOL    MW414786   5.978   5.182   5.165 -0.0472  0.4021 -0.1403
 3764SOL     OW14787   1.853   4.741   3.539 -0.2587  0.2106  0.5034
 3764SOL    HW214788   1.946   4.751   3.521 -0.5191  1.7581 -0.1258
 3764SOL    HW314789   1.839   4.788   3.622 -0.7283  1.3252 -0.1881
 3764SOL    MW414790   1.863   4.749   3.548  0.1299 -0.3630  0.0287
 3765SOL     OW14791   0.069   4.884   4.005 -0.8283  0.3323 -0.2267
 3765SOL    HW214792   0.150   4.919   4.040 -1.5838  1.9003  0.0213
 3765SOL    HW314793   0.097   4.824   3.935  0.5679 -0.2588  0.7938
 3765SOL    MW414794   0.083   4.880   4.000  0.4052 -0.3718 -0.4422
 3766SOL     OW14795   6.391   3.385   5.768 -0.1748 -0.3870  0.1365
 3766SOL    HW214796   6.361   3.328   5.839  0.2011  0.3773  0.9283
 3766SOL    HW314797   6.477   3.417   5.797  0.8651 -1.5079 -1.4993
 3766SOL    MW414798   6.399   3.382   5.781  0.0861  0.1326 -0.3105
 3767SOL     OW14799   0.260   0.779   0.797 -0.3113  0.2096  0.1165
 3767SOL    HW214800   0.256   0.869   0.828 -1.1960  0.2014  0.0576
 3767SOL    HW314801   0.327   0.738   0.852 -0.2412  0.7781  0.4663
 3767SOL    MW414802   0.268   0.785   0.808  0.0835 -0.7320 -0.8587
 3768SOL     OW14803   5.136   6.060   4.908  0.0113  0.2345 -0.2423
 3768SOL    HW214804   5.136   5.999   4.834  0.6027 -0.0143 -0.0443
 3768SOL    HW314805   5.076   6.130   4.881 -0.4610 -0.2907 -0.5865
 3768SOL    MW414806   5.128   6.061   4.895 -0.4218  0.2561  0.2709
 3769SOL     OW14807   2.885   5.183   1.269  0.1863 -0.2985 -0.0532
 3769SOL    HW214808   2.804   5.142   1.301 -0.1282  0.5827  0.3214
 3769SOL    HW314809   2.923   5.118   1.210 -0.1380 -1.2410  0.7537
 3769SOL    MW414810   2.879   5.169   1.265 -0.0982  0.5889 -0.1010
 3770SOL     OW14811   6.138   0.014   5.441  0.1714  0.1134  0.3926
 3770SOL    HW214812   6.154  -0.036   5.522  0.6401 -2.2532 -1.0558
 3770SOL    HW314813   6.226   0.035   5.409 -0.0062  0.6868  0.2782
 3770SOL    MW414814   6.152   0.010   5.447  0.1418  0.1598 -0.1625
 3771SOL     OW14815   5.095   1.394   4.823  0.0390  0.4527  0.6667
 3771SOL    HW214816   5.033   1.410   4.752  0.4253 -0.6545  0.0529
 3771SOL    HW314817   5.179   1.382   4.779 -0.2101 -3.3803  0.9289
 3771SOL    MW414818   5.098   1.395   4.808  0.7012 -0.5761  0.3318
 3772SOL     OW14819   3.016   3.631   4.324  0.0423  0.0731 -0.3836
 3772SOL    HW214820   3.088   3.608   4.382 -0.9576  1.2189  1.4088
 3772SOL    HW314821   3.035   3.585   4.242  1.5346 -1.5583  0.8137
 3772SOL    MW414822   3.028   3.622   4.321  0.0782 -0.5181 -0.3179
 3773SOL     OW14823   1.323   3.491   3.789 -0.2108  0.0736 -0.0950
 3773SOL    HW214824   1.365   3.570   3.753  0.5485 -0.2857 -0.0294
 3773SOL    HW314825   1.262   3.524   3.854  0.5432  0.5847  0.3752
 3773SOL    MW414826   1.321   3.506   3.793  0.0460 -0.0233 -0.6720
 3774SOL     OW14827   3.141   1.785   4.092 -0.1801 -0.7779  0.3018
 3774SOL    HW214828   3.225   1.747   4.120  0.0587  0.1279  0.8464
 3774SOL    HW314829   3.095   1.712   4.052  0.8489 -1.3085  0.0372
 3774SOL    MW414830   3.146   1.770   4.090 -0.0834 -0.1337 -0.0128
 3775SOL     OW14831   5.452   1.938   6.327 -0.1806 -0.1081  0.3879
 3775SOL    HW214832   5.503   2.019   6.323 -0.8775  0.3108 -0.3029
 3775SOL    HW314833   5.504   1.875   6.278 -0.1150  0.1988  0.0565
 3775SOL    MW414834   5.466   1.941   6.320  0.1464 -0.5191  0.1803
 3776SOL     OW14835   2.294   4.432   2.855  0.8283 -0.2933  0.7556
 3776SOL    HW214836   2.276   4.460   2.945  1.0862  2.0401  0.1264
 3776SOL    HW314837   2.255   4.500   2.800  0.5891 -1.7229 -0.9384
 3776SOL    MW414838   2.286   4.445   2.860  0.2275 -0.1624 -0.0804
 3777SOL     OW14839   0.698   0.936   4.370 -0.1145 -0.3935  0.1516
 3777SOL    HW214840   0.640   0.866   4.339  0.3907 -1.3973  1.4235
 3777SOL    HW314841   0.767   0.941   4.303  1.3272 -2.9841  1.3074
 3777SOL    MW414842   0.699   0.928   4.357  0.2374 -0.2100  0.1505
 3778SOL     OW14843   2.323   6.157   3.848 -0.1094 -0.4637 -0.1911
 3778SOL    HW214844   2.271   6.085   3.812 -0.2658  0.7933 -2.6373
 3778SOL    HW314845   2.270   6.235   3.831 -0.2971  0.2635  3.0892
 3778SOL    MW414846   2.309   6.158   3.841 -0.0183  0.3652 -0.1387
 3779SOL     OW14847   1.506   0.854   4.799  0.2540 -0.6108 -0.0910
 3779SOL    HW214848   1.509   0.771   4.750  0.3303 -0.8555  0.3214
 3779SOL    HW314849   1.568   0.841   4.871  0.9917  0.1620 -0.5738
 3779SOL    MW414850   1.515   0.841   4.802 -0.0877 -0.1974 -0.3767
 3780SOL     OW14851   4.738   4.407   4.901 -0.1354 -0.0617 -0.1143
 3780SOL    HW214852   4.832   4.428   4.899  0.1545 -1.2666 -1.5116
 3780SOL    HW314853   4.735   4.312   4.887 -1.6062  0.2313 -2.3174
 3780SOL    MW414854   4.750   4.397   4.899  0.1305 -0.1044 -0.5801
 3781SOL     OW14855   0.475   1.811   2.772 -0.1089 -0.3916  0.1619
 3781SOL    HW214856   0.407   1.744   2.764  0.6681 -1.5544  2.4799
 3781SOL    HW314857   0.531   1.798   2.695 -0.7136 -1.5145 -0.1122
 3781SOL    MW414858   0.473   1.801   2.761 -0.1704  0.5639 -0.2895
 3782SOL     OW14859   4.723   4.836   5.710  0.0688 -0.3547  0.4651
 3782SOL    HW214860   4.817   4.856   5.705  0.0176  0.3114  1.7595
 3782SOL    HW314861   4.709   4.813   5.801 -0.7578 -1.9687 -0.0355
 3782SOL    MW414862   4.734   4.836   5.721  0.2768 -0.7385  0.2997
 3783SOL     OW14863   1.507   5.491   4.956  0.2347  0.0882 -0.0389
 3783SOL    HW214864   1.477   5.465   5.043  0.1711  0.5937  0.0920
 3783SOL    HW314865   1.530   5.584   4.965  0.6984  0.0187 -0.4350
 3783SOL    MW414866   1.506   5.500   4.968  0.2690  0.2324  0.0315
 3784SOL     OW14867   0.214   0.097   2.115  0.0093 -0.0646  0.1554
 3784SOL    HW214868   0.121   0.115   2.131 -0.4572 -2.4401  0.3901
 3784SOL    HW314869   0.244   0.053   2.194  1.3533  0.6539  0.0642
 3784SOL    MW414870   0.205   0.094   2.127  0.0526 -0.4291 -0.1966
 3785SOL     OW14871   5.672   3.632   0.923 -0.5688  0.0807 -0.3297
 3785SOL    HW214872   5.611   3.660   0.991 -1.1944  1.1322 -1.2956
 3785SOL    HW314873   5.619   3.628   0.843  0.2540 -0.6517 -0.8596
 3785SOL    MW414874   5.657   3.635   0.921 -0.0235  0.1584 -0.0671
 3786SOL     OW14875   6.425   3.188   3.568 -0.0787 -0.6277 -0.2763
 3786SOL    HW214876   6.425   3.247   3.643 -0.5484 -0.6864 -0.2236
 3786SOL    HW314877   6.470   3.237   3.499 -0.4823 -0.1902 -0.2419
 3786SOL    MW414878   6.431   3.203   3.569  0.1582  0.1008 -0.0264
 3787SOL     OW14879   2.595   5.520   0.619  0.6900 -0.0807  0.6646
 3787SOL    HW214880   2.596   5.568   0.703 -1.7328 -1.6904  1.7329
 3787SOL    HW314881   2.657   5.448   0.632  0.5694 -0.1351  0.9466
 3787SOL    MW414882   2.603   5.517   0.632 -0.4114  0.2977  0.0558
 3788SOL     OW14883   0.894   4.511   5.202 -0.3093  0.0189  0.9603
 3788SOL    HW214884   0.926   4.600   5.186 -0.4823 -0.2977 -1.7149
 3788SOL    HW314885   0.972   4.455   5.195 -0.7977 -0.4452 -2.4794
 3788SOL    MW414886   0.908   4.515   5.199  0.6590  0.2570 -0.3893
 3789SOL     OW14887   3.704   1.672   5.326 -0.6839  0.2610 -0.2539
 3789SOL    HW214888   3.657   1.646   5.406 -0.7982 -0.1891 -0.4648
 3789SOL    HW314889   3.745   1.591   5.295 -0.2301  0.5366 -0.3822
 3789SOL    MW414890   3.703   1.657   5.332  0.4870 -0.1212  0.6232
 3790SOL     OW14891   3.998   4.663   1.814 -0.5020  0.3192 -0.3313
 3790SOL    HW214892   3.905   4.658   1.834 -0.0838  0.2375  1.9292
 3790SOL    HW314893   4.021   4.755   1.829 -0.0359  0.1316  0.1344
 3790SOL    MW414894   3.989   4.675   1.819 -0.1703  0.4337 -0.5511
 3791SOL     OW14895   4.067   2.050   0.615  0.2669 -0.2741 -0.0942
 3791SOL    HW214896   4.159   2.072   0.601 -0.4261  2.9438 -0.5141
 3791SOL    HW314897   4.057   2.045   0.710  0.6476  0.7621  0.0117
 3791SOL    MW414898   4.077   2.052   0.626 -0.6504  0.0030 -0.2486
 3792SOL     OW14899   0.353   1.859   3.993 -0.0092  0.0214  0.3338
 3792SOL    HW214900   0.419   1.807   4.038  0.3719  2.2885  2.5625
 3792SOL    HW314901   0.403   1.922   3.941 -0.4462  0.4436  0.4252
 3792SOL    MW414902   0.368   1.860   3.992 -0.0298 -0.1538  0.4362
 3793SOL     OW14903   1.276   4.287   1.684 -0.1063 -0.5252 -0.0667
 3793SOL    HW214904   1.320   4.368   1.711  1.0030 -0.8548 -0.8177
 3793SOL    HW314905   1.295   4.224   1.753  1.6914 -1.0150 -0.9472
 3793SOL    MW414906   1.284   4.289   1.696 -0.1194 -0.0759  0.4007
 3794SOL     OW14907   1.247   6.281   3.842 -0.0266 -0.3699  0.1425
 3794SOL    HW214908   1.322   6.286   3.782  0.3807 -1.1894  0.5591
 3794SOL    HW314909   1.269   6.343   3.912 -0.1102 -0.0296 -0.1290
 3794SOL    MW414910   1.260   6.290   3.844 -0.0121 -0.3498 -0.3348
 3795SOL     OW14911   0.684   0.688   3.199  0.0365 -0.5629  0.2201
 3795SOL    HW214912   0.774   0.658   3.190  0.4692  0.8345 -0.3597
 3795SOL    HW314913   0.634   0.637   3.135  0.9128  0.5398 -1.3982
 3795SOL    MW414914   0.689   0.677   3.189  0.4959 -0.6181 -0.0211
 3796SOL     OW14915   2.249   2.663   4.821  0.6039  0.0235 -0.6486
 3796SOL    HW214916   2.313   2.649   4.891 -1.0684 -0.3281  0.8910
 3796SOL    HW314917   2.263   2.754   4.794  0.1558  0.7567  1.3993
 3796SOL    MW414918   2.260   2.673   4.827  0.1493  0.2903 -0.5219
 3797SOL     OW14919   4.111   2.677   0.275  0.4451  0.2258  0.1798
 3797SOL    HW214920   4.058   2.652   0.200  0.7060 -1.0051  0.3799
 3797SOL    HW314921   4.200   2.647   0.253  0.2690 -1.4869  1.5492
 3797SOL    MW414922   4.116   2.669   0.262 -0.1277 -0.2924 -0.5102
 3798SOL     OW14923   3.419   2.199   4.089 -0.0529 -0.0203  0.1578
 3798SOL    HW214924   3.470   2.274   4.119  0.0211  0.0872 -0.2391
 3798SOL    HW314925   3.478   2.149   4.034 -0.1002 -0.3782  0.4230
 3798SOL    MW414926   3.433   2.202   4.086 -0.4753 -0.8099 -0.0082
 3799SOL     OW14927   1.062   1.788   4.329  0.1397  0.1433  0.4432
 3799SOL    HW214928   1.088   1.696   4.338 -0.6452 -0.1750 -0.3642
 3799SOL    HW314929   1.127   1.837   4.379 -0.7948 -1.0225  2.9793
 3799SOL    MW414930   1.074   1.782   4.336  0.0329 -0.1865  0.7446
 3800SOL     OW14931   5.825   3.612   2.930 -0.0154 -0.4897 -0.1732
 3800SOL    HW214932   5.801   3.636   2.841  2.2428  0.0666 -0.6821
 3800SOL    HW314933   5.865   3.525   2.921  2.6749  0.6697 -0.1805
 3800SOL    MW414934   5.827   3.603   2.917 -0.1231 -0.3701 -0.6052
 3801SOL     OW14935   3.723   3.392   1.086  0.0963 -0.2333  0.0472
 3801SOL    HW214936   3.767   3.345   1.157 -1.6527 -1.2391  0.5343
 3801SOL    HW314937   3.651   3.438   1.129 -0.0471  0.4377 -0.8699
 3801SOL    MW414938   3.719   3.392   1.101  0.4895  0.1529  0.9062
 3802SOL     OW14939   4.596   1.577   3.890 -0.7251  0.4116 -0.3056
 3802SOL    HW214940   4.689   1.592   3.876 -1.1188  1.4245 -2.1029
 3802SOL    HW314941   4.587   1.481   3.893  0.3857  0.3121  0.1042
 3802SOL    MW414942   4.607   1.566   3.888  0.4519  0.9904 -0.2613
 3803SOL     OW14943   3.395   5.717   0.136  0.5221 -0.0414 -0.3377
 3803SOL    HW214944   3.332   5.652   0.104  0.3552  1.3339 -3.1161
 3803SOL    HW314945   3.414   5.690   0.225 -3.8022 -0.6914  0.6039
 3803SOL    MW414946   3.389   5.705   0.143 -0.3731  0.0145 -0.6479
 3804SOL     OW14947   6.177   2.087   5.225  0.2026 -0.2553  0.1686
 3804SOL    HW214948   6.191   2.152   5.156  0.4700 -0.5565 -0.0621
 3804SOL    HW314949   6.265   2.064   5.255  0.0493  0.6222  1.3184
 3804SOL    MW414950   6.190   2.092   5.220 -0.3597  0.2833  0.5076
 3805SOL     OW14951   3.147   6.161   2.598 -0.3920  0.4602  0.0972
 3805SOL    HW214952   3.223   6.218   2.593 -0.6785  0.8428  0.0401
 3805SOL    HW314953   3.084   6.208   2.653 -1.3890  1.1075 -1.5230
 3805SOL    MW414954   3.148   6.174   2.604  0.5165 -0.2479  0.0872
 3806SOL     OW14955   1.791   3.154   1.058  0.1209  0.1528 -1.0494
 3806SOL    HW214956   1.777   3.154   1.153  2.1958 -1.8182 -0.6713
 3806SOL    HW314957   1.715   3.106   1.024 -0.1835  0.0783 -0.3047
 3806SOL    MW414958   1.779   3.148   1.066  0.0484  0.1472 -0.1789
 3807SOL     OW14959   3.718   4.656   1.851  0.7235 -0.5147  0.5050
 3807SOL    HW214960   3.657   4.590   1.818  1.4264 -0.4488 -0.9976
 3807SOL    HW314961   3.667   4.737   1.851  0.7482 -0.4908 -0.5796
 3807SOL    MW414962   3.703   4.658   1.847 -0.1102 -0.3502 -0.2434
 3808SOL     OW14963   6.029   2.650   4.394 -0.1943 -0.4058  0.1471
 3808SOL    HW214964   6.079   2.613   4.321 -0.7636  0.8038 -0.8959
 3808SOL    HW314965   6.087   2.642   4.470  0.8657 -0.6551 -0.6749
 3808SOL    MW414966   6.043   2.644   4.394 -0.0623 -0.3093 -1.0805
 3809SOL     OW14967   3.774   1.167   4.493 -0.4068  0.0955 -0.3796
 3809SOL    HW214968   3.679   1.174   4.503 -0.4142 -1.5101  1.0668
 3809SOL    HW314969   3.809   1.241   4.543 -0.8509 -0.1596  0.3144
 3809SOL    MW414970   3.766   1.178   4.501  0.2264  0.4564 -0.2322
 3810SOL     OW14971   5.911   0.289   0.403 -0.4983  0.2298  0.4516
 3810SOL    HW214972   5.996   0.330   0.393 -0.5677 -0.0506 -1.6037
 3810SOL    HW314973   5.895   0.245   0.320 -2.7351  0.4210  0.7155
 3810SOL    MW414974   5.920   0.288   0.391 -0.5530  0.5441  0.1799
 3811SOL     OW14975   0.986   4.417   3.143  0.2369  0.1323  0.3475
 3811SOL    HW214976   0.900   4.437   3.180  0.2428  0.4442  0.1955
 3811SOL    HW314977   0.999   4.484   3.076 -0.7018 -1.6384 -1.7360
 3811SOL    MW414978   0.976   4.429   3.139  0.3167 -0.2483  0.8473
 3812SOL     OW14979   5.679   4.470   3.415 -0.0071  0.6943  0.0462
 3812SOL    HW214980   5.742   4.398   3.424 -0.6250  0.0312 -0.8372
 3812SOL    HW314981   5.631   4.470   3.498  0.5170  0.5903  0.3525
 3812SOL    MW414982   5.681   4.461   3.427 -0.0670 -0.0176  0.8124
 3813SOL     OW14983   2.894   5.901   0.497  0.3681 -0.0230  0.3705
 3813SOL    HW214984   2.831   5.947   0.553 -0.0566 -2.6887  2.2822
 3813SOL    HW314985   2.979   5.918   0.537  0.5225  0.9818 -0.3444
 3813SOL    MW414986   2.897   5.909   0.509  0.6418 -0.5514  0.2264
 3814SOL     OW14987   0.025   4.634   0.116  0.0710  0.4721 -0.1400
 3814SOL    HW214988   0.022   4.671   0.204 -2.1355  0.6773 -0.2473
 3814SOL    HW314989   0.012   4.709   0.058  0.3514  0.1668 -0.6087
 3814SOL    MW414990   0.023   4.648   0.120  0.5255  0.2252 -0.2826
 3815SOL     OW14991   6.370   3.801   5.749 -0.0614 -0.4348 -0.0278
 3815SOL    HW214992   6.465   3.800   5.743  0.0693  1.9492  0.7020
 3815SOL    HW314993   6.341   3.846   5.669 -0.6338 -1.4278 -0.4066
 3815SOL    MW414994   6.379   3.807   5.738  0.2071 -0.0224 -0.0477
 3816SOL     OW14995   3.724   0.532   2.395 -0.2569  0.1569  0.5174
 3816SOL    HW214996   3.794   0.594   2.417 -0.9661  0.9445  0.6301
 3816SOL    HW314997   3.644   0.575   2.426 -1.0561  0.3055 -1.5891
 3816SOL    MW414998   3.723   0.546   2.402  0.0069  0.0665 -0.3698
 3817SOL     OW14999   1.218   0.203   0.048  0.4026 -0.4153 -0.2630
 3817SOL    HW215000   1.189   0.113   0.039 -2.5003  0.4606 -0.6417
 3817SOL    HW315001   1.204   0.224   0.141  0.5709 -0.1929 -0.2847
 3817SOL    MW415002   1.213   0.194   0.059  0.4308  0.5148 -0.7978
 3818SOL     OW15003   1.538   2.061   5.110 -0.6793  0.1122  0.2400
 3818SOL    HW215004   1.519   2.012   5.029  1.4649  0.6096 -0.6247
 3818SOL    HW315005   1.463   2.120   5.120 -0.3931  1.0031 -2.1747
 3818SOL    MW415006   1.526   2.062   5.100 -0.5023 -0.1895 -0.2077
 3819SOL     OW15007   1.670   0.708   2.830  0.3769  0.0781  0.1611
 3819SOL    HW215008   1.583   0.682   2.860  0.6967 -0.5012  0.6007
 3819SOL    HW315009   1.674   0.802   2.847 -0.4716  0.2722 -0.6574
 3819SOL    MW415010   1.659   0.717   2.836  0.4308 -0.4892  0.4311
 3820SOL     OW15011   3.893   3.027   0.594 -0.2949 -0.3060  0.1223
 3820SOL    HW215012   3.959   3.011   0.526 -0.5924  0.4026 -0.3476
 3820SOL    HW315013   3.840   3.099   0.559  0.8414  1.5599  2.0286
 3820SOL    MW415014   3.895   3.035   0.580 -0.7950  0.6655 -0.2868
 3821SOL     OW15015   0.411   4.722   6.278 -0.0380  0.2570  0.0167
 3821SOL    HW215016   0.390   4.697   6.369 -0.5813  0.5845 -0.0157
 3821SOL    HW315017   0.476   4.791   6.287 -0.3552  0.5387  0.1680
 3821SOL    MW415018   0.417   4.728   6.291 -0.1764 -0.1764 -0.2813
 3822SOL     OW15019   4.347   1.092   4.024 -0.4928 -0.1356  0.5029
 3822SOL    HW215020   4.267   1.130   3.986 -0.4099  1.7110  2.0183
 3822SOL    HW315021   4.405   1.167   4.035  1.2951 -1.3784 -0.0956
 3822SOL    MW415022   4.344   1.107   4.020  0.4338 -0.5943  0.0462
 3823SOL     OW15023   2.391   1.404   1.786  0.3073  0.1897  0.3634
 3823SOL    HW215024   2.443   1.477   1.819  1.4358 -0.0881 -0.7597
 3823SOL    HW315025   2.434   1.326   1.821 -0.7267  0.0173  1.3249
 3823SOL    MW415026   2.403   1.404   1.795  0.3621  0.1775  0.1098
 3824SOL     OW15027   2.790   4.434   1.673 -0.1071  0.4758  0.3344
 3824SOL    HW215028   2.813   4.506   1.731 -1.2276  0.0859  1.2974
 3824SOL    HW315029   2.854   4.366   1.692 -0.1240  0.5641  0.7083
 3824SOL    MW415030   2.801   4.434   1.683  0.5540  0.4038 -0.3566
 3825SOL     OW15031   2.422   6.260   4.919  0.6146  0.0297 -0.2438
 3825SOL    HW215032   2.435   6.220   5.005  1.1253 -1.2214 -0.8773
 3825SOL    HW315033   2.489   6.220   4.864  0.5203  1.0808 -1.1484
 3825SOL    MW415034   2.433   6.249   4.923 -0.0334 -0.4992  0.5738
 3826SOL     OW15035   4.607   3.676   4.922  0.5064 -0.1895 -0.0996
 3826SOL    HW215036   4.658   3.648   4.998 -1.6098 -0.2786  1.3984
 3826SOL    HW315037   4.602   3.598   4.867  2.0013 -0.1500 -0.3273
 3826SOL    MW415038   4.613   3.662   4.925 -0.4537  0.2332  0.2294
 3827SOL     OW15039   3.669   0.472   2.994  0.0898  0.2251  0.0016
 3827SOL    HW215040   3.608   0.437   3.060 -0.5726 -0.8760 -1.1503
 3827SOL    HW315041   3.737   0.404   2.987  1.6348  1.5210  1.4111
 3827SOL    MW415042   3.670   0.458   3.002  0.0904 -0.2689  0.0449
 3828SOL     OW15043   4.222   5.287   0.834  0.1531  0.0688 -0.7735
 3828SOL    HW215044   4.275   5.207   0.830 -1.0414 -0.7966  0.1274
 3828SOL    HW315045   4.144   5.266   0.783  0.1685  0.9463 -1.1753
 3828SOL    MW415046   4.219   5.273   0.827 -0.4727 -0.8333 -0.4117
 3829SOL     OW15047   6.136   0.325   0.017  0.0915  0.4555 -0.4161
 3829SOL    HW215048   6.043   0.306   0.023  0.3493 -1.1192 -0.8725
 3829SOL    HW315049   6.177   0.258   0.073  0.9573  1.0156 -0.3652
 3829SOL    MW415050   6.130   0.314   0.025  0.1224 -0.0285  0.0599
 3830SOL     OW15051   0.567   2.736   1.185 -0.0753 -0.3091  0.5556
 3830SOL    HW215052   0.501   2.738   1.254 -0.6081  1.2515  0.0349
 3830SOL    HW315053   0.603   2.825   1.183 -0.4435 -0.1553 -1.5185
 3830SOL    MW415054   0.563   2.748   1.194 -0.1264  0.0197 -0.5771
 3831SOL     OW15055   2.141   3.718   0.399 -0.6468  0.3352 -0.0832
 3831SOL    HW215056   2.062   3.723   0.453 -0.4247 -0.4222  0.3242
 3831SOL    HW315057   2.174   3.630   0.413  0.3354  0.6786 -0.1725
 3831SOL    MW415058   2.135   3.707   0.408  0.3759  0.0528  0.7191
 3832SOL     OW15059   0.071   5.673   2.198 -0.1482  0.2000  0.3268
 3832SOL    HW215060   0.008   5.745   2.205  0.1187  0.4667  0.0081
 3832SOL    HW315061   0.030   5.611   2.138  0.1519  0.6538 -0.3590
 3832SOL    MW415062   0.057   5.675   2.191  0.1881 -0.5400  0.6690
 3833SOL     OW15063   4.621   0.509   5.409  0.6121 -0.6194  0.3293
 3833SOL    HW215064   4.716   0.505   5.415  0.7036  0.3022 -0.3885
 3833SOL    HW315065   4.594   0.570   5.477  0.3365 -2.4008  1.9133
 3833SOL    MW415066   4.630   0.516   5.419 -0.1054  0.7179  0.1584
 3834SOL     OW15067   2.745   0.968   3.220  0.1224 -1.1559  0.0101
 3834SOL    HW215068   2.770   0.936   3.307 -0.9026 -0.9931  0.3769
 3834SOL    HW315069   2.825   1.007   3.185  0.2192  0.0532  1.4727
 3834SOL    MW415070   2.759   0.969   3.227  0.1592 -0.0509  0.1962
 3835SOL     OW15071   1.166   1.556   2.616  0.0627 -0.3178 -0.1491
 3835SOL    HW215072   1.133   1.641   2.646 -0.9860 -0.8393  0.1997
 3835SOL    HW315073   1.118   1.491   2.667  1.0433 -1.1341 -0.2236
 3835SOL    MW415074   1.155   1.559   2.626  0.1613 -0.5174 -0.1518
 3836SOL     OW15075   2.883   1.390   1.838 -0.0851 -0.3126 -0.0126
 3836SOL    HW215076   2.909   1.421   1.751  0.0726 -0.7204 -0.1098
 3836SOL    HW315077   2.858   1.470   1.885  0.3373 -0.0355 -0.2576
 3836SOL    MW415078   2.883   1.405   1.833  0.2883  0.0907  0.2920
 3837SOL     OW15079   2.777   0.746   3.739 -0.2101  0.7433 -0.1237
 3837SOL    HW215080   2.709   0.781   3.798 -0.8126 -1.0238  0.3022
 3837SOL    HW315081   2.728   0.711   3.665  0.2410 -0.3384  0.0748
 3837SOL    MW415082   2.761   0.746   3.737 -0.0451  0.1867 -0.0304
 3838SOL     OW15083   3.915   0.270   2.067 -0.1872 -0.5074  0.2089
 3838SOL    HW215084   3.830   0.313   2.076 -0.7582 -1.4951 -0.1892
 3838SOL    HW315085   3.903   0.186   2.112  1.2536  0.1799  1.9826
 3838SOL    MW415086   3.902   0.264   2.074  0.0882  0.2764  0.5015
 3839SOL     OW15087   0.285   6.316   0.652 -0.2879 -0.4818  0.1162
 3839SOL    HW215088   0.277   6.359   0.737 -1.3420  0.8806 -0.6397
 3839SOL    HW315089   0.195   6.311   0.619  0.0718 -1.2543 -0.7919
 3839SOL    MW415090   0.272   6.321   0.659 -0.1256  0.2544 -0.1157
 3840SOL     OW15091   5.979   0.800   1.916 -0.2497 -0.5561  0.2960
 3840SOL    HW215092   6.036   0.868   1.951 -0.7903  0.2322 -0.2989
 3840SOL    HW315093   6.036   0.746   1.861 -0.1540  0.5463 -0.7347
 3840SOL    MW415094   5.994   0.802   1.913 -0.3058 -0.0696  0.0309
 3841SOL     OW15095   4.666   3.019   6.263  0.5018 -0.0518  0.2862
 3841SOL    HW215096   4.598   2.960   6.229  0.8201 -0.8656  1.0388
 3841SOL    HW315097   4.733   3.021   6.194  0.0165  0.2739 -0.1932
 3841SOL    MW415098   4.666   3.012   6.249  0.1033  0.4405  0.2496
 3842SOL     OW15099   0.544   1.200   2.278  0.3695 -0.1516  0.4595
 3842SOL    HW215100   0.586   1.123   2.317  0.8952 -0.7642 -1.1930
 3842SOL    HW315101   0.607   1.231   2.213 -0.5134  0.7072 -0.0177
 3842SOL    MW415102   0.558   1.194   2.274  0.4775 -0.3057 -0.0257
 3843SOL     OW15103   5.854   6.408   2.095 -0.5935 -0.2667  0.0618
 3843SOL    HW215104   5.821   6.495   2.072 -1.4232 -0.6372 -0.2137
 3843SOL    HW315105   5.905   6.421   2.175 -0.4081  0.5263 -0.1787
 3843SOL    MW415106   5.856   6.421   2.102  0.5826 -0.1550 -0.0832
 3844SOL     OW15107   1.506   2.725   2.956  0.7897  0.0024 -0.1433
 3844SOL    HW215108   1.534   2.734   2.865 -2.7074 -0.5121 -1.4264
 3844SOL    HW315109   1.496   2.630   2.968 -4.2338  0.1359 -1.3158
 3844SOL    MW415110   1.509   2.713   2.945 -0.3713  0.3793  0.0563
 3845SOL     OW15111   3.318   1.987   0.420  0.4922 -0.0983  0.2354
 3845SOL    HW215112   3.284   2.073   0.442 -2.1689 -1.1437  0.5340
 3845SOL    HW315113   3.304   1.979   0.326 -0.3707 -0.6164  0.3956
 3845SOL    MW415114   3.312   1.997   0.411  0.3437  0.6013 -0.2913
 3846SOL     OW15115   5.048   5.918   5.141  0.4147  0.2043 -0.2107
 3846SOL    HW215116   5.117   5.857   5.167  1.0009  1.1062  0.3978
 3846SOL    HW315117   5.088   5.971   5.072  0.3515  0.7597  0.1727
 3846SOL    MW415118   5.062   5.917   5.135  0.1777 -0.0472 -0.0219
 3847SOL     OW15119   5.944   0.071   6.288 -0.0460  0.0135  0.3011
 3847SOL    HW215120   5.889   0.146   6.266 -0.6924 -0.9197 -1.4507
 3847SOL    HW315121   5.886  -0.005   6.280  1.1671 -0.8845 -0.4122
 3847SOL    MW415122   5.929   0.071   6.284  0.2730 -0.0846 -0.3791
 3848SOL     OW15123   0.693   3.235   5.163 -0.2700 -0.0150  0.3470
 3848SOL    HW215124   0.685   3.237   5.258 -0.6803 -1.1735  0.3466
 3848SOL    HW315125   0.620   3.288   5.132 -0.9350 -0.7525  0.6462
 3848SOL    MW415126   0.683   3.243   5.172  0.3452 -0.5542  0.0426
 3849SOL     OW15127   1.211   1.075   1.389 -0.5441 -0.0675  0.1945
 3849SOL    HW215128   1.142   1.101   1.329 -1.1861 -0.9729  0.5184
 3849SOL    HW315129   1.251   0.999   1.349 -1.2677 -0.9504  1.0914
 3849SOL    MW415130   1.207   1.069   1.376  0.8149 -0.1431  0.1762
 3850SOL     OW15131   6.218   5.343   1.421  0.2414  0.4222 -0.3282
 3850SOL    HW215132   6.283   5.311   1.359  2.1983 -0.4180  2.0295
 3850SOL    HW315133   6.147   5.279   1.416  0.7625 -0.1206 -1.0065
 3850SOL    MW415134   6.217   5.330   1.412  0.0311 -0.0612  0.3920
 3851SOL     OW15135   1.196   5.879   4.701  0.2036  0.5686  0.4125
 3851SOL    HW215136   1.198   5.973   4.682  1.0359  0.6108  0.6809
 3851SOL    HW315137   1.262   5.867   4.769 -0.0623 -0.1789  0.5455
 3851SOL    MW415138   1.205   5.890   4.707  0.5470 -0.0462 -0.0666
 3852SOL     OW15139   1.146   0.258   3.310  0.2226 -0.2239 -0.0256
 3852SOL    HW215140   1.201   0.304   3.246 -0.6124 -1.9030 -2.0603
 3852SOL    HW315141   1.208   0.224   3.374  1.1042  1.4003  0.0434
 3852SOL    MW415142   1.162   0.260   3.310  0.1907  0.2271 -0.1554
 3853SOL     OW15143   1.806   6.321   2.807  0.0920  0.1366 -0.3484
 3853SOL    HW215144   1.800   6.407   2.763  0.7835  0.2017 -0.3240
 3853SOL    HW315145   1.894   6.319   2.844 -0.6177  0.2771  1.4694
 3853SOL    MW415146   1.817   6.332   2.806 -0.1609 -0.1148 -0.5290
 3854SOL     OW15147   5.790   1.767   4.500  0.4806  0.7225 -0.5560
 3854SOL    HW215148   5.770   1.676   4.522 -0.1584  0.6412 -1.4121
 3854SOL    HW315149   5.847   1.797   4.571 -1.4319  0.4745  1.1817
 3854SOL    MW415150   5.795   1.759   4.513 -0.0892 -0.4304 -0.3850
 3855SOL     OW15151   0.015   2.344   0.986  0.4683 -0.5121  0.2887
 3855SOL    HW215152  -0.032   2.415   1.029  1.9276 -1.4013  3.7207
 3855SOL    HW315153  -0.052   2.277   0.970 -0.3456  0.3433  0.0251
 3855SOL    MW415154   0.000   2.344   0.990 -0.5758  0.0316 -0.0968
 3856SOL     OW15155   0.880   1.964   5.038  0.3422  0.5905 -0.1723
 3856SOL    HW215156   0.804   2.019   5.018  0.4193  1.0977  0.8627
 3856SOL    HW315157   0.854   1.876   5.011 -0.4132  0.8505 -0.3113
 3856SOL    MW415158   0.866   1.959   5.032  0.0284 -0.0124  0.1983
 3857SOL     OW15159   6.074   0.550   2.112 -0.1332 -0.0706 -0.5404
 3857SOL    HW215160   6.110   0.632   2.080  0.7122  0.3732  1.4091
 3857SOL    HW315161   6.125   0.482   2.067  1.3105  0.5316  0.1178
 3857SOL    MW415162   6.085   0.552   2.102  0.0987 -0.5161 -0.1397
 3858SOL     OW15163   1.050   2.227   4.599  0.6240 -0.4236  0.0194
 3858SOL    HW215164   1.066   2.133   4.610 -0.7336 -0.5793  0.9220
 3858SOL    HW315165   0.955   2.234   4.592  0.5898  1.0063  1.4979
 3858SOL    MW415166   1.040   2.215   4.600 -0.1787 -0.3044 -0.2972
 3859SOL     OW15167   0.917   6.229   0.077  0.1013 -0.3771  0.3749
 3859SOL    HW215168   0.890   6.140   0.097 -1.4513 -0.2268 -0.8931
 3859SOL    HW315169   0.890   6.280   0.154  0.4299 -0.8810  0.8326
 3859SOL    MW415170   0.910   6.224   0.090  0.0691 -0.1615  0.4653
 3860SOL     OW15171   2.056   5.900   3.433  0.2610 -0.3768  0.0254
 3860SOL    HW215172   2.133   5.843   3.444  0.9845  0.2727 -1.4602
 3860SOL    HW315173   2.002   5.854   3.368  0.5183  0.2637 -0.6595
 3860SOL    MW415174   2.059   5.886   3.426  0.4911 -0.1846 -0.3952
 3861SOL     OW15175   5.960   6.202   1.547 -0.6731  0.0865  0.3531
 3861SOL    HW215176   6.039   6.252   1.528 -0.0500 -0.8199  0.4947
 3861SOL    HW315177   5.909   6.207   1.466 -0.6598  1.0087  0.3925
 3861SOL    MW415178   5.964   6.209   1.534  0.1042 -0.1449  0.0605
 3862SOL     OW15179   5.511   2.569   0.009 -0.0130 -0.4908  0.7946
 3862SOL    HW215180   5.461   2.488  -0.000  1.2430 -1.1890 -0.1482
 3862SOL    HW315181   5.481   2.623  -0.064  1.2244 -1.2845 -0.3562
 3862SOL    MW415182   5.500   2.566  -0.002  1.0168  0.1871  0.9692
 3863SOL     OW15183   5.603   2.835   4.610  0.6163 -0.2320  0.1408
 3863SOL    HW215184   5.696   2.858   4.608  0.9755 -1.4690  1.2015
 3863SOL    HW315185   5.586   2.795   4.525  0.9048  0.5080 -0.2755
 3863SOL    MW415186   5.613   2.833   4.599  0.5286 -0.1134 -0.3430
 3864SOL     OW15187   1.222   4.554   0.216 -0.0216 -0.0724 -0.1712
 3864SOL    HW215188   1.278   4.627   0.243  0.9849  0.5248 -3.4797
 3864SOL    HW315189   1.237   4.487   0.283  1.6803  1.4768  1.1096
 3864SOL    MW415190   1.231   4.555   0.229  0.3698  0.2906  0.3154
 3865SOL     OW15191   5.375   4.335   0.256 -0.0407 -0.2615 -0.4304
 3865SOL    HW215192   5.420   4.410   0.218  1.2946 -0.4876  0.6276
 3865SOL    HW315193   5.299   4.372   0.299 -0.0362  0.3295 -0.9136
 3865SOL    MW415194   5.371   4.349   0.256 -0.6920 -0.3540 -0.4368
 3866SOL     OW15195   2.741   2.861   3.865 -0.1930  0.2448  0.2371
 3866SOL    HW215196   2.804   2.892   3.930 -0.5171 -0.1397  0.7436
 3866SOL    HW315197   2.794   2.836   3.789  0.0491  2.4011 -0.3619
 3866SOL    MW415198   2.756   2.861   3.863  0.4956  0.6160  0.1878
 3867SOL     OW15199   1.966   5.943   5.692 -0.7771 -0.3291 -0.4703
 3867SOL    HW215200   1.896   5.879   5.707  0.1563 -1.1674  0.4151
 3867SOL    HW315201   1.962   6.002   5.767 -0.6466 -0.2774 -0.5027
 3867SOL    MW415202   1.956   5.942   5.704 -0.0968  0.0456 -0.5182
 3868SOL     OW15203   1.830   6.411   6.090 -0.0656 -0.2605 -0.4721
 3868SOL    HW215204   1.876   6.490   6.116  0.0806 -0.0885 -1.2320
 3868SOL    HW315205   1.745   6.442   6.058 -1.1383 -0.6349  1.7535
 3868SOL    MW415206   1.825   6.425   6.089 -0.3442  0.1013 -0.7989
 3869SOL     OW15207   4.386   0.309   2.550  0.7560 -0.3255 -0.1393
 3869SOL    HW215208   4.323   0.283   2.617  0.1886  2.8847  0.7376
 3869SOL    HW315209   4.472   0.300   2.592  0.6651 -1.2656 -0.1186
 3869SOL    MW415210   4.389   0.304   2.564  0.2394  0.0125 -0.0804
 3870SOL     OW15211   4.608   2.491   1.041  0.5342 -0.4740  0.2852
 3870SOL    HW215212   4.598   2.564   1.102  0.2157  0.1018 -0.4339
 3870SOL    HW315213   4.530   2.437   1.056  1.6891 -1.7075  2.1453
 3870SOL    MW415214   4.596   2.494   1.051 -0.3696 -0.5709 -0.3641
 3871SOL     OW15215   2.321   6.389   1.777  0.4335  0.2539  0.4722
 3871SOL    HW215216   2.262   6.460   1.750  0.4491  0.3260  0.6293
 3871SOL    HW315217   2.403   6.433   1.798  0.6527  0.1155 -0.0842
 3871SOL    MW415218   2.324   6.404   1.776 -0.3829 -0.3445  0.4732
 3872SOL     OW15219   3.494   5.260   3.541  0.2725 -0.1340  0.1993
 3872SOL    HW215220   3.538   5.280   3.459 -0.4879 -2.9910 -1.0135
 3872SOL    HW315221   3.548   5.193   3.582 -1.0857 -1.1625  0.3695
 3872SOL    MW415222   3.507   5.254   3.536  0.6464 -0.2123 -1.0021
 3873SOL     OW15223   0.162   3.902   3.200 -0.3260  0.1695  0.4315
 3873SOL    HW215224   0.212   3.922   3.122 -0.1158 -0.5474  0.3788
 3873SOL    HW315225   0.073   3.885   3.168 -0.6061  1.3798  0.5193
 3873SOL    MW415226   0.157   3.903   3.186  0.8544  0.5417 -0.2618
 3874SOL     OW15227   3.763   3.069   5.766 -0.0024  0.1805  0.6185
 3874SOL    HW215228   3.837   3.106   5.719 -0.1300  0.3578  0.5590
 3874SOL    HW315229   3.726   3.005   5.706  0.2502 -0.0858  0.7423
 3874SOL    MW415230   3.768   3.065   5.752 -0.2759 -0.0957 -0.2312
 3875SOL     OW15231   1.548   2.470   1.250 -0.3102  0.7953  0.2377
 3875SOL    HW215232   1.525   2.461   1.343 -0.1233  1.1787  0.3216
 3875SOL    HW315233   1.554   2.565   1.236  2.5203  0.7464  0.5379
 3875SOL    MW415234   1.546   2.481   1.260 -0.0369  0.5182  0.2690
 3876SOL     OW15235   4.538   3.633   3.592  0.0107 -0.1610 -0.0688
 3876SOL    HW215236   4.502   3.669   3.511 -0.5264  3.3835  1.5519
 3876SOL    HW315237   4.628   3.666   3.595 -0.7067  1.8125  1.8094
 3876SOL    MW415238   4.545   3.642   3.582  0.3423 -0.1398 -0.1788
 3877SOL     OW15239   5.998   0.168   3.766  0.6818 -0.0222 -0.1606
 3877SOL    HW215240   6.044   0.155   3.683 -0.9145 -0.8655 -0.9542
 3877SOL    HW315241   6.060   0.139   3.833  1.0132 -1.9679 -1.2526
 3877SOL    MW415242   6.012   0.162   3.764  0.4325 -0.0286  0.3001
 3878SOL     OW15243   4.115   3.677   0.245 -0.0129 -0.1117 -0.2061
 3878SOL    HW215244   4.073   3.750   0.199 -1.0583  0.1746  1.1400
 3878SOL    HW315245   4.086   3.686   0.336  1.1177 -1.2920  0.3032
 3878SOL    MW415246   4.105   3.688   0.251  0.7720  0.2078  0.0407
 3879SOL     OW15247   5.630   3.165   6.316  0.0492  0.3964  0.1962
 3879SOL    HW215248   5.561   3.210   6.266 -0.8703  0.0751  1.1470
 3879SOL    HW315249   5.611   3.072   6.303 -0.0534  0.3113  0.9427
 3879SOL    MW415250   5.618   3.159   6.307 -0.8384 -0.1185 -0.3142
 3880SOL     OW15251   1.786   2.208   6.005 -0.2686  0.4325  0.9827
 3880SOL    HW215252   1.730   2.215   5.928  0.3998  1.2654  0.5527
 3880SOL    HW315253   1.835   2.290   6.007  1.5909 -0.6141  0.8209
 3880SOL    MW415254   1.786   2.219   5.995 -0.1133 -0.2506 -0.1233
 3881SOL     OW15255   2.804   2.647   5.241  0.2114 -0.4408 -0.0958
 3881SOL    HW215256   2.782   2.588   5.168 -1.2408 -2.6984  2.0303
 3881SOL    HW315257   2.755   2.727   5.223 -2.4897 -2.0224 -0.1979
 3881SOL    MW415258   2.795   2.650   5.229 -0.9331 -0.0296  0.0359
 3882SOL     OW15259   5.851   5.021   2.991 -0.2106 -0.3002 -0.0501
 3882SOL    HW215260   5.819   4.973   2.914  2.3685 -1.6196 -0.4257
 3882SOL    HW315261   5.809   4.978   3.065  0.0969 -1.5103 -0.5416
 3882SOL    MW415262   5.842   5.009   2.990  0.1809 -0.7681 -0.4014
 3883SOL     OW15263   3.706   5.166   0.734 -0.3607 -0.2720 -0.0490
 3883SOL    HW215264   3.801   5.154   0.738 -0.2931  0.1663 -0.3153
 3883SOL    HW315265   3.689   5.238   0.795 -0.5562 -0.5251  0.2001
 3883SOL    MW415266   3.716   5.174   0.743  0.1268  0.4302  0.3046
 3884SOL     OW15267   2.378   3.650   5.449 -0.6383  0.0176 -0.0057
 3884SOL    HW215268   2.287   3.677   5.462 -0.5521  0.4295 -0.2273
 3884SOL    HW315269   2.424   3.732   5.430 -0.1501 -0.1343  0.4862
 3884SOL    MW415270   2.372   3.664   5.448  0.0155 -0.5293  0.1925
 3885SOL     OW15271   5.854   5.701   3.039 -0.0536  0.2568 -0.0954
 3885SOL    HW215272   5.789   5.763   3.073 -1.2725 -1.0203 -0.0066
 3885SOL    HW315273   5.923   5.756   3.003 -1.1884  1.6799 -0.1875
 3885SOL    MW415274   5.854   5.716   3.038  0.2881 -0.1567 -0.5579
 3886SOL     OW15275   3.424   4.928   2.611 -0.1606  0.0057 -0.1527
 3886SOL    HW215276   3.469   4.862   2.664  2.7462  1.4904 -0.5902
 3886SOL    HW315277   3.383   4.986   2.675 -0.9041 -0.9751  0.2824
 3886SOL    MW415278   3.424   4.927   2.627  0.5281 -0.2483 -0.1125
 3887SOL     OW15279   3.932   4.025   2.389 -0.6169  0.0042 -0.0900
 3887SOL    HW215280   3.914   3.989   2.302  0.3920 -0.1661 -0.2486
 3887SOL    HW315281   3.971   3.953   2.438 -1.5602 -0.0178  0.6521
 3887SOL    MW415282   3.935   4.011   2.384  0.5659 -0.0581 -0.1388
 3888SOL     OW15283   6.089   4.535   0.808 -0.2218 -0.0152 -0.4132
 3888SOL    HW215284   6.053   4.553   0.721 -0.6796 -0.8642 -0.4073
 3888SOL    HW315285   6.058   4.447   0.829  1.2557 -0.4869 -0.0874
 3888SOL    MW415286   6.080   4.526   0.799  0.4879 -0.2291  0.0475
 3889SOL     OW15287   3.175   3.182   2.400 -0.1896 -0.1648 -0.5826
 3889SOL    HW215288   3.232   3.195   2.324  2.1574 -0.3373  1.0259
 3889SOL    HW315289   3.212   3.240   2.467 -2.9749  0.9699  0.0944
 3889SOL    MW415290   3.188   3.191   2.399 -0.3745 -0.1335 -0.2279
 3890SOL     OW15291   1.323   1.072   4.693  0.3846  0.2345 -0.1223
 3890SOL    HW215292   1.229   1.083   4.678  0.3025  1.4471  1.0854
 3890SOL    HW315293   1.331   0.991   4.744 -0.0903  0.5439  0.4559
 3890SOL    MW415294   1.312   1.063   4.698  0.3311  0.1499  0.0669
 3891SOL     OW15295   2.079   1.106   1.602  0.2546  0.5083  0.1780
 3891SOL    HW215296   2.041   1.026   1.564  1.1626 -1.2841  2.7391
 3891SOL    HW315297   2.173   1.098   1.584  0.6403 -0.1526  2.2094
 3891SOL    MW415298   2.087   1.094   1.595 -0.6120 -0.5025 -0.1709
 3892SOL     OW15299   1.905   5.686   0.986  0.1719  0.7335 -0.2556
 3892SOL    HW215300   1.969   5.643   0.929 -0.9716 -0.1412 -0.9430
 3892SOL    HW315301   1.855   5.614   1.024  0.0942  1.3647  0.8785
 3892SOL    MW415302   1.907   5.671   0.984 -0.0115 -0.1006 -0.0528
 3893SOL     OW15303   5.694   0.126   0.746  1.1947 -0.2384 -0.1716
 3893SOL    HW215304   5.673   0.110   0.654  1.1581 -0.4014 -0.1343
 3893SOL    HW315305   5.774   0.077   0.762  0.6195 -1.0910  0.1684
 3893SOL    MW415306   5.701   0.118   0.736 -0.2404  0.3666  0.9462
 3894SOL     OW15307   4.586   4.621   0.444 -0.1250 -0.8724  0.4920
 3894SOL    HW215308   4.497   4.656   0.448  0.5189  1.2597 -1.4703
 3894SOL    HW315309   4.584   4.559   0.372  0.0324 -0.5914  0.2427
 3894SOL    MW415310   4.574   4.618   0.435 -0.1510  0.0071 -0.2979
 3895SOL     OW15311   1.234   3.068   1.368 -0.3337  0.1586 -0.0574
 3895SOL    HW215312   1.268   3.041   1.454 -2.6200  2.5101  1.7671
 3895SOL    HW315313   1.273   3.154   1.353 -0.8727  0.2877 -0.7583
 3895SOL    MW415314   1.243   3.076   1.378 -0.1638 -0.2714 -0.1812
 3896SOL     OW15315   5.236   5.522   3.136  0.6996  0.2093 -0.1366
 3896SOL    HW215316   5.214   5.527   3.043 -0.4205  2.4029  0.1800
 3896SOL    HW315317   5.302   5.591   3.149  2.8633 -1.7938  0.2643
 3896SOL    MW415318   5.242   5.532   3.125  0.4578  0.3218  0.0921
 3897SOL     OW15319   3.425   6.127   1.230 -0.2038 -0.2380 -0.6526
 3897SOL    HW215320   3.433   6.095   1.320 -0.9022  0.8938 -0.1636
 3897SOL    HW315321   3.346   6.085   1.196  0.7062 -1.6026 -1.1783
 3897SOL    MW415322   3.416   6.117   1.237 -0.3546  0.2335  0.5394
 3898SOL     OW15323   3.806   0.125   0.914  0.0938  0.0797  0.2297
 3898SOL    HW215324   3.768   0.042   0.886 -0.7009  0.5983 -0.2445
 3898SOL    HW315325   3.751   0.153   0.988  0.3000  0.2362  0.3252
 3898SOL    MW415326   3.794   0.118   0.920  0.1206 -0.9472  0.2786
 3899SOL     OW15327   3.795   0.656   3.658 -0.6011 -0.1112 -0.2761
 3899SOL    HW215328   3.823   0.703   3.579  0.1368  0.1604  0.1419
 3899SOL    HW315329   3.849   0.577   3.659 -1.0685 -0.4327 -0.3886
 3899SOL    MW415330   3.806   0.652   3.647  0.2647 -0.6901 -0.0805
 3900SOL     OW15331   5.134   1.766   0.421 -0.2913  0.1365 -0.0907
 3900SOL    HW215332   5.118   1.821   0.498 -0.5320  0.6982 -0.5306
 3900SOL    HW315333   5.052   1.771   0.371 -1.1097 -2.3166  0.8664
 3900SOL    MW415334   5.121   1.774   0.424  0.2455  0.0151  0.1139
 3901SOL     OW15335   1.597   5.893   1.345  0.3652  0.1131 -0.2425
 3901SOL    HW215336   1.614   5.843   1.425 -0.5827  0.0351 -0.0781
 3901SOL    HW315337   1.502   5.890   1.335  0.5244 -0.5116 -1.7973
 3901SOL    MW415338   1.587   5.886   1.354 -0.0027  0.3568  0.0755
 3902SOL     OW15339   4.480   0.093   1.638  0.3689  0.0325  0.3240
 3902SOL    HW215340   4.446   0.010   1.605  1.0858 -0.1988  0.1534
 3902SOL    HW315341   4.441   0.160   1.581  0.5114 -0.2596 -0.1221
 3902SOL    MW415342   4.471   0.091   1.626  0.2073 -0.5646 -0.4411
 3903SOL     OW15343   2.407   0.621   5.227 -0.3755 -0.3115  0.1324
 3903SOL    HW215344   2.433   0.676   5.153  2.8499 -0.9195  0.6594
 3903SOL    HW315345   2.433   0.671   5.304 -1.2054 -0.8322  0.7613
 3903SOL    MW415346   2.414   0.635   5.227  0.6513 -0.1405  0.3555
 3904SOL     OW15347   2.530   4.696   0.837  0.0042 -0.1526 -0.0254
 3904SOL    HW215348   2.468   4.766   0.813  0.2854  0.6211  1.3843
 3904SOL    HW315349   2.592   4.693   0.764 -2.0782 -1.4901 -1.8741
 3904SOL    MW415350   2.530   4.705   0.824 -0.1317  0.4344 -0.0328
 3905SOL     OW15351   3.479   2.708   3.487 -0.1976 -0.2185  0.3186
 3905SOL    HW215352   3.488   2.622   3.529 -1.5132  0.1679  1.5122
 3905SOL    HW315353   3.525   2.768   3.546  0.6712 -0.0869 -0.4819
 3905SOL    MW415354   3.486   2.705   3.501 -0.5652 -0.0106 -0.3641
 3906SOL     OW15355   3.104   4.140   3.073 -0.2110 -0.6956  0.2197
 3906SOL    HW215356   3.067   4.087   3.144 -2.0516 -2.6629 -2.0417
 3906SOL    HW315357   3.066   4.227   3.086  0.7891 -0.5284  2.5125
 3906SOL    MW415358   3.094   4.145   3.084 -0.4139  0.3847  0.0465
 3907SOL     OW15359   4.607   4.480   3.880  0.2794  0.1845  0.0980
 3907SOL    HW215360   4.700   4.461   3.872  0.0480 -1.3834  0.7571
 3907SOL    HW315361   4.563   4.403   3.844 -0.7783  0.8166 -0.0269
 3907SOL    MW415362   4.614   4.468   3.874  0.2667 -0.2192  0.2649
 3908SOL     OW15363   5.226   2.182   0.572  0.0851 -0.5313 -0.5175
 3908SOL    HW215364   5.316   2.216   0.571  0.6926 -2.0550 -0.0184
 3908SOL    HW315365   5.177   2.248   0.622  1.4557 -0.8876  1.4234
 3908SOL    MW415366   5.231   2.195   0.579 -0.2123  0.8925  0.2787
 3909SOL     OW15367   0.415   1.359   3.830 -0.3966  0.1967  0.0876
 3909SOL    HW215368   0.375   1.385   3.746  0.0897 -1.3312 -0.6587
 3909SOL    HW315369   0.508   1.348   3.809 -0.3628 -0.7389  0.6992
 3909SOL    MW415370   0.422   1.361   3.816 -0.1843 -0.3099  0.1395
 3910SOL     OW15371   0.966   5.464   4.501  0.2295 -0.0070 -0.2447
 3910SOL    HW215372   0.986   5.535   4.562  0.7167  1.5026 -2.0642
 3910SOL    HW315373   0.970   5.505   4.414 -2.1274 -1.6520 -1.2347
 3910SOL    MW415374   0.969   5.479   4.497 -0.4074 -0.0418  0.1980
 3911SOL     OW15375   4.682   1.327   3.099 -0.5912  0.0569 -0.6003
 3911SOL    HW215376   4.753   1.264   3.113 -0.7854 -0.3132 -1.2512
 3911SOL    HW315377   4.635   1.294   3.023 -2.2981 -0.4407  0.6013
 3911SOL    MW415378   4.685   1.314   3.091 -0.5405  0.7801 -0.5632
 3912SOL     OW15379   1.039   6.418   4.700 -0.1752 -0.1522 -0.9617
 3912SOL    HW215380   1.052   6.355   4.771 -1.2330 -0.5948 -1.1447
 3912SOL    HW315381   1.033   6.364   4.621 -0.0383  0.2616 -1.2612
 3912SOL    MW415382   1.040   6.402   4.699  0.2262  0.7557 -0.2775
 3913SOL     OW15383   0.591   0.343   2.700  0.0236  0.1705  0.0717
 3913SOL    HW215384   0.530   0.298   2.758  0.4676  0.0410  0.4449
 3913SOL    HW315385   0.598   0.286   2.624 -0.5333  0.3213 -0.0907
 3913SOL    MW415386   0.584   0.330   2.698 -0.5098  0.6270 -0.5140
 3914SOL     OW15387   1.075   3.241   2.681 -0.1390 -0.2709  0.2395
 3914SOL    HW215388   1.010   3.272   2.744 -2.0292  2.0651 -2.5887
 3914SOL    HW315389   1.034   3.165   2.639 -0.7493  0.6730 -0.9367
 3914SOL    MW415390   1.061   3.235   2.684  0.1693  0.7818 -0.3553
 3915SOL     OW15391   6.372   4.344   4.658 -0.3623 -0.2582  0.0162
 3915SOL    HW215392   6.353   4.430   4.695  0.3780 -0.2006  0.2885
 3915SOL    HW315393   6.468   4.337   4.661 -0.3310 -0.6173 -1.0629
 3915SOL    MW415394   6.382   4.354   4.663  0.2671 -0.3572  0.1938
 3916SOL     OW15395   0.891   0.952   3.854  0.5188  0.0420  0.2232
 3916SOL    HW215396   0.905   1.045   3.873 -0.7724  0.2631  0.1881
 3916SOL    HW315397   0.953   0.932   3.783  1.9035  0.4618  1.2879
 3916SOL    MW415398   0.901   0.961   3.847 -0.2828  0.0552  0.2325
 3917SOL     OW15399   1.465   1.420   1.722 -0.1486  0.0650 -0.0396
 3917SOL    HW215400   1.447   1.386   1.634 -0.3037  1.9359 -0.7750
 3917SOL    HW315401   1.537   1.482   1.710 -0.6193  0.8645  1.0282
 3917SOL    MW415402   1.472   1.424   1.709 -0.0445 -0.2636  0.2619
 3918SOL     OW15403   6.250   6.013   1.537 -0.3426  0.2495  0.4281
 3918SOL    HW215404   6.220   5.925   1.515 -1.1827  0.4137  0.8994
 3918SOL    HW315405   6.330   5.999   1.588  0.3550 -0.1901 -0.7457
 3918SOL    MW415406   6.257   5.999   1.540  0.3235 -0.2531  0.0058
 3919SOL     OW15407   2.562   2.182   2.436  0.1640 -0.0406 -0.4327
 3919SOL    HW215408   2.654   2.171   2.459 -0.4300 -1.4470  1.5015
 3919SOL    HW315409   2.544   2.111   2.373  0.2163 -0.2610 -0.2002
 3919SOL    MW415410   2.572   2.171   2.430 -0.1594 -0.4397  0.3718
 3920SOL     OW15411   3.916   3.588   4.290 -0.1594  0.0321  0.6334
 3920SOL    HW215412   3.837   3.556   4.332  0.4410  0.0471  1.8149
 3920SOL    HW315413   3.896   3.587   4.197 -1.9886  1.1913  0.9660
 3920SOL    MW415414   3.903   3.584   4.283 -0.0261 -0.6956 -0.6347
 3921SOL     OW15415   0.669   4.938   2.757  0.1998 -0.0167  0.3213
 3921SOL    HW215416   0.672   4.974   2.846  0.6006  0.6071  0.0678
 3921SOL    HW315417   0.758   4.906   2.741 -0.0463 -0.7491  0.3852
 3921SOL    MW415418   0.681   4.939   2.766  0.3285  0.0594 -0.2891
 3922SOL     OW15419   3.401   0.936   0.462  0.1023 -0.9523  0.1379
 3922SOL    HW215420   3.395   0.902   0.373  1.3567 -1.0856  0.0777
 3922SOL    HW315421   3.392   0.859   0.519 -3.8739 -0.5364  0.3341
 3922SOL    MW415422   3.399   0.922   0.458  0.2139 -0.1765 -0.3915
 3923SOL     OW15423   2.675   1.009   4.718  0.1531  0.5117  0.2085
 3923SOL    HW215424   2.673   1.007   4.814  1.4199  1.6574  0.2944
 3923SOL    HW315425   2.584   1.027   4.693 -0.6285 -1.8210  1.0652
 3923SOL    MW415426   2.663   1.011   4.728  0.2090 -0.3987  0.0226
 3924SOL     OW15427   1.775   2.534   2.590  0.7968 -0.5631  0.3786
 3924SOL    HW215428   1.849   2.485   2.624  1.6357  0.4252  0.0332
 3924SOL    HW315429   1.799   2.556   2.500 -0.2497 -0.8765  0.0025
 3924SOL    MW415430   1.788   2.531   2.582  0.4449 -0.3519 -0.4358
 3925SOL     OW15431   1.736   5.197   4.655  0.0200  0.2133  0.4740
 3925SOL    HW215432   1.673   5.173   4.723 -0.8890  0.0961 -0.3999
 3925SOL    HW315433   1.741   5.120   4.598 -2.0763  1.5577 -1.7258
 3925SOL    MW415434   1.728   5.184   4.656  0.0583 -0.5588 -0.6162
 3926SOL     OW15435   0.655   0.129   3.130 -0.1603  0.0021  0.3005
 3926SOL    HW215436   0.580   0.156   3.077 -0.5748 -0.0872  0.8360
 3926SOL    HW315437   0.729   0.176   3.092  0.1137 -2.2251 -2.1995
 3926SOL    MW415438   0.655   0.139   3.118  0.0277  0.2473 -0.1308
 3927SOL     OW15439   6.167   0.889   5.925  0.2167  0.5371 -0.2290
 3927SOL    HW215440   6.150   0.855   6.013  1.3679 -1.1753 -0.6186
 3927SOL    HW315441   6.262   0.895   5.919  0.1887 -0.0216 -1.5772
 3927SOL    MW415442   6.177   0.885   5.936  0.3634  0.3269  0.3654
 3928SOL     OW15443   0.864   5.159   2.809 -0.4194  0.5295 -0.1983
 3928SOL    HW215444   0.802   5.164   2.882 -1.0604  1.7679 -0.7981
 3928SOL    HW315445   0.820   5.108   2.742  0.9116 -2.2785  0.9247
 3928SOL    MW415446   0.850   5.153   2.810 -0.0538 -0.0839  0.1571
 3929SOL     OW15447   3.540   2.458   4.144 -0.0401  0.1494  0.2187
 3929SOL    HW215448   3.621   2.409   4.130 -0.0724  0.1303  0.0963
 3929SOL    HW315449   3.566   2.550   4.144  0.0569  0.1237  0.6935
 3929SOL    MW415450   3.554   2.463   4.142  0.4890  0.2421  0.8171
 3930SOL     OW15451   0.535   1.079   3.018 -0.2182 -0.3768 -0.4017
 3930SOL    HW215452   0.534   1.175   3.021 -1.3788 -0.3907  0.2162
 3930SOL    HW315453   0.550   1.052   3.108  3.8500 -0.8299 -1.0472
 3930SOL    MW415454   0.536   1.088   3.030 -0.0168 -0.5250  0.7209
 3931SOL     OW15455   5.268   3.557   2.840  0.2895  0.2868 -0.3988
 3931SOL    HW215456   5.277   3.475   2.889  0.0959 -0.4724 -1.5841
 3931SOL    HW315457   5.357   3.578   2.813  0.3331  0.4427 -0.1359
 3931SOL    MW415458   5.281   3.549   2.843 -0.0611 -0.3317 -0.2703
 3932SOL     OW15459   5.723   2.048   0.173  0.1845 -0.1461  0.0407
 3932SOL    HW215460   5.741   1.968   0.122 -1.9559 -0.1091 -0.8904
 3932SOL    HW315461   5.683   2.016   0.253 -3.0875 -0.0583 -1.4004
 3932SOL    MW415462   5.720   2.033   0.177 -0.2735 -0.0009  0.0866
 3933SOL     OW15463   2.406   2.841   2.917  0.4244 -0.0955  0.0657
 3933SOL    HW215464   2.312   2.829   2.907  0.3514 -0.2576  0.8793
 3933SOL    HW315465   2.425   2.812   3.006  1.3535 -0.7175 -0.3130
 3933SOL    MW415466   2.396   2.836   2.927  0.4581 -0.2242  0.3168
 3934SOL     OW15467   0.895   0.445   3.146  0.2964 -0.1472 -0.5514
 3934SOL    HW215468   0.974   0.478   3.188 -0.1587 -0.1131  0.3029
 3934SOL    HW315469   0.914   0.352   3.128  0.3438 -0.2755  0.1312
 3934SOL    MW415470   0.908   0.437   3.149 -0.3096  0.1107  0.2410
 3935SOL     OW15471   3.316   1.881   2.864  0.7216  0.2703  0.0785
 3935SOL    HW215472   3.249   1.836   2.916 -0.0276 -0.6683 -1.6244
 3935SOL    HW315473   3.376   1.917   2.929 -0.4597 -0.3881  1.6052
 3935SOL    MW415474   3.315   1.880   2.880  0.0235  0.2493  0.1180
 3936SOL     OW15475   5.544   0.183   5.522  0.0786 -0.0021 -0.3913
 3936SOL    HW215476   5.486   0.258   5.505 -0.8279 -1.0096 -1.9357
 3936SOL    HW315477   5.617   0.195   5.461 -0.8198 -1.1461 -1.7181
 3936SOL    MW415478   5.546   0.195   5.512  0.3341  0.8183  0.0272
 3937SOL     OW15479   5.897   2.103   6.328  0.2408  0.0328  0.2925
 3937SOL    HW215480   5.939   2.018   6.317  1.2707  0.4956  0.5728
 3937SOL    HW315481   5.944   2.161   6.268 -1.2728  0.1498 -0.8389
 3937SOL    MW415482   5.908   2.100   6.318 -0.4387 -0.1568 -0.3198
 3938SOL     OW15483   2.932   0.158   5.257  0.9162  0.3347  0.1287
 3938SOL    HW215484   2.967   0.213   5.188  2.0017 -0.7896 -0.2549
 3938SOL    HW315485   2.972   0.190   5.338 -0.3803  1.6725  0.2939
 3938SOL    MW415486   2.942   0.169   5.259  0.1250 -0.1824 -0.0579
 3939SOL     OW15487   5.496   0.413   4.881  0.4186 -0.1179 -0.4524
 3939SOL    HW215488   5.506   0.470   4.804  2.0182 -0.3729 -0.4729
 3939SOL    HW315489   5.476   0.327   4.845  0.4388 -0.0821 -0.5489
 3939SOL    MW415490   5.495   0.409   4.866 -0.3124 -0.0801  0.1079
 3940SOL     OW15491   6.365   2.447   2.334  0.4755 -0.4377  0.9119
 3940SOL    HW215492   6.425   2.521   2.335  0.2281 -0.2213  0.2070
 3940SOL    HW315493   6.395   2.393   2.261  0.2489 -0.6951  1.0083
 3940SOL    MW415494   6.377   2.449   2.325 -0.2840 -0.0810 -0.6547
 3941SOL     OW15495   2.603   0.631   3.545  0.0476  0.1629  0.5750
 3941SOL    HW215496   2.514   0.627   3.510 -0.7721 -1.3194  2.6398
 3941SOL    HW315497   2.615   0.547   3.590  2.6112  0.2027  0.1259
 3941SOL    MW415498   2.593   0.619   3.546 -0.7850  0.2325  0.1882
 3942SOL     OW15499   4.143   2.626   5.584 -0.5931 -0.7331 -0.1881
 3942SOL    HW215500   4.070   2.654   5.639 -0.4924 -1.0821  0.1257
 3942SOL    HW315501   4.184   2.554   5.633  0.3192 -0.1563 -0.0716
 3942SOL    MW415502   4.139   2.620   5.598  0.2402 -0.0085  0.1769
 3943SOL     OW15503   1.393   4.964   0.138  0.0304 -0.2273  0.0490
 3943SOL    HW215504   1.423   5.050   0.167 -0.2187  0.5076 -1.7852
 3943SOL    HW315505   1.448   4.943   0.063 -1.2763 -0.7087 -0.8168
 3943SOL    MW415506   1.404   4.973   0.132 -0.2742 -0.5180  0.5001
 3944SOL     OW15507   3.744   1.407   3.215  0.2032 -0.1625 -0.2395
 3944SOL    HW215508   3.752   1.467   3.141 -0.8909 -0.2604 -0.4560
 3944SOL    HW315509   3.695   1.332   3.179 -0.7693  0.0083  0.6963
 3944SOL    MW415510   3.739   1.405   3.200 -0.0616 -0.0035  0.0243
 3945SOL     OW15511   4.996   0.145   4.792  0.2058 -0.2598 -0.7729
 3945SOL    HW215512   5.005   0.053   4.819  1.7546  0.2132  0.4966
 3945SOL    HW315513   4.961   0.190   4.869  0.8942  0.4669 -0.8718
 3945SOL    MW415514   4.993   0.139   4.805 -0.1125  0.7241  0.3354
 3946SOL     OW15515   3.941   4.289   3.085  0.5271 -0.4198 -0.3355
 3946SOL    HW215516   4.031   4.287   3.054  0.4453 -0.1112 -0.6011
 3946SOL    HW315517   3.906   4.202   3.064  0.6476 -0.4092 -0.5848
 3946SOL    MW415518   3.948   4.278   3.078 -0.3174  0.2474  0.0555
 3947SOL     OW15519   2.068   3.609   4.762  0.5875  0.6074 -0.3422
 3947SOL    HW215520   2.134   3.602   4.831  2.0428  1.4266 -1.5777
 3947SOL    HW315521   2.118   3.633   4.684 -1.3270  2.5919 -1.0605
 3947SOL    MW415522   2.084   3.612   4.761  0.9300 -0.1260 -0.1360
 3948SOL     OW15523   5.102   3.403   3.711  0.2667 -0.2226 -0.4304
 3948SOL    HW215524   5.151   3.470   3.663  1.4304 -1.2995 -0.8144
 3948SOL    HW315525   5.121   3.322   3.665 -3.0167 -0.5700 -1.4564
 3948SOL    MW415526   5.111   3.401   3.699 -0.4503 -0.4924  0.1784
 3949SOL     OW15527   5.845   0.316   2.984 -0.2875  0.7166  0.2250
 3949SOL    HW215528   5.837   0.240   2.927 -0.8328  1.6338 -0.9662
 3949SOL    HW315529   5.888   0.283   3.063  0.5491 -0.5857 -0.7371
 3949SOL    MW415530   5.850   0.302   2.987 -0.4832 -0.3240 -0.0380
 3950SOL     OW15531   5.013   0.858   1.068  0.4119  0.3360  0.0688
 3950SOL    HW215532   4.941   0.920   1.083 -0.9497 -1.2054  0.2028
 3950SOL    HW315533   5.064   0.860   1.148 -0.7053 -0.0702  0.8119
 3950SOL    MW415534   5.010   0.867   1.080 -0.0896  0.1892  0.4014
 3951SOL     OW15535   4.634   1.613   0.998 -0.1636 -0.1827 -0.2106
 3951SOL    HW215536   4.539   1.616   0.988 -0.0798  0.2977 -1.0410
 3951SOL    HW315537   4.652   1.529   1.039 -0.8534 -0.9584 -1.4209
 3951SOL    MW415538   4.624   1.602   1.002  0.6814 -0.2071 -0.3481
 3952SOL     OW15539   3.377   0.499   4.459  0.2259 -0.1647  0.0935
 3952SOL    HW215540   3.443   0.553   4.416  0.9193 -1.0268  0.0535
 3952SOL    HW315541   3.409   0.488   4.549 -0.2525  0.0432  0.2945
 3952SOL    MW415542   3.390   0.505   4.465 -0.1626 -0.1368  0.3506
 3953SOL     OW15543   5.710   5.744   3.863 -0.2513  0.3935 -0.0687
 3953SOL    HW215544   5.758   5.662   3.852  0.1830  0.8348 -1.8509
 3953SOL    HW315545   5.619   5.718   3.872  0.0345 -0.3371  0.8320
 3953SOL    MW415546   5.705   5.730   3.863 -0.4249  0.0155  0.3732
 3954SOL     OW15547   0.225   6.059   0.684  0.1856 -0.0169 -0.1536
 3954SOL    HW215548   0.241   6.153   0.685 -2.6946  0.5782  1.7566
 3954SOL    HW315549   0.292   6.022   0.743  1.2308  0.8085 -0.7931
 3954SOL    MW415550   0.236   6.066   0.692  0.4530 -0.2696  0.7274
 3955SOL     OW15551   4.217   4.881   3.641  0.4250 -0.3924  1.0180
 3955SOL    HW215552   4.188   4.971   3.628  1.1945 -0.2076  0.5316
 3955SOL    HW315553   4.271   4.862   3.565 -0.2145 -1.4768  0.8092
 3955SOL    MW415554   4.220   4.890   3.629 -0.5577  0.1227 -0.1713
 3956SOL     OW15555   3.662   1.009   6.194  0.4096 -0.2353  0.6053
 3956SOL    HW215556   3.586   0.997   6.136 -0.0762  0.2996  1.1191
 3956SOL    HW315557   3.737   0.993   6.137  0.0104  1.7680 -0.6033
 3956SOL    MW415558   3.662   1.005   6.179  0.2643 -0.1094  0.1730
 3957SOL     OW15559   1.690   4.292   3.011  0.0424 -0.2615 -0.0136
 3957SOL    HW215560   1.657   4.241   3.085 -0.4912  0.0871 -0.0066
 3957SOL    HW315561   1.760   4.238   2.974  0.0526 -0.6124  0.5103
 3957SOL    MW415562   1.695   4.278   3.016  0.1912 -0.0502  0.2161
 3958SOL     OW15563   2.447   2.149   4.268  0.1108  0.4958  0.9612
 3958SOL    HW215564   2.540   2.169   4.282  0.4694  0.0803 -0.5570
 3958SOL    HW315565   2.448   2.080   4.202 -1.2575 -0.4570  1.8944
 3958SOL    MW415566   2.460   2.143   4.261  0.2887 -0.0748  0.2013
 3959SOL     OW15567   0.368   4.403   1.210  0.3775 -0.3646 -0.4623
 3959SOL    HW215568   0.427   4.422   1.283 -1.3617 -1.3258  1.2816
 3959SOL    HW315569   0.380   4.477   1.150  0.8808  1.1851  1.4410
 3959SOL    MW415570   0.377   4.416   1.212 -0.3733 -0.4455 -0.8405
 3960SOL     OW15571   5.939   6.249   2.383 -0.2205  0.5997  0.0698
 3960SOL    HW215572   5.917   6.337   2.417 -1.3139  0.5429 -0.4410
 3960SOL    HW315573   6.034   6.251   2.370 -0.2863  1.8683 -0.3604
 3960SOL    MW415574   5.948   6.261   2.386 -0.1642 -0.1918 -0.5737
 3961SOL     OW15575   5.162   5.130   1.512  0.0545  0.6194  0.3512
 3961SOL    HW215576   5.209   5.055   1.546 -0.2680  0.5764  0.6980
 3961SOL    HW315577   5.149   5.110   1.419  0.3149  0.4246  0.3577
 3961SOL    MW415578   5.166   5.118   1.504  0.5695 -0.0600 -0.3629
 3962SOL     OW15579   3.329   2.837   0.451 -0.2473  0.1114 -0.0832
 3962SOL    HW215580   3.407   2.865   0.498 -0.5028  0.9143 -0.1271
 3962SOL    HW315581   3.363   2.788   0.375  0.1621 -1.4218  1.0312
 3962SOL    MW415582   3.344   2.834   0.447 -0.0440  0.3810 -0.4234
 3963SOL     OW15583   0.567   6.156   5.794 -0.6827  0.3744 -0.3535
 3963SOL    HW215584   0.661   6.169   5.792 -0.7595  0.8844 -1.2336
 3963SOL    HW315585   0.555   6.064   5.818  0.0657 -0.0584 -1.5814
 3963SOL    MW415586   0.577   6.146   5.797  0.4739 -0.0695 -0.0850
 3964SOL     OW15587   2.349   1.810   0.028  1.1023 -0.3701 -0.0147
 3964SOL    HW215588   2.322   1.836   0.116 -3.2597  1.7376 -1.6566
 3964SOL    HW315589   2.336   1.716   0.025  0.0484 -0.2905  1.2556
 3964SOL    MW415590   2.344   1.801   0.039  0.1860  0.1814 -0.0796
 3965SOL     OW15591   3.510   0.581   6.064  0.8281 -0.1650  0.1021
 3965SOL    HW215592   3.443   0.570   5.996  0.5896 -0.1041  0.3250
 3965SOL    HW315593   3.561   0.500   6.061  1.0936  0.0225 -0.4472
 3965SOL    MW415594   3.508   0.568   6.055  0.0106  0.1472 -0.6047
 3966SOL     OW15595   6.367   0.527   0.514  0.2947 -0.2458  0.1843
 3966SOL    HW215596   6.392   0.602   0.568  0.4836  0.7325 -1.2180
 3966SOL    HW315597   6.374   0.451   0.573  0.6145  0.7623  1.4787
 3966SOL    MW415598   6.371   0.527   0.529 -0.4491 -0.0457  0.4626
 3967SOL     OW15599   6.368   0.914   5.640  0.1689  0.0839  0.4496
 3967SOL    HW215600   6.293   0.856   5.631 -0.2004  0.4519  1.0347
 3967SOL    HW315601   6.412   0.884   5.720 -0.2952  0.8788  1.0296
 3967SOL    MW415602   6.364   0.902   5.650 -0.3444 -0.5266 -0.4538
 3968SOL     OW15603   3.925   6.044   4.164 -0.0710  0.8286  0.2562
 3968SOL    HW215604   4.019   6.035   4.182 -0.3280  0.3339  1.4452
 3968SOL    HW315605   3.898   5.958   4.132 -0.3198  0.6520  0.9259
 3968SOL    MW415606   3.934   6.032   4.162 -0.5517 -0.4618 -0.5806
 3969SOL     OW15607   4.104   2.942   0.415 -0.2378 -0.1105  0.3531
 3969SOL    HW215608   4.097   2.858   0.368 -0.5077 -0.7445  1.4865
 3969SOL    HW315609   4.081   3.008   0.350 -0.4308 -0.9526 -0.4531
 3969SOL    MW415610   4.100   2.939   0.400 -0.0114  0.0226  0.5906
 3970SOL     OW15611   4.847   1.945   5.452 -0.4194 -0.0633 -0.6037
 3970SOL    HW215612   4.880   1.868   5.406  2.0731  0.4758  0.1263
 3970SOL    HW315613   4.884   2.019   5.404  1.3919  0.5384  1.5598
 3970SOL    MW415614   4.856   1.945   5.439 -0.2303  0.5442 -0.1546
 3971SOL     OW15615   6.292   1.791   3.157  0.2752 -0.4442 -0.2204
 3971SOL    HW215616   6.311   1.770   3.248 -0.0344 -1.7181 -0.4255
 3971SOL    HW315617   6.377   1.784   3.112  0.2773 -0.6988 -0.1790
 3971SOL    MW415618   6.306   1.787   3.163 -0.2043 -0.1207  0.1079
 3972SOL     OW15619   4.593   0.685   2.911 -0.6195  0.2567  0.2467
 3972SOL    HW215620   4.554   0.720   2.992 -0.0523 -0.1173  0.6935
 3972SOL    HW315621   4.596   0.590   2.925 -0.9239  0.1494 -0.3998
 3972SOL    MW415622   4.588   0.677   2.924 -0.4531  0.7102  0.2833
 3973SOL     OW15623   2.173   6.414   4.872  0.1821 -0.0224  0.0004
 3973SOL    HW215624   2.195   6.506   4.867 -1.0096  0.4633  2.2892
 3973SOL    HW315625   2.254   6.370   4.898  0.6577  0.3875 -0.7493
 3973SOL    MW415626   2.186   6.420   4.875  0.4178  0.2721 -0.0858
 3974SOL     OW15627   5.208   5.436   2.390 -0.4658 -0.1729 -0.0820
 3974SOL    HW215628   5.124   5.459   2.430 -0.1905 -0.8987  0.9572
 3974SOL    HW315629   5.239   5.517   2.349 -0.4820  0.7709  1.6844
 3974SOL    MW415630   5.201   5.450   2.390 -0.2914 -0.0181  0.3920
 3975SOL     OW15631   4.954   3.473   3.162  0.2869 -0.1353  0.1778
 3975SOL    HW215632   4.923   3.517   3.083  1.5086 -0.6655 -0.6269
 3975SOL    HW315633   5.027   3.528   3.192 -0.5731  0.4199  1.3349
 3975SOL    MW415634   4.959   3.486   3.155 -0.3719 -1.0589  0.1935
 3976SOL     OW15635   1.315   0.097   6.241 -0.6354 -0.0828  0.1909
 3976SOL    HW215636   1.326   0.176   6.294  0.0463 -0.9964  1.4741
 3976SOL    HW315637   1.327   0.025   6.303  1.8504 -1.2390 -1.4384
 3976SOL    MW415638   1.318   0.098   6.256  0.0724 -0.2811  0.2846
 3977SOL     OW15639   5.650   0.518   6.363 -0.3952 -0.5015  0.4357
 3977SOL    HW215640   5.721   0.568   6.404 -0.6492 -0.0158  0.2969
 3977SOL    HW315641   5.590   0.585   6.330 -1.5645 -0.8937  1.6592
 3977SOL    MW415642   5.651   0.534   6.364  0.4523  0.3364 -0.7566
 3978SOL     OW15643   5.100   4.349   6.290 -0.0278 -0.6514 -0.6332
 3978SOL    HW215644   5.081   4.307   6.374  2.0263 -1.1251 -0.3645
 3978SOL    HW315645   5.142   4.431   6.313 -0.6584 -0.1485 -1.2160
 3978SOL    MW415646   5.103   4.354   6.304  0.0239 -0.0542 -0.1893
 3979SOL     OW15647   2.771   5.308   4.819  0.1571  1.2099  0.3612
 3979SOL    HW215648   2.857   5.320   4.857  0.8986 -1.4242 -0.2611
 3979SOL    HW315649   2.786   5.303   4.725 -0.2309 -1.5072  0.3462
 3979SOL    MW415650   2.784   5.309   4.812 -0.2497 -0.2297 -0.5416
 3980SOL     OW15651   5.932   4.093   1.666  0.2990  0.1208 -0.0904
 3980SOL    HW215652   6.027   4.103   1.671  0.3570  0.1869 -1.0628
 3980SOL    HW315653   5.918   4.000   1.648  0.0581 -0.3458  2.1981
 3980SOL    MW415654   5.943   4.082   1.664 -0.1219  0.5807 -0.1982
 3981SOL     OW15655   4.778   5.739   5.614  0.5575 -0.0270 -0.0783
 3981SOL    HW215656   4.800   5.815   5.561  0.5242  0.8685  1.1745
 3981SOL    HW315657   4.774   5.667   5.551  3.8806  0.3212 -0.8388
 3981SOL    MW415658   4.780   5.739   5.598  0.2632  0.2084 -0.1207
 3982SOL     OW15659   2.966   6.328   5.315  0.5205 -0.4459  0.2275
 3982SOL    HW215660   2.942   6.415   5.281 -1.7426 -1.0717  0.0520
 3982SOL    HW315661   2.901   6.310   5.382  1.5460 -1.6319  0.9479
 3982SOL    MW415662   2.954   6.337   5.319  0.1426  0.4617 -0.1048
 3983SOL     OW15663   1.333   6.101   5.020  0.1021 -0.5403 -0.3548
 3983SOL    HW215664   1.408   6.101   5.080 -0.3208 -0.5232  0.1722
 3983SOL    HW315665   1.258   6.121   5.074 -0.1808  0.2922 -1.0294
 3983SOL    MW415666   1.333   6.104   5.035 -0.2116 -0.6485  0.3099
 3984SOL     OW15667   3.324   1.848   6.095 -0.3775 -0.4872 -0.2629
 3984SOL    HW215668   3.414   1.830   6.123 -0.0147  1.3173 -0.0900
 3984SOL    HW315669   3.334   1.900   6.015 -1.2233  0.2367  0.0793
 3984SOL    MW415670   3.337   1.853   6.088 -0.0442  0.1345  0.0915
 3985SOL     OW15671   4.822   6.304   0.933  0.2449  0.1614  0.0652
 3985SOL    HW215672   4.736   6.312   0.892 -0.6275 -0.5228  1.6574
 3985SOL    HW315673   4.839   6.390   0.973 -1.0194 -0.4557  2.0942
 3985SOL    MW415674   4.813   6.317   0.933 -0.3156  0.1985 -0.6947
 3986SOL     OW15675   1.243   6.318   0.319  0.4069 -0.6528  0.4484
 3986SOL    HW215676   1.301   6.247   0.295  3.2228  2.0398 -1.4336
 3986SOL    HW315677   1.296   6.375   0.374 -1.6055  0.2874  1.5378
 3986SOL    MW415678   1.257   6.316   0.323 -0.7138  0.3632 -0.5722
 3987SOL     OW15679   1.859   4.498   4.617  0.1717  0.2415  0.1620
 3987SOL    HW215680   1.951   4.517   4.600  0.4744 -0.7343  0.6507
 3987SOL    HW315681   1.853   4.402   4.614 -0.5235  0.2052  1.5516
 3987SOL    MW415682   1.871   4.488   4.615  0.0269 -0.1811  0.2750
 3988SOL     OW15683   4.005   1.761   3.481 -0.2102 -0.1907 -0.2033
 3988SOL    HW215684   3.916   1.798   3.480 -0.7290 -1.3886 -1.4735
 3988SOL    HW315685   4.048   1.801   3.406  0.1956  0.0510  0.1516
 3988SOL    MW415686   3.999   1.771   3.471  0.1277 -0.0173 -0.0617
 3989SOL     OW15687   3.194   5.534   0.062  0.3205 -0.1325  0.1396
 3989SOL    HW215688   3.119   5.581   0.025  1.0074  1.1627  0.3329
 3989SOL    HW315689   3.240   5.499  -0.014 -0.1009 -0.3406 -0.0218
 3989SOL    MW415690   3.191   5.536   0.047 -0.2355 -0.1122  0.3182
 3990SOL     OW15691   4.663   1.228   2.160 -0.5527 -0.1359 -0.0588
 3990SOL    HW215692   4.690   1.279   2.084 -0.4613  1.2477  0.8670
 3990SOL    HW315693   4.577   1.194   2.137 -0.5796  0.3706 -0.7384
 3990SOL    MW415694   4.655   1.230   2.147 -0.2125  0.0929 -0.0089
 3991SOL     OW15695   4.637   1.920   3.876 -0.3078 -0.2723  0.3947
 3991SOL    HW215696   4.561   1.888   3.829  0.0225 -0.1156 -0.2553
 3991SOL    HW315697   4.712   1.894   3.821  0.0058  1.0443  0.1705
 3991SOL    MW415698   4.637   1.912   3.863  0.1873  0.3960 -0.2885
 3992SOL     OW15699   0.331   3.247   4.259 -0.0519  0.0940  0.2200
 3992SOL    HW215700   0.282   3.244   4.177 -1.0475 -3.1421  0.7919
 3992SOL    HW315701   0.274   3.296   4.319 -0.3421  0.5436 -0.4085
 3992SOL    MW415702   0.317   3.253   4.256 -0.0854  0.5542 -0.0011
 3993SOL     OW15703   2.718   1.706   5.829  0.0873  0.0121  0.0303
 3993SOL    HW215704   2.732   1.751   5.913 -0.2995  1.6215 -0.7265
 3993SOL    HW315705   2.771   1.627   5.835  0.0764  0.1022  1.7901
 3993SOL    MW415706   2.727   1.701   5.841  0.1253 -0.1502 -0.0694
 3994SOL     OW15707   0.660   2.111   4.944 -0.1575 -0.0291  0.2177
 3994SOL    HW215708   0.649   2.078   4.855 -0.1440  1.1713 -0.2432
 3994SOL    HW315709   0.587   2.073   4.993 -1.5010  1.0845 -0.8408
 3994SOL    MW415710   0.649   2.102   4.939 -0.4721 -0.3683  0.3791
 3995SOL     OW15711   6.091   2.207   3.914 -0.6862  0.4887 -0.0273
 3995SOL    HW215712   6.098   2.294   3.875 -1.0888 -0.3462 -2.1148
 3995SOL    HW315713   6.049   2.222   3.999 -0.8329  2.3161 -0.3833
 3995SOL    MW415714   6.086   2.220   3.920 -0.6704 -0.1045  0.4778
 3996SOL     OW15715   3.699   5.253   1.778 -0.0674 -0.0072 -0.1465
 3996SOL    HW215716   3.653   5.323   1.824 -0.8333  0.5473 -1.7022
 3996SOL    HW315717   3.791   5.264   1.803 -0.4143  0.4435  1.0014
 3996SOL    MW415718   3.705   5.264   1.787 -0.2937 -0.0666  0.1661
 3997SOL     OW15719   2.764   3.005   0.584  0.6548  0.0090 -0.3069
 3997SOL    HW215720   2.740   2.928   0.635  1.8173 -0.3271 -0.2533
 3997SOL    HW315721   2.686   3.023   0.531  0.3544 -1.1820 -0.3026
 3997SOL    MW415722   2.750   2.997   0.584 -0.3230  0.3236  0.0778
 3998SOL     OW15723   4.215   2.790   3.931  0.1820 -0.0490  0.0117
 3998SOL    HW215724   4.243   2.768   4.020  0.2932 -3.6280 -0.7545
 3998SOL    HW315725   4.295   2.789   3.879  0.4270  3.9603  0.0050
 3998SOL    MW415726   4.229   2.787   3.936 -0.1142  0.4442  0.7171
 3999SOL     OW15727   3.976   5.252   1.826  0.2986  0.2403  0.0067
 3999SOL    HW215728   3.951   5.197   1.900 -0.9717 -1.0712 -1.3328
 3999SOL    HW315729   3.968   5.342   1.858 -3.3509 -0.1439  0.6069
 3999SOL    MW415730   3.972   5.257   1.840 -0.2655  0.8957  0.2153
 4000SOL     OW15731   5.386   0.992   0.941  0.4341  0.3925 -0.1299
 4000SOL    HW215732   5.481   0.999   0.945  0.5085 -0.3643 -0.4537
 4000SOL    HW315733   5.367   0.899   0.956 -0.1868  0.3519 -1.0698
 4000SOL    MW415734   5.396   0.981   0.943 -0.3394  0.5723  0.2661
 4001SOL     OW15735   2.085   0.668   5.292  0.1257 -0.0254 -0.3385
 4001SOL    HW215736   2.161   0.611   5.306 -0.2350 -0.4744 -0.1409
 4001SOL    HW315737   2.120   0.746   5.251  0.7066 -0.1930 -0.1724
 4001SOL    MW415738   2.100   0.671   5.288  0.1181 -0.6112 -0.0213
 4002SOL     OW15739   5.412   1.862   1.881  0.2735  0.6809 -0.0332
 4002SOL    HW215740   5.458   1.904   1.954  0.6001  0.4600 -0.1072
 4002SOL    HW315741   5.341   1.922   1.860 -0.3445  0.3428  1.0174
 4002SOL    MW415742   5.409   1.875   1.888 -0.2015  0.4657  0.3045
 4003SOL     OW15743   0.523   2.947   4.829  0.0746 -0.0822 -0.5398
 4003SOL    HW215744   0.508   3.040   4.848  0.0282 -0.2661  0.3617
 4003SOL    HW315745   0.554   2.946   4.738  1.5848  0.9724 -0.0704
 4003SOL    MW415746   0.525   2.959   4.819  0.1140 -0.1649  0.7130
 4004SOL     OW15747   4.433   5.994   5.102 -0.2927  0.0573  0.5681
 4004SOL    HW215748   4.338   6.007   5.107 -0.2580  1.3206 -0.9755
 4004SOL    HW315749   4.447   5.955   5.016  0.5550 -0.6041  0.9924
 4004SOL    MW415750   4.422   5.991   5.091  0.0267  0.2227  0.5632
 4005SOL     OW15751   4.273   5.193   1.850  0.1296  0.7338  0.0647
 4005SOL    HW215752   4.291   5.164   1.939  1.3799 -0.9724 -0.6815
 4005SOL    HW315753   4.178   5.204   1.847 -0.0691 -0.3625  1.2791
 4005SOL    MW415754   4.263   5.191   1.861  0.6716 -0.1584  0.1175
 4006SOL     OW15755   5.516   0.619   3.712  0.3968  0.2696 -0.0719
 4006SOL    HW215756   5.546   0.625   3.803  0.6161  0.5452 -0.1607
 4006SOL    HW315757   5.421   0.630   3.718  0.1777 -1.5587  0.3000
 4006SOL    MW415758   5.507   0.621   3.725  0.4660 -0.0462  0.6456
 4007SOL     OW15759   1.505   3.478   6.378  0.4447 -0.0642 -0.4251
 4007SOL    HW215760   1.527   3.517   6.462 -0.4570  2.5148 -1.2916
 4007SOL    HW315761   1.588   3.446   6.344  1.1153  0.4478  0.6629
 4007SOL    MW415762   1.519   3.479   6.385 -0.3138  0.3946  0.7659
 4008SOL     OW15763   1.807   3.917   2.138  0.4226 -0.4011 -0.0007
 4008SOL    HW215764   1.734   3.977   2.150  1.1369  0.2254  1.4727
 4008SOL    HW315765   1.804   3.860   2.214  1.2435 -0.6257 -0.1271
 4008SOL    MW415766   1.797   3.918   2.149  0.3304 -0.4719 -0.3948
 4009SOL     OW15767   3.505   4.860   5.701 -0.3496  0.2119 -0.4721
 4009SOL    HW215768   3.483   4.935   5.646 -1.2272 -0.3536 -0.9042
 4009SOL    HW315769   3.430   4.849   5.759  0.4975  0.6970  0.7399
 4009SOL    MW415770   3.492   4.868   5.701 -0.4855  0.3397 -0.6176
 4010SOL     OW15771   4.502   0.185   6.193  0.3092 -1.1849 -1.0089
 4010SOL    HW215772   4.573   0.174   6.129  1.0320 -1.4273 -0.1823
 4010SOL    HW315773   4.423   0.160   6.145  0.8658 -1.6073 -1.7379
 4010SOL    MW415774   4.501   0.180   6.178  0.0245  0.1609 -0.1921
 4011SOL     OW15775   4.683   4.186   0.389  0.0957  0.4276 -0.0388
 4011SOL    HW215776   4.638   4.104   0.369 -5.0834  2.3464  2.1787
 4011SOL    HW315777   4.739   4.164   0.464 -0.7029 -1.2331  0.1244
 4011SOL    MW415778   4.685   4.172   0.396  0.1284  0.1638  0.6218
 4012SOL     OW15779   5.516   5.381   3.734 -0.3898  0.9014  0.1151
 4012SOL    HW215780   5.485   5.291   3.735 -0.3958  0.9074  0.3250
 4012SOL    HW315781   5.547   5.398   3.823  0.7318  0.7068 -0.2127
 4012SOL    MW415782   5.516   5.372   3.746 -0.3844  0.1587  0.9293
 4013SOL     OW15783   1.746   3.981   4.207 -0.9983  0.6460  0.2848
 4013SOL    HW215784   1.831   3.994   4.249 -1.2781  0.8076  0.8135
 4013SOL    HW315785   1.752   4.029   4.124 -0.0109 -0.6877 -0.4544
 4013SOL    MW415786   1.758   3.989   4.202  0.0448 -0.2011 -0.3227
 4014SOL     OW15787   0.912   3.524   2.519 -0.0373  0.0232 -0.3956
 4014SOL    HW215788   0.900   3.581   2.443  0.9960  1.0012  0.1508
 4014SOL    HW315789   0.914   3.584   2.594 -2.0089 -0.9974  0.5463
 4014SOL    MW415790   0.911   3.539   2.518 -0.3158  0.3760  0.0424
 4015SOL     OW15791   2.103   5.565   0.796  0.0072 -0.7978  0.2030
 4015SOL    HW215792   2.116   5.602   0.709 -2.8443  1.7234  0.6819
 4015SOL    HW315793   2.054   5.484   0.781 -0.2861 -0.4835 -0.5682
 4015SOL    MW415794   2.098   5.559   0.783  0.0221  0.3840 -0.2239
 4016SOL     OW15795   2.564   3.923   5.760  0.2994  0.6509  0.1472
 4016SOL    HW215796   2.616   3.997   5.791 -0.6895  0.7995  1.5659
 4016SOL    HW315797   2.628   3.857   5.735  1.1828  1.4189  0.3094
 4016SOL    MW415798   2.579   3.924   5.761  0.0032 -0.1007  0.0203
 4017SOL     OW15799   0.156   0.200   6.348  0.2381  0.1589 -0.0336
 4017SOL    HW215800   0.110   0.171   6.269  0.3379 -0.5085  0.1441
 4017SOL    HW315801   0.119   0.286   6.367  0.0763  0.2461 -0.6971
 4017SOL    MW415802   0.145   0.207   6.340  0.7922 -0.2879 -0.4199
 4018SOL     OW15803   0.547   4.270   5.282  0.0123 -0.1254  0.1514
 4018SOL    HW215804   0.583   4.192   5.240  0.8518  0.2520  0.1593
 4018SOL    HW315805   0.470   4.239   5.328 -0.4147 -0.7136 -0.9205
 4018SOL    MW415806   0.541   4.256   5.282 -0.0921 -0.0414  0.1557
 4019SOL     OW15807   2.865   5.440   3.478 -0.7061  0.1826 -0.4283
 4019SOL    HW215808   2.850   5.346   3.477 -1.6341  0.3093  0.3264
 4019SOL    HW315809   2.781   5.477   3.506  0.5334  1.0410  2.5541
 4019SOL    MW415810   2.852   5.433   3.482 -0.6820 -0.0164 -0.0668
 4020SOL     OW15811   2.352   0.133   6.383  0.1391 -0.1959 -0.9800
 4020SOL    HW215812   2.291   0.071   6.423  2.3043 -1.8479 -0.0374
 4020SOL    HW315813   2.329   0.218   6.422 -0.5306 -1.0418  0.5630
 4020SOL    MW415814   2.341   0.136   6.393  0.4348  0.2756 -0.3459
 4021SOL     OW15815   6.132   5.773   1.468 -0.5725 -0.0800  0.3457
 4021SOL    HW215816   6.165   5.719   1.396  0.1343  0.7677  0.0166
 4021SOL    HW315817   6.114   5.711   1.538  3.7807 -0.4769  1.3489
 4021SOL    MW415818   6.134   5.758   1.468  0.0874 -0.2106  0.2511
 4022SOL     OW15819   5.631   4.222   1.064 -0.2530  0.7108 -0.2643
 4022SOL    HW215820   5.587   4.300   1.098 -0.8224  0.6662 -0.8802
 4022SOL    HW315821   5.565   4.178   1.010  0.1766  0.0031 -0.2347
 4022SOL    MW415822   5.617   4.226   1.061 -0.8911  0.2857  0.4733
 4023SOL     OW15823   5.072   0.400   2.913 -0.2540 -0.3046 -0.2836
 4023SOL    HW215824   4.996   0.432   2.864 -1.3380  1.2635  2.1610
 4023SOL    HW315825   5.127   0.478   2.924  0.7179 -0.9737 -0.3088
 4023SOL    MW415826   5.069   0.415   2.908  0.1079 -0.2454 -0.5315
 4024SOL     OW15827   4.562   4.527   3.392  0.1572  0.5033  0.2091
 4024SOL    HW215828   4.608   4.447   3.418 -0.4879  0.6614  1.9661
 4024SOL    HW315829   4.482   4.495   3.349  1.4216  0.2379 -2.1170
 4024SOL    MW415830   4.557   4.512   3.390  0.2694  0.3423 -0.2747
 4025SOL     OW15831   0.058   1.712   1.031  0.0610 -0.4006 -0.7326
 4025SOL    HW215832   0.122   1.683   0.966  0.5339 -0.4256 -0.2579
 4025SOL    HW315833  -0.013   1.648   1.023 -0.9338  0.8769 -2.7925
 4025SOL    MW415834   0.057   1.699   1.022 -0.2260  0.3980  0.0679
 4026SOL     OW15835   5.034   2.108   2.347 -0.0596  0.0006 -0.5396
 4026SOL    HW215836   5.104   2.126   2.284 -0.0261 -0.1838 -0.5556
 4026SOL    HW315837   5.051   2.018   2.377 -0.5965 -0.2388 -0.9444
 4026SOL    MW415838   5.046   2.098   2.343  0.1017  0.3149  0.2110
 4027SOL     OW15839   2.161   3.338   0.835 -0.4844 -0.4430  0.0610
 4027SOL    HW215840   2.205   3.332   0.920 -1.5550 -0.5560  0.6166
 4027SOL    HW315841   2.232   3.356   0.773  0.1946  0.6627  1.1123
 4027SOL    MW415842   2.176   3.340   0.838 -0.0271  0.1555 -0.3993
 4028SOL     OW15843   3.015   1.753   1.912 -0.1982  0.2085 -0.5500
 4028SOL    HW215844   3.060   1.707   1.841  1.0372  0.9638 -0.2795
 4028SOL    HW315845   2.931   1.709   1.919 -0.8268  0.8132 -3.2268
 4028SOL    MW415846   3.010   1.741   1.903 -0.1867  0.0156 -0.1263
 4029SOL     OW15847   4.855   4.782   4.190  0.3801  0.1969  0.0650
 4029SOL    HW215848   4.865   4.790   4.285  2.1462  2.2447 -0.2018
 4029SOL    HW315849   4.773   4.828   4.171  0.5576  0.7141  0.5163
 4029SOL    MW415850   4.846   4.789   4.201 -0.0790 -0.5108 -0.2018
 4030SOL     OW15851   3.591   4.334   3.189 -0.5505 -0.3262  1.3340
 4030SOL    HW215852   3.666   4.290   3.229  1.3782  0.0958 -1.5334
 4030SOL    HW315853   3.532   4.263   3.164 -1.2302 -0.6631  3.6316
 4030SOL    MW415854   3.593   4.319   3.191  0.0183  0.5424 -0.1157
 4031SOL     OW15855   5.002   1.847   6.107  0.4977  0.3219  0.3996
 4031SOL    HW215856   4.932   1.883   6.054  1.3066 -0.1874 -1.0772
 4031SOL    HW315857   5.044   1.924   6.146 -0.4939  0.6613  0.8325
 4031SOL    MW415858   4.999   1.862   6.105 -0.1286 -0.0727  0.7305
 4032SOL     OW15859   0.633   0.446   5.915 -0.3404  0.3126 -0.1142
 4032SOL    HW215860   0.580   0.426   5.838  0.5745 -0.3602 -0.5948
 4032SOL    HW315861   0.690   0.370   5.925  0.7741  1.1595  0.1706
 4032SOL    MW415862   0.634   0.433   5.906  0.3466 -0.4024  0.1738
 4033SOL     OW15863   2.114   3.700   1.146 -0.0139 -0.3661 -0.4976
 4033SOL    HW215864   2.077   3.709   1.234 -1.6620 -0.3541 -1.1607
 4033SOL    HW315865   2.068   3.625   1.109  0.9498 -0.6126 -1.2267
 4033SOL    MW415866   2.103   3.691   1.153 -0.8649  0.3449 -0.4278
 4034SOL     OW15867   3.937   2.248   4.893 -0.1179  0.3630  0.3999
 4034SOL    HW215868   3.959   2.315   4.957 -2.2352  0.2124  1.4070
 4034SOL    HW315869   3.844   2.231   4.909 -0.5736 -0.1194 -2.3526
 4034SOL    MW415870   3.927   2.254   4.904  0.5839 -0.1746  0.3235
 4035SOL     OW15871   3.716   0.350   3.451  0.6455 -0.6124 -0.0812
 4035SOL    HW215872   3.758   0.415   3.396  0.7341 -1.9478 -1.6814
 4035SOL    HW315873   3.623   0.357   3.430  0.2999  0.7461  1.7100
 4035SOL    MW415874   3.709   0.359   3.441 -0.0438 -0.8212  0.1962
 4036SOL     OW15875   4.918   4.165   2.528 -0.0228  0.2477  0.4458
 4036SOL    HW215876   4.960   4.106   2.466 -2.7235  0.0213 -1.2731
 4036SOL    HW315877   4.895   4.109   2.603  0.2652 -0.1763  0.2211
 4036SOL    MW415878   4.921   4.150   2.530 -0.1275 -0.3035 -0.2024
 4037SOL     OW15879   0.148   6.022   4.415 -1.0532  0.2965 -1.3640
 4037SOL    HW215880   0.165   5.941   4.464  1.7898  1.8171  0.5028
 4037SOL    HW315881   0.177   6.003   4.326 -0.0626 -0.6706 -0.8586
 4037SOL    MW415882   0.154   6.009   4.410 -0.0316 -0.5297  0.1984
 4038SOL     OW15883   0.287   0.774   1.869  0.0951  0.4341  0.0989
 4038SOL    HW215884   0.281   0.858   1.914 -2.3101  0.6030 -0.4083
 4038SOL    HW315885   0.241   0.787   1.786  0.3580 -1.1517 -0.3319
 4038SOL    MW415886   0.280   0.787   1.864 -0.0890 -0.0757 -0.4738
 4039SOL     OW15887   5.970   5.188   1.466  0.1219 -0.2065 -0.2756
 4039SOL    HW215888   5.970   5.195   1.562 -1.1860 -2.1685 -0.0703
 4039SOL    HW315889   5.877   5.186   1.442  0.4057 -1.3605 -1.4092
 4039SOL    MW415890   5.958   5.189   1.475  0.3534  0.4981 -0.1297
 4040SOL     OW15891   2.554   3.083   0.411 -0.3242 -0.0929 -0.4682
 4040SOL    HW215892   2.528   3.021   0.343  0.3134  0.2591 -1.0444
 4040SOL    HW315893   2.545   3.169   0.370  1.0867  0.0728 -0.4837
 4040SOL    MW415894   2.549   3.086   0.396 -0.4162  0.3104  0.2626
 4041SOL     OW15895   2.016   3.349   2.478  0.0177 -0.4916 -0.0705
 4041SOL    HW215896   2.083   3.349   2.546 -1.2671  1.9871  1.3368
 4041SOL    HW315897   2.045   3.417   2.416  0.3618 -1.6164 -1.1894
 4041SOL    MW415898   2.029   3.358   2.478  0.2438  0.3623  0.2981
 4042SOL     OW15899   1.063   0.513   5.713  0.2871 -0.3374  0.0309
 4042SOL    HW215900   1.081   0.428   5.752  0.9120 -0.4533 -0.4887
 4042SOL    HW315901   1.010   0.493   5.636  0.9932 -0.3192 -0.4627
 4042SOL    MW415902   1.058   0.499   5.708 -0.3013  0.1099  0.4136
 4043SOL     OW15903   1.451   3.182   4.034  0.2340  0.1480 -0.4381
 4043SOL    HW215904   1.490   3.263   4.002  1.1171  0.3572  1.0998
 4043SOL    HW315905   1.511   3.113   4.006  0.8009  0.2900  0.4142
 4043SOL    MW415906   1.464   3.184   4.026  0.3926  0.4079  0.2818
 4044SOL     OW15907   3.091   2.878   0.057  0.3027  0.2647  0.1360
 4044SOL    HW215908   3.183   2.870   0.083  0.6905  0.9993 -0.9371
 4044SOL    HW315909   3.067   2.790   0.028  1.3476  0.4859 -1.6088
 4044SOL    MW415910   3.100   2.865   0.057  0.3866  0.2808  0.5806
 4045SOL     OW15911   5.205   1.389   4.334 -0.5754 -0.8565  0.0445
 4045SOL    HW215912   5.220   1.459   4.398 -0.1570  0.2023 -1.1483
 4045SOL    HW315913   5.280   1.331   4.343 -0.6096 -0.8096  0.6312
 4045SOL    MW415914   5.217   1.391   4.344 -0.4292  0.2578 -0.1419
 4046SOL     OW15915   2.443   5.245   1.904 -0.0671  0.1662 -0.3911
 4046SOL    HW215916   2.474   5.248   1.994  1.0332  1.5795 -0.7722
 4046SOL    HW315917   2.354   5.211   1.910  0.4921 -1.1811  1.0600
 4046SOL    MW415918   2.435   5.241   1.917 -0.0226 -0.1169  0.0583
 4047SOL     OW15919   5.973   0.459   3.861  0.5423 -0.2182 -0.0782
 4047SOL    HW215920   6.058   0.499   3.881  0.5092  1.2246 -2.4262
 4047SOL    HW315921   5.994   0.368   3.839  1.1890 -0.4248  1.3039
 4047SOL    MW415922   5.987   0.452   3.861 -0.1239  0.1933  0.0198
 4048SOL     OW15923   4.677   3.217   3.598  0.4764  0.5165  0.0215
 4048SOL    HW215924   4.723   3.220   3.514 -0.9296  0.5446 -0.7846
 4048SOL    HW315925   4.636   3.131   3.601 -0.4820  0.9543  0.1007
 4048SOL    MW415926   4.678   3.206   3.588 -0.1153 -0.6752  0.0242
 4049SOL     OW15927   0.573   3.862   4.557  0.0149 -0.1446 -0.0648
 4049SOL    HW215928   0.593   3.936   4.613 -0.7386  0.0920 -0.1120
 4049SOL    HW315929   0.522   3.802   4.612 -0.4856 -0.0386 -0.4065
 4049SOL    MW415930   0.569   3.864   4.572  0.5892 -0.1750  0.1231
 4050SOL     OW15931   1.965   6.182   1.126  0.2262 -0.6782 -0.1001
 4050SOL    HW215932   1.871   6.182   1.147  0.3466 -0.1911  0.4826
 4050SOL    HW315933   1.972   6.127   1.048 -0.3776 -1.7966  0.6026
 4050SOL    MW415934   1.953   6.175   1.119 -0.4091  0.6802  0.0491
 4051SOL     OW15935   6.417   1.963   0.600  0.3067 -0.0490  0.3210
 4051SOL    HW215936   6.423   1.868   0.607 -0.3341 -0.2343 -1.1323
 4051SOL    HW315937   6.463   1.996   0.676  0.8994 -1.5210  0.6347
 4051SOL    MW415938   6.424   1.955   0.611 -0.6299  0.2076  0.4784
 4052SOL     OW15939   3.561   5.066   0.091 -0.1249  0.7382 -0.4219
 4052SOL    HW215940   3.548   5.157   0.065  1.0188  1.2082  0.5344
 4052SOL    HW315941   3.596   5.071   0.180 -1.7666 -0.7240  0.3654
 4052SOL    MW415942   3.564   5.079   0.100  0.2114  0.1228  0.0737
 4053SOL     OW15943   5.007   3.885   3.734  0.1353  0.3566  0.0686
 4053SOL    HW215944   5.033   3.859   3.822  1.4811 -1.6972 -0.8661
 4053SOL    HW315945   4.933   3.829   3.713  0.2219  0.3939 -0.3449
 4053SOL    MW415946   5.000   3.874   3.743 -0.3566 -0.2425  0.2024
 4054SOL     OW15947   5.479   5.412   0.221  0.1931  0.8649  0.1578
 4054SOL    HW215948   5.451   5.450   0.138 -0.2170 -0.7478 -0.4910
 4054SOL    HW315949   5.564   5.452   0.238 -0.7754  3.0394  0.2380
 4054SOL    MW415950   5.486   5.422   0.212 -0.3959  0.0629 -0.3139
 4055SOL     OW15951   6.228   6.203   2.215  0.5877 -0.1612 -0.2124
 4055SOL    HW215952   6.292   6.224   2.283  3.5757 -0.5648 -2.6951
 4055SOL    HW315953   6.196   6.116   2.238  2.6887 -0.9439 -0.0723
 4055SOL    MW415954   6.232   6.194   2.227  0.2817 -0.6866  0.0458
 4056SOL     OW15955   1.440   6.349   1.826  0.7739 -0.3358  0.1701
 4056SOL    HW215956   1.397   6.323   1.908  1.9112 -0.5657  0.7079
 4056SOL    HW315957   1.458   6.267   1.782 -1.0289 -0.1726 -0.9739
 4056SOL    MW415958   1.437   6.335   1.831  0.5103 -0.4036  0.8115
 4057SOL     OW15959   0.365   3.340   0.163  0.4437 -0.8558 -0.1653
 4057SOL    HW215960   0.431   3.343   0.093  0.2124 -2.0343 -0.4483
 4057SOL    HW315961   0.283   3.323   0.118 -0.3510  2.0052  0.0327
 4057SOL    MW415962   0.363   3.338   0.148  0.0383 -0.4364  0.1491
 4058SOL     OW15963   0.542   0.214   4.673 -0.6216  0.1715 -0.6595
 4058SOL    HW215964   0.486   0.250   4.604 -1.4143 -1.7111 -1.0684
 4058SOL    HW315965   0.618   0.178   4.625 -1.0726 -0.9521 -0.5518
 4058SOL    MW415966   0.545   0.214   4.657 -0.2620  0.0561  0.6401
 4059SOL     OW15967   6.241   4.959   1.870 -0.0450  0.3902 -0.5254
 4059SOL    HW215968   6.318   4.906   1.893  0.7218  1.8034  0.3084
 4059SOL    HW315969   6.248   4.970   1.775 -0.3735 -1.1987 -0.7573
 4059SOL    MW415970   6.252   4.953   1.860  0.0982  0.4983  0.2103
 4060SOL     OW15971   4.467   1.717   3.414 -0.2182 -0.2959 -0.4805
 4060SOL    HW215972   4.531   1.774   3.372  2.3035 -1.4948  1.5052
 4060SOL    HW315973   4.468   1.743   3.507 -1.8077 -1.1101 -0.1888
 4060SOL    MW415974   4.475   1.728   3.421  0.0133  0.0518 -0.1695
 4061SOL     OW15975   3.406   0.065   2.049 -0.4240  0.2269 -0.6282
 4061SOL    HW215976   3.311   0.052   2.047 -0.4253  0.1517 -0.1763
 4061SOL    HW315977   3.421   0.141   1.992 -0.8442  0.7459 -0.0563
 4061SOL    MW415978   3.396   0.074   2.041 -0.5258  0.0445  0.2754
 4062SOL     OW15979   5.160   2.605   0.063  0.3680 -0.1619 -0.3141
 4062SOL    HW215980   5.227   2.611   0.132 -0.9919  1.0545  0.9761
 4062SOL    HW315981   5.079   2.584   0.111 -0.6021  0.6462 -1.5596
 4062SOL    MW415982   5.158   2.603   0.079  0.3534  0.4964 -0.1495
 4063SOL     OW15983   2.682   3.449   6.005  0.0032  0.3903 -0.4778
 4063SOL    HW215984   2.733   3.421   5.929 -1.0896  1.9822 -1.8678
 4063SOL    HW315985   2.597   3.407   5.993 -0.3590  1.1024 -0.4528
 4063SOL    MW415986   2.677   3.440   5.994 -0.0769 -0.3086  0.5639
 4064SOL     OW15987   4.925   2.632   3.841 -0.1214 -0.4239 -0.6195
 4064SOL    HW215988   4.976   2.628   3.923  1.1609 -0.9877 -1.4175
 4064SOL    HW315989   4.870   2.710   3.852  1.2846  0.5161  0.0904
 4064SOL    MW415990   4.925   2.642   3.854  0.2056  0.0070 -0.1261
 4065SOL     OW15991   0.963   5.547   3.102  0.9839 -0.2082 -0.2899
 4065SOL    HW215992   1.005   5.526   3.186  3.9673  1.2876 -1.2473
 4065SOL    HW315993   1.013   5.622   3.069 -0.3471 -0.4801 -3.2108
 4065SOL    MW415994   0.975   5.554   3.109 -0.0004 -0.2587 -0.1147
 4066SOL     OW15995   4.031   5.578   2.497  0.3227  0.7786 -0.1740
 4066SOL    HW215996   3.971   5.614   2.562 -0.3429 -0.3538 -0.1395
 4066SOL    HW315997   3.984   5.585   2.414 -0.3496 -1.1199  0.0089
 4066SOL    MW415998   4.017   5.584   2.495 -0.0134  0.2560  0.6957
 4067SOL     OW15999   1.446   4.252   2.866 -0.5074  0.0896  0.0380
 4067SOL    HW216000   1.531   4.262   2.909 -0.5030  0.1797  0.0083
 4067SOL    HW316001   1.390   4.213   2.932  0.1688 -2.1598 -0.6264
 4067SOL    MW416002   1.450   4.248   2.880 -0.5037  1.1832  0.7205
 4068SOL     OW16003   2.423   5.575   5.996 -0.1539 -0.5307  0.5785
 4068SOL    HW216004   2.341   5.528   5.980  0.4239 -1.3756  0.0265
 4068SOL    HW316005   2.489   5.506   6.005  0.6316  0.1568  0.2149
 4068SOL    MW416006   2.421   5.560   5.995  0.2525  0.0057  0.0157
 4069SOL     OW16007   4.991   5.731   6.003 -0.7916 -0.2986  0.3169
 4069SOL    HW216008   5.075   5.742   6.047 -0.4462 -1.1744 -0.1061
 4069SOL    HW316009   5.012   5.693   5.918 -1.6165 -0.4944  0.1863
 4069SOL    MW416010   5.005   5.728   5.997  0.1536 -0.0588  0.5122
 4070SOL     OW16011   1.703   3.096   2.479 -0.4068 -0.3079  0.2059
 4070SOL    HW216012   1.726   3.146   2.558 -1.0543 -2.2491  1.6853
 4070SOL    HW316013   1.787   3.071   2.442 -0.0719 -1.0486  1.4115
 4070SOL    MW416014   1.717   3.099   2.484  0.2349  0.0943  0.4792
 4071SOL     OW16015   1.038   4.919   0.111  0.1625 -0.4249 -0.3404
 4071SOL    HW216016   0.969   4.971   0.071  0.7028  0.6399  0.0656
 4071SOL    HW316017   0.993   4.846   0.153 -0.9760  1.3202  1.6520
 4071SOL    MW416018   1.023   4.917   0.111  0.2193  0.6217  0.2480
 4072SOL     OW16019   2.732   6.220   1.455 -0.3949 -0.5237 -0.0138
 4072SOL    HW216020   2.696   6.286   1.515  0.7119 -0.0310  0.1342
 4072SOL    HW316021   2.813   6.192   1.496 -0.5419 -1.5484 -0.3853
 4072SOL    MW416022   2.738   6.225   1.468  0.2667 -0.2902 -0.0753
 4073SOL     OW16023   2.213   6.424   4.106  0.0682  0.3941 -0.2735
 4073SOL    HW216024   2.294   6.384   4.136 -0.0906 -0.6842 -1.2322
 4073SOL    HW316025   2.211   6.408   4.012 -0.1519  2.4104 -0.6689
 4073SOL    MW416026   2.223   6.417   4.098  0.1137 -0.2469 -0.3722
 4074SOL     OW16027   5.689   1.015   0.270 -0.0719 -0.0579 -0.3220
 4074SOL    HW216028   5.625   1.066   0.320  0.4417  2.1184 -1.7356
 4074SOL    HW316029   5.636   0.965   0.208 -0.5041  1.7256 -1.4839
 4074SOL    MW416030   5.673   1.015   0.269 -0.5709 -0.6414  0.0379
 4075SOL     OW16031   4.407   4.769   5.516 -0.1882 -0.1505 -0.0445
 4075SOL    HW216032   4.417   4.839   5.581 -2.7805  0.0529  0.2370
 4075SOL    HW316033   4.352   4.807   5.448 -0.7446 -1.5686 -0.4273
 4075SOL    MW416034   4.401   4.783   5.516  0.6592 -0.1395 -0.3902
 4076SOL     OW16035   1.888   5.218   2.246 -0.1838 -0.6240  0.4437
 4076SOL    HW216036   1.908   5.311   2.253 -1.2612 -0.2809 -0.6777
 4076SOL    HW316037   1.973   5.175   2.252  0.6047  0.5907 -1.1863
 4076SOL    MW416038   1.902   5.225   2.248 -0.2938 -0.6302  0.3864
 4077SOL     OW16039   4.281   0.090   6.035  0.0119 -0.0436  0.2129
 4077SOL    HW216040   4.226   0.168   6.039 -1.6041 -1.1431 -0.0123
 4077SOL    HW316041   4.314   0.089   5.945  0.8370  0.8756  0.4841
 4077SOL    MW416042   4.278   0.100   6.023  0.1108 -0.2458  0.2253
 4078SOL     OW16043   2.531   1.814   1.243 -0.1923 -0.2164 -0.3201
 4078SOL    HW216044   2.466   1.749   1.270 -0.1414  0.0396  0.4132
 4078SOL    HW316045   2.613   1.765   1.237 -0.2325 -0.3033 -0.1586
 4078SOL    MW416046   2.533   1.799   1.245  0.2886 -0.0786 -0.3895
 4079SOL     OW16047   0.030   2.648   3.629  0.2493 -0.5112 -0.0553
 4079SOL    HW216048  -0.012   2.691   3.703  1.8853 -1.4184  1.4816
 4079SOL    HW316049   0.058   2.720   3.572  0.0527  0.2857  0.8385
 4079SOL    MW416050   0.028   2.663   3.631 -0.3516  0.1217  0.0737
 4080SOL     OW16051   5.260   1.263   0.981 -0.3590  0.2187  0.2839
 4080SOL    HW216052   5.337   1.267   0.923 -0.4216  0.2969  0.2062
 4080SOL    HW316053   5.227   1.174   0.971 -1.0686  0.5737 -0.7101
 4080SOL    MW416054   5.266   1.252   0.972  0.6891  0.0637 -0.4759
 4081SOL     OW16055   0.522   3.655   3.312 -0.0101 -0.1835  0.2620
 4081SOL    HW216056   0.479   3.739   3.330 -0.1934 -0.5975  2.0213
 4081SOL    HW316057   0.453   3.600   3.275 -0.4547 -0.1813  1.0585
 4081SOL    MW416058   0.507   3.659   3.310  0.0682  0.3995 -0.5185
 4082SOL     OW16059   5.497   3.751   3.582  0.4230 -0.3857  0.3088
 4082SOL    HW216060   5.551   3.765   3.504  1.3329 -1.4738  0.7123
 4082SOL    HW316061   5.418   3.801   3.566  2.0309  2.3066  0.2464
 4082SOL    MW416062   5.494   3.759   3.570  0.4968 -0.1378 -0.0392
 4083SOL     OW16063   3.455   2.460   3.616 -0.9252  0.3571  0.4333
 4083SOL    HW216064   3.511   2.384   3.600 -1.6493 -0.0672 -0.1061
 4083SOL    HW316065   3.429   2.453   3.708 -1.0701 -0.1011  0.3576
 4083SOL    MW416066   3.459   2.449   3.626  0.5505 -0.1049  0.1986
 4084SOL     OW16067   4.891   0.101   1.058  0.4289  0.1485 -0.0061
 4084SOL    HW216068   4.812   0.138   1.096  0.0712 -0.5932 -0.0099
 4084SOL    HW316069   4.962   0.136   1.112  0.1912  1.5201 -0.5387
 4084SOL    MW416070   4.890   0.111   1.070  0.0365  0.4124  0.4497
 4085SOL     OW16071   2.919   2.803   2.737 -0.0987  0.4832 -0.4461
 4085SOL    HW216072   2.944   2.714   2.761 -0.9012 -0.2066 -1.9906
 4085SOL    HW316073   2.945   2.810   2.645 -2.6601  0.7906 -1.2197
 4085SOL    MW416074   2.926   2.792   2.728 -0.0999  0.0033 -0.4221
 4086SOL     OW16075   0.575   2.434   3.732 -0.0739 -0.3046  0.0206
 4086SOL    HW216076   0.668   2.424   3.748  0.1074  1.4635  0.3235
 4086SOL    HW316077   0.567   2.440   3.636  0.0035 -1.3265 -0.0557
 4086SOL    MW416078   0.586   2.434   3.721 -0.0328 -0.2264  0.5140
 4087SOL     OW16079   2.647   3.601   3.213 -0.0178  0.1542  0.3682
 4087SOL    HW216080   2.714   3.574   3.150 -0.4736  2.6719 -1.3634
 4087SOL    HW316081   2.696   3.631   3.289  0.6567 -0.7182  0.2953
 4087SOL    MW416082   2.663   3.602   3.215  0.3028  0.2977  0.5194
 4088SOL     OW16083   6.193   5.195   2.752  0.1638 -0.6789  0.1836
 4088SOL    HW216084   6.113   5.223   2.708 -2.1670 -1.8423  3.3381
 4088SOL    HW316085   6.195   5.247   2.833  0.7937 -2.9092  1.6904
 4088SOL    MW416086   6.183   5.206   2.757 -0.1547  1.0146  0.1793
 4089SOL     OW16087   2.080   6.331   2.875  0.0840  0.0589 -0.3843
 4089SOL    HW216088   2.133   6.319   2.954  1.3388  1.5463 -0.9541
 4089SOL    HW316089   2.134   6.295   2.805 -0.2586  0.3369 -0.7916
 4089SOL    MW416090   2.094   6.325   2.876  0.4070 -0.3691 -0.4084
 4090SOL     OW16091   2.122   4.151   1.527  0.2130  0.2094  0.1816
 4090SOL    HW216092   2.084   4.085   1.470 -0.8052  1.1118 -0.2060
 4090SOL    HW316093   2.170   4.209   1.468 -0.0584  0.6132  0.3598
 4090SOL    MW416094   2.124   4.150   1.512  0.3054 -0.2055  0.5122
 4091SOL     OW16095   1.266   0.574   5.384 -0.3404 -0.3380 -0.0902
 4091SOL    HW216096   1.267   0.496   5.439 -2.4100 -0.0458  0.4474
 4091SOL    HW316097   1.200   0.556   5.317 -0.7178  0.8607 -0.0738
 4091SOL    MW416098   1.258   0.561   5.382  0.3111 -0.2572 -0.1789
 4092SOL     OW16099   3.148   6.093   3.483 -0.1489 -0.6608  0.5153
 4092SOL    HW216100   3.157   6.151   3.408 -1.3352 -2.3326 -1.0218
 4092SOL    HW316101   3.214   6.123   3.545  0.4773  1.1528 -0.9417
 4092SOL    MW416102   3.158   6.104   3.481 -0.3864 -0.6395  0.2921
 4093SOL     OW16103   0.103   2.963   3.673 -0.4800 -0.0235  0.2265
 4093SOL    HW216104   0.186   2.953   3.626 -0.0950  1.4671  0.5218
 4093SOL    HW316105   0.065   3.043   3.637 -2.3107 -1.2372 -0.6218
 4093SOL    MW416106   0.109   2.973   3.662 -0.1103 -0.3774  0.2081
 4094SOL     OW16107   5.077   1.087   1.592 -0.5631 -0.3378  0.0646
 4094SOL    HW216108   5.083   1.041   1.675  0.0716  0.5676  0.5422
 4094SOL    HW316109   5.160   1.068   1.548 -0.3226  0.2780  0.2390
 4094SOL    MW416110   5.089   1.079   1.597  0.6737 -1.1235  0.1101
 4095SOL     OW16111   0.291   5.350   3.033 -0.3257 -0.4166 -0.1753
 4095SOL    HW216112   0.234   5.274   3.038 -1.7544  0.6437  0.1555
 4095SOL    HW316113   0.237   5.419   2.994  0.9383  0.4354 -0.5038
 4095SOL    MW416114   0.276   5.349   3.028 -0.4861 -0.8001 -0.2160
 4096SOL     OW16115   1.469   4.124   6.104  0.3304  0.2652  0.1961
 4096SOL    HW216116   1.523   4.165   6.172  0.6627 -0.1966  0.2153
 4096SOL    HW316117   1.532   4.091   6.040  0.0777 -0.3015  0.2303
 4096SOL    MW416118   1.485   4.125   6.105 -0.0014 -0.5529 -0.5153
 4097SOL     OW16119   1.532   0.012   2.315  0.2211  0.2475  0.0767
 4097SOL    HW216120   1.612  -0.019   2.270 -1.0662 -1.8391 -0.9295
 4097SOL    HW316121   1.513   0.096   2.272  2.0860  1.0362  0.6613
 4097SOL    MW416122   1.540   0.019   2.303 -0.4827 -0.4651 -0.0462
 4098SOL     OW16123   6.219   1.814   0.880  0.0011 -0.6040  0.5904
 4098SOL    HW216124   6.211   1.812   0.784  3.1221 -0.9631  0.2576
 4098SOL    HW316125   6.218   1.722   0.906  2.2273 -0.6963  0.5101
 4098SOL    MW416126   6.218   1.802   0.871  0.3151  0.0266 -0.2291
 4099SOL     OW16127   1.669   5.918   3.835  0.3299  0.5591 -0.0506
 4099SOL    HW216128   1.659   6.013   3.832  2.8662  0.8908 -0.2187
 4099SOL    HW316129   1.655   5.895   3.927 -0.9207  0.9607 -0.1126
 4099SOL    MW416130   1.666   5.927   3.847  0.0741  0.3183 -0.2046
 4100SOL     OW16131   5.032   4.951   0.850  0.8874  0.3085 -0.0122
 4100SOL    HW216132   4.992   4.932   0.935  1.4476  0.6019  0.3235
 4100SOL    HW316133   5.089   5.026   0.867  0.0676  1.1665 -0.9141
 4100SOL    MW416134   5.034   4.959   0.864  0.5441 -0.2390  0.6236
 4101SOL     OW16135   1.033   4.289   1.816  0.1056  0.0795 -0.4669
 4101SOL    HW216136   0.951   4.279   1.767 -0.1392 -0.8057  0.1080
 4101SOL    HW316137   1.101   4.292   1.749 -0.3666  0.5229 -0.9375
 4101SOL    MW416138   1.031   4.288   1.801 -0.2466  0.0577 -0.1527
 4102SOL     OW16139   4.015   3.423   4.545 -0.3748 -0.5812 -0.1928
 4102SOL    HW216140   4.008   3.382   4.458 -0.0941 -2.0741  0.4603
 4102SOL    HW316141   3.976   3.359   4.605 -0.2217  0.2685  0.8369
 4102SOL    MW416142   4.009   3.409   4.541  0.1499  0.0875  0.2230
 4103SOL     OW16143   5.463   6.174   1.991  0.6125 -0.0972  0.3029
 4103SOL    HW216144   5.522   6.101   1.977  0.4767 -0.0261 -0.6807
 4103SOL    HW316145   5.508   6.249   1.953  0.4072  0.1795  0.6026
 4103SOL    MW416146   5.477   6.174   1.984  0.0716 -0.4762  0.3550
 4104SOL     OW16147   4.377   4.840   4.601 -0.3754  0.3220 -0.1904
 4104SOL    HW216148   4.366   4.826   4.695  0.0239  1.3384  0.0231
 4104SOL    HW316149   4.330   4.768   4.560  0.1921 -0.6463  0.8000
 4104SOL    MW416150   4.370   4.829   4.608 -0.1740  0.2176 -0.1784
 4105SOL     OW16151   1.023   1.942   4.610  0.7378 -0.3374  0.2709
 4105SOL    HW216152   0.969   1.873   4.648  0.0001 -0.4415 -0.9297
 4105SOL    HW316153   1.113   1.910   4.621  0.4274 -1.3178  0.0519
 4105SOL    MW416154   1.028   1.929   4.617  0.1582 -0.2084  0.0948
 4106SOL     OW16155   5.568   1.651   3.607 -0.5916  0.1860  0.3748
 4106SOL    HW216156   5.555   1.729   3.660  0.1116 -0.3852  1.4314
 4106SOL    HW316157   5.597   1.684   3.523  2.1563  1.0302  1.5511
 4106SOL    MW416158   5.570   1.666   3.603  0.5811 -0.4609  0.3175
 4107SOL     OW16159   5.586   3.086   4.091 -0.3977  0.5923 -0.0546
 4107SOL    HW216160   5.615   3.072   4.181 -0.1429 -1.6208 -0.4209
 4107SOL    HW316161   5.523   3.158   4.097 -0.0562  0.7833  1.8098
 4107SOL    MW416162   5.581   3.093   4.103  0.0430  0.1665 -0.5620
 4108SOL     OW16163   0.060   2.573   0.476  0.0941 -0.1143 -0.5369
 4108SOL    HW216164   0.061   2.633   0.402  1.5618  0.0964 -0.3898
 4108SOL    HW316165  -0.016   2.517   0.461  0.0784  0.2396 -1.9363
 4108SOL    MW416166   0.050   2.573   0.464 -0.6287  0.4092 -0.5828
 4109SOL     OW16167   0.158   5.582   2.904 -0.2739  0.1625  0.0947
 4109SOL    HW216168   0.227   5.634   2.946 -0.3368  1.1992 -1.0509
 4109SOL    HW316169   0.193   5.561   2.818  0.4979 -3.2570  1.1125
 4109SOL    MW416170   0.172   5.586   2.899  0.4817  0.3864  0.2934
 4110SOL     OW16171   1.627   5.957   0.190  0.6717  0.6361 -0.6089
 4110SOL    HW216172   1.711   5.993   0.159  0.8343 -0.6411 -1.8018
 4110SOL    HW316173   1.650   5.871   0.224 -0.1432  0.2759 -0.9422
 4110SOL    MW416174   1.641   5.950   0.190  0.1864  0.1700  0.5658
 4111SOL     OW16175   1.562   0.635   1.976  0.2143 -0.4949  0.3732
 4111SOL    HW216176   1.633   0.616   1.914  0.3506 -0.5627  0.5508
 4111SOL    HW316177   1.536   0.725   1.954 -0.0250 -0.6659 -0.0619
 4111SOL    MW416178   1.568   0.645   1.965  0.4179 -0.1996 -0.3451
 4112SOL     OW16179   4.301   4.829   4.900 -0.0068  0.1599 -0.1586
 4112SOL    HW216180   4.290   4.734   4.902  0.1256  0.1569  1.0806
 4112SOL    HW316181   4.354   4.849   4.978  1.4248  1.0706 -1.2978
 4112SOL    MW416182   4.307   4.819   4.911  0.1048  0.1348  0.0839
 4113SOL     OW16183   3.520   3.941   4.634  0.6427  0.6537  0.5205
 4113SOL    HW216184   3.444   3.999   4.642  0.8548  0.7342  2.1157
 4113SOL    HW316185   3.566   3.948   4.717  1.9240 -0.0888 -0.0846
 4113SOL    MW416186   3.516   3.949   4.646 -0.5193  0.2919 -1.1468
 4114SOL     OW16187   4.645   1.913   3.325  0.1404 -0.0792  0.3999
 4114SOL    HW216188   4.602   1.991   3.359  1.4605 -0.3736  3.0054
 4114SOL    HW316189   4.686   1.942   3.243 -1.2549  1.3282  0.1541
 4114SOL    MW416190   4.645   1.927   3.319 -0.1744  0.3861  0.6350
 4115SOL     OW16191   4.254   3.359   5.070 -0.1761  0.0540  0.2737
 4115SOL    HW216192   4.159   3.369   5.065 -0.1638  0.4449  0.6777
 4115SOL    HW316193   4.288   3.448   5.059  0.3137 -0.4395 -3.1354
 4115SOL    MW416194   4.246   3.372   5.068  0.0694  0.8584 -0.3540
 4116SOL     OW16195   2.169   3.829   0.120  0.1816  0.0014 -0.0294
 4116SOL    HW216196   2.253   3.850   0.080  0.6078 -4.3833 -2.0448
 4116SOL    HW316197   2.189   3.818   0.213  2.0316 -1.4136 -0.5403
 4116SOL    MW416198   2.183   3.830   0.127 -0.0276  0.3534  0.7808
 4117SOL     OW16199   0.428   2.013   4.336  0.5746  0.7638 -0.3365
 4117SOL    HW216200   0.355   2.005   4.274  2.0580 -0.5734 -2.0163
 4117SOL    HW316201   0.411   2.095   4.382 -2.9786 -0.3581  0.7087
 4117SOL    MW416202   0.416   2.023   4.334 -0.6532  0.6672  1.0096
 4118SOL     OW16203   4.896   4.515   4.176 -0.6037 -0.1862 -0.0139
 4118SOL    HW216204   4.850   4.484   4.254  0.2088 -0.2060  0.4692
 4118SOL    HW316205   4.871   4.608   4.168 -2.5842 -0.7501 -1.1351
 4118SOL    MW416206   4.886   4.523   4.185 -0.1455 -0.0175 -0.3434
 4119SOL     OW16207   6.157   3.824   4.302  0.4840  0.6682 -0.6495
 4119SOL    HW216208   6.157   3.785   4.389  0.4601 -1.7220 -1.6207
 4119SOL    HW316209   6.092   3.894   4.306 -0.3411 -0.1326  0.9377
 4119SOL    MW416210   6.149   3.828   4.314  0.1206  0.1606  0.4309
 4120SOL     OW16211   1.503   4.739   6.089  0.0508  0.1582 -0.2718
 4120SOL    HW216212   1.418   4.710   6.054 -0.3025  1.1421 -0.2634
 4120SOL    HW316213   1.520   4.679   6.162 -0.0417 -0.8173 -1.0259
 4120SOL    MW416214   1.494   4.727   6.094  0.1034 -0.3639  0.0139
 4121SOL     OW16215   5.239   5.471   1.391  0.1642  0.0526 -0.1057
 4121SOL    HW216216   5.176   5.420   1.341  1.9795 -1.3609 -1.1010
 4121SOL    HW316217   5.219   5.452   1.482 -0.9245 -0.2591 -0.3997
 4121SOL    MW416218   5.228   5.462   1.396  0.0926  0.8771  0.6238
 4122SOL     OW16219   6.255   2.030   4.829  0.0189  0.3329  0.3590
 4122SOL    HW216220   6.174   2.066   4.865 -0.9205  0.9437 -2.1467
 4122SOL    HW316221   6.288   2.099   4.771  2.6051  0.2676  1.5972
 4122SOL    MW416222   6.249   2.044   4.826 -0.3925 -0.4696  0.5373
 4123SOL     OW16223   1.624   2.735   1.239  1.3477  0.2699  0.1233
 4123SOL    HW216224   1.556   2.801   1.225  1.4638  0.7196  1.4974
 4123SOL    HW316225   1.652   2.748   1.330  1.4619 -1.5811  0.4094
 4123SOL    MW416226   1.619   2.745   1.249 -1.1086 -1.0851  0.2898
 4124SOL     OW16227   0.173   4.470   1.824  0.3719  0.0511  0.1585
 4124SOL    HW216228   0.223   4.526   1.885 -0.6201  1.4157 -0.2216
 4124SOL    HW316229   0.133   4.404   1.880  0.6485  0.4031  0.7889
 4124SOL    MW416230   0.174   4.469   1.840 -0.0289 -0.6595 -0.8579
 4125SOL     OW16231   6.314   2.273   5.044 -0.1607 -0.4811  0.2699
 4125SOL    HW216232   6.408   2.259   5.033 -0.1697 -0.7069  0.4702
 4125SOL    HW316233   6.306   2.344   5.107 -0.1195  0.0170 -0.2764
 4125SOL    MW416234   6.325   2.280   5.051 -0.0670  0.7964 -0.1121
 4126SOL     OW16235   6.313   3.606   3.556 -0.1983 -0.0901 -0.1642
 4126SOL    HW216236   6.352   3.630   3.640  0.3332  0.1143 -0.4642
 4126SOL    HW316237   6.222   3.586   3.577 -0.2781  0.7510  0.3269
 4126SOL    MW416238   6.306   3.607   3.570 -0.4269 -0.1927  0.2350
 4127SOL     OW16239   1.443   0.827   4.455 -0.6927  0.1761 -0.2456
 4127SOL    HW216240   1.466   0.757   4.394 -0.2669  0.4660 -0.4173
 4127SOL    HW316241   1.404   0.895   4.400  0.3559  0.7474 -0.3102
 4127SOL    MW416242   1.441   0.826   4.440 -0.2960  0.1884  0.0942
 4128SOL     OW16243   1.130   2.391   2.478 -0.3342  0.6234 -0.5042
 4128SOL    HW216244   1.110   2.321   2.415 -1.3428  1.2175 -0.8656
 4128SOL    HW316245   1.070   2.462   2.455 -1.4388  0.5067  1.7386
 4128SOL    MW416246   1.120   2.391   2.467  0.0305 -0.4472 -0.4459
 4129SOL     OW16247   5.496   3.133   3.473 -0.3323 -0.0273 -0.2925
 4129SOL    HW216248   5.456   3.107   3.556 -0.1468  0.0108 -0.1912
 4129SOL    HW316249   5.436   3.199   3.437 -1.1046 -0.9983 -0.8230
 4129SOL    MW416250   5.483   3.139   3.479 -0.3870 -0.3545  0.1834
 4130SOL     OW16251   5.463   0.400   0.722  0.2925  0.9764 -0.4363
 4130SOL    HW216252   5.535   0.391   0.659  0.3503  0.7499 -0.3391
 4130SOL    HW316253   5.494   0.355   0.800 -0.8146 -1.1334 -1.1113
 4130SOL    MW416254   5.477   0.393   0.724  0.3240  0.2899 -0.1066
 4131SOL     OW16255   3.908   1.834   0.550  0.2952 -0.2298 -0.4776
 4131SOL    HW216256   3.964   1.903   0.584 -0.5535  0.6775 -0.8647
 4131SOL    HW316257   3.836   1.828   0.614 -0.1207 -0.1018 -0.9283
 4131SOL    MW416258   3.906   1.842   0.563  0.4199 -0.0177  0.1951
 4132SOL     OW16259   0.528   5.071   5.083 -0.3276  0.2611 -0.1935
 4132SOL    HW216260   0.617   5.074   5.117  0.2912 -2.8652 -1.1075
 4132SOL    HW316261   0.472   5.064   5.160  0.2480  1.5809  0.3645
 4132SOL    MW416262   0.532   5.070   5.098 -0.3230 -0.3642 -0.1312
 4133SOL     OW16263   6.352   4.832   4.617 -0.1993  0.1182 -0.2922
 4133SOL    HW216264   6.325   4.750   4.660  0.5949  0.9310  1.8678
 4133SOL    HW316265   6.443   4.817   4.592 -0.8340 -0.5891 -2.4601
 4133SOL    MW416266   6.360   4.819   4.619  0.0919 -0.0050 -0.0527
 4134SOL     OW16267   3.267   4.917   4.696  0.0658  0.3114  0.3680
 4134SOL    HW216268   3.306   4.950   4.777 -1.1632  0.6850  0.8310
 4134SOL    HW316269   3.222   4.837   4.722  0.6854 -0.2297 -0.1991
 4134SOL    MW416270   3.266   4.911   4.710 -0.3942  0.0335  0.2939
 4135SOL     OW16271   4.709   6.304   4.856 -0.1726  0.1654 -0.1158
 4135SOL    HW216272   4.737   6.213   4.843 -1.3374 -0.2044 -0.1865
 4135SOL    HW316273   4.678   6.306   4.946  2.6848  1.3041  0.9460
 4135SOL    MW416274   4.709   6.292   4.866  0.3131 -0.3341 -0.6735
 4136SOL     OW16275   2.835   4.714   1.363 -0.7402  0.1844 -0.4718
 4136SOL    HW216276   2.777   4.637   1.360  0.2024 -0.5947  0.4844
 4136SOL    HW316277   2.818   4.760   1.281 -0.0879 -1.9727 -1.9012
 4136SOL    MW416278   2.825   4.710   1.352  0.0660 -0.5515  0.1169
 4137SOL     OW16279   4.279   1.902   4.960 -0.0624 -0.3061  0.0410
 4137SOL    HW216280   4.228   1.935   4.887  1.3515  2.1900  0.0616
 4137SOL    HW316281   4.277   1.807   4.950 -0.9535 -0.0899 -2.5015
 4137SOL    MW416282   4.272   1.894   4.949 -0.4066 -0.0437 -0.2624
 4138SOL     OW16283   4.256   5.386   2.173 -0.7324 -0.4272 -0.7454
 4138SOL    HW216284   4.277   5.445   2.245 -0.7925 -1.7029  0.3763
 4138SOL    HW316285   4.295   5.426   2.095  1.0643  0.0097  0.3349
 4138SOL    MW416286   4.264   5.399   2.172  0.2281 -0.1096 -0.5459
 4139SOL     OW16287   3.631   2.192   3.650 -0.2233 -0.2387  0.4271
 4139SOL    HW216288   3.603   2.156   3.734 -0.8452 -1.7531 -0.3891
 4139SOL    HW316289   3.724   2.169   3.645 -0.3389 -0.7353  0.4350
 4139SOL    MW416290   3.640   2.184   3.661  0.1693  0.0079  0.5001
 4140SOL     OW16291   4.074   2.278   1.768 -0.3552  0.5373  0.1598
 4140SOL    HW216292   4.128   2.203   1.741 -0.1633  1.1476 -1.2870
 4140SOL    HW316293   4.130   2.328   1.827 -0.0870  0.0913  0.2868
 4140SOL    MW416294   4.089   2.275   1.772  0.4794  0.0573 -0.1894
 4141SOL     OW16295   4.257   2.884   2.520  0.1771  0.3830  0.1313
 4141SOL    HW216296   4.274   2.911   2.611 -1.5413  1.0687  0.2855
 4141SOL    HW316297   4.276   2.961   2.468 -2.3183  1.2235  0.3226
 4141SOL    MW416298   4.261   2.897   2.525 -0.0283  0.0018 -0.6153
 4142SOL     OW16299   6.210   5.289   4.837  0.1439  0.1120 -0.3276
 4142SOL    HW216300   6.243   5.200   4.838  0.6914  0.2530 -1.7988
 4142SOL    HW316301   6.147   5.290   4.765 -0.9385  0.5658  0.6058
 4142SOL    MW416302   6.206   5.278   4.827 -0.0113 -0.3778  0.1912
 4143SOL     OW16303   5.571   1.261   2.397 -0.4094 -0.5428 -0.0494
 4143SOL    HW216304   5.568   1.346   2.440 -0.6151 -1.1051  1.0725
 4143SOL    HW316305   5.622   1.276   2.317 -0.5643  0.6529  0.0656
 4143SOL    MW416306   5.578   1.274   2.392  1.0418 -0.4542  0.3639
 4144SOL     OW16307   0.139   5.818   2.542 -0.1184  0.1874 -0.3435
 4144SOL    HW216308   0.050   5.842   2.569 -0.4511  0.3765 -1.5584
 4144SOL    HW316309   0.196   5.869   2.599 -0.6699 -2.4138  2.8288
 4144SOL    MW416310   0.134   5.828   2.553  0.4054 -0.4227  0.3129
 4145SOL     OW16311   3.196   0.778   1.972 -0.4052  0.2495 -0.1629
 4145SOL    HW216312   3.211   0.873   1.975 -0.8891  0.3016  0.7615
 4145SOL    HW316313   3.131   0.762   2.039  0.9698 -0.9887  0.9412
 4145SOL    MW416314   3.190   0.789   1.981  0.2980 -0.2462 -0.3218
 4146SOL     OW16315   4.261   0.314   0.229 -0.1279  0.4350  0.0811
 4146SOL    HW216316   4.344   0.268   0.215 -0.3579  0.2565 -0.7098
 4146SOL    HW316317   4.287   0.405   0.247  0.2791  0.1968  0.7430
 4146SOL    MW416318   4.275   0.320   0.230  0.0721 -0.8233 -0.3309
 4147SOL     OW16319   5.327   1.908   0.273  0.5582  0.3929 -0.0194
 4147SOL    HW216320   5.262   1.945   0.213 -0.0136  0.4265  0.6205
 4147SOL    HW316321   5.281   1.836   0.317  0.7240  0.8770  0.9690
 4147SOL    MW416322   5.313   1.903   0.271 -0.4498  0.4627  0.3199
 4148SOL     OW16323   3.191   6.319   3.253  0.0338 -0.4293  0.0371
 4148SOL    HW216324   3.128   6.385   3.283 -0.1057 -0.0307 -1.1014
 4148SOL    HW316325   3.159   6.293   3.167  1.4781 -0.1406 -0.6159
 4148SOL    MW416326   3.178   6.324   3.246  0.4203 -0.1220 -0.2014
 4149SOL     OW16327   5.379   5.356   3.472  0.6879 -0.1944 -0.1919
 4149SOL    HW216328   5.402   5.329   3.560  0.9442  2.0763  0.5106
 4149SOL    HW316329   5.286   5.336   3.463  0.5811 -0.1297  0.7306
 4149SOL    MW416330   5.370   5.350   3.482 -0.0675  0.7028 -0.1266
 4150SOL     OW16331   4.617   1.168   6.041  0.0807  0.1600 -0.1989
 4150SOL    HW216332   4.667   1.206   5.969  2.3914 -1.0585  0.6930
 4150SOL    HW316333   4.599   1.078   6.013  1.8296 -0.6359  1.0520
 4150SOL    MW416334   4.621   1.161   6.028  0.6724 -0.4011 -0.0795
 4151SOL     OW16335   0.313   2.897   4.306 -0.3908  0.3377  0.2628
 4151SOL    HW216336   0.371   2.972   4.299  0.1482 -0.1395 -0.6172
 4151SOL    HW316337   0.364   2.824   4.272 -1.2202 -0.2502  0.2499
 4151SOL    MW416338   0.327   2.897   4.300  0.0683  0.5673 -0.6346
 4152SOL     OW16339   4.994   3.026   0.621 -0.4810  0.2153 -0.3808
 4152SOL    HW216340   4.970   3.115   0.596  1.2570  1.4737  1.9721
 4152SOL    HW316341   4.911   2.982   0.637 -1.4011  2.4171  1.4319
 4152SOL    MW416342   4.980   3.032   0.620  0.5491  0.0151 -0.5772
 4153SOL     OW16343   3.054   6.237   5.898 -0.0105 -0.0190  0.1893
 4153SOL    HW216344   2.964   6.211   5.920 -0.0418  0.0245  0.1134
 4153SOL    HW316345   3.103   6.155   5.897 -0.1983 -0.1310 -0.4812
 4153SOL    MW416346   3.048   6.223   5.901  0.1616 -0.2636  0.2894
 4154SOL     OW16347   5.420   3.604   1.736 -0.0996 -0.2808 -0.0248
 4154SOL    HW216348   5.430   3.696   1.712 -0.4172  0.3939  2.1624
 4154SOL    HW316349   5.330   3.597   1.768  0.2621 -1.0592  0.8909
 4154SOL    MW416350   5.410   3.615   1.737  0.5740  0.2600  0.1531
 4155SOL     OW16351   2.609   0.535   1.753  0.0976  0.4803 -0.4356
 4155SOL    HW216352   2.560   0.600   1.702  0.7147  3.0120  1.9358
 4155SOL    HW316353   2.690   0.523   1.705 -0.8101 -0.0718 -1.9009
 4155SOL    MW416354   2.613   0.542   1.740 -0.2274  0.0959 -0.6919
 4156SOL     OW16355   1.211   2.941   4.339 -0.2714  0.6848 -0.5214
 4156SOL    HW216356   1.251   3.018   4.380  0.6495  0.2320 -0.5278
 4156SOL    HW316357   1.231   2.869   4.400  1.6993 -0.1275 -2.0010
 4156SOL    MW416358   1.219   2.941   4.353  0.7420  1.0443  0.4583
 4157SOL     OW16359   4.629   5.210   4.355  0.4001  0.4696 -0.0348
 4157SOL    HW216360   4.565   5.193   4.286  1.2395 -0.1400 -0.6877
 4157SOL    HW316361   4.627   5.131   4.409  1.0488  0.1759 -0.4301
 4157SOL    MW416362   4.620   5.197   4.353 -0.0660  0.3446 -0.5064
 4158SOL     OW16363   3.353   5.591   6.234  0.3451 -0.2217  0.1181
 4158SOL    HW216364   3.351   5.515   6.175 -1.1901  1.5736 -2.3416
 4158SOL    HW316365   3.445   5.598   6.260  0.3859 -3.4281  1.2611
 4158SOL    MW416366   3.365   5.582   6.230 -0.0478 -0.2583 -0.4794
 4159SOL     OW16367   0.981   3.701   5.843  0.1809 -0.8055  0.0247
 4159SOL    HW216368   0.992   3.774   5.783  0.7323 -0.3725  0.6412
 4159SOL    HW316369   1.041   3.634   5.812  2.2345  0.2857  1.4156
 4159SOL    MW416370   0.990   3.702   5.831 -0.6184 -0.7489 -0.0635
 4160SOL     OW16371   0.944   3.732   2.339 -0.5039 -0.5138  0.2410
 4160SOL    HW216372   0.933   3.806   2.398  0.0078  0.7960 -1.2374
 4160SOL    HW316373   0.870   3.738   2.279 -0.7846 -1.5699  0.4642
 4160SOL    MW416374   0.933   3.742   2.339  0.3955 -0.6678  0.5540
 4161SOL     OW16375   3.134   5.676   4.396  0.2534  0.0113  0.2480
 4161SOL    HW216376   3.170   5.634   4.318  1.6301 -1.0585  1.4049
 4161SOL    HW316377   3.045   5.701   4.371  0.3851 -1.0340 -1.4028
 4161SOL    MW416378   3.127   5.674   4.382 -0.1841  0.5312 -0.7383
 4162SOL     OW16379   1.398   5.615   5.544 -0.1339  0.1641  0.0551
 4162SOL    HW216380   1.484   5.585   5.513 -1.2237 -0.0273 -3.1714
 4162SOL    HW316381   1.342   5.537   5.539 -1.2308  0.9794 -1.1485
 4162SOL    MW416382   1.402   5.601   5.539 -0.0160  0.9745 -0.3535
 4163SOL     OW16383   5.342   0.751   1.733  0.0854  0.0953 -0.3601
 4163SOL    HW216384   5.321   0.835   1.775  2.0032 -0.2533  1.4528
 4163SOL    HW316385   5.405   0.774   1.665  1.0168  0.0999  0.4854
 4163SOL    MW416386   5.348   0.765   1.730 -0.1989 -0.1950 -0.0181
 4164SOL     OW16387   4.490   5.954   6.106  0.3461  0.3053 -0.2276
 4164SOL    HW216388   4.573   5.965   6.153  0.4966  0.0250 -0.4216
 4164SOL    HW316389   4.515   5.956   6.014  0.1780 -0.0642 -0.2843
 4164SOL    MW416390   4.504   5.955   6.100  0.0145 -0.3174 -0.0287
 4165SOL     OW16391   4.650   5.304   0.214  0.4334 -0.0573 -0.3415
 4165SOL    HW216392   4.600   5.342   0.142 -0.0685  0.1160  0.0931
 4165SOL    HW316393   4.586   5.253   0.264  0.6329  0.3828  0.3705
 4165SOL    MW416394   4.635   5.302   0.211 -0.5017  0.2894  0.0123
 4166SOL     OW16395   4.381   2.292   2.157 -0.3574  0.1921  0.0777
 4166SOL    HW216396   4.420   2.285   2.244 -0.2132  1.3566  0.1343
 4166SOL    HW316397   4.454   2.276   2.097 -0.0638  1.0108  0.1897
 4166SOL    MW416398   4.396   2.289   2.161 -0.4095  0.0192 -0.1045
 4167SOL     OW16399   3.074   3.678   0.391 -0.8698  0.3684  0.0601
 4167SOL    HW216400   3.119   3.601   0.427 -1.7983 -1.2385 -2.0078
 4167SOL    HW316401   2.999   3.691   0.450 -0.3220  0.1286  0.8299
 4167SOL    MW416402   3.070   3.669   0.403  0.6392 -0.0814  0.0788
 4168SOL     OW16403   4.165   2.876   0.929  0.0305 -0.1649  0.3319
 4168SOL    HW216404   4.108   2.815   0.882  1.1854  0.2304 -1.7296
 4168SOL    HW316405   4.209   2.822   0.995  2.0347 -2.0070 -2.3010
 4168SOL    MW416406   4.164   2.861   0.931 -0.0151 -0.0695 -0.2137
 4169SOL     OW16407   6.281   1.053   4.357 -0.2502  0.5193  0.0118
 4169SOL    HW216408   6.193   1.015   4.359 -0.9507  1.9834 -0.9436
 4169SOL    HW316409   6.328   1.000   4.293 -0.5106 -0.1072  0.3298
 4169SOL    MW416410   6.276   1.041   4.349  0.2092  0.4694  0.3622
 4170SOL     OW16411   1.160   0.845   4.842  0.2299 -0.5139  0.0863
 4170SOL    HW216412   1.101   0.773   4.865  0.1989 -0.6827 -0.4886
 4170SOL    HW316413   1.184   0.827   4.751 -0.0649  0.3907 -0.1832
 4170SOL    MW416414   1.155   0.833   4.833 -0.1422  0.0721 -0.6841
 4171SOL     OW16415   5.682   4.515   1.813 -0.0726 -0.2902  0.5570
 4171SOL    HW216416   5.716   4.436   1.854  0.3512  0.4175  1.6016
 4171SOL    HW316417   5.587   4.510   1.824 -0.1431 -1.1140 -0.2650
 4171SOL    MW416418   5.674   4.504   1.820 -0.0914 -0.1037 -0.4919
 4172SOL     OW16419   2.325   1.767   0.590 -0.1579  0.1514  0.4668
 4172SOL    HW216420   2.343   1.675   0.611 -0.3712  0.1731  0.7379
 4172SOL    HW316421   2.229   1.772   0.587 -0.1476  0.0674 -0.8316
 4172SOL    MW416422   2.314   1.755   0.592 -0.0107 -0.0197 -0.2952
 4173SOL     OW16423   4.522   3.523   1.167  0.1655 -0.2388 -0.5921
 4173SOL    HW216424   4.537   3.499   1.075  2.0363 -0.6897 -0.2242
 4173SOL    HW316425   4.538   3.442   1.216  1.4709  0.4994  0.2756
 4173SOL    MW416426   4.526   3.509   1.161  0.2186  0.6348  0.0198
 4174SOL     OW16427   5.832   2.490   4.682 -0.6496 -0.2766  0.1164
 4174SOL    HW216428   5.764   2.466   4.745  0.8677 -1.6875  1.2935
 4174SOL    HW316429   5.910   2.442   4.711  0.6858  0.7631 -1.5728
 4174SOL    MW416430   5.833   2.480   4.694 -0.1379 -0.0933 -0.2376
 4175SOL     OW16431   2.972   3.860   3.918 -0.2985  0.3075 -0.1993
 4175SOL    HW216432   2.921   3.881   3.996  0.4016 -3.3766  1.4505
 4175SOL    HW316433   2.910   3.814   3.861 -0.0410  0.2838 -0.4603
 4175SOL    MW416434   2.957   3.857   3.921 -0.4072 -0.1785 -0.4086
 4176SOL     OW16435   5.148   2.064   6.217 -0.5104 -0.2268 -0.5497
 4176SOL    HW216436   5.167   2.149   6.178 -1.0572  0.4529  0.5921
 4176SOL    HW316437   5.234   2.027   6.239 -0.2523 -0.1692 -1.4289
 4176SOL    MW416438   5.162   2.070   6.215 -0.3811  0.2010  0.0363
 4177SOL     OW16439   1.396   3.280   3.634 -0.4181 -0.6046  0.2259
 4177SOL    HW216440   1.359   3.333   3.705 -3.4819 -2.0242 -0.1394
 4177SOL    HW316441   1.387   3.335   3.556  1.8097  0.4769  0.6659
 4177SOL    MW416442   1.390   3.294   3.633 -0.0970 -0.3685 -0.8192
 4178SOL     OW16443   3.842   3.670   0.733 -0.2509 -0.6372  0.8449
 4178SOL    HW216444   3.937   3.670   0.743 -0.0193 -1.6547 -1.0480
 4178SOL    HW316445   3.814   3.587   0.772 -0.2538 -0.7654  0.5725
 4178SOL    MW416446   3.850   3.659   0.740  0.0761  0.1023  0.5583
 4179SOL     OW16447   1.001   5.350   1.890 -0.5101  0.5169 -0.5463
 4179SOL    HW216448   0.938   5.301   1.837 -1.1385  1.1940 -0.4383
 4179SOL    HW316449   1.035   5.417   1.831  1.1803 -0.6866 -1.0337
 4179SOL    MW416450   0.997   5.352   1.875  0.0318  0.6917  0.3241
 4180SOL     OW16451   4.118   0.346   6.020  0.4593  0.0058 -0.1981
 4180SOL    HW216452   4.177   0.381   5.954 -0.3215  0.0915 -0.8675
 4180SOL    HW316453   4.111   0.415   6.086 -0.7060  0.9668 -1.2747
 4180SOL    MW416454   4.125   0.360   6.020  0.5628  0.2998  0.8563
 4181SOL     OW16455   2.552   5.618   2.005 -0.9629  0.4758  0.4109
 4181SOL    HW216456   2.611   5.561   2.054 -2.7682 -0.9280  1.0782
 4181SOL    HW316457   2.511   5.559   1.941 -2.2106  1.2326  0.4965
 4181SOL    MW416458   2.554   5.602   2.003  0.2457 -0.3281  0.1308
 4182SOL     OW16459   2.585   3.226   3.963 -0.5961  0.3203  0.1074
 4182SOL    HW216460   2.560   3.138   3.935 -2.8446  1.2244 -0.9462
 4182SOL    HW316461   2.681   3.223   3.966 -0.5955 -2.2134  0.3734
 4182SOL    MW416462   2.594   3.214   3.960 -0.6678  0.2348 -0.1848
 4183SOL     OW16463   2.690   2.916   2.858  0.0456 -0.1774  0.4609
 4183SOL    HW216464   2.752   2.883   2.793 -0.7850 -1.4076  0.2664
 4183SOL    HW316465   2.616   2.855   2.854 -0.8263  0.7900  1.2604
 4183SOL    MW416466   2.688   2.904   2.849 -0.1912  0.2045 -0.0257
 4184SOL     OW16467   0.375   0.073   0.506  0.4808 -0.1340 -0.4240
 4184SOL    HW216468   0.335   0.042   0.425  0.4091 -0.6637 -0.1871
 4184SOL    HW316469   0.368  -0.001   0.567  0.1390  0.4074  0.2068
 4184SOL    MW416470   0.369   0.059   0.503  0.4536 -0.0328  0.1672
 4185SOL     OW16471   0.508   5.264   2.185  0.6497  0.4200 -0.0108
 4185SOL    HW216472   0.513   5.353   2.151 -1.3251  0.4438 -0.3775
 4185SOL    HW316473   0.545   5.209   2.116 -0.9742  0.7060 -1.1754
 4185SOL    MW416474   0.513   5.268   2.172 -0.1830  0.3868 -0.3550
 4186SOL     OW16475   6.373   6.384   2.042 -0.1878 -0.4381 -0.3636
 4186SOL    HW216476   6.331   6.307   2.079  0.8342  0.1420  2.2075
 4186SOL    HW316477   6.461   6.355   2.019 -0.0021 -0.1968  0.0334
 4186SOL    MW416478   6.379   6.370   2.044  0.0062 -0.4346 -0.4979
 4187SOL     OW16479   1.653   5.282   1.001 -0.1592  0.5726 -0.1120
 4187SOL    HW216480   1.580   5.332   1.038  0.3518  0.3876  1.2062
 4187SOL    HW316481   1.731   5.322   1.039  0.2974 -0.7639  0.4458
 4187SOL    MW416482   1.654   5.294   1.011  0.1615 -0.1606  0.6179
 4188SOL     OW16483   4.083   1.176   5.377  0.2687  0.8436 -0.1483
 4188SOL    HW216484   4.081   1.085   5.347  1.2436  0.8423 -0.2630
 4188SOL    HW316485   4.131   1.222   5.308  2.0409  0.9481  1.0881
 4188SOL    MW416486   4.089   1.170   5.364  0.4674 -0.0448  0.1340
 4189SOL     OW16487   5.132   3.593   0.286 -0.4289 -0.4439 -0.3383
 4189SOL    HW216488   5.200   3.661   0.288 -0.4221 -0.4311 -0.9118
 4189SOL    HW316489   5.180   3.511   0.281 -0.4520 -0.3875 -1.9174
 4189SOL    MW416490   5.147   3.591   0.286 -0.2775  0.2140  0.3047
 4190SOL     OW16491   3.471   4.870   4.494 -0.4237 -0.3871  0.2383
 4190SOL    HW216492   3.539   4.931   4.466  0.0366 -1.6895 -1.6517
 4190SOL    HW316493   3.411   4.923   4.547  1.3702  1.0651  0.9091
 4190SOL    MW416494   3.472   4.885   4.497  0.5774 -0.1619 -0.0818
 4191SOL     OW16495   2.071   1.876   5.183 -0.3175  0.4213  0.3134
 4191SOL    HW216496   2.134   1.919   5.125  0.2192 -0.3366  0.3158
 4191SOL    HW316497   2.001   1.846   5.124 -1.3322  2.3357  0.4557
 4191SOL    MW416498   2.070   1.878   5.167 -0.2950  0.0867  0.5041
 4192SOL     OW16499   5.620   1.688   0.466  0.2324 -0.1982 -0.0113
 4192SOL    HW216500   5.613   1.783   0.453  0.4849 -0.0579  0.8239
 4192SOL    HW316501   5.714   1.671   0.465  0.1811 -0.8378 -2.7336
 4192SOL    MW416502   5.632   1.698   0.464 -0.1251 -0.2176 -0.0622
 4193SOL     OW16503   0.455   2.342   4.816 -0.0216  0.7881  0.0926
 4193SOL    HW216504   0.412   2.321   4.899  1.5498 -0.3224  0.6746
 4193SOL    HW316505   0.399   2.408   4.776 -2.2183 -0.5610  0.8006
 4193SOL    MW416506   0.442   2.348   4.821 -0.7757  0.0228  0.2426
 4194SOL     OW16507   3.315   3.341   4.854 -0.3677 -0.2537 -0.4449
 4194SOL    HW216508   3.264   3.267   4.822  0.5801 -0.3645 -1.7496
 4194SOL    HW316509   3.265   3.418   4.826 -1.0064 -0.3671  0.3334
 4194SOL    MW416510   3.301   3.342   4.846  0.6658 -0.8552 -0.2674
 4195SOL     OW16511   0.984   4.034   5.165  0.0328 -0.1310  0.3215
 4195SOL    HW216512   1.003   3.946   5.199 -2.2013 -1.6581 -1.9557
 4195SOL    HW316513   0.952   4.083   5.240  0.1757 -1.6583  1.4203
 4195SOL    MW416514   0.983   4.029   5.179 -0.2772  0.2574 -0.1433
 4196SOL     OW16515   4.107   4.594   3.336  0.5173 -0.3123  0.6471
 4196SOL    HW216516   4.084   4.635   3.420 -2.4104 -0.3889  0.0065
 4196SOL    HW316517   4.102   4.500   3.353 -0.7446 -0.3316  0.2898
 4196SOL    MW416518   4.103   4.587   3.349 -0.0031  0.0096  0.1117
 4197SOL     OW16519   3.862   5.523   4.054  0.4541  0.0580 -0.2832
 4197SOL    HW216520   3.906   5.454   4.104  0.6193  0.6320  0.3692
 4197SOL    HW316521   3.863   5.491   3.964  0.0458 -1.0418  0.0862
 4197SOL    MW416522   3.868   5.509   4.048 -0.3556 -0.5494  0.6305
 4198SOL     OW16523   1.715   3.986   1.685  0.1980  0.4352 -0.2226
 4198SOL    HW216524   1.680   4.064   1.728  0.9976 -0.4979  2.2788
 4198SOL    HW316525   1.638   3.932   1.668 -0.1153  0.6586  0.4389
 4198SOL    MW416526   1.700   3.990   1.688  0.1749  0.5370  0.4558
 4199SOL     OW16527   0.409   1.981   0.754  0.7221  0.4083  0.1981
 4199SOL    HW216528   0.372   1.987   0.666 -0.2265 -2.8355  0.2511
 4199SOL    HW316529   0.484   2.040   0.753  2.1538 -1.2017 -3.5949
 4199SOL    MW416530   0.414   1.989   0.743  0.3824 -0.4342 -0.7140
 4200SOL     OW16531   3.537   5.164   4.656 -0.3973  0.8391  0.2052
 4200SOL    HW216532   3.479   5.204   4.592 -1.0575  0.3526  0.4831
 4200SOL    HW316533   3.589   5.236   4.691  1.1505  0.9187 -2.0241
 4200SOL    MW416534   3.537   5.179   4.652  0.2586  0.0531  0.3760
 4201SOL     OW16535   5.308   1.691   0.886  0.7044 -0.5301  0.4132
 4201SOL    HW216536   5.218   1.716   0.865  1.3266  1.2452 -0.3669
 4201SOL    HW316537   5.300   1.627   0.956 -1.1679 -0.5002  0.2671
 4201SOL    MW416538   5.295   1.686   0.892 -0.0433 -0.1565  0.1904
 4202SOL     OW16539   5.348   0.021   5.717 -0.0946  0.0291 -0.4236
 4202SOL    HW216540   5.265   0.053   5.752 -0.1614  0.9480 -1.3961
 4202SOL    HW316541   5.345   0.041   5.624  1.1971  0.0223 -0.4878
 4202SOL    MW416542   5.337   0.028   5.710  0.0327  0.2156  0.1234
 4203SOL     OW16543   2.536   4.411   0.830 -0.3362 -0.1717  0.3245
 4203SOL    HW216544   2.491   4.378   0.907 -0.5953  0.6183  0.5289
 4203SOL    HW316545   2.526   4.506   0.836  1.0578  0.0006  0.1912
 4203SOL    MW416546   2.529   4.419   0.841  0.4864  0.2076 -0.7658
 4204SOL     OW16547   1.707   0.626   6.095  0.0413 -0.0207 -0.3173
 4204SOL    HW216548   1.731   0.692   6.030  1.0415 -1.8362 -1.9031
 4204SOL    HW316549   1.728   0.543   6.053 -2.8197 -1.4847  0.8590
 4204SOL    MW416550   1.713   0.624   6.081 -0.3804  0.2313 -0.0494
 4205SOL     OW16551   3.468   6.307   2.393  0.6195  0.0444 -0.0401
 4205SOL    HW216552   3.402   6.375   2.390  1.9888  1.4101 -0.7671
 4205SOL    HW316553   3.419   6.225   2.403 -1.1774  0.9354 -1.1405
 4205SOL    MW416554   3.453   6.305   2.394  0.2449 -0.1707  0.3792
 4206SOL     OW16555   6.202   0.085   3.580 -0.3527  0.0562 -0.3682
 4206SOL    HW216556   6.272   0.145   3.555 -0.8634  0.3261 -1.1893
 4206SOL    HW316557   6.149   0.076   3.501 -0.7888 -0.7774  0.0078
 4206SOL    MW416558   6.204   0.092   3.567 -0.1164  0.8216  0.0810
 4207SOL     OW16559   2.627   1.362   5.216 -0.2853 -0.0726 -0.0223
 4207SOL    HW216560   2.614   1.431   5.151 -1.1794 -1.6053 -1.5783
 4207SOL    HW316561   2.567   1.293   5.189  0.6406 -1.4978  1.3986
 4207SOL    MW416562   2.618   1.362   5.204 -0.9828  0.1228  0.5136
 4208SOL     OW16563   6.050   3.204   0.030 -0.0830 -0.1788 -0.2287
 4208SOL    HW216564   6.047   3.109   0.022  0.0216 -0.1436 -0.7478
 4208SOL    HW316565   5.990   3.236  -0.038 -1.6765  0.0872  1.2145
 4208SOL    MW416566   6.042   3.196   0.020 -0.3403  0.1408  0.5836
 4209SOL     OW16567   2.734   0.159   0.364 -0.0312  0.4371 -0.1047
 4209SOL    HW216568   2.786   0.079   0.371 -2.0850 -0.8536  2.1470
 4209SOL    HW316569   2.794   0.224   0.329  2.0708 -1.7821 -0.8529
 4209SOL    MW416570   2.749   0.157   0.361 -0.1537  0.2289 -0.4181
 4210SOL     OW16571   6.337   1.312   4.260 -0.5728 -0.1177 -0.1784
 4210SOL    HW216572   6.332   1.229   4.308 -0.2548 -0.4427 -0.6964
 4210SOL    HW316573   6.430   1.323   4.240 -0.2903  1.4290  1.6831
 4210SOL    MW416574   6.348   1.302   4.264  0.4409  1.1969 -0.9030
 4211SOL     OW16575   3.344   2.513   5.685 -0.1786  0.2109  0.4850
 4211SOL    HW216576   3.279   2.551   5.745  0.8341  1.2715  0.9408
 4211SOL    HW316577   3.303   2.521   5.598 -0.4458  1.4041  0.6937
 4211SOL    MW416578   3.330   2.519   5.681  0.3939  0.0263  0.2589
 4212SOL     OW16579   6.244   3.863   2.125 -0.1131 -0.0404  0.4663
 4212SOL    HW216580   6.304   3.798   2.161  0.2876  0.9858  1.6827
 4212SOL    HW316581   6.159   3.818   2.124  0.7212 -1.7941 -2.0460
 4212SOL    MW416582   6.240   3.848   2.130 -0.2036  0.2739 -0.0349
 4213SOL     OW16583   4.241   3.765   4.025 -0.0648  0.0936  0.0831
 4213SOL    HW216584   4.228   3.670   4.018 -1.5430  0.3068 -0.4477
 4213SOL    HW316585   4.188   3.801   3.954  0.5867  1.3140  0.2038
 4213SOL    MW416586   4.232   3.757   4.015  0.1093 -0.4452 -0.0420
 4214SOL     OW16587   0.138   1.982   5.295  0.1596 -0.3960 -0.1637
 4214SOL    HW216588   0.082   1.992   5.372 -0.6089  1.2368 -0.8639
 4214SOL    HW316589   0.078   1.955   5.225  0.1699  1.3550 -0.9218
 4214SOL    MW416590   0.123   1.980   5.296  0.0826 -0.7964  1.2541
 4215SOL     OW16591   1.174   1.848   2.640 -0.2615 -0.5203  0.4022
 4215SOL    HW216592   1.153   1.928   2.689  0.3973  1.7889 -2.7499
 4215SOL    HW316593   1.267   1.834   2.656 -0.6558 -1.5710  2.0462
 4215SOL    MW416594   1.183   1.857   2.649 -0.6035 -0.0989 -0.1618
 4216SOL     OW16595   6.410   4.873   5.959  0.2718  0.3971 -0.0004
 4216SOL    HW216596   6.459   4.812   6.015  0.2901 -1.5022 -1.9358
 4216SOL    HW316597   6.462   4.878   5.879 -1.1280  0.8267 -0.9086
 4216SOL    MW416598   6.424   4.865   5.956 -0.3088 -0.0593 -0.0377
 4217SOL     OW16599   4.846   3.074   0.041 -0.1118 -0.1690  0.0208
 4217SOL    HW216600   4.778   3.065  -0.025  1.5987 -0.4279 -1.7905
 4217SOL    HW316601   4.887   2.987   0.046 -1.3791 -0.7418  2.8791
 4217SOL    MW416602   4.843   3.061   0.033  0.2284 -0.4855  0.3839
 4218SOL     OW16603   5.997   4.879   2.641 -1.0137 -0.0686  0.2657
 4218SOL    HW216604   6.058   4.882   2.714  0.5988 -1.8124 -0.9053
 4218SOL    HW316605   6.049   4.906   2.565 -1.8763 -0.9238 -0.6620
 4218SOL    MW416606   6.012   4.883   2.641  0.4016  0.4582 -0.2734
 4219SOL     OW16607   2.841   0.490   0.874  0.1372  0.1571 -0.2725
 4219SOL    HW216608   2.747   0.511   0.873  0.1881  0.4339  0.4390
 4219SOL    HW316609   2.883   0.570   0.905  0.4875 -0.4243  0.7767
 4219SOL    MW416610   2.834   0.503   0.878  0.3720  0.2950 -0.0283
 4220SOL     OW16611   5.562   2.852   3.580 -0.0455 -0.1583 -0.1063
 4220SOL    HW216612   5.503   2.914   3.538  0.4377  0.5788  0.2878
 4220SOL    HW316613   5.629   2.835   3.515  0.4889  0.6841  0.2042
 4220SOL    MW416614   5.563   2.858   3.566  0.7387 -0.2344  0.0345
 4221SOL     OW16615   2.682   1.068   5.591  0.0333 -0.7119  0.2839
 4221SOL    HW216616   2.752   1.003   5.587  0.9117  0.1823  0.5468
 4221SOL    HW316617   2.659   1.083   5.499  2.6689  1.5103 -0.1544
 4221SOL    MW416618   2.688   1.061   5.578 -0.1694 -0.3703 -0.5332
 4222SOL     OW16619   0.561   5.576   0.488  0.3966  0.2720 -0.3465
 4222SOL    HW216620   0.535   5.645   0.549  1.1027 -0.9427  1.3966
 4222SOL    HW316621   0.657   5.581   0.485  0.7045 -2.3176  1.9845
 4222SOL    MW416622   0.570   5.586   0.495 -0.0259 -0.5037 -0.4538
 4223SOL     OW16623   6.133   3.635   4.074  0.1134  0.3204 -0.1202
 4223SOL    HW216624   6.154   3.698   4.144 -1.3771  0.5638  0.1431
 4223SOL    HW316625   6.050   3.666   4.039 -0.1842 -0.9923 -0.6127
 4223SOL    MW416626   6.125   3.648   4.079 -0.5206  0.7213 -0.1825
 4224SOL     OW16627   2.225   2.447   1.205  0.0228 -0.0280  0.0525
 4224SOL    HW216628   2.225   2.504   1.282 -1.6618  1.0763 -0.6913
 4224SOL    HW316629   2.253   2.505   1.134  1.5768 -1.0386 -0.2010
 4224SOL    MW416630   2.229   2.462   1.206  0.2385 -0.1488  0.3498
 4225SOL     OW16631   4.894   1.719   0.243  0.0604  0.0823  0.1882
 4225SOL    HW216632   4.853   1.801   0.270 -2.0571 -1.1709  1.0650
 4225SOL    HW316633   4.855   1.698   0.159  2.1939  0.9610 -1.1155
 4225SOL    MW416634   4.884   1.727   0.236 -0.4429  0.4370 -0.3204
 4226SOL     OW16635   0.315   4.631   5.868  0.1068  0.2610 -0.2832
 4226SOL    HW216636   0.407   4.605   5.876  0.1561  0.4969 -0.0382
 4226SOL    HW316637   0.291   4.609   5.779  0.1001 -0.7640 -0.0345
 4226SOL    MW416638   0.324   4.625   5.858  0.3266 -0.3223  0.5885
 4227SOL     OW16639   3.638   6.264   3.849  0.2714 -0.4405 -0.0429
 4227SOL    HW216640   3.659   6.206   3.776 -0.5740 -0.5413 -0.2193
 4227SOL    HW316641   3.717   6.265   3.903  0.0561 -2.4541  0.4166
 4227SOL    MW416642   3.651   6.256   3.847  0.6045 -0.2412 -0.0958
 4228SOL     OW16643   0.682   1.759   6.145  0.0477  0.0755 -0.3103
 4228SOL    HW216644   0.690   1.753   6.240  1.7871 -1.1026 -0.4689
 4228SOL    HW316645   0.748   1.697   6.112  0.5887  1.5863 -2.2773
 4228SOL    MW416646   0.692   1.750   6.153 -0.1376  0.2344 -0.3311
 4229SOL     OW16647   3.210   2.764   5.554 -0.0262  0.5970  0.1280
 4229SOL    HW216648   3.159   2.723   5.484  1.9874 -1.7943 -0.0943
 4229SOL    HW316649   3.148   2.778   5.625 -1.5975  0.7744 -1.2244
 4229SOL    MW416650   3.195   2.760   5.554  0.2013  0.2646  0.5472
 4230SOL     OW16651   2.171   5.409   4.336  0.1442  0.0660  0.1381
 4230SOL    HW216652   2.254   5.457   4.336  0.1592  0.1413  1.9065
 4230SOL    HW316653   2.181   5.347   4.409 -0.6584 -1.2030 -0.8093
 4230SOL    MW416654   2.183   5.407   4.346 -0.9347 -0.1477  0.4219
 4231SOL     OW16655   4.078   5.921   3.125  0.4315  0.0700 -0.3005
 4231SOL    HW216656   4.035   6.006   3.118 -2.4795 -1.1163  1.2773
 4231SOL    HW316657   4.106   5.915   3.216  0.2605 -0.7737 -0.2909
 4231SOL    MW416658   4.076   5.932   3.136 -0.1965 -0.0079  0.1572
 4232SOL     OW16659   6.152   3.353   1.288  0.1968 -0.1892 -0.7878
 4232SOL    HW216660   6.190   3.300   1.358 -1.0374  0.4100  0.3644
 4232SOL    HW316661   6.211   3.339   1.213  3.1538  1.2443  1.0773
 4232SOL    MW416662   6.165   3.344   1.287  1.1725  0.3237  0.9707
 4233SOL     OW16663   0.218   1.161   3.510 -0.1027  0.1617  0.0120
 4233SOL    HW216664   0.278   1.093   3.541 -0.1615  0.0584 -0.0981
 4233SOL    HW316665   0.254   1.243   3.545 -0.2536  0.0334  0.4806
 4233SOL    MW416666   0.230   1.163   3.519  0.2727 -0.9703  0.9175
 4234SOL     OW16667   2.506   0.160   5.497 -0.4784  0.1994 -0.4576
 4234SOL    HW216668   2.556   0.189   5.420 -1.3976  1.8175 -0.4796
 4234SOL    HW316669   2.458   0.237   5.525 -1.9393 -0.9711  0.3860
 4234SOL    MW416670   2.506   0.174   5.491 -0.4852 -0.0363 -0.7054
 4235SOL     OW16671   6.111   5.245   3.876 -0.0411  0.9506 -0.2154
 4235SOL    HW216672   6.074   5.195   3.804  0.0365 -1.1711  1.1357
 4235SOL    HW316673   6.040   5.255   3.939  1.0220 -1.4447  1.5129
 4235SOL    MW416674   6.097   5.240   3.875 -0.7810 -0.5328  0.0119
 4236SOL     OW16675   5.238   0.031   2.990  0.1629  0.0909  0.3469
 4236SOL    HW216676   5.313   0.014   3.049  0.2383  1.8088  0.8151
 4236SOL    HW316677   5.276   0.082   2.918 -0.8148  2.7666  1.5940
 4236SOL    MW416678   5.253   0.036   2.989 -0.7445  0.1120 -0.1753
 4237SOL     OW16679   1.708   1.190   0.492 -0.0765  0.0543 -0.1108
 4237SOL    HW216680   1.625   1.182   0.540 -0.1437  1.1334 -0.0383
 4237SOL    HW316681   1.766   1.128   0.536 -0.3056  0.6050  1.0164
 4237SOL    MW416682   1.705   1.181   0.504 -1.2671  0.0344  0.7420
 4238SOL     OW16683   3.836   1.574   0.642 -0.4302 -0.3955  0.5292
 4238SOL    HW216684   3.923   1.611   0.659 -0.1878 -0.6243 -0.1621
 4238SOL    HW316685   3.805   1.619   0.564 -1.2322  0.1584  1.1460
 4238SOL    MW416686   3.844   1.585   0.634 -0.0685 -0.1828  0.2140
 4239SOL     OW16687   4.678   5.200   4.711  0.2695 -0.1583 -0.0034
 4239SOL    HW216688   4.757   5.184   4.660  0.6363  0.3176  0.4099
 4239SOL    HW316689   4.620   5.248   4.651 -0.4475 -2.0571 -0.9199
 4239SOL    MW416690   4.680   5.205   4.696  0.0624 -0.3152  0.1910
 4240SOL     OW16691   1.531   3.075   0.998  0.1867  0.1042  0.1378
 4240SOL    HW216692   1.496   3.163   1.016 -1.8473 -0.6125 -0.0880
 4240SOL    HW316693   1.496   3.021   1.069  1.3009 -0.5624  0.1878
 4240SOL    MW416694   1.522   3.080   1.010  0.2452 -0.3623 -0.3079
 4241SOL     OW16695   5.348   2.389   4.660  0.1358 -0.4936  0.1581
 4241SOL    HW216696   5.403   2.416   4.586 -0.8397  0.6178 -0.1994
 4241SOL    HW316697   5.265   2.364   4.619 -0.2609 -0.3095  0.8420
 4241SOL    MW416698   5.344   2.389   4.645  0.2233 -0.3942 -0.4053
 4242SOL     OW16699   1.059   6.002   0.688 -0.2341  0.7014 -0.0241
 4242SOL    HW216700   0.971   6.005   0.650 -0.2134  0.9193 -0.0553
 4242SOL    HW316701   1.116   5.978   0.615 -0.6703 -2.9428  0.6755
 4242SOL    MW416702   1.055   5.999   0.674 -0.1718 -0.0272  0.0599
 4243SOL     OW16703   1.875   6.043   0.112 -0.1387 -0.8284  0.3268
 4243SOL    HW216704   1.913   6.012   0.029 -0.1277 -0.5681  0.2334
 4243SOL    HW316705   1.951   6.056   0.169 -0.1806 -1.4632  0.5364
 4243SOL    MW416706   1.890   6.040   0.109 -0.3592 -0.3514  0.0258
 4244SOL     OW16707   1.925   3.273   3.134 -0.2785  0.4164 -0.0269
 4244SOL    HW216708   1.971   3.299   3.214 -1.0648  0.4208  0.4350
 4244SOL    HW316709   1.850   3.332   3.130  0.5296  1.4166 -1.5735
 4244SOL    MW416710   1.921   3.284   3.144  0.3358 -0.3342 -0.5448
 4245SOL     OW16711   0.258   1.162   2.244  0.3749  0.6705  0.2722
 4245SOL    HW216712   0.348   1.186   2.267  0.3640  0.3798  0.6164
 4245SOL    HW316713   0.236   1.089   2.302 -0.2227  0.9955  0.4698
 4245SOL    MW416714   0.267   1.156   2.254  0.2151 -0.1644  0.3205
 4246SOL     OW16715   3.843   5.893   3.794 -0.4653 -0.0778  0.2445
 4246SOL    HW216716   3.884   5.979   3.784  1.5535 -1.0047  0.0037
 4246SOL    HW316717   3.765   5.897   3.738  0.3479  1.1267 -0.8727
 4246SOL    MW416718   3.838   5.905   3.785  0.0803 -0.1583 -0.8120
 4247SOL     OW16719   6.208   2.984   5.189  0.1741 -0.2624 -0.5387
 4247SOL    HW216720   6.195   3.049   5.258  0.5524 -1.4372  0.7095
 4247SOL    HW316721   6.255   3.031   5.120  1.1283  0.5980  0.6525
 4247SOL    MW416722   6.213   2.999   5.189 -0.5886 -0.7724 -0.1081
 4248SOL     OW16723   5.248   3.936   2.704 -0.4494 -1.2179  0.5727
 4248SOL    HW216724   5.274   4.018   2.661 -2.4993  0.1727  1.7709
 4248SOL    HW316725   5.252   3.870   2.635  0.8843 -0.0542 -0.5394
 4248SOL    MW416726   5.252   3.938   2.689 -0.1542  0.1997  0.6232
 4249SOL     OW16727   4.031   6.277   0.018 -0.0658 -0.3668  0.1724
 4249SOL    HW216728   3.971   6.240   0.083 -0.4903  1.2898  0.7668
 4249SOL    HW316729   3.976   6.296  -0.058 -0.6492  2.3370  1.1677
 4249SOL    MW416730   4.016   6.275   0.016  0.4325 -0.8805  0.0317
 4250SOL     OW16731   2.624   4.460   4.131  0.2886  0.4697 -0.0745
 4250SOL    HW216732   2.623   4.384   4.190 -0.2801  0.2104 -0.4111
 4250SOL    HW316733   2.532   4.472   4.106  0.5112  0.6481 -0.8271
 4250SOL    MW416734   2.612   4.452   4.136 -0.1997  0.2105  0.2798
 4251SOL     OW16735   2.431   5.789   0.658  0.6091  0.0474 -0.3090
 4251SOL    HW216736   2.460   5.714   0.606  4.0234  0.4803  0.7238
 4251SOL    HW316737   2.476   5.780   0.741  0.9984  3.1059 -0.0637
 4251SOL    MW416738   2.441   5.778   0.662  0.7971  0.4484  0.1137
 4252SOL     OW16739   0.713   4.373   2.940 -0.2737  0.1631 -0.2559
 4252SOL    HW216740   0.781   4.422   2.985  1.2905 -1.3692 -0.8147
 4252SOL    HW316741   0.678   4.435   2.875  0.5879  0.9945  0.0455
 4252SOL    MW416742   0.718   4.388   2.937 -0.4468  0.0916  0.1694
 4253SOL     OW16743   2.622   6.254   0.428 -0.2596 -0.4647  0.5350
 4253SOL    HW216744   2.589   6.171   0.461  1.0886 -1.0096  0.5923
 4253SOL    HW316745   2.557   6.282   0.363 -1.5934 -0.6839  1.7423
 4253SOL    MW416746   2.609   6.247   0.424 -0.3801 -0.2790 -0.3887
 4254SOL     OW16747   5.046   2.433   1.574 -0.3393 -0.3765  0.2918
 4254SOL    HW216748   5.089   2.458   1.656  0.4463  0.5498 -0.3849
 4254SOL    HW316749   5.113   2.442   1.507 -1.0652 -0.7925 -0.5129
 4254SOL    MW416750   5.060   2.438   1.576  0.7163  0.0537  0.2397
 4255SOL     OW16751   6.157   6.248   5.911  0.1100 -0.3309  0.0111
 4255SOL    HW216752   6.169   6.313   5.981  1.5486 -0.8782  0.2949
 4255SOL    HW316753   6.069   6.214   5.926 -0.7804  1.7133 -0.2863
 4255SOL    MW416754   6.147   6.252   5.923 -0.5169 -0.7299  0.0819
 4256SOL     OW16755   4.221   6.048   3.913 -0.4282  0.6286 -0.3418
 4256SOL    HW216756   4.296   6.029   3.856 -0.6945 -1.6414 -0.0470
 4256SOL    HW316757   4.253   6.115   3.973  0.8661  0.8049 -1.1911
 4256SOL    MW416758   4.235   6.054   3.913  0.3178  0.6983 -0.6160
 4257SOL     OW16759   0.942   3.676   2.763 -0.3122 -0.1872  0.0392
 4257SOL    HW216760   0.922   3.631   2.845 -0.0969  0.6371  0.5523
 4257SOL    HW316761   1.028   3.715   2.777 -0.6290  0.6432 -0.2854
 4257SOL    MW416762   0.951   3.675   2.776  0.0125 -0.3374 -0.1474
 4258SOL     OW16763   6.330   0.462   3.599  0.6397  0.1593 -0.3565
 4258SOL    HW216764   6.410   0.513   3.612  1.6927 -1.5209  0.1117
 4258SOL    HW316765   6.279   0.476   3.678  1.6992 -0.8181  0.5282
 4258SOL    MW416766   6.334   0.470   3.611 -0.5227  0.3440 -0.4715
 4259SOL     OW16767   4.174   2.698   5.073 -0.2015 -0.2684 -0.1872
 4259SOL    HW216768   4.214   2.654   5.148 -2.4818 -1.0108  0.6770
 4259SOL    HW316769   4.248   2.721   5.017  1.6094  0.2182  2.2058
 4259SOL    MW416770   4.189   2.695   5.076  0.1788  0.4048  0.1045
 4260SOL     OW16771   6.274   0.696   0.220  0.9385 -0.2929 -0.0369
 4260SOL    HW216772   6.294   0.776   0.172 -0.5743  0.1327  0.0014
 4260SOL    HW316773   6.360   0.660   0.242  1.6584  1.6785  0.5888
 4260SOL    MW416774   6.288   0.701   0.216 -0.1814  0.2890 -0.5803
 4261SOL     OW16775   1.614   3.192   3.315 -0.2548 -0.0263 -0.3549
 4261SOL    HW216776   1.618   3.155   3.226  1.2172 -0.9678  0.0670
 4261SOL    HW316777   1.623   3.116   3.373 -1.8202  0.4981  0.6498
 4261SOL    MW416778   1.616   3.177   3.311 -0.7444 -0.1316  0.2857
 4262SOL     OW16779   0.297   4.036   3.824 -0.2273  0.1990 -0.1158
 4262SOL    HW216780   0.302   4.115   3.770 -0.1193  2.2940  2.7226
 4262SOL    HW316781   0.381   3.993   3.812  0.9967  2.2436  0.6142
 4262SOL    MW416782   0.309   4.041   3.815  0.1668  0.1715  0.5865
 4263SOL     OW16783   4.943   4.450   2.587 -0.0734 -0.0187  0.0411
 4263SOL    HW216784   4.920   4.359   2.564  1.6798 -0.3220 -0.6747
 4263SOL    HW316785   4.952   4.449   2.682  3.3381 -1.5458 -0.1605
 4263SOL    MW416786   4.941   4.437   2.596 -0.2406 -0.2589 -0.0421
 4264SOL     OW16787   3.492   4.728   2.813  0.4727  0.2268  0.2745
 4264SOL    HW216788   3.484   4.715   2.908 -0.2636 -0.5950  0.1113
 4264SOL    HW316789   3.463   4.645   2.775  1.6976  0.1926 -0.6505
 4264SOL    MW416790   3.487   4.715   2.821 -0.2276  0.2282  0.3952
 4265SOL     OW16791   5.753   0.568   5.467  0.2970  0.0444  0.1565
 4265SOL    HW216792   5.773   0.520   5.387  0.0177 -2.4799  1.4873
 4265SOL    HW316793   5.806   0.525   5.535 -1.8084 -0.0656  1.8679
 4265SOL    MW416794   5.762   0.556   5.466 -0.6342 -0.0411  0.5446
 4266SOL     OW16795   2.553   2.174   0.438  0.7418 -0.0319  0.6173
 4266SOL    HW216796   2.603   2.121   0.500  1.9314  1.0015  0.5863
 4266SOL    HW316797   2.596   2.260   0.439  0.0075  0.3909 -0.6978
 4266SOL    MW416798   2.565   2.179   0.446  0.1164 -0.0863 -0.3388
 4267SOL     OW16799   3.057   2.175   1.373  0.4743 -0.1755 -0.5263
 4267SOL    HW216800   3.006   2.116   1.317 -2.3103  2.1025 -0.6388
 4267SOL    HW316801   3.008   2.257   1.372  1.5326  0.7122  3.4075
 4267SOL    MW416802   3.044   2.178   1.366 -0.3026  0.0161 -0.2629
 4268SOL     OW16803   1.413   2.017   2.791 -0.2965  0.4410  0.1082
 4268SOL    HW216804   1.388   2.049   2.705 -2.0398  0.0656  0.4280
 4268SOL    HW316805   1.507   2.004   2.786 -0.4186  0.0468 -1.8662
 4268SOL    MW416806   1.422   2.019   2.779 -0.9286 -0.3512 -0.3177
 4269SOL     OW16807   4.618   5.748   6.359  0.2653  0.6347  0.4626
 4269SOL    HW216808   4.550   5.704   6.308  1.8276  0.5733 -1.6688
 4269SOL    HW316809   4.571   5.817   6.405 -1.4688 -0.3109  0.2032
 4269SOL    MW416810   4.603   5.751   6.358 -0.1292 -0.0626 -0.5714
 4270SOL     OW16811   3.446   0.676   5.389  0.2598  0.2965  0.2472
 4270SOL    HW216812   3.466   0.744   5.325  0.0385 -1.0367 -1.3097
 4270SOL    HW316813   3.353   0.657   5.376  0.4785 -0.7907  0.1353
 4270SOL    MW416814   3.436   0.682   5.379  0.8949 -0.7113 -0.3397
 4271SOL     OW16815   2.068   5.043   0.072 -0.1902 -0.3843 -0.3539
 4271SOL    HW216816   1.977   5.069   0.089  0.2033  0.1136  1.0949
 4271SOL    HW316817   2.072   5.034  -0.024 -1.9515 -1.1747 -0.4054
 4271SOL    MW416818   2.056   5.045   0.061  0.1282 -0.1058  0.6549
 4272SOL     OW16819   5.300   4.986   5.414  0.2844  0.8241 -0.2860
 4272SOL    HW216820   5.228   4.923   5.413  0.8908  0.0790  0.7441
 4272SOL    HW316821   5.345   4.971   5.497  0.7987  2.2356 -0.2695
 4272SOL    MW416822   5.297   4.976   5.425 -0.4794 -0.0663 -0.3884
 4273SOL     OW16823   4.472   5.542   5.452 -0.1303 -0.0832  0.1046
 4273SOL    HW216824   4.493   5.630   5.422 -0.2809 -0.1344 -0.1592
 4273SOL    HW316825   4.555   5.504   5.480 -0.4208  1.1634  3.0198
 4273SOL    MW416826   4.486   5.548   5.452  0.3872 -0.2932 -0.2780
 4274SOL     OW16827   0.092   3.645   6.304  0.5294 -0.0461 -0.1645
 4274SOL    HW216828   0.003   3.665   6.276  0.4661  0.0621  0.1108
 4274SOL    HW316829   0.116   3.567   6.254  0.5698  0.3785 -0.8214
 4274SOL    MW416830   0.084   3.637   6.294 -0.4308 -0.1730 -0.2032
 4275SOL     OW16831   3.687   6.185   5.557  0.5717  0.0847  0.1178
 4275SOL    HW216832   3.742   6.214   5.484  1.5177  0.9654  1.1364
 4275SOL    HW316833   3.613   6.245   5.556  0.4848 -0.0250 -0.2275
 4275SOL    MW416834   3.685   6.197   5.547 -0.0612  0.3735  0.1027
 4276SOL     OW16835   5.199   2.556   4.049 -0.5238 -0.0056 -0.5076
 4276SOL    HW216836   5.221   2.543   4.142 -1.4026  0.1253 -0.2697
 4276SOL    HW316837   5.106   2.534   4.043 -0.3539 -0.5172 -1.4683
 4276SOL    MW416838   5.189   2.551   4.061  0.0356  0.0313 -0.5580
 4277SOL     OW16839   2.488   2.319   6.101 -0.0605 -0.0626  0.0352
 4277SOL    HW216840   2.570   2.292   6.144  0.0351 -1.6682 -1.0794
 4277SOL    HW316841   2.419   2.289   6.160  0.1098 -0.5987 -0.0375
 4277SOL    MW416842   2.490   2.312   6.115 -0.2206 -0.1309  0.7658
 4278SOL     OW16843   3.574   1.959   4.789 -0.2888  0.4597  0.1232
 4278SOL    HW216844   3.539   1.889   4.735  0.0712  0.2999  0.0993
 4278SOL    HW316845   3.583   2.033   4.729 -1.1127  0.6723  0.2495
 4278SOL    MW416846   3.571   1.960   4.774  0.6461 -0.0020 -0.1072
 4279SOL     OW16847   4.745   1.567   3.278 -0.0305  0.4168  0.0380
 4279SOL    HW216848   4.817   1.506   3.291  0.7761  1.1612 -0.8604
 4279SOL    HW316849   4.677   1.515   3.235  0.0316 -0.2367  0.7121
 4279SOL    MW416850   4.745   1.552   3.274  0.2490 -0.2665 -0.6926
 4280SOL     OW16851   2.937   0.626   3.236 -0.4793 -0.0293  0.2721
 4280SOL    HW216852   2.958   0.556   3.174 -0.2786 -0.3607  0.7159
 4280SOL    HW316853   3.022   0.658   3.266 -0.4013  2.5236 -2.2306
 4280SOL    MW416854   2.951   0.621   3.232  0.2243  0.4558  0.3082
 4281SOL     OW16855   3.167   0.686   0.583 -0.2209 -0.4248  0.0516
 4281SOL    HW216856   3.194   0.741   0.656  1.3871 -1.0462 -0.0395
 4281SOL    HW316857   3.078   0.658   0.605 -0.9546  1.8604  0.2767
 4281SOL    MW416858   3.158   0.690   0.595  0.3644 -0.0618 -0.4900
 4282SOL     OW16859   3.283   2.241   5.760 -0.5884  0.2615  0.2283
 4282SOL    HW216860   3.288   2.329   5.722  0.2364 -0.4472 -1.4133
 4282SOL    HW316861   3.339   2.188   5.704 -0.2365 -1.1158  1.8112
 4282SOL    MW416862   3.291   2.246   5.747  1.2884 -0.3535  0.2713
 4283SOL     OW16863   0.557   0.342   1.545 -0.0100  0.2902  0.0970
 4283SOL    HW216864   0.596   0.429   1.538 -0.3488  0.3347 -1.7883
 4283SOL    HW316865   0.482   0.354   1.604  0.2572  1.1367  0.2779
 4283SOL    MW416866   0.552   0.355   1.552 -0.3002 -0.6409 -0.2794
 4284SOL     OW16867   3.148   2.699   0.679  0.2100  0.2376  0.1966
 4284SOL    HW216868   3.142   2.785   0.721  1.7525 -0.5081  2.1466
 4284SOL    HW316869   3.123   2.714   0.588 -2.1307  2.2199  1.0629
 4284SOL    MW416870   3.144   2.712   0.673  0.2613 -0.5338 -0.2695
 4285SOL     OW16871   0.125   4.877   1.786 -0.3450  0.5710  0.6284
 4285SOL    HW216872   0.088   4.797   1.750 -0.4090  0.7277  0.3465
 4285SOL    HW316873   0.118   4.866   1.881 -0.0699  0.1111  0.5975
 4285SOL    MW416874   0.119   4.865   1.794  0.2852 -0.4871 -0.0515
 4286SOL     OW16875   2.967   1.100   3.193  0.1426  0.4457  0.5319
 4286SOL    HW216876   2.990   1.108   3.100 -1.5091 -0.7424 -0.0313
 4286SOL    HW316877   3.039   1.051   3.232  1.2846  1.7139  0.1062
 4286SOL    MW416878   2.980   1.095   3.186 -0.5025  0.3756 -0.5921
 4287SOL     OW16879   4.890   3.461   2.306 -0.5862  0.3360  0.1254
 4287SOL    HW216880   4.827   3.502   2.247  0.9348  0.5209 -1.4464
 4287SOL    HW316881   4.851   3.470   2.393 -1.8582  2.0644 -0.5687
 4287SOL    MW416882   4.876   3.467   2.309  0.1333 -0.3058 -0.3009
 4288SOL     OW16883   2.723   4.057   3.792 -0.6699 -0.7625 -0.6711
 4288SOL    HW216884   2.744   4.117   3.864  0.3483 -1.7379 -0.1322
 4288SOL    HW316885   2.790   4.073   3.726  0.1434 -1.8907 -0.1514
 4288SOL    MW416886   2.734   4.067   3.793  0.4076  1.0175  0.5497
 4289SOL     OW16887   5.423   3.393   5.059 -0.9661 -0.0838  0.4983
 4289SOL    HW216888   5.464   3.334   5.123 -0.2394 -0.1420 -0.0013
 4289SOL    HW316889   5.444   3.481   5.090  2.1440 -0.0377 -1.2273
 4289SOL    MW416890   5.431   3.397   5.071 -0.4267 -0.5457  0.0864
 4290SOL     OW16891   2.209   2.402   3.068  0.3731  0.0823  0.1831
 4290SOL    HW216892   2.265   2.404   3.146 -0.7932 -0.7773  1.0995
 4290SOL    HW316893   2.269   2.409   2.994  1.6296 -0.2423  1.1427
 4290SOL    MW416894   2.224   2.403   3.069  0.1847  0.5155 -0.0387
 4291SOL     OW16895   5.998   4.103   5.463  0.4147  0.3608 -0.1679
 4291SOL    HW216896   5.929   4.144   5.515  0.3793  0.5920 -0.3963
 4291SOL    HW316897   5.952   4.039   5.409  0.1164  1.7279 -1.6050
 4291SOL    MW416898   5.983   4.100   5.463  0.0908 -0.4270 -0.1060
 4292SOL     OW16899   1.783   0.932   0.855  0.2578  0.0630 -0.7624
 4292SOL    HW216900   1.776   0.928   0.759 -0.0035 -0.3589 -0.7304
 4292SOL    HW316901   1.711   0.877   0.886  0.1643  0.4310 -0.3172
 4292SOL    MW416902   1.773   0.924   0.846 -0.3767 -0.9890 -0.0820
 4293SOL     OW16903   4.974   4.723   5.930 -0.0559  0.4594  0.0341
 4293SOL    HW216904   4.954   4.630   5.921  0.8125  0.1085  1.3856
 4293SOL    HW316905   5.051   4.725   5.986 -1.0936  2.0697  1.4792
 4293SOL    MW416906   4.981   4.711   5.936  0.2531 -0.4264 -0.5850
 4294SOL     OW16907   3.747   1.407   5.278  0.2365 -0.1694  0.5138
 4294SOL    HW216908   3.661   1.364   5.275 -0.6533  1.3412  2.0459
 4294SOL    HW316909   3.794   1.362   5.348  0.4195 -0.5204  0.1671
 4294SOL    MW416910   3.742   1.395   5.287  0.0162 -0.4075 -0.2707
 4295SOL     OW16911   4.899   2.276   3.743  0.2737  0.2158  0.0381
 4295SOL    HW216912   4.939   2.268   3.829  0.4283  1.1498  0.0582
 4295SOL    HW316913   4.942   2.208   3.690  1.3281  0.6956  0.2661
 4295SOL    MW416914   4.910   2.266   3.747 -0.1905  0.1308  0.5953
 4296SOL     OW16915   5.359   0.300   3.917  0.6250  0.1894  0.7508
 4296SOL    HW216916   5.312   0.324   3.997 -0.2225  1.3426 -0.0571
 4296SOL    HW316917   5.306   0.232   3.876  0.4344  0.4360  0.5850
 4296SOL    MW416918   5.346   0.295   3.922 -0.8351  0.3904 -0.3529
 4297SOL     OW16919   5.499   0.465   2.677 -0.4690 -0.2753  0.4217
 4297SOL    HW216920   5.588   0.430   2.675 -0.4672 -0.3781  1.4973
 4297SOL    HW316921   5.502   0.543   2.621 -0.0034 -0.9187 -0.4750
 4297SOL    MW416922   5.511   0.471   2.669  0.1829 -0.2242  0.6435
 4298SOL     OW16923   0.348   4.700   0.342  0.4801 -0.5950  0.0567
 4298SOL    HW216924   0.436   4.737   0.344  0.7342 -0.9785 -2.0218
 4298SOL    HW316925   0.290   4.777   0.341  0.7886 -0.3397  0.9219
 4298SOL    MW416926   0.352   4.715   0.342  0.3581  0.2203 -0.2076
 4299SOL     OW16927   6.378   1.171   3.570  0.2092  0.6305 -0.3090
 4299SOL    HW216928   6.462   1.154   3.528 -0.4077 -0.1336 -1.2856
 4299SOL    HW316929   6.328   1.221   3.505 -0.7291 -0.4973 -0.4830
 4299SOL    MW416930   6.383   1.175   3.556  0.0350 -0.1581 -0.1565
 4300SOL     OW16931   5.483   3.606   2.695 -0.6230  0.3016  0.7774
 4300SOL    HW216932   5.450   3.681   2.646 -0.1743  1.1237  1.6887
 4300SOL    HW316933   5.573   3.628   2.717 -0.8036 -0.0171  1.9635
 4300SOL    MW416934   5.490   3.619   2.692  0.2425 -0.4520  0.3577
 4301SOL     OW16935   4.536   6.214   5.728  0.0665 -0.5938  0.4943
 4301SOL    HW216936   4.441   6.218   5.729 -0.1108 -2.9474 -0.8988
 4301SOL    HW316937   4.559   6.146   5.791  0.7112 -1.1959 -0.3644
 4301SOL    MW416938   4.527   6.206   5.736  0.4270 -0.0756  1.0783
 4302SOL     OW16939   4.157   3.328   1.623 -0.3547 -0.1008  0.3479
 4302SOL    HW216940   4.219   3.321   1.695  2.1325 -0.2717 -1.6524
 4302SOL    HW316941   4.161   3.419   1.596  0.2069 -0.4318 -0.7481
 4302SOL    MW416942   4.165   3.339   1.629  0.9651 -0.6554 -0.1671
 4303SOL     OW16943   1.564   0.952   6.288 -0.2682  0.0582 -0.7729
 4303SOL    HW216944   1.509   0.980   6.361 -0.4649  0.8760 -1.2250
 4303SOL    HW316945   1.630   1.021   6.280 -0.9324  0.5831 -2.0914
 4303SOL    MW416946   1.565   0.965   6.296 -0.3376 -0.7094  0.0172
 4304SOL     OW16947   4.216   0.952   1.691 -0.0040  0.1574  0.7827
 4304SOL    HW216948   4.290   0.965   1.632 -0.9541 -0.8180 -0.7291
 4304SOL    HW316949   4.159   1.028   1.674  0.5369  0.8120  1.8087
 4304SOL    MW416950   4.218   0.964   1.681  0.3950 -0.4467  0.0831
 4305SOL     OW16951   1.999   3.412   1.274 -0.1412  0.1817  0.1360
 4305SOL    HW216952   1.961   3.477   1.333  0.6671  0.0800  0.7830
 4305SOL    HW316953   2.014   3.335   1.329  2.3360  0.6888  0.2962
 4305SOL    MW416954   1.996   3.410   1.289 -0.5644  0.6293  0.4938
 4306SOL     OW16955   0.991   4.702   1.154 -0.4686 -0.4871  0.0854
 4306SOL    HW216956   1.046   4.628   1.180  0.1812  0.2471  0.8886
 4306SOL    HW316957   0.906   4.684   1.193  0.3162  0.2743  2.3135
 4306SOL    MW416958   0.987   4.690   1.163  0.0758 -0.8662 -0.2551
 4307SOL     OW16959   5.695   0.420   4.516  0.2715  0.1286  0.2003
 4307SOL    HW216960   5.621   0.370   4.483 -1.1292  2.4709 -0.4486
 4307SOL    HW316961   5.656   0.492   4.566  2.2309 -0.5110  2.9128
 4307SOL    MW416962   5.680   0.423   4.518 -0.1723 -1.0214 -0.1168
 4308SOL     OW16963   0.089   0.704   0.998 -0.2297 -0.9530 -0.0327
 4308SOL    HW216964   0.143   0.726   0.922  1.4879  0.3350  1.4624
 4308SOL    HW316965   0.100   0.609   1.009 -0.5468 -1.1571 -1.4002
 4308SOL    MW416966   0.098   0.694   0.990 -0.7540 -0.2398  0.1985
 4309SOL     OW16967   4.407   4.627   4.253  0.2354  0.1946  0.3978
 4309SOL    HW216968   4.473   4.581   4.304  0.3033  0.2139  0.3251
 4309SOL    HW316969   4.339   4.649   4.317 -0.4275 -1.1745  0.2023
 4309SOL    MW416970   4.406   4.624   4.268  0.4447 -0.1237 -0.5218
 4310SOL     OW16971   6.410   0.281   0.690 -0.7883 -0.3090 -0.0235
 4310SOL    HW216972   6.365   0.218   0.634  0.4447  0.2779 -1.7217
 4310SOL    HW316973   6.503   0.265   0.676 -0.3870 -0.6629  2.4876
 4310SOL    MW416974   6.416   0.270   0.681  0.0347 -0.7073  0.3289
 4311SOL     OW16975   3.217   4.815   0.751  0.5685 -0.1207 -0.4846
 4311SOL    HW216976   3.213   4.757   0.676 -1.0663 -0.5841 -0.0880
 4311SOL    HW316977   3.127   4.846   0.762  0.6114 -0.5724  1.6352
 4311SOL    MW416978   3.205   4.811   0.743  1.0936 -0.2385 -0.8477
 4312SOL     OW16979   4.796   4.255   3.290  0.1862 -0.1916  0.2224
 4312SOL    HW216980   4.792   4.162   3.267  0.6056 -0.8358  2.5150
 4312SOL    HW316981   4.755   4.299   3.215 -1.6349 -2.3481 -0.1739
 4312SOL    MW416982   4.790   4.248   3.277  0.5530  0.2113  0.1279
 4313SOL     OW16983   2.237   2.642   3.670 -0.2916 -0.2376 -0.0186
 4313SOL    HW216984   2.225   2.549   3.652 -0.0436 -0.0757 -1.1037
 4313SOL    HW316985   2.326   2.647   3.706  0.2005 -0.2877 -1.1720
 4313SOL    MW416986   2.247   2.630   3.672 -0.0119 -0.0156 -0.6133
 4314SOL     OW16987   2.944   4.372   3.062  0.4755 -0.4373  1.1456
 4314SOL    HW216988   2.964   4.449   3.115 -0.8689 -0.4975  1.7777
 4314SOL    HW316989   2.899   4.313   3.122 -0.7546 -0.6590  0.0298
 4314SOL    MW416990   2.941   4.375   3.077  0.1790  0.6398 -0.3417
 4315SOL     OW16991   6.181   0.167   1.422  0.0518  0.3964 -0.1423
 4315SOL    HW216992   6.159   0.171   1.329  1.3174 -1.1455 -0.5518
 4315SOL    HW316993   6.273   0.194   1.426  0.4392 -0.9383  0.4517
 4315SOL    MW416994   6.190   0.171   1.411 -0.8980 -0.3691  0.0173
 4316SOL     OW16995   5.837   4.039   3.577  0.5340 -0.4251 -0.1496
 4316SOL    HW216996   5.782   3.975   3.623  0.4957 -1.1414 -1.1626
 4316SOL    HW316997   5.777   4.083   3.517  0.6449  0.3085  0.2553
 4316SOL    MW416998   5.822   4.036   3.575 -0.2302  0.4038  0.2581
 4317SOL     OW16999   1.411   4.294   2.554  0.5412  0.6655 -0.1931
 4317SOL    HW217000   1.417   4.199   2.549 -0.3878  0.6503 -2.9232
 4317SOL    HW317001   1.342   4.311   2.617 -0.7030 -0.5802 -1.1661
 4317SOL    MW417002   1.403   4.284   2.562 -0.4228 -0.0986  0.5663
 4318SOL     OW17003   2.857   5.911   5.344 -0.1274 -0.2901  0.5470
 4318SOL    HW217004   2.942   5.949   5.321 -0.1748 -0.5757 -0.1300
 4318SOL    HW317005   2.877   5.846   5.411 -0.2243  1.9592  2.8969
 4318SOL    MW417006   2.871   5.907   5.349 -0.0467  0.0688 -0.1217
 4319SOL     OW17007   2.978   4.789   0.292  0.1590  0.4478 -0.1403
 4319SOL    HW217008   2.972   4.735   0.213  0.3419  0.0712  0.1051
 4319SOL    HW317009   3.039   4.742   0.349  0.1668  0.8130  0.1524
 4319SOL    MW417010   2.985   4.776   0.289  0.2285 -0.1917 -0.6491
 4320SOL     OW17011   2.917   3.012   5.641  0.3930 -0.5116 -0.0204
 4320SOL    HW217012   2.833   3.043   5.676 -0.0332 -0.4088 -1.0904
 4320SOL    HW317013   2.934   2.931   5.689  0.7341  0.5114  1.6788
 4320SOL    MW417014   2.908   3.005   5.652  0.2339  0.0158 -0.2967
 4321SOL     OW17015   5.885   5.405   0.419  0.1291  0.5604  0.1497
 4321SOL    HW217016   5.848   5.387   0.506 -2.3560  0.1225 -0.8889
 4321SOL    HW317017   5.812   5.444   0.371  1.0215 -0.4281 -2.1295
 4321SOL    MW417018   5.870   5.408   0.424 -0.3084 -0.2355 -0.1960
 4322SOL     OW17019   0.320   0.027   1.467 -0.4456  0.1611  0.5957
 4322SOL    HW217020   0.285   0.107   1.429  1.2729  0.5047 -0.3396
 4322SOL    HW317021   0.268   0.014   1.547  0.5317  3.3597  1.9266
 4322SOL    MW417022   0.309   0.036   1.473  0.1213 -0.0089  0.6759
 4323SOL     OW17023   3.309   3.850   5.129 -0.7837  0.1078 -0.0568
 4323SOL    HW217024   3.400   3.874   5.107 -0.0922 -1.5575  0.8407
 4323SOL    HW317025   3.257   3.920   5.090  0.9246  1.5542  0.0798
 4323SOL    MW417026   3.314   3.863   5.121 -0.4336  0.5973 -0.3295
 4324SOL     OW17027   2.369   1.748   2.377 -0.2925 -0.1431 -0.0562
 4324SOL    HW217028   2.369   1.756   2.472  0.9509 -1.6061  0.1107
 4324SOL    HW317029   2.306   1.678   2.359 -1.9493  1.3689 -0.5128
 4324SOL    MW417030   2.361   1.740   2.387 -0.4834 -0.5780  0.3685
 4325SOL     OW17031   3.540   0.858   4.386  0.2704  0.3131  0.0778
 4325SOL    HW217032   3.629   0.823   4.379  0.1208  0.0191 -0.4039
 4325SOL    HW317033   3.527   0.871   4.480  1.2146  1.3935  0.0750
 4325SOL    MW417034   3.550   0.855   4.398  0.3173  0.4604  0.3901
 4326SOL     OW17035   5.818   1.965   0.704 -0.0968  0.0570 -0.7549
 4326SOL    HW217036   5.892   1.949   0.762 -1.1978  0.2025  0.7441
 4326SOL    HW317037   5.850   2.029   0.641  0.3390  2.0818  1.4041
 4326SOL    MW417038   5.832   1.971   0.703  0.0380  0.0953 -0.3185
 4327SOL     OW17039   3.486   3.919   6.176 -0.0995  0.2125  0.1132
 4327SOL    HW217040   3.441   3.974   6.241  0.3226  2.0610 -1.0796
 4327SOL    HW317041   3.548   3.867   6.227 -0.7109  0.6317  1.3331
 4327SOL    MW417042   3.488   3.920   6.191  0.4116 -0.3824 -0.2136
 4328SOL     OW17043   1.893   2.695   3.664  0.1370  0.6089 -0.7541
 4328SOL    HW217044   1.941   2.678   3.745 -0.9853 -0.1253 -0.2297
 4328SOL    HW317045   1.910   2.619   3.609 -0.0597  0.5625 -0.7502
 4328SOL    MW417046   1.902   2.683   3.667 -0.2243 -1.4583 -0.0507
 4329SOL     OW17047   5.007   5.928   1.343  0.4419  0.3655 -0.4546
 4329SOL    HW217048   5.035   5.898   1.257  1.5447 -1.3924  0.4623
 4329SOL    HW317049   5.049   5.868   1.405 -1.9360  0.2789  1.2254
 4329SOL    MW417050   5.016   5.916   1.340  0.2329 -0.1947 -0.0237
 4330SOL     OW17051   0.316   2.000   1.919  0.0723 -0.0616 -0.2865
 4330SOL    HW217052   0.395   2.039   1.881 -0.2682  0.8262 -0.1154
 4330SOL    HW317053   0.244   2.037   1.868 -0.2727 -0.3940 -0.0456
 4330SOL    MW417054   0.317   2.010   1.907  0.1362  0.3297  0.6054
 4331SOL     OW17055   5.648   0.413   3.160 -0.2217 -0.1287  0.7219
 4331SOL    HW217056   5.647   0.503   3.129  0.8671 -0.0965  0.7494
 4331SOL    HW317057   5.716   0.370   3.108  1.3359 -0.1812  2.6598
 4331SOL    MW417058   5.657   0.419   3.149  0.0737  0.1296  0.1892
 4332SOL     OW17059   0.547   2.565   3.051 -0.0657 -0.0562 -0.1199
 4332SOL    HW217060   0.523   2.556   2.959  1.8215  0.4031 -0.6877
 4332SOL    HW317061   0.621   2.507   3.063 -0.3412 -0.1737  1.1501
 4332SOL    MW417062   0.553   2.556   3.041  0.2250  0.3546 -0.0249
 4333SOL     OW17063   1.818   2.664   6.171  0.2773 -0.2972 -0.7883
 4333SOL    HW217064   1.891   2.708   6.127  1.4270 -1.0273  0.3185
 4333SOL    HW317065   1.790   2.596   6.109 -0.5488  0.9773 -1.8835
 4333SOL    MW417066   1.824   2.661   6.157 -0.9000 -0.7571 -0.1001
 4334SOL     OW17067   1.617   4.354   0.787  0.0488 -0.0754  0.1033
 4334SOL    HW217068   1.583   4.442   0.772  0.0812 -0.2259 -0.9715
 4334SOL    HW317069   1.605   4.309   0.703 -1.0508 -1.4668  0.9551
 4334SOL    MW417070   1.611   4.360   0.774 -0.4154  0.7279 -0.2096
 4335SOL     OW17071   5.704   3.277   3.128  0.1690  0.2652 -0.5369
 4335SOL    HW217072   5.777   3.317   3.081 -0.1056 -1.2894 -2.3883
 4335SOL    HW317073   5.731   3.186   3.141  0.6432  0.7695  3.2947
 4335SOL    MW417074   5.717   3.271   3.124  0.3816  0.2253 -0.8147
 4336SOL     OW17075   4.946   5.540   5.079  0.0128 -0.0165  0.0947
 4336SOL    HW217076   5.003   5.574   5.010  0.7208  1.3735  1.3169
 4336SOL    HW317077   4.914   5.456   5.044  1.5896 -0.1115 -1.2608
 4336SOL    MW417078   4.949   5.533   5.065 -0.0037 -0.1435 -0.2547
 4337SOL     OW17079   1.407   2.366   1.030 -0.1097  0.8610 -0.1896
 4337SOL    HW217080   1.448   2.409   1.105  0.2049 -3.3360  2.3844
 4337SOL    HW317081   1.476   2.363   0.964 -0.1027  3.8376 -0.4496
 4337SOL    MW417082   1.422   2.371   1.031  0.0908 -0.0255 -0.2774
 4338SOL     OW17083   2.889   2.412   1.334 -0.3890  0.6573 -0.1093
 4338SOL    HW217084   2.915   2.489   1.284 -0.6881  1.7856  1.4135
 4338SOL    HW317085   2.797   2.398   1.311 -0.3312  0.7664 -0.4020
 4338SOL    MW417086   2.880   2.420   1.325 -0.2393  0.8229  0.2256
 4339SOL     OW17087   5.343   3.149   0.904  0.2495 -0.2596 -0.2629
 4339SOL    HW217088   5.384   3.074   0.860 -1.0467 -1.5325  0.5932
 4339SOL    HW317089   5.249   3.133   0.895 -0.0840  1.8037 -0.8956
 4339SOL    MW417090   5.336   3.137   0.897  0.2470  0.6705 -0.2294
 4340SOL     OW17091   0.133   3.048   4.646  0.0964  0.4693 -0.4153
 4340SOL    HW217092   0.156   3.041   4.739 -1.2941 -1.4821 -0.1470
 4340SOL    HW317093   0.194   3.113   4.611  0.0586  1.9716  2.0372
 4340SOL    MW417094   0.144   3.056   4.654  0.5358  0.3274 -0.7388
 4341SOL     OW17095   0.191   1.942   1.471  0.3555  0.2952 -0.1501
 4341SOL    HW217096   0.158   1.934   1.382  2.5147 -1.2785 -0.9212
 4341SOL    HW317097   0.233   1.857   1.489  2.0058  1.3629  1.4685
 4341SOL    MW417098   0.192   1.930   1.462 -0.3863 -0.7988  0.2919
 4342SOL     OW17099   1.889   4.098   2.885  0.2238 -0.4234  0.1980
 4342SOL    HW217100   1.843   4.076   2.804  1.0122  1.2720 -0.7699
 4342SOL    HW317101   1.936   4.179   2.864 -2.8501  2.5957  3.5294
 4342SOL    MW417102   1.889   4.106   2.871  0.0908 -0.1023 -0.8543
 4343SOL     OW17103   3.698   2.262  -0.004  0.3306 -0.0872 -0.8945
 4343SOL    HW217104   3.666   2.189  -0.056 -1.7347  0.9223 -1.1345
 4343SOL    HW317105   3.652   2.339  -0.039 -0.0919  0.8352  1.4755
 4343SOL    MW417106   3.688   2.263  -0.015 -0.2479 -0.0696  0.2912
 4344SOL     OW17107   2.468   6.142   1.578 -0.4961 -0.6162 -0.3472
 4344SOL    HW217108   2.475   6.133   1.673 -0.4753 -1.8140 -0.4509
 4344SOL    HW317109   2.558   6.136   1.547 -0.3252  1.3049 -0.3497
 4344SOL    MW417110   2.481   6.140   1.587 -0.7788  0.1714  0.1172
 4345SOL     OW17111   0.705   1.702   2.094 -0.1542 -0.0065 -0.7354
 4345SOL    HW217112   0.739   1.792   2.094  0.4739 -0.1766  1.5359
 4345SOL    HW317113   0.630   1.705   2.154 -0.3197 -0.9434 -0.8856
 4345SOL    MW417114   0.700   1.714   2.102  0.4129  0.6569  0.1070
 4346SOL     OW17115   5.834   5.243   4.007 -0.1136 -0.0370  0.2338
 4346SOL    HW217116   5.799   5.162   3.972 -1.8757  0.6394  0.3343
 4346SOL    HW317117   5.757   5.298   4.024  1.0037  1.6395  0.2020
 4346SOL    MW417118   5.820   5.240   4.005 -0.5402  0.1532 -0.0232
 4347SOL     OW17119   2.774   1.713   4.128  0.0331  0.4516 -0.0781
 4347SOL    HW217120   2.830   1.653   4.177 -0.9609 -0.1891  0.2943
 4347SOL    HW317121   2.805   1.706   4.037 -2.1767 -3.2625 -0.7309
 4347SOL    MW417122   2.786   1.704   4.122  0.1929 -0.2891 -0.6881
 4348SOL     OW17123   2.577   0.505   5.751  0.0598  0.2440  0.2731
 4348SOL    HW217124   2.578   0.419   5.792  0.8654  0.7040  1.2654
 4348SOL    HW317125   2.564   0.567   5.823  0.6965  1.0156 -0.2502
 4348SOL    MW417126   2.576   0.502   5.766 -0.3748  0.1331 -0.0596
 4349SOL     OW17127   6.389   4.180   5.689  0.3287  0.8387 -0.6199
 4349SOL    HW217128   6.340   4.104   5.657 -0.2565  1.2563 -0.7429
 4349SOL    HW317129   6.450   4.145   5.753 -1.0755  0.4730  0.5657
 4349SOL    MW417130   6.390   4.166   5.693 -0.1064 -0.4397 -0.0718
 4350SOL     OW17131   1.069   0.400   3.599  0.0020  0.3171  0.1556
 4350SOL    HW217132   1.027   0.403   3.685  1.8808  1.6710  1.0988
 4350SOL    HW317133   1.047   0.314   3.564 -1.1767 -0.0909  1.7775
 4350SOL    MW417134   1.060   0.389   3.605  0.1655 -0.4712  0.2262
 4351SOL     OW17135   6.038   0.077   0.543 -0.2490  0.2648 -0.2621
 4351SOL    HW217136   6.086   0.122   0.612 -2.1353  0.7669  0.8182
 4351SOL    HW317137   6.006   0.148   0.486  1.3984 -0.1497 -1.7902
 4351SOL    MW417138   6.040   0.093   0.544  0.0514  0.1193  0.6078
 4352SOL     OW17139   3.685   4.599   3.158 -0.1655 -0.3328 -0.7737
 4352SOL    HW217140   3.706   4.658   3.230 -2.1893  1.1690 -1.3160
 4352SOL    HW317141   3.673   4.513   3.199  2.2497 -0.3127  0.1141
 4352SOL    MW417142   3.686   4.595   3.173 -0.2229 -0.1067 -0.3331
 4353SOL     OW17143   1.623   0.340   1.768 -0.0071  0.1203  0.1430
 4353SOL    HW217144   1.674   0.407   1.813 -0.6294  0.8037 -0.1422
 4353SOL    HW317145   1.655   0.343   1.677  0.0700 -0.0754  0.1640
 4353SOL    MW417146   1.634   0.349   1.762 -0.4801 -0.1432 -0.2887
 4354SOL     OW17147   2.875   4.591   4.184 -0.5524  0.0740 -0.0044
 4354SOL    HW217148   2.784   4.561   4.177 -0.4623 -0.0342 -0.8093
 4354SOL    HW317149   2.928   4.513   4.169 -0.3220  0.5127 -1.6549
 4354SOL    MW417150   2.870   4.577   4.181  0.4206 -0.0897 -0.2553
 4355SOL     OW17151   1.649   4.659   1.080 -0.8942  0.1445 -0.5774
 4355SOL    HW217152   1.654   4.740   1.130  2.0794 -0.1601 -0.2051
 4355SOL    HW317153   1.740   4.632   1.069 -1.7525 -2.9552 -0.9947
 4355SOL    MW417154   1.662   4.666   1.085  0.3877 -0.0140 -0.0595
 4356SOL     OW17155   2.317   0.920   3.127 -0.4394  0.0189 -0.3281
 4356SOL    HW217156   2.268   0.937   3.046  1.0021  0.8122 -1.0799
 4356SOL    HW317157   2.348   1.006   3.155 -1.5724 -0.1309  1.5558
 4356SOL    MW417158   2.315   0.934   3.120 -0.0877  0.0134  0.5147
 4357SOL     OW17159   1.333   5.819   4.938  0.2669 -0.0791  0.2619
 4357SOL    HW217160   1.325   5.913   4.948 -0.3953 -0.2027  1.0269
 4357SOL    HW317161   1.426   5.804   4.920  0.3023  0.7422 -0.3003
 4357SOL    MW417162   1.344   5.829   4.937 -0.5404 -0.3110  0.3952
 4358SOL     OW17163   1.844   3.773   2.383 -0.7995 -0.1595 -0.4653
 4358SOL    HW217164   1.755   3.771   2.420 -0.4359 -0.3262  0.4337
 4358SOL    HW317165   1.901   3.787   2.459 -0.1048  0.7088 -1.1197
 4358SOL    MW417166   1.840   3.775   2.398  0.1970 -0.1532 -0.1096
 4359SOL     OW17167   2.470   4.628   2.043 -0.1012  0.2935  1.0203
 4359SOL    HW217168   2.387   4.673   2.060 -0.7086  0.1764 -1.3055
 4359SOL    HW317169   2.450   4.536   2.059 -0.8116  0.1204 -0.6293
 4359SOL    MW417170   2.456   4.622   2.047  0.1742 -0.1273 -0.0979
 4360SOL     OW17171   4.252   3.798   5.669  0.3973 -0.3368  0.0554
 4360SOL    HW217172   4.299   3.847   5.602 -0.1684  2.1167  1.3211
 4360SOL    HW317173   4.160   3.822   5.656  0.0093 -1.5994  0.3372
 4360SOL    MW417174   4.246   3.807   5.659  0.1470  0.0867  0.2212
 4361SOL     OW17175   5.675   4.859   5.897 -0.3174 -0.0675  0.0127
 4361SOL    HW217176   5.751   4.854   5.839 -0.4618  1.0910 -0.3107
 4361SOL    HW317177   5.687   4.942   5.944 -1.3578  0.1105 -0.0184
 4361SOL    MW417178   5.687   4.870   5.896  0.1628 -0.5288  0.3422
 4362SOL     OW17179   5.794   0.815   3.192  0.2486 -0.2433 -0.2346
 4362SOL    HW217180   5.822   0.851   3.107 -1.4925 -0.1394 -0.7998
 4362SOL    HW317181   5.702   0.794   3.180  0.1585 -0.9595  1.4201
 4362SOL    MW417182   5.786   0.817   3.179 -0.0125  0.3315  0.7418
 4363SOL     OW17183   2.261   0.646   4.113  0.0525 -0.3140 -0.2003
 4363SOL    HW217184   2.200   0.588   4.158  1.7394 -0.2700  2.3864
 4363SOL    HW317185   2.303   0.696   4.184  0.0933  2.6792 -2.1766
 4363SOL    MW417186   2.259   0.645   4.129  0.2919  0.0542 -0.1990
 4364SOL     OW17187   1.183   4.853   6.333  0.1051  0.2873  0.0022
 4364SOL    HW217188   1.231   4.928   6.299 -2.8003  1.9453 -0.8177
 4364SOL    HW317189   1.154   4.880   6.420  0.5443 -0.6358  0.4471
 4364SOL    MW417190   1.185   4.866   6.340  0.7336  0.3270 -0.1140
 4365SOL     OW17191   2.642   2.567   2.668 -0.4513 -0.3270 -0.2907
 4365SOL    HW217192   2.577   2.626   2.631  0.4952  1.0943  0.1960
 4365SOL    HW317193   2.598   2.482   2.675 -2.3437  0.6564  0.3449
 4365SOL    MW417194   2.628   2.564   2.664 -0.1997 -0.4786  0.4867
 4366SOL     OW17195   0.305   1.246  -0.003  0.9090  0.2441  0.4652
 4366SOL    HW217196   0.236   1.206  -0.057  2.6546 -1.0005 -0.9844
 4366SOL    HW317197   0.262   1.265   0.080 -1.3710  0.2476 -0.6246
 4366SOL    MW417198   0.290   1.243   0.001  0.8360  0.3290 -0.0907
 4367SOL     OW17199   6.150   2.864   3.636 -0.4125  0.2930 -0.2854
 4367SOL    HW217200   6.068   2.859   3.685 -0.4828 -2.0122 -0.5158
 4367SOL    HW317201   6.219   2.854   3.703 -0.4707 -1.4266 -0.4317
 4367SOL    MW417202   6.149   2.862   3.651  0.2842 -0.4271 -0.5922
 4368SOL     OW17203   6.048   5.602   4.125  0.7817 -0.1171 -0.5735
 4368SOL    HW217204   6.138   5.595   4.095  0.2450  1.0982 -2.6251
 4368SOL    HW317205   6.029   5.696   4.125 -0.8257 -0.3975 -1.3350
 4368SOL    MW417206   6.057   5.613   4.121  0.0245 -0.0058 -0.1659
 4369SOL     OW17207   4.116   1.100   5.808  0.2852  0.3893  0.1367
 4369SOL    HW217208   4.108   1.194   5.824 -0.4748  0.1407  1.4294
 4369SOL    HW317209   4.151   1.064   5.890  0.1072 -0.5032 -0.1615
 4369SOL    MW417210   4.119   1.107   5.821 -0.3446 -0.5558 -0.2826
 4370SOL     OW17211   5.550   2.280   1.065 -0.5735 -0.5149 -0.1069
 4370SOL    HW217212   5.605   2.263   0.988 -2.4803 -2.2690 -1.2075
 4370SOL    HW317213   5.562   2.202   1.120  0.8911  0.7944  1.5400
 4370SOL    MW417214   5.559   2.267   1.062 -0.1242 -0.2235 -0.2870
 4371SOL     OW17215   3.823   3.095   3.464 -0.5988  0.5069 -0.3253
 4371SOL    HW217216   3.888   3.100   3.394  0.4991 -1.1759  0.4998
 4371SOL    HW317217   3.740   3.086   3.419  0.1382 -1.0282 -1.4662
 4371SOL    MW417218   3.821   3.094   3.449 -0.3542  0.2193  0.1822
 4372SOL     OW17219   2.997   3.160   1.810  0.1794  0.0135  0.2210
 4372SOL    HW217220   2.964   3.120   1.730 -2.0879 -0.3277  1.2504
 4372SOL    HW317221   2.950   3.243   1.817  0.0288 -0.1539  1.4073
 4372SOL    MW417222   2.987   3.166   1.800  0.3564 -0.2613 -0.1181
 4373SOL     OW17223   4.298   4.360   3.482 -0.2769 -0.6438  0.0717
 4373SOL    HW217224   4.299   4.367   3.578 -0.5103 -0.2384  0.0441
 4373SOL    HW317225   4.206   4.361   3.458 -0.2336  2.6915 -0.3888
 4373SOL    MW417226   4.286   4.361   3.492 -0.2311  0.2101 -0.1067
 4374SOL     OW17227   0.466   0.656   0.933  0.0548 -0.1749  0.3612
 4374SOL    HW217228   0.470   0.589   0.864  2.0617  1.1426 -0.9046
 4374SOL    HW317229   0.516   0.729   0.898 -1.5699  1.8078  1.9417
 4374SOL    MW417230   0.473   0.657   0.919 -0.2121  0.3519 -0.0143
 4375SOL     OW17231   6.051   3.913   2.431 -0.1311  0.1776 -0.5543
 4375SOL    HW217232   6.065   4.007   2.414 -2.7878  0.3290 -2.6884
 4375SOL    HW317233   5.982   3.911   2.498  0.6574 -0.2863  0.2543
 4375SOL    MW417234   6.044   3.925   2.437  0.4863  0.3144  0.5325
 4376SOL     OW17235   1.025   4.253   6.031 -0.0563 -0.4010 -0.0626
 4376SOL    HW217236   0.991   4.197   6.102  0.6012  0.4938  0.9852
 4376SOL    HW317237   1.046   4.336   6.074 -2.0809  1.1036 -1.7728
 4376SOL    MW417238   1.023   4.257   6.046 -0.0973  0.1396  0.5392
 4377SOL     OW17239   5.146   4.531   0.205 -0.2311 -0.6281  0.3897
 4377SOL    HW217240   5.059   4.492   0.212 -0.6891  0.4150  0.6964
 4377SOL    HW317241   5.148   4.599   0.273  1.8587 -2.5138  2.4180
 4377SOL    MW417242   5.135   4.535   0.215 -0.3813  0.1471 -0.4389
 4378SOL     OW17243   4.779   3.047   2.688 -0.6305 -0.8457 -0.7933
 4378SOL    HW217244   4.764   3.091   2.605 -1.0117 -1.3876 -1.0166
 4378SOL    HW317245   4.827   3.111   2.741 -0.9865 -0.2430 -1.1841
 4378SOL    MW417246   4.783   3.061   2.684  0.1539 -0.0791 -0.1553
 4379SOL     OW17247   2.668   5.681   4.147  0.4976  0.1408 -0.5180
 4379SOL    HW217248   2.715   5.607   4.109  0.3431 -0.3267  0.2034
 4379SOL    HW317249   2.724   5.712   4.218  0.1432  0.1519 -0.2400
 4379SOL    MW417250   2.682   5.676   4.151  0.4711  0.0347 -0.2943
 4380SOL     OW17251   2.911   1.813   0.710 -0.3940  0.3305  0.0327
 4380SOL    HW217252   2.951   1.899   0.720  0.7753 -0.2509  0.6145
 4380SOL    HW317253   2.981   1.758   0.674 -0.7512 -0.6512  0.7778
 4380SOL    MW417254   2.926   1.817   0.706  0.0486 -0.4301 -0.3039
 4381SOL     OW17255   3.675   2.455   5.810 -0.3383 -0.1722 -0.2540
 4381SOL    HW217256   3.678   2.378   5.753 -2.3320 -0.6567  0.2083
 4381SOL    HW317257   3.610   2.512   5.769  0.8873  1.1665 -0.4231
 4381SOL    MW417258   3.667   2.452   5.797 -0.1066 -0.4105 -0.6507
 4382SOL     OW17259   4.801   2.302   1.532 -0.2236  0.1808  0.0231
 4382SOL    HW217260   4.890   2.338   1.539 -0.4361  0.5892  0.7537
 4382SOL    HW317261   4.788   2.289   1.438  0.2213  1.1259 -0.1831
 4382SOL    MW417262   4.811   2.305   1.521 -0.1286 -0.1016 -0.2546
 4383SOL     OW17263   3.636   0.978   0.013  0.1465 -0.4199 -0.1787
 4383SOL    HW217264   3.715   0.980   0.068  1.5739 -2.6021 -1.9908
 4383SOL    HW317265   3.664   1.015  -0.071  0.0203 -3.3926 -1.6406
 4383SOL    MW417266   3.650   0.983   0.009  0.0180  0.0982  0.0606
 4384SOL     OW17267   3.837   2.411   1.719 -0.3846  0.7424  0.0735
 4384SOL    HW217268   3.773   2.421   1.789 -0.5824  0.0882 -0.0121
 4384SOL    HW317269   3.907   2.358   1.758 -0.5827  0.2167 -0.2764
 4384SOL    MW417270   3.838   2.405   1.733 -0.1806  0.9527  0.1948
 4385SOL     OW17271   6.119   5.926   4.922  0.1135 -0.1083 -0.2494
 4385SOL    HW217272   6.090   5.948   4.834 -0.8310 -0.7167 -0.1021
 4385SOL    HW317273   6.209   5.893   4.910  1.1837  2.6798 -0.5853
 4385SOL    MW417274   6.127   5.925   4.909 -0.1518  0.2594  0.5312
 4386SOL     OW17275   6.340   2.065   2.339  0.2573  0.3044 -0.1479
 4386SOL    HW217276   6.346   2.029   2.427 -0.7747  3.4824  1.3488
 4386SOL    HW317277   6.397   2.142   2.340 -1.7945  1.9476 -1.3323
 4386SOL    MW417278   6.349   2.070   2.350  0.4038  0.4768 -0.4881
 4387SOL     OW17279   5.403   3.445   4.313  0.1304 -0.0529  0.0109
 4387SOL    HW217280   5.487   3.460   4.356  0.6842 -1.0456 -0.7026
 4387SOL    HW317281   5.369   3.365   4.352  0.3966 -0.6786 -1.0124
 4387SOL    MW417282   5.410   3.437   4.324 -0.0866  0.2588 -0.4851
 4388SOL     OW17283   4.332   3.838   0.466 -0.4560 -0.4331 -0.2986
 4388SOL    HW217284   4.374   3.759   0.501 -0.9116 -0.9629 -0.9226
 4388SOL    HW317285   4.238   3.818   0.466 -0.5562  0.0027 -0.7166
 4388SOL    MW417286   4.325   3.825   0.471  0.0986  0.7784  0.1866
 4389SOL     OW17287   6.155   5.502   0.928  0.0398 -0.4697  0.4831
 4389SOL    HW217288   6.228   5.532   0.983  0.4743 -0.4085 -0.1246
 4389SOL    HW317289   6.116   5.582   0.893 -1.6951 -0.3398  2.4973
 4389SOL    MW417290   6.160   5.517   0.931 -0.5666 -0.0695  0.4650
 4390SOL     OW17291   5.671   3.746   4.809  0.1527  0.2026 -0.0430
 4390SOL    HW217292   5.711   3.830   4.789  3.0010 -1.0410 -0.2167
 4390SOL    HW317293   5.701   3.725   4.897 -1.4924 -0.1388  0.4734
 4390SOL    MW417294   5.680   3.754   4.818  0.4157 -0.0896  0.1594
 4391SOL     OW17295   3.985   4.737   0.339  0.0552  0.4791 -0.3233
 4391SOL    HW217296   4.057   4.692   0.384 -0.2877 -1.1568 -1.3355
 4391SOL    HW317297   3.912   4.675   0.344 -0.9176  1.5896 -0.4078
 4391SOL    MW417298   3.985   4.723   0.346  0.0221 -0.1747  0.6578
 4392SOL     OW17299   1.588   0.916   4.087  1.2393  0.2387  0.0776
 4392SOL    HW217300   1.603   0.994   4.033 -2.1953  0.3196 -1.0048
 4392SOL    HW317301   1.604   0.843   4.027  0.9622  0.2239  0.0211
 4392SOL    MW417302   1.593   0.917   4.072 -0.6224  0.0750 -0.3978
 4393SOL     OW17303   5.410   3.829   4.443  0.5196 -0.3259 -0.2861
 4393SOL    HW217304   5.363   3.841   4.360  1.4907 -0.4845 -0.8711
 4393SOL    HW317305   5.484   3.772   4.421 -0.1394 -1.7740  1.0346
 4393SOL    MW417306   5.413   3.823   4.429  0.1360 -0.1495  0.3711
 4394SOL     OW17307   1.404   1.129   1.781 -0.0754  0.0864 -0.7307
 4394SOL    HW217308   1.314   1.132   1.748  0.0238  1.1832 -0.9475
 4394SOL    HW317309   1.444   1.209   1.746  0.5804  0.3147  0.5040
 4394SOL    MW417310   1.397   1.140   1.772 -0.8461  0.2322  0.5383
 4395SOL     OW17311   6.190   2.626   4.632 -0.3790  0.1261 -0.2667
 4395SOL    HW217312   6.275   2.669   4.626 -0.2175 -0.2243 -0.5521
 4395SOL    HW317313   6.206   2.549   4.687 -0.3805 -0.2529 -0.7933
 4395SOL    MW417314   6.203   2.621   4.638 -0.3971 -0.2098 -0.0994
 4396SOL     OW17315   1.769   5.205   5.053  0.0275 -0.4100  0.0861
 4396SOL    HW217316   1.701   5.197   4.986 -2.9446  1.9492  2.5329
 4396SOL    HW317317   1.790   5.298   5.057 -0.5501 -0.2894  2.8789
 4396SOL    MW417318   1.763   5.216   5.045 -0.0978 -0.1177  0.9126
 4397SOL     OW17319   0.934   6.351   5.176 -0.1377 -0.5422  0.9987
 4397SOL    HW217320   0.985   6.302   5.240 -0.3806 -0.9545  0.8766
 4397SOL    HW317321   0.847   6.358   5.214  0.5300  2.1942  2.3183
 4397SOL    MW417322   0.930   6.346   5.189  0.3947  0.0695 -0.2180
 4398SOL     OW17323   5.028   3.208   6.327 -0.6730 -0.6677 -0.0794
 4398SOL    HW217324   4.962   3.166   6.381 -0.3182 -1.1125  0.0182
 4398SOL    HW317325   5.069   3.273   6.384 -1.4609  0.0738 -0.3345
 4398SOL    MW417326   5.025   3.211   6.341 -0.5888  0.2105 -1.1468
 4399SOL     OW17327   2.605   3.778   0.408  0.3332 -0.1866  0.4142
 4399SOL    HW217328   2.553   3.698   0.405 -1.1949  0.7599  0.4430
 4399SOL    HW317329   2.659   3.775   0.330  0.5350 -1.3935  0.5879
 4399SOL    MW417330   2.605   3.767   0.398  0.0631 -0.2050  0.0615
 4400SOL     OW17331   0.040   0.440   3.993 -0.3067 -0.5989  0.0670
 4400SOL    HW217332   0.081   0.490   3.922 -0.9896  0.1726  0.2008
 4400SOL    HW317333   0.044   0.349   3.963 -0.9285 -0.2475 -1.1530
 4400SOL    MW417334   0.046   0.434   3.980 -0.3031  0.3568  0.2771
 4401SOL     OW17335   3.298   2.458   0.425  0.2385 -0.2202 -0.2150
 4401SOL    HW217336   3.214   2.430   0.461  0.3848 -0.4628 -0.0658
 4401SOL    HW317337   3.362   2.395   0.459  0.3079 -0.7650 -1.3030
 4401SOL    MW417338   3.296   2.446   0.434 -0.6868 -0.3967 -0.0612
 4402SOL     OW17339   2.565   2.989   1.641 -0.4138 -0.1103 -0.0198
 4402SOL    HW217340   2.552   3.002   1.735  0.7295  0.0279  0.1313
 4402SOL    HW317341   2.551   2.895   1.627 -1.9226  0.0808  0.0412
 4402SOL    MW417342   2.561   2.978   1.651  0.3260  0.2007  0.0928
 4403SOL     OW17343   4.555   4.805   2.350  0.0567 -0.1165 -0.3636
 4403SOL    HW217344   4.642   4.773   2.374 -0.2197  0.5406  1.6524
 4403SOL    HW317345   4.494   4.753   2.403 -0.6223  1.1125  0.0975
 4403SOL    MW417346   4.558   4.794   2.360 -0.6094 -0.0992  0.1860
 4404SOL     OW17347   0.560   0.460   4.855 -0.0856 -0.3697 -0.3077
 4404SOL    HW217348   0.491   0.423   4.910  0.9329 -0.7254  0.7539
 4404SOL    HW317349   0.584   0.388   4.796 -0.5467 -0.2716 -0.6235
 4404SOL    MW417350   0.554   0.445   4.854  0.2764  0.2351 -0.3988
 4405SOL     OW17351   0.432   0.444   1.162 -0.7790 -0.3348 -0.2566
 4405SOL    HW217352   0.492   0.514   1.190 -0.6901 -0.6258  0.2879
 4405SOL    HW317353   0.472   0.410   1.081 -1.2944  0.8369 -1.0399
 4405SOL    MW417354   0.445   0.449   1.155  0.0892 -0.6553 -0.2236
 4406SOL     OW17355   0.391   2.037   5.861  0.4136 -0.1646  0.2485
 4406SOL    HW217356   0.467   2.004   5.909  1.8336 -0.0413 -1.7982
 4406SOL    HW317357   0.369   1.967   5.800 -0.4950  0.2111  0.1342
 4406SOL    MW417358   0.398   2.024   5.860  0.9134  0.8319 -0.3989
 4407SOL     OW17359   1.416   0.442   0.120  0.5450  0.2687  0.1263
 4407SOL    HW217360   1.461   0.396   0.049  0.5408  0.3512  0.0689
 4407SOL    HW317361   1.358   0.377   0.159 -1.6617  0.9381 -1.8248
 4407SOL    MW417362   1.415   0.428   0.116  0.3549  0.0336  0.0478
 4408SOL     OW17363   0.313   0.093   4.512 -0.7503  0.0338 -0.0998
 4408SOL    HW217364   0.375   0.070   4.443 -1.9766  1.6579 -1.8438
 4408SOL    HW317365   0.312   0.016   4.570  1.4610 -0.7614 -1.0239
 4408SOL    MW417366   0.321   0.080   4.511 -0.6876 -0.3354  0.1688
 4409SOL     OW17367   5.055   1.799   5.089  0.3016 -0.6281  0.2803
 4409SOL    HW217368   5.119   1.737   5.054  0.5133 -0.8394  1.0232
 4409SOL    HW317369   5.106   1.877   5.111 -0.0328  0.0035 -1.0764
 4409SOL    MW417370   5.070   1.801   5.088  0.5264  0.1251 -0.9875
 4410SOL     OW17371   6.156   4.545   1.717 -0.0280  0.2816  0.0039
 4410SOL    HW217372   6.088   4.595   1.763 -0.9023 -0.5523 -0.3412
 4410SOL    HW317373   6.175   4.471   1.775  1.2762  0.9961  0.5246
 4410SOL    MW417374   6.149   4.542   1.731  0.1264  0.0051 -0.3610
 4411SOL     OW17375   2.171   4.183   2.059 -0.0008 -0.2284 -0.3602
 4411SOL    HW217376   2.160   4.148   1.971 -0.1950 -0.0490 -0.4094
 4411SOL    HW317377   2.086   4.169   2.102 -0.4288  1.0905 -0.7141
 4411SOL    MW417378   2.158   4.177   2.053  0.0979 -0.5232  0.7868
 4412SOL     OW17379   4.827   5.693   0.474 -0.0393 -0.1882 -0.5419
 4412SOL    HW217380   4.762   5.746   0.520 -1.9297 -1.9208 -1.0965
 4412SOL    HW317381   4.902   5.690   0.534 -0.6414  1.3939  0.3586
 4412SOL    MW417382   4.828   5.699   0.488  0.7981 -0.2849  0.1358
 4413SOL     OW17383   5.210   2.809   4.529 -1.1321  0.1992  0.0299
 4413SOL    HW217384   5.257   2.889   4.549 -0.9093  0.8246 -2.6274
 4413SOL    HW317385   5.215   2.757   4.610  2.1515  1.1540  0.5823
 4413SOL    MW417386   5.217   2.813   4.543 -0.5262  0.0668  0.2351
 4414SOL     OW17387   1.572   2.950   0.772 -0.5036  0.0961  0.6721
 4414SOL    HW217388   1.561   3.009   0.846  0.5207  0.1912  0.7671
 4414SOL    HW317389   1.525   2.992   0.700 -2.3098 -0.4566  1.4766
 4414SOL    MW417390   1.565   2.963   0.772  0.3018  0.3693 -0.3754
 4415SOL     OW17391   2.292   5.449   2.926 -0.4384  0.4568  0.0757
 4415SOL    HW217392   2.373   5.499   2.939 -0.1722  0.2389 -0.7342
 4415SOL    HW317393   2.268   5.466   2.835 -0.5719 -0.5529 -0.0794
 4415SOL    MW417394   2.300   5.458   2.916  0.0032 -0.4643 -0.1116
 4416SOL     OW17395   0.478   0.993   4.615 -0.2939  0.3719 -0.5482
 4416SOL    HW217396   0.567   1.018   4.591  0.0379 -0.4846 -0.2568
 4416SOL    HW317397   0.480   0.987   4.711  0.3135 -2.9416 -0.6231
 4416SOL    MW417398   0.490   0.995   4.625  0.0151 -0.3077 -0.4481
 4417SOL     OW17399   0.656   2.726   0.557 -0.1124 -0.1286  0.0261
 4417SOL    HW217400   0.562   2.727   0.540 -0.0244 -1.2373 -0.6445
 4417SOL    HW317401   0.665   2.686   0.643 -0.4137  3.1739  1.7402
 4417SOL    MW417402   0.645   2.721   0.566  0.1211  0.3510 -0.3581
 4418SOL     OW17403   4.193   5.231   3.363 -0.3075  0.3911 -0.2249
 4418SOL    HW217404   4.245   5.173   3.308 -2.3691 -1.7164 -0.1310
 4418SOL    HW317405   4.196   5.191   3.450  0.0548  1.7231  0.4043
 4418SOL    MW417406   4.200   5.218   3.367 -0.1105  0.3997  0.0533
 4419SOL     OW17407   3.282   4.933   1.940 -0.0826 -0.1440 -0.4278
 4419SOL    HW217408   3.262   4.908   2.030  1.7619 -0.8946 -0.1665
 4419SOL    HW317409   3.352   4.873   1.914 -0.6789 -0.0524 -2.4339
 4419SOL    MW417410   3.289   4.922   1.948 -0.2810 -0.1325 -0.2107
 4420SOL     OW17411   1.136   5.050   0.335  0.5458 -0.2846 -0.0303
 4420SOL    HW217412   1.142   4.986   0.406  0.2865  0.2845  0.5129
 4420SOL    HW317413   1.106   4.999   0.260  0.8920 -0.9066  0.2459
 4420SOL    MW417414   1.133   5.035   0.334 -0.2139 -0.7096  0.0645
 4421SOL     OW17415   2.441   4.927   5.837  0.4849 -0.6328  0.0001
 4421SOL    HW217416   2.503   4.919   5.909  1.4718  0.0292 -0.7286
 4421SOL    HW317417   2.484   4.988   5.776 -2.0453  2.1040  0.6884
 4421SOL    MW417418   2.455   4.934   5.838 -0.0645 -0.4204  0.2678
 4422SOL     OW17419   1.188   0.800   4.573 -0.2787 -0.0809 -0.0382
 4422SOL    HW217420   1.272   0.821   4.532 -0.9506  0.8377 -0.9914
 4422SOL    HW317421   1.128   0.787   4.500 -0.7906 -1.6464  0.6082
 4422SOL    MW417422   1.192   0.801   4.558  0.1964  0.5109 -0.1282
 4423SOL     OW17423   3.699   3.450   2.869 -0.0225  0.3388 -0.3206
 4423SOL    HW217424   3.684   3.544   2.871 -0.2876  0.3240 -1.3484
 4423SOL    HW317425   3.787   3.440   2.832  0.0843  0.1841 -0.0315
 4423SOL    MW417426   3.709   3.461   2.864  0.0634 -0.0856  0.5129
 4424SOL     OW17427   2.825   2.131   2.177 -0.2119 -0.0091 -0.0278
 4424SOL    HW217428   2.911   2.090   2.175  0.3830  1.1168  1.3389
 4424SOL    HW317429   2.764   2.058   2.163  0.6742 -1.8438  4.1484
 4424SOL    MW417430   2.828   2.116   2.175  0.0268  0.9883  0.0579
 4425SOL     OW17431   1.760   2.295   0.173  0.5398  0.1500 -0.3613
 4425SOL    HW217432   1.806   2.213   0.186  0.7816 -0.1200 -2.6308
 4425SOL    HW317433   1.708   2.306   0.253  1.9773 -1.1962  0.8105
 4425SOL    MW417434   1.759   2.286   0.186 -0.1424 -0.4904 -0.1255
 4426SOL     OW17435   3.368   2.587   4.828  0.1688 -0.2770  0.1074
 4426SOL    HW217436   3.359   2.512   4.770 -0.1610 -0.1193 -0.0484
 4426SOL    HW317437   3.324   2.658   4.782 -0.1495 -0.1646  0.5731
 4426SOL    MW417438   3.361   2.586   4.814 -0.5929  0.0944 -0.4580
 4427SOL     OW17439   3.898   4.154   4.000 -0.2579 -0.6932  0.0208
 4427SOL    HW217440   3.830   4.201   4.048 -0.1560 -1.0801  0.5542
 4427SOL    HW317441   3.879   4.061   4.016 -0.0072 -0.8190 -0.3900
 4427SOL    MW417442   3.886   4.148   4.008  0.1848  0.0363  0.2279
 4428SOL     OW17443   0.236   1.076   5.358 -0.0823 -0.4608 -0.4583
 4428SOL    HW217444   0.296   1.102   5.288 -0.9534  0.7878 -0.7879
 4428SOL    HW317445   0.275   1.112   5.438 -0.0851 -0.1508 -0.5934
 4428SOL    MW417446   0.249   1.084   5.360 -0.1033  0.3958  0.0440
 4429SOL     OW17447   0.184   1.344   4.229  0.0138 -0.1271 -0.3139
 4429SOL    HW217448   0.222   1.264   4.265 -2.4994 -1.1869  0.1599
 4429SOL    HW317449   0.258   1.388   4.187  1.6112 -2.3468 -0.0284
 4429SOL    MW417450   0.199   1.339   4.228 -0.3747  0.1448  0.1280
 4430SOL     OW17451   3.117   0.988   0.181  0.7559 -0.0791 -0.5056
 4430SOL    HW217452   3.178   0.947   0.119 -0.1498 -1.8256 -0.2912
 4430SOL    HW317453   3.173   1.043   0.236  1.8968 -0.3331 -1.3642
 4430SOL    MW417454   3.133   0.990   0.180 -0.1205  0.1673  0.1615
 4431SOL     OW17455   5.703   5.250   5.035  0.8082 -0.2444  0.4505
 4431SOL    HW217456   5.632   5.234   5.098  0.7345 -0.1100  0.4048
 4431SOL    HW317457   5.777   5.200   5.068  1.1514  0.8046  1.3273
 4431SOL    MW417458   5.703   5.241   5.047  0.1581  0.3050  0.0724
 4432SOL     OW17459   0.505   1.763   3.676 -0.1477  0.4037 -0.2279
 4432SOL    HW217460   0.415   1.781   3.701 -0.4275  1.5327 -1.8931
 4432SOL    HW317461   0.557   1.792   3.751 -1.0931  0.9350  0.2370
 4432SOL    MW417462   0.500   1.769   3.689 -0.1849  0.2624 -0.3396
 4433SOL     OW17463   1.962   4.759   6.301  0.1884 -0.3283 -0.3260
 4433SOL    HW217464   1.892   4.745   6.236  1.7933  0.1186 -2.2587
 4433SOL    HW317465   2.000   4.672   6.313  0.4483 -0.2647 -0.6714
 4433SOL    MW417466   1.958   4.746   6.294  0.0393  0.1077 -0.3688
 4434SOL     OW17467   5.171   1.746   6.372  0.3714  0.5934 -0.2853
 4434SOL    HW217468   5.228   1.743   6.295 -0.3956 -2.1792 -0.8239
 4434SOL    HW317469   5.227   1.715   6.444  0.5192  1.2747 -0.0993
 4434SOL    MW417470   5.186   1.742   6.372  0.0275 -0.1775 -0.4524
 4435SOL     OW17471   4.759   5.208   5.703 -0.6755  0.2036  0.2961
 4435SOL    HW217472   4.694   5.276   5.724  1.0192  1.8019  0.6286
 4435SOL    HW317473   4.744   5.140   5.769 -2.6305  0.0316 -0.2518
 4435SOL    MW417474   4.748   5.208   5.715  0.1883 -0.0400  0.3940
 4436SOL     OW17475   4.680   2.203   5.673  0.1170  0.1555  0.2429
 4436SOL    HW217476   4.640   2.290   5.663  1.3647  0.7539  0.2520
 4436SOL    HW317477   4.693   2.172   5.584  0.8624  0.5650  0.1960
 4436SOL    MW417478   4.677   2.211   5.660 -0.2270  0.6036  0.5271
 4437SOL     OW17479   1.689   3.707   6.014  0.2649 -0.5660 -0.5927
 4437SOL    HW217480   1.716   3.787   5.969 -1.7611  0.0670 -0.8023
 4437SOL    HW317481   1.658   3.649   5.944 -1.7698 -0.0405 -0.1979
 4437SOL    MW417482   1.688   3.710   5.999  0.1643 -0.1686 -0.2362
 4438SOL     OW17483   4.001   0.839   2.339 -0.0980 -0.3718 -0.2026
 4438SOL    HW217484   4.053   0.919   2.331  1.5366 -1.3503  0.0901
 4438SOL    HW317485   4.060   0.769   2.311 -1.0095 -1.6256  0.8579
 4438SOL    MW417486   4.016   0.840   2.334 -0.4332 -0.7634  0.3239
 4439SOL     OW17487   1.540   4.503   5.621  0.0204 -0.0949 -0.4005
 4439SOL    HW217488   1.551   4.447   5.544 -2.5062 -0.2693 -0.7485
 4439SOL    HW317489   1.462   4.467   5.664  1.5192 -0.1589  2.4272
 4439SOL    MW417490   1.531   4.491   5.616  0.8431  0.4279  0.0969
 4440SOL     OW17491   5.421   5.123   3.738 -0.4963  0.1184 -0.1060
 4440SOL    HW217492   5.478   5.046   3.730  0.2610  0.5414  0.9440
 4440SOL    HW317493   5.333   5.087   3.738 -0.1441 -0.8103  0.6909
 4440SOL    MW417494   5.417   5.108   3.737 -0.0032  0.2489 -0.5415
 4441SOL     OW17495   0.673   5.496   0.165 -0.4631 -0.4524  0.3043
 4441SOL    HW217496   0.616   5.478   0.090 -0.3655 -0.0872  0.1381
 4441SOL    HW317497   0.619   5.548   0.225 -1.2178 -2.4566  1.4471
 4441SOL    MW417498   0.658   5.500   0.163  0.6894 -0.0675  0.2823
 4442SOL     OW17499   1.868   0.494   1.242 -0.4878 -0.0473  0.3442
 4442SOL    HW217500   1.822   0.519   1.161 -0.3430 -0.0278  0.2686
 4442SOL    HW317501   1.917   0.416   1.218 -1.2669 -0.6557  0.6879
 4442SOL    MW417502   1.868   0.487   1.228 -0.9109 -0.1667 -0.4992
 4443SOL     OW17503   3.733   3.277   5.947 -0.1150  0.5561  0.0910
 4443SOL    HW217504   3.637   3.274   5.948 -0.0974 -0.1189  0.0891
 4443SOL    HW317505   3.759   3.209   5.885  0.3730  0.5202  0.3289
 4443SOL    MW417506   3.724   3.268   5.939  0.9789  0.0482 -0.3521
 4444SOL     OW17507   5.629   3.339   4.681 -0.1646 -0.3858 -0.1206
 4444SOL    HW217508   5.541   3.321   4.715  0.1095 -0.2025  0.7046
 4444SOL    HW317509   5.620   3.328   4.587 -1.1244 -0.1637 -0.0682
 4444SOL    MW417510   5.616   3.335   4.673 -0.0749 -0.1563 -0.1084
 4445SOL     OW17511   1.500   1.527   3.874 -0.1066 -0.1498 -0.0036
 4445SOL    HW217512   1.510   1.511   3.968  2.8106 -1.1560 -0.4008
 4445SOL    HW317513   1.538   1.451   3.832 -2.7612 -0.4739 -2.1092
 4445SOL    MW417514   1.506   1.515   3.881  0.2768 -0.1966  0.4268
 4446SOL     OW17515   4.399   5.410   3.013  0.1672  0.1879 -0.3060
 4446SOL    HW217516   4.460   5.336   3.008 -0.7445 -0.5507 -0.8594
 4446SOL    HW317517   4.316   5.376   2.979  0.0558  1.8353 -1.8569
 4446SOL    MW417518   4.396   5.396   3.008  0.8963 -0.1013 -0.3104
 4447SOL     OW17519   5.824   3.735   0.561 -0.0429  0.1841 -0.4434
 4447SOL    HW217520   5.869   3.651   0.571 -0.0143 -0.0521 -2.1629
 4447SOL    HW317521   5.832   3.777   0.647 -1.0791 -2.0452  0.8227
 4447SOL    MW417522   5.831   3.730   0.573  0.2631  0.3065  0.0448
 4448SOL     OW17523   2.657   5.298   2.333 -0.3458 -0.1962  0.0529
 4448SOL    HW217524   2.744   5.261   2.345 -0.7296 -0.7186  1.3879
 4448SOL    HW317525   2.667   5.362   2.262  1.2999  0.3805  0.7776
 4448SOL    MW417526   2.670   5.302   2.325 -0.0527 -0.1469  0.2981
 4449SOL     OW17527   0.709   4.076   0.756  0.4335 -0.4379 -0.5063
 4449SOL    HW217528   0.679   3.999   0.707  0.3779  0.0719 -1.2865
 4449SOL    HW317529   0.641   4.142   0.742  1.4389  0.4272 -1.5377
 4449SOL    MW417530   0.696   4.075   0.748 -0.4058 -0.1679 -0.2291
 4450SOL     OW17531   5.247   4.713   6.045  0.2787  0.7647 -0.0541
 4450SOL    HW217532   5.306   4.739   5.974  0.9301 -0.3763  0.0581
 4450SOL    HW317533   5.303   4.712   6.123 -0.2911  1.3781  0.3694
 4450SOL    MW417534   5.262   4.716   6.046  0.0861 -0.0075  0.0826
 4451SOL     OW17535   2.790   4.184   5.119 -0.0743  0.6614  0.3817
 4451SOL    HW217536   2.729   4.255   5.098 -1.3846 -0.4002  0.4241
 4451SOL    HW317537   2.873   4.228   5.138 -0.5605  2.0978 -0.6355
 4451SOL    MW417538   2.793   4.199   5.119  0.0602  0.6709 -0.6491
 4452SOL     OW17539   2.818   1.719   1.162 -0.2018  0.2710 -0.4958
 4452SOL    HW217540   2.796   1.747   1.073  0.1540  1.1196 -0.3288
 4452SOL    HW317541   2.778   1.633   1.171  1.3919 -0.6845 -2.1417
 4452SOL    MW417542   2.810   1.712   1.151 -0.2474 -0.0660 -0.0801
 4453SOL     OW17543   1.098   5.568   4.848  0.0657 -0.4939  0.3783
 4453SOL    HW217544   1.041   5.594   4.775 -0.1104  3.4784  1.6632
 4453SOL    HW317545   1.186   5.570   4.811  0.0270  1.9761  0.2396
 4453SOL    MW417546   1.102   5.572   4.833  0.2158  0.2537  0.3924
 4454SOL     OW17547   0.168   6.048   5.578  0.4907 -0.2038 -0.1903
 4454SOL    HW217548   0.210   6.002   5.506  2.1388  1.3627 -0.3055
 4454SOL    HW317549   0.194   5.999   5.656  0.1396 -0.9036 -0.5083
 4454SOL    MW417550   0.177   6.035   5.579 -0.1777 -0.3689  0.1031
 4455SOL     OW17551   5.913   1.209   6.324 -0.6741 -0.0179  0.4843
 4455SOL    HW217552   5.962   1.159   6.389 -0.6814 -0.5369  0.0981
 4455SOL    HW317553   5.823   1.209   6.357 -0.2963  1.6867  1.6486
 4455SOL    MW417554   5.908   1.203   6.337  0.0657 -0.2683 -0.1358
 4456SOL     OW17555   3.172   0.744   4.002 -0.4969  0.5773 -0.1192
 4456SOL    HW217556   3.249   0.687   4.004  0.3874  1.6921 -1.2101
 4456SOL    HW317557   3.185   0.801   3.927 -2.1173  1.2016  0.0177
 4456SOL    MW417558   3.184   0.744   3.993 -0.5831 -0.1034 -0.0767
 4457SOL     OW17559   5.822   5.786   1.046  0.7149  0.0764 -0.4593
 4457SOL    HW217560   5.855   5.744   1.125  0.8085  0.5888 -0.2171
 4457SOL    HW317561   5.780   5.866   1.078 -3.2004 -1.7687 -0.3833
 4457SOL    MW417562   5.820   5.791   1.060  0.0656 -0.0785  0.5433
 4458SOL     OW17563   0.257   6.008   1.942  0.9107 -0.1019 -0.0397
 4458SOL    HW217564   0.217   6.078   1.995  1.7518  0.0087  0.4765
 4458SOL    HW317565   0.306   6.054   1.874  1.6605 -0.1648  0.4424
 4458SOL    MW417566   0.258   6.023   1.940  0.0265 -0.1493 -0.1265
 4459SOL     OW17567   4.109   4.957   1.263  0.2461  0.2078  0.7874
 4459SOL    HW217568   4.140   4.934   1.351  0.0274  0.2423  0.8741
 4459SOL    HW317569   4.128   5.051   1.255  0.3730  0.1798  0.7514
 4459SOL    MW417570   4.116   4.966   1.274  0.7154 -0.1994 -0.3357
 4460SOL     OW17571   6.257   0.573   4.253 -0.1658 -0.2753 -0.0611
 4460SOL    HW217572   6.188   0.578   4.319  0.0278 -0.1192  0.1280
 4460SOL    HW317573   6.244   0.652   4.200 -1.1456 -1.0523 -1.0235
 4460SOL    MW417574   6.246   0.584   4.255  0.6212  0.1557 -0.6649
 4461SOL     OW17575   0.702   1.771   3.252  0.0611 -0.4278 -0.0323
 4461SOL    HW217576   0.692   1.791   3.158  2.0869  1.3775  0.0529
 4461SOL    HW317577   0.630   1.818   3.294  0.8011  1.1905 -0.4855
 4461SOL    MW417578   0.691   1.780   3.245 -0.3563 -0.1643 -0.0736
 4462SOL     OW17579   6.110   3.441   6.051 -0.2182  0.3572 -0.0405
 4462SOL    HW217580   6.170   3.489   6.108 -2.3675  2.4991  0.5381
 4462SOL    HW317581   6.047   3.400   6.110 -0.6761  0.0258 -0.7387
 4462SOL    MW417582   6.110   3.442   6.066 -0.6261 -0.1276  0.0264
 4463SOL     OW17583   1.652   2.308   0.925 -0.3483  0.1103 -0.3395
 4463SOL    HW217584   1.713   2.346   0.988  1.4728 -0.4952 -1.6757
 4463SOL    HW317585   1.662   2.213   0.936 -0.8261  0.0014 -0.7822
 4463SOL    MW417586   1.661   2.300   0.935 -0.0884 -0.0341 -0.4540
 4464SOL     OW17587   5.175   5.727   0.770 -0.2921 -0.3990 -0.4506
 4464SOL    HW217588   5.128   5.806   0.796 -1.7984 -1.5889  0.6078
 4464SOL    HW317589   5.258   5.732   0.816 -0.0987  0.8574 -0.8986
 4464SOL    MW417590   5.180   5.738   0.779 -0.1135  0.5742 -0.3336
 4465SOL     OW17591   5.212   0.041   1.836  0.3472 -0.1327  0.1540
 4465SOL    HW217592   5.135   0.075   1.791  0.6990 -0.1594 -0.4858
 4465SOL    HW317593   5.186   0.034   1.927 -0.7720 -1.1875 -0.2286
 4465SOL    MW417594   5.199   0.045   1.842  0.4347  0.5879  0.5731
 4466SOL     OW17595   1.067   4.056   4.712  0.5215  0.3794  0.1275
 4466SOL    HW217596   1.014   3.977   4.725 -1.8436  1.9024  0.2896
 4466SOL    HW317597   1.129   4.031   4.643  0.2558 -1.7777  0.5866
 4466SOL    MW417598   1.068   4.042   4.704  0.0179 -0.7974  0.7216
 4467SOL     OW17599   2.320   4.862   2.962  0.5281 -0.0790  0.0041
 4467SOL    HW217600   2.263   4.806   3.016  1.1549 -1.1236 -0.3844
 4467SOL    HW317601   2.406   4.822   2.969  0.4612 -0.8916 -2.5566
 4467SOL    MW417602   2.324   4.849   2.970  0.3509  0.0786  0.2818
 4468SOL     OW17603   0.551   1.355   3.044  0.1404  0.2337  0.0548
 4468SOL    HW217604   0.625   1.414   3.030 -0.0092  0.2930 -0.5182
 4468SOL    HW317605   0.488   1.406   3.094  0.6744  0.0344  0.9485
 4468SOL    MW417606   0.552   1.369   3.049  0.2368 -0.6341  0.2559
 4469SOL     OW17607   3.143   5.420   1.463 -0.0147  0.6126  0.8482
 4469SOL    HW217608   3.218   5.399   1.407  0.0486 -1.9048  1.7195
 4469SOL    HW317609   3.097   5.490   1.418  2.4294  1.7113 -0.0987
 4469SOL    MW417610   3.147   5.426   1.450  0.2130  0.0711  0.4293
 4470SOL     OW17611   4.270   2.750   1.134  0.2809  0.4956  0.1129
 4470SOL    HW217612   4.261   2.822   1.197 -1.3809  0.9589 -0.6103
 4470SOL    HW317613   4.246   2.672   1.182  0.0498  0.7076  0.3421
 4470SOL    MW417614   4.266   2.749   1.148  0.2619 -0.0188  0.3787
 4471SOL     OW17615   4.791   4.571   5.586  0.5326 -0.2926  0.4434
 4471SOL    HW217616   4.758   4.651   5.629  0.9803  0.5983 -0.8063
 4471SOL    HW317617   4.772   4.584   5.493  1.1934 -1.3640  0.1373
 4471SOL    MW417618   4.784   4.584   5.579 -0.7761  0.2368 -0.6705
 4472SOL     OW17619   5.732   2.901   1.088 -0.1020  0.2784 -0.2470
 4472SOL    HW217620   5.758   2.983   1.046  0.3643  0.3015  0.0799
 4472SOL    HW317621   5.693   2.928   1.171 -1.5346  0.2673 -0.8831
 4472SOL    MW417622   5.730   2.915   1.094  0.2000  0.3802  0.0368
 4473SOL     OW17623   3.340   4.239   3.970 -0.2833  0.0880  0.3017
 4473SOL    HW217624   3.291   4.164   3.938  0.0075 -0.1997  0.5242
 4473SOL    HW317625   3.404   4.258   3.901 -0.3124  0.0872  0.2746
 4473SOL    MW417626   3.342   4.232   3.957  0.3807 -0.4957 -0.4819
 4474SOL     OW17627   2.801   1.845   6.064  0.1778  0.1303 -0.3418
 4474SOL    HW217628   2.777   1.937   6.054  0.1800  0.0805 -0.8509
 4474SOL    HW317629   2.878   1.846   6.121 -0.9064  0.3018  1.1631
 4474SOL    MW417630   2.808   1.858   6.070  0.2334  0.1199  0.5458
 4475SOL     OW17631   5.288   0.987   4.140 -0.0371  0.2141 -0.0876
 4475SOL    HW217632   5.194   1.000   4.126 -0.0508 -0.3498 -0.5676
 4475SOL    HW317633   5.327   1.072   4.122 -0.4893  0.5248  0.4014
 4475SOL    MW417634   5.281   1.000   4.136 -0.2020 -0.2964 -0.2050
 4476SOL     OW17635   0.617   5.322   4.315 -0.6565 -0.6200  0.2835
 4476SOL    HW217636   0.544   5.384   4.322 -0.5765 -0.4767 -0.0995
 4476SOL    HW317637   0.664   5.331   4.397 -0.8264 -0.3999  0.3595
 4476SOL    MW417638   0.613   5.331   4.327 -0.9305 -0.5507  0.0813
 4477SOL     OW17639   1.477   3.190   5.496  0.1197  0.5070  0.2347
 4477SOL    HW217640   1.386   3.210   5.519 -0.2612 -0.7369 -0.1087
 4477SOL    HW317641   1.491   3.231   5.411 -0.6144 -0.5526 -0.4181
 4477SOL    MW417642   1.467   3.198   5.488  0.0940 -0.4041  0.0697
 4478SOL     OW17643   5.234   4.275   6.016  0.2377 -0.7024  0.4425
 4478SOL    HW217644   5.162   4.256   6.076 -0.7974 -0.6542 -0.7589
 4478SOL    HW317645   5.291   4.334   6.065 -0.7291 -0.4305  1.2697
 4478SOL    MW417646   5.232   4.280   6.030 -0.5252 -0.4589 -0.2360
 4479SOL     OW17647   3.914   2.948   4.034  0.3810  0.3610 -0.1170
 4479SOL    HW217648   3.966   3.007   3.979 -3.1054  1.3549 -2.6664
 4479SOL    HW317649   3.899   2.871   3.979 -0.8000  0.0846  0.5747
 4479SOL    MW417650   3.919   2.946   4.020  0.3452 -0.0115  0.5457
 4480SOL     OW17651   2.399   5.176   5.448  0.0628  0.1423  0.5508
 4480SOL    HW217652   2.444   5.134   5.521  0.2110  0.4800  0.6569
 4480SOL    HW317653   2.402   5.111   5.377  0.5502  0.0865  0.6198
 4480SOL    MW417654   2.406   5.162   5.448  0.6784  0.1851  0.2439
 4481SOL     OW17655   1.999   2.269   3.325 -0.4756  0.2151 -0.0103
 4481SOL    HW217656   1.948   2.271   3.245  0.1339 -0.3957 -0.4275
 4481SOL    HW317657   1.979   2.184   3.365  0.5719 -0.2579 -0.4404
 4481SOL    MW417658   1.990   2.258   3.320 -0.0964  0.3620 -0.1913
 4482SOL     OW17659   4.832   6.316   5.482 -0.1838  0.0250  0.8945
 4482SOL    HW217660   4.881   6.322   5.401 -2.0234  3.8332 -0.1801
 4482SOL    HW317661   4.743   6.294   5.455 -0.4669 -0.3869  2.0736
 4482SOL    MW417662   4.826   6.314   5.468  0.2982 -0.4424  0.2506
 4483SOL     OW17663   5.338   2.166   3.451 -0.4278  0.5232  0.3531
 4483SOL    HW217664   5.305   2.078   3.467  0.8011 -0.0270 -0.0113
 4483SOL    HW317665   5.401   2.156   3.379  1.2360  1.3364  1.6189
 4483SOL    MW417666   5.342   2.153   3.443 -0.6935 -0.0240  0.0317
 4484SOL     OW17667   3.461   1.185   0.080 -0.1519  0.3039  0.0965
 4484SOL    HW217668   3.513   1.108   0.060 -1.5365 -0.7820  0.5320
 4484SOL    HW317669   3.488   1.250   0.015  1.2526 -0.4357 -0.0801
 4484SOL    MW417670   3.471   1.184   0.069  0.1707  0.1485 -0.3379
 4485SOL     OW17671   2.476   3.841   3.459 -0.1741 -0.0373 -0.5511
 4485SOL    HW217672   2.405   3.855   3.397 -1.0127 -0.3634  0.3109
 4485SOL    HW317673   2.474   3.918   3.517  0.0113 -0.1661 -0.3699
 4485SOL    MW417674   2.466   3.853   3.459  0.0936 -0.5262  0.2530
 4486SOL     OW17675   0.197   4.847   4.934 -0.0657  0.5216 -0.0165
 4486SOL    HW217676   0.145   4.849   4.854 -1.4760  1.3009  0.8837
 4486SOL    HW317677   0.288   4.842   4.903 -0.6444 -2.4213 -1.6072
 4486SOL    MW417678   0.202   4.847   4.919 -0.4274  0.2408 -0.5150
 4487SOL     OW17679   3.009   1.360   3.285 -0.2696  0.7205 -0.3838
 4487SOL    HW217680   2.921   1.370   3.323 -1.2701  0.6486 -2.5642
 4487SOL    HW317681   3.008   1.272   3.247  0.7762  0.7181 -0.4249
 4487SOL    MW417682   2.997   1.349   3.285 -0.0918  0.0129 -0.0597
 4488SOL     OW17683   6.070   6.278   3.666 -0.0032  0.0642  0.5473
 4488SOL    HW217684   6.073   6.248   3.575 -0.1390  0.3361  0.4498
 4488SOL    HW317685   6.112   6.364   3.663 -0.9875  0.5534  0.5426
 4488SOL    MW417686   6.076   6.286   3.653 -0.2506  0.0100  0.0499
 4489SOL     OW17687   6.124   3.055   6.165  0.1009  0.9813 -0.0584
 4489SOL    HW217688   6.084   3.139   6.187  0.9146  1.2241  0.5796
 4489SOL    HW317689   6.201   3.050   6.223  1.4278  0.9003 -1.7560
 4489SOL    MW417690   6.129   3.065   6.176  0.1540  0.3733  0.1384
 4490SOL     OW17691   3.508   2.203   6.028  0.1967 -0.5348  0.8223
 4490SOL    HW217692   3.498   2.298   6.036  0.5051 -0.5617  1.6348
 4490SOL    HW317693   3.599   2.190   6.003 -0.4880 -0.5100 -2.0464
 4490SOL    MW417694   3.519   2.214   6.026 -0.6312 -0.6629 -0.6218
 4491SOL     OW17695   5.339   1.878   4.531 -0.1417 -0.5249 -0.6348
 4491SOL    HW217696   5.256   1.914   4.498  0.5303  3.8486  1.7048
 4491SOL    HW317697   5.337   1.897   4.625  2.5096 -2.5968 -0.0614
 4491SOL    MW417698   5.328   1.885   4.539  0.3949  0.1427 -0.0215
 4492SOL     OW17699   3.062   2.040   4.040  0.2316 -0.2764 -0.4683
 4492SOL    HW217700   3.091   1.950   4.050 -0.7947 -0.6447 -0.6772
 4492SOL    HW317701   3.133   2.083   3.992  2.1561 -0.1577  2.2976
 4492SOL    MW417702   3.075   2.034   4.035 -0.6713 -0.2056 -0.0529
 4493SOL     OW17703   5.611   1.468   1.973  0.2831 -0.3641  0.0180
 4493SOL    HW217704   5.534   1.498   2.021  0.5746 -0.2138  0.3963
 4493SOL    HW317705   5.681   1.465   2.039  0.4686 -1.0241 -0.2037
 4493SOL    MW417706   5.610   1.472   1.988 -0.2060 -0.6543 -0.0334
 4494SOL     OW17707   4.313   6.251   4.067 -0.4545  0.2331  0.1907
 4494SOL    HW217708   4.289   6.317   4.002 -1.1897  2.1385  2.2900
 4494SOL    HW317709   4.408   6.241   4.057 -0.1717  2.2814  0.3767
 4494SOL    MW417710   4.323   6.258   4.057  0.2909 -0.5467 -0.0385
 4495SOL     OW17711   3.312   0.338   3.998 -0.1537 -0.1503 -0.1421
 4495SOL    HW217712   3.340   0.415   3.949  0.5717 -0.9727 -1.0456
 4495SOL    HW317713   3.217   0.335   3.986 -0.2908  0.9903  0.4964
 4495SOL    MW417714   3.303   0.348   3.990  0.2243 -0.4780 -0.6343
 4496SOL     OW17715   6.224   5.238   0.424 -0.2727  0.0886  0.5148
 4496SOL    HW217716   6.193   5.301   0.490  2.6449  2.9100 -0.5627
 4496SOL    HW317717   6.289   5.185   0.470 -0.6268 -0.1938  0.6966
 4496SOL    MW417718   6.228   5.240   0.439 -0.4379  0.4054  0.0823
 4497SOL     OW17719   3.520   1.691   3.907  0.2714 -0.5505  0.2538
 4497SOL    HW217720   3.613   1.668   3.914  0.6656  0.8823  0.0278
 4497SOL    HW317721   3.485   1.674   3.994  0.6297 -1.5538  0.2122
 4497SOL    MW417722   3.528   1.686   3.919  0.0976 -0.2571 -0.4080
 4498SOL     OW17723   1.222   0.810   3.698 -0.0847 -0.2012  0.3498
 4498SOL    HW217724   1.284   0.744   3.729  1.4660  1.0912  0.1070
 4498SOL    HW317725   1.137   0.766   3.700  0.6209 -1.5842  2.0284
 4498SOL    MW417726   1.219   0.796   3.702 -0.2643 -0.1328  0.3181
 4499SOL     OW17727   2.359   3.143   4.395 -0.4515  0.5303  0.2314
 4499SOL    HW217728   2.452   3.133   4.416 -0.6185  0.1776  0.8378
 4499SOL    HW317729   2.318   3.162   4.479 -1.4592 -3.0226  0.6738
 4499SOL    MW417730   2.366   3.145   4.409 -0.6707  0.2608 -0.3352
 4500SOL     OW17731   4.064   1.898   2.099 -0.1582  0.4082  0.0409
 4500SOL    HW217732   4.107   1.822   2.139 -0.8920 -0.1867 -0.2678
 4500SOL    HW317733   4.114   1.916   2.020  0.1115  0.3354  0.1960
 4500SOL    MW417734   4.076   1.890   2.094 -0.2799  0.6647 -0.3085
 4501SOL     OW17735   1.559   0.600   1.552  0.2679 -0.5771  0.3166
 4501SOL    HW217736   1.650   0.626   1.565 -0.6176  2.8602  0.6748
 4501SOL    HW317737   1.547   0.601   1.457 -0.0963  2.3919  0.2852
 4501SOL    MW417738   1.569   0.603   1.541  0.1725 -0.6153 -0.2392
 4502SOL     OW17739   3.181   2.221   3.602 -0.4813  0.2289 -0.0783
 4502SOL    HW217740   3.247   2.219   3.670  0.6773  0.8890 -1.1324
 4502SOL    HW317741   3.215   2.283   3.537 -1.2639 -0.7679 -1.5084
 4502SOL    MW417742   3.194   2.229   3.602 -0.7589  0.0660 -0.2796
 4503SOL     OW17743   4.156   2.952   2.001 -0.1805  0.0352 -0.5526
 4503SOL    HW217744   4.212   2.912   1.934 -0.0356  1.7978 -1.5631
 4503SOL    HW317745   4.094   3.005   1.951  0.1264  1.6547  0.6778
 4503SOL    MW417746   4.155   2.954   1.985  0.1192 -0.1916  0.2570
 4504SOL     OW17747   2.433   6.378   5.235 -0.1915  0.2079 -0.2057
 4504SOL    HW217748   2.511   6.434   5.237  0.1126 -0.0614  3.6963
 4504SOL    HW317749   2.362   6.435   5.267 -0.5753 -0.7039  0.6204
 4504SOL    MW417750   2.434   6.393   5.240 -0.3699 -0.5415 -0.6338
 4505SOL     OW17751   4.944   5.482   2.549  0.3707 -0.3666 -0.1851
 4505SOL    HW217752   4.941   5.393   2.584  0.7956 -0.4564 -0.3779
 4505SOL    HW317753   4.852   5.509   2.546  0.3847  0.0732  2.0643
 4505SOL    MW417754   4.931   5.474   2.553  0.0989 -0.4773  0.5233
 4506SOL     OW17755   0.108   4.151   2.268 -0.1186  0.4693  0.3728
 4506SOL    HW217756   0.134   4.097   2.193 -0.4710  1.0564 -0.1820
 4506SOL    HW317757   0.146   4.107   2.344  2.3805  1.1814 -0.3627
 4506SOL    MW417758   0.116   4.138   2.268 -1.0842  0.1360 -0.8811
 4507SOL     OW17759   3.443   3.275   1.074  0.1987 -0.0660 -0.1521
 4507SOL    HW217760   3.534   3.248   1.066  0.3190  0.5986 -1.2554
 4507SOL    HW317761   3.411   3.281   0.984 -1.7675 -2.9481  0.2072
 4507SOL    MW417762   3.451   3.272   1.061  0.3027 -0.4275  0.1214
 4508SOL     OW17763   3.392   1.642   4.149  0.3945  0.6588 -0.2848
 4508SOL    HW217764   3.399   1.709   4.217 -1.2359  0.3066  0.2833
 4508SOL    HW317765   3.416   1.560   4.192  0.7718  0.6409 -0.5284
 4508SOL    MW417766   3.396   1.640   4.164  0.2835 -0.2458 -0.5148
 4509SOL     OW17767   2.204   0.087   1.167  0.5416 -0.0383 -0.3191
 4509SOL    HW217768   2.290   0.076   1.208  0.3106  1.1574  0.5430
 4509SOL    HW317769   2.185   0.002   1.129  1.2493 -0.9045  1.1617
 4509SOL    MW417770   2.213   0.074   1.167 -0.4226 -0.2901  0.5286
 4510SOL     OW17771   2.086   1.710   3.112  0.0730 -0.0950  0.5861
 4510SOL    HW217772   2.095   1.632   3.167  0.7576 -0.8496 -0.5325
 4510SOL    HW317773   1.993   1.711   3.088  0.1660 -0.9297  0.1380
 4510SOL    MW417774   2.075   1.700   3.116  0.2854 -0.1914  0.1436
 4511SOL     OW17775   0.494   6.053   2.451  0.0675 -0.2809 -0.4007
 4511SOL    HW217776   0.442   6.082   2.526  1.5093 -0.6800  0.8046
 4511SOL    HW317777   0.567   6.115   2.447 -0.0788 -0.1468 -1.6294
 4511SOL    MW417778   0.497   6.065   2.460  0.6007  0.6042 -0.2179
 4512SOL     OW17779   2.629   2.093   4.593  0.3141  0.2812 -0.0334
 4512SOL    HW217780   2.650   2.002   4.574  0.7007  0.5348 -0.8829
 4512SOL    HW317781   2.534   2.094   4.608  0.2624 -0.2160 -0.3193
 4512SOL    MW417782   2.619   2.081   4.592 -0.0367  0.6421  0.0718
 4513SOL     OW17783   4.950   4.681   2.402 -0.2245 -0.6922 -0.3785
 4513SOL    HW217784   4.947   4.644   2.314 -1.1965 -0.1508 -0.5813
 4513SOL    HW317785   4.940   4.606   2.460  2.3763 -1.3391 -0.6289
 4513SOL    MW417786   4.948   4.666   2.398 -0.5036 -0.7544  0.8293
 4514SOL     OW17787   2.350   3.437   1.411 -0.2350  0.0406  0.1841
 4514SOL    HW217788   2.363   3.468   1.322  0.4003 -1.2791 -0.2073
 4514SOL    HW317789   2.362   3.342   1.406 -2.7620 -0.4384  1.1809
 4514SOL    MW417790   2.353   3.429   1.399 -0.3359  0.0434 -0.2389
 4515SOL     OW17791   1.944   6.253   3.871 -0.5231  0.0086 -0.3929
 4515SOL    HW217792   1.925   6.202   3.792 -1.6612  0.0941 -0.1978
 4515SOL    HW317793   1.917   6.196   3.943 -1.2360  0.6283 -0.1536
 4515SOL    MW417794   1.938   6.239   3.870 -0.0056  0.3875 -0.0682
 4516SOL     OW17795   0.195   2.448   6.224 -0.4502  0.0083  0.2083
 4516SOL    HW217796   0.248   2.511   6.273  1.4664  0.0109 -1.7264
 4516SOL    HW317797   0.188   2.485   6.137 -1.1323 -1.4362 -0.3892
 4516SOL    MW417798   0.201   2.461   6.219  0.1569 -0.2278  0.5004
 4517SOL     OW17799   4.787   4.559   3.638  0.8353 -0.3882 -0.2496
 4517SOL    HW217800   4.879   4.549   3.664  0.9031 -0.7241 -0.6058
 4517SOL    HW317801   4.759   4.470   3.617 -0.0552 -0.5428  1.4128
 4517SOL    MW417802   4.796   4.546   3.639  0.3284 -0.1749  0.1611
 4518SOL     OW17803   0.716   1.435   0.179  0.0485 -0.2983 -0.2512
 4518SOL    HW217804   0.797   1.474   0.146 -0.4181 -0.8302 -2.1916
 4518SOL    HW317805   0.740   1.398   0.264  0.9463  2.5582  0.8701
 4518SOL    MW417806   0.730   1.435   0.186 -0.3361 -0.1030  0.3534
 4519SOL     OW17807   0.965   1.501   3.088  0.0160  0.5344  0.2897
 4519SOL    HW217808   1.034   1.467   3.031  0.2646  0.7072  0.4856
 4519SOL    HW317809   0.986   1.467   3.175  0.8605  2.0024  0.6987
 4519SOL    MW417810   0.977   1.492   3.092  0.2751  0.5056 -0.2237
 4520SOL     OW17811   4.064   0.185   5.733 -0.1464 -0.0249  0.2180
 4520SOL    HW217812   3.995   0.192   5.799  1.4173 -1.7401  2.1865
 4520SOL    HW317813   4.071   0.091   5.716 -0.5017  0.3655 -2.5021
 4520SOL    MW417814   4.056   0.173   5.739 -0.1778 -0.3015 -0.0222
 4521SOL     OW17815   3.156   2.521   2.646  0.5572  0.3593 -0.9591
 4521SOL    HW217816   3.218   2.569   2.591  0.9447 -0.9272 -1.6852
 4521SOL    HW317817   3.071   2.557   2.624  0.7322  0.0113 -2.2658
 4521SOL    MW417818   3.153   2.532   2.636 -0.5621  0.0942  0.7267
 4522SOL     OW17819   0.021   4.013   6.354 -0.2105 -0.4184  0.6290
 4522SOL    HW217820   0.049   4.087   6.408 -0.7576  0.7635 -0.6420
 4522SOL    HW317821   0.058   3.936   6.397 -1.6200  0.3142  3.3484
 4522SOL    MW417822   0.030   4.012   6.366  1.0229  0.0174 -0.0636
 4523SOL     OW17823   6.379   1.872   6.310 -0.5851  0.2081  0.3780
 4523SOL    HW217824   6.433   1.850   6.386 -0.7425  0.1156  0.4623
 4523SOL    HW317825   6.426   1.835   6.235 -0.7750 -0.2849  0.5011
 4523SOL    MW417826   6.392   1.864   6.310  0.0934  0.6973  0.0658
 4524SOL     OW17827   0.491   1.618   6.012  0.0575 -0.0362 -0.1537
 4524SOL    HW217828   0.458   1.550   6.071 -0.9762  0.2972 -0.3379
 4524SOL    HW317829   0.542   1.675   6.069  1.4655 -1.2868 -0.1005
 4524SOL    MW417830   0.493   1.616   6.028 -0.5425  0.9514 -0.3596
 4525SOL     OW17831   4.355   5.429   0.635  0.0110 -0.2425  0.6075
 4525SOL    HW217832   4.444   5.399   0.615  0.0629  0.5404 -0.4145
 4525SOL    HW317833   4.328   5.376   0.710  1.4534 -0.2696  1.1309
 4525SOL    MW417834   4.363   5.418   0.642  0.0341  0.3184 -0.2490
 4526SOL     OW17835   3.523   3.548   6.112  0.4126 -0.4373  0.4304
 4526SOL    HW217836   3.455   3.612   6.091  0.7872 -0.3977 -0.7564
 4526SOL    HW317837   3.605   3.598   6.105  0.7610 -1.1712 -1.2266
 4526SOL    MW417838   3.525   3.563   6.108 -0.0715 -0.4367  0.0489
 4527SOL     OW17839   2.683   1.725   3.793 -0.3902  0.2264 -0.2651
 4527SOL    HW217840   2.588   1.741   3.794 -0.5392 -0.5601  0.6741
 4527SOL    HW317841   2.723   1.811   3.803 -1.0153  0.5388 -0.4225
 4527SOL    MW417842   2.676   1.738   3.794 -0.2046 -0.0099  0.8683
 4528SOL     OW17843   1.058   2.475   0.099 -0.1805 -0.2711  0.2402
 4528SOL    HW217844   1.064   2.477   0.003  0.5624  3.6057  0.2137
 4528SOL    HW317845   0.964   2.474   0.117 -0.3300 -1.6893 -0.4629
 4528SOL    MW417846   1.047   2.475   0.089  0.3258  0.0497  0.4822
 4529SOL     OW17847   3.100   2.017   4.405 -0.2228  0.6637 -0.2287
 4529SOL    HW217848   3.029   1.994   4.346 -0.1168 -1.7576  0.4574
 4529SOL    HW317849   3.063   2.008   4.493  1.5078 -3.8353  0.3195
 4529SOL    MW417850   3.086   2.013   4.409  0.2773  0.8832 -0.1238
 4530SOL     OW17851   2.189   5.644   1.840 -0.1266  0.0739 -0.6535
 4530SOL    HW217852   2.167   5.697   1.917  0.3025  2.5450 -2.1343
 4530SOL    HW317853   2.106   5.601   1.817 -0.6779  0.6395  0.1837
 4530SOL    MW417854   2.175   5.645   1.847  0.6739  0.1114 -0.3512
 4531SOL     OW17855   0.033   2.134   1.799 -0.4155  0.3623 -0.1073
 4531SOL    HW217856   0.081   2.199   1.746 -1.5764 -0.0430 -1.7492
 4531SOL    HW317857  -0.051   2.125   1.754 -0.5939 -1.6856  0.5606
 4531SOL    MW417858   0.029   2.142   1.786 -0.4268 -0.4363  0.0779
 4532SOL     OW17859   2.069   0.916   4.035 -0.3379 -0.0861  0.1528
 4532SOL    HW217860   2.102   0.826   4.031 -0.2232 -0.0283 -0.2417
 4532SOL    HW317861   2.142   0.969   4.003  0.0017  0.2544  1.4334
 4532SOL    MW417862   2.083   0.911   4.030 -0.6667  0.3099  0.2946
 4533SOL     OW17863   4.563   5.378   3.779 -0.1417 -0.3623  0.1506
 4533SOL    HW217864   4.545   5.360   3.687  0.3257  0.8709 -0.1903
 4533SOL    HW317865   4.655   5.356   3.790 -0.1812 -0.4502  0.3160
 4533SOL    MW417866   4.573   5.373   3.768  0.1013 -0.2176  0.0826
 4534SOL     OW17867   1.986   0.009   5.190 -0.5178 -0.2287 -0.1891
 4534SOL    HW217868   1.949   0.093   5.163  2.2485  1.6265  1.3726
 4534SOL    HW317869   1.982  -0.045   5.111 -2.2552  1.3851 -1.2764
 4534SOL    MW417870   1.981   0.013   5.176 -0.2566 -0.4559  0.2469
 4535SOL     OW17871   6.139   3.851   1.864 -0.3243  0.4565 -0.1121
 4535SOL    HW217872   6.169   3.872   1.953 -0.3501  0.8290 -0.1868
 4535SOL    HW317873   6.078   3.778   1.876  1.0160 -0.6767 -0.0227
 4535SOL    MW417874   6.135   3.844   1.877  0.6632 -0.0509  0.0833
 4536SOL     OW17875   4.665   4.319   3.568  0.3444  0.6632  0.0467
 4536SOL    HW217876   4.602   4.265   3.614  1.0957  0.7393  1.2206
 4536SOL    HW317877   4.711   4.259   3.510  1.2903 -0.0527  1.4585
 4536SOL    MW417878   4.663   4.304   3.567 -0.4264 -0.1913  0.4487
 4537SOL     OW17879   0.795   5.858   4.482 -0.1274  0.1510 -0.8517
 4537SOL    HW217880   0.795   5.945   4.523  1.3035 -0.6565  1.0132
 4537SOL    HW317881   0.864   5.863   4.416  1.4392 -0.1241  0.6889
 4537SOL    MW417882   0.805   5.870   4.479 -0.3690 -0.2951 -0.2956
 4538SOL     OW17883   5.606   4.071   0.606  0.0652  0.3869  0.0130
 4538SOL    HW217884   5.698   4.097   0.607 -0.0692  1.0510 -1.7972
 4538SOL    HW317885   5.559   4.146   0.570 -1.4106  0.5604  2.0649
 4538SOL    MW417886   5.612   4.084   0.602 -0.2470 -0.2703 -0.0190
 4539SOL     OW17887   3.049   2.632   4.461  0.3748 -0.2033 -0.3774
 4539SOL    HW217888   3.125   2.663   4.510 -0.9378 -1.2286  2.5328
 4539SOL    HW317889   3.050   2.537   4.474 -2.8848 -0.0415  2.2888
 4539SOL    MW417890   3.059   2.623   4.470 -0.1082 -0.5556  0.6072
 4540SOL     OW17891   2.865   3.444   5.258  0.3736 -0.4642  0.0000
 4540SOL    HW217892   2.924   3.407   5.192 -0.6804  0.3539 -1.4720
 4540SOL    HW317893   2.922   3.491   5.318  1.5114 -2.5323  0.6087
 4540SOL    MW417894   2.880   3.446   5.257  0.1446  0.4638  0.0986
 4541SOL     OW17895   4.306   5.700   5.873  0.0586  0.5567  0.1389
 4541SOL    HW217896   4.393   5.660   5.871 -0.4425 -0.5343 -0.9924
 4541SOL    HW317897   4.246   5.629   5.849 -0.9485  1.7662 -1.1172
 4541SOL    MW417898   4.310   5.686   5.869  0.1367 -0.1815  0.0125
 4542SOL     OW17899   2.213   3.565   3.538  0.0971  0.7139 -0.0820
 4542SOL    HW217900   2.207   3.569   3.442  0.6282  0.9237 -0.1100
 4542SOL    HW317901   2.197   3.655   3.566 -0.4424  0.5792  0.0534
 4542SOL    MW417902   2.210   3.577   3.529  0.4725 -0.5183 -0.1409
 4543SOL     OW17903   3.446   3.436   3.687  0.6245  0.5310  0.1829
 4543SOL    HW217904   3.378   3.398   3.743 -0.1940  0.8385 -0.5816
 4543SOL    HW317905   3.454   3.527   3.717 -0.8906  1.1425 -1.1398
 4543SOL    MW417906   3.438   3.443   3.698 -0.5085  0.0487 -0.4400
 4544SOL     OW17907   2.443   2.714   5.457  0.6781 -0.9355 -0.2429
 4544SOL    HW217908   2.412   2.744   5.371 -1.1207  1.5330  1.1584
 4544SOL    HW317909   2.372   2.659   5.490  0.2961  0.0329  0.5948
 4544SOL    MW417910   2.430   2.710   5.450  0.0299  0.1328 -0.6028
 4545SOL     OW17911   2.177   2.965   2.138  0.1148  0.7322  0.0760
 4545SOL    HW217912   2.102   2.944   2.193  2.1502  1.0489  3.2624
 4545SOL    HW317913   2.162   3.056   2.111 -1.0056  0.5369  0.0041
 4545SOL    MW417914   2.165   2.974   2.142  0.4732  0.2693 -0.2644
 4546SOL     OW17915   0.358   4.154   2.650  0.0129  0.0131  0.6132
 4546SOL    HW217916   0.299   4.161   2.725  0.3493 -2.2148  1.1483
 4546SOL    HW317917   0.445   4.145   2.688  0.0343 -2.8056  0.1344
 4546SOL    MW417918   0.361   4.154   2.665 -0.4606  0.4375  0.0908
 4547SOL     OW17919   2.507   6.116   1.849 -0.2643  0.1475  0.2350
 4547SOL    HW217920   2.450   6.115   1.926  2.5741 -0.6263  2.4772
 4547SOL    HW317921   2.554   6.200   1.855 -0.0382  0.0992 -0.6972
 4547SOL    MW417922   2.506   6.127   1.860 -0.0235  0.2746  0.3419
 4548SOL     OW17923   1.095   1.277   4.772  0.0366 -0.1347  0.0480
 4548SOL    HW217924   1.041   1.218   4.721 -0.1847 -1.7070  1.9677
 4548SOL    HW317925   1.128   1.223   4.844  2.8636  1.1833 -0.1467
 4548SOL    MW417926   1.092   1.262   4.775 -0.0804 -0.2319 -0.0043
 4549SOL     OW17927   1.571   2.744   4.891 -0.3117  0.6233  0.1133
 4549SOL    HW217928   1.530   2.784   4.968 -0.8388 -3.1801  2.0076
 4549SOL    HW317929   1.541   2.654   4.891  1.2645 -0.0844 -3.5018
 4549SOL    MW417930   1.562   2.738   4.901 -0.0595  0.1714 -0.2480
 4550SOL     OW17931   2.078   2.699   5.175  0.3920  0.0894 -0.3003
 4550SOL    HW217932   2.015   2.739   5.116  1.2758  2.5729  0.3043
 4550SOL    HW317933   2.036   2.703   5.261  1.2773  1.7760  0.1093
 4550SOL    MW417934   2.064   2.705   5.179  0.5148 -0.5322  0.6179
 4551SOL     OW17935   5.036   2.102   3.272 -0.5054  0.3562 -0.2058
 4551SOL    HW217936   5.082   2.019   3.258 -2.4825 -0.4619 -2.4162
 4551SOL    HW317937   5.091   2.167   3.227  0.2046  0.0005  0.1242
 4551SOL    MW417938   5.050   2.099   3.264  0.6619 -0.1540  0.1283
 4552SOL     OW17939   1.319   1.225   2.041  0.2778 -0.2816  0.0087
 4552SOL    HW217940   1.342   1.183   1.957  2.1854  0.9615 -0.1792
 4552SOL    HW317941   1.351   1.164   2.107 -1.0682 -1.1839 -0.1237
 4552SOL    MW417942   1.327   1.211   2.038  0.5242 -0.0740 -0.0317
 4553SOL     OW17943   3.193   4.463   4.021 -0.2656  0.1425 -0.1091
 4553SOL    HW217944   3.205   4.459   4.116 -0.2327 -1.0505 -0.1460
 4553SOL    HW317945   3.247   4.392   3.987 -0.6250  0.2755 -0.9897
 4553SOL    MW417946   3.201   4.453   4.029  0.1048 -0.2700 -0.3505
 4554SOL     OW17947   4.584   1.419   0.311  0.8732 -0.4322  0.1891
 4554SOL    HW217948   4.506   1.472   0.291  0.5142 -1.7062 -2.2251
 4554SOL    HW317949   4.549   1.335   0.340  1.2686 -1.1631 -1.3306
 4554SOL    MW417950   4.569   1.415   0.312  0.8640 -0.0203  0.2301
 4555SOL     OW17951   5.709   2.409   1.781 -0.2789 -0.2137 -0.2614
 4555SOL    HW217952   5.781   2.352   1.809 -1.1481 -1.8024 -1.1042
 4555SOL    HW317953   5.729   2.429   1.689 -0.4725  0.0368 -0.2483
 4555SOL    MW417954   5.721   2.404   1.772  0.0355 -0.3997  0.1533
 4556SOL     OW17955   2.330   4.860   2.242  0.3052 -0.8907  0.2849
 4556SOL    HW217956   2.305   4.845   2.333 -1.9817  1.8821  0.2908
 4556SOL    HW317957   2.415   4.905   2.247 -0.2328  0.0692  1.1634
 4556SOL    MW417958   2.338   4.864   2.254 -0.2845 -0.2163  0.0284
 4557SOL     OW17959   4.776   1.124   4.856  0.2706  0.0264  0.6489
 4557SOL    HW217960   4.822   1.040   4.849  1.0722  0.5194 -0.0832
 4557SOL    HW317961   4.782   1.146   4.949  1.2870 -0.0597  0.6201
 4557SOL    MW417962   4.783   1.116   4.867 -0.9375 -0.2574 -0.1796
 4558SOL     OW17963   1.356   3.006   5.014  0.3333  0.1598  0.6637
 4558SOL    HW217964   1.432   3.064   5.018  0.3736  0.2240 -0.7193
 4558SOL    HW317965   1.356   2.962   5.099  3.9960 -2.4298 -0.4318
 4558SOL    MW417966   1.366   3.008   5.026 -0.5295  0.0755 -0.1896
 4559SOL     OW17967   0.869   5.194   4.157 -0.7693 -0.2057  0.7066
 4559SOL    HW217968   0.792   5.247   4.176 -0.7390 -0.7474  2.4896
 4559SOL    HW317969   0.861   5.118   4.214  0.3855 -0.9733 -0.1009
 4559SOL    MW417970   0.858   5.191   4.167 -0.0572  0.5274 -0.1965
 4560SOL     OW17971   1.212   5.167   5.043  0.4616  0.4585 -0.1414
 4560SOL    HW217972   1.145   5.169   4.976 -1.2570  2.5491  1.4923
 4560SOL    HW317973   1.260   5.249   5.031 -0.9595  1.7266  2.0796
 4560SOL    MW417974   1.210   5.178   5.033 -0.2436 -0.4041  0.2502
 4561SOL     OW17975   0.581   2.820   3.395 -0.2373  0.2849  0.3757
 4561SOL    HW217976   0.637   2.757   3.350  0.9231  0.4199  1.5714
 4561SOL    HW317977   0.594   2.902   3.347 -1.5779 -0.2701 -1.0428
 4561SOL    MW417978   0.590   2.823   3.383 -0.2518 -0.0563  0.1885
 4562SOL     OW17979   1.881   3.852   4.629  0.3817 -0.1242 -0.4121
 4562SOL    HW217980   1.788   3.834   4.618 -0.7143  1.5505  3.9055
 4562SOL    HW317981   1.911   3.784   4.690  1.3741  0.7379  0.0874
 4562SOL    MW417982   1.873   3.841   4.636 -0.1395 -0.1899  0.0107
 4563SOL     OW17983   6.432   4.640   1.714  0.2578  0.5987  0.0050
 4563SOL    HW217984   6.480   4.563   1.744  0.1980  0.1215 -1.0974
 4563SOL    HW317985   6.340   4.614   1.718  0.3093 -0.2197 -2.4755
 4563SOL    MW417986   6.426   4.627   1.719 -0.1123 -0.2096  0.1172
 4564SOL     OW17987   4.578   3.926   0.359 -0.1738 -0.2137  0.2408
 4564SOL    HW217988   4.575   3.835   0.329  0.5807 -0.1614 -0.0024
 4564SOL    HW317989   4.506   3.933   0.422  0.0669 -1.1038  0.6192
 4564SOL    MW417990   4.568   3.915   0.364  0.4114  0.4808  0.2452
 4565SOL     OW17991   0.112   4.719   5.210  0.6217  0.1971  0.3972
 4565SOL    HW217992   0.203   4.750   5.209  0.2719  1.4438  2.3651
 4565SOL    HW317993   0.075   4.755   5.291 -2.0453  0.9637 -1.0284
 4565SOL    MW417994   0.119   4.728   5.221 -0.0495  0.6423  0.5152
 4566SOL     OW17995   2.930   1.114   5.979 -0.7910 -0.2632  0.5847
 4566SOL    HW217996   2.849   1.164   5.993 -0.6473  0.2848 -0.4508
 4566SOL    HW317997   3.000   1.180   5.988 -0.5514 -0.4356  0.0070
 4566SOL    MW417998   2.929   1.129   5.982 -0.2446 -0.0604  0.3196
 4567SOL     OW17999   3.041   1.333   6.399 -0.3646 -0.0637  0.2262
 4567SOL    HW218000   2.997   1.371   6.323  0.8966  1.6887  0.3035
 4567SOL    HW318001   3.003   1.246   6.407 -1.0638 -0.0410 -1.9650
 4567SOL    MW418002   3.030   1.327   6.390 -0.0075  0.0611  0.2314
 4568SOL     OW18003   2.554   5.370   3.890  0.6688  0.3120  0.2874
 4568SOL    HW218004   2.614   5.441   3.869  2.3979 -0.9391  0.7326
 4568SOL    HW318005   2.484   5.411   3.940  2.1111  1.5685  1.3658
 4568SOL    MW418006   2.553   5.385   3.894 -0.9770  0.3026  0.5706
 4569SOL     OW18007   0.973   0.553   2.912  0.3942  0.1591 -0.2198
 4569SOL    HW218008   0.955   0.482   2.850  1.5952 -0.4585  0.1131
 4569SOL    HW318009   0.947   0.519   2.997  0.6082  0.2695 -0.1096
 4569SOL    MW418010   0.967   0.540   2.915  0.1516 -0.6476 -0.1873
 4570SOL     OW18011   3.431   5.501   5.145 -1.2211 -0.3279  0.0036
 4570SOL    HW218012   3.391   5.583   5.120  0.4775  0.9351  1.1730
 4570SOL    HW318013   3.512   5.497   5.094 -0.6017 -0.5434  0.9540
 4570SOL    MW418014   3.437   5.511   5.135 -0.0177 -0.0660  0.4522
 4571SOL     OW18015   2.851   3.700   0.842  0.5867 -0.8069  0.0809
 4571SOL    HW218016   2.934   3.680   0.799 -0.5195 -1.2462 -1.9725
 4571SOL    HW318017   2.805   3.616   0.845  0.0103 -0.4795  0.7621
 4571SOL    MW418018   2.856   3.686   0.837  0.0611 -0.0437  0.7634
 4572SOL     OW18019   3.982   1.842   5.137 -0.4973 -0.0520 -0.2550
 4572SOL    HW218020   3.984   1.768   5.198 -1.9279  0.0630 -0.0429
 4572SOL    HW318021   3.980   1.802   5.050  0.0567 -0.2337 -0.1883
 4572SOL    MW418022   3.982   1.827   5.134  0.0786  0.0117 -0.4068
 4573SOL     OW18023   5.208   0.926   0.316 -0.6486  0.1442  0.0793
 4573SOL    HW218024   5.186   0.894   0.228 -1.2110  0.0828  0.2381
 4573SOL    HW318025   5.243   0.849   0.361 -1.3199 -0.0851  0.2283
 4573SOL    MW418026   5.210   0.911   0.311  0.5949  0.1179  0.2050
 4574SOL     OW18027   3.978   3.247   4.311 -0.1158  0.0564  0.3933
 4574SOL    HW218028   3.916   3.266   4.240  0.1660  0.2119  0.1912
 4574SOL    HW318029   3.928   3.191   4.371 -1.0911  1.6986  1.1918
 4574SOL    MW418030   3.963   3.242   4.310 -0.3418 -0.0350 -0.6630
 4575SOL     OW18031   3.081   1.453   5.284 -0.8890 -0.5839 -0.5111
 4575SOL    HW218032   3.031   1.400   5.346 -1.7232  0.5936 -0.1459
 4575SOL    HW318033   3.049   1.542   5.297 -0.0119 -0.0843 -1.5944
 4575SOL    MW418034   3.070   1.458   5.294 -0.0455 -0.1387  0.0938
 4576SOL     OW18035   3.919   4.862   1.067  0.7618  0.3087 -0.4212
 4576SOL    HW218036   3.922   4.771   1.099 -0.6612  0.0538 -0.9741
 4576SOL    HW318037   3.980   4.909   1.125  0.0471 -0.6114  1.1452
 4576SOL    MW418038   3.928   4.856   1.079 -0.1933 -0.2437  0.6368
 4577SOL     OW18039   3.329   6.193   3.667  0.0445 -0.0285  0.4575
 4577SOL    HW218040   3.337   6.104   3.703 -1.0045 -0.0978  0.5584
 4577SOL    HW318041   3.274   6.239   3.729 -1.5220 -0.0507 -0.8509
 4577SOL    MW418042   3.323   6.187   3.680  0.2349 -1.1377 -0.1631
 4578SOL     OW18043   1.034   1.246   1.983 -0.2504  0.4758  0.6626
 4578SOL    HW218044   1.009   1.309   1.915  1.3044  1.6598  1.1018
 4578SOL    HW318045   1.124   1.270   2.004  1.0930 -3.0746 -0.4008
 4578SOL    MW418046   1.043   1.258   1.977  0.2783 -0.1222  0.0302
 4579SOL     OW18047   1.806   5.663   6.275  0.4735 -0.3018  0.2263
 4579SOL    HW218048   1.763   5.622   6.350 -1.4752  3.7900  1.5983
 4579SOL    HW318049   1.741   5.659   6.205 -1.4630  3.5612  1.5381
 4579SOL    MW418050   1.792   5.657   6.275 -0.9548 -0.2505 -0.5759
 4580SOL     OW18051   2.162   5.922   4.610 -0.9067  0.4147  0.5268
 4580SOL    HW218052   2.081   5.902   4.657  0.4134  0.4994  3.0178
 4580SOL    HW318053   2.174   6.016   4.621 -0.5882  0.4440 -0.0336
 4580SOL    MW418054   2.153   5.932   4.618  0.3268  0.3691 -0.4884
 4581SOL     OW18055   1.337   6.284   4.819 -0.3759  0.5704  0.8025
 4581SOL    HW218056   1.337   6.208   4.878  1.6490  2.2246  3.1712
 4581SOL    HW318057   1.288   6.351   4.867 -2.0048  0.8720 -1.1798
 4581SOL    MW418058   1.331   6.283   4.833  0.0384  0.0153  0.1694
 4582SOL     OW18059   2.137   5.433   1.174  0.4490 -0.0568  0.2525
 4582SOL    HW218060   2.151   5.501   1.240 -0.1283 -1.6184  2.0827
 4582SOL    HW318061   2.223   5.394   1.160  0.2032 -1.4130  2.1049
 4582SOL    MW418062   2.150   5.437   1.181  0.2038 -0.3617 -0.0684
 4583SOL     OW18063   3.913   6.379   6.009  0.1732 -0.2638  0.5873
 4583SOL    HW218064   3.929   6.339   5.923 -1.2891 -1.5617  0.8662
 4583SOL    HW318065   3.925   6.473   5.995 -0.2574 -0.4287 -1.1086
 4583SOL    MW418066   3.917   6.386   5.996  0.2505 -0.4978 -0.7164
 4584SOL     OW18067   1.085   1.761   3.048 -0.2083  0.0178  0.6294
 4584SOL    HW218068   1.033   1.680   3.052 -0.6242  0.3036  1.0556
 4584SOL    HW318069   1.163   1.736   2.998 -1.3359 -0.0919 -1.1718
 4584SOL    MW418070   1.089   1.747   3.042  0.4146  0.2566  0.3195
 4585SOL     OW18071   4.688   0.542   4.669  0.2926  0.6264 -0.2692
 4585SOL    HW218072   4.752   0.578   4.729 -1.3427  1.2403  1.1917
 4585SOL    HW318073   4.718   0.570   4.582  0.9986  2.4855  0.5271
 4585SOL    MW418074   4.700   0.550   4.665  0.2633 -0.7609  0.1559
 4586SOL     OW18075   5.308   4.765   4.788 -0.1554 -0.5349  0.4880
 4586SOL    HW218076   5.290   4.672   4.775  1.8480 -1.2730  2.3370
 4586SOL    HW318077   5.386   4.782   4.735 -0.1636 -0.0696  0.6177
 4586SOL    MW418078   5.316   4.755   4.779  0.3983  0.1425  0.6506
 4587SOL     OW18079   0.880   2.753   4.916 -0.1597 -0.5252 -0.7443
 4587SOL    HW218080   0.892   2.845   4.940 -3.8759  0.6219 -2.4563
 4587SOL    HW318081   0.825   2.717   4.985  0.6266 -1.2768 -0.4926
 4587SOL    MW418082   0.875   2.761   4.928 -0.3431  0.3138  0.5333
 4588SOL     OW18083   5.906   5.362   5.540  0.3176 -0.3700  0.1743
 4588SOL    HW218084   5.882   5.446   5.579  0.4208  0.4762 -1.4918
 4588SOL    HW318085   5.951   5.315   5.610  1.5300  1.5365  0.7665
 4588SOL    MW418086   5.909   5.367   5.554 -0.0089 -0.6844 -0.8828
 4589SOL     OW18087   3.453   3.127   4.017 -0.0285 -0.0843  0.6373
 4589SOL    HW218088   3.462   3.142   3.923  0.6128 -0.1805  0.6822
 4589SOL    HW318089   3.541   3.138   4.052 -0.2574 -0.0740  1.2272
 4589SOL    MW418090   3.466   3.131   4.009 -0.0161 -0.4131  0.3433
 4590SOL     OW18091   6.161   4.849   3.494 -0.0514  0.0981 -0.4218
 4590SOL    HW218092   6.090   4.820   3.552 -1.4182  0.2911 -1.9066
 4590SOL    HW318093   6.193   4.769   3.454  0.7577 -0.0149  0.4352
 4590SOL    MW418094   6.156   4.835   3.496  0.9431 -0.4500  0.8349
 4591SOL     OW18095   4.000   2.366   1.244 -0.3024 -0.0996  0.7963
 4591SOL    HW218096   4.055   2.437   1.277  0.9739 -1.1571  1.0136
 4591SOL    HW318097   4.046   2.286   1.268 -2.3316 -1.0885  1.6771
 4591SOL    MW418098   4.013   2.365   1.251  0.4885  0.8361  0.5538
 4592SOL     OW18099   0.973   2.684   0.761 -0.1956 -0.3169  0.6801
 4592SOL    HW218100   0.993   2.732   0.841  2.2913 -0.5541  0.2707
 4592SOL    HW318101   0.988   2.748   0.690 -0.8952 -0.5383  0.3211
 4592SOL    MW418102   0.978   2.699   0.762  0.3903  0.3457  0.4900
 4593SOL     OW18103   1.173   5.815   1.860 -0.3130 -0.1100 -0.3176
 4593SOL    HW218104   1.236   5.744   1.852  0.2592  0.2327  1.0086
 4593SOL    HW318105   1.187   5.851   1.947 -1.5167  0.7649 -0.4542
 4593SOL    MW418106   1.183   5.811   1.870  0.4268  0.1565 -0.8584
 4594SOL     OW18107   6.323   6.228   5.140 -0.6036  0.0973 -0.9914
 4594SOL    HW218108   6.328   6.317   5.104 -1.5480 -0.2671 -2.1104
 4594SOL    HW318109   6.334   6.239   5.234 -1.6874  1.5225 -0.9994
 4594SOL    MW418110   6.325   6.242   5.147 -0.4694  0.0076  0.8388
 4595SOL     OW18111   6.376   2.267   5.921  0.4075 -0.2960  0.4397
 4595SOL    HW218112   6.445   2.332   5.913  0.0661 -0.0752 -0.8742
 4595SOL    HW318113   6.394   2.203   5.852 -0.3343 -0.5721  0.4874
 4595SOL    MW418114   6.387   2.267   5.911  0.8840  0.3411  0.4513
 4596SOL     OW18115   5.931   5.047   6.396  0.4348  0.1073 -0.0987
 4596SOL    HW218116   5.847   5.075   6.432  0.7484  0.9512  0.0031
 4596SOL    HW318117   5.996   5.096   6.446  1.0324 -0.9911  0.2531
 4596SOL    MW418118   5.929   5.057   6.407 -0.3246  0.3071  0.4983
 4597SOL     OW18119   1.985   5.204   0.492 -0.7065 -0.7412 -0.0748
 4597SOL    HW218120   1.980   5.223   0.586  0.1654 -0.3693 -0.0891
 4597SOL    HW318121   1.897   5.222   0.459 -1.0458 -0.9663  0.6860
 4597SOL    MW418122   1.973   5.209   0.500  0.0569  0.1269  0.6387
 4598SOL     OW18123   5.353   6.389   1.626 -0.1668 -0.5001 -0.6393
 4598SOL    HW218124   5.321   6.301   1.605 -3.3288  0.6721 -1.3239
 4598SOL    HW318125   5.295   6.419   1.696  0.2158  1.3940 -1.0921
 4598SOL    MW418126   5.341   6.381   1.632 -0.1441 -0.0041  0.5463
 4599SOL     OW18127   2.126   1.968   5.743 -0.4286  0.1557 -0.1760
 4599SOL    HW218128   2.114   2.059   5.769 -2.3582  0.3181 -1.4391
 4599SOL    HW318129   2.200   1.970   5.683 -0.6980  0.9508 -0.4923
 4599SOL    MW418130   2.134   1.980   5.739  0.0951 -0.3342 -0.2841
 4600SOL     OW18131   3.811   1.436   5.011 -0.3999  0.6046  0.2179
 4600SOL    HW218132   3.794   1.430   5.105  0.4549  1.4245  0.4371
 4600SOL    HW318133   3.761   1.364   4.973 -1.7323  0.9773  1.1736
 4600SOL    MW418134   3.802   1.426   5.018 -0.3737  0.1486 -0.3219
 4601SOL     OW18135   3.670   4.793   0.506 -0.1114  0.1168 -0.1500
 4601SOL    HW218136   3.659   4.736   0.430  1.4730 -0.0006 -0.3339
 4601SOL    HW318137   3.651   4.736   0.581  2.2232 -0.9654 -0.2845
 4601SOL    MW418138   3.666   4.778   0.506  0.1731  0.2632  0.0837
 4602SOL     OW18139   5.404   2.877   0.808 -0.2208 -0.3125 -0.3057
 4602SOL    HW218140   5.486   2.857   0.761  0.1750  0.1682  0.1687
 4602SOL    HW318141   5.335   2.842   0.751  0.3705 -1.7743 -0.1593
 4602SOL    MW418142   5.406   2.870   0.794 -0.6136  0.5164 -0.0471
 4603SOL     OW18143   4.889   5.791   1.622 -0.2537  0.1937 -0.2681
 4603SOL    HW218144   4.980   5.796   1.650 -0.3357 -0.8692  0.2246
 4603SOL    HW318145   4.887   5.723   1.555 -0.7376 -0.0726  0.0065
 4603SOL    MW418146   4.900   5.783   1.617  0.0651  0.6322 -0.8331
 4604SOL     OW18147   0.302   0.501   5.387 -0.3877 -0.6997  0.0177
 4604SOL    HW218148   0.231   0.499   5.323  0.6205 -0.0863 -1.1817
 4604SOL    HW318149   0.380   0.522   5.335  0.4594 -0.0744  1.4671
 4604SOL    MW418150   0.303   0.504   5.372 -0.7116  0.4320 -0.1184
 4605SOL     OW18151   5.579   2.072   1.244  0.0732 -0.3130  0.1151
 4605SOL    HW218152   5.625   2.145   1.286  0.6001 -0.6836  0.1960
 4605SOL    HW318153   5.571   2.006   1.314 -0.6967 -0.2070  0.1361
 4605SOL    MW418154   5.584   2.073   1.259 -0.6782 -0.0336 -0.0236
 4606SOL     OW18155   5.866   2.298   4.971 -0.1601 -0.2720  0.0474
 4606SOL    HW218156   5.903   2.358   5.036  3.0608  0.2158 -2.0073
 4606SOL    HW318157   5.812   2.354   4.915 -0.0100  0.0204  0.1930
 4606SOL    MW418158   5.864   2.313   4.972 -0.6345 -0.3264  0.2940
 4607SOL     OW18159   5.513   1.853   0.958 -1.1886 -0.2778  0.6671
 4607SOL    HW218160   5.435   1.803   0.933 -0.1333 -2.9665  2.2837
 4607SOL    HW318161   5.484   1.908   1.030 -2.1859  0.9138 -0.5845
 4607SOL    MW418162   5.499   1.854   0.964 -0.1367  0.5368 -0.0868
 4608SOL     OW18163   3.566   0.131   4.848  0.2261  0.3831  0.3469
 4608SOL    HW218164   3.474   0.115   4.827  0.4804  0.5654 -0.9744
 4608SOL    HW318165   3.569   0.225   4.869 -0.1371  0.0751  1.8603
 4608SOL    MW418166   3.554   0.142   4.848 -0.5326  0.2345  0.4012
 4609SOL     OW18167   3.598   1.620   5.568  0.4518 -0.3482 -0.3131
 4609SOL    HW218168   3.573   1.712   5.558  0.4452 -0.3136  0.0089
 4609SOL    HW318169   3.678   1.623   5.620  0.3476 -0.5339 -0.1396
 4609SOL    MW418170   3.605   1.633   5.573 -0.1287  0.3106  0.0522
 4610SOL     OW18171   6.057   3.027   0.972  0.2155 -0.3743  0.1583
 4610SOL    HW218172   6.151   3.018   0.952  0.0490  0.9759 -1.4167
 4610SOL    HW318173   6.055   3.082   1.051  0.7360  0.0324 -0.1032
 4610SOL    MW418174   6.069   3.033   0.980 -0.0674 -0.1320 -0.2581
 4611SOL     OW18175   4.885   6.412   2.801  0.3494  0.5431  0.9678
 4611SOL    HW218176   4.838   6.462   2.867 -1.5090  1.0488 -0.6510
 4611SOL    HW318177   4.930   6.478   2.748  0.6270  0.2543  0.8377
 4611SOL    MW418178   4.885   6.427   2.802  0.5772 -0.6022 -0.4914
 4612SOL     OW18179   0.157   3.005   4.920 -0.4890  0.3325  0.1845
 4612SOL    HW218180   0.195   3.006   5.009  1.8606 -1.4547 -0.6915
 4612SOL    HW318181   0.136   2.913   4.904 -2.1709  0.8379 -0.6460
 4612SOL    MW418182   0.159   2.993   4.930  0.0854  0.0072  0.4229
 4613SOL     OW18183   3.076   0.093   1.746 -0.0749 -0.3718 -0.3895
 4613SOL    HW218184   3.001   0.095   1.805  0.3259 -0.8764  0.1566
 4613SOL    HW318185   3.045   0.043   1.670 -0.1510 -1.0239  0.0560
 4613SOL    MW418186   3.062   0.086   1.744 -0.1354 -0.1919 -0.2743
 4614SOL     OW18187   5.894   5.725   0.047 -0.6198  0.1149  0.5090
 4614SOL    HW218188   5.950   5.783  -0.005 -0.4502  2.4406  3.0516
 4614SOL    HW318189   5.942   5.643   0.052  2.6793  1.9654  2.4882
 4614SOL    MW418190   5.908   5.722   0.041  0.0696  0.2831 -0.3068
 4615SOL     OW18191   3.799   3.666   0.450  0.1873  0.4160 -0.8960
 4615SOL    HW218192   3.817   3.668   0.544 -1.2713  1.3791 -0.6034
 4615SOL    HW318193   3.817   3.576   0.424  0.8407  0.1986  0.2620
 4615SOL    MW418194   3.804   3.655   0.459 -0.6013  0.4549  0.1821
 4616SOL     OW18195   5.024   5.633   5.736 -0.4854 -0.6087  0.0119
 4616SOL    HW218196   5.030   5.540   5.713  0.0098 -0.2263 -1.5647
 4616SOL    HW318197   4.943   5.662   5.694  0.0140 -0.0557 -0.5801
 4616SOL    MW418198   5.014   5.625   5.727 -0.0405 -0.1128 -0.5552
 4617SOL     OW18199   2.896   0.596   4.004 -0.2702  0.0392  0.3181
 4617SOL    HW218200   2.960   0.657   4.043  0.8032 -1.1330  0.4536
 4617SOL    HW318201   2.890   0.623   3.912 -0.0026  0.5129  0.4357
 4617SOL    MW418202   2.904   0.608   3.997  0.0229  0.9509 -0.4962
 4618SOL     OW18203   2.806   5.337   0.697 -0.2066 -0.3534 -0.0438
 4618SOL    HW218204   2.778   5.252   0.729 -0.5465 -0.4214 -0.5135
 4618SOL    HW318205   2.863   5.318   0.623  1.5572 -0.2323  1.2198
 4618SOL    MW418206   2.810   5.324   0.691 -0.0187  0.1282 -0.3551
 4619SOL     OW18207   2.629   4.760   0.040  0.0430 -0.0759 -0.4032
 4619SOL    HW218208   2.699   4.825   0.031 -0.3027  0.4490  0.5688
 4619SOL    HW318209   2.632   4.734   0.132  0.3646 -1.6757 -0.8347
 4619SOL    MW418210   2.639   4.765   0.051  0.4317 -0.2567 -0.1112
 4620SOL     OW18211   2.899   0.719   4.288 -0.2430 -0.0489 -0.2829
 4620SOL    HW218212   2.820   0.742   4.336  0.0479  0.6014 -0.1112
 4620SOL    HW318213   2.911   0.625   4.307 -0.5968  0.0034  0.2343
 4620SOL    MW418214   2.891   0.709   4.297 -0.2064 -0.0929 -0.4587
 4621SOL     OW18215   4.206   1.402   4.592  0.4044 -0.0740  0.4213
 4621SOL    HW218216   4.180   1.327   4.538 -1.8716  0.8243  0.1290
 4621SOL    HW318217   4.266   1.452   4.536  2.4025 -1.8739  0.8242
 4621SOL    MW418218   4.210   1.399   4.577 -0.7418  0.2336  0.3545
 4622SOL     OW18219   3.314   3.941   3.292  0.2012 -0.1738  0.4514
 4622SOL    HW218220   3.254   3.868   3.309  0.8167 -0.5722  0.9698
 4622SOL    HW318221   3.298   4.003   3.363 -0.9363  0.6304 -0.4587
 4622SOL    MW418222   3.304   3.939   3.303 -0.4331  0.3712  0.1066
 4623SOL     OW18223   0.057   5.717   3.785  0.0791 -1.0272  0.4274
 4623SOL    HW218224   0.052   5.630   3.747  3.2920 -0.6901 -1.0912
 4623SOL    HW318225   0.027   5.775   3.715  0.9813 -0.7655  0.2341
 4623SOL    MW418226   0.053   5.713   3.771  0.3546  0.1621  0.7917
 4624SOL     OW18227   4.484   3.459   0.893 -0.1282  0.7182  0.1625
 4624SOL    HW218228   4.556   3.426   0.841 -0.0178  0.2078  0.6284
 4624SOL    HW318229   4.408   3.457   0.835 -0.1963 -0.6752  0.2670
 4624SOL    MW418230   4.483   3.455   0.879  0.5621 -0.2349  0.5969
 4625SOL     OW18231   0.314   1.231   0.756 -0.1066 -0.4361  0.0428
 4625SOL    HW218232   0.263   1.175   0.813  0.5011  1.8857  3.1552
 4625SOL    HW318233   0.371   1.171   0.707  0.0789 -2.5960  2.6772
 4625SOL    MW418234   0.315   1.216   0.757  0.2248 -0.0307  0.2654
 4626SOL     OW18235   0.356   2.400   0.123  0.0537  0.0125  0.7259
 4626SOL    HW218236   0.366   2.416   0.217  1.3018 -0.9823  0.7911
 4626SOL    HW318237   0.325   2.483   0.088 -0.7229  0.3199  2.0529
 4626SOL    MW418238   0.353   2.413   0.131  0.4702  0.0524 -0.1156
 4627SOL     OW18239   2.957   5.977   2.980 -0.6267 -0.2121  0.1797
 4627SOL    HW218240   2.977   5.918   3.052 -0.9868  1.1895  1.4864
 4627SOL    HW318241   3.020   6.048   2.989  1.4363 -1.4701 -2.8447
 4627SOL    MW418242   2.968   5.978   2.991 -0.5425  0.1982 -0.1329
 4628SOL     OW18243   1.169   1.633   3.371 -0.6601 -0.1557 -0.3155
 4628SOL    HW218244   1.189   1.632   3.465 -0.5457 -1.5852 -0.3315
 4628SOL    HW318245   1.142   1.723   3.353 -1.4985 -0.0507  1.2678
 4628SOL    MW418246   1.168   1.644   3.381 -0.3499 -0.3960  0.0134
 4629SOL     OW18247   5.072   6.031   5.742  0.2268 -0.3533 -0.4943
 4629SOL    HW218248   5.058   6.030   5.648 -0.6351 -1.5810 -0.3874
 4629SOL    HW318249   5.163   6.003   5.753  0.4007  0.0269 -0.9693
 4629SOL    MW418250   5.082   6.027   5.731  0.5013 -0.2776 -0.2622
 4630SOL     OW18251   5.489   1.296   4.889  0.4625 -0.2383  0.3851
 4630SOL    HW218252   5.456   1.337   4.969 -0.3666 -0.4569  0.1695
 4630SOL    HW318253   5.440   1.339   4.819  0.8118 -0.4102  0.0316
 4630SOL    MW418254   5.478   1.307   4.890 -0.0946  0.0010  0.1033
 4631SOL     OW18255   0.192   3.421   6.136 -0.0061 -0.0671 -0.6434
 4631SOL    HW218256   0.269   3.478   6.134  0.8932 -1.1749  0.3095
 4631SOL    HW318257   0.195   3.381   6.223 -1.1063 -0.8768 -0.9625
 4631SOL    MW418258   0.203   3.423   6.147  0.1243 -0.6961  0.2728
 4632SOL     OW18259   1.734   5.753   2.028 -0.3098  0.1108  0.2803
 4632SOL    HW218260   1.667   5.706   2.078 -0.1664 -1.0453 -0.5727
 4632SOL    HW318261   1.685   5.816   1.976 -1.0024 -1.8942 -1.6624
 4632SOL    MW418262   1.719   5.755   2.028  0.2345  0.0459 -0.3358
 4633SOL     OW18263   0.884   0.202   2.995 -0.0668 -0.0611  0.3969
 4633SOL    HW218264   0.948   0.131   3.004 -0.7499 -0.6903  0.4553
 4633SOL    HW318265   0.895   0.234   2.905 -2.8382 -3.3980 -1.3993
 4633SOL    MW418266   0.894   0.197   2.984 -0.2528 -1.0005  0.5565
 4634SOL     OW18267   5.698   2.828   2.754 -0.1003  0.6095  1.0822
 4634SOL    HW218268   5.691   2.895   2.821  0.8085  0.9168  0.8881
 4634SOL    HW318269   5.748   2.870   2.684 -1.0023  0.2902  0.2206
 4634SOL    MW418270   5.703   2.843   2.753 -0.0476 -0.2726  0.1631
 4635SOL     OW18271   5.551   4.527   5.715  0.4283 -0.2512  0.2538
 4635SOL    HW218272   5.633   4.565   5.748  1.9753 -2.2819 -0.9428
 4635SOL    HW318273   5.549   4.439   5.754 -1.2286 -0.2512  0.2432
 4635SOL    MW418274   5.562   4.520   5.725  0.0461 -0.3579  0.1568
 4636SOL     OW18275   0.688   5.603   4.839 -0.2256 -0.2358 -0.3545
 4636SOL    HW218276   0.706   5.672   4.903  1.1890  0.5516 -1.5408
 4636SOL    HW318277   0.722   5.523   4.879  0.1283  0.1464  0.1188
 4636SOL    MW418278   0.694   5.601   4.852 -0.6320 -0.2670 -0.3840
 4637SOL     OW18279   4.632   2.181   3.743 -0.3259  0.2569  0.4786
 4637SOL    HW218280   4.630   2.094   3.782 -0.5190 -0.6971 -1.5256
 4637SOL    HW318281   4.724   2.208   3.751  0.4144 -1.3965 -1.3327
 4637SOL    MW418282   4.644   2.173   3.749  0.4463 -0.1333  0.0834
 4638SOL     OW18283   2.070   4.692   5.078  0.3770  0.2873 -0.6929
 4638SOL    HW218284   2.148   4.671   5.027  1.0060 -1.2563  0.8232
 4638SOL    HW318285   1.997   4.667   5.022  1.0036  0.0785 -1.4335
 4638SOL    MW418286   2.071   4.686   5.064 -0.1949  0.2526  0.7926
 4639SOL     OW18287   1.631   5.812   2.404  0.1925  0.1019 -0.1997
 4639SOL    HW218288   1.572   5.885   2.384  0.4117  0.7194  1.2866
 4639SOL    HW318289   1.684   5.843   2.477 -0.0050 -1.6916  0.7585
 4639SOL    MW418290   1.630   5.826   2.411 -0.0532  0.2339 -0.4757
 4640SOL     OW18291   4.982   5.539   3.881  0.1618  0.4286 -1.0782
 4640SOL    HW218292   5.062   5.530   3.932  1.6473 -1.7190 -3.5766
 4640SOL    HW318293   4.934   5.458   3.897 -0.4800  0.7465 -1.3352
 4640SOL    MW418294   4.986   5.528   3.890  1.0020  0.2278 -0.5490
 4641SOL     OW18295   4.401   3.390   1.800 -0.6948  0.0865 -0.6313
 4641SOL    HW218296   4.333   3.342   1.848  0.5918  0.3800  1.6095
 4641SOL    HW318297   4.364   3.477   1.788 -0.5527  0.4177  1.0915
 4641SOL    MW418298   4.387   3.395   1.805 -0.5384 -0.4886  0.4378
 4642SOL     OW18299   2.701   2.635   5.501 -0.0627  0.0241 -0.7626
 4642SOL    HW218300   2.745   2.650   5.418  1.6624  1.1670  0.2793
 4642SOL    HW318301   2.608   2.647   5.483  0.3254  0.7291 -2.4087
 4642SOL    MW418302   2.695   2.638   5.488 -0.0045 -0.0457  0.4394
 4643SOL     OW18303   5.363   5.791   0.234  0.3504  0.4826 -0.0492
 4643SOL    HW218304   5.412   5.873   0.231 -1.4621  1.6225 -0.1972
 4643SOL    HW318305   5.385   5.752   0.318  0.4995  1.6178  0.4531
 4643SOL    MW418306   5.372   5.797   0.245  0.0256  0.2549 -0.2022
 4644SOL     OW18307   2.907   2.922   6.136 -0.3051  0.2162 -0.1378
 4644SOL    HW218308   2.963   2.847   6.113  0.6395  1.2515 -1.3852
 4644SOL    HW318309   2.893   2.913   6.230 -0.5252 -1.7247 -0.3048
 4644SOL    MW418310   2.913   2.911   6.145  0.4339  0.0464 -0.0145
 4645SOL     OW18311   3.053   2.775   0.398  0.5122 -0.3620 -0.5174
 4645SOL    HW218312   2.998   2.842   0.357 -0.8998  0.0502  1.8764
 4645SOL    HW318313   3.134   2.822   0.421  0.1655  0.1318 -0.2765
 4645SOL    MW418314   3.056   2.790   0.395 -0.1584 -0.8388  0.4184
 4646SOL     OW18315   0.614   6.177   1.407  0.4264 -1.0116 -0.0953
 4646SOL    HW218316   0.638   6.263   1.441 -0.4175 -0.8683  0.1648
 4646SOL    HW318317   0.637   6.180   1.314 -2.8369  0.7895 -0.9700
 4646SOL    MW418318   0.620   6.188   1.399  0.2758  0.1997  0.5574
 4647SOL     OW18319   4.459   1.328   6.398 -0.1573 -0.3475  0.0173
 4647SOL    HW218320   4.425   1.340   6.309 -0.5849 -2.3030 -0.1091
 4647SOL    HW318321   4.439   1.237   6.420  1.3046 -0.3433  1.5447
 4647SOL    MW418322   4.452   1.318   6.389 -0.4800 -0.4313 -0.0142
 4648SOL     OW18323   3.561   4.246   4.813 -0.3246 -0.0522 -0.2539
 4648SOL    HW218324   3.635   4.229   4.754  0.2975  1.0855  0.1777
 4648SOL    HW318325   3.509   4.312   4.768 -1.0141 -0.7353 -0.4821
 4648SOL    MW418326   3.564   4.252   4.800  0.2187 -0.1125 -0.0648
 4649SOL     OW18327   3.629   5.555   4.214 -0.2514  0.1821 -0.6184
 4649SOL    HW218328   3.607   5.648   4.204 -1.6723 -0.1768 -1.1136
 4649SOL    HW318329   3.712   5.545   4.168 -0.2629  1.1373 -0.8755
 4649SOL    MW418330   3.637   5.566   4.207  0.4126 -0.4985  0.2366
 4650SOL     OW18331   0.417   0.276   5.487  0.1359  0.1520  0.2263
 4650SOL    HW218332   0.439   0.294   5.579 -2.5378 -2.5651  1.5834
 4650SOL    HW318333   0.360   0.349   5.461  1.1291  1.0826  0.6065
 4650SOL    MW418334   0.412   0.288   5.496  0.0701 -0.9825 -0.4055
 4651SOL     OW18335   3.977   5.959   5.624  0.0089 -0.4311 -0.3805
 4651SOL    HW218336   3.962   6.048   5.655 -0.8065  0.1859 -2.4251
 4651SOL    HW318337   4.061   5.934   5.663 -0.1882  0.8557  0.9617
 4651SOL    MW418338   3.986   5.967   5.633  0.3284 -0.1151 -0.0080
 4652SOL     OW18339   5.133   0.861   2.866 -0.0848  0.2693  0.3698
 4652SOL    HW218340   5.046   0.833   2.896  0.0897  1.6289  2.3188
 4652SOL    HW318341   5.187   0.783   2.874 -0.7935 -0.2153  0.5584
 4652SOL    MW418342   5.129   0.847   2.871  0.6130  0.1262  0.0991
 4653SOL     OW18343   0.761   3.171   4.762 -0.7001 -0.3816 -0.0642
 4653SOL    HW218344   0.834   3.124   4.722 -0.5450  1.0409 -1.5342
 4653SOL    HW318345   0.797   3.256   4.786 -1.6259 -0.0257  0.1285
 4653SOL    MW418346   0.775   3.176   4.760 -0.2442 -0.2269  0.4941
 4654SOL     OW18347   0.011   5.453   0.783 -0.0765 -0.2070  0.1022
 4654SOL    HW218348   0.024   5.460   0.878  0.2128 -0.6731  0.0990
 4654SOL    HW318349  -0.065   5.509   0.766  0.0077  0.0621  0.5751
 4654SOL    MW418350   0.002   5.461   0.793  0.3673  0.0451 -0.0021
 4655SOL     OW18351   2.154   1.184   3.045 -0.1635  0.0245  0.4493
 4655SOL    HW218352   2.247   1.188   3.070 -0.0351 -1.0252  0.1795
 4655SOL    HW318353   2.141   1.262   2.991  0.9867 -0.6679 -0.8775
 4655SOL    MW418354   2.165   1.195   3.041  0.2716  0.3970  0.5902
 4656SOL     OW18355   0.542   5.234   3.807 -0.0398 -0.1369 -0.0490
 4656SOL    HW218356   0.633   5.256   3.825 -0.0600  0.1202 -0.2597
 4656SOL    HW318357   0.530   5.147   3.847  0.2265 -0.0644  0.1912
 4656SOL    MW418358   0.552   5.225   3.815 -0.5073  0.7492 -0.0830
 4657SOL     OW18359   0.410   1.420   0.330 -0.2754  0.0677 -0.1336
 4657SOL    HW218360   0.406   1.499   0.384 -1.9294  0.6877 -1.0817
 4657SOL    HW318361   0.420   1.452   0.241  0.1223 -0.8464 -0.4290
 4657SOL    MW418362   0.411   1.434   0.326 -0.5889 -0.5701  0.0340
 4658SOL     OW18363   1.555   5.647   1.175 -0.3708 -0.3278 -0.3882
 4658SOL    HW218364   1.574   5.695   1.255  1.0608 -1.7159  0.1469
 4658SOL    HW318365   1.478   5.691   1.138 -1.9176 -0.4355  2.4186
 4658SOL    MW418366   1.547   5.659   1.181 -0.4181 -0.6107 -0.7948
 4659SOL     OW18367   6.037   3.353   5.788  0.2183 -0.0224  0.2313
 4659SOL    HW218368   6.070   3.269   5.757 -1.4791 -0.9653  0.8218
 4659SOL    HW318369   6.065   3.358   5.880 -2.1470 -1.4093  1.1202
 4659SOL    MW418370   6.045   3.342   5.796  0.3615 -0.0183  0.1731
 4660SOL     OW18371   5.625   4.685   3.857  0.2552 -0.1702 -0.9700
 4660SOL    HW218372   5.558   4.620   3.877 -1.7598  1.9414 -0.4164
 4660SOL    HW318373   5.704   4.651   3.898 -1.2555 -1.1912  1.3450
 4660SOL    MW418374   5.626   4.672   3.865 -0.0108 -0.4469 -0.4678
 4661SOL     OW18375   0.460   4.565   0.774  0.1102  0.6317 -0.3681
 4661SOL    HW218376   0.544   4.606   0.752 -0.1057  0.5773 -1.3190
 4661SOL    HW318377   0.441   4.507   0.701 -0.8162  0.7202 -0.2168
 4661SOL    MW418378   0.469   4.563   0.762  0.0540 -0.2992  0.2662
 4662SOL     OW18379   3.378   3.427   5.142  0.0254 -0.0388  0.0001
 4662SOL    HW218380   3.365   3.373   5.064 -0.9899  0.1840  0.0015
 4662SOL    HW318381   3.366   3.367   5.215  0.2076 -0.0883 -0.0112
 4662SOL    MW418382   3.374   3.412   5.141  0.3625 -0.0781 -0.3205
 4663SOL     OW18383   6.257   2.025   4.161  0.3154  0.3578 -0.6430
 4663SOL    HW218384   6.162   2.028   4.144  0.0105  1.7997  1.0998
 4663SOL    HW318385   6.290   2.109   4.129  0.4955  1.0895  1.3448
 4663SOL    MW418386   6.249   2.037   4.155  0.2758  0.1040 -0.2394
 4664SOL     OW18387   3.123   4.736   4.818 -0.3444  0.3493  0.2917
 4664SOL    HW218388   3.045   4.683   4.803  0.5365 -0.9824  0.3077
 4664SOL    HW318389   3.092   4.809   4.873 -1.5876 -0.0811  0.1959
 4664SOL    MW418390   3.108   4.739   4.823  0.3930  0.0744  0.2065
 4665SOL     OW18391   2.503   0.532   2.200  0.8645  0.1956  0.2116
 4665SOL    HW218392   2.588   0.536   2.155  1.0401  0.0826  0.5295
 4665SOL    HW318393   2.441   0.508   2.131  0.5860  3.1315 -0.6598
 4665SOL    MW418394   2.506   0.529   2.185 -0.1090  0.3030  0.5234
 4666SOL     OW18395   3.078   5.143   4.275  0.1126  0.2507 -0.5479
 4666SOL    HW218396   3.124   5.092   4.341 -1.5875 -1.1094 -0.3521
 4666SOL    HW318397   3.146   5.167   4.211  1.4902  0.3451  0.9070
 4666SOL    MW418398   3.093   5.140   4.275  0.4743 -0.3546  0.4783
 4667SOL     OW18399   5.934   0.681   1.482  0.2573  0.7389 -0.1073
 4667SOL    HW218400   5.918   0.772   1.458 -2.2742  0.0081 -1.6163
 4667SOL    HW318401   5.876   0.665   1.557  2.3215  0.8727  1.6205
 4667SOL    MW418402   5.924   0.691   1.489  0.1856  0.5168 -0.0626
 4668SOL     OW18403   1.525   4.427   3.851 -0.4711 -0.5340 -0.0388
 4668SOL    HW218404   1.561   4.460   3.768 -1.4945 -1.6106 -0.9278
 4668SOL    HW318405   1.452   4.486   3.870  0.4296  0.3802  0.6897
 4668SOL    MW418406   1.520   4.439   3.843 -0.5714  0.2514 -0.0967
 4669SOL     OW18407   0.807   3.098   3.612 -0.2642  0.5930  0.0107
 4669SOL    HW218408   0.888   3.052   3.591  0.2135  0.9521  1.0024
 4669SOL    HW318409   0.809   3.176   3.556  0.0805  0.5980  0.0262
 4669SOL    MW418410   0.818   3.102   3.602 -0.5776 -0.7131 -0.3965
 4670SOL     OW18411   2.785   0.436   1.331 -0.8854 -0.2160  0.3172
 4670SOL    HW218412   2.696   0.463   1.307  0.1857  3.3234 -0.3174
 4670SOL    HW318413   2.787   0.441   1.426 -1.5694 -1.2405  0.4010
 4670SOL    MW418414   2.774   0.440   1.340 -0.1154 -0.4734  0.3489
 4671SOL     OW18415   0.704   5.357   4.590 -0.3520  0.1417 -0.0469
 4671SOL    HW218416   0.788   5.403   4.595 -0.0839 -0.4404  1.3160
 4671SOL    HW318417   0.638   5.425   4.604 -0.1050  0.5297 -0.6933
 4671SOL    MW418418   0.707   5.372   4.592  0.2515  0.1153 -0.2178
 4672SOL     OW18419   3.555   5.818   4.181 -0.1125 -0.3095 -0.3478
 4672SOL    HW218420   3.569   5.858   4.267  0.6410  2.9813 -1.8310
 4672SOL    HW318421   3.639   5.827   4.136 -0.5042 -1.9169 -1.4802
 4672SOL    MW418422   3.568   5.825   4.186 -0.0736  0.8245  0.2164
 4673SOL     OW18423   3.623   4.980   3.532  0.1529  0.1128 -0.4559
 4673SOL    HW218424   3.565   4.976   3.456  0.7940  1.0074 -1.0049
 4673SOL    HW318425   3.572   4.939   3.603 -0.2690 -1.1583 -1.4580
 4673SOL    MW418426   3.608   4.974   3.531  0.5640 -0.1650 -0.3813
 4674SOL     OW18427   1.433   4.908   4.403 -0.6799  0.2522 -0.2431
 4674SOL    HW218428   1.370   4.840   4.379 -2.0109  0.9872  1.0226
 4674SOL    HW318429   1.423   4.918   4.498 -0.2371  1.9053 -0.3353
 4674SOL    MW418430   1.423   4.901   4.412 -0.5665  0.2085 -0.2392
 4675SOL     OW18431   4.529   0.367   0.565  0.0387 -0.5414  0.8618
 4675SOL    HW218432   4.547   0.363   0.471  0.4750 -1.5544  0.9718
 4675SOL    HW318433   4.465   0.297   0.579 -1.5569  0.8901  1.0126
 4675SOL    MW418434   4.523   0.357   0.554 -0.4153  0.0931 -0.2773
 4676SOL     OW18435   5.187   2.367   0.894  0.2309  0.1089  0.0144
 4676SOL    HW218436   5.135   2.359   0.814 -0.2767  0.4019  0.3007
 4676SOL    HW318437   5.267   2.412   0.867  0.5918 -0.8451 -0.5379
 4676SOL    MW418438   5.190   2.372   0.880 -0.0749 -0.0768 -0.0038
 4677SOL     OW18439   3.510   2.123   0.808  0.4905 -0.3276  0.1270
 4677SOL    HW218440   3.464   2.095   0.887  1.4269  0.0908  0.8420
 4677SOL    HW318441   3.576   2.185   0.839  0.9466 -0.2302 -0.9753
 4677SOL    MW418442   3.513   2.127   0.822  0.0164 -0.4612  0.0253
 4678SOL     OW18443   0.582   1.280   0.501 -0.1745 -0.5304 -0.1695
 4678SOL    HW218444   0.582   1.325   0.585  0.7848 -0.4425 -0.2016
 4678SOL    HW318445   0.520   1.329   0.447  0.0905  0.1338  0.1228
 4678SOL    MW418446   0.574   1.292   0.505 -0.6954 -0.5804  0.4599
 4679SOL     OW18447   5.792   0.485   5.185 -0.0917 -0.6775 -0.1301
 4679SOL    HW218448   5.825   0.425   5.118  0.0672 -1.1151  0.3322
 4679SOL    HW318449   5.732   0.543   5.139 -0.5726 -1.4667 -0.5048
 4679SOL    MW418450   5.789   0.485   5.170  0.0518  0.0178  0.2367
 4680SOL     OW18451   3.158   2.181   1.869  0.2796  0.5198  0.8245
 4680SOL    HW218452   3.201   2.138   1.942  1.0653  0.4107  0.3145
 4680SOL    HW318453   3.076   2.132   1.856  1.3639 -1.1616 -0.0397
 4680SOL    MW418454   3.153   2.169   1.877  0.2875 -0.0166 -0.1315
 4681SOL     OW18455   4.684   5.261   2.687 -0.3819  0.5155 -0.5245
 4681SOL    HW218456   4.690   5.261   2.592  0.7546 -0.4566 -0.4766
 4681SOL    HW318457   4.774   5.249   2.717 -0.7877  0.2700  0.6560
 4681SOL    MW418458   4.696   5.259   2.679 -0.3421 -0.0643  0.4830
 4682SOL     OW18459   0.116   4.393   0.904  0.6212 -0.4484 -0.2716
 4682SOL    HW218460   0.082   4.455   0.839  0.8824  0.4917  0.4712
 4682SOL    HW318461   0.084   4.426   0.988  1.3333 -0.9441  0.2037
 4682SOL    MW418462   0.107   4.406   0.906 -0.2413 -0.3639  0.5225
 4683SOL     OW18463   3.305   1.849   4.425 -0.0084 -0.5395 -0.7980
 4683SOL    HW218464   3.230   1.907   4.409 -0.1032 -0.1530  0.8209
 4683SOL    HW318465   3.381   1.908   4.424 -0.0282 -0.4735  0.1125
 4683SOL    MW418466   3.305   1.865   4.423  0.0698 -0.9696 -0.1369
 4684SOL     OW18467   1.462   3.317   6.083 -0.0141 -0.4408 -0.5039
 4684SOL    HW218468   1.539   3.326   6.027  0.6008 -1.6324  0.1271
 4684SOL    HW318469   1.469   3.230   6.121 -0.9613 -0.0536  0.6311
 4684SOL    MW418470   1.473   3.307   6.081 -0.2431 -0.4392  0.3075
 4685SOL     OW18471   3.336   0.505   0.444  0.2527 -0.1833 -0.3200
 4685SOL    HW218472   3.344   0.434   0.508 -3.8627  0.1698  0.8839
 4685SOL    HW318473   3.291   0.575   0.492 -3.0479  0.1215 -3.4342
 4685SOL    MW418474   3.331   0.505   0.459 -0.0919 -0.5358 -0.3988
 4686SOL     OW18475   6.390   6.301   1.305  0.4557 -0.1927  0.0193
 4686SOL    HW218476   6.333   6.332   1.376  0.2866 -0.1239 -0.1462
 4686SOL    HW318477   6.405   6.379   1.252  0.8337 -0.1761  0.1491
 4686SOL    MW418478   6.385   6.316   1.308 -0.0763 -0.4213 -0.3860
 4687SOL     OW18479   0.314   2.015   0.489  0.7206 -0.3259 -0.3862
 4687SOL    HW218480   0.356   2.089   0.447  0.2963 -0.1639 -0.5302
 4687SOL    HW318481   0.237   1.996   0.435 -0.2827  0.3965  0.7237
 4687SOL    MW418482   0.309   2.022   0.477  0.1542  0.5577 -0.6463
 4688SOL     OW18483   6.079   2.120   4.456  0.8366 -0.3043  0.4774
 4688SOL    HW218484   6.119   2.033   4.461  3.2612  0.6998 -0.2153
 4688SOL    HW318485   6.065   2.135   4.362  1.2516  0.4063  0.5264
 4688SOL    MW418486   6.082   2.110   4.444 -0.3517 -0.3829 -0.2009
 4689SOL     OW18487   0.022   4.277   0.623 -0.4770  0.3791 -0.0654
 4689SOL    HW218488   0.001   4.352   0.678 -1.0521 -0.1545  0.4773
 4689SOL    HW318489   0.003   4.201   0.679 -0.1252 -0.1645 -0.6713
 4689SOL    MW418490   0.016   4.277   0.637 -0.5857 -0.5757  0.4035
 4690SOL     OW18491   0.631   1.437   1.058  0.1887  0.1912 -0.5005
 4690SOL    HW218492   0.668   1.523   1.038 -0.4201  0.6971  0.4847
 4690SOL    HW318493   0.560   1.455   1.120  0.0136 -1.0177 -0.3257
 4690SOL    MW418494   0.627   1.451   1.063 -0.0246 -1.0126  0.1759
 4691SOL     OW18495   5.321   4.191   3.916 -0.6671  0.4212 -0.5843
 4691SOL    HW218496   5.341   4.197   4.010 -0.0185  1.1934 -0.7610
 4691SOL    HW318497   5.405   4.172   3.875 -0.3923  2.8552 -1.2567
 4691SOL    MW418498   5.335   4.189   3.923  0.7437  0.1397  0.4636
 4692SOL     OW18499   4.433   3.699   5.366  0.2157  0.2506  0.0775
 4692SOL    HW218500   4.388   3.629   5.413  1.3816  0.7401  2.0160
 4692SOL    HW318501   4.385   3.779   5.390 -0.1270  0.3409 -0.8474
 4692SOL    MW418502   4.420   3.701   5.375 -0.0362 -0.2526  0.3794
 4693SOL     OW18503   3.832   1.605   2.998 -0.4711 -0.0145  0.2601
 4693SOL    HW218504   3.829   1.698   3.020 -0.9910 -0.4212  2.1082
 4693SOL    HW318505   3.923   1.579   3.011  0.2584  0.6811 -2.6268
 4693SOL    MW418506   3.843   1.614   3.002  0.7137 -0.4034  0.2728
 4694SOL     OW18507   2.669   1.711   2.364  0.5768  0.1386 -0.4343
 4694SOL    HW218508   2.756   1.741   2.340 -0.2140  1.2386 -2.1269
 4694SOL    HW318509   2.610   1.776   2.325 -0.9898 -0.4369  0.8833
 4694SOL    MW418510   2.672   1.723   2.355  0.0015  0.5547 -0.1259
 4695SOL     OW18511   1.830   2.969   2.900  0.0327  0.0769  0.5082
 4695SOL    HW218512   1.892   2.898   2.892 -0.0903 -0.0233  0.4337
 4695SOL    HW318513   1.864   3.037   2.842 -0.2645 -0.2215 -0.0226
 4695SOL    MW418514   1.842   2.969   2.891  0.0187  0.7805  0.4001
 4696SOL     OW18515   1.557   2.834   4.252 -0.1959  0.2259  0.2336
 4696SOL    HW218516   1.494   2.785   4.305  1.6482  0.3410  2.7528
 4696SOL    HW318517   1.625   2.771   4.231  0.7052  0.9393  0.8940
 4696SOL    MW418518   1.558   2.819   4.257 -0.4210  0.1427 -0.3858
 4697SOL     OW18519   3.574   4.593   0.744  0.1938  0.1356  0.1291
 4697SOL    HW218520   3.625   4.655   0.796 -0.8879  1.3831 -0.2360
 4697SOL    HW318521   3.520   4.546   0.808  2.0367 -1.4985  0.5634
 4697SOL    MW418522   3.573   4.595   0.759 -0.2551  0.1932  0.3553
 4698SOL     OW18523   2.226   4.659   0.201 -0.1907 -0.2161  0.5081
 4698SOL    HW218524   2.257   4.592   0.261  2.6314  0.6114  0.1223
 4698SOL    HW318525   2.246   4.742   0.245  1.7426  0.4049 -1.3504
 4698SOL    MW418526   2.233   4.661   0.215 -0.7331  0.2406 -0.0861
 4699SOL     OW18527   5.255   4.215   4.370 -0.3378  0.2671  0.7425
 4699SOL    HW218528   5.173   4.169   4.358 -0.2029 -0.4551  2.2905
 4699SOL    HW318529   5.247   4.257   4.456  0.9005  0.1615  0.9391
 4699SOL    MW418530   5.243   4.215   4.380  0.4555 -0.4724 -0.4801
 4700SOL     OW18531   4.938   4.776   3.432 -0.4098 -0.0408  0.0203
 4700SOL    HW218532   5.013   4.764   3.491 -1.3676 -0.6472  1.1588
 4700SOL    HW318533   4.864   4.736   3.478 -1.7576  1.8314 -0.3837
 4700SOL    MW418534   4.938   4.769   3.446 -0.6864 -0.1354 -0.4292
 4701SOL     OW18535   4.577   1.601   5.610 -0.1261 -0.5276 -0.5591
 4701SOL    HW218536   4.546   1.669   5.550  1.1597 -0.4857 -1.2120
 4701SOL    HW318537   4.499   1.574   5.658 -0.4005  2.7338  1.1029
 4701SOL    MW418538   4.563   1.606   5.608  0.0773  0.3204  0.0144
 4702SOL     OW18539   4.693   3.755   2.383 -0.3336  0.3579  0.1201
 4702SOL    HW218540   4.701   3.719   2.295 -0.2274  2.6026 -0.8627
 4702SOL    HW318541   4.611   3.718   2.417 -0.3833 -0.5188 -0.9120
 4702SOL    MW418542   4.683   3.746   2.376  0.2365 -0.3072 -0.6836
 4703SOL     OW18543   3.650   5.623   0.590  0.1749 -0.2560  0.0314
 4703SOL    HW218544   3.622   5.608   0.680  0.7085 -0.4949  0.1560
 4703SOL    HW318545   3.723   5.563   0.576 -0.2072 -0.5628 -0.7140
 4703SOL    MW418546   3.656   5.613   0.600  0.4182 -0.2339 -0.9260
 4704SOL     OW18547   4.334   1.245   1.320  0.1405 -0.9995  0.1905
 4704SOL    HW218548   4.410   1.224   1.266  1.3408 -2.1258  2.1990
 4704SOL    HW318549   4.352   1.333   1.354 -0.5912 -0.3114 -1.1012
 4704SOL    MW418550   4.346   1.254   1.318  0.3195 -0.0362  0.3647
 4705SOL     OW18551   4.667   4.100   2.897 -0.1983 -0.4846  0.6535
 4705SOL    HW218552   4.666   4.194   2.880 -1.4771 -0.6041 -0.0169
 4705SOL    HW318553   4.575   4.077   2.908  0.0279 -1.8301 -0.1545
 4705SOL    MW418554   4.655   4.110   2.896  0.2968  0.3286  0.2711
 4706SOL     OW18555   4.789   1.131   2.785  0.2416  0.1131  0.4431
 4706SOL    HW218556   4.771   1.064   2.719 -0.9344  1.6698 -0.9154
 4706SOL    HW318557   4.884   1.141   2.785  0.3805 -1.1447  0.2583
 4706SOL    MW418558   4.799   1.124   2.776  0.0898 -0.1914  0.4482
 4707SOL     OW18559   1.094   1.113   5.265 -0.0524 -0.5706 -0.0534
 4707SOL    HW218560   1.111   1.045   5.331 -0.7075 -0.2823  0.4216
 4707SOL    HW318561   1.144   1.084   5.188  1.1208 -0.6517  0.7194
 4707SOL    MW418562   1.102   1.100   5.263 -0.5331  0.6749 -0.3787
 4708SOL     OW18563   0.296   2.178   3.626 -0.3056  0.1076 -0.2532
 4708SOL    HW218564   0.278   2.269   3.651  0.3373 -0.2582  1.7363
 4708SOL    HW318565   0.345   2.142   3.700  2.4334 -0.9260 -2.3469
 4708SOL    MW418566   0.300   2.186   3.639 -0.1194 -0.3262  0.0209
 4709SOL     OW18567   1.517   4.420   1.054  0.3360  0.2190 -0.1931
 4709SOL    HW218568   1.562   4.389   0.975 -0.4994  1.7431 -1.3282
 4709SOL    HW318569   1.560   4.502   1.077  0.4599 -0.1241  0.8565
 4709SOL    MW418570   1.528   4.426   1.047 -0.6125 -0.1688 -0.1965
 4710SOL     OW18571   3.028   6.158   0.201 -0.1564 -0.3214 -0.5070
 4710SOL    HW218572   2.948   6.163   0.148 -0.9479 -0.9165  0.5997
 4710SOL    HW318573   3.037   6.066   0.223 -0.6875  0.0798  1.6225
 4710SOL    MW418574   3.019   6.147   0.197  0.0665  0.0294 -0.0751
 4711SOL     OW18575   5.634   5.556   1.028  0.7552  0.2477 -0.3112
 4711SOL    HW218576   5.677   5.499   1.092 -0.6892  0.9397  1.3650
 4711SOL    HW318577   5.689   5.633   1.024  0.6184  0.3950  0.4855
 4711SOL    MW418578   5.647   5.558   1.036  0.7620  0.1007 -0.2629
 4712SOL     OW18579   5.473   0.191   3.559  0.0286 -0.9773 -0.1282
 4712SOL    HW218580   5.527   0.256   3.604  1.4982  0.4886 -3.5847
 4712SOL    HW318581   5.529   0.160   3.487 -2.6312 -1.7701 -1.9986
 4712SOL    MW418582   5.488   0.195   3.555  0.2355  0.5097  0.0068
 4713SOL     OW18583   4.350   0.147   5.765  0.6168 -0.0548 -0.4983
 4713SOL    HW218584   4.257   0.163   5.753  0.6830 -0.1322 -1.1401
 4713SOL    HW318585   4.380   0.113   5.681  1.7126  2.3125 -1.1606
 4713SOL    MW418586   4.342   0.145   5.752  0.4333 -0.0757 -0.4013
 4714SOL     OW18587   2.249   6.222   1.190  0.4856 -0.2857  0.4996
 4714SOL    HW218588   2.163   6.178   1.193  0.3096  0.0689  0.6412
 4714SOL    HW318589   2.263   6.253   1.279  0.9546 -0.7039  0.5745
 4714SOL    MW418590   2.239   6.220   1.202  0.3497  0.0669  0.3048
 4715SOL     OW18591   5.072   5.212   3.021 -0.3588  0.1456  0.2903
 4715SOL    HW218592   5.053   5.205   2.927  0.6589 -1.1506  0.1520
 4715SOL    HW318593   5.083   5.121   3.050  2.1401  0.5957  1.0267
 4715SOL    MW418594   5.071   5.199   3.012  0.1729  0.0686 -0.3017
 4716SOL     OW18595   6.240   4.353   0.310 -0.6307  0.5521  0.1993
 4716SOL    HW218596   6.264   4.390   0.225 -1.1032  0.4341  0.0090
 4716SOL    HW318597   6.260   4.422   0.373  2.7995 -0.4492  0.4229
 4716SOL    MW418598   6.246   4.367   0.307 -0.5021  0.2187  0.2958
 4717SOL     OW18599   1.622   2.141   2.061  0.1549 -0.3245  0.0993
 4717SOL    HW218600   1.607   2.047   2.051  1.3783 -0.5205  0.0390
 4717SOL    HW318601   1.574   2.180   1.988 -3.5008 -0.5291  2.1170
 4717SOL    MW418602   1.613   2.134   2.050  0.3675  0.5653 -0.1193
 4718SOL     OW18603   0.518   3.400   1.838 -0.4228  0.0907 -0.0728
 4718SOL    HW218604   0.533   3.348   1.759 -0.3498  0.4571 -0.3023
 4718SOL    HW318605   0.480   3.482   1.806 -1.3537 -0.1594  0.3614
 4718SOL    MW418606   0.515   3.404   1.823 -0.0205 -1.0863 -0.1881
 4719SOL     OW18607   5.817   1.506   3.636 -0.1012  0.1169 -0.4699
 4719SOL    HW218608   5.857   1.554   3.709  1.5067  0.0481 -1.2502
 4719SOL    HW318609   5.741   1.559   3.612  0.8828  1.6123 -0.4614
 4719SOL    MW418610   5.813   1.520   3.643 -0.1424  0.4191 -0.0512
 4720SOL     OW18611   2.955   5.815   2.761  0.2808  0.5379 -0.3133
 4720SOL    HW218612   2.963   5.736   2.814 -1.0590  0.1923 -0.5908
 4720SOL    HW318613   2.928   5.883   2.823 -0.3118  0.3588 -0.3645
 4720SOL    MW418614   2.952   5.813   2.776  0.1635 -0.1298  0.3849
 4721SOL     OW18615   6.297   1.787   4.027 -0.3805 -0.1779  0.0982
 4721SOL    HW218616   6.286   1.860   4.088  2.6050  0.3528  0.1308
 4721SOL    HW318617   6.388   1.760   4.037 -0.3701 -1.4809 -2.5700
 4721SOL    MW418618   6.307   1.793   4.036  0.4093  1.4172  0.2969
 4722SOL     OW18619   2.737   2.461   3.691 -0.0038 -0.1084  0.5748
 4722SOL    HW218620   2.673   2.390   3.692  0.5159 -0.5871  0.1554
 4722SOL    HW318621   2.818   2.422   3.722  0.4719  0.1119 -0.3328
 4722SOL    MW418622   2.739   2.447   3.695 -0.0880  0.4045 -0.0980
 4723SOL     OW18623   1.797   5.152   0.043 -0.0546 -0.4337  0.4517
 4723SOL    HW218624   1.723   5.105   0.005 -1.8753  1.9700  0.7310
 4723SOL    HW318625   1.822   5.215  -0.025 -0.4281  0.9174  1.5267
 4723SOL    MW418626   1.790   5.154   0.029  0.2755 -0.2404  0.0360
 4724SOL     OW18627   4.614   2.730   1.200  0.6994 -0.2914  0.3404
 4724SOL    HW218628   4.710   2.736   1.198  0.7926 -1.6293  0.2402
 4724SOL    HW318629   4.593   2.713   1.292  0.6040 -0.6810  0.2462
 4724SOL    MW418630   4.624   2.729   1.212 -0.3250 -0.1073 -0.2767
 4725SOL     OW18631   4.608   6.115   0.312  0.7257 -0.2723  0.4503
 4725SOL    HW218632   4.635   6.036   0.266 -0.9391 -0.0674 -0.9884
 4725SOL    HW318633   4.675   6.129   0.379  0.3036 -3.7494  1.7986
 4725SOL    MW418634   4.620   6.106   0.315  0.0861  0.1411 -0.7170
 4726SOL     OW18635   3.811   6.164   0.157 -0.3330 -0.1333  0.1705
 4726SOL    HW218636   3.840   6.108   0.228  0.3660 -1.2591 -0.9641
 4726SOL    HW318637   3.758   6.107   0.101 -1.0442  0.7756 -0.1122
 4726SOL    MW418638   3.808   6.149   0.159  0.0999  0.2799 -0.3081
 4727SOL     OW18639   2.954   3.980   5.984 -0.3816  0.4855  0.1432
 4727SOL    HW218640   2.918   3.895   5.960 -1.4020  0.8631  0.3091
 4727SOL    HW318641   2.971   4.024   5.901 -0.5880  0.4279  0.0719
 4727SOL    MW418642   2.952   3.974   5.970  0.4628 -0.4277 -0.5762
 4728SOL     OW18643   3.662   0.071   3.712 -0.5539 -0.2267  0.3369
 4728SOL    HW218644   3.663  -0.006   3.769 -1.8037 -1.0737 -0.7451
 4728SOL    HW318645   3.638   0.143   3.771  0.3551 -0.6980  1.3078
 4728SOL    MW418646   3.659   0.071   3.727 -0.0408 -0.5468 -0.3959
 4729SOL     OW18647   1.821   1.897   5.556 -0.2202  0.5837  0.4494
 4729SOL    HW218648   1.894   1.835   5.557 -0.0343  0.8016  0.3717
 4729SOL    HW318649   1.843   1.960   5.488 -0.1546  1.0387  0.8818
 4729SOL    MW418650   1.834   1.897   5.547  0.1617 -0.0491 -0.0779
 4730SOL     OW18651   1.587   4.455   3.584  0.3111 -0.0421 -0.3099
 4730SOL    HW218652   1.565   4.430   3.494 -1.0188  0.7662 -0.2274
 4730SOL    HW318653   1.569   4.548   3.589 -0.9455 -0.3234  1.1585
 4730SOL    MW418654   1.582   4.464   3.573 -0.2361  0.6869 -0.1243
 4731SOL     OW18655   5.452   6.426   0.816 -0.4419  0.4248  0.1009
 4731SOL    HW218656   5.513   6.489   0.776 -0.6546 -0.7923 -2.3314
 4731SOL    HW318657   5.398   6.479   0.875 -0.2813  2.4498 -1.4762
 4731SOL    MW418658   5.453   6.442   0.819  0.3230 -0.2841 -0.3897
 4732SOL     OW18659   5.506   1.664   4.830 -0.4797 -0.1076  0.5842
 4732SOL    HW218660   5.542   1.628   4.749 -0.4863  0.5043  0.2965
 4732SOL    HW318661   5.574   1.650   4.895  1.0980  2.5386 -0.3118
 4732SOL    MW418662   5.520   1.658   4.828  0.0797 -0.5788 -0.3428
 4733SOL     OW18663   0.412   1.358   2.815 -0.1472  0.9139  0.0081
 4733SOL    HW218664   0.329   1.321   2.846  0.1342 -0.6886 -1.0323
 4733SOL    HW318665   0.468   1.357   2.893 -0.5246  0.2274  0.2832
 4733SOL    MW418666   0.408   1.353   2.830  0.4688 -0.4746 -0.5131
 4734SOL     OW18667   3.874   2.432   2.525 -0.1505 -0.6707  0.0168
 4734SOL    HW218668   3.874   2.340   2.498 -1.0583 -1.2131  1.7150
 4734SOL    HW318669   3.927   2.477   2.459 -1.5730 -2.0029 -2.1370
 4734SOL    MW418670   3.881   2.426   2.513 -0.4763  0.0107  0.7123
 4735SOL     OW18671   0.827   5.632   3.549 -0.1180  0.2400  0.2823
 4735SOL    HW218672   0.848   5.633   3.642  0.1527  0.7336  0.2158
 4735SOL    HW318673   0.846   5.720   3.518  1.2124 -0.2962 -0.5511
 4735SOL    MW418674   0.832   5.644   3.557 -0.4369 -0.8657 -0.1750
 4736SOL     OW18675   2.694   3.987   3.194  0.1757  0.4684 -0.2046
 4736SOL    HW218676   2.688   3.980   3.098 -1.5890  0.5382 -0.1455
 4736SOL    HW318677   2.604   3.973   3.224  1.0716 -2.2123  1.6404
 4736SOL    MW418678   2.681   3.984   3.185 -0.4318 -0.1730  0.3126
 4737SOL     OW18679   0.564   0.779   3.523 -0.2036 -0.4491  0.3869
 4737SOL    HW218680   0.618   0.837   3.470 -0.1710 -1.0139 -0.2129
 4737SOL    HW318681   0.503   0.739   3.460 -0.5396 -0.6970  0.8625
 4737SOL    MW418682   0.563   0.781   3.507 -0.7067 -0.4107  0.3138
 4738SOL     OW18683   0.955   4.701   4.293 -0.0701  0.3866 -0.3745
 4738SOL    HW218684   0.957   4.607   4.274 -0.5650  0.2252  0.3203
 4738SOL    HW318685   1.035   4.736   4.253 -0.4361 -0.1304 -1.6273
 4738SOL    MW418686   0.966   4.693   4.285 -0.1546 -0.0594  0.2293
 4739SOL     OW18687   5.039   1.132   6.191 -0.3818  0.1722 -0.5320
 4739SOL    HW218688   5.093   1.067   6.235 -0.9753  0.8245  1.2271
 4739SOL    HW318689   5.088   1.155   6.112  2.7733  1.9197  1.7103
 4739SOL    MW418690   5.052   1.126   6.186  0.1358  0.4639 -0.1382
 4740SOL     OW18691   0.255   0.810   2.619 -0.4114  0.3809 -0.4577
 4740SOL    HW218692   0.304   0.888   2.645  1.5888 -1.0716  0.3584
 4740SOL    HW318693   0.319   0.756   2.573 -0.6804 -2.3472  2.0884
 4740SOL    MW418694   0.270   0.813   2.616 -0.1349 -0.2153  0.4427
 4741SOL     OW18695   1.054   3.652   6.137 -0.1943 -0.2531 -0.0330
 4741SOL    HW218696   1.072   3.671   6.229 -0.7081 -0.0634  0.0282
 4741SOL    HW318697   1.052   3.737   6.094  1.8821 -0.4273 -0.5735
 4741SOL    MW418698   1.056   3.665   6.143  0.3254 -0.2442  0.0016
 4742SOL     OW18699   4.209   1.462   3.832 -0.5332  0.0006 -0.1773
 4742SOL    HW218700   4.197   1.367   3.844  0.7726  0.0037  1.5191
 4742SOL    HW318701   4.135   1.488   3.777 -0.5727 -2.1020 -1.2510
 4742SOL    MW418702   4.198   1.453   3.826  0.1024  0.3159  0.3153
 4743SOL     OW18703   2.188   5.209   5.113 -0.3135  0.5169 -0.6485
 4743SOL    HW218704   2.259   5.163   5.156 -0.3547  0.4446 -0.6570
 4743SOL    HW318705   2.134   5.139   5.075 -1.0241  0.5106  0.3442
 4743SOL    MW418706   2.190   5.194   5.113  0.2023 -0.4715 -0.6627
 4744SOL     OW18707   2.704   3.734   5.255 -0.2899  0.3890  0.4534
 4744SOL    HW218708   2.696   3.639   5.265 -2.0565  0.5265  0.6518
 4744SOL    HW318709   2.675   3.770   5.339  0.5795  1.1094  0.4567
 4744SOL    MW418710   2.699   3.726   5.267  0.4802 -1.0299 -0.5241
 4745SOL     OW18711   2.798   4.926   2.170  0.2075 -0.5009 -0.6037
 4745SOL    HW218712   2.769   4.850   2.120 -1.2430 -0.7286  0.4842
 4745SOL    HW318713   2.719   4.954   2.218  1.1310  0.6454  0.3189
 4745SOL    MW418714   2.783   4.919   2.170  0.7241  0.3231 -0.3466
 4746SOL     OW18715   5.519   5.911   5.025 -0.2834  0.0006 -0.1087
 4746SOL    HW218716   5.532   6.004   5.046  0.5886 -0.1225 -0.0636
 4746SOL    HW318717   5.495   5.871   5.108 -1.9022  0.3830 -0.3562
 4746SOL    MW418718   5.518   5.918   5.038  0.0696 -0.1850  0.2842
 4747SOL     OW18719   6.348   5.533   4.782 -0.1278 -0.9038  0.0352
 4747SOL    HW218720   6.322   5.450   4.823  0.3323 -1.6119 -1.0472
 4747SOL    HW318721   6.391   5.506   4.701  1.4381  0.3335  0.4147
 4747SOL    MW418722   6.350   5.518   4.777  0.2438 -0.0174 -0.1005
 4748SOL     OW18723   4.731   2.567   2.773  0.0752  0.0893 -0.1933
 4748SOL    HW218724   4.738   2.610   2.688  1.7577 -0.3259 -0.2866
 4748SOL    HW318725   4.648   2.519   2.768  0.3352 -0.2663 -1.7779
 4748SOL    MW418726   4.721   2.566   2.761 -0.0908 -0.0173 -0.3568
 4749SOL     OW18727   5.220   0.554   5.107  0.0965 -0.5570 -0.1069
 4749SOL    HW218728   5.227   0.461   5.086 -0.9188 -0.5567 -0.4873
 4749SOL    HW318729   5.221   0.556   5.203 -1.1512 -1.0964 -0.0547
 4749SOL    MW418730   5.221   0.542   5.117  0.2459 -0.0629 -0.6408
 4750SOL     OW18731   0.019   0.744   0.650 -0.3421  0.0338  0.0712
 4750SOL    HW218732   0.013   0.836   0.626 -0.6556 -0.5017 -2.0635
 4750SOL    HW318733   0.107   0.734   0.686  1.1327  0.4923 -3.0580
 4750SOL    MW418734   0.029   0.755   0.652 -0.2393 -0.0698  0.5183
 4751SOL     OW18735   5.592   5.023   0.944 -0.0378 -0.3637 -0.5158
 4751SOL    HW218736   5.605   4.933   0.975  1.2112 -0.0857 -0.1744
 4751SOL    HW318737   5.530   5.015   0.872 -1.1126 -1.3157  0.4780
 4751SOL    MW418738   5.585   5.010   0.938 -0.3360 -0.1509  0.8716
 4752SOL     OW18739   2.252   5.917   1.059  0.0676 -0.0068 -0.5639
 4752SOL    HW218740   2.220   5.919   1.150 -1.1307 -0.2343 -0.9528
 4752SOL    HW318741   2.173   5.928   1.006  0.9113  1.5075 -1.5765
 4752SOL    MW418742   2.237   5.919   1.064  0.0813  0.2385  0.3833
 4753SOL     OW18743   1.835   4.575   4.332 -0.0135  0.2588  0.5535
 4753SOL    HW218744   1.919   4.615   4.309  0.1884 -0.7030 -0.4519
 4753SOL    HW318745   1.844   4.553   4.425  1.3648 -1.0148  0.1559
 4753SOL    MW418746   1.848   4.577   4.342 -0.0651 -0.4352  0.3265
 4754SOL     OW18747   5.811   4.029   1.012  0.3977 -0.2579  0.2017
 4754SOL    HW218748   5.899   4.026   1.050  0.7780  0.0417 -0.6154
 4754SOL    HW318749   5.771   4.108   1.048  0.4241 -0.4504  0.6561
 4754SOL    MW418750   5.817   4.039   1.022  0.0049 -0.5295 -0.9245
 4755SOL     OW18751   4.618   3.569   3.147 -0.0299 -0.6983  0.3999
 4755SOL    HW218752   4.562   3.647   3.153 -0.8253 -1.0347 -1.5786
 4755SOL    HW318753   4.562   3.497   3.175 -0.1749 -0.8591 -0.2691
 4755SOL    MW418754   4.603   3.570   3.151  0.5549  0.3284  0.1092
 4756SOL     OW18755   1.606   3.214   0.389 -0.2068 -0.5799 -0.2866
 4756SOL    HW218756   1.528   3.266   0.407  0.1860 -0.2063  0.3792
 4756SOL    HW318757   1.645   3.199   0.475  0.7078 -0.3692 -0.6608
 4756SOL    MW418758   1.601   3.219   0.403 -0.3155 -0.3481  0.4157
 4757SOL     OW18759   0.228   0.693   3.023  0.2579  0.4033 -0.1918
 4757SOL    HW218760   0.179   0.660   3.099  0.6198  0.5509  0.1133
 4757SOL    HW318761   0.266   0.615   2.983  2.3556  0.5234  1.3955
 4757SOL    MW418762   0.227   0.678   3.028 -0.6891  0.7420 -0.7044
 4758SOL     OW18763   0.548   0.797   5.722  0.4606  0.3465 -0.3800
 4758SOL    HW218764   0.600   0.781   5.643  0.6730 -0.4947 -0.0772
 4758SOL    HW318765   0.458   0.778   5.696  0.4611  0.5807 -0.5582
 4758SOL    MW418766   0.543   0.793   5.708 -0.2008  0.0267 -0.3699
 4759SOL     OW18767   1.183   6.408   4.268 -0.5038 -0.2079  0.3909
 4759SOL    HW218768   1.225   6.480   4.316 -1.2516  0.3716  0.2016
 4759SOL    HW318769   1.214   6.329   4.311  0.4626  0.2165  0.5118
 4759SOL    MW418770   1.193   6.407   4.280 -0.3639  0.3136  0.1088
 4760SOL     OW18771   0.036   0.170   4.784  0.0687 -0.4694 -0.3689
 4760SOL    HW218772   0.090   0.214   4.717  1.9565 -1.6266  0.3002
 4760SOL    HW318773   0.037   0.230   4.858 -0.4135 -0.0487 -0.6936
 4760SOL    MW418774   0.044   0.184   4.785 -0.1570 -0.3767 -0.1040
 4761SOL     OW18775   3.794   0.889   3.882  0.5729  0.7381 -0.0186
 4761SOL    HW218776   3.886   0.893   3.907  0.4643 -1.1793  0.8520
 4761SOL    HW318777   3.795   0.853   3.794  0.6355 -0.7909  0.5754
 4761SOL    MW418778   3.806   0.885   3.874 -0.2191 -0.8824  0.0578
 4762SOL     OW18779   5.887   1.799   3.072  0.2149  0.0537  0.4034
 4762SOL    HW218780   5.817   1.734   3.078  0.2521 -0.0498 -0.1771
 4762SOL    HW318781   5.843   1.880   3.047 -0.0204  0.6211  2.5077
 4762SOL    MW418782   5.872   1.801   3.070  0.1313 -0.4068  0.0032
 4763SOL     OW18783   6.329   0.289   4.382  0.7177 -0.1007 -0.1311
 4763SOL    HW218784   6.266   0.290   4.309  0.2450 -1.4845  0.2306
 4763SOL    HW318785   6.387   0.215   4.362 -0.0061 -1.1206  1.3510
 4763SOL    MW418786   6.328   0.279   4.369 -0.3466 -0.4942  0.0273
 4764SOL     OW18787   5.944   4.662   1.861 -0.9736  0.5262  0.2419
 4764SOL    HW218788   5.939   4.725   1.788  0.5945 -0.8772 -1.1529
 4764SOL    HW318789   5.870   4.603   1.846  0.1224 -0.5734 -1.0733
 4764SOL    MW418790   5.933   4.662   1.849 -0.2923 -0.6137 -0.7950
 4765SOL     OW18791   1.970   1.012   3.196  0.0961  0.0088 -0.1699
 4765SOL    HW218792   2.038   1.043   3.136 -0.6265  0.7826 -0.6174
 4765SOL    HW318793   1.894   0.996   3.140 -0.8435  1.4861  0.5896
 4765SOL    MW418794   1.969   1.014   3.181 -0.3217 -0.2213 -0.2613
 4766SOL     OW18795   5.022   1.049   2.502  0.3415 -0.0530  0.1546
 4766SOL    HW218796   5.039   1.142   2.489 -0.5345  0.0473 -0.3953
 4766SOL    HW318797   5.082   1.005   2.442  1.2964  0.1084  0.9655
 4766SOL    MW418798   5.032   1.055   2.492  0.3645 -0.4888 -0.2120
 4767SOL     OW18799   1.006   6.260   4.924 -0.3390 -0.1213 -0.5868
 4767SOL    HW218800   0.968   6.175   4.902 -0.6242  0.2525 -1.5565
 4767SOL    HW318801   0.981   6.274   5.016 -0.5546 -0.9417 -0.5166
 4767SOL    MW418802   0.997   6.251   4.934  0.0192 -0.6332  0.1210
 4768SOL     OW18803   0.672   4.914   0.604  0.1075 -0.0428  0.4977
 4768SOL    HW218804   0.665   4.849   0.534  1.4770  0.6873 -0.3648
 4768SOL    HW318805   0.713   4.990   0.562  0.0496  0.7741  1.8672
 4768SOL    MW418806   0.677   4.915   0.589  0.6652  0.5758 -0.5755
 4769SOL     OW18807   2.706   2.681   3.134 -0.0560  0.3158  0.7575
 4769SOL    HW218808   2.621   2.711   3.165 -0.5413  0.2548 -0.4692
 4769SOL    HW318809   2.690   2.591   3.103 -0.0668  1.0305 -1.4576
 4769SOL    MW418810   2.693   2.673   3.134  0.1109 -0.4618  0.0645
 4770SOL     OW18811   2.462   3.696   3.018  0.3738  1.0562  0.0081
 4770SOL    HW218812   2.508   3.760   2.964  0.5702  0.8891 -0.0224
 4770SOL    HW318813   2.529   3.664   3.079  0.2407  0.9841  0.1170
 4770SOL    MW418814   2.477   3.700   3.019 -0.3143  0.3285 -0.4358
 4771SOL     OW18815   6.220   2.152   0.697 -0.1163 -0.2736  0.4455
 4771SOL    HW218816   6.255   2.068   0.667  0.8208  0.7871 -1.5290
 4771SOL    HW318817   6.134   2.159   0.654 -0.3891 -0.4025  0.9590
 4771SOL    MW418818   6.213   2.142   0.688  0.3861  0.3100  0.3412
 4772SOL     OW18819   0.497   1.710   0.846 -0.9341 -0.2375 -0.4807
 4772SOL    HW218820   0.519   1.656   0.770 -3.2461 -3.1747  0.6991
 4772SOL    HW318821   0.463   1.791   0.809  1.0707 -0.2065 -2.4251
 4772SOL    MW418822   0.495   1.713   0.831 -0.5074  0.9747 -0.2809
 4773SOL     OW18823   2.977   2.335   3.767 -0.1587  0.0823  0.4278
 4773SOL    HW218824   3.050   2.288   3.727 -1.4174 -0.4939 -1.3116
 4773SOL    HW318825   3.009   2.425   3.777  0.8610 -0.2059 -0.0964
 4773SOL    MW418826   2.991   2.341   3.763  0.0404  0.0792 -0.5155
 4774SOL     OW18827   4.231   2.262   0.867 -0.0682 -0.2750  0.0671
 4774SOL    HW218828   4.236   2.327   0.796 -1.1038 -0.2800 -0.0142
 4774SOL    HW318829   4.149   2.280   0.911  0.0868 -0.9352  0.6396
 4774SOL    MW418830   4.221   2.273   0.863  0.8881  0.2452  0.3003
 4775SOL     OW18831   5.909   3.133   2.033  0.3056  0.5447  0.6385
 4775SOL    HW218832   5.833   3.081   2.060  0.6426  0.2366  1.0137
 4775SOL    HW318833   5.872   3.215   2.002 -0.7871 -1.5038 -4.5832
 4775SOL    MW418834   5.894   3.137   2.032 -0.3746 -0.2916  0.0792
 4776SOL     OW18835   4.435   0.420   4.031  0.0047  0.0665  0.6445
 4776SOL    HW218836   4.360   0.414   4.091 -0.2151 -0.0102  0.3623
 4776SOL    HW318837   4.511   0.410   4.088 -0.2232 -2.0565  0.6788
 4776SOL    MW418838   4.435   0.418   4.047 -0.1664 -0.1151 -0.0982
 4777SOL     OW18839   5.147   2.872   0.357  0.0569 -0.1093  0.6253
 4777SOL    HW218840   5.188   2.795   0.318  1.1009  1.2424 -1.1096
 4777SOL    HW318841   5.053   2.852   0.357  0.2427 -1.0964 -0.5127
 4777SOL    MW418842   5.140   2.860   0.352 -0.3373  0.5259  0.3071
 4778SOL     OW18843   4.210   3.036   1.620  1.0330 -0.4457 -0.3491
 4778SOL    HW218844   4.133   2.989   1.587 -1.1100  0.2383  3.1665
 4778SOL    HW318845   4.182   3.128   1.621  1.0909 -0.3757  2.6973
 4778SOL    MW418846   4.196   3.042   1.616 -0.4884  0.4151 -0.1776
 4779SOL     OW18847   3.124   4.634   1.875 -0.1253  0.1042 -0.2033
 4779SOL    HW218848   3.117   4.538   1.877 -0.3563  0.1123  2.2769
 4779SOL    HW318849   3.160   4.653   1.788 -1.4967 -2.0962 -1.3576
 4779SOL    MW418850   3.128   4.624   1.864 -0.3969  0.0344  0.4552
 4780SOL     OW18851   0.203   4.241   5.114  0.0758 -0.1084  0.0832
 4780SOL    HW218852   0.118   4.197   5.112  0.0061 -0.3693  3.0616
 4780SOL    HW318853   0.186   4.327   5.076 -1.2650 -0.5433 -0.3598
 4780SOL    MW418854   0.189   4.247   5.109  0.6138 -0.3353 -0.0657
 4781SOL     OW18855   2.089   5.204   5.950  0.0149 -0.5765  0.4693
 4781SOL    HW218856   2.123   5.180   6.036  0.0009 -1.8713  0.1381
 4781SOL    HW318857   2.126   5.138   5.890  0.4225  0.5858 -0.6063
 4781SOL    MW418858   2.099   5.192   5.953  0.0645 -0.3957 -0.3949
 4782SOL     OW18859   4.396   4.569   4.843 -0.6229 -0.2638 -0.0209
 4782SOL    HW218860   4.458   4.615   4.901  0.2778 -1.3475 -0.0865
 4782SOL    HW318861   4.449   4.541   4.769 -1.3380 -0.6842 -0.3836
 4782SOL    MW418862   4.411   4.572   4.841 -0.2858  0.1083  0.3134
 4783SOL     OW18863   1.777   4.746   6.105 -0.0246  0.3088  0.2579
 4783SOL    HW218864   1.803   4.817   6.047  0.4412 -0.9621 -1.1480
 4783SOL    HW318865   1.683   4.734   6.087 -0.0041  0.2787  0.1713
 4783SOL    MW418866   1.768   4.754   6.095 -0.1529  0.4299  0.1175
 4784SOL     OW18867   6.393   1.423   0.306  0.1769  0.3327 -0.3219
 4784SOL    HW218868   6.399   1.478   0.227  0.0528 -0.2033 -0.7092
 4784SOL    HW318869   6.471   1.368   0.302  0.0617  0.1593 -0.1771
 4784SOL    MW418870   6.404   1.423   0.295 -0.0888 -0.5487 -0.0769
 4785SOL     OW18871   0.478   4.035   3.548 -0.8314  0.2890  0.4483
 4785SOL    HW218872   0.397   3.990   3.524 -0.6629 -0.8550  1.8628
 4785SOL    HW318873   0.458   4.127   3.537 -1.3245 -0.0486 -2.1648
 4785SOL    MW418874   0.465   4.041   3.544 -0.1714 -0.1442 -0.0218
 4786SOL     OW18875   1.276   1.320   3.682  0.0658  0.2640  0.0062
 4786SOL    HW218876   1.313   1.287   3.765 -0.5173 -1.8478 -0.5283
 4786SOL    HW318877   1.185   1.340   3.703  0.5861  2.3803  0.5076
 4786SOL    MW418878   1.269   1.318   3.696  0.0169 -0.0492  0.0729
 4787SOL     OW18879   1.769   2.140   3.719  0.0166  0.2676 -0.1145
 4787SOL    HW218880   1.747   2.049   3.699  1.0318  0.0233 -0.1596
 4787SOL    HW318881   1.698   2.191   3.679 -0.1406 -0.4533 -0.7787
 4787SOL    MW418882   1.756   2.134   3.711  0.6571 -0.2658 -0.1474
 4788SOL     OW18883   0.030   1.732   1.893 -0.0637  0.3658  0.1498
 4788SOL    HW218884   0.054   1.753   1.983  1.0074 -0.2046  0.0141
 4788SOL    HW318885   0.078   1.651   1.873 -1.2210 -0.1837 -0.5390
 4788SOL    MW418886   0.040   1.724   1.902  0.3763  0.1271 -0.3418
 4789SOL     OW18887   3.061   3.818   4.725  0.3364  0.7782 -0.1577
 4789SOL    HW218888   3.020   3.855   4.646 -0.5653 -1.4184 -0.8042
 4789SOL    HW318889   2.987   3.799   4.783  0.6219 -0.8479 -0.2759
 4789SOL    MW418890   3.045   3.820   4.722 -0.3007 -0.7508 -0.1550
 4790SOL     OW18891   1.653   1.173   3.974  0.5375 -0.3115  0.3681
 4790SOL    HW218892   1.695   1.246   4.020  0.1218  1.1117 -1.4103
 4790SOL    HW318893   1.724   1.131   3.927  0.2422  1.6626 -2.0671
 4790SOL    MW418894   1.668   1.177   3.974  0.2783  0.1421 -0.1712
 4791SOL     OW18895   0.089   1.741   2.990 -0.2025 -0.1318  0.0033
 4791SOL    HW218896   0.017   1.689   2.954 -0.2928 -0.2142  0.2963
 4791SOL    HW318897   0.091   1.820   2.936  0.9773 -1.1319 -1.5075
 4791SOL    MW418898   0.080   1.745   2.978 -0.5054  0.1388  0.3117
 4792SOL     OW18899   4.298   2.870   5.598  0.5803 -0.3796 -0.1289
 4792SOL    HW218900   4.270   2.924   5.523 -0.4619  0.8672  1.1034
 4792SOL    HW318901   4.251   2.788   5.586  0.2696 -0.1234 -0.7464
 4792SOL    MW418902   4.288   2.866   5.586  0.2539  0.4541  0.0382
 4793SOL     OW18903   5.559   1.339   2.724 -0.0192 -0.2303 -0.2909
 4793SOL    HW218904   5.650   1.311   2.717  0.4760  1.1307  0.3826
 4793SOL    HW318905   5.549   1.404   2.654 -0.3030  0.0443  0.0037
 4793SOL    MW418906   5.570   1.344   2.714  0.1556 -0.0845 -0.4365
 4794SOL     OW18907   4.487   4.127   6.002  0.1087  0.2087  0.1476
 4794SOL    HW218908   4.475   4.105   5.909  2.4603  0.9617 -0.3885
 4794SOL    HW318909   4.549   4.200   6.002  0.3104  0.1052  2.3442
 4794SOL    MW418910   4.493   4.134   5.990  0.2269  0.3568  0.2762
 4795SOL     OW18911   4.212   4.200   3.850 -0.3380 -0.0415  0.3292
 4795SOL    HW218912   4.228   4.294   3.842 -2.6323  0.3609 -0.2580
 4795SOL    HW318913   4.223   4.182   3.943  1.3826  0.5135  0.2642
 4795SOL    MW418914   4.215   4.210   3.861 -0.0835  0.3342 -0.2501
 4796SOL     OW18915   2.972   4.094   0.906 -0.6490  1.1494 -0.1987
 4796SOL    HW218916   2.955   4.021   0.965  1.1728  1.4917  0.7983
 4796SOL    HW318917   2.962   4.056   0.818 -1.8286  0.2514  0.2938
 4796SOL    MW418918   2.968   4.079   0.902  0.3078 -0.1196  0.1906
 4797SOL     OW18919   3.236   5.823   5.642  0.3228  0.2758 -0.1484
 4797SOL    HW218920   3.244   5.918   5.630  0.5398  0.4306  1.1317
 4797SOL    HW318921   3.308   5.787   5.589 -0.5005  0.7155 -1.6438
 4797SOL    MW418922   3.247   5.831   5.633 -0.2747 -0.0814  0.0695
 4798SOL     OW18923   6.038   0.268   5.289  0.4717 -0.0014 -0.2922
 4798SOL    HW218924   6.077   0.308   5.210 -0.4000  0.4369 -0.5067
 4798SOL    HW318925   6.017   0.179   5.262 -2.1398  0.8627 -1.3846
 4798SOL    MW418926   6.041   0.261   5.275  0.2765  0.3236  0.1353
 4799SOL     OW18927   5.630   2.427   4.867 -0.2327  0.1942 -0.4924
 4799SOL    HW218928   5.598   2.479   4.941 -2.2588  0.2292 -1.3336
 4799SOL    HW318929   5.584   2.344   4.875  1.1273 -0.5957 -0.5616
 4799SOL    MW418930   5.620   2.423   4.878 -0.5458  0.2034  0.1292
 4800SOL     OW18931   2.055   3.553   2.278 -0.3105 -0.5562  0.3483
 4800SOL    HW218932   2.137   3.514   2.247  0.4690  3.0468 -2.9170
 4800SOL    HW318933   2.081   3.638   2.313 -2.4761 -0.3383  1.5886
 4800SOL    MW418934   2.070   3.559   2.278  0.5471 -0.7118 -0.3194
 4801SOL     OW18935   1.792   4.655   5.305 -0.0683  0.9393  0.6503
 4801SOL    HW218936   1.751   4.605   5.235 -1.3571  0.5539  1.6450
 4801SOL    HW318937   1.811   4.740   5.267 -0.2758  0.5695 -0.3024
 4801SOL    MW418938   1.789   4.660   5.291  0.1254  0.3672 -0.0805
 4802SOL     OW18939   4.561   2.823   2.634  0.3771 -0.4998  0.3384
 4802SOL    HW218940   4.505   2.856   2.563  0.3761 -0.8746  0.1654
 4802SOL    HW318941   4.650   2.830   2.599  0.5129  0.7359  0.8620
 4802SOL    MW418942   4.565   2.829   2.620 -0.1902 -0.3436 -0.0855
 4803SOL     OW18943   3.802   2.006   3.265 -0.2304  0.1651 -0.2243
 4803SOL    HW218944   3.766   1.942   3.326  0.0397  1.1875  1.0463
 4803SOL    HW318945   3.827   1.954   3.188 -1.2282 -1.0476  0.2306
 4803SOL    MW418946   3.801   1.990   3.263  0.4263 -1.2936 -0.3768
 4804SOL     OW18947   2.130   1.409   4.336  0.3246  0.2334  0.1715
 4804SOL    HW218948   2.140   1.380   4.427 -1.2070  0.5169  0.4642
 4804SOL    HW318949   2.202   1.471   4.323  0.5118  0.2706  1.2287
 4804SOL    MW418950   2.141   1.413   4.346 -0.2424  0.3139 -0.2549
 4805SOL     OW18951   4.755   1.213   5.718 -0.1655 -0.3578 -0.1276
 4805SOL    HW218952   4.702   1.160   5.658 -0.9558 -0.3287  0.5410
 4805SOL    HW318953   4.803   1.149   5.770  1.8034 -0.3988 -1.8580
 4805SOL    MW418954   4.754   1.197   5.717 -0.3512  0.3588 -0.2968
 4806SOL     OW18955   6.076   0.005   3.353 -0.3397 -0.1907 -0.0095
 4806SOL    HW218956   6.012   0.075   3.339  0.3338  0.1966 -1.3333
 4806SOL    HW318957   6.069  -0.050   3.276  1.0883  0.0166 -0.3228
 4806SOL    MW418958   6.067   0.007   3.341 -0.2305 -0.2938 -0.1408
 4807SOL     OW18959   0.701   0.983   5.389 -0.0928  0.1937  0.0727
 4807SOL    HW218960   0.643   1.057   5.375  0.6197  0.6467 -0.5583
 4807SOL    HW318961   0.749   0.974   5.306  0.3605 -0.5044  0.4000
 4807SOL    MW418962   0.699   0.991   5.376 -0.0577 -0.3217  0.2030
 4808SOL     OW18963   3.314   5.976   1.879 -0.1107  0.4673  0.2958
 4808SOL    HW218964   3.344   5.917   1.810  0.1627  1.1062 -0.1353
 4808SOL    HW318965   3.380   5.969   1.947 -0.1529  0.1632  0.3051
 4808SOL    MW418966   3.327   5.967   1.879 -0.4376 -0.8146  0.0754
 4809SOL     OW18967   5.715   5.578   1.497 -0.5418  0.2707  0.3703
 4809SOL    HW218968   5.676   5.527   1.425 -0.1851  2.0700 -1.1738
 4809SOL    HW318969   5.655   5.650   1.510 -0.4396  0.1246  1.7049
 4809SOL    MW418970   5.702   5.581   1.489  0.4993 -0.0599  0.0746
 4810SOL     OW18971   4.857   0.760   2.853 -0.4877 -0.1150 -0.1867
 4810SOL    HW218972   4.838   0.819   2.779 -1.3545  1.0770  0.9302
 4810SOL    HW318973   4.770   0.731   2.883 -0.1671 -0.3192  0.5700
 4810SOL    MW418974   4.843   0.764   2.847  0.4666 -0.1563  0.4497
 4811SOL     OW18975   6.089   1.153   3.887  0.2451 -0.2911  0.6334
 4811SOL    HW218976   6.042   1.229   3.922  1.1302  0.1935  0.8012
 4811SOL    HW318977   6.173   1.155   3.932  0.0932 -1.6762  1.0123
 4811SOL    MW418978   6.094   1.163   3.898  0.5786 -0.6483  0.3981
 4812SOL     OW18979   1.625   0.415   3.332  0.0393  0.2267 -0.9277
 4812SOL    HW218980   1.667   0.405   3.417 -2.7277 -0.8463  0.4052
 4812SOL    HW318981   1.661   0.497   3.297  2.4594 -0.1566  0.4661
 4812SOL    MW418982   1.636   0.425   3.338  0.3083  0.2841 -0.2398
 4813SOL     OW18983   5.500   1.586   4.503  0.1437  0.2928 -0.4703
 4813SOL    HW218984   5.450   1.638   4.440 -2.0582 -1.5003 -0.3262
 4813SOL    HW318985   5.572   1.549   4.451  0.5046  1.7065 -1.0381
 4813SOL    MW418986   5.503   1.588   4.488 -0.1979  0.0760  0.0864
 4814SOL     OW18987   0.970   3.930   1.194 -0.2267 -0.0260 -0.0434
 4814SOL    HW218988   0.953   3.959   1.284  3.1727 -0.2929  0.8365
 4814SOL    HW318989   1.033   3.994   1.160 -0.8180 -0.4064 -1.9505
 4814SOL    MW418990   0.976   3.943   1.201 -0.4122  0.1032 -0.0940
 4815SOL     OW18991   2.845   1.455   0.791 -0.7833  0.2945  0.7330
 4815SOL    HW218992   2.937   1.451   0.816 -0.7266  0.9630  0.6419
 4815SOL    HW318993   2.815   1.364   0.798  0.4387 -0.3357 -1.3058
 4815SOL    MW418994   2.853   1.443   0.795 -0.5846 -0.8422 -0.0382
 4816SOL     OW18995   4.240   5.485   4.621  0.0372  0.1456 -0.1000
 4816SOL    HW218996   4.167   5.464   4.680 -0.2968  2.4689  0.4194
 4816SOL    HW318997   4.258   5.578   4.637  2.3958 -0.0816 -1.0376
 4816SOL    MW418998   4.232   5.495   4.631 -0.3129 -0.1019 -0.2122
 4817SOL     OW18999   1.368   1.318   4.206  0.4431  0.4176  0.2921
 4817SOL    HW219000   1.388   1.283   4.119 -1.1643 -0.7900  0.3627
 4817SOL    HW319001   1.356   1.241   4.261 -2.1965  1.0152  0.7018
 4817SOL    MW419002   1.369   1.303   4.201  0.2411  0.2475 -0.0343
 4818SOL     OW19003   3.169   0.295   3.247  0.2835 -0.3922  0.0711
 4818SOL    HW219004   3.252   0.323   3.210  0.1509 -1.4936 -1.1430
 4818SOL    HW319005   3.103   0.323   3.184 -0.3077  0.5866  1.0848
 4818SOL    MW419006   3.171   0.302   3.234 -0.3226  0.6670 -0.3930
 4819SOL     OW19007   2.077   4.158   5.780 -0.3507  0.1932 -0.4987
 4819SOL    HW219008   2.093   4.252   5.785 -0.6568  0.1961  0.5887
 4819SOL    HW319009   2.024   4.147   5.701 -1.1062  1.0530 -0.1250
 4819SOL    MW419010   2.072   4.169   5.770 -0.8821 -0.8942  0.1914
 4820SOL     OW19011   0.844   5.131   2.105  0.2132  0.5323 -0.5302
 4820SOL    HW219012   0.834   5.225   2.120 -1.7866  0.1698  0.8978
 4820SOL    HW319013   0.839   5.093   2.193 -3.4269 -1.1711 -1.2918
 4820SOL    MW419014   0.842   5.139   2.119  0.0138 -0.0305 -0.3246
 4821SOL     OW19015   3.511   2.469   6.123  0.0351  0.3198 -0.5243
 4821SOL    HW219016   3.522   2.467   6.218  0.3414 -0.2392 -0.5653
 4821SOL    HW319017   3.549   2.553   6.096 -0.6563  0.7882 -0.0903
 4821SOL    MW419018   3.517   2.480   6.132  0.2886  0.0685  0.3890
 4822SOL     OW19019   1.355   2.044   1.508  0.3206 -0.2264  0.1772
 4822SOL    HW219020   1.444   2.064   1.537  0.7122  0.0544 -1.1673
 4822SOL    HW319021   1.357   1.950   1.487  0.0825 -0.3893  0.8337
 4822SOL    MW419022   1.367   2.034   1.509 -0.6108  0.2777  0.3547
 4823SOL     OW19023   0.663   4.073   4.768 -0.0778 -0.7344 -0.2152
 4823SOL    HW219024   0.724   4.146   4.762 -0.6888 -0.1852  0.1009
 4823SOL    HW319025   0.680   4.033   4.853 -0.1640 -0.5733 -0.1216
 4823SOL    MW419026   0.673   4.078   4.778 -0.6754 -0.1875 -0.2534
 4824SOL     OW19027   0.880   0.046   1.142 -0.0024 -0.0941  0.1242
 4824SOL    HW219028   0.861  -0.025   1.203 -0.8207  0.8039  0.9712
 4824SOL    HW319029   0.974   0.061   1.150 -0.2132  0.5687  1.8606
 4824SOL    MW419030   0.890   0.039   1.151  0.5475 -0.1640  0.0507
 4825SOL     OW19031   5.152   3.930   5.393 -0.4477  0.0893  0.2569
 4825SOL    HW219032   5.148   3.841   5.427 -1.4678 -0.1911 -0.5551
 4825SOL    HW319033   5.062   3.962   5.397 -0.2264  0.7997 -0.2167
 4825SOL    MW419034   5.140   3.923   5.398 -0.1570  0.2655  0.0248
 4826SOL     OW19035   5.838   5.745   1.978  0.0153  0.2014  0.5788
 4826SOL    HW219036   5.883   5.677   2.027  0.0375  0.4041  0.8402
 4826SOL    HW319037   5.753   5.706   1.955  0.7276 -0.5732 -0.8396
 4826SOL    MW419038   5.832   5.731   1.981  0.2229  0.2834 -0.2039
 4827SOL     OW19039   4.014   2.948   3.627  0.2943  0.1346  0.3020
 4827SOL    HW219040   3.944   3.002   3.591 -0.0399 -0.8139 -0.4958
 4827SOL    HW319041   3.974   2.863   3.642  1.0811 -0.2032  0.5652
 4827SOL    MW419042   4.000   2.944   3.625 -0.1093  0.5400  0.3449
 4828SOL     OW19043   2.504   2.767   2.508 -0.0483 -0.3279 -0.9097
 4828SOL    HW219044   2.501   2.727   2.422 -0.5214 -1.0277 -0.5774
 4828SOL    HW319045   2.414   2.761   2.541  0.4422 -1.5886  0.2926
 4828SOL    MW419046   2.492   2.761   2.501 -0.3822 -0.1250  0.6744
 4829SOL     OW19047   1.278   0.669   2.913  0.1951 -0.8127 -0.1062
 4829SOL    HW219048   1.185   0.666   2.935  0.3677 -0.5990  0.7129
 4829SOL    HW319049   1.287   0.746   2.856 -0.1054 -0.7387 -0.0541
 4829SOL    MW419050   1.267   0.679   2.909  0.2334 -0.1463  0.2858
 4830SOL     OW19051   4.180   5.233   1.113  0.1361  0.1183 -0.1819
 4830SOL    HW219052   4.126   5.310   1.131  0.3872  0.4413 -0.8067
 4830SOL    HW319053   4.209   5.244   1.023  0.6984 -0.3902 -0.0697
 4830SOL    MW419054   4.176   5.244   1.104 -0.1300 -0.2660 -0.0681
 4831SOL     OW19055   2.536   0.365   0.945  0.0937  0.2058 -0.1422
 4831SOL    HW219056   2.567   0.296   1.004  0.6613  1.9546  1.7114
 4831SOL    HW319057   2.441   0.360   0.949  0.1295  0.1870  0.8074
 4831SOL    MW419058   2.528   0.355   0.953  0.2342  0.1446  0.6084
 4832SOL     OW19059   3.134   5.893   0.228 -0.3041  0.6089  0.1187
 4832SOL    HW219060   3.205   5.884   0.291  0.7030  1.4843 -0.8289
 4832SOL    HW319061   3.176   5.930   0.150 -1.7134  0.6697 -0.6531
 4832SOL    MW419062   3.149   5.897   0.226 -0.2329 -0.3124  0.4117
 4833SOL     OW19063   2.706   5.387   5.712 -0.1377  0.1295  0.2526
 4833SOL    HW219064   2.653   5.395   5.633  1.0355  0.5836 -0.5200
 4833SOL    HW319065   2.733   5.476   5.732 -0.1118 -0.0304  0.9443
 4833SOL    MW419066   2.703   5.400   5.704 -0.0029 -0.0556  0.4761
 4834SOL     OW19067   5.418   3.381   6.228  0.2040  0.5264 -0.3368
 4834SOL    HW219068   5.370   3.302   6.256  0.9342 -0.1728 -1.0003
 4834SOL    HW319069   5.356   3.428   6.172 -1.1171  1.7094  1.9514
 4834SOL    MW419070   5.404   3.377   6.224  0.0539  0.0103  0.8845
 4835SOL     OW19071   1.264   0.074   1.645 -0.2678 -0.4007 -0.2044
 4835SOL    HW219072   1.259   0.169   1.656  0.4170 -0.4688  0.8537
 4835SOL    HW319073   1.320   0.044   1.717  0.1181 -1.5287 -0.9476
 4835SOL    MW419074   1.271   0.082   1.656  0.1148  0.0874 -0.0314
 4836SOL     OW19075   4.748   5.572   6.069 -0.5147  0.3811  0.0970
 4836SOL    HW219076   4.826   5.594   6.018 -0.6569  0.0499 -0.2703
 4836SOL    HW319077   4.780   5.512   6.137 -0.3561  0.6801  0.2850
 4836SOL    MW419078   4.763   5.567   6.071 -0.0696  0.8918 -0.2488
 4837SOL     OW19079   2.553   1.964   6.336  0.3329  0.3874  0.2445
 4837SOL    HW219080   2.559   1.993   6.427  0.1039  0.4210  0.2494
 4837SOL    HW319081   2.504   1.882   6.339 -0.5377  0.8822  0.0608
 4837SOL    MW419082   2.547   1.957   6.348 -0.0615  0.2463  0.1583
 4838SOL     OW19083   1.118   5.619   2.156 -0.5368 -0.1995  0.7766
 4838SOL    HW219084   1.083   5.566   2.228 -0.5490 -1.3038 -0.0282
 4838SOL    HW319085   1.041   5.654   2.113 -0.6484 -1.6885 -0.2878
 4838SOL    MW419086   1.103   5.617   2.160 -0.3096  0.6559 -0.1920
 4839SOL     OW19087   4.602   4.687   0.108  0.4066  0.4644  0.2559
 4839SOL    HW219088   4.677   4.723   0.156  1.0528  1.0862 -1.1609
 4839SOL    HW319089   4.612   4.592   0.116  0.2686  0.5379  1.6539
 4839SOL    MW419090   4.613   4.680   0.116 -0.1535 -0.5894  0.2520
 4840SOL     OW19091   4.478   1.333   4.065 -0.0758 -0.2559  0.6902
 4840SOL    HW219092   4.423   1.409   4.085 -0.3993 -0.6033  1.1250
 4840SOL    HW319093   4.556   1.346   4.120 -0.1945 -0.3138  0.8727
 4840SOL    MW419094   4.481   1.345   4.075  0.4596 -0.5173 -0.7507
 4841SOL     OW19095   1.351   4.859   3.956 -0.1229  0.3307  0.0450
 4841SOL    HW219096   1.444   4.877   3.972  0.0249 -0.9472  0.7108
 4841SOL    HW319097   1.328   4.918   3.885  0.7444  1.9288  1.0163
 4841SOL    MW419098   1.360   4.869   3.949  0.1273 -0.0485  0.3562
 4842SOL     OW19099   1.332   1.643   5.856  0.1055  0.7411 -0.0521
 4842SOL    HW219100   1.315   1.568   5.913 -2.2627  0.2533 -1.2664
 4842SOL    HW319101   1.369   1.604   5.777  2.8011  1.3520  0.8126
 4842SOL    MW419102   1.334   1.628   5.853 -0.1408 -0.2358 -0.2787
 4843SOL     OW19103   4.536   5.402   6.391  0.1483 -0.6798  0.1747
 4843SOL    HW219104   4.617   5.388   6.342  0.1210  0.8189 -0.3539
 4843SOL    HW319105   4.483   5.458   6.334 -0.3508  0.1630  1.4367
 4843SOL    MW419106   4.539   5.408   6.377  0.4845 -0.1011 -0.5667
 4844SOL     OW19107   0.516   6.241   6.219 -0.4989  0.2754  0.3113
 4844SOL    HW219108   0.580   6.294   6.265 -0.5178 -0.7804  1.6106
 4844SOL    HW319109   0.442   6.234   6.279 -1.1309  0.0709 -0.4757
 4844SOL    MW419110   0.515   6.247   6.233  0.6066 -0.2413  0.2277
 4845SOL     OW19111   2.252   1.674   5.513  0.4853 -0.0517 -0.0191
 4845SOL    HW219112   2.297   1.682   5.429 -0.7981 -1.4770 -0.8846
 4845SOL    HW319113   2.284   1.592   5.549  0.0480 -0.0969  0.2685
 4845SOL    MW419114   2.262   1.665   5.506  0.4697 -0.9757  0.1632
 4846SOL     OW19115   5.895   2.177   4.676 -0.2829  0.0114 -0.0816
 4846SOL    HW219116   5.941   2.129   4.745  1.3942  1.2450 -0.2777
 4846SOL    HW319117   5.934   2.145   4.595 -1.3738 -0.5338 -0.4045
 4846SOL    MW419118   5.906   2.166   4.674  0.3872 -0.5847  0.1239
 4847SOL     OW19119   0.416   4.821   2.754  0.1610 -0.3997  0.2501
 4847SOL    HW219120   0.507   4.852   2.761  0.3801 -0.9476 -0.1399
 4847SOL    HW319121   0.398   4.824   2.660 -0.2076 -0.3604  0.3222
 4847SOL    MW419122   0.426   4.826   2.742  0.5632  0.6626  0.2841
 4848SOL     OW19123   6.158   2.684   4.144  0.6821  0.0064 -0.3929
 4848SOL    HW219124   6.173   2.777   4.128  0.1812  0.6761  2.4973
 4848SOL    HW319125   6.136   2.648   4.058 -0.7699  2.8877 -1.3544
 4848SOL    MW419126   6.157   2.692   4.130  0.1510  0.1086 -0.5846
 4849SOL     OW19127   1.804   0.550   1.850  0.6738 -0.1632 -0.2939
 4849SOL    HW219128   1.876   0.563   1.912  0.1483 -0.2222  0.3365
 4849SOL    HW319129   1.803   0.631   1.798 -1.0185  1.4231  2.0091
 4849SOL    MW419130   1.814   0.562   1.851 -0.2904  0.3084  0.5193
 4850SOL     OW19131   5.889   3.674   1.869 -0.0149 -0.4533  0.1249
 4850SOL    HW219132   5.887   3.680   1.774  0.3327  0.5685  0.1742
 4850SOL    HW319133   5.815   3.725   1.899 -0.5741 -1.3916  0.3946
 4850SOL    MW419134   5.879   3.681   1.860 -0.0043 -0.1375 -0.3866
 4851SOL     OW19135   3.186   0.448   0.986 -0.2126  0.0441 -0.3942
 4851SOL    HW219136   3.114   0.484   1.038 -0.0044 -1.1985  0.7971
 4851SOL    HW319137   3.167   0.355   0.979  0.8675 -0.1639 -0.7582
 4851SOL    MW419138   3.174   0.441   0.992 -0.6137  0.0250  0.4451
 4852SOL     OW19139   0.221   1.214   2.918  0.0847 -0.1688 -0.4964
 4852SOL    HW219140   0.248   1.126   2.892 -0.7709 -1.0572  1.4240
 4852SOL    HW319141   0.139   1.229   2.872 -0.6698 -1.1277  0.4737
 4852SOL    MW419142   0.214   1.204   2.909  0.5913 -0.0190 -0.1204
 4853SOL     OW19143   2.498   4.524   6.059 -0.0080  1.0399  0.0072
 4853SOL    HW219144   2.531   4.523   6.149  0.6104  1.9354 -0.1859
 4853SOL    HW319145   2.557   4.584   6.014  0.5526 -0.4792 -1.3454
 4853SOL    MW419146   2.510   4.532   6.065  0.1681  0.0057 -0.5600
 4854SOL     OW19147   5.707   3.021   2.196 -0.0746 -0.5047  0.1895
 4854SOL    HW219148   5.757   2.940   2.202 -1.3419 -1.3640 -0.4227
 4854SOL    HW319149   5.739   3.074   2.269  2.0827 -0.7907 -0.5016
 4854SOL    MW419150   5.718   3.017   2.207 -0.3921  0.1278  0.2466
 4855SOL     OW19151   2.880   2.207   0.475  0.1784  0.0111  0.0381
 4855SOL    HW219152   2.840   2.220   0.561  1.4495  0.0642  0.6530
 4855SOL    HW319153   2.920   2.120   0.480  2.1421  0.8674  0.3281
 4855SOL    MW419154   2.880   2.197   0.487  0.1058  0.5130  0.4979
 4856SOL     OW19155   4.472   4.989   5.713  0.1653  0.0976 -0.6643
 4856SOL    HW219156   4.559   4.949   5.707 -0.1330 -0.3926 -2.3468
 4856SOL    HW319157   4.426   4.936   5.778  0.6938 -0.5216 -0.7782
 4856SOL    MW419158   4.477   4.977   5.721  0.4492 -0.0022  0.4472
 4857SOL     OW19159   5.533   2.173   3.236  0.4511 -0.0475 -0.1418
 4857SOL    HW219160   5.564   2.114   3.167 -0.6159 -0.3127 -0.4088
 4857SOL    HW319161   5.539   2.260   3.198  2.2167  0.0740  0.3172
 4857SOL    MW419162   5.538   2.177   3.222 -0.6770 -0.4049 -0.7735
 4858SOL     OW19163   4.473   5.323   4.563  0.2676  0.2553  0.1215
 4858SOL    HW219164   4.456   5.240   4.518  0.4008 -0.9021  2.1127
 4858SOL    HW319165   4.387   5.353   4.592  0.4680 -0.4274  1.4603
 4858SOL    MW419166   4.460   5.316   4.561  0.6084  0.0504  0.1198
 4859SOL     OW19167   2.091   5.525   5.379 -0.0027 -0.1469  0.6715
 4859SOL    HW219168   2.053   5.438   5.374 -1.2447  0.2678  2.0675
 4859SOL    HW319169   2.099   5.543   5.473 -0.9790  1.7052  0.4555
 4859SOL    MW419170   2.087   5.516   5.391  0.9203 -0.1859  0.3330
 4860SOL     OW19171   4.904   1.726   5.304 -0.2116  0.3196  0.6725
 4860SOL    HW219172   4.936   1.734   5.214 -0.5359  0.9314  0.6035
 4860SOL    HW319173   4.863   1.640   5.308 -1.4544  0.8454 -0.1844
 4860SOL    MW419174   4.903   1.716   5.293 -0.7586  0.0938  0.7199
 4861SOL     OW19175   2.318   4.764   4.739 -0.3593  0.2167 -0.0772
 4861SOL    HW219176   2.370   4.691   4.774 -1.3583 -1.1250 -1.2818
 4861SOL    HW319177   2.370   4.798   4.667 -0.6435 -0.4545 -0.6169
 4861SOL    MW419178   2.332   4.759   4.734 -0.1438 -0.7837 -0.1349
 4862SOL     OW19179   1.246   0.495   2.691  0.1916  0.3563 -0.1953
 4862SOL    HW219180   1.279   0.546   2.765 -0.2190 -0.3020  0.4694
 4862SOL    HW319181   1.157   0.528   2.677 -0.7595 -1.2754  1.3941
 4862SOL    MW419182   1.238   0.506   2.699 -0.1281  0.2488  0.2771
 4863SOL     OW19183   2.131   1.869   3.334  0.0174  0.0608  0.6069
 4863SOL    HW219184   2.161   1.955   3.302  0.2616  0.4559  1.8482
 4863SOL    HW319185   2.125   1.815   3.255  2.8473  0.3235  0.1134
 4863SOL    MW419186   2.134   1.873   3.319  0.4027  0.1849  0.3156
 4864SOL     OW19187   0.310   3.616   4.187 -0.0156 -0.3563 -0.0167
 4864SOL    HW219188   0.222   3.649   4.168 -0.7490 -1.5190  1.1374
 4864SOL    HW319189   0.351   3.608   4.101 -1.0014  0.2945 -0.5766
 4864SOL    MW419190   0.303   3.619   4.173  0.0389 -0.2587 -0.6435
 4865SOL     OW19191   6.114   2.512   3.902 -0.3320 -0.2532  0.3007
 4865SOL    HW219192   6.038   2.532   3.848  0.7278  2.1625 -0.3986
 4865SOL    HW319193   6.177   2.474   3.842  0.0996  0.5298  0.2557
 4865SOL    MW419194   6.112   2.509   3.887  0.1398  0.3785 -0.1304
 4866SOL     OW19195   3.214   5.287   3.010  0.2363  0.5892  0.1627
 4866SOL    HW219196   3.267   5.359   2.976  0.5968  0.6110  0.7686
 4866SOL    HW319197   3.267   5.248   3.079 -0.7104  0.9078  1.1067
 4866SOL    MW419198   3.228   5.292   3.015  0.9821  0.0861 -0.6034
 4867SOL     OW19199   2.843   3.727   1.645 -0.3029  0.1170  0.4112
 4867SOL    HW219200   2.908   3.671   1.686  0.5221  2.2956  2.3036
 4867SOL    HW319201   2.894   3.785   1.588 -1.0120 -0.3617 -0.7370
 4867SOL    MW419202   2.858   3.728   1.643 -0.5118  0.1229 -0.1767
 4868SOL     OW19203   0.229   0.698   5.889 -0.0512  0.0193  0.2276
 4868SOL    HW219204   0.248   0.662   5.802 -1.7185 -0.8895  0.1859
 4868SOL    HW319205   0.201   0.622   5.940 -0.4721  0.7565  1.1275
 4868SOL    MW419206   0.227   0.683   5.884 -0.5063  0.4643  0.4488
 4869SOL     OW19207   5.118   5.107   5.809  0.1174  0.2973 -0.1405
 4869SOL    HW219208   5.186   5.174   5.798 -0.3615  0.8391  0.1220
 4869SOL    HW319209   5.139   5.065   5.892  0.2161  0.3661 -0.1301
 4869SOL    MW419210   5.130   5.110   5.819 -0.9785  0.3512  0.0175
 4870SOL     OW19211   3.950   1.566   0.991  0.1724 -0.2194  0.1507
 4870SOL    HW219212   3.895   1.487   0.999  0.5037 -0.5685 -0.8429
 4870SOL    HW319213   3.889   1.634   0.963 -0.3658  0.2266  2.2381
 4870SOL    MW419214   3.934   1.564   0.988  0.6498 -0.0297  0.4132
 4871SOL     OW19215   3.504   6.016   2.068 -0.1300  0.6547 -0.1013
 4871SOL    HW219216   3.568   5.950   2.041 -1.6405 -0.1657 -1.9068
 4871SOL    HW319217   3.555   6.095   2.081  1.5108 -0.4375  0.4858
 4871SOL    MW419218   3.519   6.017   2.066  0.1230 -0.3464 -0.3874
 4872SOL     OW19219   3.028   3.997   2.832  0.1838  0.0772  0.4353
 4872SOL    HW219220   2.998   4.061   2.768 -0.7218 -0.5827  0.1759
 4872SOL    HW319221   3.053   4.048   2.909  0.7152  0.8295 -0.2355
 4872SOL    MW419222   3.027   4.012   2.834  0.6582 -0.4326  0.1683
 4873SOL     OW19223   1.696   1.158   2.555  0.1886  0.0400 -0.0311
 4873SOL    HW219224   1.642   1.081   2.536  2.6822 -1.6999 -0.5686
 4873SOL    HW319225   1.665   1.224   2.493 -1.1384 -0.9462 -0.4880
 4873SOL    MW419226   1.685   1.156   2.544  0.6506 -0.1482  0.2735
 4874SOL     OW19227   3.756   5.354   1.288 -0.4650 -0.1885  0.0112
 4874SOL    HW219228   3.701   5.423   1.251  0.1840  0.5115  0.3200
 4874SOL    HW319229   3.756   5.286   1.221 -0.5398  0.4118 -0.6197
 4874SOL    MW419230   3.749   5.354   1.274 -0.3952 -0.1913 -0.1691
 4875SOL     OW19231   2.614   3.928   5.069 -0.0661  0.2878 -0.0546
 4875SOL    HW219232   2.602   3.868   5.143 -3.6207 -0.0975 -0.7964
 4875SOL    HW319233   2.599   4.015   5.105  2.5159  0.6075  0.4646
 4875SOL    MW419234   2.611   3.931   5.083  0.2742  0.2721  0.2295
 4876SOL     OW19235   1.181   1.508   4.321  0.2892 -0.2548 -0.1161
 4876SOL    HW219236   1.251   1.498   4.257  0.1010 -3.3868  0.0062
 4876SOL    HW319237   1.214   1.462   4.399 -1.9921 -2.2288 -0.2104
 4876SOL    MW419238   1.195   1.501   4.323 -0.0293 -0.0612 -0.1399
 4877SOL     OW19239   5.808   0.177   1.239  0.3718  0.6412 -0.1497
 4877SOL    HW219240   5.831   0.246   1.301 -1.0724  1.1047 -0.0986
 4877SOL    HW319241   5.713   0.168   1.247  0.5552 -1.6183  0.1212
 4877SOL    MW419242   5.799   0.185   1.248  0.2050  0.5431  0.1894
 4878SOL     OW19243   5.474   3.973   2.969  0.8330  0.1794  0.2653
 4878SOL    HW219244   5.534   3.901   2.984  1.2093  0.4686  0.1765
 4878SOL    HW319245   5.387   3.934   2.975  0.7581  0.4899  4.8995
 4878SOL    MW419246   5.471   3.959   2.972 -0.1082  0.3692 -0.4192
 4879SOL     OW19247   5.177   5.534   1.968 -0.5760 -0.2786 -0.0053
 4879SOL    HW219248   5.151   5.581   2.047 -2.9169 -0.2568 -0.7156
 4879SOL    HW319249   5.189   5.443   1.997 -1.9367 -0.3769  0.3184
 4879SOL    MW419250   5.175   5.528   1.982  0.4581 -0.2106  0.0647
 4880SOL     OW19251   3.794   0.857   2.101 -0.3422  0.1867  0.4629
 4880SOL    HW219252   3.844   0.789   2.056  0.2707  1.2432 -0.4969
 4880SOL    HW319253   3.795   0.831   2.193 -0.4183 -1.2773  0.0714
 4880SOL    MW419254   3.800   0.845   2.108  0.4473 -0.8350 -0.3682
 4881SOL     OW19255   0.755   4.191   2.163  0.5346 -0.2503 -0.5038
 4881SOL    HW219256   0.755   4.260   2.096  0.6928 -1.4523 -1.7864
 4881SOL    HW319257   0.846   4.160   2.165  0.8043  0.5450  1.1334
 4881SOL    MW419258   0.767   4.196   2.155 -0.1938  0.6574  0.7331
 4882SOL     OW19259   6.313   0.951   5.173 -0.2518 -0.4104  0.0460
 4882SOL    HW219260   6.351   0.985   5.254  0.4835 -0.4799 -0.2604
 4882SOL    HW319261   6.229   0.996   5.165  1.1097  2.1956 -0.8768
 4882SOL    MW419262   6.307   0.962   5.183 -0.1414  0.2004  0.0879
 4883SOL     OW19263   5.799   3.451   2.312  0.4848  0.3220  0.0863
 4883SOL    HW219264   5.803   3.369   2.361  0.9318  0.4691  0.3009
 4883SOL    HW319265   5.716   3.491   2.339 -0.9988 -1.2064 -1.8944
 4883SOL    MW419266   5.788   3.446   2.322  0.8302 -0.0179  0.0368
 4884SOL     OW19267   2.338   1.052   1.274 -0.1285 -0.1338 -0.1231
 4884SOL    HW219268   2.419   1.079   1.230 -0.1505  0.9113  0.4472
 4884SOL    HW319269   2.358   1.055   1.367 -0.3713 -1.3982 -0.0175
 4884SOL    MW419270   2.351   1.056   1.280 -0.0670  0.0024 -0.3484
 4885SOL     OW19271   5.809   0.773   2.721 -0.6757  0.0225 -0.0144
 4885SOL    HW219272   5.809   0.842   2.654  0.4198 -0.4008 -0.4847
 4885SOL    HW319273   5.762   0.700   2.680  0.6958 -0.5276 -0.6784
 4885SOL    MW419274   5.803   0.773   2.706  0.2727 -0.3358  0.6875
 4886SOL     OW19275   1.180   3.374   2.450 -0.0779  0.1469  0.0815
 4886SOL    HW219276   1.209   3.294   2.492 -1.2520 -0.5482 -0.3648
 4886SOL    HW319277   1.105   3.403   2.501 -0.2038  0.4749 -0.2773
 4886SOL    MW419278   1.174   3.367   2.462 -0.1660 -0.9887  0.3887
 4887SOL     OW19279   5.743   5.184   4.333  0.7556 -0.4360 -0.0656
 4887SOL    HW219280   5.715   5.248   4.399 -0.8843 -0.7872 -0.3782
 4887SOL    HW319281   5.837   5.201   4.322  0.2603  2.4638 -0.7077
 4887SOL    MW419282   5.752   5.195   4.340 -0.3107 -0.2789  0.3224
 4888SOL     OW19283   3.674   4.376   0.094 -0.2254  0.0167 -0.7170
 4888SOL    HW219284   3.729   4.424   0.031 -0.0740 -0.0921 -0.6674
 4888SOL    HW319285   3.701   4.408   0.179  1.0332 -1.3303 -0.5717
 4888SOL    MW419286   3.685   4.387   0.097 -0.2109  0.2647 -0.1489
 4889SOL     OW19287   2.155   2.309   3.919  0.7381 -0.0898  0.3105
 4889SOL    HW219288   2.104   2.346   3.991  0.0994  0.3809 -0.3695
 4889SOL    HW319289   2.240   2.353   3.924  0.3349  0.7165  0.1406
 4889SOL    MW419290   2.160   2.320   3.929  0.2282  0.7463  0.2272
 4890SOL     OW19291   1.471   5.917   3.172  0.3102  0.3705  0.7922
 4890SOL    HW219292   1.424   5.984   3.221  0.8401  1.1391  0.2670
 4890SOL    HW319293   1.545   5.894   3.228  0.6398  0.8893  0.5698
 4890SOL    MW419294   1.475   5.922   3.186  0.8814 -0.2093 -0.1608
 4891SOL     OW19295   2.954   0.764   2.134  0.1763  0.2721 -0.5982
 4891SOL    HW219296   2.889   0.834   2.133 -1.1264 -0.8857 -1.4066
 4891SOL    HW319297   2.941   0.721   2.219  0.3691  0.4522 -0.4753
 4891SOL    MW419298   2.944   0.768   2.145  0.5230 -1.0103 -0.3142
 4892SOL     OW19299   5.017   1.054   4.058 -0.3521  0.3793 -0.4940
 4892SOL    HW219300   4.969   1.012   3.987 -0.6544  1.8651 -1.2011
 4892SOL    HW319301   5.056   1.132   4.019  1.3664  0.0519  0.4440
 4892SOL    MW419302   5.016   1.059   4.044 -0.4946 -0.0608 -0.0148
 4893SOL     OW19303   5.245   3.678   4.613 -0.4246 -0.7310  0.0741
 4893SOL    HW219304   5.289   3.701   4.695 -0.5880 -0.1010 -0.0148
 4893SOL    HW319305   5.299   3.719   4.545 -2.0986  1.6149  0.0489
 4893SOL    MW419306   5.258   3.686   4.615 -0.1494  0.1248 -0.2178
 4894SOL     OW19307   3.621   2.697   2.819 -0.2096  0.7084  0.6532
 4894SOL    HW219308   3.656   2.785   2.830 -0.4965  1.2198 -1.8885
 4894SOL    HW319309   3.629   2.680   2.726 -0.2819 -1.9376  1.0645
 4894SOL    MW419310   3.627   2.706   2.808  0.3338  0.4696  0.0232
 4895SOL     OW19311   4.648   0.468   4.193  0.0451  0.5663 -0.2633
 4895SOL    HW219312   4.709   0.541   4.181  0.6805  0.3466  1.3049
 4895SOL    HW319313   4.620   0.476   4.285 -1.2486 -0.1348 -0.5720
 4895SOL    MW419314   4.652   0.479   4.204 -0.2326 -0.0621 -0.1733
 4896SOL     OW19315   3.686   3.250   3.100 -0.0074  0.2097  0.4043
 4896SOL    HW219316   3.698   3.324   3.041  1.7883 -0.7875 -0.5677
 4896SOL    HW319317   3.635   3.285   3.173 -1.6448  1.6719 -1.3451
 4896SOL    MW419318   3.681   3.264   3.102  0.4627 -0.0257  0.5475
 4897SOL     OW19319   0.982   1.422   4.152 -0.0465  0.3758 -0.5149
 4897SOL    HW219320   1.049   1.450   4.214 -0.6917  1.5456 -0.3180
 4897SOL    HW319321   1.010   1.457   4.068  0.0900  0.0192 -0.6201
 4897SOL    MW419322   0.994   1.430   4.149 -0.1019 -0.4406  0.1953
 4898SOL     OW19323   0.763   4.657   2.539 -0.3751 -0.0739  0.5406
 4898SOL    HW219324   0.697   4.683   2.474  0.6990 -0.5857 -0.8165
 4898SOL    HW319325   0.713   4.621   2.612 -1.6012 -0.0649 -0.2677
 4898SOL    MW419326   0.748   4.656   2.540 -0.1548 -0.4219  0.2733
 4899SOL     OW19327   3.841   0.559   3.317 -0.1619 -0.2623 -0.3199
 4899SOL    HW219328   3.896   0.631   3.346  0.6990 -0.8545 -0.4316
 4899SOL    HW319329   3.834   0.571   3.222  2.3897 -1.8938 -0.7889
 4899SOL    MW419330   3.847   0.570   3.308  0.1578 -0.5202  0.0284
 4900SOL     OW19331   0.677   5.456   1.278  0.3712 -0.2869 -0.7548
 4900SOL    HW219332   0.625   5.497   1.209  0.2564 -0.8992 -1.0395
 4900SOL    HW319333   0.632   5.480   1.359  0.3359  0.1893 -0.9127
 4900SOL    MW419334   0.664   5.465   1.279 -0.1951  0.4503 -0.0616
 4901SOL     OW19335   1.173   5.766   3.327 -0.2939  0.6540  0.1186
 4901SOL    HW219336   1.231   5.841   3.339 -1.6301  1.5186  1.5939
 4901SOL    HW319337   1.231   5.692   3.310  1.1893  1.6068  0.9114
 4901SOL    MW419338   1.188   5.766   3.326  1.0633  0.1018  0.0827
 4902SOL     OW19339   4.750   1.920   1.069 -0.2483  0.0178  0.2070
 4902SOL    HW219340   4.791   1.971   1.138  2.7611 -1.9875  0.0693
 4902SOL    HW319341   4.747   1.831   1.104 -2.1942 -0.3837 -0.8442
 4902SOL    MW419342   4.755   1.915   1.082  0.5140 -0.6363  0.4644
 4903SOL     OW19343   0.386   0.696   3.309  0.2967 -0.3213  0.3376
 4903SOL    HW219344   0.430   0.703   3.224  0.3165  0.9956  0.4294
 4903SOL    HW319345   0.374   0.602   3.322  2.1988 -0.6868 -0.1486
 4903SOL    MW419346   0.390   0.684   3.299 -0.1286  0.1516  0.2722
 4904SOL     OW19347   5.730   5.278   0.056  0.3559  0.0653 -0.4389
 4904SOL    HW219348   5.661   5.289  -0.010 -0.0882 -1.5627 -0.2862
 4904SOL    HW319349   5.686   5.238   0.131  0.4643  3.4395  1.6117
 4904SOL    MW419350   5.715   5.274   0.057 -0.4860  0.1709  0.0150
 4905SOL     OW19351   1.751   3.426   3.511  0.3678  0.5908  0.4679
 4905SOL    HW219352   1.658   3.428   3.490  0.6163  1.9056 -0.6055
 4905SOL    HW319353   1.786   3.507   3.475  1.8105  0.4546  1.4684
 4905SOL    MW419354   1.743   3.437   3.504  0.3383 -0.3288  0.2666
 4906SOL     OW19355   3.879   3.979   3.496 -0.3428 -0.1715  0.8420
 4906SOL    HW219356   3.923   4.025   3.568 -1.0149  0.6284  0.7566
 4906SOL    HW319357   3.810   3.928   3.539  0.1360 -0.7850  0.8942
 4906SOL    MW419358   3.876   3.979   3.511  0.5102  0.3455  0.0314
 4907SOL     OW19359   6.101   3.225   1.815 -0.2674 -0.2341 -0.0128
 4907SOL    HW219360   6.047   3.217   1.736 -1.2934  1.1421  0.5023
 4907SOL    HW319361   6.049   3.183   1.883 -0.5298  0.7521  0.4093
 4907SOL    MW419362   6.087   3.219   1.813  0.9601  0.2049  0.2304
 4908SOL     OW19363   5.568   4.156   4.415  0.0366 -0.5616  0.1345
 4908SOL    HW219364   5.493   4.100   4.396  2.1903 -3.5406 -0.3084
 4908SOL    HW319365   5.599   4.184   4.329 -0.1666  0.1286  0.2812
 4908SOL    MW419366   5.562   4.152   4.401  0.6657 -0.2908  0.1127
 4909SOL     OW19367   3.961   6.167   3.137 -0.2065  0.0584  0.0992
 4909SOL    HW219368   3.962   6.192   3.229 -1.3050  2.0896 -0.3906
 4909SOL    HW319369   3.993   6.244   3.090  1.3094 -1.2806 -1.1868
 4909SOL    MW419370   3.965   6.181   3.143 -0.4710  0.2194  0.5068
 4910SOL     OW19371   5.514   3.890   2.646  0.1267  0.0233  0.3877
 4910SOL    HW219372   5.434   3.910   2.694  1.8204 -0.7849  3.8570
 4910SOL    HW319373   5.568   3.968   2.656  1.6932 -1.2291  2.7089
 4910SOL    MW419374   5.511   3.903   2.654  0.1925 -0.1161 -0.1263
 4911SOL     OW19375   3.661   3.133   1.899 -0.3009  0.1817  0.2319
 4911SOL    HW219376   3.642   3.136   1.993  0.9837 -2.3268  0.6795
 4911SOL    HW319377   3.605   3.063   1.866  2.3044 -2.0195  0.1075
 4911SOL    MW419378   3.651   3.124   1.907  0.3731 -0.6144  0.2652
 4912SOL     OW19379   5.223   4.992   1.245  0.4819  0.4226 -0.0314
 4912SOL    HW219380   5.290   4.933   1.279  1.3209  1.6808  0.5897
 4912SOL    HW319381   5.271   5.069   1.215 -0.5670  0.7649 -0.9311
 4912SOL    MW419382   5.238   4.994   1.245  0.4824  0.2889 -0.0389
 4913SOL     OW19383   2.738   6.350   5.525 -0.5348  0.5864 -0.5677
 4913SOL    HW219384   2.721   6.258   5.504 -0.4492  0.4606 -0.0977
 4913SOL    HW319385   2.667   6.398   5.483 -2.7713  0.0147  2.2387
 4913SOL    MW419386   2.727   6.344   5.516 -0.2169  0.3237  0.1393
 4914SOL     OW19387   0.122   3.605   2.972  0.0154 -0.0182 -0.0808
 4914SOL    HW219388   0.067   3.683   2.977 -0.8229 -0.3626 -2.5149
 4914SOL    HW319389   0.074   3.545   2.915  1.7650 -1.3219 -0.2753
 4914SOL    MW419390   0.109   3.608   2.965  0.3099  0.1372 -0.1632
 4915SOL     OW19391   0.763   1.582   4.261  0.5644  0.4244 -0.1278
 4915SOL    HW219392   0.836   1.525   4.234 -0.8230 -1.0948 -0.8739
 4915SOL    HW319393   0.786   1.609   4.350  1.8315 -0.3909 -0.1728
 4915SOL    MW419394   0.776   1.578   4.270  0.0632  0.1096 -0.9692
 4916SOL     OW19395   1.943   3.441   5.143  0.2867 -0.0428 -0.2920
 4916SOL    HW219396   1.860   3.431   5.188  0.1579  0.1569 -0.4830
 4916SOL    HW319397   1.920   3.475   5.056  0.3064 -2.6244 -1.4094
 4916SOL    MW419398   1.929   3.445   5.137  0.5843 -0.1071 -0.2861
 4917SOL     OW19399   6.440   1.019   4.936  0.0715 -0.0362 -0.2560
 4917SOL    HW219400   6.392   0.990   5.013 -1.3137 -0.8225 -1.3594
 4917SOL    HW319401   6.470   1.107   4.958 -2.1704  0.6372  0.4104
 4917SOL    MW419402   6.437   1.026   4.949 -0.0998  0.1899 -0.0818
 4918SOL     OW19403   1.239   3.611   4.079 -0.2878  0.8216 -0.3438
 4918SOL    HW219404   1.202   3.699   4.079 -1.1300  0.4885  0.4493
 4918SOL    HW319405   1.163   3.553   4.091  0.1744 -0.0608 -1.4789
 4918SOL    MW419406   1.224   3.615   4.081 -0.1112 -0.1087 -0.1873
 4919SOL     OW19407   5.159   4.350   0.467 -0.6362  0.0324 -0.3966
 4919SOL    HW219408   5.103   4.382   0.397 -2.1923  0.6261  1.0420
 4919SOL    HW319409   5.142   4.410   0.540  2.2746  0.5447 -0.0338
 4919SOL    MW419410   5.149   4.362   0.468  0.1752  0.1995  0.5453
 4920SOL     OW19411   2.425   2.397   3.242 -0.1806 -0.9284  0.5051
 4920SOL    HW219412   2.478   2.454   3.297  1.0272 -1.4368 -0.1081
 4920SOL    HW319413   2.464   2.311   3.250 -0.6778 -1.2394 -0.2656
 4920SOL    MW419414   2.437   2.393   3.250 -0.5689  0.4557  0.0740
 4921SOL     OW19415   0.843   3.605   3.472  0.1399  0.6912  0.3798
 4921SOL    HW219416   0.807   3.646   3.394 -0.8085 -0.9607 -0.0926
 4921SOL    HW319417   0.786   3.634   3.543 -2.2825 -1.8418 -0.3487
 4921SOL    MW419418   0.831   3.614   3.471 -0.0963 -0.2720  0.2758
 4922SOL     OW19419   5.751   3.945   4.336  0.6113 -0.0038  1.3135
 4922SOL    HW219420   5.689   4.002   4.380 -0.9488 -1.1367  0.6526
 4922SOL    HW319421   5.723   3.856   4.359  1.4660 -0.5614  0.2937
 4922SOL    MW419422   5.739   3.940   4.345 -0.0311 -0.3932 -0.3920
 4923SOL     OW19423   1.053   2.315   3.215  0.3682 -0.0497 -0.2700
 4923SOL    HW219424   1.134   2.288   3.172 -0.2496  1.6395 -2.6310
 4923SOL    HW319425   1.083   2.361   3.294  1.7057  0.4379 -1.0251
 4923SOL    MW419426   1.068   2.317   3.220 -0.4905  0.1714 -0.0998
 4924SOL     OW19427   5.907   2.825   5.500  0.0480 -0.4190  0.1382
 4924SOL    HW219428   5.936   2.751   5.445 -1.7515  0.5371 -2.2905
 4924SOL    HW319429   5.814   2.809   5.513  0.0068  0.5375  1.0805
 4924SOL    MW419430   5.899   2.813   5.494 -0.0032  0.1533  0.3662
 4925SOL     OW19431   4.907   2.559   0.773  0.0894 -0.1224  0.1700
 4925SOL    HW219432   4.935   2.609   0.850  0.8081 -2.5885  1.6297
 4925SOL    HW319433   4.877   2.475   0.809 -2.1435 -0.3743 -2.0491
 4925SOL    MW419434   4.907   2.555   0.788 -0.6129 -0.5003  0.5724
 4926SOL     OW19435   4.049   2.260   6.304  0.3920 -0.2247  0.0459
 4926SOL    HW219436   4.102   2.238   6.381  1.5796  0.2504 -0.5999
 4926SOL    HW319437   4.046   2.356   6.304 -0.8032 -0.2502  0.2767
 4926SOL    MW419438   4.056   2.270   6.314  0.2662  0.2557  0.0116
 4927SOL     OW19439   4.004   2.897   6.186 -0.1215 -0.2553 -0.4921
 4927SOL    HW219440   4.056   2.954   6.242  0.9082 -0.1370 -1.5273
 4927SOL    HW319441   3.924   2.946   6.169  0.8274  0.9863 -1.5158
 4927SOL    MW419442   4.001   2.911   6.191 -1.0981  0.1267  0.3095
 4928SOL     OW19443   2.386   5.322   3.647  0.0675  0.4699 -0.0464
 4928SOL    HW219444   2.315   5.307   3.585  0.8417  0.3419 -0.9295
 4928SOL    HW319445   2.352   5.386   3.709 -1.0921 -0.2020  0.0352
 4928SOL    MW419446   2.372   5.328   3.647  0.4023  0.0165 -0.1898
 4929SOL     OW19447   5.455   5.727   0.843  0.1071  0.0584 -0.7324
 4929SOL    HW219448   5.463   5.693   0.932 -0.8811 -0.4740 -0.8299
 4929SOL    HW319449   5.490   5.657   0.788 -2.2366 -1.0322 -0.9568
 4929SOL    MW419450   5.460   5.713   0.848  0.0480  0.5289  0.3975
 4930SOL     OW19451   6.076   1.093   5.549  0.3057 -0.3561 -0.1684
 4930SOL    HW219452   6.069   1.116   5.456  1.4268 -0.7653 -0.3726
 4930SOL    HW319453   6.154   1.139   5.579 -1.3668  1.7544  1.2307
 4930SOL    MW419454   6.085   1.102   5.541 -0.3369 -0.0807 -0.0871
 4931SOL     OW19455   1.800   4.654   5.627  0.0931 -0.4472 -0.4833
 4931SOL    HW219456   1.851   4.587   5.581  2.9059  0.0227  1.6604
 4931SOL    HW319457   1.721   4.608   5.656  0.6760 -2.1006 -1.3565
 4931SOL    MW419458   1.796   4.639   5.625  0.4133  0.2622 -0.8066
 4932SOL     OW19459   6.430   2.903   4.300  0.4263 -0.4673 -0.2529
 4932SOL    HW219460   6.429   2.977   4.238 -0.5189 -1.0158 -0.9093
 4932SOL    HW319461   6.497   2.928   4.365  0.6154  0.6469 -0.8408
 4932SOL    MW419462   6.439   2.916   4.300  0.3693 -0.1350 -0.0914
 4933SOL     OW19463   1.203   5.353   2.094 -0.1824  0.6558  0.0218
 4933SOL    HW219464   1.160   5.350   2.009 -0.3647  0.3849  0.1237
 4933SOL    HW319465   1.173   5.436   2.132 -0.8611  0.3257  0.2184
 4933SOL    MW419466   1.194   5.364   2.088  0.3029 -0.2822  0.2734
 4934SOL     OW19467   3.137   0.794   4.857  0.0727 -0.1959 -0.0004
 4934SOL    HW219468   3.091   0.877   4.842  0.2345  0.1015  1.0182
 4934SOL    HW319469   3.124   0.744   4.777 -3.1824 -0.6961  0.7177
 4934SOL    MW419470   3.129   0.799   4.845  0.0863  0.2347 -0.4623
 4935SOL     OW19471   3.370   0.298   0.617  0.4078  0.4307 -0.5535
 4935SOL    HW219472   3.389   0.359   0.688  1.3807  1.6368 -1.8018
 4935SOL    HW319473   3.456   0.277   0.579  0.3596 -3.1944  0.9272
 4935SOL    MW419474   3.384   0.303   0.621 -0.5886 -0.4846  0.1851
 4936SOL     OW19475   4.976   5.932   2.699  0.2795  0.0152  0.0484
 4936SOL    HW219476   4.929   5.934   2.616  1.5868 -1.6750 -0.7850
 4936SOL    HW319477   4.946   5.852   2.742 -0.7824  1.1440  1.4978
 4936SOL    MW419478   4.966   5.922   2.694 -0.4237  0.3717  0.0074
 4937SOL     OW19479   1.934   3.909   1.858  0.4679  0.0738 -0.1408
 4937SOL    HW219480   1.895   3.916   1.945 -0.4400 -0.6294 -0.4794
 4937SOL    HW319481   1.859   3.911   1.798  0.7820 -2.6176 -0.7445
 4937SOL    MW419482   1.919   3.911   1.861 -0.8196  0.2650  0.1256
 4938SOL     OW19483   5.826   0.584   4.321 -0.0888 -0.1335 -0.4087
 4938SOL    HW219484   5.902   0.617   4.369 -0.3857 -0.4801  0.3018
 4938SOL    HW319485   5.783   0.523   4.381 -1.1256  0.3182 -0.6703
 4938SOL    MW419486   5.831   0.580   4.335  0.6255 -0.0052 -0.2477
 4939SOL     OW19487   2.915   0.541   0.606 -0.5864 -0.0880  0.7105
 4939SOL    HW219488   2.892   0.507   0.693  0.0848 -0.1501  0.8675
 4939SOL    HW319489   2.831   0.568   0.568 -0.6662  2.0642  2.2580
 4939SOL    MW419490   2.901   0.540   0.613 -0.2890 -0.0370 -0.3511
 4940SOL     OW19491   2.595   6.116   3.750  0.0142 -0.0325  0.3848
 4940SOL    HW219492   2.611   6.037   3.698  1.0651 -0.9046  1.9621
 4940SOL    HW319493   2.501   6.112   3.770 -0.4872  0.4789 -1.6209
 4940SOL    MW419494   2.584   6.105   3.745 -0.0969  0.1236 -0.6473
 4941SOL     OW19495   4.322   1.816   5.817 -0.5817 -0.2073 -0.5134
 4941SOL    HW219496   4.261   1.816   5.743 -2.8749  0.2807  1.2477
 4941SOL    HW319497   4.382   1.888   5.798 -0.4376 -0.7650 -2.3715
 4941SOL    MW419498   4.322   1.826   5.805 -0.0922  0.3430  0.6927
 4942SOL     OW19499   6.083   2.440   5.443  0.4711  0.7165 -0.3107
 4942SOL    HW219500   6.106   2.533   5.444  1.4808  0.4831 -0.8453
 4942SOL    HW319501   5.989   2.438   5.464  0.1689  1.9301 -1.4382
 4942SOL    MW419502   6.073   2.452   5.446 -0.4571  0.0754 -0.2309
 4943SOL     OW19503   0.279   2.475   3.114  0.7891 -0.4378  0.0114
 4943SOL    HW219504   0.277   2.499   3.207  0.6370 -0.3636 -0.0102
 4943SOL    HW319505   0.366   2.500   3.085  0.3562  0.8896 -0.2218
 4943SOL    MW419506   0.290   2.482   3.123  0.6998  0.2042 -0.6277
 4944SOL     OW19507   4.325   5.793   1.128  0.1853 -0.2719  0.1690
 4944SOL    HW219508   4.268   5.746   1.189 -0.0575  0.1854  0.2978
 4944SOL    HW319509   4.353   5.871   1.176 -0.8802  0.6514 -0.6605
 4944SOL    MW419510   4.321   5.797   1.142  0.3080 -0.5438  0.4599
 4945SOL     OW19511   2.395   0.834   0.875 -0.0963  0.2873 -0.2795
 4945SOL    HW219512   2.468   0.781   0.843  1.2707  0.4087  2.3358
 4945SOL    HW319513   2.360   0.785   0.950 -1.8414  0.8880 -0.6551
 4945SOL    MW419514   2.400   0.821   0.881  0.3171 -0.5558  0.7201
 4946SOL     OW19515   6.121   2.270   1.195 -0.0670 -0.3702 -0.7399
 4946SOL    HW219516   6.046   2.265   1.254  1.2908 -0.9917  1.0171
 4946SOL    HW319517   6.150   2.361   1.200  0.2393 -0.4973 -0.1918
 4946SOL    MW419518   6.115   2.281   1.203 -0.6046 -0.0840  0.2216
 4947SOL     OW19519   1.520   4.716   3.690 -0.8799  0.5246  0.1317
 4947SOL    HW219520   1.441   4.662   3.692  0.2719 -1.2071  0.7482
 4947SOL    HW319521   1.498   4.787   3.630 -1.8755 -1.5865 -2.2018
 4947SOL    MW419522   1.507   4.718   3.682 -0.0056  0.7263 -0.1564
 4948SOL     OW19523   4.890   1.390   5.050 -0.2503  0.0991  0.3671
 4948SOL    HW219524   4.960   1.394   4.985 -0.4683 -1.3281  0.0181
 4948SOL    HW319525   4.812   1.420   5.003  0.2268  2.5634  0.9966
 4948SOL    MW419526   4.889   1.395   5.035  0.4800  0.2802 -0.5389
 4949SOL     OW19527   3.211   4.261   0.815  0.1997  0.8950 -0.5627
 4949SOL    HW219528   3.200   4.275   0.721  0.7943 -0.9077 -0.9498
 4949SOL    HW319529   3.128   4.220   0.843  1.0403 -1.2138 -0.9419
 4949SOL    MW419530   3.198   4.257   0.807  0.3995 -0.7022 -0.3849
 4950SOL     OW19531   0.428   6.006   0.871  0.4510  0.9285 -0.3346
 4950SOL    HW219532   0.387   6.064   0.935 -0.3344  1.2916 -1.1520
 4950SOL    HW319533   0.514   6.044   0.856  0.6992  0.7635  0.6015
 4950SOL    MW419534   0.434   6.018   0.878 -0.4314  0.2750  0.0763
 4951SOL     OW19535   5.680   4.491   0.491 -0.3570 -0.2553  0.1944
 4951SOL    HW219536   5.751   4.522   0.434 -0.9857 -0.0785 -0.5048
 4951SOL    HW319537   5.607   4.551   0.473 -0.6509 -0.3640  0.9946
 4951SOL    MW419538   5.680   4.503   0.481 -0.4999 -0.0023  0.2277
 4952SOL     OW19539   6.360   5.145   3.968 -0.0606  0.8447 -0.3997
 4952SOL    HW219540   6.372   5.051   3.984  1.1081  1.0646  0.1238
 4952SOL    HW319541   6.269   5.153   3.940  0.3507 -0.7119 -2.4340
 4952SOL    MW419542   6.350   5.134   3.966 -0.7171 -0.1512 -0.3379
 4953SOL     OW19543   1.868   1.144   5.479  0.3147 -0.1398 -0.3367
 4953SOL    HW219544   1.882   1.052   5.501  0.3165 -0.2515 -0.7904
 4953SOL    HW319545   1.913   1.193   5.548  0.1547 -0.4750  0.0110
 4953SOL    MW419546   1.876   1.138   5.491 -0.6138 -0.2274  0.3929
 4954SOL     OW19547   1.112   0.904   2.312 -0.2011 -0.1599 -0.2735
 4954SOL    HW219548   1.079   0.898   2.401 -0.2706  0.2296 -0.2712
 4954SOL    HW319549   1.034   0.897   2.257 -0.2354  0.2717 -0.2823
 4954SOL    MW419550   1.097   0.902   2.316 -0.7714  0.2517  0.7653
 4955SOL     OW19551   3.824   0.176   4.035 -0.4092  0.1097  0.4476
 4955SOL    HW219552   3.874   0.186   3.955  0.0675  0.1531  0.7472
 4955SOL    HW319553   3.733   0.175   4.007 -0.2032 -1.6517 -0.3041
 4955SOL    MW419554   3.819   0.177   4.021 -0.4848 -0.1046  0.0338
 4956SOL     OW19555   0.032   2.625   3.079 -0.1409  0.4202 -0.4170
 4956SOL    HW219556   0.115   2.579   3.077  0.4029  1.3542 -2.1639
 4956SOL    HW319557   0.027   2.664   3.166  0.4267 -1.0331  0.2886
 4956SOL    MW419558   0.042   2.624   3.090  0.0105 -0.2236 -0.2660
 4957SOL     OW19559   2.901   3.856   5.478 -0.0411  0.0411  0.4416
 4957SOL    HW219560   2.934   3.860   5.388  0.6530 -1.2641  0.6110
 4957SOL    HW319561   2.974   3.885   5.532 -0.3455  0.4985  0.6117
 4957SOL    MW419562   2.915   3.860   5.473  0.6836 -0.5750  0.2220
 4958SOL     OW19563   4.196   0.572   0.707  0.2733 -0.3361  0.5938
 4958SOL    HW219564   4.163   0.504   0.648  1.3483  1.0462 -1.7212
 4958SOL    HW319565   4.132   0.643   0.699  1.9408  1.0408 -1.3428
 4958SOL    MW419566   4.183   0.572   0.698  0.1636  0.4186 -0.2408
 4959SOL     OW19567   0.838   1.031   2.571 -0.4010  0.2225  0.0880
 4959SOL    HW219568   0.799   0.981   2.500  0.6909 -1.0633  0.3498
 4959SOL    HW319569   0.772   1.032   2.640 -0.4808 -0.8040  0.0390
 4959SOL    MW419570   0.824   1.025   2.571 -0.2741 -0.1022  0.2334
 4960SOL     OW19571   4.915   5.731   2.884  0.5147  0.1891  0.0414
 4960SOL    HW219572   4.904   5.759   2.975 -0.9902  0.5847 -0.2296
 4960SOL    HW319573   4.841   5.673   2.867  0.4979  0.4943 -1.0552
 4960SOL    MW419574   4.904   5.727   2.894  0.2327 -0.0557  0.0153
 4961SOL     OW19575   5.905   2.954   2.575 -0.1164 -0.3929 -0.5469
 4961SOL    HW219576   5.953   2.887   2.527  0.6721 -0.5902  0.4957
 4961SOL    HW319577   5.970   2.993   2.634 -1.2877 -0.8927  1.1365
 4961SOL    MW419578   5.920   2.950   2.576 -0.5877 -0.1877 -0.4399
 4962SOL     OW19579   5.007   5.625   0.266 -0.3538  0.4185  0.4619
 4962SOL    HW219580   4.966   5.597   0.184 -0.3785  0.3471  0.4987
 4962SOL    HW319581   4.934   5.633   0.328 -0.1387 -1.3259  0.9951
 4962SOL    MW419582   4.992   5.622   0.264  0.2040 -0.0039  0.4710
 4963SOL     OW19583   2.599   3.104   4.507  0.0669 -0.0075 -0.1106
 4963SOL    HW219584   2.599   3.017   4.548  0.3067  0.1385  0.1985
 4963SOL    HW319585   2.613   3.165   4.580  4.1353  0.0952 -0.7495
 4963SOL    MW419586   2.600   3.100   4.522 -0.3527 -0.1565 -0.5947
 4964SOL     OW19587   3.764   1.101   4.219 -0.3802 -0.1119  0.0863
 4964SOL    HW219588   3.791   1.009   4.218  0.0894  0.0254  0.0486
 4964SOL    HW319589   3.762   1.124   4.312 -2.0194 -0.5945  0.2058
 4964SOL    MW419590   3.767   1.092   4.232  0.5029  0.0013  1.0860
 4965SOL     OW19591   2.387   2.013   2.783 -0.2184  0.1463  0.2176
 4965SOL    HW219592   2.330   2.064   2.725 -0.6608  0.4917  0.9406
 4965SOL    HW319593   2.383   2.059   2.866  0.7940 -0.0695  0.3993
 4965SOL    MW419594   2.379   2.026   2.786 -0.1847 -0.3797  0.0801
 4966SOL     OW19595   5.846   2.062   1.127  0.5738  0.0428 -0.7436
 4966SOL    HW219596   5.894   2.056   1.210  0.5148  1.2191 -0.6016
 4966SOL    HW319597   5.755   2.044   1.150  0.1959  2.3382 -0.1221
 4966SOL    MW419598   5.841   2.059   1.141 -0.0353 -0.5537 -0.3239
 4967SOL     OW19599   4.913   1.657   4.700  0.1963 -0.2953  0.0776
 4967SOL    HW219600   4.976   1.699   4.641  1.6258 -0.7469  1.2319
 4967SOL    HW319601   4.890   1.725   4.763  0.0076 -0.3136  0.0296
 4967SOL    MW419602   4.918   1.672   4.701  0.1396 -0.1560 -0.0896
 4968SOL     OW19603   6.277   3.436   0.781  0.0530 -0.2874  0.1394
 4968SOL    HW219604   6.315   3.485   0.854  0.0762  1.1497 -0.7917
 4968SOL    HW319605   6.201   3.392   0.819 -2.0462  3.1926  0.3956
 4968SOL    MW419606   6.272   3.437   0.796  0.0106  0.1998 -0.0664
 4969SOL     OW19607   2.639   5.135   3.749  0.0348 -0.5679 -0.6956
 4969SOL    HW219608   2.587   5.056   3.758  1.4591 -1.4473  0.1366
 4969SOL    HW319609   2.587   5.203   3.793  0.3986 -1.8273  1.8596
 4969SOL    MW419610   2.625   5.134   3.756  0.0306 -0.3577 -0.2206
 4970SOL     OW19611   2.844   3.183   2.898  0.2527 -0.0936  0.1542
 4970SOL    HW219612   2.844   3.091   2.924 -0.1039 -0.7014 -1.8345
 4970SOL    HW319613   2.828   3.181   2.804  1.1832  1.9687 -0.0995
 4970SOL    MW419614   2.842   3.170   2.889 -0.4097 -0.1215 -0.6215
 4971SOL     OW19615   5.764   1.438   5.567 -0.9787  0.5284 -0.3957
 4971SOL    HW219616   5.724   1.362   5.525 -1.0869 -0.0153  0.6525
 4971SOL    HW319617   5.697   1.506   5.561 -1.7171 -0.0875  0.4795
 4971SOL    MW419618   5.750   1.437   5.561  0.5325  0.4592 -0.4564
 4972SOL     OW19619   0.964   3.858   0.804 -0.2529 -0.4275  0.0334
 4972SOL    HW219620   1.047   3.832   0.844 -0.2563 -0.4227  0.0436
 4972SOL    HW319621   0.897   3.808   0.850 -0.4962  1.2545  1.6446
 4972SOL    MW419622   0.966   3.848   0.815 -0.4172 -0.3206  0.0493
 4973SOL     OW19623   5.883   4.410   4.769  0.3527  0.2611 -0.5126
 4973SOL    HW219624   5.870   4.357   4.848 -0.2807  0.8874 -0.1897
 4973SOL    HW319625   5.796   4.444   4.748  0.7231  1.0440 -0.8031
 4973SOL    MW419626   5.870   4.408   4.777  0.0828 -0.4560 -0.0716
 4974SOL     OW19627   6.259   5.255   2.278  0.0667  0.0649  0.0319
 4974SOL    HW219628   6.246   5.238   2.185  1.4366  2.1098 -0.5817
 4974SOL    HW319629   6.178   5.223   2.319 -1.3884  0.8035 -2.0765
 4974SOL    MW419630   6.246   5.249   2.271  0.1519  0.0676 -0.4163
 4975SOL     OW19631   5.921   3.832   1.598  0.0200 -0.2623 -0.6235
 4975SOL    HW219632   5.860   3.760   1.580  0.3088 -0.4328 -0.9522
 4975SOL    HW319633   5.992   3.820   1.534  0.9073 -0.6610  0.3942
 4975SOL    MW419634   5.923   3.821   1.587 -0.3056  0.3154  0.0681
 4976SOL     OW19635   5.803   1.262   0.524 -0.4097  0.0052  0.2583
 4976SOL    HW219636   5.770   1.179   0.558 -1.1014  1.0501  2.2621
 4976SOL    HW319637   5.727   1.301   0.480 -1.1445  1.1227  2.3986
 4976SOL    MW419638   5.788   1.256   0.522 -0.1348  0.3005  0.9763
 4977SOL     OW19639   4.565   6.249   5.459 -0.2309  0.2525 -0.5304
 4977SOL    HW219640   4.562   6.260   5.554 -1.1812 -0.1406 -0.5122
 4977SOL    HW319641   4.536   6.160   5.444  0.6096  0.0697 -1.1575
 4977SOL    MW419642   4.561   6.239   5.470  0.1524  0.2753  0.5658
 4978SOL     OW19643   2.869   5.837   0.947 -0.0112 -0.1705 -0.2814
 4978SOL    HW219644   2.896   5.755   0.906  0.0756 -0.6409  0.6791
 4978SOL    HW319645   2.798   5.812   1.006  0.7021  0.2436  0.7968
 4978SOL    MW419646   2.863   5.823   0.950 -0.0551  0.6502 -0.8814
 4979SOL     OW19647   0.309   6.320   4.711 -0.1061 -0.2726 -0.1042
 4979SOL    HW219648   0.362   6.372   4.773 -1.3142  0.1080  0.6358
 4979SOL    HW319649   0.356   6.237   4.704 -0.2857 -0.5946  1.8883
 4979SOL    MW419650   0.323   6.316   4.718 -0.6777  0.6267 -0.5048
 4980SOL     OW19651   3.318   3.328   0.834 -0.5400 -0.9439 -0.1979
 4980SOL    HW219652   3.233   3.359   0.866 -0.8751 -1.5435 -0.4820
 4980SOL    HW319653   3.370   3.407   0.821 -0.9040 -0.6008  0.4065
 4980SOL    MW419654   3.314   3.342   0.837 -0.6307  0.1086 -0.5653
 4981SOL     OW19655   3.389   5.925   3.708  0.1553 -0.2890 -0.2040
 4981SOL    HW219656   3.376   5.924   3.803 -0.6590  2.7360 -0.1733
 4981SOL    HW319657   3.321   5.865   3.674  0.2066 -1.1002  1.0601
 4981SOL    MW419658   3.378   5.917   3.716 -0.4304  0.0946 -0.6175
 4982SOL     OW19659   5.027   3.851   6.277 -0.3466  0.5333  0.2802
 4982SOL    HW219660   4.937   3.885   6.280 -0.6434 -0.2601  0.9031
 4982SOL    HW319661   5.069   3.886   6.355 -0.2506  0.5281  0.2314
 4982SOL    MW419662   5.020   3.860   6.288  0.3384  0.4967 -0.0477
 4983SOL     OW19663   3.507   1.336   6.258 -0.1040  0.0134  0.3577
 4983SOL    HW219664   3.586   1.390   6.255  0.3474 -0.6184  0.7068
 4983SOL    HW319665   3.435   1.399   6.262  0.4439  0.5919  1.5828
 4983SOL    MW419666   3.508   1.351   6.258  0.2449 -0.3242  0.2533
 4984SOL     OW19667   4.475   4.440   2.703 -0.1980 -0.4127 -0.1992
 4984SOL    HW219668   4.500   4.497   2.630  0.7892 -1.0984 -0.4051
 4984SOL    HW319669   4.454   4.356   2.662 -2.2184 -0.0857  0.0352
 4984SOL    MW419670   4.475   4.436   2.688 -0.3568  0.1763  0.5389
 4985SOL     OW19671   5.555   3.135   0.549 -0.0185 -0.3965 -0.0359
 4985SOL    HW219672   5.462   3.116   0.536 -0.2067  1.0435 -0.9241
 4985SOL    HW319673   5.568   3.222   0.511  1.7487 -0.6772 -0.1593
 4985SOL    MW419674   5.544   3.144   0.542  0.4292 -0.0168  0.3623
 4986SOL     OW19675   1.581   6.408   4.765  0.0181  0.4280 -0.5572
 4986SOL    HW219676   1.616   6.451   4.843  0.6093 -1.8249  0.4876
 4986SOL    HW319677   1.501   6.365   4.796  0.5370 -0.9222 -1.0386
 4986SOL    MW419678   1.575   6.408   4.780 -0.8541  0.5393  0.4530
 4987SOL     OW19679   3.395   0.671   3.221 -0.2703  0.0444  0.6310
 4987SOL    HW219680   3.442   0.639   3.298  1.9875  0.6830 -0.3973
 4987SOL    HW319681   3.399   0.598   3.158  2.3435  1.1397 -0.6433
 4987SOL    MW419682   3.402   0.657   3.223  0.8132  0.3236 -0.6303
 4988SOL     OW19683   1.737   1.692   4.253  0.0765  0.7993 -0.5420
 4988SOL    HW219684   1.769   1.757   4.189 -0.1992  2.0114  0.5138
 4988SOL    HW319685   1.673   1.640   4.205  1.0616  0.6233 -1.7065
 4988SOL    MW419686   1.733   1.694   4.238  0.0417  0.4027  0.0338
 4989SOL     OW19687   2.337   3.607   2.703 -0.7717  0.5657  0.0120
 4989SOL    HW219688   2.348   3.591   2.797  0.4723  0.9885 -0.0449
 4989SOL    HW319689   2.289   3.531   2.671 -1.4707  0.5516  1.0326
 4989SOL    MW419690   2.332   3.595   2.711 -0.2342 -0.0309  0.0657
 4990SOL     OW19691   3.930   0.079   3.170  0.2689 -0.0317 -0.1263
 4990SOL    HW219692   3.866   0.053   3.237  0.0757  1.2901  0.2394
 4990SOL    HW319693   3.984   0.144   3.214  1.6646 -0.8698 -0.5527
 4990SOL    MW419694   3.928   0.084   3.185 -0.4066 -0.2956 -0.1125
 4991SOL     OW19695   0.982   4.742   3.880 -0.6512  0.5429  0.5443
 4991SOL    HW219696   0.974   4.815   3.819 -1.1124  0.1823  0.1596
 4991SOL    HW319697   0.896   4.736   3.921 -1.3945 -1.2333 -1.1256
 4991SOL    MW419698   0.970   4.751   3.877 -0.2938 -0.4822 -0.4196
 4992SOL     OW19699   1.549   1.836   2.114 -0.1052 -0.4090 -0.0606
 4992SOL    HW219700   1.542   1.828   2.019  0.6066  1.2334 -0.2923
 4992SOL    HW319701   1.609   1.767   2.140  1.3928  0.4466 -1.1094
 4992SOL    MW419702   1.556   1.826   2.105  0.5341 -0.9375 -0.4857
 4993SOL     OW19703   5.347   0.940   2.669 -0.2138 -0.2173 -0.7197
 4993SOL    HW219704   5.293   0.970   2.596 -1.2446  0.5518  0.3169
 4993SOL    HW319705   5.292   0.879   2.717 -0.3345  0.8397  0.5513
 4993SOL    MW419706   5.333   0.936   2.666 -0.2274  0.1012  0.4473
 4994SOL     OW19707   4.100   3.376   0.147 -0.2392 -0.0302 -0.0870
 4994SOL    HW219708   4.185   3.418   0.156  0.3410 -1.2212  0.3161
 4994SOL    HW319709   4.087   3.369   0.053 -0.4625  1.2301 -0.1633
 4994SOL    MW419710   4.109   3.380   0.136  0.3976  0.1943 -0.0434
 4995SOL     OW19711   4.528   5.105   5.252 -0.3223  0.1442  0.5325
 4995SOL    HW219712   4.516   5.095   5.157  1.9888  0.4880  0.1503
 4995SOL    HW319713   4.571   5.025   5.279 -1.3129 -0.1120  1.3933
 4995SOL    MW419714   4.532   5.093   5.243  0.3963  0.0465 -0.4445
 4996SOL     OW19715   3.224   1.468   6.236  0.3293 -0.2049  0.1675
 4996SOL    HW219716   3.193   1.405   6.300  1.4975 -0.4294  0.5290
 4996SOL    HW319717   3.167   1.545   6.248 -0.9821 -1.0988 -0.1603
 4996SOL    MW419718   3.213   1.470   6.246  0.6092  0.4091 -0.2956
 4997SOL     OW19719   2.268   3.004   3.328 -0.3746  0.1104  0.1228
 4997SOL    HW219720   2.196   3.058   3.359  0.7673  2.7824 -1.4829
 4997SOL    HW319721   2.335   3.010   3.397 -0.7710 -0.4379  0.5631
 4997SOL    MW419722   2.268   3.012   3.341  0.0599 -0.3038 -0.0867
 4998SOL     OW19723   1.863   4.079   4.840 -0.2131 -0.1938  0.4486
 4998SOL    HW219724   1.927   4.082   4.911 -0.4261 -0.3937  0.6509
 4998SOL    HW319725   1.915   4.065   4.761 -0.1350 -2.2797  0.8224
 4998SOL    MW419726   1.878   4.078   4.839  0.2644 -0.2267  0.0123
 4999SOL     OW19727   6.009   1.394   0.813  0.4017  0.3055  0.1357
 4999SOL    HW219728   6.065   1.370   0.739  0.3492  2.1132 -0.5487
 4999SOL    HW319729   5.928   1.346   0.798  0.4121  0.6012 -0.9606
 4999SOL    MW419730   6.006   1.385   0.801 -0.4025  0.0329  0.0855
 5000SOL     OW19731   0.178   0.533   4.795  0.2004 -0.4614  0.2610
 5000SOL    HW219732   0.122   0.603   4.763  0.8092 -0.0408  0.1044
 5000SOL    HW319733   0.178   0.467   4.725 -2.2639 -1.7500  1.3432
 5000SOL    MW419734   0.171   0.533   4.782  0.0475 -0.7229 -0.2691
 5001SOL     OW19735   0.337   2.175   2.517  0.6506  0.3382 -0.1111
 5001SOL    HW219736   0.250   2.211   2.538  0.0182  0.9318 -3.1945
 5001SOL    HW319737   0.398   2.233   2.562 -0.4849  0.0273  1.9754
 5001SOL    MW419738   0.333   2.187   2.526 -0.4280  0.2547 -0.4705
 5002SOL     OW19739   1.792   2.993   6.119  0.4073 -0.6310 -0.0809
 5002SOL    HW219740   1.799   2.998   6.215 -3.5593 -0.2927  0.3652
 5002SOL    HW319741   1.807   3.083   6.090  0.7592 -0.5613  0.3005
 5002SOL    MW419742   1.795   3.006   6.128  0.0477 -0.5451 -0.2044
 5003SOL     OW19743   3.317   4.022   0.743 -0.3812  0.1250  0.5286
 5003SOL    HW219744   3.275   4.103   0.773 -0.9463 -0.6326  1.8651
 5003SOL    HW319745   3.411   4.039   0.754 -0.3222  1.4272 -1.4439
 5003SOL    MW419746   3.324   4.035   0.748 -0.1970 -0.5268 -0.1447
 5004SOL     OW19747   2.062   6.017   2.697 -0.5038 -0.0234 -0.0669
 5004SOL    HW219748   2.085   6.082   2.631 -3.5453 -1.5887 -2.9539
 5004SOL    HW319749   2.138   5.960   2.703  0.0877  0.5406 -1.7518
 5004SOL    MW419750   2.075   6.018   2.689  0.5234 -0.3376  0.4527
 5005SOL     OW19751   3.192   3.904   0.288  0.0322 -0.6633  0.9245
 5005SOL    HW219752   3.218   3.960   0.361 -1.3703  0.2342  0.7772
 5005SOL    HW319753   3.169   3.820   0.329 -0.2543 -0.3310  1.4498
 5005SOL    MW419754   3.192   3.900   0.303  0.6732  0.9992 -0.1621
 5006SOL     OW19755   6.091   5.832   2.907  0.0462  0.9494 -0.2035
 5006SOL    HW219756   6.097   5.806   2.815  0.5662  0.9700 -0.1751
 5006SOL    HW319757   6.070   5.926   2.904 -1.0036  0.7276 -0.3010
 5006SOL    MW419758   6.089   5.841   2.894  0.6748  0.4789  0.8378
 5007SOL     OW19759   4.280   3.839   6.386 -0.2124 -0.3266 -0.0440
 5007SOL    HW219760   4.328   3.870   6.310  2.2568  1.1000  1.9543
 5007SOL    HW319761   4.199   3.890   6.386  1.1263  1.8821 -0.0680
 5007SOL    MW419762   4.275   3.850   6.376  0.1340  0.7553 -0.1386
 5008SOL     OW19763   1.808   4.150   3.987 -0.0416  0.1303  0.3256
 5008SOL    HW219764   1.732   4.120   3.935 -0.5720  0.8403  0.6759
 5008SOL    HW319765   1.789   4.242   4.005  0.4779  0.0734  1.1901
 5008SOL    MW419766   1.795   4.158   3.982  0.0472 -0.3118  0.0623
 5009SOL     OW19767   3.773   2.185   5.975  0.6696 -0.1340 -0.1406
 5009SOL    HW219768   3.816   2.256   5.929  0.2716 -1.3664 -2.5708
 5009SOL    HW319769   3.837   2.157   6.041  0.4578  3.0008  1.5826
 5009SOL    MW419770   3.787   2.191   5.978  0.0144 -0.3123 -0.0599
 5010SOL     OW19771   3.144   4.532   6.222  0.0056 -0.2783 -0.2711
 5010SOL    HW219772   3.179   4.618   6.198  2.3752 -1.4217 -1.2218
 5010SOL    HW319773   3.213   4.491   6.275 -0.9258 -1.7232 -0.1120
 5010SOL    MW419774   3.158   4.538   6.226 -0.6365 -0.1495 -0.4453
 5011SOL     OW19775   0.194   5.364   2.005  0.5248  0.6030 -0.4364
 5011SOL    HW219776   0.271   5.310   2.023 -0.5633 -0.6982  0.5307
 5011SOL    HW319777   0.151   5.322   1.931  0.6406  1.2186 -0.8562
 5011SOL    MW419778   0.199   5.351   1.998  0.2325  0.4421 -0.3009
 5012SOL     OW19779   4.623   6.250   2.030  0.2829  0.2746  0.4053
 5012SOL    HW219780   4.669   6.323   2.070 -0.6978  0.3225  1.5056
 5012SOL    HW319781   4.693   6.194   1.995  1.1836  0.3742  1.9495
 5012SOL    MW419782   4.638   6.252   2.030  0.2393 -0.0131  0.5534
 5013SOL     OW19783   5.138   5.700   2.666  0.2311 -0.0326  0.3005
 5013SOL    HW219784   5.098   5.787   2.654 -0.8755 -0.4832  0.6394
 5013SOL    HW319785   5.080   5.641   2.618  0.9557 -0.5983  0.1158
 5013SOL    MW419786   5.125   5.704   2.658 -0.3423 -0.1955  0.0715
 5014SOL     OW19787   6.062   3.542   3.596 -0.0884 -0.4548  0.3260
 5014SOL    HW219788   6.002   3.612   3.573  2.4257  1.7280 -0.0290
 5014SOL    HW319789   6.034   3.468   3.541 -1.1416  1.1176 -1.3903
 5014SOL    MW419790   6.050   3.541   3.586  0.1454  0.1717  0.1891
 5015SOL     OW19791   4.831   1.425   2.300 -0.5569 -0.5642  0.0328
 5015SOL    HW219792   4.770   1.352   2.289 -1.3130 -0.1214  1.1143
 5015SOL    HW319793   4.816   1.480   2.224 -0.3920 -1.2421 -0.4971
 5015SOL    MW419794   4.821   1.423   2.289 -0.2590  0.5972  0.7632
 5016SOL     OW19795   0.167   6.211   2.118 -0.1428 -0.3787 -0.5990
 5016SOL    HW219796   0.235   6.273   2.144 -0.4088  0.4946 -1.8770
 5016SOL    HW319797   0.163   6.148   2.190  1.2580  0.1650 -0.0049
 5016SOL    MW419798   0.175   6.211   2.131  0.0343 -0.1584  0.3073
 5017SOL     OW19799   0.823   3.474   5.068 -0.3586 -0.2051 -0.5193
 5017SOL    HW219800   0.788   3.396   5.111 -0.5881 -0.4107 -1.0690
 5017SOL    HW319801   0.840   3.446   4.978  2.4306 -0.4899 -0.0006
 5017SOL    MW419802   0.821   3.460   5.062 -0.5220 -0.4553  0.0490
 5018SOL     OW19803   0.342   2.943   5.157  0.0794  0.1980 -0.5927
 5018SOL    HW219804   0.425   2.907   5.189  0.0286  0.6149  0.0244
 5018SOL    HW319805   0.276   2.909   5.218 -0.3182 -0.7492 -1.5190
 5018SOL    MW419806   0.344   2.933   5.169  0.0037  0.2637 -0.5650
 5019SOL     OW19807   5.798   1.772   0.085  0.4125 -0.0700  0.2223
 5019SOL    HW219808   5.821   1.740  -0.002 -1.5047  1.1976 -0.8265
 5019SOL    HW319809   5.717   1.726   0.107  1.6271 -1.4509  2.0140
 5019SOL    MW419810   5.790   1.762   0.076  0.2868  0.0662  0.1824
 5020SOL     OW19811   3.599   2.721   4.467  0.0246  0.5444  0.4977
 5020SOL    HW219812   3.531   2.770   4.421  0.1716 -0.9923 -1.4645
 5020SOL    HW319813   3.680   2.769   4.448 -0.1245  0.7936  0.4850
 5020SOL    MW419814   3.601   2.734   4.459 -0.0304  0.1931  0.2802
 5021SOL     OW19815   0.778   3.774   3.264  0.5925  0.2363  0.5362
 5021SOL    HW219816   0.691   3.742   3.239  0.3082  0.7882  0.8041
 5021SOL    HW319817   0.762   3.829   3.341  1.4305 -1.4145  1.9830
 5021SOL    MW419818   0.764   3.777   3.271 -0.1039  0.5247  0.1745
 5022SOL     OW19819   1.834   0.826   4.807 -0.1858  0.1859  0.6379
 5022SOL    HW219820   1.829   0.750   4.865 -0.1943  0.6476  1.2678
 5022SOL    HW319821   1.786   0.801   4.729  0.6393 -0.8037  0.4240
 5022SOL    MW419822   1.827   0.813   4.805 -0.4611  0.5444 -0.5461
 5023SOL     OW19823   3.442   4.066   5.933  0.1021  0.0158  0.0562
 5023SOL    HW219824   3.494   4.051   6.012  1.4851  1.6999 -0.4618
 5023SOL    HW319825   3.375   4.129   5.958 -0.4815 -0.6655  0.2471
 5023SOL    MW419826   3.440   4.072   5.946 -0.2921 -0.2278  0.2197
 5024SOL     OW19827   2.420   5.697   1.149 -0.5405 -0.0360 -0.2621
 5024SOL    HW219828   2.353   5.654   1.202  0.0450 -0.9400 -0.2257
 5024SOL    HW319829   2.377   5.775   1.114 -0.8974  0.6913  1.6726
 5024SOL    MW419830   2.405   5.701   1.152 -0.2167 -0.5994  0.2467
 5025SOL     OW19831   5.929   2.003   3.779  0.1180 -0.0470 -0.0282
 5025SOL    HW219832   5.846   2.051   3.775 -0.1651 -0.5560 -0.4019
 5025SOL    HW319833   5.989   2.062   3.825 -0.1996  0.6991 -0.5572
 5025SOL    MW419834   5.926   2.017   3.784 -0.1264  0.2758  0.2510
 5026SOL     OW19835   2.286   6.164   0.828 -0.1826 -0.4774  0.7903
 5026SOL    HW219836   2.213   6.224   0.841  0.5822  0.6020  0.1798
 5026SOL    HW319837   2.247   6.086   0.789 -1.0426 -0.0196  0.7319
 5026SOL    MW419838   2.271   6.162   0.825 -0.6280 -0.0552 -0.1684
 5027SOL     OW19839   4.524   4.519   1.794 -0.4606 -0.1343 -0.3380
 5027SOL    HW219840   4.444   4.567   1.817 -0.7125 -0.4952 -0.4506
 5027SOL    HW319841   4.534   4.454   1.863  0.1913  0.4386  0.1175
 5027SOL    MW419842   4.515   4.517   1.806  0.0222 -0.1701 -0.1730
 5028SOL     OW19843   2.944   0.278   2.689  0.1281 -0.1979 -0.2350
 5028SOL    HW219844   2.947   0.320   2.603 -0.1247 -1.4738 -0.8879
 5028SOL    HW319845   3.028   0.233   2.697 -1.3773 -3.5026 -1.6464
 5028SOL    MW419846   2.955   0.278   2.679  0.4297 -0.2526  0.2655
 5029SOL     OW19847   0.013   1.041   0.580  0.5175 -0.4316  0.1855
 5029SOL    HW219848  -0.059   1.071   0.524  0.4640 -1.1230 -0.1178
 5029SOL    HW319849   0.089   1.039   0.523  1.0482  1.3953  0.7755
 5029SOL    MW419850   0.013   1.045   0.565  0.3396 -0.2597 -0.0705
 5030SOL     OW19851   3.905   5.848   6.103 -0.3506 -0.0324 -0.4318
 5030SOL    HW219852   3.924   5.942   6.113  0.1373  0.1705 -2.7285
 5030SOL    HW319853   3.992   5.807   6.100 -0.5730 -0.6853  1.2883
 5030SOL    MW419854   3.919   5.855   6.104 -0.0275 -0.1890 -0.4939
 5031SOL     OW19855   1.548   2.521   3.636 -0.1398 -0.2654  0.1924
 5031SOL    HW219856   1.612   2.525   3.707  1.7527  0.9221 -1.4572
 5031SOL    HW319857   1.530   2.428   3.624  0.3588 -0.5456  1.4679
 5031SOL    MW419858   1.554   2.509   3.644  0.2708  0.4155  0.2723
 5032SOL     OW19859   5.057   3.628   5.390 -0.3610 -0.0858  0.1333
 5032SOL    HW219860   5.068   3.646   5.297 -1.1847 -0.6266 -0.0817
 5032SOL    HW319861   4.974   3.580   5.396  0.0853 -0.7927  1.0480
 5032SOL    MW419862   5.047   3.624   5.379 -0.6733  0.7393  0.1347
 5033SOL     OW19863   2.149   4.388   1.076 -0.0533 -0.0423  0.5814
 5033SOL    HW219864   2.104   4.310   1.043  1.8297 -0.9417 -0.0622
 5033SOL    HW319865   2.153   4.447   1.001  2.3977 -1.2337 -0.3634
 5033SOL    MW419866   2.144   4.385   1.062  0.2192  0.0021  0.0690
 5034SOL     OW19867   2.642   0.009   4.008 -0.1462 -0.7180  0.0831
 5034SOL    HW219868   2.566  -0.003   4.064 -0.5783 -0.9845 -0.5418
 5034SOL    HW319869   2.627  -0.051   3.935 -0.9042  1.4297 -1.6540
 5034SOL    MW419870   2.630  -0.001   4.005  0.0722  0.7249 -0.0396
 5035SOL     OW19871   5.776   3.572   4.636  0.3310  0.4024  0.0874
 5035SOL    HW219872   5.734   3.496   4.675  0.7322  0.4022  0.5149
 5035SOL    HW319873   5.738   3.647   4.682  1.5290  0.3630  1.2032
 5035SOL    MW419874   5.765   3.572   4.647  0.0641 -0.4457  0.5004
 5036SOL     OW19875   0.935   1.558   2.081 -0.1717 -0.0968 -0.0695
 5036SOL    HW219876   0.850   1.602   2.081 -1.4695 -2.4694  0.6936
 5036SOL    HW319877   0.994   1.620   2.126 -1.4916  1.4941 -0.4305
 5036SOL    MW419878   0.932   1.572   2.087 -0.4392 -0.1429  0.0281
 5037SOL     OW19879   1.750   1.589   0.861  0.0648  0.1059  0.0590
 5037SOL    HW219880   1.677   1.543   0.819 -0.1549 -0.3813  0.9442
 5037SOL    HW319881   1.826   1.533   0.845 -0.6167 -2.0634  3.3044
 5037SOL    MW419882   1.751   1.576   0.854  0.3108  0.6544  0.0108
 5038SOL     OW19883   4.988   2.728   3.483  0.5208 -0.1134  0.0890
 5038SOL    HW219884   5.007   2.642   3.521  1.6442  0.6256  1.2814
 5038SOL    HW319885   5.037   2.729   3.401 -1.3760 -1.4607 -1.1538
 5038SOL    MW419886   4.997   2.717   3.477 -0.1259 -0.1754 -0.5365
 5039SOL     OW19887   5.974   1.612   0.980 -0.1727  0.2447 -0.1033
 5039SOL    HW219888   6.026   1.546   0.934  1.9846  0.3254  2.0230
 5039SOL    HW319889   5.936   1.666   0.910  1.7570 -0.4763 -1.8062
 5039SOL    MW419890   5.976   1.610   0.964 -0.2408  0.1345 -0.6776
 5040SOL     OW19891   4.906   2.383   6.315  0.0337  0.2836 -0.7101
 5040SOL    HW219892   4.992   2.407   6.282 -0.1863  0.0733 -1.4515
 5040SOL    HW319893   4.907   2.411   6.406  0.7637  0.5884 -0.8040
 5040SOL    MW419894   4.917   2.390   6.323 -0.5303 -0.8620 -0.0767
 5041SOL     OW19895   3.029   1.963   0.418 -0.0895  0.3254 -0.3501
 5041SOL    HW219896   3.117   1.927   0.433 -0.9955 -2.2862 -0.6662
 5041SOL    HW319897   3.016   1.954   0.323 -0.2958  1.8025 -0.4854
 5041SOL    MW419898   3.039   1.957   0.407  0.3084  0.2519  0.2807
 5042SOL     OW19899   2.719   1.781   3.089 -0.0670 -0.4545  0.3800
 5042SOL    HW219900   2.786   1.824   3.036 -0.0267 -0.9426  0.0323
 5042SOL    HW319901   2.637   1.798   3.042 -0.0328 -0.8762  0.1635
 5042SOL    MW419902   2.717   1.789   3.076  0.0196  0.1575  0.3781
 5043SOL     OW19903   1.990   1.668   5.578  0.1929 -0.1846  0.5329
 5043SOL    HW219904   2.004   1.605   5.648  0.2465 -0.6868  0.0716
 5043SOL    HW319905   2.071   1.668   5.527  0.5902  1.0122  1.1129
 5043SOL    MW419906   2.002   1.660   5.580  0.2537  0.1705 -0.4792
 5044SOL     OW19907   1.390   4.434   1.308 -0.3640  0.6170 -0.2736
 5044SOL    HW219908   1.442   4.495   1.359 -0.5355  0.5519 -0.0198
 5044SOL    HW319909   1.442   4.418   1.229  0.3083  0.0568  0.2680
 5044SOL    MW419910   1.404   4.440   1.304 -0.3596  0.0662 -0.1296
 5045SOL     OW19911   3.187   5.443   3.229  0.1251  0.2138 -0.2980
 5045SOL    HW219912   3.104   5.473   3.266 -0.1041 -0.4398 -0.2552
 5045SOL    HW319913   3.163   5.408   3.143  0.5557  1.1495 -0.7999
 5045SOL    MW419914   3.173   5.442   3.223  0.3369 -0.4568  0.2538
 5046SOL     OW19915   0.056   2.132   3.793  0.1987  0.0953 -0.7209
 5046SOL    HW219916   0.000   2.055   3.803  1.3002 -0.6638 -0.1930
 5046SOL    HW319917   0.088   2.126   3.703  2.5061 -1.6676  0.1436
 5046SOL    MW419918   0.053   2.121   3.782 -0.4124 -0.0862  0.3682
 5047SOL     OW19919   5.174   2.824   5.385 -0.4541  0.4624  0.2358
 5047SOL    HW219920   5.257   2.779   5.372 -0.8586 -0.4212  0.6762
 5047SOL    HW319921   5.107   2.759   5.366 -1.0575  1.1709 -0.1294
 5047SOL    MW419922   5.176   2.810   5.381 -0.2839  0.2388  0.5415
 5048SOL     OW19923   5.736   0.797   1.146  0.1218 -0.2248 -0.2402
 5048SOL    HW219924   5.820   0.784   1.103  1.1095  0.8733  1.2520
 5048SOL    HW319925   5.697   0.871   1.100  0.1396 -0.5013 -0.7010
 5048SOL    MW419926   5.742   0.805   1.134  0.0861  0.0405 -0.7819
 5049SOL     OW19927   5.609   6.276   5.712 -0.2354  0.3122 -0.0857
 5049SOL    HW219928   5.636   6.355   5.760  0.1160 -0.4374  1.0032
 5049SOL    HW319929   5.679   6.261   5.648  0.9223 -0.4076  1.2874
 5049SOL    MW419930   5.622   6.284   5.710 -0.0532 -0.1843  0.5700
 5050SOL     OW19931   2.890   2.287   2.778  0.4518 -0.3612  0.4720
 5050SOL    HW219932   2.809   2.304   2.731  0.2755 -0.6820  0.6496
 5050SOL    HW319933   2.865   2.223   2.846  0.9026 -0.6538  0.3685
 5050SOL    MW419934   2.876   2.281   2.781  0.0654 -0.5717  1.0035
 5051SOL     OW19935   0.044   4.425   3.948 -0.4400  0.0914 -0.3082
 5051SOL    HW219936   0.070   4.380   4.028  1.9973  0.6825 -0.6686
 5051SOL    HW319937   0.019   4.355   3.887  2.7796 -0.8875 -0.7022
 5051SOL    MW419938   0.045   4.410   3.950  0.0716 -0.5761 -0.0194
 5052SOL     OW19939   0.256   5.450   5.766 -0.2567 -0.1255  0.1379
 5052SOL    HW219940   0.337   5.401   5.776  0.8002  1.7189  0.8244
 5052SOL    HW319941   0.190   5.382   5.751  1.5234 -1.6259 -1.4704
 5052SOL    MW419942   0.258   5.434   5.765  0.3147 -0.8467  0.5310
 5053SOL     OW19943   0.093   5.447   3.770  0.0396 -0.1687 -0.0529
 5053SOL    HW219944   0.132   5.371   3.726  2.3389  0.7750  0.1888
 5053SOL    HW319945   0.092   5.422   3.863  3.2694  0.9081  0.4186
 5053SOL    MW419946   0.098   5.434   3.776 -0.4046  0.3162  0.0341
 5054SOL     OW19947   5.059   1.940   0.605  0.5908 -0.1565 -0.3204
 5054SOL    HW219948   5.118   2.015   0.612  2.7301 -1.6947 -1.1249
 5054SOL    HW319949   5.037   1.918   0.696  0.3558  1.0702 -0.0537
 5054SOL    MW419950   5.064   1.947   0.618  0.6767  0.0488 -0.7181
 5055SOL     OW19951   3.490   0.438   5.143  0.7708  0.2403  0.2695
 5055SOL    HW219952   3.536   0.412   5.223  0.6440 -2.5568 -0.4649
 5055SOL    HW319953   3.544   0.401   5.072 -0.5561  0.2668 -0.7801
 5055SOL    MW419954   3.503   0.430   5.144  0.1688  0.3327 -0.1489
 5056SOL     OW19955   0.069   1.522   3.765  0.1098  0.6054  0.1313
 5056SOL    HW219956   0.060   1.435   3.805 -1.2198  0.1263 -1.0953
 5056SOL    HW319957  -0.018   1.540   3.728  0.3339  2.5033  0.4274
 5056SOL    MW419958   0.056   1.513   3.765 -0.1195  0.1830  0.0536
 5057SOL     OW19959   4.784   2.555   4.750  0.4326  0.4507 -0.2590
 5057SOL    HW219960   4.845   2.611   4.798  0.7974 -0.9739  1.0422
 5057SOL    HW319961   4.707   2.550   4.807  1.4755 -2.5347  1.0855
 5057SOL    MW419962   4.782   2.562   4.764 -0.0669 -0.0652 -0.0031
 5058SOL     OW19963   1.213   2.876   5.820 -0.1353  0.2672 -0.2634
 5058SOL    HW219964   1.206   2.881   5.724 -0.0911  0.4321 -0.2584
 5058SOL    HW319965   1.268   2.951   5.844  3.8264 -2.3050 -0.5086
 5058SOL    MW419966   1.219   2.887   5.810 -0.0608 -0.5168 -0.1362
 5059SOL     OW19967   2.557   5.265   2.916  0.0384 -0.3341  0.2621
 5059SOL    HW219968   2.476   5.219   2.892  1.3169 -1.2873 -2.6643
 5059SOL    HW319969   2.589   5.302   2.833  3.0829 -0.7930  1.1207
 5059SOL    MW419970   2.550   5.264   2.902 -0.1992 -0.2429  0.2082
 5060SOL     OW19971   2.338   1.434   6.288 -0.0311 -0.3144 -0.6731
 5060SOL    HW219972   2.317   1.478   6.206 -2.2841 -0.8657 -0.4618
 5060SOL    HW319973   2.292   1.484   6.355  0.6195 -0.7021  0.0880
 5060SOL    MW419974   2.329   1.447   6.286 -0.6941  0.1204 -0.2756
 5061SOL     OW19975   1.249   4.496   0.636 -0.7680 -0.1695  0.0337
 5061SOL    HW219976   1.248   4.449   0.552 -2.0025 -0.2510  0.0746
 5061SOL    HW319977   1.339   4.526   0.645 -0.3452 -1.1046 -0.7979
 5061SOL    MW419978   1.260   4.494   0.626 -0.0702  0.0651 -0.5992
 5062SOL     OW19979   0.194   1.209   5.055 -0.0110 -0.1608 -0.2252
 5062SOL    HW219980   0.185   1.297   5.089  0.6697 -0.3584  0.4937
 5062SOL    HW319981   0.242   1.220   4.972 -1.1828  0.2630 -0.8677
 5062SOL    MW419982   0.199   1.222   5.048  0.0359 -0.3296  0.1672
 5063SOL     OW19983   1.283   2.407   3.879  0.4379  0.7243 -0.5094
 5063SOL    HW219984   1.237   2.459   3.814 -0.6721 -0.1656 -0.4488
 5063SOL    HW319985   1.216   2.354   3.920  1.2477  0.6632  0.8003
 5063SOL    MW419986   1.268   2.407   3.876 -0.5550 -0.1100  0.4574
 5064SOL     OW19987   2.433   2.982   5.546 -0.1205 -0.2524 -0.1684
 5064SOL    HW219988   2.451   3.013   5.458  1.8593 -0.0938  0.2470
 5064SOL    HW319989   2.438   2.887   5.540 -3.1769 -0.4771 -0.8161
 5064SOL    MW419990   2.436   2.974   5.534 -0.1670 -0.1509 -0.1721
 5065SOL     OW19991   0.946   5.509   1.232 -0.0077  0.3756  0.0019
 5065SOL    HW219992   0.860   5.469   1.245  0.4985 -0.9788 -0.6242
 5065SOL    HW319993   0.944   5.587   1.287 -0.6458 -1.0963  2.2048
 5065SOL    MW419994   0.934   5.514   1.241 -0.5157  0.2818  0.4360
 5066SOL     OW19995   0.587   3.857   5.815 -0.4720  0.6931  0.3612
 5066SOL    HW219996   0.661   3.809   5.852 -1.3256 -1.7226 -0.8461
 5066SOL    HW319997   0.532   3.877   5.891  0.0824  0.0535  0.9509
 5066SOL    MW419998   0.589   3.853   5.830  0.1601  0.0161  0.4374
 5067SOL     OW19999   2.718   3.215   0.008  0.1526 -0.6019 -0.0241
 5067SOL    HW220000   2.796   3.215   0.063  1.1273 -0.3040 -1.3548
 5067SOL    HW320001   2.747   3.253  -0.075 -1.8187  1.1385 -0.0005
 5067SOL    MW420002   2.732   3.220   0.004 -0.9207  0.0351 -0.0689
 5068SOL     OW20003   0.347   4.860   4.372  0.0775  0.4577  0.1010
 5068SOL    HW220004   0.406   4.933   4.391 -1.0976  1.4200  0.1396
 5068SOL    HW320005   0.404   4.783   4.374  0.9923  1.1065  2.1897
 5068SOL    MW420006   0.362   4.859   4.375 -1.1876 -0.0302  0.1196
 5069SOL     OW20007   4.981   1.503   0.395  0.3338  0.0029 -0.0745
 5069SOL    HW220008   4.976   1.445   0.319 -0.3258 -0.0442 -0.0081
 5069SOL    HW320009   4.923   1.576   0.373 -0.4541 -0.3765  0.6729
 5069SOL    MW420010   4.972   1.505   0.382  0.4732  0.0734  0.1639
 5070SOL     OW20011   5.686   0.669   5.882  1.0935  0.1044 -0.4679
 5070SOL    HW220012   5.725   0.757   5.881  1.2540  0.0361 -0.3144
 5070SOL    HW320013   5.749   0.615   5.835  1.3089 -0.0563 -0.0033
 5070SOL    MW420014   5.700   0.674   5.876 -0.1837  0.0795  0.2138
 5071SOL     OW20015   2.341   4.973   5.255 -0.1218 -0.1238 -0.2855
 5071SOL    HW220016   2.250   4.943   5.248 -0.3469  0.5191 -0.1899
 5071SOL    HW320017   2.394   4.896   5.235 -0.6535 -1.2395  2.1904
 5071SOL    MW420018   2.336   4.959   5.252  0.2018 -0.4291 -0.0627
 5072SOL     OW20019   3.389   5.959   5.280 -0.3565  0.1196  0.3318
 5072SOL    HW220020   3.448   5.962   5.355 -1.0011 -0.3953  0.8826
 5072SOL    HW320021   3.444   5.932   5.207  0.1957  0.1905  0.7148
 5072SOL    MW420022   3.404   5.956   5.280 -0.3131  0.2657  0.2819
 5073SOL     OW20023   4.745   1.722   0.777 -0.3122  0.0007  0.5648
 5073SOL    HW220024   4.714   1.688   0.860  0.2209  0.4521  0.9614
 5073SOL    HW320025   4.738   1.649   0.716 -0.2975 -0.4621  1.1148
 5073SOL    MW420026   4.740   1.708   0.780 -0.8378  0.3753  0.2021
 5074SOL     OW20027   6.057   0.491   2.952 -0.3938  0.2975  0.4454
 5074SOL    HW220028   5.967   0.460   2.945 -1.0657  2.2425 -0.0340
 5074SOL    HW320029   6.050   0.573   3.001  1.1737  0.2652  0.7607
 5074SOL    MW420030   6.044   0.498   2.958 -0.2431 -0.0593  0.3078
 5075SOL     OW20031   2.952   0.975   3.858 -0.0755  0.1807  0.2940
 5075SOL    HW220032   2.902   1.057   3.862 -1.5318 -0.7101  1.5806
 5075SOL    HW320033   2.895   0.913   3.813  0.3821 -0.5313  0.6612
 5075SOL    MW420034   2.938   0.978   3.853 -0.3290 -0.9587  0.5282
 5076SOL     OW20035   3.768   6.061   2.790  0.0373  0.2281 -0.6978
 5076SOL    HW220036   3.759   6.014   2.873 -1.2082 -0.4322 -1.1849
 5076SOL    HW320037   3.839   6.122   2.806  1.6500 -1.7011  0.0185
 5076SOL    MW420038   3.776   6.063   2.803 -0.2055 -0.1464 -0.7849
 5077SOL     OW20039   4.603   5.969   5.839 -0.0211 -0.2010  0.3267
 5077SOL    HW220040   4.583   5.877   5.819  0.1938 -0.3895  0.9801
 5077SOL    HW320041   4.692   5.968   5.873 -0.2787  0.1592  1.0292
 5077SOL    MW420042   4.612   5.957   5.841 -0.0194 -0.1345 -0.4850
 5078SOL     OW20043   2.157   2.841   6.285 -0.4600  0.4368 -0.1912
 5078SOL    HW220044   2.148   2.765   6.343  0.9363  0.2214 -0.2338
 5078SOL    HW320045   2.191   2.805   6.203  1.6745  1.2619  0.2727
 5078SOL    MW420046   2.160   2.826   6.282  0.3461 -0.2435  0.8400
 5079SOL     OW20047   4.588   4.719   2.972  0.0293 -0.0002 -0.2668
 5079SOL    HW220048   4.557   4.714   3.062 -1.0992 -0.6297 -0.6748
 5079SOL    HW320049   4.682   4.698   2.978  0.2698  1.2846  0.8951
 5079SOL    MW420050   4.597   4.716   2.984 -0.2512 -0.3818  0.1872
 5080SOL     OW20051   1.900   5.561   1.881  0.5789  0.0218  0.5152
 5080SOL    HW220052   1.888   5.472   1.915 -0.2652  0.1388  0.5510
 5080SOL    HW320053   1.845   5.615   1.938  0.4725  0.4518  0.0090
 5080SOL    MW420054   1.891   5.556   1.893 -0.3039 -0.7418  0.0525
 5081SOL     OW20055   4.307   5.408   6.036  0.4433 -0.1404 -0.6674
 5081SOL    HW220056   4.283   5.358   6.114 -0.1563  0.0438 -0.7283
 5081SOL    HW320057   4.355   5.345   5.981 -1.2372 -0.9856 -1.2245
 5081SOL    MW420058   4.310   5.393   6.039 -0.4629 -0.3028  0.2433
 5082SOL     OW20059   4.256   3.281   3.864 -0.6562 -0.8823  0.0765
 5082SOL    HW220060   4.221   3.193   3.870 -1.8739 -0.4435 -0.4426
 5082SOL    HW320061   4.272   3.295   3.771  0.5561 -0.9279  0.2585
 5082SOL    MW420062   4.254   3.272   3.853  0.1229  0.3011 -0.0286
 5083SOL     OW20063   0.306   5.969   2.701 -0.0265  0.0637  0.4822
 5083SOL    HW220064   0.253   6.030   2.752  1.7330  1.8664  0.2579
 5083SOL    HW320065   0.381   5.949   2.758  1.7047  1.6966 -1.0768
 5083SOL    MW420066   0.309   5.974   2.716 -0.7309 -0.2284  0.2588
 5084SOL     OW20067   0.554   0.460   0.341 -1.0048 -0.1985  0.0591
 5084SOL    HW220068   0.521   0.500   0.261  0.0532  1.8669  0.5732
 5084SOL    HW320069   0.649   0.468   0.335 -0.8372 -1.2706  0.9252
 5084SOL    MW420070   0.562   0.466   0.330  0.4612  0.3588  0.4147
 5085SOL     OW20071   2.607   0.430   5.306 -0.8877  0.1647  0.1520
 5085SOL    HW220072   2.694   0.468   5.301 -0.6539 -0.4371 -0.4913
 5085SOL    HW320073   2.548   0.499   5.274 -0.5304  0.1905 -0.4623
 5085SOL    MW420074   2.610   0.444   5.301  0.1826 -0.3151  0.5019
 5086SOL     OW20075   1.705   1.207   6.257  0.2495 -0.6525  0.1297
 5086SOL    HW220076   1.693   1.239   6.168 -0.1655 -1.0225  0.0530
 5086SOL    HW320077   1.684   1.282   6.313 -2.3149 -1.1800  0.0101
 5086SOL    MW420078   1.701   1.221   6.253  0.1016 -0.0724 -0.0298
 5087SOL     OW20079   0.671   1.814   2.989  0.3550  0.2968  0.0401
 5087SOL    HW220080   0.722   1.888   2.955 -2.9534  3.4142  1.1693
 5087SOL    HW320081   0.593   1.812   2.934  0.3843 -2.5990 -0.0408
 5087SOL    MW420082   0.668   1.824   2.977  0.2826  0.2206  0.1954
 5088SOL     OW20083   0.646   2.873   3.654 -0.0272  0.1296  0.3489
 5088SOL    HW220084   0.626   2.832   3.570 -0.5526  0.0707  0.4989
 5088SOL    HW320085   0.686   2.956   3.632  0.5097 -0.2069  0.0389
 5088SOL    MW420086   0.648   2.878   3.640  0.7411  0.4172  0.4041
 5089SOL     OW20087   4.293   2.410   0.647 -0.5645  0.0673  0.5092
 5089SOL    HW220088   4.297   2.504   0.667 -0.0432  0.2494 -0.4070
 5089SOL    HW320089   4.229   2.404   0.576 -0.1711 -0.2004  0.1749
 5089SOL    MW420090   4.285   2.422   0.640 -0.0442 -0.5075  0.0415
 5090SOL     OW20091   1.004   3.997   1.859 -0.4623 -0.2899  0.2812
 5090SOL    HW220092   1.017   4.091   1.846  1.8036 -0.3932  1.3397
 5090SOL    HW320093   1.003   3.986   1.954 -0.3822 -1.3756  0.1690
 5090SOL    MW420094   1.006   4.008   1.870 -0.3186  0.0190 -0.1580
 5091SOL     OW20095   2.446   6.286   0.179  0.7401 -0.0409  0.8736
 5091SOL    HW220096   2.354   6.281   0.154  1.0996  0.6238 -0.6356
 5091SOL    HW320097   2.480   6.199   0.159  0.8970  0.3206 -0.4907
 5091SOL    MW420098   2.438   6.274   0.173 -0.1204  0.4251 -0.5549
 5092SOL     OW20099   4.611   5.436   4.114 -1.0449 -0.0884  0.3395
 5092SOL    HW220100   4.660   5.395   4.042  0.6675 -1.7959  2.3355
 5092SOL    HW320101   4.537   5.377   4.128 -0.3740 -0.7732  1.1058
 5092SOL    MW420102   4.608   5.423   4.106  0.4021 -0.1758  0.5015
 5093SOL     OW20103   5.190   5.192   0.374  0.0081 -0.4569 -0.0665
 5093SOL    HW220104   5.217   5.281   0.351 -0.8569 -0.0969  0.2736
 5093SOL    HW320105   5.255   5.164   0.439  1.3295 -0.7642 -1.4422
 5093SOL    MW420106   5.202   5.200   0.380  0.3018 -0.5011  0.1817
 5094SOL     OW20107   0.883   0.343   2.760  0.0218 -1.0025 -0.5173
 5094SOL    HW220108   0.894   0.279   2.689 -0.8238 -0.9817 -0.6766
 5094SOL    HW320109   0.792   0.369   2.754 -0.2401 -1.5011  1.0214
 5094SOL    MW420110   0.873   0.338   2.750 -0.1019 -0.2354  0.0480
 5095SOL     OW20111   3.674   3.500   5.160  0.4346 -0.1730 -0.6372
 5095SOL    HW220112   3.581   3.483   5.168  0.3717 -0.5020 -1.8065
 5095SOL    HW320113   3.706   3.507   5.250 -0.5746 -0.7944 -0.2190
 5095SOL    MW420114   3.666   3.499   5.173 -0.2701 -0.7002 -0.0632
 5096SOL     OW20115   4.132   6.344   3.000  0.0118 -0.1211  0.6853
 5096SOL    HW220116   4.221   6.313   3.019  1.2177  1.9336 -1.2340
 5096SOL    HW320117   4.123   6.424   3.051  0.2623  1.0575 -1.0582
 5096SOL    MW420118   4.143   6.350   3.009 -0.6879  0.9799  0.9516
 5097SOL     OW20119   3.952   5.722   0.843  0.2322 -0.7776 -0.0317
 5097SOL    HW220120   3.907   5.747   0.924 -1.4528  0.4325 -1.2788
 5097SOL    HW320121   3.952   5.626   0.845  2.4499 -0.8439  2.5193
 5097SOL    MW420122   3.946   5.713   0.854 -0.4404  0.3623  0.1354
 5098SOL     OW20123   1.800   5.989   4.383 -0.6681  0.7176  0.3016
 5098SOL    HW220124   1.813   5.937   4.462 -0.3638  1.9979  1.1270
 5098SOL    HW320125   1.827   6.078   4.408  1.7439  0.7411 -1.8947
 5098SOL    MW420126   1.805   5.994   4.397  0.2558 -0.4557 -0.7043
 5099SOL     OW20127   2.134   0.759   5.678 -0.0733  0.6838 -0.1511
 5099SOL    HW220128   2.115   0.774   5.771 -0.5866  1.5540 -0.3915
 5099SOL    HW320129   2.209   0.815   5.659  0.1127  0.4100 -0.2438
 5099SOL    MW420130   2.142   0.768   5.688  0.0611  0.2528  0.3330
 5100SOL     OW20131   0.524   2.236   4.093 -0.0227 -0.3418 -0.1763
 5100SOL    HW220132   0.616   2.248   4.068  0.0965 -2.9633 -1.3678
 5100SOL    HW320133   0.528   2.171   4.164 -0.8184  2.1273  2.3010
 5100SOL    MW420134   0.537   2.229   4.099  0.5068 -0.4008 -0.6678
 5101SOL     OW20135   4.261   5.095   4.569  0.3866 -0.1012 -0.2543
 5101SOL    HW220136   4.179   5.117   4.612  1.3716  0.5311  1.3824
 5101SOL    HW320137   4.276   5.003   4.591 -0.3143 -0.5014 -1.3476
 5101SOL    MW420138   4.252   5.085   4.577 -0.5699  0.2456  0.7225
 5102SOL     OW20139   4.512   1.214   3.285 -0.2230 -0.0220 -0.2108
 5102SOL    HW220140   4.450   1.280   3.317 -1.2991 -0.2648 -1.6761
 5102SOL    HW320141   4.565   1.261   3.220 -0.1776 -0.2926 -0.3721
 5102SOL    MW420142   4.511   1.229   3.280  0.4900 -0.3536  0.3740
 5103SOL     OW20143   3.500   4.064   3.119  0.8644  0.0441 -0.2798
 5103SOL    HW220144   3.436   4.026   3.179  1.1804  2.0689  1.4906
 5103SOL    HW320145   3.546   3.989   3.081 -0.4801 -1.3535  0.7381
 5103SOL    MW420146   3.497   4.049   3.122 -0.2532  0.8472  0.3746
 5104SOL     OW20147   4.088   4.054   6.350  0.1342 -0.1371  0.4225
 5104SOL    HW220148   3.995   4.048   6.327 -0.3794 -0.3095  2.3475
 5104SOL    HW320149   4.129   4.094   6.273 -1.4560 -0.4046 -0.6221
 5104SOL    MW420150   4.081   4.059   6.337 -0.1917  0.6011  0.0480
 5105SOL     OW20151   5.838   1.083   1.850 -0.1382  0.2444 -0.4693
 5105SOL    HW220152   5.875   1.042   1.772 -0.2551 -0.8343  0.0273
 5105SOL    HW320153   5.774   1.146   1.816 -0.0166 -0.0443 -1.2460
 5105SOL    MW420154   5.835   1.086   1.835 -0.0363 -0.1841 -0.9271
 5106SOL     OW20155   2.267   5.579   3.759  0.0346 -0.3069  0.2186
 5106SOL    HW220156   2.173   5.566   3.775 -0.0530 -1.4774 -1.1085
 5106SOL    HW320157   2.270   5.632   3.679  0.5147  0.2054  0.5723
 5106SOL    MW420158   2.255   5.585   3.751 -0.3495 -0.5580  0.3642
 5107SOL     OW20159   4.391   4.369   5.129 -0.1340  0.6710  0.6152
 5107SOL    HW220160   4.420   4.341   5.042 -0.6076  1.7827  0.0837
 5107SOL    HW320161   4.351   4.455   5.115  0.3624  1.1733  2.0236
 5107SOL    MW420162   4.390   4.377   5.116 -0.0757  0.2454  0.2124
 5108SOL     OW20163   6.405   4.805   1.462  0.2316 -0.1958  0.0068
 5108SOL    HW220164   6.459   4.740   1.507 -0.3158  0.6032  1.9073
 5108SOL    HW320165   6.468   4.869   1.429  0.6540 -0.8768 -0.5437
 5108SOL    MW420166   6.420   4.805   1.463 -0.1996  0.3173 -0.2573
 5109SOL     OW20167   5.198   5.239   1.963 -0.0748 -0.0882  0.1380
 5109SOL    HW220168   5.111   5.268   1.991 -0.2645  0.1979 -0.7321
 5109SOL    HW320169   5.182   5.163   1.907  0.0169  1.4910 -2.1500
 5109SOL    MW420170   5.185   5.233   1.959 -0.0010  0.3845 -0.6211
 5110SOL     OW20171   1.651   4.908   2.868 -0.1330  0.5456  0.5817
 5110SOL    HW220172   1.625   4.918   2.777 -1.4202  1.3913  1.0113
 5110SOL    HW320173   1.724   4.847   2.866 -0.4745  0.1546 -0.9623
 5110SOL    MW420174   1.657   4.902   2.856  0.0434 -0.2699  0.6887
 5111SOL     OW20175   3.716   1.301   5.772 -0.0447  0.6394  0.4364
 5111SOL    HW220176   3.699   1.314   5.865 -0.8536  0.0528  0.3800
 5111SOL    HW320177   3.629   1.293   5.732  0.2914  0.7449 -0.3527
 5111SOL    MW420178   3.702   1.302   5.779  0.2720 -0.5066  0.0842
 5112SOL     OW20179   4.441   1.652   6.333 -0.2665 -0.4898 -0.2851
 5112SOL    HW220180   4.447   1.737   6.376 -0.6547  0.3197 -1.7803
 5112SOL    HW320181   4.429   1.590   6.405 -1.4017  0.8683  0.7503
 5112SOL    MW420182   4.440   1.655   6.348 -0.0691  0.5578  0.4065
 5113SOL     OW20183   3.878   0.093   2.473  0.6939 -0.4206 -0.0162
 5113SOL    HW220184   3.955   0.052   2.513  0.8865 -1.1688 -1.1098
 5113SOL    HW320185   3.860   0.169   2.529  1.1503 -1.2258  1.2840
 5113SOL    MW420186   3.886   0.098   2.486 -0.2763  0.3151 -0.0647
 5114SOL     OW20187   0.705   3.661   3.692  0.4477  0.1627  0.1942
 5114SOL    HW220188   0.622   3.620   3.667  0.6609  0.4526 -1.0827
 5114SOL    HW320189   0.728   3.620   3.775  0.1483 -1.6066 -0.5372
 5114SOL    MW420190   0.697   3.650   3.699  0.1579 -0.3165 -0.5187
 5115SOL     OW20191   5.189   3.533   1.858 -0.6216 -0.0519  0.2777
 5115SOL    HW220192   5.192   3.442   1.827  1.4821 -0.0616  0.3825
 5115SOL    HW320193   5.160   3.526   1.949  0.6098 -0.7444  0.6388
 5115SOL    MW420194   5.185   3.520   1.866  0.7007  0.2644  0.3669
 5116SOL     OW20195   1.276   4.270   4.560 -0.3083 -0.3764 -0.1740
 5116SOL    HW220196   1.255   4.179   4.539 -0.3834 -0.4128  0.0555
 5116SOL    HW320197   1.194   4.306   4.594  0.5880 -1.2996  3.3995
 5116SOL    MW420198   1.262   4.263   4.562 -0.0936 -0.3260  0.2088
 5117SOL     OW20199   2.884   1.183   5.234  0.0789  0.3512  0.2407
 5117SOL    HW220200   2.903   1.229   5.315  0.2009  1.8103 -0.5837
 5117SOL    HW320201   2.801   1.220   5.203 -1.0069 -1.5751  0.6536
 5117SOL    MW420202   2.875   1.194   5.241  0.6922  0.1838  0.1903
 5118SOL     OW20203   5.918   5.619   1.250 -0.1759  0.0393  0.1238
 5118SOL    HW220204   5.889   5.529   1.236  0.4923  0.1159 -2.0685
 5118SOL    HW320205   5.867   5.649   1.326 -1.6105 -1.6405 -0.1099
 5118SOL    MW420206   5.907   5.611   1.258  0.6533 -0.0966 -0.3889
 5119SOL     OW20207   2.620   0.110   4.493 -0.2508 -0.1592  0.2307
 5119SOL    HW220208   2.628   0.152   4.578  0.9132  0.6106 -0.2406
 5119SOL    HW320209   2.684   0.039   4.494  0.4461  0.4474 -0.3322
 5119SOL    MW420210   2.629   0.107   4.504 -0.7207  0.4259 -0.5698
 5120SOL     OW20211   1.802   1.720   3.083 -0.0585 -0.3460  0.3747
 5120SOL    HW220212   1.773   1.644   3.134  0.1544 -0.1710  0.7572
 5120SOL    HW320213   1.792   1.794   3.142 -1.0006  0.0397 -0.2567
 5120SOL    MW420214   1.797   1.720   3.097  0.1620  0.5755  0.4157
 5121SOL     OW20215   1.510   0.891   1.674  0.4783  0.1834 -0.1373
 5121SOL    HW220216   1.528   0.927   1.587  0.5350  0.3998 -0.0363
 5121SOL    HW320217   1.452   0.954   1.715  0.2521 -0.0433 -0.1075
 5121SOL    MW420218   1.505   0.904   1.668  0.6155  0.4011  0.0000
 5122SOL     OW20219   5.718   2.451   6.173 -0.1110  0.6384  0.2735
 5122SOL    HW220220   5.691   2.367   6.211 -1.8774  1.7583  1.6446
 5122SOL    HW320221   5.637   2.488   6.138  0.6128  1.8696 -0.1546
 5122SOL    MW420222   5.704   2.445   6.173 -0.4952 -0.2179 -0.2812
 5123SOL     OW20223   2.078   0.563   6.296 -0.4347 -0.2392  0.1548
 5123SOL    HW220224   2.137   0.634   6.322 -1.0815  0.3710 -0.0004
 5123SOL    HW320225   1.990   0.601   6.304 -0.7375 -0.6176 -1.1003
 5123SOL    MW420226   2.074   0.578   6.300 -0.5792  0.2808  0.4302
 5124SOL     OW20227   2.853   1.472   5.888 -0.4725  0.1815 -0.2652
 5124SOL    HW220228   2.936   1.503   5.851 -1.5088  1.8056 -1.3705
 5124SOL    HW320229   2.817   1.413   5.821  1.2587 -3.3540  1.6257
 5124SOL    MW420230   2.859   1.468   5.874 -0.0506  0.5006  0.4386
 5125SOL     OW20231   1.007   4.117   5.608 -0.3157 -0.3947 -0.2611
 5125SOL    HW220232   0.994   4.072   5.692  1.3753 -0.2264  0.1174
 5125SOL    HW320233   1.055   4.055   5.554  1.8404  0.8031  0.1903
 5125SOL    MW420234   1.012   4.103   5.612  0.4529 -0.5140  0.0497
 5126SOL     OW20235   0.311   5.069   5.264  0.4467  0.6155 -0.2896
 5126SOL    HW220236   0.239   5.124   5.232 -0.6121 -1.9818 -2.8329
 5126SOL    HW320237   0.316   5.089   5.357 -1.0943  3.5495 -0.7031
 5126SOL    MW420238   0.302   5.079   5.272 -0.5199  0.4623  0.0023
 5127SOL     OW20239   1.513   5.363   3.910  0.4840  0.3385  0.2292
 5127SOL    HW220240   1.577   5.327   3.972  1.8304  0.7335 -0.8926
 5127SOL    HW320241   1.565   5.403   3.842 -0.9178 -1.3791 -1.9943
 5127SOL    MW420242   1.528   5.364   3.909  0.5722 -0.0082  0.0254
 5128SOL     OW20243   1.089   2.620   4.488 -0.2886  0.5339 -0.2454
 5128SOL    HW220244   1.126   2.578   4.410 -0.5081  1.1174 -0.6684
 5128SOL    HW320245   1.160   2.621   4.551 -0.0572  0.2183 -0.4993
 5128SOL    MW420246   1.103   2.614   4.486 -0.0481  0.2603  0.0647
 5129SOL     OW20247   1.312   4.124   0.657 -0.1284  0.5893  0.4859
 5129SOL    HW220248   1.373   4.053   0.640 -0.4115  0.4544  0.0336
 5129SOL    HW320249   1.329   4.148   0.749 -0.6939 -0.7088  0.9528
 5129SOL    MW420250   1.322   4.118   0.667  0.0124 -0.0583  0.2529
 5130SOL     OW20251   2.313   1.215   0.092 -0.2711 -0.3906  1.0342
 5130SOL    HW220252   2.301   1.187   0.001 -0.4570 -1.9514  1.4944
 5130SOL    HW320253   2.336   1.307   0.087 -0.6231 -0.3675 -0.5763
 5130SOL    MW420254   2.314   1.223   0.079  0.1741  0.3192 -0.4015
 5131SOL     OW20255   0.619   5.309   0.636  1.0180  0.1829 -0.0601
 5131SOL    HW220256   0.614   5.399   0.603 -2.5109  0.2750  0.3152
 5131SOL    HW320257   0.674   5.314   0.713  0.3757  2.1850  0.3171
 5131SOL    MW420258   0.626   5.321   0.642  0.1846  0.1163  0.0684
 5132SOL     OW20259   1.083   2.400   0.729  0.0780  0.5131  0.1125
 5132SOL    HW220260   1.156   2.414   0.670 -1.2548  0.9849 -1.5141
 5132SOL    HW320261   1.005   2.415   0.675 -1.2403 -0.6024  1.5903
 5132SOL    MW420262   1.082   2.404   0.714 -0.3188  0.5942  0.0473
 5133SOL     OW20263   0.843   2.780   0.324  0.4412  0.1264  0.0578
 5133SOL    HW220264   0.780   2.789   0.252 -0.1648  2.9461  0.8079
 5133SOL    HW320265   0.788   2.771   0.402  1.0314  0.1383  0.4810
 5133SOL    MW420266   0.827   2.780   0.325  0.2413  0.2078  0.2701
 5134SOL     OW20267   2.340   4.821   6.131  0.1062 -0.6153  0.1957
 5134SOL    HW220268   2.273   4.765   6.093  1.7883 -3.0149  0.5162
 5134SOL    HW320269   2.341   4.799   6.224  0.2152  0.6449  0.5150
 5134SOL    MW420270   2.332   4.811   6.138  0.0854  0.0707 -0.3807
 5135SOL     OW20271   1.563   4.447   3.313  0.3044  1.1494  0.4226
 5135SOL    HW220272   1.580   4.353   3.310 -0.3862  1.0051  0.7638
 5135SOL    HW320273   1.649   4.487   3.311  0.5855  0.5570 -1.4417
 5135SOL    MW420274   1.576   4.440   3.312 -0.6297 -0.1319  0.1555
 5136SOL     OW20275   5.963   1.425   5.268 -0.3935  0.2282 -0.5256
 5136SOL    HW220276   5.970   1.483   5.191  0.4757  0.4509 -0.2877
 5136SOL    HW320277   5.989   1.480   5.342 -1.8682  0.2065  0.0315
 5136SOL    MW420278   5.967   1.440   5.267 -0.2071 -0.6191  0.1184
 5137SOL     OW20279   0.889   2.146   0.869  0.2962  0.8331  0.6052
 5137SOL    HW220280   0.922   2.233   0.891  2.0273  0.5417 -0.6614
 5137SOL    HW320281   0.957   2.086   0.899  0.6425  0.1576 -1.4118
 5137SOL    MW420282   0.902   2.150   0.876 -0.1565 -0.0783 -0.5144
 5138SOL     OW20283   3.148   1.282   6.000 -0.1513  0.2369  0.3384
 5138SOL    HW220284   3.237   1.248   5.992 -0.5282 -0.4372 -1.5306
 5138SOL    HW320285   3.155   1.354   6.061  1.6516  0.0787  0.3645
 5138SOL    MW420286   3.160   1.287   6.007  0.3992  0.7212 -0.2873
 5139SOL     OW20287   2.218   2.135   3.285 -0.2368  0.2832 -0.1704
 5139SOL    HW220288   2.284   2.165   3.347  0.5442  1.2572 -1.4335
 5139SOL    HW320289   2.147   2.199   3.291  0.4177  1.1504 -1.1859
 5139SOL    MW420290   2.217   2.147   3.294  0.0243 -0.0824  0.1738
 5140SOL     OW20291   3.757   3.229   5.043  0.0572 -0.3358 -0.7167
 5140SOL    HW220292   3.758   3.283   5.122  1.6208  0.5145 -1.2656
 5140SOL    HW320293   3.707   3.280   4.980  0.3133 -0.1825 -0.7988
 5140SOL    MW420294   3.750   3.243   5.045  0.0353  0.1448 -0.1210
 5141SOL     OW20295   1.486   0.915   2.005 -0.5046 -0.4023 -0.0750
 5141SOL    HW220296   1.571   0.955   1.988 -0.2388 -1.4382 -1.4372
 5141SOL    HW320297   1.457   0.952   2.088 -0.5324  2.9942 -1.4217
 5141SOL    MW420298   1.493   0.925   2.014  0.5819  0.6312  0.6246
 5142SOL     OW20299   6.374   1.371   5.135 -0.1766  0.1635  0.3754
 5142SOL    HW220300   6.339   1.460   5.129  2.0792  1.1717  1.0822
 5142SOL    HW320301   6.385   1.343   5.044 -0.2926  0.8662  0.1375
 5142SOL    MW420302   6.371   1.379   5.122  0.1962 -0.3446  0.1228
 5143SOL     OW20303   4.558   1.294   2.816  0.3190 -0.1089  0.0691
 5143SOL    HW220304   4.613   1.218   2.795 -1.0321 -0.3361 -3.1204
 5143SOL    HW320305   4.476   1.256   2.847 -0.5615 -0.0391 -2.0670
 5143SOL    MW420306   4.555   1.279   2.817  0.1016  0.1022 -0.3731
 5144SOL     OW20307   4.105   3.502   1.048  0.5647  0.5800 -0.0645
 5144SOL    HW220308   4.136   3.571   1.106 -1.5418  2.0201 -0.5384
 5144SOL    HW320309   4.033   3.460   1.095 -1.2457  1.8367 -1.5628
 5144SOL    MW420310   4.099   3.505   1.062  0.2022 -0.1587 -0.0985
 5145SOL     OW20311   3.793   5.660   1.334  0.0368 -0.0713 -0.3081
 5145SOL    HW220312   3.860   5.698   1.277  0.0333  0.9713  0.3659
 5145SOL    HW320313   3.839   5.641   1.416 -0.0892 -1.0446 -0.4455
 5145SOL    MW420314   3.808   5.662   1.337  0.2470 -0.1537 -0.2013
 5146SOL     OW20315   1.611   2.152   1.598  0.6858 -0.2263 -0.1896
 5146SOL    HW220316   1.661   2.098   1.660  1.4068  1.1787  0.5045
 5146SOL    HW320317   1.663   2.150   1.518  1.6329  0.8023  0.3682
 5146SOL    MW420318   1.625   2.144   1.596 -0.2840  0.5943 -0.1430
 5147SOL     OW20319   3.582   0.900   2.398  0.2050  0.6574  0.0932
 5147SOL    HW220320   3.575   0.976   2.456  0.9427  0.0039  1.0692
 5147SOL    HW320321   3.536   0.926   2.319 -1.2012  1.4429  1.1204
 5147SOL    MW420322   3.575   0.913   2.395 -0.4360  0.5080  0.9076
 5148SOL     OW20323   3.256   1.904   5.598 -0.5111 -0.0107  0.3989
 5148SOL    HW220324   3.189   1.839   5.577 -0.1608 -0.0564 -0.6219
 5148SOL    HW320325   3.213   1.988   5.584  0.1701 -0.0055 -2.2872
 5148SOL    MW420326   3.242   1.906   5.593  0.0610 -0.3927 -0.0672
 5149SOL     OW20327   5.716   6.178   2.187 -0.1052 -0.2811  0.4420
 5149SOL    HW220328   5.727   6.247   2.122 -1.4134 -0.5190 -0.0582
 5149SOL    HW320329   5.787   6.193   2.251 -0.3752  1.5187  0.3586
 5149SOL    MW420330   5.727   6.189   2.187 -0.3107  0.1120  0.1570
 5150SOL     OW20331   3.353   5.551   0.651  0.3515  0.0905  0.2130
 5150SOL    HW220332   3.269   5.582   0.616 -0.3474 -0.3439  1.4082
 5150SOL    HW320333   3.414   5.560   0.579  0.0712  3.5357  0.2419
 5150SOL    MW420334   3.350   5.556   0.637  0.2432 -0.0722 -0.7959
 5151SOL     OW20335   5.457   4.847   1.304  0.3048 -0.1172  0.2658
 5151SOL    HW220336   5.551   4.856   1.289  0.2056  0.4225 -0.0523
 5151SOL    HW320337   5.451   4.822   1.396  0.7876 -0.7738  0.1239
 5151SOL    MW420338   5.469   4.845   1.314 -0.1152 -0.4851  0.6330
 5152SOL     OW20339   0.411   6.141   4.004  0.3163 -0.3175 -0.7002
 5152SOL    HW220340   0.353   6.087   4.057  0.9881  0.2012  0.5897
 5152SOL    HW320341   0.500   6.115   4.031  0.6549  0.7085 -0.8090
 5152SOL    MW420342   0.415   6.130   4.014  0.1767  0.2998 -0.6315
 5153SOL     OW20343   6.220   2.597   2.040 -0.3283 -0.0404 -0.0707
 5153SOL    HW220344   6.144   2.579   2.096  1.2879 -0.7467  2.0042
 5153SOL    HW320345   6.270   2.663   2.088  0.7076 -0.0424 -1.0979
 5153SOL    MW420346   6.217   2.604   2.054 -0.0702  0.2469 -0.5217
 5154SOL     OW20347   5.158   0.760   6.099 -0.3563 -0.2412  0.0010
 5154SOL    HW220348   5.127   0.676   6.065  0.1954 -0.6611  0.5096
 5154SOL    HW320349   5.100   0.777   6.174 -2.9386  1.6901 -2.2326
 5154SOL    MW420350   5.146   0.751   6.105  0.1177 -0.1329 -0.3441
 5155SOL     OW20351   4.006   0.484   0.945  0.1478 -0.0652 -0.2663
 5155SOL    HW220352   3.997   0.485   1.040  1.5351  0.4704 -0.1215
 5155SOL    HW320353   4.094   0.517   0.928 -0.3451  0.6129 -1.7787
 5155SOL    MW420354   4.016   0.489   0.955  0.1360  0.3977  0.7222
 5156SOL     OW20355   6.093   4.958   1.308 -0.1803 -0.1394  0.1673
 5156SOL    HW220356   6.036   4.923   1.240  0.3451  0.0438 -0.3747
 5156SOL    HW320357   6.036   5.017   1.358 -0.0879  1.3642 -1.4070
 5156SOL    MW420358   6.078   4.961   1.306 -0.5077 -0.6876 -0.2247
 5157SOL     OW20359   4.791   3.723   3.338 -0.4539  0.0596  0.0179
 5157SOL    HW220360   4.735   3.650   3.314  1.0596 -0.8147 -1.0219
 5157SOL    HW320361   4.877   3.700   3.303  0.6371  1.2089  1.7885
 5157SOL    MW420362   4.795   3.710   3.330 -0.3523 -0.1905  0.4017
 5158SOL     OW20363   6.327   3.184   1.433 -0.6978  0.1970 -0.2606
 5158SOL    HW220364   6.320   3.102   1.384 -2.2990  0.7934 -1.1045
 5158SOL    HW320365   6.332   3.157   1.524  1.0182 -0.8940 -0.6353
 5158SOL    MW420366   6.327   3.169   1.438 -0.0347  0.2540  0.3989
 5159SOL     OW20367   4.456   6.196   6.416 -0.0500 -0.5681 -0.2593
 5159SOL    HW220368   4.460   6.291   6.404  0.1069 -0.4935  0.3325
 5159SOL    HW320369   4.527   6.162   6.362  0.0030 -0.3326 -0.3393
 5159SOL    MW420370   4.466   6.204   6.408  0.2945 -0.0364 -0.4163
 5160SOL     OW20371   6.260   1.373   3.044 -0.5723 -0.3301  0.1596
 5160SOL    HW220372   6.199   1.429   2.997  0.1197  0.0625 -0.2970
 5160SOL    HW320373   6.218   1.287   3.048 -0.8703 -0.2261 -0.6992
 5160SOL    MW420374   6.247   1.369   3.038 -0.4005 -0.3775  0.8303
 5161SOL     OW20375   5.318   2.199   5.828 -0.3637 -0.1313  0.4158
 5161SOL    HW220376   5.231   2.169   5.804 -0.2021  0.6050 -1.2178
 5161SOL    HW320377   5.331   2.167   5.918 -1.4243 -2.1602 -0.1049
 5161SOL    MW420378   5.309   2.191   5.837 -0.2945 -0.9795 -0.3549
 5162SOL     OW20379   4.247   2.163   3.842  0.5569 -0.1449  0.1081
 5162SOL    HW220380   4.292   2.090   3.884  0.3736  0.1080  0.7618
 5162SOL    HW320381   4.255   2.146   3.748  0.2011 -1.1942  0.2561
 5162SOL    MW420382   4.254   2.151   3.835 -0.4473 -0.0205  0.4321
 5163SOL     OW20383   2.646   2.426   0.486 -0.3715 -0.0503  0.1492
 5163SOL    HW220384   2.706   2.462   0.420 -0.0988  1.4137  1.1333
 5163SOL    HW320385   2.704   2.399   0.557 -0.7508 -0.4758  0.2976
 5163SOL    MW420386   2.662   2.427   0.487  0.1897  0.0476  0.4689
 5164SOL     OW20387   3.718   5.043   5.882  0.0154 -0.3378  0.1949
 5164SOL    HW220388   3.690   5.069   5.970  0.4232  1.8414 -0.2616
 5164SOL    HW320389   3.638   5.015   5.838 -0.5505  0.6126  0.6027
 5164SOL    MW420390   3.704   5.043   5.888 -0.7513  0.6264 -0.0275
 5165SOL     OW20391   0.826   0.705   0.742  0.0546 -0.6201 -0.3993
 5165SOL    HW220392   0.793   0.629   0.694  0.5751 -0.2118 -1.4066
 5165SOL    HW320393   0.747   0.750   0.772 -0.2714 -0.9083 -0.8154
 5165SOL    MW420394   0.811   0.701   0.740 -0.0375 -0.0282 -0.6088
 5166SOL     OW20395   3.500   6.385   1.745 -0.4987  0.6491  0.1660
 5166SOL    HW220396   3.558   6.432   1.804  0.2168  0.4370 -0.3450
 5166SOL    HW320397   3.432   6.349   1.801  0.0954  0.5603  0.8444
 5166SOL    MW420398   3.499   6.386   1.760 -0.1824 -0.0859 -0.4092
 5167SOL     OW20399   4.840   2.341   3.406 -0.1361 -0.2426  0.2735
 5167SOL    HW220400   4.905   2.300   3.463  1.6391  1.3458 -0.4942
 5167SOL    HW320401   4.815   2.421   3.452  0.6138  0.5789 -0.6990
 5167SOL    MW420402   4.845   2.346   3.419  0.7477 -0.0796 -0.4407
 5168SOL     OW20403   3.198   5.562   1.706  0.3019 -0.0346  0.3130
 5168SOL    HW220404   3.246   5.486   1.737  0.4487 -0.6494 -1.3247
 5168SOL    HW320405   3.181   5.544   1.613 -1.8616  0.7992  0.4742
 5168SOL    MW420406   3.202   5.550   1.698 -0.3339 -0.1172  0.1887
 5169SOL     OW20407   1.947   1.355   1.624 -0.0811 -0.2864 -0.0498
 5169SOL    HW220408   1.990   1.275   1.654 -1.0932 -0.6268  0.5591
 5169SOL    HW320409   2.012   1.424   1.638  0.7262 -0.9662 -0.3826
 5169SOL    MW420410   1.961   1.354   1.630  0.0568 -0.1738  0.0730
 5170SOL     OW20411   0.385   1.929   5.559  0.3985  0.6089 -0.1863
 5170SOL    HW220412   0.391   2.024   5.556 -0.4850  0.6808  0.2458
 5170SOL    HW320413   0.462   1.899   5.510  1.3728  1.5282  0.7234
 5170SOL    MW420414   0.396   1.937   5.552 -0.3042 -0.2853 -0.2408
 5171SOL     OW20415   1.578   3.061   3.070 -0.4173  0.0463 -0.1382
 5171SOL    HW220416   1.631   3.005   3.014 -1.3444  1.2811 -2.3530
 5171SOL    HW320417   1.499   3.010   3.088  0.2087 -0.6500  0.7574
 5171SOL    MW420418   1.574   3.047   3.065 -0.3543  0.1390  0.5101
 5172SOL     OW20419   4.711   5.865   2.153 -0.0521 -0.1499  0.6062
 5172SOL    HW220420   4.759   5.807   2.211  0.7360  1.1012  1.2326
 5172SOL    HW320421   4.619   5.837   2.161  0.4268 -2.1345 -0.1146
 5172SOL    MW420422   4.705   5.854   2.161  0.1015 -1.0079 -0.2851
 5173SOL     OW20423   5.998   1.690   1.436  0.3954 -0.3384  0.4097
 5173SOL    HW220424   5.930   1.679   1.502 -0.1934  0.9373  0.0464
 5173SOL    HW320425   5.970   1.635   1.363 -0.4415  0.4348  0.1324
 5173SOL    MW420426   5.985   1.681   1.435  0.8563 -0.2969  0.3033
 5174SOL     OW20427   4.104   5.643   4.229  0.7083  0.1687  0.1916
 5174SOL    HW220428   4.081   5.567   4.283 -0.9841 -0.1363 -0.8880
 5174SOL    HW320429   4.176   5.612   4.175  3.3469  0.8635  3.0468
 5174SOL    MW420430   4.110   5.629   4.229 -0.1117  0.3910 -0.2698
 5175SOL     OW20431   5.325   0.701   2.409  0.1173 -0.2818  0.2093
 5175SOL    HW220432   5.268   0.628   2.432  0.0043 -0.3539 -0.2881
 5175SOL    HW320433   5.362   0.677   2.324 -2.2197  1.5455 -1.4621
 5175SOL    MW420434   5.322   0.688   2.401 -0.0337  0.1621 -0.3299
 5176SOL     OW20435   3.864   1.098   0.589  0.3140 -0.0197 -0.5784
 5176SOL    HW220436   3.794   1.125   0.529  0.0061  0.3628 -0.0498
 5176SOL    HW320437   3.902   1.180   0.620 -0.8747 -0.1205  1.3332
 5176SOL    MW420438   3.860   1.112   0.585 -0.2774  0.6598 -0.0937
 5177SOL     OW20439   0.979   4.190   3.352  0.0870  0.0758  0.4033
 5177SOL    HW220440   0.963   4.254   3.422 -0.2009  0.9339 -0.4259
 5177SOL    HW320441   0.894   4.176   3.312  0.2503 -0.4126  0.2132
 5177SOL    MW420442   0.966   4.196   3.356  0.7193 -0.0399  0.0702
 5178SOL     OW20443   3.027   0.356   6.187 -0.5086 -0.4274 -0.3651
 5178SOL    HW220444   3.033   0.447   6.217 -0.3580 -0.1941 -1.0823
 5178SOL    HW320445   2.945   0.324   6.224 -0.2972 -0.1674  0.3370
 5178SOL    MW420446   3.017   0.364   6.196 -0.4533 -0.2471 -0.2322
 5179SOL     OW20447   5.088   3.210   3.478 -0.1037 -0.2141  0.0798
 5179SOL    HW220448   5.002   3.234   3.444 -0.1659 -0.5367  0.0038
 5179SOL    HW320449   5.075   3.123   3.515 -0.0037  0.0757  0.8105
 5179SOL    MW420450   5.075   3.202   3.479 -0.1585 -0.1291  0.1691
 5180SOL     OW20451   1.810   2.145   5.086  0.3622 -0.2450 -0.3730
 5180SOL    HW220452   1.797   2.239   5.093 -1.0037 -0.4696  0.5523
 5180SOL    HW320453   1.723   2.108   5.104  0.9722 -1.6917 -0.2896
 5180SOL    MW420454   1.796   2.152   5.089 -0.4398 -0.1556  0.2127
 5181SOL     OW20455   3.443   3.019   6.093  0.2961  0.0712 -0.0631
 5181SOL    HW220456   3.502   2.953   6.057  0.9932  1.1775 -0.9994
 5181SOL    HW320457   3.464   3.020   6.187  2.1344  0.7446 -0.4265
 5181SOL    MW420458   3.454   3.011   6.101  0.3457 -0.0842  0.1860
 5182SOL     OW20459   0.236   5.139   4.913  0.0747  0.1245  0.2776
 5182SOL    HW220460   0.190   5.190   4.980 -1.4482 -0.4502 -0.2851
 5182SOL    HW320461   0.272   5.064   4.960  0.4957  0.5942  0.7292
 5182SOL    MW420462   0.235   5.136   4.928 -0.4206 -0.1025  0.0970
 5183SOL     OW20463   5.095   6.279   2.337  0.4706 -0.0441 -0.2965
 5183SOL    HW220464   5.012   6.277   2.385 -0.2266  0.2008 -1.4340
 5183SOL    HW320465   5.125   6.189   2.337  0.9567  0.0798  1.3361
 5183SOL    MW420466   5.088   6.267   2.343 -0.4503  0.5067  0.3761
 5184SOL     OW20467   0.935   6.027   6.013  0.5377 -0.4257 -0.1024
 5184SOL    HW220468   0.885   6.050   5.934  1.4796  0.0863 -0.5576
 5184SOL    HW320469   0.939   6.108   6.063 -0.4094 -0.8463  0.6891
 5184SOL    MW420470   0.929   6.041   6.009  0.2231  0.2025  0.5995
 5185SOL     OW20471   6.119   2.735   6.289  0.0423  0.5618 -0.6228
 5185SOL    HW220472   6.160   2.779   6.214 -0.5864  2.1826 -0.0699
 5185SOL    HW320473   6.025   2.741   6.272 -0.0801  0.2704 -0.0763
 5185SOL    MW420474   6.112   2.742   6.277 -0.5053 -0.0990  0.0635
 5186SOL     OW20475   1.446   4.184   3.744  0.0546  0.0703 -0.1868
 5186SOL    HW220476   1.480   4.268   3.775 -0.8140  0.5184 -0.4415
 5186SOL    HW320477   1.474   4.178   3.653 -2.1074  1.3153 -0.9870
 5186SOL    MW420478   1.455   4.194   3.736 -0.1742 -0.0497 -0.5073
 5187SOL     OW20479   5.076   4.594   5.626  0.1038 -0.5026  0.0568
 5187SOL    HW220480   4.982   4.580   5.626  0.0777 -0.4434 -1.4706
 5187SOL    HW320481   5.099   4.605   5.719 -1.3661 -0.5732  0.4430
 5187SOL    MW420482   5.067   4.594   5.638 -0.6705 -0.3443  0.0114
 5188SOL     OW20483   0.647   1.070   0.181  0.1574  0.2688 -0.1496
 5188SOL    HW220484   0.697   1.093   0.103 -0.1342 -1.6403 -0.9561
 5188SOL    HW320485   0.557   1.060   0.149 -0.1046  0.2134  0.5839
 5188SOL    MW420486   0.641   1.072   0.167  0.3594  0.2956 -0.3155
 5189SOL     OW20487   3.420   6.212   4.897  0.1139 -0.1418 -0.3351
 5189SOL    HW220488   3.494   6.187   4.842  0.8206  1.8306 -0.3793
 5189SOL    HW320489   3.371   6.131   4.911  0.7247 -0.9779 -2.6321
 5189SOL    MW420490   3.423   6.198   4.892  0.3688 -0.3024  0.4806
 5190SOL     OW20491   2.420   5.390   4.691 -0.2487 -0.2685 -0.2677
 5190SOL    HW220492   2.388   5.320   4.634  1.4366 -1.4883  0.2054
 5190SOL    HW320493   2.437   5.347   4.775 -2.1899  1.3779  1.0744
 5190SOL    MW420494   2.418   5.375   4.694 -0.3619 -0.0664  0.0809
 5191SOL     OW20495   3.703   0.126   1.870 -0.0397 -0.3721  0.1341
 5191SOL    HW220496   3.787   0.161   1.842  0.6422 -1.1313  1.1924
 5191SOL    HW320497   3.649   0.203   1.886  0.7757  0.1449  0.4312
 5191SOL    MW420498   3.707   0.140   1.868  0.5713 -0.2668 -0.0602
 5192SOL     OW20499   1.984   1.483   0.080 -0.2902 -1.0813 -0.4600
 5192SOL    HW220500   1.970   1.432  -0.000  1.6432 -1.4836 -0.5874
 5192SOL    HW320501   2.015   1.419   0.144 -0.1496 -0.4685  0.0961
 5192SOL    MW420502   1.986   1.468   0.078  0.0080 -0.5146 -0.3435
 5193SOL     OW20503   5.293   4.732   5.095 -0.4149 -0.1042 -0.2788
 5193SOL    HW220504   5.326   4.645   5.118 -1.6710 -1.1790 -2.2843
 5193SOL    HW320505   5.337   4.754   5.013 -0.9366  0.6684 -0.3639
 5193SOL    MW420506   5.303   4.724   5.087 -0.0801  0.3186  0.3594
 5194SOL     OW20507   5.934   0.322   1.767  0.3743  0.3842 -0.0583
 5194SOL    HW220508   5.865   0.256   1.753  1.2208 -0.4320 -0.4871
 5194SOL    HW320509   5.895   0.404   1.739 -0.7651  0.1088  0.6418
 5194SOL    MW420510   5.920   0.324   1.762  0.1469  0.1538  0.1247
 5195SOL     OW20511   0.941   2.071   0.605  0.3128  0.4155  0.3374
 5195SOL    HW220512   0.954   1.983   0.641  0.9346  0.8842  1.3177
 5195SOL    HW320513   0.902   2.121   0.678  0.0546  0.9763 -0.1772
 5195SOL    MW420514   0.937   2.066   0.620 -0.4631  0.1429 -0.4487
 5196SOL     OW20515   1.385   6.327   2.114 -0.1094 -0.0264 -0.2880
 5196SOL    HW220516   1.436   6.341   2.194  1.1498 -0.5158 -0.9806
 5196SOL    HW320517   1.303   6.375   2.129 -0.1758 -0.6504  1.5465
 5196SOL    MW420518   1.381   6.335   2.126 -0.0190 -0.1648 -0.7231
 5197SOL     OW20519   5.124   5.259   3.461  0.5408  0.1351  0.2718
 5197SOL    HW220520   5.069   5.239   3.537 -0.9117  1.4896 -0.3800
 5197SOL    HW320521   5.142   5.174   3.421 -3.2708 -0.2955 -0.9456
 5197SOL    MW420522   5.119   5.245   3.466  0.1522  0.4999  0.5391
 5198SOL     OW20523   3.732   5.209   5.372  0.2380  0.5172 -0.4924
 5198SOL    HW220524   3.665   5.272   5.398  1.1155  0.9315  0.8411
 5198SOL    HW320525   3.806   5.226   5.430  0.9464 -0.9571 -0.9002
 5198SOL    MW420526   3.733   5.220   5.383 -0.3697  0.6097  0.4889
 5199SOL     OW20527   1.392   3.932   4.040 -0.7030 -0.4715 -0.5437
 5199SOL    HW220528   1.299   3.914   4.054  0.1350 -4.0872  1.3776
 5199SOL    HW320529   1.410   4.008   4.095 -2.0145 -1.2443  1.0203
 5199SOL    MW420530   1.382   3.940   4.049  0.2585 -0.5169 -0.2914
 5200SOL     OW20531   1.931   0.971   4.298  0.0118  0.3386 -0.1638
 5200SOL    HW220532   1.838   0.958   4.281  0.2172 -1.0802 -0.3815
 5200SOL    HW320533   1.973   0.959   4.213  0.4122  0.7960 -0.0348
 5200SOL    MW420534   1.924   0.967   4.285 -0.5365 -0.3414  0.3325
 5201SOL     OW20535   0.595   3.416   6.071 -0.2529  0.1814  0.2092
 5201SOL    HW220536   0.658   3.473   6.027 -0.5956 -0.6304 -1.4271
 5201SOL    HW320537   0.650   3.357   6.122  0.1085  1.8434  1.8328
 5201SOL    MW420538   0.611   3.416   6.072 -0.2164  0.0109  0.2886
 5202SOL     OW20539   2.056   0.462   4.175  0.1131 -0.2930 -0.1821
 5202SOL    HW220540   1.973   0.484   4.133 -0.2063 -2.8808 -1.0845
 5202SOL    HW320541   2.096   0.397   4.117  1.3485 -1.3577  1.7301
 5202SOL    MW420542   2.050   0.456   4.162  0.4260 -0.5425  0.1957
 5203SOL     OW20543   4.103   0.512   6.278 -0.2146 -0.4439 -0.0652
 5203SOL    HW220544   4.016   0.553   6.276  0.7944  1.8712  0.1834
 5203SOL    HW320545   4.097   0.445   6.346 -1.5225  0.3961  0.6910
 5203SOL    MW420546   4.091   0.508   6.287 -0.4646  0.1841  0.0432
 5204SOL     OW20547   3.125   3.621   1.704  0.1436  0.0507  0.4709
 5204SOL    HW220548   3.206   3.674   1.705 -0.7556  1.5068  2.2781
 5204SOL    HW320549   3.152   3.535   1.737  1.0407  0.4086  0.7021
 5204SOL    MW420550   3.140   3.617   1.709  0.0296  0.0346 -0.2039
 5205SOL     OW20551   4.005   5.512   1.939  0.3035 -0.2637  0.4910
 5205SOL    HW220552   3.978   5.601   1.917  0.3898 -0.8244 -2.3126
 5205SOL    HW320553   4.101   5.514   1.939  0.3092 -0.2044  1.2622
 5205SOL    MW420554   4.014   5.524   1.936 -0.0223 -0.5616  0.4375
 5206SOL     OW20555   5.566   6.184   5.067 -0.1146 -0.3245 -0.7364
 5206SOL    HW220556   5.482   6.215   5.101  0.2538  1.4461 -1.3024
 5206SOL    HW320557   5.632   6.231   5.119  0.5603 -1.9611 -0.0592
 5206SOL    MW420558   5.563   6.194   5.078  0.1202 -0.5275  0.1235
 5207SOL     OW20559   1.288   6.071   3.322  0.3374  0.4144 -0.5941
 5207SOL    HW220560   1.301   6.150   3.269  0.2717  0.2920 -0.7961
 5207SOL    HW320561   1.201   6.082   3.361 -1.4804 -1.3163 -3.7538
 5207SOL    MW420562   1.278   6.083   3.320 -0.3157  0.2245 -0.5082
 5208SOL     OW20563   3.988   5.592   1.582  0.3433 -0.1699  0.1828
 5208SOL    HW220564   3.950   5.505   1.588  0.6946 -0.8758 -4.2512
 5208SOL    HW320565   4.083   5.578   1.586  0.3789  0.2406  0.9944
 5208SOL    MW420566   3.996   5.579   1.583 -0.4890 -0.3017  0.1019
 5209SOL     OW20567   0.754   5.164   5.193 -0.0597 -0.3291 -0.0511
 5209SOL    HW220568   0.765   5.228   5.123  0.4317 -0.3541 -0.0032
 5209SOL    HW320569   0.843   5.137   5.215 -0.2577 -0.9865 -0.0278
 5209SOL    MW420570   0.767   5.169   5.187 -0.6541  0.5224 -0.2510
 5210SOL     OW20571   5.721   3.846   3.757  0.1329  0.5448 -0.0359
 5210SOL    HW220572   5.685   3.902   3.826 -1.3442 -0.8655  0.3931
 5210SOL    HW320573   5.645   3.799   3.722  1.1830 -0.4191 -1.0996
 5210SOL    MW420574   5.706   3.847   3.761 -0.1086 -0.4023  0.0305
 5211SOL     OW20575   5.973   0.115   2.309  0.6312 -0.0726  0.1132
 5211SOL    HW220576   6.053   0.134   2.357  0.3754  0.0117  0.5060
 5211SOL    HW320577   5.974   0.177   2.236  1.6833 -1.0786 -0.7609
 5211SOL    MW420578   5.984   0.126   2.306  0.0621 -0.5709 -0.0970
 5212SOL     OW20579   4.859   1.765   6.358 -0.5552  0.7292 -0.3969
 5212SOL    HW220580   4.839   1.855   6.382  0.3620  0.3487  1.9964
 5212SOL    HW320581   4.949   1.768   6.325 -0.4584  0.6575 -0.1392
 5212SOL    MW420582   4.868   1.777   6.357  0.3364 -0.5494 -0.7800
 5213SOL     OW20583   0.829   5.061   6.430  0.6602 -0.1068  0.2387
 5213SOL    HW220584   0.809   5.118   6.504  2.4905 -0.8218  1.3394
 5213SOL    HW320585   0.824   5.119   6.354 -0.5748  0.8006  0.9742
 5213SOL    MW420586   0.826   5.076   6.430  0.2286 -0.7012 -0.2973
 5214SOL     OW20587   3.636   4.585   1.309 -0.0311 -0.0109  0.4706
 5214SOL    HW220588   3.574   4.657   1.298 -1.0579 -0.9481 -0.1514
 5214SOL    HW320589   3.632   4.563   1.402  1.4187  1.6826  0.9707
 5214SOL    MW420590   3.627   4.591   1.320 -0.3808 -0.4923 -0.1541
 5215SOL     OW20591   4.787   0.085   3.170 -0.2080 -0.3777 -0.0027
 5215SOL    HW220592   4.870   0.125   3.145 -1.6864  1.4799 -2.4801
 5215SOL    HW320593   4.805  -0.009   3.172  1.9314 -0.0209 -0.5822
 5215SOL    MW420594   4.800   0.078   3.167  0.0787 -0.5672 -0.1104
 5216SOL     OW20595   1.483   0.497   0.650 -0.3054  0.2610 -0.4818
 5216SOL    HW220596   1.460   0.568   0.709 -2.7750  0.3826 -1.4773
 5216SOL    HW320597   1.464   0.531   0.562 -0.1986 -1.1318 -1.0761
 5216SOL    MW420598   1.477   0.511   0.646  0.1320 -0.3107  0.0803
 5217SOL     OW20599   3.189   2.176   2.868 -0.6890 -0.2938 -0.0945
 5217SOL    HW220600   3.094   2.186   2.867 -0.8248 -1.4428 -1.0938
 5217SOL    HW320601   3.204   2.093   2.913 -0.1665 -0.1981 -0.0887
 5217SOL    MW420602   3.178   2.167   2.874 -0.2590  0.1757  0.1049
 5218SOL     OW20603   2.251   0.493   6.073 -0.2678 -0.1649 -0.1832
 5218SOL    HW220604   2.203   0.488   6.156  1.9319  1.2452  1.3010
 5218SOL    HW320605   2.280   0.403   6.056 -0.3865 -0.4060  0.8275
 5218SOL    MW420606   2.249   0.481   6.082  0.0055  0.0937 -0.0463
 5219SOL     OW20607   4.487   1.770   4.094  0.7108  0.2330 -0.8163
 5219SOL    HW220608   4.546   1.734   4.027  0.3762 -0.0082 -0.9878
 5219SOL    HW320609   4.533   1.756   4.176 -0.1848 -2.3472 -0.6529
 5219SOL    MW420610   4.501   1.764   4.096 -0.2696 -0.8828 -0.5854
 5220SOL     OW20611   3.426   4.693   3.092 -0.0667 -0.5523  0.1243
 5220SOL    HW220612   3.512   4.675   3.129 -1.7025  0.4944  5.1262
 5220SOL    HW320613   3.376   4.612   3.105 -1.0162  0.2069  1.4187
 5220SOL    MW420614   3.431   4.680   3.098  0.1111  0.2486  0.3789
 5221SOL     OW20615   4.028   0.794   4.550  1.0518  0.4223 -0.1450
 5221SOL    HW220616   4.033   0.713   4.499 -0.1422 -0.1126  0.5420
 5221SOL    HW320617   4.116   0.805   4.587  1.5945  0.1668 -1.3054
 5221SOL    MW420618   4.040   0.785   4.548 -0.1535  1.0033  0.2883
 5222SOL     OW20619   3.626   1.523   1.299 -0.2858  0.3476  0.1137
 5222SOL    HW220620   3.696   1.584   1.275  0.8264 -0.7974  0.3599
 5222SOL    HW320621   3.579   1.506   1.217 -1.6579  2.7381  0.2996
 5222SOL    MW420622   3.629   1.529   1.285  0.1951 -0.1093 -0.0378
 5223SOL     OW20623   5.353   6.173   1.153  0.2820 -0.0693  0.2180
 5223SOL    HW220624   5.359   6.262   1.188 -0.9580 -0.1033  0.5840
 5223SOL    HW320625   5.273   6.173   1.100  1.6030 -0.2986 -1.8789
 5223SOL    MW420626   5.343   6.185   1.151  0.8657 -0.2884  0.1096
 5224SOL     OW20627   1.600   6.435   4.066  0.4611 -0.1917 -0.2466
 5224SOL    HW220628   1.644   6.399   4.142 -1.5305 -2.1181  0.1019
 5224SOL    HW320629   1.671   6.465   4.009  2.0111  1.5283  2.3658
 5224SOL    MW420630   1.615   6.435   4.068 -0.4442  0.1054 -0.2102
 5225SOL     OW20631   0.100   5.670   1.727 -0.0344  0.1254 -0.0719
 5225SOL    HW220632   0.138   5.680   1.814 -0.1142 -1.1027  0.1101
 5225SOL    HW320633   0.009   5.646   1.743 -0.2911  0.7583 -0.5109
 5225SOL    MW420634   0.093   5.668   1.740  0.2414 -0.9749  0.1686
 5226SOL     OW20635   3.184   4.005   6.126  0.0318  0.6745 -0.3743
 5226SOL    HW220636   3.101   3.997   6.078  0.6516 -1.3607 -1.1790
 5226SOL    HW320637   3.228   4.079   6.084 -0.3641  0.2675 -1.5615
 5226SOL    MW420638   3.179   4.014   6.114  0.1267  0.2175  0.3586
 5227SOL     OW20639   3.701   0.511   1.903  0.4649  0.0441  0.6328
 5227SOL    HW220640   3.690   0.454   1.979  3.7014 -2.7659 -0.7253
 5227SOL    HW320641   3.778   0.564   1.923  1.1909 -0.5356 -0.5067
 5227SOL    MW420642   3.710   0.510   1.916  0.1273  0.5207 -0.3360
 5228SOL     OW20643   3.229   5.975   1.526  0.4982 -0.1869  0.0862
 5228SOL    HW220644   3.180   5.893   1.527  2.0877 -1.1863 -0.7098
 5228SOL    HW320645   3.165   6.041   1.554 -1.0887 -1.5238 -0.2142
 5228SOL    MW420646   3.214   5.973   1.530 -0.1791 -0.1421 -0.3637
 5229SOL     OW20647   4.660   5.299   2.397  0.1813 -0.3369 -0.0692
 5229SOL    HW220648   4.596   5.233   2.371 -0.1638  0.3446 -1.0313
 5229SOL    HW320649   4.745   5.259   2.380  0.0931 -1.7306  2.3917
 5229SOL    MW420650   4.662   5.285   2.391 -0.3898  0.1291  0.6114
 5230SOL     OW20651   6.023   5.174   5.724 -0.1346  0.1122  0.2975
 5230SOL    HW220652   6.051   5.091   5.764 -1.9636 -0.7957 -0.2210
 5230SOL    HW320653   5.946   5.200   5.774 -0.2921  0.8821 -0.3325
 5230SOL    MW420654   6.017   5.166   5.736  0.6330 -0.1832  0.3989
 5231SOL     OW20655   2.218   1.124   3.712  0.6904  0.1168 -0.0110
 5231SOL    HW220656   2.275   1.164   3.646  0.5998  1.4713  0.6864
 5231SOL    HW320657   2.241   1.031   3.711  2.0002  0.4195 -0.6505
 5231SOL    MW420658   2.229   1.117   3.704 -0.1980 -0.1120 -0.7696
 5232SOL     OW20659   1.983   1.932   3.720  0.0133  0.1219 -0.1746
 5232SOL    HW220660   1.933   1.983   3.784  0.3067  0.0767  0.0973
 5232SOL    HW320661   2.062   1.984   3.704 -0.4525  0.5350 -1.1473
 5232SOL    MW420662   1.987   1.945   3.726  0.3758 -0.4468  0.3053
 5233SOL     OW20663   6.218   1.861   1.200 -0.5632  0.2868 -0.1823
 5233SOL    HW220664   6.171   1.912   1.266 -1.2496 -1.2418  0.5725
 5233SOL    HW320665   6.238   1.778   1.244  1.9146  0.4552 -0.8400
 5233SOL    MW420666   6.215   1.857   1.215 -0.9341  0.1185  0.2842
 5234SOL     OW20667   0.042   0.201   3.599  0.5320 -0.6523 -0.4515
 5234SOL    HW220668   0.122   0.162   3.563 -0.1747 -0.9724 -1.7404
 5234SOL    HW320669   0.059   0.295   3.597  1.8751 -0.7811  1.7841
 5234SOL    MW420670   0.055   0.208   3.594 -0.1211 -0.5171  0.0577
 5235SOL     OW20671   4.042   0.050   1.054 -0.4853 -0.0322 -0.2484
 5235SOL    HW220672   4.116   0.058   0.994 -0.4375  1.8129 -0.0158
 5235SOL    HW320673   3.968   0.089   1.007 -1.3305 -1.7864 -0.4496
 5235SOL    MW420674   4.042   0.056   1.040  0.2455  0.9309  0.2870
 5236SOL     OW20675   1.988   5.230   1.737  0.7201 -0.2597  0.5262
 5236SOL    HW220676   2.067   5.193   1.775 -0.9489 -3.4469  1.2227
 5236SOL    HW320677   1.951   5.285   1.806  0.8251 -1.1352  1.2954
 5236SOL    MW420678   1.993   5.232   1.751 -1.0361 -0.0606 -0.0796
 5237SOL     OW20679   2.506   3.432   0.066 -0.3481 -0.2480 -0.4884
 5237SOL    HW220680   2.551   3.348   0.054  0.4188  0.0216  0.3715
 5237SOL    HW320681   2.464   3.424   0.151 -0.3703  0.1950 -0.4590
 5237SOL    MW420682   2.507   3.420   0.076 -0.2125 -0.0602  0.4648
 5238SOL     OW20683   5.739   4.667   2.889  0.1078 -0.4536 -0.2782
 5238SOL    HW220684   5.758   4.596   2.949 -0.3326  1.4378  2.2731
 5238SOL    HW320685   5.651   4.695   2.911  0.9790  2.1602  0.2820
 5238SOL    MW420686   5.730   4.662   2.900  0.1260  0.2547 -0.0075
 5239SOL     OW20687   1.091   2.119   1.571  0.0131 -0.3901  0.1404
 5239SOL    HW220688   1.133   2.196   1.609 -1.2021  0.1628  0.4016
 5239SOL    HW320689   1.163   2.072   1.529  0.6630  1.2814 -0.7205
 5239SOL    MW420690   1.106   2.123   1.571  0.0058  0.2518 -0.5843
 5240SOL     OW20691   0.188   5.230   3.601  0.1151 -0.0933  0.3296
 5240SOL    HW220692   0.121   5.240   3.534 -0.6115  0.9244  1.1856
 5240SOL    HW320693   0.216   5.139   3.592  1.0882  0.3689 -2.2904
 5240SOL    MW420694   0.183   5.219   3.591  0.5462 -0.1655 -0.5761
 5241SOL     OW20695   4.072   5.805   3.691  0.1955  0.4698  0.2709
 5241SOL    HW220696   4.086   5.890   3.650 -1.3273  1.1306  1.0328
 5241SOL    HW320697   3.985   5.812   3.731  0.9325 -0.6900  2.1876
 5241SOL    MW420698   4.062   5.817   3.691 -1.0392  0.0422  0.5558
 5242SOL     OW20699   5.883   3.563   0.170 -0.2641 -0.1692 -0.0150
 5242SOL    HW220700   5.902   3.634   0.232 -0.4862  0.1664 -0.3259
 5242SOL    HW320701   5.914   3.484   0.214 -0.8110  0.0060  0.7147
 5242SOL    MW420702   5.890   3.562   0.184 -0.2313  0.1518 -0.2052
 5243SOL     OW20703   2.475   5.854   4.397 -0.1007 -0.0185 -0.3157
 5243SOL    HW220704   2.553   5.884   4.349  0.6625  0.0342  0.9108
 5243SOL    HW320705   2.442   5.932   4.440 -1.4219  0.1541 -1.5771
 5243SOL    MW420706   2.481   5.868   4.396 -0.0461  0.4193  0.0947
 5244SOL     OW20707   5.967   2.495   5.836  0.4492 -0.2528  0.7259
 5244SOL    HW220708   5.975   2.439   5.759  0.1289 -0.9649  1.1948
 5244SOL    HW320709   6.001   2.580   5.809  0.7595 -0.6260 -0.0583
 5244SOL    MW420710   5.973   2.499   5.823  0.1632  0.0169 -0.3909
 5245SOL     OW20711   5.050   4.868   4.003 -0.2944 -0.1872  0.2724
 5245SOL    HW220712   4.990   4.814   3.953  0.3764 -0.9146  0.2431
 5245SOL    HW320713   5.006   4.882   4.087 -0.4262 -0.8591  0.3155
 5245SOL    MW420714   5.037   4.863   4.008 -0.0600  0.1647 -0.2320
 5246SOL     OW20715   0.500   5.098   4.419  0.4734 -0.1599 -0.8989
 5246SOL    HW220716   0.421   5.149   4.434  0.8650  0.1085  0.3692
 5246SOL    HW320717   0.553   5.152   4.361  0.5504  0.5460 -0.1948
 5246SOL    MW420718   0.497   5.112   4.414  0.4299  0.3189 -0.7848
 5247SOL     OW20719   1.937   1.427   6.058 -0.2797 -0.2295  0.2052
 5247SOL    HW220720   1.850   1.397   6.032  0.0852 -0.3216 -0.9507
 5247SOL    HW320721   1.923   1.514   6.095 -1.0754 -0.9282  1.6356
 5247SOL    MW420722   1.923   1.434   6.059  0.2127  0.1720 -0.1635
 5248SOL     OW20723   0.801   3.129   4.403  0.0597 -0.4002 -0.0671
 5248SOL    HW220724   0.871   3.115   4.339  0.0135  0.3454 -0.2953
 5248SOL    HW320725   0.721   3.131   4.352 -0.1905 -1.7080  0.2483
 5248SOL    MW420726   0.800   3.128   4.388  0.5870  0.0760 -0.1680
 5249SOL     OW20727   1.891   0.945   1.224  0.0316 -0.1950 -0.1779
 5249SOL    HW220728   1.937   1.021   1.188 -1.3714  0.7592 -0.0635
 5249SOL    HW320729   1.881   0.965   1.317 -0.4837 -0.4514 -0.1752
 5249SOL    MW420730   1.896   0.958   1.232  0.2100 -1.0796 -0.0584
 5250SOL     OW20731   4.521   4.194   6.309 -0.2094 -0.2506 -0.4661
 5250SOL    HW220732   4.502   4.153   6.393  0.4149 -1.2330 -0.7797
 5250SOL    HW320733   4.437   4.193   6.262 -0.1250 -1.5839 -0.6259
 5250SOL    MW420734   4.507   4.188   6.314 -0.0697  0.3994  0.1122
 5251SOL     OW20735   3.255   4.899   3.857  0.1749  0.0451  0.1890
 5251SOL    HW220736   3.199   4.976   3.866  1.2985  0.8241  0.7763
 5251SOL    HW320737   3.222   4.855   3.778 -1.1686  0.5322  0.4503
 5251SOL    MW420738   3.243   4.904   3.848 -0.1277  0.9317  0.0491
 5252SOL     OW20739   4.750   4.121   5.586 -0.0944  0.1527 -0.6463
 5252SOL    HW220740   4.720   4.066   5.658  0.3448  0.3950 -0.2761
 5252SOL    HW320741   4.693   4.198   5.588 -0.3080 -0.0015 -0.7784
 5252SOL    MW420742   4.739   4.124   5.596 -0.0125 -0.0426 -0.4642
 5253SOL     OW20743   0.143   4.109   3.393 -0.1799  0.0539  0.2300
 5253SOL    HW220744   0.112   4.042   3.332 -2.4533  0.5053  0.7992
 5253SOL    HW320745   0.085   4.184   3.378  1.7772  1.6521  0.1809
 5253SOL    MW420746   0.131   4.110   3.383 -0.2779  0.4048  0.6113
 5254SOL     OW20747   5.708   5.662   6.294  0.5429  0.1477 -0.0630
 5254SOL    HW220748   5.755   5.599   6.239  0.9883 -1.1378  1.6712
 5254SOL    HW320749   5.773   5.690   6.359 -0.3462  0.4072  0.7409
 5254SOL    MW420750   5.723   5.657   6.295  0.2744  0.3827 -0.0391
 5255SOL     OW20751   3.815   2.672   1.997 -0.1846  0.6817 -0.3214
 5255SOL    HW220752   3.722   2.683   2.020 -0.3008 -1.2632  0.3621
 5255SOL    HW320753   3.862   2.728   2.059 -0.9093  2.7036 -1.5076
 5255SOL    MW420754   3.809   2.681   2.008 -0.1475  0.0626 -0.2656
 5256SOL     OW20755   2.434   3.005   2.252 -0.1115 -0.2325 -0.2060
 5256SOL    HW220756   2.356   2.965   2.215  0.9101 -1.8762 -0.6820
 5256SOL    HW320757   2.465   3.064   2.184 -2.0505  2.1307  0.7893
 5256SOL    MW420758   2.428   3.008   2.238  0.1228  0.0233  0.2430
 5257SOL     OW20759   0.907   6.278   4.468 -0.4133  0.3673 -0.4074
 5257SOL    HW220760   0.938   6.198   4.508  1.8861  1.7390  0.7536
 5257SOL    HW320761   0.861   6.250   4.389 -0.4392 -2.0880  0.4186
 5257SOL    MW420762   0.905   6.264   4.463  0.3436 -0.1299  0.5194
 5258SOL     OW20763   3.463   1.751   0.624  0.5292  0.3031  0.5170
 5258SOL    HW220764   3.402   1.801   0.678 -0.5627 -1.5566  1.1191
 5258SOL    HW320765   3.503   1.688   0.685  1.3915  0.0147 -0.3135
 5258SOL    MW420766   3.461   1.749   0.639 -0.2254 -0.4406 -0.1504
 5259SOL     OW20767   5.136   5.667   2.202  0.0327  0.1541 -0.3694
 5259SOL    HW220768   5.148   5.762   2.189  0.6634  0.0164 -0.8562
 5259SOL    HW320769   5.046   5.658   2.234 -0.1734  0.8809 -0.7290
 5259SOL    MW420770   5.126   5.679   2.205 -0.2457  0.1041 -0.3321
 5260SOL     OW20771   3.481   1.292   5.296 -0.3784 -0.2794  0.3139
 5260SOL    HW220772   3.430   1.367   5.329 -0.2844  1.1326 -2.4924
 5260SOL    HW320773   3.470   1.225   5.364 -4.3506  0.5900  0.8107
 5260SOL    MW420774   3.473   1.293   5.310 -0.2356 -0.8941 -0.3911
 5261SOL     OW20775   2.738   5.313   4.530 -0.1315  0.0977  0.2483
 5261SOL    HW220776   2.714   5.249   4.463  0.2969  1.7818 -1.6034
 5261SOL    HW320777   2.833   5.309   4.535  0.0560  1.7368 -1.1595
 5261SOL    MW420778   2.747   5.304   4.522 -0.7535  0.0647 -0.2954
 5262SOL     OW20779   3.445   2.976   3.133  0.2351 -0.2242 -0.1055
 5262SOL    HW220780   3.464   3.032   3.058  1.6402 -0.4781  0.0187
 5262SOL    HW320781   3.421   2.892   3.095 -0.3079  0.0099 -0.2799
 5262SOL    MW420782   3.444   2.972   3.118  0.0062  0.0179 -0.3622
 5263SOL     OW20783   0.755   1.291   5.121 -0.1884  0.2632 -0.2938
 5263SOL    HW220784   0.758   1.331   5.208 -4.1803  0.4269 -0.0216
 5263SOL    HW320785   0.769   1.198   5.137 -2.4480  0.0495  0.9022
 5263SOL    MW420786   0.757   1.284   5.135  0.4388 -0.0850 -0.0514
 5264SOL     OW20787   1.907   4.301   6.187  0.1930 -0.6809 -0.5527
 5264SOL    HW220788   1.963   4.351   6.247 -0.4829 -1.0237  0.3936
 5264SOL    HW320789   1.820   4.305   6.227  0.1816 -2.9638 -0.1712
 5264SOL    MW420790   1.903   4.308   6.201 -0.5607 -0.2025 -0.0544
 5265SOL     OW20791   2.655   5.117   1.396 -0.0601 -0.3026 -0.0967
 5265SOL    HW220792   2.587   5.051   1.381 -0.9125  0.5442 -0.0823
 5265SOL    HW320793   2.677   5.108   1.489  0.0092 -0.7236 -0.1494
 5265SOL    MW420794   2.649   5.107   1.406  0.6545  0.0208  1.2808
 5266SOL     OW20795   6.367   5.886   5.198  0.3731 -0.0750  0.2682
 5266SOL    HW220796   6.414   5.816   5.244 -0.3984 -0.6075  0.2667
 5266SOL    HW320797   6.384   5.869   5.105  0.5328 -0.0036  0.2831
 5266SOL    MW420798   6.375   5.875   5.192 -0.4653  0.2514  0.2543
 5267SOL     OW20799   6.175   2.726   5.995  1.0030 -0.0848  0.0145
 5267SOL    HW220800   6.152   2.731   5.903  0.9084  0.1571  0.0516
 5267SOL    HW320801   6.188   2.632   6.011 -0.1349 -0.2597  0.0365
 5267SOL    MW420802   6.173   2.714   5.985  0.7290  0.5826  0.3711
 5268SOL     OW20803   4.488   6.001   3.796  0.5953 -0.2393 -0.5324
 5268SOL    HW220804   4.549   6.036   3.731  0.8774 -0.3150 -0.3103
 5268SOL    HW320805   4.531   5.922   3.828  0.5005 -0.1454 -0.1792
 5268SOL    MW420806   4.501   5.995   3.791 -0.3080  0.2517 -0.0691
 5269SOL     OW20807   5.242   4.502   2.544 -0.3057 -0.1703  0.5061
 5269SOL    HW220808   5.154   4.472   2.570 -0.2868 -0.0008  0.7662
 5269SOL    HW320809   5.262   4.451   2.466 -0.8059  0.0808  0.2078
 5269SOL    MW420810   5.233   4.491   2.537  0.5593  0.3634 -0.5716
 5270SOL     OW20811   0.831   0.116   4.842  0.7297  0.1457  0.3679
 5270SOL    HW220812   0.889   0.077   4.776 -0.3283 -0.6632 -0.1340
 5270SOL    HW320813   0.776   0.043   4.870 -0.6703  1.0719  0.1226
 5270SOL    MW420814   0.831   0.101   4.837  0.4460 -0.2464  0.4045
 5271SOL     OW20815   0.673   5.153   5.617 -0.5821  0.2399 -0.1357
 5271SOL    HW220816   0.681   5.066   5.576  0.7540  0.0798  0.4205
 5271SOL    HW320817   0.649   5.211   5.545 -1.1406 -0.5282 -0.5851
 5271SOL    MW420818   0.671   5.149   5.602  0.2402 -0.0891  0.3914
 5272SOL     OW20819   5.108   2.778   2.250 -0.7745  0.4745 -0.2814
 5272SOL    HW220820   5.153   2.804   2.169 -2.2765  0.8523 -1.0359
 5272SOL    HW320821   5.123   2.852   2.310  1.9284 -0.6013  0.5176
 5272SOL    MW420822   5.116   2.791   2.247 -0.6801 -0.0337  0.3370
 5273SOL     OW20823   5.234   2.626   4.764  0.1435 -0.2076 -0.0735
 5273SOL    HW220824   5.255   2.538   4.734 -0.3540  0.4740 -2.7143
 5273SOL    HW320825   5.315   2.659   4.803  0.4811 -1.6362  0.4684
 5273SOL    MW420826   5.247   2.619   4.765  1.1448 -0.9040 -0.0965
 5274SOL     OW20827   2.568   2.876   4.628 -0.2318 -0.2048  0.6759
 5274SOL    HW220828   2.604   2.795   4.592 -1.0216  0.1240 -0.9522
 5274SOL    HW320829   2.473   2.867   4.617 -0.2537  1.9514 -1.9962
 5274SOL    MW420830   2.560   2.864   4.622  0.3329  0.1467 -0.1609
 5275SOL     OW20831   4.603   0.912   3.569  0.0427 -0.1721  0.3469
 5275SOL    HW220832   4.570   0.954   3.649 -1.3193 -0.8946  0.1996
 5275SOL    HW320833   4.607   0.819   3.591  1.0398 -0.2179  0.0124
 5275SOL    MW420834   4.599   0.905   3.583 -0.1451  0.0249  0.4215
 5276SOL     OW20835   2.369   5.129   4.035 -0.3854 -0.2731 -0.0010
 5276SOL    HW220836   2.429   5.203   4.042 -1.4186  0.7992 -1.8397
 5276SOL    HW320837   2.338   5.131   3.945 -2.8305 -1.0416  0.7386
 5276SOL    MW420838   2.373   5.139   4.024 -0.3558 -0.4296 -0.2502
 5277SOL     OW20839   5.139   6.242   0.965 -0.1804  0.2582 -0.5270
 5277SOL    HW220840   5.047   6.255   0.989 -0.1634  1.7084 -1.1606
 5277SOL    HW320841   5.175   6.331   0.958  1.7260 -0.2815  1.3807
 5277SOL    MW420842   5.131   6.256   0.967 -0.3773 -0.0327 -0.1013
 5278SOL     OW20843   1.275   2.676   1.071  0.0071 -0.3888  0.1129
 5278SOL    HW220844   1.323   2.679   0.988  0.8346 -0.0318  0.5945
 5278SOL    HW320845   1.196   2.728   1.055 -0.5484 -1.4944 -0.8774
 5278SOL    MW420846   1.271   2.683   1.058  0.0287  1.1852  0.2702
 5279SOL     OW20847   1.900   4.813   2.319 -0.2073  0.1508 -0.1746
 5279SOL    HW220848   1.905   4.848   2.230 -0.8240  0.4732 -0.0941
 5279SOL    HW320849   1.912   4.890   2.375  1.5509 -0.2479  0.0509
 5279SOL    MW420850   1.902   4.828   2.315 -0.5791  0.0087  0.1857
 5280SOL     OW20851   1.233   4.690   4.774  0.3166 -0.7872 -0.0084
 5280SOL    HW220852   1.163   4.625   4.762 -2.0934  1.2668  1.9218
 5280SOL    HW320853   1.230   4.713   4.866  2.3837  0.7125 -0.2305
 5280SOL    MW420854   1.223   4.684   4.784 -0.3224 -0.4006  0.6568
 5281SOL     OW20855   2.777   4.322   3.898  0.8244  0.4762  0.1008
 5281SOL    HW220856   2.699   4.362   3.861  0.4976 -0.9304 -0.7943
 5281SOL    HW320857   2.790   4.367   3.982 -1.4974  0.0971  0.7197
 5281SOL    MW420858   2.769   4.333   3.904 -0.4342  0.0925  0.5377
 5282SOL     OW20859   4.996   0.830   6.323 -0.5254  0.1104  0.3677
 5282SOL    HW220860   4.910   0.831   6.366 -0.5107 -3.7330  0.7875
 5282SOL    HW320861   5.059   0.828   6.394  0.1752  4.1125  0.0883
 5282SOL    MW420862   4.993   0.830   6.338 -0.0947  0.4024 -0.0384
 5283SOL     OW20863   0.259   1.594   5.375  0.0317  0.1528 -0.3662
 5283SOL    HW220864   0.283   1.653   5.303 -1.5964  0.5186 -0.6722
 5283SOL    HW320865   0.239   1.653   5.448 -0.4940 -0.0662 -0.3233
 5283SOL    MW420866   0.259   1.610   5.375 -0.3676  0.2406  0.5875
 5284SOL     OW20867   4.030   3.873   3.875 -0.6234  0.7512 -0.0940
 5284SOL    HW220868   3.982   3.901   3.953 -0.5036  0.4107  0.1071
 5284SOL    HW320869   4.026   3.948   3.816  0.4016  1.5190  0.7651
 5284SOL    MW420870   4.023   3.886   3.878 -0.0269  0.2619 -0.0864
 5285SOL     OW20871   4.564   3.952   4.282  0.4581  0.7144 -0.4324
 5285SOL    HW220872   4.490   3.989   4.235 -1.1864 -0.1876  1.3297
 5285SOL    HW320873   4.639   3.969   4.225 -1.1993  0.8251 -2.7189
 5285SOL    MW420874   4.564   3.959   4.269 -0.3485 -0.5472  0.0613
 5286SOL     OW20875   1.947   4.418   5.515  0.5434 -0.5104  0.3543
 5286SOL    HW220876   1.970   4.377   5.598  0.4855 -2.2254 -0.4433
 5286SOL    HW320877   2.028   4.459   5.485  0.6518 -0.1917  1.0667
 5286SOL    MW420878   1.961   4.418   5.522 -0.6666 -0.7418  0.0010
 5287SOL     OW20879   5.760   4.543   5.239 -0.0822  0.0627  0.2241
 5287SOL    HW220880   5.692   4.534   5.306 -2.2840 -1.1940 -2.0110
 5287SOL    HW320881   5.777   4.453   5.210  0.0937  0.6421 -1.5616
 5287SOL    MW420882   5.753   4.530   5.244  0.0370  0.3298  0.2041
 5288SOL     OW20883   4.190   1.480   2.075 -0.2015  0.6404 -0.4994
 5288SOL    HW220884   4.153   1.468   1.988  1.0638 -1.2135 -0.8495
 5288SOL    HW320885   4.282   1.503   2.058 -0.1189  0.9537  0.3446
 5288SOL    MW420886   4.198   1.481   2.061 -0.0383 -0.1199  0.1030
 5289SOL     OW20887   3.013   3.577   5.448  0.4901  0.0660 -0.2647
 5289SOL    HW220888   3.090   3.609   5.402  0.3526  0.9088  0.0606
 5289SOL    HW320889   2.952   3.651   5.446  0.6683  0.3040  1.6731
 5289SOL    MW420890   3.015   3.591   5.442  0.2376  0.3313 -0.1831
 5290SOL     OW20891   3.938   3.167   3.210 -0.2951  0.4676  0.4412
 5290SOL    HW220892   4.003   3.238   3.211  1.0596 -0.7308  0.2256
 5290SOL    HW320893   3.858   3.209   3.176  0.5992  1.7774 -0.1419
 5290SOL    MW420894   3.936   3.182   3.205  0.1889 -0.0880 -0.0025
 5291SOL     OW20895   0.098   2.087   5.780  0.0156 -0.0295  0.6629
 5291SOL    HW220896   0.076   1.996   5.800 -1.0402  0.2446  0.7979
 5291SOL    HW320897   0.190   2.084   5.755 -0.1065 -1.2013  0.2704
 5291SOL    MW420898   0.107   2.074   5.779  0.0986  1.1427  0.0111
 5292SOL     OW20899   1.447   2.091   0.751  0.4716 -0.3328  0.6698
 5292SOL    HW220900   1.373   2.134   0.792  1.0434 -0.3479  1.7492
 5292SOL    HW320901   1.465   2.014   0.806  0.2452 -1.2787 -0.5228
 5292SOL    MW420902   1.440   2.086   0.763  0.0626 -0.3440  0.0501
 5293SOL     OW20903   2.627   2.386   3.024 -0.8422  0.6128  0.1296
 5293SOL    HW220904   2.555   2.369   3.084 -0.2133  0.1114  0.7595
 5293SOL    HW320905   2.689   2.314   3.039 -0.5384  0.6294 -0.9145
 5293SOL    MW420906   2.626   2.374   3.034 -0.2407 -0.3431  0.5767
 5294SOL     OW20907   1.284   5.242   4.292  0.4160 -0.4506  0.0875
 5294SOL    HW220908   1.248   5.174   4.349  0.4077 -0.0244  0.5901
 5294SOL    HW320909   1.256   5.216   4.204 -1.6499  0.1745  0.5063
 5294SOL    MW420910   1.276   5.230   4.288  0.0107  0.5646 -0.4010
 5295SOL     OW20911   2.563   5.290   2.611 -1.1986 -0.4627 -0.3601
 5295SOL    HW220912   2.594   5.313   2.523 -0.2676  1.2150  0.3513
 5295SOL    HW320913   2.471   5.318   2.612 -0.8527  0.7641 -0.4218
 5295SOL    MW420914   2.555   5.297   2.599  0.4380 -0.5848  0.0339
 5296SOL     OW20915   3.672   3.910   1.932  0.2153 -0.6250  0.4956
 5296SOL    HW220916   3.695   3.988   1.880 -1.1263 -2.2294 -2.7558
 5296SOL    HW320917   3.591   3.934   1.977 -0.0383 -0.0235 -0.2590
 5296SOL    MW420918   3.664   3.924   1.931  0.5396 -0.0785 -0.0653
 5297SOL     OW20919   0.159   3.096   2.099 -0.4561 -0.2962  0.1675
 5297SOL    HW220920   0.161   3.185   2.064  0.0366 -0.5279 -0.4089
 5297SOL    HW320921   0.147   3.040   2.022 -0.7597 -0.7314  0.5241
 5297SOL    MW420922   0.157   3.100   2.085  0.0388  0.5911  0.1392
 5298SOL     OW20923   5.341   0.395   5.496 -0.0044 -0.3205  0.3404
 5298SOL    HW220924   5.346   0.435   5.583 -0.2357 -0.1496  0.2780
 5298SOL    HW320925   5.285   0.318   5.509 -1.0939  0.4042  0.0992
 5298SOL    MW420926   5.334   0.390   5.510 -0.6584  0.0503 -0.3504
 5299SOL     OW20927   4.243   0.810   1.285 -0.3535 -0.1660 -0.2558
 5299SOL    HW220928   4.164   0.863   1.298 -0.7034 -0.2185 -1.9125
 5299SOL    HW320929   4.227   0.730   1.335 -1.5403 -0.3416 -0.8792
 5299SOL    MW420930   4.230   0.807   1.293  0.1339 -0.1725 -0.6358
 5300SOL     OW20931   3.968   2.217   5.619  0.0965  0.3397  0.1624
 5300SOL    HW220932   3.931   2.233   5.532 -0.9425  2.6481  0.9552
 5300SOL    HW320933   3.934   2.131   5.643  0.8955 -0.6377 -1.9105
 5300SOL    MW420934   3.958   2.208   5.610 -0.1362 -0.1239 -0.1136
 5301SOL     OW20935   0.529   1.654   4.525 -0.2031  0.2699 -0.1769
 5301SOL    HW220936   0.437   1.631   4.516 -0.1600  0.4173 -1.1425
 5301SOL    HW320937   0.530   1.749   4.533 -0.1360  0.2690 -0.1702
 5301SOL    MW420938   0.517   1.663   4.525  0.2325  0.0449 -0.2444
 5302SOL     OW20939   0.654   4.757   4.726 -0.5229  0.6191  0.0913
 5302SOL    HW220940   0.593   4.794   4.790  1.4885  2.3581  1.0931
 5302SOL    HW320941   0.737   4.748   4.772  1.3825  3.1544 -2.4772
 5302SOL    MW420942   0.657   4.760   4.740 -0.0998 -0.2738 -0.5915
 5303SOL     OW20943   5.955   2.344   1.420 -0.2938 -0.2545  0.6884
 5303SOL    HW220944   5.962   2.282   1.492 -2.2687  0.6164  1.7233
 5303SOL    HW320945   5.861   2.351   1.404  0.0559 -2.4079 -3.8402
 5303SOL    MW420946   5.943   2.337   1.428  0.8971 -0.1380  0.4243
 5304SOL     OW20947   1.973   5.459   2.316 -0.5587 -0.7147  0.0720
 5304SOL    HW220948   1.928   5.540   2.292  0.5140 -0.0688  0.1542
 5304SOL    HW320949   1.965   5.454   2.411 -0.9069 -0.8743  0.0332
 5304SOL    MW420950   1.966   5.469   2.325  0.1609  0.4717  0.3067
 5305SOL     OW20951   2.815   4.223   3.251  0.4253  0.2393  0.2452
 5305SOL    HW220952   2.755   4.150   3.237  0.7443 -0.5389  2.4305
 5305SOL    HW320953   2.785   4.264   3.333  1.7424  0.9811  0.4001
 5305SOL    MW420954   2.803   4.219   3.260  0.2348 -0.3544  0.3226
 5306SOL     OW20955   5.492   2.272   2.674  0.1869  0.2657  0.3249
 5306SOL    HW220956   5.421   2.335   2.666 -0.4134 -0.4558 -0.1874
 5306SOL    HW320957   5.561   2.319   2.720 -2.1052 -0.1463  4.8037
 5306SOL    MW420958   5.492   2.287   2.679 -0.3175 -0.1673  0.7446
 5307SOL     OW20959   6.185   0.348   1.631  0.1175  0.4626 -0.0542
 5307SOL    HW220960   6.154   0.296   1.557 -0.3617  0.2435  0.2960
 5307SOL    HW320961   6.115   0.342   1.696  0.4502  0.8094  0.3446
 5307SOL    MW420962   6.172   0.340   1.630 -0.3030 -0.1651  0.8705
 5308SOL     OW20963   4.028   3.116   2.679 -0.0152  0.1298 -0.6962
 5308SOL    HW220964   4.094   3.083   2.740 -1.1474  0.9982  1.0745
 5308SOL    HW320965   4.078   3.161   2.611  1.2684 -0.5295 -0.2179
 5308SOL    MW420966   4.043   3.118   2.678 -0.1132 -0.8279 -0.5785
 5309SOL     OW20967   3.616   0.357   3.727 -0.6660  0.5199  0.5260
 5309SOL    HW220968   3.652   0.344   3.639  0.9888 -0.8244  1.3396
 5309SOL    HW320969   3.658   0.437   3.758  0.6086 -0.2786  0.9374
 5309SOL    MW420970   3.627   0.366   3.720 -0.2675  0.7073 -0.2629
 5310SOL     OW20971   1.815   5.725   2.755  0.4749  0.1372  0.2940
 5310SOL    HW220972   1.813   5.806   2.704 -0.1001 -0.5809 -0.8733
 5310SOL    HW320973   1.804   5.753   2.846 -1.7093  1.2486 -0.2501
 5310SOL    MW420974   1.813   5.740   2.760 -0.3053  0.3432  0.2136
 5311SOL     OW20975   1.475   3.711   6.211  0.2481 -0.5469 -0.2321
 5311SOL    HW220976   1.483   3.628   6.260  2.5426  0.3461  1.0733
 5311SOL    HW320977   1.549   3.710   6.150 -0.8180 -0.2567 -1.5719
 5311SOL    MW420978   1.486   3.700   6.210 -0.0272  0.7954  0.0214
 5312SOL     OW20979   0.087   1.975   4.600 -0.5669 -0.2964 -0.0177
 5312SOL    HW220980   0.028   1.901   4.613  0.0597 -0.7184  0.4722
 5312SOL    HW320981   0.112   1.969   4.508 -0.4742 -0.7365  0.0325
 5312SOL    MW420982   0.082   1.964   4.589 -0.7286 -0.1638  0.5088
 5313SOL     OW20983   6.328   6.286   1.745 -0.2456  0.2383 -0.2549
 5313SOL    HW220984   6.333   6.192   1.764  1.8975  0.5600  1.1243
 5313SOL    HW320985   6.333   6.328   1.831  1.6264  1.6389 -0.9908
 5313SOL    MW420986   6.330   6.279   1.759  0.4183 -0.5209 -0.6058
 5314SOL     OW20987   1.487   5.165   3.678 -0.7244 -0.5960 -0.1184
 5314SOL    HW220988   1.410   5.118   3.711 -1.2336 -0.2533 -0.8016
 5314SOL    HW320989   1.452   5.248   3.645  0.0463 -0.1198  0.2511
 5314SOL    MW420990   1.472   5.170   3.678 -0.4186  0.7909 -0.1268
 5315SOL     OW20991   0.654   1.431   5.902  0.0438  0.6035 -0.1215
 5315SOL    HW220992   0.646   1.429   5.806  1.6000  0.1276 -0.2781
 5315SOL    HW320993   0.592   1.498   5.930 -0.3782  0.8115 -1.4721
 5315SOL    MW420994   0.645   1.439   5.893 -0.1594  0.3910  0.0012
 5316SOL     OW20995   0.137   4.752   3.079 -0.3493 -0.0750  0.2407
 5316SOL    HW220996   0.184   4.835   3.072  0.3142 -0.5096 -0.5896
 5316SOL    HW320997   0.049   4.771   3.046 -0.2457  0.3309  0.2035
 5316SOL    MW420998   0.131   4.765   3.074  0.0252 -0.3877  1.0332
 5317SOL     OW20999   1.070   5.686   5.762 -0.5544 -0.2936  0.3043
 5317SOL    HW221000   1.094   5.767   5.718 -1.3817 -0.2856 -0.1391
 5317SOL    HW321001   1.079   5.706   5.855 -0.1268  0.1053  0.1805
 5317SOL    MW421002   1.074   5.699   5.769 -0.4567  0.0254  0.1465
 5318SOL     OW21003   2.813   1.542   2.751  0.1037  0.1345  0.0060
 5318SOL    HW221004   2.788   1.496   2.831 -1.4899  0.8333 -0.0559
 5318SOL    HW321005   2.731   1.561   2.707  0.9086  0.4497 -1.4275
 5318SOL    MW421006   2.799   1.539   2.756 -0.2129  0.5422 -0.1189
 5319SOL     OW21007   0.916   6.234   6.191  0.7270  0.0151  0.2427
 5319SOL    HW221008   0.980   6.227   6.262  0.7939 -2.6419  0.0462
 5319SOL    HW321009   0.837   6.268   6.232  1.6284  1.3468  0.9357
 5319SOL    MW421010   0.914   6.237   6.206 -0.3984  0.2201  0.1249
 5320SOL     OW21011   3.284   2.863   5.891 -0.4186 -0.1042 -0.2142
 5320SOL    HW221012   3.282   2.804   5.967 -1.2047 -1.1498 -1.0231
 5320SOL    HW321013   3.364   2.838   5.844  0.7081  1.3291  0.8284
 5320SOL    MW421014   3.294   2.852   5.895  0.4004  0.1355 -0.1681
 5321SOL     OW21015   2.964   1.587   2.187  0.1390  0.2410  0.7122
 5321SOL    HW221016   2.960   1.656   2.253  2.3620  1.0711  0.0716
 5321SOL    HW321017   2.873   1.560   2.174 -0.6306  2.0458  2.0276
 5321SOL    MW421018   2.952   1.592   2.194  0.4522  0.1931 -0.2074
 5322SOL     OW21019   1.314   4.604   3.903  0.1526  0.3678 -0.7658
 5322SOL    HW221020   1.243   4.613   3.839 -1.1085 -0.0652  0.5174
 5322SOL    HW321021   1.325   4.692   3.939 -0.7229  0.1706  0.0211
 5322SOL    MW421022   1.306   4.617   3.899 -0.2616  0.1508 -0.8833
 5323SOL     OW21023   4.467   0.309   5.007  0.2213  0.0305  0.0499
 5323SOL    HW221024   4.553   0.301   4.968  0.1881  0.3643 -0.0882
 5323SOL    HW321025   4.406   0.310   4.933  0.2736  2.6213 -0.0477
 5323SOL    MW421026   4.470   0.308   4.992 -0.6794  0.4283 -0.0009
 5324SOL     OW21027   1.594   2.464   0.680 -0.1824  0.1535 -0.0530
 5324SOL    HW221028   1.667   2.522   0.658  0.6106 -0.2048  1.4848
 5324SOL    HW321029   1.625   2.415   0.756 -0.7719 -2.3872 -1.3386
 5324SOL    MW421030   1.608   2.465   0.687  0.1639  0.4217 -0.1819
 5325SOL     OW21031   2.378   4.170   5.102  0.9370  0.0677  0.0630
 5325SOL    HW221032   2.300   4.115   5.105  1.1471 -0.3843 -1.5484
 5325SOL    HW321033   2.373   4.224   5.180  0.6820 -2.1921  1.7233
 5325SOL    MW421034   2.367   4.170   5.113 -0.1234 -0.0173  0.4240
 5326SOL     OW21035   5.975   3.006   5.896  0.1727  0.1889  0.6278
 5326SOL    HW221036   6.019   3.016   5.980  0.4153 -0.0358  0.5265
 5326SOL    HW321037   5.908   3.075   5.896 -1.4932 -1.3154  2.0416
 5326SOL    MW421038   5.972   3.017   5.907  0.1453  0.0240  0.4640
 5327SOL     OW21039   1.173   4.755   4.460 -0.1645 -1.0130 -0.3575
 5327SOL    HW221040   1.205   4.730   4.547 -1.0220 -2.3891 -0.3992
 5327SOL    HW321041   1.083   4.723   4.458 -1.5199  2.3916 -0.3553
 5327SOL    MW421042   1.165   4.748   4.471  0.4129 -0.1702  0.5544
 5328SOL     OW21043   0.212   3.965   4.822 -0.5429 -0.4218  0.4732
 5328SOL    HW221044   0.245   4.009   4.743  1.3243 -1.3576  0.6650
 5328SOL    HW321045   0.117   3.961   4.810 -0.4447  0.7987 -1.0116
 5328SOL    MW421046   0.204   3.970   4.810 -0.4394 -0.2791 -0.3058
 5329SOL     OW21047   5.070   1.158   2.774  0.4221 -0.4068  0.0381
 5329SOL    HW221048   5.126   1.115   2.840 -1.2600 -0.8779  1.2217
 5329SOL    HW321049   5.107   1.130   2.690  1.9585 -0.6839  0.7624
 5329SOL    MW421050   5.082   1.148   2.772 -0.3709 -0.6281 -0.7546
 5330SOL     OW21051   1.752   5.999   5.339 -0.2895 -0.0691  0.0687
 5330SOL    HW221052   1.840   5.990   5.378 -0.2089 -1.5732 -0.3730
 5330SOL    HW321053   1.692   5.983   5.412 -0.2905  2.6341  0.7644
 5330SOL    MW421054   1.756   5.996   5.354  0.3500  0.0426 -0.1142
 5331SOL     OW21055   0.373   4.481   3.423 -0.1346 -0.0750 -0.0477
 5331SOL    HW221056   0.408   4.532   3.496 -0.6034 -0.9276  0.8041
 5331SOL    HW321057   0.296   4.530   3.394 -0.1941  0.0544  0.3219
 5331SOL    MW421058   0.368   4.494   3.429  0.9875 -0.0686  0.1895
 5332SOL     OW21059   3.449   3.286   5.982  0.1052  0.0717 -0.1257
 5332SOL    HW221060   3.440   3.206   6.034  0.4332  0.1140 -0.0021
 5332SOL    HW321061   3.453   3.356   6.047  1.0793  0.0764 -0.1789
 5332SOL    MW421062   3.448   3.285   5.998 -0.3618 -0.4200 -0.2404
 5333SOL     OW21063   4.671   2.418   1.785 -0.1274  0.0732 -0.3800
 5333SOL    HW221064   4.733   2.392   1.717 -0.7794  1.5555 -1.6132
 5333SOL    HW321065   4.585   2.405   1.747 -0.5160  0.7869  0.2081
 5333SOL    MW421066   4.668   2.413   1.771  0.2101 -0.1001 -0.3896
 5334SOL     OW21067   2.972   1.991   0.115 -0.1455  0.4433 -0.0935
 5334SOL    HW221068   2.947   2.083   0.123  1.2714  0.7379  1.5241
 5334SOL    HW321069   3.066   1.991   0.128 -0.0655 -1.2090 -0.5066
 5334SOL    MW421070   2.981   2.004   0.118  0.3664  0.2362  0.4080
 5335SOL     OW21071   5.160   0.583   5.373  0.0967 -0.6413  0.1671
 5335SOL    HW221072   5.210   0.507   5.400 -1.3533 -2.0531 -0.9079
 5335SOL    HW321073   5.070   0.564   5.401 -0.1647  1.0846  0.6483
 5335SOL    MW421074   5.155   0.571   5.381 -0.8762 -0.6003  0.0014
 5336SOL     OW21075   2.472   1.399   0.303 -0.0422 -0.3468  0.5515
 5336SOL    HW221076   2.535   1.344   0.257 -1.0869 -0.6988 -0.5200
 5336SOL    HW321077   2.487   1.487   0.269 -0.3727 -0.4950  0.0142
 5336SOL    MW421078   2.482   1.404   0.293 -0.3397  0.2312 -0.4480
 5337SOL     OW21079   2.977   3.036   4.433 -0.7436 -0.0211  0.1536
 5337SOL    HW221080   3.043   3.026   4.365 -2.4439 -0.8940 -1.4388
 5337SOL    HW321081   2.893   3.026   4.388 -1.9660 -0.0791  2.2872
 5337SOL    MW421082   2.974   3.034   4.418 -0.2699 -0.5955 -0.5345
 5338SOL     OW21083   3.342   0.227   1.209 -0.2559 -0.0855 -0.1112
 5338SOL    HW221084   3.391   0.146   1.224 -1.6724 -0.8167  0.8376
 5338SOL    HW321085   3.406   0.297   1.221  0.8530 -1.0319 -0.2950
 5338SOL    MW421086   3.357   0.225   1.212  0.7469  0.1706  1.1343
 5339SOL     OW21087   2.027   6.034   2.114 -1.3140 -0.0846 -0.5461
 5339SOL    HW221088   2.055   6.083   2.037  0.0514 -0.1130 -0.0950
 5339SOL    HW321089   1.931   6.036   2.110 -1.3086  2.0253 -0.9274
 5339SOL    MW421090   2.018   6.041   2.104 -0.6008 -0.6434  0.0343
 5340SOL     OW21091   5.128   5.925   6.173 -0.3863  0.4033 -0.3125
 5340SOL    HW221092   5.160   6.008   6.139 -0.8179  0.0679 -1.5932
 5340SOL    HW321093   5.033   5.932   6.168 -0.4255 -0.2152 -0.5726
 5340SOL    MW421094   5.120   5.936   6.168 -0.1535  0.1799  0.3235
 5341SOL     OW21095   6.422   0.091   5.758 -0.5783 -0.2051 -0.0980
 5341SOL    HW221096   6.484   0.113   5.688 -0.2193 -0.5483  0.1095
 5341SOL    HW321097   6.369   0.020   5.721  1.8145 -2.8409  1.1082
 5341SOL    MW421098   6.423   0.084   5.744 -0.0854  0.2165 -0.0808
 5342SOL     OW21099   1.278   5.375   5.473 -0.2171  0.3958 -0.2062
 5342SOL    HW221100   1.201   5.365   5.417 -1.4917 -0.6209  1.6179
 5342SOL    HW321101   1.280   5.295   5.525  2.0616  0.4339 -0.1300
 5342SOL    MW421102   1.268   5.363   5.472 -0.4463  0.7059 -0.0567
 5343SOL     OW21103   3.788   4.208   3.382 -0.1191 -0.0534  0.3094
 5343SOL    HW221104   3.820   4.122   3.412  1.4439  0.9710  1.8121
 5343SOL    HW321105   3.771   4.256   3.463  0.5895  1.5752 -0.4568
 5343SOL    MW421106   3.790   4.203   3.397 -0.2824  0.0738 -0.0915
 5344SOL     OW21107   2.514   4.137   2.933 -0.2822 -0.2753  0.3004
 5344SOL    HW221108   2.532   4.166   2.843  0.3162  0.7754  0.7279
 5344SOL    HW321109   2.494   4.218   2.980  0.9372 -0.6028  1.4491
 5344SOL    MW421110   2.514   4.152   2.927  0.9890  0.5405  0.0722
 5345SOL     OW21111   2.409   6.108   5.161  0.1535  0.1396 -0.1978
 5345SOL    HW221112   2.412   6.186   5.216  0.7758 -1.9008  2.8899
 5345SOL    HW321113   2.500   6.079   5.155 -0.1340 -0.6593 -0.8418
 5345SOL    MW421114   2.421   6.115   5.167  0.5514  0.3873 -0.4915
 5346SOL     OW21115   5.661   6.220   2.637 -0.0698  0.2589  0.8137
 5346SOL    HW221116   5.632   6.177   2.557  1.0766  0.2617  0.3859
 5346SOL    HW321117   5.580   6.234   2.687 -0.7006 -0.4751  0.0303
 5346SOL    MW421118   5.646   6.216   2.633  0.8285  0.1009 -0.4180
 5347SOL     OW21119   1.121   4.865   4.107 -0.6508 -0.3397 -0.1189
 5347SOL    HW221120   1.202   4.847   4.060 -0.9667  0.4533 -0.9836
 5347SOL    HW321121   1.051   4.846   4.044 -1.0510  1.7272 -0.3658
 5347SOL    MW421122   1.122   4.860   4.093 -0.2287  0.4920 -0.2077
 5348SOL     OW21123   4.319   6.020   3.579 -0.3206 -0.0124  0.2524
 5348SOL    HW221124   4.392   6.001   3.638  1.4067 -0.8986 -2.0087
 5348SOL    HW321125   4.352   6.087   3.520 -1.6760  0.2259 -0.2698
 5348SOL    MW421126   4.333   6.026   3.579 -0.2742  0.0690 -0.4972
 5349SOL     OW21127   4.841   6.034   4.793 -0.3269 -0.4708  0.1016
 5349SOL    HW221128   4.801   6.069   4.713  2.0600  0.0193 -0.9884
 5349SOL    HW321129   4.924   5.996   4.763  1.6371  1.5135  2.5855
 5349SOL    MW421130   4.847   6.033   4.778 -0.5116  0.0771  0.2345
 5350SOL     OW21131   1.886   3.227   1.834 -0.1929 -0.0073 -0.0157
 5350SOL    HW221132   1.967   3.235   1.784  0.4119  0.4941  1.0015
 5350SOL    HW321133   1.906   3.271   1.918 -0.8114 -1.7421  1.0841
 5350SOL    MW421134   1.900   3.234   1.839  0.2041 -0.2787  0.3252
 5351SOL     OW21135   0.558   5.615   3.518  0.0940 -0.1139 -0.4891
 5351SOL    HW221136   0.654   5.615   3.528  0.2500 -0.1520 -1.8789
 5351SOL    HW321137   0.531   5.528   3.548  0.6682 -0.6687 -1.5420
 5351SOL    MW421138   0.567   5.604   3.523 -0.5731  0.0618 -0.3817
 5352SOL     OW21139   0.834   3.080   1.881  0.4394  0.2985  0.0366
 5352SOL    HW221140   0.808   3.126   1.961 -1.8648  0.5281 -0.7505
 5352SOL    HW321141   0.868   2.996   1.911 -1.4716 -0.1072  1.2691
 5352SOL    MW421142   0.835   3.075   1.895 -0.2695  0.5100 -0.3025
 5353SOL     OW21143   2.545   6.416   0.655 -0.0550 -0.5667 -0.2113
 5353SOL    HW221144   2.575   6.357   0.586  1.3069 -1.1245  0.8110
 5353SOL    HW321145   2.589   6.499   0.636 -0.3559 -0.4640 -0.4795
 5353SOL    MW421146   2.555   6.420   0.644 -0.2674  0.0190  0.5732
 5354SOL     OW21147   1.515   6.127   5.247  0.9682  0.1912 -0.2491
 5354SOL    HW221148   1.520   6.220   5.224  2.3457  0.3848  0.7145
 5354SOL    HW321149   1.607   6.099   5.250  0.6417 -0.8102  0.9821
 5354SOL    MW421150   1.528   6.136   5.244  0.0768  0.4736  0.3230
 5355SOL     OW21151   0.836   3.744   4.494 -0.2582 -0.0527  0.1405
 5355SOL    HW221152   0.904   3.701   4.442  0.1098  0.4041  0.2380
 5355SOL    HW321153   0.768   3.767   4.430  0.6683  1.4796 -0.3494
 5355SOL    MW421154   0.836   3.741   4.478 -0.0063  0.1570 -0.4353
 5356SOL     OW21155   5.362   2.349   0.264 -0.1567  0.1670  0.6015
 5356SOL    HW221156   5.273   2.342   0.300  0.1226 -0.7694  1.1615
 5356SOL    HW321157   5.410   2.402   0.328  0.0940 -0.7061  1.1653
 5356SOL    MW421158   5.356   2.355   0.277 -0.0077  0.0061 -0.0302
 5357SOL     OW21159   0.506   5.715   3.954 -0.3130  0.3282 -0.2541
 5357SOL    HW221160   0.488   5.621   3.957  2.0835 -0.1640  0.7971
 5357SOL    HW321161   0.540   5.737   4.040  0.1123  1.9659 -0.7868
 5357SOL    MW421162   0.508   5.706   3.966  1.0843  0.1669  0.2873
 5358SOL     OW21163   2.136   5.505   5.653  0.0780  0.4573 -1.0382
 5358SOL    HW221164   2.188   5.425   5.653 -1.0559 -0.4000 -3.6981
 5358SOL    HW321165   2.179   5.562   5.717  1.7476 -1.7267 -0.0911
 5358SOL    MW421166   2.148   5.502   5.662 -0.0066 -0.3203  0.2495
 5359SOL     OW21167   2.781   3.780   4.872 -0.2672  0.0690  0.7306
 5359SOL    HW221168   2.733   3.822   4.943 -1.7240  0.4709 -0.4353
 5359SOL    HW321169   2.728   3.704   4.849 -0.5105  0.6385 -0.7254
 5359SOL    MW421170   2.768   3.776   4.878  0.4211  0.4345  0.0017
 5360SOL     OW21171   0.320   0.122   1.858 -0.0128  0.0544  0.1079
 5360SOL    HW221172   0.291   0.103   1.948 -1.0729 -0.0252 -0.2404
 5360SOL    HW321173   0.257   0.078   1.802  0.1915  0.7459 -0.6933
 5360SOL    MW421174   0.308   0.114   1.863 -0.2261 -0.5182 -0.1040
 5361SOL     OW21175   1.801   5.301   3.072  0.6943  0.1869 -0.2849
 5361SOL    HW221176   1.896   5.308   3.072  0.7702 -0.4559 -1.5973
 5361SOL    HW321177   1.783   5.215   3.109  0.5971  0.4283  0.2414
 5361SOL    MW421178   1.811   5.291   3.077 -0.4909 -0.0929  0.3968
 5362SOL     OW21179   4.332   6.269   1.537 -0.2450 -0.1744 -0.7219
 5362SOL    HW221180   4.268   6.263   1.466 -0.0577  0.8624 -1.0026
 5362SOL    HW321181   4.367   6.180   1.546  2.2098  0.2180 -4.2814
 5362SOL    MW421182   4.328   6.256   1.529  0.0651 -0.3956  0.2522
 5363SOL     OW21183   0.697   2.540   2.153  0.1517  0.5520  0.3918
 5363SOL    HW221184   0.760   2.512   2.086 -2.5005 -0.9400 -1.6961
 5363SOL    HW321185   0.717   2.485   2.229  0.4558 -0.9766 -0.7402
 5363SOL    MW421186   0.708   2.529   2.154 -0.3040  0.3966 -0.8692
 5364SOL     OW21187   5.337   4.633   4.454  0.2367 -0.5001  0.3053
 5364SOL    HW221188   5.368   4.545   4.474  2.6962  0.3514  0.6386
 5364SOL    HW321189   5.371   4.651   4.366 -0.2618  0.1171  0.2272
 5364SOL    MW421190   5.346   4.624   4.445 -0.5713  0.0511 -0.4445
 5365SOL     OW21191   4.083   3.683   4.922  0.3371  0.2245 -0.1859
 5365SOL    HW221192   4.169   3.691   4.881 -0.1715  0.4437 -1.2266
 5365SOL    HW321193   4.066   3.588   4.925  0.8616  0.1455  0.5706
 5365SOL    MW421194   4.092   3.671   4.917  0.5985 -0.9581 -0.2907
 5366SOL     OW21195   3.323   2.658   2.459 -0.0103  0.6717 -0.3555
 5366SOL    HW221196   3.310   2.741   2.504 -2.0098  0.6794 -0.8682
 5366SOL    HW321197   3.269   2.664   2.380 -0.4045 -1.2073 -0.2700
 5366SOL    MW421198   3.314   2.669   2.454  0.3862  0.1849 -0.3530
 5367SOL     OW21199   4.106   0.235   0.692  0.1813  0.0404 -0.2443
 5367SOL    HW221200   4.015   0.245   0.720  0.5914  0.4673  1.0097
 5367SOL    HW321201   4.141   0.167   0.749  0.4641 -0.6406 -1.2085
 5367SOL    MW421202   4.099   0.228   0.703  0.1670 -0.4632 -0.3433
 5368SOL     OW21203   5.940   3.366   2.965 -0.1847 -0.8528  0.2050
 5368SOL    HW221204   6.000   3.346   3.037  1.5424 -0.0151 -0.9351
 5368SOL    HW321205   5.956   3.297   2.900 -0.2996 -0.5090 -0.1966
 5368SOL    MW421206   5.950   3.354   2.966 -0.2480 -0.3032 -0.5219
 5369SOL     OW21207   4.628   6.301   2.686 -0.3618  0.1130 -0.4606
 5369SOL    HW221208   4.721   6.282   2.700 -0.3163  1.5550  1.6472
 5369SOL    HW321209   4.610   6.377   2.741 -2.6906  0.2160 -1.2329
 5369SOL    MW421210   4.638   6.309   2.695  0.0381 -0.0838  0.6435
 5370SOL     OW21211   0.020   1.811   5.820  0.4034  0.0301  0.3673
 5370SOL    HW221212   0.087   1.790   5.885  0.0414  1.2661  1.1811
 5370SOL    HW321213  -0.060   1.770   5.854  0.4108 -0.1138  0.2121
 5370SOL    MW421214   0.018   1.803   5.833 -0.2582 -0.0409 -0.2039
 5371SOL     OW21215   4.766   3.582   5.157  0.0152  0.5247 -0.5809
 5371SOL    HW221216   4.859   3.593   5.137  0.2133 -0.0464 -0.0080
 5371SOL    HW321217   4.739   3.667   5.189  0.1482  0.9160 -1.4754
 5371SOL    MW421218   4.775   3.594   5.158 -0.1433 -0.1111 -0.0506
 5372SOL     OW21219   3.978   1.555   5.594  0.3502  0.0630 -0.0816
 5372SOL    HW221220   3.915   1.578   5.662  0.3012 -0.7582  0.1585
 5372SOL    HW321221   4.052   1.517   5.642 -0.1000 -1.4367 -0.5414
 5372SOL    MW421222   3.979   1.553   5.610  0.2218  0.3129  0.4883
 5373SOL     OW21223   0.992   5.207   4.881 -0.1057  0.0683  0.5341
 5373SOL    HW221224   1.036   5.246   4.805  0.8231  0.0263  1.0337
 5373SOL    HW321225   0.903   5.190   4.850 -0.1582  1.3426 -0.1046
 5373SOL    MW421226   0.986   5.210   4.867  0.5868 -0.1955 -0.0896
 5374SOL     OW21227   5.134   4.352   5.509  0.1113  0.0405  0.2506
 5374SOL    HW221228   5.129   4.422   5.576  0.4981 -1.4019  1.8617
 5374SOL    HW321229   5.080   4.384   5.437  1.4561  2.6688  0.2860
 5374SOL    MW421230   5.126   4.366   5.509 -0.1733  0.0034  0.4179
 5375SOL     OW21231   1.770   2.411   5.018  0.3742  0.1871 -0.7458
 5375SOL    HW221232   1.813   2.438   5.099  0.2980 -1.8423  0.0522
 5375SOL    HW321233   1.830   2.437   4.948  0.6639  1.5531 -0.0084
 5375SOL    MW421234   1.783   2.418   5.020  0.1172 -0.9816 -0.0898
 5376SOL     OW21235   5.334   4.785   0.160 -0.5363  0.2756  0.0581
 5376SOL    HW221236   5.343   4.841   0.082 -0.3746 -2.1272 -1.7543
 5376SOL    HW321237   5.260   4.823   0.207  0.3073  2.7061 -0.4210
 5376SOL    MW421238   5.325   4.798   0.156 -0.3686 -0.3138 -0.0997
 5377SOL     OW21239   0.066   4.861   2.446 -0.7382 -0.0791 -0.2292
 5377SOL    HW221240   0.023   4.799   2.387 -1.7005  0.9593 -0.6526
 5377SOL    HW321241   0.074   4.942   2.395  0.2946  0.2290  0.3791
 5377SOL    MW421242   0.061   4.864   2.431 -0.1876 -0.1910  0.9573
 5378SOL     OW21243   5.782   6.316   3.645 -0.1883 -0.1225  0.1594
 5378SOL    HW221244   5.740   6.263   3.713  1.7421 -2.9949 -0.7183
 5378SOL    HW321245   5.874   6.320   3.671  0.3674 -0.2658 -1.6353
 5378SOL    MW421246   5.788   6.310   3.658 -0.2389 -0.2315  0.1135
 5379SOL     OW21247   2.667   4.058   0.386 -0.1828 -0.0055  0.2025
 5379SOL    HW221248   2.650   3.966   0.405  0.0272 -0.3802 -1.2690
 5379SOL    HW321249   2.581   4.094   0.363 -0.3211  0.2669  1.1081
 5379SOL    MW421250   2.653   4.051   0.385  0.1752  0.2880  0.0445
 5380SOL     OW21251   4.207   4.877   2.233 -0.2765  0.9335 -0.5372
 5380SOL    HW221252   4.227   4.854   2.324  1.4719  0.1302 -1.0869
 5380SOL    HW321253   4.114   4.857   2.223 -0.2425 -0.0024  0.7796
 5380SOL    MW421254   4.197   4.871   2.244 -0.7079 -0.1207 -0.7276
 5381SOL     OW21255   1.048   3.508   4.543  0.0301 -0.3513  0.6735
 5381SOL    HW221256   0.960   3.474   4.530 -0.4202  1.0967 -0.3734
 5381SOL    HW321257   1.100   3.467   4.474 -0.7856  1.8422 -1.4165
 5381SOL    MW421258   1.044   3.498   4.532 -0.1421 -0.2645  0.0391
 5382SOL     OW21259   3.784   6.285   4.900 -0.7487  0.5899  0.0715
 5382SOL    HW221260   3.742   6.251   4.822 -0.0834  0.4887 -0.2514
 5382SOL    HW321261   3.876   6.292   4.876 -0.5831  0.8216  0.7562
 5382SOL    MW421262   3.791   6.282   4.887 -0.2844 -0.1602 -0.0923
 5383SOL     OW21263   1.416   2.164   2.554  0.4980  0.2940  0.1485
 5383SOL    HW221264   1.388   2.254   2.537 -3.0232 -0.5914  0.3898
 5383SOL    HW321265   1.453   2.135   2.471 -0.1744  1.3893 -0.5731
 5383SOL    MW421266   1.417   2.172   2.541 -0.2002 -0.2299  0.1880
 5384SOL     OW21267   4.415   0.118   0.537  0.6545 -0.6586  0.6673
 5384SOL    HW221268   4.440   0.096   0.447  0.2558 -1.9824  0.8590
 5384SOL    HW321269   4.374   0.038   0.571  1.6649 -0.4987  2.3543
 5384SOL    MW421270   4.413   0.105   0.529 -0.2780  0.1523  0.6877
 5385SOL     OW21271   2.052   0.528   1.587 -0.2531 -0.4445 -0.1296
 5385SOL    HW221272   2.125   0.507   1.528  1.5017  0.6587  1.5068
 5385SOL    HW321273   2.073   0.482   1.668 -1.9857 -0.9588  0.0583
 5385SOL    MW421274   2.064   0.519   1.590 -0.5863  0.1120  0.1463
 5386SOL     OW21275   4.220   3.396   4.241 -0.1243  0.1055  0.1568
 5386SOL    HW221276   4.294   3.409   4.300  1.6231 -2.3703 -1.2977
 5386SOL    HW321277   4.168   3.327   4.282 -1.0642  1.0601  0.6216
 5386SOL    MW421278   4.223   3.389   4.254  0.0248  0.5593  0.1262
 5387SOL     OW21279   4.819   0.892   2.614 -0.3315  0.6656  0.3663
 5387SOL    HW221280   4.740   0.930   2.577 -0.6601 -1.0591 -0.8602
 5387SOL    HW321281   4.891   0.935   2.568 -0.6996 -0.3639 -1.2323
 5387SOL    MW421282   4.818   0.902   2.603  0.4558 -0.1450  0.5145
 5388SOL     OW21283   0.536   5.084   5.972  0.2064 -0.1940  0.4113
 5388SOL    HW221284   0.611   5.092   6.030 -0.8265  0.2369  1.7318
 5388SOL    HW321285   0.476   5.024   6.017 -1.7980  2.2027  1.1457
 5388SOL    MW421286   0.538   5.077   5.985  0.0467  0.1148  0.3570
 5389SOL     OW21287   1.113   3.863   5.537 -0.6354 -0.2600  0.3164
 5389SOL    HW221288   1.182   3.797   5.538  0.6275  1.0179  1.5630
 5389SOL    HW321289   1.064   3.845   5.457  0.2483 -2.0968  0.1402
 5389SOL    MW421290   1.115   3.852   5.526 -0.3997 -0.5475 -0.3166
 5390SOL     OW21291   3.376   6.250   5.478  0.3046  0.2882  0.7346
 5390SOL    HW221292   3.326   6.327   5.505 -1.5665 -0.9003  0.8296
 5390SOL    HW321293   3.328   6.176   5.514  1.9872 -0.9577  0.5506
 5390SOL    MW421294   3.363   6.250   5.486  0.6571  0.4147 -0.3409
 5391SOL     OW21295   2.039   5.058   3.016  0.0127  0.1624  0.4956
 5391SOL    HW221296   2.038   5.081   2.924  0.9195 -0.1964  0.3863
 5391SOL    HW321297   1.946   5.049   3.040 -0.2348  0.5450 -0.2938
 5391SOL    MW421298   2.026   5.060   3.007 -0.4187  0.2656  0.5917
 5392SOL     OW21299   3.101   3.960   1.786  0.5340 -0.0623  0.5439
 5392SOL    HW221300   3.175   3.997   1.738 -0.5671  1.2365 -0.2202
 5392SOL    HW321301   3.044   3.922   1.719  1.7705 -3.6703  1.2959
 5392SOL    MW421302   3.103   3.960   1.771  0.3651  0.3515  0.4384
 5393SOL     OW21303   5.781   5.100   0.744 -0.0078 -0.5076  0.3998
 5393SOL    HW221304   5.864   5.054   0.736  0.1516  0.0298 -1.4885
 5393SOL    HW321305   5.736   5.057   0.816  0.9392 -2.3240 -0.0538
 5393SOL    MW421306   5.786   5.089   0.752  0.1350  0.2156  0.1526
 5394SOL     OW21307   3.277   4.258   6.057  0.6685  0.2795  0.2601
 5394SOL    HW221308   3.323   4.317   5.996  0.0037 -0.2044 -0.7356
 5394SOL    HW321309   3.214   4.314   6.102 -0.8983  0.1608 -1.6308
 5394SOL    MW421310   3.275   4.273   6.055 -0.3196 -0.2927  0.0884
 5395SOL     OW21311   0.074   6.324   4.461 -0.2965 -0.8496 -0.4374
 5395SOL    HW221312   0.087   6.229   4.450  2.1005 -0.7414  0.7934
 5395SOL    HW321313   0.091   6.340   4.553  0.1414  0.9051 -0.7861
 5395SOL    MW421314   0.078   6.313   4.471  0.0622  0.6473 -0.4384
 5396SOL     OW21315   0.290   0.678   5.602  0.6288 -0.0054  0.1469
 5396SOL    HW221316   0.224   0.737   5.566 -0.0319  0.0331  1.3822
 5396SOL    HW321317   0.307   0.615   5.533  2.7379  2.6627 -2.0044
 5396SOL    MW421318   0.284   0.678   5.589 -0.4589 -0.5802  0.0680
 5397SOL     OW21319   5.738   3.537   4.161  0.2756 -0.2843 -0.2540
 5397SOL    HW221320   5.788   3.583   4.093 -1.1511  1.8085  0.0042
 5397SOL    HW321321   5.647   3.543   4.130 -0.2035 -0.7915  1.0166
 5397SOL    MW421322   5.732   3.544   4.148 -0.2386  0.6349 -0.2702
 5398SOL     OW21323   6.372   4.543   0.752 -0.3745 -0.2672  0.1257
 5398SOL    HW221324   6.283   4.544   0.789 -0.5527 -1.0980 -0.2593
 5398SOL    HW321325   6.398   4.635   0.749 -1.2612 -0.0086  0.1510
 5398SOL    MW421326   6.364   4.555   0.757  0.2577 -0.1769 -0.2548
 5399SOL     OW21327   5.443   3.388   0.986 -0.2993 -0.0281  0.1848
 5399SOL    HW221328   5.388   3.312   0.967  0.8085 -1.2153  1.4538
 5399SOL    HW321329   5.383   3.454   1.019 -1.1179 -0.8732  0.4388
 5399SOL    MW421330   5.428   3.386   0.988  0.7646 -0.1096  0.1967
 5400SOL     OW21331   2.979   1.175   2.664 -0.2240 -0.0875 -0.0695
 5400SOL    HW221332   3.070   1.156   2.689 -0.3304  0.1242  0.4829
 5400SOL    HW321333   2.969   1.133   2.579  0.2312 -0.5805  0.1112
 5400SOL    MW421334   2.990   1.167   2.656  0.3790 -0.4036 -0.4320
 5401SOL     OW21335   3.201   1.845   5.061 -0.0427 -0.2957 -0.1668
 5401SOL    HW221336   3.208   1.940   5.052 -0.6410 -0.2655 -0.3684
 5401SOL    HW321337   3.242   1.826   5.145 -0.6375  0.2416  0.2572
 5401SOL    MW421338   3.208   1.855   5.071  0.0936  0.4616  0.5134
 5402SOL     OW21339   3.213   0.421   4.242  0.1772  0.2007  0.1188
 5402SOL    HW221340   3.262   0.393   4.164 -0.5523 -1.3944  0.1887
 5402SOL    HW321341   3.277   0.419   4.313 -0.2027 -3.5313  0.5535
 5402SOL    MW421342   3.228   0.417   4.241 -0.3285 -0.5740  0.1098
 5403SOL     OW21343   4.988   5.486   0.949  0.3117  0.2337  0.2781
 5403SOL    HW221344   4.907   5.536   0.954 -0.0565 -0.4563  1.6477
 5403SOL    HW321345   5.037   5.527   0.877 -0.9026  1.1444 -0.0629
 5403SOL    MW421346   4.984   5.498   0.940  0.2655 -0.2382 -0.3615
 5404SOL     OW21347   4.051   4.718   6.104  0.6078  0.8099  0.4043
 5404SOL    HW221348   4.023   4.739   6.015  0.9706  0.5289  0.2222
 5404SOL    HW321349   4.023   4.793   6.156 -1.2364  0.1725  0.3830
 5404SOL    MW421350   4.044   4.731   6.099 -0.2655 -0.1089  0.2862
 5405SOL     OW21351   4.198   2.075   2.528  0.1120  0.7353  0.0988
 5405SOL    HW221352   4.287   2.064   2.561  0.8769  1.5142 -1.5782
 5405SOL    HW321353   4.208   2.080   2.433 -1.3961  3.4511 -0.0210
 5405SOL    MW421354   4.211   2.074   2.520  0.3421  0.1267  0.3369
 5406SOL     OW21355   1.870   5.542   5.799 -0.6845 -0.3965  0.2797
 5406SOL    HW221356   1.862   5.502   5.886  1.9161  0.9216  1.2319
 5406SOL    HW321357   1.953   5.508   5.764 -1.3607 -0.3832 -1.4264
 5406SOL    MW421358   1.880   5.533   5.806  0.0269  0.4161 -0.3861
 5407SOL     OW21359   0.607   5.917   1.152 -0.2439 -0.1808 -0.8973
 5407SOL    HW221360   0.631   5.890   1.241 -0.4711  1.1846 -0.3901
 5407SOL    HW321361   0.518   5.885   1.141 -0.9969  1.4224  0.1914
 5407SOL    MW421362   0.599   5.909   1.163  0.3089 -0.0776  0.0978
 5408SOL     OW21363   2.326   2.192   5.441  0.8170  0.2910  0.0453
 5408SOL    HW221364   2.280   2.169   5.360 -0.4031  0.5018  0.6667
 5408SOL    HW321365   2.344   2.108   5.483 -0.2620  0.2646  0.4761
 5408SOL    MW421366   2.322   2.178   5.436 -0.1046  0.0048 -0.1496
 5409SOL     OW21367   4.811   1.145   1.507  0.1720  0.4405  0.4159
 5409SOL    HW221368   4.899   1.119   1.534  0.1845  0.4527  0.3874
 5409SOL    HW321369   4.769   1.178   1.587 -0.1015 -0.3765  0.6209
 5409SOL    MW421370   4.817   1.146   1.521 -0.3166  0.4626 -0.0025
 5410SOL     OW21371   0.939   0.721   3.657  0.3338 -0.1419  0.3700
 5410SOL    HW221372   0.899   0.652   3.604  0.6895  1.0517 -1.5615
 5410SOL    HW321373   0.906   0.705   3.745  0.8293 -3.0694  0.1256
 5410SOL    MW421374   0.929   0.710   3.661  0.1152  0.2239  0.0153
 5411SOL     OW21375   1.696   4.739   0.107  0.3017  0.3458  0.1079
 5411SOL    HW221376   1.784   4.725   0.142  0.1822  1.0847  0.7375
 5411SOL    HW321377   1.638   4.726   0.182 -0.1692 -0.5592 -0.3984
 5411SOL    MW421378   1.700   4.735   0.121 -0.0458  0.2028 -0.2846
 5412SOL     OW21379   6.208   2.521   1.157  0.2269  0.2990  0.2578
 5412SOL    HW221380   6.145   2.567   1.103 -0.5701 -0.0125  0.9085
 5412SOL    HW321381   6.249   2.589   1.210  0.5170  0.5132 -0.2371
 5412SOL    MW421382   6.205   2.536   1.157 -0.3346  0.4630 -0.0750
 5413SOL     OW21383   4.823   0.695   4.166 -0.7431 -0.0461  0.2846
 5413SOL    HW221384   4.840   0.729   4.254 -1.3175  0.1473  0.3289
 5413SOL    HW321385   4.744   0.742   4.138 -0.4736  0.0084 -0.3961
 5413SOL    MW421386   4.815   0.706   4.174  0.1710  0.6979  0.1463
 5414SOL     OW21387   4.284   1.929   3.988  0.5268 -0.1149 -0.2684
 5414SOL    HW221388   4.248   1.852   3.944 -0.1403 -0.5333  0.9416
 5414SOL    HW321389   4.371   1.902   4.016  0.6434 -0.1233 -0.6408
 5414SOL    MW421390   4.291   1.915   3.986  0.0490 -0.6601 -0.5446
 5415SOL     OW21391   1.858   4.931   5.564  0.1048 -0.8884  0.5347
 5415SOL    HW221392   1.950   4.918   5.539  0.3593 -1.0494  1.5260
 5415SOL    HW321393   1.833   4.849   5.607 -0.9613 -1.4299 -0.9893
 5415SOL    MW421394   1.867   4.919   5.566 -0.4722 -0.4190  0.2942
 5416SOL     OW21395   5.949   2.649   1.732  0.6257 -0.0472  0.4101
 5416SOL    HW221396   5.935   2.626   1.824  0.0475  0.4948  0.4576
 5416SOL    HW321397   5.863   2.639   1.692  0.0379  3.1655  0.6696
 5416SOL    MW421398   5.936   2.644   1.739 -0.2885  0.5425  0.2669
 5417SOL     OW21399   4.957   1.395   3.317  0.8325 -0.1310 -0.5312
 5417SOL    HW221400   5.032   1.444   3.350  1.8684 -0.8134 -1.8110
 5417SOL    HW321401   4.979   1.374   3.226 -1.1837  0.2018 -1.1414
 5417SOL    MW421402   4.970   1.398   3.310 -0.0816 -0.0979 -0.4636
 5418SOL     OW21403   4.240   2.539   6.132 -0.3694  0.4367 -0.2202
 5418SOL    HW221404   4.156   2.570   6.166 -0.2083  1.0305 -0.3517
 5418SOL    HW321405   4.246   2.578   6.045  0.6000  1.4053  0.2621
 5418SOL    MW421406   4.230   2.548   6.125 -0.0598  0.1487 -0.3823
 5419SOL     OW21407   1.332   2.883   5.253 -0.0559  0.3441  0.4307
 5419SOL    HW221408   1.300   2.811   5.198  1.8737 -1.3128  1.3754
 5419SOL    HW321409   1.421   2.858   5.276  0.5000  2.8214  1.2420
 5419SOL    MW421410   1.339   2.870   5.248  0.1731 -0.0911  0.4431
 5420SOL     OW21411   2.683   5.545   0.314 -0.1955  0.0558  0.2716
 5420SOL    HW221412   2.625   5.541   0.390  0.2674 -2.3001  0.5609
 5420SOL    HW321413   2.736   5.466   0.319  0.9584  0.6243 -1.6622
 5420SOL    MW421414   2.683   5.534   0.324 -0.2903  0.1368  0.1296
 5421SOL     OW21415   2.295   5.138   2.449 -0.0735 -0.0588  0.9354
 5421SOL    HW221416   2.216   5.116   2.401  0.4161 -0.7113  0.3979
 5421SOL    HW321417   2.330   5.054   2.478  1.2886  0.0523 -0.2589
 5421SOL    MW421418   2.289   5.124   2.446 -0.2171 -0.0162  0.1172
 5422SOL     OW21419   0.445   1.502   1.259 -0.0851  0.1257  0.6144
 5422SOL    HW221420   0.488   1.583   1.287 -0.5782  0.5167  0.2458
 5422SOL    HW321421   0.451   1.444   1.335  0.3931  0.4550  0.8320
 5422SOL    MW421422   0.451   1.505   1.273 -0.0317  0.9335  0.1421
 5423SOL     OW21423   5.473   2.777   4.841  0.4262  0.4255 -0.5963
 5423SOL    HW221424   5.498   2.792   4.750  1.6897  0.1546 -0.3027
 5423SOL    HW321425   5.549   2.734   4.881 -0.3992 -0.1681  0.3933
 5423SOL    MW421426   5.486   2.773   4.834 -0.1914 -0.4924 -0.2673
 5424SOL     OW21427   5.391   3.367   2.627 -0.2557  0.5653 -0.8246
 5424SOL    HW221428   5.459   3.300   2.625 -0.3302  0.3769  1.2746
 5424SOL    HW321429   5.438   3.449   2.642 -0.4105  0.5778 -0.4082
 5424SOL    MW421430   5.406   3.369   2.629 -0.3811 -0.1333 -0.4916
 5425SOL     OW21431   2.107   0.157   2.792 -0.2674  0.2635  0.1398
 5425SOL    HW221432   2.088   0.075   2.837 -0.3074 -0.2760 -0.8200
 5425SOL    HW321433   2.154   0.210   2.856  0.1615 -0.6880  0.6343
 5425SOL    MW421434   2.111   0.153   2.806  0.2014  0.2797  0.3279
 5426SOL     OW21435   6.342   3.386   3.161 -0.5012  0.1803 -0.2133
 5426SOL    HW221436   6.313   3.473   3.190 -0.2906  0.1667  0.0422
 5426SOL    HW321437   6.366   3.397   3.070 -0.5635  0.3691 -0.2065
 5426SOL    MW421438   6.341   3.399   3.153  0.2356 -0.6396 -0.2814
 5427SOL     OW21439   1.154   3.113   2.263  0.2277 -0.3902 -0.3934
 5427SOL    HW221440   1.242   3.083   2.240  0.3029  0.1830 -0.8678
 5427SOL    HW321441   1.167   3.177   2.332  0.1395 -0.7123 -0.0757
 5427SOL    MW421442   1.167   3.117   2.269  0.3247  0.4030  0.3188
 5428SOL     OW21443   1.350   1.252   2.414 -0.0173  0.3039 -0.2246
 5428SOL    HW221444   1.280   1.315   2.403  0.4533  0.7812 -0.5501
 5428SOL    HW321445   1.430   1.305   2.415  0.5544 -0.4161 -2.4525
 5428SOL    MW421446   1.352   1.267   2.413 -0.1211  0.7213 -0.1245
 5429SOL     OW21447   6.098   3.908   0.528  0.5917  0.1330  0.4656
 5429SOL    HW221448   6.086   3.818   0.498 -2.8593  0.0415  1.7456
 5429SOL    HW321449   6.173   3.940   0.477  1.0222 -2.9524 -1.0921
 5429SOL    MW421450   6.107   3.900   0.517  0.0238  0.7611 -0.0389
 5430SOL     OW21451   6.289   5.519   2.377 -0.2980 -0.0458  0.0212
 5430SOL    HW221452   6.374   5.524   2.423 -0.6024  1.3787  0.5118
 5430SOL    HW321453   6.290   5.434   2.333  2.5199  0.9292 -2.1723
 5430SOL    MW421454   6.300   5.509   2.377  0.1832 -0.5924 -0.3157
 5431SOL     OW21455   3.563   2.588   2.136  0.2216 -0.5906  0.1768
 5431SOL    HW221456   3.520   2.520   2.188  0.7533  0.1524  1.6488
 5431SOL    HW321457   3.494   2.653   2.120  0.3156 -0.3281  0.8444
 5431SOL    MW421458   3.548   2.588   2.141  0.1620  0.1860 -0.1409
 5432SOL     OW21459   3.780   6.085   1.940  0.6066  0.0897 -0.2995
 5432SOL    HW221460   3.869   6.054   1.924  1.3565  2.0723 -0.2084
 5432SOL    HW321461   3.786   6.132   2.023 -0.5286  0.2232 -0.2849
 5432SOL    MW421462   3.793   6.087   1.949  0.6232 -0.0229  0.0527
 5433SOL     OW21463   2.140   1.342   1.902 -0.3214  0.2282  0.5158
 5433SOL    HW221464   2.214   1.382   1.857 -0.9748  0.6408 -0.2103
 5433SOL    HW321465   2.172   1.256   1.930  0.6524  0.6961  0.8552
 5433SOL    MW421466   2.154   1.336   1.900  0.5474  0.1124 -0.2399
 5434SOL     OW21467   2.850   0.204   4.174  0.6000  0.0323  0.6990
 5434SOL    HW221468   2.826   0.294   4.198 -0.5408 -0.5184  1.7083
 5434SOL    HW321469   2.812   0.191   4.087  0.4550  0.4041  0.7049
 5434SOL    MW421470   2.842   0.214   4.166 -0.6265 -0.6236  0.1877
 5435SOL     OW21471   2.211   2.601   5.626  0.1392 -0.1860 -0.6974
 5435SOL    HW221472   2.166   2.618   5.708  1.4417 -0.0304  0.0154
 5435SOL    HW321473   2.210   2.505   5.617  0.9529 -0.2747  0.0752
 5435SOL    MW421474   2.205   2.590   5.635 -0.0775  0.1624 -0.3640
 5436SOL     OW21475   6.101   2.555   3.589 -0.4548 -0.0552 -0.3266
 5436SOL    HW221476   6.139   2.642   3.603 -0.1043 -0.5256  1.9557
 5436SOL    HW321477   6.173   2.503   3.553 -0.0069  0.0147  0.4589
 5436SOL    MW421478   6.116   2.560   3.586  0.7774 -0.7598 -0.5896
 5437SOL     OW21479   0.201   1.455   0.633 -0.1981 -0.0425  0.2143
 5437SOL    HW221480   0.239   1.372   0.660  2.4059  0.9930  0.1220
 5437SOL    HW321481   0.217   1.514   0.707 -0.1008  0.8780 -0.5152
 5437SOL    MW421482   0.208   1.452   0.646 -0.1038 -0.0075 -0.1675
 5438SOL     OW21483   0.679   6.349   4.056  0.6890 -0.8426  0.1580
 5438SOL    HW221484   0.670   6.345   3.961 -0.4271  0.6631  0.1649
 5438SOL    HW321485   0.721   6.434   4.073  1.1770 -1.2311  1.0074
 5438SOL    MW421486   0.683   6.359   4.046  0.2895 -0.1538  0.1853
 5439SOL     OW21487   1.620   5.062   1.885  0.0883 -0.4473 -0.3983
 5439SOL    HW221488   1.553   5.071   1.953  1.1392 -0.6844  0.7121
 5439SOL    HW321489   1.571   5.041   1.806 -1.4008  1.8996 -0.2356
 5439SOL    MW421490   1.605   5.061   1.884  0.1453  0.2927 -0.2355
 5440SOL     OW21491   4.742   5.197   3.294 -0.5345  0.3993 -0.2396
 5440SOL    HW221492   4.757   5.113   3.251 -1.1570 -0.6898  1.5648
 5440SOL    HW321493   4.789   5.260   3.241  1.6093 -1.3612 -0.5608
 5440SOL    MW421494   4.750   5.194   3.282  0.2235 -0.4233 -0.0370
 5441SOL     OW21495   5.817   2.304   2.231  0.1566 -0.2005  0.0907
 5441SOL    HW221496   5.734   2.257   2.238  0.5704 -1.0187 -0.3172
 5441SOL    HW321497   5.879   2.238   2.201  1.2974  0.0246  1.8222
 5441SOL    MW421498   5.814   2.289   2.228 -0.2890  0.4769 -0.1502
 5442SOL     OW21499   0.257   0.197   2.471 -0.5332 -0.1653  0.0764
 5442SOL    HW221500   0.349   0.171   2.480 -1.1408 -2.1558  1.2835
 5442SOL    HW321501   0.253   0.284   2.510  0.5263 -0.7886  1.6839
 5442SOL    MW421502   0.269   0.205   2.477 -0.3182  0.1596  0.4316
 5443SOL     OW21503   5.555   5.727   2.402  0.1983  0.5723 -0.3582
 5443SOL    HW221504   5.510   5.670   2.464 -0.6795  0.3929 -1.1242
 5443SOL    HW321505   5.619   5.671   2.360  0.1951  0.4688 -0.2243
 5443SOL    MW421506   5.557   5.712   2.404  0.4691  0.0529 -0.4392
 5444SOL     OW21507   4.670   0.809   0.496  0.5050  0.4223  0.4246
 5444SOL    HW221508   4.655   0.817   0.402  0.6792 -0.6383  0.2939
 5444SOL    HW321509   4.597   0.756   0.528  0.3531  0.9177  0.9258
 5444SOL    MW421510   4.658   0.803   0.488 -0.7141  0.2622 -0.2014
 5445SOL     OW21511   6.347   1.660   5.401  0.0257 -0.4199  0.6290
 5445SOL    HW221512   6.438   1.691   5.402  0.0112 -0.2904 -0.7541
 5445SOL    HW321513   6.308   1.697   5.480  0.9486  0.1967  0.8093
 5445SOL    MW421514   6.354   1.669   5.411 -0.2532  0.3402 -0.1856
 5446SOL     OW21515   5.332   1.293   2.290  0.6570 -0.2390  0.4104
 5446SOL    HW221516   5.424   1.287   2.315  0.9916  0.3218 -0.6432
 5446SOL    HW321517   5.327   1.250   2.205  0.6128  2.5232 -1.1080
 5446SOL    MW421518   5.343   1.287   2.282 -0.2689  0.0376 -0.2632
 5447SOL     OW21519   3.881   3.945   2.114 -0.0759 -0.6801 -0.3092
 5447SOL    HW221520   3.954   3.954   2.052 -1.4134 -1.2665 -2.0548
 5447SOL    HW321521   3.805   3.925   2.059 -1.4489 -0.7145  1.5009
 5447SOL    MW421522   3.881   3.944   2.099  0.2206 -0.0988  0.9252
 5448SOL     OW21523   0.637   0.294   5.177  0.2416 -0.4445  0.3314
 5448SOL    HW221524   0.652   0.250   5.261  0.9373  1.5971  1.3538
 5448SOL    HW321525   0.720   0.288   5.131  0.0707 -0.9637  0.0919
 5448SOL    MW421526   0.650   0.288   5.182 -0.1886  0.4614  0.0144
 5449SOL     OW21527   3.101   5.096   4.574 -0.2497  0.5360  0.7047
 5449SOL    HW221528   3.150   5.043   4.636 -2.6051 -1.0359  1.3583
 5449SOL    HW321529   3.035   5.036   4.538 -2.5338  2.7824  0.8705
 5449SOL    MW421530   3.098   5.081   4.577  0.3989  0.0124  0.1005
 5450SOL     OW21531   5.992   0.950   4.073 -0.0782  0.1300 -0.8204
 5450SOL    HW221532   5.951   0.890   4.011 -3.2032  0.6111  0.5804
 5450SOL    HW321533   6.018   1.026   4.021  1.8271 -1.3840 -2.2236
 5450SOL    MW421534   5.990   0.952   4.058  0.3764  0.2022 -0.4892
 5451SOL     OW21535   4.984   4.088   0.294 -0.5479 -0.4626  0.2575
 5451SOL    HW221536   4.949   4.065   0.208 -1.3558  0.1896  0.3965
 5451SOL    HW321537   4.923   4.046   0.356  0.3577 -1.4182  0.5263
 5451SOL    MW421538   4.971   4.079   0.291  0.1643 -0.1933  0.3563
 5452SOL     OW21539   6.295   1.639   5.113 -0.8734  0.2547  0.3993
 5452SOL    HW221540   6.289   1.653   5.207 -0.9148  1.0428  0.2871
 5452SOL    HW321541   6.326   1.723   5.078  2.8562 -1.0485  0.0899
 5452SOL    MW421542   6.299   1.652   5.121  0.2863  0.2957  0.3747
 5453SOL     OW21543   5.393   6.348   2.226 -0.3515 -0.2656  0.2152
 5453SOL    HW221544   5.306   6.358   2.187  1.6536  0.9067 -4.6519
 5453SOL    HW321545   5.434   6.278   2.175  3.2491  2.7994 -1.5889
 5453SOL    MW421546   5.387   6.340   2.214  0.2164  0.3247 -0.3425
 5454SOL     OW21547   1.843   1.991   1.885 -0.4179  0.9452  1.1879
 5454SOL    HW221548   1.922   2.039   1.860  0.2609 -0.4017  0.6452
 5454SOL    HW321549   1.867   1.945   1.965  0.2181 -1.3785 -0.2366
 5454SOL    MW421550   1.857   1.992   1.892  0.4941 -0.2114  0.4053
 5455SOL     OW21551   4.688   0.373   5.789  0.1204  0.6828  0.3384
 5455SOL    HW221552   4.658   0.324   5.866  0.4105 -0.5503 -0.3031
 5455SOL    HW321553   4.678   0.465   5.814 -1.9062  0.3279  1.0390
 5455SOL    MW421554   4.682   0.378   5.803 -0.3556 -0.2540  0.7748
 5456SOL     OW21555   2.084   1.523   5.803  0.1150 -0.2079 -0.2259
 5456SOL    HW221556   2.104   1.610   5.838  2.0849 -0.3259 -0.9251
 5456SOL    HW321557   2.013   1.491   5.858 -0.0833  1.5009  0.5855
 5456SOL    MW421558   2.078   1.530   5.814  0.5955 -0.7027 -0.3615
 5457SOL     OW21559   1.163   1.129   0.800  0.9057 -0.0929 -0.0218
 5457SOL    HW221560   1.120   1.096   0.721  1.6090  1.1368 -0.9450
 5457SOL    HW321561   1.101   1.192   0.837  0.1510 -1.3736  0.9922
 5457SOL    MW421562   1.149   1.133   0.794 -0.6794  0.8334  0.2781
 5458SOL     OW21563   3.232   2.840   3.762 -0.4618  0.2608  0.1701
 5458SOL    HW221564   3.262   2.889   3.685 -2.5929 -2.1764 -2.4332
 5458SOL    HW321565   3.160   2.893   3.797 -0.5434  0.6208 -0.5192
 5458SOL    MW421566   3.226   2.853   3.756  0.0301 -0.1508 -0.1075
 5459SOL     OW21567   6.312   5.863   4.347  0.4455 -0.3368  0.3133
 5459SOL    HW221568   6.217   5.858   4.362  0.3097 -2.5020 -0.7262
 5459SOL    HW321569   6.323   5.935   4.285 -0.3445  0.7635  1.4112
 5459SOL    MW421570   6.301   5.872   4.341  0.5578  0.0805  0.7782
 5460SOL     OW21571   6.153   4.299   5.329 -0.9251  0.0389 -0.6896
 5460SOL    HW221572   6.114   4.221   5.368  1.5475 -0.9869 -0.0498
 5460SOL    HW321573   6.123   4.371   5.384 -1.9150 -0.6678 -0.2780
 5460SOL    MW421574   6.144   4.299   5.341  0.0059  0.5217  0.5911
 5461SOL     OW21575   0.204   0.818   5.127 -0.4065 -0.2395  0.1805
 5461SOL    HW221576   0.220   0.812   5.221 -1.4036  1.9864  0.5537
 5461SOL    HW321577   0.117   0.780   5.115 -0.8923  0.7579  0.4148
 5461SOL    MW421578   0.195   0.812   5.138  0.5920  0.3665  0.2380
 5462SOL     OW21579   6.299   0.958   0.102 -0.9363  0.5351 -0.6755
 5462SOL    HW221580   6.357   0.977   0.029 -2.0996  2.4716 -1.1752
 5462SOL    HW321581   6.211   0.978   0.069 -1.8083 -1.3053  0.3825
 5462SOL    MW421582   6.295   0.963   0.088  0.5585 -0.1516 -0.1283
 5463SOL     OW21583   5.353   5.454   5.457 -0.1848  0.1777  0.2203
 5463SOL    HW221584   5.305   5.372   5.445  1.0857 -0.7955  1.3890
 5463SOL    HW321585   5.363   5.489   5.368  0.2793 -1.5700 -0.4690
 5463SOL    MW421586   5.348   5.448   5.444 -0.2644  0.0973 -0.6185
 5464SOL     OW21587   6.273   2.541   5.698  0.5310  0.0740  0.0578
 5464SOL    HW221588   6.299   2.458   5.659 -1.7894 -1.1351  0.8674
 5464SOL    HW321589   6.226   2.587   5.629  2.6987  1.2551 -0.7138
 5464SOL    MW421590   6.270   2.536   5.684 -0.0327  0.1034 -0.7002
 5465SOL     OW21591   4.285   2.189   5.074  0.4340 -0.6001 -0.3674
 5465SOL    HW221592   4.205   2.200   5.126  1.2230 -0.8319  0.9327
 5465SOL    HW321593   4.281   2.098   5.042  0.6229 -0.9189  0.4922
 5465SOL    MW421594   4.274   2.178   5.076 -1.0423  0.8878 -0.0349
 5466SOL     OW21595   1.508   6.213   0.218 -0.1142  0.7084  0.3480
 5466SOL    HW221596   1.557   6.256   0.288 -0.2706  1.4033  0.0338
 5466SOL    HW321597   1.545   6.125   0.215  0.6017  0.9911  0.6202
 5466SOL    MW421598   1.520   6.207   0.227  0.4323 -0.2373  0.0109
 5467SOL     OW21599   4.473   2.621   3.049 -0.1250  0.5330  0.2566
 5467SOL    HW221600   4.419   2.599   3.125  0.5527  0.5476  0.7569
 5467SOL    HW321601   4.481   2.539   3.000  1.4806 -0.1334  1.5352
 5467SOL    MW421602   4.467   2.607   3.052  0.0869  0.1905 -0.1130
 5468SOL     OW21603   1.049   0.372   4.554  0.0684 -0.2543 -0.2301
 5468SOL    HW221604   1.093   0.288   4.571  1.4657  0.4114 -0.3674
 5468SOL    HW321605   1.114   0.438   4.581 -1.2485  0.7878  0.4849
 5468SOL    MW421606   1.064   0.370   4.560  0.5153 -0.2836  0.3249
 5469SOL     OW21607   4.500   5.607   1.011 -0.4964 -0.1650 -0.4399
 5469SOL    HW221608   4.452   5.579   0.933 -1.4938  1.4595 -0.4757
 5469SOL    HW321609   4.441   5.670   1.053  1.3043  1.3833 -0.0913
 5469SOL    MW421610   4.486   5.612   1.006  0.3717 -0.2492 -0.0132
 5470SOL     OW21611   5.241   0.955   2.342  0.7894  0.2615  0.3473
 5470SOL    HW221612   5.300   0.992   2.277  0.9727 -0.6616 -0.0229
 5470SOL    HW321613   5.267   0.864   2.349 -1.0076 -0.3504 -0.3032
 5470SOL    MW421614   5.252   0.948   2.335  0.4123 -0.3919 -0.8046
 5471SOL     OW21615   1.884   4.565   0.518  0.4370  0.2315 -0.0138
 5471SOL    HW221616   1.929   4.649   0.530  1.0739 -0.1819  0.6167
 5471SOL    HW321617   1.870   4.533   0.607  1.6646 -1.0731 -0.2631
 5471SOL    MW421618   1.888   4.572   0.532 -0.9370 -0.4553 -1.0462
 5472SOL     OW21619   3.248   3.288   4.156  0.3586 -0.4771 -0.0388
 5472SOL    HW221620   3.294   3.251   4.081 -0.7091  0.4564 -1.2230
 5472SOL    HW321621   3.313   3.340   4.202  0.8320 -0.3512 -0.8418
 5472SOL    MW421622   3.262   3.290   4.152  0.0999 -0.1067  0.5444
 5473SOL     OW21623   2.321   1.958   2.055  0.0188  0.1373 -0.0380
 5473SOL    HW221624   2.384   2.016   2.013 -0.4575  1.3642  0.8557
 5473SOL    HW321625   2.335   1.873   2.015  1.0438  0.7778 -1.0904
 5473SOL    MW421626   2.331   1.955   2.044  0.1675  0.5307  0.5802
 5474SOL     OW21627   5.583   4.102   0.245  0.0042 -0.4675  0.4865
 5474SOL    HW221628   5.568   4.173   0.308 -0.8806 -1.1071  1.0130
 5474SOL    HW321629   5.576   4.145   0.159 -0.3178  0.1281  0.7988
 5474SOL    MW421630   5.580   4.117   0.242  0.3246  0.4031 -0.1016
 5475SOL     OW21631   2.365   0.754   1.860 -0.4444  0.1838 -0.3260
 5475SOL    HW221632   2.278   0.789   1.843 -0.7351  0.3402  1.2859
 5475SOL    HW321633   2.401   0.735   1.773 -1.8110  0.7471 -1.0492
 5475SOL    MW421634   2.359   0.756   1.846 -0.2341  0.1384  0.1734
 5476SOL     OW21635   4.318   3.149   4.799 -0.2047 -0.2272  0.2524
 5476SOL    HW221636   4.375   3.208   4.848  1.0344 -1.6400  0.5785
 5476SOL    HW321637   4.287   3.202   4.725 -2.1265  1.9612  2.4631
 5476SOL    MW421638   4.321   3.164   4.796  0.2035  0.3262  0.2807
 5477SOL     OW21639   2.393   4.943   0.767 -0.2970  0.0095 -0.4031
 5477SOL    HW221640   2.303   4.961   0.739 -0.4992  0.5304  0.5554
 5477SOL    HW321641   2.399   4.980   0.855  0.4318 -1.2813  0.1177
 5477SOL    MW421642   2.382   4.950   0.775 -0.4305  0.1809  0.7901
 5478SOL     OW21643   2.621   4.030   1.103  0.8320  0.0328  0.1538
 5478SOL    HW221644   2.554   4.031   1.172  0.5681  1.0540 -0.0992
 5478SOL    HW321645   2.698   3.991   1.145  0.1658 -0.9350  0.5155
 5478SOL    MW421646   2.622   4.025   1.118 -0.6588  0.0413  0.0746
 5479SOL     OW21647   0.743   1.699   5.004  0.1688 -0.6591 -0.0080
 5479SOL    HW221648   0.658   1.691   4.959 -0.3763  1.5961  0.4632
 5479SOL    HW321649   0.784   1.614   4.994 -2.3074 -1.9409  0.0475
 5479SOL    MW421650   0.737   1.687   4.997 -0.5724  0.0315 -0.3068
 5480SOL     OW21651   4.793   1.863   3.651  0.4133  0.6859 -0.1871
 5480SOL    HW221652   4.754   1.778   3.630  0.4940  0.2502  1.3144
 5480SOL    HW321653   4.784   1.914   3.570 -2.4706  0.3332 -0.1936
 5480SOL    MW421654   4.787   1.858   3.638  0.1288 -0.3377  0.0326
 5481SOL     OW21655   2.199   0.233   2.201  0.5138 -0.2676  0.1952
 5481SOL    HW221656   2.232   0.222   2.291  1.4328 -1.1947 -0.2377
 5481SOL    HW321657   2.226   0.153   2.156 -0.0012  0.1612 -0.8977
 5481SOL    MW421658   2.207   0.221   2.207 -0.6499  0.2851 -0.8113
 5482SOL     OW21659   2.189   2.617   2.786 -0.6044 -0.5165  0.5315
 5482SOL    HW221660   2.262   2.568   2.822  1.1237  1.9018  0.5326
 5482SOL    HW321661   2.168   2.683   2.852 -0.6741  0.8088 -0.7486
 5482SOL    MW421662   2.196   2.619   2.799 -0.3029  0.4912  0.2077
 5483SOL     OW21663   2.822   4.602   3.350  0.4254 -0.0764  0.2641
 5483SOL    HW221664   2.853   4.560   3.430  0.6684  0.6824  0.5829
 5483SOL    HW321665   2.839   4.696   3.365  0.1956  0.0982 -0.5498
 5483SOL    MW421666   2.828   4.609   3.363 -0.0727 -0.6230  0.4283
 5484SOL     OW21667   3.050   2.789   1.882 -0.5010 -0.1488 -0.3430
 5484SOL    HW221668   2.957   2.813   1.881 -0.6883 -0.8338 -0.0231
 5484SOL    HW321669   3.065   2.757   1.971  0.0320 -0.0907 -0.4123
 5484SOL    MW421670   3.040   2.788   1.894  0.3875  0.1381  0.1691
 5485SOL     OW21671   4.408   4.221   2.541  0.4813  0.0638 -0.7073
 5485SOL    HW221672   4.443   4.174   2.465  1.3863  1.1163 -0.9619
 5485SOL    HW321673   4.314   4.226   2.525  0.2395 -2.1752 -0.3672
 5485SOL    MW421674   4.400   4.215   2.529  0.6575 -0.1326 -0.4652
 5486SOL     OW21675   2.151   6.143   3.320 -0.5095 -0.2179 -0.4405
 5486SOL    HW221676   2.140   6.142   3.225  0.0601 -0.0036 -0.5181
 5486SOL    HW321677   2.109   6.063   3.351 -2.1561  0.5155 -0.6882
 5486SOL    MW421678   2.144   6.132   3.312 -0.3625 -0.5244  0.2422
 5487SOL     OW21679   1.355   1.774   2.936  0.0249 -0.8208  0.4353
 5487SOL    HW221680   1.383   1.856   2.894  0.8286 -0.7100  1.1683
 5487SOL    HW321681   1.383   1.705   2.876  0.8635 -0.6439  0.6163
 5487SOL    MW421682   1.362   1.776   2.923 -0.1124  0.4191 -0.4936
 5488SOL     OW21683   2.101   6.231   5.520 -0.0200  0.4292 -0.0502
 5488SOL    HW221684   2.079   6.227   5.613 -2.2259 -0.9474 -0.5410
 5488SOL    HW321685   2.028   6.278   5.480  0.6428  0.5661 -1.1570
 5488SOL    MW421686   2.088   6.237   5.527 -0.1377 -0.0559 -0.5376
 5489SOL     OW21687   3.446   1.230   1.107  0.1882  0.1454  0.0548
 5489SOL    HW221688   3.462   1.315   1.065  0.8372 -0.5143 -1.1044
 5489SOL    HW321689   3.521   1.217   1.164  1.0844 -0.4915 -1.2314
 5489SOL    MW421690   3.458   1.239   1.109 -0.4538  0.5634 -0.5188
 5490SOL     OW21691   4.913   0.573   5.136 -0.1537  0.3544  0.0436
 5490SOL    HW221692   5.003   0.586   5.166 -1.2493 -1.3491  5.0141
 5490SOL    HW321693   4.865   0.648   5.170 -1.4263 -1.5203  2.7484
 5490SOL    MW421694   4.919   0.584   5.145 -0.3871 -0.4479 -0.1726
 5491SOL     OW21695   0.404   0.651   2.470 -0.1142 -0.5620 -0.1572
 5491SOL    HW221696   0.442   0.700   2.397  0.2924 -0.8314 -0.1326
 5491SOL    HW321697   0.479   0.626   2.524 -0.4856  0.3081  0.7811
 5491SOL    MW421698   0.419   0.654   2.468  0.3051  0.1944  0.2361
 5492SOL     OW21699   2.213   3.839   6.123 -0.2503  0.2808 -0.0041
 5492SOL    HW221700   2.278   3.812   6.059 -1.3063 -0.6282 -0.7368
 5492SOL    HW321701   2.136   3.786   6.103 -0.3939 -0.6094  2.5119
 5492SOL    MW421702   2.211   3.828   6.112 -0.4422  0.1651  0.7330
 5493SOL     OW21703   0.624   2.484   0.387 -0.1032 -0.1983  0.2046
 5493SOL    HW221704   0.636   2.561   0.442 -0.5104  0.0808 -0.0900
 5493SOL    HW321705   0.535   2.455   0.406  0.0678 -0.6335  0.3557
 5493SOL    MW421706   0.614   2.491   0.397 -0.3286 -0.5023  0.5926
 5494SOL     OW21707   2.649   5.925   2.310 -0.1135 -0.1368  0.6074
 5494SOL    HW221708   2.611   6.009   2.334  0.7539  1.0751 -1.9676
 5494SOL    HW321709   2.593   5.892   2.240  0.4086 -1.0223  0.5879
 5494SOL    MW421710   2.636   5.931   2.304  0.0031  0.1943  0.1887
 5495SOL     OW21711   2.725   3.990   2.523  0.0765 -0.0806 -0.0684
 5495SOL    HW221712   2.686   3.965   2.439 -0.7872  1.8727 -0.3058
 5495SOL    HW321713   2.713   3.913   2.579 -0.2999 -1.0323 -1.4252
 5495SOL    MW421714   2.718   3.976   2.520  0.1036 -0.1947 -0.1153
 5496SOL     OW21715   4.828   0.743   4.446 -0.5685 -0.0116  0.6090
 5496SOL    HW221716   4.909   0.764   4.494  0.4637  0.9886 -1.4500
 5496SOL    HW321717   4.778   0.825   4.450  0.4058  0.7716 -1.5806
 5496SOL    MW421718   4.832   0.757   4.453 -0.2742  0.0205 -0.7046
 5497SOL     OW21719   5.884   1.632   0.575 -0.2469 -0.0757  0.5569
 5497SOL    HW221720   5.915   1.542   0.567  0.6058  0.2781 -0.3368
 5497SOL    HW321721   5.838   1.635   0.659  1.0228 -0.9651  1.3055
 5497SOL    MW421722   5.882   1.621   0.585 -0.0770  0.2761  1.0496
 5498SOL     OW21723   4.780   6.288   0.159 -0.1253  0.4577 -0.5769
 5498SOL    HW221724   4.800   6.326   0.244 -1.0531  0.0220 -0.1431
 5498SOL    HW321725   4.736   6.205   0.179 -0.0920  0.2072 -1.4791
 5498SOL    MW421726   4.777   6.282   0.173  0.1416 -0.2706  0.7324
 5499SOL     OW21727   0.208   2.025   2.174  0.2979 -0.1092  0.3737
 5499SOL    HW221728   0.259   2.028   2.093  1.3335  1.4505  1.0572
 5499SOL    HW321729   0.163   2.109   2.177 -0.0762 -0.3334  1.2153
 5499SOL    MW421730   0.209   2.036   2.163  0.2493  0.1843  0.2332
 5500SOL     OW21731   1.076   3.547   3.204 -0.2653  0.1255  0.1414
 5500SOL    HW221732   1.090   3.589   3.289  0.6221 -1.2554  0.6997
 5500SOL    HW321733   1.153   3.570   3.153 -0.1233 -0.2200  0.1996
 5500SOL    MW421734   1.088   3.556   3.208  0.4339 -0.5834  0.0295
 5501SOL     OW21735   5.587   3.529   0.226 -0.2366 -0.1688 -0.2452
 5501SOL    HW221736   5.675   3.497   0.208  1.1863  3.1606 -0.0044
 5501SOL    HW321737   5.601   3.617   0.261 -3.5922 -0.3934  2.0651
 5501SOL    MW421738   5.601   3.536   0.228 -0.1746 -0.2124 -0.6291
 5502SOL     OW21739   4.861   0.652   1.938  0.4169  0.6365  0.0081
 5502SOL    HW221740   4.946   0.643   1.980  0.3723 -1.0782 -0.1949
 5502SOL    HW321741   4.831   0.562   1.924 -1.3751  1.1838 -0.0355
 5502SOL    MW421742   4.868   0.639   1.942 -1.0062 -0.2270  0.4074
 5503SOL     OW21743   0.093   4.115   0.858  0.5177  0.1870  0.7923
 5503SOL    HW221744   0.106   4.209   0.861  1.4020  0.1781 -1.1235
 5503SOL    HW321745  -0.002   4.103   0.864  0.2520  1.3353 -0.5714
 5503SOL    MW421746   0.082   4.126   0.859  0.2547  0.1201 -0.5934
 5504SOL     OW21747   5.676   0.216   1.737  0.3480 -0.0813  0.1574
 5504SOL    HW221748   5.583   0.220   1.715  0.1970  0.4545  0.8489
 5504SOL    HW321749   5.700   0.125   1.723 -0.4881 -0.4126  0.7573
 5504SOL    MW421750   5.667   0.205   1.732  0.4174  0.1175 -0.0990
 5505SOL     OW21751   3.218   2.577   1.367  0.3205  0.5436  0.4609
 5505SOL    HW221752   3.309   2.582   1.397 -0.0672  0.2356  1.7470
 5505SOL    HW321753   3.224   2.584   1.272  1.6049  1.5816  0.5955
 5505SOL    MW421754   3.231   2.578   1.359 -0.1111  0.0291 -0.3292
 5506SOL     OW21755   3.207   4.412   4.299  0.4847 -0.0772 -0.6952
 5506SOL    HW221756   3.119   4.377   4.312  0.6788 -0.6164 -0.8066
 5506SOL    HW321757   3.223   4.466   4.377  0.5952 -1.1219  0.0336
 5506SOL    MW421758   3.197   4.414   4.311  0.7291 -0.1207 -0.3870
 5507SOL     OW21759   3.371   1.167   5.084  0.0052  0.2204  0.1948
 5507SOL    HW221760   3.283   1.146   5.114  0.6864 -2.5291  0.5839
 5507SOL    HW321761   3.410   1.216   5.157 -0.8844  0.6422  0.4013
 5507SOL    MW421762   3.365   1.171   5.098 -0.7822 -0.5493  0.5134
 5508SOL     OW21763   1.622   2.413   6.394 -0.0919  0.3009 -0.0246
 5508SOL    HW221764   1.667   2.385   6.473 -1.7555  0.6333  1.0902
 5508SOL    HW321765   1.691   2.450   6.339  1.5387 -2.3519  0.0715
 5508SOL    MW421766   1.637   2.414   6.397  0.0440 -0.3984 -0.8523
 5509SOL     OW21767   1.407   4.112   4.282 -0.6411 -0.4610  0.3401
 5509SOL    HW221768   1.337   4.062   4.325 -0.4892  0.0744  1.2320
 5509SOL    HW321769   1.378   4.203   4.287 -0.3452 -0.3356 -0.1791
 5509SOL    MW421770   1.394   4.117   4.289  1.0812 -0.3389  0.1837
 5510SOL     OW21771   1.719   3.629   1.646  0.4351 -0.3988  0.2347
 5510SOL    HW221772   1.686   3.546   1.682 -0.5215  0.1474  0.6661
 5510SOL    HW321773   1.813   3.628   1.665  0.7224 -2.0356 -1.0678
 5510SOL    MW421774   1.727   3.618   1.653  0.0707 -0.0352 -0.2509
 5511SOL     OW21775   1.700   1.525   3.251 -0.0106  0.6263  0.2644
 5511SOL    HW221776   1.745   1.445   3.276  2.1119  1.7602  0.3045
 5511SOL    HW321777   1.623   1.496   3.203 -0.2591 -1.4473  1.8183
 5511SOL    MW421778   1.696   1.511   3.248 -0.8497  0.3076  0.3953
 5512SOL     OW21779   2.116   3.618   3.281  0.1004  0.0189 -1.1488
 5512SOL    HW221780   2.123   3.556   3.208 -1.3874 -0.5706 -0.8270
 5512SOL    HW321781   2.022   3.625   3.298  0.2342  2.1930 -1.0034
 5512SOL    MW421782   2.105   3.610   3.273  0.3735  0.1791  0.2398
 5513SOL     OW21783   6.271   4.640   1.252 -0.0359 -0.0684  0.6773
 5513SOL    HW221784   6.307   4.687   1.327 -3.0675  2.7483  0.5577
 5513SOL    HW321785   6.233   4.561   1.290  1.3135 -0.3372  1.5597
 5513SOL    MW421786   6.271   4.636   1.267 -0.1488 -0.2259  0.1133
 5514SOL     OW21787   5.453   2.442   1.444 -0.0183  0.4150  0.0142
 5514SOL    HW221788   5.380   2.391   1.409  1.7515 -0.6194 -2.4579
 5514SOL    HW321789   5.417   2.529   1.461 -1.7847 -0.0369 -1.2119
 5514SOL    MW421790   5.439   2.447   1.442  0.0530  0.6041 -0.5769
 5515SOL     OW21791   0.886   0.889   2.137  0.2497  0.5116 -0.3128
 5515SOL    HW221792   0.866   0.982   2.127  2.7066  1.0186 -1.4273
 5515SOL    HW321793   0.828   0.844   2.076 -0.6358  1.3511 -0.0987
 5515SOL    MW421794   0.876   0.895   2.127 -0.2354 -0.5817  0.7138
 5516SOL     OW21795   2.358   3.110   2.490  0.1685  0.5649  0.1368
 5516SOL    HW221796   2.380   3.054   2.564  3.1400  0.6268 -0.5370
 5516SOL    HW321797   2.381   3.057   2.413 -1.4941  1.0180 -0.7145
 5516SOL    MW421798   2.364   3.095   2.489  0.7650 -0.4245  0.3252
 5517SOL     OW21799   3.943   5.275   4.139 -0.4309 -0.4006 -0.1050
 5517SOL    HW221800   3.956   5.241   4.050  0.3814  0.5958 -0.3918
 5517SOL    HW321801   3.854   5.248   4.162 -0.2778 -1.5672 -0.8115
 5517SOL    MW421802   3.933   5.267   4.130 -0.5794  0.3134 -0.9488
 5518SOL     OW21803   2.286   5.070   4.328 -0.3018 -0.0349 -0.1199
 5518SOL    HW221804   2.194   5.045   4.331 -0.2110 -0.6446 -1.3545
 5518SOL    HW321805   2.299   5.099   4.238  0.9547 -1.0313 -0.2938
 5518SOL    MW421806   2.276   5.070   4.316 -0.2230 -0.4366 -0.1752
 5519SOL     OW21807   1.785   0.551   0.634 -0.3095  0.2309 -0.3479
 5519SOL    HW221808   1.824   0.599   0.561  1.0874  2.7574  1.8947
 5519SOL    HW321809   1.691   0.549   0.615 -0.0915  1.6795 -1.7310
 5519SOL    MW421810   1.778   0.557   0.622  0.4177 -0.3017  0.1501
 5520SOL     OW21811   2.283   2.205   1.328 -0.2691  0.4889  0.0904
 5520SOL    HW221812   2.251   2.274   1.270  2.0396  0.4955 -1.2859
 5520SOL    HW321813   2.288   2.127   1.272 -1.0996 -0.3857  1.1653
 5520SOL    MW421814   2.279   2.204   1.313 -0.4064 -0.0843  0.4856
 5521SOL     OW21815   5.062   5.119   4.282  0.5802  0.3544  0.3299
 5521SOL    HW221816   4.996   5.124   4.214 -0.2164  0.4860  1.0989
 5521SOL    HW321817   5.139   5.081   4.239 -0.9527 -2.8196  0.1243
 5521SOL    MW421818   5.064   5.115   4.268 -0.0106 -0.2484  0.3694
 5522SOL     OW21819   1.509   0.246   2.135  0.2641 -0.2331  0.5313
 5522SOL    HW221820   1.563   0.204   2.068  0.6398 -0.2968  0.8700
 5522SOL    HW321821   1.572   0.295   2.188 -0.0435 -0.1183  0.7897
 5522SOL    MW421822   1.524   0.247   2.133  0.0166  0.1771  0.3487
 5523SOL     OW21823   2.937   1.175   3.613 -0.0679 -0.7276 -0.2475
 5523SOL    HW221824   2.892   1.223   3.543  1.1597  0.2093 -0.4367
 5523SOL    HW321825   2.962   1.092   3.573  0.6453 -0.1890 -0.9582
 5523SOL    MW421826   2.934   1.170   3.598  0.3195 -0.0336 -0.1674
 5524SOL     OW21827   5.271   5.722   5.618 -0.0430 -0.4648 -0.0392
 5524SOL    HW221828   5.178   5.703   5.634 -0.7272  0.6998 -2.1911
 5524SOL    HW321829   5.287   5.803   5.667 -0.9614  0.7969 -1.7076
 5524SOL    MW421830   5.261   5.730   5.626  1.1270  0.7653 -0.1464
 5525SOL     OW21831   5.072   4.737   0.419 -0.2051  0.5280  1.0475
 5525SOL    HW221832   4.981   4.710   0.437 -0.2599  0.1503  0.2584
 5525SOL    HW321833   5.063   4.809   0.356  0.0505  0.1213  0.5367
 5525SOL    MW421834   5.059   4.743   0.413  0.1598 -0.7553 -0.0875
 5526SOL     OW21835   6.149   3.625   0.340  0.0218  0.6634 -0.0299
 5526SOL    HW221836   6.155   3.635   0.435 -0.7903  2.3131 -0.1111
 5526SOL    HW321837   6.140   3.531   0.326  1.1905  0.2889  1.4415
 5526SOL    MW421838   6.149   3.614   0.351 -0.1291 -0.3554  0.1682
 5527SOL     OW21839   6.155   3.114   3.481 -0.0267  0.1800  0.0552
 5527SOL    HW221840   6.245   3.138   3.505  0.4408  1.0709 -2.3781
 5527SOL    HW321841   6.141   3.030   3.524  2.6403 -0.8704 -0.9582
 5527SOL    MW421842   6.165   3.106   3.490  0.3690  0.1209 -0.1960
 5528SOL     OW21843   3.422   6.242   0.754  0.0643 -0.1714  0.6250
 5528SOL    HW221844   3.425   6.338   0.764 -0.8071 -0.2233  1.6110
 5528SOL    HW321845   3.334   6.225   0.719  0.1891 -0.6149  0.5299
 5528SOL    MW421846   3.410   6.253   0.751  0.1597 -0.0243 -0.1761
 5529SOL     OW21847   3.260   4.171   5.221  0.2050  0.0151 -0.2210
 5529SOL    HW221848   3.311   4.143   5.298 -1.7108  0.6655  1.3526
 5529SOL    HW321849   3.320   4.158   5.147  2.2983 -0.1833  1.4112
 5529SOL    MW421850   3.275   4.166   5.221  0.0915  0.0369 -0.3791
 5530SOL     OW21851   0.432   4.834   3.353  0.8118 -0.4766  0.2870
 5530SOL    HW221852   0.384   4.853   3.434  1.3476  2.1296  0.0788
 5530SOL    HW321853   0.388   4.885   3.286 -2.2207 -5.5454 -2.2266
 5530SOL    MW421854   0.420   4.843   3.355  0.1177 -0.1265 -0.1557
 5531SOL     OW21855   4.691   6.003   3.597  0.1084 -0.6258  0.0344
 5531SOL    HW221856   4.701   6.041   3.510 -1.1525 -0.1488  0.0776
 5531SOL    HW321857   4.764   6.038   3.647  0.2547 -0.0625 -0.5572
 5531SOL    MW421858   4.702   6.013   3.592  0.0738 -0.0578  0.4157
 5532SOL     OW21859   5.687   5.197   5.445  0.4414 -0.0151 -0.0151
 5532SOL    HW221860   5.755   5.263   5.460  0.0902  0.2454  0.4991
 5532SOL    HW321861   5.636   5.232   5.372  1.3222 -0.5960 -0.9202
 5532SOL    MW421862   5.689   5.210   5.438 -0.1710 -0.0582 -0.0502
 5533SOL     OW21863   4.744   5.203   1.076  0.0528  0.8019  0.0715
 5533SOL    HW221864   4.727   5.197   0.982  0.8645  1.3826 -0.1120
 5533SOL    HW321865   4.660   5.178   1.116 -0.0607 -0.2709 -0.7835
 5533SOL    MW421866   4.730   5.199   1.069 -0.0546 -0.2704  0.2623
 5534SOL     OW21867   3.303   2.534   4.289 -0.0098 -0.1674  0.1579
 5534SOL    HW221868   3.291   2.456   4.343 -0.6110 -0.0934  0.1400
 5534SOL    HW321869   3.382   2.516   4.238 -2.1365 -2.4374 -2.6655
 5534SOL    MW421870   3.312   2.521   4.290  0.0769 -0.1304 -0.1615
 5535SOL     OW21871   4.859   6.296   2.494 -0.9544  0.4160 -0.1894
 5535SOL    HW221872   4.811   6.241   2.432 -0.8307  1.3218 -1.1090
 5535SOL    HW321873   4.809   6.377   2.498 -0.7848  0.4928  0.6733
 5535SOL    MW421874   4.846   6.299   2.486 -0.0960 -0.4657  0.0591
 5536SOL     OW21875   0.327   2.884   1.048  0.3037 -0.2023  0.3542
 5536SOL    HW221876   0.279   2.950   0.997  0.1204  0.9530  1.9729
 5536SOL    HW321877   0.258   2.836   1.095  0.4274 -1.6534 -0.8715
 5536SOL    MW421878   0.311   2.886   1.047  0.4082  1.1140 -0.6058
 5537SOL     OW21879   1.645   5.122   5.607 -0.2106 -0.1338 -0.6603
 5537SOL    HW221880   1.641   5.121   5.702 -3.2686  0.1757 -0.6943
 5537SOL    HW321881   1.713   5.058   5.585  0.5715 -0.1938  1.6874
 5537SOL    MW421882   1.653   5.113   5.616  0.3896  0.1898 -0.0194
 5538SOL     OW21883   2.800   1.431   0.080  0.5713 -0.9498 -0.7021
 5538SOL    HW221884   2.868   1.374   0.045  1.2234 -0.0488 -0.9332
 5538SOL    HW321885   2.742   1.447   0.006  1.4276  0.1913 -1.1463
 5538SOL    MW421886   2.801   1.425   0.066  0.3361 -0.2289  0.2801
 5539SOL     OW21887   4.210   0.613   3.583  0.2760  0.1704 -0.2261
 5539SOL    HW221888   4.147   0.540   3.587  0.6523 -0.1762 -0.5911
 5539SOL    HW321889   4.225   0.626   3.490  0.0396  0.8688 -0.1703
 5539SOL    MW421890   4.203   0.605   3.572  0.4293  0.5386 -0.2001
 5540SOL     OW21891   6.394   5.058   6.168 -0.6168 -0.0592  0.1964
 5540SOL    HW221892   6.461   5.119   6.199  0.2437 -0.8959  0.0157
 5540SOL    HW321893   6.436   5.011   6.096 -1.6635 -0.0714 -0.4237
 5540SOL    MW421894   6.408   5.060   6.162 -0.6250  0.2184 -0.0259
 5541SOL     OW21895   6.103   4.394   3.070 -0.3291 -0.0903 -0.7897
 5541SOL    HW221896   6.023   4.341   3.070 -1.9377  2.1709 -1.0387
 5541SOL    HW321897   6.118   4.414   2.977 -0.8593  1.3708 -0.5874
 5541SOL    MW421898   6.094   4.389   3.058 -0.0724  0.2866  0.0724
 5542SOL     OW21899   3.944   3.315   5.268  0.1104  0.3873 -0.3961
 5542SOL    HW221900   3.899   3.358   5.340 -2.6042  0.9126 -2.2530
 5542SOL    HW321901   4.034   3.304   5.299 -1.0364 -0.0696  3.2962
 5542SOL    MW421902   3.950   3.319   5.281 -0.5385 -0.1280 -0.4458
 5543SOL     OW21903   4.696   1.648   6.171  0.2316 -0.0456  0.0425
 5543SOL    HW221904   4.608   1.657   6.207  0.7602  2.1695  0.9011
 5543SOL    HW321905   4.754   1.686   6.238  1.8186 -1.0020 -0.7146
 5543SOL    MW421906   4.692   1.654   6.185  0.0584  0.0326 -0.2406
 5544SOL     OW21907   3.438   1.741   4.675  0.3646  0.6030  0.2752
 5544SOL    HW221908   3.395   1.753   4.590  1.3676  0.0608 -0.3237
 5544SOL    HW321909   3.366   1.736   4.738 -0.5308 -1.4587 -0.8398
 5544SOL    MW421910   3.423   1.742   4.672  0.3422  0.6583 -0.0291
 5545SOL     OW21911   1.376   1.010   6.098 -0.5992 -0.1514 -0.3853
 5545SOL    HW221912   1.313   1.055   6.154 -0.6897  0.2357 -0.7872
 5545SOL    HW321913   1.450   0.991   6.156 -0.5779  0.4872 -0.1927
 5545SOL    MW421914   1.378   1.014   6.113 -0.1861  0.2115 -0.2296
 5546SOL     OW21915   0.469   4.587   4.357 -0.1854 -0.0256 -0.1315
 5546SOL    HW221916   0.508   4.590   4.269  0.0587  1.4871  0.0100
 5546SOL    HW321917   0.528   4.531   4.407  0.2935  0.0134 -0.6435
 5546SOL    MW421918   0.482   4.580   4.352  0.0229 -0.1059 -0.2251
 5547SOL     OW21919   5.062   5.449   4.755 -0.1544 -0.3064 -0.4343
 5547SOL    HW221920   5.052   5.537   4.792  1.7027 -0.1727 -0.1652
 5547SOL    HW321921   5.051   5.461   4.661  0.2347  0.2464 -0.4143
 5547SOL    MW421922   5.059   5.462   4.748  0.2144 -0.4355  0.2293
 5548SOL     OW21923   0.105   3.800   5.383  0.2909 -0.1458  0.1982
 5548SOL    HW221924   0.167   3.830   5.450 -0.3325 -0.6347  1.0173
 5548SOL    HW321925   0.160   3.772   5.310  0.9870  0.4254  0.4930
 5548SOL    MW421926   0.120   3.800   5.382 -0.1546  0.0824 -0.1947
 5549SOL     OW21927   5.802   2.764   2.182 -0.1281 -0.2160  0.1868
 5549SOL    HW221928   5.767   2.734   2.098  1.0129 -0.8386 -0.0946
 5549SOL    HW321929   5.756   2.709   2.247 -2.0184  1.1951  0.1280
 5549SOL    MW421930   5.791   2.753   2.179 -0.1533  0.5037  0.4168
 5550SOL     OW21931   3.924   4.952   0.550  0.0896 -0.0923  0.1401
 5550SOL    HW221932   3.837   4.913   0.559  0.1575 -0.1067  0.8322
 5550SOL    HW321933   3.970   4.895   0.489  0.0574 -0.8817  0.8300
 5550SOL    MW421934   3.919   4.939   0.543 -0.0626  0.1623 -0.0527
 5551SOL     OW21935   1.829   3.596   4.910  0.0506 -0.2950 -0.0959
 5551SOL    HW221936   1.814   3.686   4.936  0.9779  0.0750 -0.7870
 5551SOL    HW321937   1.905   3.600   4.852 -1.4004 -1.1737 -2.1758
 5551SOL    MW421938   1.837   3.608   4.906  0.2486 -0.3068 -0.1758
 5552SOL     OW21939   2.309   2.779   3.956 -0.3529 -0.0824  0.2257
 5552SOL    HW221940   2.226   2.735   3.938  0.3439 -0.7675 -1.5043
 5552SOL    HW321941   2.326   2.760   4.048 -1.6908 -0.6316  0.3929
 5552SOL    MW421942   2.300   2.771   3.966 -0.2774  0.0196  0.2300
 5553SOL     OW21943   2.788   2.842   1.801 -0.2397 -0.1847  0.9406
 5553SOL    HW221944   2.796   2.858   1.707 -1.6346 -1.4912  0.5502
 5553SOL    HW321945   2.713   2.894   1.829 -0.8308 -1.0207  0.9680
 5553SOL    MW421946   2.779   2.851   1.792  0.1764 -0.2409  0.0000
 5554SOL     OW21947   4.769   1.396   1.670  0.4731  0.3289  0.0314
 5554SOL    HW221948   4.861   1.377   1.656  0.3669  0.7690 -1.3759
 5554SOL    HW321949   4.759   1.397   1.766  1.5355 -1.4752  0.2117
 5554SOL    MW421950   4.780   1.393   1.681 -0.6953 -0.4671  0.1696
 5555SOL     OW21951   3.757   6.277   2.442 -0.1231 -0.0394 -0.0741
 5555SOL    HW221952   3.789   6.365   2.461 -1.6819  0.5731 -0.1128
 5555SOL    HW321953   3.662   6.288   2.433 -0.0882 -1.2771 -2.6232
 5555SOL    MW421954   3.749   6.290   2.444 -0.2533  0.6336  0.2379
 5556SOL     OW21955   0.012   1.424   1.301 -0.6899 -0.1634 -0.0218
 5556SOL    HW221956  -0.027   1.502   1.340 -0.3254  0.0943 -0.1755
 5556SOL    HW321957   0.087   1.403   1.356  0.1654  0.5357 -0.8977
 5556SOL    MW421958   0.016   1.431   1.313  0.4886  0.3578  0.4861
 5557SOL     OW21959   4.400   5.089   0.851  0.1211  0.4203  0.1757
 5557SOL    HW221960   4.493   5.113   0.847  0.2425 -0.1952 -1.7739
 5557SOL    HW321961   4.390   5.022   0.784 -1.6875  0.2886  0.5421
 5557SOL    MW421962   4.411   5.084   0.841  0.1329  0.1703  0.3119
 5558SOL     OW21963   1.809   5.904   5.088 -0.2626 -0.0694  0.0340
 5558SOL    HW221964   1.848   5.822   5.119 -1.1029  0.0597  1.5339
 5558SOL    HW321965   1.768   5.941   5.166 -0.6309  1.3594 -0.8177
 5558SOL    MW421966   1.809   5.898   5.102  0.0963  0.0130  0.0575
 5559SOL     OW21967   3.102   0.061   0.769 -0.2741 -0.1245 -0.8811
 5559SOL    HW221968   3.106   0.091   0.677 -1.6315  2.5990 -0.1750
 5559SOL    HW321969   3.023   0.103   0.803 -0.5619 -2.2138  1.2084
 5559SOL    MW421970   3.092   0.071   0.761  0.1019  0.9160 -0.0669
 5560SOL     OW21971   1.360   3.308   3.240 -0.1547 -0.1046  0.5825
 5560SOL    HW221972   1.438   3.273   3.282 -0.5734  0.3754  1.7934
 5560SOL    HW321973   1.383   3.313   3.147  0.1674 -2.9444  0.4023
 5560SOL    MW421974   1.373   3.304   3.233  0.0906  0.5351 -0.0439
 5561SOL     OW21975   3.085   2.065   0.712 -0.0748 -0.6359  0.1121
 5561SOL    HW221976   3.154   2.111   0.665 -0.5797  0.6658  0.6008
 5561SOL    HW321977   3.079   2.110   0.796 -0.8404 -1.3735  0.4687
 5561SOL    MW421978   3.094   2.077   0.717 -0.1026 -0.1559  0.3947
 5562SOL     OW21979   0.491   6.396   4.340 -0.0887 -0.5399 -0.0757
 5562SOL    HW221980   0.465   6.405   4.248  0.0116  0.0229 -0.0538
 5562SOL    HW321981   0.487   6.302   4.357  0.1204 -0.6712 -0.7220
 5562SOL    MW421982   0.487   6.385   4.330  0.1693 -0.4112  0.3984
 5563SOL     OW21983   3.604   2.056   0.454 -0.4538 -0.4373 -0.3401
 5563SOL    HW221984   3.513   2.027   0.450 -0.1437 -1.3503 -1.1888
 5563SOL    HW321985   3.640   2.010   0.530 -0.4362 -0.9082 -0.6264
 5563SOL    MW421986   3.597   2.046   0.464 -0.3585  0.5137 -0.3817
 5564SOL     OW21987   0.018   0.850   5.904 -0.3009 -0.3903  0.2888
 5564SOL    HW221988   0.098   0.799   5.893 -0.2482 -0.3375  0.4344
 5564SOL    HW321989   0.046   0.930   5.948 -0.4497 -0.4185  0.4359
 5564SOL    MW421990   0.032   0.854   5.908 -0.4055  0.4851  0.3826
 5565SOL     OW21991   5.027   5.464   4.470  0.3240 -0.6551 -0.3975
 5565SOL    HW221992   4.934   5.458   4.445 -0.0044  1.0353  0.2684
 5565SOL    HW321993   5.074   5.431   4.394 -0.8263 -2.3135 -0.4471
 5565SOL    MW421994   5.021   5.459   4.457 -0.4678  0.1203  0.3050
 5566SOL     OW21995   6.241   3.853   5.990  0.4228  0.8085 -0.1296
 5566SOL    HW221996   6.306   3.852   5.919 -0.0388  1.5129 -0.5731
 5566SOL    HW321997   6.157   3.843   5.946  0.2932 -3.2470  0.6352
 5566SOL    MW421998   6.239   3.851   5.975 -0.1174  0.8025  0.3614
 5567SOL     OW21999   3.509   1.224   4.509  0.2089  0.0715 -0.3935
 5567SOL    HW222000   3.443   1.200   4.575 -0.3570 -1.2942 -1.4093
 5567SOL    HW322001   3.469   1.201   4.426  2.1858 -1.3895 -1.0179
 5567SOL    MW422002   3.495   1.217   4.507  0.1865 -0.0199  0.1730
 5568SOL     OW22003   4.456   3.382   3.516  0.1232 -0.1741  0.1091
 5568SOL    HW222004   4.528   3.324   3.538 -0.0374 -0.1994  0.5842
 5568SOL    HW322005   4.483   3.468   3.548 -0.8118 -0.5197  1.9982
 5568SOL    MW422006   4.469   3.386   3.523 -0.2426  0.1115  0.2502
 5569SOL     OW22007   1.380   1.587   5.314 -0.0764  0.8448 -0.3616
 5569SOL    HW222008   1.312   1.637   5.269  0.8601  2.2193 -0.2741
 5569SOL    HW322009   1.394   1.510   5.258 -1.8767  0.3752 -0.2347
 5569SOL    MW422010   1.373   1.583   5.301  0.5303  0.5283 -0.7132
 5570SOL     OW22011   1.660   1.682   5.283  0.4126 -0.7141  0.6718
 5570SOL    HW222012   1.692   1.627   5.354 -0.7253 -1.2931  0.7644
 5570SOL    HW322013   1.571   1.650   5.266  1.1197 -1.5488 -1.9765
 5570SOL    MW422014   1.652   1.671   5.290  0.1244  0.4536 -0.5392
 5571SOL     OW22015   5.651   4.537   4.675 -0.2786 -0.4956 -0.2432
 5571SOL    HW222016   5.621   4.625   4.697 -0.5071 -0.7593  0.5357
 5571SOL    HW322017   5.696   4.547   4.591 -1.0132  0.2129 -0.5681
 5571SOL    MW422018   5.653   4.550   4.667  0.0077 -0.6982 -0.2102
 5572SOL     OW22019   4.459   0.125   5.231  0.0274  0.3995 -0.1398
 5572SOL    HW222020   4.486   0.184   5.160 -0.7832  0.6486 -0.2539
 5572SOL    HW322021   4.512   0.046   5.218  0.1033  0.5552 -0.8528
 5572SOL    MW422022   4.469   0.122   5.220 -0.7640  0.3462  0.3179
 5573SOL     OW22023   3.880   4.088   5.494 -0.4851 -0.6019  0.3882
 5573SOL    HW222024   3.903   4.181   5.498 -0.2734 -0.6797  1.3986
 5573SOL    HW322025   3.812   4.083   5.427 -0.6485  0.3173  0.4689
 5573SOL    MW422026   3.874   4.100   5.486  0.4463  0.3059  0.6323
 5574SOL     OW22027   4.263   4.583   1.697 -0.2936 -0.3088  0.3399
 5574SOL    HW222028   4.187   4.637   1.720 -0.1837 -0.1141  0.2475
 5574SOL    HW322029   4.251   4.503   1.748 -1.9577 -1.4242 -1.6491
 5574SOL    MW422030   4.251   4.579   1.707  0.4873 -0.1977 -0.0151
 5575SOL     OW22031   3.132   1.463   0.863  0.2461  0.1111  0.2023
 5575SOL    HW222032   3.125   1.518   0.785  1.8721  0.8874  0.5489
 5575SOL    HW322033   3.208   1.407   0.847  1.1531  0.8877  1.5335
 5575SOL    MW422034   3.141   1.463   0.851 -0.2027  0.3287  0.4236
 5576SOL     OW22035   3.355   4.502   1.404  0.3665 -0.8863  0.0465
 5576SOL    HW222036   3.363   4.580   1.459 -1.3643 -1.1336  0.7191
 5576SOL    HW322037   3.296   4.529   1.333  0.1461 -1.4371  0.0146
 5576SOL    MW422038   3.348   4.516   1.402  0.1544  0.5793  0.5717
 5577SOL     OW22039   5.639   6.147   3.878  0.1686 -0.3035 -0.2183
 5577SOL    HW222040   5.701   6.175   3.944  0.0913 -1.9907  0.6300
 5577SOL    HW322041   5.690   6.088   3.821 -0.1290 -0.0153 -0.7939
 5577SOL    MW422042   5.654   6.143   3.879  0.0280 -0.0753 -0.1490
 5578SOL     OW22043   2.952   2.955   1.051  0.1608  0.1813  0.0068
 5578SOL    HW222044   2.861   2.927   1.048  0.4390 -0.6248 -1.4645
 5578SOL    HW322045   2.972   2.960   1.145 -0.7379 -1.8469  0.3625
 5578SOL    MW422046   2.943   2.952   1.063  0.0892  0.3087 -0.0975
 5579SOL     OW22047   2.420   4.300   0.464 -0.1198  0.0607 -0.0589
 5579SOL    HW222048   2.410   4.237   0.535 -0.2282 -0.1199 -0.2327
 5579SOL    HW322049   2.510   4.330   0.470 -0.4786  0.9995  0.9506
 5579SOL    MW422050   2.430   4.296   0.474  0.2464  0.1983 -0.1237
 5580SOL     OW22051   6.059   0.259   4.845 -0.0541  0.0023  0.4344
 5580SOL    HW222052   5.976   0.304   4.855  0.3357  0.9500 -0.4216
 5580SOL    HW322053   6.037   0.166   4.845 -1.6279  0.1892 -3.4853
 5580SOL    MW422054   6.045   0.253   4.847  0.0833 -0.0755  0.1717
 5581SOL     OW22055   4.306   1.551   4.080 -0.6343 -0.1592 -0.0966
 5581SOL    HW222056   4.371   1.619   4.063 -0.4123 -0.3394  0.0180
 5581SOL    HW322057   4.264   1.536   3.995 -0.9304  0.3688 -0.0445
 5581SOL    MW422058   4.309   1.558   4.067 -0.1619 -0.3148  0.0444
 5582SOL     OW22059   4.295   0.840   4.624 -0.5722  0.2329 -0.4071
 5582SOL    HW222060   4.341   0.759   4.601 -1.2613 -0.1399 -0.5237
 5582SOL    HW322061   4.342   0.909   4.576  1.0624  0.1616  1.0117
 5582SOL    MW422062   4.307   0.838   4.614 -0.7447 -0.4918 -0.2421
 5583SOL     OW22063   6.195   1.451   5.747 -0.2235 -0.1018 -0.3213
 5583SOL    HW222064   6.181   1.370   5.796 -1.2514 -0.6788 -1.5187
 5583SOL    HW322065   6.279   1.438   5.704  0.2669  0.0528  0.5469
 5583SOL    MW422066   6.204   1.439   5.748 -0.3922 -0.4415  0.4537
 5584SOL     OW22067   3.560   5.974   3.334 -0.3257  0.3962 -0.5356
 5584SOL    HW222068   3.646   5.960   3.294 -0.6500 -0.4821 -0.9496
 5584SOL    HW322069   3.499   5.969   3.261 -0.6373  2.2912 -0.4410
 5584SOL    MW422070   3.563   5.971   3.319  0.5519 -0.0751 -0.2172
 5585SOL     OW22071   3.198   2.349   2.191 -0.1918  0.0291 -1.1887
 5585SOL    HW222072   3.132   2.342   2.260  0.0372 -2.0478 -1.1362
 5585SOL    HW322073   3.148   2.375   2.113 -0.2558  3.8862 -0.0551
 5585SOL    MW422074   3.182   2.352   2.190 -0.1771 -0.0356 -0.4087
 5586SOL     OW22075   3.243   6.249   1.870 -0.0916 -0.4596  0.2729
 5586SOL    HW222076   3.231   6.268   1.963  1.0647 -1.0350  0.5666
 5586SOL    HW322077   3.251   6.153   1.867  0.3949 -0.4024 -0.3540
 5586SOL    MW422078   3.243   6.239   1.882  0.0727  0.6141  0.3984
 5587SOL     OW22079   0.745   2.881   2.792 -0.2966 -0.2300 -0.0721
 5587SOL    HW222080   0.670   2.936   2.771 -2.6890 -2.3529  2.2875
 5587SOL    HW322081   0.736   2.806   2.734  0.6837 -0.0357 -0.5038
 5587SOL    MW422082   0.734   2.879   2.782  0.4825 -0.3824  0.5119
 5588SOL     OW22083   3.617   2.263   5.193  0.1432 -0.1134  0.0380
 5588SOL    HW222084   3.570   2.183   5.170 -0.0943 -0.2234  0.8501
 5588SOL    HW322085   3.549   2.323   5.223  0.2725  0.5541 -0.9699
 5588SOL    MW422086   3.602   2.260   5.194  0.3265  0.2145  0.1285
 5589SOL     OW22087   2.527   2.344   5.656  0.5024 -0.6516  0.0097
 5589SOL    HW222088   2.527   2.260   5.703  3.1291 -2.3040 -2.5604
 5589SOL    HW322089   2.485   2.324   5.572  0.7704  0.7210 -0.4781
 5589SOL    MW422090   2.522   2.330   5.651 -0.3063 -0.5192  0.5588
 5590SOL     OW22091   1.555   1.589   6.154 -0.4760 -0.0374  0.4065
 5590SOL    HW222092   1.579   1.682   6.156  0.0412 -0.1467 -0.3629
 5590SOL    HW322093   1.506   1.576   6.235 -0.4735  0.8838  0.5759
 5590SOL    MW422094   1.551   1.600   6.165  0.1847  0.8037 -0.1565
 5591SOL     OW22095   3.792   6.346   6.264 -0.2593 -0.0737  0.5364
 5591SOL    HW222096   3.719   6.291   6.235 -1.0538  1.9740 -1.6589
 5591SOL    HW322097   3.846   6.357   6.186  0.7665  0.9232  1.3547
 5591SOL    MW422098   3.790   6.340   6.250 -0.3803 -0.2721  0.3779
 5592SOL     OW22099   5.484   3.977   0.878 -0.0901  0.3841  1.2828
 5592SOL    HW222100   5.536   4.009   0.804  1.2562  0.6631  2.2993
 5592SOL    HW322101   5.394   3.976   0.845  0.5316 -0.0728 -0.5347
 5592SOL    MW422102   5.479   3.981   0.864  0.5609  0.0919  0.5561
 5593SOL     OW22103   2.141   1.743   4.426 -0.5605  0.3703  0.3937
 5593SOL    HW222104   2.074   1.676   4.440  0.6200 -0.7960  0.6747
 5593SOL    HW322105   2.112   1.816   4.480  0.6519 -1.7598  4.3570
 5593SOL    MW422106   2.128   1.743   4.435  0.1433 -0.5375 -0.0819
 5594SOL     OW22107   2.346   0.459   3.619 -0.3275  0.1367  0.0644
 5594SOL    HW222108   2.367   0.365   3.626  1.0942  0.3393 -0.9611
 5594SOL    HW322109   2.330   0.473   3.525  1.3401  1.2582 -0.0885
 5594SOL    MW422110   2.347   0.448   3.607 -0.2856 -0.0242  0.5455
 5595SOL     OW22111   0.706   2.017   5.618  0.6260 -0.0142 -0.3371
 5595SOL    HW222112   0.624   2.014   5.667  1.2252  1.3633  0.7969
 5595SOL    HW322113   0.739   1.927   5.622  0.2855 -0.1005  1.1757
 5595SOL    MW422114   0.700   2.005   5.625 -0.3590  0.1634  0.2542
 5596SOL     OW22115   3.654   5.740   2.818 -0.4087  0.4433  0.5621
 5596SOL    HW222116   3.625   5.683   2.888 -2.3797  2.4012  1.4669
 5596SOL    HW322117   3.575   5.787   2.790  1.0740  2.7797 -0.0348
 5596SOL    MW422118   3.640   5.739   2.823 -0.4438 -0.0114  0.0208
 5597SOL     OW22119   1.823   2.867   4.025 -0.4375  0.2777  0.0422
 5597SOL    HW222120   1.865   2.916   4.095  0.4502 -1.0979  0.4887
 5597SOL    HW322121   1.767   2.804   4.070  0.1552 -0.6288 -0.4693
 5597SOL    MW422122   1.821   2.865   4.040 -0.1596 -0.0937  0.3163
 5598SOL     OW22123   3.758   0.487   6.347  0.0821  0.3092 -0.2249
 5598SOL    HW222124   3.717   0.542   6.415  0.7913  0.7555 -0.1463
 5598SOL    HW322125   3.771   0.547   6.274  1.2247  0.3513  0.0036
 5598SOL    MW422126   3.754   0.502   6.347 -0.1813 -0.5144 -0.7187
 5599SOL     OW22127   3.914   4.193   0.937 -0.3975  0.9700  0.8119
 5599SOL    HW222128   3.843   4.256   0.950 -0.8512  0.6368  0.0303
 5599SOL    HW322129   3.907   4.133   1.011 -0.1129  1.6911  1.4314
 5599SOL    MW422130   3.903   4.194   0.948  0.1602  0.1334  0.5254
 5600SOL     OW22131   0.707   5.081   3.596  0.4739  0.1526  0.3841
 5600SOL    HW222132   0.688   5.130   3.675  0.2122  0.5378  0.0837
 5600SOL    HW322133   0.670   5.133   3.525  0.0420 -0.5486  0.0731
 5600SOL    MW422134   0.700   5.094   3.597  0.3500 -0.4388 -0.1299
 5601SOL     OW22135   5.877   3.335   5.052 -0.0271  0.0536  0.0134
 5601SOL    HW222136   5.806   3.281   5.088 -0.4296  0.0658 -0.7375
 5601SOL    HW322137   5.931   3.357   5.128 -0.1637 -0.9473  0.4216
 5601SOL    MW422138   5.874   3.331   5.067 -0.0600  0.5160 -0.1526
 5602SOL     OW22139   3.644   0.451   1.605  0.2397 -0.4110 -0.1798
 5602SOL    HW222140   3.550   0.438   1.613  0.3005 -0.7364  0.0115
 5602SOL    HW322141   3.673   0.476   1.692 -0.0406  2.1694 -0.7577
 5602SOL    MW422142   3.636   0.452   1.617 -0.3549 -0.2461 -0.1997
 5603SOL     OW22143   3.556   0.110   6.172  0.7247  0.1940  0.3689
 5603SOL    HW222144   3.605   0.181   6.132 -0.2452  0.7035  0.0574
 5603SOL    HW322145   3.480   0.153   6.213 -0.0950 -0.6920 -0.1840
 5603SOL    MW422146   3.552   0.125   6.172 -0.0453 -0.4371 -0.3079
 5604SOL     OW22147   2.667   4.188   0.669 -0.3413 -0.3515 -0.4527
 5604SOL    HW222148   2.726   4.130   0.621  0.8207 -1.0687  1.7231
 5604SOL    HW322149   2.604   4.130   0.711 -0.8995  0.2013 -0.5082
 5604SOL    MW422150   2.667   4.173   0.668  0.1363  0.0602  0.3647
 5605SOL     OW22151   2.168   1.266   5.995 -0.4965 -1.5124 -0.0923
 5605SOL    HW222152   2.096   1.304   6.046  0.9716 -1.7892  2.3187
 5605SOL    HW322153   2.150   1.172   5.993 -0.1708 -1.5934  0.5959
 5605SOL    MW422154   2.156   1.259   6.002 -0.3539  0.4346  0.2674
 5606SOL     OW22155   1.564   0.402   4.855  0.4547 -0.3508 -0.2869
 5606SOL    HW222156   1.634   0.354   4.812  1.1016 -0.6735  1.0793
 5606SOL    HW322157   1.493   0.339   4.866  0.3108 -0.2818 -0.8134
 5606SOL    MW422158   1.564   0.388   4.851  0.7593  0.2202 -0.3215
 5607SOL     OW22159   2.281   3.997   5.687  0.6160  0.5249  0.7415
 5607SOL    HW222160   2.218   4.011   5.758  1.2525 -0.1006  1.4424
 5607SOL    HW322161   2.332   3.922   5.715 -0.5038 -1.1379 -1.3787
 5607SOL    MW422162   2.279   3.989   5.701 -0.8219 -0.3475 -0.9805
 5608SOL     OW22163   5.261   6.055   2.317  0.0745 -0.1040 -0.3981
 5608SOL    HW222164   5.335   6.001   2.290  0.1546  0.0475 -0.4856
 5608SOL    HW322165   5.265   6.056   2.412  0.5522  0.4045 -0.4152
 5608SOL    MW422166   5.271   6.048   2.326  0.4483 -0.0230 -0.1604
 5609SOL     OW22167   3.493   3.688   3.827  0.0507  0.0998 -0.0038
 5609SOL    HW222168   3.572   3.701   3.774 -0.8238 -1.1054 -1.7121
 5609SOL    HW322169   3.524   3.645   3.907  0.9718 -1.9986 -1.4000
 5609SOL    MW422170   3.507   3.684   3.830  0.3584 -0.7156  0.0480
 5610SOL     OW22171   1.497   5.352   0.423  0.1926  0.3637 -0.0839
 5610SOL    HW222172   1.488   5.446   0.434  0.8314  0.3320  0.8074
 5610SOL    HW322173   1.415   5.316   0.456  0.2710  0.5627  0.3339
 5610SOL    MW422174   1.485   5.359   0.429 -0.8364 -0.2900 -0.2398
 5611SOL     OW22175   0.263   4.877   6.036 -0.2264 -0.1110  0.3470
 5611SOL    HW222176   0.263   4.823   5.957  2.0295  1.0596 -0.5462
 5611SOL    HW322177   0.313   4.826   6.100 -0.1727 -0.1055  0.3090
 5611SOL    MW422178   0.269   4.863   6.034  0.3253  0.1106 -0.4416
 5612SOL     OW22179   3.402   2.735   3.031  0.2470 -0.0771  0.1067
 5612SOL    HW222180   3.464   2.726   2.958  1.2229 -0.5091  0.9645
 5612SOL    HW322181   3.321   2.697   2.998  0.7703 -0.5742 -0.6445
 5612SOL    MW422182   3.400   2.729   3.017  0.4923 -0.2516  0.3094
 5613SOL     OW22183   2.060   2.751   4.440 -0.0078  0.3960 -0.5624
 5613SOL    HW222184   2.100   2.807   4.374  0.1791 -0.7067 -1.3967
 5613SOL    HW322185   2.030   2.674   4.392  0.9499 -0.8482  0.7471
 5613SOL    MW422186   2.061   2.748   4.425 -0.2986 -0.1234 -0.6875
 5614SOL     OW22187   1.544   2.263   5.859  0.0285  0.5216  0.2505
 5614SOL    HW222188   1.460   2.244   5.901 -1.5201  1.6004 -2.1200
 5614SOL    HW322189   1.523   2.266   5.766  2.6571  1.1975 -0.3788
 5614SOL    MW422190   1.530   2.261   5.853 -0.1576  0.2722  0.7951
 5615SOL     OW22191   0.947   5.295   0.854 -0.5115  0.2951 -0.0880
 5615SOL    HW222192   0.957   5.211   0.811  0.9130 -0.0523  0.8436
 5615SOL    HW322193   1.029   5.341   0.838 -0.1048  0.3274  1.8122
 5615SOL    MW422194   0.959   5.290   0.846  0.3774 -0.5705 -0.0366
 5616SOL     OW22195   0.466   4.918   5.716  0.1802  0.3548 -0.4118
 5616SOL    HW222196   0.482   5.006   5.749 -0.2355  0.1069  0.4811
 5616SOL    HW322197   0.476   4.926   5.621  0.7408  1.2268 -0.2945
 5616SOL    MW422198   0.470   4.931   5.708 -0.2509 -0.3117  0.8619
 5617SOL     OW22199   2.700   4.680   3.890  0.0007 -0.6901 -0.3745
 5617SOL    HW222200   2.788   4.641   3.883 -1.3402 -4.0021 -0.8338
 5617SOL    HW322201   2.665   4.645   3.972 -0.8244  0.8088 -0.0554
 5617SOL    MW422202   2.707   4.670   3.900  1.1241 -0.1586 -0.1438
 5618SOL     OW22203   4.374   6.167   1.040  0.4384 -0.4389  0.0423
 5618SOL    HW222204   4.282   6.152   1.062  0.6619 -0.8729  0.7295
 5618SOL    HW322205   4.423   6.118   1.107  1.1604 -0.8646 -0.7781
 5618SOL    MW422206   4.369   6.158   1.052  0.3274 -0.0151 -0.0542
 5619SOL     OW22207   2.207   2.274   4.266  0.0427 -0.8021  0.6342
 5619SOL    HW222208   2.143   2.204   4.250  0.6749 -1.1238 -0.5559
 5619SOL    HW322209   2.291   2.229   4.268  0.6171  0.0659 -1.5831
 5619SOL    MW422210   2.210   2.259   4.264 -0.2806 -0.3138 -0.4357
 5620SOL     OW22211   4.301   3.924   2.206 -0.2814 -0.1868  0.0403
 5620SOL    HW222212   4.266   3.857   2.265  0.0942 -2.1038 -1.7540
 5620SOL    HW322213   4.321   3.875   2.126  1.5675  1.8280 -0.7956
 5620SOL    MW422214   4.299   3.908   2.203 -0.0994  0.0414 -0.0532
 5621SOL     OW22215   6.070   5.795   4.444 -0.5537 -0.1453  0.1043
 5621SOL    HW222216   6.024   5.875   4.420 -0.9628  0.1525  1.7635
 5621SOL    HW322217   6.003   5.728   4.447 -0.2464 -0.5294 -1.0671
 5621SOL    MW422218   6.055   5.797   4.441 -0.2790 -0.7659  0.4609
 5622SOL     OW22219   4.276   5.312   6.342 -0.2793  0.0341 -0.2779
 5622SOL    HW222220   4.285   5.222   6.312 -2.3734 -0.4106  0.2217
 5622SOL    HW322221   4.361   5.336   6.376  0.3704 -1.6754 -0.6264
 5622SOL    MW422222   4.288   5.304   6.342 -0.6220  0.8358  0.3077
 5623SOL     OW22223   2.854   4.514   3.625  0.2062 -0.0355  0.7277
 5623SOL    HW222224   2.765   4.530   3.656 -0.3884  0.6866 -1.1942
 5623SOL    HW322225   2.911   4.546   3.695 -1.0455  1.7191  0.9973
 5623SOL    MW422226   2.850   4.520   3.638 -0.1488  0.1164 -0.1073
 5624SOL     OW22227   4.206   0.338   5.284 -0.2329  0.0677 -0.2215
 5624SOL    HW222228   4.279   0.328   5.223 -0.3837 -0.9217 -0.2568
 5624SOL    HW322229   4.153   0.260   5.271 -0.4915  0.0433  0.8822
 5624SOL    MW422230   4.209   0.326   5.274 -0.5050 -0.0865  0.1820
 5625SOL     OW22231   5.553   0.355   0.290  0.2393 -0.3000  0.1456
 5625SOL    HW222232   5.592   0.329   0.207 -2.5281  0.3388 -1.4651
 5625SOL    HW322233   5.592   0.440   0.310  1.1502 -0.6016 -0.3039
 5625SOL    MW422234   5.564   0.363   0.282  0.9620 -0.0519 -0.4117
 5626SOL     OW22235   2.346   3.265   5.486 -0.3956  0.2886 -0.1178
 5626SOL    HW222236   2.384   3.199   5.428  1.6265  1.9416 -0.8075
 5626SOL    HW322237   2.260   3.230   5.508 -0.3798 -1.4339 -2.3499
 5626SOL    MW422238   2.340   3.251   5.481 -0.4710  0.3061 -0.1022
 5627SOL     OW22239   4.290   3.295   1.054 -0.1472 -0.2995  0.3560
 5627SOL    HW222240   4.227   3.366   1.048  0.3859  0.1836  0.3863
 5627SOL    HW322241   4.373   3.334   1.027  0.0578 -1.0363 -0.1227
 5627SOL    MW422242   4.293   3.309   1.049  0.7582  0.2901 -0.4434
 5628SOL     OW22243   3.360   4.556   2.416 -0.2885 -0.1246  0.2070
 5628SOL    HW222244   3.454   4.574   2.419 -0.4870  1.9985 -2.5882
 5628SOL    HW322245   3.321   4.622   2.474 -0.2013  1.1350 -1.1057
 5628SOL    MW422246   3.367   4.567   2.424 -0.0356 -0.5710  0.0531
 5629SOL     OW22247   4.014   2.902   3.129 -0.5212  0.2580  0.0239
 5629SOL    HW222248   4.014   2.888   3.034  0.3340  2.4092 -0.3489
 5629SOL    HW322249   4.012   2.997   3.139 -0.0728  0.0852  2.1795
 5629SOL    MW422250   4.014   2.913   3.118 -0.4624  0.0685 -0.4739
 5630SOL     OW22251   5.606   4.901   6.286  0.0902  0.5216 -0.4530
 5630SOL    HW222252   5.656   4.924   6.364 -1.2505  2.6993 -0.1476
 5630SOL    HW322253   5.669   4.857   6.229  1.7957  1.2944  0.7414
 5630SOL    MW422254   5.621   4.898   6.289  0.0653  0.7761 -0.2845
 5631SOL     OW22255   4.404   5.482   2.632  0.2912 -0.4333 -0.3452
 5631SOL    HW222256   4.411   5.548   2.700  0.5431 -1.2404  0.4344
 5631SOL    HW322257   4.432   5.401   2.675 -0.5959 -1.1544 -1.1011
 5631SOL    MW422258   4.409   5.480   2.647  0.1338  0.0695 -0.2376
 5632SOL     OW22259   0.232   5.963   0.410  0.3374 -0.3501  0.2222
 5632SOL    HW222260   0.230   5.976   0.505  0.0438  1.6368 -0.0208
 5632SOL    HW322261   0.163   5.899   0.393 -1.8855  1.6978  1.0442
 5632SOL    MW422262   0.223   5.956   0.420  0.0845  0.0658 -0.0405
 5633SOL     OW22263   4.058   0.321   0.420 -0.2204 -0.5247 -0.2308
 5633SOL    HW222264   4.148   0.330   0.388  0.4721  0.8502  1.9295
 5633SOL    HW322265   4.067   0.295   0.511 -1.7724  3.8547  1.4151
 5633SOL    MW422266   4.071   0.319   0.428  0.5048 -0.0032 -0.6243
 5634SOL     OW22267   0.046   4.686   3.791 -0.0814 -0.7924  0.5721
 5634SOL    HW222268  -0.048   4.701   3.784 -0.1268 -1.3878 -0.2404
 5634SOL    HW322269   0.055   4.613   3.852  0.0237  0.9458  2.7664
 5634SOL    MW422270   0.035   4.678   3.798 -0.0361 -0.3080  0.1620
 5635SOL     OW22271   4.942   5.162   0.477 -0.1840  0.2273 -0.4481
 5635SOL    HW222272   4.939   5.201   0.564 -1.0659  1.0419 -0.8249
 5635SOL    HW322273   5.035   5.159   0.455  0.0563 -0.0662  0.5398
 5635SOL    MW422274   4.954   5.166   0.486 -0.1905 -0.6169 -0.1569
 5636SOL     OW22275   1.304   5.858   1.337  0.0621  0.4085 -0.4971
 5636SOL    HW222276   1.266   5.944   1.358  1.1287  0.5675  0.9492
 5636SOL    HW322277   1.329   5.822   1.422  4.2104  0.8448 -1.3320
 5636SOL    MW422278   1.302   5.865   1.351  0.6020 -0.1386 -0.3070
 5637SOL     OW22279   3.360   3.597   5.795  0.0802  0.2765  0.2802
 5637SOL    HW222280   3.323   3.685   5.807  0.6685  0.7851 -1.3586
 5637SOL    HW322281   3.308   3.541   5.853 -1.9426  1.3022 -0.4259
 5637SOL    MW422282   3.348   3.601   5.804 -0.2981  0.5726  0.3695
 5638SOL     OW22283   4.295   3.250   1.347  0.3758 -0.4986  0.2706
 5638SOL    HW222284   4.301   3.262   1.252  0.4417 -0.3826  0.2902
 5638SOL    HW322285   4.203   3.225   1.361  0.7547 -2.2302 -0.0159
 5638SOL    MW422286   4.284   3.248   1.336 -0.2843 -0.6719 -0.0794
 5639SOL     OW22287   5.203   6.023   4.022 -0.1485 -0.5691  0.1289
 5639SOL    HW222288   5.201   5.942   4.073 -0.2595 -0.5381  0.1720
 5639SOL    HW322289   5.220   5.993   3.932 -4.8487 -1.1214 -0.8134
 5639SOL    MW422290   5.205   6.008   4.017  0.1991  0.6995 -0.3810
 5640SOL     OW22291   3.660   0.526   0.498  0.2383  0.2384  0.4601
 5640SOL    HW222292   3.726   0.484   0.444  0.4258 -0.0711  0.9281
 5640SOL    HW322293   3.584   0.468   0.494 -0.3491  1.0400 -0.8201
 5640SOL    MW422294   3.659   0.513   0.491  0.0759 -0.0432 -0.0865
 5641SOL     OW22295   4.026   1.012   1.270  0.2340 -0.2474 -0.6037
 5641SOL    HW222296   4.042   1.098   1.309  1.0860 -0.2250 -0.9789
 5641SOL    HW322297   4.066   1.017   1.183 -1.5055 -0.3350 -1.4567
 5641SOL    MW422298   4.034   1.024   1.264  0.9155  0.0576 -0.1301
 5642SOL     OW22299   5.780   2.894   3.406 -0.2881 -0.1576  0.0326
 5642SOL    HW222300   5.799   2.960   3.473 -0.1967  1.6340 -1.6583
 5642SOL    HW322301   5.865   2.854   3.389  0.1067  0.8413 -0.4521
 5642SOL    MW422302   5.794   2.898   3.413  0.1523  0.1051  0.5498
 5643SOL     OW22303   6.303   0.397   4.663  0.4723  0.2633 -0.1107
 5643SOL    HW222304   6.346   0.315   4.689 -0.3037 -0.2165 -0.3018
 5643SOL    HW322305   6.309   0.397   4.567 -0.4478 -0.1040 -0.1823
 5643SOL    MW422306   6.310   0.386   4.654  0.1381  0.4756 -0.1473
 5644SOL     OW22307   5.838   5.307   2.907 -0.5842 -0.5038 -0.6808
 5644SOL    HW222308   5.841   5.224   2.956  1.0842  0.4450  0.9778
 5644SOL    HW322309   5.862   5.373   2.972  0.1924  1.0320 -2.4569
 5644SOL    MW422310   5.842   5.305   2.922 -0.7012  0.1092  0.2401
 5645SOL     OW22311   1.745   4.865   0.598 -0.3041  0.2538 -0.2353
 5645SOL    HW222312   1.714   4.954   0.580  0.7019  0.3145 -1.9216
 5645SOL    HW322313   1.834   4.864   0.563 -0.4686 -1.5475 -0.6681
 5645SOL    MW422314   1.752   4.877   0.591  0.0178 -0.6774  0.5944
 5646SOL     OW22315   6.387   3.823   2.682 -0.1186 -0.1348 -0.6297
 5646SOL    HW222316   6.388   3.917   2.700  2.9471 -0.0689 -0.6422
 5646SOL    HW322317   6.476   3.803   2.653 -0.4783 -3.1754  0.0366
 5646SOL    MW422318   6.399   3.832   2.680 -0.6171 -0.4879 -0.0218
 5647SOL     OW22319   5.800   4.254   5.243  0.4243  0.1229 -0.5720
 5647SOL    HW222320   5.790   4.169   5.198  0.9165 -1.5218  2.2035
 5647SOL    HW322321   5.889   4.281   5.223  0.7524 -0.7464 -0.3491
 5647SOL    MW422322   5.810   4.246   5.234  0.3932 -0.4934 -0.1982
 5648SOL     OW22323   4.243   0.081   2.810 -0.0776 -0.0156  0.1840
 5648SOL    HW222324   4.228   0.010   2.872  0.1942 -0.7891 -0.6197
 5648SOL    HW322325   4.333   0.110   2.827  0.5611 -1.2814 -0.8702
 5648SOL    MW422326   4.253   0.076   2.821 -0.0698  0.1105  0.8461
 5649SOL     OW22327   5.315   5.817   4.861  0.3002  0.2043 -0.1116
 5649SOL    HW222328   5.372   5.848   4.931 -1.2747  1.3132  0.7643
 5649SOL    HW322329   5.346   5.862   4.783  1.8631 -0.7836 -0.0881
 5649SOL    MW422330   5.326   5.827   4.860 -0.1958 -0.4921  0.0634
 5650SOL     OW22331   6.081   0.681   2.740 -0.1746 -0.2256  0.3377
 5650SOL    HW222332   6.100   0.622   2.813  0.3291 -0.8379 -0.2675
 5650SOL    HW322333   5.989   0.703   2.750 -0.3733 -1.1242  0.5861
 5650SOL    MW422334   6.071   0.676   2.751 -0.3102 -0.4097  0.3031
 5651SOL     OW22335   3.895   6.367   4.629  0.2149  0.7321  0.5706
 5651SOL    HW222336   3.985   6.341   4.608  0.4591  1.6726  0.4022
 5651SOL    HW322337   3.842   6.323   4.562  0.5308  0.0965  0.7264
 5651SOL    MW422338   3.900   6.357   4.617  0.3801 -0.1524 -0.5822
 5652SOL     OW22339   1.709   5.448   2.611 -0.0620  0.1374 -0.0464
 5652SOL    HW222340   1.722   5.524   2.667 -0.4071  0.1448  0.0232
 5652SOL    HW322341   1.710   5.373   2.672  0.2764  0.0869 -0.1140
 5652SOL    MW422342   1.711   5.448   2.626 -0.3855 -0.0860 -0.1981
 5653SOL     OW22343   4.165   0.053   6.323 -0.0888 -0.5861 -0.0930
 5653SOL    HW222344   4.169   0.040   6.228 -0.9703  1.3785 -0.4391
 5653SOL    HW322345   4.104  -0.015   6.353 -0.4769 -0.6857 -1.0615
 5653SOL    MW422346   4.157   0.042   6.314  0.1861 -0.4174  0.4949
 5654SOL     OW22347   1.654   0.102   0.140 -0.2354  0.3486  0.3851
 5654SOL    HW222348   1.737   0.055   0.131 -0.0770  0.6257  0.3735
 5654SOL    HW322349   1.593   0.056   0.083  0.4834  1.4898 -1.3806
 5654SOL    MW422350   1.657   0.090   0.132  0.4298 -0.4701 -0.2122
 5655SOL     OW22351   2.801   5.008   0.044 -1.1126 -0.6396  0.0111
 5655SOL    HW222352   2.774   5.087  -0.002 -0.5733 -0.6226 -0.2865
 5655SOL    HW322353   2.756   5.012   0.129 -2.3232 -0.7922 -0.5993
 5655SOL    MW422354   2.792   5.019   0.049  0.3577  0.5260  0.0134
 5656SOL     OW22355   5.296   1.652   2.903  0.3924  0.1451 -0.5640
 5656SOL    HW222356   5.365   1.717   2.890  0.8294 -0.1340  0.2629
 5656SOL    HW322357   5.218   1.703   2.924  0.9645  0.3905  1.0896
 5656SOL    MW422358   5.295   1.667   2.904 -0.1860  0.0683 -0.0037
 5657SOL     OW22359   6.002   5.025   3.294 -0.2143 -0.1248 -0.2429
 5657SOL    HW222360   6.021   5.116   3.317 -1.5423  0.3465 -0.8947
 5657SOL    HW322361   6.061   4.973   3.350 -1.6613  1.0195  2.5433
 5657SOL    MW422362   6.012   5.030   3.304  0.2929  0.0893 -0.5590
 5658SOL     OW22363   2.445   2.348   2.175 -0.0935 -0.0285 -0.0183
 5658SOL    HW222364   2.532   2.317   2.148 -0.2614  0.2345 -0.8990
 5658SOL    HW322365   2.393   2.347   2.094 -0.1455  2.4058 -0.0735
 5658SOL    MW422366   2.450   2.344   2.161  0.1252  0.5840  0.1980
 5659SOL     OW22367   3.691   2.532   0.262 -0.1395  0.5241 -0.1801
 5659SOL    HW222368   3.782   2.506   0.251  0.1070  1.4043 -0.3164
 5659SOL    HW322369   3.657   2.472   0.328  0.7523  0.6462  0.4177
 5659SOL    MW422370   3.698   2.521   0.270  0.7344 -0.2225 -0.4398
 5660SOL     OW22371   2.156   1.555   2.316 -0.3672 -0.4466  0.0174
 5660SOL    HW222372   2.111   1.535   2.234  0.9877  0.1697 -0.9073
 5660SOL    HW322373   2.095   1.610   2.364 -1.1898 -0.8387 -0.5602
 5660SOL    MW422374   2.142   1.560   2.312 -0.9751 -0.0461  0.9821
 5661SOL     OW22375   3.633   3.867   2.992 -0.1330 -0.5263 -0.8788
 5661SOL    HW222376   3.613   3.790   3.046 -3.7249  0.3034 -0.7557
 5661SOL    HW322377   3.672   3.831   2.913  1.8908 -2.0784  0.7066
 5661SOL    MW422378   3.636   3.852   2.989  0.2902  0.5727  0.0505
 5662SOL     OW22379   4.264   0.871   4.202  0.1814 -0.1408 -0.2854
 5662SOL    HW222380   4.345   0.920   4.188 -0.5586  0.7761 -1.5140
 5662SOL    HW322381   4.198   0.938   4.221 -0.8171 -0.6201 -1.8426
 5662SOL    MW422382   4.266   0.886   4.203 -0.6269 -0.1058 -0.1918
 5663SOL     OW22383   4.861   1.643   1.189  0.5839 -0.1413  0.1603
 5663SOL    HW222384   4.920   1.592   1.134  0.6442 -0.3199  0.3889
 5663SOL    HW322385   4.780   1.591   1.192  0.6008 -0.1616  0.2868
 5663SOL    MW422386   4.858   1.630   1.182  0.2614 -0.3302  0.7525
 5664SOL     OW22387   2.252   5.210   4.560  0.0587 -0.1284 -0.1214
 5664SOL    HW222388   2.206   5.161   4.629 -2.4872 -1.2961 -2.4107
 5664SOL    HW322389   2.289   5.142   4.504 -0.4977  0.6536 -1.4793
 5664SOL    MW422390   2.251   5.194   4.562  0.5749 -0.0892  0.7236
 5665SOL     OW22391   2.088   3.421   2.935 -0.0998  0.0689  0.7932
 5665SOL    HW222392   2.038   3.380   3.005 -0.4083 -1.2564 -0.1587
 5665SOL    HW322393   2.179   3.396   2.952 -0.4355 -2.4136 -0.6031
 5665SOL    MW422394   2.093   3.412   2.947 -0.4703  0.1010  0.1248
 5666SOL     OW22395   2.702   2.844   1.021 -0.3518  0.1490 -0.1167
 5666SOL    HW222396   2.636   2.774   1.023 -2.1666  1.7459  3.1895
 5666SOL    HW322397   2.655   2.920   0.987  0.8021  0.5336 -0.9137
 5666SOL    MW422398   2.687   2.845   1.017 -0.1284  0.1800 -0.4966
 5667SOL     OW22399   4.182   6.239   1.968 -0.4243  0.6325  0.4829
 5667SOL    HW222400   4.159   6.287   1.889  2.1971  1.5795  0.1961
 5667SOL    HW322401   4.176   6.304   2.038 -0.3242  0.4606  0.6530
 5667SOL    MW422402   4.178   6.254   1.967 -0.4848  0.0177  0.2209
 5668SOL     OW22403   6.242   5.451   5.717  0.3169  0.0458 -0.5232
 5668SOL    HW222404   6.270   5.400   5.642  2.4136  1.7605 -0.9941
 5668SOL    HW322405   6.219   5.537   5.681  0.2720  0.5533  0.6636
 5668SOL    MW422406   6.243   5.455   5.703 -0.6768 -0.6157 -0.1641
 5669SOL     OW22407   2.785   2.582   6.204 -0.3055 -0.2706  0.1774
 5669SOL    HW222408   2.862   2.596   6.260 -0.6170  1.4309  0.2447
 5669SOL    HW322409   2.818   2.597   6.115 -0.2316 -1.0715  0.0653
 5669SOL    MW422410   2.800   2.586   6.199  0.1920  0.3379 -0.1036
 5670SOL     OW22411   3.244   6.360   0.424 -0.2986 -0.0009 -0.0094
 5670SOL    HW222412   3.235   6.453   0.444  0.0452  0.1317 -0.4520
 5670SOL    HW322413   3.335   6.349   0.396 -0.3942 -0.4247 -0.1778
 5670SOL    MW422414   3.255   6.371   0.423 -0.4552 -0.4976 -0.0521
 5671SOL     OW22415   0.318   1.486   5.667  0.3477 -0.4933  0.1602
 5671SOL    HW222416   0.306   1.433   5.746 -0.3566  0.4862  0.7216
 5671SOL    HW322417   0.237   1.535   5.657  0.8788  0.2911 -0.5018
 5671SOL    MW422418   0.306   1.485   5.676 -0.4061 -0.0615  0.6160
 5672SOL     OW22419   0.010   3.868   4.251 -0.3315 -0.2256  0.0554
 5672SOL    HW222420  -0.085   3.865   4.260 -0.3413  1.2630  0.7318
 5672SOL    HW322421   0.043   3.842   4.337 -0.1349 -0.3863 -0.0693
 5672SOL    MW422422   0.002   3.864   4.263  0.1205 -0.4014  0.4228
 5673SOL     OW22423   2.286   5.206   0.886 -0.3053 -0.5262  0.5928
 5673SOL    HW222424   2.302   5.297   0.860  1.1835 -1.2625 -1.2673
 5673SOL    HW322425   2.191   5.196   0.881 -0.4893  0.9043  0.8062
 5673SOL    MW422426   2.275   5.217   0.882  0.1560  0.2014  0.2763
 5674SOL     OW22427   0.551   4.168   4.085 -0.2416  0.9293 -0.3717
 5674SOL    HW222428   0.604   4.207   4.154  0.6116  0.9635 -1.0176
 5674SOL    HW322429   0.525   4.082   4.119  0.8122  0.6288 -0.2937
 5674SOL    MW422430   0.555   4.162   4.098  0.0008  0.3473 -0.1780
 5675SOL     OW22431   5.645   3.290   0.767  0.3739 -0.2135  0.2038
 5675SOL    HW222432   5.568   3.323   0.812  0.4126  1.8053 -1.1027
 5675SOL    HW322433   5.612   3.223   0.708 -0.5244  1.0684 -0.8005
 5675SOL    MW422434   5.631   3.286   0.765  0.0454 -0.0271 -0.4550
 5676SOL     OW22435   5.883   6.341   0.712  0.8201 -0.3581 -0.3661
 5676SOL    HW222436   5.910   6.420   0.664 -0.4696  0.7042  0.5824
 5676SOL    HW322437   5.852   6.281   0.644  1.2972  0.1583 -1.0545
 5676SOL    MW422438   5.883   6.343   0.697 -0.1666 -0.2350 -0.1566
 5677SOL     OW22439   2.286   0.173   4.380 -0.0065  0.1561 -0.0841
 5677SOL    HW222440   2.278   0.247   4.441  1.0653  1.8015 -1.8320
 5677SOL    HW322441   2.251   0.206   4.297 -0.2247 -1.5754 -0.7258
 5677SOL    MW422442   2.280   0.188   4.377  0.6468 -0.2849 -0.4860
 5678SOL     OW22443   2.292   4.474   2.421  0.4395 -0.1602  0.8062
 5678SOL    HW222444   2.372   4.422   2.425  0.2707 -0.4113  0.9696
 5678SOL    HW322445   2.284   4.513   2.509 -0.3141 -1.2009  1.2263
 5678SOL    MW422446   2.302   4.472   2.433  0.4404  0.0882 -0.3524
 5679SOL     OW22447   5.132   4.196   5.016 -0.0564 -0.0900 -0.0255
 5679SOL    HW222448   5.090   4.277   4.991  0.0876  0.4055  1.2452
 5679SOL    HW322449   5.175   4.216   5.100 -0.5385 -1.6327  0.6261
 5679SOL    MW422450   5.132   4.209   5.024 -0.2991 -0.1036  0.1079
 5680SOL     OW22451   5.688   5.258   2.688  0.1261  0.1959 -0.1953
 5680SOL    HW222452   5.742   5.266   2.767  0.3425 -0.8022 -0.2365
 5680SOL    HW322453   5.667   5.165   2.682 -2.0344  0.6117  0.0921
 5680SOL    MW422454   5.693   5.247   2.698  0.0964  0.2536 -0.0970
 5681SOL     OW22455   0.436   3.939   2.251  0.0742  0.8395 -0.0009
 5681SOL    HW222456   0.379   3.871   2.217 -0.0524  0.8271  0.2386
 5681SOL    HW322457   0.499   3.893   2.306  0.1261  0.8915 -0.0158
 5681SOL    MW422458   0.437   3.924   2.254  0.5257  0.8692 -0.3671
 5682SOL     OW22459   5.388   0.868   6.023  0.3262 -0.8803 -0.2684
 5682SOL    HW222460   5.402   0.834   5.935  0.0729 -1.5381 -0.0588
 5682SOL    HW322461   5.295   0.852   6.040  0.2808 -0.3860 -0.0339
 5682SOL    MW422462   5.377   0.861   6.014 -0.0520 -0.7695  0.3638
 5683SOL     OW22463   2.068   4.136   5.050 -0.5279 -0.1067 -0.4753
 5683SOL    HW222464   2.098   4.051   5.082  0.8321  0.2455 -0.7639
 5683SOL    HW322465   2.045   4.184   5.130  1.9181  0.4228  0.0086
 5683SOL    MW422466   2.069   4.131   5.065 -0.0318 -0.1001  0.3463
 5684SOL     OW22467   3.023   6.245   2.292 -0.9733 -0.3488  0.0549
 5684SOL    HW222468   3.061   6.162   2.320 -1.8446 -0.5550  0.6714
 5684SOL    HW322469   3.037   6.304   2.366 -1.6909 -0.3867  0.2329
 5684SOL    MW422470   3.030   6.242   2.305 -0.6790  0.3684 -0.0257
 5685SOL     OW22471   2.020   4.090   0.416 -0.2630  0.4991  0.2277
 5685SOL    HW222472   2.067   4.171   0.397  2.2644 -0.8075  0.4648
 5685SOL    HW322473   2.039   4.072   0.507 -1.0301 -0.2454  0.2510
 5685SOL    MW422474   2.028   4.098   0.425  0.4608  0.2497 -0.5749
 5686SOL     OW22475   5.845   0.094   4.191  0.3424 -0.5232  0.2772
 5686SOL    HW222476   5.911   0.045   4.143  0.5684  0.9492 -1.0129
 5686SOL    HW322477   5.844   0.180   4.149 -1.1063  0.0835  1.4537
 5686SOL    MW422478   5.854   0.099   4.179  0.4177 -0.1169 -0.6542
 5687SOL     OW22479   6.354   2.954   0.982  0.1527 -0.1704  0.7378
 5687SOL    HW222480   6.436   2.982   0.941 -0.4601  0.6760  0.0713
 5687SOL    HW322481   6.337   2.867   0.946  0.0263  0.2443 -0.2195
 5687SOL    MW422482   6.363   2.946   0.972 -0.1054  0.3558 -0.7616
 5688SOL     OW22483   2.643   4.518   6.334 -0.1005 -0.5150  0.2840
 5688SOL    HW222484   2.650   4.602   6.380 -1.0099 -0.0691 -0.3647
 5688SOL    HW322485   2.730   4.506   6.295 -0.1993  0.5365 -0.2974
 5688SOL    MW422486   2.656   4.527   6.335 -0.3583  0.3141  0.0712
 5689SOL     OW22487   5.682   0.803   3.586  0.1555 -0.1792  0.3715
 5689SOL    HW222488   5.605   0.759   3.620  0.1612  0.9987  2.0424
 5689SOL    HW322489   5.715   0.745   3.517 -1.5310 -1.2567  0.4225
 5689SOL    MW422490   5.677   0.790   3.581 -0.4421 -0.2856  0.2221
 5690SOL     OW22491   0.222   0.540   4.186  0.6463  0.5118 -0.2349
 5690SOL    HW222492   0.146   0.522   4.131 -0.9216  2.9920  0.9574
 5690SOL    HW322493   0.297   0.526   4.128 -0.7278 -1.0434 -1.7441
 5690SOL    MW422494   0.222   0.536   4.171  0.1596 -0.3395  0.2880
 5691SOL     OW22495   4.471   1.486   1.842 -0.4432 -0.8774  0.4382
 5691SOL    HW222496   4.414   1.427   1.793 -0.4297 -2.1840  1.9051
 5691SOL    HW322497   4.437   1.573   1.824 -0.6429 -1.3303 -1.5640
 5691SOL    MW422498   4.459   1.489   1.833 -0.1958  0.8278  0.2717
 5692SOL     OW22499   4.881   1.136   4.306 -0.0550  0.2374 -0.4844
 5692SOL    HW222500   4.960   1.149   4.359 -0.6546  0.7231  0.3284
 5692SOL    HW322501   4.913   1.104   4.222  1.0318  0.7437 -0.2844
 5692SOL    MW422502   4.896   1.134   4.302  0.2116  0.4516 -0.0277
 5693SOL     OW22503   1.469   4.127   3.450  0.2595  0.0007 -0.4383
 5693SOL    HW222504   1.537   4.119   3.383 -0.3036 -1.1492 -0.9071
 5693SOL    HW322505   1.395   4.167   3.403  0.3096  0.4307 -0.1543
 5693SOL    MW422506   1.468   4.132   3.435 -0.3472 -0.6605 -0.1347
 5694SOL     OW22507   1.725   2.310   5.468  0.2273 -0.4039  0.4015
 5694SOL    HW222508   1.804   2.321   5.415  0.2513  0.7670  0.6485
 5694SOL    HW322509   1.664   2.375   5.433 -0.4715 -1.0017  0.5010
 5694SOL    MW422510   1.728   2.320   5.456  0.3473  0.2734  0.4411
 5695SOL     OW22511   0.051   1.792   0.127 -0.0616  0.4408  0.3803
 5695SOL    HW222512   0.137   1.758   0.105 -1.2599 -3.5175  1.0379
 5695SOL    HW322513   0.063   1.834   0.212  1.4189  1.1395 -0.1477
 5695SOL    MW422514   0.064   1.793   0.136 -0.5100  0.4211  0.0286
 5696SOL     OW22515   3.245   5.465   0.969  0.0566 -0.0996 -0.0583
 5696SOL    HW222516   3.205   5.537   0.922 -0.0156 -0.7219 -0.9774
 5696SOL    HW322517   3.322   5.504   1.011 -0.0223  0.5290 -0.4813
 5696SOL    MW422518   3.250   5.480   0.968  0.0267  0.1086  0.4449
 5697SOL     OW22519   0.346   4.004   6.208 -0.2171 -0.2732 -0.4648
 5697SOL    HW222520   0.304   4.090   6.206 -1.2736 -0.7250  0.9453
 5697SOL    HW322521   0.303   3.957   6.280  2.5071 -0.8587  0.9317
 5697SOL    MW422522   0.335   4.009   6.217 -0.2364 -0.2358 -0.1896
 5698SOL     OW22523   6.383   1.389   6.267 -0.5617  0.7039  0.3010
 5698SOL    HW222524   6.391   1.460   6.331 -0.9660 -0.1537  1.3367
 5698SOL    HW322525   6.302   1.408   6.219 -1.1999  0.4418  1.2412
 5698SOL    MW422526   6.373   1.401   6.269  0.3159  0.5164  0.0532
 5699SOL     OW22527   1.798   2.072   2.575  0.0299  0.1976  0.3704
 5699SOL    HW222528   1.839   2.099   2.493  2.4894  0.4051  1.5701
 5699SOL    HW322529   1.753   2.150   2.608  0.1853  0.4946 -0.1262
 5699SOL    MW422530   1.798   2.086   2.569  0.1564  0.2688  0.3752
 5700SOL     OW22531   4.837   6.001   0.054  0.1832  0.4595 -0.1129
 5700SOL    HW222532   4.877   5.937  -0.005 -0.9057  0.1938 -0.5863
 5700SOL    HW322533   4.805   5.949   0.128 -0.6772  0.4520 -0.4833
 5700SOL    MW422534   4.838   5.986   0.056  0.6300  0.5888 -0.0466
 5701SOL     OW22535   2.918   5.070   2.501 -0.0552  0.5755 -0.2999
 5701SOL    HW222536   2.934   5.110   2.415 -0.4409  1.0092 -0.1732
 5701SOL    HW322537   2.929   5.142   2.563  1.0787  0.0759  0.1045
 5701SOL    MW422538   2.922   5.085   2.498  0.0751  0.6515  0.3101
 5702SOL     OW22539   4.926   0.524   1.073 -0.0868 -0.3989  0.0404
 5702SOL    HW222540   4.928   0.528   0.978 -0.6666  1.2629  0.0679
 5702SOL    HW322541   4.971   0.603   1.102  0.5434 -1.1450  1.1603
 5702SOL    MW422542   4.932   0.535   1.065  0.4748  0.0017 -0.5055
 5703SOL     OW22543   0.742   2.396   5.846 -0.0841 -0.0251 -0.3611
 5703SOL    HW222544   0.652   2.404   5.879 -0.0108  1.8146 -0.5099
 5703SOL    HW322545   0.795   2.384   5.925 -0.5638 -2.8151 -0.3700
 5703SOL    MW422546   0.737   2.395   5.861  0.4119 -0.4140 -0.2139
 5704SOL     OW22547   5.580   0.353   0.993  0.2307  1.0620 -0.0227
 5704SOL    HW222548   5.531   0.338   1.074  0.0802  0.4418 -0.2224
 5704SOL    HW322549   5.664   0.309   1.008 -0.0987  0.2413 -0.4963
 5704SOL    MW422550   5.585   0.345   1.006 -0.0954  0.3686  0.4409
 5705SOL     OW22551   5.124   2.000   0.082 -0.6353  0.4378  0.4541
 5705SOL    HW222552   5.165   2.056   0.016  0.2594  0.7243  1.2259
 5705SOL    HW322553   5.097   1.922   0.035 -1.1145  1.1503 -0.4769
 5705SOL    MW422554   5.126   1.997   0.067  0.4741 -0.5426  0.2878
 5706SOL     OW22555   4.172   6.120   5.139  0.1603  0.1047  0.3413
 5706SOL    HW222556   4.174   6.216   5.145 -0.7344  0.2257 -0.8484
 5706SOL    HW322557   4.188   6.090   5.228 -0.3286  1.3715  0.8865
 5706SOL    MW422558   4.175   6.129   5.151  0.7282 -0.0522  0.4265
 5707SOL     OW22559   2.835   5.984   5.813 -0.0418 -0.0558  0.2834
 5707SOL    HW222560   2.821   6.079   5.806 -1.4775 -0.0949  1.9993
 5707SOL    HW322561   2.748   5.946   5.808  0.6184 -1.5008 -2.1145
 5707SOL    MW422562   2.822   5.992   5.811 -0.1162  0.4160  0.3813
 5708SOL     OW22563   0.361   1.408   3.253  0.4202  0.0829 -0.6202
 5708SOL    HW222564   0.345   1.488   3.202  1.4783  0.3094 -0.6268
 5708SOL    HW322565   0.446   1.423   3.294  0.7260 -1.1251 -0.7781
 5708SOL    MW422566   0.370   1.421   3.252 -0.3764 -0.2899  0.0635
 5709SOL     OW22567   3.948   2.615   5.313 -0.1210  0.3387 -0.2570
 5709SOL    HW222568   4.031   2.630   5.358 -0.3550 -2.6679  1.4752
 5709SOL    HW322569   3.973   2.570   5.232 -0.0294 -0.6449  0.3051
 5709SOL    MW422570   3.963   2.611   5.308  0.3601 -0.1212  0.3394
 5710SOL     OW22571   5.442   6.345   0.566  0.8346  0.2713  0.6563
 5710SOL    HW222572   5.488   6.422   0.532 -0.6501  1.9170  2.1872
 5710SOL    HW322573   5.421   6.367   0.657 -2.1267 -0.7114  0.3409
 5710SOL    MW422574   5.445   6.358   0.573 -0.2120 -0.3049 -0.0979
 5711SOL     OW22575   0.705   2.972   5.090  0.4337 -0.3889 -0.2854
 5711SOL    HW222576   0.655   2.979   5.009  0.2319 -2.7544 -0.4458
 5711SOL    HW322577   0.695   3.057   5.133  0.4367  0.8737 -2.6579
 5711SOL    MW422578   0.697   2.984   5.085  0.0842 -0.2911 -0.3443
 5712SOL     OW22579   0.824   4.122   4.453  0.5114  0.1061  0.0059
 5712SOL    HW222580   0.829   4.069   4.532 -0.4397 -1.0340 -0.6727
 5712SOL    HW322581   0.733   4.150   4.448  0.0559 -1.4780 -1.6832
 5712SOL    MW422582   0.813   4.119   4.463  0.1752  0.2273  0.2251
 5713SOL     OW22583   6.006   5.724   0.848  0.3750 -0.1486  0.2276
 5713SOL    HW222584   5.950   5.737   0.925 -0.0205  1.1122 -0.2410
 5713SOL    HW322585   5.947   5.732   0.774  0.9674 -0.0556 -0.2409
 5713SOL    MW422586   5.991   5.727   0.849 -0.1994 -0.5112 -0.0523
 5714SOL     OW22587   3.208   5.336   5.512  0.4713  0.1261  0.7482
 5714SOL    HW222588   3.192   5.400   5.581  3.6102  0.3384  1.4403
 5714SOL    HW322589   3.225   5.254   5.558  1.7818  0.0845  0.2476
 5714SOL    MW422590   3.208   5.334   5.527 -0.2800 -0.0894 -0.3995
 5715SOL     OW22591   1.767   3.137   1.349  0.7186 -0.3216 -0.3860
 5715SOL    HW222592   1.716   3.116   1.427  1.8202 -1.9126 -0.0418
 5715SOL    HW322593   1.858   3.140   1.380  1.0629  0.2732 -1.3889
 5715SOL    MW422594   1.773   3.135   1.363  0.2143  0.3109  0.6870
 5716SOL     OW22595   2.330   2.133   6.259  0.1314  0.3451  0.4720
 5716SOL    HW222596   2.288   2.117   6.343 -0.3708 -2.3552 -0.1823
 5716SOL    HW322597   2.419   2.099   6.270  0.4813  1.1581  0.2618
 5716SOL    MW422598   2.336   2.126   6.272  0.4600 -0.6787  0.0621
 5717SOL     OW22599   6.247   6.332   5.664 -0.0991  0.6590  0.2590
 5717SOL    HW222600   6.309   6.271   5.626  0.2748  1.4283 -0.3855
 5717SOL    HW322601   6.225   6.294   5.749  1.5358  0.5559  0.6607
 5717SOL    MW422602   6.252   6.319   5.671 -0.1168  0.5526  0.4422
 5718SOL     OW22603   2.910   4.601   2.464  0.2042  0.3867  0.1834
 5718SOL    HW222604   2.830   4.620   2.414  0.7362 -0.6417 -1.1222
 5718SOL    HW322605   2.912   4.669   2.532  0.5952  3.3228 -2.5130
 5718SOL    MW422606   2.900   4.613   2.466 -0.0659 -0.3816 -0.0586
 5719SOL     OW22607   2.357   2.782   5.212  0.2940  0.2236  0.6668
 5719SOL    HW222608   2.263   2.763   5.205  0.1416  1.2304 -0.1386
 5719SOL    HW322609   2.399   2.711   5.163 -0.1744  0.9701 -0.8520
 5719SOL    MW422610   2.350   2.770   5.205 -0.5490 -0.5933  0.6429
 5720SOL     OW22611   2.591   0.769   3.089  0.4838 -0.0577  0.3155
 5720SOL    HW222612   2.657   0.820   3.136 -0.2913 -0.0668  1.4351
 5720SOL    HW322613   2.508   0.811   3.110 -0.2064 -1.8188  1.3961
 5720SOL    MW422614   2.589   0.781   3.098  0.6772 -0.0221 -0.6119
 5721SOL     OW22615   4.994   4.928   2.562  0.3438 -0.2915 -0.2069
 5721SOL    HW222616   5.084   4.959   2.553  0.4811 -0.5534  0.2409
 5721SOL    HW322617   4.994   4.841   2.520  0.4357 -0.5281  0.2748
 5721SOL    MW422618   5.006   4.920   2.555  0.1956 -0.0633  0.2843
 5722SOL     OW22619   5.188   0.353   3.287  0.0782 -0.5570 -0.5808
 5722SOL    HW222620   5.124   0.292   3.251  1.0826 -3.1240  1.6626
 5722SOL    HW322621   5.272   0.321   3.254  0.6910 -0.8602  1.2191
 5722SOL    MW422622   5.191   0.341   3.278  0.1118  0.6598  0.5475
 5723SOL     OW22623   2.804   5.110   1.685 -0.8417 -0.0535 -0.2976
 5723SOL    HW222624   2.873   5.175   1.681 -0.5143 -0.2026  1.8708
 5723SOL    HW322625   2.842   5.032   1.646 -0.4455  0.3815 -0.7994
 5723SOL    MW422626   2.818   5.108   1.679 -0.4868 -0.5263  0.5360
 5724SOL     OW22627   0.088   4.186   0.116 -0.3887 -0.3383 -0.7452
 5724SOL    HW222628   0.160   4.242   0.088  0.4925 -1.6116 -1.1335
 5724SOL    HW322629   0.103   4.173   0.210 -0.7157  0.2395 -0.6120
 5724SOL    MW422630   0.100   4.191   0.125  0.0441  0.3186  0.2522
 5725SOL     OW22631   2.676   3.492   0.975 -0.3573 -0.0075  0.2893
 5725SOL    HW222632   2.649   3.565   1.030 -0.4499  0.9961 -1.0334
 5725SOL    HW322633   2.736   3.441   1.029  0.8928  1.8663  0.7703
 5725SOL    MW422634   2.680   3.495   0.989 -0.9469 -0.1766 -0.3416
 5726SOL     OW22635   2.837   2.951   6.398  0.2220 -0.5899 -0.0678
 5726SOL    HW222636   2.761   3.004   6.422  1.1594  0.3250  0.9807
 5726SOL    HW322637   2.896   2.958   6.473  1.4472 -1.0902 -0.9503
 5726SOL    MW422638   2.835   2.959   6.411 -0.0936 -0.0356 -0.7004
 5727SOL     OW22639   3.771   0.903   5.188  0.2703  0.3734  0.1379
 5727SOL    HW222640   3.772   0.807   5.191  1.7349  0.3245 -0.9664
 5727SOL    HW322641   3.848   0.930   5.237 -0.1038  1.0025  0.3932
 5727SOL    MW422642   3.781   0.894   5.195 -0.8706  0.4664  0.4220
 5728SOL     OW22643   0.835   2.490   2.809 -0.3956 -0.3688  0.1081
 5728SOL    HW222644   0.907   2.509   2.869 -1.2299  0.7482  0.7861
 5728SOL    HW322645   0.788   2.418   2.850 -1.0093  0.4412  0.8755
 5728SOL    MW422646   0.838   2.483   2.822  0.6023 -0.1546 -0.1204
 5729SOL     OW22647   0.247   5.761   4.500  0.0275 -0.0863  0.4860
 5729SOL    HW222648   0.224   5.719   4.417  1.4111 -0.0274  0.0470
 5729SOL    HW322649   0.343   5.767   4.498  0.0908 -0.0728  2.0821
 5729SOL    MW422650   0.257   5.756   4.489 -0.0756  0.3812 -0.0284
 5730SOL     OW22651   0.252   3.573   5.521 -0.1957  0.1151 -0.2762
 5730SOL    HW222652   0.325   3.625   5.556  1.7366 -0.8777 -2.5606
 5730SOL    HW322653   0.198   3.637   5.474 -0.8697  0.8685  1.4695
 5730SOL    MW422654   0.255   3.589   5.519  0.3907 -0.4278  0.5571
 5731SOL     OW22655   5.808   0.402   4.880  0.1311 -0.4227  0.1354
 5731SOL    HW222656   5.818   0.484   4.831  1.6291 -0.4560  0.3407
 5731SOL    HW322657   5.714   0.386   4.881 -0.2402  1.5320  0.4825
 5731SOL    MW422658   5.797   0.411   4.874 -0.1605 -0.4144 -0.4146
 5732SOL     OW22659   1.304   4.789   2.806 -0.0080  0.0993  1.0170
 5732SOL    HW222660   1.278   4.814   2.717 -0.0115  0.3375  1.0843
 5732SOL    HW322661   1.368   4.720   2.793 -0.5223 -0.3554  0.8443
 5732SOL    MW422662   1.309   4.784   2.793  0.1468 -0.0035 -0.0290
 5733SOL     OW22663   5.955   4.731   1.380  0.2434  0.2638  0.2550
 5733SOL    HW222664   6.007   4.811   1.368  0.5903 -0.2411 -2.0954
 5733SOL    HW322665   5.937   4.728   1.474  1.9799  2.0062  0.7117
 5733SOL    MW422666   5.960   4.741   1.391 -0.1686 -0.1579  0.0537
 5734SOL     OW22667   3.821   5.734   5.203  0.2008 -0.5874  0.3562
 5734SOL    HW222668   3.737   5.774   5.182 -0.1801 -1.3092  0.4702
 5734SOL    HW322669   3.878   5.807   5.224  0.0556  0.0432 -1.2664
 5734SOL    MW422670   3.817   5.749   5.203 -0.2050  0.4167  0.8459
 5735SOL     OW22671   4.227   4.728   0.878  0.7931  0.5725 -0.3409
 5735SOL    HW222672   4.244   4.729   0.972  0.6740 -0.5339 -0.2940
 5735SOL    HW322673   4.173   4.806   0.863 -1.6320 -0.7129  1.0114
 5735SOL    MW422674   4.222   4.739   0.889 -0.4457 -0.1568  0.3333
 5736SOL     OW22675   6.380   6.044   4.147 -0.0113 -0.0189  0.9439
 5736SOL    HW222676   6.356   6.022   4.057  2.5552 -1.3910  0.5039
 5736SOL    HW322677   6.346   6.132   4.160 -1.0894 -0.0685 -1.0940
 5736SOL    MW422678   6.373   6.053   4.137  0.5284  0.1660 -0.2015
 5737SOL     OW22679   2.755   1.625   3.520  0.1408  0.0662  0.0187
 5737SOL    HW222680   2.703   1.688   3.470  0.1273 -1.2266 -1.6835
 5737SOL    HW322681   2.734   1.644   3.612 -0.7523  1.7424 -0.4985
 5737SOL    MW422682   2.745   1.635   3.526 -0.2393 -0.0187  0.6432
 5738SOL     OW22683   4.581   3.559   6.193  0.0736  0.2207  0.4424
 5738SOL    HW222684   4.609   3.611   6.119 -0.5832 -1.6566 -1.2203
 5738SOL    HW322685   4.624   3.599   6.269  1.5541  1.6044 -1.0589
 5738SOL    MW422686   4.590   3.571   6.193  0.1407  0.1322  0.3046
 5739SOL     OW22687   6.334   4.067   3.991  0.7366 -0.1615  0.4131
 5739SOL    HW222688   6.322   4.134   3.924 -1.6267 -0.6841  0.2282
 5739SOL    HW322689   6.305   4.108   4.072 -0.1728 -0.7690  0.4026
 5739SOL    MW422690   6.329   4.081   3.993  0.5384 -0.4311  0.2239
 5740SOL     OW22691   2.552   3.629   1.500 -0.3165  0.1458  0.5327
 5740SOL    HW222692   2.500   3.554   1.473  0.8867  0.5807 -3.6301
 5740SOL    HW322693   2.488   3.695   1.526 -1.5309 -1.0666  0.7554
 5740SOL    MW422694   2.537   3.628   1.500  0.2008  0.0483  0.2040
 5741SOL     OW22695   3.276   2.990   1.967  0.1578 -0.2446 -0.2590
 5741SOL    HW222696   3.327   2.972   1.888  0.7773 -0.0065  0.0768
 5741SOL    HW322697   3.185   2.979   1.940  0.4052 -1.3250 -0.7139
 5741SOL    MW422698   3.271   2.986   1.953 -0.0679 -0.5241  0.2743
 5742SOL     OW22699   3.190   6.410   1.160 -0.3227  0.2177 -0.0987
 5742SOL    HW222700   3.254   6.363   1.213 -0.3594  1.1351  0.7818
 5742SOL    HW322701   3.124   6.345   1.138  0.2544 -0.4274  0.0640
 5742SOL    MW422702   3.190   6.395   1.164  0.4040  0.7149  0.1272
 5743SOL     OW22703   6.341   5.891   1.016  0.1923 -0.0961 -0.0819
 5743SOL    HW222704   6.322   5.953   1.086 -0.5436  2.1399 -2.1283
 5743SOL    HW322705   6.266   5.899   0.956  1.4480 -0.8565 -1.8319
 5743SOL    MW422706   6.328   5.900   1.017  0.2786 -0.4123 -0.1648
 5744SOL     OW22707   2.884   2.543   0.736 -0.0354  0.2614  0.2435
 5744SOL    HW222708   2.829   2.535   0.814 -1.3562 -0.4517 -0.7233
 5744SOL    HW322709   2.973   2.538   0.769 -0.5806 -1.4670  1.5878
 5744SOL    MW422710   2.888   2.541   0.751 -0.2848 -0.3925 -0.1555
 5745SOL     OW22711   1.877   0.900   3.630  0.0233 -0.6065 -0.7594
 5745SOL    HW222712   1.916   0.845   3.563  0.0161  0.2604 -1.4920
 5745SOL    HW322713   1.884   0.989   3.595 -1.4166 -0.3025 -0.3234
 5745SOL    MW422714   1.883   0.905   3.617  0.1098  0.2936 -0.2303
 5746SOL     OW22715   1.970   0.150   4.483  0.1531 -0.4397  0.3919
 5746SOL    HW222716   1.965   0.224   4.422 -0.8793  1.2506  2.3789
 5746SOL    HW322717   2.057   0.114   4.471  0.8611  1.4031 -0.3265
 5746SOL    MW422718   1.981   0.155   4.474 -0.2318  0.3198 -0.6436
 5747SOL     OW22719   1.453   0.095   3.454 -0.1271 -0.4145  0.4640
 5747SOL    HW222720   1.538   0.108   3.495 -0.0021 -1.7294  0.6841
 5747SOL    HW322721   1.462   0.012   3.407 -1.3438 -0.6905  0.6768
 5747SOL    MW422722   1.465   0.086   3.453  0.0100  0.3155  0.0887
 5748SOL     OW22723   5.900   3.260   0.455 -0.3361 -1.0465 -0.5456
 5748SOL    HW222724   5.910   3.179   0.506  0.6055 -0.1053  0.8279
 5748SOL    HW322725   5.980   3.266   0.404  1.3043  0.7493  2.0104
 5748SOL    MW422726   5.912   3.250   0.455 -0.2542 -0.0350 -0.3482
 5749SOL     OW22727   0.942   0.208   2.529 -0.3962 -0.3360 -0.5230
 5749SOL    HW222728   1.032   0.190   2.503  0.0666  1.5638 -0.3633
 5749SOL    HW322729   0.889   0.170   2.459  0.4217 -2.7224  0.0833
 5749SOL    MW422730   0.947   0.201   2.516 -0.9494 -0.4192  0.3716
 5750SOL     OW22731   1.925   3.475   0.251  0.3735 -0.8659  0.0857
 5750SOL    HW222732   1.954   3.435   0.169  1.3930  0.2018 -0.1016
 5750SOL    HW322733   1.897   3.563   0.226  0.9485 -0.4365  0.9157
 5750SOL    MW422734   1.925   3.481   0.237  0.1174  0.5008 -0.0238
 5751SOL     OW22735   0.877   5.457   5.702 -0.1278 -0.5155  0.0535
 5751SOL    HW222736   0.927   5.532   5.735 -0.3178 -0.5068  0.3285
 5751SOL    HW322737   0.800   5.453   5.758 -1.7078  0.9750 -1.8468
 5751SOL    MW422738   0.873   5.466   5.713  0.3321  0.2133 -0.2758
 5752SOL     OW22739   4.249   3.439   2.930 -0.2680  0.0015 -0.1325
 5752SOL    HW222740   4.233   3.532   2.914  0.8336  0.2487  0.1383
 5752SOL    HW322741   4.304   3.411   2.856  1.1444  0.0888  0.8472
 5752SOL    MW422742   4.254   3.447   2.918  0.3082 -0.6590  0.0972
 5753SOL     OW22743   4.281   5.617   0.009 -0.1203 -0.1203 -0.2243
 5753SOL    HW222744   4.192   5.647  -0.008 -0.4775 -1.9480 -1.9618
 5753SOL    HW322745   4.333   5.654  -0.063  0.6259  1.1275  0.9025
 5753SOL    MW422746   4.276   5.626  -0.003 -0.2939  0.3834 -0.4751
 5754SOL     OW22747   3.616   2.777   6.360 -0.5583  0.0127 -0.2969
 5754SOL    HW222748   3.708   2.797   6.378 -0.4513 -0.7048 -0.0393
 5754SOL    HW322749   3.570   2.860   6.373 -0.0399  0.2189  0.2226
 5754SOL    MW422750   3.622   2.791   6.364 -0.3572  0.1375  0.4773
 5755SOL     OW22751   3.033   3.193   3.205  0.3633  0.3897 -0.2620
 5755SOL    HW222752   3.086   3.183   3.126  1.2725 -1.1533  0.4796
 5755SOL    HW322753   2.968   3.124   3.200  0.3326  0.3736  0.2438
 5755SOL    MW422754   3.032   3.182   3.194 -0.4717 -0.2617 -0.2767
 5756SOL     OW22755   0.095   4.585   3.310 -0.1720 -0.4858  0.1954
 5756SOL    HW222756   0.113   4.651   3.377 -0.7157 -0.5719  0.4328
 5756SOL    HW322757   0.098   4.633   3.227  0.7003 -0.4168  0.2516
 5756SOL    MW422758   0.098   4.600   3.308 -0.5153  0.5659 -0.5940
 5757SOL     OW22759   0.890   1.416   4.524  0.6783 -0.2705  0.3038
 5757SOL    HW222760   0.964   1.459   4.568  0.0657  1.1395  0.0228
 5757SOL    HW322761   0.814   1.440   4.578  0.3021 -0.9313  0.0730
 5757SOL    MW422762   0.890   1.425   4.537  0.0114  0.1314  0.4159
 5758SOL     OW22763   1.661   0.495   5.695  0.1594  0.0295  0.1933
 5758SOL    HW222764   1.632   0.451   5.615 -1.9763  1.8657 -0.1337
 5758SOL    HW322765   1.754   0.513   5.679  0.2248 -1.2477 -1.0932
 5758SOL    MW422766   1.670   0.492   5.682 -0.3605  0.7253  0.1580
 5759SOL     OW22767   2.643   6.052   3.102  0.0452 -0.4686  0.2758
 5759SOL    HW222768   2.655   6.055   3.197  1.2188  1.0733  0.1118
 5759SOL    HW322769   2.712   5.993   3.072 -0.0448 -0.6069  0.3402
 5759SOL    MW422770   2.654   6.044   3.110  0.1836 -0.4573  0.1029
 5760SOL     OW22771   4.066   0.560   5.424 -0.1521  0.6405  0.1856
 5760SOL    HW222772   3.984   0.537   5.466 -0.1305  0.0478 -0.0793
 5760SOL    HW322773   4.098   0.477   5.387  0.2400  0.9892 -0.2705
 5760SOL    MW422774   4.060   0.546   5.425  0.2452 -0.1757  0.1606
 5761SOL     OW22775   0.043   2.273   2.126 -0.1284 -0.0110  0.1546
 5761SOL    HW222776  -0.030   2.243   2.072 -0.7779  1.3276  0.2364
 5761SOL    HW322777   0.092   2.332   2.068  0.1709  0.0699  0.4900
 5761SOL    MW422778   0.040   2.277   2.111 -0.4450  0.1206  0.4430
 5762SOL     OW22779   2.276   4.571   3.384 -0.0891 -0.2441  0.8381
 5762SOL    HW222780   2.230   4.651   3.408 -1.8639 -0.7978 -0.4280
 5762SOL    HW322781   2.238   4.504   3.442 -1.1372 -0.7482 -0.3674
 5762SOL    MW422782   2.265   4.573   3.395 -0.0510  0.3697 -0.4533
 5763SOL     OW22783   5.285   3.471   5.465  0.2629 -0.5271 -0.0643
 5763SOL    HW222784   5.319   3.486   5.553 -0.2305 -2.2137  0.4552
 5763SOL    HW322785   5.206   3.524   5.459  1.7490  1.7785 -0.5309
 5763SOL    MW422786   5.279   3.480   5.476 -0.4187 -0.5120 -0.0583
 5764SOL     OW22787   0.788   4.899   1.473 -0.0770  0.2484  0.7175
 5764SOL    HW222788   0.693   4.911   1.463 -0.1704 -0.5801  0.5351
 5764SOL    HW322789   0.803   4.908   1.567  0.2703  4.3326  0.4472
 5764SOL    MW422790   0.777   4.902   1.484 -0.1283 -0.0820 -0.7722
 5765SOL     OW22791   1.276   0.941   3.921 -0.1197  0.4673  0.0509
 5765SOL    HW222792   1.267   0.900   3.835  1.1895 -0.0677  0.1455
 5765SOL    HW322793   1.296   0.869   3.980 -0.2628  0.9301  0.6726
 5765SOL    MW422794   1.278   0.926   3.917  0.2859  0.0093 -0.0045
 5766SOL     OW22795   1.420   5.892   4.095  0.1472  0.7132 -0.4608
 5766SOL    HW222796   1.432   5.798   4.101  1.0753  0.8671  0.5168
 5766SOL    HW322797   1.509   5.928   4.102 -0.2830  1.6862  0.3205
 5766SOL    MW422798   1.434   5.885   4.097  0.1088  0.3792  0.3715
 5767SOL     OW22799   6.224   5.088   6.414  0.3562  0.4883  0.2066
 5767SOL    HW222800   6.289   5.136   6.364 -1.2853  1.4895 -1.0938
 5767SOL    HW322801   6.263   5.078   6.501  3.3998 -1.5121 -1.2119
 5767SOL    MW422802   6.237   5.093   6.419  0.4232 -0.8564 -0.3053
 5768SOL     OW22803   0.083   0.872   3.807 -0.6717  0.0408 -0.1796
 5768SOL    HW222804   0.005   0.841   3.759 -0.8206 -0.6405  0.4897
 5768SOL    HW322805   0.139   0.909   3.739 -0.0520 -2.5799 -1.2122
 5768SOL    MW422806   0.080   0.873   3.791  0.1248  0.3707  0.0258
 5769SOL     OW22807   4.244   6.151   6.216  0.0418  0.0444 -0.0927
 5769SOL    HW222808   4.305   6.158   6.142 -1.1344  1.0299 -1.0274
 5769SOL    HW322809   4.298   6.167   6.293  1.0547  0.4073 -0.8498
 5769SOL    MW422810   4.259   6.154   6.216 -0.3082  0.5815  0.1953
 5770SOL     OW22811   5.976   3.154   1.198 -1.4657 -0.1017 -0.1423
 5770SOL    HW222812   6.026   3.233   1.217 -2.4562 -0.1440  3.3880
 5770SOL    HW322813   5.892   3.186   1.165 -1.0142  0.1829 -1.0396
 5770SOL    MW422814   5.972   3.168   1.196 -0.5350 -0.2756 -0.7809
 5771SOL     OW22815   3.547   2.106   1.637  0.3923  0.3724 -0.0909
 5771SOL    HW222816   3.502   2.024   1.659  0.4821  0.4985  0.5734
 5771SOL    HW322817   3.510   2.171   1.696  0.2318  0.8460 -0.7079
 5771SOL    MW422818   3.536   2.104   1.648 -0.0797  0.4096 -0.0244
 5772SOL     OW22819   5.305   1.033   1.458 -0.0512  0.2408  0.5231
 5772SOL    HW222820   5.312   1.088   1.380 -0.7145 -0.8074 -0.3250
 5772SOL    HW322821   5.395   1.009   1.479  0.5157  3.4702  2.3493
 5772SOL    MW422822   5.318   1.037   1.450 -0.3551  0.2892 -0.4758
 5773SOL     OW22823   3.841   4.810   5.540 -0.2256  0.0512 -0.1462
 5773SOL    HW222824   3.856   4.888   5.593 -0.8427  0.5013 -0.6055
 5773SOL    HW322825   3.802   4.746   5.600  2.8291 -0.9792  0.9569
 5773SOL    MW422826   3.838   4.812   5.555  0.3462 -0.0457  0.0868
 5774SOL     OW22827   0.162   1.698   1.299 -0.4233 -0.5721 -0.5721
 5774SOL    HW222828   0.256   1.712   1.288 -0.5877  0.3951 -0.8979
 5774SOL    HW322829   0.127   1.707   1.210 -1.1997  2.4283 -0.0640
 5774SOL    MW422830   0.170   1.701   1.285 -0.3344 -0.3684 -0.2169
 5775SOL     OW22831   6.206   2.560   0.602  0.3723  0.1300  0.2613
 5775SOL    HW222832   6.153   2.538   0.678 -1.6297 -0.2167 -1.1533
 5775SOL    HW322833   6.212   2.479   0.553  0.7040  0.5977 -0.4905
 5775SOL    MW422834   6.200   2.547   0.605  0.4564 -0.0143  0.1283
 5776SOL     OW22835   3.632   0.393   4.868  0.2991  0.3663 -0.4810
 5776SOL    HW222836   3.580   0.463   4.829 -0.2237 -0.7458 -1.8773
 5776SOL    HW322837   3.717   0.433   4.886 -0.8808  2.1695  1.6466
 5776SOL    MW422838   3.636   0.407   4.866  0.5885 -0.0360 -0.1014
 5777SOL     OW22839   2.358   4.800   4.329 -0.0216 -0.5164  0.2006
 5777SOL    HW222840   2.415   4.785   4.253  0.2913 -0.0264  0.3341
 5777SOL    HW322841   2.362   4.894   4.343 -0.4530 -0.5480  0.5383
 5777SOL    MW422842   2.366   4.810   4.321 -0.0817 -0.2531 -0.0855
 5778SOL     OW22843   2.089   2.958   2.502  0.6825 -0.1498  0.0655
 5778SOL    HW222844   2.158   3.021   2.483 -0.8650  1.3229 -0.9588
 5778SOL    HW322845   2.040   2.998   2.574 -0.1975 -0.2470 -0.4667
 5778SOL    MW422846   2.092   2.972   2.509 -0.4956 -0.2455  0.4071
 5779SOL     OW22847   2.902   3.982   0.605 -0.5983 -0.1651  0.1576
 5779SOL    HW222848   2.877   3.895   0.575 -2.9683  0.6538 -0.4546
 5779SOL    HW322849   2.936   4.026   0.528 -0.7385 -0.0969  0.1341
 5779SOL    MW422850   2.903   3.977   0.591  0.3816  0.8709 -0.2602
 5780SOL     OW22851   4.331   4.856   5.907  0.1365  0.2551 -0.3369
 5780SOL    HW222852   4.262   4.832   5.846 -0.4465 -1.1856  0.8407
 5780SOL    HW322853   4.369   4.772   5.935  0.6690  0.9028  0.9600
 5780SOL    MW422854   4.327   4.842   5.902  0.9307  0.6396 -0.4268
 5781SOL     OW22855   0.413   3.656   1.828 -0.5010  0.8373 -0.4794
 5781SOL    HW222856   0.485   3.681   1.886  0.2410  1.3283 -1.5767
 5781SOL    HW322857   0.410   3.726   1.762 -1.7817  0.6603 -0.6303
 5781SOL    MW422858   0.422   3.668   1.827  0.3213 -0.2188  0.7113
 5782SOL     OW22859   6.230   0.144   2.458 -0.1930  0.2280  0.1284
 5782SOL    HW222860   6.257   0.210   2.395 -2.9513 -0.8668 -2.4120
 5782SOL    HW322861   6.280   0.066   2.436 -1.5375 -0.3120 -1.1931
 5782SOL    MW422862   6.240   0.142   2.447 -0.4100  0.0107  0.5896
 5783SOL     OW22863   4.370   2.689   0.676  0.0745  0.2279  0.0943
 5783SOL    HW222864   4.442   2.690   0.738  0.4144  0.3761 -0.2981
 5783SOL    HW322865   4.291   2.694   0.730  0.3508 -0.0919  0.5334
 5783SOL    MW422866   4.369   2.689   0.691 -0.0472  0.3021 -0.8884
 5784SOL     OW22867   3.261   0.952   1.088 -0.2457  0.0422 -0.1055
 5784SOL    HW222868   3.203   0.923   1.158  0.1091  0.0925  0.2135
 5784SOL    HW322869   3.287   1.040   1.114  1.1781 -0.5357  0.5464
 5784SOL    MW422870   3.257   0.960   1.101 -0.3371  0.4262  0.0808
 5785SOL     OW22871   3.927   6.203   3.426  0.3653  0.2853  0.4059
 5785SOL    HW222872   3.845   6.199   3.474  1.0771 -1.2935  1.5954
 5785SOL    HW322873   3.975   6.276   3.465  0.0334  0.4158  0.5703
 5785SOL    MW422874   3.923   6.212   3.437  0.1516 -0.6150 -0.2555
 5786SOL     OW22875   0.600   0.561   6.265 -0.6292  0.7698 -0.1167
 5786SOL    HW222876   0.629   0.594   6.180 -0.5324  0.5582 -0.1678
 5786SOL    HW322877   0.597   0.466   6.254 -0.2588  0.7147  0.2230
 5786SOL    MW422878   0.604   0.553   6.253 -0.2587  0.2822  0.2710
 5787SOL     OW22879   4.975   2.491   2.895  0.5082  0.7441  0.1345
 5787SOL    HW222880   5.031   2.425   2.853  0.1416 -0.2350  1.1283
 5787SOL    HW322881   4.894   2.490   2.845  1.0586  1.5436 -0.7834
 5787SOL    MW422882   4.972   2.482   2.883 -0.0620  0.1283  0.3184
 5788SOL     OW22883   1.738   2.277   1.236 -0.0763 -0.0698 -0.0840
 5788SOL    HW222884   1.679   2.352   1.225 -0.1910  0.1446  1.6010
 5788SOL    HW322885   1.803   2.308   1.300  0.3103 -1.1726  0.0680
 5788SOL    MW422886   1.739   2.291   1.243 -0.2973  0.0034 -0.2899
 5789SOL     OW22887   2.771   2.310   6.173 -0.2928  0.2538  0.0107
 5789SOL    HW222888   2.782   2.405   6.186  0.4761  0.1668  0.0211
 5789SOL    HW322889   2.857   2.273   6.191  0.2002 -0.1585 -2.7362
 5789SOL    MW422890   2.784   2.318   6.177  0.1016  0.0074  0.5419
 5790SOL     OW22891   5.977   3.521   2.506 -0.0466  0.4080  0.3158
 5790SOL    HW222892   5.924   3.528   2.426  0.0374  1.3133  0.3346
 5790SOL    HW322893   6.061   3.560   2.483 -0.3080  1.4674  1.0989
 5790SOL    MW422894   5.981   3.527   2.492  0.0917 -0.1522 -0.1912
 5791SOL     OW22895   3.717   1.533   2.738  0.5896 -0.1000  0.2899
 5791SOL    HW222896   3.702   1.622   2.706  1.2453  0.1569  0.6908
 5791SOL    HW322897   3.753   1.545   2.826  0.1243 -0.7750  0.5853
 5791SOL    MW422898   3.720   1.546   2.746  0.0981  0.3683  0.1694
 5792SOL     OW22899   0.088   1.780   2.175 -0.5333  0.3233 -0.0553
 5792SOL    HW222900   0.165   1.723   2.179 -0.1110  0.9389  3.6541
 5792SOL    HW322901   0.124   1.868   2.161 -0.6040  0.5128  0.9215
 5792SOL    MW422902   0.103   1.784   2.174  0.1282  0.2741  0.5763
 5793SOL     OW22903   4.916   4.254   6.064 -0.3842  0.0933 -0.1553
 5793SOL    HW222904   4.945   4.303   6.141  2.4788 -0.6137 -0.6934
 5793SOL    HW322905   4.946   4.306   5.990 -1.3607 -0.2348 -0.8024
 5793SOL    MW422906   4.924   4.267   6.065  0.5472 -0.1941  0.5328
 5794SOL     OW22907   4.016   2.461   0.968  0.5656 -0.1383  0.0368
 5794SOL    HW222908   3.966   2.542   0.970 -0.8314 -0.9591 -0.3085
 5794SOL    HW322909   4.023   2.434   1.060 -0.8085 -0.7062 -0.0138
 5794SOL    MW422910   4.010   2.468   0.980  0.2900 -0.5269  0.3197
 5795SOL     OW22911   5.102   4.112   0.614 -0.1786  0.2498 -0.4728
 5795SOL    HW222912   5.009   4.095   0.604  0.0014  0.1955 -2.4901
 5795SOL    HW322913   5.120   4.188   0.559  1.0930 -0.2203 -0.7619
 5795SOL    MW422914   5.092   4.120   0.606 -0.6413  0.4362  0.3136
 5796SOL     OW22915   1.829   1.349   2.985  0.4608  0.0095  0.3181
 5796SOL    HW222916   1.922   1.363   2.966  0.4628 -0.5671 -0.1314
 5796SOL    HW322917   1.824   1.342   3.080  0.6077  1.8974  0.5151
 5796SOL    MW422918   1.841   1.350   2.995 -0.9666 -0.2688  0.2368
 5797SOL     OW22919   0.136   5.580   5.019  0.5001 -0.4634  0.0941
 5797SOL    HW222920   0.195   5.600   4.947  0.4473 -1.0790 -0.1192
 5797SOL    HW322921   0.054   5.623   4.995  0.5989 -0.3412 -0.0261
 5797SOL    MW422922   0.133   5.589   5.006 -0.0126 -0.4370  0.3915
 5798SOL     OW22923   0.835   4.979   1.030 -0.5321  0.8135  0.2486
 5798SOL    HW222924   0.763   5.019   0.981 -0.3477  0.9225  0.0638
 5798SOL    HW322925   0.879   4.922   0.966  0.1892  1.5579  0.0624
 5798SOL    MW422926   0.831   4.977   1.015  0.2886 -0.1480  0.5002
 5799SOL     OW22927   3.008   5.460   2.449 -0.0059 -0.4080 -0.0872
 5799SOL    HW222928   3.062   5.538   2.437  0.2967 -0.6876 -0.5474
 5799SOL    HW322929   2.918   5.495   2.454  0.1632  0.0052  0.1370
 5799SOL    MW422930   3.003   5.475   2.448 -0.5439  0.7340 -0.3215
 5800SOL     OW22931   3.275   2.138   3.858  0.1292 -0.0493 -0.3913
 5800SOL    HW222932   3.323   2.059   3.834 -0.6740 -0.9834  0.9583
 5800SOL    HW322933   3.315   2.167   3.939 -1.1322 -0.4973  0.4300
 5800SOL    MW422934   3.286   2.131   3.865  0.4612 -0.3144 -0.3084
 5801SOL     OW22935   4.262   3.742   4.339 -0.4439 -0.2888 -0.2740
 5801SOL    HW222936   4.324   3.680   4.301  0.2863 -0.1855  0.7100
 5801SOL    HW322937   4.213   3.776   4.264 -0.2656 -1.4008 -0.9165
 5801SOL    MW422938   4.264   3.738   4.324 -0.6396 -0.1002 -0.2623
 5802SOL     OW22939   4.328   1.184   4.970  0.1819 -0.1636  0.4487
 5802SOL    HW222940   4.263   1.253   4.959  0.2027 -0.3578 -1.1814
 5802SOL    HW322941   4.316   1.154   5.060 -0.2717  1.4952  0.9787
 5802SOL    MW422942   4.317   1.189   4.980 -0.2021 -0.1432 -0.0258
 5803SOL     OW22943   5.358   1.702   6.149  0.2050  0.4383 -0.2340
 5803SOL    HW222944   5.273   1.693   6.106  0.5486 -0.3786 -0.7675
 5803SOL    HW322945   5.420   1.661   6.088  0.4972 -2.2198  1.6665
 5803SOL    MW422946   5.355   1.695   6.135 -0.2949 -0.4202 -0.4339
 5804SOL     OW22947   0.956   5.965   4.885  0.1682  0.1591  0.5095
 5804SOL    HW222948   0.900   5.900   4.926  0.0481  0.1318  0.3039
 5804SOL    HW322949   1.029   5.915   4.850  0.0062  0.1145  0.2292
 5804SOL    MW422950   0.958   5.950   4.886  0.6284  0.2548 -0.0048
 5805SOL     OW22951   5.853   3.817   0.844  0.1215  0.1898 -0.3584
 5805SOL    HW222952   5.780   3.759   0.865  0.0162  0.6704  0.6959
 5805SOL    HW322953   5.837   3.895   0.897  3.7787 -1.4030  3.7963
 5805SOL    MW422954   5.841   3.820   0.854 -0.2894 -0.0466  0.3512
 5806SOL     OW22955   4.975   5.275   2.741 -0.4549  0.2165 -0.1505
 5806SOL    HW222956   4.987   5.360   2.784 -3.2408  0.7487 -0.2062
 5806SOL    HW322957   5.063   5.242   2.726  0.6804  1.7323  2.5705
 5806SOL    MW422958   4.988   5.282   2.745  0.2423 -0.1774  0.0366
 5807SOL     OW22959   5.382   3.612   5.224  0.4912  0.0546  0.3826
 5807SOL    HW222960   5.463   3.586   5.267  1.1068  1.8795  0.4218
 5807SOL    HW322961   5.312   3.579   5.281  1.2436  0.2194  1.4206
 5807SOL    MW422962   5.383   3.604   5.237 -0.3284  0.4059 -0.2461
 5808SOL     OW22963   4.680   3.350   0.741 -0.3932 -0.3233  0.0294
 5808SOL    HW222964   4.723   3.422   0.695  1.6917 -0.4922  1.5534
 5808SOL    HW322965   4.634   3.301   0.672  0.1713  1.0737 -1.3924
 5808SOL    MW422966   4.680   3.353   0.726  0.2309 -0.0951 -0.6095
 5809SOL     OW22967   4.330   5.752   3.185 -0.2075 -0.3859 -0.4099
 5809SOL    HW222968   4.342   5.731   3.278 -0.3424 -1.5130 -0.6416
 5809SOL    HW322969   4.419   5.762   3.151 -0.1392 -0.6415 -0.3086
 5809SOL    MW422970   4.344   5.751   3.193  0.1917 -0.2201 -0.5846
 5810SOL     OW22971   1.650   2.793   1.522 -0.3933 -0.0960 -0.1831
 5810SOL    HW222972   1.725   2.736   1.538 -0.8726 -0.3274  1.4770
 5810SOL    HW322973   1.678   2.879   1.554  0.2779  0.6363 -2.5475
 5810SOL    MW422974   1.664   2.797   1.528  0.0842  0.3703  0.2638
 5811SOL     OW22975   2.875   4.920   4.488  0.4884 -0.2602 -0.0788
 5811SOL    HW222976   2.951   4.862   4.493  0.1266 -0.6461  1.3915
 5811SOL    HW322977   2.851   4.919   4.396  1.3612 -1.3170 -0.3227
 5811SOL    MW422978   2.882   4.912   4.477  0.1633  0.4386 -0.1065
 5812SOL     OW22979   5.403   5.913   1.297  0.1957  0.4559 -0.5860
 5812SOL    HW222980   5.318   5.897   1.337  0.2891 -0.2371 -0.6460
 5812SOL    HW322981   5.402   6.006   1.272  0.4259  1.1447  1.7234
 5812SOL    MW422982   5.392   5.923   1.299  0.2847  0.0178 -0.3984
 5813SOL     OW22983   3.276   1.874   0.766  0.0594  0.0937 -0.3983
 5813SOL    HW222984   3.208   1.941   0.760 -0.2772 -0.2881 -0.9390
 5813SOL    HW322985   3.248   1.818   0.838  0.1577  0.3251 -0.1779
 5813SOL    MW422986   3.263   1.876   0.775  0.3634  0.4011 -0.0391
 5814SOL     OW22987   2.052   5.825   2.452 -0.1314 -0.1826 -0.0905
 5814SOL    HW222988   2.114   5.888   2.417  0.1279  0.3232  1.2599
 5814SOL    HW322989   1.979   5.826   2.389  0.1176  1.0364 -0.3732
 5814SOL    MW422990   2.050   5.833   2.439  0.4158 -0.5139  0.2277
 5815SOL     OW22991   5.761   1.188   1.561 -0.3535 -0.1957 -0.0383
 5815SOL    HW222992   5.798   1.102   1.538 -1.4033 -0.0941 -2.4094
 5815SOL    HW322993   5.836   1.239   1.591  0.1274 -2.2411  2.6131
 5815SOL    MW422994   5.776   1.183   1.562  0.6133 -0.2685  0.0504
 5816SOL     OW22995   1.822   2.515   2.950  0.2530 -0.1771 -0.1516
 5816SOL    HW222996   1.731   2.503   2.924 -0.0084 -0.5090  0.8872
 5816SOL    HW322997   1.873   2.489   2.873 -0.5124 -0.3679 -0.5992
 5816SOL    MW422998   1.817   2.510   2.936  0.0861 -0.4336  0.2486
 5817SOL     OW22999   3.630   1.638   4.962 -0.1431  0.3666  0.1987
 5817SOL    HW223000   3.647   1.726   4.996 -1.1670  0.7266 -0.1728
 5817SOL    HW323001   3.696   1.583   5.004 -0.5392  1.0193  1.7567
 5817SOL    MW423002   3.641   1.642   4.972 -0.3173 -0.4638 -0.2816
 5818SOL     OW23003   4.816   5.430   3.578 -0.4024  0.1054 -0.4776
 5818SOL    HW223004   4.756   5.454   3.507  0.3808 -0.1652 -1.2625
 5818SOL    HW323005   4.865   5.511   3.595 -0.6653  0.2002 -0.1609
 5818SOL    MW423006   4.815   5.444   3.571  0.5025 -0.6345  0.4447
 5819SOL     OW23007   5.984   1.211   2.060 -0.3101 -0.1826  0.0171
 5819SOL    HW223008   6.048   1.249   2.000  0.4119 -1.3109  0.0571
 5819SOL    HW323009   5.935   1.149   2.007  0.4432 -1.3149  0.5923
 5819SOL    MW423010   5.986   1.208   2.045 -0.0935  0.6806 -0.1004
 5820SOL     OW23011   3.476   2.478   5.389 -0.0931 -0.2144  0.4926
 5820SOL    HW223012   3.481   2.541   5.317 -2.6319  1.4668  1.6137
 5820SOL    HW323013   3.562   2.484   5.432  1.0850 -0.4726 -1.6952
 5820SOL    MW423014   3.488   2.487   5.385 -0.3121  0.3090 -0.3335
 5821SOL     OW23015   3.379   5.956   3.997 -0.5950  0.3135  0.0879
 5821SOL    HW223016   3.405   6.047   4.014 -0.1226  0.5017 -1.4767
 5821SOL    HW323017   3.419   5.906   4.069 -2.4549  1.5165  2.0932
 5821SOL    MW423018   3.388   5.962   4.009 -0.0440  0.5525 -0.0725
 5822SOL     OW23019   4.467   5.181   1.208  0.1147  0.6532 -0.2652
 5822SOL    HW223020   4.389   5.219   1.166  1.0992  2.0096 -0.9276
 5822SOL    HW323021   4.468   5.091   1.178 -1.0750  0.6757 -0.4362
 5822SOL    MW423022   4.457   5.174   1.198  0.3343  0.3185 -0.0734
 5823SOL     OW23023   3.062   4.365   0.278 -0.2403  0.2896 -0.4152
 5823SOL    HW223024   3.046   4.274   0.302 -0.1076  0.2793 -0.3635
 5823SOL    HW323025   2.987   4.413   0.312 -1.2880 -0.0727 -2.1208
 5823SOL    MW423026   3.050   4.360   0.285  0.0732  0.3697 -0.5196
 5824SOL     OW23027   0.851   3.435   5.802  0.1624  0.2146 -0.4799
 5824SOL    HW223028   0.816   3.419   5.714  0.7407 -1.0105 -0.5027
 5824SOL    HW323029   0.813   3.519   5.827 -0.4707  0.3135 -1.6679
 5824SOL    MW423030   0.842   3.444   5.793  0.0694  1.0744 -0.0171
 5825SOL     OW23031   2.993   4.965   1.140 -0.3149  0.2278 -0.0218
 5825SOL    HW223032   2.989   4.887   1.086  0.2698  2.3228 -3.3865
 5825SOL    HW323033   3.078   4.959   1.184 -0.3383 -1.0591 -0.1069
 5825SOL    MW423034   3.004   4.954   1.139  0.3227 -0.2904 -0.5310
 5826SOL     OW23035   1.781   1.569   2.824 -0.0837  0.0781  0.0661
 5826SOL    HW223036   1.809   1.636   2.887  0.3013  0.4861 -0.5360
 5826SOL    HW323037   1.787   1.487   2.873  2.8311  0.0374 -0.2298
 5826SOL    MW423038   1.785   1.567   2.839 -0.4086  0.1799  0.6423
 5827SOL     OW23039   2.972   4.591   3.876 -0.3853  0.8185  0.0481
 5827SOL    HW223040   2.994   4.684   3.869 -1.1130  1.1177  1.4708
 5827SOL    HW323041   3.033   4.557   3.941  0.5042  0.0652 -1.1439
 5827SOL    MW423042   2.983   4.599   3.883  0.3021 -0.1800  0.6891
 5828SOL     OW23043   6.124   0.864   0.605 -0.5187 -0.0066  0.3671
 5828SOL    HW223044   6.040   0.851   0.562 -0.7090 -0.2803  0.8143
 5828SOL    HW323045   6.179   0.905   0.538 -1.0689  0.3722  0.1401
 5828SOL    MW423046   6.120   0.867   0.590 -0.0147  0.2961  0.1818
 5829SOL     OW23047   2.408   1.028   4.636 -0.2579 -0.7523  0.2788
 5829SOL    HW223048   2.341   1.062   4.696  1.9395  1.9887  1.4386
 5829SOL    HW323049   2.390   1.072   4.553  0.3834  0.4106  0.7403
 5829SOL    MW423050   2.396   1.038   4.633  0.4685  0.1882 -0.2885
 5830SOL     OW23051   2.491   2.123   1.923 -0.2301 -0.3758  0.4481
 5830SOL    HW223052   2.477   2.077   1.840 -0.3585 -1.0692  0.8463
 5830SOL    HW323053   2.420   2.187   1.928 -0.7315 -0.9215  0.4196
 5830SOL    MW423054   2.480   2.125   1.913 -0.1996  0.7158  0.4246
 5831SOL     OW23055   6.186   5.200   1.987 -0.1770  0.6548 -0.2950
 5831SOL    HW223056   6.199   5.114   1.946 -1.2090  0.0150  0.6495
 5831SOL    HW323057   6.091   5.213   1.985  0.0827  2.9991 -2.7907
 5831SOL    MW423058   6.175   5.190   1.981 -0.0290 -0.3111 -0.1872
 5832SOL     OW23059   6.397   3.078   6.262  0.1167 -0.1537 -0.1286
 5832SOL    HW223060   6.412   3.112   6.174  0.9622  1.4366  0.5994
 5832SOL    HW323061   6.388   3.155   6.317  0.0596 -1.1159  1.2658
 5832SOL    MW423062   6.398   3.092   6.257 -0.0163  0.0712  0.1532
 5833SOL     OW23063   0.623   4.039   5.168 -0.0657 -0.2721 -0.3618
 5833SOL    HW223064   0.534   4.014   5.144 -0.9404  1.5773  0.7485
 5833SOL    HW323065   0.641   3.992   5.249 -0.7949  0.7771  0.4371
 5833SOL    MW423066   0.614   4.030   5.175  0.1330  0.0376 -0.4039
 5834SOL     OW23067   3.112   2.434   5.495  0.0468 -0.4774 -0.5037
 5834SOL    HW223068   3.140   2.502   5.434 -0.3087 -0.2651 -0.4315
 5834SOL    HW323069   3.022   2.458   5.518  0.3997 -0.1835  0.6198
 5834SOL    MW423070   3.103   2.446   5.490  0.1039 -0.2911  0.0555
 5835SOL     OW23071   3.123   2.227   0.944  0.2813 -0.4992  0.1386
 5835SOL    HW223072   3.034   2.238   0.979  1.2025  0.8398  2.1764
 5835SOL    HW323073   3.143   2.311   0.902 -0.0835 -1.4526 -2.1122
 5835SOL    MW423074   3.114   2.239   0.943  0.8278  0.6927  0.2607
 5836SOL     OW23075   2.651   0.990   6.385 -0.6307  0.1780  0.4377
 5836SOL    HW223076   2.577   0.954   6.434  0.0165 -1.7906  0.0673
 5836SOL    HW323077   2.638   1.085   6.388 -3.1773 -0.0928  0.3491
 5836SOL    MW423078   2.639   0.998   6.392 -0.2607 -0.7511  0.2292
 5837SOL     OW23079   1.332   6.167   6.072  0.2077 -0.1524  0.3555
 5837SOL    HW223080   1.300   6.126   5.992  2.0821  0.0477 -0.5603
 5837SOL    HW323081   1.369   6.250   6.044  0.7906 -0.0224  1.4406
 5837SOL    MW423082   1.333   6.172   6.058  0.4934 -0.5201 -0.5273
 5838SOL     OW23083   4.916   3.777   0.173 -0.0512 -0.3072 -0.2234
 5838SOL    HW223084   4.945   3.687   0.161 -1.1694 -0.5887 -0.8780
 5838SOL    HW323085   4.995   3.829   0.160  0.5819 -1.1735  0.0611
 5838SOL    MW423086   4.930   3.772   0.170 -0.3981 -0.8713  0.1937
 5839SOL     OW23087   5.545   4.799   4.636  0.2010 -0.4961  0.0020
 5839SOL    HW223088   5.556   4.888   4.668  1.0678  0.0834 -1.8061
 5839SOL    HW323089   5.567   4.803   4.543  0.8160 -2.7064 -0.0146
 5839SOL    MW423090   5.549   4.811   4.628 -0.1319 -0.2378  0.4276
 5840SOL     OW23091   1.493   0.959   2.525  0.8814  0.2163  0.3592
 5840SOL    HW223092   1.421   0.934   2.584  0.0956 -0.0228 -0.6679
 5840SOL    HW323093   1.459   0.942   2.437  2.0401  0.5390 -0.1717
 5840SOL    MW423094   1.479   0.953   2.521  0.0614 -1.1465  0.4012
 5841SOL     OW23095   2.685   4.354   0.122 -0.0514 -0.7299  0.2632
 5841SOL    HW223096   2.610   4.315   0.168 -0.2317 -0.7948 -0.0802
 5841SOL    HW323097   2.646   4.418   0.062  0.1965 -0.4993  0.3479
 5841SOL    MW423098   2.670   4.357   0.120  0.3586 -0.4630 -0.0721
 5842SOL     OW23099   5.227   0.380   4.561 -0.3747 -0.0389  0.1876
 5842SOL    HW223100   5.140   0.343   4.545 -0.0465 -0.8229  0.1999
 5842SOL    HW323101   5.269   0.318   4.620 -0.2221  0.9306  1.1323
 5842SOL    MW423102   5.221   0.367   4.567  0.2495 -0.2780  0.3118
 5843SOL     OW23103   4.404   0.680   0.118  0.4168  0.5530  0.0124
 5843SOL    HW223104   4.488   0.638   0.135  0.8777  0.7094 -1.6707
 5843SOL    HW323105   4.403   0.756   0.176  0.7544 -0.2792  1.1428
 5843SOL    MW423106   4.415   0.684   0.128 -0.3399  0.2987  0.2902
 5844SOL     OW23107   1.886   5.684   3.573  0.5648  0.0058  0.3181
 5844SOL    HW223108   1.819   5.709   3.509  1.5453 -0.9062 -1.1301
 5844SOL    HW323109   1.929   5.767   3.595 -2.0794  0.9262  2.6639
 5844SOL    MW423110   1.883   5.698   3.568 -0.2733 -0.1015  0.6452
 5845SOL     OW23111   1.583   3.673   2.182 -0.2413 -0.0653  0.7397
 5845SOL    HW223112   1.556   3.753   2.137  1.4561  0.2903  0.2885
 5845SOL    HW323113   1.552   3.602   2.126 -1.9867  0.2184  1.2727
 5845SOL    MW423114   1.575   3.674   2.169  0.3148 -0.1545  0.1285
 5846SOL     OW23115   2.449   1.590   5.843 -0.1348  0.7271 -0.6475
 5846SOL    HW223116   2.523   1.645   5.870  0.2693 -0.3114  0.4121
 5846SOL    HW323117   2.403   1.570   5.924 -1.2891  0.9236 -1.2358
 5846SOL    MW423118   2.453   1.595   5.857  0.5669 -0.0277  0.0612
 5847SOL     OW23119   5.872   3.167   5.388 -0.2822  0.0932 -0.3159
 5847SOL    HW223120   5.967   3.157   5.377 -0.5279 -0.3010 -2.7567
 5847SOL    HW323121   5.834   3.106   5.325 -2.1940 -0.0629  0.9065
 5847SOL    MW423122   5.880   3.158   5.378 -1.0209  0.5504  0.0326
 5848SOL     OW23123   6.223   4.426   1.460 -0.2529  0.1806  0.0299
 5848SOL    HW223124   6.146   4.412   1.404  0.5799  1.7130 -1.6070
 5848SOL    HW323125   6.186   4.460   1.542 -1.3464  0.5340 -0.5817
 5848SOL    MW423126   6.208   4.429   1.463 -0.1703 -0.1692 -0.1146
 5849SOL     OW23127   3.664   4.463   5.230  0.0128  0.0273 -0.2467
 5849SOL    HW223128   3.706   4.542   5.263  0.5466 -0.0450 -0.7329
 5849SOL    HW323129   3.572   4.488   5.215  0.6674  1.3121 -2.7476
 5849SOL    MW423130   3.657   4.477   5.232 -0.0120  0.1569  0.1613
 5850SOL     OW23131   3.866   1.974   2.300  0.1437 -0.2730 -0.4575
 5850SOL    HW223132   3.813   1.895   2.309 -0.9847  0.4762 -0.2604
 5850SOL    HW323133   3.895   1.974   2.209  2.1367 -2.1021  0.1147
 5850SOL    MW423134   3.862   1.964   2.289 -0.0072 -0.0204  0.7640
 5851SOL     OW23135   0.098   2.824   1.243 -0.0228  0.1057 -0.5474
 5851SOL    HW223136   0.101   2.771   1.322  0.8820 -0.5431 -1.0008
 5851SOL    HW323137   0.033   2.891   1.262 -0.5585 -0.6414  0.3653
 5851SOL    MW423138   0.089   2.826   1.256 -0.5831 -0.4712  0.1021
 5852SOL     OW23139   0.384   2.537   1.031  0.0006 -0.0186 -0.3441
 5852SOL    HW223140   0.437   2.612   1.059 -1.0787  0.6267  0.0500
 5852SOL    HW323141   0.299   2.575   1.008 -0.6493 -1.1521  0.1010
 5852SOL    MW423142   0.380   2.552   1.032  0.4091 -0.2979 -0.3441
 5853SOL     OW23143   2.999   5.440   1.150 -0.1285 -1.2342  0.4025
 5853SOL    HW223144   3.078   5.415   1.103  0.7161 -0.0955  1.1882
 5853SOL    HW323145   3.006   5.396   1.234  0.7951  0.6172  1.3422
 5853SOL    MW423146   3.010   5.431   1.155  0.0279 -0.3318 -0.5061
 5854SOL     OW23147   0.496   3.380   5.063  0.2244 -0.3122  0.0922
 5854SOL    HW223148   0.484   3.355   4.972 -0.1552  0.4813 -0.0869
 5854SOL    HW323149   0.421   3.340   5.108 -0.4276  0.5369 -0.2058
 5854SOL    MW423150   0.484   3.371   5.057 -0.0973  0.4116 -0.5109
 5855SOL     OW23151   3.844   5.351   1.564 -0.1364 -0.0990 -0.4791
 5855SOL    HW223152   3.768   5.339   1.621  0.8767  0.0953  0.9601
 5855SOL    HW323153   3.807   5.353   1.475 -1.8727  0.6741  0.2182
 5855SOL    MW423154   3.829   5.350   1.560  0.1494 -0.6473 -0.7362
 5856SOL     OW23155   5.355   1.310   2.916  0.2425 -0.0250  0.6017
 5856SOL    HW223156   5.300   1.369   2.866  0.3204 -0.3665  0.1105
 5856SOL    HW323157   5.440   1.312   2.871  0.8429  0.9999  1.7231
 5856SOL    MW423158   5.359   1.318   2.904  0.5317 -0.1728 -0.1025
 5857SOL     OW23159   3.528   5.724   1.469 -0.7490  0.5747 -0.0289
 5857SOL    HW223160   3.603   5.711   1.411 -0.7695  2.0200 -0.4322
 5857SOL    HW323161   3.455   5.739   1.410 -1.5470 -1.5554  0.3464
 5857SOL    MW423162   3.529   5.724   1.454  0.1307 -0.0288 -0.0373
 5858SOL     OW23163   4.406   3.281   0.384  0.2660  0.2551  0.1904
 5858SOL    HW223164   4.462   3.251   0.456 -0.9930 -1.0344  0.6810
 5858SOL    HW323165   4.319   3.290   0.423 -0.1023  1.1674 -0.8059
 5858SOL    MW423166   4.402   3.278   0.399  0.0927 -0.3560  0.8063
 5859SOL     OW23167   5.588   5.658   1.846 -0.1061  0.8827  0.3211
 5859SOL    HW223168   5.630   5.577   1.816 -0.6263  0.0759  1.6660
 5859SOL    HW323169   5.501   5.656   1.805 -0.0043  0.9229  0.1021
 5859SOL    MW423170   5.582   5.647   1.837 -0.7126  0.1969  0.4368
 5860SOL     OW23171   5.425   5.966   6.391  0.3425 -0.2428 -0.5801
 5860SOL    HW223172   5.394   5.895   6.335  1.6128 -0.5792 -0.8898
 5860SOL    HW323173   5.498   6.005   6.342  1.2017 -0.2703  0.6274
 5860SOL    MW423174   5.431   5.962   6.377  0.2912 -0.5672 -0.2846
 5861SOL     OW23175   0.815   3.940   4.972  0.4203  0.0742 -0.2523
 5861SOL    HW223176   0.876   3.883   4.926  0.8894  0.8667 -0.6367
 5861SOL    HW323177   0.865   3.974   5.046  0.1383 -0.0195 -0.0159
 5861SOL    MW423178   0.830   3.937   4.976 -0.2560 -0.1733 -0.1819
 5862SOL     OW23179   3.376   3.821   5.570 -0.1231 -0.3612  0.8441
 5862SOL    HW223180   3.329   3.833   5.653 -0.0671 -0.4871  0.8952
 5862SOL    HW323181   3.468   3.820   5.596 -0.0827  0.0600  0.7245
 5862SOL    MW423182   3.382   3.822   5.585  0.6190  0.2659 -0.6180
 5863SOL     OW23183   2.735   4.112   5.402 -0.4439  0.0095  0.4830
 5863SOL    HW223184   2.762   4.145   5.316  0.9388  1.7849  1.5389
 5863SOL    HW323185   2.792   4.036   5.417 -0.7929 -0.4036 -0.1934
 5863SOL    MW423186   2.746   4.106   5.392 -0.4851 -0.5691  0.0465
 5864SOL     OW23187   5.430   5.346   2.794 -0.2692  0.3269 -0.1765
 5864SOL    HW223188   5.414   5.337   2.888 -0.5844 -1.7128 -0.3799
 5864SOL    HW323189   5.519   5.312   2.781 -0.5463 -0.2234 -0.7033
 5864SOL    MW423190   5.439   5.340   2.805  0.0329 -0.3957 -0.0691
 5865SOL     OW23191   0.146   3.575   2.383  0.1321  0.0517  0.4045
 5865SOL    HW223192   0.162   3.482   2.396 -0.3774 -0.5252 -2.3770
 5865SOL    HW323193   0.060   3.578   2.340  0.5945  1.6999 -0.4859
 5865SOL    MW423194   0.136   3.563   2.379 -0.1356  0.0193 -0.5490
 5866SOL     OW23195   3.373   6.057   2.307 -0.4034 -0.7333 -0.2401
 5866SOL    HW223196   3.410   6.048   2.219  0.7348 -0.4652  0.1959
 5866SOL    HW323197   3.390   5.973   2.349  0.0689 -0.4798  0.0868
 5866SOL    MW423198   3.380   6.044   2.301  0.4310  0.3664 -0.5767
 5867SOL     OW23199   3.833   3.981   6.229 -0.3192  0.2053 -0.3939
 5867SOL    HW223200   3.812   3.951   6.140 -1.8681  2.9079 -1.0380
 5867SOL    HW323201   3.752   3.965   6.278  0.4649 -1.0829  0.5562
 5867SOL    MW423202   3.819   3.975   6.224  0.0234  0.2565  0.1892
 5868SOL     OW23203   0.338   3.964   1.296 -0.3844 -0.5228  0.3768
 5868SOL    HW223204   0.356   3.877   1.260 -0.7239 -0.2880 -0.3827
 5868SOL    HW323205   0.425   4.000   1.313 -0.1404 -0.1704 -1.3975
 5868SOL    MW423206   0.352   3.957   1.293 -0.3926  0.3911  0.3935
 5869SOL     OW23207   6.036   6.067   3.883 -0.3152  0.1808  0.4497
 5869SOL    HW223208   6.070   6.122   3.812  0.5855  0.0165  0.7327
 5869SOL    HW323209   5.947   6.046   3.857  0.2072 -0.3996 -0.9575
 5869SOL    MW423210   6.029   6.071   3.870  0.0582 -0.1840 -0.0571
 5870SOL     OW23211   2.338   4.874   2.524  0.6963  0.2662 -0.4454
 5870SOL    HW223212   2.396   4.805   2.555 -1.2790 -1.6654 -0.8180
 5870SOL    HW323213   2.278   4.890   2.598  0.1104  0.3992 -0.9378
 5870SOL    MW423214   2.337   4.867   2.538 -0.2292  0.3543  0.3902
 5871SOL     OW23215   5.224   3.961   0.803 -0.1970 -0.2622  0.5058
 5871SOL    HW223216   5.171   3.980   0.881 -1.7780 -0.6993 -0.4260
 5871SOL    HW323217   5.196   4.025   0.738  1.3584  0.3210  0.3620
 5871SOL    MW423218   5.213   3.972   0.805  0.4380  0.5209 -0.0399
 5872SOL     OW23219   4.563   4.048   3.352 -0.4216 -0.5531  0.1703
 5872SOL    HW223220   4.554   3.974   3.291  0.3716 -0.5144 -0.0125
 5872SOL    HW323221   4.494   4.035   3.417 -1.5566 -0.3758 -0.9583
 5872SOL    MW423222   4.553   4.036   3.352  0.0799 -0.0920 -0.5057
 5873SOL     OW23223   0.974   5.507   0.212 -0.2874  0.5009  0.5971
 5873SOL    HW223224   0.985   5.417   0.243  0.5276  1.0005  1.8000
 5873SOL    HW323225   0.879   5.518   0.205 -0.3949 -0.4370  0.4533
 5873SOL    MW423226   0.963   5.496   0.215 -0.1296  0.3508  0.0437
 5874SOL     OW23227   3.793   2.566   6.125  0.1147 -0.7833  0.4754
 5874SOL    HW223228   3.750   2.505   6.064 -1.1735 -1.6571  2.1370
 5874SOL    HW323229   3.812   2.643   6.073  0.6535 -2.1274 -1.4283
 5874SOL    MW423230   3.790   2.568   6.110  0.1473 -0.4315 -0.2007
 5875SOL     OW23231   0.139   1.662   0.424  0.0779 -0.3921  0.8536
 5875SOL    HW223232   0.227   1.639   0.452  0.3004 -0.3280  0.2381
 5875SOL    HW323233   0.100   1.579   0.397  1.1753 -0.0610 -2.1795
 5875SOL    MW423234   0.145   1.648   0.424  0.6781 -0.4148 -0.0254
 5876SOL     OW23235   3.180   3.033   4.240 -0.2781 -0.1224 -0.0409
 5876SOL    HW223236   3.212   3.123   4.240  1.7394 -0.7940  0.3009
 5876SOL    HW323237   3.188   3.005   4.148  1.3292 -0.6536  0.2270
 5876SOL    MW423238   3.185   3.041   4.228  0.7519  0.3839 -0.3332
 5877SOL     OW23239   1.079   3.008   6.235 -0.3193  0.1194 -0.4001
 5877SOL    HW223240   1.166   2.970   6.250 -0.0976 -0.0074 -1.8240
 5877SOL    HW323241   1.018   2.947   6.276  0.2687  0.5704  1.2454
 5877SOL    MW423242   1.083   2.995   6.242  0.5820  0.2399 -0.0174
 5878SOL     OW23243   4.506   5.653   0.201  0.0534 -0.0287 -0.1126
 5878SOL    HW223244   4.457   5.643   0.120  0.1642  2.6416 -0.5981
 5878SOL    HW323245   4.444   5.692   0.262 -0.5941 -3.6575  1.8047
 5878SOL    MW423246   4.492   5.657   0.198 -0.0117 -0.1335 -0.1398
 5879SOL     OW23247   1.977   3.830   2.635 -0.0958 -0.1582  0.0665
 5879SOL    HW223248   1.988   3.776   2.713  1.0334  0.3451  0.2669
 5879SOL    HW323249   1.908   3.892   2.658  0.7092  0.4430  0.9383
 5879SOL    MW423250   1.969   3.831   2.648  0.1370  0.4255 -0.0302
 5880SOL     OW23251   0.726   1.178   4.110  0.3267  0.0247  0.0391
 5880SOL    HW223252   0.774   1.161   4.191  1.3873  0.4757 -0.4665
 5880SOL    HW323253   0.673   1.255   4.129  2.8604  2.0835 -0.5150
 5880SOL    MW423254   0.726   1.186   4.123 -0.0264 -0.5916 -0.3631
 5881SOL     OW23255   4.424   3.310   2.645 -0.4805 -0.1212 -0.7001
 5881SOL    HW223256   4.448   3.230   2.692  0.6463 -0.5411 -1.9382
 5881SOL    HW323257   4.348   3.286   2.593  1.3707 -1.2412 -3.0941
 5881SOL    MW423258   4.417   3.297   2.645  0.1061 -0.5645 -0.0620
 5882SOL     OW23259   4.685   1.014   5.520  0.1696  0.1192  0.0641
 5882SOL    HW223260   4.605   0.999   5.469  0.7683 -1.5184 -0.4672
 5882SOL    HW323261   4.731   0.930   5.517  2.0306  1.0792  0.1555
 5882SOL    MW423262   4.681   1.001   5.513  0.3477 -0.6552 -0.2122
 5883SOL     OW23263   4.836   3.879   4.402  0.4651 -0.6592  0.4715
 5883SOL    HW223264   4.840   3.857   4.309 -0.0718 -1.5875  0.6605
 5883SOL    HW323265   4.896   3.817   4.444  0.5638 -0.3660  0.7724
 5883SOL    MW423266   4.845   3.868   4.396  0.4694  0.1728  0.0842
 5884SOL     OW23267   6.277   4.163   4.244 -0.2076  0.3756 -0.2853
 5884SOL    HW223268   6.232   4.093   4.290  0.0078  0.7910  0.5771
 5884SOL    HW323269   6.219   4.239   4.252  0.5810  0.8947  0.7732
 5884SOL    MW423270   6.264   4.164   4.251 -0.2943 -0.0637  0.6839
 5885SOL     OW23271   4.596   5.691   3.115 -0.0876  0.1178 -0.1464
 5885SOL    HW223272   4.629   5.781   3.112 -0.6079  0.3135 -0.2120
 5885SOL    HW323273   4.603   5.666   3.208  1.1871 -0.2158 -0.3164
 5885SOL    MW423274   4.601   5.699   3.127  0.2147  0.4255  0.0589
 5886SOL     OW23275   3.593   4.195   1.337 -0.1711 -0.0560 -0.1414
 5886SOL    HW223276   3.583   4.247   1.258 -3.7637 -1.2853 -0.7032
 5886SOL    HW323277   3.654   4.125   1.313 -0.6714 -0.0045 -1.6268
 5886SOL    MW423278   3.599   4.192   1.324  0.3932 -0.3891 -0.2622
 5887SOL     OW23279   1.588   2.844   3.778  0.1677  0.2878 -0.1853
 5887SOL    HW223280   1.555   2.852   3.868  1.3859  0.6532  0.2581
 5887SOL    HW323281   1.655   2.776   3.784  3.3087  3.1567  0.1873
 5887SOL    MW423282   1.593   2.836   3.791 -0.2468  0.0441  0.1513
 5888SOL     OW23283   4.048   4.936   1.808  0.0688 -0.1179 -0.3081
 5888SOL    HW223284   4.038   4.984   1.890 -0.3950  1.4825 -1.2398
 5888SOL    HW323285   4.137   4.956   1.779 -0.4394  1.0562 -1.1747
 5888SOL    MW423286   4.058   4.945   1.815 -0.2946  0.1355  0.6744
 5889SOL     OW23287   3.555   2.479   1.105 -0.1758  0.6617  0.5581
 5889SOL    HW223288   3.618   2.547   1.129  1.4936 -1.0576  1.3079
 5889SOL    HW323289   3.555   2.418   1.179  0.4697 -1.5834 -1.1485
 5889SOL    MW423290   3.563   2.480   1.118  0.4672 -0.1209 -0.1934
 5890SOL     OW23291   2.190   3.308   5.743  0.6047  0.1684 -0.4118
 5890SOL    HW223292   2.272   3.351   5.766  0.2872  0.6246 -0.1000
 5890SOL    HW323293   2.208   3.215   5.750  0.8627  0.2778  0.4788
 5890SOL    MW423294   2.203   3.302   5.747 -0.6845  0.6108 -0.3376
 5891SOL     OW23295   4.507   5.121   4.974 -0.3286 -0.3567  0.1687
 5891SOL    HW223296   4.424   5.168   4.975 -0.3941 -0.2429 -2.8528
 5891SOL    HW323297   4.573   5.189   4.960 -0.0601 -0.7398 -0.4967
 5891SOL    MW423298   4.505   5.136   4.972  0.0646  0.2538  0.3983
 5892SOL     OW23299   1.316   0.623   1.720  0.0007  0.0255 -0.2275
 5892SOL    HW223300   1.310   0.529   1.706  0.3717  0.1449 -1.3178
 5892SOL    HW323301   1.401   0.648   1.684 -0.0749  0.7672  0.0816
 5892SOL    MW423302   1.326   0.614   1.713 -0.0373  0.1804  0.0525
 5893SOL     OW23303   6.073   1.882   2.686 -0.0822 -0.4005  0.4694
 5893SOL    HW223304   6.017   1.806   2.701 -1.5853  0.7297  0.8036
 5893SOL    HW323305   6.051   1.943   2.756 -0.3031  1.1103 -0.8485
 5893SOL    MW423306   6.063   1.880   2.697  0.7292  0.1348 -0.0215
 5894SOL     OW23307   2.063   3.171   5.447 -0.3393  0.1527 -0.3002
 5894SOL    HW223308   2.096   3.100   5.502  0.5538  0.0405 -0.9682
 5894SOL    HW323309   1.972   3.182   5.475  0.0444 -0.0227  1.0580
 5894SOL    MW423310   2.055   3.163   5.458  0.0229  0.5442 -0.0138
 5895SOL     OW23311   6.028   1.983   1.386 -0.2191  0.3527 -0.2079
 5895SOL    HW223312   6.003   1.893   1.404  0.2051 -0.1706 -2.0694
 5895SOL    HW323313   6.077   2.010   1.464 -1.6315 -0.4756  1.0431
 5895SOL    MW423314   6.031   1.975   1.399 -0.0586 -0.0929 -0.2909
 5896SOL     OW23315   3.202   5.968   1.157  0.1563 -0.4823  0.0589
 5896SOL    HW223316   3.164   5.966   1.069 -0.2060  1.0679  0.1541
 5896SOL    HW323317   3.127   5.980   1.216  0.2149 -3.0182  0.7516
 5896SOL    MW423318   3.187   5.969   1.153  0.3657 -0.5905  0.0949
 5897SOL     OW23319   1.954   0.958   6.332 -0.4327  0.3036  0.0880
 5897SOL    HW223320   2.026   0.931   6.390 -0.2813  0.4971 -0.0105
 5897SOL    HW323321   1.904   0.877   6.317  0.1257  0.0340 -0.3591
 5897SOL    MW423322   1.957   0.944   6.338  0.0628  0.2664  0.3079
 5898SOL     OW23323   1.751   1.661   2.177 -0.4986  0.4288 -0.0058
 5898SOL    HW223324   1.824   1.721   2.164 -0.5000  0.5789  0.6776
 5898SOL    HW323325   1.786   1.589   2.229 -0.8715  0.5728  0.4523
 5898SOL    MW423326   1.765   1.659   2.182 -0.5022 -0.2025 -0.4986
 5899SOL     OW23327   5.893   1.028   2.396  0.0224 -0.0533 -0.4764
 5899SOL    HW223328   5.811   1.062   2.432  1.6871  0.0704  3.7047
 5899SOL    HW323329   5.929   1.102   2.347 -0.5472  1.2989  1.0316
 5899SOL    MW423330   5.887   1.042   2.394 -0.5015  0.2713 -0.1757
 5900SOL     OW23331   4.183   0.939   3.430  0.0372  0.4209 -0.1204
 5900SOL    HW223332   4.134   0.981   3.360  1.2564  0.0051 -1.2786
 5900SOL    HW323333   4.222   0.862   3.389  1.0784  0.3497  0.9226
 5900SOL    MW423334   4.182   0.934   3.416  0.3088 -0.1093  0.1965
 5901SOL     OW23335   4.256   6.094   2.784 -0.0968 -0.0948 -0.2032
 5901SOL    HW223336   4.202   6.016   2.801 -0.0499  0.3839  2.6013
 5901SOL    HW323337   4.194   6.167   2.784  0.2437  0.2084  0.6879
 5901SOL    MW423338   4.241   6.093   2.786 -0.8206  0.3551  0.1801
 5902SOL     OW23339   0.310   1.754   5.874 -0.3686 -0.0045 -0.1391
 5902SOL    HW223340   0.371   1.712   5.935 -2.0295 -0.6155  1.2064
 5902SOL    HW323341   0.310   1.697   5.797 -0.2712 -0.7640  0.4093
 5902SOL    MW423342   0.318   1.741   5.872 -0.6831 -0.6129  0.4003
 5903SOL     OW23343   2.566   4.820   4.616 -0.7183 -0.0796  0.6049
 5903SOL    HW223344   2.571   4.907   4.577 -3.2657 -0.0957  0.0553
 5903SOL    HW323345   2.601   4.761   4.549 -2.4346  0.1862 -0.5936
 5903SOL    MW423346   2.571   4.824   4.602 -0.4217  0.1062 -0.1925
 5904SOL     OW23347   2.557   5.884   5.794  0.7495  0.0368  0.1304
 5904SOL    HW223348   2.488   5.912   5.734 -0.0893 -1.0125  0.5858
 5904SOL    HW323349   2.542   5.936   5.874 -0.2547 -1.0177  0.6509
 5904SOL    MW423350   2.546   5.895   5.797 -0.1457 -0.3396 -0.0868
 5905SOL     OW23351   3.827   3.795   0.204 -0.1994 -0.2351  0.2360
 5905SOL    HW223352   3.854   3.883   0.229  1.2276 -0.2713 -1.0333
 5905SOL    HW323353   3.814   3.749   0.287  4.2626 -0.3587  1.0974
 5905SOL    MW423354   3.829   3.800   0.218  0.1104 -0.0892 -0.2846
 5906SOL     OW23355   2.922   4.081   3.607 -0.4588 -0.1613  0.1789
 5906SOL    HW223356   2.974   4.005   3.632 -1.3347 -0.8191  0.0403
 5906SOL    HW323357   2.981   4.156   3.621  0.0196 -0.7490  1.4354
 5906SOL    MW423358   2.937   4.081   3.612  0.1696  0.1987  0.6094
 5907SOL     OW23359   2.740   4.365   1.970  0.3074  0.1100 -0.1359
 5907SOL    HW223360   2.794   4.399   2.041  0.1131 -0.2015  0.1597
 5907SOL    HW323361   2.651   4.371   2.002 -0.3017  4.0548 -1.9412
 5907SOL    MW423362   2.736   4.370   1.983 -0.1121 -0.0628 -0.2487
 5908SOL     OW23363   2.245   4.622   3.753  0.0399  0.1920  0.0819
 5908SOL    HW223364   2.284   4.690   3.807 -1.1809  1.0370 -0.0591
 5908SOL    HW323365   2.173   4.588   3.805  1.7546 -2.3708  0.9502
 5908SOL    MW423366   2.240   4.627   3.767 -0.2413 -0.0316  0.1908
 5909SOL     OW23367   0.305   5.302   4.156 -0.4786 -0.4996 -1.1248
 5909SOL    HW223368   0.321   5.375   4.216 -0.4971 -0.0579 -1.6517
 5909SOL    HW323369   0.216   5.317   4.124  0.0410  0.0801 -2.3695
 5909SOL    MW423370   0.295   5.314   4.160 -0.0846 -0.0290 -0.7846
 5910SOL     OW23371   1.530   2.431   2.923  0.1460 -0.1482 -0.3849
 5910SOL    HW223372   1.458   2.406   2.864 -0.0450 -0.0569 -0.1927
 5910SOL    HW323373   1.561   2.348   2.960 -0.9186 -0.0604  0.7524
 5910SOL    MW423374   1.524   2.417   2.920 -0.5681 -0.0537  0.0340
 5911SOL     OW23375   2.703   6.038   5.142  0.2372  0.4020 -0.0612
 5911SOL    HW223376   2.729   5.978   5.073 -0.2004  0.0709  0.0553
 5911SOL    HW323377   2.757   6.013   5.217  0.8478  0.8881 -0.3387
 5911SOL    MW423378   2.713   6.027   5.143  0.0071 -0.0055  0.2701
 5912SOL     OW23379   4.542   3.135   0.593  0.4401 -0.0524 -0.6391
 5912SOL    HW223380   4.461   3.089   0.570 -0.2206  0.3796  0.6914
 5912SOL    HW323381   4.608   3.099   0.534  0.2147 -3.5664  0.9877
 5912SOL    MW423382   4.540   3.124   0.582  0.0699 -0.0230  0.4402
 5913SOL     OW23383   3.882   0.217   5.938 -0.7993  0.1362 -0.3429
 5913SOL    HW223384   3.807   0.272   5.916  0.8191  1.7756 -2.0747
 5913SOL    HW323385   3.944   0.276   5.981 -0.1574 -0.9899  0.3271
 5913SOL    MW423386   3.881   0.232   5.941  0.4213 -0.7182 -0.1875
 5914SOL     OW23387   3.244   2.504   6.147 -0.2064 -0.4062  0.0426
 5914SOL    HW223388   3.336   2.501   6.121  0.5249  3.1724  1.5569
 5914SOL    HW323389   3.243   2.465   6.235  0.0823  0.3366  0.3871
 5914SOL    MW423390   3.256   2.498   6.155 -0.2083  0.0510  0.3529
 5915SOL     OW23391   4.491   0.797   5.107  0.2372  0.5266 -0.8830
 5915SOL    HW223392   4.504   0.775   5.015  0.5339 -1.6082 -0.3978
 5915SOL    HW323393   4.460   0.715   5.147  3.5782  0.2448  1.5696
 5915SOL    MW423394   4.489   0.783   5.100  0.1249 -0.3139  0.1571
 5916SOL     OW23395   3.806   0.237   2.945  0.4709 -0.0505 -0.2716
 5916SOL    HW223396   3.846   0.191   2.872  0.1986 -0.0469 -0.4257
 5916SOL    HW323397   3.831   0.186   3.022  2.1303  0.8586 -0.1616
 5916SOL    MW423398   3.814   0.224   2.946 -0.1267 -0.0803 -0.4468
 5917SOL     OW23399   5.339   1.972   1.145 -0.0858  0.6668  0.1535
 5917SOL    HW223400   5.308   1.892   1.188 -0.5727 -0.4513 -2.1338
 5917SOL    HW323401   5.402   2.010   1.207  1.1253 -2.1615  0.7922
 5917SOL    MW423402   5.343   1.967   1.159 -0.0230 -0.0096 -0.3256
 5918SOL     OW23403   4.421   4.593   5.947  0.9300  0.2005 -0.2246
 5918SOL    HW223404   4.490   4.528   5.963  0.1426 -0.1684  1.9639
 5918SOL    HW323405   4.344   4.558   5.992  0.3098  2.3440  0.4549
 5918SOL    MW423406   4.420   4.579   5.955  0.0748  0.0981 -0.0627
 5919SOL     OW23407   2.119   1.367   1.065 -0.0281  0.5319 -0.1172
 5919SOL    HW223408   2.050   1.408   1.117 -1.6305 -2.0872  0.0108
 5919SOL    HW323409   2.195   1.424   1.076 -1.3507  2.0057  2.1076
 5919SOL    MW423410   2.120   1.380   1.073  0.3248 -0.6300  0.1397
 5920SOL     OW23411   4.427   2.776   4.965 -0.4899  0.6503 -0.2194
 5920SOL    HW223412   4.441   2.820   4.881 -1.2086  1.7680  0.2252
 5920SOL    HW323413   4.453   2.840   5.030  1.5945 -0.7490  0.4428
 5920SOL    MW423414   4.432   2.790   4.962 -0.2177  0.1529  0.3804
 5921SOL     OW23415   2.000   5.574   4.502  0.1458  0.2663 -0.0817
 5921SOL    HW223416   2.050   5.545   4.426  1.2727  2.0950 -0.0800
 5921SOL    HW323417   2.062   5.570   4.575 -0.0767  1.2852  0.1762
 5921SOL    MW423418   2.015   5.570   4.501  0.0272 -0.0787  0.1612
 5922SOL     OW23419   0.975   5.762   1.331 -0.3428  0.5757  0.2297
 5922SOL    HW223420   0.987   5.821   1.257  2.9742 -1.1478 -0.8238
 5922SOL    HW323421   1.031   5.798   1.400 -0.0031 -0.1544  0.3433
 5922SOL    MW423422   0.984   5.774   1.330  0.4511 -1.2253  0.0478
 5923SOL     OW23423   3.655   4.036   5.304  0.3458  0.2689  0.3453
 5923SOL    HW223424   3.650   3.977   5.228  0.4880  0.7774 -0.0687
 5923SOL    HW323425   3.565   4.040   5.337  0.2868  0.0240  0.2162
 5923SOL    MW423426   3.642   4.029   5.298 -0.3720  0.5986  0.4528
 5924SOL     OW23427   1.829   5.602   1.321 -0.2373  0.0098 -0.3255
 5924SOL    HW223428   1.891   5.674   1.310  0.0273 -0.1048  0.3733
 5924SOL    HW323429   1.828   5.585   1.415  1.3247 -2.3123 -0.6622
 5924SOL    MW423430   1.837   5.609   1.332 -0.2195 -0.0260  0.6150
 5925SOL     OW23431   3.730   4.130   1.787 -0.2748 -0.0299  0.3244
 5925SOL    HW223432   3.703   4.186   1.716 -0.9760 -0.4413  0.2603
 5925SOL    HW323433   3.782   4.186   1.845  0.4164  0.2699 -0.5714
 5925SOL    MW423434   3.734   4.145   1.786  0.4325  0.5073  0.4918
 5926SOL     OW23435   0.601   3.663   4.308  0.3432  0.1791  0.8609
 5926SOL    HW223436   0.538   3.667   4.380 -0.2346 -0.1638  0.3807
 5926SOL    HW323437   0.581   3.582   4.263  1.9261 -0.5499  1.4067
 5926SOL    MW423438   0.590   3.653   4.312 -0.5544  0.2886  0.4861
 5927SOL     OW23439   5.160   6.014  -0.000  0.2492  0.2447  0.5086
 5927SOL    HW223440   5.159   5.962  -0.081 -0.2334  0.9199  0.0769
 5927SOL    HW323441   5.252   6.013   0.027  0.3126 -0.5313  0.3171
 5927SOL    MW423442   5.172   6.007  -0.007  0.3116  0.2433 -0.4864
 5928SOL     OW23443   2.953   1.310   5.501  0.1354 -0.1371 -0.1253
 5928SOL    HW223444   2.880   1.363   5.535 -1.1441 -1.4844 -0.6282
 5928SOL    HW323445   2.985   1.262   5.577 -0.1789 -0.2919 -0.0891
 5928SOL    MW423446   2.947   1.311   5.516 -0.0567 -0.1053 -0.2578
 5929SOL     OW23447   0.428   1.000   3.287  0.2694 -0.2311 -0.5652
 5929SOL    HW223448   0.399   0.912   3.308 -0.7720 -0.1327 -1.4758
 5929SOL    HW323449   0.347   1.052   3.287  0.9631  0.9352  0.8798
 5929SOL    MW423450   0.413   0.996   3.290 -0.0456  0.0169  0.3561
 5930SOL     OW23451   4.121   0.341   3.293  0.2411 -0.5998  0.8290
 5930SOL    HW223452   4.167   0.322   3.375  0.0420 -1.0369  0.8432
 5930SOL    HW323453   4.095   0.433   3.302  0.6441 -0.5040  1.0461
 5930SOL    MW423454   4.123   0.350   3.305 -0.2271 -0.2200  0.4696
 5931SOL     OW23455   3.595   2.447   4.507 -0.4862  0.2951  0.5093
 5931SOL    HW223456   3.685   2.425   4.484 -0.6043  1.0026 -0.7599
 5931SOL    HW323457   3.592   2.543   4.503 -1.2199  0.2960  0.8414
 5931SOL    MW423458   3.607   2.457   4.503  0.0043 -0.3307 -0.0448
 5932SOL     OW23459   2.973   3.386   0.771 -0.4561 -0.6488 -0.6264
 5932SOL    HW223460   3.015   3.457   0.819 -0.0571  0.1116 -2.0249
 5932SOL    HW323461   2.924   3.337   0.837  1.5518 -0.7918  0.8623
 5932SOL    MW423462   2.972   3.388   0.786 -0.1396 -1.0613 -0.0944
 5933SOL     OW23463   1.763   0.814   1.745 -0.6776 -0.2547 -0.4206
 5933SOL    HW223464   1.815   0.845   1.670 -1.0120 -0.4147 -0.7233
 5933SOL    HW323465   1.674   0.842   1.724 -0.4832  1.5607  0.9006
 5933SOL    MW423466   1.758   0.822   1.732  0.4063  0.3599  0.3817
 5934SOL     OW23467   4.651   0.813   2.059  0.3513 -0.0247 -0.2208
 5934SOL    HW223468   4.714   0.764   2.005  0.5426  0.6060 -0.5836
 5934SOL    HW323469   4.705   0.872   2.112  0.1402 -0.3934  0.4118
 5934SOL    MW423470   4.667   0.814   2.059 -0.0830  0.5157  0.2952
 5935SOL     OW23471   0.854   5.968   6.324 -0.2329  0.2667 -0.3881
 5935SOL    HW223472   0.815   6.010   6.247 -1.2121  0.6368  0.2976
 5935SOL    HW323473   0.932   6.019   6.342  0.2011 -0.0343 -1.3337
 5935SOL    MW423474   0.859   5.980   6.316  0.4529  0.6158  0.0283
 5936SOL     OW23475   4.088   3.345   6.067  0.5433 -0.3483 -0.2701
 5936SOL    HW223476   4.174   3.385   6.085  0.5326  0.1383 -1.2177
 5936SOL    HW323477   4.029   3.420   6.055  0.0145 -0.6808  0.2523
 5936SOL    MW423478   4.092   3.360   6.068 -0.5422  0.0872  0.7484
 5937SOL     OW23479   2.363   0.958   6.136  0.1404 -0.6642 -0.3162
 5937SOL    HW223480   2.450   0.997   6.121  1.2121 -1.7784  2.3120
 5937SOL    HW323481   2.308   1.033   6.160  0.4908 -0.0113 -1.4617
 5937SOL    MW423482   2.367   0.973   6.137  0.1969 -0.0447  0.5223
 5938SOL     OW23483   3.382   5.183   3.821  0.4478  0.1440  0.6288
 5938SOL    HW223484   3.334   5.225   3.892 -0.3015 -1.2743  1.0097
 5938SOL    HW323485   3.372   5.242   3.746  1.3175  1.6906  1.6947
 5938SOL    MW423486   3.374   5.196   3.820  0.2947 -0.1597 -0.1935
 5939SOL     OW23487   5.718   0.377   0.569  0.6769  0.2086 -0.0834
 5939SOL    HW223488   5.750   0.415   0.651 -0.9353 -0.6404  0.9769
 5939SOL    HW323489   5.797   0.357   0.520  1.9175 -2.5613  2.7547
 5939SOL    MW423490   5.733   0.380   0.573  0.6696  0.0123 -0.1756
 5940SOL     OW23491   2.013   2.022   2.772  0.5330 -0.2405 -0.0905
 5940SOL    HW223492   2.044   1.935   2.749 -0.4170 -0.7506  0.4944
 5940SOL    HW323493   1.933   2.033   2.720 -1.3635 -1.1989  2.4053
 5940SOL    MW423494   2.006   2.012   2.762 -0.3529  0.9222  0.3629
 5941SOL     OW23495   1.024   6.292   3.688  0.3446  0.2026 -0.1500
 5941SOL    HW223496   1.102   6.284   3.743  0.0811 -1.0247  0.0876
 5941SOL    HW323497   0.966   6.221   3.717  1.2440 -2.2733 -3.6335
 5941SOL    MW423498   1.027   6.281   3.699 -0.0019 -0.3186 -0.4487
 5942SOL     OW23499   0.263   0.005   2.832 -0.0675 -0.5806 -0.1429
 5942SOL    HW223500   0.197   0.037   2.769  0.5373  2.4441  0.5994
 5942SOL    HW323501   0.327  -0.041   2.778 -0.2767  0.7519 -1.6154
 5942SOL    MW423502   0.263   0.003   2.816  0.9371  0.3162  0.0976
 5943SOL     OW23503   1.580   0.164   1.209  0.1322  0.8526 -0.1130
 5943SOL    HW223504   1.589   0.216   1.129  0.5877  0.9266 -0.0167
 5943SOL    HW323505   1.545   0.080   1.179 -1.3797  1.4729 -0.1778
 5943SOL    MW423506   1.577   0.160   1.194 -0.5725 -0.5221  0.1022
 5944SOL     OW23507   1.947   2.512   3.459  0.1587  0.3877  0.1947
 5944SOL    HW223508   1.915   2.556   3.380  1.0026 -1.2821 -1.1493
 5944SOL    HW323509   1.954   2.420   3.434  0.3378 -0.2062  2.2810
 5944SOL    MW423510   1.944   2.506   3.445 -0.3936 -0.1311 -0.0615
 5945SOL     OW23511   0.606   2.976   5.623  0.4893  0.6356 -0.8977
 5945SOL    HW223512   0.674   2.975   5.691  0.1240  1.0878 -0.5168
 5945SOL    HW323513   0.552   3.052   5.644  1.5193  1.9992 -2.8552
 5945SOL    MW423514   0.608   2.986   5.635 -0.2657 -0.3337 -0.5806
 5946SOL     OW23515   1.705   0.108   3.572  0.0402  0.0272  0.0040
 5946SOL    HW223516   1.727   0.091   3.664  0.5273 -1.4334 -0.3653
 5946SOL    HW323517   1.784   0.149   3.536 -0.5414  1.6432  0.4807
 5946SOL    MW423518   1.719   0.111   3.579  0.2100  0.0956 -0.1675
 5947SOL     OW23519   1.409   4.495   5.328  0.1578 -0.4206 -0.3638
 5947SOL    HW223520   1.398   4.480   5.234 -1.3195  0.1741 -0.3045
 5947SOL    HW323521   1.443   4.584   5.335  0.5325 -0.5641 -0.3401
 5947SOL    MW423522   1.412   4.504   5.317 -0.5555  0.2426 -0.5427
 5948SOL     OW23523   2.485   1.061   1.860 -0.1752  0.1052  1.0842
 5948SOL    HW223524   2.537   1.136   1.889  1.0273  0.0183 -0.6727
 5948SOL    HW323525   2.472   1.008   1.939  2.7799 -0.0777  1.5473
 5948SOL    MW423526   2.490   1.064   1.874 -0.2890  0.2358  0.4060
 5949SOL     OW23527   3.241   1.288   0.203 -0.0626  0.0493  0.2397
 5949SOL    HW223528   3.187   1.294   0.125  0.7794  0.7630 -0.3140
 5949SOL    HW323529   3.324   1.251   0.172 -0.7671 -2.7427  1.3737
 5949SOL    MW423530   3.245   1.284   0.189 -0.1567  0.6866  0.3837
 5950SOL     OW23531   0.421   4.610   1.041 -0.3278 -0.1010  0.4540
 5950SOL    HW223532   0.433   4.595   0.947  0.3422 -0.6033  0.6122
 5950SOL    HW323533   0.503   4.652   1.069 -0.9157  0.9546  0.6303
 5950SOL    MW423534   0.434   4.614   1.032  0.4113  0.3292  0.0091
 5951SOL     OW23535   5.137   4.773   3.643  0.3376 -0.6192  0.0865
 5951SOL    HW223536   5.227   4.765   3.611  0.3187 -0.2888 -0.0605
 5951SOL    HW323537   5.136   4.857   3.691 -0.2688  0.1440 -1.2045
 5951SOL    MW423538   5.149   4.783   3.645 -0.6697  0.3283 -0.7725
 5952SOL     OW23539   3.354   0.583   3.810 -0.2003 -0.2815  0.0640
 5952SOL    HW223540   3.410   0.658   3.789  1.0480 -1.6164 -1.6125
 5952SOL    HW323541   3.276   0.596   3.757 -2.1314  2.0897  3.1081
 5952SOL    MW423542   3.351   0.594   3.801  0.3433  0.2684  0.4113
 5953SOL     OW23543   5.599   0.041   4.445 -0.0744 -0.3806  0.3234
 5953SOL    HW223544   5.685   0.052   4.485  0.2452  0.4278 -0.5435
 5953SOL    HW323545   5.570   0.130   4.424 -1.3776 -0.5908  1.0960
 5953SOL    MW423546   5.606   0.054   4.448 -0.3698  0.5744  0.0389
 5954SOL     OW23547   1.193   4.423   4.069  0.8323 -0.3316  0.6742
 5954SOL    HW223548   1.225   4.496   4.016 -1.8938  0.0358 -0.6577
 5954SOL    HW323549   1.257   4.414   4.139  2.6487  1.5910 -0.6213
 5954SOL    MW423550   1.206   4.431   4.071 -0.1342  0.2711  0.1506
 5955SOL     OW23551   5.226   0.870   4.410  0.8056 -0.0577 -0.1456
 5955SOL    HW223552   5.293   0.802   4.421 -1.5225 -2.5485 -0.0790
 5955SOL    HW323553   5.241   0.904   4.322  1.7246 -1.0822 -0.4143
 5955SOL    MW423554   5.237   0.865   4.400  0.0623 -0.1710 -0.1316
 5956SOL     OW23555   3.214   1.676   4.843 -0.6273  0.6425 -0.3832
 5956SOL    HW223556   3.208   1.731   4.921  2.4021  1.4387 -0.5605
 5956SOL    HW323557   3.259   1.597   4.874  0.8898  1.1034 -1.3143
 5956SOL    MW423558   3.219   1.673   4.858  0.0457  0.1460  0.1814
 5957SOL     OW23559   0.177   3.308   6.393 -0.6972  0.1894 -0.3727
 5957SOL    HW223560   0.204   3.217   6.381  0.5305  0.2762  1.2109
 5957SOL    HW323561   0.091   3.303   6.434 -1.1092 -0.2237 -1.2786
 5957SOL    MW423562   0.170   3.296   6.397  0.3880  0.3285  0.5311
 5958SOL     OW23563   4.325   2.702   4.158 -0.2610  0.7455 -0.3845
 5958SOL    HW223564   4.410   2.709   4.202 -0.0836  0.0426 -0.6116
 5958SOL    HW323565   4.324   2.614   4.122 -1.2294  0.6261 -0.0919
 5958SOL    MW423566   4.336   2.692   4.159 -0.3502  0.5635  0.8076
 5959SOL     OW23567   1.630   6.290   5.905 -0.0401  0.4268 -0.7396
 5959SOL    HW223568   1.545   6.331   5.919  0.2542  1.2463 -1.2530
 5959SOL    HW323569   1.610   6.200   5.881 -0.7392  0.4782 -0.3675
 5959SOL    MW423570   1.616   6.284   5.903  0.7363  0.0886 -0.1495
 5960SOL     OW23571   0.809   6.087   4.699  0.1505 -0.7444 -0.9095
 5960SOL    HW223572   0.736   6.109   4.757 -0.8264 -0.5884 -2.1573
 5960SOL    HW323573   0.874   6.048   4.757 -0.4427  0.1574  0.4244
 5960SOL    MW423574   0.808   6.084   4.714  0.3210  0.3661  0.2012
 5961SOL     OW23575   3.804   4.198   2.788  0.0384  0.0827  0.2700
 5961SOL    HW223576   3.729   4.234   2.836  0.0223 -0.8813  1.0165
 5961SOL    HW323577   3.847   4.141   2.852 -0.4023 -1.8448 -1.0759
 5961SOL    MW423578   3.799   4.195   2.803 -0.2014  0.8212  0.1249
 5962SOL     OW23579   2.688   4.729   0.324 -0.2609 -0.3110  0.4520
 5962SOL    HW223580   2.753   4.795   0.346 -0.0062 -0.3787 -0.0816
 5962SOL    HW323581   2.734   4.646   0.330 -0.3841 -0.3837  0.4091
 5962SOL    MW423582   2.702   4.727   0.327 -0.2317  0.3542  0.3890
 5963SOL     OW23583   3.237   3.475   2.001 -0.3787  0.2655  0.4319
 5963SOL    HW223584   3.270   3.423   2.074  0.9462  0.7867  0.2351
 5963SOL    HW323585   3.226   3.412   1.929 -2.0099 -0.3081  1.1524
 5963SOL    MW423586   3.240   3.460   2.001  0.4703 -0.2077 -0.1039
 5964SOL     OW23587   1.646   0.190   6.102  0.6396  0.0825 -0.3807
 5964SOL    HW223588   1.557   0.158   6.118  0.6617  0.2192  0.0250
 5964SOL    HW323589   1.634   0.260   6.038  0.1290  1.8383  1.5192
 5964SOL    MW423590   1.633   0.195   6.096 -0.2879  0.3231  0.1924
 5965SOL     OW23591   0.999   0.044   3.905  0.1800  0.3005 -0.1978
 5965SOL    HW223592   1.006  -0.027   3.841  1.7561 -0.0279  0.2839
 5965SOL    HW323593   1.055   0.113   3.871  0.6507  0.3125  0.5770
 5965SOL    MW423594   1.007   0.044   3.892  0.1460 -0.1037  0.6378
 5966SOL     OW23595   2.593   4.042   1.570  0.1279 -0.1081 -0.1056
 5966SOL    HW223596   2.583   4.133   1.601 -0.7189 -0.7575  1.6799
 5966SOL    HW323597   2.667   4.008   1.619  0.3960 -0.4170 -0.7187
 5966SOL    MW423598   2.601   4.050   1.580  0.2040  0.0314  0.1373
 5967SOL     OW23599   0.751   1.701   0.981 -0.3441 -0.0352 -0.1735
 5967SOL    HW223600   0.670   1.706   0.930  0.8227  0.3971 -2.0922
 5967SOL    HW323601   0.764   1.789   1.015 -1.7106 -0.5679  1.9774
 5967SOL    MW423602   0.742   1.713   0.979  0.0075  0.0745  0.0789
 5968SOL     OW23603   2.647   2.947   4.910 -0.6717  0.0457  0.1513
 5968SOL    HW223604   2.675   2.871   4.860  0.1156 -0.5297  1.4244
 5968SOL    HW323605   2.551   2.941   4.912 -0.6609 -0.4010 -0.5226
 5968SOL    MW423606   2.638   2.936   4.904 -0.0396 -0.8325 -0.4802
 5969SOL     OW23607   6.306   2.229   4.612 -0.0951 -0.3642  0.4223
 5969SOL    HW223608   6.365   2.161   4.581  1.0442  1.6509 -2.1784
 5969SOL    HW323609   6.225   2.215   4.563 -0.3970 -0.7280  1.0150
 5969SOL    MW423610   6.303   2.218   4.602  0.0559  0.1227 -0.1343
 5970SOL     OW23611   2.569   0.134   2.698 -0.2577  0.0743 -0.0432
 5970SOL    HW223612   2.629   0.072   2.656  1.3418 -0.1925  2.4253
 5970SOL    HW323613   2.617   0.216   2.699  0.0495 -0.0861  1.7541
 5970SOL    MW423614   2.583   0.136   2.693 -0.1972 -0.0682  0.1183
 5971SOL     OW23615   0.478   0.338   4.399  0.4806  0.1967 -0.2578
 5971SOL    HW223616   0.564   0.332   4.356  0.1099 -0.8496 -0.8853
 5971SOL    HW323617   0.416   0.308   4.333 -0.1630 -0.9397  0.8376
 5971SOL    MW423618   0.481   0.333   4.384 -0.9330  0.1357  0.8363
 5972SOL     OW23619   1.708   2.644   4.113 -0.0780 -0.5343  0.3473
 5972SOL    HW223620   1.716   2.608   4.025 -0.1216 -1.6042  0.7682
 5972SOL    HW323621   1.716   2.569   4.171 -0.7036  0.0579  1.2404
 5972SOL    MW423622   1.710   2.629   4.109 -0.2448  0.3201  0.1661
 5973SOL     OW23623   3.088   1.842   1.226 -0.6369  0.2151  0.3856
 5973SOL    HW223624   3.004   1.797   1.219 -0.7500  0.1886  1.6878
 5973SOL    HW323625   3.130   1.826   1.141 -0.4961 -2.7082  0.8876
 5973SOL    MW423626   3.082   1.834   1.214 -0.3198  0.3916 -0.0644
 5974SOL     OW23627   5.774   1.075   4.678 -0.0075  0.2504 -0.3545
 5974SOL    HW223628   5.715   1.024   4.734 -1.2325  1.7210 -0.2457
 5974SOL    HW323629   5.773   1.163   4.716  2.5131  0.2574 -0.1868
 5974SOL    MW423630   5.766   1.080   4.690 -0.7926  0.0855  0.1874
 5975SOL     OW23631   2.612   5.034   3.353  0.1592  0.3362 -1.5689
 5975SOL    HW223632   2.618   5.111   3.296  3.2927  1.6318  0.2865
 5975SOL    HW323633   2.605   4.960   3.293  1.8470  1.7454 -3.6402
 5975SOL    MW423634   2.612   5.034   3.338 -0.2551 -0.2057  0.1974
 5976SOL     OW23635   5.563   4.582   5.029  0.3470 -0.0113  0.1493
 5976SOL    HW223636   5.628   4.585   5.100  0.9071  0.1383 -0.3681
 5976SOL    HW323637   5.607   4.621   4.954 -0.6832  1.0579  0.0650
 5976SOL    MW423638   5.577   4.588   5.029 -0.7151  0.6736  0.8834
 5977SOL     OW23639   6.115   0.298   5.569  0.0602  0.0609 -0.2441
 5977SOL    HW223640   6.112   0.269   5.478  0.1885 -0.0844 -0.2013
 5977SOL    HW323641   6.160   0.382   5.565  0.7612 -0.3085 -0.2210
 5977SOL    MW423642   6.121   0.305   5.556 -0.2456  0.5229 -0.5307
 5978SOL     OW23643   2.766   2.691   4.456 -0.6661  0.2304  0.1971
 5978SOL    HW223644   2.861   2.680   4.460 -0.8680 -1.6625  1.0090
 5978SOL    HW323645   2.753   2.776   4.414  1.3515 -0.4450 -2.0346
 5978SOL    MW423646   2.777   2.701   4.451  0.0283  0.3916 -0.7166
 5979SOL     OW23647   4.963   3.458   1.091  0.2699  0.2912 -0.2121
 5979SOL    HW223648   4.880   3.500   1.112  0.0181 -0.2519 -0.1008
 5979SOL    HW323649   5.011   3.523   1.040 -0.6040  0.2808 -1.0975
 5979SOL    MW423650   4.959   3.472   1.087  0.0350  0.5917  0.2757
 5980SOL     OW23651   5.778   6.255   4.091 -0.1938 -0.0045 -0.3439
 5980SOL    HW223652   5.742   6.342   4.075  0.9684  0.5774  0.0978
 5980SOL    HW323653   5.747   6.231   4.178  0.9130  0.7306  0.2663
 5980SOL    MW423654   5.769   6.264   4.100 -0.0238  0.5505 -0.0699
 5981SOL     OW23655   5.649   5.078   6.062  0.4562 -0.1611  0.1724
 5981SOL    HW223656   5.569   5.116   6.027  0.3134  0.5548  1.2561
 5981SOL    HW323657   5.624   5.038   6.145  1.0530 -0.6969  0.1101
 5981SOL    MW423658   5.635   5.078   6.068 -0.3633  0.0181 -0.9677
 5982SOL     OW23659   5.911   3.761   3.485  0.0282 -0.8711 -0.1291
 5982SOL    HW223660   5.909   3.843   3.534  1.3714 -0.6608 -0.3823
 5982SOL    HW323661   5.833   3.763   3.430  0.2217  0.4033 -0.3826
 5982SOL    MW423662   5.901   3.772   3.484 -0.1933  0.3603 -0.1139
 5983SOL     OW23663   3.648   3.032   0.909 -0.3112 -0.0011  0.3834
 5983SOL    HW223664   3.627   3.085   0.832 -0.3288  0.8454  0.9695
 5983SOL    HW323665   3.593   2.954   0.899  0.4301 -0.3943 -0.9857
 5983SOL    MW423666   3.638   3.028   0.897  0.2788  0.5018 -0.1516
 5984SOL     OW23667   3.066   5.118   0.005 -0.0147 -0.3771 -0.3616
 5984SOL    HW223668   2.982   5.084   0.036 -0.3694 -0.3328 -1.2286
 5984SOL    HW323669   3.132   5.069   0.054 -0.5234  0.9396  1.7719
 5984SOL    MW423670   3.063   5.107   0.015  0.0386 -0.0696 -0.1026
 5985SOL     OW23671   2.037   1.623   0.475  0.0845 -0.4390  0.0622
 5985SOL    HW223672   2.103   1.555   0.491 -0.6950 -0.7557  2.1916
 5985SOL    HW323673   1.953   1.580   0.495 -0.5607  0.7064 -0.0948
 5985SOL    MW423674   2.034   1.608   0.480  0.0379  0.2959  0.8274
 5986SOL     OW23675   6.007   0.959   4.362 -0.5658 -0.1820  0.2280
 5986SOL    HW223676   6.019   0.951   4.267 -0.6530  1.3627  0.0612
 5986SOL    HW323677   5.914   0.979   4.373 -0.6417 -0.7519  0.6828
 5986SOL    MW423678   5.997   0.961   4.351  0.3146 -0.1420 -0.3632
 5987SOL     OW23679   4.294   2.681   3.480  0.7404  0.3179  0.3178
 5987SOL    HW223680   4.268   2.628   3.556 -0.8688  2.3552  1.2831
 5987SOL    HW323681   4.387   2.699   3.494  0.0115  2.5550  3.1475
 5987SOL    MW423682   4.303   2.676   3.492 -0.6093 -0.0416 -0.6821
 5988SOL     OW23683   3.865   2.895   1.186  0.2677 -0.2235  0.0020
 5988SOL    HW223684   3.919   2.948   1.128  0.0685  2.8624  2.3513
 5988SOL    HW323685   3.781   2.941   1.188 -0.2802 -1.2369  1.3539
 5988SOL    MW423686   3.861   2.908   1.179 -0.0955  0.3740 -0.1392
 5989SOL     OW23687   4.260   4.227   6.195  0.0941  0.0802 -0.0789
 5989SOL    HW223688   4.243   4.321   6.191 -1.7143 -0.1993 -0.0257
 5989SOL    HW323689   4.315   4.209   6.118  1.9363  1.3986  0.8498
 5989SOL    MW423690   4.265   4.237   6.184 -0.0880 -0.0026 -1.0122
 5990SOL     OW23691   0.928   1.057   1.814 -0.2866 -0.5019  0.7584
 5990SOL    HW223692   0.951   1.115   1.886 -0.2931 -0.1805  0.5062
 5990SOL    HW323693   0.943   0.969   1.847 -1.1563 -0.4001  1.4619
 5990SOL    MW423694   0.933   1.053   1.828 -0.4398 -0.3119  0.1888
 5991SOL     OW23695   3.338   0.320   2.516 -0.3272  0.2524 -0.0290
 5991SOL    HW223696   3.368   0.401   2.558 -0.7317  1.1031 -1.3082
 5991SOL    HW323697   3.406   0.302   2.450 -0.6040 -0.0534 -0.2306
 5991SOL    MW423698   3.351   0.328   2.513  0.6206 -0.0472  0.2589
 5992SOL     OW23699   4.493   5.784   5.318 -0.4734  0.4847 -0.2971
 5992SOL    HW223700   4.584   5.776   5.288  0.2202  2.7552  0.9183
 5992SOL    HW323701   4.444   5.807   5.239  0.1910  0.2678 -0.7865
 5992SOL    MW423702   4.499   5.786   5.304  0.3900 -0.2787 -0.4559
 5993SOL     OW23703   0.919   3.945   3.109 -0.0901 -0.2780 -0.0174
 5993SOL    HW223704   0.931   3.895   3.028 -1.9773  0.1282 -0.5937
 5993SOL    HW323705   0.881   3.882   3.171 -2.4673  0.3375 -0.7433
 5993SOL    MW423706   0.916   3.930   3.106 -0.1967  0.5892 -0.2233
 5994SOL     OW23707   6.009   6.442   5.203 -0.5080  0.5658 -0.0898
 5994SOL    HW223708   5.933   6.386   5.189 -0.6913  1.0167 -0.9845
 5994SOL    HW323709   6.048   6.411   5.284 -0.6044 -0.8620 -0.5710
 5994SOL    MW423710   6.004   6.431   5.212 -0.4371 -0.2848 -0.1304
 5995SOL     OW23711   3.863   2.746   3.290  0.2920 -0.2023  0.1187
 5995SOL    HW223712   3.773   2.751   3.257  0.0010 -0.1382  0.9151
 5995SOL    HW323713   3.912   2.805   3.233 -0.4099  0.7221  0.4478
 5995SOL    MW423714   3.858   2.755   3.278  0.3221 -0.3631  0.0787
 5996SOL     OW23715   2.760   6.259   5.795  0.0652 -0.6533 -0.0208
 5996SOL    HW223716   2.675   6.279   5.833 -1.4166 -4.7678 -0.5980
 5996SOL    HW323717   2.750   6.277   5.701  0.9001  1.4987  0.2364
 5996SOL    MW423718   2.748   6.264   5.788 -0.7616  0.4357  0.2097
 5997SOL     OW23719   4.241   1.768   5.251 -1.4208  0.2473  0.3705
 5997SOL    HW223720   4.317   1.712   5.235 -2.0755 -0.4352 -0.4726
 5997SOL    HW323721   4.235   1.822   5.172 -2.5336 -0.5851 -0.1433
 5997SOL    MW423722   4.250   1.768   5.238  0.0874  0.3126  0.7570
 5998SOL     OW23723   0.174   0.781   1.624 -0.1135 -0.5435 -0.5871
 5998SOL    HW223724   0.141   0.693   1.606  0.6114 -1.2552  1.2394
 5998SOL    HW323725   0.251   0.791   1.568  0.7222 -1.7408  0.2870
 5998SOL    MW423726   0.180   0.771   1.614  0.8274 -0.3543  0.0862
 5999SOL     OW23727   2.463   0.060   2.184 -0.6208  0.1113 -0.3853
 5999SOL    HW223728   2.434  -0.019   2.140 -0.2889 -1.1435  1.5316
 5999SOL    HW323729   2.408   0.065   2.262  1.3051  0.1186  1.0250
 5999SOL    MW423730   2.452   0.050   2.188 -0.3779 -0.3891  0.6676
 6000SOL     OW23731   3.488   0.438   0.221 -0.3203  0.5505  0.2138
 6000SOL    HW223732   3.448   0.465   0.304  2.3398 -1.0967  2.2079
 6000SOL    HW323733   3.538   0.515   0.193  0.7840  0.3694  1.5563
 6000SOL    MW423734   3.489   0.452   0.228 -0.8184 -0.5992  0.5597
 6001SOL     OW23735   1.866   6.126   5.864 -0.1998 -0.1928 -0.0611
 6001SOL    HW223736   1.791   6.166   5.908 -0.2723 -0.0277 -0.3321
 6001SOL    HW323737   1.931   6.197   5.860 -0.1967 -0.2051 -0.2265
 6001SOL    MW423738   1.865   6.141   5.869  0.5661 -0.5937  0.2300
 6002SOL     OW23739   3.547   0.274   0.938 -0.2789 -0.3165 -0.3953
 6002SOL    HW223740   3.480   0.207   0.930  0.6386 -1.2466 -0.6050
 6002SOL    HW323741   3.503   0.357   0.918 -0.6909 -1.2124 -3.8029
 6002SOL    MW423742   3.533   0.276   0.934  0.6470 -0.4078 -0.2786
 6003SOL     OW23743   5.765   3.188   5.706  0.1781 -0.4448  0.0506
 6003SOL    HW223744   5.821   3.163   5.633 -0.7907 -2.0114 -0.1945
 6003SOL    HW323745   5.702   3.249   5.668  1.7209  1.4337  0.3568
 6003SOL    MW423746   5.764   3.193   5.692  0.2023 -0.3632  0.0171
 6004SOL     OW23747   1.043   1.082   4.562 -0.5367 -0.0891  0.3355
 6004SOL    HW223748   0.996   0.999   4.569  0.9618 -1.1883 -1.6122
 6004SOL    HW323749   1.000   1.128   4.490 -1.0147  0.6298  1.0552
 6004SOL    MW423750   1.031   1.077   4.553 -0.2450  0.7592 -0.5376
 6005SOL     OW23751   4.816   1.045   1.132 -0.0309 -0.1953 -0.0662
 6005SOL    HW223752   4.761   0.999   1.195 -0.1447  0.8069  0.5924
 6005SOL    HW323753   4.769   1.039   1.049 -1.1229  0.5749  0.4673
 6005SOL    MW423754   4.803   1.038   1.130 -0.4147 -0.1664 -0.4926
 6006SOL     OW23755   2.393   0.934   2.505 -0.3649 -0.3498 -0.0888
 6006SOL    HW223756   2.308   0.963   2.538  0.0123  1.3099 -0.5043
 6006SOL    HW323757   2.374   0.851   2.461 -1.6688 -0.2705  0.2789
 6006SOL    MW423758   2.379   0.927   2.504  0.8958 -0.0661  0.2516
 6007SOL     OW23759   1.219   3.070   3.494  0.3810  0.0862  0.3994
 6007SOL    HW223760   1.283   3.020   3.443  0.1247 -0.0640  0.2257
 6007SOL    HW323761   1.273   3.119   3.557  0.6187 -0.6797  0.8199
 6007SOL    MW423762   1.235   3.070   3.496 -0.2976 -0.0572 -0.2875
 6008SOL     OW23763   4.963   2.750   5.774  0.4163  0.2394  0.1535
 6008SOL    HW223764   5.032   2.698   5.732  1.8572  0.9827  1.4666
 6008SOL    HW323765   4.950   2.708   5.859  0.4268  1.0503  0.5675
 6008SOL    MW423766   4.970   2.738   5.780 -0.0090 -0.7036  0.5264
 6009SOL     OW23767   2.488   0.400   2.900 -0.0068  0.3117  0.2194
 6009SOL    HW223768   2.513   0.416   2.991 -0.2326 -1.2277  0.5633
 6009SOL    HW323769   2.571   0.389   2.854  0.1674  2.2769 -0.0341
 6009SOL    MW423770   2.502   0.401   2.906 -0.3316 -0.0083 -0.6803
 6010SOL     OW23771   5.984   6.020   6.199 -0.3931 -0.6751  0.0197
 6010SOL    HW223772   6.013   5.935   6.165  0.7362 -1.1053  1.8848
 6010SOL    HW323773   5.992   6.080   6.124  0.2226 -1.9025 -0.9425
 6010SOL    MW423774   5.989   6.016   6.184 -0.1439  0.2591 -0.1923
 6011SOL     OW23775   0.536   0.045   1.145 -0.4996  0.0230 -0.5975
 6011SOL    HW223776   0.591   0.105   1.195 -1.5519  0.1622  0.4597
 6011SOL    HW323777   0.563  -0.042   1.174 -0.8323  0.0913 -0.0646
 6011SOL    MW423778   0.547   0.042   1.155  0.0184  0.4846  0.5201
 6012SOL     OW23779   5.418   0.949   5.432 -0.0385  0.0197  0.5214
 6012SOL    HW223780   5.353   0.884   5.460 -0.4287  0.4167  0.5589
 6012SOL    HW323781   5.460   0.910   5.356 -0.2204 -0.3053  0.5838
 6012SOL    MW423782   5.415   0.935   5.426  0.7260  0.1272  0.1415
 6013SOL     OW23783   1.209   2.455   5.808  0.0841  0.2032 -0.5832
 6013SOL    HW223784   1.233   2.363   5.811 -0.7621 -0.0169 -0.4472
 6013SOL    HW323785   1.264   2.492   5.738 -0.2376 -0.5976 -1.2677
 6013SOL    MW423786   1.220   2.448   5.799  0.0103 -0.1736 -0.2595
 6014SOL     OW23787   0.261   4.631   1.454  0.3460  0.7404  0.1714
 6014SOL    HW223788   0.348   4.590   1.451  0.7673  1.3963  2.1065
 6014SOL    HW323789   0.202   4.561   1.425  1.1721 -0.9420  2.2028
 6014SOL    MW423790   0.265   4.616   1.450  0.0218  0.9152  0.0586
 6015SOL     OW23791   2.407   4.166   4.798 -0.2207 -0.1145  0.1973
 6015SOL    HW223792   2.395   4.153   4.892 -0.6412  1.2873  0.3679
 6015SOL    HW323793   2.351   4.099   4.758  0.4822 -1.1716  0.9150
 6015SOL    MW423794   2.398   4.155   4.805  0.4768  0.3573 -0.1306
 6016SOL     OW23795   5.216   6.163   6.099 -0.3730  0.1339  0.2212
 6016SOL    HW223796   5.251   6.161   6.010  0.2378 -0.2813  0.4637
 6016SOL    HW323797   5.128   6.200   6.089  0.4495  2.0671 -0.2736
 6016SOL    MW423798   5.209   6.167   6.086  0.0920 -0.2632 -0.1911
 6017SOL     OW23799   1.034   2.281   2.720  0.0671  0.1564 -0.6674
 6017SOL    HW223800   1.076   2.304   2.637 -1.1308 -1.2506 -1.7366
 6017SOL    HW323801   0.976   2.354   2.739  0.6931  0.7005 -0.8160
 6017SOL    MW423802   1.032   2.294   2.711 -0.5709 -0.1151 -0.4933
 6018SOL     OW23803   2.681   1.762   5.395 -0.0857  0.3986  0.3967
 6018SOL    HW223804   2.627   1.824   5.444 -1.1160  0.1701 -0.3929
 6018SOL    HW323805   2.680   1.797   5.305 -0.1429 -0.4109  0.0782
 6018SOL    MW423806   2.674   1.775   5.389  0.4284 -0.3836  0.6968
 6019SOL     OW23807   6.056   3.983   2.843 -0.0807 -0.3734  0.9359
 6019SOL    HW223808   6.013   4.064   2.870 -0.5525 -0.3832  0.2651
 6019SOL    HW323809   6.131   4.013   2.790 -0.9395 -0.3514 -0.3305
 6019SOL    MW423810   6.060   3.998   2.839 -0.0392  0.2623  0.7152
 6020SOL     OW23811   2.623   1.284   1.947  0.1352 -0.1074  0.3437
 6020SOL    HW223812   2.649   1.342   2.019 -0.2605  0.4797  0.0216
 6020SOL    HW323813   2.690   1.298   1.879  1.2512 -1.6172  1.0600
 6020SOL    MW423814   2.635   1.294   1.948  0.0491  0.2517 -0.2461
 6021SOL     OW23815   5.233   1.921   3.508 -0.0572  0.4520 -0.2468
 6021SOL    HW223816   5.255   1.858   3.577 -1.2062  1.8150  1.4401
 6021SOL    HW323817   5.168   1.877   3.454 -0.6283  0.0757  0.7390
 6021SOL    MW423818   5.227   1.907   3.510  0.1250 -0.4587  0.9867
 6022SOL     OW23819   5.739   4.978   2.753 -0.6958  0.3656  0.0499
 6022SOL    HW223820   5.804   4.934   2.698 -2.1611  0.2040 -1.6602
 6022SOL    HW323821   5.658   4.929   2.738 -1.3696  0.9077  1.6701
 6022SOL    MW423822   5.737   4.965   2.744 -0.3672 -0.0365  0.3559
 6023SOL     OW23823   4.048   4.716   3.067  0.5651 -0.7791  0.1756
 6023SOL    HW223824   3.983   4.651   3.042  0.7912 -1.6190  1.6609
 6023SOL    HW323825   4.060   4.703   3.161  2.4369 -0.2565  0.0482
 6023SOL    MW423826   4.041   4.706   3.076 -0.3468  0.3143  0.2454
 6024SOL     OW23827   4.704   1.999   1.977 -0.1863  0.2166 -0.8251
 6024SOL    HW223828   4.651   1.926   2.008  2.1486 -1.9429 -1.6142
 6024SOL    HW323829   4.745   2.034   2.056  0.6189 -0.9868 -0.6898
 6024SOL    MW423830   4.703   1.994   1.992 -0.0103  0.5594  0.7013
 6025SOL     OW23831   4.138   5.531   3.682  0.0334  0.4762  0.0578
 6025SOL    HW223832   4.135   5.625   3.700  1.4219  0.4637  0.4242
 6025SOL    HW323833   4.122   5.524   3.588 -2.8665  0.8520  0.4270
 6025SOL    MW423834   4.135   5.542   3.672 -0.1638 -0.0831 -0.2583
 6026SOL     OW23835   1.441   1.016   3.502  0.3211 -0.6360  0.2720
 6026SOL    HW223836   1.352   1.045   3.484  1.0989  0.6638 -1.8768
 6026SOL    HW323837   1.440   0.922   3.483 -0.4050 -0.4684 -0.6102
 6026SOL    MW423838   1.429   1.008   3.497 -0.4123  0.2732 -0.1511
 6027SOL     OW23839   4.668   4.911   4.886 -0.3163  0.2682 -0.5082
 6027SOL    HW223840   4.610   4.986   4.883  0.1932  0.6538 -0.9934
 6027SOL    HW323841   4.750   4.945   4.923 -0.5576 -0.3858  0.6893
 6027SOL    MW423842   4.671   4.925   4.890 -0.7902  0.3505 -0.4078
 6028SOL     OW23843   5.917   0.112   4.459  0.0818 -0.1177 -0.4948
 6028SOL    HW223844   5.890   0.122   4.368  0.1847  0.3480 -0.4755
 6028SOL    HW323845   5.951   0.198   4.484  0.7033 -0.4342 -0.2288
 6028SOL    MW423846   5.918   0.124   4.450 -0.2395 -0.6935  0.3441
 6029SOL     OW23847   6.117   6.295   1.159 -0.6274  0.1130  0.2484
 6029SOL    HW223848   6.042   6.300   1.219 -1.0071 -0.6823 -0.1485
 6029SOL    HW323849   6.191   6.275   1.216 -0.7853  0.4657  0.5893
 6029SOL    MW423850   6.117   6.293   1.175 -0.1635 -0.3173  0.5039
 6030SOL     OW23851   4.097   1.364   3.313 -0.3452  0.8489 -0.4047
 6030SOL    HW223852   4.185   1.391   3.339 -0.0935  0.6099 -0.9975
 6030SOL    HW323853   4.079   1.414   3.233 -0.1792 -0.1524 -1.0794
 6030SOL    MW423854   4.106   1.374   3.306 -0.1140  0.3825  1.0024
 6031SOL     OW23855   1.470   1.900   3.379  0.3125 -0.0325  0.2694
 6031SOL    HW223856   1.408   1.912   3.307  2.2925  0.4260 -1.4573
 6031SOL    HW323857   1.495   1.807   3.374  0.3054 -0.0504  0.5179
 6031SOL    MW423858   1.465   1.889   3.369  0.0925  0.3512  0.0016
 6032SOL     OW23859   4.196   1.112   6.086 -0.2574  0.4443 -0.0097
 6032SOL    HW223860   4.251   1.188   6.103 -0.3076  0.4360  0.1900
 6032SOL    HW323861   4.241   1.039   6.129 -1.1178  0.6770  1.3602
 6032SOL    MW423862   4.209   1.112   6.094 -0.0635 -0.1227  0.4331
 6033SOL     OW23863   6.378   3.022   0.131 -0.4338 -0.1537 -0.1523
 6033SOL    HW223864   6.383   3.110   0.170  0.1522 -0.2353 -0.0346
 6033SOL    HW323865   6.294   3.021   0.086 -0.0594  0.8025 -0.9222
 6033SOL    MW423866   6.368   3.034   0.130 -0.8124  0.5228  0.6315
 6034SOL     OW23867   1.351   5.558   0.109 -0.2494 -0.5978 -0.2953
 6034SOL    HW223868   1.422   5.581   0.048 -0.3023 -1.6852 -0.7886
 6034SOL    HW323869   1.271   5.566   0.057 -0.4469  0.0032  0.0850
 6034SOL    MW423870   1.350   5.562   0.094 -0.4483 -0.2571 -0.7491
 6035SOL     OW23871   1.019   1.374   3.624  0.6295 -0.2912 -0.4325
 6035SOL    HW223872   1.032   1.464   3.594 -0.8689 -0.5765 -2.1659
 6035SOL    HW323873   0.938   1.377   3.674 -0.1150 -0.8486 -1.5537
 6035SOL    MW423874   1.010   1.386   3.626  0.7196 -0.1555 -0.3429
 6036SOL     OW23875   5.594   1.237   1.804 -0.2515  0.0268 -0.6027
 6036SOL    HW223876   5.605   1.254   1.710  0.2828  0.1143 -0.5274
 6036SOL    HW323877   5.606   1.322   1.846  0.5490 -0.1845 -0.3763
 6036SOL    MW423878   5.597   1.250   1.797 -0.1998  0.5965 -0.5874
 6037SOL     OW23879   6.145   5.967   0.846  0.5055 -0.1681  0.2252
 6037SOL    HW223880   6.097   6.042   0.882  2.7029  0.9675  0.9807
 6037SOL    HW323881   6.078   5.901   0.829 -1.2195  1.0789  1.8170
 6037SOL    MW423882   6.130   5.968   0.848  0.0156  0.0680 -0.1779
 6038SOL     OW23883   2.656   3.356   2.267 -0.1592  0.3374  0.0111
 6038SOL    HW223884   2.671   3.450   2.256  0.7081 -0.0202 -2.7962
 6038SOL    HW323885   2.743   3.317   2.253 -1.1632 -1.0527 -3.3153
 6038SOL    MW423886   2.670   3.363   2.264  0.1321  0.3717  0.0503
 6039SOL     OW23887   0.530   4.125   4.454 -0.0744  0.1836  0.0244
 6039SOL    HW223888   0.475   4.160   4.383  0.0058  1.2339  0.4544
 6039SOL    HW323889   0.536   4.032   4.436  1.1750  0.6194 -2.2212
 6039SOL    MW423890   0.523   4.118   4.442  0.3972 -0.8998  0.2186
 6040SOL     OW23891   1.200   3.148   0.179 -0.1099 -0.0032 -1.3638
 6040SOL    HW223892   1.273   3.184   0.128  0.1801  1.3248 -0.0762
 6040SOL    HW323893   1.193   3.206   0.255  1.3879 -3.4481  1.7194
 6040SOL    MW423894   1.209   3.160   0.182 -0.0132 -0.2456 -0.0962
 6041SOL     OW23895   1.065   5.637   2.735 -0.3019  0.3281  0.1614
 6041SOL    HW223896   1.024   5.551   2.738 -0.3336  0.2316 -1.7637
 6041SOL    HW323897   1.152   5.621   2.698 -0.4402  1.1408 -0.5541
 6041SOL    MW423898   1.072   5.624   2.731  0.1938 -0.3641 -0.4193
 6042SOL     OW23899   2.170   4.367   3.520 -0.2557  0.2857  0.5179
 6042SOL    HW223900   2.111   4.359   3.595 -0.5553 -0.6249  0.2022
 6042SOL    HW323901   2.158   4.285   3.472  1.8296 -0.2471  0.8306
 6042SOL    MW423902   2.161   4.355   3.523 -0.1429  0.2008 -0.1919
 6043SOL     OW23903   6.116   1.664   2.977 -0.3278  0.2986 -0.3337
 6043SOL    HW223904   6.036   1.708   3.005 -2.0492 -1.8480 -1.5354
 6043SOL    HW323905   6.182   1.691   3.041 -2.0682  1.8659  0.9190
 6043SOL    MW423906   6.114   1.673   2.989  0.3102  0.6560 -0.1623
 6044SOL     OW23907   4.533   0.660   5.605  0.0779  0.7823 -0.2913
 6044SOL    HW223908   4.573   0.715   5.672  1.5878  0.7051 -1.0851
 6044SOL    HW323909   4.447   0.700   5.590  0.4815  1.9379  0.3251
 6044SOL    MW423910   4.527   0.673   5.612 -0.2449  0.2258  0.5274
 6045SOL     OW23911   4.770   2.003   4.355 -0.0666 -0.0844 -0.0346
 6045SOL    HW223912   4.774   2.044   4.442  1.1811 -1.1046  0.4194
 6045SOL    HW323913   4.686   1.956   4.355  0.8644 -1.9161  1.5320
 6045SOL    MW423914   4.759   2.002   4.367  0.1999 -0.0063 -0.7529
 6046SOL     OW23915   1.001   0.533   2.535  0.4220  0.3903  0.6296
 6046SOL    HW223916   1.006   0.537   2.439  0.0530  0.4596  0.6116
 6046SOL    HW323917   0.992   0.440   2.555  0.7181  0.3588  0.6058
 6046SOL    MW423918   1.000   0.522   2.525 -0.1225 -0.0772 -0.4677
 6047SOL     OW23919   3.622   1.135   2.066 -0.4367  0.3181 -0.7745
 6047SOL    HW223920   3.538   1.089   2.064 -0.9142  1.0443  0.6199
 6047SOL    HW323921   3.599   1.228   2.065  0.1037  0.6184  2.3312
 6047SOL    MW423922   3.608   1.141   2.066 -0.2638 -0.0093 -0.3289
 6048SOL     OW23923   6.095   6.295   1.974 -0.0326 -0.1804 -0.7180
 6048SOL    HW223924   6.004   6.318   1.988  0.5682  2.2618 -0.3226
 6048SOL    HW323925   6.126   6.265   2.059 -0.4242 -0.8806 -0.8210
 6048SOL    MW423926   6.087   6.294   1.987  0.1403  0.1505 -0.5549
 6049SOL     OW23927   0.428   5.510   1.136 -0.1418  0.2526 -0.2425
 6049SOL    HW223928   0.405   5.603   1.142  0.9078  0.4413  1.9100
 6049SOL    HW323929   0.358   5.465   1.183  0.9740  0.3413  1.6489
 6049SOL    MW423930   0.416   5.517   1.143 -0.3672 -0.7814  0.2622
 6050SOL     OW23931   5.386   6.172   5.847  0.1980 -0.9767 -0.5363
 6050SOL    HW223932   5.476   6.173   5.881 -0.3842 -0.9411  1.1109
 6050SOL    HW323933   5.386   6.239   5.778  1.7071 -1.7904 -1.3876
 6050SOL    MW423934   5.398   6.181   5.843 -0.1153 -0.1492 -0.6557
 6051SOL     OW23935   1.640   6.298   0.467  0.0143  0.2711  0.1568
 6051SOL    HW223936   1.733   6.304   0.443  0.0679  2.8503  0.6944
 6051SOL    HW323937   1.633   6.347   0.549 -1.4733 -1.8642  1.3935
 6051SOL    MW423938   1.651   6.305   0.474  0.6672 -0.3345 -0.3890
 6052SOL     OW23939   6.350   3.878   4.773  0.3673 -0.0955 -0.0946
 6052SOL    HW223940   6.274   3.894   4.717  0.2020 -1.2854 -0.2323
 6052SOL    HW323941   6.370   3.786   4.760  1.3319  0.0117  0.5759
 6052SOL    MW423942   6.342   3.868   4.764 -0.0920 -0.6174  0.3570
 6053SOL     OW23943   0.553   6.231   0.602  0.2453 -0.2354 -0.4561
 6053SOL    HW223944   0.457   6.227   0.602  0.1794 -0.3587  2.0211
 6053SOL    HW323945   0.574   6.298   0.668  1.8781 -0.6605 -0.4981
 6053SOL    MW423946   0.543   6.240   0.611 -0.3696  0.2856  0.0917
 6054SOL     OW23947   5.912   2.946   4.631 -0.1074  0.3082 -0.3918
 6054SOL    HW223948   5.885   3.024   4.680  1.7418  0.4928  0.4114
 6054SOL    HW323949   6.005   2.960   4.613 -0.0081 -1.2130 -1.2325
 6054SOL    MW423950   5.921   2.958   4.635 -0.1428  0.6014  0.9607
 6055SOL     OW23951   5.765   4.176   5.608  0.1260  0.3089 -0.1069
 6055SOL    HW223952   5.680   4.179   5.565  0.1136 -1.0227 -0.2020
 6055SOL    HW323953   5.760   4.101   5.666  0.6370  1.2599  1.2194
 6055SOL    MW423954   5.753   4.167   5.610  0.5131  0.6405 -0.0454
 6056SOL     OW23955   4.443   5.949   0.112  0.0297  0.7699  0.3141
 6056SOL    HW223956   4.379   5.928   0.180 -0.9479 -0.6305 -0.9691
 6056SOL    HW323957   4.439   6.044   0.103 -1.2116  0.7877  0.8912
 6056SOL    MW423958   4.434   5.958   0.119  0.1643  0.1502  0.1277
 6057SOL     OW23959   4.684   1.348   4.245  0.4535  0.1689  0.0477
 6057SOL    HW223960   4.764   1.295   4.251 -0.0676 -0.6348  0.0904
 6057SOL    HW323961   4.715   1.439   4.245  1.4523 -0.1410 -1.1949
 6057SOL    MW423962   4.698   1.353   4.246 -0.4063 -0.2441 -0.8589
 6058SOL     OW23963   2.980   1.008   4.763 -0.1856 -0.6112 -0.3999
 6058SOL    HW223964   2.886   1.022   4.750 -0.2231  0.4168  0.7273
 6058SOL    HW323965   3.021   1.047   4.686 -0.6797 -1.1581 -0.9461
 6058SOL    MW423966   2.973   1.015   4.751 -0.1849  0.1015 -0.1762
 6059SOL     OW23967   5.981   2.752   1.038 -0.1193 -0.1594  0.3314
 6059SOL    HW223968   5.888   2.762   1.057 -0.7343 -0.4791 -2.1374
 6059SOL    HW323969   6.010   2.840   1.011 -0.2510 -0.4528 -0.8411
 6059SOL    MW423970   5.973   2.765   1.037 -0.2592 -0.3528  0.2704
 6060SOL     OW23971   6.004   1.868   5.153  0.5135 -0.6945 -0.3030
 6060SOL    HW223972   5.934   1.870   5.218  0.7229 -1.4419 -0.0376
 6060SOL    HW323973   6.072   1.924   5.190  0.0946 -0.0219 -0.5279
 6060SOL    MW423974   6.003   1.875   5.167 -0.3937 -0.2311  0.1955
 6061SOL     OW23975   3.452   2.656   0.274  0.6878 -0.4051 -0.0215
 6061SOL    HW223976   3.406   2.588   0.322 -0.8178 -1.0569 -2.2302
 6061SOL    HW323977   3.536   2.617   0.251  1.0469 -0.4085  1.2334
 6061SOL    MW423978   3.457   2.642   0.277  0.1566 -0.5546  0.7087
 6062SOL     OW23979   0.202   3.391   4.465  0.2324 -0.2996 -0.0213
 6062SOL    HW223980   0.224   3.347   4.546 -2.1158  0.3361  1.0599
 6062SOL    HW323981   0.258   3.469   4.463  1.3774 -1.0929  0.1719
 6062SOL    MW423982   0.212   3.395   4.475  0.0442 -0.3201 -0.1656
 6063SOL     OW23983   6.166   5.809   6.414  0.5721 -0.0054  0.3400
 6063SOL    HW223984   6.224   5.859   6.356  1.7675 -0.5997  0.9710
 6063SOL    HW323985   6.201   5.825   6.502  0.5642 -1.3776  0.6171
 6063SOL    MW423986   6.178   5.817   6.418  0.1976 -0.0621 -0.6078
 6064SOL     OW23987   4.396   1.339   5.491  0.2083  0.5745  0.1632
 6064SOL    HW223988   4.319   1.283   5.484 -0.4605  1.4696  0.1370
 6064SOL    HW323989   4.423   1.332   5.582  1.0704 -0.9671 -0.1744
 6064SOL    MW423990   4.389   1.331   5.502 -0.5629  0.1954  0.3541
 6065SOL     OW23991   5.144   5.727   4.438  0.4735 -0.2977 -0.6941
 6065SOL    HW223992   5.079   5.657   4.440 -1.1823  1.1772 -0.6938
 6065SOL    HW323993   5.223   5.688   4.476 -0.9747 -1.5841  1.1235
 6065SOL    MW423994   5.146   5.712   4.443  0.0911 -0.0857 -0.2593
 6066SOL     OW23995   5.228   2.428   3.402 -0.3269  0.1320  0.5811
 6066SOL    HW223996   5.259   2.339   3.418 -0.0710  0.1937  0.4231
 6066SOL    HW323997   5.210   2.463   3.489 -0.4765 -0.0895  0.6417
 6066SOL    MW423998   5.229   2.421   3.415  0.2390  0.2554  0.1433
 6067SOL     OW23999   3.950   4.001   1.661 -0.5998  0.0646  0.6554
 6067SOL    HW224000   3.914   3.930   1.608  0.9500 -0.1657 -0.1327
 6067SOL    HW324001   3.873   4.048   1.693 -1.6106 -0.6191 -0.6748
 6067SOL    MW424002   3.935   3.998   1.659  0.2366 -0.2327  0.1080
 6068SOL     OW24003   3.445   5.882   2.715  0.3531 -0.2613 -0.2795
 6068SOL    HW224004   3.472   5.974   2.710  0.7883 -0.2019  2.0274
 6068SOL    HW324005   3.366   5.877   2.662  0.4200  1.4084 -0.5895
 6068SOL    MW424006   3.438   5.894   2.707  0.1281  0.0983  0.0197
 6069SOL     OW24007   0.656   2.011   5.982  0.1314  0.0443 -0.4781
 6069SOL    HW224008   0.670   1.928   6.026 -0.1431  0.2060 -0.0798
 6069SOL    HW324009   0.742   2.052   5.980  0.2497 -0.2087 -0.5961
 6069SOL    MW424010   0.669   2.006   5.988  0.2734  0.0566  0.5688
 6070SOL     OW24011   3.212   5.822   6.125  0.5886  0.2308 -0.3989
 6070SOL    HW224012   3.272   5.752   6.153  2.0587  1.3253 -0.6855
 6070SOL    HW324013   3.133   5.809   6.178  0.5410 -2.0421 -0.9431
 6070SOL    MW424014   3.209   5.811   6.136 -0.5015  0.1051  0.0344
 6071SOL     OW24015   0.458   1.861   0.283 -0.0149 -1.0565 -0.1179
 6071SOL    HW224016   0.426   1.825   0.200 -1.4915 -1.1486  0.4658
 6071SOL    HW324017   0.430   1.953   0.281  1.6203 -0.5261 -0.5281
 6071SOL    MW424018   0.450   1.868   0.272  0.1852 -0.4395 -0.1091
 6072SOL     OW24019   6.439   1.365   3.251  0.3200 -0.1486  0.5960
 6072SOL    HW224020   6.513   1.311   3.223 -0.8203 -1.3493 -0.1945
 6072SOL    HW324021   6.382   1.369   3.175 -0.2461  1.1121  1.0660
 6072SOL    MW424022   6.441   1.358   3.237  0.5398  0.8327  0.3463
 6073SOL     OW24023   4.542   3.466   4.731  0.3141  0.7185 -0.3889
 6073SOL    HW224024   4.615   3.408   4.753 -2.7474 -3.2669  0.4484
 6073SOL    HW324025   4.547   3.475   4.636  0.6037 -1.6334 -0.6753
 6073SOL    MW424026   4.552   3.459   4.721  0.1883 -0.0278  0.7989
 6074SOL     OW24027   3.174   3.308   6.114  0.2128 -0.0941 -0.2576
 6074SOL    HW224028   3.129   3.385   6.079  0.6012  0.8362  1.2058
 6074SOL    HW324029   3.194   3.255   6.037 -2.3018  0.0222 -1.0842
 6074SOL    MW424030   3.171   3.311   6.099 -0.4419  0.2029 -0.3830
 6075SOL     OW24031   1.414   1.542   4.912  0.2137  0.3348  0.0217
 6075SOL    HW224032   1.321   1.566   4.907  0.6150  2.5117  1.5391
 6075SOL    HW324033   1.417   1.473   4.978 -0.2314  1.0638  0.8344
 6075SOL    MW424034   1.402   1.536   4.920  0.2382 -0.5595  0.2507
 6076SOL     OW24035   6.080   5.304   3.291 -0.1309  0.9247  0.0002
 6076SOL    HW224036   6.003   5.340   3.248  0.1942  0.2115 -1.2134
 6076SOL    HW324037   6.101   5.367   3.360 -0.0060  2.6928 -1.5772
 6076SOL    MW424038   6.073   5.317   3.295 -0.3152 -0.2876 -0.5722
 6077SOL     OW24039   4.953   3.149   3.960 -0.1960  0.3012 -0.0379
 6077SOL    HW224040   4.861   3.175   3.955 -0.0339  0.6932 -1.6623
 6077SOL    HW324041   4.953   3.074   4.020 -2.2294 -2.2242 -2.8392
 6077SOL    MW424042   4.941   3.142   3.967 -0.1867 -0.3192  0.1585
 6078SOL     OW24043   2.915   0.360   5.933  0.3878 -0.3593  0.2107
 6078SOL    HW224044   2.859   0.282   5.932 -0.6064  0.2461  2.6795
 6078SOL    HW324045   2.963   0.354   6.015  0.5342  1.4635  0.2903
 6078SOL    MW424046   2.914   0.349   5.944  0.6131  0.5960 -0.6479
 6079SOL     OW24047   5.072   1.435   5.822 -0.6013 -0.1644 -0.2132
 6079SOL    HW224048   5.072   1.469   5.912  0.1360  0.6860 -0.5186
 6079SOL    HW324049   4.987   1.463   5.786 -0.8085 -0.3233  0.1439
 6079SOL    MW424050   5.061   1.443   5.829  0.4992 -0.0529 -0.1293
 6080SOL     OW24051   0.782   1.137   5.929  0.1943  0.0804  0.7534
 6080SOL    HW224052   0.826   1.163   6.010  0.4382 -0.5750  0.8398
 6080SOL    HW324053   0.816   1.049   5.911  0.4307  0.3664 -0.2630
 6080SOL    MW424054   0.792   1.128   5.937  0.3277  0.6166  0.1853
 6081SOL     OW24055   0.379   2.475   1.706  0.6644 -0.5484 -0.1013
 6081SOL    HW224056   0.413   2.473   1.796  0.1193  0.7909  0.1670
 6081SOL    HW324057   0.457   2.467   1.651  0.9675 -1.8083  0.4697
 6081SOL    MW424058   0.394   2.474   1.711  0.7506 -0.2677  0.6629
 6082SOL     OW24059   3.230   0.925   5.598 -0.6233 -0.5032  0.1650
 6082SOL    HW224060   3.289   0.887   5.663  0.0472 -0.6968 -0.5397
 6082SOL    HW324061   3.289   0.965   5.533 -1.2728  1.6278  0.7813
 6082SOL    MW424062   3.246   0.926   5.598  0.7313  0.6787 -0.0285
 6083SOL     OW24063   2.375   2.464   3.973 -0.8638 -0.2111  0.6543
 6083SOL    HW224064   2.455   2.454   4.023 -0.2380  0.0151 -0.2704
 6083SOL    HW324065   2.380   2.553   3.938 -1.6938 -0.0692  0.8833
 6083SOL    MW424066   2.386   2.474   3.975 -1.1058 -0.2655  0.3313
 6084SOL     OW24067   1.789   2.610   4.576 -0.1979  0.5251 -0.1942
 6084SOL    HW224068   1.835   2.628   4.659  1.2746 -0.0693 -0.8519
 6084SOL    HW324069   1.709   2.565   4.603 -0.2522  1.2492  0.9664
 6084SOL    MW424070   1.784   2.606   4.591 -0.0758  0.3293  0.5212
 6085SOL     OW24071   1.794   1.299   4.201 -0.9023 -0.3291  0.1253
 6085SOL    HW224072   1.817   1.276   4.291 -1.5793  0.6909  0.5714
 6085SOL    HW324073   1.877   1.296   4.154 -0.3227  0.3391  1.0589
 6085SOL    MW424074   1.808   1.296   4.207 -0.6888  0.3806 -0.5360
 6086SOL     OW24075   0.354   1.326   5.879  0.0332  0.1220  0.0781
 6086SOL    HW224076   0.447   1.307   5.889 -0.5006 -2.1350  1.5399
 6086SOL    HW324077   0.327   1.360   5.964 -0.8435 -1.2655  0.3985
 6086SOL    MW424078   0.363   1.328   5.891 -0.5271 -0.3426  0.2391
 6087SOL     OW24079   5.937   2.094   2.105 -0.4700  0.5324 -0.3240
 6087SOL    HW224080   6.026   2.065   2.127 -1.0308  0.0197  1.4799
 6087SOL    HW324081   5.900   2.021   2.056  0.0830  0.7210 -1.0315
 6087SOL    MW424082   5.944   2.080   2.102 -0.0149  0.2794 -0.3860
 6088SOL     OW24083   2.358   4.473   4.006  0.2481 -0.0325  0.2727
 6088SOL    HW224084   2.306   4.438   4.078 -0.6514  1.8212  0.5755
 6088SOL    HW324085   2.301   4.468   3.930  0.5110 -0.2349  0.0849
 6088SOL    MW424086   2.344   4.468   4.005 -0.2286  0.0106  0.3309
 6089SOL     OW24087   4.182   0.573   1.657 -0.0913 -0.0714 -0.9307
 6089SOL    HW224088   4.098   0.616   1.676 -0.6929 -0.6717 -2.1371
 6089SOL    HW324089   4.169   0.483   1.687  1.7804  0.8104  3.3532
 6089SOL    MW424090   4.169   0.567   1.664  0.4930  0.3912 -0.1864
 6090SOL     OW24091   0.168   0.877   4.763 -0.1981 -0.3987  0.2052
 6090SOL    HW224092   0.120   0.923   4.831  1.0663 -1.5503  1.9794
 6090SOL    HW324093   0.254   0.861   4.801  0.4879 -1.2937 -1.5899
 6090SOL    MW424094   0.173   0.881   4.777 -0.1712  0.0307  0.3411
 6091SOL     OW24095   3.331   3.042   0.735  0.0979 -0.3867  0.8768
 6091SOL    HW224096   3.311   3.069   0.645 -2.4250 -1.3052  1.0959
 6091SOL    HW324097   3.333   3.124   0.784 -2.0196 -0.0833  0.5599
 6091SOL    MW424098   3.329   3.056   0.730  0.5087 -0.0698  0.4645
 6092SOL     OW24099   3.844   3.692   4.761  0.3507 -0.0442  0.2483
 6092SOL    HW224100   3.874   3.758   4.699  1.5536 -0.5386  0.2634
 6092SOL    HW324101   3.912   3.691   4.829 -0.8297  0.3428  1.4821
 6092SOL    MW424102   3.857   3.701   4.762  0.4855 -0.8176  0.5137
 6093SOL     OW24103   3.049   1.967   4.691 -0.5825 -0.2028 -0.3240
 6093SOL    HW224104   3.105   1.890   4.700 -1.9701 -1.2489 -0.3510
 6093SOL    HW324105   3.110   2.041   4.688  0.7634 -1.2622  0.0412
 6093SOL    MW424106   3.065   1.967   4.692 -0.0020 -0.4843 -0.1815
 6094SOL     OW24107   2.875   3.152   2.621  0.4487  0.0432  0.0775
 6094SOL    HW224108   2.798   3.121   2.573  1.6009 -1.3916 -0.9581
 6094SOL    HW324109   2.920   3.210   2.560  0.0641  1.0879  0.7750
 6094SOL    MW424110   2.871   3.155   2.607 -0.2356 -0.2848  0.1649
 6095SOL     OW24111   0.053   5.369   4.046 -0.3030  0.1370 -0.6311
 6095SOL    HW224112  -0.016   5.435   4.051 -0.0030  0.4137 -0.0010
 6095SOL    HW324113   0.007   5.287   4.032 -0.8101  0.2593  0.2120
 6095SOL    MW424114   0.038   5.367   4.045  0.0910 -0.1142 -0.1916
 6096SOL     OW24115   3.513   4.490   3.538 -0.3947 -0.2663  0.2508
 6096SOL    HW224116   3.506   4.571   3.489  2.4316 -0.4498 -0.6172
 6096SOL    HW324117   3.440   4.436   3.507 -0.6065  0.8671 -1.2891
 6096SOL    MW424118   3.502   4.493   3.528  0.0576 -0.5747  0.2368
 6097SOL     OW24119   4.450   4.316   0.539  0.4828 -0.1466 -0.8480
 6097SOL    HW224120   4.542   4.336   0.527  0.9861 -1.5103  0.3979
 6097SOL    HW324121   4.449   4.227   0.576 -1.2050  0.6392  1.2119
 6097SOL    MW424122   4.462   4.307   0.543 -0.1499 -0.3943 -0.2645
 6098SOL     OW24123   4.574   3.666   0.231 -0.0204 -0.2254 -0.3965
 6098SOL    HW224124   4.612   3.688   0.146 -0.9869 -0.2584 -0.8572
 6098SOL    HW324125   4.487   3.632   0.210  0.1845 -1.3906  0.5304
 6098SOL    MW424126   4.567   3.664   0.217  0.0957 -0.5799 -0.6458
 6099SOL     OW24127   5.009   0.672   1.413 -0.6194  0.4687 -0.1179
 6099SOL    HW224128   5.057   0.622   1.479 -0.1251  1.0394 -0.0439
 6099SOL    HW324129   4.951   0.729   1.463 -0.6033  0.5492 -0.1911
 6099SOL    MW424130   5.008   0.673   1.428  0.2737 -0.2236  0.0694
 6100SOL     OW24131   0.814   0.531   3.510 -0.0429 -0.3682  0.4812
 6100SOL    HW224132   0.765   0.457   3.547  0.9249 -1.6396 -0.7121
 6100SOL    HW324133   0.900   0.496   3.491  1.3324  1.7681  2.2732
 6100SOL    MW424134   0.819   0.517   3.512 -0.1569 -0.4287  0.2724
 6101SOL     OW24135   3.809   5.428   0.479 -0.1819  0.2685  0.2415
 6101SOL    HW224136   3.850   5.416   0.394  1.0954  1.5153  0.6333
 6101SOL    HW324137   3.832   5.349   0.529 -1.3599 -0.6983 -0.6902
 6101SOL    MW424138   3.817   5.416   0.475  0.1577 -0.2560  0.6982
 6102SOL     OW24139   3.913   0.708   2.761  0.1017  0.6558 -0.4858
 6102SOL    HW224140   3.859   0.749   2.694 -0.0466 -0.3443 -0.9997
 6102SOL    HW324141   3.867   0.725   2.843 -1.0369 -0.2346 -0.9204
 6102SOL    MW424142   3.900   0.716   2.763 -0.1460  0.0880 -0.2998
 6103SOL     OW24143   0.227   4.616   4.755 -0.2470 -0.0006 -0.1251
 6103SOL    HW224144   0.319   4.614   4.728 -0.2851 -1.3166 -0.2471
 6103SOL    HW324145   0.192   4.697   4.719  0.7786  0.3325 -0.3896
 6103SOL    MW424146   0.235   4.626   4.747  0.4783 -0.1187  0.4389
 6104SOL     OW24147   1.575   5.883   5.531 -0.8638 -0.4965  0.1408
 6104SOL    HW224148   1.563   5.816   5.464  0.3947  0.2122 -0.8469
 6104SOL    HW324149   1.621   5.837   5.602  2.8952 -0.1484 -1.7915
 6104SOL    MW424150   1.580   5.868   5.531  0.0257 -0.2330  0.7419
 6105SOL     OW24151   2.528   0.525   3.190  0.0920 -0.0086  0.4196
 6105SOL    HW224152   2.564   0.608   3.160 -0.3052  1.3828  3.4218
 6105SOL    HW324153   2.602   0.479   3.230 -0.1368 -0.1196  0.7162
 6105SOL    MW424154   2.542   0.530   3.192 -0.9717 -0.2497  0.2634
 6106SOL     OW24155   0.431   1.823   1.256  0.1377 -0.1595 -0.4492
 6106SOL    HW224156   0.405   1.885   1.189 -0.6024 -0.5361 -0.5233
 6106SOL    HW324157   0.501   1.867   1.305 -1.6639  1.5466  0.7377
 6106SOL    MW424158   0.437   1.837   1.254 -0.0464 -0.2121 -0.3204
 6107SOL     OW24159   4.644   0.275   2.082 -0.3683  0.3931  0.1753
 6107SOL    HW224160   4.593   0.227   2.147  1.2175 -0.0319  1.1690
 6107SOL    HW324161   4.584   0.342   2.048 -1.5252 -0.0142  1.3645
 6107SOL    MW424162   4.630   0.277   2.086 -0.3506  0.4960  0.0942
 6108SOL     OW24163   1.420   3.195   6.411  0.8989  0.5102 -0.2829
 6108SOL    HW224164   1.457   3.282   6.422  0.9720  0.3887  0.4778
 6108SOL    HW324165   1.452   3.165   6.326 -1.0864  2.1902 -1.7352
 6108SOL    MW424166   1.429   3.202   6.401 -0.0791  0.1693  0.0596
 6109SOL     OW24167   3.196   0.908   3.766 -0.1377  0.0855  0.2769
 6109SOL    HW224168   3.169   0.923   3.675 -0.9592  1.2025  0.6788
 6109SOL    HW324169   3.115   0.908   3.816  0.2348 -1.3628  0.9319
 6109SOL    MW424170   3.182   0.910   3.761 -0.1581 -0.2319  0.1869
 6110SOL     OW24171   5.171   0.847   1.293  0.3239  0.1145  0.1252
 6110SOL    HW224172   5.215   0.903   1.358  0.7384 -1.1916  0.9983
 6110SOL    HW324173   5.119   0.786   1.344 -0.2906 -0.1809 -0.8206
 6110SOL    MW424174   5.170   0.847   1.308 -0.3894  0.4707 -0.4607
 6111SOL     OW24175   2.910   3.306   4.478 -0.0448  0.5015  0.1437
 6111SOL    HW224176   2.938   3.219   4.451  1.6211  0.2506  2.3700
 6111SOL    HW324177   2.910   3.358   4.398  0.1325 -1.2315 -1.0167
 6111SOL    MW424178   2.913   3.301   4.464  0.0567  0.1364 -0.3141
 6112SOL     OW24179   0.103   0.503   1.591  0.3573 -0.3801  0.0325
 6112SOL    HW224180   0.049   0.441   1.542  0.0325 -0.0789  0.0080
 6112SOL    HW324181   0.147   0.449   1.656  0.6020 -0.7449 -0.4294
 6112SOL    MW424182   0.102   0.488   1.593  0.2100  0.8330 -0.5650
 6113SOL     OW24183   1.550   4.715   5.411  0.0337  0.0185 -0.6811
 6113SOL    HW224184   1.521   4.654   5.479  1.0733  0.2943  0.0451
 6113SOL    HW324185   1.641   4.691   5.395  0.9972  2.3185  0.7607
 6113SOL    MW424186   1.558   4.704   5.418 -0.1232 -0.4055  0.4783
 6114SOL     OW24187   4.023   5.723   6.405  0.1411 -0.6221  0.5097
 6114SOL    HW224188   3.959   5.705   6.474 -1.4845 -0.6180 -0.9106
 6114SOL    HW324189   4.050   5.814   6.420 -0.2351 -0.6056  1.1034
 6114SOL    MW424190   4.018   5.733   6.416  0.7141  0.8127  0.9837
 6115SOL     OW24191   0.882   4.263   4.761 -0.1264  0.1395  0.2792
 6115SOL    HW224192   0.853   4.274   4.852 -3.2683 -0.7666 -0.4697
 6115SOL    HW324193   0.933   4.182   4.761 -2.7539 -1.6481  0.8529
 6115SOL    MW424194   0.885   4.253   4.773  0.0946 -0.1561 -0.0781
 6116SOL     OW24195   6.113   1.465   0.406 -0.3569 -0.2171 -0.7961
 6116SOL    HW224196   6.205   1.492   0.398 -0.5695  0.4802 -0.9477
 6116SOL    HW324197   6.065   1.525   0.349 -0.9614 -0.2924 -0.3765
 6116SOL    MW424198   6.119   1.476   0.397 -0.4019 -0.2897  0.2988
 6117SOL     OW24199   2.507   2.647   1.063  0.2417  0.7374  0.4050
 6117SOL    HW224200   2.495   2.645   1.158 -0.9113 -0.4395  0.2641
 6117SOL    HW324201   2.418   2.647   1.028  0.6349 -0.5188 -0.6700
 6117SOL    MW424202   2.493   2.646   1.071  0.1339 -0.0745  0.5791
 6118SOL     OW24203   5.754   1.089   4.379 -0.1557 -0.2489  0.1907
 6118SOL    HW224204   5.711   1.021   4.327 -2.3985  1.2606 -0.0885
 6118SOL    HW324205   5.735   1.066   4.470 -0.3922 -0.3277  0.1223
 6118SOL    MW424206   5.746   1.077   4.384  0.4890 -0.2735 -0.1890
 6119SOL     OW24207   4.304   0.568   0.355 -0.4260 -0.0007  0.4218
 6119SOL    HW224208   4.360   0.574   0.432  0.4405 -1.6762 -0.0425
 6119SOL    HW324209   4.356   0.608   0.285  0.1089 -1.3000  0.0530
 6119SOL    MW424210   4.318   0.574   0.356  0.1983 -0.2726 -0.7288
 6120SOL     OW24211   0.033   5.940   1.675 -0.1491 -0.7875 -0.3494
 6120SOL    HW224212   0.109   5.991   1.645 -0.4387 -0.0568  0.1385
 6120SOL    HW324213   0.065   5.849   1.678  0.5517 -0.5588 -0.6374
 6120SOL    MW424214   0.047   5.935   1.671  0.6570 -0.4369 -0.0546
 6121SOL     OW24215   0.661   6.373   2.632 -0.0684  0.0798 -0.0452
 6121SOL    HW224216   0.715   6.300   2.601  0.1683  0.1608  0.1702
 6121SOL    HW324217   0.687   6.385   2.723 -0.4179  0.1526  0.0478
 6121SOL    MW424218   0.672   6.365   2.640  0.1777 -0.1654 -0.8157
 6122SOL     OW24219   2.261   3.670   4.579  0.4620 -0.1881  0.1658
 6122SOL    HW224220   2.357   3.662   4.577  0.5230  0.6736 -1.5421
 6122SOL    HW324221   2.230   3.593   4.532  0.2997 -0.4531  0.6960
 6122SOL    MW424222   2.270   3.659   4.573 -0.6581 -0.2077  0.2896
 6123SOL     OW24223   0.993   3.794   4.771 -0.3290  0.1906 -0.1512
 6123SOL    HW224224   0.936   3.758   4.704  0.4336  3.4790 -2.8044
 6123SOL    HW324225   1.081   3.762   4.747 -0.0821  1.2102 -0.6433
 6123SOL    MW424226   0.997   3.785   4.759 -0.4708  0.1888 -0.0221
 6124SOL     OW24227   1.168   4.688   2.049  0.4165 -0.1947  0.1642
 6124SOL    HW224228   1.115   4.766   2.065 -0.4191 -0.8530  0.7019
 6124SOL    HW324229   1.107   4.615   2.059  1.3217 -0.9513  0.3210
 6124SOL    MW424230   1.153   4.688   2.052  0.1840  0.0967 -0.2013
 6125SOL     OW24231   2.021   5.253   5.348  0.7830 -0.1659 -0.1122
 6125SOL    HW224232   2.050   5.198   5.421  2.0030 -0.8654 -1.0727
 6125SOL    HW324233   2.062   5.212   5.271 -0.6729  0.3931 -1.2164
 6125SOL    MW424234   2.030   5.240   5.348  0.4779 -0.0505  0.1639
 6126SOL     OW24235   1.549   5.138   4.862  0.1786 -0.1357 -0.7170
 6126SOL    HW224236   1.470   5.181   4.829  0.9635  0.6613 -1.6324
 6126SOL    HW324237   1.519   5.083   4.934 -1.2847 -0.2570 -1.3949
 6126SOL    MW424238   1.535   5.137   4.867 -0.5951  0.8180  0.5043
 6127SOL     OW24239   0.782   4.399   6.332  0.0348  0.8441 -0.0435
 6127SOL    HW224240   0.778   4.470   6.396  2.9254  1.2311 -0.1492
 6127SOL    HW324241   0.789   4.319   6.385  0.5066  0.9885  0.1140
 6127SOL    MW424242   0.783   4.398   6.347  0.3239 -0.0656  0.1500
 6128SOL     OW24243   1.995   5.037   4.276 -0.0297  0.4162 -0.2856
 6128SOL    HW224244   1.932   5.011   4.344  3.0207 -1.9104  1.8809
 6128SOL    HW324245   1.997   4.963   4.216  1.7791 -0.3089  0.6133
 6128SOL    MW424246   1.987   5.024   4.277  0.4363 -0.2409  0.0717
 6129SOL     OW24247   5.432   3.797   5.768  0.6153 -0.4452 -0.0913
 6129SOL    HW224248   5.336   3.800   5.758  0.4363 -5.0610 -1.8836
 6129SOL    HW324249   5.446   3.814   5.861 -2.0195 -0.3950  0.3924
 6129SOL    MW424250   5.421   3.800   5.779  0.3449  0.0381  0.2246
 6130SOL     OW24251   0.488   5.945   6.156 -0.2937 -0.3643 -0.3133
 6130SOL    HW224252   0.501   6.038   6.177  1.8833 -0.1390 -2.3179
 6130SOL    HW324253   0.398   5.928   6.182 -1.1180  2.5895 -0.8102
 6130SOL    MW424254   0.478   5.955   6.162  0.1879  0.3435  0.3977
 6131SOL     OW24255   1.322   3.776   0.546 -0.0722  0.1275 -0.1044
 6131SOL    HW224256   1.324   3.736   0.633  0.2411  1.8151  0.7075
 6131SOL    HW324257   1.229   3.783   0.524 -0.1260 -1.1183 -0.3124
 6131SOL    MW424258   1.310   3.772   0.555 -0.1045  0.4131 -0.5455
 6132SOL     OW24259   3.261   1.160   2.427  0.1076 -0.5852 -0.2956
 6132SOL    HW224260   3.291   1.234   2.376  0.0529 -0.7459 -0.5623
 6132SOL    HW324261   3.284   1.083   2.374  1.2671 -0.8331  0.5181
 6132SOL    MW424262   3.268   1.159   2.413 -0.7813  0.7535  0.1082
 6133SOL     OW24263   2.508   5.027   1.075  0.5198  0.4767  0.2489
 6133SOL    HW224264   2.444   5.021   1.146 -0.0465  1.3678 -0.1763
 6133SOL    HW324265   2.566   5.099   1.101  2.2599 -1.2123  1.3251
 6133SOL    MW424266   2.507   5.036   1.088  0.4247  0.7913  0.2597
 6134SOL     OW24267   0.911   2.814   4.438 -0.5594 -0.0749 -0.3348
 6134SOL    HW224268   0.967   2.744   4.473 -0.0875  0.5878  0.2563
 6134SOL    HW324269   0.911   2.881   4.507 -0.7696  0.6342 -1.0199
 6134SOL    MW424270   0.918   2.813   4.452 -0.2955  1.0057  0.3404
 6135SOL     OW24271   4.046   1.915   1.521  0.4411  0.3801 -0.1129
 6135SOL    HW224272   4.126   1.884   1.564 -0.0983  0.8261  1.2668
 6135SOL    HW324273   3.987   1.840   1.524  0.5292  0.2992 -0.4045
 6135SOL    MW424274   4.049   1.901   1.527 -0.0540  0.1972 -0.1459
 6136SOL     OW24275   5.816   2.809   0.626 -0.2587  0.2010 -0.0428
 6136SOL    HW224276   5.786   2.770   0.708 -0.0222 -1.0691 -0.5335
 6136SOL    HW324277   5.859   2.890   0.652  0.8124 -0.7379  1.2155
 6136SOL    MW424278   5.818   2.815   0.640 -0.1130 -0.0009  0.3501
 6137SOL     OW24279   5.822   0.326   6.213  0.4316 -0.6524  0.0753
 6137SOL    HW224280   5.751   0.317   6.150  0.6733  1.9172 -0.6754
 6137SOL    HW324281   5.792   0.394   6.273  2.3622  0.7985 -0.4946
 6137SOL    MW424282   5.809   0.334   6.213  0.1852  0.1027  0.3067
 6138SOL     OW24283   1.320   0.761   4.127 -0.3667 -0.1849 -0.2754
 6138SOL    HW224284   1.240   0.744   4.177  0.2660  0.6396  1.0613
 6138SOL    HW324285   1.384   0.699   4.162  0.1780  0.6308  0.1899
 6138SOL    MW424286   1.318   0.750   4.138  1.1003  0.4515  0.3383
 6139SOL     OW24287   5.988   1.675   0.269 -0.2377 -0.2387 -0.4463
 6139SOL    HW224288   5.959   1.745   0.328 -0.6461 -0.0394 -0.8706
 6139SOL    HW324289   5.924   1.676   0.198  0.2389 -0.4835 -0.8871
 6139SOL    MW424290   5.976   1.684   0.267  0.2736 -0.5714  0.1148
 6140SOL     OW24291   2.182   5.015   0.592 -0.1160  0.4073 -0.4773
 6140SOL    HW224292   2.110   5.070   0.560 -0.3194 -0.8756 -2.4422
 6140SOL    HW324293   2.231   4.993   0.513 -0.4272 -2.7217  0.0894
 6140SOL    MW424294   2.179   5.019   0.577  0.0135  0.5603 -0.2912
 6141SOL     OW24295   2.979   4.975   3.583 -0.4378  0.1443 -0.0793
 6141SOL    HW224296   2.939   4.954   3.667  1.0356  1.4295  0.9968
 6141SOL    HW324297   2.920   5.040   3.544  0.1646  1.5195  1.1826
 6141SOL    MW424298   2.966   4.981   3.589  0.5462  0.1728  0.0600
 6142SOL     OW24299   0.109   4.653   2.219  0.1433 -0.5166 -0.1303
 6142SOL    HW224300   0.034   4.593   2.222 -0.5813  0.1774 -2.2618
 6142SOL    HW324301   0.180   4.602   2.181 -0.2879 -0.2345 -1.3488
 6142SOL    MW424302   0.108   4.638   2.215  0.2165  0.1425  0.4450
 6143SOL     OW24303   5.310   3.180   4.007 -0.5844  0.7839 -0.3242
 6143SOL    HW224304   5.355   3.183   3.923  0.5066  0.4307  0.2295
 6143SOL    HW324305   5.255   3.258   4.008  1.7614  2.5338 -0.0627
 6143SOL    MW424306   5.309   3.190   3.996  0.1430  0.3171 -0.0200
 6144SOL     OW24307   0.104   5.710   0.330 -0.2285 -0.0970  0.1367
 6144SOL    HW224308   0.154   5.628   0.339  1.4916  0.9850  0.9884
 6144SOL    HW324309   0.099   5.724   0.236  0.5070 -0.5785  0.0139
 6144SOL    MW424310   0.110   5.701   0.319 -0.1660  0.1882 -0.8605
 6145SOL     OW24311   3.767   2.530   3.822 -0.8194  0.1993 -0.5409
 6145SOL    HW224312   3.778   2.476   3.900  0.5493  0.3093 -0.6325
 6145SOL    HW324313   3.856   2.559   3.800 -1.0943 -0.3302 -2.4933
 6145SOL    MW424314   3.780   2.527   3.829 -0.2246 -0.3790  0.1955
 6146SOL     OW24315   1.719   6.169   2.588  0.2222  0.3635  0.0084
 6146SOL    HW224316   1.625   6.182   2.591  0.2499  0.4406  1.1308
 6146SOL    HW324317   1.753   6.220   2.662  1.3755  2.0044 -1.5656
 6146SOL    MW424318   1.711   6.177   2.598  0.0972 -0.9152  0.0232
 6147SOL     OW24319   5.753   3.927   5.769 -0.6786  0.2897 -0.1764
 6147SOL    HW224320   5.715   3.940   5.856 -0.5072  1.9751 -0.3220
 6147SOL    HW324321   5.678   3.920   5.710 -0.7976  0.6996 -0.0799
 6147SOL    MW424322   5.738   3.928   5.773  0.0314  0.3157  0.3523
 6148SOL     OW24323   0.965   2.739   4.171 -0.9486  0.0900  0.3291
 6148SOL    HW224324   0.937   2.770   4.257 -0.9193 -0.3403  0.4962
 6148SOL    HW324325   0.888   2.694   4.136 -0.2763 -1.7813  1.1143
 6148SOL    MW424326   0.951   2.737   4.178  0.0943 -0.3535 -0.1442
 6149SOL     OW24327   0.397   2.584   4.670  0.0739  0.2329 -0.0748
 6149SOL    HW224328   0.387   2.669   4.627 -0.6557  0.6152  0.8168
 6149SOL    HW324329   0.483   2.553   4.642  1.1237  2.0657  0.9094
 6149SOL    MW424330   0.407   2.591   4.661 -0.8109 -0.4410 -0.0401
 6150SOL     OW24331   5.864   0.518   5.730 -0.2996 -0.0748  0.1906
 6150SOL    HW224332   5.943   0.559   5.764  0.5362 -1.1336 -0.4193
 6150SOL    HW324333   5.868   0.427   5.761 -1.0270 -0.2712 -0.2552
 6150SOL    MW424334   5.875   0.511   5.739 -0.4701 -0.2109 -0.0463
 6151SOL     OW24335   4.800   3.543   3.945 -0.2440 -0.0482 -0.0391
 6151SOL    HW224336   4.709   3.565   3.966 -1.0857 -2.8456 -0.4216
 6151SOL    HW324337   4.795   3.497   3.862  1.1670 -2.4558  1.1127
 6151SOL    MW424338   4.787   3.540   3.937  0.2434  0.0191  0.1223
 6152SOL     OW24339   4.935   0.406   3.688 -0.2739 -0.2232 -0.6441
 6152SOL    HW224340   4.907   0.337   3.749 -1.7270  0.6377 -0.2842
 6152SOL    HW324341   5.029   0.416   3.705 -0.3867 -0.9056  0.5219
 6152SOL    MW424342   4.944   0.398   3.698  0.3106 -0.0176  0.0976
 6153SOL     OW24343   2.078   1.265   4.104 -0.3899  0.4390  0.2913
 6153SOL    HW224344   2.110   1.297   4.189 -0.9525  1.1644  0.2425
 6153SOL    HW324345   2.152   1.218   4.067 -0.2531 -0.2244  1.3472
 6153SOL    MW424346   2.092   1.263   4.111  0.7633 -0.1003  0.5774
 6154SOL     OW24347   3.287   0.214   5.225  0.5364 -0.0092 -0.6051
 6154SOL    HW224348   3.284   0.232   5.319  2.6956  1.0572 -0.6662
 6154SOL    HW324349   3.338   0.286   5.189  2.8232 -2.1838 -2.0612
 6154SOL    MW424350   3.293   0.226   5.233  0.0992 -0.6001 -1.0409
 6155SOL     OW24351   1.573   3.762   4.163 -0.0689 -0.0886 -0.2594
 6155SOL    HW224352   1.513   3.818   4.113  1.1745 -0.3260 -2.0921
 6155SOL    HW324353   1.648   3.819   4.181 -0.0645 -0.3182  0.4653
 6155SOL    MW424354   1.575   3.777   4.159  0.1139  0.1319 -0.5455
 6156SOL     OW24355   4.590   0.072   4.724  0.4316 -0.2543  0.2189
 6156SOL    HW224356   4.629   0.043   4.641 -0.4363  0.6865 -0.5358
 6156SOL    HW324357   4.610   0.001   4.785  1.5337 -0.7312 -0.6552
 6156SOL    MW424358   4.598   0.059   4.721 -0.2398 -0.4545  0.2930
 6157SOL     OW24359   3.655   5.568   3.640  0.1778  0.3282 -0.2148
 6157SOL    HW224360   3.724   5.505   3.662  0.3884  0.8032  0.5355
 6157SOL    HW324361   3.699   5.635   3.588 -0.1979 -0.4925 -1.6362
 6157SOL    MW424362   3.670   5.569   3.636  0.6338  0.0102  0.1666
 6158SOL     OW24363   2.876   5.865   4.979 -0.5722 -0.4028  0.6072
 6158SOL    HW224364   2.918   5.815   4.910  0.9393  1.3455  0.1653
 6158SOL    HW324365   2.882   5.809   5.056  1.6905 -0.6927  0.3087
 6158SOL    MW424366   2.882   5.851   4.980 -0.1510 -0.0262 -0.1994
 6159SOL     OW24367   5.295   6.381   6.267  1.0952  0.5365 -0.2636
 6159SOL    HW224368   5.307   6.297   6.222  2.6926  0.7760 -0.3422
 6159SOL    HW324369   5.256   6.358   6.351  0.3529 -0.1537 -0.7863
 6159SOL    MW424370   5.291   6.367   6.272 -0.2475  0.8700  0.7000
 6160SOL     OW24371   4.302   6.298   0.611 -0.5751 -0.2049  0.6630
 6160SOL    HW224372   4.376   6.238   0.603 -1.0447 -0.8396  1.0142
 6160SOL    HW324373   4.226   6.241   0.618 -1.0567  0.4396  0.7001
 6160SOL    MW424374   4.302   6.282   0.611 -0.1240  0.6188 -0.2530
 6161SOL     OW24375   5.866   0.921   4.978  0.0095 -0.4403  0.0982
 6161SOL    HW224376   5.938   0.984   4.987 -1.4052  1.3027 -0.3239
 6161SOL    HW324377   5.906   0.845   4.935  1.2857  1.0805 -1.5543
 6161SOL    MW424378   5.881   0.919   4.973  0.4367 -0.4254  0.1330
 6162SOL     OW24379   5.822   0.915   5.853 -1.2513  0.3779  0.3683
 6162SOL    HW224380   5.901   0.892   5.804 -1.4962 -0.9988  0.5791
 6162SOL    HW324381   5.849   0.988   5.908 -0.0836 -0.1502  0.5318
 6162SOL    MW424382   5.836   0.922   5.854 -0.1954 -0.3148  0.0139
 6163SOL     OW24383   4.706   4.988   2.903  0.1803 -0.5243  0.3265
 6163SOL    HW224384   4.678   5.077   2.925 -0.2353  0.0564 -2.2464
 6163SOL    HW324385   4.652   4.931   2.958 -0.8543  0.7705  0.7042
 6163SOL    MW424386   4.695   4.992   2.913 -0.5914 -0.0042 -0.2974
 6164SOL     OW24387   4.288   1.513   0.917  0.0783 -0.0368  0.6666
 6164SOL    HW224388   4.284   1.573   0.842  0.3032 -0.3964  0.3641
 6164SOL    HW324389   4.316   1.568   0.991 -0.4614  0.3841  0.5577
 6164SOL    MW424390   4.291   1.528   0.917 -0.4365 -0.4986 -0.7634
 6165SOL     OW24391   4.708   2.642   5.730 -0.3061  0.6754 -0.5325
 6165SOL    HW224392   4.690   2.588   5.806 -0.1938  0.5175 -0.6177
 6165SOL    HW324393   4.803   2.645   5.724 -0.3150  0.6348 -0.7036
 6165SOL    MW424394   4.718   2.635   5.739  0.1067  0.1190  0.0133
 6166SOL     OW24395   5.865   0.272   0.994  0.0457  0.2808 -0.2101
 6166SOL    HW224396   5.887   0.361   1.023  0.5154  0.0916  0.0295
 6166SOL    HW324397   5.831   0.229   1.072 -0.0076  0.1966 -0.2803
 6166SOL    MW424398   5.864   0.278   1.008  1.1823  0.3979 -0.7125
 6167SOL     OW24399   0.343   5.729   3.046  0.2932  0.2560  0.3548
 6167SOL    HW224400   0.423   5.766   3.008  1.0910 -0.2848  1.4504
 6167SOL    HW324401   0.373   5.681   3.123 -0.8521 -1.5735 -0.2738
 6167SOL    MW424402   0.358   5.728   3.051  0.4060 -0.0939 -0.0215
 6168SOL     OW24403   4.353   3.557   3.784  0.5257 -0.6666  0.4450
 6168SOL    HW224404   4.411   3.589   3.714 -0.0966  2.1165  1.0762
 6168SOL    HW324405   4.410   3.545   3.859  0.7453 -0.8061  0.2573
 6168SOL    MW424406   4.368   3.560   3.784  0.3058 -0.1472 -0.2882
 6169SOL     OW24407   5.383   4.336   0.851  0.0290 -0.4940 -0.1589
 6169SOL    HW224408   5.396   4.281   0.774 -0.5183  1.1797 -1.5152
 6169SOL    HW324409   5.446   4.408   0.841 -1.6829  1.0593 -0.3974
 6169SOL    MW424410   5.393   4.338   0.840 -0.1094  0.0492 -0.4024
 6170SOL     OW24411   3.257   5.931   6.422  0.1505 -0.2661  0.0293
 6170SOL    HW224412   3.303   5.950   6.340  0.3305 -0.7157  0.0214
 6170SOL    HW324413   3.308   5.860   6.462  0.3170  0.2361  0.7375
 6170SOL    MW424414   3.270   5.924   6.417 -0.0018  0.3621  0.0400
 6171SOL     OW24415   3.983   5.505   2.866 -0.1108  0.1253  0.0307
 6171SOL    HW224416   3.917   5.456   2.916  0.8809 -1.2838  0.0348
 6171SOL    HW324417   4.055   5.443   2.856 -0.2781  0.2803 -3.2274
 6171SOL    MW424418   3.984   5.490   2.871 -0.6305  0.0456  0.0081
 6172SOL     OW24419   3.070   0.208   1.091  0.1194  0.6455  0.2290
 6172SOL    HW224420   3.125   0.133   1.109 -1.6551 -1.1082 -1.1343
 6172SOL    HW324421   3.092   0.272   1.159  1.6097 -1.1267  1.5057
 6172SOL    MW424422   3.080   0.207   1.102  0.1489 -0.1527  0.2218
 6173SOL     OW24423   4.194   3.977   5.110  0.2920  0.2472 -0.2624
 6173SOL    HW224424   4.243   3.925   5.047 -0.2867  0.0497 -0.5590
 6173SOL    HW324425   4.163   3.913   5.175  1.5764  0.5548  0.6994
 6173SOL    MW424426   4.196   3.961   5.110  0.1175  0.1733 -0.3794
 6174SOL     OW24427   4.646   1.268   0.702  0.5175  0.2421  0.3329
 6174SOL    HW224428   4.559   1.268   0.743  0.9940  0.3255  1.3693
 6174SOL    HW324429   4.648   1.187   0.652 -1.0065  1.3091 -1.6087
 6174SOL    MW424430   4.635   1.257   0.701 -0.0823  0.2006 -0.5371
 6175SOL     OW24431   1.083   5.310   3.786  0.2295  0.1903  0.5798
 6175SOL    HW224432   1.101   5.286   3.695  0.3402 -0.9028  0.8744
 6175SOL    HW324433   1.151   5.373   3.808 -0.2328  1.0312 -0.3132
 6175SOL    MW424434   1.094   5.315   3.777 -0.6754  0.1377  0.0906
 6176SOL     OW24435   4.477   5.607   6.182 -0.6468  0.2764 -0.4435
 6176SOL    HW224436   4.431   5.538   6.133 -1.7780  0.8531 -0.2311
 6176SOL    HW324437   4.567   5.604   6.149 -1.0248 -0.3394 -1.4804
 6176SOL    MW424438   4.483   5.597   6.171  0.3425 -0.3806 -0.5293
 6177SOL     OW24439   0.594   4.140   2.842  0.2539 -0.6130 -0.2245
 6177SOL    HW224440   0.644   4.206   2.890 -0.8505 -0.7246  1.1410
 6177SOL    HW324441   0.535   4.103   2.907  0.7998 -2.9286 -0.9473
 6177SOL    MW424442   0.593   4.144   2.857  0.2561 -0.1923  0.1060
 6178SOL     OW24443   3.419   0.768   5.788 -0.1339 -0.0529 -0.6433
 6178SOL    HW224444   3.501   0.728   5.757 -1.6624 -2.6395 -1.7009
 6178SOL    HW324445   3.365   0.693   5.815 -2.0288  1.6008  0.3977
 6178SOL    MW424446   3.423   0.753   5.788 -0.0194 -0.5677  0.3382
 6179SOL     OW24447   4.164   4.842   5.403  0.3927  0.0952 -0.7242
 6179SOL    HW224448   4.139   4.859   5.494  2.3965 -0.0424 -0.0843
 6179SOL    HW324449   4.114   4.764   5.378 -1.1198  0.8649 -0.1880
 6179SOL    MW424450   4.154   4.834   5.412 -0.2317 -1.1655 -0.1540
 6180SOL     OW24451   2.882   5.637   0.546  0.1042  0.1369 -0.2770
 6180SOL    HW224452   2.891   5.728   0.518  2.4617 -0.8455 -3.2767
 6180SOL    HW324453   2.790   5.616   0.532 -0.8644  2.3718  1.9644
 6180SOL    MW424454   2.871   5.646   0.541 -0.6545 -0.4340 -0.8011
 6181SOL     OW24455   0.341   4.853   2.481 -0.4078  0.1624  0.9886
 6181SOL    HW224456   0.353   4.947   2.468 -2.2289  0.3022  0.0389
 6181SOL    HW324457   0.251   4.836   2.453  0.6697 -2.3072 -1.4455
 6181SOL    MW424458   0.331   4.863   2.476 -0.6623 -0.5195  0.2823
 6182SOL     OW24459   0.252   0.164   1.059 -0.2215 -0.4843  0.2943
 6182SOL    HW224460   0.173   0.145   1.110  0.8682  0.7154  2.6257
 6182SOL    HW324461   0.321   0.113   1.102  0.4585 -0.8452 -1.1630
 6182SOL    MW424462   0.251   0.155   1.071 -0.4486  0.1750  0.3239
 6183SOL     OW24463   5.189   3.499   5.755  0.2029  0.1457  0.1096
 6183SOL    HW224464   5.101   3.498   5.793  0.8877  0.5108  1.7872
 6183SOL    HW324465   5.226   3.413   5.777  0.4503  0.1927 -0.1143
 6183SOL    MW424466   5.182   3.487   5.763 -0.0130 -0.4530 -0.0942
 6184SOL     OW24467   2.718   1.651   0.898  0.2594  1.2956 -0.5520
 6184SOL    HW224468   2.729   1.731   0.846 -1.2769  1.9904  0.1247
 6184SOL    HW324469   2.768   1.584   0.851 -0.4492  2.0674 -2.4908
 6184SOL    MW424470   2.726   1.653   0.885  0.1992  0.6538  0.2223
 6185SOL     OW24471   0.634   0.832   1.989  0.1726  0.1055 -0.0522
 6185SOL    HW224472   0.638   0.920   1.951 -0.7258  0.0801 -0.2446
 6185SOL    HW324473   0.641   0.773   1.914  0.8036  0.0094  0.0795
 6185SOL    MW424474   0.635   0.836   1.974 -0.2745 -0.3524  0.2256
 6186SOL     OW24475   4.625   4.365   5.668 -0.3273  0.5431  0.5810
 6186SOL    HW224476   4.680   4.434   5.629 -0.3317 -0.8168 -2.1167
 6186SOL    HW324477   4.535   4.395   5.654 -0.3075  0.6893  0.7777
 6186SOL    MW424478   4.620   4.378   5.661  0.0291 -0.0826  0.0006
 6187SOL     OW24479   4.630   1.121   0.099  0.4244  0.1263 -0.2492
 6187SOL    HW224480   4.694   1.184   0.133 -0.7274  1.7433 -0.9569
 6187SOL    HW324481   4.656   1.108   0.008 -0.2916  0.8916 -0.5777
 6187SOL    MW424482   4.642   1.127   0.092 -0.4432 -0.1912  0.2024
 6188SOL     OW24483   0.396   3.618   3.939  0.2371 -0.2287  1.0502
 6188SOL    HW224484   0.429   3.537   3.901 -2.5332 -0.4788 -1.2005
 6188SOL    HW324485   0.436   3.687   3.885 -1.1699 -0.4354 -0.3524
 6188SOL    MW424486   0.405   3.616   3.927 -0.5568 -0.4115 -1.1657
 6189SOL     OW24487   1.543   5.331   2.077 -0.1520 -0.5568 -0.9944
 6189SOL    HW224488   1.458   5.327   2.035 -0.0128  1.7133 -1.5862
 6189SOL    HW324489   1.544   5.255   2.136 -3.2791  0.3125  0.3418
 6189SOL    MW424490   1.532   5.320   2.080  0.6809  0.3474  0.1711
 6190SOL     OW24491   3.501   0.762   6.281 -0.2031 -0.5284  0.6291
 6190SOL    HW224492   3.567   0.827   6.259 -0.0909 -0.5509  0.8942
 6190SOL    HW324493   3.496   0.706   6.203  1.2941 -1.5252  1.2091
 6190SOL    MW424494   3.509   0.763   6.268  0.2144 -0.0339 -0.0164
 6191SOL     OW24495   4.548   2.137   5.152  0.0971  0.3286 -0.0654
 6191SOL    HW224496   4.580   2.061   5.104 -1.8493  0.4257 -1.6452
 6191SOL    HW324497   4.459   2.152   5.118 -0.9942  1.0873  2.8245
 6191SOL    MW424498   4.540   2.129   5.141 -0.3458  0.3431  0.2252
 6192SOL     OW24499   3.824   1.025   3.263 -0.0770 -0.2316  0.1730
 6192SOL    HW224500   3.766   0.976   3.205  1.4472 -0.4755 -1.2101
 6192SOL    HW324501   3.769   1.093   3.300 -1.0279  0.1907 -1.8934
 6192SOL    MW424502   3.809   1.027   3.260  0.3790  0.5870  0.2621
 6193SOL     OW24503   4.286   1.425   0.151  0.7351 -0.0861  0.1645
 6193SOL    HW224504   4.350   1.380   0.096  1.6938 -0.0671  1.2389
 6193SOL    HW324505   4.327   1.508   0.174 -1.7428  2.4543 -3.4041
 6193SOL    MW424506   4.300   1.430   0.147 -0.0992 -0.1702 -0.5534
 6194SOL     OW24507   0.160   3.628   1.944 -0.6060  0.3496  0.1119
 6194SOL    HW224508   0.239   3.662   1.903  0.3449  0.8651  2.2424
 6194SOL    HW324509   0.094   3.632   1.875  1.0770  0.3665 -1.5840
 6194SOL    MW424510   0.161   3.633   1.929 -0.3798  0.6913 -0.9815
 6195SOL     OW24511   2.780   3.344   1.248 -0.0295  0.0414  0.2069
 6195SOL    HW224512   2.788   3.382   1.335 -0.0759  0.3628  0.0750
 6195SOL    HW324513   2.739   3.259   1.261  1.9079 -0.8709  0.7290
 6195SOL    MW424514   2.776   3.338   1.261 -0.2843 -0.3779  0.3376
 6196SOL     OW24515   1.625   3.233   4.798  0.6121  0.0569  0.3384
 6196SOL    HW224516   1.631   3.210   4.891  0.4487 -1.3214  0.0379
 6196SOL    HW324517   1.534   3.214   4.775  0.4649  1.0663  0.0420
 6196SOL    MW424518   1.614   3.227   4.808  0.4155 -0.4686  0.0936
 6197SOL     OW24519   3.105   0.279   5.753  0.1932 -0.0992  0.3263
 6197SOL    HW224520   3.178   0.267   5.814 -0.0876 -2.0517  0.3323
 6197SOL    HW324521   3.037   0.319   5.806  0.6994  0.2607  0.7235
 6197SOL    MW424522   3.106   0.283   5.768 -0.0856 -0.0623 -0.0476
 6198SOL     OW24523   0.630   3.970   5.570 -0.3936 -0.2000  0.1761
 6198SOL    HW224524   0.617   3.935   5.658  2.8933  0.2098  0.9412
 6198SOL    HW324525   0.646   4.063   5.582  0.9832 -0.2933 -0.7417
 6198SOL    MW424526   0.630   3.977   5.583 -0.3601 -0.1946  0.4720
 6199SOL     OW24527   2.461   1.674   4.684 -0.0602  0.0770 -0.4892
 6199SOL    HW224528   2.436   1.585   4.660  0.6451  0.3854 -2.4896
 6199SOL    HW324529   2.492   1.666   4.774 -0.5822 -1.5768 -0.4238
 6199SOL    MW424530   2.462   1.662   4.693  0.4977  0.0103 -0.3344
 6200SOL     OW24531   3.995   3.408   4.949 -0.1861  0.4988  0.0035
 6200SOL    HW224532   4.019   3.340   4.886 -1.0870 -1.9183  2.0961
 6200SOL    HW324533   3.928   3.368   5.004 -0.7127  3.0883  1.4327
 6200SOL    MW424534   3.989   3.394   4.948  0.6094  0.3893 -0.1266
 6201SOL     OW24535   1.873   2.672   3.257 -0.4461  0.3508 -0.3988
 6201SOL    HW224536   1.942   2.665   3.191  0.7308  0.4927  0.7851
 6201SOL    HW324537   1.854   2.765   3.263  0.4750  0.5012  0.4605
 6201SOL    MW424538   1.880   2.683   3.249 -0.1011  0.2865 -0.2299
 6202SOL     OW24539   5.085   1.326   2.444  0.9081 -0.1532 -0.3446
 6202SOL    HW224540   5.001   1.351   2.404  1.5512  3.0036  0.0842
 6202SOL    HW324541   5.149   1.334   2.373  1.2099 -0.2771 -0.0880
 6202SOL    MW424542   5.082   1.330   2.429 -0.1165 -0.3917  0.5563
 6203SOL     OW24543   3.475   2.992   2.361 -0.5858 -0.0542  0.5792
 6203SOL    HW224544   3.486   3.012   2.454 -0.5824  0.4726  0.4673
 6203SOL    HW324545   3.385   2.959   2.354  0.0650 -2.0946  1.1008
 6203SOL    MW424546   3.464   2.990   2.372  0.1907 -0.0568 -0.2784
 6204SOL     OW24547   2.527   0.744   1.602 -0.0434 -0.1680  0.0771
 6204SOL    HW224548   2.603   0.799   1.582 -0.7116  0.4590 -0.7707
 6204SOL    HW324549   2.463   0.764   1.534 -0.3581 -1.9154 -0.1856
 6204SOL    MW424550   2.529   0.754   1.591 -0.1930 -0.3496  0.7138
 6205SOL     OW24551   2.639   5.865   2.836  0.4220 -0.1716 -0.1502
 6205SOL    HW224552   2.705   5.798   2.819 -0.0475 -0.7143  0.0858
 6205SOL    HW324553   2.566   5.816   2.876 -0.3701  0.2970 -0.9891
 6205SOL    MW424554   2.638   5.849   2.839 -0.1209 -0.4693  0.1069
 6206SOL     OW24555   5.349   5.281   3.081  0.0211 -0.4359 -0.2965
 6206SOL    HW224556   5.309   5.356   3.126 -0.6796  0.0291 -1.6436
 6206SOL    HW324557   5.276   5.240   3.034  0.3644 -2.0714  0.5115
 6206SOL    MW424558   5.334   5.285   3.081 -0.0652 -0.1802  0.1776
 6207SOL     OW24559   3.646   5.014   4.344  0.2697 -0.8171  0.0458
 6207SOL    HW224560   3.731   4.976   4.320  0.3093 -1.1119  0.6485
 6207SOL    HW324561   3.664   5.108   4.352  0.2062 -0.6728 -1.2881
 6207SOL    MW424562   3.660   5.022   4.342 -0.2969 -0.0330 -0.5262
 6208SOL     OW24563   4.697   6.265   1.198 -0.1678 -0.1213  0.0247
 6208SOL    HW224564   4.686   6.176   1.164  0.7835 -0.0177 -0.6006
 6208SOL    HW324565   4.689   6.321   1.122 -0.8592  0.3487  0.4342
 6208SOL    MW424566   4.695   6.260   1.184 -0.3397 -0.5977 -0.1393
 6209SOL     OW24567   1.794   1.827   4.000  0.6225 -0.2341  0.4302
 6209SOL    HW224568   1.873   1.779   3.975  0.1172 -0.1860 -1.4811
 6209SOL    HW324569   1.738   1.820   3.923 -1.2112 -0.1890  1.7083
 6209SOL    MW424570   1.797   1.819   3.986  0.1412 -0.0642  0.0640
 6210SOL     OW24571   2.470   0.245   0.286 -0.1666  0.2069  0.6898
 6210SOL    HW224572   2.512   0.180   0.231 -2.7852 -1.5060  0.4985
 6210SOL    HW324573   2.527   0.322   0.282  2.0602 -1.4072 -0.6483
 6210SOL    MW424574   2.483   0.247   0.278  0.9136  0.0174  0.2421
 6211SOL     OW24575   5.915   4.540   0.360  0.1245  0.1492 -0.3004
 6211SOL    HW224576   5.926   4.445   0.357  2.6874  0.3804 -2.8973
 6211SOL    HW324577   5.997   4.572   0.398 -0.7078  1.3573  0.5489
 6211SOL    MW424578   5.928   4.532   0.365 -0.1348  0.0556  0.1480
 6212SOL     OW24579   3.565   2.903   0.611 -0.4271  0.4277 -0.1275
 6212SOL    HW224580   3.522   2.974   0.658  0.1924  0.6991  0.0355
 6212SOL    HW324581   3.645   2.941   0.576  0.4900 -0.4409  0.9129
 6212SOL    MW424582   3.570   2.917   0.613 -0.2983  0.2703 -0.4747
 6213SOL     OW24583   2.119   1.946   2.267  0.1667  0.1699  0.0206
 6213SOL    HW224584   2.213   1.941   2.250  0.3569 -0.9316  1.1906
 6213SOL    HW324585   2.103   2.037   2.289  1.5465 -0.1158  2.6614
 6213SOL    MW424586   2.129   1.957   2.268  0.3169 -0.6818 -0.6972
 6214SOL     OW24587   1.662   5.143   6.142  0.2622 -0.2997  0.1831
 6214SOL    HW224588   1.609   5.221   6.159 -0.7089 -0.9754  0.3578
 6214SOL    HW324589   1.631   5.111   6.058  0.1249 -0.9236  0.4681
 6214SOL    MW424590   1.651   5.149   6.133 -0.0216  0.5690 -0.1773
 6215SOL     OW24591   0.501   1.353   5.005  0.1821 -0.1458  0.0421
 6215SOL    HW224592   0.464   1.420   5.062  0.3562 -1.1930  1.4570
 6215SOL    HW324593   0.580   1.324   5.051 -0.5031 -2.1174  0.0786
 6215SOL    MW424594   0.507   1.358   5.019  0.7644 -0.1520 -0.6098
 6216SOL     OW24595   5.904   4.763   5.246  0.3129  0.3279 -0.8455
 6216SOL    HW224596   5.832   4.826   5.252  1.4145  1.5089  0.8465
 6216SOL    HW324597   5.863   4.678   5.262 -0.4817  1.1651  2.2735
 6216SOL    MW424598   5.889   4.760   5.249  0.2258  0.5138  0.6810
 6217SOL     OW24599   3.598   3.348   2.610  0.3729  1.1725 -0.1300
 6217SOL    HW224600   3.606   3.381   2.699  0.1372  0.7343  0.0560
 6217SOL    HW324601   3.593   3.427   2.555 -0.2243  1.4483  0.3103
 6217SOL    MW424602   3.598   3.363   2.614 -0.6235 -0.3670  0.2407
 6218SOL     OW24603   2.521   4.883   4.063  0.0171 -0.0867  0.0489
 6218SOL    HW224604   2.492   4.974   4.074  0.4127  0.0369  0.0644
 6218SOL    HW324605   2.577   4.884   3.986  3.0557  0.4236  2.0578
 6218SOL    MW424606   2.524   4.895   4.055  0.3135 -0.3212  0.5922
 6219SOL     OW24607   4.022   0.696   5.798  0.5188  0.3685  0.2385
 6219SOL    HW224608   4.090   0.634   5.770 -0.1098 -0.0603 -0.3642
 6219SOL    HW324609   4.016   0.759   5.726 -0.8215 -0.5026 -0.4328
 6219SOL    MW424610   4.030   0.696   5.785 -0.6361  0.7809  0.0363
 6220SOL     OW24611   5.573   1.657   1.147 -0.3305 -0.1337  0.7480
 6220SOL    HW224612   5.546   1.698   1.229  0.1679  0.9294  0.4059
 6220SOL    HW324613   5.547   1.720   1.079 -1.3767 -1.3224  0.0209
 6220SOL    MW424614   5.566   1.671   1.148  0.4332 -0.4469  0.0143
 6221SOL     OW24615   3.243   6.301   6.110 -0.0847 -0.1262 -0.1432
 6221SOL    HW224616   3.205   6.377   6.153 -1.7386 -0.5819 -0.7326
 6221SOL    HW324617   3.182   6.280   6.039 -0.5102 -2.8737  0.9108
 6221SOL    MW424618   3.230   6.308   6.107  0.2767 -0.8100  0.4087
 6222SOL     OW24619   1.044   5.051   0.737 -0.0937  0.1108 -0.7277
 6222SOL    HW224620   1.034   5.048   0.642 -1.0495  0.6735 -0.6657
 6222SOL    HW324621   0.984   4.983   0.769  1.4293 -1.2217 -0.5636
 6222SOL    MW424622   1.035   5.042   0.729  0.3322 -0.2006 -0.3889
 6223SOL     OW24623   1.137   2.598   3.752  0.1879  0.0402  0.3539
 6223SOL    HW224624   1.140   2.658   3.827  0.7034  1.1649 -0.5229
 6223SOL    HW324625   1.191   2.642   3.686  0.3297 -1.2764 -0.4248
 6223SOL    MW424626   1.145   2.612   3.754 -1.2629 -0.1742  0.1005
 6224SOL     OW24627   2.314   4.565   6.271 -0.5444  0.8538 -0.4367
 6224SOL    HW224628   2.369   4.512   6.328 -1.9371 -0.5475 -0.3257
 6224SOL    HW324629   2.367   4.580   6.193  0.5958  0.9947  0.3441
 6224SOL    MW424630   2.328   4.560   6.268  0.5463 -0.1033 -0.1850
 6225SOL     OW24631   6.385   5.638   5.353  0.1754 -0.6056 -0.0129
 6225SOL    HW224632   6.435   5.557   5.360  0.1858 -0.7380 -1.2912
 6225SOL    HW324633   6.294   5.609   5.350  0.2218 -0.7470 -1.9181
 6225SOL    MW424634   6.380   5.623   5.353  0.8796  0.2228 -0.5466
 6226SOL     OW24635   4.755   4.782   4.662 -0.0458 -0.1067  0.0193
 6226SOL    HW224636   4.760   4.806   4.755  0.6184  1.0706 -0.3077
 6226SOL    HW324637   4.701   4.851   4.623 -2.0186 -1.6623 -0.1468
 6226SOL    MW424638   4.748   4.794   4.669  0.2239  0.4090 -0.0430
 6227SOL     OW24639   3.122   3.140   2.948 -0.7307  0.1507  0.5542
 6227SOL    HW224640   3.189   3.202   2.920 -0.5872 -1.0031 -1.9007
 6227SOL    HW324641   3.040   3.179   2.919 -0.7802 -0.1287  0.3188
 6227SOL    MW424642   3.120   3.153   2.941 -0.2821 -0.3779 -0.1890
 6228SOL     OW24643   2.586   0.121   4.944  0.1795  0.0175  0.4044
 6228SOL    HW224644   2.626   0.128   5.031  1.5755  0.7920 -0.2610
 6228SOL    HW324645   2.568   0.027   4.933  1.3545 -0.2920  0.9615
 6228SOL    MW424646   2.589   0.109   4.954  0.1769  0.1977 -0.5043
 6229SOL     OW24647   1.076   0.281   5.879  0.5327  0.0751  0.0891
 6229SOL    HW224648   1.147   0.224   5.849  1.1172  1.2722 -0.8685
 6229SOL    HW324649   1.077   0.271   5.974  2.9326  1.1230  0.2482
 6229SOL    MW424650   1.086   0.272   5.888  0.3512 -0.2669 -0.3699
 6230SOL     OW24651   0.119   5.149   0.157  0.0658 -0.2718  0.2831
 6230SOL    HW224652   0.037   5.107   0.183  0.1812 -2.0996 -2.0051
 6230SOL    HW324653   0.096   5.202   0.081  0.7366  0.5762  0.6465
 6230SOL    MW424654   0.105   5.151   0.151  0.0637 -0.0894 -0.4999
 6231SOL     OW24655   0.006   1.683   0.658  0.0235  0.2333 -0.7770
 6231SOL    HW224656  -0.005   1.595   0.693 -2.8982 -0.3473 -2.8239
 6231SOL    HW324657   0.074   1.674   0.592 -0.2651 -0.5086 -0.9818
 6231SOL    MW424658   0.014   1.670   0.654 -0.0743  0.0094 -0.1833
 6232SOL     OW24659   1.398   2.746   1.941 -0.4665  0.0468  0.0711
 6232SOL    HW224660   1.354   2.756   2.026 -1.8026  0.7977 -0.6757
 6232SOL    HW324661   1.383   2.830   1.897  0.7072 -0.1263 -0.7044
 6232SOL    MW424662   1.390   2.759   1.947  0.0899 -0.2926  0.4099
 6233SOL     OW24663   1.220   2.181   0.864 -0.2427 -0.4485  0.2407
 6233SOL    HW224664   1.278   2.236   0.916  0.8994 -1.4688  0.0793
 6233SOL    HW324665   1.155   2.242   0.829  1.6744  1.0618 -0.9332
 6233SOL    MW424666   1.219   2.196   0.866  0.1764 -0.1215 -0.2058
 6234SOL     OW24667   6.094   4.345   6.362 -0.2271 -0.3162 -0.0127
 6234SOL    HW224668   6.182   4.341   6.399  0.5886 -0.0708 -1.8156
 6234SOL    HW324669   6.054   4.261   6.386  1.2057 -1.2741 -0.8241
 6234SOL    MW424670   6.101   4.333   6.370 -0.0246 -0.0849 -0.5396
 6235SOL     OW24671   2.388   5.115   6.411 -0.1169  0.5033  0.1676
 6235SOL    HW224672   2.375   5.020   6.409 -2.4272  0.7813 -0.9681
 6235SOL    HW324673   2.385   5.137   6.504  2.4312 -0.6921  0.6325
 6235SOL    MW424674   2.386   5.105   6.423 -0.5449  0.0704  0.1989
 6236SOL     OW24675   3.674   6.212   1.106 -0.1139  0.0107  0.6131
 6236SOL    HW224676   3.723   6.213   1.189  1.2513 -0.7431 -0.1451
 6236SOL    HW324677   3.595   6.162   1.126 -1.1226  2.0337  2.1112
 6236SOL    MW424678   3.670   6.206   1.120 -0.1631 -0.6661  0.7591
 6237SOL     OW24679   1.289   3.000   1.884 -0.1950 -0.6277  0.3130
 6237SOL    HW224680   1.365   3.054   1.908 -0.7562 -0.2900  1.4249
 6237SOL    HW324681   1.214   3.055   1.906 -0.7671 -0.9850 -0.7069
 6237SOL    MW424682   1.289   3.015   1.890 -0.1009 -0.3552  0.3470
 6238SOL     OW24683   4.198   3.268   1.925  0.2339  0.3754  0.6113
 6238SOL    HW224684   4.202   3.174   1.943  0.5458  0.0380 -1.0859
 6238SOL    HW324685   4.158   3.306   2.004 -1.0915 -1.3189  0.8009
 6238SOL    MW424686   4.194   3.261   1.938  0.5488  0.2319  0.0602
 6239SOL     OW24687   2.405   5.465   2.376  0.4699 -0.6175  0.1278
 6239SOL    HW224688   2.344   5.524   2.331  0.0731  0.0081  1.4265
 6239SOL    HW324689   2.489   5.511   2.375  1.2959 -1.9565 -2.6404
 6239SOL    MW424690   2.408   5.479   2.370  0.4936  0.5674 -0.4454
 6240SOL     OW24691   1.993   0.147   5.551 -0.1737  0.3791 -0.4308
 6240SOL    HW224692   1.959   0.220   5.499  1.2670  2.0239  0.8499
 6240SOL    HW324693   2.055   0.104   5.493  1.2021  2.0188 -0.2492
 6240SOL    MW424694   1.996   0.151   5.536  1.0584  0.3279  0.2886
 6241SOL     OW24695   4.234   2.603   1.792 -0.2288 -0.2895 -0.0279
 6241SOL    HW224696   4.288   2.682   1.797 -0.1763 -0.3620  0.6135
 6241SOL    HW324697   4.145   2.636   1.779 -0.0069 -0.1774 -1.4916
 6241SOL    MW424698   4.229   2.618   1.791 -0.1884 -0.2008  0.3484
 6242SOL     OW24699   2.078   0.905   0.930 -0.2165 -0.5730  0.1320
 6242SOL    HW224700   1.985   0.914   0.909  0.0224  0.3200 -0.5988
 6242SOL    HW324701   2.093   0.967   1.001 -0.0753 -0.3288 -0.1075
 6242SOL    MW424702   2.068   0.914   0.936  0.3974  0.2167 -0.0998
 6243SOL     OW24703   5.875   6.220   5.529  0.2797  0.8894  0.7507
 6243SOL    HW224704   5.887   6.314   5.547  1.2900  1.2950 -1.5674
 6243SOL    HW324705   5.944   6.200   5.465 -0.3495 -1.2955  0.6894
 6243SOL    MW424706   5.886   6.230   5.523  0.1513 -0.7065 -0.4197
 6244SOL     OW24707   4.890   2.590   2.385  0.6819  0.1694 -0.2658
 6244SOL    HW224708   4.795   2.587   2.373  0.4108  1.1431  1.3719
 6244SOL    HW324709   4.925   2.595   2.296 -0.8141  0.1060 -0.8867
 6244SOL    MW424710   4.882   2.590   2.371 -0.2704 -0.1872  0.0042
 6245SOL     OW24711   1.364   3.313   0.503  0.4080  0.0401 -0.0195
 6245SOL    HW224712   1.271   3.318   0.482  0.5421  0.7806 -0.4774
 6245SOL    HW324713   1.381   3.220   0.516  0.0828 -0.3927 -2.2416
 6245SOL    MW424714   1.354   3.301   0.502  0.3215  0.1256 -0.3612
 6246SOL     OW24715   3.029   4.394   5.486 -0.1809  0.0725  0.1525
 6246SOL    HW224716   3.118   4.426   5.475  0.6681 -2.1799 -0.1048
 6246SOL    HW324717   3.001   4.366   5.399 -2.0178  2.6655 -0.2055
 6246SOL    MW424718   3.037   4.395   5.473 -0.3961 -0.8105 -0.1890
 6247SOL     OW24719   0.518   5.435   4.005  0.1221  0.1881 -0.3243
 6247SOL    HW224720   0.469   5.377   4.063 -0.8241  1.5018  0.2508
 6247SOL    HW324721   0.520   5.389   3.921 -1.4765 -0.2480 -0.1641
 6247SOL    MW424722   0.511   5.421   4.002  0.0329 -0.1187  0.4434
 6248SOL     OW24723   2.033   3.356   5.990  0.6975  0.0927  0.2752
 6248SOL    HW224724   2.034   3.452   5.990 -1.3014  0.1600  0.8879
 6248SOL    HW324725   2.073   3.332   5.906 -1.9362  1.5950 -1.5818
 6248SOL    MW424726   2.039   3.366   5.979  0.3675  0.1487  0.2099
 6249SOL     OW24727   4.291   0.162   3.181  0.2732 -0.4157  0.1490
 6249SOL    HW224728   4.229   0.233   3.199  0.4460 -1.0111  3.7971
 6249SOL    HW324729   4.371   0.206   3.153  0.3263  0.8945  2.1531
 6249SOL    MW424730   4.293   0.177   3.180  0.3917  1.1000 -0.9447
 6250SOL     OW24731   1.317   0.409   2.440  0.5806  0.5262 -0.1191
 6250SOL    HW224732   1.304   0.456   2.522  1.0275  2.0019 -0.8655
 6250SOL    HW324733   1.411   0.412   2.425  0.4435  0.8108 -0.9892
 6250SOL    MW424734   1.328   0.416   2.449 -0.7518  0.0877  0.0494
 6251SOL     OW24735   0.853   4.573   6.115  0.5556  0.3129 -0.2311
 6251SOL    HW224736   0.805   4.516   6.175 -0.7938  1.1252 -0.4915
 6251SOL    HW324737   0.842   4.661   6.151 -0.3404  0.8229 -1.6836
 6251SOL    MW424738   0.845   4.578   6.128  0.1542 -0.5602  0.0299
 6252SOL     OW24739   2.046   1.377   2.621 -0.3892  0.1919 -0.0023
 6252SOL    HW224740   1.972   1.425   2.583  0.3735  0.0601 -1.7293
 6252SOL    HW324741   2.104   1.358   2.547  0.1436 -1.9610  0.8683
 6252SOL    MW424742   2.044   1.381   2.606 -0.3353  0.4866  0.0920
 6253SOL     OW24743   4.179   4.472   6.090  0.0379 -0.3671 -0.4031
 6253SOL    HW224744   4.135   4.430   6.016  2.4053  0.3682 -2.3654
 6253SOL    HW324745   4.124   4.548   6.110 -0.8101 -0.7452 -1.2115
 6253SOL    MW424746   4.166   4.476   6.083  0.6964 -0.6227 -0.4928
 6254SOL     OW24747   0.719   4.464   5.414 -0.2947  0.3786  0.6613
 6254SOL    HW224748   0.646   4.428   5.363  0.2113 -0.0972  0.2521
 6254SOL    HW324749   0.790   4.475   5.350 -0.4818  2.3335  0.7212
 6254SOL    MW424750   0.719   4.461   5.399  0.6161  0.0441  0.9777
 6255SOL     OW24751   4.163   2.363   4.463  0.3996  0.0154  0.2442
 6255SOL    HW224752   4.163   2.268   4.473 -1.3190 -0.1696 -1.0971
 6255SOL    HW324753   4.104   2.395   4.530  0.4578  0.0813  0.2643
 6255SOL    MW424754   4.155   2.355   4.473 -0.0244  0.0987  0.1076
 6256SOL     OW24755   6.299   1.029   2.010  0.1141 -0.1844  0.6079
 6256SOL    HW224756   6.370   1.072   2.057  1.5747  0.1789 -1.7483
 6256SOL    HW324757   6.309   0.936   2.029  3.5871 -0.6377 -2.3288
 6256SOL    MW424758   6.310   1.023   2.018  0.2726  0.1014 -0.2071
 6257SOL     OW24759   4.342   4.203   1.047 -0.8412  0.7952 -0.1188
 6257SOL    HW224760   4.332   4.295   1.022 -1.2352  1.4708  2.2659
 6257SOL    HW324761   4.372   4.206   1.138 -1.1339 -1.4393  0.1056
 6257SOL    MW424762   4.344   4.215   1.056  0.3504 -0.7130  0.2785
 6258SOL     OW24763   1.205   4.867   0.544  0.0223 -0.5234 -0.0561
 6258SOL    HW224764   1.261   4.926   0.594  0.9477 -0.9698 -0.5364
 6258SOL    HW324765   1.264   4.828   0.479 -0.8907 -0.8716 -0.6886
 6258SOL    MW424766   1.220   4.870   0.542  0.2299 -0.1857  0.0441
 6259SOL     OW24767   6.011   3.888   5.751 -0.5491  0.7952  0.0372
 6259SOL    HW224768   5.919   3.915   5.745  0.0799  2.9422 -0.7146
 6259SOL    HW324769   6.023   3.829   5.676 -1.7378 -1.0153  1.2033
 6259SOL    MW424770   6.000   3.884   5.740 -0.0662  0.1322 -0.0990
 6260SOL     OW24771   3.030   0.523   2.823 -0.2305  0.2740  0.5673
 6260SOL    HW224772   3.018   0.460   2.751 -0.2773 -0.3732  1.1283
 6260SOL    HW324773   3.019   0.609   2.782  1.0752 -0.0216 -0.4680
 6260SOL    MW424774   3.027   0.526   2.808  0.4535  0.7855 -0.2660
 6261SOL     OW24775   4.035   5.178   5.009 -0.4361  0.2474 -0.0730
 6261SOL    HW224776   4.114   5.230   4.995 -0.7223  0.6498 -0.2273
 6261SOL    HW324777   4.039   5.154   5.102  0.7677 -1.2737 -0.4917
 6261SOL    MW424778   4.046   5.182   5.020 -0.5789 -0.1554  0.7603
 6262SOL     OW24779   1.569   3.762   2.471  0.5727  0.4620 -0.8922
 6262SOL    HW224780   1.579   3.729   2.382  2.0207 -0.9200 -0.2677
 6262SOL    HW324781   1.520   3.694   2.517 -0.0212  1.0901 -0.5722
 6262SOL    MW424782   1.564   3.749   2.465  0.9320 -0.3317 -0.0820
 6263SOL     OW24783   0.798   2.343   4.695  0.2099 -0.1158 -0.0805
 6263SOL    HW224784   0.839   2.429   4.681  1.0997 -0.0826  2.2742
 6263SOL    HW324785   0.768   2.345   4.785  1.3467 -2.6795  0.4634
 6263SOL    MW424786   0.800   2.355   4.705 -0.2706 -0.3493  0.3137
 6264SOL     OW24787   2.654   1.485   5.450  0.6147  0.2239 -0.4627
 6264SOL    HW224788   2.645   1.579   5.432 -0.7208  0.2654  0.2928
 6264SOL    HW324789   2.657   1.444   5.364 -0.7752  0.8111 -0.8182
 6264SOL    MW424790   2.653   1.492   5.437  0.4672  0.1284  0.0238
 6265SOL     OW24791   5.596   3.802   6.060 -0.4709  0.1720  0.1329
 6265SOL    HW224792   5.550   3.812   6.144 -0.3038 -0.3806  0.2971
 6265SOL    HW324793   5.628   3.712   6.062 -1.2667 -0.1532 -0.9367
 6265SOL    MW424794   5.594   3.792   6.072  0.2491 -0.1175 -0.2320
 6266SOL     OW24795   4.322   1.905   4.475 -0.0805  0.1999 -0.0033
 6266SOL    HW224796   4.315   1.820   4.518  0.9674 -0.0441 -0.3023
 6266SOL    HW324797   4.383   1.955   4.530 -1.2163  1.0160  0.5589
 6266SOL    MW424798   4.329   1.901   4.488  0.1940  0.1819  0.3481
 6267SOL     OW24799   3.610   0.663   0.082  0.3097  0.3071 -0.1013
 6267SOL    HW224800   3.573   0.716   0.011  0.8427  1.0890  0.1904
 6267SOL    HW324801   3.671   0.722   0.127 -0.3711 -0.0170  1.2995
 6267SOL    MW424802   3.613   0.678   0.079 -0.5895 -0.4547 -0.2215
 6268SOL     OW24803   0.596   4.759   1.753  0.6148  0.3179  0.2251
 6268SOL    HW224804   0.510   4.774   1.714  0.1338 -2.4183  0.0359
 6268SOL    HW324805   0.583   4.772   1.847 -0.5713 -1.9638  0.4387
 6268SOL    MW424806   0.583   4.763   1.760  0.1053  0.3541 -0.8178
 6269SOL     OW24807   4.700   3.596   4.502 -0.3091 -0.1680  0.3185
 6269SOL    HW224808   4.781   3.639   4.531  0.0325 -1.0367  0.6850
 6269SOL    HW324809   4.730   3.512   4.465 -0.7094  0.8141 -2.5068
 6269SOL    MW424810   4.715   3.590   4.501 -0.3935  0.2131  0.0846
 6270SOL     OW24811   6.387   5.145   2.536  0.4937 -0.2680  0.2297
 6270SOL    HW224812   6.326   5.179   2.601 -1.6857  0.5669 -2.0708
 6270SOL    HW324813   6.440   5.220   2.511  1.3870 -0.6075  1.0629
 6270SOL    MW424814   6.386   5.159   2.541  0.0796  0.3648  0.1550
 6271SOL     OW24815   1.626   4.621   0.390 -0.2473  0.4768 -0.9501
 6271SOL    HW224816   1.714   4.607   0.425 -0.8125  0.9510  0.7848
 6271SOL    HW324817   1.601   4.536   0.354 -1.0756 -1.4208  3.4318
 6271SOL    MW424818   1.634   4.608   0.390 -0.2438 -0.0424 -0.3116
 6272SOL     OW24819   2.446   2.540   4.634 -0.1639 -0.1171  0.1987
 6272SOL    HW224820   2.378   2.600   4.664  1.3546  1.0887  1.4093
 6272SOL    HW324821   2.416   2.512   4.547 -1.7007  1.1696  0.2627
 6272SOL    MW424822   2.433   2.545   4.626 -0.1791 -0.1442 -0.3477
 6273SOL     OW24823   5.412   4.494   3.937  0.2335  0.2771  0.4812
 6273SOL    HW224824   5.358   4.571   3.958 -0.2814  0.5647 -1.6950
 6273SOL    HW324825   5.356   4.420   3.959 -0.1600  0.5557  0.4331
 6273SOL    MW424826   5.397   4.495   3.943  0.5548 -0.7824 -0.1488
 6274SOL     OW24827   4.645   6.419   4.452  0.6514  0.0587 -0.6292
 6274SOL    HW224828   4.673   6.335   4.488  1.6374  0.2378 -0.9351
 6274SOL    HW324829   4.554   6.406   4.427  0.7790 -0.9033 -0.6213
 6274SOL    MW424830   4.637   6.406   4.453 -0.4335 -0.2777 -0.2746
 6275SOL     OW24831   5.095   6.319   4.769  0.0043 -0.4259  0.1748
 6275SOL    HW224832   5.065   6.339   4.681 -0.9013 -0.7120  0.4116
 6275SOL    HW324833   5.186   6.349   4.771 -0.3837  0.8411 -0.4238
 6275SOL    MW424834   5.103   6.326   4.758  0.6837 -0.3566 -0.3217
 6276SOL     OW24835   3.707   0.312   2.581  0.1288  0.7401 -0.0075
 6276SOL    HW224836   3.691   0.332   2.489  0.2039  1.2733  0.0925
 6276SOL    HW324837   3.773   0.376   2.608 -2.4471  2.9697  1.3710
 6276SOL    MW424838   3.714   0.323   2.572 -0.3649  0.2613  0.2443
 6277SOL     OW24839   6.115   4.381   4.302  0.4164  0.0441  0.5467
 6277SOL    HW224840   6.106   4.365   4.396 -0.0907 -0.1876  0.4669
 6277SOL    HW324841   6.165   4.462   4.296 -2.5390  2.0719  1.1274
 6277SOL    MW424842   6.120   4.390   4.314 -0.2598 -0.3872  0.1770
 6278SOL     OW24843   3.250   0.026   5.605 -0.2409 -0.5937 -1.1208
 6278SOL    HW224844   3.156   0.007   5.596 -0.3125 -0.4776 -0.6679
 6278SOL    HW324845   3.269   0.008   5.697 -0.0081  0.2017 -1.0069
 6278SOL    MW424846   3.240   0.021   5.616  0.5419 -0.0040 -0.4717
 6279SOL     OW24847   0.276   3.157   2.692  0.7281  0.4805  0.2861
 6279SOL    HW224848   0.353   3.112   2.727  0.8850 -0.4260 -1.1609
 6279SOL    HW324849   0.224   3.088   2.651  1.4875  1.6349 -2.9575
 6279SOL    MW424850   0.279   3.142   2.691  0.1597  0.5834 -0.0308
 6280SOL     OW24851   5.524   5.480   1.277 -0.0138 -0.9847 -0.5330
 6280SOL    HW224852   5.545   5.513   1.189  1.5428  2.5111  0.9573
 6280SOL    HW324853   5.441   5.521   1.299  0.9676  0.5109  0.5996
 6280SOL    MW424854   5.516   5.490   1.268 -0.0208 -0.0651 -0.7813
 6281SOL     OW24855   0.602   3.764   4.976  0.3718 -0.0230 -0.2801
 6281SOL    HW224856   0.608   3.707   5.053  3.1567  0.5093  0.0072
 6281SOL    HW324857   0.655   3.841   5.000  1.0172  0.3151 -2.5813
 6281SOL    MW424858   0.610   3.767   4.989  0.4239  0.5439  0.5076
 6282SOL     OW24859   4.217   2.002   6.367 -0.3050  0.3243 -0.4581
 6282SOL    HW224860   4.221   1.971   6.277 -0.6009 -1.3628  0.0818
 6282SOL    HW324861   4.302   1.980   6.404  2.1100  5.8167 -1.6644
 6282SOL    MW424862   4.228   1.995   6.360  0.1801  0.2222  0.6705
 6283SOL     OW24863   1.607   3.129   5.088 -0.7211  0.3197  0.3319
 6283SOL    HW224864   1.585   3.207   5.138  0.2756  1.0204 -0.3120
 6283SOL    HW324865   1.687   3.095   5.129 -1.1550 -0.3897  0.6230
 6283SOL    MW424866   1.614   3.135   5.100  0.0071  0.2234  0.1135
 6284SOL     OW24867   3.357   4.452   6.377 -0.1470  0.0650  0.1823
 6284SOL    HW224868   3.355   4.471   6.471  0.1210  3.2252 -0.3238
 6284SOL    HW324869   3.385   4.535   6.337 -1.8287 -0.6777 -2.8041
 6284SOL    MW424870   3.361   4.465   6.384 -0.3937  0.5715 -0.4952
 6285SOL     OW24871   2.312   6.424   5.618 -0.1256 -0.1019 -0.1628
 6285SOL    HW224872   2.249   6.410   5.548 -0.7114  1.2347  0.0547
 6285SOL    HW324873   2.375   6.486   5.582 -1.7447  2.4938  1.1521
 6285SOL    MW424874   2.312   6.430   5.604 -0.3222 -0.1097  0.7231
 6286SOL     OW24875   1.435   3.825   5.345  0.2661  0.1875 -0.2462
 6286SOL    HW224876   1.518   3.789   5.376 -0.4412 -1.4630 -0.1902
 6286SOL    HW324877   1.423   3.904   5.398  0.8274 -0.6522  1.1997
 6286SOL    MW424878   1.445   3.831   5.356 -0.5595 -0.5575 -0.8535
 6287SOL     OW24879   0.530   0.129   2.479 -0.6066 -0.0478  0.1170
 6287SOL    HW224880   0.604   0.146   2.420 -0.5505 -0.0737  0.1798
 6287SOL    HW324881   0.566   0.072   2.546 -0.1204  1.6261  1.3500
 6287SOL    MW424882   0.544   0.124   2.480 -0.7522 -0.1234  0.4646
 6288SOL     OW24883   5.678   2.337   1.322 -0.2219  0.2736 -0.5877
 6288SOL    HW224884   5.606   2.383   1.364 -0.4517 -0.2694 -0.3884
 6288SOL    HW324885   5.710   2.399   1.256  0.1294  1.1313  0.3558
 6288SOL    MW424886   5.673   2.351   1.319  0.1993  0.1118 -0.2533
 6289SOL     OW24887   3.651   6.000   6.401  0.0301 -0.0333  0.1209
 6289SOL    HW224888   3.646   5.933   6.468 -0.3629 -0.3832 -0.2509
 6289SOL    HW324889   3.663   5.952   6.319 -1.6765  0.2403 -0.3303
 6289SOL    MW424890   3.652   5.985   6.399  0.1698  0.2204 -0.0448
 6290SOL     OW24891   2.538   3.079   6.142 -0.2729 -0.2949  0.2545
 6290SOL    HW224892   2.605   3.028   6.096  0.1289  0.3485  0.0974
 6290SOL    HW324893   2.521   3.031   6.223 -0.7449 -1.2727 -0.4012
 6290SOL    MW424894   2.545   3.066   6.146  0.0017  0.2011 -0.6931
 6291SOL     OW24895   3.932   1.386   4.026  0.1883  0.5927 -0.0927
 6291SOL    HW224896   3.980   1.409   4.106 -0.9228 -1.4643  1.2430
 6291SOL    HW324897   3.884   1.466   4.003 -0.0554  1.0142  1.7430
 6291SOL    MW424898   3.932   1.399   4.033  0.6200 -0.4329  0.1975
 6292SOL     OW24899   5.864   5.838   1.438 -0.4533 -0.7380  0.1166
 6292SOL    HW224900   5.955   5.826   1.412 -1.2036 -2.5045 -2.0175
 6292SOL    HW324901   5.865   5.832   1.533  1.6146 -1.0417  0.1119
 6292SOL    MW424902   5.876   5.836   1.447  0.0737  0.3045 -0.3670
 6293SOL     OW24903   4.983   0.227   0.794 -0.6668 -0.2002  0.3003
 6293SOL    HW224904   4.970   0.164   0.864 -0.6980 -1.1909 -0.5612
 6293SOL    HW324905   4.894   0.247   0.764 -0.6987  0.8256  1.0435
 6293SOL    MW424906   4.969   0.221   0.799 -0.0355 -0.2507 -0.5920
 6294SOL     OW24907   5.705   6.330   6.340  0.0460 -0.3755  0.4688
 6294SOL    HW224908   5.640   6.384   6.296  0.7772  0.6991  0.6391
 6294SOL    HW324909   5.699   6.245   6.298 -0.5214  0.1021 -0.4492
 6294SOL    MW424910   5.696   6.326   6.329 -0.4028  0.0892 -0.1876
 6295SOL     OW24911   0.344   2.142   4.677 -0.3492  0.2935 -0.4188
 6295SOL    HW224912   0.387   2.200   4.739  0.5422 -1.5045  0.7169
 6295SOL    HW324913   0.260   2.120   4.719  0.2642 -0.9413  0.2180
 6295SOL    MW424914   0.338   2.147   4.691  0.9303  0.3488 -0.0862
 6296SOL     OW24915   6.367   5.778   4.940 -0.3866  0.1778  0.3084
 6296SOL    HW224916   6.433   5.820   4.885  1.4792 -0.4782  1.9509
 6296SOL    HW324917   6.332   5.707   4.885 -0.1221  0.8393 -0.7562
 6296SOL    MW424918   6.371   5.774   4.925  0.2799 -0.6913 -0.3235
 6297SOL     OW24919   3.431   1.517   5.770  0.2395  0.4060  0.3663
 6297SOL    HW224920   3.469   1.569   5.699 -0.3617  0.1284 -0.1792
 6297SOL    HW324921   3.380   1.580   5.821 -0.6530  0.3368 -0.4101
 6297SOL    MW424922   3.429   1.532   5.767  0.2889  0.5467  0.7950
 6298SOL     OW24923   4.939   6.205   1.372  0.6624 -0.0008  0.2841
 6298SOL    HW224924   4.986   6.123   1.354 -0.2215 -0.4047 -0.2388
 6298SOL    HW324925   4.881   6.217   1.296  1.5369  1.6733 -0.1747
 6298SOL    MW424926   4.938   6.196   1.359 -0.0973 -0.0919 -0.3020
 6299SOL     OW24927   1.012   5.652   1.003 -0.1866 -0.1297 -0.4409
 6299SOL    HW224928   1.003   5.620   1.093  1.5743  0.2144 -0.0988
 6299SOL    HW324929   0.923   5.675   0.976 -0.7848 -0.5117  1.1053
 6299SOL    MW424930   0.999   5.651   1.011  0.7148 -0.1740  0.3577
 6300SOL     OW24931   1.603   3.533   4.767 -0.1492  0.3548 -0.0756
 6300SOL    HW224932   1.678   3.565   4.818  1.0740  0.7286 -2.0305
 6300SOL    HW324933   1.609   3.438   4.773 -0.1221  0.3876  0.5719
 6300SOL    MW424934   1.614   3.525   4.775 -0.3593 -0.1442 -0.3784
 6301SOL     OW24935   2.376   3.164   1.307  0.2347  0.4542 -0.0445
 6301SOL    HW224936   2.342   3.217   1.235 -0.2244  0.5254  0.2164
 6301SOL    HW324937   2.325   3.083   1.304  0.0356  0.5576  0.3468
 6301SOL    MW424938   2.364   3.160   1.297  0.1616  0.0539 -0.5675
 6302SOL     OW24939   1.832   5.353   5.996 -0.0263  0.1493 -0.2389
 6302SOL    HW224940   1.904   5.292   5.981  0.7013  0.7520  0.6464
 6302SOL    HW324941   1.755   5.297   6.008  0.3558 -0.5219 -0.8612
 6302SOL    MW424942   1.832   5.338   5.996 -0.3176 -0.6891 -0.4646
 6303SOL     OW24943   2.847   3.182   0.888 -0.0600  0.1909  0.1444
 6303SOL    HW224944   2.898   3.103   0.869 -0.8938 -0.3780  0.2066
 6303SOL    HW324945   2.827   3.176   0.982 -0.7456  0.0842  0.0016
 6303SOL    MW424946   2.851   3.170   0.898 -0.1731 -0.1485 -0.4860
 6304SOL     OW24947   3.085   6.035   0.910 -0.1222 -0.0113 -0.1555
 6304SOL    HW224948   3.109   6.036   0.817 -0.8891  0.9118 -0.3611
 6304SOL    HW324949   3.011   5.975   0.916  0.3516 -0.5906 -0.0182
 6304SOL    MW424950   3.079   6.027   0.899  0.2189  0.3281 -0.5710
 6305SOL     OW24951   4.956   0.332   5.746 -0.1213  0.0355 -0.2569
 6305SOL    HW224952   4.866   0.319   5.775  0.4367  0.3876  1.7277
 6305SOL    HW324953   5.001   0.251   5.769 -0.0949 -0.5527 -2.1566
 6305SOL    MW424954   4.950   0.319   5.753 -0.0799  0.5634  0.9394
 6306SOL     OW24955   0.147   6.118   2.879  0.0859 -0.0944  0.3230
 6306SOL    HW224956   0.075   6.162   2.833  1.0354 -0.7348 -1.8955
 6306SOL    HW324957   0.109   6.034   2.906 -0.1976 -0.1471 -0.2224
 6306SOL    MW424958   0.132   6.113   2.877 -0.0878  0.5270 -0.1756
 6307SOL     OW24959   1.108   4.082   2.379  0.4872  0.5157 -0.4830
 6307SOL    HW224960   1.089   4.175   2.368  0.5174  0.5977  0.0913
 6307SOL    HW324961   1.034   4.048   2.430  0.9492  0.4464  0.1662
 6307SOL    MW424962   1.096   4.090   2.385 -0.0269 -0.2500  0.2922
 6308SOL     OW24963   3.792   5.403   5.808  0.1433 -0.4880  0.0518
 6308SOL    HW224964   3.742   5.365   5.736  1.2982  0.6164 -1.3979
 6308SOL    HW324965   3.762   5.493   5.814  1.5595  0.0488 -0.5093
 6308SOL    MW424966   3.782   5.410   5.800  0.1292 -0.2156 -0.5771
 6309SOL     OW24967   2.178   5.955   0.689  0.2292  0.0942  0.1202
 6309SOL    HW224968   2.244   5.887   0.701  1.7890  1.3788 -0.6499
 6309SOL    HW324969   2.157   5.952   0.596  3.3488  3.1178 -0.9062
 6309SOL    MW424970   2.184   5.946   0.678 -0.0742  0.1393 -0.2839
 6310SOL     OW24971   2.749   3.828   0.169  0.5377  0.2444  0.1927
 6310SOL    HW224972   2.682   3.884   0.130 -0.4367 -0.5518  0.6704
 6310SOL    HW324973   2.831   3.859   0.131 -0.2496  0.1625 -1.6891
 6310SOL    MW424974   2.751   3.840   0.159 -0.1219  0.1818  0.2674
 6311SOL     OW24975   4.442   0.531   5.190 -0.5022  0.5237  0.3827
 6311SOL    HW224976   4.434   0.463   5.123 -0.0111 -0.0153  0.8629
 6311SOL    HW324977   4.509   0.499   5.250 -1.3637  0.7052  1.4812
 6311SOL    MW424978   4.450   0.518   5.189 -0.3135 -0.2521 -0.0375
 6312SOL     OW24979   4.964   3.695   4.545  0.0841  0.1613 -0.5690
 6312SOL    HW224980   5.059   3.685   4.551 -0.1414 -1.8978  0.1604
 6312SOL    HW324981   4.936   3.623   4.489 -0.9164  1.8125 -2.2912
 6312SOL    MW424982   4.973   3.684   4.538 -0.1719  0.0502  0.2278
 6313SOL     OW24983   6.243   6.153   2.531  0.4428  0.3186 -0.0157
 6313SOL    HW224984   6.304   6.079   2.534 -0.5153 -0.4750  0.5334
 6313SOL    HW324985   6.242   6.186   2.621 -0.8549 -0.4729  0.2910
 6313SOL    MW424986   6.251   6.148   2.543 -0.1692  0.0321 -0.1219
 6314SOL     OW24987   3.610   5.103   3.980 -0.0312  0.0394  0.2834
 6314SOL    HW224988   3.620   5.009   3.965  0.0792 -0.5255  3.1570
 6314SOL    HW324989   3.538   5.130   3.923 -0.5159 -1.9412 -0.1120
 6314SOL    MW424990   3.602   5.094   3.971 -0.4096 -0.1492 -0.2657
 6315SOL     OW24991   3.340   1.828   5.302 -0.4674 -0.0235 -0.2656
 6315SOL    HW224992   3.379   1.838   5.389  0.9646 -0.2758 -0.8473
 6315SOL    HW324993   3.345   1.734   5.285 -1.7024 -0.1082 -0.2063
 6315SOL    MW424994   3.346   1.817   5.311 -0.6347  0.3992 -0.4325
 6316SOL     OW24995   1.156   3.987   6.428  0.1512  0.2523 -0.4016
 6316SOL    HW224996   1.195   4.059   6.477  2.0926 -0.4032 -0.8807
 6316SOL    HW324997   1.220   3.968   6.359 -0.6430 -1.4630 -0.7216
 6316SOL    MW424998   1.169   3.994   6.425 -0.4064  0.6350 -0.3862
 6317SOL     OW24999   0.429   3.334   5.865  0.1045 -0.2330 -0.0425
 6317SOL    HW225000   0.367   3.406   5.847 -0.5691 -0.4556  1.2467
 6317SOL    HW325001   0.477   3.363   5.943  1.4015 -0.2298 -0.8134
 6317SOL    MW425002   0.427   3.347   5.873  0.2822 -0.2911  0.1703
 6318SOL     OW25003   1.998   3.126   2.715 -0.2589  0.5185 -0.0296
 6318SOL    HW225004   1.949   3.205   2.736  0.0797  0.7840 -0.2366
 6318SOL    HW325005   2.087   3.145   2.743 -0.2169  0.1368  0.0974
 6318SOL    MW425006   2.003   3.139   2.722 -0.3098 -0.6868 -0.4235
 6319SOL     OW25007   0.757   5.140   0.482  0.0568  0.2883 -0.4140
 6319SOL    HW225008   0.746   5.171   0.392 -2.1375  0.3752 -0.1765
 6319SOL    HW325009   0.703   5.199   0.534 -2.4343 -2.4181  0.3406
 6319SOL    MW425010   0.749   5.152   0.477 -0.1432 -0.5230 -0.3751
 6320SOL     OW25011   2.748   0.550   2.067  0.4131 -0.0155 -0.2421
 6320SOL    HW225012   2.814   0.567   2.134 -0.7804 -2.0401  1.5680
 6320SOL    HW325013   2.749   0.628   2.012  2.9218  0.8270  0.8673
 6320SOL    MW425014   2.757   0.562   2.069 -0.6540  0.4896  0.3340
 6321SOL     OW25015   4.770   5.977   5.448  0.3993  0.2848 -0.0824
 6321SOL    HW225016   4.859   6.009   5.441  0.0408  1.3145 -0.0931
 6321SOL    HW325017   4.722   6.021   5.378  0.0348 -0.8246 -0.5557
 6321SOL    MW425018   4.775   5.987   5.438  0.1112 -0.0093 -0.2331
 6322SOL     OW25019   1.169   2.679   4.782  0.5150 -0.4175 -1.1615
 6322SOL    HW225020   1.206   2.592   4.773 -0.8532 -1.0094 -1.2278
 6322SOL    HW325021   1.154   2.690   4.876 -0.8170 -0.9229 -1.2922
 6322SOL    MW425022   1.172   2.669   4.793 -0.2647  0.1679 -0.8655
 6323SOL     OW25023   6.193   2.960   4.082  0.3565 -0.2194  0.7821
 6323SOL    HW225024   6.236   3.038   4.116  0.3474 -0.8913  2.4312
 6323SOL    HW325025   6.099   2.975   4.098  0.4634 -1.1514  2.4658
 6323SOL    MW425026   6.186   2.972   4.088 -0.4800  0.1227 -0.7368
 6324SOL     OW25027   3.058   0.932   3.511 -0.3701  0.1969  0.2871
 6324SOL    HW225028   2.972   0.893   3.497 -0.4352  0.2970  0.4076
 6324SOL    HW325029   3.116   0.885   3.451 -0.7939  1.1608 -0.9138
 6324SOL    MW425030   3.054   0.920   3.501 -0.1318 -0.4822  0.0313
 6325SOL     OW25031   0.318   1.504   4.053  0.7206  0.4788  0.1599
 6325SOL    HW225032   0.333   1.440   3.984  0.6877  0.0136  0.5746
 6325SOL    HW325033   0.403   1.511   4.098  2.0255  3.8201 -2.3832
 6325SOL    MW425034   0.331   1.497   4.050  0.1778  0.1988 -0.1124
 6326SOL     OW25035   2.143   3.213   2.050  0.7667 -0.5132 -0.1607
 6326SOL    HW225036   2.195   3.204   1.970  0.7492  0.5050 -0.3063
 6326SOL    HW325037   2.195   3.272   2.105 -0.0777  0.2905 -0.1900
 6326SOL    MW425038   2.157   3.220   2.047 -0.2827 -0.5277  0.2790
 6327SOL     OW25039   0.815   5.908   5.458  0.4423  0.2213 -0.7579
 6327SOL    HW225040   0.728   5.881   5.490 -0.0502  2.3635 -0.1168
 6327SOL    HW325041   0.854   5.953   5.533  2.8074 -1.9678 -0.5159
 6327SOL    MW425042   0.809   5.910   5.472 -0.2199 -0.2318 -0.0355
 6328SOL     OW25043   4.516   4.073   2.313 -0.0780 -0.3514  0.3562
 6328SOL    HW225044   4.590   4.012   2.314 -1.2016 -2.0129 -2.5898
 6328SOL    HW325045   4.450   4.029   2.259 -2.6481  1.7181  1.5666
 6328SOL    MW425046   4.517   4.059   2.306  0.7318  0.3622 -0.1893
 6329SOL     OW25047   6.325   2.382   3.752  0.2843  0.9514 -0.0995
 6329SOL    HW225048   6.294   2.388   3.661  0.1990  2.1644 -0.0072
 6329SOL    HW325049   6.413   2.343   3.744 -0.2553 -0.2153 -0.5708
 6329SOL    MW425050   6.333   2.378   3.739 -0.3737  0.0617 -0.2970
 6330SOL     OW25051   6.139   2.651   2.992 -0.3284  0.4121  0.3596
 6330SOL    HW225052   6.068   2.650   2.928 -0.6770 -0.5473  0.7275
 6330SOL    HW325053   6.209   2.699   2.950 -0.7766  0.3464 -0.4918
 6330SOL    MW425054   6.139   2.657   2.978  0.4072 -0.4126 -0.3201
 6331SOL     OW25055   1.130   5.095   2.679  0.6549 -0.2220  0.2124
 6331SOL    HW225056   1.061   5.103   2.745 -0.7442  2.3431 -1.4042
 6331SOL    HW325057   1.102   5.023   2.623 -0.1025  0.0415  0.2488
 6331SOL    MW425058   1.117   5.087   2.680  0.4751 -0.3186 -0.1530
 6332SOL     OW25059   4.044   4.555   2.509  0.9867 -0.0443 -0.0751
 6332SOL    HW225060   4.001   4.580   2.427  1.2188 -0.0451 -0.1975
 6332SOL    HW325061   3.972   4.526   2.565  0.5953  1.7486  0.3949
 6332SOL    MW425062   4.029   4.554   2.505 -0.0384  0.2264 -0.2159
 6333SOL     OW25063   5.131   5.460   1.657 -0.1279 -0.3267 -0.0967
 6333SOL    HW225064   5.161   5.524   1.722 -0.5389  0.2703 -0.4900
 6333SOL    HW325065   5.078   5.511   1.596 -1.0200 -1.1708 -0.0430
 6333SOL    MW425066   5.128   5.475   1.658  0.4494  0.3094  0.6643
 6334SOL     OW25067   5.472   0.518   5.982  0.0955  0.1215  0.0109
 6334SOL    HW225068   5.550   0.561   5.948  0.9563 -1.9069 -0.7482
 6334SOL    HW325069   5.414   0.512   5.906 -0.2501  0.4184  0.2478
 6334SOL    MW425070   5.474   0.523   5.967 -0.4554 -0.3419 -0.4732
 6335SOL     OW25071   2.739   5.878   1.416  0.0237 -0.2232 -0.4580
 6335SOL    HW225072   2.756   5.830   1.498  0.8113  0.7449 -0.0367
 6335SOL    HW325073   2.826   5.901   1.384 -0.1421 -2.1247 -2.5468
 6335SOL    MW425074   2.753   5.874   1.423 -0.0073 -0.4445 -0.0069
 6336SOL     OW25075   0.527   3.458   4.617  0.1977  0.9144  0.2165
 6336SOL    HW225076   0.481   3.510   4.551  0.6665 -0.2284 -1.0584
 6336SOL    HW325077   0.569   3.523   4.673  0.7515  1.9434 -1.3069
 6336SOL    MW425078   0.526   3.473   4.616 -0.2229 -0.6286  0.2128
 6337SOL     OW25079   5.430   1.787   2.307  0.3597 -0.7202  0.0826
 6337SOL    HW225080   5.405   1.821   2.394  0.3619 -1.7929  0.5165
 6337SOL    HW325081   5.356   1.810   2.251  0.1589 -0.4087  0.4641
 6337SOL    MW425082   5.417   1.795   2.311 -0.0285  0.0913  0.4331
 6338SOL     OW25083   3.246   4.888   2.991  0.2874  0.9523 -0.2583
 6338SOL    HW225084   3.317   4.824   2.990  0.5137  1.1909  0.4734
 6338SOL    HW325085   3.285   4.968   2.957  0.2530  0.9688 -0.2589
 6338SOL    MW425086   3.260   4.890   2.986 -0.4147 -0.1181  0.1438
 6339SOL     OW25087   0.075   2.719   4.936 -0.6074  0.1411 -0.0338
 6339SOL    HW225088   0.103   2.636   4.898  0.8481  0.8296 -0.5298
 6339SOL    HW325089  -0.020   2.721   4.920 -0.6453 -1.3444 -0.1371
 6339SOL    MW425090   0.066   2.709   4.929  0.5238 -0.3011  0.6061
 6340SOL     OW25091   2.432   1.177   3.121 -0.3072 -0.1398  0.4678
 6340SOL    HW225092   2.472   1.141   3.042 -1.0604  0.8337 -0.3841
 6340SOL    HW325093   2.506   1.204   3.176  0.2232 -0.4990 -0.0572
 6340SOL    MW425094   2.447   1.176   3.118  0.6783 -0.0916 -0.1207
 6341SOL     OW25095   4.117   1.372   4.958 -0.0830  0.1155 -1.1747
 6341SOL    HW225096   4.044   1.341   4.905 -0.7076  1.4873 -1.1593
 6341SOL    HW325097   4.088   1.359   5.049 -0.9027  1.8591 -1.1447
 6341SOL    MW425098   4.103   1.366   4.963 -0.0634  0.0928  0.0055
 6342SOL     OW25099   0.722   2.678   5.704 -0.2814 -0.0525 -0.2674
 6342SOL    HW225100   0.711   2.669   5.609  1.2548 -0.0918 -0.4722
 6342SOL    HW325101   0.792   2.616   5.725 -0.1444  0.4475  0.7833
 6342SOL    MW425102   0.730   2.668   5.694 -0.2538  0.0267  0.7447
 6343SOL     OW25103   4.044   3.122   1.059  0.4583 -0.4354  0.1452
 6343SOL    HW225104   4.088   3.049   1.016 -0.1803  0.3139 -1.9104
 6343SOL    HW325105   4.111   3.189   1.068  0.2217  0.0428 -1.3506
 6343SOL    MW425106   4.058   3.121   1.054  0.1728  0.1189 -0.8154
 6344SOL     OW25107   1.295   6.193   4.394  0.2409  0.0376  0.4073
 6344SOL    HW225108   1.287   6.102   4.363  0.6909 -0.5635  1.9567
 6344SOL    HW325109   1.387   6.214   4.381 -0.0874  0.7125 -1.0246
 6344SOL    MW425110   1.306   6.184   4.388 -0.0913  0.3168  0.3618
 6345SOL     OW25111   4.968   4.273   2.155 -0.0892  0.0451  0.4258
 6345SOL    HW225112   4.959   4.369   2.159  2.3756  0.3495  0.1634
 6345SOL    HW325113   4.916   4.247   2.079  0.4044  1.3721 -0.3927
 6345SOL    MW425114   4.960   4.282   2.146 -0.0807 -0.6545  0.3866
 6346SOL     OW25115   2.480   4.267   3.804  0.4008 -0.2324 -0.4849
 6346SOL    HW225116   2.457   4.259   3.897 -0.2841  0.7552 -0.5471
 6346SOL    HW325117   2.561   4.217   3.795 -0.3818 -1.7186  0.2874
 6346SOL    MW425118   2.488   4.259   3.815 -0.7098  0.1864  0.0162
 6347SOL     OW25119   5.631   0.366   3.716 -0.0833  0.3428  0.6332
 6347SOL    HW225120   5.700   0.369   3.649  0.1076 -2.0729  0.6262
 6347SOL    HW325121   5.590   0.452   3.711  1.5989  1.1496 -0.7866
 6347SOL    MW425122   5.635   0.378   3.706  0.6447  0.0614  0.3087
 6348SOL     OW25123   0.845   1.264   6.172 -0.2344  0.6704  0.0122
 6348SOL    HW225124   0.914   1.327   6.194  0.7145  0.0093 -0.9764
 6348SOL    HW325125   0.806   1.241   6.256  0.3209  1.5363  0.5263
 6348SOL    MW425126   0.849   1.269   6.186  0.1166 -0.0176 -0.3414
 6349SOL     OW25127   3.979   3.388   1.314 -0.7802  0.1019  0.2378
 6349SOL    HW225128   4.026   3.432   1.386  0.5243 -0.8235 -0.0019
 6349SOL    HW325129   3.980   3.295   1.339  1.3900 -0.5310 -1.7963
 6349SOL    MW425130   3.985   3.381   1.327  0.1741  0.2583  0.3362
 6350SOL     OW25131   0.323   1.109   3.845  0.3080  0.0702  0.3384
 6350SOL    HW225132   0.360   1.194   3.820  0.2988  0.4278  1.5059
 6350SOL    HW325133   0.389   1.045   3.817  0.0309  0.3775 -1.1408
 6350SOL    MW425134   0.337   1.112   3.838  0.6126  0.2352 -0.3268
 6351SOL     OW25135   1.352   1.745   1.512  0.4072  0.1720  0.8201
 6351SOL    HW225136   1.257   1.745   1.522  0.2668  0.0244 -0.4294
 6351SOL    HW325137   1.367   1.711   1.424  1.5928  0.9369  0.7078
 6351SOL    MW425138   1.342   1.740   1.502  0.1417 -0.6455 -0.1019
 6352SOL     OW25139   1.583   4.190   0.545  0.7943 -0.5353 -0.2483
 6352SOL    HW225140   1.557   4.103   0.517  3.0074 -1.0791 -0.8077
 6352SOL    HW325141   1.641   4.222   0.476 -0.4411  1.6784 -0.3762
 6352SOL    MW425142   1.587   4.183   0.532 -0.4510  0.0641 -0.2737
 6353SOL     OW25143   3.539   3.067   2.630 -0.0798  0.3260  0.1516
 6353SOL    HW225144   3.564   3.150   2.589  0.0348  0.1748 -0.0845
 6353SOL    HW325145   3.546   3.084   2.724  1.2831  0.1764  0.0961
 6353SOL    MW425146   3.543   3.080   2.637 -0.3419 -0.2193 -0.3909
 6354SOL     OW25147   4.239   5.832   5.637 -0.3798 -0.0251  0.4074
 6354SOL    HW225148   4.276   5.786   5.713  1.7605  0.7625 -0.0754
 6354SOL    HW325149   4.300   5.904   5.622 -0.2151 -0.6627 -2.5834
 6354SOL    MW425150   4.252   5.835   5.645  0.0936  0.1960 -0.5273
 6355SOL     OW25151   4.416   1.057   4.484 -0.4392 -0.6483  0.1457
 6355SOL    HW225152   4.430   1.143   4.445 -2.1834 -1.0055 -1.4044
 6355SOL    HW325153   4.464   1.060   4.567  1.6304  0.9023 -1.0088
 6355SOL    MW425154   4.424   1.068   4.490  0.1449 -0.2614 -0.3847
 6356SOL     OW25155   2.799   2.298   4.531 -0.0970  0.0475  0.5133
 6356SOL    HW225156   2.790   2.211   4.492 -0.3086 -1.0780  2.8734
 6356SOL    HW325157   2.732   2.300   4.599 -0.2704  2.2015  0.3447
 6356SOL    MW425158   2.789   2.287   4.535 -0.0642 -0.3615  0.1439
 6357SOL     OW25159   1.220   0.080   2.832  0.3741  0.4185  0.5448
 6357SOL    HW225160   1.202   0.095   2.924 -0.2069  0.9594  0.3445
 6357SOL    HW325161   1.287   0.011   2.832 -0.7269 -0.7062  1.3263
 6357SOL    MW425162   1.227   0.073   2.844 -0.3880 -0.0710 -0.5678
 6358SOL     OW25163   3.384   4.432   5.205 -0.2693 -0.7365 -0.6080
 6358SOL    HW225164   3.400   4.346   5.166  2.1960  0.1398 -1.7429
 6358SOL    HW325165   3.318   4.472   5.149  1.5060 -0.4208 -2.6236
 6358SOL    MW425166   3.378   4.426   5.192  0.2247 -0.5234 -0.2959
 6359SOL     OW25167   5.562   4.898   3.638  1.0240  0.3642 -0.5626
 6359SOL    HW225168   5.614   4.828   3.677 -0.2784 -0.3653 -0.0800
 6359SOL    HW325169   5.620   4.937   3.572  2.3384 -0.0984  0.2632
 6359SOL    MW425170   5.577   4.894   3.635  0.7856 -0.6469  0.2739
 6360SOL     OW25171   1.907   2.196   2.113  0.1349  0.0250  0.1386
 6360SOL    HW225172   1.962   2.175   2.037 -0.9444  0.2396 -0.7179
 6360SOL    HW325173   1.818   2.177   2.084 -0.1577 -1.7315  2.0122
 6360SOL    MW425174   1.903   2.191   2.099  0.2685 -0.0824 -0.1927
 6361SOL     OW25175   3.614   3.777   5.120  0.0077 -0.5215 -0.0783
 6361SOL    HW225176   3.660   3.694   5.138 -0.3011 -0.7304 -0.2556
 6361SOL    HW325177   3.652   3.808   5.038 -0.6886 -1.0740 -0.6253
 6361SOL    MW425178   3.625   3.770   5.112  0.2124  0.2704  0.0860
 6362SOL     OW25179   5.797   4.002   3.262 -0.0294  0.1393  0.1218
 6362SOL    HW225180   5.867   3.943   3.236  0.2718  0.3392  0.4681
 6362SOL    HW325181   5.763   4.037   3.180  0.5875  0.3993 -0.0281
 6362SOL    MW425182   5.802   3.999   3.248  0.6358  0.4195  0.8203
 6363SOL     OW25183   1.133   0.057   3.087  0.0184  0.6213 -0.1015
 6363SOL    HW225184   1.189  -0.018   3.108 -0.5576  0.2302  0.0497
 6363SOL    HW325185   1.156   0.124   3.152  1.4264  1.0420 -0.9987
 6363SOL    MW425186   1.143   0.056   3.098 -0.3587 -0.0934  0.4664
 6364SOL     OW25187   5.204   2.284   3.089  0.4361  0.0224  0.0264
 6364SOL    HW225188   5.143   2.268   3.018 -1.4394 -0.6567  1.7132
 6364SOL    HW325189   5.265   2.210   3.085  1.3046  0.7735 -1.7464
 6364SOL    MW425190   5.204   2.272   3.079 -0.2784 -0.2392  0.3625
 6365SOL     OW25191   5.323   3.908   5.063  0.4980  0.0411  0.5957
 6365SOL    HW225192   5.305   3.895   5.156 -2.6448 -0.4479  0.0209
 6365SOL    HW325193   5.237   3.911   5.022  1.7835 -0.3073 -2.3952
 6365SOL    MW425194   5.310   3.906   5.070  0.0651 -0.6799  0.1451
 6366SOL     OW25195   6.350   4.101   2.837 -0.1097  0.2725  0.7620
 6366SOL    HW225196   6.437   4.139   2.849  0.8660 -0.9500 -1.5693
 6366SOL    HW325197   6.308   4.157   2.771  0.9773 -1.8558 -1.9707
 6366SOL    MW425198   6.356   4.113   2.830  0.0328  0.2927 -0.4781
 6367SOL     OW25199   6.121   5.445   4.353 -0.5318 -0.1714  0.2667
 6367SOL    HW225200   6.089   5.458   4.442 -0.8796 -0.7323  0.2317
 6367SOL    HW325201   6.079   5.514   4.302 -0.9344 -0.3148  0.4000
 6367SOL    MW425202   6.111   5.456   4.358  0.0621 -0.2472  0.4057
 6368SOL     OW25203   0.364   1.926   6.344 -0.3185  0.5736 -0.1545
 6368SOL    HW225204   0.348   1.931   6.249  0.2398  0.2085 -0.2734
 6368SOL    HW325205   0.323   2.006   6.379 -1.3671  0.2459 -0.5770
 6368SOL    MW425206   0.356   1.937   6.336 -0.3589 -0.3078  0.0348
 6369SOL     OW25207   4.022   0.571   4.402 -0.3367  0.3114  0.1135
 6369SOL    HW225208   3.937   0.533   4.382  0.2024 -1.0793  0.3268
 6369SOL    HW325209   4.071   0.567   4.320 -0.9955  2.6840 -0.4666
 6369SOL    MW425210   4.017   0.565   4.389 -0.2776  0.4493 -0.3170
 6370SOL     OW25211   4.187   4.898   1.522  0.1381 -0.5972  0.2456
 6370SOL    HW225212   4.157   4.989   1.518 -0.5769 -0.8475 -0.2376
 6370SOL    HW325213   4.282   4.904   1.536  0.3021  0.2395 -1.0504
 6370SOL    MW425214   4.196   4.911   1.523 -0.5277 -0.7420  0.1066
 6371SOL     OW25215   1.787   0.454   0.048  0.2784  0.4041 -0.7041
 6371SOL    HW225216   1.723   0.401   0.002  0.1622 -0.5783  0.5367
 6371SOL    HW325217   1.869   0.405   0.039  0.3433  0.4273 -0.2475
 6371SOL    MW425218   1.790   0.440   0.041  0.4010  0.1415 -0.2233
 6372SOL     OW25219   2.550   5.947   0.922 -0.7849  0.2811 -0.0297
 6372SOL    HW225220   2.619   5.921   0.862 -1.5101 -2.0335  0.0538
 6372SOL    HW325221   2.564   5.895   1.001 -2.1710  0.2782  0.2555
 6372SOL    MW425222   2.561   5.937   0.925 -0.4388  0.1533  0.3880
 6373SOL     OW25223   3.887   6.433   0.537 -0.4026 -0.6115 -0.0796
 6373SOL    HW225224   3.918   6.461   0.451 -3.1642 -1.2251 -1.3651
 6373SOL    HW325225   3.853   6.513   0.577  0.5299 -0.4013  0.3308
 6373SOL    MW425226   3.887   6.448   0.531  0.4071  0.0759 -0.1020
 6374SOL     OW25227   1.533   0.027   2.585 -0.0267 -0.1998  0.3057
 6374SOL    HW225228   1.539   0.018   2.490 -0.3285 -1.4364  0.3848
 6374SOL    HW325229   1.475   0.102   2.598 -1.8094 -1.3664 -0.5264
 6374SOL    MW425230   1.526   0.035   2.574  0.0725 -0.4603 -0.1023
 6375SOL     OW25231   2.576   1.599   2.596 -0.3098  0.3567 -0.2607
 6375SOL    HW225232   2.600   1.637   2.511 -2.1584 -0.1207 -1.0240
 6375SOL    HW325233   2.544   1.512   2.575  0.1652 -0.1584  1.0661
 6375SOL    MW425234   2.575   1.593   2.582  0.2458 -0.2918 -0.3462
 6376SOL     OW25235   5.238   3.131   1.169  0.1440  0.1892 -0.1085
 6376SOL    HW225236   5.269   3.129   1.079 -0.2854  0.6615 -0.2712
 6376SOL    HW325237   5.156   3.082   1.167 -0.2570  0.8560 -0.1307
 6376SOL    MW425238   5.231   3.124   1.157 -0.5103  0.7818 -0.7511
 6377SOL     OW25239   5.700   3.235   0.124 -0.2151 -0.0902  0.0207
 6377SOL    HW225240   5.740   3.159   0.164  0.4621  0.7136  0.9224
 6377SOL    HW325241   5.700   3.217   0.030  1.8351 -0.3207  0.0407
 6377SOL    MW425242   5.705   3.223   0.117 -0.0147  0.3686  0.0384
 6378SOL     OW25243   1.529   4.961   3.504  0.0886  0.2889  0.9045
 6378SOL    HW225244   1.542   5.028   3.572 -1.1561  1.8606 -0.3238
 6378SOL    HW325245   1.438   4.973   3.476  0.8841  0.4909 -1.8363
 6378SOL    MW425246   1.518   4.971   3.509  0.2272 -0.0248  0.9514
 6379SOL     OW25247   5.773   5.585   2.314  0.6796  0.2712  0.0517
 6379SOL    HW225248   5.831   5.623   2.379  0.1079  0.1041  0.6636
 6379SOL    HW325249   5.721   5.521   2.361  1.1845 -0.8382 -0.8412
 6379SOL    MW425250   5.773   5.582   2.329  0.4244  0.5834 -0.2473
 6380SOL     OW25251   2.139   5.926   3.933  0.3868 -0.6246 -0.2975
 6380SOL    HW225252   2.139   5.835   3.962 -0.6824 -0.3107  0.7989
 6380SOL    HW325253   2.069   5.967   3.984  1.2667  0.9611 -0.3162
 6380SOL    MW425254   2.130   5.919   3.943 -0.0892 -0.0607  0.2249
 6381SOL     OW25255   6.280   3.048   2.171 -0.1139 -0.1863  0.2560
 6381SOL    HW225256   6.266   2.997   2.091  0.4833 -0.4313  0.3079
 6381SOL    HW325257   6.375   3.059   2.177 -0.2197  0.8311  0.3042
 6381SOL    MW425258   6.290   3.043   2.161  0.4007 -0.1855  0.7874
 6382SOL     OW25259   1.797   2.912   5.400  0.1504  0.1423  0.3866
 6382SOL    HW225260   1.821   2.967   5.326 -2.1375 -0.0675 -0.5749
 6382SOL    HW325261   1.778   2.974   5.471  1.4822  0.3659  0.5921
 6382SOL    MW425262   1.798   2.927   5.400 -0.1619 -0.6799  0.4008
 6383SOL     OW25263   1.608   3.847   4.591  0.3060  0.0814  0.1515
 6383SOL    HW225264   1.567   3.865   4.676 -2.3625  1.8107 -1.3398
 6383SOL    HW325265   1.583   3.756   4.571  0.8259 -0.2858  1.1074
 6383SOL    MW425266   1.599   3.837   4.600  0.9247  0.0816 -0.1836
 6384SOL     OW25267   4.560   0.577   3.716 -0.3557  0.0510  0.3418
 6384SOL    HW225268   4.533   0.581   3.624  0.4521 -0.1932  0.0796
 6384SOL    HW325269   4.488   0.616   3.764 -0.0449  1.8333 -0.5541
 6384SOL    MW425270   4.547   0.583   3.710  0.2015 -0.1871  0.2381
 6385SOL     OW25271   0.296   2.488   1.295  0.3405  0.3990  0.0650
 6385SOL    HW225272   0.211   2.445   1.288 -0.8901  2.6514  0.0913
 6385SOL    HW325273   0.326   2.498   1.205 -0.0682  0.7607 -0.0353
 6385SOL    MW425274   0.289   2.484   1.282  0.2522 -1.0030 -0.0969
 6386SOL     OW25275   0.028   2.185   2.942 -0.3278  0.1922 -0.2910
 6386SOL    HW225276   0.069   2.158   3.024 -0.1851  1.2453 -0.0015
 6386SOL    HW325277   0.038   2.109   2.884  3.7898  0.9550 -0.8885
 6386SOL    MW425278   0.035   2.171   2.945  0.1416  0.0351 -0.1336
 6387SOL     OW25279   5.376   6.403   4.756 -0.2184  0.0171  0.6621
 6387SOL    HW225280   5.367   6.430   4.665  2.0652 -0.4497  0.2289
 6387SOL    HW325281   5.452   6.452   4.788  0.0628 -1.0950  1.7813
 6387SOL    MW425282   5.385   6.413   4.748  0.1873  0.7930  0.1975
 6388SOL     OW25283   4.890   2.826   3.197  0.4201  0.1017  0.1319
 6388SOL    HW225284   4.897   2.814   3.102 -0.1510  3.0713 -0.4091
 6388SOL    HW325285   4.829   2.758   3.225  0.2676 -0.5898 -1.7121
 6388SOL    MW425286   4.883   2.816   3.188  0.2121 -0.1728  0.2032
 6389SOL     OW25287   2.094   5.402   0.313  0.0153  0.3341  0.1148
 6389SOL    HW225288   2.020   5.357   0.353  1.2256 -1.5628  0.3735
 6389SOL    HW325289   2.071   5.408   0.220 -1.1487  1.2539  0.4471
 6389SOL    MW425290   2.082   5.397   0.306  0.3799 -0.0072 -0.2037
 6390SOL     OW25291   4.926   0.081   6.202 -0.1652  0.1674  0.0693
 6390SOL    HW225292   4.930   0.002   6.147 -0.2004 -1.3523  2.1483
 6390SOL    HW325293   5.007   0.129   6.181  0.2304 -0.7878 -0.6745
 6390SOL    MW425294   4.937   0.077   6.192  0.4889  0.0521 -0.1533
 6391SOL     OW25295   1.551   3.204   2.742  0.6811 -0.0486 -0.1379
 6391SOL    HW225296   1.463   3.179   2.769  0.7144 -0.0927 -0.0707
 6391SOL    HW325297   1.588   3.249   2.818  1.8801 -2.7972  1.0772
 6391SOL    MW425298   1.544   3.206   2.756 -0.3040 -0.6212 -0.0412
 6392SOL     OW25299   4.660   5.550   2.471 -0.3175  0.0131 -0.5697
 6392SOL    HW225300   4.649   5.459   2.442  0.5008 -0.4947  0.6100
 6392SOL    HW325301   4.604   5.557   2.548  1.5596 -0.3347  0.9270
 6392SOL    MW425302   4.651   5.539   2.477 -0.1476  0.4628 -0.3668
 6393SOL     OW25303   6.137   0.319   4.189 -0.0722 -0.2624 -0.5841
 6393SOL    HW225304   6.158   0.411   4.208 -0.1139 -0.2332 -0.6825
 6393SOL    HW325305   6.043   0.319   4.172 -0.3383 -0.5292  0.7299
 6393SOL    MW425306   6.127   0.331   4.190  0.3399  0.1925 -0.2791
 6394SOL     OW25307   1.760   0.355   1.532  0.4488 -0.9668  0.4062
 6394SOL    HW225308   1.830   0.294   1.512  1.6455 -1.0646  4.2322
 6394SOL    HW325309   1.792   0.440   1.502  1.2503 -1.3414  0.1963
 6394SOL    MW425310   1.773   0.358   1.525  0.1452  0.9940  0.1331
 6395SOL     OW25311   4.106   3.694   0.805 -0.5952  0.5849 -0.1944
 6395SOL    HW225312   4.170   3.632   0.772 -1.6235 -0.3700 -0.4669
 6395SOL    HW325313   4.072   3.653   0.885 -2.8942 -0.3463 -1.5462
 6395SOL    MW425314   4.110   3.680   0.811  0.5669  0.0194 -0.1407
 6396SOL     OW25315   3.314   3.021   3.554  0.0926 -0.5479 -0.2941
 6396SOL    HW225316   3.278   3.006   3.467  1.1218 -0.9500 -0.6635
 6396SOL    HW325317   3.321   3.116   3.562  1.7315 -0.5349 -1.4012
 6396SOL    MW425318   3.310   3.031   3.544 -0.2622  0.1958 -0.1755
 6397SOL     OW25319   3.945   0.806   0.928 -0.4262  0.1078 -0.5337
 6397SOL    HW225320   3.922   0.790   0.837 -3.9624 -0.4411  0.2988
 6397SOL    HW325321   3.943   0.720   0.969  0.6144  0.4094  0.2018
 6397SOL    MW425322   3.942   0.793   0.921  0.1837 -0.2893 -0.2491
 6398SOL     OW25323   0.429   2.888   2.129  0.1761  0.0356 -0.2446
 6398SOL    HW225324   0.468   2.853   2.049  0.6630 -0.4971  0.2192
 6398SOL    HW325325   0.451   2.981   2.128 -1.0301  0.3318 -1.4275
 6398SOL    MW425326   0.437   2.896   2.118  0.4390  0.2782  0.7315
 6399SOL     OW25327   2.289   3.552   5.925  0.3010  0.6845 -0.0098
 6399SOL    HW225328   2.367   3.607   5.916  0.1277  1.2607  1.6262
 6399SOL    HW325329   2.312   3.487   5.990 -0.4666  0.6671  0.2612
 6399SOL    MW425330   2.302   3.551   5.932 -0.2982 -0.2350 -0.4126
 6400SOL     OW25331   0.707   5.832   1.393  0.7287  0.3124  0.5407
 6400SOL    HW225332   0.694   5.784   1.475  1.3333  1.9231  1.6400
 6400SOL    HW325333   0.797   5.810   1.367  0.3568 -0.6193 -0.0108
 6400SOL    MW425334   0.717   5.822   1.401  0.7802 -0.1957  0.4927
 6401SOL     OW25335   2.379   3.379   4.860  0.0632  0.4918 -0.2683
 6401SOL    HW225336   2.384   3.310   4.926 -0.2572  0.5342 -0.1975
 6401SOL    HW325337   2.333   3.340   4.786 -2.0083  1.2122  0.5574
 6401SOL    MW425338   2.374   3.365   4.859  0.0162  0.1334 -0.4212
 6402SOL     OW25339   0.213   3.892   0.973 -0.1919 -0.3285 -0.4437
 6402SOL    HW225340   0.144   3.857   1.029 -1.6894 -2.0893 -3.1622
 6402SOL    HW325341   0.178   3.975   0.940 -0.3125 -0.4335 -0.5792
 6402SOL    MW425342   0.200   3.898   0.976 -0.5738  0.1836  0.1948
 6403SOL     OW25343   0.812   0.784   1.594 -0.4955 -0.1296  0.9585
 6403SOL    HW225344   0.791   0.870   1.556  2.4054  0.1566 -0.2702
 6403SOL    HW325345   0.864   0.805   1.672  1.0687 -0.6802  0.1167
 6403SOL    MW425346   0.816   0.798   1.599 -0.4118 -0.3290 -0.3387
 6404SOL     OW25347   0.555   2.459   3.459 -0.3357  0.0512  0.2016
 6404SOL    HW225348   0.468   2.474   3.424 -0.7084 -0.1694  1.0018
 6404SOL    HW325349   0.613   2.513   3.405 -0.7440 -0.9738 -1.3415
 6404SOL    MW425350   0.551   2.468   3.447 -0.2262  0.1661 -0.0214
 6405SOL     OW25351   5.650   4.103   2.265  0.1675  0.1445 -0.3491
 6405SOL    HW225352   5.735   4.062   2.251  0.3273  0.4742 -0.3406
 6405SOL    HW325353   5.641   4.165   2.193 -0.2193 -0.1407 -0.5481
 6405SOL    MW425354   5.660   4.106   2.254  0.2900  0.3116 -0.1749
 6406SOL     OW25355   5.427   0.264   3.138 -0.3844 -0.0301 -0.0358
 6406SOL    HW225356   5.433   0.240   3.046 -1.3160  0.5293 -0.2454
 6406SOL    HW325357   5.503   0.320   3.153  0.0984 -0.5972 -0.3036
 6406SOL    MW425358   5.438   0.268   3.128 -0.1686 -0.1483  0.1760
 6407SOL     OW25359   3.632   0.732   5.583  0.1974 -0.5208  0.2394
 6407SOL    HW225360   3.562   0.706   5.522 -0.3314  0.0125  0.6148
 6407SOL    HW325361   3.660   0.818   5.552 -0.6158  0.1052  1.2110
 6407SOL    MW425362   3.626   0.740   5.571  0.3949  0.0699  0.3221
 6408SOL     OW25363   1.734   0.834   5.918  0.0717 -0.1498 -0.1219
 6408SOL    HW225364   1.694   0.888   5.850 -1.0027 -0.6877  0.0599
 6408SOL    HW325365   1.801   0.891   5.957 -0.5675  0.8139 -0.3900
 6408SOL    MW425366   1.737   0.849   5.914 -0.1852 -0.6764  0.5521
 6409SOL     OW25367   3.813   3.317   3.862 -0.6181  0.5392  0.3076
 6409SOL    HW225368   3.823   3.336   3.769  0.2315  0.0566  0.2905
 6409SOL    HW325369   3.843   3.396   3.906 -1.2811  0.8745  0.1805
 6409SOL    MW425370   3.818   3.330   3.855  0.9621  0.1433  0.3176
 6410SOL     OW25371   2.588   0.072   0.070 -0.1632 -0.3262  0.6148
 6410SOL    HW225372   2.548  -0.007   0.105  0.1125 -0.6946  0.1019
 6410SOL    HW325373   2.529   0.100  -0.001  0.3213 -0.7006  0.0588
 6410SOL    MW425374   2.575   0.065   0.065  0.8270 -0.2802 -0.0189
 6411SOL     OW25375   0.264   2.279   1.092 -0.1479 -0.5788 -0.1991
 6411SOL    HW225376   0.329   2.342   1.059 -0.3248  1.1426  2.4250
 6411SOL    HW325377   0.182   2.304   1.048  0.0417  0.2741 -0.0935
 6411SOL    MW425378   0.262   2.291   1.082 -0.3051 -0.1674 -1.2968
 6412SOL     OW25379   5.252   1.644   1.825  0.0061  0.5270  0.2490
 6412SOL    HW225380   5.175   1.651   1.881 -0.3481 -1.9009  0.1845
 6412SOL    HW325381   5.308   1.717   1.851 -1.6592  1.4970  1.3014
 6412SOL    MW425382   5.249   1.655   1.836 -0.4561  0.1253  0.7912
 6413SOL     OW25383   3.231   2.978   3.308 -0.3418 -0.0965 -0.2009
 6413SOL    HW225384   3.286   3.004   3.234  0.2093 -0.1050  0.2019
 6413SOL    HW325385   3.235   2.883   3.308 -0.6569 -0.1100 -0.3961
 6413SOL    MW425386   3.239   2.969   3.298 -0.1785 -0.3272  0.1433
 6414SOL     OW25387   5.731   0.173   3.891  0.0832 -0.5130 -0.1166
 6414SOL    HW225388   5.818   0.150   3.858  1.3118  1.6223  1.4008
 6414SOL    HW325389   5.697   0.235   3.826  0.5280  0.1185  0.2434
 6414SOL    MW425390   5.738   0.178   3.878 -0.0042  0.4009  0.3586
 6415SOL     OW25391   5.245   1.283   3.667  0.0189  0.1183 -0.5502
 6415SOL    HW225392   5.217   1.194   3.646 -0.4875  0.0029  0.5624
 6415SOL    HW325393   5.169   1.338   3.647 -0.7250 -0.0737  1.4980
 6415SOL    MW425394   5.231   1.278   3.662 -0.0418 -0.1407  0.2361
 6416SOL     OW25395   5.939   1.815   4.752 -0.1539 -0.3830 -0.1985
 6416SOL    HW225396   5.963   1.744   4.810 -1.0657 -1.6509 -1.3006
 6416SOL    HW325397   5.938   1.893   4.807 -0.0971 -1.3899  1.2612
 6416SOL    MW425398   5.942   1.816   4.767  0.3418  0.0731  0.9100
 6417SOL     OW25399   1.971   3.636   4.253 -0.4714 -0.5537 -0.1453
 6417SOL    HW225400   1.923   3.616   4.173  0.1014 -2.4077 -0.0762
 6417SOL    HW325401   1.943   3.724   4.277 -1.3090 -0.3137 -1.8993
 6417SOL    MW425402   1.961   3.645   4.246 -0.1232  0.9053 -0.4087
 6418SOL     OW25403   3.029   1.443   2.626  0.4163 -0.1834 -0.7529
 6418SOL    HW225404   2.964   1.487   2.681 -0.1154 -0.7289 -0.9339
 6418SOL    HW325405   3.007   1.350   2.633  1.3452 -0.4023 -0.6074
 6418SOL    MW425406   3.017   1.437   2.634 -0.3052 -0.8262 -0.1467
 6419SOL     OW25407   2.686   0.352   4.693  0.5603  0.2833 -0.0784
 6419SOL    HW225408   2.754   0.298   4.733  0.4531 -0.0876 -0.3923
 6419SOL    HW325409   2.613   0.349   4.755  0.2198 -0.6768 -0.5169
 6419SOL    MW425410   2.685   0.345   4.706  0.5195 -0.5412 -0.2482
 6420SOL     OW25411   2.880   3.714   5.952  0.2823 -0.4140  0.2029
 6420SOL    HW225412   2.809   3.700   6.015  0.4828 -0.6676  0.3724
 6420SOL    HW325413   2.840   3.697   5.867  0.0306 -0.1486  0.2665
 6420SOL    MW425414   2.866   3.710   5.949 -0.0527  0.5045 -0.4958
 6421SOL     OW25415   5.841   1.286   2.708 -0.0026 -0.4485 -0.2717
 6421SOL    HW225416   5.876   1.338   2.780 -0.2191 -1.2623  0.4395
 6421SOL    HW325417   5.815   1.203   2.749  0.6141 -1.2304 -1.4313
 6421SOL    MW425418   5.842   1.282   2.723 -0.6191  0.4701  0.3722
 6422SOL     OW25419   3.650   2.153   4.594 -0.3564 -0.2289  0.1216
 6422SOL    HW225420   3.604   2.116   4.518  0.5022 -1.3492  0.1345
 6422SOL    HW325421   3.605   2.236   4.610 -1.8839 -0.9290 -0.3400
 6422SOL    MW425422   3.638   2.159   4.586 -0.2183  0.0336  0.1564
 6423SOL     OW25423   5.711   5.558   0.267 -0.0100 -0.4706  0.3451
 6423SOL    HW225424   5.763   5.588   0.193 -1.4094  0.3348 -0.3586
 6423SOL    HW325425   5.687   5.639   0.314 -0.2137 -0.8680  0.9417
 6423SOL    MW425426   5.715   5.573   0.264  0.1925  0.2032 -0.1313
 6424SOL     OW25427   1.015   4.675   0.608  0.7012 -0.5624  0.2485
 6424SOL    HW225428   1.074   4.600   0.600  0.2877 -1.0227  1.2790
 6424SOL    HW325429   1.067   4.750   0.581  1.4967 -1.0622  0.3585
 6424SOL    MW425430   1.030   4.675   0.603 -0.1687 -0.2138 -0.0811
 6425SOL     OW25431   1.279   5.741   1.064 -0.2964  0.2076  0.0192
 6425SOL    HW225432   1.253   5.799   1.136 -0.4897 -0.2862  0.3531
 6425SOL    HW325433   1.201   5.688   1.047 -0.0005 -0.2271 -0.0101
 6425SOL    MW425434   1.265   5.741   1.071 -0.3406 -0.1080  0.3080
 6426SOL     OW25435   1.733   0.562   0.305  0.2672  0.0224 -0.2684
 6426SOL    HW225436   1.744   0.535   0.214  0.4020  2.7107 -1.1494
 6426SOL    HW325437   1.823   0.567   0.339  0.1256 -3.7707  1.0283
 6426SOL    MW425438   1.746   0.559   0.297 -0.3121 -0.3626 -0.7739
 6427SOL     OW25439   1.730   3.472   5.407 -0.0273 -0.4591 -0.3423
 6427SOL    HW225440   1.803   3.456   5.467 -0.1575 -0.9684 -0.3137
 6427SOL    HW325441   1.721   3.567   5.405  0.2685 -0.4181  0.0980
 6427SOL    MW425442   1.738   3.482   5.415  0.0659 -0.1847  0.2246
 6428SOL     OW25443   6.313   3.938   5.269  0.4492  0.2496  0.3009
 6428SOL    HW225444   6.379   3.873   5.293 -0.7367 -1.1370 -0.0611
 6428SOL    HW325445   6.260   3.895   5.202  0.5982  2.1943 -1.1464
 6428SOL    MW425446   6.315   3.924   5.263 -0.5844  0.4254 -0.6235
 6429SOL     OW25447   4.837   4.924   1.518  0.1580  0.1694  0.0008
 6429SOL    HW225448   4.785   4.890   1.445  0.2461 -1.5855  0.7022
 6429SOL    HW325449   4.773   4.947   1.585  0.1776 -0.2693  0.1747
 6429SOL    MW425450   4.822   4.922   1.517  0.3398 -0.0568  0.8144
 6430SOL     OW25451   5.178   2.465   6.247 -0.0501  0.0543 -0.0395
 6430SOL    HW225452   5.179   2.522   6.324 -0.4277  0.8439 -0.5954
 6430SOL    HW325453   5.247   2.500   6.191 -1.8351  1.5620 -1.4564
 6430SOL    MW425454   5.187   2.477   6.250 -0.0394  0.0412  0.0957
 6431SOL     OW25455   4.327   5.480   1.919 -0.4577  0.6579 -0.4381
 6431SOL    HW225456   4.403   5.425   1.899 -0.3139  0.2851  0.9890
 6431SOL    HW325457   4.365   5.566   1.936  0.0585 -0.0703  2.8100
 6431SOL    MW425458   4.342   5.484   1.919  0.6873 -0.1420 -0.1033
 6432SOL     OW25459   2.502   6.146   2.368  0.6225  0.4897 -0.3324
 6432SOL    HW225460   2.436   6.146   2.299  0.4439  0.2514 -0.1633
 6432SOL    HW325461   2.562   6.216   2.343 -1.0570  2.4630  0.8079
 6432SOL    MW425462   2.501   6.155   2.356 -0.0701 -0.0313  0.4739
 6433SOL     OW25463   3.662   4.988   2.100  0.1695 -0.0397  0.0375
 6433SOL    HW225464   3.618   4.909   2.131 -1.4056  0.8014  0.0258
 6433SOL    HW325465   3.636   5.056   2.161 -0.2102  0.9146 -1.1583
 6433SOL    MW425466   3.653   4.986   2.112  0.3594 -0.1997 -0.2387
 6434SOL     OW25467   2.720   3.256   5.446 -0.5885 -0.0044 -0.5743
 6434SOL    HW225468   2.789   3.191   5.458 -1.6557 -0.8485  1.4182
 6434SOL    HW325469   2.755   3.316   5.380  0.5022 -2.4484 -2.3453
 6434SOL    MW425470   2.734   3.256   5.439  0.2043  0.6605  0.2880
 6435SOL     OW25471   2.370   3.925   1.875 -0.0979 -0.8276 -0.2207
 6435SOL    HW225472   2.293   3.972   1.843  0.7023 -0.5607 -1.8473
 6435SOL    HW325473   2.431   3.993   1.902 -0.1507 -1.0271  0.4311
 6435SOL    MW425474   2.368   3.940   1.875  0.4590 -0.3551  0.3313
 6436SOL     OW25475   5.237   4.233   4.753  0.4503  0.1280 -0.0333
 6436SOL    HW225476   5.211   4.210   4.842  1.5040  0.6209  0.4145
 6436SOL    HW325477   5.298   4.164   4.727 -0.8311 -0.7241 -0.8716
 6436SOL    MW425478   5.242   4.221   4.761 -0.0269  0.4443 -0.2096
 6437SOL     OW25479   3.265   5.285   5.050 -0.5949 -0.4402 -0.0701
 6437SOL    HW225480   3.285   5.252   5.138  2.2463 -1.9002 -1.1219
 6437SOL    HW325481   3.323   5.360   5.039 -1.7283  0.4194 -0.3579
 6437SOL    MW425482   3.275   5.290   5.060  0.0174 -0.5664  0.5024
 6438SOL     OW25483   4.206   3.160   5.826 -0.0974 -0.3373 -0.4826
 6438SOL    HW225484   4.176   3.230   5.883  0.0259 -1.8939  1.6189
 6438SOL    HW325485   4.147   3.162   5.751 -0.5770  1.4699 -0.0949
 6438SOL    MW425486   4.194   3.169   5.823  0.0562 -0.4093 -0.4358
 6439SOL     OW25487   3.960   2.156   3.881 -0.4731 -0.1805 -0.2531
 6439SOL    HW225488   3.956   2.162   3.786  1.8069  0.6881 -0.3574
 6439SOL    HW325489   4.054   2.152   3.901 -0.8973 -0.5315  1.9540
 6439SOL    MW425490   3.972   2.156   3.871  0.6189 -0.0049 -0.5184
 6440SOL     OW25491   3.869   5.805   0.602  0.1353 -0.5904 -0.2145
 6440SOL    HW225492   3.902   5.784   0.690 -3.0183  1.5132  1.6851
 6440SOL    HW325493   3.789   5.753   0.593 -1.4130  1.6648 -0.2971
 6440SOL    MW425494   3.863   5.796   0.613 -0.1437  0.6946  0.0174
 6441SOL     OW25495   4.356   1.468   1.485  0.1500 -0.4340 -0.1337
 6441SOL    HW225496   4.450   1.487   1.489  0.0740 -0.2169  0.9068
 6441SOL    HW325497   4.343   1.397   1.547 -0.2256 -1.1546 -1.0180
 6441SOL    MW425498   4.367   1.461   1.493 -0.2460 -0.1161  0.1252
 6442SOL     OW25499   1.484   1.142   4.926 -0.1456 -0.4036 -0.8358
 6442SOL    HW225500   1.432   1.160   4.848 -0.2777 -0.0288 -0.6650
 6442SOL    HW325501   1.504   1.049   4.920 -2.0827 -0.9128 -0.1536
 6442SOL    MW425502   1.480   1.132   4.915  0.0540 -0.2734  0.3580
 6443SOL     OW25503   0.901   0.574   1.427  0.7756 -0.4682  0.5638
 6443SOL    HW225504   0.872   0.648   1.479  1.6089  0.1247  0.2043
 6443SOL    HW325505   0.919   0.505   1.491  1.2771  0.0749  1.0127
 6443SOL    MW425506   0.900   0.575   1.442 -0.3159  0.0574  0.5566
 6444SOL     OW25507   6.211   4.942   1.584 -0.0264 -0.7810  0.7561
 6444SOL    HW225508   6.203   5.013   1.520 -0.7126 -2.2410 -0.8651
 6444SOL    HW325509   6.290   4.896   1.559 -0.6805 -1.7869  0.5022
 6444SOL    MW425510   6.220   4.946   1.572  0.8855  0.1126  0.0513
 6445SOL     OW25511   3.725   3.162   4.086 -0.2685 -0.6387  0.0989
 6445SOL    HW225512   3.783   3.088   4.073 -0.6884 -1.0989  0.8057
 6445SOL    HW325513   3.752   3.226   4.020  1.6051 -0.4915  0.9565
 6445SOL    MW425514   3.736   3.161   4.075 -0.2555 -0.8079 -0.2442
 6446SOL     OW25515   4.104   2.644   0.758  0.0551 -0.0411  0.0892
 6446SOL    HW225516   4.114   2.560   0.803  0.6364 -0.2587 -0.4444
 6446SOL    HW325517   4.024   2.633   0.706 -0.4721  0.1189  0.8464
 6446SOL    MW425518   4.095   2.631   0.757 -0.0299 -0.1147 -0.6933
 6447SOL     OW25519   5.312   4.456   1.424 -0.3259  0.0938  0.5201
 6447SOL    HW225520   5.260   4.377   1.441 -0.7031  0.3812  0.7198
 6447SOL    HW325521   5.403   4.426   1.429 -0.4418 -0.8139 -1.7519
 6447SOL    MW425522   5.317   4.441   1.427 -0.5330  0.7673  0.0842
 6448SOL     OW25523   4.907   5.159   1.320 -0.1143  0.3590  0.5727
 6448SOL    HW225524   4.842   5.146   1.251 -0.7324  1.9387  0.7975
 6448SOL    HW325525   4.905   5.078   1.371  0.0200 -0.6522 -0.9590
 6448SOL    MW425526   4.898   5.147   1.318 -0.3225  0.3117 -0.4914
 6449SOL     OW25527   0.286   5.008   4.104  0.1250  0.7975 -0.1268
 6449SOL    HW225528   0.291   4.988   4.197  1.0578  1.8277  0.0757
 6449SOL    HW325529   0.286   5.104   4.101 -1.9995  0.8108 -1.1041
 6449SOL    MW425530   0.287   5.018   4.116 -0.4561 -0.7013 -0.5169
 6450SOL     OW25531   5.367   0.620   1.247 -0.8415  0.3133 -0.0439
 6450SOL    HW225532   5.307   0.672   1.300  0.0950 -0.7322  2.1704
 6450SOL    HW325533   5.355   0.652   1.158 -2.0157  2.6268  0.8740
 6450SOL    MW425534   5.358   0.631   1.242 -0.2142  0.6654 -0.3455
 6451SOL     OW25535   4.520   2.977   3.621 -0.0287 -0.1799 -0.3696
 6451SOL    HW225536   4.558   2.899   3.580 -1.2328  0.8739 -3.8658
 6451SOL    HW325537   4.434   2.986   3.580  0.8136  4.0124 -1.7427
 6451SOL    MW425538   4.514   2.968   3.610 -0.2544 -0.3102  0.2890
 6452SOL     OW25539   0.896   0.874   5.875  0.5600  0.0843 -0.0302
 6452SOL    HW225540   0.823   0.833   5.921  0.5008  0.9691  0.6966
 6452SOL    HW325541   0.964   0.882   5.942  1.0761 -0.1091 -0.5282
 6452SOL    MW425542   0.895   0.870   5.890 -0.3482 -0.7419 -0.8368
 6453SOL     OW25543   5.318   0.625   2.875  0.1822 -1.0102 -0.1480
 6453SOL    HW225544   5.362   0.569   2.812  1.2951 -1.4531  0.9797
 6453SOL    HW325545   5.336   0.585   2.960 -1.5134 -0.5966  0.4575
 6453SOL    MW425546   5.326   0.613   2.878  0.1084 -0.1050 -0.0342
 6454SOL     OW25547   3.666   1.441   1.559 -0.8070  0.2468  0.3110
 6454SOL    HW225548   3.606   1.445   1.485 -1.4300  0.1824  0.8095
 6454SOL    HW325549   3.614   1.467   1.635  0.0051  0.9989  0.6280
 6454SOL    MW425550   3.651   1.445   1.559  0.3390  0.4567  0.1710
 6455SOL     OW25551   0.145   6.432   1.680 -0.4338 -0.0355  0.2599
 6455SOL    HW225552   0.072   6.494   1.691 -0.6702 -0.5838  2.2998
 6455SOL    HW325553   0.102   6.348   1.663 -0.4363 -0.5887  2.5631
 6455SOL    MW425554   0.129   6.429   1.679  0.4260 -0.0976  0.3513
 6456SOL     OW25555   4.834   4.066   0.594  0.4881  0.1265  0.2689
 6456SOL    HW225556   4.779   4.051   0.671 -0.7679 -1.5699 -0.8881
 6456SOL    HW325557   4.836   3.982   0.548  0.5794  1.2497 -1.9409
 6456SOL    MW425558   4.827   4.053   0.598 -0.6520  0.0168 -0.2021
 6457SOL     OW25559   3.011   0.105   3.662  0.2175  1.0381  0.2748
 6457SOL    HW225560   2.936   0.051   3.687  0.3988  0.1018 -1.1036
 6457SOL    HW325561   2.992   0.191   3.700 -1.7438  0.9449 -0.3646
 6457SOL    MW425562   2.998   0.109   3.671  0.4476  0.1510 -0.4645
 6458SOL     OW25563   2.633   1.360   0.529  0.7500 -0.1192 -0.0064
 6458SOL    HW225564   2.595   1.410   0.601  0.1425 -0.2954 -0.1946
 6458SOL    HW325565   2.574   1.375   0.456  0.6171 -1.0133 -0.0933
 6458SOL    MW425566   2.620   1.368   0.529  0.0261 -0.0111  0.1996
 6459SOL     OW25567   1.189   1.188   3.451 -0.7482 -0.3972  0.2716
 6459SOL    HW225568   1.223   1.217   3.536  0.9358  1.4190 -0.9644
 6459SOL    HW325569   1.116   1.130   3.474 -0.9551  0.7716  2.9493
 6459SOL    MW425570   1.184   1.184   3.465  0.2925 -0.0997  0.3096
 6460SOL     OW25571   5.372   5.615   4.545 -0.0781 -0.2972  0.3527
 6460SOL    HW225572   5.336   5.576   4.625  1.5083 -2.4893  0.1106
 6460SOL    HW325573   5.466   5.621   4.562  0.1430  0.2655 -0.9430
 6460SOL    MW425574   5.380   5.610   4.558  0.0619  0.0859 -0.0325
 6461SOL     OW25575   5.540   1.564   5.228  0.0634 -0.3347  0.4935
 6461SOL    HW225576   5.456   1.524   5.205 -1.7742  2.7785  1.1394
 6461SOL    HW325577   5.529   1.594   5.318  1.4422  1.1159  0.2276
 6461SOL    MW425578   5.527   1.563   5.237  0.0235  0.6352  0.0501
 6462SOL     OW25579   1.580   1.199   0.250  0.4662 -0.4485  0.6002
 6462SOL    HW225580   1.529   1.122   0.225 -0.8999 -0.1200  2.2158
 6462SOL    HW325581   1.645   1.167   0.312  2.7713 -0.9726 -1.8926
 6462SOL    MW425582   1.582   1.185   0.255 -0.1334 -0.1784 -0.5970
 6463SOL     OW25583   5.855   0.367   4.113 -0.2607  0.2031 -0.3241
 6463SOL    HW225584   5.882   0.402   4.027  2.2932 -1.7805 -0.4447
 6463SOL    HW325585   5.847   0.444   4.169  2.2839  1.2652 -1.2934
 6463SOL    MW425586   5.857   0.382   4.109  0.2193  0.0651  0.9403
 6464SOL     OW25587   4.252   5.555   1.669 -0.7421 -0.2244  0.2478
 6464SOL    HW225588   4.322   5.616   1.648 -0.3542 -1.0486 -0.9141
 6464SOL    HW325589   4.247   5.556   1.765  1.2278 -0.5712  0.3890
 6464SOL    MW425590   4.260   5.563   1.679 -0.0129 -0.0046 -0.3559
 6465SOL     OW25591   4.204   4.597   5.080  0.0299 -0.6367  0.1513
 6465SOL    HW225592   4.126   4.633   5.038 -0.3735  0.1812  1.5471
 6465SOL    HW325593   4.252   4.673   5.113  1.7070 -1.0788 -1.0920
 6465SOL    MW425594   4.200   4.612   5.079  0.1142  0.4065 -0.9392
 6466SOL     OW25595   1.879   0.022   1.000 -0.5339 -0.2890 -0.4819
 6466SOL    HW225596   1.914   0.111   0.997  0.5247 -0.6410  0.6371
 6466SOL    HW325597   1.858   0.007   1.092  0.0908 -1.4685 -0.4995
 6466SOL    MW425598   1.881   0.032   1.012  0.4391  0.8638  0.0247
 6467SOL     OW25599   3.370   3.530   2.988  0.4497  0.1972  0.4506
 6467SOL    HW225600   3.426   3.579   3.048  0.6654 -0.6710  0.9839
 6467SOL    HW325601   3.281   3.554   3.012  0.5675  0.7787  0.3086
 6467SOL    MW425602   3.366   3.540   2.999 -0.5611  0.6416  0.2153
 6468SOL     OW25603   1.838   0.296   3.193 -0.2339  0.5062  0.2453
 6468SOL    HW225604   1.775   0.345   3.245  0.2704  0.1176  1.2541
 6468SOL    HW325605   1.811   0.311   3.102 -1.3076  0.9664  0.6186
 6468SOL    MW425606   1.826   0.304   3.188  0.0181  0.2528 -1.0618
 6469SOL     OW25607   1.949   0.268   5.086  0.4602 -0.0667 -0.4883
 6469SOL    HW225608   1.870   0.311   5.120 -0.1122 -1.1692 -0.3774
 6469SOL    HW325609   1.930   0.253   4.994  0.0333 -1.3983 -0.2047
 6469SOL    MW425610   1.936   0.272   5.079  0.8301 -0.1340 -0.0097
 6470SOL     OW25611   3.015   5.416   4.292  0.4902  0.0177  0.2953
 6470SOL    HW225612   3.020   5.463   4.375 -0.1555 -0.2045  0.4630
 6470SOL    HW325613   3.078   5.345   4.301  0.1852 -0.1994  0.7206
 6470SOL    MW425614   3.024   5.413   4.304 -0.3340  0.3293  0.5141
 6471SOL     OW25615   5.991   1.598   5.017  0.2559  0.4979 -0.0773
 6471SOL    HW225616   6.027   1.520   4.977  1.2358  0.6746  0.4297
 6471SOL    HW325617   6.063   1.636   5.067 -0.8358  0.3893  1.6945
 6471SOL    MW425618   6.005   1.593   5.019  0.0859 -0.3812  0.1984
 6472SOL     OW25619   0.627   4.027   6.219 -0.3430 -0.2866  0.5909
 6472SOL    HW225620   0.532   4.014   6.229 -0.2763 -3.1645 -1.2739
 6472SOL    HW325621   0.639   4.039   6.124  1.2137 -0.7135  0.7168
 6472SOL    MW425622   0.616   4.027   6.207 -0.0958 -0.0860  0.2233
 6473SOL     OW25623   0.238   5.765   3.988  0.4517 -0.2238 -0.8218
 6473SOL    HW225624   0.176   5.745   3.918 -0.0989 -0.9730 -0.1280
 6473SOL    HW325625   0.323   5.737   3.953  0.0487 -1.4931 -0.8344
 6473SOL    MW425626   0.241   5.759   3.974 -0.0704 -0.1648  0.1637
 6474SOL     OW25627   3.739   1.954   1.152  0.5166 -0.3223 -0.5930
 6474SOL    HW225628   3.747   1.864   1.183  0.2782 -0.1133  0.1017
 6474SOL    HW325629   3.720   2.004   1.231  2.1338  0.5583 -0.7255
 6474SOL    MW425630   3.737   1.949   1.167  0.6379 -0.8849 -0.5416
 6475SOL     OW25631   5.089   1.201   4.494  0.0381  0.2883  0.6359
 6475SOL    HW225632   5.164   1.154   4.530 -0.0465  0.7265  1.3923
 6475SOL    HW325633   5.127   1.264   4.433  0.4134  1.4027  1.9723
 6475SOL    MW425634   5.104   1.203   4.490  0.3641 -0.1714 -0.9464
 6476SOL     OW25635   4.638   4.872   5.344  0.4021 -0.1274 -0.3879
 6476SOL    HW225636   4.708   4.929   5.376  1.6031 -1.9769  0.4715
 6476SOL    HW325637   4.583   4.855   5.422 -0.1725  0.1414 -0.7257
 6476SOL    MW425638   4.640   4.877   5.359  0.0600  0.5360 -0.5443
 6477SOL     OW25639   0.274   4.614   2.879  0.6179 -0.2237 -0.2809
 6477SOL    HW225640   0.310   4.685   2.826  0.3970  0.0217 -0.1004
 6477SOL    HW325641   0.234   4.657   2.954 -0.1837 -0.4879 -0.5505
 6477SOL    MW425642   0.273   4.629   2.882  0.2001 -0.4067 -0.3320
 6478SOL     OW25643   5.901   4.126   0.610  0.0694  0.7808  0.1999
 6478SOL    HW225644   5.949   4.045   0.593 -1.5372 -0.3003  0.5189
 6478SOL    HW325645   5.914   4.180   0.532 -0.4464 -0.6395 -0.9091
 6478SOL    MW425646   5.909   4.122   0.597  0.2165 -0.5772  0.3478
 6479SOL     OW25647   3.407   3.689   4.663  0.3888 -0.7414 -0.1769
 6479SOL    HW225648   3.345   3.684   4.736 -2.3134  1.3438 -2.0743
 6479SOL    HW325649   3.444   3.777   4.669  0.1435 -0.5484 -1.2174
 6479SOL    MW425650   3.403   3.700   4.673  0.4273  0.5131  0.3916
 6480SOL     OW25651   0.982   0.772   0.302  0.4056 -0.0466 -0.2947
 6480SOL    HW225652   0.890   0.798   0.306  0.1619 -1.0151  1.2308
 6480SOL    HW325653   1.011   0.776   0.393  1.2728 -1.7856 -0.4681
 6480SOL    MW425654   0.973   0.776   0.315  0.9364 -0.2483  0.1812
 6481SOL     OW25655   2.774   0.856   2.611 -0.6074 -1.1149  0.0730
 6481SOL    HW225656   2.780   0.926   2.676  0.5215 -0.0725 -1.1205
 6481SOL    HW325657   2.752   0.901   2.529  2.4326 -1.7906 -1.2300
 6481SOL    MW425658   2.772   0.871   2.609  0.1804  0.2641 -0.2247
 6482SOL     OW25659   2.371   3.159   5.058  0.1012  0.1901  0.0680
 6482SOL    HW225660   2.439   3.183   5.121  0.0453  2.7621 -0.7399
 6482SOL    HW325661   2.289   3.167   5.108  0.2307 -1.0178  0.5131
 6482SOL    MW425662   2.369   3.163   5.073  0.2765 -0.0557  0.9561
 6483SOL     OW25663   2.414   4.064   3.593  0.5444  0.2419 -0.5988
 6483SOL    HW225664   2.360   4.131   3.551 -0.7076 -0.7112 -0.5767
 6483SOL    HW325665   2.452   4.108   3.669  0.5214  1.1844 -1.1202
 6483SOL    MW425666   2.412   4.079   3.597 -0.0193  0.1689 -0.2026
 6484SOL     OW25667   1.904   5.027   2.484 -0.6819 -0.2409  0.3779
 6484SOL    HW225668   1.906   5.107   2.432  1.0015 -0.7966 -0.4725
 6484SOL    HW325669   1.921   5.055   2.574  0.4737  0.3060  0.0030
 6484SOL    MW425670   1.906   5.041   2.489  0.0427  0.7813 -0.9320
 6485SOL     OW25671   4.843   6.055   3.358  0.0399 -0.2333  0.4958
 6485SOL    HW225672   4.918   6.100   3.396  0.2483 -0.6639  0.5978
 6485SOL    HW325673   4.838   6.088   3.268 -1.6298  2.2612  1.3973
 6485SOL    MW425674   4.852   6.065   3.351  0.4203 -0.5199  0.0769
 6486SOL     OW25675   3.804   3.146   0.025  0.7735 -0.6482 -0.2998
 6486SOL    HW225676   3.882   3.165   0.077  0.8678 -1.5975 -0.0893
 6486SOL    HW325677   3.738   3.119   0.088  0.3537 -0.1415 -0.5095
 6486SOL    MW425678   3.805   3.145   0.040  0.3659 -0.4459  0.5311
 6487SOL     OW25679   5.741   2.248   4.191 -0.8837 -0.4851 -0.2347
 6487SOL    HW225680   5.675   2.272   4.126 -0.6054 -0.3839 -0.4813
 6487SOL    HW325681   5.729   2.312   4.261 -0.2001  0.3458 -0.8535
 6487SOL    MW425682   5.731   2.260   4.192  0.7512 -0.3814  0.2369
 6488SOL     OW25683   4.865   0.285   4.140 -0.6110 -0.0856  0.4793
 6488SOL    HW225684   4.868   0.278   4.044 -0.3579 -1.2361  0.5526
 6488SOL    HW325685   4.793   0.346   4.157 -0.7191  0.0638 -0.4473
 6488SOL    MW425686   4.856   0.292   4.129 -0.1988  0.2596  0.5324
 6489SOL     OW25687   0.516   4.965   1.454  0.0316 -0.3667  0.4792
 6489SOL    HW225688   0.468   4.996   1.377 -1.0505 -0.7120  0.9968
 6489SOL    HW325689   0.451   4.919   1.506  0.6851  0.1115  1.7557
 6489SOL    MW425690   0.501   4.963   1.450  0.6846  0.1357 -0.0701
 6490SOL     OW25691   0.678   2.200   3.419  0.7968 -0.1324  0.4325
 6490SOL    HW225692   0.680   2.295   3.435 -0.0524  0.1421 -0.8986
 6490SOL    HW325693   0.654   2.162   3.503 -0.1221  0.9591  0.6922
 6490SOL    MW425694   0.675   2.208   3.432 -0.1983  0.3286 -0.0995
 6491SOL     OW25695   3.479   1.407   0.576 -0.5355 -0.5012  0.1150
 6491SOL    HW225696   3.424   1.347   0.626 -1.4248 -0.7815 -1.1331
 6491SOL    HW325697   3.540   1.350   0.528 -0.5939 -0.3396 -0.1581
 6491SOL    MW425698   3.480   1.392   0.576 -0.3155  0.4739  0.7130
 6492SOL     OW25699   1.582   6.031   0.557  0.0069 -0.0315  0.1086
 6492SOL    HW225700   1.587   6.123   0.533  1.0906 -0.2665 -0.6145
 6492SOL    HW325701   1.534   6.031   0.640  0.8710  1.2745  0.6458
 6492SOL    MW425702   1.576   6.043   0.565 -0.1193 -0.2892 -0.5094
 6493SOL     OW25703   3.690   1.228   1.275 -0.4534 -0.0950 -0.2761
 6493SOL    HW225704   3.671   1.192   1.362  0.3030 -1.2961 -0.5804
 6493SOL    HW325705   3.768   1.282   1.288 -0.2773 -0.3585 -0.2128
 6493SOL    MW425706   3.698   1.230   1.288 -0.1191 -0.3330 -0.3887
 6494SOL     OW25707   5.368   2.873   1.288 -0.4016 -0.1603  0.3997
 6494SOL    HW225708   5.353   2.845   1.197  1.8528  0.1829 -0.1574
 6494SOL    HW325709   5.448   2.925   1.283 -0.3817  0.0836  2.5661
 6494SOL    MW425710   5.377   2.876   1.275 -0.5664 -0.0472  0.4373
 6495SOL     OW25711   0.600   3.831   1.454  0.1737 -0.3030  0.3502
 6495SOL    HW225712   0.617   3.919   1.421 -0.2171 -0.1830  0.4541
 6495SOL    HW325713   0.534   3.796   1.394 -2.3939  0.8117  2.3308
 6495SOL    MW425714   0.593   3.838   1.442  0.5589  0.1128 -0.5758
 6496SOL     OW25715   5.283   1.642   1.553 -0.1770 -0.0928  0.3426
 6496SOL    HW225716   5.259   1.663   1.644 -0.2503 -0.0729  0.3190
 6496SOL    HW325717   5.360   1.586   1.561 -0.2872 -0.2365  0.4252
 6496SOL    MW425718   5.290   1.637   1.566 -0.1922  0.0378 -0.4546
 6497SOL     OW25719   1.336   2.003   5.702  0.4643 -0.0290 -0.3587
 6497SOL    HW225720   1.263   1.954   5.664  0.5181 -1.2409  1.0123
 6497SOL    HW325721   1.403   1.937   5.719  0.6751  0.5454  1.2326
 6497SOL    MW425722   1.335   1.988   5.700  0.1830  0.1295  0.6448
 6498SOL     OW25723   5.350   0.395   1.413 -0.0798 -0.1614  0.0202
 6498SOL    HW225724   5.280   0.435   1.464 -0.0576  1.1477 -0.9284
 6498SOL    HW325725   5.358   0.451   1.336  0.0346 -1.9401 -1.3142
 6498SOL    MW425726   5.342   0.408   1.410 -0.4520  0.2220 -0.1470
 6499SOL     OW25727   5.522   0.040   4.091  0.0442 -0.8190 -0.4553
 6499SOL    HW225728   5.508   0.025   3.998  0.5008 -1.1997 -0.4683
 6499SOL    HW325729   5.584   0.113   4.095 -1.5685  0.6034 -0.4038
 6499SOL    MW425730   5.528   0.048   4.079  0.2613 -1.0762 -0.0479
 6500SOL     OW25731   1.624   3.110   1.583 -0.4849 -0.2363 -0.0476
 6500SOL    HW225732   1.533   3.083   1.595 -1.3319  1.9321 -1.1346
 6500SOL    HW325733   1.633   3.188   1.639  1.1010 -1.1456  1.0242
 6500SOL    MW425734   1.613   3.117   1.592  0.1680 -0.4278  0.3405
 6501SOL     OW25735   0.078   3.295   0.802  0.3559  0.4850 -0.2532
 6501SOL    HW225736  -0.005   3.342   0.793  0.2774  0.3202 -0.4123
 6501SOL    HW325737   0.130   3.323   0.727  0.5365  0.7740 -0.0186
 6501SOL    MW425738   0.074   3.305   0.791 -0.3835 -0.1259  0.2171
 6502SOL     OW25739   4.342   4.733   0.434 -0.2991 -0.0131 -0.1722
 6502SOL    HW225740   4.316   4.749   0.343 -0.8998 -2.2761 -0.4663
 6502SOL    HW325741   4.287   4.659   0.462  1.4191 -0.8246  1.2858
 6502SOL    MW425742   4.331   4.725   0.426  0.3453  0.2147  0.5062
 6503SOL     OW25743   0.521   5.894   5.873  0.1036  0.1515  0.2985
 6503SOL    HW225744   0.535   5.932   5.959  0.4022  0.5443  0.0762
 6503SOL    HW325745   0.427   5.902   5.858  0.1025  0.4015  0.4393
 6503SOL    MW425746   0.510   5.900   5.882  0.6428  0.2997 -0.5040
 6504SOL     OW25747   2.229   5.961   4.916 -0.0297  0.4623 -0.1231
 6504SOL    HW225748   2.274   6.042   4.893  0.7445 -0.3441 -1.6688
 6504SOL    HW325749   2.299   5.895   4.921 -0.6928 -0.2059  0.6494
 6504SOL    MW425750   2.244   5.963   4.913 -0.2621  0.6440 -0.6924
 6505SOL     OW25751   2.760   3.330   3.491 -0.5077  0.1660  0.0745
 6505SOL    HW225752   2.799   3.418   3.498 -1.4003  0.5787 -0.0683
 6505SOL    HW325753   2.697   3.327   3.563  0.2919 -0.7795  0.7706
 6505SOL    MW425754   2.757   3.341   3.502  0.1892 -0.2106  0.2521
 6506SOL     OW25755   4.219   5.783   0.831  0.1972 -0.6893  0.4365
 6506SOL    HW225756   4.129   5.751   0.838 -0.5341  0.9449 -0.8627
 6506SOL    HW325757   4.244   5.803   0.921 -0.7093 -1.2306  0.8238
 6506SOL    MW425758   4.210   5.781   0.844 -0.4624  0.1219  0.6034
 6507SOL     OW25759   3.096   0.659   4.616 -0.3834 -0.2314 -0.0497
 6507SOL    HW225760   3.017   0.707   4.592  0.8577  2.3022  0.6645
 6507SOL    HW325761   3.168   0.717   4.594  1.2788 -2.0249  0.3309
 6507SOL    MW425762   3.095   0.673   4.610 -0.0436 -0.3399 -0.1923
 6508SOL     OW25763   0.567   2.684   0.199  0.2294  0.9062 -0.4836
 6508SOL    HW225764   0.494   2.744   0.214  0.2626  0.5958  1.2093
 6508SOL    HW325765   0.556   2.617   0.267  2.1606  0.9362 -0.0944
 6508SOL    MW425766   0.556   2.683   0.210  0.2016  0.2923  0.5199
 6509SOL     OW25767   4.829   1.665   3.021  0.4396  0.4470  0.4396
 6509SOL    HW225768   4.791   1.630   3.102  1.0006  0.2608  0.6268
 6509SOL    HW325769   4.806   1.601   2.954 -0.3264  0.7730  0.3770
 6509SOL    MW425770   4.821   1.652   3.023 -0.2284 -0.3750 -0.1030
 6510SOL     OW25771   1.282   1.071   4.379 -0.0999  0.3744 -0.0315
 6510SOL    HW225772   1.204   1.084   4.432  0.4721  1.1959  0.6429
 6510SOL    HW325773   1.254   1.089   4.289 -0.5418  1.3169  0.2835
 6510SOL    MW425774   1.268   1.075   4.374 -0.1953  0.4538  0.0008
 6511SOL     OW25775   2.280   1.123   4.005 -0.0881 -0.1049  0.7862
 6511SOL    HW225776   2.358   1.136   4.058 -0.1641  0.9932  0.6585
 6511SOL    HW325777   2.307   1.147   3.916 -0.5305  0.1804  0.7243
 6511SOL    MW425778   2.293   1.128   4.000 -0.3512 -0.4295 -0.2320
 6512SOL     OW25779   0.335   3.363   0.696 -0.2472 -0.2518 -0.2739
 6512SOL    HW225780   0.383   3.302   0.640  2.1226  1.2078  0.0234
 6512SOL    HW325781   0.375   3.448   0.679 -1.3610  0.7112  1.5686
 6512SOL    MW425782   0.347   3.366   0.686  0.2762 -0.2519 -0.0093
 6513SOL     OW25783   2.941   2.496   3.492 -0.1054  0.7464  0.2389
 6513SOL    HW225784   2.859   2.498   3.540 -1.0906  1.9753 -1.3794
 6513SOL    HW325785   2.939   2.412   3.445  0.8652 -0.4571  2.2400
 6513SOL    MW425786   2.930   2.485   3.492 -0.5045  0.0196 -0.0007
 6514SOL     OW25787   2.127   2.853   2.926  0.1746 -0.4619  0.0597
 6514SOL    HW225788   2.134   2.941   2.962  0.5803 -0.5924  0.2938
 6514SOL    HW325789   2.097   2.799   2.999  1.8403 -0.8930  0.4509
 6514SOL    MW425790   2.124   2.858   2.940  0.0653  0.5333 -0.4563
 6515SOL     OW25791   4.222   4.066   4.765 -0.1390 -0.4353 -0.2722
 6515SOL    HW225792   4.245   4.000   4.830 -0.9942 -1.4221 -0.9555
 6515SOL    HW325793   4.168   4.129   4.813 -0.3321 -0.8767  0.0925
 6515SOL    MW425794   4.218   4.066   4.780  0.5826  0.0808 -0.4260
 6516SOL     OW25795   4.947   2.641   6.037  0.0485  0.0121 -0.1772
 6516SOL    HW225796   5.016   2.587   6.075  0.7402  0.3464 -0.9311
 6516SOL    HW325797   4.868   2.615   6.084  0.8282  0.2748  1.3489
 6516SOL    MW425798   4.946   2.631   6.048 -0.9739 -0.0459  0.1604
 6517SOL     OW25799   4.823   6.131   2.833  0.2525 -0.3959 -0.5302
 6517SOL    HW225800   4.871   6.061   2.788 -0.7556 -0.1270 -2.1030
 6517SOL    HW325801   4.871   6.211   2.812 -1.2733  0.0090 -2.9028
 6517SOL    MW425802   4.836   6.132   2.824  0.2839 -1.0521  0.1054
 6518SOL     OW25803   1.407   3.561   2.626 -0.3494  0.4605  0.2540
 6518SOL    HW225804   1.369   3.478   2.598  0.0985  0.1203  0.6387
 6518SOL    HW325805   1.334   3.608   2.667 -0.9309  0.8294 -1.1421
 6518SOL    MW425806   1.392   3.557   2.628  0.2516 -0.2172 -0.1154
 6519SOL     OW25807   1.563   2.736   6.030  0.2318 -0.2823  0.3945
 6519SOL    HW225808   1.612   2.660   5.996  2.0311  0.3218  1.4990
 6519SOL    HW325809   1.616   2.767   6.103 -2.0143  0.2615  1.8596
 6519SOL    MW425810   1.577   2.730   6.035 -0.1879  0.1466 -0.3402
 6520SOL     OW25811   1.066   1.129   3.103 -0.4313 -0.4578  0.0489
 6520SOL    HW225812   1.105   1.043   3.118 -0.1054 -0.1196  1.2925
 6520SOL    HW325813   1.113   1.187   3.163 -1.5498  0.3321  0.1846
 6520SOL    MW425814   1.077   1.125   3.113  0.1714 -0.3271  0.1160
 6521SOL     OW25815   2.351   4.077   3.280  0.1911 -0.4682  0.1262
 6521SOL    HW225816   2.330   4.151   3.224  1.5632  0.5702  0.9216
 6521SOL    HW325817   2.326   4.000   3.229  0.7858  0.4479 -1.6248
 6521SOL    MW425818   2.345   4.077   3.266 -0.1207 -0.6146  0.1849
 6522SOL     OW25819   3.441   1.097   3.356  0.8138  0.6852  0.1756
 6522SOL    HW225820   3.533   1.110   3.377  2.0988  1.5189 -4.6969
 6522SOL    HW325821   3.402   1.184   3.367  0.9586  0.6840  0.7464
 6522SOL    MW425822   3.448   1.110   3.360 -0.2775  0.3583  0.0867
 6523SOL     OW25823   3.126   5.031   5.284 -0.9204 -0.3852 -0.2598
 6523SOL    HW225824   3.067   5.103   5.308 -0.7566 -0.0383 -0.8753
 6523SOL    HW325825   3.200   5.039   5.343 -0.7942  0.0975 -0.4824
 6523SOL    MW425826   3.128   5.041   5.295  0.5903  0.3583  1.0863
 6524SOL     OW25827   3.386   3.739   1.712 -0.2450  0.4805  0.1556
 6524SOL    HW225828   3.431   3.688   1.645  1.7585  1.4878  0.6549
 6524SOL    HW325829   3.414   3.699   1.795 -1.0717  0.5234  0.4703
 6524SOL    MW425830   3.396   3.727   1.714  0.4291  0.7042 -0.1469
 6525SOL     OW25831   6.002   2.434   5.180 -0.8443  0.1571 -0.1899
 6525SOL    HW225832   6.055   2.423   5.259 -0.9873  0.8267  0.0055
 6525SOL    HW325833   5.940   2.503   5.202 -1.1671  0.0533 -0.7473
 6525SOL    MW425834   6.001   2.442   5.193 -0.1262  0.0495  0.4080
 6526SOL     OW25835   4.934   5.192   6.038  0.6877  0.2316  0.3368
 6526SOL    HW225836   4.990   5.170   5.964  1.4254  0.2293  0.8911
 6526SOL    HW325837   4.946   5.287   6.049  2.2503 -0.0944  1.7843
 6526SOL    MW425838   4.943   5.202   6.030  0.5488 -0.9194 -0.4934
 6527SOL     OW25839   3.526   5.080   5.505  0.7574  0.4258  0.1224
 6527SOL    HW225840   3.467   5.095   5.432  0.5707 -1.5400 -0.1635
 6527SOL    HW325841   3.614   5.088   5.468  0.7047 -2.5880 -0.8639
 6527SOL    MW425842   3.530   5.083   5.491  0.5051 -0.1077 -0.2625
 6528SOL     OW25843   3.377   1.520   2.946  0.4733 -0.0908  0.0707
 6528SOL    HW225844   3.462   1.564   2.936  1.0672 -1.1775  0.2317
 6528SOL    HW325845   3.342   1.515   2.857  0.5608  0.3813  0.0059
 6528SOL    MW425846   3.383   1.525   2.933  0.4002  0.3013 -0.3298
 6529SOL     OW25847   1.993   2.428   4.109  0.5697  1.1677  0.2567
 6529SOL    HW225848   1.899   2.431   4.122  0.3726  0.5322 -0.8912
 6529SOL    HW325849   2.029   2.415   4.197 -0.4240  1.1131  0.6667
 6529SOL    MW425850   1.986   2.427   4.122 -0.7565 -0.1753 -0.2375
 6530SOL     OW25851   5.822   2.443   0.526 -0.1152 -0.0327  0.8052
 6530SOL    HW225852   5.802   2.466   0.435  1.7055  0.3154  0.4552
 6530SOL    HW325853   5.896   2.500   0.549  0.1190 -0.8474  2.1573
 6530SOL    MW425854   5.829   2.453   0.517 -0.2129  0.4056  0.1087
 6531SOL     OW25855   5.266   4.943   2.520  0.6184  1.1134  0.1117
 6531SOL    HW225856   5.266   5.027   2.475  0.7961  0.5261 -1.0374
 6531SOL    HW325857   5.276   4.878   2.449 -1.8872 -0.0023  0.6616
 6531SOL    MW425858   5.267   4.945   2.504  0.7935  0.3952 -0.1332
 6532SOL     OW25859   1.066   4.734   5.233 -0.1582 -0.5054 -0.1368
 6532SOL    HW225860   1.119   4.719   5.155  1.1260 -1.6343  0.8839
 6532SOL    HW325861   1.054   4.829   5.236 -0.8449 -0.5023 -2.0590
 6532SOL    MW425862   1.072   4.745   5.223  0.0469  0.5085 -0.1501
 6533SOL     OW25863   2.367   4.661   5.089  0.3524  0.0651  0.3348
 6533SOL    HW225864   2.393   4.646   4.998  0.9368  1.5896  0.2173
 6533SOL    HW325865   2.444   4.698   5.131 -0.3493  0.7567  1.0665
 6533SOL    MW425866   2.380   4.664   5.082  0.2508 -0.1721 -0.3886
 6534SOL     OW25867   1.939   5.108   1.486  0.0691  0.1161  0.6125
 6534SOL    HW225868   1.958   5.140   1.574 -0.6453  2.9811 -0.1645
 6534SOL    HW325869   2.018   5.127   1.436 -0.9523  2.4877 -0.2517
 6534SOL    MW425870   1.952   5.115   1.491  0.0013 -0.5683  0.0985
 6535SOL     OW25871   4.727   1.448   1.936 -0.4350  0.5164 -0.1931
 6535SOL    HW225872   4.635   1.468   1.917 -0.1127  0.5664 -1.9255
 6535SOL    HW325873   4.756   1.519   1.993 -1.9825 -0.6010  2.1511
 6535SOL    MW425874   4.719   1.460   1.941  0.6832  0.1148 -0.1894
 6536SOL     OW25875   3.919   2.651   1.315 -0.4295  0.6930 -0.5853
 6536SOL    HW225876   3.917   2.733   1.266 -0.8300 -0.2840 -2.2601
 6536SOL    HW325877   3.833   2.612   1.301 -0.3085  0.0583  0.3399
 6536SOL    MW425878   3.907   2.656   1.307  0.1789 -0.1612 -0.2502
 6537SOL     OW25879   4.521   1.972   3.030  0.3892  0.2846  0.0058
 6537SOL    HW225880   4.603   2.017   3.050  0.4239 -0.1518  0.8693
 6537SOL    HW325881   4.546   1.906   2.965  1.0335 -0.8490  1.3527
 6537SOL    MW425882   4.535   1.969   3.024  0.1987 -0.4168 -0.3649
 6538SOL     OW25883   4.065   0.841   3.973  0.5618  0.8395  0.2216
 6538SOL    HW225884   4.117   0.835   3.893  0.5587 -2.0143  0.3134
 6538SOL    HW325885   4.129   0.861   4.042  1.1860 -0.2466 -0.0151
 6538SOL    MW425886   4.080   0.843   3.972 -0.9605 -0.5762  0.3956
 6539SOL     OW25887   1.420   6.058   0.793  0.0663 -0.5905  0.0570
 6539SOL    HW225888   1.394   6.150   0.794 -0.6365 -0.7758  2.0133
 6539SOL    HW325889   1.503   6.055   0.841 -0.0923 -1.0096  0.3179
 6539SOL    MW425890   1.428   6.070   0.799 -0.5839 -0.2032  0.7428
 6540SOL     OW25891   5.137   3.499   2.618  0.2043  0.1505 -0.4818
 6540SOL    HW225892   5.203   3.451   2.567  0.4028  0.2694 -0.3403
 6540SOL    HW325893   5.183   3.524   2.698 -0.2601 -0.5207  0.0086
 6540SOL    MW425894   5.152   3.496   2.622 -0.3002  0.2249 -0.1273
 6541SOL     OW25895   6.261   2.659   0.108 -0.1303 -0.0809 -0.4299
 6541SOL    HW225896   6.261   2.682   0.015  1.6904 -0.2411 -0.5073
 6541SOL    HW325897   6.169   2.649   0.130 -0.6303  0.5359 -2.0730
 6541SOL    MW425898   6.249   2.661   0.098  0.0731 -0.3352  0.2252
 6542SOL     OW25899   5.875   3.654   5.347  0.4999 -0.1348  0.3019
 6542SOL    HW225900   5.886   3.649   5.441  0.1383 -0.2993  0.3407
 6542SOL    HW325901   5.897   3.744   5.324  0.5137 -0.0738  0.5527
 6542SOL    MW425902   5.879   3.665   5.356  0.6020  0.4286  0.0877
 6543SOL     OW25903   1.487   1.381   3.106  0.1371  0.5240 -0.1769
 6543SOL    HW225904   1.463   1.360   3.016  0.3671  3.0513 -0.9169
 6543SOL    HW325905   1.433   1.457   3.128 -0.0340 -0.1349  1.9063
 6543SOL    MW425906   1.477   1.389   3.097  0.2662  0.1656  0.1294
 6544SOL     OW25907   3.509   2.731   5.748  0.0898 -0.0222 -0.3516
 6544SOL    HW225908   3.554   2.795   5.692  0.5894 -0.7577 -0.8111
 6544SOL    HW325909   3.453   2.682   5.688 -0.2474 -0.0526 -0.0108
 6544SOL    MW425910   3.508   2.733   5.733  0.6112  0.4270 -0.0414
 6545SOL     OW25911   4.657   1.412   5.866 -0.1298 -0.0976 -0.9931
 6545SOL    HW225912   4.706   1.367   5.798  2.6247 -0.6157  1.1415
 6545SOL    HW325913   4.708   1.491   5.884  0.1789 -0.7619  1.4744
 6545SOL    MW425914   4.670   1.417   5.860  0.1044  0.3998  0.1440
 6546SOL     OW25915   3.936   3.023   4.987 -0.1475 -0.1368 -0.5601
 6546SOL    HW225916   3.884   3.102   5.004  0.7784  0.2202  0.8248
 6546SOL    HW325917   3.872   2.952   4.985 -1.0167  0.6382 -1.9886
 6546SOL    MW425918   3.921   3.024   4.989  0.0330 -0.2039  0.0421
 6547SOL     OW25919   2.368   4.180   0.723 -0.0396 -0.8622 -0.1378
 6547SOL    HW225920   2.284   4.221   0.742 -0.1283 -0.3935 -1.4231
 6547SOL    HW325921   2.434   4.245   0.748 -0.1617 -0.1420 -1.5574
 6547SOL    MW425922   2.366   4.194   0.729  0.1134 -0.3781 -0.6359
 6548SOL     OW25923   4.422   5.919   2.491  0.4742  0.5882 -0.6989
 6548SOL    HW225924   4.350   5.860   2.512  1.3999 -0.6524 -0.8522
 6548SOL    HW325925   4.487   5.903   2.559  0.3602  2.1666 -0.1841
 6548SOL    MW425926   4.421   5.909   2.502 -0.0050 -0.5595 -0.4679
 6549SOL     OW25927   4.874   2.849   5.022 -0.1549 -0.0489  0.1079
 6549SOL    HW225928   4.937   2.908   5.063  2.6815 -2.6978 -0.1368
 6549SOL    HW325929   4.836   2.900   4.951  1.5950  1.6956  0.3455
 6549SOL    MW425930   4.877   2.864   5.018 -0.7294  0.1231 -0.0609
 6550SOL     OW25931   5.071   2.551   1.139 -0.0337 -0.6771  0.1489
 6550SOL    HW225932   5.117   2.602   1.072 -1.2926 -0.8833 -0.9205
 6550SOL    HW325933   5.032   2.478   1.090 -2.3961  0.0780  0.7749
 6550SOL    MW425934   5.072   2.548   1.123 -0.0555 -0.0814 -0.2295
 6551SOL     OW25935   2.049   4.757   1.519  0.5941  0.0726 -0.6781
 6551SOL    HW225936   2.047   4.666   1.487 -0.7200  0.1117 -0.7841
 6551SOL    HW325937   1.957   4.784   1.517  1.0632  1.6848 -1.4246
 6551SOL    MW425938   2.037   4.749   1.515  0.5394  0.3194  0.2715
 6552SOL     OW25939   1.158   0.912   5.454  0.6437  0.2133 -0.8465
 6552SOL    HW225940   1.250   0.887   5.456  0.7498  0.5903  0.8997
 6552SOL    HW325941   1.114   0.847   5.509 -0.1881 -0.1175 -1.8692
 6552SOL    MW425942   1.164   0.900   5.462  0.1967  0.3874  0.1662
 6553SOL     OW25943   6.385   5.623   1.050 -0.2932  0.3763 -0.2225
 6553SOL    HW225944   6.374   5.718   1.045 -0.8710  0.3418  0.3035
 6553SOL    HW325945   6.351   5.599   1.136 -0.6085 -0.3656 -0.5409
 6553SOL    MW425946   6.379   5.633   1.061  0.1320 -0.0639  0.2844
 6554SOL     OW25947   4.095   0.020   3.951 -0.5751 -0.1812 -0.1391
 6554SOL    HW225948   4.145  -0.013   3.876 -0.7699  1.3300 -0.9778
 6554SOL    HW325949   4.025  -0.044   3.964  0.4833 -1.3744 -0.1069
 6554SOL    MW425950   4.093   0.008   3.943 -0.2179 -0.0984 -0.0760
 6555SOL     OW25951   5.985   3.011   1.442 -1.0552  0.2839  0.1664
 6555SOL    HW225952   5.982   3.044   1.352  0.2817  0.2158  0.0824
 6555SOL    HW325953   5.957   3.085   1.496  0.0678  0.9740 -0.1653
 6555SOL    MW425954   5.981   3.025   1.437  0.2972 -0.0688  0.3368
 6556SOL     OW25955   6.025   4.075   4.410  0.1290  0.3670 -0.2508
 6556SOL    HW225956   6.051   4.067   4.502 -1.5516 -0.5747  0.1873
 6556SOL    HW325957   5.931   4.056   4.410 -0.4078  2.6477 -1.8569
 6556SOL    MW425958   6.016   4.071   4.422  0.2308  0.0017 -0.2861
 6557SOL     OW25959   2.266   6.168   5.754  0.1231  0.6707  0.8735
 6557SOL    HW225960   2.287   6.252   5.713 -0.6960  0.9546  1.0122
 6557SOL    HW325961   2.287   6.103   5.687 -1.1423  1.1181 -0.0044
 6557SOL    MW425962   2.271   6.171   5.740 -0.5288  1.2260  0.6148
 6558SOL     OW25963   5.853   0.770   2.248  0.0106  0.2784 -0.4935
 6558SOL    HW225964   5.817   0.859   2.250  0.8569  0.6167  0.1606
 6558SOL    HW325965   5.805   0.726   2.177  2.0323  2.2789 -3.2774
 6558SOL    MW425966   5.842   0.776   2.239 -0.5572  0.5800 -0.0998
 6559SOL     OW25967   6.149   4.963   5.879 -0.5424  0.1672 -0.1087
 6559SOL    HW225968   6.137   4.904   5.953  0.6366 -0.6800 -0.5593
 6559SOL    HW325969   6.244   4.977   5.875 -0.5221 -0.2177 -1.7496
 6559SOL    MW425970   6.160   4.957   5.888 -0.3501  0.1146  0.5250
 6560SOL     OW25971   2.271   1.944   1.181 -0.7613 -0.4889  0.6340
 6560SOL    HW225972   2.208   1.875   1.160 -0.2450 -0.6252 -0.5342
 6560SOL    HW325973   2.356   1.900   1.180 -0.4929  0.0264  0.5680
 6560SOL    MW425974   2.274   1.929   1.178 -0.1640 -0.0961  0.1601
 6561SOL     OW25975   0.481   3.166   3.412 -0.0189  0.4186  0.0930
 6561SOL    HW225976   0.425   3.165   3.335 -1.2478 -2.6055  0.8835
 6561SOL    HW325977   0.570   3.171   3.377 -0.6043  0.7604 -1.4097
 6561SOL    MW425978   0.485   3.166   3.398 -0.5943  0.3638  0.3517
 6562SOL     OW25979   6.372   1.565   0.067  0.0142 -0.3255 -0.6286
 6562SOL    HW225980   6.415   1.638   0.112 -2.0099  0.1585  0.6328
 6562SOL    HW325981   6.289   1.600   0.037 -0.8463 -1.9865 -0.3478
 6562SOL    MW425982   6.367   1.579   0.069 -0.5135 -0.5017  0.7574
 6563SOL     OW25983   1.042   0.214   6.197 -0.1384 -0.6019 -0.2824
 6563SOL    HW225984   1.113   0.155   6.220  0.9762 -0.5400 -3.2122
 6563SOL    HW325985   1.009   0.246   6.281  2.3099 -1.7585  1.2097
 6563SOL    MW425986   1.047   0.211   6.211  0.7559 -0.3987 -0.3974
 6564SOL     OW25987   1.210   1.377   5.931 -0.5254  0.4198 -0.4599
 6564SOL    HW225988   1.281   1.314   5.926  0.4006  1.5039 -2.8416
 6564SOL    HW325989   1.148   1.349   5.863 -1.5576  0.4343  0.4509
 6564SOL    MW425990   1.211   1.365   5.921 -0.4179 -0.1280 -0.3366
 6565SOL     OW25991   0.938   2.120   3.389 -0.3090  0.0489  0.4139
 6565SOL    HW225992   0.972   2.175   3.319 -1.5061  0.7552  0.3640
 6565SOL    HW325993   0.849   2.151   3.402  0.7896  2.2784  4.5116
 6565SOL    MW425994   0.931   2.132   3.381  0.1782  0.3894  0.3050
 6566SOL     OW25995   5.667   3.717   3.336  0.0250  0.1395 -0.0713
 6566SOL    HW225996   5.650   3.718   3.241 -0.0022 -0.2846 -0.0700
 6566SOL    HW325997   5.678   3.625   3.357 -0.5368  0.1910  0.4500
 6566SOL    MW425998   5.667   3.705   3.326  0.2847 -0.0194  0.2494
 6567SOL     OW25999   5.819   0.457   2.134  0.6674 -0.1686 -0.4012
 6567SOL    HW226000   5.912   0.475   2.123  0.7180 -0.2158 -0.0676
 6567SOL    HW326001   5.807   0.370   2.096  0.7409 -0.1226 -0.5295
 6567SOL    MW426002   5.830   0.448   2.128  0.5590 -0.0868  0.5303
 6568SOL     OW26003   4.194   0.947   4.884  0.3170 -0.1075  0.0035
 6568SOL    HW226004   4.251   0.930   4.809  1.2040  2.7826 -0.0942
 6568SOL    HW326005   4.233   1.023   4.927 -3.1766  1.7528  0.2234
 6568SOL    MW426006   4.207   0.955   4.880 -0.7088 -0.7042  0.0782
 6569SOL     OW26007   1.629   4.877   2.253 -0.4425 -0.0468  0.2967
 6569SOL    HW226008   1.571   4.821   2.201  1.2127 -0.5471 -1.0801
 6569SOL    HW326009   1.688   4.817   2.297  0.8226  0.5494 -0.5408
 6569SOL    MW426010   1.629   4.862   2.252 -0.5176  0.0074  0.2006
 6570SOL     OW26011   3.322   2.254   0.644  0.0780  0.0578  0.1355
 6570SOL    HW226012   3.402   2.211   0.673 -0.0739  0.4549  1.1808
 6570SOL    HW326013   3.304   2.321   0.710 -1.6603 -0.6911  0.4947
 6570SOL    MW426014   3.330   2.257   0.656 -0.3582 -0.5675  0.8858
 6571SOL     OW26015   3.449   5.331   0.312  0.4954  1.0609 -0.5115
 6571SOL    HW226016   3.454   5.327   0.216 -1.0074  0.4817 -0.5927
 6571SOL    HW326017   3.516   5.270   0.342  0.7282  0.9731 -1.2008
 6571SOL    MW426018   3.458   5.322   0.303 -0.8344 -0.4804  0.0213
 6572SOL     OW26019   0.649   1.638   1.648 -0.1979 -0.2588  0.7670
 6572SOL    HW226020   0.657   1.543   1.646  0.3176 -0.2064 -0.3360
 6572SOL    HW326021   0.561   1.654   1.684 -0.1499 -1.1296  1.3075
 6572SOL    MW426022   0.638   1.628   1.652 -0.0952 -0.0830 -0.2252
 6573SOL     OW26023   3.740   5.822   4.847  0.2998 -0.1947  0.1814
 6573SOL    HW226024   3.692   5.814   4.764  1.0813 -1.5421 -0.1631
 6573SOL    HW326025   3.814   5.878   4.826  0.0841  0.0918  0.1698
 6573SOL    MW426026   3.743   5.829   4.833  0.1129  0.1491 -0.0410
 6574SOL     OW26027   5.901   2.727   4.818 -0.8852 -0.3748 -0.2812
 6574SOL    HW226028   5.901   2.798   4.754  0.7597  0.0262  0.1345
 6574SOL    HW326029   5.890   2.648   4.766 -0.0231 -0.0197 -1.0223
 6574SOL    MW426030   5.899   2.726   4.803 -0.3768  0.1425 -0.1176
 6575SOL     OW26031   0.794   3.954   2.785 -0.3656  0.4113  0.3485
 6575SOL    HW226032   0.750   3.870   2.772  0.0804 -0.1278  1.9994
 6575SOL    HW326033   0.723   4.016   2.801 -0.7044  0.4001 -0.9921
 6575SOL    MW426034   0.779   3.951   2.786 -0.1479 -0.3346 -0.0813
 6576SOL     OW26035   1.352   1.030   2.272 -0.5100  0.3939  0.2110
 6576SOL    HW226036   1.351   1.113   2.320 -1.1078 -0.2882  1.4170
 6576SOL    HW326037   1.269   0.987   2.295  0.3029 -1.0606  0.5724
 6576SOL    MW426038   1.341   1.035   2.282 -0.0113  0.3175 -0.4336
 6577SOL     OW26039   6.323   4.779   2.896  0.0215 -0.6330  0.6377
 6577SOL    HW226040   6.263   4.852   2.884 -2.1935 -2.7417 -3.1285
 6577SOL    HW326041   6.389   4.790   2.827  0.6432 -1.3020  1.1070
 6577SOL    MW426042   6.324   4.790   2.885  0.0300 -0.0896 -0.2991
 6578SOL     OW26043   0.523   1.012   1.562  0.0244 -0.4507  0.0275
 6578SOL    HW226044   0.560   1.033   1.647 -0.1164  0.1332 -0.0499
 6578SOL    HW326045   0.524   1.095   1.514 -0.0941 -0.7265 -0.4615
 6578SOL    MW426046   0.528   1.026   1.567  0.2088 -0.1562 -0.2129
 6579SOL     OW26047   5.073   2.886   6.159 -0.0332  0.4769  0.7383
 6579SOL    HW226048   5.078   2.958   6.096  0.7581 -0.4135 -0.2437
 6579SOL    HW326049   5.023   2.818   6.115  1.5323 -0.6189  0.5598
 6579SOL    MW426050   5.067   2.886   6.145  0.2892 -0.1014 -0.5848
 6580SOL     OW26051   1.786   4.144   1.281 -0.2370  0.4899 -0.1161
 6580SOL    HW226052   1.827   4.075   1.332  0.9283 -0.6401 -2.3968
 6580SOL    HW326053   1.693   4.125   1.283 -0.1563  0.1858  1.1165
 6580SOL    MW426054   1.779   4.133   1.288 -0.3496  0.0163  0.3279
 6581SOL     OW26055   4.019   2.437   4.172 -0.0882 -0.2515  0.5624
 6581SOL    HW226056   4.091   2.409   4.229 -0.7083 -0.9298  1.0432
 6581SOL    HW326057   4.011   2.531   4.188  0.1687 -0.3176  1.1214
 6581SOL    MW426058   4.027   2.446   4.182  0.6231  0.1792  0.0106
 6582SOL     OW26059   2.695   2.567   5.797 -0.3401  0.1826  0.1441
 6582SOL    HW226060   2.648   2.484   5.798 -0.4587  0.2394 -0.6442
 6582SOL    HW326061   2.692   2.596   5.706 -1.0677  1.4929  0.5571
 6582SOL    MW426062   2.688   2.560   5.785  0.4878  0.0910 -0.1937
 6583SOL     OW26063   2.959   6.250   1.848  0.0636  0.1933 -0.2864
 6583SOL    HW226064   2.957   6.184   1.917 -2.2734 -0.4797 -0.8900
 6583SOL    HW326065   3.048   6.285   1.850  0.4612 -0.7823  2.1126
 6583SOL    MW426066   2.970   6.246   1.857 -0.2073 -0.0920  0.1818
 6584SOL     OW26067   5.416   6.197   5.519  0.2746 -0.0951 -0.3177
 6584SOL    HW226068   5.468   6.121   5.494  0.4773  0.0707 -0.3935
 6584SOL    HW326069   5.470   6.244   5.582  0.1865  0.0383 -0.3414
 6584SOL    MW426070   5.430   6.193   5.524  0.1915  0.5610  0.3195
 6585SOL     OW26071   0.787   4.883   2.294 -0.3203 -0.2461  0.7926
 6585SOL    HW226072   0.798   4.790   2.280 -0.8969 -0.3943  1.2374
 6585SOL    HW326073   0.861   4.909   2.350 -0.1431 -0.4278  0.6402
 6585SOL    MW426074   0.798   4.874   2.300  0.6472  0.7076  0.4537
 6586SOL     OW26075   3.866   1.647   1.518 -0.0022 -0.4137 -0.0873
 6586SOL    HW226076   3.810   1.571   1.536  0.6973 -0.5412  1.7748
 6586SOL    HW326077   3.935   1.642   1.584  1.7557  0.2094 -1.7890
 6586SOL    MW426078   3.868   1.636   1.530  0.3371  0.4964  0.0732
 6587SOL     OW26079   5.558   6.113   0.505 -0.2179  0.2459  0.4564
 6587SOL    HW226080   5.521   6.199   0.524 -3.0125 -0.3835 -1.4808
 6587SOL    HW326081   5.563   6.069   0.590  0.8288  2.1247  1.4087
 6587SOL    MW426082   5.553   6.118   0.518 -0.5518 -0.0748  0.1755
 6588SOL     OW26083   2.251   0.276   0.969 -0.5628  0.2683 -0.1983
 6588SOL    HW226084   2.232   0.241   0.882  1.1023  0.8203 -0.8061
 6588SOL    HW326085   2.242   0.200   1.027 -2.9668  0.1455 -0.6153
 6588SOL    MW426086   2.247   0.261   0.965 -0.0787 -0.1210 -0.8574
 6589SOL     OW26087   1.389   1.379   0.388  0.1021 -0.2822  0.0247
 6589SOL    HW226088   1.359   1.463   0.353 -1.0710 -0.5028  0.4429
 6589SOL    HW326089   1.463   1.355   0.333  2.2880  2.3130  1.5197
 6589SOL    MW426090   1.395   1.387   0.376  0.0237 -0.2729 -0.1222
 6590SOL     OW26091   1.483   0.510   3.010  1.0559 -0.0601 -0.4345
 6590SOL    HW226092   1.449   0.451   3.077  0.5906 -0.6120 -1.1381
 6590SOL    HW326093   1.410   0.568   2.989  1.2288  0.1723 -0.4056
 6590SOL    MW426094   1.469   0.510   3.016  0.3676  0.1657  0.2626
 6591SOL     OW26095   0.739   3.997   1.018 -0.2159  0.1173  0.4648
 6591SOL    HW226096   0.830   3.997   1.047  0.0045  0.2038 -0.2229
 6591SOL    HW326097   0.743   4.018   0.925 -0.9004 -0.4129  0.3088
 6591SOL    MW426098   0.751   4.000   1.010  0.2933 -0.0907  0.2222
 6592SOL     OW26099   5.561   1.354   0.426 -0.3372 -0.2228  0.1744
 6592SOL    HW226100   5.525   1.265   0.424  0.0286 -0.4347  1.6947
 6592SOL    HW326101   5.489   1.410   0.399 -0.6922 -0.9534 -0.4053
 6592SOL    MW426102   5.547   1.349   0.422 -0.8297 -0.8335  0.6518
 6593SOL     OW26103   1.180   5.866   2.246 -0.1228  0.3658  0.2107
 6593SOL    HW226104   1.088   5.890   2.259 -0.2811 -0.0266 -0.1684
 6593SOL    HW326105   1.178   5.776   2.215  0.4556 -0.0303  1.2616
 6593SOL    MW426106   1.168   5.858   2.243 -0.4433 -0.3280 -1.0945
 6594SOL     OW26107   0.464   5.364   3.578 -0.1710  0.7105  0.5012
 6594SOL    HW226108   0.480   5.308   3.654 -0.2686  1.3070  0.9694
 6594SOL    HW326109   0.370   5.357   3.562 -0.0778  0.2435  0.1662
 6594SOL    MW426110   0.454   5.356   3.586 -0.3975 -0.2934  0.2226
 6595SOL     OW26111   1.399   2.328   2.164 -0.2370  0.1240  0.0242
 6595SOL    HW226112   1.355   2.244   2.152 -0.1860 -0.4390  2.9575
 6595SOL    HW326113   1.490   2.311   2.137 -0.2442 -0.7734  0.5149
 6595SOL    MW426114   1.405   2.315   2.159 -0.1606 -1.0335  0.6066
 6596SOL     OW26115   1.375   5.540   3.378  0.2681  1.0055 -0.0220
 6596SOL    HW226116   1.416   5.505   3.458  0.2276  0.6320 -0.1643
 6596SOL    HW326117   1.445   5.541   3.314 -0.2927 -1.1548 -0.7423
 6596SOL    MW426118   1.390   5.535   3.380 -0.0234 -0.3611 -0.3583
 6597SOL     OW26119   2.387   3.320   4.146  0.3116  0.0090 -0.5693
 6597SOL    HW226120   2.445   3.264   4.095 -0.1938  0.2930 -1.4862
 6597SOL    HW326121   2.363   3.267   4.222  1.9287 -0.0252 -0.0456
 6597SOL    MW426122   2.391   3.305   4.149  0.0744  0.0555 -0.0965
 6598SOL     OW26123   1.614   4.022   5.598  0.4310  0.3522  0.0476
 6598SOL    HW226124   1.622   4.019   5.693  0.6879 -1.3607  0.0006
 6598SOL    HW326125   1.638   3.934   5.569 -1.9922  0.0934 -1.4338
 6598SOL    MW426126   1.618   4.010   5.606  0.3397  0.1675 -0.2047
 6599SOL     OW26127   3.281   0.861   4.535  0.1738  0.5315  0.1953
 6599SOL    HW226128   3.288   0.825   4.447 -0.4604  1.5031 -0.2601
 6599SOL    HW326129   3.371   0.857   4.569  0.6673  1.2327 -0.9404
 6599SOL    MW426130   3.294   0.856   4.528  0.1229 -0.3432  0.1494
 6600SOL     OW26131   2.631   1.131   2.557  0.1313 -0.2150  0.1354
 6600SOL    HW226132   2.654   1.154   2.467  2.0666  1.4349  0.9899
 6600SOL    HW326133   2.563   1.064   2.547 -0.0027  0.1948 -2.5314
 6600SOL    MW426134   2.625   1.125   2.544 -0.2324  0.0344 -0.7262
 6601SOL     OW26135   0.590   1.484   5.641 -0.2479  0.3714 -0.1311
 6601SOL    HW226136   0.499   1.511   5.643 -0.1280  0.7347  0.6627
 6601SOL    HW326137   0.640   1.565   5.630  0.0017  0.2167 -0.1580
 6601SOL    MW426138   0.585   1.498   5.640 -0.2102  0.4222  0.0784
 6602SOL     OW26139   1.369   2.725   3.595 -0.0352  0.7140  0.2025
 6602SOL    HW226140   1.415   2.641   3.593 -0.8664  0.2039  1.3418
 6602SOL    HW326141   1.423   2.781   3.650 -0.2906  0.4139  0.7616
 6602SOL    MW426142   1.382   2.721   3.602 -0.2684 -0.2020 -0.3822
 6603SOL     OW26143   6.273   4.068   0.359  0.4419 -0.4841  0.0828
 6603SOL    HW226144   6.282   4.021   0.276  1.0283  0.9322 -0.6942
 6603SOL    HW326145   6.281   4.161   0.335 -2.2286  0.1593  1.3081
 6603SOL    MW426146   6.275   4.074   0.345 -0.6681  0.0420 -0.4450
 6604SOL     OW26147   1.503   3.813   1.627  0.4680  0.3978  0.5422
 6604SOL    HW226148   1.474   3.790   1.538 -1.1270 -0.1761  1.1606
 6604SOL    HW326149   1.571   3.749   1.648 -1.2432 -1.4346  0.8053
 6604SOL    MW426150   1.508   3.801   1.618 -0.8049 -0.1370 -0.1764
 6605SOL     OW26151   5.412   5.921   2.769  0.0101 -0.5097 -0.1514
 6605SOL    HW226152   5.491   5.909   2.716 -0.7491 -1.5669 -1.1124
 6605SOL    HW326153   5.385   5.832   2.792 -0.6748 -0.1413  0.5116
 6605SOL    MW426154   5.419   5.907   2.765  0.3376 -0.3707 -0.3159
 6606SOL     OW26155   6.130   3.808   1.437  0.0634  0.2998 -0.3501
 6606SOL    HW226156   6.180   3.732   1.406  0.2725  0.3245 -0.0723
 6606SOL    HW326157   6.128   3.867   1.362  0.5316  0.3378 -0.3348
 6606SOL    MW426158   6.137   3.806   1.423 -0.1614  0.4093 -0.4347
 6607SOL     OW26159   4.659   1.512   4.931 -0.1997 -0.3422 -0.0427
 6607SOL    HW226160   4.638   1.604   4.949  0.7173 -0.1027 -0.1348
 6607SOL    HW326161   4.595   1.486   4.866 -0.7152  0.1173  0.2646
 6607SOL    MW426162   4.648   1.521   4.925  0.2437  0.3260  0.0253
 6608SOL     OW26163   4.135   5.143   3.636  0.0456  0.5336 -0.1423
 6608SOL    HW226164   4.041   5.148   3.619  0.0443  0.9184 -0.0430
 6608SOL    HW326165   4.149   5.202   3.711  0.3274  0.2850  0.0059
 6608SOL    MW426166   4.125   5.151   3.644  0.0459  0.0752  0.0588
 6609SOL     OW26167   2.800   5.168   3.500  0.2299 -0.7422  0.2856
 6609SOL    HW226168   2.753   5.200   3.577  0.8583  0.9214  0.0309
 6609SOL    HW326169   2.732   5.130   3.445 -0.8435  1.2773  0.0938
 6609SOL    MW426170   2.784   5.167   3.503 -0.0939  0.1372 -0.1119
 6610SOL     OW26171   2.262   6.291   1.449  0.2361 -0.0046  0.7607
 6610SOL    HW226172   2.268   6.385   1.468 -0.5511  0.1476  0.3138
 6610SOL    HW326173   2.343   6.254   1.484  2.4293  1.4015 -2.3163
 6610SOL    MW426174   2.273   6.299   1.456  0.4273  0.6705 -0.1765
 6611SOL     OW26175   4.450   4.783   5.147 -0.2183  0.0804 -0.1077
 6611SOL    HW226176   4.507   4.720   5.103 -0.0055 -0.6227  1.1277
 6611SOL    HW326177   4.509   4.834   5.203 -0.4783  0.9899 -0.6282
 6611SOL    MW426178   4.465   4.782   5.149 -0.4720 -0.3290 -0.1809
 6612SOL     OW26179   3.153   2.527   4.064 -0.1475  0.0574  0.5771
 6612SOL    HW226180   3.104   2.444   4.065 -0.9296  0.5101  0.5977
 6612SOL    HW326181   3.226   2.513   4.124  1.0787 -1.4086 -1.1399
 6612SOL    MW426182   3.156   2.514   4.072 -0.1147  0.6314 -0.0154
 6613SOL     OW26183   0.212   1.785   3.748  0.2612 -0.2105  0.3457
 6613SOL    HW226184   0.234   1.811   3.838 -1.3620  0.1347  0.6724
 6613SOL    HW326185   0.148   1.715   3.758  0.9445 -1.0022 -0.5690
 6613SOL    MW426186   0.207   1.779   3.761  0.2789  0.0750 -0.6519
 6614SOL     OW26187   5.101   3.703   1.573  0.2617  0.2455  0.1197
 6614SOL    HW226188   5.106   3.655   1.655 -1.1210 -0.2166 -0.0338
 6614SOL    HW326189   5.037   3.773   1.591 -2.3916 -1.6442 -1.3567
 6614SOL    MW426190   5.093   3.706   1.586  0.0503 -0.0766 -0.2529
 6615SOL     OW26191   0.399   3.120   0.536 -0.1276 -0.0611 -0.0289
 6615SOL    HW226192   0.410   3.103   0.443 -2.5356 -0.7493 -0.2735
 6615SOL    HW326193   0.470   3.072   0.578 -0.5761 -2.0319 -1.3808
 6615SOL    MW426194   0.410   3.112   0.530 -0.2973  0.3574 -0.2899
 6616SOL     OW26195   3.647   3.827   5.602 -0.5634  0.0887  0.0294
 6616SOL    HW226196   3.689   3.842   5.517  1.0270  1.1590  0.9524
 6616SOL    HW326197   3.660   3.909   5.649  0.0676 -1.0377  1.9054
 6616SOL    MW426198   3.654   3.840   5.597 -0.1126 -0.4677 -0.0333
 6617SOL     OW26199   5.115   3.666   3.236  0.1612  0.1500 -0.3437
 6617SOL    HW226200   5.153   3.696   3.154  1.5545 -0.2695  0.1105
 6617SOL    HW326201   5.095   3.747   3.284 -2.6471  0.4910 -1.8600
 6617SOL    MW426202   5.117   3.681   3.232  0.1487  0.0917 -0.5572
 6618SOL     OW26203   0.839   4.939   4.312 -0.2223 -0.4833  0.0703
 6618SOL    HW226204   0.812   4.965   4.400  0.7910  0.2614  0.1791
 6618SOL    HW326205   0.892   4.861   4.325  0.9547  0.3143  0.2785
 6618SOL    MW426206   0.842   4.932   4.326 -0.5799  0.2518 -0.2594
 6619SOL     OW26207   2.146   4.532   5.347  0.3117  0.9095  0.3096
 6619SOL    HW226208   2.228   4.484   5.335 -0.2789 -0.3301  1.0478
 6619SOL    HW326209   2.119   4.556   5.258  0.6939 -0.0068 -0.0677
 6619SOL    MW426210   2.153   4.529   5.334 -0.2367  0.3023 -0.2758
 6620SOL     OW26211   4.376   6.265   4.954  0.4428  0.0127 -0.4565
 6620SOL    HW226212   4.415   6.210   5.023 -0.3563 -1.9752 -1.5062
 6620SOL    HW326213   4.315   6.322   5.000  1.3733  0.1376  0.6881
 6620SOL    MW426214   4.373   6.265   4.969  0.0261  0.0501 -0.4583
 6621SOL     OW26215   0.128   0.400   5.698  0.4023  0.0911  0.3844
 6621SOL    HW226216   0.132   0.305   5.713  3.0987  0.1655  0.6152
 6621SOL    HW326217   0.072   0.409   5.621 -0.4756 -1.6216  0.7717
 6621SOL    MW426218   0.121   0.388   5.690  0.4733  0.3061  0.3501
 6622SOL     OW26219   1.466   5.371   1.178  0.2252 -0.0509  0.1196
 6622SOL    HW226220   1.489   5.458   1.212  0.1934 -0.1237  0.3265
 6622SOL    HW326221   1.373   5.378   1.155 -0.0310 -0.3148  1.0366
 6622SOL    MW426222   1.457   5.384   1.179  0.4064  0.3338 -0.0573
 6623SOL     OW26223   4.089   3.579   1.489  0.0393  0.0899  0.3157
 6623SOL    HW226224   4.022   3.636   1.528  0.8486  0.7354  0.7919
 6623SOL    HW326225   4.128   3.632   1.420 -0.0988 -0.3742 -0.1243
 6623SOL    MW426226   4.085   3.594   1.485  0.2920 -0.0156  0.2245
 6624SOL     OW26227   3.539   3.070   5.100  0.3981 -0.0618  0.1974
 6624SOL    HW226228   3.514   3.110   5.183 -0.6992 -0.0017 -0.1534
 6624SOL    HW326229   3.620   3.116   5.075 -0.7763  1.9116 -0.1652
 6624SOL    MW426230   3.547   3.081   5.108 -0.3281  0.4204  0.0085
 6625SOL     OW26231   3.813   0.238   0.660  0.2138  0.2759  0.3664
 6625SOL    HW226232   3.790   0.209   0.749  1.2190  0.6385  0.7584
 6625SOL    HW326233   3.730   0.236   0.612 -0.0991 -1.3743  0.9009
 6625SOL    MW426234   3.799   0.234   0.666  0.1601 -0.0877 -0.4840
 6626SOL     OW26235   0.917   4.666   0.258  0.0059  0.2305 -0.2760
 6626SOL    HW226236   0.865   4.620   0.323  0.2881  0.1650 -0.0967
 6626SOL    HW326237   0.991   4.608   0.240  0.2112  0.4838 -0.2600
 6626SOL    MW426238   0.920   4.653   0.264 -0.2399  0.3713  0.7413
 6627SOL     OW26239   1.998   1.258   4.914  0.6498 -0.2402  0.1560
 6627SOL    HW226240   1.938   1.220   4.979  0.6423  0.1376  0.3748
 6627SOL    HW326241   1.949   1.254   4.832  0.5731 -0.5242  0.2155
 6627SOL    MW426242   1.983   1.252   4.912 -0.1173 -0.0846  0.3446
 6628SOL     OW26243   4.236   2.202   5.548  0.2930 -0.2472 -0.0402
 6628SOL    HW226244   4.142   2.197   5.560  0.2592 -1.1964 -0.6097
 6628SOL    HW326245   4.261   2.115   5.516  1.3286  0.0529 -0.0848
 6628SOL    MW426246   4.227   2.190   5.545  0.1965 -0.1119  0.4840
 6629SOL     OW26247   4.806   0.046   2.098 -0.0101 -0.3301  0.0842
 6629SOL    HW226248   4.759   0.123   2.065 -0.9024  0.4736  2.9673
 6629SOL    HW326249   4.898   0.064   2.077 -0.3490  0.8644 -0.4860
 6629SOL    MW426250   4.812   0.058   2.091  0.5601  0.6645 -0.0878
 6630SOL     OW26251   3.452   4.942   3.318 -0.5149 -0.0102 -0.3480
 6630SOL    HW226252   3.460   4.960   3.224 -0.6297  1.8865 -0.0441
 6630SOL    HW326253   3.381   4.999   3.347  0.4228  0.4892  1.1215
 6630SOL    MW426254   3.444   4.952   3.310 -0.4282 -0.2850  0.1227
 6631SOL     OW26255   0.682   0.235   1.270 -0.4887 -0.3778  0.6074
 6631SOL    HW226256   0.755   0.178   1.293 -0.5449 -0.8481 -0.3296
 6631SOL    HW326257   0.657   0.277   1.352  3.2668  2.7498  0.4551
 6631SOL    MW426258   0.688   0.233   1.284  0.2100 -0.0251  0.2311
 6632SOL     OW26259   5.622   5.924   5.673 -0.1668  0.0471 -0.5795
 6632SOL    HW226260   5.542   5.908   5.723  0.0679 -1.2863 -0.6082
 6632SOL    HW326261   5.595   5.919   5.582 -0.0151 -0.6509 -0.5910
 6632SOL    MW426262   5.608   5.921   5.668 -0.1204  0.3089  0.0362
 6633SOL     OW26263   0.337   0.782   4.478 -0.6392 -0.2706  0.0995
 6633SOL    HW226264   0.349   0.701   4.527 -1.5749 -0.5824 -0.1802
 6633SOL    HW326265   0.380   0.849   4.532 -2.3900 -0.4570  1.8186
 6633SOL    MW426266   0.344   0.780   4.492  0.6980  0.9012  0.3500
 6634SOL     OW26267   4.875   5.368   3.121  0.2608 -0.7252  0.7367
 6634SOL    HW226268   4.920   5.418   3.190 -1.4496  0.1935  1.2327
 6634SOL    HW326269   4.946   5.323   3.075  2.2212  3.5067 -0.9278
 6634SOL    MW426270   4.891   5.368   3.124  0.3248 -0.3796  0.1084
 6635SOL     OW26271   0.595   1.183   1.332  0.0885  0.6680 -0.4023
 6635SOL    HW226272   0.543   1.164   1.254 -0.0394 -0.4389 -0.0608
 6635SOL    HW326273   0.667   1.238   1.301 -0.0602  0.3825 -1.2556
 6635SOL    MW426274   0.598   1.188   1.318  0.5357 -0.0514  0.0951
 6636SOL     OW26275   1.339   3.009   1.607 -0.1015  0.2155  0.0560
 6636SOL    HW226276   1.302   3.021   1.695  0.5462  0.3232  0.3196
 6636SOL    HW326277   1.349   2.914   1.597 -0.5353  0.1816 -0.0522
 6636SOL    MW426278   1.336   2.998   1.617  0.8850  0.4169  0.2233
 6637SOL     OW26279   4.407   5.207   2.703  0.4485  0.3591  0.4426
 6637SOL    HW226280   4.377   5.174   2.618  1.1053  0.6444  0.0965
 6637SOL    HW326281   4.503   5.209   2.696  0.4519  1.8758  0.6315
 6637SOL    MW426282   4.416   5.203   2.691 -0.2144  0.4434 -0.7880
 6638SOL     OW26283   0.494   6.191   5.509  0.1281  0.6189  0.3314
 6638SOL    HW226284   0.538   6.169   5.591  1.1603 -0.5100 -0.4959
 6638SOL    HW326285   0.466   6.107   5.473  1.1770  0.9198 -1.2772
 6638SOL    MW426286   0.496   6.177   5.515 -0.3331  0.2450  0.3301
 6639SOL     OW26287   4.377   0.204   2.301 -0.0118 -0.2150 -0.0510
 6639SOL    HW226288   4.365   0.285   2.252 -0.1655 -0.3965 -0.3096
 6639SOL    HW326289   4.364   0.230   2.392 -0.6808 -0.0766 -0.1844
 6639SOL    MW426290   4.374   0.218   2.307  0.3707 -0.5588 -0.2416
 6640SOL     OW26291   4.498   2.739   1.459  0.4780 -0.1521 -0.3218
 6640SOL    HW226292   4.568   2.789   1.500  1.0550 -0.4953 -0.8786
 6640SOL    HW326293   4.430   2.804   1.441  1.3303  0.5057 -1.2869
 6640SOL    MW426294   4.498   2.754   1.462  0.4091 -0.6393  0.3036
 6641SOL     OW26295   1.227   3.662   4.693  0.1986  0.3032 -0.1298
 6641SOL    HW226296   1.267   3.632   4.774  0.2307 -1.2668 -0.7016
 6641SOL    HW326297   1.174   3.588   4.662  1.5632  0.1734 -2.4267
 6641SOL    MW426298   1.225   3.649   4.699  0.7058 -0.0730  0.6690
 6642SOL     OW26299   1.214   1.795   0.368  0.2500 -0.0208  0.2534
 6642SOL    HW226300   1.175   1.871   0.326  0.5778 -0.0656 -0.1446
 6642SOL    HW326301   1.250   1.828   0.450 -0.7889 -0.0176  0.7262
 6642SOL    MW426302   1.214   1.809   0.373  0.1536  0.1905 -0.1445
 6643SOL     OW26303   4.729   2.821   2.886 -0.4429 -0.1641 -0.0913
 6643SOL    HW226304   4.679   2.859   2.814 -0.1682 -1.6403 -1.1042
 6643SOL    HW326305   4.736   2.728   2.864  0.8247 -0.3993  1.1576
 6643SOL    MW426306   4.723   2.814   2.874 -0.3473  0.1941 -0.0662
 6644SOL     OW26307   5.473   1.393   3.144 -0.2253  0.0144 -0.0363
 6644SOL    HW226308   5.425   1.384   3.062 -1.6624 -2.1626  0.9719
 6644SOL    HW326309   5.416   1.447   3.199 -1.3951 -2.1710  0.9938
 6644SOL    MW426310   5.459   1.399   3.140 -0.9055 -0.0236  0.5795
 6645SOL     OW26311   3.235   5.063   3.482  0.0040 -0.0664  0.1294
 6645SOL    HW226312   3.165   5.044   3.543 -0.1148  0.7211  0.2529
 6645SOL    HW326313   3.296   5.118   3.531 -0.0950  0.5764 -0.4421
 6645SOL    MW426314   3.234   5.068   3.496  0.0927  0.9918 -0.4999
 6646SOL     OW26315   1.448   1.294   2.833  0.0526 -0.5053  0.4739
 6646SOL    HW226316   1.471   1.381   2.799 -3.1997  0.0311 -0.6872
 6646SOL    HW326317   1.528   1.242   2.821  3.0146  2.7782  3.4918
 6646SOL    MW426318   1.462   1.298   2.827 -0.2031  0.6216  0.4650
 6647SOL     OW26319   4.797   6.421   3.761 -0.1236 -0.2227 -0.1526
 6647SOL    HW226320   4.714   6.452   3.796 -0.1281 -1.3765  0.9364
 6647SOL    HW326321   4.804   6.461   3.675 -1.2636  0.7899  0.2060
 6647SOL    MW426322   4.787   6.431   3.755 -0.1166  0.5069 -0.3765
 6648SOL     OW26323   4.933   3.522   5.849 -0.3652  0.6858 -0.3494
 6648SOL    HW226324   4.837   3.521   5.842 -0.3655 -0.1609 -0.3581
 6648SOL    HW326325   4.950   3.570   5.930 -0.8317  0.1905  0.0512
 6648SOL    MW426326   4.922   3.528   5.859  0.7259 -0.0720 -0.0397
 6649SOL     OW26327   1.745   5.809   5.772  0.1716  0.0164  0.3234
 6649SOL    HW226328   1.789   5.725   5.779  0.3553  0.1844  1.4330
 6649SOL    HW326329   1.737   5.840   5.863 -1.7509  0.2284  0.1384
 6649SOL    MW426330   1.750   5.802   5.785 -0.5663 -0.1419 -0.0166
 6650SOL     OW26331   4.099   3.696   4.552  0.1577  0.1477  0.0957
 6650SOL    HW226332   4.073   3.606   4.530 -0.7893  0.6997 -1.1789
 6650SOL    HW326333   4.149   3.726   4.476 -2.2950  1.7510 -1.0376
 6650SOL    MW426334   4.102   3.688   4.539 -0.1988  0.2050  0.1014
 6651SOL     OW26335   0.480   3.565   0.332  0.2867  0.0509 -0.0068
 6651SOL    HW226336   0.444   3.489   0.287 -1.4437  1.4232 -1.0560
 6651SOL    HW326337   0.422   3.579   0.407  1.5103 -0.5357  1.0984
 6651SOL    MW426338   0.468   3.557   0.336 -0.2446  0.1579  0.0561
 6652SOL     OW26339   0.147   1.291   1.528 -0.6265 -0.1812  0.8796
 6652SOL    HW226340   0.057   1.319   1.547 -1.0828 -2.2877  2.2137
 6652SOL    HW326341   0.140   1.197   1.510  1.1493 -0.1139 -0.4217
 6652SOL    MW426342   0.134   1.282   1.528 -0.2703 -0.0727 -0.3976
 6653SOL     OW26343   1.521   0.698   2.256 -0.4716  0.0333  0.2372
 6653SOL    HW226344   1.562   0.679   2.172  0.3953 -1.9537  1.0369
 6653SOL    HW326345   1.427   0.691   2.239 -0.4357  2.0494 -1.0480
 6653SOL    MW426346   1.514   0.694   2.243 -0.1438  0.3842  0.2534
 6654SOL     OW26347   3.680   3.901   4.873  0.2632 -0.3737  0.2545
 6654SOL    HW226348   3.744   3.833   4.850  0.8582  0.0884  0.5244
 6654SOL    HW326349   3.733   3.979   4.890 -0.3647 -0.0294  0.6543
 6654SOL    MW426350   3.696   3.902   4.872 -0.2527 -0.1772 -0.1457
 6655SOL     OW26351   3.334   3.441   5.473 -0.2092  0.5682  0.4630
 6655SOL    HW226352   3.325   3.527   5.433  1.7116  0.2057 -0.8897
 6655SOL    HW326353   3.322   3.457   5.567 -0.6025  2.1750  0.1637
 6655SOL    MW426354   3.331   3.455   5.480 -0.1932 -0.0232  0.0142
 6656SOL     OW26355   2.982   3.043   1.343  0.0833 -0.0372  0.4755
 6656SOL    HW226356   3.059   2.988   1.347 -1.8756 -3.5162 -3.1369
 6656SOL    HW326357   3.009   3.120   1.292  1.0107 -1.6756 -1.6234
 6656SOL    MW426358   2.995   3.046   1.337  0.2110 -0.1475  0.1237
 6657SOL     OW26359   5.574   3.581   5.647  0.1031 -0.6316  0.3854
 6657SOL    HW226360   5.515   3.645   5.687  0.8173 -0.2837  0.9161
 6657SOL    HW326361   5.652   3.584   5.702  0.8957 -0.5478 -0.7131
 6657SOL    MW426362   5.576   3.590   5.659 -0.3157  0.3378  0.0556
 6658SOL     OW26363   4.463   0.780   3.127 -0.0977  0.3332 -0.2648
 6658SOL    HW226364   4.396   0.831   3.081 -1.0080  0.0090  0.6436
 6658SOL    HW326365   4.491   0.837   3.198 -2.0781 -0.8160  1.5710
 6658SOL    MW426366   4.458   0.794   3.130  0.1683  0.4435 -0.2060
 6659SOL     OW26367   5.079   5.353   6.390  0.3406  0.0365  0.2384
 6659SOL    HW226368   5.020   5.344   6.465 -1.6640  1.3349 -1.0706
 6659SOL    HW326369   5.107   5.445   6.392  0.6255 -0.0295 -0.3254
 6659SOL    MW426370   5.075   5.364   6.400 -0.4712 -0.4560 -0.3805
 6660SOL     OW26371   5.529   5.131   3.279 -0.7089  0.5867  0.0756
 6660SOL    HW226372   5.479   5.160   3.356 -1.8212 -0.9767 -0.0040
 6660SOL    HW326373   5.476   5.159   3.205 -1.1135 -0.4108 -0.0281
 6660SOL    MW426374   5.515   5.138   3.280  0.6624 -0.5206  0.4574
 6661SOL     OW26375   0.757   4.807   4.054  0.3766  0.1394  0.1290
 6661SOL    HW226376   0.712   4.726   4.078  2.8422 -1.0642  1.0157
 6661SOL    HW326377   0.800   4.836   4.135  3.0900 -0.1385 -1.0859
 6661SOL    MW426378   0.757   4.800   4.068 -0.0243  0.6876  1.0237
 6662SOL     OW26379   4.845   3.078   4.571  0.2878 -0.3933 -0.0510
 6662SOL    HW226380   4.870   3.001   4.521 -0.8366 -1.1060  0.4460
 6662SOL    HW326381   4.808   3.044   4.652 -0.5661  0.6489  0.0276
 6662SOL    MW426382   4.843   3.064   4.575  0.5215  0.3017  0.2782
 6663SOL     OW26383   1.447   2.214   5.572 -0.4041 -0.2958 -0.0053
 6663SOL    HW226384   1.413   2.132   5.609  1.0482 -0.8959  0.0738
 6663SOL    HW326385   1.536   2.192   5.544  0.0593  1.3027  0.1275
 6663SOL    MW426386   1.455   2.200   5.573 -0.0495  0.0647  0.4866
 6664SOL     OW26387   1.959   3.943   3.545 -0.5984 -0.0746 -0.0474
 6664SOL    HW226388   1.886   3.902   3.592 -0.9801 -0.8987 -1.3213
 6664SOL    HW326389   1.939   3.929   3.453  1.0161 -0.0073 -0.4263
 6664SOL    MW426390   1.947   3.936   3.539  0.5826 -0.2263  0.5096
 6665SOL     OW26391   3.739   1.041   4.936  0.3480 -0.4370  0.3693
 6665SOL    HW226392   3.827   1.060   4.904  0.1817  1.8062  1.0615
 6665SOL    HW326393   3.752   1.019   5.029  0.1150  1.1017  0.7942
 6665SOL    MW426394   3.753   1.041   4.944 -0.0761  0.1828 -0.2145
 6666SOL     OW26395   3.493   3.895   4.163 -0.0391 -0.0887  0.1074
 6666SOL    HW226396   3.406   3.859   4.181  0.1785 -0.5665  0.2235
 6666SOL    HW326397   3.524   3.925   4.249 -0.2059  0.3430  0.0164
 6666SOL    MW426398   3.486   3.894   4.177  0.4381 -0.2791  0.1683
 6667SOL     OW26399   3.644   5.374   0.919  0.4047 -0.4985  0.3922
 6667SOL    HW226400   3.606   5.443   0.865  1.7757 -0.6551 -0.8345
 6667SOL    HW326401   3.570   5.320   0.944 -0.3980  0.1257 -0.5466
 6667SOL    MW426402   3.629   5.376   0.915 -0.9502 -0.2463  0.0635
 6668SOL     OW26403   5.409   4.373   5.021  0.1913  0.4094 -0.0221
 6668SOL    HW226404   5.369   4.374   4.934  0.3705 -0.7544 -0.1370
 6668SOL    HW326405   5.486   4.430   5.013 -0.3974  1.1744 -0.3134
 6668SOL    MW426406   5.414   4.380   5.008 -0.2637  0.8709  0.0248
 6669SOL     OW26407   2.156   0.617   0.230 -0.8888  0.3821 -0.1794
 6669SOL    HW226408   2.219   0.621   0.302 -1.1365  0.4724  0.0374
 6669SOL    HW326409   2.115   0.531   0.239  0.9253 -0.7018 -1.8135
 6669SOL    MW426410   2.159   0.606   0.241 -0.1845 -0.6553 -0.0778
 6670SOL     OW26411   1.367   3.813   5.062 -0.4680 -0.2638 -0.5675
 6670SOL    HW226412   1.273   3.804   5.078 -0.7772  3.2673  0.4237
 6670SOL    HW326413   1.402   3.847   5.145  1.7594 -1.5060 -0.9127
 6670SOL    MW426414   1.359   3.816   5.075 -0.4222 -0.9821 -0.1202
 6671SOL     OW26415   0.481   2.697   3.794 -0.5425  0.9064 -0.1343
 6671SOL    HW226416   0.510   2.608   3.778 -0.4323  0.9942 -0.4278
 6671SOL    HW326417   0.530   2.750   3.731 -2.4105  0.8926 -1.6525
 6671SOL    MW426418   0.492   2.693   3.784  0.4703 -0.2731  0.3085
 6672SOL     OW26419   3.975   2.844   1.565  0.5100  0.6737 -0.3842
 6672SOL    HW226420   3.980   2.759   1.520 -1.2925  0.7718 -0.8413
 6672SOL    HW326421   3.977   2.821   1.658  0.4948  0.1689 -0.5030
 6672SOL    MW426422   3.976   2.830   1.571  0.3171  0.1026 -0.1431
 6673SOL     OW26423   6.414   2.408   2.797  0.5443  0.2247 -0.2470
 6673SOL    HW226424   6.436   2.480   2.856  0.0443 -0.4316  0.7603
 6673SOL    HW326425   6.421   2.330   2.851 -2.3564 -0.2118 -0.3266
 6673SOL    MW426426   6.418   2.407   2.812  0.2616  0.9484  0.3995
 6674SOL     OW26427   4.038   2.359   2.288  0.0868  0.2415 -0.2920
 6674SOL    HW226428   3.981   2.368   2.212 -2.0173 -0.8555  1.0727
 6674SOL    HW326429   4.094   2.284   2.268 -0.1898  0.1867 -0.8782
 6674SOL    MW426430   4.038   2.350   2.275  0.0294  0.5864 -0.2225
 6675SOL     OW26431   5.505   0.592   4.657  0.8016  0.0300  0.0619
 6675SOL    HW226432   5.469   0.625   4.575 -0.4128 -1.3635 -0.0144
 6675SOL    HW326433   5.509   0.669   4.714  1.8146  1.0433 -1.3210
 6675SOL    MW426434   5.501   0.607   4.654 -0.1285  0.2368 -0.2272
 6676SOL     OW26435   5.453   5.713   0.499 -0.3675 -0.5750  0.4505
 6676SOL    HW226436   5.379   5.771   0.513 -0.6745 -0.3187 -1.8346
 6676SOL    HW326437   5.418   5.625   0.514 -0.5321 -0.3510  1.4927
 6676SOL    MW426438   5.439   5.709   0.503 -0.4528 -0.2452 -0.2651
 6677SOL     OW26439   1.895   0.057   0.601  0.4361 -0.4027 -0.1433
 6677SOL    HW226440   1.964   0.124   0.600  0.6259 -0.5558 -2.4457
 6677SOL    HW326441   1.815   0.105   0.623  1.0197  0.0461  1.0694
 6677SOL    MW426442   1.894   0.073   0.604 -0.1602  0.0407 -0.3517
 6678SOL     OW26443   3.176   2.645   1.680 -0.2124  0.4121  0.6022
 6678SOL    HW226444   3.272   2.640   1.683 -0.2077 -0.2086 -0.2321
 6678SOL    HW326445   3.153   2.707   1.749  0.8511  1.2923  0.1966
 6678SOL    MW426446   3.186   2.652   1.690 -0.4015 -0.1433  0.1345
 6679SOL     OW26447   4.373   3.990   3.550 -0.1850 -0.0284  0.4524
 6679SOL    HW226448   4.354   4.022   3.638  1.9282  0.3406  0.8267
 6679SOL    HW326449   4.301   4.024   3.496 -0.4671  1.4379  1.6823
 6679SOL    MW426450   4.361   3.999   3.555 -0.4056  0.4603 -0.2959
 6680SOL     OW26451   0.677   5.614   2.904  0.1341 -0.2002 -0.1604
 6680SOL    HW226452   0.661   5.588   2.995 -1.4077 -0.9244 -0.5976
 6680SOL    HW326453   0.749   5.557   2.876  0.3517 -0.2580  0.4773
 6680SOL    MW426454   0.684   5.603   2.913  0.2668 -0.0763  0.1894
 6681SOL     OW26455   5.591   0.107   0.462  0.1823  0.1623 -0.8301
 6681SOL    HW226456   5.641   0.038   0.418  0.7577  1.3327 -2.1039
 6681SOL    HW326457   5.600   0.183   0.405 -1.7371  0.8753 -0.2644
 6681SOL    MW426458   5.599   0.108   0.449  0.8297  0.0475  0.2491
 6682SOL     OW26459   2.244   1.856   4.707 -0.2120  0.0003 -0.1792
 6682SOL    HW226460   2.288   1.923   4.655  0.0169  0.2665  0.3466
 6682SOL    HW326461   2.307   1.784   4.713  0.6167  0.8162  1.4872
 6682SOL    MW426462   2.258   1.855   4.701 -0.3687 -0.0598 -0.0251
 6683SOL     OW26463   2.989   2.614   3.817 -0.0734  0.4240  0.2853
 6683SOL    HW226464   2.948   2.660   3.744  0.0933 -1.9464 -1.4178
 6683SOL    HW326465   3.080   2.642   3.816 -0.5217  1.9728  0.9391
 6683SOL    MW426466   2.995   2.623   3.807  0.4178 -0.5492  0.3261
 6684SOL     OW26467   4.199   3.235   2.487 -0.1165 -0.1049 -0.1353
 6684SOL    HW226468   4.232   3.188   2.410  0.2708  0.4782 -0.3320
 6684SOL    HW326469   4.199   3.327   2.461 -1.6367 -0.0470 -0.0430
 6684SOL    MW426470   4.203   3.240   2.473 -0.0528  0.1514 -0.3636
 6685SOL     OW26471   0.610   2.461   4.523 -0.8538  0.1875  0.3216
 6685SOL    HW226472   0.663   2.429   4.596  2.1423 -0.5135 -1.9902
 6685SOL    HW326473   0.555   2.386   4.499 -0.3141 -0.2808  0.5276
 6685SOL    MW426474   0.610   2.446   4.530  0.3382  0.1280 -0.4876
 6686SOL     OW26475   2.751   3.791   3.720  0.7373 -0.4216 -0.1273
 6686SOL    HW226476   2.718   3.879   3.736  1.0008 -0.6553  1.9995
 6686SOL    HW326477   2.777   3.792   3.628  0.2679  1.5544 -0.2923
 6686SOL    MW426478   2.750   3.803   3.710  0.0120  0.0865  0.5634
 6687SOL     OW26479   2.648   0.238   0.620  0.2381 -0.0438 -0.1915
 6687SOL    HW226480   2.659   0.221   0.526  0.6139 -0.6575 -0.0376
 6687SOL    HW326481   2.574   0.299   0.624  0.3095  0.1016 -0.8948
 6687SOL    MW426482   2.640   0.244   0.608  0.0115 -0.4223 -0.0094
 6688SOL     OW26483   2.687   2.228   5.319 -0.4393  0.0334 -0.4783
 6688SOL    HW226484   2.635   2.148   5.318 -0.0012 -0.2621 -0.2533
 6688SOL    HW326485   2.747   2.218   5.244 -0.4476  0.1933 -0.5068
 6688SOL    MW426486   2.688   2.216   5.309 -0.2252 -0.7176 -0.3877
 6689SOL     OW26487   4.836   2.068   1.299 -0.2951  0.6203  0.1316
 6689SOL    HW226488   4.824   2.039   1.389  1.7690  0.4711  0.4050
 6689SOL    HW326489   4.778   2.144   1.291 -0.6683  0.5189  1.5333
 6689SOL    MW426490   4.827   2.074   1.310  0.2200  0.1498 -0.1199
 6690SOL     OW26491   2.622   3.355   0.338 -0.3192  0.4596 -0.7542
 6690SOL    HW226492   2.604   3.390   0.425 -0.4928  1.3570 -1.1372
 6690SOL    HW326493   2.697   3.405   0.307 -0.0678 -0.0651 -1.0016
 6690SOL    MW426494   2.629   3.367   0.345 -0.2543  0.5505 -0.0961
 6691SOL     OW26495   5.195   2.036   5.170  0.3448  0.1739  0.6096
 6691SOL    HW226496   5.119   2.069   5.218  1.4939  1.7394  1.4133
 6691SOL    HW326497   5.252   1.998   5.237  0.2550 -1.0850  0.0021
 6691SOL    MW426498   5.192   2.035   5.185  0.3237 -0.0898  0.3615
 6692SOL     OW26499   3.904   2.396   2.036  0.3596 -0.3380 -0.0623
 6692SOL    HW226500   3.874   2.486   2.026  1.7769  0.0708 -0.8309
 6692SOL    HW326501   3.995   2.397   2.006  1.1019 -1.5845  1.9496
 6692SOL    MW426502   3.912   2.408   2.031 -0.1075  0.2650  1.2101
 6693SOL     OW26503   5.809   2.491   5.469  0.4374  0.0215 -0.4638
 6693SOL    HW226504   5.762   2.544   5.533  2.4036  1.3158 -0.0041
 6693SOL    HW326505   5.789   2.533   5.385  0.5195  0.3687 -0.3130
 6693SOL    MW426506   5.800   2.504   5.466 -0.1854  0.2343 -0.3071
 6694SOL     OW26507   1.723   0.248   4.174  0.2975 -0.2250 -0.7224
 6694SOL    HW226508   1.788   0.198   4.126 -1.7217  0.2815 -4.3545
 6694SOL    HW326509   1.671   0.182   4.220  2.2460 -0.7265  0.9095
 6694SOL    MW426510   1.724   0.233   4.174 -0.1555 -0.3562 -0.3297
 6695SOL     OW26511   4.330   3.677   4.715 -0.0444  0.4880 -0.0426
 6695SOL    HW226512   4.370   3.590   4.705 -1.5451 -0.1131 -1.2776
 6695SOL    HW326513   4.260   3.678   4.651 -0.6768  2.2827  0.6216
 6695SOL    MW426514   4.326   3.665   4.705 -0.2418  0.1654  0.0091
 6696SOL     OW26515   5.351   5.685   1.107  0.0430 -0.0152  0.0035
 6696SOL    HW226516   5.386   5.757   1.159  0.0382  1.1226 -1.4673
 6696SOL    HW326517   5.260   5.709   1.091 -0.4199 -1.1543  0.7842
 6696SOL    MW426518   5.343   5.698   1.111  0.1121  0.0929 -0.3647
 6697SOL     OW26519   0.800   1.733   5.599  0.3796 -0.1780  0.5157
 6697SOL    HW226520   0.821   1.709   5.509  1.9749  0.5326  0.6475
 6697SOL    HW326521   0.885   1.756   5.638 -0.4616  1.0704  1.7241
 6697SOL    MW426522   0.814   1.733   5.593  0.0888 -0.3559  0.1156
 6698SOL     OW26523   0.777   2.422   0.139 -0.6833  0.0231  0.5069
 6698SOL    HW226524   0.720   2.442   0.064  1.6092  1.4610 -0.9601
 6698SOL    HW326525   0.727   2.455   0.214 -0.4298  4.8481 -1.0524
 6698SOL    MW426526   0.763   2.429   0.139  0.1379 -0.1878 -0.1886
 6699SOL     OW26527   4.227   4.377   2.231 -0.1876  0.4926 -0.5140
 6699SOL    HW226528   4.158   4.427   2.187  0.5403  1.1417 -0.9377
 6699SOL    HW326529   4.309   4.417   2.202  0.3166  1.4613  2.0308
 6699SOL    MW426530   4.229   4.389   2.221 -0.2622  0.0638  0.8248
 6700SOL     OW26531   0.887   4.075   3.650 -0.4431  0.2553 -0.1051
 6700SOL    HW226532   0.966   4.126   3.633  0.7045 -1.7820 -1.3045
 6700SOL    HW326533   0.840   4.125   3.717  2.0244  1.3584  0.9336
 6700SOL    MW426534   0.892   4.088   3.657  0.1647 -0.8852  0.0577
 6701SOL     OW26535   4.698   5.019   3.877 -0.0212 -0.0881  0.3466
 6701SOL    HW226536   4.612   4.989   3.847  0.3744  0.6575 -1.6553
 6701SOL    HW326537   4.757   4.946   3.856 -0.0892 -0.5077  1.5153
 6701SOL    MW426538   4.695   5.005   3.870 -0.5285 -0.0958 -0.1940
 6702SOL     OW26539   3.968   6.254   2.806 -0.0712 -0.1097 -0.4502
 6702SOL    HW226540   4.013   6.298   2.733 -0.6134 -0.3576 -0.9416
 6702SOL    HW326541   4.016   6.283   2.884  0.2495  0.5040 -0.8613
 6702SOL    MW426542   3.980   6.264   2.806 -0.5635  0.3773  0.2261
 6703SOL     OW26543   0.378   4.419   3.097  0.0826  0.5789 -0.0327
 6703SOL    HW226544   0.392   4.327   3.119  2.2224  0.5839 -1.0803
 6703SOL    HW326545   0.293   4.421   3.053  0.1479 -0.9517 -0.2878
 6703SOL    MW426546   0.369   4.407   3.094  0.7409  0.1977 -0.2706
 6704SOL     OW26547   5.947   4.234   2.907 -0.1400 -0.2380  0.5332
 6704SOL    HW226548   5.921   4.297   2.839  0.3638  1.3553  1.7462
 6704SOL    HW326549   5.865   4.191   2.932 -0.5520  0.1619 -0.0995
 6704SOL    MW426550   5.933   4.237   2.902 -0.1241  0.5835  0.0010
 6705SOL     OW26551   6.406   0.068   5.395  0.4026  0.3255  0.4000
 6705SOL    HW226552   6.435   0.121   5.469 -0.0653  1.8394 -0.4578
 6705SOL    HW326553   6.472   0.083   5.327  0.3720 -0.3754  0.2026
 6705SOL    MW426554   6.419   0.077   5.396  0.2063 -0.6063 -0.6118
 6706SOL     OW26555   3.453   1.193   6.007 -0.1143 -0.0670  0.2704
 6706SOL    HW226556   3.495   1.231   6.084 -0.9642  0.8027  0.3283
 6706SOL    HW326557   3.428   1.105   6.035 -2.5671  1.0050  1.8719
 6706SOL    MW426558   3.455   1.187   6.021 -0.6503  0.1377  0.1904
 6707SOL     OW26559   0.954   2.736   5.256 -0.0555 -0.3294 -0.4249
 6707SOL    HW226560   0.864   2.762   5.276  0.0595 -0.4463  0.2688
 6707SOL    HW326561   0.974   2.666   5.318  0.1481 -1.0709 -1.2899
 6707SOL    MW426562   0.945   2.730   5.266 -0.5835 -0.1860 -0.4449
 6708SOL     OW26563   5.975   4.313   4.044  0.0290 -0.3682  0.0714
 6708SOL    HW226564   5.999   4.342   4.132 -0.2432 -1.1933  0.4214
 6708SOL    HW326565   5.986   4.391   3.990 -0.3971  0.3223  0.9484
 6708SOL    MW426566   5.980   4.327   4.048 -0.2109  0.0436  0.2121
 6709SOL     OW26567   2.940   2.675   3.276  0.2451  0.9024 -0.1231
 6709SOL    HW226568   2.852   2.677   3.240  0.3050  0.3277 -0.3069
 6709SOL    HW326569   2.933   2.620   3.354  0.1212  2.1105  0.7567
 6709SOL    MW426570   2.928   2.668   3.282  0.2092 -0.5661 -0.0555
 6710SOL     OW26571   0.696   4.129   3.850  0.2508 -0.0034  0.4682
 6710SOL    HW226572   0.675   4.044   3.812 -0.0065  0.9864 -1.7788
 6710SOL    HW326573   0.632   4.141   3.920 -0.4032 -1.1766  0.0853
 6710SOL    MW426574   0.685   4.120   3.854 -0.0509  0.7306  0.4232
 6711SOL     OW26575   4.796   2.886   3.884 -0.0437  0.1191  0.4103
 6711SOL    HW226576   4.811   2.913   3.794  0.7114 -2.6403 -0.4083
 6711SOL    HW326577   4.702   2.869   3.889  0.2523 -2.5167 -0.8705
 6711SOL    MW426578   4.786   2.887   3.873  0.0086  0.0878 -0.8224
 6712SOL     OW26579   1.638   0.103   1.944  0.4999  0.6381 -0.1838
 6712SOL    HW226580   1.578   0.034   1.916 -0.6875  1.7323 -0.4566
 6712SOL    HW326581   1.636   0.167   1.872  0.2028  1.7801  0.8151
 6712SOL    MW426582   1.630   0.103   1.930 -0.2449  0.6060 -0.2195
 6713SOL     OW26583   1.918   2.408   5.267 -0.2423 -0.3373  0.8756
 6713SOL    HW226584   2.002   2.414   5.222 -1.4203  2.4475 -1.3274
 6713SOL    HW326585   1.919   2.481   5.329 -0.9015 -0.4263  0.9985
 6713SOL    MW426586   1.929   2.418   5.269  0.2097 -0.1668 -0.1476
 6714SOL     OW26587   2.248   5.089   6.147 -0.2746  0.5844 -0.0095
 6714SOL    HW226588   2.290   5.116   6.228  0.1706 -1.3138  0.4497
 6714SOL    HW326589   2.298   5.012   6.119  0.4165  1.9264 -2.8210
 6714SOL    MW426590   2.260   5.082   6.154 -0.2209 -0.3903 -0.2696
 6715SOL     OW26591   2.099   1.395   2.886 -0.0053  0.2663 -0.8780
 6715SOL    HW226592   2.189   1.426   2.878  0.7582 -1.7712 -0.8199
 6715SOL    HW326593   2.067   1.390   2.796 -1.7046  5.1074 -0.8256
 6715SOL    MW426594   2.106   1.399   2.873  0.1558  0.4671  0.0413
 6716SOL     OW26595   2.260   5.955   1.555 -0.1661 -0.1056  0.0708
 6716SOL    HW226596   2.287   5.874   1.597 -1.2301  0.1052  1.2297
 6716SOL    HW326597   2.324   6.020   1.582  0.0336 -0.3071  0.0818
 6716SOL    MW426598   2.272   5.953   1.564  0.0049 -0.4552 -0.0875
 6717SOL     OW26599   4.540   4.205   5.387 -0.9107 -0.2425  0.4165
 6717SOL    HW226600   4.611   4.217   5.325 -0.7019  2.1573  1.0260
 6717SOL    HW326601   4.475   4.271   5.363 -1.8396 -0.7701  1.3805
 6717SOL    MW426602   4.541   4.215   5.376  0.0981 -0.0898  0.1399
 6718SOL     OW26603   2.302   1.939   6.011 -0.0372  0.2160  0.3965
 6718SOL    HW226604   2.234   1.885   5.972  0.6292 -1.3150  1.2725
 6718SOL    HW326605   2.260   1.985   6.083 -0.3945  0.1771  0.2128
 6718SOL    MW426606   2.288   1.938   6.015  0.4185 -0.1348 -0.5855
 6719SOL     OW26607   4.056   5.406   5.352  0.0778 -0.2890  0.1065
 6719SOL    HW226608   4.138   5.359   5.334  0.5359  0.1339  1.0041
 6719SOL    HW326609   4.083   5.497   5.365 -0.5358 -0.1383  0.3631
 6719SOL    MW426610   4.071   5.412   5.352 -0.6286  0.3407 -0.3178
 6720SOL     OW26611   4.070   1.320   1.233  0.2754  0.5520 -0.3848
 6720SOL    HW226612   4.158   1.287   1.252  0.6567  1.0903 -1.1550
 6720SOL    HW326613   4.031   1.333   1.319  1.0149  0.4784 -0.0233
 6720SOL    MW426614   4.077   1.317   1.247  0.0918  0.2908 -0.2830
 6721SOL     OW26615   3.044   0.903   5.402 -0.0482  0.2815  0.3540
 6721SOL    HW226616   3.053   0.812   5.373  0.1748  1.1917 -2.8285
 6721SOL    HW326617   3.114   0.914   5.467  0.3844 -1.6149  0.2883
 6721SOL    MW426618   3.055   0.892   5.406  0.1310 -0.2086  0.1226
 6722SOL     OW26619   4.325   1.281   1.725 -0.2445  0.4605 -0.0088
 6722SOL    HW226620   4.385   1.214   1.757 -1.0876 -0.3834 -0.1572
 6722SOL    HW326621   4.252   1.279   1.787  0.7632  2.9400  1.4315
 6722SOL    MW426622   4.323   1.272   1.738 -0.1884 -0.1395 -0.4846
 6723SOL     OW26623   4.825   5.309   3.937 -0.8262  0.0847 -1.0856
 6723SOL    HW226624   4.857   5.257   3.863  0.0661  0.8393 -1.2426
 6723SOL    HW326625   4.838   5.252   4.013 -1.1754 -0.4612 -1.4304
 6723SOL    MW426626   4.831   5.294   3.938  0.4025 -0.3387 -0.1514
 6724SOL     OW26627   1.021   1.809   0.674  0.1612  0.2872  0.2362
 6724SOL    HW226628   1.023   1.799   0.769 -0.3464 -3.4828 -0.0165
 6724SOL    HW326629   1.108   1.841   0.651  0.6637  0.1786  1.8793
 6724SOL    MW426630   1.032   1.812   0.684  0.5788 -0.2954  0.6557
 6725SOL     OW26631   2.170   6.233   2.565 -0.2340  0.3250  0.3231
 6725SOL    HW226632   2.238   6.299   2.578  0.5235 -0.1793 -0.9098
 6725SOL    HW326633   2.100   6.279   2.520 -0.0872  0.4985  0.2707
 6725SOL    MW426634   2.170   6.248   2.561 -0.0327  0.4940 -0.1346
 6726SOL     OW26635   2.574   5.490   0.067 -0.9888 -0.2606  0.1360
 6726SOL    HW226636   2.622   5.416   0.029  0.8006  1.2713 -0.7249
 6726SOL    HW326637   2.607   5.497   0.157  0.8686  1.1030 -0.6096
 6726SOL    MW426638   2.585   5.481   0.074 -0.3093  0.3287  0.8257
 6727SOL     OW26639   1.044   3.232   6.401 -0.5975 -0.4569  0.0517
 6727SOL    HW226640   1.043   3.161   6.336 -0.2623 -0.6903  0.3001
 6727SOL    HW326641   1.083   3.193   6.479 -3.7638 -1.1148  1.4820
 6727SOL    MW426642   1.049   3.218   6.402 -0.5917 -0.2919 -0.6910
 6728SOL     OW26643   2.614   5.604   1.613  0.4706 -0.7233 -0.5034
 6728SOL    HW226644   2.577   5.558   1.689  0.9994 -2.0101 -0.9997
 6728SOL    HW326645   2.674   5.669   1.651  0.4047 -1.0611  0.1903
 6728SOL    MW426646   2.617   5.607   1.628 -0.6535 -0.1069  0.0127
 6729SOL     OW26647   3.007   3.896   1.522  0.1474 -0.2612 -0.4604
 6729SOL    HW226648   2.962   3.952   1.458 -0.8905 -2.5650 -1.8798
 6729SOL    HW326649   3.100   3.905   1.500 -0.1561 -0.6463 -2.0454
 6729SOL    MW426650   3.013   3.904   1.511  0.2532 -0.3854  0.1084
 6730SOL     OW26651   4.246   1.936   3.126  0.2500 -0.3896 -0.3127
 6730SOL    HW226652   4.341   1.932   3.114  0.5560 -3.4891  1.9310
 6730SOL    HW326653   4.210   1.918   3.039  1.8870 -3.4981 -0.4815
 6730SOL    MW426654   4.254   1.933   3.113 -0.1696 -0.3929  0.2576
 6731SOL     OW26655   5.189   0.512   3.777  0.1705 -0.4854 -0.1598
 6731SOL    HW226656   5.152   0.556   3.853 -0.1451  1.5827 -1.4379
 6731SOL    HW326657   5.259   0.457   3.812 -1.0122 -0.8655  1.7728
 6731SOL    MW426658   5.193   0.510   3.791 -0.0123 -0.0958 -0.0457
 6732SOL     OW26659   5.214   6.064   2.621  0.1134  0.4038 -0.5270
 6732SOL    HW226660   5.127   6.038   2.653  0.2193  0.9597  0.2192
 6732SOL    HW326661   5.275   6.015   2.675  0.3163  2.1679  0.9029
 6732SOL    MW426662   5.210   6.054   2.632  0.1636 -0.4722  0.3003
 6733SOL     OW26663   1.643   2.540   3.348 -0.1237 -0.0393 -0.0196
 6733SOL    HW226664   1.680   2.558   3.435  1.2757 -0.1339 -0.5606
 6733SOL    HW326665   1.695   2.595   3.289 -1.5508  0.5828 -0.7276
 6733SOL    MW426666   1.655   2.550   3.352 -0.2191 -0.1484 -0.1017
 6734SOL     OW26667   1.360   2.343   1.458  0.7571 -0.3765 -0.3218
 6734SOL    HW226668   1.349   2.257   1.417 -0.0524  0.6617 -2.4664
 6734SOL    HW326669   1.313   2.337   1.541 -0.5656 -1.5749 -1.1217
 6734SOL    MW426670   1.352   2.331   1.463  0.1116  0.1323  0.0440
 6735SOL     OW26671   0.993   2.898   3.594 -0.7316 -0.3904 -0.0173
 6735SOL    HW226672   0.982   2.852   3.677  0.5445 -0.3562  0.2039
 6735SOL    HW326673   1.087   2.919   3.591  0.0607 -3.3466 -2.9561
 6735SOL    MW426674   1.004   2.895   3.604 -0.2686  0.4840  0.2942
 6736SOL     OW26675   6.026   0.874   1.042 -0.3623 -0.0880 -0.3137
 6736SOL    HW226676   6.119   0.848   1.038  0.2117  1.3401  1.9409
 6736SOL    HW326677   6.017   0.941   0.975  1.1452  2.1041  1.5402
 6736SOL    MW426678   6.037   0.879   1.033 -0.0105  0.5811  0.2393
 6737SOL     OW26679   2.340   2.986   4.853 -0.7099  0.1629  0.2278
 6737SOL    HW226680   2.357   3.036   4.932  2.6338 -0.3107 -0.0404
 6737SOL    HW326681   2.345   3.050   4.782 -1.8562  0.2808  0.2365
 6737SOL    MW426682   2.343   3.001   4.854 -0.3631  0.0436  0.2512
 6738SOL     OW26683   4.716   3.068   5.976 -0.3082  0.2190  0.7192
 6738SOL    HW226684   4.625   3.096   5.985 -0.1620  1.0707 -0.3622
 6738SOL    HW326685   4.766   3.149   5.972  0.2092 -0.1507 -1.5550
 6738SOL    MW426686   4.711   3.082   5.977 -0.6039 -0.5462 -0.5016
 6739SOL     OW26687   3.597   5.895   6.154  0.4306  0.1777 -0.1904
 6739SOL    HW226688   3.520   5.952   6.157 -0.4139 -0.9638  0.4919
 6739SOL    HW326689   3.565   5.814   6.114  1.5751  0.0974 -0.9887
 6739SOL    MW426690   3.583   5.892   6.149  0.5791  0.1614 -0.3373
 6740SOL     OW26691   1.516   4.997   5.342  0.3721  0.0972 -0.1494
 6740SOL    HW226692   1.527   4.904   5.362  0.9580  0.2937  0.4799
 6740SOL    HW326693   1.449   5.027   5.403  0.5111  0.1875 -0.0404
 6740SOL    MW426694   1.509   4.989   5.353  0.1542 -0.7174  0.4761
 6741SOL     OW26695   1.824   3.307   4.281  0.3906  0.4440  0.1448
 6741SOL    HW226696   1.798   3.215   4.276  2.0772 -0.1565  1.2412
 6741SOL    HW326697   1.885   3.318   4.208  0.2010  0.6861  0.0239
 6741SOL    MW426698   1.829   3.296   4.270  0.5042 -0.5356 -0.0814
 6742SOL     OW26699   4.587   2.450   5.567 -0.1743  0.1394  0.3235
 6742SOL    HW226700   4.631   2.520   5.615 -0.0492  0.6094 -0.4623
 6742SOL    HW326701   4.493   2.468   5.579 -0.3090  3.1321 -3.4870
 6742SOL    MW426702   4.580   2.462   5.575  0.2712  0.2284  0.2928
 6743SOL     OW26703   4.134   1.411   5.788  0.2750 -0.6696  0.3012
 6743SOL    HW226704   4.226   1.391   5.806  0.2406 -0.5751  0.5809
 6743SOL    HW326705   4.105   1.463   5.863 -0.4385 -1.9806  0.9786
 6743SOL    MW426706   4.142   1.415   5.800  0.4430  0.5376 -0.0392
 6744SOL     OW26707   2.934   1.784   2.359  0.4291 -0.0478 -0.1226
 6744SOL    HW226708   2.975   1.840   2.293  0.2661  1.3566  0.9253
 6744SOL    HW326709   2.972   1.813   2.442 -1.3117  0.0365  0.6790
 6744SOL    MW426710   2.944   1.795   2.361 -0.0654 -0.1340 -0.3094
 6745SOL     OW26711   3.968   4.048   0.546 -0.1223  0.2179 -0.7367
 6745SOL    HW226712   3.881   4.076   0.575 -0.1990 -0.0658 -0.6928
 6745SOL    HW326713   4.029   4.103   0.595 -0.2440 -0.3158  0.0330
 6745SOL    MW426714   3.964   4.059   0.556 -0.3821  0.5043  0.4705
 6746SOL     OW26715   4.423   1.359   3.673 -0.3419 -0.0133  0.1948
 6746SOL    HW226716   4.378   1.411   3.739 -0.2894  0.6974 -0.3207
 6746SOL    HW326717   4.399   1.268   3.693 -0.3052  0.1931  1.1916
 6746SOL    MW426718   4.414   1.354   3.684 -0.1443  0.0111  0.2176
 6747SOL     OW26719   4.088   1.478   4.239  0.4897  0.5293  0.0729
 6747SOL    HW226720   4.160   1.518   4.191  1.3222 -1.0799 -0.1080
 6747SOL    HW326721   4.054   1.548   4.295  1.3821  1.6473 -0.7358
 6747SOL    MW426722   4.093   1.492   4.240 -0.0539 -0.2517 -0.3022
 6748SOL     OW26723   5.888   2.185   3.225 -0.0635  0.0965 -0.1737
 6748SOL    HW226724   5.974   2.144   3.211  0.6765  0.7560  2.0112
 6748SOL    HW326725   5.882   2.252   3.157  1.1571  0.0243 -0.3755
 6748SOL    MW426726   5.899   2.189   3.215 -0.1198 -0.0451 -0.2132
 6749SOL     OW26727   0.832   6.176   4.213 -0.0220  0.1769 -0.6297
 6749SOL    HW226728   0.782   6.232   4.152 -0.1899  0.3268 -0.3572
 6749SOL    HW326729   0.899   6.136   4.158 -2.0573 -2.1445 -1.5973
 6749SOL    MW426730   0.834   6.178   4.198 -0.2283  0.6027  0.0414
 6750SOL     OW26731   2.224   3.082   4.018  0.6625 -0.2686  0.1815
 6750SOL    HW226732   2.192   3.017   3.956 -0.1495 -0.1919  0.5041
 6750SOL    HW326733   2.303   3.118   3.978  0.8435 -1.1002 -0.2244
 6750SOL    MW426734   2.230   3.078   4.005  0.3188  0.3131  0.1707
 6751SOL     OW26735   4.460   1.761   3.740  0.8801  0.2309  0.0436
 6751SOL    HW226736   4.493   1.687   3.791  1.1486 -1.1549 -2.0217
 6751SOL    HW326737   4.367   1.743   3.730  0.0286  2.2852  2.8024
 6751SOL    MW426738   4.452   1.749   3.746  0.7252  0.9472  0.0158
 6752SOL     OW26739   2.243   2.324   0.740 -0.6535 -0.0340  0.3669
 6752SOL    HW226740   2.159   2.291   0.771 -1.1429  0.2938 -0.5621
 6752SOL    HW326741   2.225   2.413   0.712 -0.3314 -0.4044 -1.1298
 6752SOL    MW426742   2.230   2.331   0.740 -0.1375 -0.0061  1.1227
 6753SOL     OW26743   2.603   0.903   0.349  0.4149 -0.0701  0.4131
 6753SOL    HW226744   2.650   0.857   0.280 -0.6183  0.1893 -0.4912
 6753SOL    HW326745   2.653   0.983   0.364 -1.6723  2.2193 -3.3300
 6753SOL    MW426746   2.616   0.907   0.342 -0.0460  0.3908 -0.4387
 6754SOL     OW26747   2.318   3.841   4.327 -0.2808 -0.4918 -0.3118
 6754SOL    HW226748   2.247   3.889   4.284 -2.9441 -0.7011  3.4266
 6754SOL    HW326749   2.300   3.749   4.308 -0.0533 -0.4717 -0.6395
 6754SOL    MW426750   2.306   3.835   4.319 -0.1719 -0.0421  0.1497
 6755SOL     OW26751   1.113   3.097   0.945  0.6615  0.7742  0.6285
 6755SOL    HW226752   1.064   3.113   1.026  1.7366 -0.1769  1.4903
 6755SOL    HW326753   1.130   3.185   0.910 -2.5133  1.1730 -0.2913
 6755SOL    MW426754   1.109   3.111   0.951 -0.0657 -0.1678  0.5733
 6756SOL     OW26755   4.948   0.561   0.771  0.0858  0.0588  0.3470
 6756SOL    HW226756   5.012   0.493   0.750 -0.5481 -0.9333  1.4414
 6756SOL    HW326757   4.993   0.643   0.755  1.7496 -0.6064  1.3921
 6756SOL    MW426758   4.962   0.563   0.766  0.0482 -0.0026 -0.1838
 6757SOL     OW26759   0.711   3.641   4.756 -0.1574 -0.5845  0.0464
 6757SOL    HW226760   0.728   3.709   4.691  0.6247 -0.2056  0.6246
 6757SOL    HW326761   0.661   3.685   4.824 -0.7420 -0.9134 -0.1607
 6757SOL    MW426762   0.707   3.656   4.756  0.1961 -0.3317  0.4471
 6758SOL     OW26763   3.280   5.704   5.064  0.6124 -0.0198 -0.6271
 6758SOL    HW226764   3.209   5.698   5.127  0.9924 -0.4509 -0.2387
 6758SOL    HW326765   3.247   5.658   4.986  0.1105  0.5957 -0.7886
 6758SOL    MW426766   3.267   5.697   5.062  0.0936 -0.1600  0.4440
 6759SOL     OW26767   4.613   5.219   3.032  0.3284  1.0754 -0.5664
 6759SOL    HW226768   4.583   5.189   3.118 -2.5490 -0.5655 -2.0061
 6759SOL    HW326769   4.696   5.263   3.050  2.2562 -3.1058  2.5303
 6759SOL    MW426770   4.620   5.221   3.045 -0.5214 -0.3128  0.0558
 6760SOL     OW26771   4.939   2.477   4.095  0.0914 -0.3586 -0.1471
 6760SOL    HW226772   4.958   2.386   4.075 -1.9875 -0.8423 -0.2330
 6760SOL    HW326773   4.946   2.483   4.191 -0.2167 -0.7356 -0.0984
 6760SOL    MW426774   4.942   2.466   4.105  0.6109 -0.4895  0.2011
 6761SOL     OW26775   0.043   1.273   5.372  1.0632 -0.1158  0.7145
 6761SOL    HW226776   0.021   1.300   5.283 -1.1371 -0.5226  1.0718
 6761SOL    HW326777   0.111   1.206   5.361 -1.2960 -2.4766 -0.9667
 6761SOL    MW426778   0.049   1.268   5.359 -0.0507  0.5608  0.3186
 6762SOL     OW26779   5.084   3.802   4.000  0.0086 -0.3801  0.7039
 6762SOL    HW226780   5.160   3.775   4.052  0.7310 -1.2562 -0.7096
 6762SOL    HW326781   5.009   3.782   4.055  0.7605 -0.5853  1.6969
 6762SOL    MW426782   5.084   3.796   4.014  0.0542 -0.2936 -0.1529
 6763SOL     OW26783   6.128   2.934   0.040 -0.7010 -0.2667  0.2768
 6763SOL    HW226784   6.107   2.858  -0.014 -0.0681  0.0898 -0.4959
 6763SOL    HW326785   6.129   2.900   0.129  0.0263 -1.2773 -0.0961
 6763SOL    MW426786   6.125   2.920   0.044 -0.2962 -0.2055 -0.0694
 6764SOL     OW26787   0.455   2.167   0.275 -0.0094  0.1085  0.1021
 6764SOL    HW226788   0.531   2.135   0.226  0.5265  2.3497 -0.6142
 6764SOL    HW326789   0.385   2.170   0.210  0.7282  3.1838 -0.7180
 6764SOL    MW426790   0.456   2.163   0.260 -0.3692 -0.0857  0.0294
 6765SOL     OW26791   0.411   1.747   1.781  0.8047  0.7505  0.1971
 6765SOL    HW226792   0.324   1.745   1.743  0.6123  0.0789  0.6577
 6765SOL    HW326793   0.408   1.817   1.847  0.7142  0.9488 -0.0188
 6765SOL    MW426794   0.399   1.756   1.785  0.3825 -0.7076 -0.2347
 6766SOL     OW26795   1.529   2.094   2.335 -0.2867  0.0408 -0.3723
 6766SOL    HW226796   1.556   2.123   2.248 -0.5858  2.6553  0.3259
 6766SOL    HW326797   1.598   2.034   2.364  0.3737  0.0079 -1.9312
 6766SOL    MW426798   1.541   2.090   2.327 -0.0611  0.4468 -0.1255
 6767SOL     OW26799   4.424   1.003   5.417  0.3040  0.3810  0.3464
 6767SOL    HW226800   4.394   1.018   5.327 -0.9999 -0.6350  0.5714
 6767SOL    HW326801   4.384   0.919   5.442  1.6130  0.0582  1.4708
 6767SOL    MW426802   4.415   0.994   5.408  0.6814 -0.2217 -0.0635
 6768SOL     OW26803   5.402   1.841   5.083 -0.7342 -0.1882  0.6962
 6768SOL    HW226804   5.378   1.751   5.062  0.2804 -0.3500  0.1729
 6768SOL    HW326805   5.471   1.863   5.021 -0.1858  0.5722  1.5392
 6768SOL    MW426806   5.408   1.832   5.072 -0.2699  0.0761  0.7771
 6769SOL     OW26807   1.116   5.236   4.607 -0.2211  0.1617 -0.5446
 6769SOL    HW226808   1.117   5.159   4.550  3.4663  0.1163 -0.6581
 6769SOL    HW326809   1.059   5.298   4.562 -0.1176 -1.0913 -2.5257
 6769SOL    MW426810   1.109   5.234   4.593  0.5354 -0.6450 -0.2137
 6770SOL     OW26811   3.848   1.702   2.397 -0.3393 -0.0956 -0.4459
 6770SOL    HW226812   3.775   1.682   2.456  2.7149 -3.5875  2.7343
 6770SOL    HW326813   3.886   1.616   2.376  1.6076  1.3918 -3.7226
 6770SOL    MW426814   3.844   1.688   2.402  0.4110  0.0021  0.6044
 6771SOL     OW26815   0.072   0.062   2.633 -0.2701 -0.6356 -0.4045
 6771SOL    HW226816   0.131   0.104   2.570  1.0486 -1.6789  0.0635
 6771SOL    HW326817   0.010   0.131   2.658  1.3746  0.8432 -0.1765
 6771SOL    MW426818   0.072   0.077   2.628  0.2862 -0.4555 -0.2380
 6772SOL     OW26819   4.603   0.798   6.304  0.1513 -0.0662 -0.4902
 6772SOL    HW226820   4.529   0.837   6.256  0.1561  0.8801  0.2397
 6772SOL    HW326821   4.597   0.705   6.284  0.6453  0.3629 -3.0047
 6772SOL    MW426822   4.592   0.791   6.295 -0.6309 -0.1175  0.0483
 6773SOL     OW26823   6.118   0.796   6.224  0.2506 -0.1960 -0.0577
 6773SOL    HW226824   6.145   0.708   6.250  0.6754 -0.3027 -0.8294
 6773SOL    HW326825   6.023   0.796   6.236  0.5756  0.4252  3.4048
 6773SOL    MW426826   6.109   0.784   6.229 -0.6513  0.3283  0.0546
 6774SOL     OW26827   3.182   3.269   3.462 -0.2240  0.2019 -0.1930
 6774SOL    HW226828   3.117   3.262   3.532 -1.2279 -0.1832 -1.1249
 6774SOL    HW326829   3.137   3.233   3.385  0.7371  0.9097 -1.1033
 6774SOL    MW426830   3.167   3.263   3.461 -0.0009 -0.6374  0.0449
 6775SOL     OW26831   5.483   2.993   1.575 -0.0255 -0.1899 -0.0289
 6775SOL    HW226832   5.394   2.992   1.540 -0.1052  0.4916  0.1394
 6775SOL    HW326833   5.490   3.077   1.620  0.6883 -0.2594 -0.0010
 6775SOL    MW426834   5.472   3.004   1.576 -0.8125  0.0052 -0.0584
 6776SOL     OW26835   3.891   5.450   3.769  0.2293  0.0903 -0.1610
 6776SOL    HW226836   3.909   5.360   3.794  0.2676  0.1320 -0.0409
 6776SOL    HW326837   3.971   5.479   3.724  0.8243  0.5697  1.1593
 6776SOL    MW426838   3.904   5.442   3.766  0.2756 -0.1082  0.2878
 6777SOL     OW26839   6.002   1.899   4.147 -0.5206 -0.3490 -0.5046
 6777SOL    HW226840   6.016   1.832   4.215  0.0782 -0.7386 -0.9977
 6777SOL    HW326841   5.910   1.924   4.156 -0.3464 -0.1040  0.7122
 6777SOL    MW426842   5.992   1.893   4.157  0.1708 -0.4373  0.6715
 6778SOL     OW26843   6.013   0.357   4.553 -0.2303  0.2977  0.4534
 6778SOL    HW226844   5.925   0.371   4.588 -0.4248  4.3447 -1.1134
 6778SOL    HW326845   6.066   0.333   4.630 -2.7008 -3.3050  1.2878
 6778SOL    MW426846   6.009   0.356   4.568  0.0611 -0.1133  0.3530
 6779SOL     OW26847   5.052   5.603   3.622  0.4227 -0.1709 -0.5060
 6779SOL    HW226848   5.045   5.565   3.710  1.1347 -0.3706 -0.5285
 6779SOL    HW326849   5.039   5.697   3.636  2.1119  0.0161  0.0667
 6779SOL    MW426850   5.049   5.610   3.635  0.0376 -0.1101  0.3492
 6780SOL     OW26851   5.867   4.374   1.063 -0.8372 -0.6250  0.1202
 6780SOL    HW226852   5.905   4.413   1.142 -0.3219 -0.1251 -0.3584
 6780SOL    HW326853   5.779   4.348   1.089 -0.4679 -1.0202  1.0242
 6780SOL    MW426854   5.861   4.376   1.077 -0.0138  0.3015 -0.2702
 6781SOL     OW26855   5.647   4.220   4.799  0.0355 -0.3160 -0.2083
 6781SOL    HW226856   5.589   4.180   4.863  1.2114 -0.7340  0.6314
 6781SOL    HW326857   5.600   4.211   4.716 -0.9562 -0.9144  0.3901
 6781SOL    MW426858   5.633   4.213   4.796  0.3248  0.1127  0.1730
 6782SOL     OW26859   5.704   2.064   2.751  0.2732  0.5750 -0.4303
 6782SOL    HW226860   5.651   2.143   2.748 -1.6357 -0.6604 -2.6516
 6782SOL    HW326861   5.783   2.086   2.701  0.4213  1.4672  0.1778
 6782SOL    MW426862   5.708   2.077   2.744  0.3179 -0.6922 -0.6251
 6783SOL     OW26863   3.153   5.372   3.698  0.2726 -0.1770  0.0026
 6783SOL    HW226864   3.179   5.438   3.762 -1.1363 -0.9060  1.3985
 6783SOL    HW326865   3.114   5.422   3.626  0.5538  0.5717  0.3668
 6783SOL    MW426866   3.151   5.387   3.697 -0.7827 -0.5292 -0.0097
 6784SOL     OW26867   1.193   0.224   3.848  0.1440 -0.1231  0.0932
 6784SOL    HW226868   1.243   0.217   3.767  0.9449 -0.4406  0.5949
 6784SOL    HW326869   1.243   0.171   3.911  0.2751  1.1810  1.1286
 6784SOL    MW426870   1.206   0.216   3.846  0.1193 -0.2368 -0.2216
 6785SOL     OW26871   1.456   5.796   6.396 -0.0415 -0.4144  0.2258
 6785SOL    HW226872   1.368   5.781   6.430  0.1444  0.8369  1.3896
 6785SOL    HW326873   1.508   5.815   6.474  1.4401 -1.7938 -0.3587
 6785SOL    MW426874   1.452   5.797   6.411 -0.4754  0.2631 -0.8048
 6786SOL     OW26875   1.928   3.957   5.926  0.0961 -0.8137 -0.5314
 6786SOL    HW226876   1.984   3.885   5.897 -1.0097 -2.1922  0.6085
 6786SOL    HW326877   1.977   4.036   5.904  1.7825 -1.9318 -0.9638
 6786SOL    MW426878   1.942   3.958   5.920 -0.1138  0.0441 -0.2065
 6787SOL     OW26879   3.920   5.049   5.695 -0.3674  0.1175 -0.4369
 6787SOL    HW226880   3.860   5.044   5.769  1.1339  0.4256  0.8588
 6787SOL    HW326881   3.905   5.136   5.658 -2.2006 -0.5964 -1.5029
 6787SOL    MW426882   3.910   5.059   5.700 -0.6138  0.1971  0.5666
 6788SOL     OW26883   5.126   3.525   2.153  0.1529 -0.0763 -0.7664
 6788SOL    HW226884   5.142   3.610   2.193  1.0434 -0.9354  0.7664
 6788SOL    HW326885   5.052   3.488   2.202 -0.5765  0.0134 -1.7669
 6788SOL    MW426886   5.118   3.531   2.164  0.9177 -0.2740  0.2511
 6789SOL     OW26887   0.388   1.911   3.087  0.1022  0.2514 -0.1160
 6789SOL    HW226888   0.416   1.882   3.174 -0.7060 -0.1589  0.0246
 6789SOL    HW326889   0.332   1.840   3.056  0.5334  0.3076 -1.0578
 6789SOL    MW426890   0.384   1.898   3.094 -0.6301 -0.3697 -0.1343
 6790SOL     OW26891   5.085   0.657   3.484 -0.2774  0.4383 -0.2321
 6790SOL    HW226892   5.122   0.576   3.518  0.1425  0.2765 -1.0415
 6790SOL    HW326893   5.161   0.707   3.453 -0.2762  2.1083  2.1564
 6790SOL    MW426894   5.100   0.653   3.484  0.4018  0.5269  0.6026
 6791SOL     OW26895   3.084   3.500   5.939  0.0829  0.6058 -0.9454
 6791SOL    HW226896   3.021   3.572   5.947 -0.0047  0.3649  0.7937
 6791SOL    HW326897   3.091   3.486   5.845 -1.1190  1.8166 -1.2557
 6791SOL    MW426898   3.077   3.508   5.928  0.3647 -0.0599  0.0634
 6792SOL     OW26899   4.595   0.856   4.078 -0.0277  0.1222  0.4392
 6792SOL    HW226900   4.634   0.902   4.003  0.2167  0.7877  0.9621
 6792SOL    HW326901   4.613   0.913   4.153 -2.1994  0.5883  0.6823
 6792SOL    MW426902   4.602   0.870   4.078  0.2358 -0.0638 -0.1649
 6793SOL     OW26903   1.369   1.686   2.275 -1.0534  0.0487  0.0584
 6793SOL    HW226904   1.410   1.744   2.212 -0.7807 -0.0035  0.1848
 6793SOL    HW326905   1.416   1.603   2.265 -2.0724 -0.4541 -0.8010
 6793SOL    MW426906   1.381   1.683   2.265  0.2295  0.0487  0.8591
 6794SOL     OW26907   3.110   2.078   5.915 -0.0054 -0.0648 -0.2939
 6794SOL    HW226908   3.059   2.018   5.861 -1.7999  0.8381  0.3091
 6794SOL    HW326909   3.146   2.142   5.853 -1.7329  0.7497 -0.5137
 6794SOL    MW426910   3.108   2.078   5.900 -0.1384  0.1353 -0.0724
 6795SOL     OW26911   0.833   1.236   0.356  0.4218  0.1115 -0.1441
 6795SOL    HW226912   0.759   1.253   0.414 -0.2996 -0.7880 -0.7804
 6795SOL    HW326913   0.805   1.163   0.301  0.9147  1.2121 -1.9444
 6795SOL    MW426914   0.820   1.228   0.357 -0.8509  0.3706 -0.0922
 6796SOL     OW26915   1.503   3.067   6.162 -0.5863 -0.2834 -0.1367
 6796SOL    HW226916   1.590   3.028   6.169 -0.7569 -0.5605  0.4851
 6796SOL    HW326917   1.443   2.992   6.167 -0.8630 -0.0940 -0.5375
 6796SOL    MW426918   1.506   3.052   6.163 -0.2528 -0.0920 -0.5679
 6797SOL     OW26919   0.150   0.136   5.170  0.0407  0.0031  0.3328
 6797SOL    HW226920   0.101   0.150   5.089  0.8253 -1.8594 -0.5091
 6797SOL    HW326921   0.198   0.218   5.183 -2.3906  1.4695  0.6141
 6797SOL    MW426922   0.150   0.149   5.161  0.6079  0.0735  0.0264
 6798SOL     OW26923   2.027   2.680   3.945 -0.1749  0.1274 -0.5106
 6798SOL    HW226924   1.999   2.594   3.974 -2.2838  0.7179 -0.6071
 6798SOL    HW326925   1.953   2.738   3.967  0.2472  1.4891 -2.4402
 6798SOL    MW426926   2.014   2.676   3.952 -0.3082 -0.1456  0.4391
 6799SOL     OW26927   0.833   3.452   1.835 -0.5337 -0.1535  0.5502
 6799SOL    HW226928   0.835   3.442   1.740  0.1350  2.4887  0.1986
 6799SOL    HW326929   0.739   3.457   1.856 -0.7340 -2.0276  0.2514
 6799SOL    MW426930   0.821   3.451   1.825 -0.4759 -0.0564  0.0556
 6800SOL     OW26931   4.000   3.603   1.863  0.1221 -0.3079 -0.2728
 6800SOL    HW226932   3.965   3.564   1.943 -0.0462  0.7024  0.1566
 6800SOL    HW326933   3.922   3.631   1.814  0.2242 -0.9090 -0.7937
 6800SOL    MW426934   3.985   3.601   1.867  0.0007  0.1237 -0.0233
 6801SOL     OW26935   6.369   6.218   3.130 -0.2924  0.7259 -0.3537
 6801SOL    HW226936   6.347   6.249   3.218  0.9691 -0.0594  0.2725
 6801SOL    HW326937   6.460   6.246   3.117 -0.3833  0.6091 -1.3089
 6801SOL    MW426938   6.378   6.226   3.140  0.0210 -0.3935  0.1799
 6802SOL     OW26939   1.492   4.843   0.824  0.6646  0.8101  0.3686
 6802SOL    HW226940   1.409   4.818   0.863  0.5317  0.5715 -0.0595
 6802SOL    HW326941   1.525   4.914   0.879 -0.6811  2.1525 -0.4701
 6802SOL    MW426942   1.486   4.849   0.836  0.3561  0.0834  0.0060
 6803SOL     OW26943   5.961   2.304   1.898 -0.5771 -0.0258  0.4830
 6803SOL    HW226944   5.941   2.244   1.970 -3.1995  1.8283  1.4746
 6803SOL    HW326945   6.045   2.343   1.922 -0.3221 -1.0692  1.3779
 6803SOL    MW426946   5.969   2.302   1.911 -0.3143  0.1229  0.3260
 6804SOL     OW26947   1.976   3.898   4.343 -0.5406  0.3948 -0.1805
 6804SOL    HW226948   2.042   3.966   4.348  0.6071 -0.7394  0.8718
 6804SOL    HW326949   1.959   3.874   4.434  0.4663 -1.9878 -0.5461
 6804SOL    MW426950   1.982   3.904   4.356 -0.3873 -0.2713  0.5369
 6805SOL     OW26951   5.315   5.614   3.576 -0.2220 -0.3188 -0.0686
 6805SOL    HW226952   5.228   5.596   3.609  0.2075 -0.4700  1.0079
 6805SOL    HW326953   5.331   5.546   3.511 -0.8055 -0.4285 -0.1017
 6805SOL    MW426954   5.306   5.603   3.571  0.2238 -0.2305  0.0718
 6806SOL     OW26955   4.707   5.486   1.138 -0.0786 -0.0187 -0.6384
 6806SOL    HW226956   4.624   5.511   1.098 -1.2777 -0.3461  1.5065
 6806SOL    HW326957   4.723   5.397   1.107 -1.1834 -0.4111 -0.1037
 6806SOL    MW426958   4.698   5.477   1.129 -0.1646  0.1402 -0.1003
 6807SOL     OW26959   1.892   6.301   0.368 -0.2977  0.2302 -0.4335
 6807SOL    HW226960   1.930   6.385   0.391  0.4641  0.0312 -0.9237
 6807SOL    HW326961   1.874   6.307   0.274 -0.3091 -0.1186 -0.4569
 6807SOL    MW426962   1.895   6.313   0.359 -0.1210 -0.3251 -0.2472
 6808SOL     OW26963   3.550   5.927   5.513 -0.0647  0.2474  0.4161
 6808SOL    HW226964   3.608   6.003   5.501  1.1602 -0.5477  1.0761
 6808SOL    HW326965   3.606   5.851   5.495 -0.4607 -0.6261  2.5795
 6808SOL    MW426966   3.565   5.927   5.509  0.6655 -0.1096 -0.1779
 6809SOL     OW26967   1.037   3.691   5.035 -0.3487 -0.2164  0.0853
 6809SOL    HW226968   1.035   3.724   4.946  0.7096  0.6312  0.3417
 6809SOL    HW326969   1.005   3.601   5.029  0.8582 -0.5958 -1.3523
 6809SOL    MW426970   1.033   3.683   5.023 -0.4780 -0.4670 -0.5271
 6810SOL     OW26971   2.554   1.960   2.238  0.2053 -0.1397  0.2580
 6810SOL    HW226972   2.588   1.940   2.150  0.4765 -1.8252  0.7183
 6810SOL    HW326973   2.468   1.920   2.241 -0.1740  0.6637  0.4864
 6810SOL    MW426974   2.547   1.952   2.227  0.1850 -0.2504 -0.4981
 6811SOL     OW26975   3.426   0.923   6.031 -0.0562  0.1342 -0.6076
 6811SOL    HW226976   3.351   0.868   6.051  0.3441 -0.8965 -1.7617
 6811SOL    HW326977   3.457   0.890   5.946  1.4547  0.7752 -0.3353
 6811SOL    MW426978   3.421   0.911   6.022 -0.0308 -0.4855  0.3991
 6812SOL     OW26979   0.076   4.884   2.075  0.2093  0.5187 -0.5307
 6812SOL    HW226980   0.084   4.959   2.134  2.5024  0.5104 -0.7196
 6812SOL    HW326981   0.090   4.808   2.132 -0.6612  0.3041 -0.5907
 6812SOL    MW426982   0.079   4.884   2.091  0.4305  0.4889 -0.1864
 6813SOL     OW26983   0.146   4.481   6.037 -0.0448 -0.2749  0.3777
 6813SOL    HW226984   0.201   4.532   5.977  0.8429  0.4859  1.7803
 6813SOL    HW326985   0.095   4.547   6.085 -0.1540 -0.8119  1.0187
 6813SOL    MW426986   0.146   4.496   6.035 -0.2286 -0.1718  0.3688
 6814SOL     OW26987   0.702   5.790   2.265  0.5193  0.7058  0.2020
 6814SOL    HW226988   0.641   5.863   2.268 -0.2534  0.0963 -0.3366
 6814SOL    HW326989   0.655   5.718   2.310  0.4823 -0.0139 -0.9564
 6814SOL    MW426990   0.688   5.790   2.272 -0.8442  0.6204  0.0297
 6815SOL     OW26991   5.243   6.351   2.669 -0.0008 -0.2815 -0.3062
 6815SOL    HW226992   5.221   6.258   2.664  0.1777 -0.2425 -3.0731
 6815SOL    HW326993   5.160   6.395   2.652 -0.3025  0.1636  1.9756
 6815SOL    MW426994   5.229   6.344   2.666 -0.2751 -0.8708 -0.0472
 6816SOL     OW26995   1.082   2.033   2.817  0.1473 -0.4580  0.2809
 6816SOL    HW226996   1.140   2.051   2.892 -0.3677 -0.1682  0.6116
 6816SOL    HW326997   1.067   2.118   2.777 -0.8283 -0.3962  0.7685
 6816SOL    MW426998   1.088   2.046   2.822 -0.3774 -0.1905 -0.3846
 6817SOL     OW26999   0.562   1.217   5.373 -0.3738  0.0800 -0.2088
 6817SOL    HW227000   0.502   1.220   5.447 -0.8732  1.2131 -0.6464
 6817SOL    HW327001   0.516   1.163   5.308 -0.1776 -0.4494  0.0856
 6817SOL    MW427002   0.548   1.210   5.374  0.1981  0.3607 -0.0059
 6818SOL     OW27003   5.985   4.278   0.364 -0.3621 -0.0475  0.3206
 6818SOL    HW227004   5.953   4.217   0.298 -1.7180 -1.2775  1.9998
 6818SOL    HW327005   6.079   4.288   0.345  0.0226 -3.0267  0.1943
 6818SOL    MW427006   5.993   4.271   0.353  1.3317 -0.4054  0.3586
 6819SOL     OW27007   4.190   2.112   2.254  0.5071 -0.3414 -0.5661
 6819SOL    HW227008   4.158   2.039   2.201 -1.8666  0.0275  0.2695
 6819SOL    HW327009   4.270   2.140   2.209 -0.5187 -1.0593 -3.0266
 6819SOL    MW427010   4.196   2.106   2.241 -0.2020 -0.0247 -0.0454
 6820SOL     OW27011   2.324   2.160   3.010 -0.0328  0.2534 -0.1779
 6820SOL    HW227012   2.258   2.218   3.049  0.1199 -0.1070  0.6272
 6820SOL    HW327013   2.353   2.104   3.082 -1.2477 -1.8621 -1.2543
 6820SOL    MW427014   2.319   2.161   3.024 -0.5651 -0.2429 -0.5647
 6821SOL     OW27015   1.125   3.470   5.764  0.1021 -0.0750  0.1186
 6821SOL    HW227016   1.164   3.473   5.851  0.4924  0.6803 -0.0796
 6821SOL    HW327017   1.032   3.453   5.780  0.1079  0.4154  0.6963
 6821SOL    MW427018   1.117   3.468   5.777  0.0129 -0.2789 -0.0872
 6822SOL     OW27019   3.522   1.005   3.696 -0.6272 -0.0460  0.1873
 6822SOL    HW227020   3.560   1.090   3.719 -0.5266 -0.0794  0.1437
 6822SOL    HW327021   3.431   1.025   3.672 -0.4602  0.1184 -0.3143
 6822SOL    MW427022   3.515   1.019   3.696 -0.8166  0.2059 -0.0042
 6823SOL     OW27023   4.893   0.295   5.044 -0.7234 -0.5075  0.0558
 6823SOL    HW227024   4.838   0.315   4.968 -0.6691  0.7636  0.3276
 6823SOL    HW327025   4.889   0.374   5.098 -0.1563 -1.1103  1.0167
 6823SOL    MW427026   4.885   0.308   5.041  0.1054  0.0400  0.0756
 6824SOL     OW27027   2.713   4.255   1.218 -0.4098  0.0229 -0.0899
 6824SOL    HW227028   2.688   4.174   1.172  0.6115 -0.0072 -0.6224
 6824SOL    HW327029   2.741   4.314   1.149  1.7790 -0.2402  0.4789
 6824SOL    MW427030   2.714   4.252   1.203 -0.0228  0.1486 -0.2245
 6825SOL     OW27031   4.054   1.626   1.703  0.0894 -0.5015 -0.5989
 6825SOL    HW227032   3.996   1.669   1.767 -0.6827 -0.0366 -1.5739
 6825SOL    HW327033   4.071   1.540   1.740  2.1231  0.7612  1.6945
 6825SOL    MW427034   4.048   1.620   1.716  0.1642 -0.5375 -0.2364
 6826SOL     OW27035   0.571   0.678   1.203 -1.0536 -0.3053  0.8941
 6826SOL    HW227036   0.540   0.688   1.113  1.0959 -0.0443  0.1187
 6826SOL    HW327037   0.666   0.682   1.196 -0.8442  0.4064  3.2766
 6826SOL    MW427038   0.579   0.680   1.190  0.1808  0.0468  0.2411
 6827SOL     OW27039   3.603   4.360   1.104 -0.1643 -0.1176 -0.2168
 6827SOL    HW227040   3.535   4.382   1.039  1.2779  1.0002 -1.4146
 6827SOL    HW327041   3.607   4.437   1.161  1.4954  0.7482 -1.4288
 6827SOL    MW427042   3.594   4.373   1.103  0.4842 -0.5240  0.2978
 6828SOL     OW27043   6.010   3.696   2.142  0.3525  0.3776  0.1043
 6828SOL    HW227044   6.020   3.605   2.169  1.9197  0.3642 -0.4012
 6828SOL    HW327045   5.945   3.694   2.072  1.8622 -0.6849 -1.3538
 6828SOL    MW427046   6.003   3.684   2.137  0.3578  0.0228  0.0453
 6829SOL     OW27047   2.124   0.626   0.889 -0.2862 -0.1680 -0.2009
 6829SOL    HW227048   2.032   0.601   0.896 -0.1322 -0.3171  1.8164
 6829SOL    HW327049   2.123   0.722   0.891 -0.4111 -0.1536 -0.7049
 6829SOL    MW427050   2.112   0.636   0.890  0.4273 -0.1392 -0.1434
 6830SOL     OW27051   0.596   6.017   4.206 -0.5450  0.0634 -0.2564
 6830SOL    HW227052   0.679   6.060   4.228  1.1980 -3.2982  0.4784
 6830SOL    HW327053   0.535   6.048   4.273  1.1882 -0.1101  1.5128
 6830SOL    MW427054   0.599   6.027   4.218 -0.1519 -0.8141 -0.2050
 6831SOL     OW27055   5.483   0.293   4.395  0.1279  0.3551  0.7522
 6831SOL    HW227056   5.391   0.293   4.419 -0.0788 -1.0568  0.0637
 6831SOL    HW327057   5.485   0.327   4.305  0.3838  1.2364  1.0852
 6831SOL    MW427058   5.471   0.297   4.386  0.4317  0.1668 -0.1573
 6832SOL     OW27059   0.708   0.512   2.328  0.2288 -0.4455  0.6305
 6832SOL    HW227060   0.680   0.563   2.404 -0.4236 -3.2127  2.4169
 6832SOL    HW327061   0.803   0.512   2.333  0.2953  1.4930 -0.0917
 6832SOL    MW427062   0.717   0.519   2.339 -0.7483  1.2389 -1.3639
 6833SOL     OW27063   2.959   5.754   3.218 -0.0603  0.2262  0.0366
 6833SOL    HW227064   3.034   5.793   3.262  0.1157 -0.0082 -0.0550
 6833SOL    HW327065   2.883   5.793   3.261  0.1066 -0.1713  0.7008
 6833SOL    MW427066   2.959   5.764   3.229 -0.7712  0.0176  0.2732
 6834SOL     OW27067   1.737   0.611   4.961 -0.4583  0.0625  0.4207
 6834SOL    HW227068   1.689   0.536   4.925  1.5424 -1.6918  1.1719
 6834SOL    HW327069   1.751   0.589   5.053  2.1032  0.2475  0.1451
 6834SOL    MW427070   1.732   0.598   4.968  0.4767 -0.8231 -0.1272
 6835SOL     OW27071   3.214   4.864   1.259  0.2510 -0.0505 -0.0070
 6835SOL    HW227072   3.205   4.918   1.337  1.3496  1.3792 -0.8168
 6835SOL    HW327073   3.170   4.782   1.281  0.4691  0.3381  2.0629
 6835SOL    MW427074   3.207   4.860   1.272 -0.0421  0.5939 -0.2685
 6836SOL     OW27075   3.404   6.182   4.403 -0.2620  0.4681  1.2448
 6836SOL    HW227076   3.414   6.223   4.489  1.1659  1.8126  0.4886
 6836SOL    HW327077   3.366   6.096   4.422 -0.2077  0.8218  3.1849
 6836SOL    MW427078   3.400   6.176   4.417  0.3355  1.0002  0.3573
 6837SOL     OW27079   0.875   4.681   4.897 -0.0545  0.2403  0.5346
 6837SOL    HW227080   0.798   4.662   4.952 -0.1687 -0.9776 -0.0246
 6837SOL    HW327081   0.895   4.773   4.917 -1.7196  0.6297  0.6196
 6837SOL    MW427082   0.867   4.691   4.907 -0.2465  0.0353  0.5744
 6838SOL     OW27083   4.834   6.439   3.490  0.9540 -0.5536  0.2597
 6838SOL    HW227084   4.855   6.506   3.425 -1.3728  0.9772  0.9667
 6838SOL    HW327085   4.762   6.389   3.451  0.7861 -0.8145  0.8902
 6838SOL    MW427086   4.827   6.441   3.476  0.2846  0.5127  0.2394
 6839SOL     OW27087   6.340   0.633   4.809  0.2805 -0.0412 -0.2900
 6839SOL    HW227088   6.350   0.551   4.761  1.5436 -0.6132  0.8898
 6839SOL    HW327089   6.356   0.701   4.743 -2.6583 -0.5692 -1.7685
 6839SOL    MW427090   6.343   0.631   4.794 -0.3023 -0.5103  0.0363
 6840SOL     OW27091   3.839   4.454   0.613 -0.1185  0.2127  0.5563
 6840SOL    HW227092   3.916   4.469   0.669 -0.0666  2.1225  0.0457
 6840SOL    HW327093   3.765   4.484   0.666 -0.5590 -1.6026  1.0364
 6840SOL    MW427094   3.840   4.460   0.628 -0.2127  0.0465 -0.5011
 6841SOL     OW27095   4.953   3.485   4.369 -0.0790 -0.1082  0.1883
 6841SOL    HW227096   5.036   3.518   4.334 -0.1905 -0.4365 -0.3970
 6841SOL    HW327097   4.978   3.405   4.415 -0.0755 -0.2391 -0.0383
 6841SOL    MW427098   4.968   3.479   4.370  0.5276 -0.2582  0.0668
 6842SOL     OW27099   4.892   1.169   5.406  0.3822 -0.6334  0.0643
 6842SOL    HW227100   4.955   1.209   5.467 -1.7165  1.4885  0.9544
 6842SOL    HW327101   4.826   1.129   5.463  0.8997 -2.9632 -0.8519
 6842SOL    MW427102   4.892   1.169   5.422  0.5346 -0.3036 -1.1787
 6843SOL     OW27103   5.901   2.682   2.828  0.6608  0.2493  0.0268
 6843SOL    HW227104   5.824   2.736   2.811  0.4958  0.5481  1.5586
 6843SOL    HW327105   5.906   2.623   2.753  0.1907  1.6238 -1.1402
 6843SOL    MW427106   5.891   2.682   2.816 -0.1422  0.1865 -0.4391
 6844SOL     OW27107   3.290   2.086   2.116  0.7439 -0.4013 -0.8096
 6844SOL    HW227108   3.369   2.058   2.162  1.6932 -0.4818 -2.4439
 6844SOL    HW327109   3.276   2.176   2.146  0.8729 -0.7181  0.2375
 6844SOL    MW427110   3.298   2.094   2.126  0.8542 -0.4648 -0.4681
 6845SOL     OW27111   4.374   2.360   1.084  0.2415 -0.0650  0.1213
 6845SOL    HW227112   4.348   2.320   1.001  1.6716 -0.5591 -0.1295
 6845SOL    HW327113   4.378   2.287   1.145  1.7654 -0.1809 -0.0613
 6845SOL    MW427114   4.371   2.345   1.081  0.2916  0.2106 -1.2695
 6846SOL     OW27115   0.551   1.396   4.205 -0.6285  0.0835 -0.4281
 6846SOL    HW227116   0.618   1.463   4.220 -0.7306 -0.0020  0.4938
 6846SOL    HW327117   0.556   1.341   4.283 -0.9571 -0.6280 -0.9081
 6846SOL    MW427118   0.561   1.398   4.217  0.4522 -0.5064 -0.4897
 6847SOL     OW27119   1.922   1.585   4.455  0.0921 -0.1081  0.0321
 6847SOL    HW227120   1.857   1.630   4.401 -0.3645  0.1344  0.7673
 6847SOL    HW327121   1.961   1.520   4.397  0.7461  1.1918 -1.0483
 6847SOL    MW427122   1.919   1.583   4.440 -0.2047  0.2521  0.3266
 6848SOL     OW27123   2.371   5.896   0.268 -0.6422 -0.0741 -0.0391
 6848SOL    HW227124   2.296   5.953   0.254 -1.0872 -0.8502 -0.8633
 6848SOL    HW327125   2.430   5.915   0.195 -0.6263 -0.4091 -0.1129
 6848SOL    MW427126   2.369   5.906   0.257 -0.1368 -0.1979 -0.4490
 6849SOL     OW27127   1.403   1.614   0.258 -0.6719  0.0960  0.1094
 6849SOL    HW227128   1.326   1.668   0.277  0.7405  1.5697  2.0774
 6849SOL    HW327129   1.477   1.673   0.273  0.8804 -1.3622 -1.4142
 6849SOL    MW427130   1.402   1.629   0.262 -0.3883 -0.1040 -0.1025
 6850SOL     OW27131   5.900   5.031   1.836 -0.5342 -0.0823  0.3222
 6850SOL    HW227132   5.930   5.017   1.925 -1.8127 -1.5846  0.5616
 6850SOL    HW327133   5.808   5.006   1.837 -0.4749 -0.5413 -1.5078
 6850SOL    MW427134   5.892   5.026   1.848 -0.1416  0.4333 -0.3598
 6851SOL     OW27135   2.669   2.828   4.227 -0.1249  1.0154  0.1094
 6851SOL    HW227136   2.579   2.804   4.205  0.0321  1.9179 -1.6766
 6851SOL    HW327137   2.723   2.783   4.161  0.6033  1.7521  0.1852
 6851SOL    MW427138   2.665   2.819   4.215 -0.6461 -0.3939  0.1033
 6852SOL     OW27139   4.618   1.343   4.556  0.2935 -0.3309  0.1719
 6852SOL    HW227140   4.566   1.353   4.636  0.0575  0.0887 -0.0336
 6852SOL    HW327141   4.705   1.318   4.588  0.8557  2.0777  0.7312
 6852SOL    MW427142   4.623   1.341   4.571 -0.1333  0.5256  0.2613
 6853SOL     OW27143   3.886   5.705   3.478  0.8717 -0.3458  0.0945
 6853SOL    HW227144   3.929   5.790   3.490  1.1331 -0.3459 -0.8187
 6853SOL    HW327145   3.957   5.641   3.484  0.4055 -0.7540  3.2133
 6853SOL    MW427146   3.901   5.708   3.481 -0.2860 -0.1993  0.0117
 6854SOL     OW27147   1.729   4.981   4.508  0.3606  0.1994  0.1335
 6854SOL    HW227148   1.679   4.921   4.564 -0.3566  0.1006 -0.5871
 6854SOL    HW327149   1.739   4.934   4.426  0.8116  0.6142 -0.0517
 6854SOL    MW427150   1.723   4.967   4.505 -0.0670 -0.1827 -0.3563
 6855SOL     OW27151   4.197   4.420   5.350 -0.3517  0.0588 -0.0199
 6855SOL    HW227152   4.118   4.471   5.333  1.2388  3.1911  1.1855
 6855SOL    HW327153   4.241   4.414   5.266 -1.2373 -0.6563 -0.4513
 6855SOL    MW427154   4.193   4.426   5.337 -0.1891 -0.2438  0.5414
 6856SOL     OW27155   0.395   4.378   3.968  0.2857 -0.0946  0.0638
 6856SOL    HW227156   0.310   4.335   3.957 -0.7509  1.4976  1.3821
 6856SOL    HW327157   0.449   4.313   4.012 -0.8501 -0.4983  0.9168
 6856SOL    MW427158   0.391   4.364   3.972 -0.2546 -0.5700 -0.6633
 6857SOL     OW27159   4.538   3.544   2.772  0.2100  0.1646 -0.4298
 6857SOL    HW227160   4.500   3.606   2.711  0.3977  1.0249  0.3127
 6857SOL    HW327161   4.524   3.458   2.731 -1.4868  0.5479 -0.7161
 6857SOL    MW427162   4.531   3.541   2.759  0.0628 -0.2499  0.0518
 6858SOL     OW27163   1.788   5.272   0.292 -0.1727  0.0117 -0.4817
 6858SOL    HW227164   1.802   5.353   0.242  1.2904 -0.5361 -1.0056
 6858SOL    HW327165   1.771   5.206   0.225 -1.9736 -0.0329 -0.0248
 6858SOL    MW427166   1.788   5.274   0.276 -0.1511 -0.0694  0.5473
 6859SOL     OW27167   4.870   5.855   3.132 -0.0330  0.0422 -0.1538
 6859SOL    HW227168   4.956   5.894   3.117 -0.1812 -0.0923 -1.4754
 6859SOL    HW327169   4.867   5.840   3.226  0.9207  1.1282  0.0770
 6859SOL    MW427170   4.881   5.858   3.143  0.3067  0.4134  0.4069
 6860SOL     OW27171   0.248   1.772   3.452 -0.3718  0.3317 -0.0390
 6860SOL    HW227172   0.300   1.752   3.530 -0.1845 -0.7592 -0.4211
 6860SOL    HW327173   0.190   1.697   3.442  0.2591  0.0028 -1.4767
 6860SOL    MW427174   0.247   1.760   3.461  0.3007 -0.0092 -0.1660
 6861SOL     OW27175   2.513   3.208   2.080 -0.1744 -0.3837 -0.3676
 6861SOL    HW227176   2.572   3.263   2.132  0.7084 -1.0496 -0.6301
 6861SOL    HW327177   2.489   3.264   2.005 -1.1791  0.4532  0.5498
 6861SOL    MW427178   2.518   3.223   2.077 -0.4956  0.0490  0.0461
 6862SOL     OW27179   1.788   0.136   2.704 -0.1009 -0.0362 -0.1373
 6862SOL    HW227180   1.800   0.201   2.774 -0.1888 -0.4640  0.2819
 6862SOL    HW327181   1.693   0.134   2.689 -0.1805 -0.6354  0.4067
 6862SOL    MW427182   1.777   0.144   2.712 -0.4026  0.0731  0.6126
 6863SOL     OW27183   3.680   4.309   4.103  0.1034 -0.6007  0.3096
 6863SOL    HW227184   3.667   4.300   4.009  0.2187  1.7893  0.0153
 6863SOL    HW327185   3.591   4.305   4.140 -0.0421 -0.4727 -0.0224
 6863SOL    MW427186   3.666   4.307   4.095  0.4867  0.5719 -0.4068
 6864SOL     OW27187   1.171   1.147   6.177 -0.4136  0.1761  0.3547
 6864SOL    HW227188   1.107   1.077   6.193  1.1753 -1.6653 -0.8915
 6864SOL    HW327189   1.137   1.193   6.100  0.3588 -1.6182 -1.1033
 6864SOL    MW427190   1.158   1.144   6.169  0.1535  0.0418 -0.4026
 6865SOL     OW27191   4.824   6.226   3.092  0.8205 -0.2977  0.0547
 6865SOL    HW227192   4.919   6.222   3.080  0.8257 -0.1291  0.0450
 6865SOL    HW327193   4.788   6.193   3.010  0.8735 -0.8025  0.2280
 6865SOL    MW427194   4.832   6.221   3.080  0.2327  0.5453  0.0275
 6866SOL     OW27195   3.843   4.527   2.955 -0.5702  0.6007  0.4387
 6866SOL    HW227196   3.774   4.559   3.012 -0.8749  1.0468 -0.1631
 6866SOL    HW327197   3.876   4.448   2.998  0.1372  1.6480  1.9264
 6866SOL    MW427198   3.838   4.521   2.968 -0.7439  0.4882  0.4280
 6867SOL     OW27199   3.188   3.967   2.057 -0.2665  0.3034  0.3763
 6867SOL    HW227200   3.159   3.883   2.093  2.6314 -0.5149  1.0608
 6867SOL    HW327201   3.161   3.964   1.965 -1.3122 -0.8177  0.6929
 6867SOL    MW427202   3.180   3.956   2.049 -0.4076 -0.4404 -0.1047
 6868SOL     OW27203   2.887   2.783   3.620 -0.1409 -0.1096  0.5893
 6868SOL    HW227204   2.934   2.855   3.579  0.9533 -0.1290  1.7279
 6868SOL    HW327205   2.798   2.789   3.585  0.4072  0.6274 -0.7625
 6868SOL    MW427206   2.882   2.793   3.610 -0.2962 -0.4884 -0.2407
 6869SOL     OW27207   0.977   5.499   5.999  0.0059  0.7071 -0.0612
 6869SOL    HW227208   1.003   5.590   5.986  1.1065  0.5474  0.8612
 6869SOL    HW327209   0.882   5.499   5.989  0.1017  1.7667 -1.0639
 6869SOL    MW427210   0.968   5.511   5.996  0.1686  0.5080 -0.8067
 6870SOL     OW27211   0.730   4.673   5.632  0.0308  0.4599 -0.3288
 6870SOL    HW227212   0.749   4.614   5.559  0.5637  0.1931  0.0199
 6870SOL    HW327213   0.791   4.646   5.701 -0.2900  0.8805  0.1223
 6870SOL    MW427214   0.741   4.662   5.632 -0.1179  0.7338 -0.0609
 6871SOL     OW27215   5.863   3.921   2.629  0.1035  0.5107  0.0889
 6871SOL    HW227216   5.806   3.997   2.645 -0.4591  0.0392  0.3706
 6871SOL    HW327217   5.920   3.918   2.706 -1.7752 -1.0142  1.5648
 6871SOL    MW427218   5.863   3.931   2.642 -0.0920 -0.1502 -0.2485
 6872SOL     OW27219   6.008   4.905   2.049 -0.6141  0.2856 -0.0815
 6872SOL    HW227220   6.089   4.912   1.999 -0.6488  1.8885  0.0211
 6872SOL    HW327221   5.960   4.833   2.008 -0.6470  1.5092 -2.4045
 6872SOL    MW427222   6.012   4.896   2.037  0.4098 -0.6227 -0.5908
 6873SOL     OW27223   1.895   0.877   5.579  0.1972 -0.3749 -0.4399
 6873SOL    HW227224   1.854   0.842   5.500  2.0263  0.8074 -1.9964
 6873SOL    HW327225   1.974   0.825   5.590  0.3965  0.0316  0.1012
 6873SOL    MW427226   1.900   0.866   5.570  0.7825  0.1248  0.1368
 6874SOL     OW27227   1.802   5.923   2.595 -0.1704 -0.3939 -0.0706
 6874SOL    HW227228   1.897   5.928   2.581 -0.0858 -1.8532 -0.1796
 6874SOL    HW327229   1.770   6.011   2.578  0.7493 -0.5695 -3.2410
 6874SOL    MW427230   1.810   5.935   2.591 -0.1133 -0.0685 -0.8903
 6875SOL     OW27231   1.048   1.791   1.486  0.2971  0.3494  0.2995
 6875SOL    HW227232   1.024   1.859   1.549  0.1887  0.5146  0.0813
 6875SOL    HW327233   1.057   1.837   1.403 -0.6565 -0.0399 -0.0372
 6875SOL    MW427234   1.046   1.806   1.483 -0.6138  0.0563  0.6903
 6876SOL     OW27235   0.661   6.332   3.773 -0.2063  0.0924 -0.4018
 6876SOL    HW227236   0.566   6.342   3.775 -0.0958  2.9120  3.6999
 6876SOL    HW327237   0.694   6.417   3.746  1.1096 -0.1563  0.3243
 6876SOL    MW427238   0.653   6.344   3.770  0.2882 -0.0727 -0.2303
 6877SOL     OW27239   0.486   3.269   0.973 -0.0960  0.2637  0.2721
 6877SOL    HW227240   0.511   3.179   0.952  3.1251  1.1078 -0.0883
 6877SOL    HW327241   0.462   3.308   0.888 -3.3867 -0.6466  0.6649
 6877SOL    MW427242   0.486   3.262   0.959 -0.0691  0.2988 -0.8441
 6878SOL     OW27243   2.135   5.915   1.311 -0.2156  0.9208 -0.1369
 6878SOL    HW227244   2.041   5.930   1.304 -0.2982  0.1117 -0.8419
 6878SOL    HW327245   2.158   5.947   1.399 -1.3220  0.1571  0.4450
 6878SOL    MW427246   2.126   5.921   1.322 -0.2527 -0.8619  0.0649
 6879SOL     OW27247   5.564   2.240   3.958  1.0474 -0.3752 -0.5237
 6879SOL    HW227248   5.507   2.312   3.932 -1.0254 -2.0577 -0.9775
 6879SOL    HW327249   5.601   2.208   3.875  1.6153 -0.1056 -0.3746
 6879SOL    MW427250   5.562   2.245   3.944 -0.0062 -0.5147  0.0640
 6880SOL     OW27251   2.741   0.918   1.508  0.1718  0.5456 -0.0976
 6880SOL    HW227252   2.817   0.861   1.501 -0.2205  0.0701 -0.5684
 6880SOL    HW327253   2.767   0.985   1.571  0.4374 -0.4843  0.9196
 6880SOL    MW427254   2.754   0.919   1.516  0.1603  0.0132  0.5631
 6881SOL     OW27255   4.562   2.690   4.321 -0.2771 -0.1255  0.1408
 6881SOL    HW227256   4.608   2.663   4.241 -0.7808  1.8479 -0.8928
 6881SOL    HW327257   4.630   2.696   4.387  0.5120  0.1789 -0.6744
 6881SOL    MW427258   4.577   2.687   4.319 -0.5731  0.0026  0.3173
 6882SOL     OW27259   0.470   1.878   3.344  0.2295  0.4695 -0.5242
 6882SOL    HW227260   0.458   1.963   3.386 -1.6265 -0.8143  1.7748
 6882SOL    HW327261   0.398   1.824   3.378  0.9271 -1.8333 -2.4409
 6882SOL    MW427262   0.459   1.882   3.354  0.3121  0.5894  0.3413
 6883SOL     OW27263   0.553   4.757   2.022  0.1612 -0.7390 -0.1647
 6883SOL    HW227264   0.640   4.722   2.040  1.6675  2.2464 -0.8838
 6883SOL    HW327265   0.521   4.787   2.107  0.0108 -1.4154  0.0240
 6883SOL    MW427266   0.560   4.756   2.035 -0.3688  0.3547  0.4170
 6884SOL     OW27267   0.233   5.185   4.450  0.1336  0.6159  0.1931
 6884SOL    HW227268   0.184   5.157   4.527  0.1970  0.4276  0.1651
 6884SOL    HW327269   0.174   5.167   4.376  0.3674  0.0970  0.1320
 6884SOL    MW427270   0.219   5.179   4.450  0.3696 -0.5004 -0.4816
 6885SOL     OW27271   1.572   6.026   6.237  0.2863 -0.6262 -0.1897
 6885SOL    HW227272   1.510   6.079   6.186  0.0534  0.6011  1.2898
 6885SOL    HW327273   1.523   5.948   6.261  0.5693 -1.4955 -2.2457
 6885SOL    MW427274   1.557   6.023   6.234 -0.2634 -0.4750  0.4632
 6886SOL     OW27275   0.887   4.808   6.285  0.0748  0.0678  0.5404
 6886SOL    HW227276   0.882   4.745   6.357  0.5864  1.4488  1.8377
 6886SOL    HW327277   0.977   4.839   6.285 -0.2241  0.9984  0.1187
 6886SOL    MW427278   0.898   4.804   6.295 -0.0359 -0.4966  0.2623
 6887SOL     OW27279   0.523   1.514   5.346  0.3009  0.2089  0.3037
 6887SOL    HW227280   0.437   1.534   5.382 -0.0877 -1.0493  0.1023
 6887SOL    HW327281   0.530   1.419   5.351  1.3749  0.2364 -0.3707
 6887SOL    MW427282   0.513   1.504   5.352  0.0030 -0.2591  0.3748
 6888SOL     OW27283   3.310   5.429   5.931  0.1818  0.2062 -0.0397
 6888SOL    HW227284   3.222   5.392   5.942  0.4937 -0.9591 -1.2743
 6888SOL    HW327285   3.300   5.496   5.863 -0.1734  1.7687  1.4671
 6888SOL    MW427286   3.297   5.433   5.924 -0.5933 -0.2345 -0.6268
 6889SOL     OW27287   0.178   1.897   4.864 -0.4970  0.0541  0.0484
 6889SOL    HW227288   0.151   1.912   4.774  0.6008  0.1725 -0.2861
 6889SOL    HW327289   0.200   1.804   4.867 -2.4550 -0.4351  0.7604
 6889SOL    MW427290   0.178   1.887   4.852  0.4387  0.2070  0.3763
 6890SOL     OW27291   0.899   3.324   3.475  0.2391  0.4730  0.4109
 6890SOL    HW227292   0.967   3.313   3.409  0.7560  2.2310  0.5919
 6890SOL    HW327293   0.881   3.419   3.475 -1.5394  0.1752  1.0318
 6890SOL    MW427294   0.905   3.335   3.466  0.1434 -0.1770  0.1171
 6891SOL     OW27295   3.036   2.454   4.898  0.0148 -0.1206  0.0120
 6891SOL    HW227296   3.100   2.412   4.956 -1.0681 -1.9070 -0.0190
 6891SOL    HW327297   3.047   2.409   4.814 -0.2097  0.6482 -0.4340
 6891SOL    MW427298   3.046   2.442   4.895  0.2261  0.4591  0.5825
 6892SOL     OW27299   3.990   0.191   2.745  0.1425 -0.2352 -0.3977
 6892SOL    HW227300   3.984   0.285   2.728  1.5606  0.0306  0.4431
 6892SOL    HW327301   4.078   0.178   2.780  0.0670 -1.9266 -0.7531
 6892SOL    MW427302   4.001   0.202   2.747 -0.1748  0.1306  0.0453
 6893SOL     OW27303   5.451   5.694   3.209  0.0267 -0.4725  0.2311
 6893SOL    HW227304   5.436   5.731   3.296  0.1690 -1.0707  0.5158
 6893SOL    HW327305   5.512   5.621   3.224  2.2323  1.0808 -0.7205
 6893SOL    MW427306   5.457   5.689   3.222 -0.9556  0.1399  0.0858
 6894SOL     OW27307   1.377   0.564   0.385 -0.0048 -0.0128 -0.8309
 6894SOL    HW227308   1.363   0.654   0.355 -0.5323 -0.3113 -1.4901
 6894SOL    HW327309   1.423   0.522   0.312 -0.9133 -0.6252 -1.0655
 6894SOL    MW427310   1.381   0.571   0.371  0.3090  0.5383  0.0279
 6895SOL     OW27311   5.882   0.955   1.463  0.2758  0.7905 -0.0007
 6895SOL    HW227312   5.972   0.947   1.495  0.5883  0.0691 -1.0103
 6895SOL    HW327313   5.891   0.994   1.376 -0.6314  3.8001  1.1247
 6895SOL    MW427314   5.895   0.959   1.456  0.8187 -0.1747 -0.1151
 6896SOL     OW27315   1.064   4.210   2.704 -0.4256 -0.6671 -0.1086
 6896SOL    HW227316   1.043   4.195   2.796  0.4271  2.0078  0.6114
 6896SOL    HW327317   0.980   4.225   2.661 -0.7827 -1.3481  0.3475
 6896SOL    MW427318   1.050   4.210   2.710  0.1560 -0.6003  0.0341
 6897SOL     OW27319   2.206   2.384   6.281  0.1562  0.0350 -0.1540
 6897SOL    HW227320   2.223   2.292   6.261 -0.6709 -0.0685 -0.4157
 6897SOL    HW327321   2.234   2.431   6.202  0.3809 -0.0168 -0.1037
 6897SOL    MW427322   2.212   2.378   6.268  0.1540 -0.8835  0.0555
 6898SOL     OW27323   4.311   5.027   2.521  0.0782  0.2229  0.3670
 6898SOL    HW227324   4.361   4.989   2.593  0.0039  0.7318  0.6898
 6898SOL    HW327325   4.378   5.062   2.462  0.1831 -1.1187 -0.3481
 6898SOL    MW427326   4.327   5.026   2.523  0.1503  0.1350 -0.6722
 6899SOL     OW27327   1.048   1.438   6.180 -0.1796  0.5364  0.7227
 6899SOL    HW227328   1.100   1.414   6.103  1.5992  0.1069  1.9891
 6899SOL    HW327329   0.975   1.490   6.146  0.7638  0.6577 -1.1886
 6899SOL    MW427330   1.045   1.441   6.166  0.6762 -0.0036  0.2822
 6900SOL     OW27331   1.981   0.481   4.441  0.2302  0.1286 -0.7700
 6900SOL    HW227332   2.006   0.478   4.349 -0.0359  1.3190 -0.8893
 6900SOL    HW327333   1.975   0.574   4.462 -2.4964 -0.0667 -0.3263
 6900SOL    MW427334   1.983   0.493   4.432 -0.5743 -0.3458 -0.2588
 6901SOL     OW27335   0.133   0.950   2.407  0.7898 -0.2438 -0.2114
 6901SOL    HW227336   0.043   0.976   2.424  1.9653  2.2342  3.3423
 6901SOL    HW327337   0.151   0.882   2.471  1.9026  0.5624  0.3684
 6901SOL    MW427338   0.124   0.944   2.417 -0.0443 -0.1374  0.5157
 6902SOL     OW27339   3.811   2.832   5.933  0.3866 -0.1636 -0.6676
 6902SOL    HW227340   3.901   2.858   5.951 -0.4307  1.2731  1.7345
 6902SOL    HW327341   3.766   2.914   5.912 -0.6795 -0.6287 -0.2824
 6902SOL    MW427342   3.817   2.846   5.932  0.1843 -0.0455  0.4082
 6903SOL     OW27343   0.147   4.268   0.380 -0.3600 -0.4378  0.3895
 6903SOL    HW227344   0.092   4.233   0.451  0.2237  1.2988  1.7809
 6903SOL    HW327345   0.187   4.347   0.418  2.4183 -1.1370 -0.8470
 6903SOL    MW427346   0.145   4.274   0.395  0.2083 -0.1315 -0.1991
 6904SOL     OW27347   1.361   4.049   5.490  0.0192  0.3026  0.1152
 6904SOL    HW227348   1.298   3.991   5.532  1.4384 -3.0192 -1.9817
 6904SOL    HW327349   1.438   4.044   5.546 -0.2675  1.2871  0.6220
 6904SOL    MW427350   1.363   4.041   5.503 -0.0771 -0.3958  0.8132
 6905SOL     OW27351   3.001   3.828   5.208 -0.2992 -0.2423 -0.1494
 6905SOL    HW227352   3.050   3.750   5.186 -0.4098 -0.6010  0.8227
 6905SOL    HW327353   2.920   3.821   5.157 -0.0946 -0.5210 -0.4328
 6905SOL    MW427354   2.997   3.817   5.199 -0.6194 -0.4729  0.4245
 6906SOL     OW27355   3.904   5.411   0.229  0.0786  0.7922 -0.1975
 6906SOL    HW227356   3.942   5.397   0.142  0.5976  0.1081  0.1365
 6906SOL    HW327357   3.883   5.504   0.231 -0.1235  0.7796 -1.1298
 6906SOL    MW427358   3.906   5.421   0.218 -0.4374 -0.1850  0.4912
 6907SOL     OW27359   5.118   3.033   2.988 -0.0611 -0.2737  0.1928
 6907SOL    HW227360   5.095   2.953   2.942  1.5298 -0.1159 -0.9275
 6907SOL    HW327361   5.143   3.095   2.919  0.0281  0.7682  1.1192
 6907SOL    MW427362   5.118   3.031   2.973  0.1766  0.5075 -0.1179
 6908SOL     OW27363   0.179   2.285   0.769 -0.3114  0.1156  0.0867
 6908SOL    HW227364   0.130   2.294   0.687 -0.9831 -0.6494  0.3957
 6908SOL    HW327365   0.125   2.331   0.833 -0.4619 -0.4489  0.3644
 6908SOL    MW427366   0.166   2.292   0.766 -0.3978  0.3857 -0.2037
 6909SOL     OW27367   1.331   5.256   4.765  0.4287  0.1383 -0.0685
 6909SOL    HW227368   1.358   5.346   4.746 -1.2268  0.8689  0.8696
 6909SOL    HW327369   1.257   5.241   4.705 -1.2722  0.5316  1.8255
 6909SOL    MW427370   1.325   5.266   4.755 -0.4171 -0.2842 -0.4837
 6910SOL     OW27371   5.332   5.962   4.633  0.0661 -0.1225  0.4548
 6910SOL    HW227372   5.403   5.936   4.575 -0.7108 -0.5780 -0.3155
 6910SOL    HW327373   5.367   6.038   4.681  1.6464 -1.3202  1.2926
 6910SOL    MW427374   5.346   5.969   4.632  0.4259  0.2821  0.3455
 6911SOL     OW27375   5.171   4.306   3.604 -0.2922 -0.1002 -0.2286
 6911SOL    HW227376   5.121   4.250   3.662  0.1652 -0.3566 -0.0766
 6911SOL    HW327377   5.119   4.311   3.524 -0.3459 -0.7165 -0.2310
 6911SOL    MW427378   5.158   4.299   3.601  0.0091  0.3332  0.2260
 6912SOL     OW27379   1.400   4.961   3.002  0.4034 -0.1544  0.0663
 6912SOL    HW227380   1.492   4.945   2.978 -0.0931 -1.5888 -0.9940
 6912SOL    HW327381   1.352   4.889   2.961 -1.0274 -0.2863  1.8864
 6912SOL    MW427382   1.406   4.949   2.993 -0.6853  0.1878 -0.0527
 6913SOL     OW27383   5.423   4.755   5.825 -0.5392 -0.2503 -0.6769
 6913SOL    HW227384   5.507   4.781   5.864 -1.1616 -0.4197  0.8602
 6913SOL    HW327385   5.442   4.676   5.776  0.7836  1.3297 -2.8978
 6913SOL    MW427386   5.437   4.748   5.824 -0.3425  0.6486 -0.5669
 6914SOL     OW27387   6.272   0.921   1.439 -0.2124 -0.2726  0.1140
 6914SOL    HW227388   6.334   0.860   1.400  0.4493  0.4541  0.0150
 6914SOL    HW327389   6.217   0.949   1.366  0.0771 -0.0438 -0.0162
 6914SOL    MW427390   6.273   0.917   1.424  0.8268 -0.3604  0.3154
 6915SOL     OW27391   0.316   3.632   0.550  0.0250 -0.2440  0.3639
 6915SOL    HW227392   0.368   3.684   0.611 -1.5027  2.9495 -0.8287
 6915SOL    HW327393   0.280   3.696   0.488 -0.5328 -2.9892 -2.4030
 6915SOL    MW427394   0.318   3.647   0.550 -0.4952 -0.4305  0.0617
 6916SOL     OW27395   5.200   4.582   6.383  1.0281  0.1076  0.1798
 6916SOL    HW227396   5.174   4.554   6.471  1.8314 -2.7845 -0.3830
 6916SOL    HW327397   5.283   4.628   6.396 -0.3534  2.4727  1.1747
 6916SOL    MW427398   5.208   4.584   6.396  0.1008  0.0541 -0.3645
 6917SOL     OW27399   4.108   5.823   2.151  0.4903  0.2117  0.1054
 6917SOL    HW227400   4.046   5.886   2.115 -1.0631 -0.9875  0.5490
 6917SOL    HW327401   4.109   5.842   2.245 -0.0790 -0.4736  0.2581
 6917SOL    MW427402   4.100   5.834   2.159  0.0836  0.1375  0.0918
 6918SOL     OW27403   2.670   1.266   3.246  0.1616  0.0061 -0.7329
 6918SOL    HW227404   2.702   1.180   3.219  2.1496  1.0056 -1.7454
 6918SOL    HW327405   2.693   1.325   3.174 -1.9889  1.2585 -0.4897
 6918SOL    MW427406   2.677   1.263   3.233 -0.2646  0.4763 -0.7055
 6919SOL     OW27407   4.494   2.052   5.831  0.5926  0.0119  0.2593
 6919SOL    HW227408   4.559   2.093   5.773  0.8862 -0.1734  0.4592
 6919SOL    HW327409   4.541   2.038   5.913 -0.6026  3.0475  1.6291
 6919SOL    MW427410   4.509   2.056   5.834 -0.4114 -0.1646  0.0505
 6920SOL     OW27411   5.221   4.534   2.986 -0.0265 -0.4923  0.1324
 6920SOL    HW227412   5.286   4.536   3.057  2.3331 -0.5642 -1.8841
 6920SOL    HW327413   5.183   4.622   2.986  0.5896 -0.2124  0.9200
 6920SOL    MW427414   5.225   4.546   2.995  0.3042 -0.1070  0.1329
 6921SOL     OW27415   0.839   6.167   5.782 -0.7305  0.2363 -0.2449
 6921SOL    HW227416   0.882   6.241   5.824  0.3792  1.2951 -3.0078
 6921SOL    HW327417   0.911   6.111   5.752 -1.4109 -0.1417 -1.2383
 6921SOL    MW427418   0.854   6.169   5.783  0.0862 -1.1435  0.1030
 6922SOL     OW27419   4.369   4.529   3.160 -0.0237 -0.1611 -0.1532
 6922SOL    HW227420   4.288   4.558   3.203  0.4886  2.3736 -0.7622
 6922SOL    HW327421   4.353   4.545   3.067  1.1081  0.1976 -0.2909
 6922SOL    MW427422   4.356   4.535   3.154 -0.0987 -0.3275  0.0219
 6923SOL     OW27423   0.827   6.142   0.549  0.1377 -0.4749 -0.4873
 6923SOL    HW227424   0.880   6.159   0.471 -0.1671  2.2066 -0.1847
 6923SOL    HW327425   0.741   6.118   0.515  0.2581 -0.2056 -0.9905
 6923SOL    MW427426   0.823   6.141   0.535 -0.2112 -0.8373 -0.1089
 6924SOL     OW27427   4.560   4.452   4.400 -0.0366  0.5424 -0.3269
 6924SOL    HW227428   4.570   4.456   4.495 -0.1318  1.3670 -0.3409
 6924SOL    HW327429   4.490   4.389   4.385  0.6897 -0.3821  0.0960
 6924SOL    MW427430   4.552   4.444   4.410  0.0207 -0.0915 -0.0015
 6925SOL     OW27431   2.811   0.701   0.227  0.8264  0.2089 -0.0657
 6925SOL    HW227432   2.867   0.725   0.301  1.9251 -1.7817 -0.1785
 6925SOL    HW327433   2.862   0.636   0.179 -1.4599 -1.4947 -0.3453
 6925SOL    MW427434   2.825   0.696   0.230  0.4972  0.1206 -0.1304
 6926SOL     OW27435   4.160   4.657   4.014 -0.2434  0.3658 -0.0601
 6926SOL    HW227436   4.235   4.670   4.072 -1.8083  1.7642  1.7892
 6926SOL    HW327437   4.110   4.587   4.055 -0.5622  0.2696 -0.6107
 6926SOL    MW427438   4.163   4.650   4.027  0.1290  0.6825  0.6645
 6927SOL     OW27439   3.037   5.274   1.679  0.4745 -0.0525  0.0033
 6927SOL    HW227440   3.070   5.331   1.609  0.5658 -0.8220 -0.5889
 6927SOL    HW327441   3.109   5.215   1.698  0.7358  0.6433  1.3150
 6927SOL    MW427442   3.051   5.274   1.672 -0.2083 -0.1761 -0.3658
 6928SOL     OW27443   2.203   3.796   2.322  0.2643 -0.1667  0.6839
 6928SOL    HW227444   2.190   3.891   2.327 -2.2427 -0.4929  2.1334
 6928SOL    HW327445   2.220   3.778   2.230 -1.1035  1.5127  0.0606
 6928SOL    MW427446   2.204   3.806   2.311 -0.0385  0.3994  0.0141
 6929SOL     OW27447   1.184   2.336   1.693  0.1323  0.2612  0.0367
 6929SOL    HW227448   1.115   2.403   1.688 -0.7576 -0.5566  1.0634
 6929SOL    HW327449   1.236   2.361   1.769  1.0742  0.9326 -0.7912
 6929SOL    MW427450   1.182   2.348   1.702 -0.2831 -0.0827  0.4588
 6930SOL     OW27451   4.593   3.397   5.637 -0.1389 -0.1243  0.1116
 6930SOL    HW227452   4.668   3.372   5.584  0.0824  0.3208  0.2081
 6930SOL    HW327453   4.550   3.315   5.659 -0.9159 -0.2459 -1.7477
 6930SOL    MW427454   4.597   3.383   5.633 -0.2424 -0.7035  0.3189
 6931SOL     OW27455   1.449   5.497   2.936 -0.1540 -0.2069  0.3373
 6931SOL    HW227456   1.365   5.497   2.983  0.2513 -1.0439  1.0767
 6931SOL    HW327457   1.472   5.590   2.930  0.3767 -0.0959  2.9190
 6931SOL    MW427458   1.441   5.510   2.941 -0.0145  0.4666 -0.2458
 6932SOL     OW27459   2.475   5.796   3.764 -0.1667 -0.1420 -0.3279
 6932SOL    HW227460   2.390   5.785   3.723 -0.5519 -0.3458  0.5068
 6932SOL    HW327461   2.534   5.818   3.692 -0.7844 -0.6821 -1.0082
 6932SOL    MW427462   2.472   5.797   3.749 -0.4694  0.1134  0.4795
 6933SOL     OW27463   0.188   6.325   6.146  0.9534  0.4728  0.4726
 6933SOL    HW227464   0.156   6.236   6.132 -1.9511  1.2749  1.2173
 6933SOL    HW327465   0.226   6.324   6.234  0.4255  0.0946  0.6984
 6933SOL    MW427466   0.189   6.313   6.156  0.2652 -0.1644  0.4691
 6934SOL     OW27467   5.875   0.241   0.089  0.8215 -0.2939  0.3213
 6934SOL    HW227468   5.793   0.265   0.047  0.2187 -0.7963  1.1780
 6934SOL    HW327469   5.905   0.163   0.041 -0.1869 -1.2482  1.1835
 6934SOL    MW427470   5.868   0.234   0.077 -0.0779 -0.0782  0.3489
 6935SOL     OW27471   0.317   3.134   1.625  0.5448  0.4811  0.3196
 6935SOL    HW227472   0.342   3.062   1.684  1.8184  1.1226  0.5939
 6935SOL    HW327473   0.314   3.094   1.538 -1.5853 -0.5380  0.7793
 6935SOL    MW427474   0.320   3.119   1.622  0.3426 -0.5019  0.3269
 6936SOL     OW27475   6.316   6.291   3.392 -0.2544  0.1001  0.9003
 6936SOL    HW227476   6.241   6.232   3.405 -0.5088 -0.0410 -0.8641
 6936SOL    HW327477   6.276   6.378   3.384 -0.2087  0.0708  0.3112
 6936SOL    MW427478   6.301   6.295   3.392  0.1909  0.4167 -0.2951
 6937SOL     OW27479   5.931   3.255   3.827 -0.5557  0.1295 -0.2443
 6937SOL    HW227480   6.007   3.313   3.818 -0.0663 -0.3139  0.9649
 6937SOL    HW327481   5.928   3.233   3.920 -3.0021  1.2571  0.0153
 6937SOL    MW427482   5.940   3.260   3.838  0.5390  0.4076  0.1294
 6938SOL     OW27483   1.591   4.918   6.362 -0.1182 -0.3450  0.3124
 6938SOL    HW227484   1.647   4.858   6.412 -0.6160 -2.1287 -1.1734
 6938SOL    HW327485   1.650   4.957   6.298 -0.2246 -1.0089 -0.2040
 6938SOL    MW427486   1.606   4.915   6.361 -0.7542 -0.0309  0.2910
 6939SOL     OW27487   0.727   1.929   1.149 -0.6507  0.2331 -0.5817
 6939SOL    HW227488   0.681   2.006   1.115 -2.2972 -1.1196 -1.5675
 6939SOL    HW327489   0.657   1.874   1.185  0.4352 -1.0019 -0.3190
 6939SOL    MW427490   0.711   1.932   1.149  0.3209  0.0432 -0.5188
 6940SOL     OW27491   5.168   3.935   0.061  0.2914 -0.0200 -0.2639
 6940SOL    HW227492   5.223   3.922   0.139  2.2044  1.6926 -1.2215
 6940SOL    HW327493   5.168   4.030   0.048 -1.3760 -0.1407 -1.4377
 6940SOL    MW427494   5.175   3.946   0.070 -0.6472  0.2804 -0.2913
 6941SOL     OW27495   1.332   3.553   0.724  0.1304 -0.1216  0.1324
 6941SOL    HW227496   1.425   3.538   0.706  0.6280  1.3432  1.2949
 6941SOL    HW327497   1.307   3.481   0.782  0.4667 -0.6559 -0.3709
 6941SOL    MW427498   1.341   3.541   0.729  0.2334 -0.2745  0.0526
 6942SOL     OW27499   2.820   1.027   2.842  0.2519  0.1599  0.2378
 6942SOL    HW227500   2.885   1.076   2.793  0.6870 -1.6984 -1.1727
 6942SOL    HW327501   2.872   0.969   2.899 -0.1858 -0.3781  0.0951
 6942SOL    MW427502   2.836   1.025   2.843 -0.9250  0.5655  0.2805
 6943SOL     OW27503   3.118   1.686   0.059 -0.1579  0.4837 -0.0503
 6943SOL    HW227504   3.042   1.682   0.116  0.5861  3.9733  1.4872
 6943SOL    HW327505   3.186   1.636   0.105 -0.7810 -0.5102 -0.1809
 6943SOL    MW427506   3.117   1.679   0.072  0.0870 -0.1120 -0.5913
 6944SOL     OW27507   5.346   5.719   6.267 -0.0799  0.1775  0.5657
 6944SOL    HW227508   5.251   5.707   6.271 -0.1393 -0.8767 -2.2382
 6944SOL    HW327509   5.380   5.657   6.332 -1.2280 -1.1301 -0.0325
 6944SOL    MW427510   5.338   5.709   6.276  0.3694 -0.3553 -0.3975
 6945SOL     OW27511   2.606   5.593   3.554 -0.2514  0.3704 -0.2713
 6945SOL    HW227512   2.519   5.580   3.592 -0.3285  0.0369 -0.5529
 6945SOL    HW327513   2.665   5.599   3.629 -0.4486  0.0724 -0.0919
 6945SOL    MW427514   2.602   5.592   3.569  0.1310  0.2625 -0.1572
 6946SOL     OW27515   4.909   5.007   6.253 -0.3783  0.3391  0.2573
 6946SOL    HW227516   4.919   5.047   6.167 -0.2127 -1.4531 -0.5868
 6946SOL    HW327517   4.924   4.914   6.239  1.1202  0.1554  2.4816
 6946SOL    MW427518   4.912   5.000   6.240 -0.3003  0.3452 -0.0852
 6947SOL     OW27519   3.828   0.056   5.486  0.1291 -0.0968  0.1921
 6947SOL    HW227520   3.737   0.086   5.493  0.5319  1.3601 -0.3598
 6947SOL    HW327521   3.880   0.135   5.502  1.3134 -1.0001  0.9238
 6947SOL    MW427522   3.823   0.070   5.489 -0.1265  0.2525 -0.2343
 6948SOL     OW27523   6.189   4.940   2.439  0.4948 -0.5678  0.0973
 6948SOL    HW227524   6.208   4.871   2.376  0.7214  0.1883 -0.6782
 6948SOL    HW327525   6.273   4.983   2.454  0.3310 -0.3702  0.4681
 6948SOL    MW427526   6.202   4.936   2.433  0.4016  0.3018  0.3647
 6949SOL     OW27527   2.351   0.917   5.640  0.0377 -0.0737 -0.6927
 6949SOL    HW227528   2.367   1.009   5.620  0.1249 -0.2504 -1.4737
 6949SOL    HW327529   2.411   0.896   5.711  0.8351  0.1674 -1.2897
 6949SOL    MW427530   2.361   0.926   5.646  0.4424 -0.0061  0.5496
 6950SOL     OW27531   3.360   0.384   4.716  0.0016 -0.7812 -0.4150
 6950SOL    HW227532   3.265   0.391   4.731 -0.0037 -0.1542 -0.7092
 6950SOL    HW327533   3.379   0.290   4.724 -0.6769 -0.9364 -0.5750
 6950SOL    MW427534   3.350   0.373   4.719 -0.2038 -0.0428  0.6823
 6951SOL     OW27535   1.789   0.988   0.104 -0.0925 -0.0429 -0.1511
 6951SOL    HW227536   1.752   1.075   0.089  1.4564  0.7036  0.1705
 6951SOL    HW327537   1.857   0.980   0.037 -1.2235 -1.6689 -1.1813
 6951SOL    MW427538   1.793   0.999   0.093  0.3175 -0.2980  0.4243
 6952SOL     OW27539   2.114   1.595   2.022 -0.2013  0.1390  0.2918
 6952SOL    HW227540   2.193   1.646   2.003  0.0657 -0.4286 -0.1125
 6952SOL    HW327541   2.123   1.516   1.970 -0.9610 -0.0044  0.3757
 6952SOL    MW427542   2.126   1.591   2.013  0.1347 -0.3824 -0.3374
 6953SOL     OW27543   6.320   5.600   4.010 -0.4680 -0.1571  0.3332
 6953SOL    HW227544   6.361   5.685   3.994 -2.0891  0.6446  0.1235
 6953SOL    HW327545   6.291   5.571   3.924 -2.3361  0.4298  0.7129
 6953SOL    MW427546   6.321   5.607   3.997 -0.2908 -0.0083 -0.2576
 6954SOL     OW27547   0.534   3.067   2.766  0.5058  0.1726 -0.5903
 6954SOL    HW227548   0.561   3.158   2.782 -0.2575  0.3094  0.0076
 6954SOL    HW327549   0.548   3.054   2.673  0.9095  0.8158 -0.6250
 6954SOL    MW427550   0.539   3.077   2.756  0.3672  0.1160 -0.0858
 6955SOL     OW27551   0.700   1.151   4.652 -0.2367 -0.6883 -1.0306
 6955SOL    HW227552   0.755   1.147   4.573 -1.3154  1.1297 -1.9258
 6955SOL    HW327553   0.657   1.236   4.647 -3.6340 -2.2392 -0.7042
 6955SOL    MW427554   0.702   1.162   4.641  0.0937 -0.1424 -0.6052
 6956SOL     OW27555   0.994   4.472   2.013 -0.2927 -0.2500  0.0985
 6956SOL    HW227556   1.018   4.415   2.086  2.2166 -0.6999 -0.9705
 6956SOL    HW327557   0.998   4.415   1.936 -0.8356  0.6634 -0.6217
 6956SOL    MW427558   0.998   4.457   2.012 -0.1311 -0.3205 -0.0836
 6957SOL     OW27559   2.568   1.982   1.010 -0.4679 -0.1415  0.7917
 6957SOL    HW227560   2.523   1.962   0.929  0.5414 -0.8048  0.3694
 6957SOL    HW327561   2.560   1.902   1.063  0.1476 -0.2578  0.7259
 6957SOL    MW427562   2.561   1.969   1.007 -0.0580 -0.4042  0.1906
 6958SOL     OW27563   5.217   5.007   1.825 -0.6418  0.2439  0.1648
 6958SOL    HW227564   5.168   4.964   1.755 -0.5882  1.1059 -0.4109
 6958SOL    HW327565   5.218   4.943   1.896  0.5348 -1.2282 -1.1190
 6958SOL    MW427566   5.211   4.993   1.825  0.3796 -0.0488 -0.0067
 6959SOL     OW27567   3.341   3.671   2.730 -0.0540  0.1780  0.0948
 6959SOL    HW227568   3.329   3.763   2.755  0.6436  0.4368 -0.4684
 6959SOL    HW327569   3.379   3.630   2.807  0.5271  0.5931  0.0405
 6959SOL    MW427570   3.345   3.678   2.743 -0.6132 -0.0887 -0.2879
 6960SOL     OW27571   5.174   5.775   3.360  0.3017  0.1147 -0.1909
 6960SOL    HW227572   5.082   5.753   3.375  0.4334 -0.3467 -0.0466
 6960SOL    HW327573   5.221   5.732   3.432  0.9265 -1.8836 -1.6947
 6960SOL    MW427574   5.168   5.767   3.372 -0.2307 -0.2503 -0.4197
 6961SOL     OW27575   4.513   4.079   0.131  0.4359  0.3188 -0.6000
 6961SOL    HW227576   4.474   4.144   0.189 -1.1020 -0.1273 -1.0771
 6961SOL    HW327577   4.540   4.008   0.189 -1.7149 -0.4314 -0.4106
 6961SOL    MW427578   4.511   4.078   0.146 -0.0836  0.3462  0.4778
 6962SOL     OW27579   4.576   5.679   5.819 -0.3427 -0.4543 -0.1580
 6962SOL    HW227580   4.632   5.680   5.742  0.4345  3.0029  0.2810
 6962SOL    HW327581   4.624   5.628   5.884  0.8882 -0.0773 -0.7452
 6962SOL    MW427582   4.589   5.672   5.818  0.2184  0.4688 -0.2715
 6963SOL     OW27583   1.369   0.877   5.854  0.5276 -0.1731  0.1105
 6963SOL    HW227584   1.318   0.941   5.805  0.5826 -0.7013 -0.6507
 6963SOL    HW327585   1.390   0.921   5.936  0.0132  0.5446 -0.1339
 6963SOL    MW427586   1.365   0.891   5.858  0.9458 -0.1549 -0.1258
 6964SOL     OW27587   2.139   4.840   5.475  0.5153 -0.1434  0.2757
 6964SOL    HW227588   2.117   4.883   5.392  1.5803 -0.5625 -0.2496
 6964SOL    HW327589   2.128   4.746   5.456 -0.3224 -0.1960  0.9584
 6964SOL    MW427590   2.134   4.833   5.461  0.5755 -0.3466  0.5390
 6965SOL     OW27591   5.432   1.027   4.801  0.4566 -0.0368 -0.1695
 6965SOL    HW227592   5.464   1.114   4.826 -1.4897  0.2075  1.7665
 6965SOL    HW327593   5.375   1.001   4.873  0.0342 -2.4221 -1.2783
 6965SOL    MW427594   5.429   1.035   4.814  0.4816 -0.5554 -0.4549
 6966SOL     OW27595   0.284   3.533   3.212  0.6904 -0.2212  0.3931
 6966SOL    HW227596   0.226   3.525   3.288  0.4758  1.0707  0.3848
 6966SOL    HW327597   0.230   3.574   3.145  1.2933 -0.0337  0.0152
 6966SOL    MW427598   0.269   3.537   3.213  0.2900  0.3093  0.0964
 6967SOL     OW27599   0.049   3.987   1.337 -0.4163  0.1928 -0.2047
 6967SOL    HW227600   0.142   4.005   1.323 -0.0805 -0.9258  0.4872
 6967SOL    HW327601   0.004   4.047   1.278  0.7887 -0.7826 -2.2061
 6967SOL    MW427602   0.056   3.997   1.328  0.2177  0.4124  1.0085
 6968SOL     OW27603   5.714   2.371   2.822  0.5607 -0.4214  0.3061
 6968SOL    HW227604   5.757   2.416   2.750 -0.8922  1.1469  0.3437
 6968SOL    HW327605   5.774   2.381   2.896  1.4923 -0.9551 -0.3614
 6968SOL    MW427606   5.728   2.378   2.822 -0.5687 -0.7026  0.5713
 6969SOL     OW27607   5.317   1.086   0.711  0.4692 -0.7398 -0.4032
 6969SOL    HW227608   5.374   1.161   0.731 -0.7556  0.1994 -0.2970
 6969SOL    HW327609   5.337   1.022   0.779 -0.2959  0.5496  1.1218
 6969SOL    MW427610   5.327   1.087   0.723 -0.1364 -0.3080  0.0258
 6970SOL     OW27611   5.935   3.705   6.022  0.2996  0.4009  0.0833
 6970SOL    HW227612   5.895   3.667   5.944 -0.0670  0.1098  0.4088
 6970SOL    HW327613   5.983   3.632   6.061  0.7959  0.6423 -0.0734
 6970SOL    MW427614   5.936   3.690   6.017  0.2986 -0.0627  0.2144
 6971SOL     OW27615   1.520   4.264   4.666 -0.1666 -0.2041 -0.1314
 6971SOL    HW227616   1.580   4.221   4.605  1.3198  2.1721 -0.4604
 6971SOL    HW327617   1.435   4.262   4.622  0.4353 -0.4313 -1.3056
 6971SOL    MW427618   1.517   4.258   4.652 -0.1806 -0.0969 -0.5585
 6972SOL     OW27619   1.358   3.124   2.534 -0.6998 -0.4348  0.3568
 6972SOL    HW227620   1.317   3.071   2.602 -2.5704  1.4353  0.7947
 6972SOL    HW327621   1.435   3.162   2.577 -1.1881 -0.2232  1.0618
 6972SOL    MW427622   1.363   3.122   2.549 -0.2898 -0.2841 -0.0232
 6973SOL     OW27623   5.705   4.142   3.018  0.2013 -0.3035  0.6418
 6973SOL    HW227624   5.632   4.099   2.974  0.9436 -1.3602  0.4106
 6973SOL    HW327625   5.689   4.236   3.004  0.2796 -0.5706 -1.6901
 6973SOL    MW427626   5.693   4.149   3.010 -0.3356 -0.3297 -0.3968
 6974SOL     OW27627   4.104   5.740   5.104 -0.2345  0.3446 -0.1130
 6974SOL    HW227628   4.149   5.667   5.060 -0.8237 -0.1283  0.0538
 6974SOL    HW327629   4.120   5.725   5.197  2.8032  2.5085 -0.1711
 6974SOL    MW427630   4.112   5.728   5.111  0.1306 -0.3298 -0.2893
 6975SOL     OW27631   1.319   2.470   1.923 -0.0833  0.0128 -0.3634
 6975SOL    HW227632   1.348   2.561   1.921  0.2084 -0.0942 -2.1587
 6975SOL    HW327633   1.358   2.434   2.003 -0.9103  1.6663  0.8399
 6975SOL    MW427634   1.328   2.477   1.933 -0.4443 -0.5100 -0.0826
 6976SOL     OW27635   2.947   4.079   1.301  0.0649  0.0405 -0.1946
 6976SOL    HW227636   2.882   4.148   1.312  0.8862  0.9741 -0.9754
 6976SOL    HW327637   3.028   4.126   1.281 -0.0541 -1.1560 -4.5464
 6976SOL    MW427638   2.949   4.095   1.300  0.1135 -0.0386  0.4619
 6977SOL     OW27639   1.121   1.396   5.282  0.1003 -0.5821  0.0330
 6977SOL    HW227640   1.095   1.310   5.250  0.8918 -0.9785  0.4218
 6977SOL    HW327641   1.059   1.416   5.352 -0.3442 -0.6449 -0.3396
 6977SOL    MW427642   1.109   1.387   5.287 -0.0014 -0.5022  0.0758
 6978SOL     OW27643   0.912   1.680   3.625  0.0190 -0.0289  0.2036
 6978SOL    HW227644   0.898   1.746   3.558  0.3800 -0.4404 -0.2884
 6978SOL    HW327645   0.828   1.635   3.633 -0.9345  1.9143  2.1537
 6978SOL    MW427646   0.899   1.682   3.617  0.1484 -0.1814  0.1801
 6979SOL     OW27647   0.035   1.560   4.699  0.2251  0.3002 -0.3696
 6979SOL    HW227648  -0.005   1.647   4.703  0.4788  0.4083 -0.1568
 6979SOL    HW327649   0.107   1.563   4.762  0.8817  0.2675 -1.0977
 6979SOL    MW427650   0.040   1.572   4.708  0.4585  0.7029  0.3179
 6980SOL     OW27651   1.887   1.735   1.739  0.1467 -0.1202 -0.3053
 6980SOL    HW227652   1.883   1.803   1.806 -0.8350 -2.3151  2.0121
 6980SOL    HW327653   1.796   1.723   1.711  0.4825  0.4183 -1.7329
 6980SOL    MW427654   1.874   1.742   1.744  0.2132 -0.2078 -0.3076
 6981SOL     OW27655   2.059   0.759   4.450 -0.0064 -0.8801  0.1644
 6981SOL    HW227656   2.066   0.800   4.537  1.0912 -1.5472  0.4132
 6981SOL    HW327657   2.015   0.825   4.396 -1.4468 -0.7596  1.4055
 6981SOL    MW427658   2.054   0.773   4.454 -0.1148  0.4724  0.0780
 6982SOL     OW27659   4.378   1.064   5.716 -0.2174  0.3152 -0.4839
 6982SOL    HW227660   4.391   1.077   5.622 -0.2190 -0.0741 -0.5396
 6982SOL    HW327661   4.285   1.081   5.730 -0.3521 -0.2650 -0.6633
 6982SOL    MW427662   4.368   1.068   5.705  0.2013 -0.4653  0.6683
 6983SOL     OW27663   6.296   5.965   4.625 -0.3843 -0.3165 -0.3636
 6983SOL    HW227664   6.204   5.967   4.601 -0.2335 -1.7489 -1.1778
 6983SOL    HW327665   6.339   5.918   4.554  0.7107 -1.1467  0.7874
 6983SOL    MW427666   6.290   5.959   4.613  0.1957  0.3748 -0.0925
 6984SOL     OW27667   6.258   0.978   4.719 -0.6937  0.2759  0.6886
 6984SOL    HW227668   6.313   0.982   4.796 -0.6404  0.3215  0.6484
 6984SOL    HW327669   6.318   0.955   4.648 -0.6910  0.5241  0.6103
 6984SOL    MW427670   6.273   0.975   4.719  0.4135 -0.2846 -0.7270
 6985SOL     OW27671   5.536   5.589   4.984  0.1959 -0.1597  0.0190
 6985SOL    HW227672   5.566   5.670   4.944  0.3971  0.2594  0.9970
 6985SOL    HW327673   5.603   5.568   5.049 -0.9523  0.0887  1.3179
 6985SOL    MW427674   5.549   5.597   4.987 -0.1537  0.0309  0.3678
 6986SOL     OW27675   3.454   4.070   2.024 -0.4851 -0.5007 -0.3404
 6986SOL    HW227676   3.436   4.100   1.935 -0.3554 -0.4333 -0.3458
 6986SOL    HW327677   3.377   4.020   2.049 -1.6798  1.6243  0.4760
 6986SOL    MW427678   3.442   4.067   2.015 -0.0458 -0.0862  0.0617
 6987SOL     OW27679   4.685   6.086   6.275  0.1285 -0.1731  0.5221
 6987SOL    HW227680   4.742   6.059   6.347 -2.0179 -1.7152  1.7846
 6987SOL    HW327681   4.699   6.180   6.266  1.4921 -0.2026  1.9888
 6987SOL    MW427682   4.694   6.095   6.283  0.0047 -0.0200 -0.6218
 6988SOL     OW27683   3.033   3.907   0.048  0.3957 -0.4907  0.6532
 6988SOL    HW227684   3.088   3.887   0.124  0.5560  0.0410  0.6813
 6988SOL    HW327685   3.084   3.971  -0.002  0.7733 -1.6488 -0.4768
 6988SOL    MW427686   3.047   3.913   0.051 -0.6322 -0.4434  0.2434
 6989SOL     OW27687   0.878   3.990   1.537  0.6078  0.3083 -0.0763
 6989SOL    HW227688   0.839   3.935   1.605 -0.5017 -1.0325 -1.6964
 6989SOL    HW327689   0.849   4.079   1.558 -3.1318 -0.5247 -0.9035
 6989SOL    MW427690   0.869   3.994   1.548  0.2733 -0.0951  0.0744
 6990SOL     OW27691   5.517   2.278   1.960 -0.2721  0.0272 -0.4996
 6990SOL    HW227692   5.428   2.292   1.927 -0.0236  2.0676 -0.3806
 6990SOL    HW327693   5.572   2.337   1.909  0.4759  1.5151  1.8590
 6990SOL    MW427694   5.512   2.287   1.949 -0.0989  0.1328 -0.0057
 6991SOL     OW27695   3.819   3.759   1.547 -0.4631 -0.2415 -0.5005
 6991SOL    HW227696   3.803   3.692   1.481  0.3047 -0.3328 -0.6018
 6991SOL    HW327697   3.760   3.737   1.619 -0.2546 -0.9908 -0.5567
 6991SOL    MW427698   3.809   3.747   1.548  0.3772  0.5320  0.2804
 6992SOL     OW27699   0.772   3.727   0.959 -1.1844 -0.2061  0.1459
 6992SOL    HW227700   0.744   3.657   1.019 -0.6263 -0.3430  0.2525
 6992SOL    HW327701   0.740   3.808   1.001 -0.7801 -0.2990  0.6454
 6992SOL    MW427702   0.764   3.729   0.973  0.6066 -0.3972  0.0057
 6993SOL     OW27703   4.286   5.799   0.335  0.1450 -0.8087  0.4086
 6993SOL    HW227704   4.234   5.731   0.378 -0.0029 -0.6577  0.4685
 6993SOL    HW327705   4.223   5.869   0.315  0.2578 -0.7756  0.1636
 6993SOL    MW427706   4.271   5.800   0.338  0.6020  0.1052 -0.1034
 6994SOL     OW27707   1.300   5.786   0.787 -0.2057  0.3074  0.3005
 6994SOL    HW227708   1.322   5.876   0.766 -1.2221  0.3341 -0.8221
 6994SOL    HW327709   1.289   5.784   0.882 -0.4386  1.4236  0.3025
 6994SOL    MW427710   1.301   5.797   0.796  0.1896 -0.4165  0.1229
 6995SOL     OW27711   3.033   0.323   5.046 -0.1050  0.3239 -0.4236
 6995SOL    HW227712   3.124   0.353   5.039 -0.0972  0.4481  0.1700
 6995SOL    HW327713   2.990   0.391   5.097 -0.3332 -0.1698  0.0388
 6995SOL    MW427714   3.039   0.336   5.052  0.1846  0.1809  0.3596
 6996SOL     OW27715   0.976   4.162   0.748 -0.1228 -0.3350 -0.5323
 6996SOL    HW227716   0.887   4.126   0.752 -0.4652  0.5265  0.1104
 6996SOL    HW327717   1.030   4.090   0.718 -1.0420 -0.8820 -0.9295
 6996SOL    MW427718   0.971   4.148   0.745 -0.1358  0.2996  0.0041
 6997SOL     OW27719   5.849   4.954   2.292 -0.0311 -0.4722 -0.3126
 6997SOL    HW227720   5.927   4.900   2.306  0.6929  0.6355  0.0478
 6997SOL    HW327721   5.780   4.910   2.341  1.3613  0.7802  3.1022
 6997SOL    MW427722   5.850   4.941   2.300  0.4514 -0.0666 -0.3130
 6998SOL     OW27723   3.719   2.776   3.896 -0.4114 -0.0224 -0.2412
 6998SOL    HW227724   3.650   2.776   3.963  0.1066 -0.5355  0.3074
 6998SOL    HW327725   3.734   2.683   3.878  1.2504  0.0049  0.8242
 6998SOL    MW427726   3.712   2.764   3.902 -0.1382  0.2283  0.3011
 6999SOL     OW27727   4.368   1.319   6.125  0.5673 -0.1018 -0.1710
 6999SOL    HW227728   4.380   1.407   6.089  2.0065 -0.7153 -1.2937
 6999SOL    HW327729   4.442   1.269   6.091  0.3449 -1.5014  1.2778
 6999SOL    MW427730   4.380   1.324   6.116  0.4450  0.2716 -0.4173
 7000SOL     OW27731   2.956   5.717   0.064 -0.4713 -0.2507  0.3745
 7000SOL    HW227732   3.012   5.716   0.142  0.3140 -2.0305 -0.1564
 7000SOL    HW327733   2.880   5.770   0.089  0.4169  0.3770  1.8570
 7000SOL    MW427734   2.953   5.724   0.077 -0.1744 -0.1497  0.4189
 7001SOL     OW27735   2.866   0.128   1.944  0.0171  0.6528 -0.8075
 7001SOL    HW227736   2.814   0.186   1.999  0.1902  3.4213 -3.2963
 7001SOL    HW327737   2.817   0.046   1.941 -0.6141  0.8170  2.2918
 7001SOL    MW427738   2.853   0.125   1.951 -0.7693 -0.5605  0.6243
 7002SOL     OW27739   0.962   5.331   6.344 -0.2353 -0.5904 -0.1886
 7002SOL    HW227740   0.997   5.420   6.348 -0.8799 -0.1723 -2.3810
 7002SOL    HW327741   1.039   5.275   6.353  0.8757  0.2868 -2.9460
 7002SOL    MW427742   0.977   5.335   6.345 -0.0386 -0.4438 -0.2855
 7003SOL     OW27743   3.630   2.058   3.941  0.4128  0.3624  0.0001
 7003SOL    HW227744   3.687   2.115   3.993  0.7458  1.7426 -1.7749
 7003SOL    HW327745   3.637   1.972   3.983  0.1562  1.5010  2.5725
 7003SOL    MW427746   3.638   2.054   3.954  0.0625 -0.3348  0.8700
 7004SOL     OW27747   3.620   0.767   1.656 -0.5237 -0.2916  0.4021
 7004SOL    HW227748   3.607   0.776   1.750 -2.3417 -1.6412  0.3407
 7004SOL    HW327749   3.573   0.842   1.618  0.3379  0.3378  0.5482
 7004SOL    MW427750   3.612   0.778   1.663 -0.1096 -0.3333 -0.0813
 7005SOL     OW27751   3.184   0.872   2.945 -0.6200 -0.5214 -0.4004
 7005SOL    HW227752   3.243   0.798   2.961  1.7833  1.6163  1.4481
 7005SOL    HW327753   3.105   0.851   2.995  0.0628 -1.7787  0.1886
 7005SOL    MW427754   3.181   0.859   2.953 -0.5676 -0.4204  0.3061
 7006SOL     OW27755   2.467   2.891   6.341  0.7600  0.2425  0.0924
 7006SOL    HW227756   2.373   2.891   6.320  0.6299  0.7689  0.6522
 7006SOL    HW327757   2.494   2.800   6.328  0.5801  0.4154 -1.8160
 7006SOL    MW427758   2.458   2.879   6.336  0.5816 -0.2591 -0.2235
 7007SOL     OW27759   2.100   3.304   6.270  0.3845 -0.5915 -0.3265
 7007SOL    HW227760   2.069   3.305   6.180  1.6829  0.0165 -0.7870
 7007SOL    HW327761   2.186   3.346   6.267  1.0905 -1.8429  0.9600
 7007SOL    MW427762   2.108   3.310   6.258  0.1876 -0.2379  0.2614
 7008SOL     OW27763   3.893   5.910   1.544  0.2913  0.2076  0.2012
 7008SOL    HW227764   3.888   6.000   1.577 -0.2548 -0.1266  1.0659
 7008SOL    HW327765   3.816   5.900   1.489  1.1992  0.7630 -1.2419
 7008SOL    MW427766   3.882   5.921   1.541 -0.1083  0.3864 -0.0511
 7009SOL     OW27767   3.248   4.696   5.463 -0.0065 -0.3945  0.1006
 7009SOL    HW227768   3.233   4.733   5.550  1.7039  0.0284  0.2679
 7009SOL    HW327769   3.206   4.757   5.403 -0.0117  0.0640  0.5661
 7009SOL    MW427770   3.241   4.709   5.467  0.7432 -0.8209 -0.2118
 7010SOL     OW27771   4.586   1.869   5.084 -0.3688  0.1953  0.2625
 7010SOL    HW227772   4.511   1.841   5.031 -0.4761 -0.1827  0.6140
 7010SOL    HW327773   4.591   1.805   5.154  0.2026  0.3004  0.3188
 7010SOL    MW427774   4.577   1.857   5.086 -0.1209 -0.1224 -0.2409
 7011SOL     OW27775   5.473   5.176   1.146  0.9014  0.0440 -0.3196
 7011SOL    HW227776   5.510   5.128   1.072 -0.4050 -1.7735  0.1430
 7011SOL    HW327777   5.524   5.147   1.222  0.8374  0.2763 -0.1841
 7011SOL    MW427778   5.484   5.166   1.146  0.3137 -0.5779  0.3416
 7012SOL     OW27779   0.391   5.438   0.873  0.4855 -0.5173 -0.1014
 7012SOL    HW227780   0.395   5.455   0.967 -0.2338  2.7180 -0.5123
 7012SOL    HW327781   0.482   5.429   0.846  0.6564 -2.7683  1.0139
 7012SOL    MW427782   0.403   5.439   0.882  0.2497  0.3954 -0.0249
 7013SOL     OW27783   1.653   4.906   2.566  0.4070 -0.6570  0.0486
 7013SOL    HW227784   1.729   4.955   2.533  0.7279  0.5188  2.3446
 7013SOL    HW327785   1.578   4.962   2.544  0.6466  0.2632  1.4610
 7013SOL    MW427786   1.653   4.920   2.559  0.1075  0.7897  0.5607
 7014SOL     OW27787   1.082   5.582   5.133 -0.0809 -0.2379 -0.5167
 7014SOL    HW227788   1.133   5.656   5.166 -1.9592  1.2971 -0.8226
 7014SOL    HW327789   1.095   5.585   5.038  0.3134 -0.6837 -0.4780
 7014SOL    MW427790   1.090   5.593   5.124  0.0410  0.3279 -0.4723
 7015SOL     OW27791   5.593   3.831   0.319  0.2506  0.4509  0.5110
 7015SOL    HW227792   5.577   3.909   0.265 -2.1824 -0.1698  0.2187
 7015SOL    HW327793   5.536   3.842   0.395 -1.6050 -1.8174 -0.4126
 7015SOL    MW427794   5.583   3.843   0.322 -0.0723  0.2530  0.0537
 7016SOL     OW27795   2.485   3.379   2.466  0.1791 -0.5506  0.2257
 7016SOL    HW227796   2.484   3.474   2.452 -1.8490 -0.4174  0.9198
 7016SOL    HW327797   2.557   3.348   2.413  2.0957  1.5825  1.3654
 7016SOL    MW427798   2.494   3.388   2.457  0.0266 -0.1211 -0.5605
 7017SOL     OW27799   6.016   1.400   4.487 -0.0198 -0.8127 -0.0263
 7017SOL    HW227800   6.092   1.459   4.492 -0.1787 -0.5748 -0.3676
 7017SOL    HW327801   6.045   1.320   4.531 -0.2736  0.0171  1.7590
 7017SOL    MW427802   6.030   1.398   4.493  0.0044  0.2560  0.5709
 7018SOL     OW27803   1.264   2.014   1.804  0.2297 -0.4339  0.2248
 7018SOL    HW227804   1.214   2.018   1.722  1.4659 -0.7923 -0.5803
 7018SOL    HW327805   1.305   2.100   1.812 -1.4550  0.3149  1.5532
 7018SOL    MW427806   1.263   2.026   1.794 -0.0787 -0.2595  0.0310
 7019SOL     OW27807   0.122   3.327   4.040  0.1361 -0.7400 -0.3977
 7019SOL    HW227808   0.088   3.341   3.952  2.0331 -1.4327 -1.2848
 7019SOL    HW327809   0.132   3.415   4.076 -1.5853 -0.4850 -0.4601
 7019SOL    MW427810   0.119   3.340   4.034  0.1846 -0.2480 -0.2641
 7020SOL     OW27811   0.214   4.986   0.369 -0.0049 -0.3407  0.2010
 7020SOL    HW227812   0.263   5.032   0.437  1.2947 -0.6770 -0.4721
 7020SOL    HW327813   0.210   5.047   0.296  1.6755 -1.2043 -0.6722
 7020SOL    MW427814   0.220   5.000   0.368  0.0519  0.1708 -0.8479
 7021SOL     OW27815   1.481   3.589   0.433  0.3118 -0.4847  0.2022
 7021SOL    HW227816   1.416   3.648   0.471  0.2796  0.5051 -1.2806
 7021SOL    HW327817   1.450   3.502   0.454 -0.9654 -0.0080  0.3787
 7021SOL    MW427818   1.469   3.586   0.440 -0.0913  0.2126 -0.0134
 7022SOL     OW27819   3.534   1.879   5.537  0.0526 -0.2097  0.4371
 7022SOL    HW227820   3.459   1.917   5.583  0.8789  2.8466 -0.5003
 7022SOL    HW327821   3.586   1.955   5.511  1.5396 -2.0174 -2.2352
 7022SOL    MW427822   3.531   1.894   5.540  0.2752 -0.1723  0.2357
 7023SOL     OW27823   2.191   2.588   1.503  0.0040 -0.1124 -0.2127
 7023SOL    HW227824   2.219   2.663   1.556  0.7371  0.1383 -0.9196
 7023SOL    HW327825   2.232   2.513   1.545  0.5181  0.0758 -0.3644
 7023SOL    MW427826   2.200   2.588   1.516  0.4241  0.2240  0.1822
 7024SOL     OW27827   1.973   2.372   2.718  0.4823  0.3511 -0.0330
 7024SOL    HW227828   1.973   2.280   2.743 -0.2180  0.2995 -0.2180
 7024SOL    HW327829   2.066   2.398   2.722  0.7116 -0.4199 -0.2227
 7024SOL    MW427830   1.985   2.364   2.722  0.7108 -0.8441  0.2160
 7025SOL     OW27831   6.062   3.179   2.262 -0.1344 -0.3566  0.4201
 7025SOL    HW227832   6.143   3.139   2.231  0.9050  1.8661  0.0459
 7025SOL    HW327833   5.999   3.165   2.190  0.7046  0.1883 -0.4338
 7025SOL    MW427834   6.064   3.172   2.248  0.1103  1.0785 -0.4348
 7026SOL     OW27835   1.360   3.164   4.436  0.5479  0.3493 -0.3668
 7026SOL    HW227836   1.383   3.219   4.511  1.0048  0.3942 -0.5348
 7026SOL    HW327837   1.444   3.135   4.401  0.3107 -0.8511  0.0043
 7026SOL    MW427838   1.374   3.168   4.441  0.1887  0.0745  0.1217
 7027SOL     OW27839   0.924   3.489   0.035 -0.4247  0.0240  0.1604
 7027SOL    HW227840   0.973   3.557  -0.010  1.3318 -1.6027 -0.5108
 7027SOL    HW327841   0.966   3.407   0.009  1.6706 -1.1001  5.6966
 7027SOL    MW427842   0.936   3.487   0.026  0.7372  0.2757 -0.3652
 7028SOL     OW27843   2.505   0.792   5.434 -0.3996 -1.0716 -0.5717
 7028SOL    HW227844   2.438   0.825   5.495 -0.4556 -1.3177 -0.5018
 7028SOL    HW327845   2.564   0.741   5.489  1.3867  1.3076 -0.1061
 7028SOL    MW427846   2.504   0.790   5.449 -0.2492  0.9596  0.0967
 7029SOL     OW27847   3.469   2.255   1.291 -0.7969  0.1315 -0.1530
 7029SOL    HW227848   3.533   2.209   1.345 -0.8339 -1.1667 -1.1726
 7029SOL    HW327849   3.398   2.276   1.351  0.1505  0.7796  0.7985
 7029SOL    MW427850   3.468   2.252   1.306 -0.1467 -0.5342  0.2461
 7030SOL     OW27851   1.002   1.942   1.253  0.1941  0.3944  0.7605
 7030SOL    HW227852   0.913   1.946   1.218  0.5175  0.0989 -0.1239
 7030SOL    HW327853   1.036   2.031   1.244 -0.2275  0.6628  1.7099
 7030SOL    MW427854   0.995   1.954   1.248 -0.2832  0.1874 -0.3171
 7031SOL     OW27855   2.541   3.905   5.466  0.9492 -0.2661 -0.1589
 7031SOL    HW227856   2.559   3.928   5.557  1.7539 -2.2974  0.2457
 7031SOL    HW327857   2.587   3.973   5.416  1.0018  0.5430  0.9340
 7031SOL    MW427858   2.550   3.917   5.471 -0.0703  0.2600  0.0242
 7032SOL     OW27859   1.128   0.464   0.508  0.3445 -0.0602  0.1354
 7032SOL    HW227860   1.214   0.506   0.510  0.7839 -0.8629 -0.8887
 7032SOL    HW327861   1.112   0.438   0.598  1.2481 -0.0276  0.3205
 7032SOL    MW427862   1.137   0.466   0.520  0.0602  0.0565  0.2943
 7033SOL     OW27863   0.353   4.833   1.635  0.2590 -0.6217 -0.3313
 7033SOL    HW227864   0.288   4.872   1.693  1.4223 -0.2786  0.7871
 7033SOL    HW327865   0.309   4.758   1.596 -1.1083  0.1716 -0.3507
 7033SOL    MW427866   0.339   4.829   1.637 -0.5215  0.1093 -0.3071
 7034SOL     OW27867   6.410   0.857   6.256 -0.0265  0.4492 -0.6984
 7034SOL    HW227868   6.318   0.850   6.231 -0.8369  1.4198  1.7089
 7034SOL    HW327869   6.431   0.950   6.245 -0.0824  0.6909  0.9095
 7034SOL    MW427870   6.401   0.868   6.251  0.3689 -0.3751  0.6116
 7035SOL     OW27871   1.900   2.152   5.668 -0.4260 -0.0176  0.1020
 7035SOL    HW227872   1.915   2.061   5.694  1.2325 -0.6604 -2.6444
 7035SOL    HW327873   1.838   2.147   5.596 -0.6898  1.0983  0.2223
 7035SOL    MW427874   1.894   2.140   5.662 -0.3783 -0.0770 -0.1576
 7036SOL     OW27875   4.219   1.217   2.164 -0.0517 -0.3590 -0.1003
 7036SOL    HW227876   4.137   1.172   2.145 -0.4756  0.6368 -0.6824
 7036SOL    HW327877   4.201   1.309   2.145  1.1134 -0.0880  0.0526
 7036SOL    MW427878   4.206   1.223   2.159 -0.0268 -0.1943 -0.4486
 7037SOL     OW27879   2.748   2.155   4.256 -0.2240  0.2711  0.3324
 7037SOL    HW227880   2.778   2.064   4.264  0.7093  0.4699 -0.7124
 7037SOL    HW327881   2.825   2.203   4.226 -1.3785  0.9235 -1.7658
 7037SOL    MW427882   2.762   2.149   4.253  0.1665 -0.3646  0.7731
 7038SOL     OW27883   4.706   3.074   0.389 -0.0859  0.4329  0.4210
 7038SOL    HW227884   4.642   3.100   0.323  2.1695  1.1878 -1.5909
 7038SOL    HW327885   4.737   2.988   0.361  0.9047  0.7618  0.4741
 7038SOL    MW427886   4.701   3.066   0.377  0.0449  0.0536  0.6546
 7039SOL     OW27887   1.138   4.574   2.930 -0.0091 -0.3410 -0.4787
 7039SOL    HW227888   1.208   4.550   2.991 -0.6507 -0.7977  0.0887
 7039SOL    HW327889   1.163   4.662   2.899  0.3814 -0.1456  0.3546
 7039SOL    MW427890   1.151   4.583   2.934 -0.1150  0.2341 -0.2652
 7040SOL     OW27891   1.443   1.379   5.147 -0.0398  0.2113  0.4513
 7040SOL    HW227892   1.433   1.286   5.125 -1.1102 -0.2616  2.6063
 7040SOL    HW327893   1.537   1.396   5.139  0.2748 -1.2546  0.7051
 7040SOL    MW427894   1.454   1.369   5.143 -0.0418 -0.0638 -0.0456
 7041SOL     OW27895   2.516   1.704   4.087  0.1558  0.4647 -0.1690
 7041SOL    HW227896   2.609   1.690   4.105 -0.3833 -1.9120  1.2135
 7041SOL    HW327897   2.472   1.678   4.168 -1.8022 -0.0662 -1.3502
 7041SOL    MW427898   2.523   1.698   4.100 -0.5055 -0.6645  0.1577
 7042SOL     OW27899   4.899   2.122   0.923 -0.6571  0.3076 -0.2064
 7042SOL    HW227900   4.984   2.098   0.961  0.2316  1.3580 -1.4535
 7042SOL    HW327901   4.839   2.053   0.954  0.2280  0.5049  2.1309
 7042SOL    MW427902   4.902   2.110   0.932  0.3258 -0.5864 -0.3005
 7043SOL     OW27903   0.237   0.647   2.120  0.2860 -0.5333  0.0696
 7043SOL    HW227904   0.236   0.552   2.134 -1.7868 -0.8849 -1.7705
 7043SOL    HW327905   0.235   0.656   2.024 -1.7089  1.3043  0.2127
 7043SOL    MW427906   0.237   0.635   2.109  0.0734 -0.1188 -0.4996
 7044SOL     OW27907   6.332   3.661   1.804  0.2646  0.1798 -0.4161
 7044SOL    HW227908   6.273   3.614   1.863 -1.3959  0.3815 -1.8274
 7044SOL    HW327909   6.295   3.749   1.800 -0.5209 -0.1937 -2.8027
 7044SOL    MW427910   6.319   3.667   1.811 -0.0586 -0.8025  0.0137
 7045SOL     OW27911   0.961   3.073   5.476  0.5005 -0.3552  0.0574
 7045SOL    HW227912   1.002   3.148   5.434 -1.9138  0.5328 -0.8928
 7045SOL    HW327913   0.970   3.091   5.570  1.8571 -0.0113 -0.1161
 7045SOL    MW427914   0.968   3.085   5.483 -0.1863 -0.0719  0.4659
 7046SOL     OW27915   0.128   3.489   3.449  0.2689 -0.2118 -0.0228
 7046SOL    HW227916   0.171   3.498   3.534  0.5395 -1.5582  0.0071
 7046SOL    HW327917   0.037   3.515   3.466 -0.1349 -2.1552  1.1462
 7046SOL    MW427918   0.121   3.493   3.463 -0.7264  0.2044 -0.0688
 7047SOL     OW27919   1.792   1.783   0.651 -0.3390 -0.0034 -0.0178
 7047SOL    HW227920   1.772   1.717   0.718 -1.5571  0.2495 -0.1193
 7047SOL    HW327921   1.877   1.818   0.678  0.3838 -1.6514 -0.0069
 7047SOL    MW427922   1.801   1.779   0.664 -0.5185 -1.5082  0.3999
 7048SOL     OW27923   6.099   5.524   4.632  0.3225  0.2118  0.4035
 7048SOL    HW227924   6.167   5.516   4.699 -0.1035  0.4197  0.8653
 7048SOL    HW327925   6.073   5.616   4.635 -0.1913  0.0691  0.4436
 7048SOL    MW427926   6.105   5.535   4.641 -0.4102  0.3951 -0.6624
 7049SOL     OW27927   2.551   2.570   3.453  0.9389 -0.1824 -0.2582
 7049SOL    HW227928   2.642   2.542   3.441  1.1426 -1.2436  2.7410
 7049SOL    HW327929   2.532   2.549   3.545 -2.5393 -0.5302 -0.9292
 7049SOL    MW427930   2.561   2.564   3.464 -0.6147  0.4203  0.0760
 7050SOL     OW27931   2.955   4.742   0.968 -0.0164 -0.8982  0.0261
 7050SOL    HW227932   2.963   4.756   0.874  2.0902  0.3729  0.3290
 7050SOL    HW327933   2.870   4.780   0.991  0.6590  1.4212 -0.9798
 7050SOL    MW427934   2.945   4.749   0.959  0.1561  0.3804 -0.2699
 7051SOL     OW27935   4.847   6.283   4.012 -0.0822  0.4090  0.0167
 7051SOL    HW227936   4.867   6.319   3.926 -1.0804 -0.0712 -0.4353
 7051SOL    HW327937   4.760   6.243   4.002  0.3050 -0.7304  0.9166
 7051SOL    MW427938   4.838   6.282   3.999  0.4389  0.7011  0.1444
 7052SOL     OW27939   2.056   4.023   3.969  0.2316  0.3426  0.7255
 7052SOL    HW227940   2.039   3.937   3.932  0.9604  0.2810  0.5247
 7052SOL    HW327941   1.969   4.057   3.992 -0.1806  0.1380 -0.4970
 7052SOL    MW427942   2.042   4.016   3.967  0.0914  0.4949  0.2660
 7053SOL     OW27943   4.131   4.820   5.697  0.3664 -0.1019  0.3100
 7053SOL    HW227944   4.093   4.735   5.677 -0.0094 -0.1181  1.0339
 7053SOL    HW327945   4.057   4.881   5.693  0.8705  0.4273 -1.5253
 7053SOL    MW427946   4.116   4.817   5.694  0.0065 -0.3423  0.7366
 7054SOL     OW27947   4.298   3.070   2.292 -0.0100  0.1315  0.0503
 7054SOL    HW227948   4.392   3.065   2.310  0.0418  0.1840 -0.2020
 7054SOL    HW327949   4.286   3.019   2.212  0.1885  2.0431 -1.2699
 7054SOL    MW427950   4.309   3.063   2.284  0.4098  0.3090  0.2556
 7055SOL     OW27951   1.567   3.028   2.003 -0.8922  0.0542  0.5723
 7055SOL    HW227952   1.618   3.107   2.022 -0.1752 -0.5861  1.4130
 7055SOL    HW327953   1.629   2.969   1.961 -1.6758  0.2767 -0.9741
 7055SOL    MW427954   1.582   3.031   2.000  0.0270  0.3093  0.4338
 7056SOL     OW27955   1.031   4.086   4.269 -0.4235  0.1333  0.2549
 7056SOL    HW227956   0.959   4.100   4.330  0.3295  0.0494  1.1994
 7056SOL    HW327957   0.994   4.102   4.183 -1.2867  1.2228  0.8039
 7056SOL    MW427958   1.017   4.090   4.266  0.3778 -0.1948  0.4994
 7057SOL     OW27959   3.875   2.048   6.199  0.4757  0.3167 -0.1453
 7057SOL    HW227960   3.929   2.095   6.263 -1.1168 -3.5217  4.6286
 7057SOL    HW327961   3.785   2.066   6.226 -0.2490 -1.9436 -0.8460
 7057SOL    MW427962   3.871   2.056   6.211  0.0310 -0.3812 -0.1228
 7058SOL     OW27963   2.682   3.851   4.596  0.5357 -0.6060  0.3936
 7058SOL    HW227964   2.694   3.838   4.690  0.4916 -1.2501  0.3141
 7058SOL    HW327965   2.638   3.772   4.566 -0.2732 -0.0061 -0.0212
 7058SOL    MW427966   2.678   3.839   4.604  0.1583 -0.3891  0.2230
 7059SOL     OW27967   0.994   2.387   6.050  0.0696  0.5183  0.0878
 7059SOL    HW227968   0.959   2.356   6.133 -1.7073 -0.3215 -0.9043
 7059SOL    HW327969   1.089   2.384   6.060 -0.0549 -2.2588  1.1354
 7059SOL    MW427970   1.002   2.383   6.062  0.7908  0.3374  0.5105
 7060SOL     OW27971   4.614   2.272   1.999  0.2683 -0.2209 -0.2993
 7060SOL    HW227972   4.629   2.186   1.960  1.0757  0.5694 -1.8432
 7060SOL    HW327973   4.643   2.334   1.931 -3.1017  1.3547 -0.4770
 7060SOL    MW427974   4.620   2.269   1.985 -0.2942 -0.4946  0.3944
 7061SOL     OW27975   5.099   1.405   6.291 -0.1525 -0.7776 -0.2223
 7061SOL    HW227976   5.095   1.309   6.288 -0.2714 -0.7580 -1.5600
 7061SOL    HW327977   5.012   1.431   6.321  0.1507 -1.0981  0.9734
 7061SOL    MW427978   5.087   1.396   6.294 -0.2146 -0.4746 -0.0603
 7062SOL     OW27979   4.106   1.549   3.067  0.4110  0.1608 -0.1417
 7062SOL    HW227980   4.166   1.586   3.131  2.1606 -1.5861 -0.6501
 7062SOL    HW327981   4.143   1.572   2.982 -0.2436 -0.0343 -0.4932
 7062SOL    MW427982   4.119   1.557   3.064 -0.3835  0.4046 -0.6658
 7063SOL     OW27983   2.196   1.095   2.041  0.2534  0.5310 -0.4693
 7063SOL    HW227984   2.270   1.094   2.101 -0.4990  0.7318  0.4921
 7063SOL    HW327985   2.120   1.075   2.097 -0.1098 -2.5124 -1.8637
 7063SOL    MW427986   2.196   1.092   2.057  0.1133  0.7148  0.1379
 7064SOL     OW27987   4.732   0.234   0.691 -0.1677  0.1626 -0.1694
 7064SOL    HW227988   4.677   0.290   0.637  0.8740  1.8516  0.4565
 7064SOL    HW327989   4.670   0.187   0.748 -1.1528 -0.4633 -1.6869
 7064SOL    MW427990   4.716   0.235   0.691  0.1533 -0.3651  0.5549
 7065SOL     OW27991   6.159   4.340   3.457  0.0705  0.1438  0.2992
 7065SOL    HW227992   6.250   4.340   3.428 -0.0164 -0.1377  0.0081
 7065SOL    HW327993   6.161   4.372   3.547  0.3325  1.2097 -0.0726
 7065SOL    MW427994   6.171   4.344   3.465  0.1989  0.3884  0.3026
 7066SOL     OW27995   4.030   6.114   4.863 -0.1216  0.6896  0.2604
 7066SOL    HW227996   4.107   6.134   4.808  0.1815  1.9008  1.0827
 7066SOL    HW327997   4.064   6.112   4.952 -1.0702  1.4043  0.6525
 7066SOL    MW427998   4.045   6.116   4.867  0.5685 -0.1280  0.1722
 7067SOL     OW27999   3.016   4.807   2.289 -0.3130  0.2185 -0.9549
 7067SOL    HW228000   2.929   4.831   2.257 -0.9350 -0.2759  0.2897
 7067SOL    HW328001   2.999   4.751   2.365  1.0965  0.2494 -0.5852
 7067SOL    MW428002   3.002   4.803   2.295  0.1145  0.3318 -0.3149
 7068SOL     OW28003   0.700   2.049   4.332  0.5783  0.1634  0.7780
 7068SOL    HW228004   0.607   2.027   4.337  1.0238 -1.5778  2.9152
 7068SOL    HW328005   0.720   2.044   4.239 -1.4182  0.4392  0.2720
 7068SOL    MW428006   0.690   2.045   4.320 -0.0102  0.3816 -0.2482
 7069SOL     OW28007   0.421   6.145   1.772  0.2441 -0.0668  0.6820
 7069SOL    HW228008   0.461   6.232   1.779 -0.2841  0.6543 -3.1333
 7069SOL    HW328009   0.495   6.084   1.782  1.2068  0.9738  0.2203
 7069SOL    MW428010   0.436   6.149   1.774  0.2015 -0.2897 -0.1038
 7070SOL     OW28011   1.973   3.027   4.663  0.2417 -0.7827 -0.6060
 7070SOL    HW228012   1.908   2.970   4.623  0.2549 -0.6633 -0.7984
 7070SOL    HW328013   1.941   3.116   4.647 -0.9067 -0.7293  1.5596
 7070SOL    MW428014   1.960   3.031   4.656  0.2013 -0.3841  0.2962
 7071SOL     OW28015   5.360   1.108   4.529 -0.4545  0.8431  0.7584
 7071SOL    HW228016   5.335   1.035   4.473  0.3602  1.1467 -0.0255
 7071SOL    HW328017   5.363   1.071   4.617 -1.5973  0.3195  0.5979
 7071SOL    MW428018   5.357   1.094   4.533 -0.1192  0.3565  0.2652
 7072SOL     OW28019   1.769   1.921   6.061  0.0343  0.1772  0.0868
 7072SOL    HW228020   1.794   2.013   6.056  1.9820 -0.1452  2.1529
 7072SOL    HW328021   1.785   1.887   5.973 -0.0470  1.6439 -0.5217
 7072SOL    MW428022   1.775   1.928   6.049 -0.0630  0.5763 -0.5108
 7073SOL     OW28023   6.150   5.762   5.812  0.5072 -0.2835  0.0951
 7073SOL    HW228024   6.098   5.773   5.732  2.1016 -2.1653 -1.3147
 7073SOL    HW328025   6.233   5.806   5.793  1.3213 -1.7097  0.2096
 7073SOL    MW428026   6.154   5.769   5.799 -0.2043  0.5718  0.0907
 7074SOL     OW28027   2.241   0.404   5.074  0.7605 -0.4288  0.0569
 7074SOL    HW228028   2.150   0.389   5.099  0.0942 -1.1194 -2.4809
 7074SOL    HW328029   2.243   0.494   5.043  0.5270 -0.8631 -1.3045
 7074SOL    MW428030   2.229   0.414   5.073 -0.0291  0.0317 -0.6348
 7075SOL     OW28031   4.762   5.459   4.348  0.1841  0.3834  0.5070
 7075SOL    HW228032   4.739   5.477   4.257  0.7093  1.3277  0.5468
 7075SOL    HW328033   4.705   5.387   4.373 -2.5407  2.3694  0.5051
 7075SOL    MW428034   4.752   5.452   4.339 -0.0753 -0.3939  0.1361
 7076SOL     OW28035   5.749   1.307   4.823 -0.5576 -0.1579 -0.8285
 7076SOL    HW228036   5.806   1.338   4.893  0.2825 -2.4424 -0.4462
 7076SOL    HW328037   5.663   1.298   4.864  0.0727 -2.1440  0.1447
 7076SOL    MW428038   5.745   1.310   4.837  0.1333  0.0188 -0.2511
 7077SOL     OW28039   5.168   5.161   2.320 -0.4390  0.2977 -1.1753
 7077SOL    HW228040   5.179   5.255   2.308 -0.3231  0.2337 -1.5801
 7077SOL    HW328041   5.235   5.121   2.265  0.9217 -0.0001  0.6224
 7077SOL    MW428042   5.178   5.168   2.311  0.6401 -0.3429 -0.1310
 7078SOL     OW28043   4.953   2.271   0.679 -0.4586  0.5097  0.2874
 7078SOL    HW228044   4.941   2.218   0.758 -1.8733 -0.2393 -0.4039
 7078SOL    HW328045   4.868   2.269   0.635 -0.1662  2.2688 -0.4459
 7078SOL    MW428046   4.941   2.264   0.684  0.1272 -0.3388  0.5164
 7079SOL     OW28047   4.353   4.668   2.059 -0.2750  0.2581 -0.0820
 7079SOL    HW228048   4.443   4.696   2.044  0.4925 -2.0976 -0.2695
 7079SOL    HW328049   4.317   4.735   2.118  1.9892  0.5980  1.0190
 7079SOL    MW428050   4.360   4.681   2.065 -0.0727 -0.3861 -0.0020
 7080SOL     OW28051   2.179   1.274   4.598 -0.4308  0.3142 -0.0461
 7080SOL    HW228052   2.147   1.334   4.665 -0.8237  0.2626 -0.1851
 7080SOL    HW328053   2.100   1.233   4.562 -0.1989  0.0604 -0.2756
 7080SOL    MW428054   2.164   1.276   4.602 -0.1704 -0.3266 -0.2126
 7081SOL     OW28055   2.443   0.446   0.657 -0.1511  0.3587  0.4173
 7081SOL    HW228056   2.378   0.378   0.674  0.9476 -0.8472 -0.1036
 7081SOL    HW328057   2.486   0.461   0.741 -0.5298  0.5760  0.5765
 7081SOL    MW428058   2.440   0.439   0.670  0.1175 -0.0224 -0.7352
 7082SOL     OW28059   0.766   2.592   3.320  0.1145 -0.7886 -0.0857
 7082SOL    HW228060   0.786   2.558   3.233  0.3897 -1.2337  0.1459
 7082SOL    HW328061   0.852   2.610   3.359  0.0886 -2.4219  0.8058
 7082SOL    MW428062   0.780   2.590   3.313 -0.2592  0.7011 -0.0525
 7083SOL     OW28063   1.425   4.796   3.228 -0.8383 -0.1098  0.3911
 7083SOL    HW228064   1.403   4.868   3.170  1.1173 -0.3703 -0.7585
 7083SOL    HW328065   1.506   4.823   3.271 -0.5909 -1.2116  0.6627
 7083SOL    MW428066   1.433   4.809   3.226 -0.2814 -0.1410  0.1083
 7084SOL     OW28067   1.998   1.287   3.702  0.1197 -0.6398 -0.3368
 7084SOL    HW228068   1.937   1.240   3.759  0.1861  0.3909  0.6289
 7084SOL    HW328069   2.074   1.229   3.695 -1.0560 -2.0712 -1.8038
 7084SOL    MW428070   2.000   1.273   3.709  0.5541 -0.0195  0.0875
 7085SOL     OW28071   4.484   2.261   0.448  0.0565 -0.5206 -0.1349
 7085SOL    HW228072   4.432   2.220   0.516 -1.3766  0.0608 -0.8270
 7085SOL    HW328073   4.461   2.354   0.454  1.8664 -0.0758  0.2448
 7085SOL    MW428074   4.474   2.268   0.457 -0.1552  0.6236  0.3991
 7086SOL     OW28075   1.280   5.906   4.333  0.3470  0.0219  0.2747
 7086SOL    HW228076   1.359   5.868   4.370 -0.0823 -1.2958 -0.1172
 7086SOL    HW328077   1.297   5.910   4.239 -0.3018 -0.9494  0.0975
 7086SOL    MW428078   1.293   5.902   4.325  0.3079  0.2700 -0.7213
 7087SOL     OW28079   4.781   4.005   3.127 -0.6637 -0.0481 -0.6522
 7087SOL    HW228080   4.737   4.056   3.059 -0.2704 -0.4719 -1.2359
 7087SOL    HW328081   4.857   3.966   3.083  1.0169  1.6142  0.5712
 7087SOL    MW428082   4.786   4.006   3.112 -0.1260 -0.0165 -0.0244
 7088SOL     OW28083   2.516   5.454   5.488 -0.4763  0.2165 -0.2747
 7088SOL    HW228084   2.471   5.504   5.556 -0.1673 -0.4321  0.4240
 7088SOL    HW328085   2.455   5.382   5.467 -0.1822 -0.1130 -0.0125
 7088SOL    MW428086   2.502   5.451   5.494  0.5124  0.3747  0.1820
 7089SOL     OW28087   5.899   5.539   3.891  0.6924 -0.6401  0.1768
 7089SOL    HW228088   5.954   5.572   3.963  0.9489 -1.2802  0.2773
 7089SOL    HW328089   5.856   5.462   3.928  1.1557 -1.2285 -0.4869
 7089SOL    MW428090   5.901   5.533   3.906 -0.1495  0.3144  0.6883
 7090SOL     OW28091   5.822   2.665   5.240 -0.0985 -0.1686 -0.0461
 7090SOL    HW228092   5.899   2.707   5.203  0.3202 -0.4356  0.5092
 7090SOL    HW328093   5.754   2.675   5.173  0.4757 -0.1260 -0.6261
 7090SOL    MW428094   5.823   2.672   5.226 -0.2373 -0.1577  0.6316
 7091SOL     OW28095   4.390   2.148   2.846 -0.3806 -0.4744 -0.3918
 7091SOL    HW228096   4.410   2.111   2.760  2.1224  0.7805 -0.4624
 7091SOL    HW328097   4.432   2.089   2.909 -0.7754 -0.5027 -0.1519
 7091SOL    MW428098   4.398   2.135   2.843  0.0145 -0.2394 -0.4320
 7092SOL     OW28099   0.463   5.271   5.790 -0.8566  0.4258 -0.0118
 7092SOL    HW228100   0.555   5.280   5.768 -0.6496  1.8853  1.2878
 7092SOL    HW328101   0.463   5.210   5.864 -1.0951 -0.6754 -0.8915
 7092SOL    MW428102   0.475   5.264   5.797  0.0642 -0.5333 -0.6730
 7093SOL     OW28103   2.110   2.663   3.128  0.2113 -0.7304 -0.1836
 7093SOL    HW228104   2.137   2.672   3.219  0.8010 -1.2098 -0.3023
 7093SOL    HW328105   2.133   2.573   3.105 -0.2979 -0.7376 -0.6884
 7093SOL    MW428106   2.117   2.652   3.137 -0.5331  0.2697 -0.0435
 7094SOL     OW28107   1.703   0.823   5.347 -0.2002 -0.0425  0.1082
 7094SOL    HW228108   1.717   0.860   5.260 -0.5251  0.9701  0.4713
 7094SOL    HW328109   1.615   0.785   5.343  0.6308 -2.0279 -0.6711
 7094SOL    MW428110   1.693   0.823   5.335  0.1719 -0.2211 -0.7351
 7095SOL     OW28111   1.466   0.349   4.050 -0.5310  0.1593  0.0481
 7095SOL    HW228112   1.544   0.309   4.088 -1.3811 -1.4397  0.2022
 7095SOL    HW328113   1.451   0.427   4.103  0.1430 -0.2871  0.9306
 7095SOL    MW428114   1.474   0.354   4.062 -0.1314  0.2408 -0.4664
 7096SOL     OW28115   4.061   0.566   3.954  0.4669  0.0125 -0.4302
 7096SOL    HW228116   4.053   0.660   3.966  0.9358  0.2015 -1.4807
 7096SOL    HW328117   3.997   0.528   4.015 -0.9412  1.0672 -1.1954
 7096SOL    MW428118   4.051   0.573   3.964  0.3053  0.0150 -0.1378
 7097SOL     OW28119   2.095   2.230   0.251  0.0451 -0.0192  0.0889
 7097SOL    HW228120   2.072   2.321   0.230  0.5242  0.0096 -0.3343
 7097SOL    HW328121   2.161   2.238   0.320  0.5582 -0.0207 -0.3956
 7097SOL    MW428122   2.101   2.243   0.258 -0.8443  0.0500 -0.5440
 7098SOL     OW28123   1.163   6.144   4.627  0.2693 -0.5872 -0.5172
 7098SOL    HW228124   1.186   6.169   4.537  3.8244 -1.3499  0.0503
 7098SOL    HW328125   1.205   6.209   4.682 -2.5660  0.3617  0.6941
 7098SOL    MW428126   1.171   6.156   4.622  0.5705 -0.0599  0.2126
 7099SOL     OW28127   4.189   5.277   2.904 -0.1642 -0.3269  0.0996
 7099SOL    HW228128   4.253   5.238   2.844 -0.3173 -0.1630 -0.1747
 7099SOL    HW328129   4.118   5.212   2.909  0.2510 -0.7306  0.7984
 7099SOL    MW428130   4.188   5.263   2.897  0.4317 -0.0207 -0.5726
 7100SOL     OW28131   4.571   1.754   2.856 -0.1610 -0.3769 -0.1797
 7100SOL    HW228132   4.660   1.776   2.884 -0.5869 -0.3974  1.2811
 7100SOL    HW328133   4.579   1.734   2.763  1.0567  1.2965 -0.4738
 7100SOL    MW428134   4.584   1.754   2.848  0.6774  0.3176  0.4643
 7101SOL     OW28135   3.311   4.102   4.744  0.5711  0.1979  0.0486
 7101SOL    HW228136   3.391   4.152   4.760  0.3372  0.5501  0.1280
 7101SOL    HW328137   3.273   4.088   4.831 -0.4354  1.6768 -0.1201
 7101SOL    MW428138   3.316   4.107   4.758  0.0195  0.5759 -0.1419
 7102SOL     OW28139   6.043   2.762   5.739  0.1267 -0.8532 -0.1083
 7102SOL    HW228140   6.008   2.829   5.798  1.7507  0.0383 -0.0959
 7102SOL    HW328141   5.989   2.769   5.661  0.5655  0.8530 -0.3024
 7102SOL    MW428142   6.031   2.771   5.737  0.0353  0.4284 -0.3796
 7103SOL     OW28143   2.827   3.468   1.488  0.1196  0.1880  0.0293
 7103SOL    HW228144   2.761   3.536   1.501 -1.2730 -1.3201  1.3880
 7103SOL    HW328145   2.844   3.433   1.575  1.0991 -0.9229 -0.5661
 7103SOL    MW428146   2.821   3.472   1.501 -0.1989 -0.4340 -0.6124
 7104SOL     OW28147   5.128   1.720   3.898  0.0842 -0.4690  0.2504
 7104SOL    HW228148   5.043   1.682   3.879 -0.2967  0.6668 -0.4535
 7104SOL    HW328149   5.177   1.712   3.816  0.2307 -0.0748  0.2937
 7104SOL    MW428150   5.123   1.714   3.884 -0.4288  0.0763  0.0891
 7105SOL     OW28151   1.827   4.521   3.355  0.2215 -0.2026  0.5930
 7105SOL    HW228152   1.915   4.502   3.323  0.3926  0.8317  0.4038
 7105SOL    HW328153   1.838   4.593   3.416 -0.3628 -0.8332  1.4738
 7105SOL    MW428154   1.840   4.528   3.359  0.5343 -0.0061  0.2812
 7106SOL     OW28155   2.352   6.435   3.348 -0.0556 -0.0324 -0.0920
 7106SOL    HW228156   2.359   6.350   3.392  0.8620 -0.1006 -0.3570
 7106SOL    HW328157   2.303   6.416   3.268 -1.1941 -0.0198  0.5783
 7106SOL    MW428158   2.346   6.421   3.344  0.3845  0.1496 -0.0660
 7107SOL     OW28159   5.969   5.309   2.593  0.1563 -0.0045  0.5446
 7107SOL    HW228160   5.987   5.255   2.517  0.2570 -1.2433  1.4223
 7107SOL    HW328161   5.878   5.289   2.615  0.3329 -0.1843  1.1444
 7107SOL    MW428162   5.959   5.299   2.586 -0.4970  0.0123 -0.0861
 7108SOL     OW28163   4.133   4.297   2.478  0.0605 -0.1098  0.3328
 7108SOL    HW228164   4.155   4.297   2.385 -2.5413  0.6471 -0.3920
 7108SOL    HW328165   4.121   4.390   2.500 -0.4117 -0.3419  1.1066
 7108SOL    MW428166   4.134   4.309   2.469 -0.6085 -0.2686  0.3040
 7109SOL     OW28167   1.370   0.604   6.007 -0.3114 -0.2212  0.0630
 7109SOL    HW228168   1.399   0.655   5.931  0.6370 -1.1426 -0.2169
 7109SOL    HW328169   1.405   0.651   6.082  0.5710 -0.4638 -0.1924
 7109SOL    MW428170   1.378   0.617   6.007  0.2612 -0.2219  0.3186
 7110SOL     OW28171   1.144   5.714   2.998 -0.3203 -0.4750 -0.4585
 7110SOL    HW228172   1.123   5.689   2.908  0.0756 -0.7384 -0.4803
 7110SOL    HW328173   1.239   5.727   2.998 -0.5868  1.8152 -0.6273
 7110SOL    MW428174   1.154   5.713   2.986 -0.7975 -0.0682 -0.5976
 7111SOL     OW28175   5.684   1.310   3.949  0.1786  0.1310  0.0255
 7111SOL    HW228176   5.732   1.283   3.871 -0.7976  0.2588 -0.6448
 7111SOL    HW328177   5.741   1.287   4.022  1.9716  1.7473 -0.7743
 7111SOL    MW428178   5.698   1.303   3.948 -0.3977  0.3267 -0.2030
 7112SOL     OW28179   0.617   4.578   2.762  0.6421 -0.7657  0.0130
 7112SOL    HW228180   0.539   4.534   2.727 -0.5991  0.5184  1.0505
 7112SOL    HW328181   0.583   4.638   2.828  2.2569  1.5997 -1.1593
 7112SOL    MW428182   0.602   4.580   2.766  0.3677  0.4657  0.1500
 7113SOL     OW28183   0.421   4.244   4.816 -0.3217  0.1104  0.4785
 7113SOL    HW228184   0.501   4.198   4.788 -1.0534 -1.1181  0.3007
 7113SOL    HW328185   0.443   4.279   4.903  0.3752 -0.3057  0.4839
 7113SOL    MW428186   0.435   4.242   4.824 -0.0803 -0.2699 -0.0210
 7114SOL     OW28187   3.511   3.342   0.479  0.3205 -0.2293 -0.4349
 7114SOL    HW228188   3.517   3.404   0.407  0.8511 -0.1698 -0.3399
 7114SOL    HW328189   3.429   3.294   0.462  0.0730  0.2706 -0.6804
 7114SOL    MW428190   3.501   3.344   0.467  0.6086 -0.4572  0.0084
 7115SOL     OW28191   3.239   2.168   4.723 -0.2178 -0.1896  0.2746
 7115SOL    HW228192   3.269   2.147   4.812 -0.7659 -0.7904  0.3265
 7115SOL    HW328193   3.310   2.219   4.685  1.0608 -1.8724  0.2610
 7115SOL    MW428194   3.253   2.172   4.730  0.2450 -0.4480 -0.0976
 7116SOL     OW28195   4.908   0.757   5.740 -0.6182  0.0025 -0.0117
 7116SOL    HW228196   4.892   0.774   5.647  0.2936 -0.2776 -0.2312
 7116SOL    HW328197   4.895   0.842   5.782  0.0847  0.3975 -0.5656
 7116SOL    MW428198   4.905   0.771   5.733 -0.7158 -0.1595  0.0680
 7117SOL     OW28199   4.676   1.410   1.196  0.4691  0.0016 -0.0507
 7117SOL    HW228200   4.756   1.362   1.217 -0.1928 -0.4252  1.7323
 7117SOL    HW328201   4.637   1.431   1.282 -1.1373  0.5062 -0.8514
 7117SOL    MW428202   4.681   1.406   1.210 -0.6258  0.2250 -0.5913
 7118SOL     OW28203   3.781   4.470   0.327 -0.6276  0.7054 -0.1563
 7118SOL    HW228204   3.857   4.418   0.303 -2.8591 -2.3864 -1.1552
 7118SOL    HW328205   3.784   4.474   0.423  1.8716  2.6203 -0.2198
 7118SOL    MW428206   3.791   4.464   0.337 -0.3248  0.0520  0.3839
 7119SOL     OW28207   0.823   3.381   1.538 -0.2714  0.1959  0.0700
 7119SOL    HW228208   0.803   3.473   1.519 -0.0282  0.3383  0.4732
 7119SOL    HW328209   0.737   3.340   1.552 -0.3519  0.5269  0.5939
 7119SOL    MW428210   0.809   3.388   1.537 -0.2716  0.0724  0.1891
 7120SOL     OW28211   5.237   3.877   0.336  0.1526  0.1369  0.2380
 7120SOL    HW228212   5.292   3.899   0.411 -0.1543 -3.2011  1.5989
 7120SOL    HW328213   5.152   3.916   0.356  0.5177  0.6370  0.8267
 7120SOL    MW428214   5.233   3.885   0.348  0.1017  0.1160  0.6792
 7121SOL     OW28215   1.478   2.235   1.812 -0.0887 -0.0544 -0.0431
 7121SOL    HW228216   1.475   2.328   1.833  2.6926 -0.4879  2.9728
 7121SOL    HW328217   1.526   2.231   1.729 -1.0798  1.1779 -0.7205
 7121SOL    MW428218   1.484   2.247   1.804  0.5153  0.0900 -0.1841
 7122SOL     OW28219   3.568   5.304   3.270 -0.0185  0.0656 -0.2810
 7122SOL    HW228220   3.662   5.313   3.286  0.0259 -1.0006  0.1519
 7122SOL    HW328221   3.535   5.394   3.268  0.6018  0.4017  2.0850
 7122SOL    MW428222   3.576   5.317   3.272 -0.3476 -0.3052  0.0450
 7123SOL     OW28223   4.980   2.418   5.176  0.3083  0.0471  0.7364
 7123SOL    HW228224   4.973   2.489   5.240 -0.9571  0.3727  0.2528
 7123SOL    HW328225   5.021   2.458   5.100  0.0996  0.1239  0.6643
 7123SOL    MW428226   4.985   2.433   5.175  0.0155 -0.0462 -0.1018
 7124SOL     OW28227   3.411   6.345   1.489  0.5685 -0.0546 -0.4877
 7124SOL    HW228228   3.434   6.252   1.486  0.2010 -0.2332  1.3796
 7124SOL    HW328229   3.440   6.375   1.575 -1.4733  0.9511 -0.0833
 7124SOL    MW428230   3.418   6.336   1.500 -0.3423  0.1996  0.2057
 7125SOL     OW28231   0.379   5.087   3.230 -0.1080  0.2343  0.4350
 7125SOL    HW228232   0.364   5.040   3.147  0.9531  0.7250 -0.0550
 7125SOL    HW328233   0.292   5.119   3.255 -0.4685 -0.0354 -0.4217
 7125SOL    MW428234   0.365   5.085   3.222 -0.4656  0.3898  0.4570
 7126SOL     OW28235   5.880   3.811   0.300 -0.1423 -0.3540  0.1253
 7126SOL    HW228236   5.873   3.792   0.394 -1.6462 -0.3283  0.0484
 7126SOL    HW328237   5.791   3.833   0.274  0.6126  1.7182 -0.8873
 7126SOL    MW428238   5.867   3.811   0.309 -0.0359  0.9326  0.2364
 7127SOL     OW28239   6.299   3.133   3.867 -0.7433  0.3131 -0.2275
 7127SOL    HW228240   6.310   3.134   3.962 -0.9132  0.6190 -0.2086
 7127SOL    HW328241   6.340   3.214   3.838  0.1448 -0.2302 -0.5164
 7127SOL    MW428242   6.306   3.144   3.876 -0.4897  0.3190 -0.1556
 7128SOL     OW28243   0.833   1.148   0.005  0.6522 -0.3106  0.3779
 7128SOL    HW228244   0.883   1.076  -0.033  1.1186  0.0707  0.2665
 7128SOL    HW328245   0.896   1.196   0.059 -0.2109 -1.4406  2.5289
 7128SOL    MW428246   0.848   1.145   0.007 -0.1128  0.5404 -0.1029
 7129SOL     OW28247   3.247   2.760   4.638 -0.1052  0.0667 -0.7271
 7129SOL    HW228248   3.167   2.814   4.640 -1.1538 -1.1923 -3.4333
 7129SOL    HW328249   3.290   2.784   4.556  1.3417 -0.6122 -0.1956
 7129SOL    MW428250   3.242   2.770   4.627 -0.2098  0.0914 -0.6551
 7130SOL     OW28251   0.485   0.595   1.871  0.0581 -0.7953 -0.3181
 7130SOL    HW228252   0.424   0.668   1.879  0.7109 -0.3060  0.2648
 7130SOL    HW328253   0.512   0.596   1.779  2.1242  1.4149  0.2075
 7130SOL    MW428254   0.481   0.605   1.860  0.4601  0.3054  0.3476
 7131SOL     OW28255   0.269   2.787   3.386 -0.4838 -0.6777  0.6846
 7131SOL    HW228256   0.336   2.814   3.448 -0.6978 -0.0057  0.6336
 7131SOL    HW328257   0.302   2.816   3.301 -0.9206 -0.1625  0.6819
 7131SOL    MW428258   0.282   2.794   3.383  0.2879 -0.1564  0.2807
 7132SOL     OW28259   1.588   1.488   4.130 -0.9568  0.1777 -0.6493
 7132SOL    HW228260   1.518   1.461   4.190 -1.9371  0.6001 -1.5732
 7132SOL    HW328261   1.663   1.432   4.154 -1.0317  0.9247  1.5230
 7132SOL    MW428262   1.589   1.477   4.141  0.2981 -0.1033 -0.3981
 7133SOL     OW28263   3.305   0.265   6.215 -0.4227 -0.2514 -0.2441
 7133SOL    HW228264   3.303   0.360   6.227  0.8741 -0.2596  0.1703
 7133SOL    HW328265   3.212   0.240   6.212 -0.7916  0.9602  0.1115
 7133SOL    MW428266   3.292   0.274   6.216  0.2976 -0.1242 -0.0704
 7134SOL     OW28267   4.980   0.433   0.301  0.3447 -0.0512  0.2531
 7134SOL    HW228268   5.075   0.428   0.312  0.1770 -0.5443  1.7340
 7134SOL    HW328269   4.953   0.511   0.349  0.0185  0.1949 -0.3202
 7134SOL    MW428270   4.989   0.442   0.309  0.0437  0.1555  0.3429
 7135SOL     OW28271   0.738   3.471   5.555  0.1287  0.1798  0.7543
 7135SOL    HW228272   0.718   3.385   5.518 -1.3869  0.7725  0.1439
 7135SOL    HW328273   0.794   3.512   5.489 -0.7489  0.3846  0.1107
 7135SOL    MW428274   0.743   3.465   5.541 -0.0010  0.2709 -0.6442
 7136SOL     OW28275   4.788   3.747   3.614 -0.3943  0.2253 -0.0473
 7136SOL    HW228276   4.821   3.750   3.524  0.7355 -0.0883  0.3374
 7136SOL    HW328277   4.816   3.662   3.647 -0.1445  0.6416  0.8418
 7136SOL    MW428278   4.796   3.736   3.607  0.0404  0.1357 -0.2083
 7137SOL     OW28279   4.493   2.952   3.902  0.4879 -0.0052  0.2449
 7137SOL    HW228280   4.480   2.860   3.923 -1.5729  0.6291  2.1623
 7137SOL    HW328281   4.515   2.953   3.809  1.3789 -2.4466  0.3605
 7137SOL    MW428282   4.494   2.940   3.893  0.0143 -0.0592 -0.0158
 7138SOL     OW28283   2.149   2.437   5.093 -0.0900  0.3000 -0.1483
 7138SOL    HW228284   2.126   2.529   5.093 -0.4340  0.2158 -0.4016
 7138SOL    HW328285   2.163   2.416   5.000  1.3449  0.4308  0.0114
 7138SOL    MW428286   2.148   2.446   5.080  0.4357  0.2732  0.9348
 7139SOL     OW28287   5.662   4.735   1.029 -0.1129 -0.1395  0.2189
 7139SOL    HW228288   5.692   4.692   1.109 -0.6068 -0.3002  0.3247
 7139SOL    HW328289   5.742   4.760   0.983  0.1801 -1.1426  0.1715
 7139SOL    MW428290   5.676   4.733   1.033  0.8547  0.7290  0.2577
 7140SOL     OW28291   4.955   4.034   5.899  0.4835  0.2850  0.4148
 7140SOL    HW228292   4.943   4.094   5.973 -0.6688  2.1501 -1.1696
 7140SOL    HW328293   4.980   4.091   5.826  1.8307 -1.5187 -0.6030
 7140SOL    MW428294   4.956   4.049   5.899  0.6061 -0.1909 -0.0724
 7141SOL     OW28295   2.366   5.858   3.279  0.0851  0.0952 -0.1093
 7141SOL    HW228296   2.323   5.942   3.294  1.3877  0.7502  0.0783
 7141SOL    HW328297   2.337   5.831   3.192 -0.5188  0.6286 -0.0771
 7141SOL    MW428298   2.357   5.865   3.270 -0.5240 -0.0033 -0.0148
 7142SOL     OW28299   6.172   1.531   6.154 -0.0164  0.0111  0.8047
 7142SOL    HW228300   6.196   1.593   6.085  3.0343 -1.9774 -0.1594
 7142SOL    HW328301   6.092   1.489   6.122  0.9943 -0.4235 -1.3434
 7142SOL    MW428302   6.165   1.533   6.141 -0.2564 -0.1114  0.1965
 7143SOL     OW28303   1.282   1.896   0.621 -0.5577 -0.0274 -0.3103
 7143SOL    HW228304   1.312   1.832   0.685 -1.6486  2.0606  2.4883
 7143SOL    HW328305   1.338   1.972   0.634 -0.2777  0.2076 -2.4697
 7143SOL    MW428306   1.293   1.898   0.631 -0.6511  0.4929  0.0560
 7144SOL     OW28307   5.481   4.469   3.622 -0.0326  0.5992  0.0524
 7144SOL    HW228308   5.491   4.469   3.717 -2.8404 -0.2945  0.4655
 7144SOL    HW328309   5.427   4.391   3.604  0.7781  0.5068 -2.3288
 7144SOL    MW428310   5.475   4.458   3.632  0.0548 -0.6000  0.3293
 7145SOL     OW28311   3.859   2.819   4.437 -0.0873  0.0535  0.1964
 7145SOL    HW228312   3.916   2.785   4.368 -0.8600 -2.0175  0.4906
 7145SOL    HW328313   3.899   2.787   4.518  1.5946  3.5994  0.9542
 7145SOL    MW428314   3.872   2.810   4.439  0.6836 -0.1635 -0.4269
 7146SOL     OW28315   3.045   1.944   2.158  0.0531  0.3005 -0.2573
 7146SOL    HW228316   3.039   1.885   2.082  0.8721  0.6055 -0.5713
 7146SOL    HW328317   3.136   1.971   2.160  0.1520 -0.0506  1.1192
 7146SOL    MW428318   3.056   1.940   2.148 -0.2982 -0.3253 -0.1627
 7147SOL     OW28319   3.743   2.516   5.486 -0.5057  0.5479 -0.3316
 7147SOL    HW228320   3.759   2.581   5.554 -0.9598  0.8028 -0.4653
 7147SOL    HW328321   3.807   2.537   5.418  1.9746 -1.4831  1.1887
 7147SOL    MW428322   3.754   2.527   5.486 -0.5276  0.7259 -0.3981
 7148SOL     OW28323   3.624   6.225   5.115  0.7083 -0.1278  0.0801
 7148SOL    HW228324   3.677   6.251   5.039  0.6217  1.2230  0.4521
 7148SOL    HW328325   3.534   6.235   5.085  0.6742  0.6190  0.4208
 7148SOL    MW428326   3.619   6.230   5.101 -0.1352 -0.7110 -0.0455
 7149SOL     OW28327   1.205   1.123   4.988 -0.6867 -0.0913  0.2488
 7149SOL    HW228328   1.184   1.037   4.951  0.0697 -0.4540  0.6393
 7149SOL    HW328329   1.299   1.133   4.974 -0.7258  0.5809  0.4109
 7149SOL    MW428330   1.214   1.113   4.981  0.2513  0.4679 -0.4256
 7150SOL     OW28331   0.822   3.317   1.261 -0.6218 -0.1342 -0.2315
 7150SOL    HW228332   0.843   3.349   1.349  0.5158 -1.6277  0.0802
 7150SOL    HW328333   0.742   3.267   1.273  0.7376 -2.2779  0.4784
 7150SOL    MW428334   0.815   3.315   1.274  0.2503  0.3149  0.3422
 7151SOL     OW28335   5.492   3.305   5.636  0.2288  0.2117  0.3768
 7151SOL    HW228336   5.518   3.397   5.647 -0.3274  0.4133  0.0836
 7151SOL    HW328337   5.420   3.294   5.698 -0.7958  0.4496 -0.7318
 7151SOL    MW428338   5.486   3.316   5.646  0.2645 -0.2028  0.1791
 7152SOL     OW28339   1.369   1.636   3.171 -0.8156  0.3120  0.2041
 7152SOL    HW228340   1.300   1.656   3.234 -0.9585  2.6419 -0.5851
 7152SOL    HW328341   1.361   1.704   3.104  1.5238 -0.0087 -0.4948
 7152SOL    MW428342   1.359   1.648   3.171 -0.1117 -0.3848 -0.2784
 7153SOL     OW28343   4.643   3.909   4.783 -0.3109  0.2857 -0.2310
 7153SOL    HW228344   4.591   3.910   4.703  0.3910  2.8846 -0.7371
 7153SOL    HW328345   4.619   3.827   4.826  0.5145 -2.0876 -3.8414
 7153SOL    MW428346   4.633   3.898   4.778  0.5632  0.4875  0.3303
 7154SOL     OW28347   6.241   0.550   3.891  0.1640  0.0627 -0.0051
 7154SOL    HW228348   6.311   0.523   3.950 -0.2553  0.8298  0.8590
 7154SOL    HW328349   6.275   0.626   3.845  0.2434 -0.1345 -0.2754
 7154SOL    MW428350   6.255   0.556   3.893  0.0280 -0.4995  0.5145
 7155SOL     OW28351   2.755   2.721   0.131  0.1235  0.5245  0.9355
 7155SOL    HW228352   2.760   2.750   0.040  0.9941  0.5774  0.9933
 7155SOL    HW328353   2.787   2.795   0.182 -0.0814  0.3890  1.2673
 7155SOL    MW428354   2.760   2.735   0.126 -0.0986  0.5142  0.5519
 7156SOL     OW28355   3.421   5.575   3.282  0.0534 -0.3572  0.1026
 7156SOL    HW228356   3.425   5.563   3.377 -0.1762 -3.7899 -0.2067
 7156SOL    HW328357   3.331   5.552   3.259  0.2530 -0.0805 -1.0188
 7156SOL    MW428358   3.409   5.570   3.291  0.9110  0.0632 -0.1219
 7157SOL     OW28359   0.730   6.064   0.848  0.1772  0.1124  0.0100
 7157SOL    HW228360   0.766   6.153   0.852  1.7785 -0.4423 -0.8814
 7157SOL    HW328361   0.773   6.025   0.772 -0.8774 -1.2681  0.0953
 7157SOL    MW428362   0.741   6.071   0.839  0.0057  0.7642 -0.7810
 7158SOL     OW28363   4.251   0.485   5.797 -0.2848 -0.3363  0.2269
 7158SOL    HW228364   4.314   0.543   5.840  0.1331 -0.5476 -0.0935
 7158SOL    HW328365   4.303   0.438   5.732 -1.0290  0.4983 -1.0268
 7158SOL    MW428366   4.266   0.487   5.794 -0.0282  0.0319 -0.2201
 7159SOL     OW28367   1.768   2.348   3.169 -0.2652 -0.3348  0.6559
 7159SOL    HW228368   1.754   2.406   3.244  0.0440 -0.3496  0.7246
 7159SOL    HW328369   1.801   2.406   3.100 -1.0094 -0.2337  0.3760
 7159SOL    MW428370   1.771   2.363   3.170 -0.1830  0.6932 -0.2628
 7160SOL     OW28371   0.808   1.408   5.352 -0.0619 -0.4572 -0.3632
 7160SOL    HW228372   0.824   1.342   5.420  3.2728  1.4060  0.9128
 7160SOL    HW328373   0.729   1.453   5.381 -0.0502 -1.2497  0.9928
 7160SOL    MW428374   0.800   1.405   5.365  0.6152 -0.3166  0.6223
 7161SOL     OW28375   6.359   4.162   1.162 -0.7024 -0.5475 -0.6401
 7161SOL    HW228376   6.454   4.171   1.155 -0.7239 -0.3661 -0.7149
 7161SOL    HW328377   6.326   4.182   1.074 -0.7381 -1.6992 -0.9044
 7161SOL    MW428378   6.367   4.166   1.149 -0.6306 -0.0994  0.1901
 7162SOL     OW28379   2.502   2.702   1.597 -0.4652  0.1213 -0.5081
 7162SOL    HW228380   2.484   2.663   1.511  0.4571 -0.6955 -0.3386
 7162SOL    HW328381   2.502   2.629   1.658 -2.5021  0.8410  0.4662
 7162SOL    MW428382   2.500   2.688   1.593 -0.1349 -0.0179  0.3044
 7163SOL     OW28383   4.970   4.443   2.860 -0.1450  0.1964  0.3672
 7163SOL    HW228384   5.066   4.451   2.857 -0.2694  1.6222 -1.6753
 7163SOL    HW328385   4.943   4.504   2.929  0.3570  0.5629  0.2455
 7163SOL    MW428386   4.979   4.452   2.869  0.1684 -0.0097  0.2286
 7164SOL     OW28387   0.990   2.735   1.309  0.0654 -0.5782 -0.0125
 7164SOL    HW228388   1.075   2.703   1.341  0.5455  0.3525 -0.3195
 7164SOL    HW328389   0.959   2.793   1.379  0.9716  1.2124 -1.0186
 7164SOL    MW428390   0.997   2.738   1.323 -0.2520 -0.0452 -0.7101
 7165SOL     OW28391   3.659   1.910   0.699  0.6385  0.6890  0.0090
 7165SOL    HW228392   3.592   1.846   0.676  1.8263 -1.1163  1.3279
 7165SOL    HW328393   3.610   1.984   0.735 -0.6740 -1.2939  2.6641
 7165SOL    MW428394   3.644   1.911   0.701 -0.5715 -0.5297 -0.0147
 7166SOL     OW28395   0.834   1.029   5.149 -0.6709  0.8284  0.0407
 7166SOL    HW228396   0.921   1.068   5.161  1.0094 -2.1149 -1.5530
 7166SOL    HW328397   0.825   1.020   5.055 -2.5915  0.6822  0.1991
 7166SOL    MW428398   0.845   1.033   5.138  0.4287 -0.2699 -0.1870
 7167SOL     OW28399   2.697   2.908   5.184  0.0610 -0.1245  0.3755
 7167SOL    HW228400   2.705   2.932   5.092 -0.5052 -0.0719  0.3346
 7167SOL    HW328401   2.775   2.944   5.226 -0.3299  1.0275  0.1523
 7167SOL    MW428402   2.708   2.916   5.178 -0.3515  0.0447  0.1156
 7168SOL     OW28403   0.683   4.845   5.241 -0.3022 -0.4647 -0.0959
 7168SOL    HW228404   0.606   4.804   5.202 -0.3787 -0.5185  0.1112
 7168SOL    HW328405   0.743   4.859   5.167 -0.1461 -1.2374 -0.1189
 7168SOL    MW428406   0.681   4.842   5.226 -0.1729 -0.3417  0.2715
 7169SOL     OW28407   5.277   2.115   2.805  0.5853 -0.2102  0.2028
 7169SOL    HW228408   5.342   2.177   2.773  1.1092  0.4838  2.3917
 7169SOL    HW328409   5.201   2.168   2.826  0.1357 -0.6834 -0.2055
 7169SOL    MW428410   5.276   2.130   2.804  0.1087 -0.0952  0.0942
 7170SOL     OW28411   0.812   1.973   2.084  0.1887 -0.0029 -0.0493
 7170SOL    HW228412   0.903   1.972   2.054  0.7654 -0.4281  1.5491
 7170SOL    HW328413   0.765   2.027   2.021  1.3757 -0.4837 -1.3854
 7170SOL    MW428414   0.818   1.980   2.072 -0.7634  0.2719 -0.0533
 7171SOL     OW28415   0.285   3.761   5.164  0.1474 -0.2270  0.0023
 7171SOL    HW228416   0.299   3.847   5.126 -0.3678 -0.3950 -0.5813
 7171SOL    HW328417   0.261   3.705   5.090 -2.2778 -0.2501  0.7030
 7171SOL    MW428418   0.284   3.765   5.149 -0.2719  0.1441 -0.2340
 7172SOL     OW28419   0.455   0.192   2.923 -0.1663  0.0987 -0.2009
 7172SOL    HW228420   0.390   0.259   2.946  0.4502 -0.1462  2.6546
 7172SOL    HW328421   0.404   0.111   2.916 -0.1873 -0.3556  3.3643
 7172SOL    MW428422   0.440   0.190   2.925  0.1758 -0.1177  0.2708
 7173SOL     OW28423   4.205   0.222   4.109  0.0831 -0.4240  0.1640
 7173SOL    HW228424   4.161   0.162   4.049 -0.5986 -0.8552  1.0693
 7173SOL    HW328425   4.288   0.178   4.131 -0.0496 -0.6580  0.1944
 7173SOL    MW428426   4.210   0.209   4.104 -0.4618 -0.2839 -0.0046
 7174SOL     OW28427   5.277   1.588   3.210 -0.2499  0.3386 -0.0060
 7174SOL    HW228428   5.337   1.655   3.176  0.9521  0.2558  1.8081
 7174SOL    HW328429   5.248   1.540   3.132 -2.7424  4.0943 -1.6602
 7174SOL    MW428430   5.281   1.590   3.195 -0.1092 -0.1144  0.1651
 7175SOL     OW28431   5.951   2.252   6.085 -0.0728 -0.2461 -0.1886
 7175SOL    HW228432   6.035   2.297   6.083  0.4498 -1.0673  1.3735
 7175SOL    HW328433   5.887   2.322   6.100  0.1954  0.4926 -2.2419
 7175SOL    MW428434   5.954   2.267   6.087 -0.1960 -0.2481 -0.3878
 7176SOL     OW28435   3.378   5.542   3.554  0.6008 -0.5725  0.0081
 7176SOL    HW228436   3.350   5.451   3.541  0.5529 -0.5221 -0.2445
 7176SOL    HW328437   3.459   5.534   3.605 -0.5203 -0.6629  1.8788
 7176SOL    MW428438   3.385   5.529   3.559  0.7125  0.2076 -0.2628
 7177SOL     OW28439   2.990   4.812   2.981 -0.5712 -0.5588 -0.3817
 7177SOL    HW228440   3.002   4.728   2.937  0.6574 -0.1039 -0.9519
 7177SOL    HW328441   3.076   4.854   2.977 -0.3289 -0.5469  2.5752
 7177SOL    MW428442   3.003   4.806   2.975 -0.2044 -0.4915  0.5102
 7178SOL     OW28443   1.280   5.479   3.827 -0.5682  0.2397  0.1831
 7178SOL    HW228444   1.353   5.440   3.875  0.0771 -0.0503 -1.0107
 7178SOL    HW328445   1.248   5.549   3.885 -1.1314 -1.3730  1.9444
 7178SOL    MW428446   1.285   5.483   3.841 -0.8157  0.0008 -0.3721
 7179SOL     OW28447   5.731   3.910   6.351 -0.1503  0.4066  0.0709
 7179SOL    HW228448   5.767   3.915   6.262  0.0125  0.3295  0.1330
 7179SOL    HW328449   5.652   3.856   6.341  0.7610 -1.0038  0.2523
 7179SOL    MW428450   5.725   3.903   6.338 -0.0300 -0.4109  0.4055
 7180SOL     OW28451   6.284   3.569   5.356 -0.3041 -0.1502  0.4980
 7180SOL    HW228452   6.375   3.562   5.327 -0.4170 -0.0358  0.1011
 7180SOL    HW328453   6.289   3.571   5.451  0.0550 -0.9395  0.5073
 7180SOL    MW428454   6.296   3.568   5.365 -1.0225 -0.4667 -0.6763
 7181SOL     OW28455   0.039   5.304   1.048  0.1819  0.4405 -0.3913
 7181SOL    HW228456  -0.025   5.256   1.099  0.8524 -0.6563 -0.5266
 7181SOL    HW328457   0.089   5.355   1.112 -0.1184  0.4421 -0.1602
 7181SOL    MW428458   0.037   5.304   1.063  0.0038  0.2436 -0.8262
 7182SOL     OW28459   4.741   2.009   6.407  0.0467  0.5582  0.0509
 7182SOL    HW228460   4.719   2.076   6.342  0.3188 -1.0371 -1.7964
 7182SOL    HW328461   4.793   2.055   6.473 -1.3179  2.5200 -0.1575
 7182SOL    MW428462   4.745   2.024   6.407 -0.5964  0.6301  0.4775
 7183SOL     OW28463   5.016   5.708   4.885 -0.6729  0.6671 -0.1541
 7183SOL    HW228464   4.945   5.767   4.912  1.2102  2.0004  2.2934
 7183SOL    HW328465   5.081   5.766   4.846  0.0980 -0.1777 -0.1362
 7183SOL    MW428466   5.015   5.724   4.884 -0.2427  0.1356 -0.2893
 7184SOL     OW28467   5.475   5.530   6.426  0.7473 -0.2697  0.1855
 7184SOL    HW228468   5.549   5.591   6.426 -0.4112  1.3178 -2.2281
 7184SOL    HW328469   5.502   5.459   6.368  0.6313 -0.0093 -0.1911
 7184SOL    MW428470   5.488   5.529   6.418 -0.2001 -0.2510 -0.9052
 7185SOL     OW28471   0.675   2.997   1.670 -0.5658  0.1379 -0.0392
 7185SOL    HW228472   0.756   2.967   1.629 -1.0634 -0.6713 -0.4636
 7185SOL    HW328473   0.698   3.007   1.763 -0.4897 -2.2490  0.2802
 7185SOL    MW428474   0.688   2.994   1.677  0.1039 -0.2040 -0.2607
 7186SOL     OW28475   6.008   4.092   6.384 -0.3239  0.6477  0.2086
 7186SOL    HW228476   5.961   4.072   6.303  0.9136 -0.0549 -0.3584
 7186SOL    HW328477   5.945   4.074   6.453 -0.9544 -0.0839 -0.5374
 7186SOL    MW428478   5.994   4.087   6.382 -0.0460 -0.3220  0.5579
 7187SOL     OW28479   3.811   2.032   1.776 -0.2165 -0.3435 -0.0487
 7187SOL    HW228480   3.863   2.101   1.736  0.9764 -1.1064  0.1311
 7187SOL    HW328481   3.720   2.061   1.766  0.2647  1.3631  0.2778
 7187SOL    MW428482   3.806   2.045   1.770 -0.0975  0.5361 -0.4100
 7188SOL     OW28483   3.239   6.222   0.028 -0.4468  0.5135 -0.0657
 7188SOL    HW228484   3.160   6.217   0.083 -2.3261  1.2173 -2.5086
 7188SOL    HW328485   3.250   6.134  -0.006  1.6759 -0.3340  2.5156
 7188SOL    MW428486   3.230   6.210   0.031  0.1088 -0.5581 -0.2269
 7189SOL     OW28487   3.899   6.247   3.956 -0.1879 -0.2536 -0.0739
 7189SOL    HW228488   3.902   6.179   4.024 -0.6398 -1.0184 -0.8074
 7189SOL    HW328489   3.949   6.210   3.883  1.5114  1.1291  0.3091
 7189SOL    MW428490   3.906   6.233   3.956  0.3060  0.1538  0.5786
 7190SOL     OW28491   3.857   1.280   5.503 -0.1027 -0.6508  0.6024
 7190SOL    HW228492   3.932   1.227   5.475  0.9140  1.3586 -0.6441
 7190SOL    HW328493   3.895   1.351   5.555 -1.0339  0.7378 -0.5394
 7190SOL    MW428494   3.872   1.282   5.506  1.0704 -0.2614  0.4810
 7191SOL     OW28495   4.736   5.357   1.422  0.0360 -0.0119  0.2496
 7191SOL    HW228496   4.718   5.397   1.337  1.2057 -1.8870 -0.9621
 7191SOL    HW328497   4.803   5.292   1.403 -1.1335 -1.9120  2.2369
 7191SOL    MW428498   4.743   5.354   1.408  0.7669  0.2069 -0.1736
 7192SOL     OW28499   3.909   2.103   3.615  0.5931  0.1200 -0.4585
 7192SOL    HW228500   3.887   2.013   3.592  0.8240  0.2802 -1.3482
 7192SOL    HW328501   3.972   2.130   3.548 -0.6804  1.4782 -1.1418
 7192SOL    MW428502   3.915   2.094   3.603  0.3283 -0.1374 -0.0151
 7193SOL     OW28503   3.722   6.419   0.208 -0.5514 -0.1405  0.1088
 7193SOL    HW228504   3.804   6.460   0.232 -0.7237  0.4315 -0.2572
 7193SOL    HW328505   3.743   6.326   0.200 -0.0680 -0.0727  0.5521
 7193SOL    MW428506   3.735   6.412   0.210 -0.1203  0.6362  0.0839
 7194SOL     OW28507   3.316   0.650   1.653 -0.0453  0.6139 -0.2430
 7194SOL    HW228508   3.302   0.612   1.739 -0.6708 -0.9913 -0.9985
 7194SOL    HW328509   3.403   0.689   1.658 -0.1699  0.7566  1.1724
 7194SOL    MW428510   3.326   0.650   1.665  0.2474 -0.7281  0.0705
 7195SOL     OW28511   0.532   1.397   0.797  0.4122  0.3182  0.5585
 7195SOL    HW228512   0.543   1.428   0.887  1.9025 -0.0306  0.5271
 7195SOL    HW328513   0.446   1.356   0.796 -1.4123  3.7386  0.7977
 7195SOL    MW428514   0.522   1.396   0.809  0.3617 -1.1527 -0.0688
 7196SOL     OW28515   0.494   4.233   1.571 -0.2447  0.2434 -0.1483
 7196SOL    HW228516   0.400   4.243   1.588 -0.4262  1.3194 -1.5455
 7196SOL    HW328517   0.531   4.204   1.654 -1.8698 -0.6113  0.3101
 7196SOL    MW428518   0.486   4.231   1.584  0.0607  0.1976  0.9157
 7197SOL     OW28519   2.055   4.608   1.934 -0.2694 -0.4550 -0.7345
 7197SOL    HW228520   2.088   4.553   2.006  2.0823  0.0526 -1.3568
 7197SOL    HW328521   2.023   4.545   1.869  0.5465 -1.0462 -0.5822
 7197SOL    MW428522   2.055   4.592   1.935 -0.0520 -0.2941 -0.1205
 7198SOL     OW28523   4.477   4.147   1.327  0.3821  0.0605  0.1977
 7198SOL    HW228524   4.533   4.107   1.394  1.5475 -0.1282 -0.8535
 7198SOL    HW328525   4.423   4.210   1.376  2.2939  1.0771  1.1200
 7198SOL    MW428526   4.477   4.150   1.342 -0.4129 -0.6192 -0.5860
 7199SOL     OW28527   1.295   2.564   6.030 -0.1006  0.3367  0.5365
 7199SOL    HW228528   1.258   2.518   5.955  0.3339  2.0028 -0.7503
 7199SOL    HW328529   1.388   2.569   6.012 -0.0921  1.3908  0.8038
 7199SOL    MW428530   1.302   2.559   6.018 -0.0854  0.3784 -0.0798
 7200SOL     OW28531   3.115   4.781   6.068  0.0266  0.1007 -0.6970
 7200SOL    HW228532   3.085   4.865   6.102  0.6512 -0.1877  0.6517
 7200SOL    HW328533   3.167   4.802   5.991 -1.3992  0.7925 -1.4908
 7200SOL    MW428534   3.118   4.795   6.063  0.5315  0.3903  0.4942
 7201SOL     OW28535   1.514   5.036   1.010  0.7011 -0.1659  0.2899
 7201SOL    HW228536   1.548   5.125   1.004  0.8578 -0.1530  1.1968
 7201SOL    HW328537   1.419   5.046   1.010  0.7172 -0.0221  0.0900
 7201SOL    MW428538   1.506   5.049   1.009  0.0498  0.0249  0.6579
 7202SOL     OW28539   0.882   3.379   0.815  0.0602 -0.2108 -0.0001
 7202SOL    HW228540   0.955   3.408   0.759  2.0248 -2.9643  0.8843
 7202SOL    HW328541   0.910   3.401   0.904 -0.1645 -1.3090  0.3541
 7202SOL    MW428542   0.896   3.386   0.820 -0.2079 -0.1478 -0.5540
 7203SOL     OW28543   5.487   4.306   0.559 -0.0438 -0.1467 -0.1274
 7203SOL    HW228544   5.548   4.372   0.527  1.1112 -1.2080 -0.1804
 7203SOL    HW328545   5.401   4.335   0.527  0.4529  1.2427 -0.2535
 7203SOL    MW428546   5.483   4.318   0.551  0.8385  0.4729  0.4945
 7204SOL     OW28547   6.227   0.509   1.045 -0.3735 -0.5090 -0.0543
 7204SOL    HW228548   6.287   0.441   1.013  1.2979  0.6913  0.3998
 7204SOL    HW328549   6.251   0.588   0.997 -0.5692  0.3511  1.2107
 7204SOL    MW428550   6.238   0.510   1.035  0.0730 -0.1710 -0.1690
 7205SOL     OW28551   3.579   6.264   6.127 -0.4780 -0.0118  0.4421
 7205SOL    HW228552   3.497   6.225   6.157 -1.5827  1.4313 -0.5353
 7205SOL    HW328553   3.568   6.357   6.144  1.5819  0.0666  1.6035
 7205SOL    MW428554   3.566   6.271   6.133  0.1487  0.0840 -0.0541
 7206SOL     OW28555   3.090   5.998   4.631  0.4155 -0.0326  0.0981
 7206SOL    HW228556   3.064   6.023   4.720 -1.9043 -1.0551 -0.1943
 7206SOL    HW328557   3.007   5.996   4.583  1.3046 -1.7688 -1.4772
 7206SOL    MW428558   3.075   6.001   4.637  0.0556  0.1926  0.1668
 7207SOL     OW28559   2.153   4.454   2.149 -0.3721 -0.0730  0.0351
 7207SOL    HW228560   2.206   4.482   2.223 -0.8577  0.4260  0.1945
 7207SOL    HW328561   2.195   4.373   2.119 -0.6471 -0.7305  1.3621
 7207SOL    MW428562   2.166   4.447   2.155  0.0245 -0.2050  0.7417
 7208SOL     OW28563   2.447   4.121   4.089  0.1216 -0.6368 -0.3777
 7208SOL    HW228564   2.520   4.153   4.142  1.1345 -0.4124 -1.8366
 7208SOL    HW328565   2.462   4.026   4.083  1.8498 -0.3298 -2.7489
 7208SOL    MW428566   2.459   4.112   4.095 -0.1217  1.1452  0.0146
 7209SOL     OW28567   3.088   6.438   4.086 -0.0939  0.1269 -0.1762
 7209SOL    HW228568   3.077   6.525   4.125 -0.4084  1.2356 -2.5969
 7209SOL    HW328569   3.021   6.384   4.129  0.3406  0.9486  1.6134
 7209SOL    MW428570   3.078   6.442   4.097  0.5299  0.0578 -0.4078
 7210SOL     OW28571   5.634   2.259   5.537  0.3905  0.3114  0.1459
 7210SOL    HW228572   5.580   2.256   5.458 -1.6313  0.5027  1.4493
 7210SOL    HW328573   5.708   2.314   5.512 -0.0296  0.1315 -1.6918
 7210SOL    MW428574   5.637   2.266   5.523 -0.2385  0.3819 -1.0242
 7211SOL     OW28575   5.632   2.475   3.448  0.7305 -0.2284  0.0993
 7211SOL    HW228576   5.713   2.508   3.411 -0.2753  1.6829 -0.5187
 7211SOL    HW328577   5.653   2.386   3.478  2.7801 -0.0951 -0.8348
 7211SOL    MW428578   5.646   2.468   3.447  0.2908  0.7883  0.5542
 7212SOL     OW28579   0.707   0.048   4.491 -0.8315 -0.3843  0.2071
 7212SOL    HW228580   0.778  -0.014   4.511 -0.4371  0.1992  0.6555
 7212SOL    HW328581   0.646  -0.003   4.438  0.1991 -0.7325 -0.6832
 7212SOL    MW428582   0.708   0.033   4.487  0.3929 -0.5065  0.2322
 7213SOL     OW28583   4.913   4.386   0.305 -0.3276  0.4989 -0.5404
 7213SOL    HW228584   4.864   4.400   0.386  0.6248  0.6124  0.0407
 7213SOL    HW328585   4.933   4.293   0.305 -2.0234  0.0949 -1.6727
 7213SOL    MW428586   4.909   4.376   0.316  0.3130  0.0466  0.0677
 7214SOL     OW28587   2.098   1.283   0.263 -0.0073 -0.3996 -0.2259
 7214SOL    HW228588   2.174   1.262   0.209 -0.1666 -0.4879 -0.4158
 7214SOL    HW328589   2.133   1.288   0.352  0.3437  0.2022 -0.3880
 7214SOL    MW428590   2.112   1.281   0.268 -0.2070  0.0361 -0.0654
 7215SOL     OW28591   4.657   4.161   4.622 -0.6499 -0.0298 -0.0185
 7215SOL    HW228592   4.678   4.089   4.563 -1.5026 -0.5241  0.2733
 7215SOL    HW328593   4.742   4.199   4.645 -0.0948 -1.6331  0.6972
 7215SOL    MW428594   4.671   4.157   4.617 -0.1034 -0.0219 -1.0799
 7216SOL     OW28595   4.327   2.421   5.704  0.6483  0.2926 -0.0597
 7216SOL    HW228596   4.349   2.402   5.795  1.0958  0.3598 -0.1535
 7216SOL    HW328597   4.294   2.337   5.670 -1.2413  0.6853  0.6543
 7216SOL    MW428598   4.326   2.407   5.712 -0.3300 -0.2678 -0.6191
 7217SOL     OW28599   3.299   4.975   0.140 -0.0570 -0.1206 -0.2249
 7217SOL    HW228600   3.314   4.931   0.224 -0.3039 -0.8615 -0.5639
 7217SOL    HW328601   3.384   5.013   0.117  0.2328 -0.6538 -0.0575
 7217SOL    MW428602   3.312   4.974   0.148  0.2033 -0.4742 -0.5068
 7218SOL     OW28603   2.353   0.680   3.863  0.3011  0.4179  0.0642
 7218SOL    HW228604   2.374   0.606   3.806 -0.1127  0.6368 -0.3844
 7218SOL    HW328605   2.316   0.641   3.942  1.4130  0.0767  0.4407
 7218SOL    MW428606   2.351   0.665   3.866  0.3561 -0.2135 -0.2979
 7219SOL     OW28607   6.309   4.572   3.098 -0.2102  0.6293 -0.1214
 7219SOL    HW228608   6.293   4.635   3.028 -1.1818  0.3353 -0.1860
 7219SOL    HW328609   6.232   4.514   3.096 -0.4647  0.8676  1.4419
 7219SOL    MW428610   6.297   4.573   3.089  0.0650 -0.2437 -0.2624
 7220SOL     OW28611   0.499   6.189   2.964 -0.0505  0.1003  0.3369
 7220SOL    HW228612   0.561   6.261   2.951  0.2179  0.0256  1.1697
 7220SOL    HW328613   0.475   6.194   3.056 -0.4036 -0.5770  0.2859
 7220SOL    MW428614   0.504   6.199   2.974  0.1550 -0.2473  0.1392
 7221SOL     OW28615   0.575   1.163   3.490 -0.0777  0.7146 -0.0736
 7221SOL    HW228616   0.646   1.205   3.442  2.2491 -1.3263  1.3867
 7221SOL    HW328617   0.513   1.136   3.423  1.7592  0.2997 -1.6735
 7221SOL    MW428618   0.576   1.165   3.475  0.1406  0.4161  0.7629
 7222SOL     OW28619   3.713   2.827   5.061  0.1209 -0.0757 -0.1933
 7222SOL    HW228620   3.733   2.831   5.154  1.4930 -2.0298 -0.3295
 7222SOL    HW328621   3.636   2.883   5.050  0.1003  0.4290  2.0443
 7222SOL    MW428622   3.705   2.835   5.072 -0.3030 -0.2789  0.0865
 7223SOL     OW28623   3.386   3.002   4.881  0.8409 -0.4435 -0.2976
 7223SOL    HW228624   3.426   2.935   4.826  2.6662  0.8084 -0.5739
 7223SOL    HW328625   3.450   3.017   4.951  0.0312  0.3264  0.2990
 7223SOL    MW428626   3.400   2.995   4.883 -0.3126 -0.0901 -0.0191
 7224SOL     OW28627   0.597   6.095   4.960  0.2325  0.1256 -0.2683
 7224SOL    HW228628   0.623   6.068   5.049  0.2551  1.1882  0.0664
 7224SOL    HW328629   0.513   6.052   4.946  0.4774 -0.4760  0.0625
 7224SOL    MW428630   0.590   6.086   4.970 -0.0829 -0.2513  0.3767
 7225SOL     OW28631   0.864   3.452   2.145 -0.4533  0.4310 -0.4860
 7225SOL    HW228632   0.863   3.490   2.057  1.6512  0.6541 -0.4852
 7225SOL    HW328633   0.956   3.460   2.172 -0.6636 -1.4264  0.9525
 7225SOL    MW428634   0.876   3.458   2.137  0.7659  0.2619 -0.2193
 7226SOL     OW28635   5.271   0.483   0.295 -0.0389 -0.2933 -0.4241
 7226SOL    HW228636   5.297   0.506   0.206 -1.4744 -0.8679 -1.0169
 7226SOL    HW328637   5.324   0.405   0.316  1.2425  0.5969 -0.2601
 7226SOL    MW428638   5.282   0.475   0.286  0.0180  0.1570 -0.7569
 7227SOL     OW28639   1.200   1.401   2.980 -0.6386 -0.3151  0.4811
 7227SOL    HW228640   1.236   1.320   2.944  0.2838  0.2559  0.0794
 7227SOL    HW328641   1.275   1.444   3.020 -1.0337  0.5511  0.3003
 7227SOL    MW428642   1.214   1.396   2.981 -0.1781  0.5650 -0.0610
 7228SOL     OW28643   0.378   0.793   6.416  0.0569  1.0538  0.0105
 7228SOL    HW228644   0.314   0.747   6.363  1.1880 -0.3618 -0.2065
 7228SOL    HW328645   0.451   0.811   6.356  1.3956 -0.6584  1.0195
 7228SOL    MW428646   0.379   0.789   6.401  0.1231  0.3146  0.4466
 7229SOL     OW28647   1.219   5.270   2.504  0.1648 -0.0303  0.2163
 7229SOL    HW228648   1.250   5.344   2.556 -1.4741  0.7316  0.1705
 7229SOL    HW328649   1.187   5.207   2.569 -1.1733  0.5902  0.1696
 7229SOL    MW428650   1.219   5.271   2.520 -0.1913  0.7502  0.1082
 7230SOL     OW28651   5.638   5.275   0.574  0.1685 -0.1033 -0.1616
 7230SOL    HW228652   5.604   5.344   0.632 -1.5056 -1.8168  1.0084
 7230SOL    HW328653   5.697   5.224   0.630  0.1182 -0.5802 -0.5349
 7230SOL    MW428654   5.642   5.277   0.589  0.5588 -0.1867 -0.2311
 7231SOL     OW28655   1.461   5.134   1.363  0.2680  0.4825 -0.3293
 7231SOL    HW228656   1.447   5.215   1.313 -0.4980 -0.3998 -1.6239
 7231SOL    HW328657   1.375   5.092   1.364  0.9266 -0.9540 -0.8874
 7231SOL    MW428658   1.447   5.139   1.356  0.2247 -0.1480  0.6707
 7232SOL     OW28659   4.462   5.173   6.132 -0.4947 -0.3243  0.1991
 7232SOL    HW228660   4.521   5.147   6.061 -1.1159  1.2241 -0.9288
 7232SOL    HW328661   4.511   5.153   6.212  0.7449 -0.9032 -0.6691
 7232SOL    MW428662   4.477   5.167   6.133  0.1019  0.1348 -0.3504
 7233SOL     OW28663   0.918   2.918   2.398  0.3341  0.1193 -0.1795
 7233SOL    HW228664   0.836   2.874   2.378 -0.2132 -0.0658  2.1647
 7233SOL    HW328665   0.894   3.009   2.416  0.3667 -0.1993  1.7647
 7233SOL    MW428666   0.904   2.925   2.398  0.1804 -0.4176  0.1374
 7234SOL     OW28667   4.433   5.676   0.713  0.8716 -0.7351  0.7976
 7234SOL    HW228668   4.351   5.712   0.746  1.4591  1.0221  0.4800
 7234SOL    HW328669   4.410   5.591   0.676 -0.3955 -1.2437  2.6243
 7234SOL    MW428670   4.419   5.670   0.713 -0.8725 -0.2711 -0.8645
 7235SOL     OW28671   4.661   4.416   3.109  0.2589 -0.1927  0.1359
 7235SOL    HW228672   4.653   4.375   3.024 -0.5119  1.4707 -0.6441
 7235SOL    HW328673   4.575   4.457   3.124  0.7573  0.5242  1.1592
 7235SOL    MW428674   4.648   4.416   3.100  0.3392 -0.2479 -0.8658
 7236SOL     OW28675   1.043   5.642   0.705 -0.4665 -0.5155  0.2168
 7236SOL    HW228676   1.118   5.701   0.709 -0.1125 -0.8994 -0.6814
 7236SOL    HW328677   1.007   5.644   0.794  0.5656 -0.2784  0.6494
 7236SOL    MW428678   1.048   5.650   0.718  0.0872 -0.4335 -0.1628
 7237SOL     OW28679   4.535   1.072   4.727 -0.6203 -0.1587 -0.4135
 7237SOL    HW228680   4.471   1.116   4.782 -0.7051 -0.8982  0.0965
 7237SOL    HW328681   4.616   1.122   4.738 -0.3689 -0.8605  1.1744
 7237SOL    MW428682   4.538   1.084   4.736  0.6465  0.3730  1.0064
 7238SOL     OW28683   5.351   4.846   2.043 -0.3057  0.5633 -0.0098
 7238SOL    HW228684   5.444   4.826   2.033  0.1299  2.4290  0.0043
 7238SOL    HW328685   5.349   4.923   2.100 -1.9240  0.0082  0.7448
 7238SOL    MW428686   5.363   4.853   2.049 -0.1540  0.0144  0.0789
 7239SOL     OW28687   1.511   4.057   0.845  0.7885  0.0102 -0.2075
 7239SOL    HW228688   1.538   3.973   0.807 -0.2658 -0.1589 -0.6066
 7239SOL    HW328689   1.567   4.121   0.803  0.2761 -0.2839 -1.3849
 7239SOL    MW428690   1.522   4.054   0.834  0.3517 -1.1576  0.0155
 7240SOL     OW28691   4.729   6.138   2.299 -0.3724  0.2690  0.5533
 7240SOL    HW228692   4.761   6.095   2.220 -1.9686  0.8760 -0.4665
 7240SOL    HW328693   4.635   6.123   2.298 -0.6131  1.5401  1.5794
 7240SOL    MW428694   4.721   6.130   2.289  0.4860  0.1337 -0.3511
 7241SOL     OW28695   1.544   2.696   2.674 -0.6093 -0.3096 -0.2108
 7241SOL    HW228696   1.540   2.733   2.585 -0.5845  2.3288  0.8056
 7241SOL    HW328697   1.612   2.628   2.668  0.6836  1.0300 -1.8247
 7241SOL    MW428698   1.553   2.692   2.661 -0.1529 -0.3716 -0.6291
 7242SOL     OW28699   0.504   5.217   6.269  0.4966  0.1375 -0.7731
 7242SOL    HW228700   0.529   5.281   6.335 -0.7342 -0.8475  0.6999
 7242SOL    HW328701   0.584   5.204   6.217  1.7360  0.3619  1.0001
 7242SOL    MW428702   0.518   5.223   6.271 -0.2416 -0.2473 -0.3436
 7243SOL     OW28703   2.770   3.412   3.052 -0.1185 -0.5476  0.1994
 7243SOL    HW228704   2.839   3.411   3.118 -0.3271  0.2822  0.4381
 7243SOL    HW328705   2.801   3.352   2.984  0.1222 -1.3875  1.0219
 7243SOL    MW428706   2.783   3.404   3.052  0.0657  0.7906 -0.0789
 7244SOL     OW28707   1.329   0.037   4.033  0.9526 -0.0835 -0.0932
 7244SOL    HW228708   1.274   0.013   4.108 -0.2241  0.1212 -0.8690
 7244SOL    HW328709   1.419   0.023   4.064  0.4954  0.0993  1.3848
 7244SOL    MW428710   1.334   0.032   4.047  0.1937  0.8169  0.3578
 7245SOL     OW28711   1.631   1.061   4.312 -0.5156 -0.5180 -0.4766
 7245SOL    HW228712   1.666   1.141   4.274 -1.5010 -0.5860 -1.6079
 7245SOL    HW328713   1.608   1.007   4.236  0.8595 -2.2182  0.2595
 7245SOL    MW428714   1.632   1.064   4.297 -0.4154  0.5201 -0.2931
 7246SOL     OW28715   0.480   5.530   4.656 -0.3963 -0.0438 -0.3266
 7246SOL    HW228716   0.397   5.566   4.687 -0.2329  0.4911 -0.5019
 7246SOL    HW328717   0.546   5.570   4.712 -0.3096 -1.0809  0.3449
 7246SOL    MW428718   0.478   5.540   4.667 -0.3383  0.0932  0.7487
 7247SOL     OW28719   1.801   0.945   0.584 -0.7144 -0.1767 -0.0122
 7247SOL    HW228720   1.717   0.908   0.557 -0.2995  0.4123 -2.3554
 7247SOL    HW328721   1.859   0.930   0.509  0.5124  1.7995  0.4661
 7247SOL    MW428722   1.797   0.938   0.570 -0.3476  0.5648  0.4224
 7248SOL     OW28723   5.314   1.180   0.147  0.2571 -0.0085  0.2791
 7248SOL    HW228724   5.332   1.272   0.128  0.0447  0.1381  0.7805
 7248SOL    HW328725   5.219   1.176   0.158  0.4464  0.0940  2.2287
 7248SOL    MW428726   5.304   1.192   0.146 -0.9530  0.3000 -0.4215
 7249SOL     OW28727   4.166   3.021   6.376  0.0129 -0.0278  0.1924
 7249SOL    HW228728   4.260   3.004   6.385 -0.1188 -0.9042 -0.0604
 7249SOL    HW328729   4.161   3.115   6.359  0.8065  0.1419  0.8045
 7249SOL    MW428730   4.178   3.032   6.375  0.1831  0.6532  0.1766
 7250SOL     OW28731   5.416   3.171   1.804  0.4779  0.3298  0.0934
 7250SOL    HW228732   5.324   3.197   1.801  0.6842  0.9550 -1.3320
 7250SOL    HW328733   5.445   3.197   1.892 -0.9394 -0.8369  0.9673
 7250SOL    MW428734   5.408   3.178   1.815  0.2218  0.1392 -0.6981
 7251SOL     OW28735   5.314   5.391   1.010  0.1612  0.2451 -0.5091
 7251SOL    HW228736   5.307   5.477   1.051 -0.7183  0.1104 -0.3463
 7251SOL    HW328737   5.342   5.333   1.081  1.0619  0.4451 -0.6925
 7251SOL    MW428738   5.317   5.394   1.025 -0.1671 -0.0698  0.0700
 7252SOL     OW28739   5.168   2.092   0.982 -0.0853  0.6861  0.0002
 7252SOL    HW228740   5.244   2.049   1.020 -1.0200 -1.2983 -0.2730
 7252SOL    HW328741   5.203   2.172   0.943  1.9560 -0.4239 -0.5782
 7252SOL    MW428742   5.183   2.097   0.982  0.0112  0.0716  0.2718
 7253SOL     OW28743   4.839   3.765   4.122  0.0427  1.1759  0.9723
 7253SOL    HW228744   4.821   3.686   4.071  0.3963 -0.5295  3.3448
 7253SOL    HW328745   4.777   3.830   4.089 -0.2174 -0.0350 -1.0918
 7253SOL    MW428746   4.829   3.763   4.111  0.0562 -0.4051 -0.1849
 7254SOL     OW28747   5.360   4.361   2.348 -0.3914 -0.4175 -0.7281
 7254SOL    HW228748   5.455   4.356   2.358 -0.2381  1.3774 -0.9371
 7254SOL    HW328749   5.347   4.372   2.254 -0.5957  1.8726 -0.4980
 7254SOL    MW428750   5.371   4.362   2.337  0.4036  0.0898  0.0809
 7255SOL     OW28751   2.572   5.455   1.132 -0.4813 -0.4706  0.0958
 7255SOL    HW228752   2.518   5.533   1.122  0.5654  0.3717  0.7677
 7255SOL    HW328753   2.597   5.454   1.225 -1.5445 -2.3537  0.4233
 7255SOL    MW428754   2.568   5.465   1.143  0.0834  0.9754  0.3924
 7256SOL     OW28755   1.909   2.060   6.305 -0.2423  0.1505  0.3476
 7256SOL    HW228756   1.954   2.003   6.243 -1.2534 -1.8328  1.3316
 7256SOL    HW328757   1.833   2.010   6.333  0.2085  0.8742  3.2470
 7256SOL    MW428758   1.905   2.046   6.301  0.4287  0.0787  0.1295
 7257SOL     OW28759   5.637   0.944   6.134  0.3541 -0.3749  0.8043
 7257SOL    HW228760   5.546   0.924   6.112 -0.2618  0.0284  2.8330
 7257SOL    HW328761   5.684   0.861   6.121 -0.2474 -0.5472 -0.3886
 7257SOL    MW428762   5.631   0.931   6.129  0.0061  0.3653  0.6463
 7258SOL     OW28763   3.321   4.441   5.464 -1.2757 -0.3167 -0.1612
 7258SOL    HW228764   3.317   4.537   5.468 -0.9982 -0.2729 -0.8076
 7258SOL    HW328765   3.361   4.422   5.380 -0.2176 -0.9910  0.4777
 7258SOL    MW428766   3.325   4.451   5.453 -0.7264  1.1372  0.1368
 7259SOL     OW28767   1.915   1.631   5.112  0.2058  0.3844 -0.1047
 7259SOL    HW228768   1.840   1.641   5.171 -0.9154  0.3902 -1.5008
 7259SOL    HW328769   1.987   1.603   5.170 -0.3525  2.1908  1.5487
 7259SOL    MW428770   1.915   1.629   5.128  0.3321 -0.0008  0.7981
 7260SOL     OW28771   5.331   5.693   2.894 -0.6076 -0.2940 -0.2823
 7260SOL    HW228772   5.319   5.739   2.977  0.4303 -0.4128 -0.0429
 7260SOL    HW328773   5.253   5.712   2.844 -0.5286  1.1265  0.0965
 7260SOL    MW428774   5.319   5.701   2.899 -0.2508  0.2522  0.0277
 7261SOL     OW28775   4.801   1.955   0.458 -0.1260  0.3906 -0.0399
 7261SOL    HW228776   4.742   2.012   0.507 -2.1573 -1.8687  0.3834
 7261SOL    HW328777   4.882   1.954   0.509 -0.1946  2.4129  0.1893
 7261SOL    MW428778   4.804   1.962   0.471 -0.9155 -0.0948 -0.3441
 7262SOL     OW28779   6.058   4.127   3.715  0.7475 -0.0532 -0.5152
 7262SOL    HW228780   6.083   4.044   3.755  0.1511  0.4209  0.8953
 7262SOL    HW328781   5.981   4.106   3.662 -0.1860 -0.1772  0.8614
 7262SOL    MW428782   6.051   4.113   3.713 -0.5998  0.1986 -0.0464
 7263SOL     OW28783   5.034   1.049   0.741 -0.1412  0.1921  0.1391
 7263SOL    HW228784   5.116   1.096   0.726  0.0812 -0.1283  0.3188
 7263SOL    HW328785   5.056   0.958   0.723 -0.5147  0.1334 -0.0104
 7263SOL    MW428786   5.048   1.043   0.737 -0.1847  0.0413 -0.1652
 7264SOL     OW28787   5.580   1.670   5.574  0.0157  0.3586  0.1164
 7264SOL    HW228788   5.590   1.709   5.661 -2.0181  0.8416  0.1666
 7264SOL    HW328789   5.583   1.744   5.514 -1.0842  0.3169 -0.0057
 7264SOL    MW428790   5.582   1.685   5.578 -0.0294  0.1356  0.1488
 7265SOL     OW28791   1.196   6.424   5.792  0.0093  0.5147  0.5069
 7265SOL    HW228792   1.170   6.481   5.719 -0.5539  0.9885  1.0570
 7265SOL    HW328793   1.113   6.403   5.835  0.3912  0.7874  1.3952
 7265SOL    MW428794   1.181   6.429   5.788  0.1380 -0.7492 -0.1179
 7266SOL     OW28795   1.970   0.081   4.209 -0.6240 -0.2176  0.1132
 7266SOL    HW228796   2.045   0.033   4.172 -0.3258  0.4291 -0.1316
 7266SOL    HW328797   1.955   0.039   4.293  0.4566  0.0848  0.4744
 7266SOL    MW428798   1.978   0.069   4.215  0.3353 -0.0680  0.2407
 7267SOL     OW28799   4.369   6.027   1.295  0.3399 -0.0515 -0.2976
 7267SOL    HW228800   4.427   6.073   1.356 -1.2825  2.6129 -0.5930
 7267SOL    HW328801   4.297   5.996   1.350 -0.5309  1.3032 -0.6406
 7267SOL    MW428802   4.367   6.029   1.310  0.2725 -0.0524 -0.1072
 7268SOL     OW28803   1.429   4.977   5.087 -0.3718 -0.3578  0.7480
 7268SOL    HW228804   1.479   4.999   5.165  1.2295  0.2020 -0.3797
 7268SOL    HW328805   1.355   5.037   5.088  0.4154  0.6483  1.0992
 7268SOL    MW428806   1.426   4.988   5.097  0.3765 -0.2495 -0.1080
 7269SOL     OW28807   1.978   4.150   1.033  0.5595  0.6031  0.0300
 7269SOL    HW228808   1.914   4.154   1.104 -0.5804 -3.2306 -0.5583
 7269SOL    HW328809   2.049   4.097   1.068  0.3015 -0.7474 -1.4036
 7269SOL    MW428810   1.979   4.144   1.047 -0.3094 -0.6484  0.2219
 7270SOL     OW28811   5.223   3.011   1.474 -0.0427  0.2191  0.7120
 7270SOL    HW228812   5.268   2.966   1.402  0.0714 -0.6982  1.3456
 7270SOL    HW328813   5.235   3.104   1.455  1.2814 -0.0110  0.3376
 7270SOL    MW428814   5.231   3.018   1.462  0.3007  0.3869 -0.0915
 7271SOL     OW28815   0.013   5.220   5.773 -0.3490  0.1825 -0.2343
 7271SOL    HW228816  -0.060   5.269   5.811  0.6477  1.3841  0.1837
 7271SOL    HW328817  -0.028   5.140   5.738 -1.7089  0.3368  0.8883
 7271SOL    MW428818  -0.002   5.216   5.774  0.2292 -0.5578 -0.1866
 7272SOL     OW28819   3.488   4.790   2.214  0.4964 -0.1552 -0.7310
 7272SOL    HW228820   3.404   4.757   2.182 -1.1280  3.3598 -0.5996
 7272SOL    HW328821   3.519   4.723   2.275 -2.6224 -1.2661 -0.1861
 7272SOL    MW428822   3.481   4.777   2.218 -0.2176 -0.3507 -0.0033
 7273SOL     OW28823   1.305   1.897   1.088  0.2290  0.3349  0.0762
 7273SOL    HW228824   1.387   1.891   1.039 -1.1544 -0.0794 -2.4023
 7273SOL    HW328825   1.307   1.984   1.127  1.5610  0.5840 -0.4823
 7273SOL    MW428826   1.316   1.908   1.086  0.1337 -0.3656  0.0046
 7274SOL     OW28827   0.641   4.417   3.370  0.1046 -0.8772 -0.5787
 7274SOL    HW228828   0.640   4.391   3.462  1.0114  0.5677 -0.1244
 7274SOL    HW328829   0.549   4.436   3.350  0.0245 -0.2052  0.3421
 7274SOL    MW428830   0.628   4.416   3.380 -0.4659  0.4753 -0.2082
 7275SOL     OW28831   3.484   4.934   0.859  0.0292  0.3561  0.5688
 7275SOL    HW228832   3.468   4.972   0.773 -0.2833  1.5173  1.1067
 7275SOL    HW328833   3.405   4.885   0.880 -0.0709  0.4336  0.3714
 7275SOL    MW428834   3.471   4.933   0.851  0.1704 -0.1237  0.4200
 7276SOL     OW28835   5.437   5.775   5.998  0.7129  0.2712 -0.6100
 7276SOL    HW228836   5.425   5.763   6.093 -0.6120 -1.8949 -0.9616
 7276SOL    HW328837   5.526   5.810   5.989  1.4021 -0.7650  1.4017
 7276SOL    MW428838   5.447   5.778   6.009 -0.0658  0.2575  0.0694
 7277SOL     OW28839   0.380   1.988   1.045  0.2545 -0.1915 -0.5375
 7277SOL    HW228840   0.437   2.004   0.970 -0.7538 -0.0159 -1.2912
 7277SOL    HW328841   0.314   2.057   1.040 -0.8847 -1.2398 -0.5633
 7277SOL    MW428842   0.379   1.999   1.034  0.4295  0.1122  0.8404
 7278SOL     OW28843   4.130   5.704   5.397  0.3933 -0.0366  0.1542
 7278SOL    HW228844   4.181   5.724   5.475  2.5976  1.9895 -1.6549
 7278SOL    HW328845   4.082   5.785   5.378 -1.0915 -0.9035  0.0501
 7278SOL    MW428846   4.131   5.717   5.405 -0.0415 -0.3036  0.4949
 7279SOL     OW28847   6.075   4.920   4.234  0.4716  0.1477 -0.1122
 7279SOL    HW228848   6.064   5.014   4.224  1.3688  0.2479 -0.1686
 7279SOL    HW328849   6.134   4.910   4.309 -0.1677 -0.3954  0.3450
 7279SOL    MW428850   6.081   4.931   4.243 -0.3473 -0.2500  0.0612
 7280SOL     OW28851   2.090   1.730   2.693  0.1273  0.0538  0.4464
 7280SOL    HW228852   2.086   1.646   2.738  1.2228 -1.4695 -2.1032
 7280SOL    HW328853   2.181   1.758   2.703 -0.1869  0.8769  1.1171
 7280SOL    MW428854   2.101   1.723   2.701 -0.3282 -0.3667 -0.3203
 7281SOL     OW28855   3.635   3.700   1.086  0.1902  0.0338  0.2797
 7281SOL    HW228856   3.574   3.649   1.032 -0.5150  1.6554 -0.5421
 7281SOL    HW328857   3.579   3.745   1.149  0.6537  0.6424  0.2669
 7281SOL    MW428858   3.619   3.699   1.087 -0.1954  0.4947 -0.3232
 7282SOL     OW28859   3.209   0.662   2.293  0.5949 -0.1454  0.0060
 7282SOL    HW228860   3.130   0.680   2.243  0.2780  1.4967  1.0155
 7282SOL    HW328861   3.243   0.580   2.256 -1.9368 -1.2900  0.0250
 7282SOL    MW428862   3.203   0.654   2.282 -0.1129  0.1121 -0.1818
 7283SOL     OW28863   3.537   6.259   6.419 -0.3275 -0.4169  0.0502
 7283SOL    HW228864   3.563   6.169   6.399 -0.6431 -0.5426  0.2065
 7283SOL    HW328865   3.442   6.258   6.417 -0.3446 -0.1984  0.5451
 7283SOL    MW428866   3.528   6.247   6.416 -0.3550 -0.7039 -0.0456
 7284SOL     OW28867   1.960   4.291   5.262  0.1861 -0.0479  0.1733
 7284SOL    HW228868   1.920   4.357   5.318  0.9926  1.1056 -0.5747
 7284SOL    HW328869   2.051   4.286   5.291  0.1436 -0.8212  0.2005
 7284SOL    MW428870   1.967   4.299   5.273  0.0796 -0.2078  0.4820
 7285SOL     OW28871   4.381   4.826   3.417  0.2283 -0.8304  0.1555
 7285SOL    HW228872   4.430   4.874   3.484 -1.8731  1.6902  0.0738
 7285SOL    HW328873   4.367   4.739   3.455  1.3995 -0.3423  1.8190
 7285SOL    MW428874   4.385   4.821   3.431  0.5738  0.5659  0.7196
 7286SOL     OW28875   4.520   1.767   4.779  0.1133 -0.1268  0.0557
 7286SOL    HW228876   4.505   1.861   4.782 -0.0786 -0.1675  0.4925
 7286SOL    HW328877   4.569   1.752   4.698  0.2199  0.3567  0.0336
 7286SOL    MW428878   4.524   1.777   4.769  0.0031 -0.0223 -0.3980
 7287SOL     OW28879   2.980   1.530   4.330  0.0912  0.0945  0.0051
 7287SOL    HW228880   3.039   1.578   4.388 -0.1603  1.1610 -0.5934
 7287SOL    HW328881   3.030   1.453   4.302  0.4164 -0.1298  1.1693
 7287SOL    MW428882   2.994   1.526   4.334 -0.5978  0.2527 -0.4953
 7288SOL     OW28883   2.283   0.761   3.379  0.5071 -0.9395 -0.2354
 7288SOL    HW228884   2.270   0.670   3.352 -0.1211 -0.6668 -0.8655
 7288SOL    HW328885   2.302   0.808   3.298  0.6822 -0.4723  0.0688
 7288SOL    MW428886   2.284   0.755   3.365 -0.0357  0.1320 -0.7059
 7289SOL     OW28887   1.162   1.049   5.772 -0.6169 -0.3384 -0.6023
 7289SOL    HW228888   1.121   1.135   5.773  0.2759  0.1653 -2.5691
 7289SOL    HW328889   1.108   0.997   5.713 -1.6478 -1.4384  1.2423
 7289SOL    MW428890   1.150   1.054   5.764  0.2806  0.0172  0.3582
 7290SOL     OW28891   5.580   5.967   0.768  0.3798 -0.3479  0.3239
 7290SOL    HW228892   5.533   5.891   0.800 -0.4685  0.7924  1.9411
 7290SOL    HW328893   5.565   6.035   0.834  0.4761  1.4578 -1.3883
 7290SOL    MW428894   5.572   5.966   0.781  0.4944 -0.2531 -0.3560
 7291SOL     OW28895   5.142   1.842   4.135 -0.0536 -0.1157 -0.2859
 7291SOL    HW228896   5.167   1.755   4.165  2.1650  0.4979 -0.1394
 7291SOL    HW328897   5.121   1.831   4.042 -2.6133 -1.2461  0.3486
 7291SOL    MW428898   5.142   1.829   4.126  0.1027  0.3147  0.9639
 7292SOL     OW28899   3.950   3.421   0.400 -0.0113  0.1138 -0.2478
 7292SOL    HW228900   3.978   3.421   0.309 -1.1950 -0.5424 -0.6309
 7292SOL    HW328901   3.891   3.346   0.407 -0.8164  0.8222  0.7776
 7292SOL    MW428902   3.946   3.411   0.389 -0.0122  0.3895  0.3099
 7293SOL     OW28903   3.346   1.186   4.730  0.3934 -0.4133  0.3508
 7293SOL    HW228904   3.328   1.106   4.779  0.2297  0.4184  1.7092
 7293SOL    HW328905   3.264   1.236   4.735  0.0195 -0.7371 -1.6959
 7293SOL    MW428906   3.332   1.182   4.737 -0.2679  0.3667 -0.1801
 7294SOL     OW28907   1.140   5.681   3.977  0.1212  0.4202 -0.1875
 7294SOL    HW228908   1.137   5.777   3.981  0.7333  0.4499 -0.2991
 7294SOL    HW328909   1.082   5.652   4.047  0.2058  0.8761  0.0758
 7294SOL    MW428910   1.132   5.690   3.987  0.1497 -0.6687  0.2435
 7295SOL     OW28911   5.278   3.059   0.464  0.0855 -0.4120  0.0199
 7295SOL    HW228912   5.201   3.096   0.508  0.6158  1.5679 -0.6301
 7295SOL    HW328913   5.243   2.985   0.414 -0.7621 -1.8253  2.4986
 7295SOL    MW428914   5.263   3.054   0.463 -0.3292  0.3849  0.0485
 7296SOL     OW28915   2.444   1.956   4.063 -0.1720 -0.2729 -0.6807
 7296SOL    HW228916   2.348   1.953   4.065 -0.1259 -1.8234 -0.0461
 7296SOL    HW328917   2.471   1.864   4.058  1.2740  0.1732 -2.0162
 7296SOL    MW428918   2.435   1.944   4.062  0.5729  0.2874 -0.3199
 7297SOL     OW28919   5.998   3.404   5.296  0.0142  0.2279 -0.3342
 7297SOL    HW228920   5.972   3.496   5.304 -2.9703 -0.4611 -0.9274
 7297SOL    HW328921   5.930   3.356   5.343  1.8562 -1.6971  0.5135
 7297SOL    MW428922   5.985   3.410   5.303  0.3314  0.3582  0.5372
 7298SOL     OW28923   0.141   3.302   1.303  0.8137  0.0609 -0.2998
 7298SOL    HW228924   0.062   3.272   1.349  0.1320  1.5810 -0.4306
 7298SOL    HW328925   0.209   3.239   1.328 -0.6129 -1.7613 -0.8245
 7298SOL    MW428926   0.140   3.290   1.312 -0.0381 -0.5501  0.2958
 7299SOL     OW28927   2.960   0.331   3.046 -0.0902  0.2428  0.3409
 7299SOL    HW228928   2.875   0.294   3.024 -0.2231  0.0597  1.1372
 7299SOL    HW328929   2.984   0.384   2.969 -1.0569  0.5362  0.2328
 7299SOL    MW428930   2.952   0.333   3.033 -0.0764  0.6767  0.1307
 7300SOL     OW28931   2.290   5.761   3.541  0.3297 -0.1490 -0.3242
 7300SOL    HW228932   2.330   5.756   3.454 -0.5661  0.7752 -0.8124
 7300SOL    HW328933   2.286   5.854   3.561  0.3738 -0.3443  0.6424
 7300SOL    MW428934   2.294   5.772   3.532  0.0613 -0.0819 -0.0785
 7301SOL     OW28935   1.021   0.810   2.609  0.4228  0.5952 -0.2004
 7301SOL    HW228936   0.951   0.875   2.611  0.4687  0.6467  2.1719
 7301SOL    HW328937   0.976   0.727   2.622  0.6035  0.3883 -0.8693
 7301SOL    MW428938   1.005   0.808   2.611  0.4872  0.1219  0.5700
 7302SOL     OW28939   2.226   3.340   1.125  0.6705  0.2051 -0.1681
 7302SOL    HW228940   2.150   3.364   1.179  0.7478 -0.8657  0.4403
 7302SOL    HW328941   2.274   3.422   1.114  1.1094  0.3127  2.1071
 7302SOL    MW428942   2.222   3.354   1.131 -0.5122  0.1815  0.3253
 7303SOL     OW28943   0.612   0.404   3.309 -0.3311  0.1072 -0.6973
 7303SOL    HW228944   0.666   0.461   3.364 -0.4297 -0.6010  0.1589
 7303SOL    HW328945   0.668   0.382   3.234 -0.3306  1.3992 -1.1064
 7303SOL    MW428946   0.627   0.409   3.306  0.1932  0.5838  0.6976
 7304SOL     OW28947   1.287   1.907   4.705 -0.5390 -0.3160 -0.1713
 7304SOL    HW228948   1.253   1.818   4.719 -0.7379 -0.3782 -1.0455
 7304SOL    HW328949   1.382   1.897   4.709 -0.5674 -0.4689  0.2720
 7304SOL    MW428950   1.295   1.894   4.708 -0.2139  0.0565  0.2709
 7305SOL     OW28951   3.200   1.713   0.982  0.0642  0.4512  0.2465
 7305SOL    HW228952   3.288   1.721   1.020  0.6115  1.4026 -1.1437
 7305SOL    HW328953   3.177   1.621   0.995  0.9139  0.3709  1.3550
 7305SOL    MW428954   3.208   1.702   0.989  0.2024  0.2887 -0.2140
 7306SOL     OW28955   4.669   5.179   0.811 -0.4308  0.2117 -0.5938
 7306SOL    HW228956   4.690   5.236   0.737  0.5806 -0.9394 -1.2193
 7306SOL    HW328957   4.707   5.094   0.788 -0.6172 -0.3294  0.9780
 7306SOL    MW428958   4.677   5.176   0.798 -0.1033  0.3438 -0.0036
 7307SOL     OW28959   2.555   5.267   3.201 -0.0507  0.6990 -0.1056
 7307SOL    HW228960   2.568   5.252   3.107  0.6593 -1.6143  0.2722
 7307SOL    HW328961   2.461   5.254   3.215 -0.2961  1.8724 -0.5961
 7307SOL    MW428962   2.544   5.263   3.190  0.8073  0.1989 -0.5954
 7308SOL     OW28963   4.574   4.829   4.151 -0.2208  0.3958  0.4065
 7308SOL    HW228964   4.524   4.910   4.149 -0.8563 -0.0044  0.0151
 7308SOL    HW328965   4.519   4.767   4.198 -0.3966 -0.2390 -0.6127
 7308SOL    MW428966   4.560   4.832   4.157  0.1169  0.2020  0.1221
 7309SOL     OW28967   1.057   5.030   5.244 -0.1032  0.2704 -0.0174
 7309SOL    HW228968   1.088   5.029   5.334 -1.7072 -1.2436  0.5922
 7309SOL    HW328969   1.117   5.088   5.197 -0.4860  2.8440  2.4386
 7309SOL    MW428970   1.069   5.037   5.249 -0.1451  0.2080  0.4914
 7310SOL     OW28971   3.364   6.056   6.178 -0.0519  0.2699 -0.1105
 7310SOL    HW228972   3.317   6.139   6.177 -0.8626 -0.1808 -0.8359
 7310SOL    HW328973   3.307   5.995   6.129  1.1517 -0.3568 -0.7799
 7310SOL    MW428974   3.350   6.059   6.171 -0.4193  0.0645 -0.0759
 7311SOL     OW28975   4.033   5.483   5.964  0.4262  0.5337 -0.6205
 7311SOL    HW228976   4.122   5.453   5.983  0.1952 -0.4750 -1.0364
 7311SOL    HW328977   3.983   5.402   5.951 -0.7268  1.0705  0.3418
 7311SOL    MW428978   4.038   5.468   5.965  0.0516 -0.1594  0.5017
 7312SOL     OW28979   4.591   2.686   0.847  0.6010  0.2121 -0.3236
 7312SOL    HW228980   4.594   2.609   0.903 -1.9596  0.3022  0.0497
 7312SOL    HW328981   4.567   2.758   0.906 -2.0857  0.3248 -1.4462
 7312SOL    MW428982   4.589   2.686   0.863 -0.0112 -0.2336 -0.5240
 7313SOL     OW28983   2.679   3.700   6.131 -0.3173 -0.4190 -0.1832
 7313SOL    HW228984   2.665   3.609   6.104  0.8477 -1.2487  1.7631
 7313SOL    HW328985   2.655   3.700   6.224  0.4024  1.0854  0.0207
 7313SOL    MW428986   2.674   3.688   6.140  0.0611 -0.4131  0.3452
 7314SOL     OW28987   1.206   5.953   3.908 -0.1549  0.1744 -0.1916
 7314SOL    HW228988   1.246   5.961   3.821 -0.3983 -0.3734 -0.3534
 7314SOL    HW328989   1.279   5.933   3.967  0.3712  2.6454  0.1020
 7314SOL    MW428990   1.221   5.952   3.904  0.1115  1.2870  0.2370
 7315SOL     OW28991   3.357   0.211   2.936 -0.0838 -0.1067  0.6021
 7315SOL    HW228992   3.288   0.179   2.878 -0.3956 -1.5507  1.7125
 7315SOL    HW328993   3.436   0.207   2.882 -0.7516  1.2396 -0.5750
 7315SOL    MW428994   3.358   0.206   2.921 -0.0487 -0.0145 -0.2597
 7316SOL     OW28995   1.945   2.064   4.862 -0.4346  0.2627 -0.0675
 7316SOL    HW228996   1.907   2.107   4.939 -0.4410  1.0115 -0.4796
 7316SOL    HW328997   1.877   2.003   4.833  0.4879 -1.9025  1.9628
 7316SOL    MW428998   1.931   2.062   4.868  0.7806  0.9115  0.1054
 7317SOL     OW28999   6.375   2.241   4.062  0.0916 -0.1443  0.3861
 7317SOL    HW229000   6.324   2.308   4.107  0.5882  0.3707  0.1856
 7317SOL    HW329001   6.368   2.262   3.969  0.9708  0.1495  0.3805
 7317SOL    MW429002   6.367   2.252   4.056 -0.0734 -0.0453 -0.1528
 7318SOL     OW29003   6.395   4.656   6.173 -0.1717  0.3839  0.4067
 7318SOL    HW229004   6.419   4.729   6.231 -1.3100  0.2180  1.1167
 7318SOL    HW329005   6.304   4.637   6.196 -0.1867 -0.6251 -0.4607
 7318SOL    MW429006   6.387   4.663   6.184  0.0384 -0.0977  0.8128
 7319SOL     OW29007   3.314   2.109   6.373  0.1079 -0.3209 -0.5439
 7319SOL    HW229008   3.407   2.105   6.353  0.2524 -1.7250  0.2976
 7319SOL    HW329009   3.270   2.082   6.293  0.4915 -1.0955 -0.4958
 7319SOL    MW429010   3.320   2.105   6.360 -0.1843 -0.3729  0.0703
 7320SOL     OW29011   1.238   3.962   5.842 -0.7180 -0.3688 -0.4030
 7320SOL    HW229012   1.243   4.056   5.857 -1.0315 -0.5619  1.0814
 7320SOL    HW329013   1.170   3.932   5.903  0.6855 -1.8212  0.5147
 7320SOL    MW429014   1.230   3.970   5.852 -0.4995  0.0055  0.0174
 7321SOL     OW29015   3.330   3.510   3.453 -0.6973  0.0564  0.2616
 7321SOL    HW229016   3.371   3.483   3.536 -0.4644 -1.7043 -0.3853
 7321SOL    HW329017   3.262   3.445   3.437 -0.3188 -0.0116 -1.2399
 7321SOL    MW429018   3.327   3.498   3.462  0.3275 -0.2677  0.0016
 7322SOL     OW29019   1.407   0.291   3.173  0.4990  0.4005 -0.0061
 7322SOL    HW229020   1.457   0.294   3.254 -0.4309 -0.7287  0.6410
 7322SOL    HW329021   1.456   0.230   3.117  0.5401  0.3232  0.1150
 7322SOL    MW429022   1.420   0.283   3.176  0.1410  0.4867 -0.2134
 7323SOL     OW29023   2.278   2.600   6.109 -0.2429  0.0470 -0.3708
 7323SOL    HW229024   2.302   2.637   6.024  1.2128 -1.6626 -0.7763
 7323SOL    HW329025   2.362   2.590   6.155 -0.6649 -1.7123  0.0916
 7323SOL    MW429026   2.292   2.603   6.104  0.0653  0.1410  0.3621
 7324SOL     OW29027   1.660   1.356   6.020  0.1175 -0.2956  0.1251
 7324SOL    HW229028   1.616   1.423   6.072  0.1371 -1.8425  2.2441
 7324SOL    HW329029   1.591   1.293   5.998  0.5872 -0.9034  0.3795
 7324SOL    MW429030   1.645   1.357   6.024 -0.0898  0.0838  0.0942
 7325SOL     OW29031   4.007   1.013   2.060  0.2703  0.1076 -0.0825
 7325SOL    HW229032   3.985   1.047   1.974 -0.9233  0.8243  0.4766
 7325SOL    HW329033   3.939   0.948   2.079  1.9837 -2.0015 -0.7303
 7325SOL    MW429034   3.995   1.009   2.051 -0.1093  0.0757  0.1609
 7326SOL     OW29035   0.742   0.602   4.618 -0.1384 -0.0226 -0.1323
 7326SOL    HW229036   0.652   0.600   4.586  0.3025  1.5627 -1.6336
 7326SOL    HW329037   0.742   0.544   4.694 -3.1130  2.0852  1.6919
 7326SOL    MW429038   0.730   0.594   4.624  0.3629 -0.3156 -0.5697
 7327SOL     OW29039   0.113   0.890   4.324 -0.1303  0.4005 -0.3734
 7327SOL    HW229040   0.125   0.879   4.229 -0.8075 -0.7827 -0.3365
 7327SOL    HW329041   0.188   0.845   4.363 -0.8697 -0.8132 -0.3150
 7327SOL    MW429042   0.125   0.883   4.316  0.3695  0.4450  0.0076
 7328SOL     OW29043   5.532   0.088   6.239 -0.3088 -0.0339 -0.3183
 7328SOL    HW229044   5.451   0.036   6.247 -0.4861  0.3857  0.8374
 7328SOL    HW329045   5.527   0.126   6.152 -0.3660 -1.6271 -1.0571
 7328SOL    MW429046   5.521   0.086   6.228 -0.5707 -0.1134  0.0471
 7329SOL     OW29047   1.789   3.626   4.057  0.0356  0.5275  0.1384
 7329SOL    HW229048   1.764   3.598   3.968  0.2141  0.4008  0.1252
 7329SOL    HW329049   1.707   3.645   4.101 -0.1499 -0.6571  0.3546
 7329SOL    MW429050   1.775   3.625   4.051 -0.1072  0.6147 -0.0328
 7330SOL     OW29051   5.297   2.716   1.831  0.2133 -0.4386 -0.0144
 7330SOL    HW229052   5.277   2.789   1.890 -0.2025 -1.0571  0.6262
 7330SOL    HW329053   5.241   2.732   1.754  1.0373  0.5738 -0.4339
 7330SOL    MW429054   5.287   2.728   1.828 -0.0632  0.2845  0.1363
 7331SOL     OW29055   2.118   3.089   3.092 -0.5675  0.0995 -0.5334
 7331SOL    HW229056   2.190   3.090   3.155 -0.4794 -0.8776 -0.5989
 7331SOL    HW329057   2.052   3.147   3.130  0.4053  1.3625 -0.6810
 7331SOL    MW429058   2.119   3.097   3.106 -0.8282 -0.1173 -0.2715
 7332SOL     OW29059   0.697   5.132   4.818 -0.1521 -0.8122  0.0513
 7332SOL    HW229060   0.606   5.161   4.819 -0.0510 -0.4962  0.5280
 7332SOL    HW329061   0.708   5.089   4.733 -0.2279  0.7670 -0.7903
 7332SOL    MW429062   0.687   5.130   4.807  0.2193  0.2350  0.2361
 7333SOL     OW29063   0.442   1.071   5.149 -0.3403  0.3017 -0.8300
 7333SOL    HW229064   0.489   1.003   5.101  2.8140  0.6419  1.4167
 7333SOL    HW329065   0.367   1.093   5.093  0.3089 -2.6809 -3.1313
 7333SOL    MW429066   0.438   1.065   5.135 -0.7624  0.3934  0.2766
 7334SOL     OW29067   2.948   0.506   0.099  0.0744  0.0110  0.0413
 7334SOL    HW229068   3.039   0.535   0.105  0.6113 -1.2533 -1.2683
 7334SOL    HW329069   2.952   0.413   0.123 -0.5811 -0.4583 -1.5333
 7334SOL    MW429070   2.961   0.497   0.103 -0.5344 -0.0599 -0.0928
 7335SOL     OW29071   4.513   5.084   2.320 -0.3065 -0.1294 -0.0873
 7335SOL    HW229072   4.446   5.086   2.252 -2.2857 -1.2886  1.7070
 7335SOL    HW329073   4.537   4.992   2.327  1.7503  0.2966 -0.8754
 7335SOL    MW429074   4.507   5.072   2.312  0.0745 -0.1132 -0.2487
 7336SOL     OW29075   4.572   6.201   4.013 -0.1295  0.0171 -0.2318
 7336SOL    HW229076   4.591   6.125   4.068 -1.5358 -0.0609  0.1857
 7336SOL    HW329077   4.547   6.164   3.929  1.1418  0.1087 -0.6731
 7336SOL    MW429078   4.571   6.186   4.009 -0.3804 -0.3466 -0.4148
 7337SOL     OW29079   4.070   4.378   5.854  0.5986  0.2520 -0.0331
 7337SOL    HW229080   4.139   4.323   5.816 -0.6102 -0.2886 -1.5141
 7337SOL    HW329081   4.058   4.449   5.791 -0.1771  0.3688  0.2365
 7337SOL    MW429082   4.078   4.380   5.841 -0.0308 -0.4296 -0.4905
 7338SOL     OW29083   1.837   3.608   3.321 -0.3501  0.4797 -0.1189
 7338SOL    HW229084   1.819   3.701   3.309 -0.9480  0.3835 -0.0076
 7338SOL    HW329085   1.790   3.566   3.248 -1.1145  0.1712  0.5380
 7338SOL    MW429086   1.828   3.615   3.310 -0.2859  0.7986 -0.6329
 7339SOL     OW29087   3.950   1.847   5.990  0.1876 -0.4541 -0.5053
 7339SOL    HW229088   3.954   1.916   6.057  0.5397 -0.6559 -0.3178
 7339SOL    HW329089   3.941   1.894   5.908 -2.1557 -0.2214 -0.1880
 7339SOL    MW429090   3.949   1.862   5.988  0.0690 -0.6036  0.1026
 7340SOL     OW29091   4.452   5.714   2.170 -0.1664 -0.2429 -0.0055
 7340SOL    HW229092   4.411   5.678   2.248  0.6547 -3.0052 -0.7392
 7340SOL    HW329093   4.379   5.748   2.118 -0.8976  0.0236  1.1734
 7340SOL    MW429094   4.437   5.714   2.173  0.1181 -0.3494  0.1362
 7341SOL     OW29095   4.507   5.603   4.453 -0.5903  0.0585  0.1130
 7341SOL    HW229096   4.452   5.530   4.481 -0.0978 -0.6058 -0.5900
 7341SOL    HW329097   4.590   5.562   4.428 -0.9484  0.5887 -2.1595
 7341SOL    MW429098   4.511   5.588   4.453  0.0871  0.1510  0.7294
 7342SOL     OW29099   6.221   1.678   5.925 -0.5075 -0.3103 -0.3753
 7342SOL    HW229100   6.145   1.736   5.913 -2.0910 -1.6303  2.2523
 7342SOL    HW329101   6.199   1.600   5.875 -0.7802 -0.5895  0.1729
 7342SOL    MW429102   6.208   1.675   5.917 -0.0618  0.1974 -0.1644
 7343SOL     OW29103   5.666   3.694   4.399  0.5257 -0.3544  0.0967
 7343SOL    HW229104   5.683   3.640   4.477  0.7509  0.1080  0.3698
 7343SOL    HW329105   5.701   3.643   4.326  1.7573 -0.0822  0.4769
 7343SOL    MW429106   5.673   3.680   4.400  0.4013  0.1462  0.2477
 7344SOL     OW29107   3.259   3.741   4.185 -0.0272  0.3541 -0.1339
 7344SOL    HW229108   3.208   3.674   4.140  0.5096  0.7328 -1.3620
 7344SOL    HW329109   3.209   3.822   4.173  0.9761  0.8078 -1.6971
 7344SOL    MW429110   3.246   3.743   4.177 -0.2235  0.7701  0.3801
 7345SOL     OW29111   1.179   0.860   0.079 -0.4808 -0.3884  0.0260
 7345SOL    HW229112   1.207   0.768   0.075 -0.9059 -0.6935  2.6347
 7345SOL    HW329113   1.119   0.864   0.153 -1.0392  1.8901 -0.4695
 7345SOL    MW429114   1.174   0.848   0.088 -0.1356 -0.5240 -0.0239
 7346SOL     OW29115   3.982   2.402   2.785 -0.6431  0.2481  0.3982
 7346SOL    HW229116   3.935   2.421   2.704  1.8017  1.0212 -0.9369
 7346SOL    HW329117   3.920   2.423   2.855 -2.8232 -0.4401 -1.2307
 7346SOL    MW429118   3.968   2.407   2.784 -0.9404  0.0190  0.8654
 7347SOL     OW29119   2.064   5.448   1.586 -0.2310  0.1014  0.2527
 7347SOL    HW229120   2.059   5.364   1.632 -1.8805  0.5153  0.9184
 7347SOL    HW329121   1.973   5.474   1.574  0.2254  1.2412 -1.0117
 7347SOL    MW429122   2.051   5.441   1.591 -0.3936 -0.0948  0.2923
 7348SOL     OW29123   2.162   3.415   0.493  0.2542  0.4505  0.2348
 7348SOL    HW229124   2.086   3.358   0.502 -0.1350  0.7547 -0.8731
 7348SOL    HW329125   2.234   3.365   0.529 -0.2037 -0.4877 -0.1147
 7348SOL    MW429126   2.161   3.401   0.499  0.4438 -0.0630  0.3027
 7349SOL     OW29127   0.138   1.073   6.025  0.4188 -0.0230  0.8719
 7349SOL    HW229128   0.214   1.022   5.996  0.5535  0.3104  0.6154
 7349SOL    HW329129   0.117   1.129   5.949  1.0371  1.1679  1.5466
 7349SOL    MW429130   0.146   1.074   6.011  0.2187  0.0601 -0.3862
 7350SOL     OW29131   5.455   4.652   6.269 -0.0356  0.6523  0.1892
 7350SOL    HW229132   5.476   4.591   6.199 -0.0651 -0.9959  1.5529
 7350SOL    HW329133   5.529   4.713   6.271  0.5556 -0.0283 -0.4703
 7350SOL    MW429134   5.468   4.652   6.260 -0.0156  0.2364 -0.4215
 7351SOL     OW29135   1.678   0.656   3.190 -0.3620  0.4750  0.8690
 7351SOL    HW229136   1.744   0.715   3.153  1.2912 -1.4529  0.5445
 7351SOL    HW329137   1.621   0.635   3.116  0.1922  0.1958  0.5099
 7351SOL    MW429138   1.679   0.661   3.175  0.4258 -0.3111 -0.1006
 7352SOL     OW29139   2.216   0.390   5.335  0.1899  0.0433  0.0753
 7352SOL    HW229140   2.295   0.397   5.389  1.4055 -1.2939 -1.4065
 7352SOL    HW329141   2.247   0.405   5.245 -1.4863  0.7404 -0.4202
 7352SOL    MW429142   2.230   0.393   5.330  0.1569  0.5077 -0.3904
 7353SOL     OW29143   3.354   0.361   3.598  0.2616 -0.1364  0.0924
 7353SOL    HW229144   3.371   0.272   3.565 -0.3665 -1.8290  3.8360
 7353SOL    HW329145   3.404   0.367   3.679 -2.6619  1.4643  1.9441
 7353SOL    MW429146   3.363   0.350   3.604  0.1382  0.1773 -0.5299
 7354SOL     OW29147   5.500   2.420   2.208  0.2532  0.2075 -0.0039
 7354SOL    HW229148   5.489   2.354   2.139 -0.6495 -1.8455  1.9641
 7354SOL    HW329149   5.413   2.460   2.216 -0.0365 -0.5783  0.8808
 7354SOL    MW429150   5.487   2.416   2.200 -0.3299  0.1188  0.4384
 7355SOL     OW29151   1.920   4.999   1.172 -0.1019  0.0699  0.0142
 7355SOL    HW229152   1.829   4.982   1.197  0.0176 -0.2509  0.2477
 7355SOL    HW329153   1.966   4.918   1.196  0.2481  0.2425 -0.0775
 7355SOL    MW429154   1.914   4.986   1.179 -0.3115  0.1764  0.1040
 7356SOL     OW29155   4.350   1.435   3.398 -0.4739  0.3416 -0.2326
 7356SOL    HW229156   4.375   1.526   3.383  3.8449 -0.8230 -1.5367
 7356SOL    HW329157   4.370   1.419   3.490 -0.2159  0.4303 -0.2737
 7356SOL    MW429158   4.356   1.445   3.408 -0.4858  0.0117  0.3660
 7357SOL     OW29159   1.257   2.968   4.747  0.4492 -0.6610 -0.0304
 7357SOL    HW229160   1.236   2.874   4.750 -1.7808 -0.2698 -1.4252
 7357SOL    HW329161   1.296   2.986   4.832  1.1793 -2.8948  0.1888
 7357SOL    MW429162   1.260   2.958   4.758  0.0032  0.0910 -0.7440
 7358SOL     OW29163   3.911   3.329   3.600 -0.6050 -0.3504  0.2045
 7358SOL    HW229164   3.999   3.338   3.564  0.0319 -1.3571  1.4126
 7358SOL    HW329165   3.880   3.246   3.564 -1.1778  0.1275 -0.4214
 7358SOL    MW429166   3.919   3.319   3.590  0.4081 -0.5006  0.3934
 7359SOL     OW29167   4.656   6.390   0.591  0.1281 -0.3653 -0.3311
 7359SOL    HW229168   4.593   6.462   0.602 -0.1382 -0.8136  1.4107
 7359SOL    HW329169   4.635   6.330   0.663  1.8327 -1.0665 -0.3968
 7359SOL    MW429170   4.645   6.392   0.602 -0.0326  0.6524  0.3208
 7360SOL     OW29171   5.587   5.447   3.270 -0.4092  0.5823 -0.2804
 7360SOL    HW229172   5.532   5.425   3.345  0.1965  1.0529  0.3167
 7360SOL    HW329173   5.557   5.388   3.200 -0.6814 -0.1788  0.4561
 7360SOL    MW429174   5.576   5.436   3.271  0.1195 -0.3892  0.3537
 7361SOL     OW29175   1.215   0.455   5.146  0.1847  0.3746 -0.1962
 7361SOL    HW229176   1.255   0.528   5.097  0.8791 -0.0897 -0.3427
 7361SOL    HW329177   1.122   0.477   5.151  0.3277  1.0875 -0.5649
 7361SOL    MW429178   1.208   0.468   5.140 -0.3841  0.6624  0.5696
 7362SOL     OW29179   0.819   0.030   1.825  0.2113  0.5137  0.0743
 7362SOL    HW229180   0.789   0.108   1.779  1.0761  1.2016  0.6482
 7362SOL    HW329181   0.897   0.058   1.873 -0.1162 -0.4095  1.2073
 7362SOL    MW429182   0.825   0.044   1.826 -0.0576  0.2604  0.3295
 7363SOL     OW29183   5.372   6.183   3.743  0.2595 -0.1166 -0.0343
 7363SOL    HW229184   5.395   6.181   3.650  0.1303 -1.5164 -0.0669
 7363SOL    HW329185   5.434   6.244   3.782 -0.0880  0.9817 -1.1270
 7363SOL    MW429186   5.383   6.191   3.736 -0.3406  0.1209 -0.7804
 7364SOL     OW29187   5.645   4.354   2.429  0.0582  0.4147  0.1482
 7364SOL    HW229188   5.678   4.372   2.517  0.2475  2.5764 -0.2991
 7364SOL    HW329189   5.667   4.263   2.412  0.1455  0.0038  2.2797
 7364SOL    MW429190   5.652   4.345   2.438  0.1316  0.4619  0.0405
 7365SOL     OW29191   0.217   5.855   6.226 -0.0997  0.0938  0.2820
 7365SOL    HW229192   0.252   5.817   6.307  1.3634  1.1836  0.2039
 7365SOL    HW329193   0.137   5.806   6.210  2.1972 -3.8283 -0.4631
 7365SOL    MW429194   0.211   5.843   6.235 -0.1860 -0.0519  0.0682
 7366SOL     OW29195   1.702   1.616   3.599  0.1714 -0.1353  0.4026
 7366SOL    HW229196   1.676   1.648   3.686 -0.2486  0.4039  0.0847
 7366SOL    HW329197   1.623   1.626   3.546  0.3566 -0.6975  0.0225
 7366SOL    MW429198   1.688   1.622   3.604  0.4444 -0.3170  0.6088
 7367SOL     OW29199   4.217   1.353   5.221 -0.1355  0.0332 -0.3693
 7367SOL    HW229200   4.309   1.374   5.213 -0.4271  1.0971 -1.0801
 7367SOL    HW329201   4.176   1.435   5.249 -1.2050  0.3012 -2.5092
 7367SOL    MW429202   4.223   1.366   5.224  0.2262 -0.9219 -0.0126
 7368SOL     OW29203   5.808   1.893   5.370 -0.2656 -0.0450 -0.4439
 7368SOL    HW229204   5.720   1.888   5.332  0.1249  2.8565 -2.0566
 7368SOL    HW329205   5.803   1.965   5.433  0.9208  0.0852 -0.4825
 7368SOL    MW429206   5.796   1.902   5.373 -0.2756  0.2983 -0.1337
 7369SOL     OW29207   2.361   5.562   0.406 -0.3493 -0.3521 -0.2279
 7369SOL    HW229208   2.335   5.471   0.395 -0.2299 -0.5506  0.9275
 7369SOL    HW329209   2.331   5.606   0.327 -3.3335 -0.7598  0.5438
 7369SOL    MW429210   2.354   5.556   0.394  0.0271 -0.1917 -0.3774
 7370SOL     OW29211   5.647   0.754   0.654 -0.1018  0.5731 -0.2187
 7370SOL    HW229212   5.672   0.697   0.582  0.0830 -0.3122  0.5295
 7370SOL    HW329213   5.675   0.708   0.733  0.0443  1.6897  0.4161
 7370SOL    MW429214   5.654   0.741   0.655  0.5908 -0.0990  0.0833
 7371SOL     OW29215   4.785   5.482   5.462 -0.0812  0.2970 -0.3299
 7371SOL    HW229216   4.766   5.440   5.378 -1.1490  0.1263 -0.0300
 7371SOL    HW329217   4.869   5.446   5.489 -0.7529 -1.3464 -0.2915
 7371SOL    MW429218   4.793   5.471   5.455  0.3906  0.2432  0.2477
 7372SOL     OW29219   6.438   0.076   1.131  0.6121  0.1200 -0.0715
 7372SOL    HW229220   6.389   0.141   1.081  2.7304  0.9456 -1.1767
 7372SOL    HW329221   6.468   0.012   1.066  1.1559 -0.2710  0.5454
 7372SOL    MW429222   6.435   0.076   1.116  0.0177 -0.2307 -0.3115
 7373SOL     OW29223   5.117   4.693   1.297 -0.4257 -0.4379 -0.1621
 7373SOL    HW229224   5.026   4.722   1.296  0.3641  2.2735 -0.0168
 7373SOL    HW329225   5.161   4.752   1.359  1.6445 -0.9501 -1.0491
 7373SOL    MW429226   5.111   4.705   1.305 -0.0524 -0.1623  1.0395
 7374SOL     OW29227   1.368   2.754   4.495  0.7292 -0.2613 -0.5884
 7374SOL    HW229228   1.414   2.798   4.567 -0.2377 -0.5831  0.2522
 7374SOL    HW329229   1.397   2.663   4.501 -0.4039 -0.5946  0.3168
 7374SOL    MW429230   1.378   2.748   4.506  1.0631  0.2005 -0.3983
 7375SOL     OW29231   3.503   4.212   5.090 -0.5081  0.4762  0.5490
 7375SOL    HW229232   3.543   4.206   5.003  1.5949  2.8414  1.2524
 7375SOL    HW329233   3.575   4.192   5.151 -1.0862  2.0299  1.8029
 7375SOL    MW429234   3.518   4.208   5.087 -0.5162  0.4861  0.2269
 7376SOL     OW29235   5.703   3.495   3.524  0.2638  0.3989 -0.4462
 7376SOL    HW229236   5.729   3.404   3.504 -1.1222  0.3872 -2.4413
 7376SOL    HW329237   5.610   3.489   3.544  0.2056  1.3610 -0.4046
 7376SOL    MW429238   5.694   3.482   3.524 -0.2936  0.2099 -0.2128
 7377SOL     OW29239   1.160   3.923   3.369  0.6275 -0.0483 -0.0829
 7377SOL    HW229240   1.206   3.975   3.435  0.7162  0.7371 -0.7481
 7377SOL    HW329241   1.089   3.980   3.339 -0.3407 -0.9663  0.4006
 7377SOL    MW429242   1.157   3.937   3.374  0.0207 -0.4915  0.0150
 7378SOL     OW29243   0.720   3.309   3.251 -0.0852 -0.6190 -0.2292
 7378SOL    HW229244   0.779   3.338   3.321 -0.6908  0.3131 -0.0916
 7378SOL    HW329245   0.754   3.223   3.225  0.2601 -0.8927  1.0675
 7378SOL    MW429246   0.733   3.301   3.257 -0.6676  0.0373 -0.2583
 7379SOL     OW29247   2.701   0.380   2.745  0.3000 -0.3639 -0.2752
 7379SOL    HW229248   2.721   0.467   2.780  0.2144  0.2706 -1.7481
 7379SOL    HW329249   2.787   0.344   2.722  0.2350 -0.1295 -0.8915
 7379SOL    MW429250   2.715   0.387   2.747  0.0857  0.2212  0.2385
 7380SOL     OW29251   0.972   2.977   2.667  0.2406 -0.2147 -0.0522
 7380SOL    HW229252   0.905   2.963   2.734 -1.6607  1.3780 -1.4770
 7380SOL    HW329253   0.932   2.945   2.586  1.7203 -0.3553 -0.7605
 7380SOL    MW429254   0.958   2.971   2.665  0.0049 -0.3947 -0.3702
 7381SOL     OW29255   3.465   0.200   3.309  0.2046  0.5738  0.6176
 7381SOL    HW229256   3.420   0.162   3.385 -1.0824 -0.6929 -0.7094
 7381SOL    HW329257   3.445   0.140   3.237  2.6394  0.9037 -0.4416
 7381SOL    MW429258   3.456   0.187   3.310  0.1456  0.0850 -0.1533
 7382SOL     OW29259   4.496   2.411   3.770  0.0755  0.0279  0.1407
 7382SOL    HW229260   4.538   2.326   3.762  0.7675  0.4297 -0.6223
 7382SOL    HW329261   4.411   2.399   3.728  0.2229 -0.2503 -0.0840
 7382SOL    MW429262   4.490   2.398   3.764  0.2306  0.1950  0.6563
 7383SOL     OW29263   1.136   1.600   5.081 -0.4972 -0.3452 -0.6845
 7383SOL    HW229264   1.149   1.540   5.154  1.2658 -1.4949 -1.8819
 7383SOL    HW329265   1.057   1.567   5.036 -3.3627  2.0130  2.1348
 7383SOL    MW429266   1.127   1.588   5.084 -0.1510  0.4325  0.0456
 7384SOL     OW29267   5.454   2.198   4.829 -0.2224  0.5969 -0.1969
 7384SOL    HW229268   5.426   2.259   4.760  2.7553  2.0571 -0.2514
 7384SOL    HW329269   5.518   2.141   4.786 -1.3658 -1.2229  0.4093
 7384SOL    MW429270   5.459   2.198   4.814 -0.8163  0.1657 -0.2931
 7385SOL     OW29271   0.424   2.489   4.115 -0.4618 -0.0122 -0.4971
 7385SOL    HW229272   0.362   2.507   4.045 -0.7796 -0.2391 -0.2785
 7385SOL    HW329273   0.451   2.398   4.101 -1.1912 -0.3487  0.1711
 7385SOL    MW429274   0.419   2.479   4.104 -0.1969  0.1330 -0.1231
 7386SOL     OW29275   1.072   4.331   2.239 -0.2071  0.1183 -0.4345
 7386SOL    HW229276   1.058   4.401   2.303 -0.6873 -0.6204  0.3048
 7386SOL    HW329277   1.161   4.343   2.209  1.2847 -1.3783  2.8476
 7386SOL    MW429278   1.082   4.342   2.244 -0.2336  0.1499 -0.0081
 7387SOL     OW29279   2.169   4.594   2.656  0.2678  0.6189 -0.0775
 7387SOL    HW229280   2.108   4.585   2.583 -0.5804  1.1029  0.5512
 7387SOL    HW329281   2.169   4.688   2.676  0.9290  0.5731  0.1847
 7387SOL    MW429282   2.161   4.605   2.649 -0.2028  0.4409  0.3275
 7388SOL     OW29283   4.589   4.832   0.900  0.2294 -0.2632  0.2613
 7388SOL    HW229284   4.561   4.863   0.986  0.0268 -3.3188  1.4544
 7388SOL    HW329285   4.512   4.840   0.845 -0.2420 -0.0972  0.9312
 7388SOL    MW429286   4.575   4.837   0.904 -0.1430 -0.4298  0.4540
 7389SOL     OW29287   5.735   4.982   3.933  0.5913 -0.0427 -0.1033
 7389SOL    HW229288   5.649   4.965   3.896  0.5490 -1.8863  0.7271
 7389SOL    HW329289   5.731   4.946   4.022  1.2897  2.5268  1.0799
 7389SOL    MW429290   5.723   4.975   3.940  0.0841 -0.2147  0.0969
 7390SOL     OW29291   3.236   2.129   5.018  0.0880 -0.1245  0.1174
 7390SOL    HW229292   3.322   2.110   5.057  0.3736 -0.0135 -0.4488
 7390SOL    HW329293   3.185   2.166   5.090  0.2383 -0.9603  0.6705
 7390SOL    MW429294   3.241   2.131   5.033  0.3236  0.4910 -0.3429
 7391SOL     OW29295   0.430   2.570   2.787 -0.2299 -0.0690  0.0968
 7391SOL    HW229296   0.368   2.503   2.817 -1.5387  1.2636  0.4879
 7391SOL    HW329297   0.377   2.631   2.737  0.9494  0.6476 -0.3170
 7391SOL    MW429298   0.415   2.569   2.784 -0.1359 -0.3502 -0.8409
 7392SOL     OW29299   6.003   3.340   3.415  0.0400  0.0548  0.2702
 7392SOL    HW229300   5.913   3.309   3.424 -0.7690  1.1717 -2.7298
 7392SOL    HW329301   6.057   3.268   3.446 -1.8588 -2.2881 -1.4943
 7392SOL    MW429302   5.998   3.327   3.420 -0.0828 -0.2559  0.6046
 7393SOL     OW29303   5.102   6.011   0.730 -0.5000  0.5430 -0.2937
 7393SOL    HW229304   5.065   6.073   0.667 -0.1378  1.9505  0.8052
 7393SOL    HW329305   5.105   6.061   0.812  0.4964 -0.7124  0.4594
 7393SOL    MW429306   5.098   6.026   0.732  0.2404 -0.4609 -0.5949
 7394SOL     OW29307   4.502   3.634   0.567 -0.8097 -0.6288  0.0054
 7394SOL    HW229308   4.514   3.681   0.650 -0.8322  0.1190 -0.3997
 7394SOL    HW329309   4.590   3.608   0.542 -0.8923 -1.5761  0.6626
 7394SOL    MW429310   4.515   3.637   0.575 -0.0717 -0.3752  0.2419
 7395SOL     OW29311   3.142   4.251   2.129 -0.2974  0.5005 -0.3003
 7395SOL    HW229312   3.139   4.161   2.094 -0.8160  0.3404  0.1377
 7395SOL    HW329313   3.059   4.260   2.175 -0.9834  1.7572 -1.6969
 7395SOL    MW429314   3.130   4.240   2.130  0.3202 -0.1009  0.2449
 7396SOL     OW29315   6.200   3.575   5.064  0.4790  0.4236  0.5690
 7396SOL    HW229316   6.204   3.592   5.159 -2.7733  1.8216  0.5580
 7396SOL    HW329317   6.107   3.565   5.045  1.0498  0.0304 -2.5085
 7396SOL    MW429318   6.189   3.576   5.074  0.0189  0.3305  0.3455
 7397SOL     OW29319   2.915   4.640   5.741  0.3815  0.3140  0.2799
 7397SOL    HW229320   2.950   4.724   5.712 -0.1149  0.1634 -0.8221
 7397SOL    HW329321   2.876   4.602   5.662  0.6175 -0.9630  0.7528
 7397SOL    MW429322   2.914   4.646   5.727 -0.1717 -0.6875 -0.2435
 7398SOL     OW29323   2.362   3.407   2.977  0.5428  0.0813 -0.6466
 7398SOL    HW229324   2.412   3.332   2.944 -0.9994 -0.3231 -2.2231
 7398SOL    HW329325   2.375   3.405   3.071  2.6031 -0.6171 -0.8913
 7398SOL    MW429326   2.370   3.397   2.985 -0.0815 -0.1897  0.3721
 7399SOL     OW29327   0.685   3.558   0.743 -0.1334  0.5967  0.2927
 7399SOL    HW229328   0.751   3.493   0.764 -1.5288 -1.5254 -1.3737
 7399SOL    HW329329   0.684   3.617   0.818  0.6131 -1.8289  2.3463
 7399SOL    MW429330   0.693   3.557   0.756  0.2466  0.1141  0.1106
 7400SOL     OW29331   5.544   4.310   1.520  0.3186 -0.1865  0.0833
 7400SOL    HW229332   5.541   4.221   1.555  2.2118 -0.2903  0.1097
 7400SOL    HW329333   5.510   4.365   1.591  0.1653 -0.7866  0.4788
 7400SOL    MW429334   5.539   4.306   1.534 -0.3704 -0.2211  0.4336
 7401SOL     OW29335   4.034   3.286   6.328 -0.0373 -0.4491  0.4345
 7401SOL    HW229336   3.942   3.311   6.324 -0.4261 -1.5250  1.8925
 7401SOL    HW329337   4.068   3.305   6.240 -1.5086  0.4228  0.0218
 7401SOL    MW429338   4.026   3.291   6.316 -0.0569  0.3524  0.1150
 7402SOL     OW29339   0.639   3.438   0.094 -0.2909 -0.5945  0.1632
 7402SOL    HW229340   0.722   3.476   0.063  1.0084 -1.7680  1.9892
 7402SOL    HW329341   0.638   3.350   0.057  0.0372 -1.1040  1.3221
 7402SOL    MW429342   0.650   3.431   0.085  0.7041  0.7171  0.6320
 7403SOL     OW29343   1.387   5.051   2.070 -0.5509 -0.0258  0.1355
 7403SOL    HW229344   1.351   5.071   2.156  0.9971 -0.7870  0.9928
 7403SOL    HW329345   1.328   5.095   2.009 -1.2222  1.2184  1.6116
 7403SOL    MW429346   1.374   5.059   2.073 -0.5048 -0.0959 -0.4847
 7404SOL     OW29347   5.047   0.157   0.051  0.3513 -0.4880 -0.2203
 7404SOL    HW229348   4.965   0.178   0.095  1.2291  0.6894  0.9399
 7404SOL    HW329349   5.025   0.085  -0.009 -1.5296 -0.1091 -0.0421
 7404SOL    MW429350   5.033   0.150   0.049  0.4570 -0.5006 -0.0430
 7405SOL     OW29351   3.010   0.913   0.713  0.4925 -0.0698  0.3664
 7405SOL    HW229352   2.933   0.880   0.666 -0.2497  1.4101  0.5051
 7405SOL    HW329353   3.031   0.844   0.775  0.2418 -1.1787 -0.7345
 7405SOL    MW429354   3.003   0.899   0.715 -0.0469  0.1200 -0.0343
 7406SOL     OW29355   2.166   5.322   3.451  0.4181  0.5517  0.0222
 7406SOL    HW229356   2.122   5.405   3.437 -0.8406  0.1650  1.4021
 7406SOL    HW329357   2.100   5.266   3.492  1.8753 -0.4088  1.1818
 7406SOL    MW429358   2.152   5.326   3.455  0.9148 -0.1271 -0.1723
 7407SOL     OW29359   2.841   2.144   2.444  0.3574  0.1546  0.4940
 7407SOL    HW229360   2.915   2.204   2.453  0.1107  0.4469  0.6027
 7407SOL    HW329361   2.829   2.135   2.349 -0.4771  1.3852  0.4573
 7407SOL    MW429362   2.849   2.151   2.433 -0.0709  0.4498  0.0110
 7408SOL     OW29363   3.704   1.869   5.122 -0.1596 -0.1386 -0.4446
 7408SOL    HW229364   3.702   1.804   5.193  0.2808 -0.5467 -0.8009
 7408SOL    HW329365   3.797   1.888   5.110 -0.0597 -1.5291 -2.2274
 7408SOL    MW429366   3.716   1.863   5.130  0.0476  0.4007 -0.2736
 7409SOL     OW29367   5.577   1.707   2.690  0.1749 -0.0526 -0.2360
 7409SOL    HW229368   5.587   1.782   2.632  0.1832 -0.5571 -0.8986
 7409SOL    HW329369   5.568   1.745   2.777  3.9866  0.6596  0.0142
 7409SOL    MW429370   5.577   1.722   2.694  0.0252 -0.1121  0.6657
 7410SOL     OW29371   5.116   5.997   1.683  0.0574  0.0124 -0.4019
 7410SOL    HW229372   5.137   5.935   1.754 -0.3826 -0.3069 -0.5411
 7410SOL    HW329373   5.125   6.083   1.723 -0.7661 -0.1763  0.2273
 7410SOL    MW429374   5.120   6.000   1.698  0.0453  0.5911 -0.1599
 7411SOL     OW29375   5.787   3.050   3.687  0.0431 -0.2905 -0.0437
 7411SOL    HW229376   5.840   3.121   3.723 -1.3633  1.2774 -0.9283
 7411SOL    HW329377   5.721   3.094   3.633  1.4682 -2.3866 -3.9008
 7411SOL    MW429378   5.785   3.065   3.684 -1.0859 -0.0903 -0.4044
 7412SOL     OW29379   0.942   5.097   5.688 -0.1464 -0.1819 -0.4882
 7412SOL    HW229380   0.988   5.057   5.614 -1.1794 -2.4073 -0.0126
 7412SOL    HW329381   0.852   5.109   5.657 -0.1645  0.5620 -0.1725
 7412SOL    MW429382   0.936   5.093   5.674 -0.7024  0.1417 -0.2697
 7413SOL     OW29383   4.353   4.358   4.078  0.2180 -0.6518  0.3464
 7413SOL    HW229384   4.359   4.322   4.166  2.8823 -0.3022  0.3874
 7413SOL    HW329385   4.397   4.442   4.083  2.1105 -1.4164 -1.6507
 7413SOL    MW429386   4.360   4.364   4.090  0.2661  0.2729 -0.1918
 7414SOL     OW29387   3.488   2.911   1.787 -0.0257  0.1980 -0.2651
 7414SOL    HW229388   3.513   2.831   1.741  2.3670  0.7997 -0.1743
 7414SOL    HW329389   3.434   2.959   1.725  1.7462  0.2356 -1.8531
 7414SOL    MW429390   3.484   2.907   1.773  0.1425 -0.3929 -0.0712
 7415SOL     OW29391   5.842   2.053   5.931  0.2093  0.2877  0.2558
 7415SOL    HW229392   5.749   2.066   5.946 -0.0216  2.5464 -2.2336
 7415SOL    HW329393   5.885   2.115   5.990  0.1399 -0.5311  1.1795
 7415SOL    MW429394   5.836   2.063   5.941 -0.1645 -0.2908 -0.5512
 7416SOL     OW29395   3.401   3.522   1.212 -0.4134 -0.1790  0.2031
 7416SOL    HW229396   3.342   3.582   1.166  0.9768  0.3808 -0.9032
 7416SOL    HW329397   3.398   3.441   1.161  1.1987  0.4717 -0.9889
 7416SOL    MW429398   3.393   3.519   1.199 -0.0530  0.1964  0.1206
 7417SOL     OW29399   5.700   3.681   1.573 -0.6098 -0.0481 -0.3693
 7417SOL    HW229400   5.684   3.602   1.624  1.0213  0.1317  0.5008
 7417SOL    HW329401   5.641   3.746   1.611 -1.1439 -0.5420 -0.3352
 7417SOL    MW429402   5.690   3.679   1.585  0.3404  0.1057  0.0908
 7418SOL     OW29403   3.126   5.980   5.285  0.2236  0.2308 -0.2932
 7418SOL    HW229404   3.133   6.054   5.225  2.4683  2.0881  2.0594
 7418SOL    HW329405   3.217   5.950   5.297 -0.6055 -3.2576 -1.4181
 7418SOL    MW429406   3.139   5.986   5.279  0.4177  0.1740  0.4341
 7419SOL     OW29407   0.261   4.055   4.573 -0.9135 -0.0364 -0.3881
 7419SOL    HW229408   0.198   4.115   4.533 -0.7216  1.1048  0.9341
 7419SOL    HW329409   0.347   4.091   4.550 -0.7963  0.1228  0.2668
 7419SOL    MW429410   0.264   4.068   4.565  0.0031  0.1011  0.1888
 7420SOL     OW29411   0.394   5.482   4.351  0.2218 -0.4458  0.5931
 7420SOL    HW229412   0.369   5.459   4.440  0.1726  0.9684  0.9612
 7420SOL    HW329413   0.333   5.551   4.326  0.1832 -0.8861 -0.5737
 7420SOL    MW429414   0.383   5.488   4.359 -0.0130 -0.2623  0.0868
 7421SOL     OW29415   5.779   3.558   5.824  0.1642 -0.1909 -0.2507
 7421SOL    HW229416   5.726   3.551   5.903  1.1405  0.9686  0.5325
 7421SOL    HW329417   5.822   3.473   5.816 -1.4976 -1.0464 -0.7263
 7421SOL    MW429418   5.777   3.545   5.833 -0.4966 -0.2531 -0.3759
 7422SOL     OW29419   5.701   4.049   1.802  0.0913  0.0356  0.0053
 7422SOL    HW229420   5.776   4.067   1.746  0.4705 -1.3563  0.0309
 7422SOL    HW329421   5.625   4.073   1.750  0.5415  1.9086  0.1502
 7422SOL    MW429422   5.701   4.054   1.788 -0.2499  0.4557  0.1620
 7423SOL     OW29423   5.545   3.280   1.218 -0.0427  0.3323  0.4671
 7423SOL    HW229424   5.499   3.328   1.149  1.0676  0.9470  0.1220
 7423SOL    HW329425   5.598   3.347   1.262  2.8034 -0.7725 -1.0502
 7423SOL    MW429426   5.546   3.295   1.215 -0.7834  0.5401 -0.2146
 7424SOL     OW29427   6.264   4.618   4.772 -0.5527 -0.1956  0.3181
 7424SOL    HW229428   6.173   4.639   4.754 -0.1380  0.2495 -1.4183
 7424SOL    HW329429   6.278   4.646   4.863 -1.8538  0.6731  0.2707
 7424SOL    MW429430   6.254   4.624   4.782 -0.1852  0.1755 -0.0653
 7425SOL     OW29431   4.432   1.595   6.005 -0.4013  0.4772  0.2907
 7425SOL    HW229432   4.397   1.670   5.957 -0.4574  1.3823  1.6553
 7425SOL    HW329433   4.518   1.624   6.034  0.2418 -0.5986 -0.4784
 7425SOL    MW429434   4.438   1.609   6.003 -0.1094 -0.1040  0.0878
 7426SOL     OW29435   3.985   2.659   1.780  0.6155 -0.2769 -0.1902
 7426SOL    HW229436   3.954   2.572   1.757  3.0441 -1.1181 -0.5959
 7426SOL    HW329437   3.939   2.680   1.862 -0.4116 -1.6882 -0.3587
 7426SOL    MW429438   3.975   2.650   1.788 -0.0292  0.1889  0.0007
 7427SOL     OW29439   2.113   4.387   0.399 -0.2350 -0.3189 -0.1214
 7427SOL    HW229440   2.036   4.427   0.439 -1.1029 -1.2584 -0.8337
 7427SOL    HW329441   2.183   4.403   0.463 -0.8456  1.1030  0.2422
 7427SOL    MW429442   2.112   4.394   0.413  0.5979 -0.1171 -0.7285
 7428SOL     OW29443   3.872   4.924   1.556 -0.7255  0.4376  0.9341
 7428SOL    HW229444   3.894   4.914   1.648  0.5221 -0.0441  0.6049
 7428SOL    HW329445   3.924   5.000   1.528 -1.5354  0.9376  0.7519
 7428SOL    MW429446   3.882   4.933   1.564 -0.8770 -0.6377  0.1194
 7429SOL     OW29447   1.973   5.372   2.583 -0.0294  0.5965 -0.0121
 7429SOL    HW229448   1.882   5.383   2.612 -0.3671 -0.0024 -0.7943
 7429SOL    HW329449   2.023   5.431   2.639 -0.2571 -2.2927  3.5889
 7429SOL    MW429450   1.967   5.381   2.594 -0.1934  0.3685 -0.1072
 7430SOL     OW29451   3.435   0.220   0.046  0.1900 -0.0865  0.8656
 7430SOL    HW229452   3.456   0.277   0.120 -0.9482  0.9806  0.4022
 7430SOL    HW329453   3.373   0.270  -0.006  1.4977 -0.5242 -1.2078
 7430SOL    MW429454   3.429   0.234   0.049  0.3540 -0.0829  0.2283
 7431SOL     OW29455   5.022   5.455   6.065  0.1262  0.8710 -0.4017
 7431SOL    HW229456   5.116   5.451   6.047 -0.1146 -0.5493 -1.5834
 7431SOL    HW329457   5.016   5.486   6.155  1.6281  3.3056 -1.0299
 7431SOL    MW429458   5.033   5.458   6.075 -0.1819  0.8483 -0.0020
 7432SOL     OW29459   6.368   6.045   1.930  0.4548 -0.0596  0.1413
 7432SOL    HW229460   6.277   6.045   1.900  0.7489  0.9202 -0.8262
 7432SOL    HW329461   6.416   6.002   1.859  0.9842  1.1335 -0.2524
 7432SOL    MW429462   6.362   6.039   1.917  0.2867  0.7491  0.1147
 7433SOL     OW29463   3.475   3.213   5.366 -0.0961 -0.3879  0.1438
 7433SOL    HW229464   3.439   3.157   5.436 -0.6050 -0.2667 -0.0137
 7433SOL    HW329465   3.458   3.302   5.396 -1.8524 -0.3228 -0.8704
 7433SOL    MW429466   3.468   3.217   5.379 -0.0223 -0.8849 -0.2818
 7434SOL     OW29467   0.268   1.926   2.420  0.2438  0.4211 -0.7965
 7434SOL    HW229468   0.240   1.977   2.344 -1.3689  2.2957  0.9322
 7434SOL    HW329469   0.302   1.991   2.481  1.1040 -0.9755  0.2658
 7434SOL    MW429470   0.268   1.941   2.418 -0.2298  0.0508  0.4345
 7435SOL     OW29471   3.076   4.762   4.445 -0.3702 -0.2713  0.0393
 7435SOL    HW229472   3.135   4.749   4.519  0.6175 -1.4922 -0.9280
 7435SOL    HW329473   3.047   4.674   4.421  1.6847 -0.2862 -2.8709
 7435SOL    MW429474   3.080   4.749   4.452  0.3403 -0.6301  0.5739
 7436SOL     OW29475   2.961   0.858   5.881  0.2752 -0.1508 -0.0377
 7436SOL    HW229476   2.902   0.789   5.912 -1.2119 -0.3505 -2.9134
 7436SOL    HW329477   2.924   0.939   5.916 -1.2440 -0.3700 -1.0370
 7436SOL    MW429478   2.948   0.860   5.889 -0.2442  0.0385  0.0130
 7437SOL     OW29479   3.912   5.095   2.048 -0.6543 -0.4499 -0.0883
 7437SOL    HW229480   3.827   5.053   2.058 -0.5135 -0.5992  0.5043
 7437SOL    HW329481   3.915   5.162   2.117 -0.3727 -0.3064 -0.2347
 7437SOL    MW429482   3.901   5.099   2.059 -0.1554 -0.4674  0.0326
 7438SOL     OW29483   2.211   2.199   2.693 -0.1078 -0.0706 -0.2697
 7438SOL    HW229484   2.143   2.135   2.711 -0.8512  0.6661 -0.3833
 7438SOL    HW329485   2.206   2.213   2.598  0.5835 -0.4277 -0.3617
 7438SOL    MW429486   2.201   2.192   2.683 -0.2455 -0.1260  0.5623
 7439SOL     OW29487   0.916   4.167   0.477  0.1425 -0.0153 -0.4117
 7439SOL    HW229488   0.970   4.186   0.554  0.2263 -0.1281 -0.4432
 7439SOL    HW329489   0.832   4.209   0.495 -0.2582 -1.0849  0.2837
 7439SOL    MW429490   0.912   4.175   0.489  0.0107  0.0292 -0.7127
 7440SOL     OW29491   0.347   3.950   2.989 -0.1962  0.4286 -0.6212
 7440SOL    HW229492   0.429   3.939   3.037  0.2260  3.3105 -0.5388
 7440SOL    HW329493   0.348   3.880   2.923  3.4868  1.7116 -2.1631
 7440SOL    MW429494   0.358   3.939   2.986  0.1217 -0.2018 -0.2654
 7441SOL     OW29495   4.222   6.345   3.733 -0.9203 -0.7503  0.2968
 7441SOL    HW229496   4.182   6.369   3.649 -0.7695  0.0784  0.4527
 7441SOL    HW329497   4.311   6.317   3.710 -1.1574 -1.3479  0.0921
 7441SOL    MW429498   4.228   6.345   3.719 -0.0295  0.1119 -0.0531
 7442SOL     OW29499   5.215   2.368   1.330 -0.1350  0.5035  0.3196
 7442SOL    HW229500   5.170   2.414   1.260  1.1254  0.3018 -0.6565
 7442SOL    HW329501   5.191   2.276   1.319  1.5083  0.1927 -1.0426
 7442SOL    MW429502   5.206   2.362   1.319 -0.4688  0.7280 -0.2086
 7443SOL     OW29503   6.359   1.210   2.404  0.3856  0.1060  0.5025
 7443SOL    HW229504   6.278   1.246   2.367  0.2241 -0.0225  0.7319
 7443SOL    HW329505   6.416   1.286   2.415  0.5750  0.1061 -0.3502
 7443SOL    MW429506   6.356   1.225   2.400 -0.4054  0.4155  0.1650
 7444SOL     OW29507   1.234   2.422   4.692 -0.1757  0.2101  0.0883
 7444SOL    HW229508   1.318   2.375   4.689 -0.0294  0.4247  0.6496
 7444SOL    HW329509   1.175   2.368   4.639  0.9377  1.3935 -2.5071
 7444SOL    MW429510   1.237   2.408   4.685  0.8830 -0.7270 -0.1012
 7445SOL     OW29511   3.487   2.543   1.430 -0.1239  0.2835  0.3143
 7445SOL    HW229512   3.540   2.602   1.378 -1.0815 -0.9692 -2.2279
 7445SOL    HW329513   3.546   2.471   1.454  0.3129  0.8594  1.0069
 7445SOL    MW429514   3.502   2.541   1.426  0.1277  0.3484  0.3674
 7446SOL     OW29515   4.154   6.042   0.266 -0.5317  0.5617  0.0720
 7446SOL    HW229516   4.171   6.136   0.272 -0.3105  0.6202 -1.1530
 7446SOL    HW329517   4.145   6.025   0.172 -0.4758 -0.6598  0.2655
 7446SOL    MW429518   4.155   6.052   0.254 -0.1310 -0.3958 -0.6840
 7447SOL     OW29519   6.087   1.091   5.051 -0.1233  0.4056 -0.5368
 7447SOL    HW229520   6.070   1.153   5.121  0.4143 -1.0678  0.9869
 7447SOL    HW329521   6.147   1.136   4.992  2.3293  0.5324  1.8674
 7447SOL    MW429522   6.093   1.105   5.052 -0.0760  0.0883  0.2971
 7448SOL     OW29523   0.948   3.123   0.486  0.1862 -0.2189 -0.1279
 7448SOL    HW229524   1.017   3.056   0.490 -0.4477 -0.9249 -0.7109
 7448SOL    HW329525   0.897   3.109   0.566  0.2333 -0.2229 -0.0981
 7448SOL    MW429526   0.950   3.112   0.497  0.3092  0.1079 -0.4157
 7449SOL     OW29527   3.231   5.642   2.449 -0.2404 -0.1241  0.5657
 7449SOL    HW229528   3.264   5.689   2.372  0.9617  0.7961  1.5837
 7449SOL    HW329529   3.210   5.711   2.512  2.1701 -0.8714  2.3402
 7449SOL    MW429530   3.233   5.657   2.447  0.0529 -0.6515 -0.2447
 7450SOL     OW29531   4.151   0.480   2.515 -0.3548 -0.3427 -0.1583
 7450SOL    HW229532   4.131   0.516   2.428 -0.7326 -0.4321 -0.1107
 7450SOL    HW329533   4.237   0.439   2.505 -0.2563 -0.0753 -0.4079
 7450SOL    MW429534   4.160   0.479   2.502  0.9030 -0.5924 -0.0204
 7451SOL     OW29535   4.701   2.166   0.635  0.2565  0.2519  0.1577
 7451SOL    HW229536   4.679   2.176   0.728  1.6610  0.6079  0.4739
 7451SOL    HW329537   4.631   2.212   0.589 -0.0932  0.6663  1.0773
 7451SOL    MW429538   4.689   2.173   0.642 -0.1209 -0.1358  0.4804
 7452SOL     OW29539   5.471   5.840   3.503 -0.2166  0.4338  0.3819
 7452SOL    HW229540   5.423   5.789   3.568  0.7295  2.0513  2.4804
 7452SOL    HW329541   5.561   5.807   3.509  0.0880  1.2728  0.6782
 7452SOL    MW429542   5.477   5.829   3.513 -0.5596  0.2294  0.5507
 7453SOL     OW29543   3.555   5.515   1.145  0.4192 -0.0148 -0.1906
 7453SOL    HW229544   3.579   5.608   1.144  2.1905 -0.4277  0.0163
 7453SOL    HW329545   3.603   5.477   1.071 -0.4603 -0.7350 -0.4105
 7453SOL    MW429546   3.564   5.522   1.135 -0.1069 -0.0855  0.1702
 7454SOL     OW29547   1.070   6.360   1.517 -0.1723  0.3442  0.6365
 7454SOL    HW229548   1.125   6.418   1.571 -0.3969  1.2753 -0.1118
 7454SOL    HW329549   1.132   6.316   1.459 -0.0201 -0.0630  1.0954
 7454SOL    MW429550   1.086   6.362   1.517 -0.5158 -0.5719 -0.7826
 7455SOL     OW29551   3.848   6.202   5.781  0.9539 -0.1693  0.4260
 7455SOL    HW229552   3.801   6.153   5.848 -0.7131  0.4529 -0.2264
 7455SOL    HW329553   3.795   6.192   5.702  1.0076  1.9251  0.0649
 7455SOL    MW429554   3.834   6.195   5.779 -0.3484  0.0219  0.1978
 7456SOL     OW29555   6.237   1.606   1.824  0.0558  0.2572 -0.5533
 7456SOL    HW229556   6.297   1.667   1.867  0.5768  0.3762 -1.4104
 7456SOL    HW329557   6.294   1.552   1.769 -0.7866  2.0613 -3.4406
 7456SOL    MW429558   6.253   1.607   1.822  0.2357 -0.3275 -0.7215
 7457SOL     OW29559   1.910   3.289   4.690 -0.1763  0.3392  0.6012
 7457SOL    HW229560   1.827   3.252   4.721  0.1924 -1.7424 -0.7449
 7457SOL    HW329561   1.883   3.361   4.632 -1.0757 -0.5017 -0.0632
 7457SOL    MW429562   1.895   3.294   4.687  0.4314 -0.1457  0.5534
 7458SOL     OW29563   5.043   3.537   0.553 -0.1435  0.2889  0.6034
 7458SOL    HW229564   5.110   3.535   0.622  0.6447  0.6211 -0.1344
 7458SOL    HW329565   5.085   3.582   0.480 -0.9116 -0.1911 -0.1566
 7458SOL    MW429566   5.057   3.542   0.553  0.5307  0.1327 -0.1505
 7459SOL     OW29567   6.299   2.175   1.376 -0.0932  0.4403 -0.0345
 7459SOL    HW229568   6.328   2.261   1.404  0.9277  0.8134 -2.0902
 7459SOL    HW329569   6.228   2.193   1.314 -2.1782 -0.3506  1.9923
 7459SOL    MW429570   6.293   2.189   1.372 -0.0946 -0.0547 -0.0285
 7460SOL     OW29571   1.243   6.113   1.428 -0.2682 -0.2067 -0.0416
 7460SOL    HW229572   1.243   6.077   1.517 -0.9828  0.7115  0.3448
 7460SOL    HW329573   1.318   6.172   1.426  0.2310 -0.8312 -0.3210
 7460SOL    MW429574   1.253   6.116   1.439 -0.1441 -0.2329  0.3928
 7461SOL     OW29575   4.536   4.568   1.283  0.6827 -0.2195  0.0646
 7461SOL    HW229576   4.525   4.608   1.369 -0.1334  0.1851 -0.2179
 7461SOL    HW329577   4.447   4.545   1.256  0.9998 -0.9461 -0.3857
 7461SOL    MW429578   4.523   4.570   1.291  0.5786 -0.4731 -0.0505
 7462SOL     OW29579   3.650   5.913   4.422 -0.6043 -0.0486  0.0941
 7462SOL    HW229580   3.688   6.001   4.416 -3.3829  1.2085 -0.9566
 7462SOL    HW329581   3.631   5.902   4.515 -0.3240  0.4846  0.2224
 7462SOL    MW429582   3.653   5.923   4.433  0.4518 -0.3058  0.0914
 7463SOL     OW29583   0.680   1.498   4.684  0.9884  0.3084 -0.0320
 7463SOL    HW229584   0.637   1.548   4.614  1.2275  1.5592  0.6869
 7463SOL    HW329585   0.612   1.488   4.751  0.9495 -0.3296 -0.1612
 7463SOL    MW429586   0.665   1.504   4.684  0.3243 -0.5514  0.1512
 7464SOL     OW29587   1.692   5.263   1.427  0.2716  0.1600  0.0582
 7464SOL    HW229588   1.632   5.194   1.397  0.6401 -0.1879  0.1157
 7464SOL    HW329589   1.779   5.225   1.417  0.5922  1.2460 -1.5390
 7464SOL    MW429590   1.695   5.249   1.422 -0.0169 -0.7050  0.6547
 7465SOL     OW29591   6.186   5.696   3.185 -0.9686  0.5857  0.0180
 7465SOL    HW229592   6.240   5.776   3.186 -1.7598  1.1835 -1.5789
 7465SOL    HW329593   6.227   5.640   3.120 -0.7049 -0.1187  0.7822
 7465SOL    MW429594   6.198   5.699   3.176  1.0986  0.5612  0.3009
 7466SOL     OW29595   5.085   5.867   1.085  0.0771 -0.3354  0.2183
 7466SOL    HW229596   5.031   5.931   1.039  0.6327  1.0213  1.3436
 7466SOL    HW329597   5.030   5.789   1.092 -1.3353  0.6361  0.4074
 7466SOL    MW429598   5.071   5.866   1.080  0.2432  0.7784  0.4049
 7467SOL     OW29599   2.757   0.837   0.637  0.2574  0.7905  0.0334
 7467SOL    HW229600   2.725   0.808   0.552  2.5402  1.8288 -1.2615
 7467SOL    HW329601   2.717   0.923   0.651  0.0987  0.7388 -0.1083
 7467SOL    MW429602   2.747   0.844   0.628 -0.5324 -0.1523  0.1652
 7468SOL     OW29603   3.756   1.046   1.848  0.1219  0.8101 -0.4545
 7468SOL    HW229604   3.697   1.061   1.922 -0.0786 -1.7165  0.0082
 7468SOL    HW329605   3.826   1.111   1.859 -0.1114  0.7631  1.7342
 7468SOL    MW429606   3.758   1.057   1.859 -0.3442  0.3877  0.1313
 7469SOL     OW29607   6.321   5.890   2.617  0.1702  0.1343  0.3214
 7469SOL    HW229608   6.234   5.851   2.620  0.2493 -0.2129 -1.1319
 7469SOL    HW329609   6.339   5.916   2.708 -1.5706  0.5219  0.5861
 7469SOL    MW429610   6.312   5.888   2.630  0.3874  0.4108  0.6592
 7470SOL     OW29611   4.413   5.672   2.828 -0.0496  0.1711 -0.2167
 7470SOL    HW229612   4.442   5.620   2.903  1.4064  1.3441  0.0687
 7470SOL    HW329613   4.330   5.710   2.856  0.2733  0.2611  0.6489
 7470SOL    MW429614   4.406   5.670   2.842  0.6679  0.1011 -0.2992
 7471SOL     OW29615   1.806   6.331   3.401  0.0069 -0.1165 -0.4447
 7471SOL    HW229616   1.869   6.376   3.344  1.8475 -0.3257  1.3084
 7471SOL    HW329617   1.773   6.400   3.459 -0.4984 -0.2471 -0.5661
 7471SOL    MW429618   1.810   6.346   3.401  0.0634  0.4547 -0.3584
 7472SOL     OW29619   2.681   6.339   1.848 -0.0535  0.0956 -0.1678
 7472SOL    HW229620   2.655   6.389   1.770 -0.8339 -0.2517 -0.1422
 7472SOL    HW329621   2.771   6.311   1.830 -0.3719 -0.3452 -1.1330
 7472SOL    MW429622   2.689   6.342   1.835  0.3017  0.3537  0.1731
 7473SOL     OW29623   5.011   0.406   6.353 -0.1147  0.0728  0.1241
 7473SOL    HW229624   5.090   0.432   6.305  1.1573  0.0644  2.0826
 7473SOL    HW329625   5.035   0.324   6.397 -2.4274 -1.8960 -2.0062
 7473SOL    MW429626   5.025   0.399   6.353  0.5176  0.4193  0.2326
 7474SOL     OW29627   2.820   1.907   4.339 -0.0184  0.5300 -0.3708
 7474SOL    HW229628   2.810   1.846   4.266  0.9011  0.7428 -0.6944
 7474SOL    HW329629   2.771   1.868   4.411 -0.0388 -0.2188 -0.7898
 7474SOL    MW429630   2.812   1.894   4.339 -0.0113  0.5222  0.3271
 7475SOL     OW29631   3.556   0.101   5.162  0.0957 -0.3916  0.2105
 7475SOL    HW229632   3.522   0.069   5.078  1.1375 -1.0587  0.0311
 7475SOL    HW329633   3.551   0.025   5.220 -1.8980  0.4061  1.1868
 7475SOL    MW429634   3.551   0.087   5.159 -0.3606 -0.4017  0.4133
 7476SOL     OW29635   1.686   3.419   3.160 -0.4146 -0.1113 -0.2471
 7476SOL    HW229636   1.660   3.338   3.204  0.5555 -1.8494 -2.6463
 7476SOL    HW329637   1.628   3.425   3.084  1.7700 -0.5370 -2.0487
 7476SOL    MW429638   1.675   3.409   3.156  0.0456  0.7096  0.3520
 7477SOL     OW29639   6.262   4.206   4.877 -0.0608  0.3471  0.1497
 7477SOL    HW229640   6.311   4.269   4.824 -1.6517  0.1475 -1.7021
 7477SOL    HW329641   6.306   4.206   4.962  2.5309  0.8331 -1.0910
 7477SOL    MW429642   6.274   4.215   4.881  0.1912 -0.4136 -0.3025
 7478SOL     OW29643   4.165   3.291   0.533  0.2437  0.4084  0.0394
 7478SOL    HW229644   4.099   3.337   0.481  0.3416 -0.0087 -0.4577
 7478SOL    HW329645   4.116   3.257   0.608  0.2054  1.4716  0.5136
 7478SOL    MW429646   4.150   3.292   0.536 -0.0750 -0.2192 -0.0867
 7479SOL     OW29647   5.621   0.123   5.811 -0.0334  0.8439 -0.6790
 7479SOL    HW229648   5.644   0.171   5.731 -0.3642  0.9284 -0.7267
 7479SOL    HW329649   5.533   0.088   5.793  0.1544  0.3190 -0.5969
 7479SOL    MW429650   5.612   0.125   5.798 -0.2702  0.2971 -0.0651
 7480SOL     OW29651   1.681   1.014   5.703 -0.5678  0.8265  0.0457
 7480SOL    HW229652   1.736   0.955   5.652 -1.3974  0.6534 -0.6774
 7480SOL    HW329653   1.594   1.006   5.663 -1.4074  0.1706  1.9060
 7480SOL    MW429654   1.676   1.005   5.691  0.0910  0.5231  0.0272
 7481SOL     OW29655   3.330   5.771   0.907 -0.3534 -0.0310 -0.6171
 7481SOL    HW229656   3.364   5.836   0.845 -0.6349  1.3584  0.6464
 7481SOL    HW329657   3.236   5.766   0.887 -0.4383  0.3901 -0.3194
 7481SOL    MW429658   3.322   5.779   0.896 -0.0542 -0.4294  0.1751
 7482SOL     OW29659   2.266   1.828   1.467  0.0029  0.2586 -0.2155
 7482SOL    HW229660   2.289   1.757   1.407  0.6199  0.0308  0.2846
 7482SOL    HW329661   2.231   1.897   1.410  2.1291  0.7111 -1.0566
 7482SOL    MW429662   2.264   1.828   1.451  0.3093 -0.0745 -0.2760
 7483SOL     OW29663   6.210   0.034   4.457 -0.4894 -0.0193  1.0435
 7483SOL    HW229664   6.114   0.040   4.454 -0.5700 -0.7680 -2.9945
 7483SOL    HW329665   6.241   0.123   4.442 -0.7827 -0.3995 -2.7070
 7483SOL    MW429666   6.201   0.046   4.455 -0.3489  0.0005 -0.0831
 7484SOL     OW29667   4.446   0.636   0.578  0.1490 -0.0464  0.1811
 7484SOL    HW229668   4.487   0.549   0.577 -0.2284 -0.2284  0.2788
 7484SOL    HW329669   4.373   0.627   0.640 -1.1248 -0.2431 -1.2617
 7484SOL    MW429670   4.442   0.623   0.586 -0.6110  0.5130 -0.3974
 7485SOL     OW29671   5.436   2.169   4.324 -0.1424  0.1117  0.9635
 7485SOL    HW229672   5.363   2.136   4.271  0.8911 -1.5704  0.5186
 7485SOL    HW329673   5.488   2.091   4.344  1.2923  1.2056  1.6482
 7485SOL    MW429674   5.433   2.154   4.319  0.3681 -0.0924  0.2299
 7486SOL     OW29675   1.803   4.299   4.998 -0.2392  0.4193  0.4504
 7486SOL    HW229676   1.819   4.225   4.939  0.0582  0.8569 -0.0372
 7486SOL    HW329677   1.853   4.277   5.077 -0.6683 -0.1910  0.5593
 7486SOL    MW429678   1.812   4.286   5.001  0.4920  0.1702 -0.0911
 7487SOL     OW29679   0.599   4.554   4.090 -0.1677 -0.2854  0.3197
 7487SOL    HW229680   0.513   4.534   4.052 -0.7122  2.4503 -0.0920
 7487SOL    HW329681   0.623   4.475   4.138 -3.7786 -0.5637  1.9936
 7487SOL    MW429682   0.591   4.541   4.092 -0.3103  0.3249  0.0954
 7488SOL     OW29683   1.036   2.180   4.946  0.1530 -0.0043  0.0556
 7488SOL    HW229684   0.975   2.110   4.969  0.5657 -0.2198  0.5233
 7488SOL    HW329685   0.989   2.233   4.882  0.3609 -1.5619 -1.4721
 7488SOL    MW429686   1.022   2.177   4.940 -0.2032 -0.3967  0.0330
 7489SOL     OW29687   2.219   0.881   0.664 -0.7050 -0.1965  0.7055
 7489SOL    HW229688   2.292   0.853   0.719 -0.3893 -0.7984  0.0073
 7489SOL    HW329689   2.160   0.928   0.723  0.7717  1.2634  1.0491
 7489SOL    MW429690   2.221   0.883   0.679  0.2873 -0.0444 -0.4014
 7490SOL     OW29691   1.619   0.754   1.008  0.0049  0.1354  0.2822
 7490SOL    HW229692   1.542   0.729   0.956 -0.4636 -3.3021  2.3153
 7490SOL    HW329693   1.594   0.735   1.099  2.3919  1.4250  1.2966
 7490SOL    MW429694   1.605   0.748   1.013  0.3752 -0.8689 -0.0959
 7491SOL     OW29695   3.829   6.192   5.297  0.1500  0.7992 -0.2908
 7491SOL    HW229696   3.745   6.188   5.253 -1.8309 -0.0705  3.2081
 7491SOL    HW329697   3.843   6.286   5.313 -0.8223  0.8705  0.2186
 7491SOL    MW429698   3.820   6.204   5.293 -0.2299  0.0428  0.1714
 7492SOL     OW29699   5.949   4.044   4.035  0.0390 -0.3182 -0.2576
 7492SOL    HW229700   5.957   4.138   4.020  1.8494 -0.2263  0.9958
 7492SOL    HW329701   5.879   4.036   4.100 -0.5955  0.0843 -0.8743
 7492SOL    MW429702   5.940   4.056   4.042 -0.1465  0.2372  0.2101
 7493SOL     OW29703   4.835   5.694   4.040  0.1231 -0.2413 -0.2712
 7493SOL    HW229704   4.879   5.776   4.015 -0.1649 -0.3759 -1.2746
 7493SOL    HW329705   4.877   5.627   3.986 -0.5566 -0.5415 -0.4429
 7493SOL    MW429706   4.846   5.696   4.029 -0.2754  0.3653  0.0810
 7494SOL     OW29707   3.769   1.032   0.866  0.3860 -0.0069 -0.4141
 7494SOL    HW229708   3.815   0.958   0.906  0.0680  0.0774  0.1146
 7494SOL    HW329709   3.826   1.060   0.795 -0.2776 -1.8916 -1.7939
 7494SOL    MW429710   3.783   1.026   0.862 -0.6050 -0.2579  0.0227
 7495SOL     OW29711   3.906   5.457   0.863 -0.0077 -0.5976 -0.6149
 7495SOL    HW229712   3.814   5.432   0.876 -0.1333 -0.5006 -1.3178
 7495SOL    HW329713   3.953   5.374   0.859 -0.0964 -0.6528 -0.5321
 7495SOL    MW429714   3.900   5.443   0.864 -0.1855  0.0812  0.4286
 7496SOL     OW29715   2.619   4.862   6.085  0.2771  0.0236  0.0391
 7496SOL    HW229716   2.667   4.782   6.065  0.4221  0.4739 -1.5111
 7496SOL    HW329717   2.528   4.833   6.095  0.3583 -0.3704 -0.3297
 7496SOL    MW429718   2.613   4.848   6.084  0.1878 -0.6602 -0.1191
 7497SOL     OW29719   1.146   3.477   2.192  0.4446 -0.2418 -0.3302
 7497SOL    HW229720   1.165   3.456   2.283 -1.5528  0.2378  0.2359
 7497SOL    HW329721   1.183   3.564   2.179  0.2137 -0.0610  0.2015
 7497SOL    MW429722   1.154   3.486   2.202 -0.9641 -0.1177 -0.2989
 7498SOL     OW29723   1.017   0.537   2.260  0.1178  0.1061 -0.1635
 7498SOL    HW229724   1.089   0.475   2.251  0.5104  0.3828  0.9423
 7498SOL    HW329725   1.055   0.622   2.239 -0.1487  0.1285 -0.5796
 7498SOL    MW429726   1.032   0.540   2.256  0.4302 -0.2748  0.2302
 7499SOL     OW29727   4.533   3.095   2.819 -0.1664  0.1013 -0.0473
 7499SOL    HW229728   4.614   3.066   2.777  0.5587  1.0433  0.6519
 7499SOL    HW329729   4.561   3.134   2.901 -1.4372 -0.4104  0.6574
 7499SOL    MW429730   4.547   3.097   2.824  0.1186 -0.5598  0.3401
 7500SOL     OW29731   0.879   1.944   5.328  0.3130 -0.8361  0.1048
 7500SOL    HW229732   0.908   1.853   5.331  1.1860 -0.7351 -2.7296
 7500SOL    HW329733   0.870   1.964   5.235 -3.4548  0.9331  0.6529
 7500SOL    MW429734   0.882   1.935   5.316  0.2483 -0.2019 -0.3087
 7501SOL     OW29735   3.403   4.927   5.284  0.0218  0.1551 -0.1940
 7501SOL    HW229736   3.462   4.875   5.339  1.2488  0.5910 -1.0427
 7501SOL    HW329737   3.454   4.944   5.204 -1.0145  1.1263 -0.6765
 7501SOL    MW429738   3.418   4.922   5.281 -0.4554 -0.4499 -0.3932
 7502SOL     OW29739   5.934   0.253   5.753  0.4600 -0.2290 -0.4037
 7502SOL    HW229740   5.999   0.227   5.818  1.5517 -0.9051 -1.7290
 7502SOL    HW329741   5.985   0.274   5.675 -0.7185  1.8688 -0.6678
 7502SOL    MW429742   5.949   0.252   5.751  0.3787 -0.1056 -0.2125
 7503SOL     OW29743   3.908   4.295   2.255  0.6541 -0.2283 -0.5003
 7503SOL    HW229744   3.928   4.239   2.330  1.8722 -1.1912 -1.4889
 7503SOL    HW329745   3.822   4.264   2.225  0.7908 -0.7823 -0.3352
 7503SOL    MW429746   3.899   4.283   2.261  0.2864 -0.3184  0.1021
 7504SOL     OW29747   1.534   6.039   2.303 -0.0393 -0.8513  0.1620
 7504SOL    HW229748   1.476   6.029   2.228  0.5175  3.0793 -0.9750
 7504SOL    HW329749   1.621   6.052   2.265  0.7892 -1.7343  1.6440
 7504SOL    MW429750   1.538   6.039   2.288 -0.1030  0.3261 -0.5370
 7505SOL     OW29751   6.028   5.050   4.656 -0.2992 -0.5524 -0.5955
 7505SOL    HW229752   6.037   5.013   4.744  0.1756 -1.6915 -1.1080
 7505SOL    HW329753   5.986   5.135   4.670 -1.5124 -1.3150  0.6012
 7505SOL    MW429754   6.024   5.057   4.669  0.5584  0.0514 -0.1667
 7506SOL     OW29755   2.428   0.625   0.081 -0.7595  0.2731  0.0274
 7506SOL    HW229756   2.382   0.660   0.005 -1.7285  0.3593  0.6454
 7506SOL    HW329757   2.405   0.684   0.153 -0.2988 -0.1265  0.5184
 7506SOL    MW429758   2.419   0.637   0.080 -0.2072 -0.2803 -0.6157
 7507SOL     OW29759   4.091   4.252   5.102  0.1661  0.1873 -0.6929
 7507SOL    HW229760   4.157   4.183   5.099 -1.3818 -1.3384 -2.9858
 7507SOL    HW329761   4.115   4.312   5.032 -0.7704 -0.3152 -1.4657
 7507SOL    MW429762   4.103   4.251   5.093  0.0570 -0.4967 -0.4881
 7508SOL     OW29763   3.161   3.248   0.026 -0.0535  0.6112  0.4966
 7508SOL    HW229764   3.174   3.182  -0.042 -0.9753 -0.1328  1.0256
 7508SOL    HW329765   3.121   3.322  -0.019 -0.1089  0.3508  0.1205
 7508SOL    MW429766   3.157   3.249   0.011  0.2530  0.0190 -0.2005
 7509SOL     OW29767   1.510   0.292   2.720  1.0016  0.0538 -0.2976
 7509SOL    HW229768   1.447   0.343   2.770 -0.5056  1.2479 -3.1904
 7509SOL    HW329769   1.569   0.357   2.682  2.3493 -0.8475  0.1586
 7509SOL    MW429770   1.510   0.307   2.722 -0.3701 -0.2819  0.0365
 7510SOL     OW29771   0.049   0.453   6.396  0.1589  0.4866 -0.0980
 7510SOL    HW229772   0.058   0.457   6.491 -0.7013  0.0230  0.0195
 7510SOL    HW329773   0.090   0.534   6.364  0.0160  0.8854  0.7061
 7510SOL    MW429774   0.055   0.465   6.404 -0.3900  0.4815  0.3445
 7511SOL     OW29775   4.961   4.242   5.704  0.5388 -0.4860  0.1920
 7511SOL    HW229776   5.026   4.258   5.635 -0.3708 -0.5868 -0.7259
 7511SOL    HW329777   4.883   4.211   5.656 -0.9452  1.7507  1.0016
 7511SOL    MW429778   4.959   4.240   5.688  0.2465  0.2160 -0.0327
 7512SOL     OW29779   0.880   0.638   3.926 -0.0224  0.1382  0.0901
 7512SOL    HW229780   0.823   0.622   4.001 -0.8177 -0.0069 -0.5298
 7512SOL    HW329781   0.967   0.608   3.955 -0.7277 -1.9574  0.2341
 7512SOL    MW429782   0.884   0.632   3.940 -0.3274  0.1947  0.1065
 7513SOL     OW29783   5.827   4.550   4.013  0.6817 -0.2040  0.9293
 7513SOL    HW229784   5.840   4.640   4.043  0.0590 -0.1905  1.1777
 7513SOL    HW329785   5.789   4.505   4.089  0.3341 -0.5010  0.5844
 7513SOL    MW429786   5.824   4.556   4.027  0.0481 -0.4330 -0.2922
 7514SOL     OW29787   5.766   4.628   0.077 -0.2952 -0.5740  1.0653
 7514SOL    HW229788   5.826   4.684   0.029 -2.3272  1.0319  0.2360
 7514SOL    HW329789   5.809   4.613   0.161  1.2501  0.5219  0.5085
 7514SOL    MW429790   5.779   4.634   0.082  0.1889 -0.3112 -0.1832
 7515SOL     OW29791   5.146   6.119   4.372  0.1006 -0.0645 -0.4872
 7515SOL    HW229792   5.155   6.157   4.285  0.2495  1.4901  0.1791
 7515SOL    HW329793   5.230   6.135   4.415 -0.0568 -0.5805  0.0395
 7515SOL    MW429794   5.158   6.126   4.367  0.1054 -0.3940 -0.1829
 7516SOL     OW29795   3.830   0.415   0.309 -0.2438  0.3188  0.0943
 7516SOL    HW229796   3.891   0.362   0.361  1.3221  0.6120 -1.3821
 7516SOL    HW329797   3.821   0.368   0.227 -1.1440  0.8698 -0.1351
 7516SOL    MW429798   3.837   0.402   0.305  0.1519  0.0835  0.2030
 7517SOL     OW29799   2.175   1.886   4.162  0.0242  0.2394 -0.3338
 7517SOL    HW229800   2.172   1.837   4.244  0.7647 -0.4244 -0.6870
 7517SOL    HW329801   2.139   1.826   4.097  1.0294  0.1004 -0.7849
 7517SOL    MW429802   2.170   1.871   4.164 -0.2311  0.3937 -0.1038
 7518SOL     OW29803   2.132   6.058   0.250 -0.1220 -0.3557  0.2155
 7518SOL    HW229804   2.142   6.131   0.312  0.7499  0.5838 -0.9995
 7518SOL    HW329805   2.174   6.088   0.170  0.5184 -2.3155 -0.2353
 7518SOL    MW429806   2.139   6.071   0.248  0.9619 -0.3374 -0.3066
 7519SOL     OW29807   2.680   0.623   2.486  0.4885 -0.0659  0.5183
 7519SOL    HW229808   2.716   0.692   2.541  0.5626  1.2435 -1.0786
 7519SOL    HW329809   2.636   0.670   2.414 -0.4286 -1.6688 -0.0308
 7519SOL    MW429810   2.679   0.638   2.484 -0.1282  0.7034  0.0596
 7520SOL     OW29811   1.975   1.311   6.313  0.8926 -0.8244 -0.2558
 7520SOL    HW229812   1.903   1.251   6.330 -1.6407  1.9495 -0.5230
 7520SOL    HW329813   1.957   1.346   6.226  2.0433  0.6224  0.0476
 7520SOL    MW429814   1.963   1.308   6.304 -0.1973  0.2149  0.0984
 7521SOL     OW29815   3.995   0.463   3.676  0.3712  0.3290  0.0838
 7521SOL    HW229816   4.013   0.490   3.767 -1.5514 -1.2018  1.0057
 7521SOL    HW329817   3.981   0.368   3.682 -1.6284  0.4557 -1.4604
 7521SOL    MW429818   3.995   0.454   3.689 -0.5991 -0.1937 -1.0184
 7522SOL     OW29819   1.729   3.230   0.677  0.2680 -0.6208 -0.0338
 7522SOL    HW229820   1.729   3.275   0.761  1.5172 -1.3874  0.4003
 7522SOL    HW329821   1.812   3.183   0.674 -0.1725 -1.3902 -1.2759
 7522SOL    MW429822   1.740   3.230   0.687  0.1618  0.0589  0.1892
 7523SOL     OW29823   0.320   4.330   0.046  0.4819  0.2084  0.4663
 7523SOL    HW229824   0.311   4.423   0.066  1.4128  0.2241  0.8709
 7523SOL    HW329825   0.339   4.327  -0.048 -3.2176  0.1742 -0.4197
 7523SOL    MW429826   0.321   4.342   0.036 -0.3398 -0.6080  0.0819
 7524SOL     OW29827   6.274   1.611   3.629 -0.0924  0.3098 -0.2449
 7524SOL    HW229828   6.273   1.703   3.603 -0.0515  0.3119 -0.2389
 7524SOL    HW329829   6.194   1.575   3.591 -1.0788  0.7659  1.2767
 7524SOL    MW429830   6.263   1.618   3.621  0.6012  0.7306  0.2660
 7525SOL     OW29831   2.188   3.688   1.445 -0.2116  0.3921  0.0867
 7525SOL    HW229832   2.235   3.749   1.501  0.0406  1.1245 -0.9109
 7525SOL    HW329833   2.234   3.605   1.457 -0.2454  0.4957  1.0571
 7525SOL    MW429834   2.200   3.685   1.454 -0.2024 -0.0129  0.1272
 7526SOL     OW29835   4.124   1.598   1.182 -0.3384 -0.0796 -0.3895
 7526SOL    HW229836   4.119   1.510   1.221  0.4698  0.0885  0.1095
 7526SOL    HW329837   4.083   1.588   1.096  1.5218 -1.4776 -1.2107
 7526SOL    MW429838   4.118   1.585   1.176  0.3591 -0.1089 -0.0171
 7527SOL     OW29839   4.878   0.893   3.549  0.2068 -0.3759 -0.4548
 7527SOL    HW229840   4.880   0.803   3.583  0.7828 -0.2144 -0.0521
 7527SOL    HW329841   4.786   0.919   3.556  0.4329  0.0257  1.9857
 7527SOL    MW429842   4.866   0.885   3.555  0.4296  0.3763  0.3241
 7528SOL     OW29843   1.947   3.236   3.535 -0.1934 -0.5395 -0.3656
 7528SOL    HW229844   1.915   3.150   3.560  0.1222 -0.0908  1.7543
 7528SOL    HW329845   1.867   3.288   3.524 -0.3593 -0.2668  1.7062
 7528SOL    MW429846   1.932   3.232   3.537 -0.6442  0.6268  0.1719
 7529SOL     OW29847   0.877   1.726   4.739 -0.2374  0.4180 -0.1908
 7529SOL    HW229848   0.808   1.718   4.673  0.2406 -0.7548 -0.5701
 7529SOL    HW329849   0.830   1.732   4.822 -0.8447  1.8356 -0.6006
 7529SOL    MW429850   0.861   1.726   4.741  0.7982  0.6918 -0.1756
 7530SOL     OW29851   2.939   3.864   4.466  0.0957 -0.1765 -0.2603
 7530SOL    HW229852   2.846   3.847   4.479  0.1315 -0.3710 -0.2485
 7530SOL    HW329853   2.967   3.797   4.403 -0.4906  1.8967 -2.8739
 7530SOL    MW429854   2.930   3.853   4.459 -0.2004 -0.0387 -0.0264
 7531SOL     OW29855   5.019   1.088   0.462 -0.3211  0.3602  0.0222
 7531SOL    HW229856   5.016   1.067   0.555 -2.1750 -0.0732 -0.0757
 7531SOL    HW329857   5.071   1.018   0.423 -1.2981 -0.6673  0.4997
 7531SOL    MW429858   5.025   1.076   0.469  0.2773 -0.0536  0.0921
 7532SOL     OW29859   0.279   0.437   2.632  0.1543  0.2694  0.1118
 7532SOL    HW229860   0.316   0.497   2.568  0.2876  0.5265  0.4273
 7532SOL    HW329861   0.184   0.450   2.625  0.2080  1.0255  0.6608
 7532SOL    MW429862   0.271   0.446   2.623  0.0161 -0.1327 -0.4084
 7533SOL     OW29863   0.212   2.384   4.266 -0.0510 -0.6863 -0.3244
 7533SOL    HW229864   0.264   2.455   4.230  0.4488 -1.0642 -0.3684
 7533SOL    HW329865   0.207   2.320   4.195  0.6413 -1.2762  0.1371
 7533SOL    MW429866   0.218   2.385   4.252  0.7541  0.2836  0.4985
 7534SOL     OW29867   2.672   5.462   5.253  0.2447 -0.1593 -0.3303
 7534SOL    HW229868   2.615   5.469   5.330  0.1197  1.8139 -0.5367
 7534SOL    HW329869   2.611   5.459   5.179  0.3399  1.4439 -0.5182
 7534SOL    MW429870   2.656   5.463   5.254 -0.0017  0.1486  0.0895
 7535SOL     OW29871   1.000   0.788   3.370  0.3220  0.0449  0.7898
 7535SOL    HW229872   0.999   0.778   3.465  1.8927  1.5356  0.9958
 7535SOL    HW329873   0.946   0.865   3.353  0.1891 -0.1122  0.4877
 7535SOL    MW429874   0.993   0.797   3.380  0.7663  0.1326  0.2619
 7536SOL     OW29875   4.412   0.957   6.188  0.2762 -0.2397 -0.1254
 7536SOL    HW229876   4.364   0.890   6.238  0.2379 -1.0174 -1.1625
 7536SOL    HW329877   4.431   1.026   6.252  1.3252 -1.7379  1.2620
 7536SOL    MW429878   4.408   0.957   6.203  0.0363 -0.2807  0.2728
 7537SOL     OW29879   5.678   4.145   2.644  0.2401  0.3958 -0.2157
 7537SOL    HW229880   5.593   4.175   2.612  0.5223  1.3397 -0.0970
 7537SOL    HW329881   5.721   4.223   2.677  0.7606 -0.2381  0.6484
 7537SOL    MW429882   5.673   4.159   2.644  0.0969  0.1399  0.1747
 7538SOL     OW29883   5.705   1.718   3.356  0.0109 -0.4370  0.0000
 7538SOL    HW229884   5.707   1.627   3.327  1.3204 -0.4553  0.1206
 7538SOL    HW329885   5.796   1.743   3.365 -0.3183  0.3305  1.7280
 7538SOL    MW429886   5.717   1.709   3.354 -0.0550 -0.0741  0.0082
 7539SOL     OW29887   3.380   5.480   2.904  0.4241  0.1672  0.2937
 7539SOL    HW229888   3.339   5.562   2.932  0.3879 -0.3643  1.8645
 7539SOL    HW329889   3.376   5.483   2.808 -1.1545  1.2115  0.3575
 7539SOL    MW429890   3.374   5.491   2.895 -0.1784  0.3282 -0.8124
 7540SOL     OW29891   0.692   2.567   5.438  0.2976 -0.2834  0.0605
 7540SOL    HW229892   0.780   2.598   5.416  0.3586 -0.1663  0.4681
 7540SOL    HW329893   0.640   2.583   5.359  1.2587 -2.8540 -1.2179
 7540SOL    MW429894   0.697   2.573   5.425  0.1248  0.1117 -0.1299
 7541SOL     OW29895   3.080   5.117   0.917  0.2887  0.2457 -0.0591
 7541SOL    HW229896   3.073   5.082   1.006 -1.1759  0.9198  0.1224
 7541SOL    HW329897   3.156   5.175   0.920  2.1456 -2.0297 -0.0991
 7541SOL    MW429898   3.089   5.120   0.929 -0.9255 -0.1835  0.8756
 7542SOL     OW29899   2.148   3.553   0.029 -0.0224  0.3416 -0.5557
 7542SOL    HW229900   2.163   3.645   0.049 -2.0947  1.0228 -1.8707
 7542SOL    HW329901   2.219   3.530  -0.031  0.5982  1.0059 -0.0985
 7542SOL    MW429902   2.160   3.562   0.024 -0.4250 -0.4206 -0.3903
 7543SOL     OW29903   4.880   1.423   5.607  0.0001  0.3039  0.7199
 7543SOL    HW229904   4.826   1.353   5.642 -0.7337  1.0333  1.0825
 7543SOL    HW329905   4.820   1.496   5.594  0.5001  0.4814 -0.8381
 7543SOL    MW429906   4.865   1.423   5.610  0.4321 -0.2896  0.4378
 7544SOL     OW29907   6.188   2.018   5.793 -0.5397  0.0965 -0.0265
 7544SOL    HW229908   6.208   2.019   5.886 -0.5609 -2.6446  0.0818
 7544SOL    HW329909   6.098   2.050   5.787 -0.3091  0.9305  0.7999
 7544SOL    MW429910   6.179   2.022   5.804 -0.3136 -0.2255  0.1045
 7545SOL     OW29911   4.002   6.122   6.105 -0.0078  0.2822 -0.1562
 7545SOL    HW229912   3.981   6.215   6.092 -1.5380  0.2182  1.4649
 7545SOL    HW329913   4.086   6.124   6.152 -0.3597  0.8764  0.4653
 7545SOL    MW429914   4.011   6.135   6.110 -0.3410  0.0910 -0.6363
 7546SOL     OW29915   6.194   6.348   1.497 -0.2786  0.4591  0.0237
 7546SOL    HW229916   6.182   6.442   1.492  0.5366  0.5198 -1.1921
 7546SOL    HW329917   6.248   6.336   1.576 -0.2905  1.0202  0.1239
 7546SOL    MW429918   6.200   6.359   1.507 -0.0457  0.3714  0.5494
 7547SOL     OW29919   0.396   2.657   6.116  0.4227 -0.7452  0.0070
 7547SOL    HW229920   0.473   2.712   6.134  1.0559 -1.5265 -0.2425
 7547SOL    HW329921   0.432   2.577   6.078 -0.6865  0.3080 -3.7572
 7547SOL    MW429922   0.411   2.654   6.113 -0.2067 -0.0957 -0.1189
 7548SOL     OW29923   2.146   0.555   0.622 -0.2375 -0.4588 -0.1405
 7548SOL    HW229924   2.138   0.572   0.715  1.3319 -1.2204  0.1544
 7548SOL    HW329925   2.240   0.555   0.605 -0.4650 -1.1315 -1.5679
 7548SOL    MW429926   2.158   0.558   0.632 -0.1029 -0.4015 -0.2230
 7549SOL     OW29927   4.206   4.254   2.933 -0.7284  0.2226  0.1495
 7549SOL    HW229928   4.238   4.341   2.910  1.4497 -0.4023  0.5417
 7549SOL    HW329929   4.170   4.220   2.852  0.0729  0.8227 -0.4773
 7549SOL    MW429930   4.206   4.261   2.919 -0.4540  0.3730  0.6088
 7550SOL     OW29931   2.295   0.502   1.974 -0.3298 -0.2663 -0.2293
 7550SOL    HW229932   2.310   0.581   1.922 -0.7902 -0.5348 -0.7832
 7550SOL    HW329933   2.208   0.514   2.012  1.0782  1.2500  2.9166
 7550SOL    MW429934   2.286   0.514   1.972  0.2981 -0.3646 -0.0943
 7551SOL     OW29935   5.467   6.011   1.718 -0.8495 -0.2812 -0.2183
 7551SOL    HW229936   5.555   6.049   1.722 -1.1860  0.4374  1.2032
 7551SOL    HW329937   5.458   5.965   1.802 -1.6343 -0.7926 -0.5759
 7551SOL    MW429938   5.477   6.010   1.730  0.2279  0.6257 -0.5376
 7552SOL     OW29939   0.702   3.810   5.342  0.6298 -0.0664 -0.2195
 7552SOL    HW229940   0.635   3.750   5.309 -0.3388  1.3679 -0.9502
 7552SOL    HW329941   0.681   3.820   5.435  0.1995 -0.0998 -0.3117
 7552SOL    MW429942   0.691   3.803   5.350  0.0278 -0.3276 -0.0616
 7553SOL     OW29943   1.805   4.858   1.507  0.0117  0.3175 -0.4226
 7553SOL    HW229944   1.800   4.852   1.602  1.1205 -1.0460 -0.4094
 7553SOL    HW329945   1.848   4.942   1.490  2.6938 -0.7496  0.4769
 7553SOL    MW429946   1.810   4.868   1.517  0.3255  0.3059 -0.3833
 7554SOL     OW29947   3.343   4.306   3.386  0.3423 -0.9113 -0.6479
 7554SOL    HW229948   3.306   4.348   3.308  0.1671 -0.2521 -0.2194
 7554SOL    HW329949   3.436   4.299   3.369  0.4601  0.1537 -0.5148
 7554SOL    MW429950   3.350   4.311   3.374  0.6968 -0.2001  0.3999
 7555SOL     OW29951   2.224   0.375   4.566  0.0217  0.1874  0.7027
 7555SOL    HW229952   2.139   0.388   4.525  1.3713 -0.7487 -2.7744
 7555SOL    HW329953   2.278   0.447   4.532  1.4439 -1.1434  0.0362
 7555SOL    MW429954   2.220   0.386   4.556 -0.5104 -0.0773 -0.0253
 7556SOL     OW29955   6.245   3.676   6.225  0.2096  0.3648  0.7037
 7556SOL    HW229956   6.179   3.697   6.292  0.3495  0.6697  0.7447
 7556SOL    HW329957   6.249   3.754   6.170  0.8784  0.5282  0.9813
 7556SOL    MW429958   6.236   3.689   6.227  0.3789  0.0515 -0.1630
 7557SOL     OW29959   3.488   3.609   0.847 -0.1206 -0.0932 -0.0253
 7557SOL    HW229960   3.411   3.665   0.856 -0.4697 -0.5165 -0.3673
 7557SOL    HW329961   3.529   3.639   0.766 -0.0069  0.0295  0.0767
 7557SOL    MW429962   3.483   3.621   0.837 -0.9565  0.1131 -0.0979
 7558SOL     OW29963   3.882   4.884   4.275 -0.1023  0.2495 -0.2424
 7558SOL    HW229964   3.954   4.947   4.284 -0.6167  0.7262  0.8322
 7558SOL    HW329965   3.880   4.862   4.182  1.2204  0.4728 -0.3414
 7558SOL    MW429966   3.891   4.889   4.264 -0.0241 -0.5348 -0.0571
 7559SOL     OW29967   3.472   2.413   3.184 -0.2181  0.2856 -0.7454
 7559SOL    HW229968   3.541   2.367   3.232 -0.5703 -0.7235 -1.1788
 7559SOL    HW329969   3.489   2.505   3.201 -0.0574 -0.0178  0.9333
 7559SOL    MW429970   3.483   2.419   3.192 -0.1420 -0.7697 -0.1253
 7560SOL     OW29971   4.858   2.142   0.228 -0.1291  0.8333 -0.2045
 7560SOL    HW229972   4.856   2.105   0.316  1.4982 -0.3181 -0.6222
 7560SOL    HW329973   4.951   2.156   0.210 -0.1948 -1.2187 -2.6434
 7560SOL    MW429974   4.870   2.139   0.238 -0.0742  0.2835  0.0402
 7561SOL     OW29975   5.497   3.457   3.029 -0.2275  0.3847  0.0502
 7561SOL    HW229976   5.454   3.461   3.115  2.4026 -0.8854  1.5556
 7561SOL    HW329977   5.550   3.377   3.033  0.4542  0.6141 -2.5774
 7561SOL    MW429978   5.498   3.447   3.041 -0.6153  0.2436  0.6016
 7562SOL     OW29979   5.644   5.663   2.802  0.7175  0.3576  0.6932
 7562SOL    HW229980   5.704   5.655   2.876  0.6760 -0.3015  0.6591
 7562SOL    HW329981   5.557   5.648   2.839  0.7550 -0.6503  0.4071
 7562SOL    MW429982   5.641   5.660   2.817  0.2618  0.4004  0.4516
 7563SOL     OW29983   6.133   6.364   2.787 -0.5742 -0.1725  0.5174
 7563SOL    HW229984   6.064   6.431   2.783 -1.5106 -0.9362  2.4446
 7563SOL    HW329985   6.085   6.281   2.785  0.2592 -0.7213  1.8147
 7563SOL    MW429986   6.117   6.362   2.786 -0.0326  0.1366 -0.0789
 7564SOL     OW29987   5.692   2.453   0.781  0.6112  0.3503 -0.0802
 7564SOL    HW229988   5.763   2.422   0.838  0.1424 -1.0502 -0.2313
 7564SOL    HW329989   5.729   2.451   0.693  0.3080 -0.6443 -0.1906
 7564SOL    MW429990   5.706   2.449   0.777  0.0226  0.2504  0.0038
 7565SOL     OW29991   3.522   6.242   3.381  0.5508  0.1934  0.0893
 7565SOL    HW229992   3.549   6.154   3.354  1.3517  0.6482 -0.6194
 7565SOL    HW329993   3.439   6.228   3.427 -0.0041 -0.7899 -1.1525
 7565SOL    MW429994   3.515   6.229   3.384 -0.5570  0.4257 -0.2781
 7566SOL     OW29995   2.711   6.306   2.633 -0.1931  0.2415 -0.5743
 7566SOL    HW229996   2.715   6.312   2.538 -2.5619 -1.4309 -0.8806
 7566SOL    HW329997   2.666   6.222   2.650 -1.9504  1.5407  1.9114
 7566SOL    MW429998   2.705   6.296   2.623  0.4373 -0.0083  0.2812
 7567SOL     OW29999   2.363   1.736   2.698  0.3304  0.1881  0.0154
 7567SOL    HW230000   2.381   1.828   2.716 -2.3863  0.7762  0.1409
 7567SOL    HW330001   2.447   1.700   2.669  0.7948  3.5556 -3.5717
 7567SOL    MW430002   2.376   1.743   2.697  0.1967 -0.5307  0.0223
 7568SOL     OW30003   5.142   0.838   5.463  0.5701  0.5589  0.1991
 7568SOL    HW230004   5.154   0.756   5.416  1.3213  1.4831 -1.3039
 7568SOL    HW330005   5.139   0.905   5.394 -0.4572  1.7584  1.3490
 7568SOL    MW430006   5.143   0.836   5.448  0.0687  0.2953 -0.2067
 7569SOL     OW30007   5.143   6.274   4.130  0.1788  0.2129 -0.1649
 7569SOL    HW230008   5.055   6.297   4.100  0.1143 -1.0694 -1.0249
 7569SOL    HW330009   5.165   6.195   4.082  1.7206  0.3751  0.2129
 7569SOL    MW430010   5.135   6.267   4.120  0.3245  0.0103  1.0232
 7570SOL     OW30011   5.681   1.196   0.032  0.0322  0.1906 -0.3866
 7570SOL    HW230012   5.682   1.120   0.091 -0.2850  0.0735 -0.5298
 7570SOL    HW330013   5.605   1.182  -0.023  0.4335  0.2109 -0.9518
 7570SOL    MW430014   5.671   1.184   0.033 -0.1344  0.3726  0.0782
 7571SOL     OW30015   4.900   5.140   4.518 -0.0377  0.5793 -1.0371
 7571SOL    HW230016   4.935   5.160   4.431  0.1995 -1.0482 -1.3349
 7571SOL    HW330017   4.977   5.143   4.576  0.0233  0.3805 -1.1073
 7571SOL    MW430018   4.915   5.143   4.515  0.1312 -0.0410  0.0883
 7572SOL     OW30019   1.676   4.334   5.798  0.1345 -0.1112 -0.0542
 7572SOL    HW230020   1.633   4.390   5.734  0.0684  2.2267  1.8858
 7572SOL    HW330021   1.744   4.389   5.837 -0.9087 -0.7982  3.0406
 7572SOL    MW430022   1.679   4.348   5.794  0.6681 -0.4178 -0.2451
 7573SOL     OW30023   6.286   5.926   6.184 -0.1082  0.0427  0.0667
 7573SOL    HW230024   6.273   5.957   6.094 -1.2305 -0.4858  0.0273
 7573SOL    HW330025   6.321   6.002   6.231  2.9568 -0.3656 -1.3527
 7573SOL    MW430026   6.289   5.940   6.178 -0.4500  0.0421  0.1674
 7574SOL     OW30027   4.347   4.666   2.480 -0.1196 -0.2980 -0.2096
 7574SOL    HW230028   4.339   4.711   2.564 -1.2637 -0.5051 -0.1879
 7574SOL    HW330029   4.269   4.611   2.475  0.0472 -0.4570 -1.3134
 7574SOL    MW430030   4.336   4.665   2.491 -0.0044 -0.4070 -0.4332
 7575SOL     OW30031   0.264   0.296   0.664 -0.5146 -0.0208 -0.1267
 7575SOL    HW230032   0.303   0.225   0.612 -1.0882  0.0613 -0.6889
 7575SOL    HW330033   0.262   0.370   0.604  1.8014  1.0710  1.0037
 7575SOL    MW430034   0.269   0.296   0.649  0.7067 -0.2311  0.1466
 7576SOL     OW30035   2.186   0.963   2.883 -0.1428 -0.3746  0.8170
 7576SOL    HW230036   2.187   0.980   2.789  0.7281 -0.8710  0.7278
 7576SOL    HW330037   2.179   1.050   2.923 -3.3274 -0.2456  0.2962
 7576SOL    MW430038   2.185   0.977   2.876  0.2011  0.0784  0.3193
 7577SOL     OW30039   4.568   4.345   2.005 -0.5463  0.1089  0.4869
 7577SOL    HW230040   4.632   4.274   2.019  0.0999  0.7651  0.9555
 7577SOL    HW330041   4.539   4.368   2.093 -0.9825  0.2317  0.3142
 7577SOL    MW430042   4.573   4.339   2.018 -0.4594 -0.1707  0.1106
 7578SOL     OW30043   5.807   4.284   1.917  0.1701  0.5257  0.3001
 7578SOL    HW230044   5.779   4.196   1.891  0.4146  0.2545  0.9539
 7578SOL    HW330045   5.887   4.271   1.968  0.3598  1.1491  0.1768
 7578SOL    MW430046   5.814   4.271   1.920  0.2577  0.1462  0.1137
 7579SOL     OW30047   1.551   1.563   0.536 -0.5080  0.0830  0.6148
 7579SOL    HW230048   1.498   1.507   0.478 -1.9054  0.2705  1.6484
 7579SOL    HW330049   1.589   1.629   0.478 -0.3187 -0.8616 -0.3537
 7579SOL    MW430050   1.549   1.564   0.521 -0.0098 -0.1970  0.1219
 7580SOL     OW30051   5.148   0.994   1.867 -0.3133 -0.4073  0.0035
 7580SOL    HW230052   5.104   0.985   1.952 -1.2210 -0.8636 -0.4999
 7580SOL    HW330053   5.212   1.063   1.881 -1.9421  1.0895  0.4930
 7580SOL    MW430054   5.150   1.002   1.880  0.1294  0.3322  0.3410
 7581SOL     OW30055   0.584   3.256   1.622 -0.4910  0.7259  0.6941
 7581SOL    HW230056   0.496   3.248   1.584 -0.0503  1.7455 -0.6262
 7581SOL    HW330057   0.612   3.166   1.637 -1.0453  0.3117 -0.6096
 7581SOL    MW430058   0.576   3.243   1.619 -0.3129 -0.1439  0.3642
 7582SOL     OW30059   4.169   2.885   4.782  0.4149  0.1500  0.1366
 7582SOL    HW230060   4.251   2.936   4.777  1.4269 -1.3761  0.5030
 7582SOL    HW330061   4.116   2.930   4.848  1.6873  0.1998  1.1667
 7582SOL    MW430062   4.173   2.898   4.790 -0.2402 -0.8925 -0.1907
 7583SOL     OW30063   4.655   3.601   5.803  0.3491  0.1942 -0.2191
 7583SOL    HW230064   4.575   3.635   5.843 -0.0864  1.0619 -1.7378
 7583SOL    HW330065   4.624   3.533   5.743  0.8118  0.0153 -0.2558
 7583SOL    MW430066   4.640   3.597   5.800  0.2808 -0.1097 -0.2409
 7584SOL     OW30067   0.660   4.589   5.078 -0.1871  0.0496 -0.0383
 7584SOL    HW230068   0.731   4.538   5.117  0.5585 -0.0736 -1.4821
 7584SOL    HW330069   0.584   4.532   5.084 -0.1066  0.0583  1.2548
 7584SOL    MW430070   0.660   4.575   5.084 -0.3410 -0.0991 -0.1165
 7585SOL     OW30071   4.329   1.943   5.465 -0.1873  0.2133  0.1922
 7585SOL    HW230072   4.285   1.917   5.384 -1.3545 -0.1672  0.9405
 7585SOL    HW330073   4.274   1.909   5.535  0.0625  1.7452  1.1816
 7585SOL    MW430074   4.316   1.935   5.463  0.2776  0.4216  0.2788
 7586SOL     OW30075   3.390   5.257   5.314  0.2293  0.5045 -0.4523
 7586SOL    HW230076   3.425   5.335   5.271  3.8852  0.4356  1.9067
 7586SOL    HW330077   3.326   5.290   5.376  2.7056  2.0095  1.5055
 7586SOL    MW430078   3.386   5.272   5.316 -0.2233 -0.2872 -0.6340
 7587SOL     OW30079   0.995   2.508   5.412 -0.3963 -0.1838 -0.4863
 7587SOL    HW230080   1.007   2.448   5.486  2.5832  1.2515  0.3369
 7587SOL    HW330081   0.986   2.450   5.336 -1.4837 -1.6551  0.6850
 7587SOL    MW430082   0.995   2.492   5.412  0.1302 -0.0228  0.2701
 7588SOL     OW30083   6.088   3.268   2.546 -0.1181  0.3274  0.4823
 7588SOL    HW230084   6.103   3.224   2.462  0.8835  1.1040  0.2375
 7588SOL    HW330085   6.034   3.344   2.524  1.2069  1.2633  0.2947
 7588SOL    MW430086   6.083   3.272   2.532  0.1610  0.0563  0.3496
 7589SOL     OW30087   2.545   3.612   4.508 -0.0153  0.5433 -0.1101
 7589SOL    HW230088   2.574   3.543   4.568  3.2357  0.2781 -1.7879
 7589SOL    HW330089   2.550   3.571   4.422 -1.2954  1.9252 -0.8711
 7589SOL    MW430090   2.549   3.597   4.505 -0.3752  0.2074  0.2444
 7590SOL     OW30091   5.907   0.890   2.958  0.1912 -0.1733 -0.5654
 7590SOL    HW230092   5.897   0.851   2.871  1.6797  0.4132 -1.0332
 7590SOL    HW330093   5.972   0.834   3.001  1.4878  1.0498 -0.8327
 7590SOL    MW430094   5.915   0.877   2.952 -0.2489 -0.5742 -0.3160
 7591SOL     OW30095   5.771   1.471   4.605  0.0582 -0.2773 -0.4280
 7591SOL    HW230096   5.849   1.437   4.562  0.1128 -0.0262 -0.5287
 7591SOL    HW330097   5.752   1.407   4.674  0.5525 -0.1642 -0.1834
 7591SOL    MW430098   5.779   1.458   4.609  1.0110  0.0661  0.8453
 7592SOL     OW30099   3.523   5.165   1.543 -0.1518 -0.9460 -0.1474
 7592SOL    HW230100   3.591   5.120   1.492  1.3689  0.4558  0.5529
 7592SOL    HW330101   3.571   5.220   1.604 -1.9419 -0.7165  1.1482
 7592SOL    MW430102   3.538   5.166   1.544 -0.4965 -0.0524 -0.0414
 7593SOL     OW30103   3.722   5.938   3.068  0.3502 -0.5206  0.0078
 7593SOL    HW230104   3.767   6.021   3.079 -0.0698 -0.0904 -1.2678
 7593SOL    HW330105   3.779   5.874   3.110  1.4816  0.1972 -0.3755
 7593SOL    MW430106   3.736   5.940   3.075 -0.2042 -0.5292 -0.2012
 7594SOL     OW30107   2.625   2.469   4.349 -0.1456  0.2995 -0.4830
 7594SOL    HW230108   2.653   2.548   4.395 -0.8098 -0.0302  0.5223
 7594SOL    HW330109   2.667   2.397   4.397 -1.4927 -0.0998  0.1605
 7594SOL    MW430110   2.634   2.470   4.362  0.4865  0.1679 -0.0809
 7595SOL     OW30111   5.963   5.523   2.119 -0.8616 -0.1959 -0.2207
 7595SOL    HW230112   5.899   5.521   2.190  0.4137 -0.6199  0.9675
 7595SOL    HW330113   5.955   5.437   2.077 -0.6242 -0.5025  0.3494
 7595SOL    MW430114   5.953   5.511   2.123 -0.4606 -0.0519 -0.9161
 7596SOL     OW30115   3.804   1.046   0.239 -0.4365  0.3325 -0.0078
 7596SOL    HW230116   3.799   1.120   0.178 -0.5165 -0.0978 -0.5285
 7596SOL    HW330117   3.898   1.036   0.258 -0.1973 -0.7868 -1.6300
 7596SOL    MW430118   3.816   1.055   0.234  0.1618  0.2354 -0.6287
 7597SOL     OW30119   3.948   5.153   0.948  0.1610  0.0421  0.4069
 7597SOL    HW230120   4.023   5.151   1.007  1.0041 -0.8596 -0.6477
 7597SOL    HW330121   3.959   5.076   0.893 -1.8822 -0.4500  0.6222
 7597SOL    MW430122   3.960   5.143   0.949  0.1797 -0.1967  0.0102
 7598SOL     OW30123   6.380   6.340   2.392  0.1083  0.0361 -0.0440
 7598SOL    HW230124   6.327   6.281   2.446  0.8724 -0.1976  0.4608
 7598SOL    HW330125   6.466   6.339   2.432  0.7809 -0.3527 -1.4413
 7598SOL    MW430126   6.384   6.332   2.404  0.5289  0.1945  0.5726
 7599SOL     OW30127   5.948   3.334   4.548  0.3282  0.0508 -0.4558
 7599SOL    HW230128   6.001   3.284   4.610 -1.1933 -0.1757  0.7434
 7599SOL    HW330129   5.901   3.397   4.603 -2.3982 -1.2940 -1.0547
 7599SOL    MW430130   5.949   3.336   4.564 -0.1961  0.6368  0.3939
 7600SOL     OW30131   5.040   0.817   4.611  0.1134 -0.2893 -0.0012
 7600SOL    HW230132   5.088   0.839   4.532  1.0052 -0.5063  0.4714
 7600SOL    HW330133   5.093   0.749   4.654  0.6128  1.1098  1.7060
 7600SOL    MW430134   5.053   0.811   4.607  0.3264 -0.2134  0.2218
 7601SOL     OW30135   3.246   1.694   5.889 -0.1571 -0.6375 -0.1188
 7601SOL    HW230136   3.257   1.738   5.973  1.7822  0.5064 -0.8941
 7601SOL    HW330137   3.167   1.735   5.851  0.9790  1.5050 -0.3484
 7601SOL    MW430138   3.237   1.705   5.895  0.3630 -0.2442  0.4385
 7602SOL     OW30139   0.291   5.508   2.303 -0.5071 -0.7027 -0.2941
 7602SOL    HW230140   0.246   5.475   2.226 -1.1060  0.0016 -0.2597
 7602SOL    HW330141   0.253   5.595   2.317  0.1239 -0.5231  0.3541
 7602SOL    MW430142   0.280   5.515   2.295 -0.9662 -0.6667 -0.2598
 7603SOL     OW30143   3.973   1.707   4.382 -0.1652  0.0587 -0.1826
 7603SOL    HW230144   4.007   1.794   4.361 -0.3174  0.4392  1.0533
 7603SOL    HW330145   3.997   1.693   4.474  0.0455 -1.3023 -0.4129
 7603SOL    MW430146   3.981   1.716   4.391  0.0127  0.0104  0.3021
 7604SOL     OW30147   2.739   2.783   0.749 -0.0063 -0.2748 -0.5395
 7604SOL    HW230148   2.744   2.812   0.840  1.4017 -2.2814  0.0978
 7604SOL    HW330149   2.806   2.715   0.743 -2.4060 -2.6435 -2.1395
 7604SOL    MW430150   2.749   2.778   0.760 -0.4677  0.0857  0.3073
 7605SOL     OW30151   0.774   5.839   0.647  0.0199 -0.3341 -0.3521
 7605SOL    HW230152   0.740   5.811   0.732 -0.3144  0.2718 -0.2829
 7605SOL    HW330153   0.697   5.870   0.600  0.1436 -1.0276 -1.0249
 7605SOL    MW430154   0.760   5.839   0.652  0.0677  0.5706  0.0355
 7606SOL     OW30155   5.813   1.542   5.841 -0.3138  0.5744 -0.5341
 7606SOL    HW230156   5.866   1.619   5.822  2.0987 -1.2755 -1.7273
 7606SOL    HW330157   5.795   1.503   5.755 -0.6249 -0.7285  0.0980
 7606SOL    MW430158   5.817   1.547   5.827 -0.3185  0.1637  0.2265
 7607SOL     OW30159   1.364   2.744   1.558 -0.0110  0.5689  0.2327
 7607SOL    HW230160   1.456   2.755   1.535  0.5795 -2.8487  0.3781
 7607SOL    HW330161   1.322   2.720   1.476 -0.9976  2.7554  0.0326
 7607SOL    MW430162   1.371   2.742   1.544  0.0002  0.0859  0.2604
 7608SOL     OW30163   4.638   0.203   1.085 -0.4288  0.4228 -0.4415
 7608SOL    HW230164   4.592   0.164   1.159  0.0445 -0.7609 -0.7484
 7608SOL    HW330165   4.607   0.293   1.082 -1.9971 -0.0785 -0.0585
 7608SOL    MW430166   4.628   0.210   1.094 -0.1102 -0.7655 -0.2763
 7609SOL     OW30167   4.986   2.167   5.305  0.2306 -0.2691 -0.9528
 7609SOL    HW230168   4.990   2.250   5.257 -0.9495  1.4237  1.6469
 7609SOL    HW330169   5.045   2.180   5.379 -0.8789 -1.2797  0.1507
 7609SOL    MW430170   4.995   2.180   5.309 -0.3520 -0.1150  0.1945
 7610SOL     OW30171   1.492   5.367   6.148 -0.0393 -0.6672  0.5153
 7610SOL    HW230172   1.396   5.372   6.145 -0.1120  1.4116  2.7105
 7610SOL    HW330173   1.520   5.386   6.059 -1.6651 -0.6221 -0.0217
 7610SOL    MW430174   1.483   5.370   6.136  0.3645  0.0266  0.0888
 7611SOL     OW30175   1.796   3.143   5.575 -0.1929 -0.2601 -0.0093
 7611SOL    HW230176   1.822   3.147   5.667  1.7587 -0.5412 -0.5068
 7611SOL    HW330177   1.705   3.173   5.575  0.3321  1.5869  1.7612
 7611SOL    MW430178   1.787   3.148   5.587 -0.1813 -0.3439 -0.1244
 7612SOL     OW30179   5.025   1.844   4.503 -0.2216  0.0636 -0.2616
 7612SOL    HW230180   5.042   1.895   4.583  0.6926  0.3013 -0.5946
 7612SOL    HW330181   4.971   1.902   4.449  0.7434  0.6675 -0.6038
 7612SOL    MW430182   5.020   1.859   4.507  0.1808 -0.8783 -0.0686
 7613SOL     OW30183   2.420   5.600   5.704 -0.1015  0.2921  0.0870
 7613SOL    HW230184   2.406   5.692   5.682 -0.6884  0.1105 -0.3281
 7613SOL    HW330185   2.423   5.598   5.800 -2.1459  0.4780  0.1953
 7613SOL    MW430186   2.419   5.612   5.714 -0.6294 -0.0188  0.2557
 7614SOL     OW30187   4.259   2.524   5.320 -0.4202  0.6754  0.3686
 7614SOL    HW230188   4.241   2.554   5.410 -0.7553 -1.4143  1.0584
 7614SOL    HW330189   4.353   2.510   5.318 -0.4155  0.7004  0.4034
 7614SOL    MW430190   4.269   2.526   5.332 -0.4854 -0.8199 -0.0255
 7615SOL     OW30191   5.982   2.543   2.184  0.0979 -0.7087 -0.3410
 7615SOL    HW230192   5.929   2.623   2.178  1.6175  0.2583 -1.7418
 7615SOL    HW330193   5.920   2.472   2.171 -1.0802  0.3159 -0.5070
 7615SOL    MW430194   5.967   2.544   2.182 -0.3552 -0.1318  0.4072
 7616SOL     OW30195   5.528   0.024   3.787  0.1427 -0.1161 -1.1471
 7616SOL    HW230196   5.612   0.063   3.812  0.2171 -0.0672 -1.4670
 7616SOL    HW330197   5.494   0.082   3.719 -0.4939  0.2748 -0.5143
 7616SOL    MW430198   5.535   0.037   3.782  0.1251  0.4475 -0.1478
 7617SOL     OW30199   2.970   6.053   4.302 -0.0017  0.5348  0.6286
 7617SOL    HW230200   3.021   6.133   4.318 -1.2234  1.5703 -0.4392
 7617SOL    HW330201   3.023   6.004   4.240  0.7303  0.5234  1.2396
 7617SOL    MW430202   2.984   6.057   4.296  0.3233 -0.1571  0.2160
 7618SOL     OW30203   4.472   5.998   5.513  0.1435 -0.3368 -0.8622
 7618SOL    HW230204   4.551   5.998   5.567  0.8407 -0.3995 -1.8442
 7618SOL    HW330205   4.483   5.923   5.455 -1.6685 -1.6578  0.3911
 7618SOL    MW430206   4.484   5.988   5.512 -0.3274  0.0512  0.5807
 7619SOL     OW30207   4.631   4.244   4.043 -0.3504  0.0148  0.5746
 7619SOL    HW230208   4.541   4.275   4.042 -1.3675 -2.4916 -2.4487
 7619SOL    HW330209   4.678   4.308   3.989 -1.2970 -0.7136 -1.2269
 7619SOL    MW430210   4.626   4.257   4.036 -1.1243  0.0114  0.3297
 7620SOL     OW30211   2.578   4.102   1.946  0.4912  0.0409 -0.3476
 7620SOL    HW230212   2.651   4.120   2.004  0.7070 -0.4823 -0.4491
 7620SOL    HW330213   2.576   4.175   1.885 -0.5843  1.3055  1.1362
 7620SOL    MW430214   2.587   4.114   1.946 -0.3277  0.3370  0.5213
 7621SOL     OW30215   4.487   6.276   3.657  0.1136  0.0781  0.4963
 7621SOL    HW230216   4.551   6.257   3.589  1.4665 -2.4019  2.3115
 7621SOL    HW330217   4.531   6.338   3.716  0.1014 -0.0932  0.6887
 7621SOL    MW430218   4.501   6.282   3.656  0.1751 -0.2638  0.0069
 7622SOL     OW30219   4.877   0.062   5.165  0.6240  0.0508  0.3264
 7622SOL    HW230220   4.873   0.141   5.111 -1.0340 -0.4249 -0.3031
 7622SOL    HW330221   4.900   0.094   5.252  1.1058  1.0889 -0.1690
 7622SOL    MW430222   4.879   0.077   5.169 -0.3038 -0.7774  0.6665
 7623SOL     OW30223   6.043   0.719   4.906 -0.2464 -0.0053  1.0569
 7623SOL    HW230224   6.122   0.686   4.863 -1.2262  1.1480 -1.8369
 7623SOL    HW330225   6.065   0.718   4.999  2.6449 -1.0692  0.4733
 7623SOL    MW430226   6.056   0.715   4.913 -0.6144 -0.7233  0.0474
 7624SOL     OW30227   2.464   2.149   5.877 -0.0683  0.2650 -1.1027
 7624SOL    HW230228   2.464   2.218   5.943 -2.0293 -0.1603 -0.5958
 7624SOL    HW330229   2.416   2.076   5.917 -0.2428 -0.4563 -2.5425
 7624SOL    MW430230   2.458   2.148   5.891  0.1462 -0.7199  0.1818
 7625SOL     OW30231   5.053   3.662   5.096 -0.4119 -0.0647  0.2053
 7625SOL    HW230232   5.130   3.625   5.053  0.7853  0.5084  1.7611
 7625SOL    HW330233   5.046   3.751   5.060  0.1707  0.1723  0.6611
 7625SOL    MW430234   5.062   3.669   5.086 -0.0943  0.4396  0.1069
 7626SOL     OW30235   3.609   6.156   4.706 -0.3021 -0.6144  0.2784
 7626SOL    HW230236   3.693   6.122   4.677 -0.4462 -0.4787 -0.3079
 7626SOL    HW330237   3.599   6.239   4.659 -0.4744 -0.3215  0.8241
 7626SOL    MW430238   3.618   6.163   4.696 -0.3662 -0.8697 -0.5548
 7627SOL     OW30239   0.219   6.121   1.579 -0.2409  0.0337  0.1478
 7627SOL    HW230240   0.262   6.090   1.499  1.5637  1.5211  0.4752
 7627SOL    HW330241   0.290   6.149   1.636 -1.5876  2.0198  0.9983
 7627SOL    MW430242   0.234   6.121   1.576 -0.1275 -0.3054 -0.2656
 7628SOL     OW30243   0.555   0.195   0.234 -0.3675 -0.0273 -0.6974
 7628SOL    HW230244   0.639   0.194   0.189 -0.1405 -0.6251 -0.2779
 7628SOL    HW330245   0.554   0.276   0.284  0.0848 -0.1675 -0.4641
 7628SOL    MW430246   0.566   0.205   0.234 -0.2662 -0.2050 -0.7459
 7629SOL     OW30247   5.838   3.961   1.318  0.4836  0.0582 -0.6276
 7629SOL    HW230248   5.853   3.901   1.391  0.3481  0.8969  0.1093
 7629SOL    HW330249   5.925   3.975   1.280  0.5410 -0.4496 -0.6979
 7629SOL    MW430250   5.851   3.955   1.323  0.0144 -0.1391 -0.1202
 7630SOL     OW30251   5.091   3.034   3.699 -1.2027  0.2255  0.5622
 7630SOL    HW230252   5.031   2.960   3.692 -1.3082  0.3539  0.0496
 7630SOL    HW330253   5.054   3.089   3.768 -0.9171 -0.3829  1.2166
 7630SOL    MW430254   5.078   3.031   3.707  0.4263  0.4400  0.2201
 7631SOL     OW30255   0.725   6.017   0.143 -0.5693 -0.1516  0.1268
 7631SOL    HW230256   0.736   6.002   0.050 -0.8774  1.2486 -0.1555
 7631SOL    HW330257   0.637   6.056   0.152 -0.6884 -0.5914  1.0359
 7631SOL    MW430258   0.715   6.021   0.132  0.4027 -0.7643 -0.1643
 7632SOL     OW30259   5.593   1.022   5.639  0.2153  0.1585 -0.2749
 7632SOL    HW230260   5.673   0.968   5.633  0.5522  0.7404 -1.4881
 7632SOL    HW330261   5.536   0.986   5.571 -0.7234 -0.4929  0.8394
 7632SOL    MW430262   5.596   1.010   5.629  0.1121 -0.2932 -0.0176
 7633SOL     OW30263   0.992   2.089   5.736 -0.4858 -0.4081  0.1392
 7633SOL    HW230264   0.996   2.088   5.832 -0.7837 -1.0759  0.1538
 7633SOL    HW330265   0.899   2.099   5.716 -0.4882 -0.7945 -0.0684
 7633SOL    MW430266   0.981   2.090   5.746 -0.1343 -0.1037  0.3346
 7634SOL     OW30267   0.575   3.780   2.691 -0.4908 -0.7520 -0.9659
 7634SOL    HW230268   0.492   3.771   2.738  0.1048 -2.0838 -0.1090
 7634SOL    HW330269   0.588   3.695   2.648  0.5197 -0.6228 -0.9372
 7634SOL    MW430270   0.566   3.768   2.691 -0.3028 -0.1438  0.3123
 7635SOL     OW30271   1.182   5.984   3.016 -0.2573  0.0600  0.7226
 7635SOL    HW230272   1.166   5.998   3.110  1.9441  0.3631  1.0941
 7635SOL    HW330273   1.160   5.892   3.001  1.2267 -0.5310  1.9843
 7635SOL    MW430274   1.177   5.974   3.026  0.4932 -0.1657  0.4824
 7636SOL     OW30275   3.867   3.590   3.153  0.1872 -0.1861  0.0164
 7636SOL    HW230276   3.883   3.639   3.234 -0.5869  1.2130 -0.6405
 7636SOL    HW330277   3.931   3.519   3.155  0.3033 -0.0669  1.7637
 7636SOL    MW430278   3.878   3.587   3.164  0.3454  0.2909  0.8099
 7637SOL     OW30279   2.276   0.078   0.384  0.2641 -0.0462 -0.6612
 7637SOL    HW230280   2.346   0.140   0.365  1.2042 -0.9224 -0.1771
 7637SOL    HW330281   2.300  -0.001   0.335 -1.3960  0.2281 -2.0299
 7637SOL    MW430282   2.289   0.076   0.375  0.6810 -1.0608 -0.8057
 7638SOL     OW30283   1.118   5.027   4.393 -0.4870  0.3180 -0.9316
 7638SOL    HW230284   1.053   5.008   4.326 -1.7174  2.1166 -0.3273
 7638SOL    HW330285   1.151   4.941   4.420 -2.9679 -0.7178 -0.9201
 7638SOL    MW430286   1.114   5.013   4.388 -0.0298 -0.7607 -0.6180
 7639SOL     OW30287   4.243   4.332   1.809 -0.0585 -0.6834  0.2813
 7639SOL    HW230288   4.293   4.280   1.872 -0.0751  0.1798  1.0494
 7639SOL    HW330289   4.202   4.269   1.751  0.7469 -1.4638  0.5528
 7639SOL    MW430290   4.244   4.317   1.810 -0.1747 -0.4416  0.4512
 7640SOL     OW30291   2.858   0.185   0.859 -0.2472  0.0331 -0.1266
 7640SOL    HW230292   2.807   0.221   0.786  0.3513  1.9715  0.3464
 7640SOL    HW330293   2.895   0.262   0.903  1.1755 -1.1871  0.9389
 7640SOL    MW430294   2.856   0.200   0.855  0.3010  0.0414  0.1368
 7641SOL     OW30295   4.560   2.008   6.090  0.0615 -0.1137  0.5029
 7641SOL    HW230296   4.576   2.072   6.159  0.6866  0.3803 -0.0798
 7641SOL    HW330297   4.466   1.992   6.092 -0.2852  1.6402 -0.0407
 7641SOL    MW430298   4.550   2.014   6.100  0.3453 -0.3989  0.2534
 7642SOL     OW30299   3.019   2.479   3.104 -0.1174 -0.2603 -0.1269
 7642SOL    HW230300   2.986   2.509   3.020 -0.7117  0.3531  0.3096
 7642SOL    HW330301   3.009   2.555   3.162 -2.1831 -1.4099  1.1407
 7642SOL    MW430302   3.013   2.493   3.101 -0.4635  0.5716 -0.1955
 7643SOL     OW30303   3.223   4.531   4.553  0.2281 -0.0781 -0.0859
 7643SOL    HW230304   3.182   4.452   4.585 -0.1803  0.6592  1.2642
 7643SOL    HW330305   3.309   4.533   4.595 -0.2829  0.8562  0.9832
 7643SOL    MW430306   3.229   4.521   4.562 -0.4931 -0.3158  0.3272
 7644SOL     OW30307   1.339   6.292   3.129 -0.1226  0.2835  0.0318
 7644SOL    HW230308   1.363   6.286   3.036 -1.0663 -0.0594 -0.2085
 7644SOL    HW330309   1.422   6.301   3.175  0.3930 -0.0114 -0.8160
 7644SOL    MW430310   1.353   6.292   3.123  0.4429  0.1914 -0.1008
 7645SOL     OW30311   2.748   0.642   2.865 -0.4079  0.0266  0.5324
 7645SOL    HW230312   2.707   0.687   2.791  0.5460  1.0759  0.6230
 7645SOL    HW330313   2.699   0.672   2.942 -0.2756  0.2959  0.5113
 7645SOL    MW430314   2.736   0.652   2.865 -0.5326 -0.0330 -0.0225
 7646SOL     OW30315   3.925   2.063   4.538  0.4504  0.2952 -0.0101
 7646SOL    HW230316   4.002   2.042   4.591  0.7805  1.2954 -0.0661
 7646SOL    HW330317   3.866   2.108   4.600 -0.4204 -1.1275  0.2217
 7646SOL    MW430318   3.927   2.066   4.553 -0.6689  0.5963 -0.2291
 7647SOL     OW30319   2.853   6.006   6.105  0.1411 -0.0009 -0.2530
 7647SOL    HW230320   2.893   5.930   6.147  0.0449 -0.0500 -0.2491
 7647SOL    HW330321   2.833   5.976   6.016  1.0863  0.3593 -0.5973
 7647SOL    MW430322   2.855   5.992   6.099 -0.2085 -0.7246  0.2922
 7648SOL     OW30323   5.292   4.189   1.071  0.6653 -0.3610 -0.8123
 7648SOL    HW230324   5.245   4.263   1.109 -2.2727 -1.9870 -1.0209
 7648SOL    HW330325   5.320   4.221   0.985 -1.2119  0.3182 -1.2143
 7648SOL    MW430326   5.289   4.203   1.065 -0.1568  0.0020  0.1451
 7649SOL     OW30327   0.641   5.963   1.782  0.6549 -0.1347 -0.2824
 7649SOL    HW230328   0.658   5.891   1.842 -2.0510 -3.6461 -3.2348
 7649SOL    HW330329   0.701   5.947   1.708 -1.5179 -0.9157 -1.9920
 7649SOL    MW430330   0.651   5.951   1.780  0.4223 -0.0187  0.0303
 7650SOL     OW30331   1.660   4.937   1.228  0.0036 -0.2456 -0.1673
 7650SOL    HW230332   1.601   4.978   1.165  1.1081 -0.8407 -1.6694
 7650SOL    HW330333   1.610   4.933   1.309 -1.0974  1.5309 -0.7009
 7650SOL    MW430334   1.646   4.942   1.230 -0.5676 -0.0982  0.4091
 7651SOL     OW30335   5.922   1.256   5.773 -0.0444 -0.0041  0.1886
 7651SOL    HW230336   5.924   1.216   5.686  0.3885 -0.6652  0.4957
 7651SOL    HW330337   5.830   1.254   5.799  0.0640 -1.5289  0.5180
 7651SOL    MW430338   5.910   1.251   5.765 -0.3604  0.2856  0.0252
 7652SOL     OW30339   2.356   2.092   4.578 -0.2348 -0.2422  0.3283
 7652SOL    HW230340   2.378   2.071   4.488  1.7955  0.9791  0.4920
 7652SOL    HW330341   2.285   2.156   4.571  1.3957  1.5410 -0.5118
 7652SOL    MW430342   2.349   2.097   4.566 -0.1053  0.3508  0.1836
 7653SOL     OW30343   0.603   4.519   5.922  0.5778  0.2276 -0.3216
 7653SOL    HW230344   0.562   4.453   5.866  0.0836 -0.0688  0.3834
 7653SOL    HW330345   0.570   4.501   6.009  0.0459  1.6998 -0.1816
 7653SOL    MW430346   0.593   4.508   5.926 -0.0575 -0.1529 -0.4949
 7654SOL     OW30347   1.793   5.539   1.622 -0.4422  0.3912 -0.3369
 7654SOL    HW230348   1.729   5.474   1.651  1.6242 -1.9091 -0.6909
 7654SOL    HW330349   1.828   5.576   1.702  0.4807 -1.1276 -0.0027
 7654SOL    MW430350   1.789   5.535   1.636  0.1049  0.1625  0.1480
 7655SOL     OW30351   1.666   3.550   2.720  0.4239 -0.0672  0.3734
 7655SOL    HW230352   1.707   3.538   2.634  0.4913  2.7751 -0.0728
 7655SOL    HW330353   1.572   3.549   2.703  0.4390  0.5961  0.2454
 7655SOL    MW430354   1.659   3.548   2.707 -0.5668 -0.4930  0.2617
 7656SOL     OW30355   3.120   4.522   5.911  0.0034  0.5079  0.0690
 7656SOL    HW230356   3.105   4.578   5.988 -0.2146  1.0951 -0.3935
 7656SOL    HW330357   3.070   4.564   5.841 -2.0403 -1.4867  0.2207
 7656SOL    MW430358   3.111   4.535   5.912 -0.1595 -0.5721 -0.0030
 7657SOL     OW30359   3.499   2.011   3.489  0.2294  0.2693 -0.4686
 7657SOL    HW230360   3.445   1.973   3.559 -1.6086 -1.0347 -2.4689
 7657SOL    HW330361   3.549   2.080   3.532  0.1863 -1.3301  2.3904
 7657SOL    MW430362   3.498   2.015   3.504  0.2860  0.0185 -0.1710
 7658SOL     OW30363   1.661   6.046   0.925 -0.2733 -0.4114  0.4167
 7658SOL    HW230364   1.676   5.954   0.905 -0.4938 -0.0473 -1.5799
 7658SOL    HW330365   1.707   6.094   0.856 -3.7018  0.8560 -1.2124
 7658SOL    MW430366   1.669   6.040   0.913  0.8521  0.0922  0.0454
 7659SOL     OW30367   6.341   1.386   1.634  0.1560 -1.3984  0.0006
 7659SOL    HW230368   6.288   1.338   1.697 -1.9581  2.8710  1.8488
 7659SOL    HW330369   6.278   1.428   1.576  1.6619  0.6151 -0.2950
 7659SOL    MW430370   6.326   1.385   1.635 -0.0086 -0.6237 -0.5073
 7660SOL     OW30371   1.285   5.160   1.802 -0.8979  0.1175 -0.0663
 7660SOL    HW230372   1.314   5.250   1.789 -1.5922  0.3865  0.2272
 7660SOL    HW330373   1.328   5.111   1.733  0.4734  0.4587  0.5088
 7660SOL    MW430374   1.294   5.165   1.792 -0.1022 -0.0149 -0.3416
 7661SOL     OW30375   2.269   1.307   5.181 -0.1195 -0.4645 -0.2296
 7661SOL    HW230376   2.264   1.386   5.127 -3.1861  0.5855  1.3559
 7661SOL    HW330377   2.312   1.337   5.262 -0.3297 -0.6769 -0.0391
 7661SOL    MW430378   2.274   1.322   5.185 -0.2516 -0.2196 -0.2562
 7662SOL     OW30379   1.909   5.765   3.203 -0.2191 -0.3341  0.2467
 7662SOL    HW230380   1.941   5.814   3.127  0.1148 -1.2398 -0.2268
 7662SOL    HW330381   1.815   5.754   3.187 -0.2976  0.1642  0.3649
 7662SOL    MW430382   1.901   5.770   3.191 -0.3198 -0.0671  0.6172
 7663SOL     OW30383   0.541   6.386   1.874 -0.5144  0.7485  0.5775
 7663SOL    HW230384   0.490   6.466   1.870 -1.3469  0.2053  0.1932
 7663SOL    HW330385   0.632   6.415   1.863 -0.8933  1.5227 -0.6195
 7663SOL    MW430386   0.546   6.400   1.872  0.4983  0.1400  0.1493
 7664SOL     OW30387   5.820   4.278   4.314  0.2060  0.3046 -0.3703
 7664SOL    HW230388   5.802   4.246   4.226  1.2818  0.6850 -0.7399
 7664SOL    HW330389   5.898   4.230   4.342 -1.8168 -2.1082  1.6323
 7664SOL    MW430390   5.828   4.268   4.306  0.0537 -0.1517  0.1731
 7665SOL     OW30391   2.418   5.486   1.792  0.5420  0.1604  0.5992
 7665SOL    HW230392   2.412   5.391   1.804  0.7084 -0.0796 -0.9892
 7665SOL    HW330393   2.330   5.518   1.814 -0.7693 -0.8775 -2.6004
 7665SOL    MW430394   2.406   5.478   1.797  0.2779 -0.7220  0.3915
 7666SOL     OW30395   5.540   2.907   3.876 -0.2053  0.2434 -0.4397
 7666SOL    HW230396   5.611   2.901   3.812 -0.9875  2.6571 -1.6280
 7666SOL    HW330397   5.574   2.964   3.944 -0.6594  0.6061 -0.5173
 7666SOL    MW430398   5.554   2.914   3.877 -0.1638  0.4631 -0.0794
 7667SOL     OW30399   2.572   0.195   3.446  0.2873  0.2176  1.1358
 7667SOL    HW230400   2.654   0.185   3.397  0.5063  1.7788  1.1241
 7667SOL    HW330401   2.507   0.149   3.394  0.6465  1.2840 -0.3043
 7667SOL    MW430402   2.575   0.187   3.433 -0.0348 -0.6542  0.3361
 7668SOL     OW30403   6.157   2.102   3.448  0.1988  0.1290 -0.0182
 7668SOL    HW230404   6.067   2.072   3.460 -0.0655  0.9573  0.0767
 7668SOL    HW330405   6.210   2.024   3.467 -0.5545 -1.1192 -2.5649
 7668SOL    MW430406   6.152   2.088   3.452 -0.4864 -0.0943 -0.0158
 7669SOL     OW30407   2.458   5.927   1.325  0.2957 -0.3407  0.0899
 7669SOL    HW230408   2.390   5.914   1.390  0.2993  0.6594  0.3037
 7669SOL    HW330409   2.528   5.866   1.351  0.3162  0.0762  1.0479
 7669SOL    MW430410   2.458   5.917   1.337 -0.5983 -0.0006  0.4592
 7670SOL     OW30411   2.210   4.245   5.353  0.0373  0.1356  0.2402
 7670SOL    HW230412   2.270   4.300   5.303 -1.2939  1.9205  0.4894
 7670SOL    HW330413   2.253   4.235   5.438  1.0231 -0.5787 -0.3168
 7670SOL    MW430414   2.224   4.251   5.358  0.1644  0.4049  0.7373
 7671SOL     OW30415   0.569   5.798   5.444  0.0787  0.0917 -0.3550
 7671SOL    HW230416   0.525   5.748   5.513  1.2075 -3.1467 -1.7941
 7671SOL    HW330417   0.560   5.744   5.366  2.6711  1.4691 -1.7374
 7671SOL    MW430418   0.562   5.785   5.443  0.0476  0.9152 -0.2473
 7672SOL     OW30419   4.518   0.930   5.924 -0.2409 -0.3211  0.0327
 7672SOL    HW230420   4.459   0.930   5.999  1.1593 -1.6022  1.1918
 7672SOL    HW330421   4.464   0.962   5.851 -2.5458 -1.9737  0.8835
 7672SOL    MW430422   4.503   0.934   5.924 -0.1059  0.2893 -0.1632
 7673SOL     OW30423   4.132   3.500   4.010  0.1459 -0.2381  0.0932
 7673SOL    HW230424   4.174   3.439   3.950  0.7495  0.7820 -0.5493
 7673SOL    HW330425   4.139   3.458   4.096 -2.7247 -2.8119 -0.7278
 7673SOL    MW430426   4.138   3.487   4.013 -0.1174  0.4925 -0.2234
 7674SOL     OW30427   2.845   6.307   4.163 -0.0414  0.2763  0.2354
 7674SOL    HW230428   2.775   6.363   4.130  0.3566  1.7422  1.7491
 7674SOL    HW330429   2.854   6.239   4.096 -2.7378  0.1496 -0.1218
 7674SOL    MW430430   2.837   6.306   4.150  0.9107 -0.2073 -0.1093
 7675SOL     OW30431   2.468   3.824   4.096 -0.0423  0.1450 -0.4412
 7675SOL    HW230432   2.418   3.831   4.177  1.7401 -1.9403  0.9438
 7675SOL    HW330433   2.436   3.743   4.055  1.4076 -0.6469 -0.0599
 7675SOL    MW430434   2.457   3.814   4.101 -0.1413  0.3255  0.5306
 7676SOL     OW30435   5.698   1.663   5.023 -0.3657 -0.7342 -0.0498
 7676SOL    HW230436   5.662   1.629   5.105  3.1324 -0.3241  1.8371
 7676SOL    HW330437   5.781   1.616   5.012  0.6690  1.3483 -1.7564
 7676SOL    MW430438   5.704   1.652   5.032  0.4854  0.3016 -0.1378
 7677SOL     OW30439   3.656   5.415   2.490 -0.4568 -0.5057  0.2487
 7677SOL    HW230440   3.666   5.506   2.518  1.9517 -0.3861 -0.8299
 7677SOL    HW330441   3.614   5.420   2.404 -0.1802 -0.4116  0.1203
 7677SOL    MW430442   3.651   5.427   2.483  0.1938 -0.8130  0.9111
 7678SOL     OW30443   5.151   5.898   3.097  0.1013  0.5652  0.2660
 7678SOL    HW230444   5.183   5.986   3.116 -0.4575  0.8633 -0.1327
 7678SOL    HW330445   5.167   5.849   3.178  3.3193  0.1258 -0.5106
 7678SOL    MW430446   5.157   5.903   3.111 -0.0956 -0.0265 -0.0175
 7679SOL     OW30447   6.197   4.569   0.519 -0.2865 -0.7252  0.1643
 7679SOL    HW230448   6.264   4.553   0.585 -0.9260 -2.0062  0.5344
 7679SOL    HW330449   6.176   4.662   0.528  0.0242 -0.7577  1.3962
 7679SOL    MW430450   6.203   4.579   0.529 -0.7663 -0.1029 -0.4907
 7680SOL     OW30451   6.130   5.698   2.239  0.0279  0.5911  0.0322
 7680SOL    HW230452   6.195   5.648   2.289  0.0537 -0.2256 -0.7860
 7680SOL    HW330453   6.079   5.631   2.194 -1.1630  1.2390  0.3868
 7680SOL    MW430454   6.132   5.682   2.239 -0.6825  0.0779 -0.3503
 7681SOL     OW30455   4.546   2.544   5.317 -0.0247  0.3666  0.1299
 7681SOL    HW230456   4.585   2.503   5.394 -1.4625 -1.2540  0.0535
 7681SOL    HW330457   4.590   2.503   5.243 -0.6358 -0.2183  0.0746
 7681SOL    MW430458   4.557   2.533   5.317 -0.2291 -0.1887 -0.6157
 7682SOL     OW30459   3.590   2.471   1.864  0.7724 -0.0460 -0.2232
 7682SOL    HW230460   3.568   2.491   1.955  0.9850  2.4401 -0.6480
 7682SOL    HW330461   3.532   2.398   1.841 -0.5085  0.3903  1.3949
 7682SOL    MW430462   3.579   2.464   1.873 -0.1608 -0.0624  0.3394
 7683SOL     OW30463   1.409   5.046   0.667  0.2229  0.5270 -0.5638
 7683SOL    HW230464   1.437   4.965   0.710  0.5498  1.0526  0.2473
 7683SOL    HW330465   1.482   5.068   0.609 -0.1570 -0.1113 -1.2994
 7683SOL    MW430466   1.423   5.038   0.665 -0.3588  0.0695 -0.0986
 7684SOL     OW30467   2.122   2.518   2.378 -0.2053  0.1128 -0.3388
 7684SOL    HW230468   2.029   2.529   2.357 -0.4125 -2.4171 -1.0764
 7684SOL    HW330469   2.140   2.587   2.442 -2.4863  0.8911 -0.4215
 7684SOL    MW430470   2.112   2.529   2.384  0.3225 -0.2221 -0.0263
 7685SOL     OW30471   6.159   0.112   1.857  0.0143  0.1159  0.1772
 7685SOL    HW230472   6.077   0.134   1.814  1.6060  0.2823 -3.1094
 7685SOL    HW330473   6.138   0.034   1.910 -2.4570  0.8644  0.4298
 7685SOL    MW430474   6.145   0.104   1.858  0.4281 -0.0259  0.2567
 7686SOL     OW30475   5.065   5.081   4.738 -0.1002  0.5949  0.1515
 7686SOL    HW230476   5.152   5.109   4.711 -0.0019  1.2774  1.1278
 7686SOL    HW330477   5.069   4.985   4.735  0.2416  0.6378 -1.1190
 7686SOL    MW430478   5.077   5.072   4.734  0.7313  0.0568  0.0031
 7687SOL     OW30479   0.293   1.038   1.958  0.4690 -0.1765  0.1641
 7687SOL    HW230480   0.232   1.100   1.918 -0.4752 -2.6217 -2.5096
 7687SOL    HW330481   0.294   1.062   2.051 -4.5539  0.0774  0.4174
 7687SOL    MW430482   0.285   1.049   1.965  0.2941 -0.1914  0.3499
 7688SOL     OW30483   5.038   4.086   0.992 -0.1660 -0.1050  0.1057
 7688SOL    HW230484   5.109   4.129   1.040  0.1489  0.4072 -0.7955
 7688SOL    HW330485   5.022   4.143   0.916 -1.7090 -0.0768  0.4093
 7688SOL    MW430486   5.045   4.099   0.988 -0.2919  0.8360  0.5259
 7689SOL     OW30487   6.140   3.428   2.176  0.6747  0.3692  0.0532
 7689SOL    HW230488   6.110   3.342   2.204  1.6234 -0.1277 -0.4179
 7689SOL    HW330489   6.123   3.431   2.082  0.2778  0.8566  0.1349
 7689SOL    MW430490   6.134   3.417   2.168  0.0389  0.0297  0.0059
 7690SOL     OW30491   5.445   2.517   0.496  0.1156 -0.5221 -0.4143
 7690SOL    HW230492   5.471   2.603   0.531 -0.7760 -0.2483 -0.4141
 7690SOL    HW330493   5.366   2.494   0.545 -1.2460 -0.0846 -2.2879
 7690SOL    MW430494   5.438   2.525   0.507 -0.3964  0.1911 -0.0996
 7691SOL     OW30495   5.638   5.348   4.766  0.0936  0.5140  0.0606
 7691SOL    HW230496   5.550   5.383   4.757  0.0836  0.5186  0.1736
 7691SOL    HW330497   5.658   5.358   4.859 -0.6197 -1.4575  0.4756
 7691SOL    MW430498   5.629   5.354   4.777  0.2038  0.7413 -0.6675
 7692SOL     OW30499   3.840   0.900   1.566  0.8968  0.4960  0.3034
 7692SOL    HW230500   3.846   0.893   1.470  1.2439 -0.4689  0.3843
 7692SOL    HW330501   3.759   0.856   1.589  1.7328 -0.9605  0.5944
 7692SOL    MW430502   3.830   0.893   1.556 -0.7088  0.0759 -0.1215
 7693SOL     OW30503   6.235   3.576   5.626  0.6536  0.0405  0.0359
 7693SOL    HW230504   6.285   3.639   5.678  0.3675  0.9945 -0.8123
 7693SOL    HW330505   6.269   3.491   5.652  1.6274  0.5907  0.6135
 7693SOL    MW430506   6.246   3.573   5.636  0.1016 -0.0407 -1.0327
 7694SOL     OW30507   2.175   5.793   2.063 -0.1294 -0.4243 -0.7903
 7694SOL    HW230508   2.167   5.721   2.126 -0.1415 -1.0279 -1.4638
 7694SOL    HW330509   2.118   5.861   2.097  0.6616 -0.3170  0.4108
 7694SOL    MW430510   2.167   5.792   2.076 -0.1251  0.1659 -0.1066
 7695SOL     OW30511   3.341   0.964   2.230 -0.8138 -0.2144 -0.0996
 7695SOL    HW230512   3.329   0.869   2.231 -2.0679 -0.1165 -1.4004
 7695SOL    HW330513   3.352   0.985   2.137  0.5469  0.8132  0.2710
 7695SOL    MW430514   3.340   0.954   2.218 -0.1031 -0.2265  0.2638
 7696SOL     OW30515   3.649   3.831   3.604 -0.4408 -0.0647  0.3131
 7696SOL    HW230516   3.719   3.782   3.646 -0.1373  0.1652  0.0871
 7696SOL    HW330517   3.610   3.770   3.542 -0.4817 -0.2112  0.4828
 7696SOL    MW430518   3.653   3.817   3.601 -0.1453  0.6507  0.5157
 7697SOL     OW30519   3.604   1.792   2.586  0.3074 -0.1259 -0.1434
 7697SOL    HW230520   3.643   1.879   2.592  0.2415 -0.0130 -1.1836
 7697SOL    HW330521   3.511   1.807   2.600  0.5533 -0.3679  2.1216
 7697SOL    MW430522   3.597   1.805   2.589 -0.3323  0.2957 -0.4792
 7698SOL     OW30523   0.597   2.978   4.571  0.3699 -0.0695  0.5033
 7698SOL    HW230524   0.617   2.894   4.530 -0.0655  0.3694 -0.6582
 7698SOL    HW330525   0.663   3.038   4.538  0.3729  0.1611  0.9214
 7698SOL    MW430526   0.608   2.974   4.561  0.2431  0.2932 -0.3200
 7699SOL     OW30527   4.989   2.620   5.376 -0.0231  0.1552  0.2136
 7699SOL    HW230528   4.971   2.562   5.450  0.1278 -1.8386 -1.2407
 7699SOL    HW330529   4.904   2.659   5.354 -0.0620  0.8051  1.4082
 7699SOL    MW430530   4.976   2.618   5.383  0.7615 -0.0701  0.1480
 7700SOL     OW30531   0.307   5.494   0.384  0.0303 -0.1121  0.0702
 7700SOL    HW230532   0.388   5.539   0.409 -0.8762  1.2252  0.7135
 7700SOL    HW330533   0.285   5.441   0.461 -0.7121  1.0379  0.6855
 7700SOL    MW430534   0.315   5.493   0.398 -0.2046 -0.1487 -0.3685
 7701SOL     OW30535   4.443   4.227   4.901  0.2507 -0.2356  0.1111
 7701SOL    HW230536   4.490   4.243   4.819  0.3606 -0.0910  0.2009
 7701SOL    HW330537   4.352   4.211   4.875 -0.0625  1.4284  0.0679
 7701SOL    MW430538   4.437   4.227   4.887 -0.4756 -0.1918  0.2009
 7702SOL     OW30539   6.416   5.673   6.121 -0.0662  0.1054 -0.0978
 7702SOL    HW230540   6.363   5.753   6.127 -2.9921 -1.7190  0.5292
 7702SOL    HW330541   6.359   5.604   6.157  2.8210 -2.0716  0.6732
 7702SOL    MW430542   6.401   5.675   6.127 -0.1902  0.2248 -0.3078
 7703SOL     OW30543   5.533   4.426   3.200 -0.4435 -0.3750  0.2161
 7703SOL    HW230544   5.505   4.335   3.204  0.9885 -0.8442  0.4800
 7703SOL    HW330545   5.581   4.439   3.282 -0.9905  0.7550  0.3766
 7703SOL    MW430546   5.536   4.416   3.212  0.0410  0.0404 -0.1834
 7704SOL     OW30547   1.271   0.525   4.575  0.2281  0.1357  0.1244
 7704SOL    HW230548   1.363   0.507   4.589  0.8816  0.9421 -2.4495
 7704SOL    HW330549   1.262   0.619   4.592  0.4137  0.5060 -1.5775
 7704SOL    MW430550   1.282   0.535   4.579  0.0299  0.2487  0.3670
 7705SOL     OW30551   3.555   0.808   1.968 -0.1658 -0.0932  0.5196
 7705SOL    HW230552   3.628   0.851   2.014  0.2178  0.5310 -0.6157
 7705SOL    HW330553   3.487   0.875   1.964  0.2631  0.2983 -0.8601
 7705SOL    MW430554   3.556   0.823   1.974 -0.2570 -0.3001  0.3016
 7706SOL     OW30555   5.688   1.492   4.263  0.1911  0.2843 -0.5044
 7706SOL    HW230556   5.757   1.432   4.235 -0.4068 -0.0745 -1.2417
 7706SOL    HW330557   5.633   1.505   4.185 -1.2990 -0.4467  0.3621
 7706SOL    MW430558   5.690   1.485   4.249 -0.4234 -0.1917 -0.1370
 7707SOL     OW30559   0.907   5.961   1.085  0.1739 -0.1073 -0.4204
 7707SOL    HW230560   0.990   5.962   1.037  0.5039 -0.5882  0.1318
 7707SOL    HW330561   0.840   5.970   1.017  0.6401 -0.6857 -0.9682
 7707SOL    MW430562   0.909   5.962   1.069 -0.2153 -0.2429 -0.1857
 7708SOL     OW30563   3.626   4.347   2.477  0.2313 -0.3249  0.4015
 7708SOL    HW230564   3.569   4.329   2.402 -0.8204  0.6047  0.9371
 7708SOL    HW330565   3.671   4.264   2.494  0.2986 -0.6124 -1.0819
 7708SOL    MW430566   3.624   4.334   2.470 -0.1105  0.1280  0.0878
 7709SOL     OW30567   4.491   4.228   3.781 -0.3705 -0.1401  0.4762
 7709SOL    HW230568   4.421   4.197   3.839  0.3226 -0.1543  1.3407
 7709SOL    HW330569   4.564   4.167   3.799  0.2702  0.6321  0.5325
 7709SOL    MW430570   4.491   4.216   3.791  0.6928  0.3573  0.5434
 7710SOL     OW30571   5.760   4.337   3.825 -0.2307 -0.1006  0.3889
 7710SOL    HW230572   5.803   4.404   3.878 -1.3172  1.3158 -0.4504
 7710SOL    HW330573   5.805   4.340   3.741 -1.3087  0.7765 -0.1985
 7710SOL    MW430574   5.771   4.346   3.821 -0.2007  0.4712 -0.0391
 7711SOL     OW30575   3.252   4.476   3.727  0.4019 -0.0060 -0.1609
 7711SOL    HW230576   3.204   4.462   3.808  0.4276 -0.6315 -0.2492
 7711SOL    HW330577   3.230   4.565   3.701  0.4154  0.2082  0.5451
 7711SOL    MW430578   3.243   4.486   3.734  0.5919 -0.2192  0.6940
 7712SOL     OW30579   0.182   6.315   3.123  0.3649  0.1053  0.2679
 7712SOL    HW230580   0.205   6.309   3.030  0.8690 -0.9359  0.4437
 7712SOL    HW330581   0.263   6.293   3.169 -0.0904 -0.2002  0.9411
 7712SOL    MW430582   0.196   6.311   3.117 -0.7832 -0.0695  0.2804
 7713SOL     OW30583   1.776   3.516   2.471 -0.2399  0.0809  0.3277
 7713SOL    HW230584   1.850   3.456   2.479 -1.0464 -0.8066  1.3550
 7713SOL    HW330585   1.812   3.592   2.424  1.1823 -0.5431  0.3614
 7713SOL    MW430586   1.791   3.518   2.466 -0.0626 -0.3483  0.0771
 7714SOL     OW30587   5.508   4.721   3.049  0.1235 -0.9119 -0.0432
 7714SOL    HW230588   5.443   4.773   3.002 -1.4456 -0.7820  2.1406
 7714SOL    HW330589   5.570   4.786   3.083 -0.9440 -0.5564  1.3256
 7714SOL    MW430590   5.508   4.737   3.047 -0.2750  0.1036  0.3108
 7715SOL     OW30591   0.987   1.823   4.064 -0.1841  0.3218  0.5816
 7715SOL    HW230592   1.000   1.740   4.019 -2.9096  0.5176 -0.7638
 7715SOL    HW330593   1.011   1.805   4.155  3.2102 -0.7257 -0.3790
 7715SOL    MW430594   0.992   1.810   4.070 -0.4716  0.6571  0.2926
 7716SOL     OW30595   0.177   4.251   4.125 -0.1005 -0.1208  0.4125
 7716SOL    HW230596   0.161   4.157   4.132 -0.8640  0.0297  0.7685
 7716SOL    HW330597   0.224   4.273   4.206 -1.6670  0.1432  1.2851
 7716SOL    MW430598   0.181   4.241   4.137 -0.0931  0.4510 -0.0146
 7717SOL     OW30599   3.638   4.833   3.940  0.5051  0.2020 -0.4665
 7717SOL    HW230600   3.603   4.844   3.852  0.2078  0.4077 -0.3280
 7717SOL    HW330601   3.562   4.806   3.993  0.5625  0.5882 -0.1748
 7717SOL    MW430602   3.623   4.831   3.936 -0.4799 -0.0513 -0.6769
 7718SOL     OW30603   6.039   3.850   3.266 -0.7538 -0.1144  0.6254
 7718SOL    HW230604   5.993   3.801   3.334  0.5735 -2.9040 -0.3417
 7718SOL    HW330605   6.036   3.794   3.189  1.7585  0.8244 -0.2860
 7718SOL    MW430606   6.033   3.836   3.265 -0.0797  0.3839  0.1901
 7719SOL     OW30607   3.809   3.396   0.828 -0.2361 -0.2556 -0.1268
 7719SOL    HW230608   3.881   3.333   0.819  0.4182  0.4912 -0.2188
 7719SOL    HW330609   3.776   3.383   0.916  0.6290  0.0284  0.2475
 7719SOL    MW430610   3.814   3.386   0.838  0.2268 -0.3145 -0.1498
 7720SOL     OW30611   5.710   2.192   3.454 -0.1018 -0.2259 -0.2353
 7720SOL    HW230612   5.785   2.205   3.396 -0.2394 -2.4488 -1.0336
 7720SOL    HW330613   5.637   2.174   3.395 -0.6188 -0.9073  0.5845
 7720SOL    MW430614   5.710   2.191   3.438  0.1095 -0.1496  0.6130
 7721SOL     OW30615   1.146   4.967   5.498  0.2283 -0.3352 -0.1660
 7721SOL    HW230616   1.145   4.871   5.503  0.7007 -0.4674 -1.8993
 7721SOL    HW330617   1.233   4.991   5.531  0.6448 -0.6315 -0.9969
 7721SOL    MW430618   1.158   4.957   5.503  0.0791  0.1880 -0.5203
 7722SOL     OW30619   6.360   1.747   2.414  0.1462 -0.1436 -0.0709
 7722SOL    HW230620   6.397   1.771   2.328  0.7648  0.8785  0.4548
 7722SOL    HW330621   6.283   1.695   2.393  1.0571 -1.0720 -1.2278
 7722SOL    MW430622   6.355   1.744   2.400 -0.2083 -0.3197  0.4178
 7723SOL     OW30623   6.197   0.539   6.278 -0.4333 -0.1857 -0.1098
 7723SOL    HW230624   6.285   0.511   6.303  0.5832  1.8078 -1.2428
 7723SOL    HW330625   6.140   0.503   6.346  1.7271  1.8550  3.0239
 7723SOL    MW430626   6.201   0.530   6.290 -0.5046  0.1079 -0.0971
 7724SOL     OW30627   0.956   6.376   5.945 -0.2079 -0.0393 -0.8996
 7724SOL    HW230628   0.950   6.330   6.029 -0.6199 -1.4795 -1.6753
 7724SOL    HW330629   0.910   6.458   5.958 -1.6035 -0.9143 -0.1410
 7724SOL    MW430630   0.949   6.381   5.958  0.4160 -0.2732 -0.2087
 7725SOL     OW30631   0.199   1.478   5.144 -0.0770 -0.1481  0.1852
 7725SOL    HW230632   0.105   1.490   5.131 -0.1116 -0.2089  0.3751
 7725SOL    HW330633   0.215   1.511   5.233 -0.2838 -2.1380  0.9973
 7725SOL    MW430634   0.189   1.484   5.154  0.2986  0.0569 -0.6807
 7726SOL     OW30635   3.595   4.331   2.916 -0.1942 -0.3574  0.4695
 7726SOL    HW230636   3.501   4.313   2.917 -0.4804  0.9367 -0.3980
 7726SOL    HW330637   3.616   4.350   3.007 -0.6383 -1.2233  0.7694
 7726SOL    MW430638   3.585   4.331   2.928 -0.3010  0.4120 -0.0303
 7727SOL     OW30639   1.052   3.662   1.266  0.3858 -0.8567  0.3192
 7727SOL    HW230640   1.044   3.750   1.228  0.8199 -2.7544 -4.9954
 7727SOL    HW330641   0.965   3.642   1.300  0.3365  1.5557  1.8812
 7727SOL    MW430642   1.040   3.671   1.266  0.2068  0.3383  0.2562
 7728SOL     OW30643   2.360   2.947   5.947 -0.3636  0.3175  0.2918
 7728SOL    HW230644   2.426   2.971   6.011 -1.5913 -0.2579  1.8359
 7728SOL    HW330645   2.386   2.859   5.917  0.4216  0.7441 -0.3190
 7728SOL    MW430646   2.372   2.938   5.951 -0.2651  0.2731  0.3859
 7729SOL     OW30647   6.187   0.153   3.970 -0.1200 -0.0163  0.2823
 7729SOL    HW230648   6.184   0.223   4.034  0.6249 -1.1980  1.6602
 7729SOL    HW330649   6.152   0.076   4.015  3.5356 -1.7529  0.5380
 7729SOL    MW430650   6.182   0.152   3.984  0.1625 -0.0567  0.1780
 7730SOL     OW30651   3.549   1.560   3.479  0.7675 -0.9028 -0.3412
 7730SOL    HW230652   3.639   1.531   3.461  1.3954 -0.1724  1.3943
 7730SOL    HW330653   3.532   1.532   3.568 -1.1009 -1.7933 -0.9283
 7730SOL    MW430654   3.559   1.553   3.488  0.1341  0.0675  0.8053
 7731SOL     OW30655   0.861   0.241   0.610 -0.2894  0.4056  0.2819
 7731SOL    HW230656   0.905   0.234   0.525 -0.0127 -0.8955  0.5126
 7731SOL    HW330657   0.877   0.157   0.652 -1.2322  0.6878  1.2433
 7731SOL    MW430658   0.869   0.229   0.604  0.1933 -0.1433 -0.3719
 7732SOL     OW30659   2.314   5.147   2.826 -0.1329  0.1747  0.3311
 7732SOL    HW230660   2.275   5.222   2.871  2.9151  0.7571  2.2542
 7732SOL    HW330661   2.289   5.071   2.878  1.1031  0.5341  1.5035
 7732SOL    MW430662   2.306   5.147   2.839  0.3049  0.1018  0.3539
 7733SOL     OW30663   1.905   2.647   1.545  0.3038 -0.2771 -0.7405
 7733SOL    HW230664   1.989   2.688   1.523 -0.2440  0.5342 -1.3885
 7733SOL    HW330665   1.908   2.633   1.639  0.0986  2.2848 -0.2926
 7733SOL    MW430666   1.916   2.650   1.554 -0.0260 -0.1350  0.0905
 7734SOL     OW30667   1.209   3.765   2.747 -0.5161 -0.3094  0.2485
 7734SOL    HW230668   1.239   3.853   2.769  0.4440 -0.8901  1.4338
 7734SOL    HW330669   1.204   3.764   2.652  3.3541 -0.1084 -0.1314
 7734SOL    MW430670   1.212   3.776   2.738  0.6973  0.0068 -0.5520
 7735SOL     OW30671   5.484   3.683   1.154 -0.1924 -0.3808  0.5159
 7735SOL    HW230672   5.499   3.639   1.237  1.9001 -0.1266  0.3082
 7735SOL    HW330673   5.526   3.768   1.163  1.0064 -0.7486 -1.1450
 7735SOL    MW430674   5.491   3.688   1.166 -0.3152 -0.3581  0.1188
 7736SOL     OW30675   2.746   1.463   3.900  0.2243  0.0218 -0.0441
 7736SOL    HW230676   2.717   1.540   3.851  0.4540  0.2319  0.1475
 7736SOL    HW330677   2.691   1.462   3.978 -2.9550 -2.5178 -2.0415
 7736SOL    MW430678   2.735   1.473   3.904 -0.1234 -0.1901 -0.0271
 7737SOL     OW30679   4.288   2.117   1.659  0.3599 -0.2548  0.0031
 7737SOL    HW230680   4.366   2.062   1.669  0.7618  0.2822 -0.1202
 7737SOL    HW330681   4.237   2.074   1.590  0.3184 -0.8646  0.4091
 7737SOL    MW430682   4.292   2.104   1.651 -0.4827 -0.0354  0.4310
 7738SOL     OW30683   3.833   2.677   0.997 -0.4461  0.3738  0.0620
 7738SOL    HW230684   3.841   2.717   1.083  1.0673 -0.8751  0.5454
 7738SOL    HW330685   3.849   2.749   0.936 -3.1800  1.6533  0.7104
 7738SOL    MW430686   3.836   2.692   1.000 -0.2844 -0.0561 -0.0768
 7739SOL     OW30687   5.062   2.352   4.613  0.0498 -0.0209 -0.1028
 7739SOL    HW230688   4.992   2.352   4.547 -0.1792 -0.9919  0.1152
 7739SOL    HW330689   5.064   2.262   4.645  0.6825  0.2564  0.6682
 7739SOL    MW430690   5.053   2.340   4.608 -0.1950 -0.1557 -0.3270
 7740SOL     OW30691   3.917   2.141   2.530  0.1162 -0.2155 -0.1327
 7740SOL    HW230692   4.012   2.152   2.521  0.0288  0.1845 -0.6689
 7740SOL    HW330693   3.894   2.080   2.460 -0.1928  0.7124 -0.8698
 7740SOL    MW430694   3.926   2.134   2.519  0.2124  0.2672 -0.0984
 7741SOL     OW30695   2.842   2.585   2.243  0.3198  0.3906 -0.5509
 7741SOL    HW230696   2.757   2.629   2.239  0.3261  0.4122 -0.4391
 7741SOL    HW330697   2.825   2.498   2.208 -0.3841 -0.6057  2.0759
 7741SOL    MW430698   2.829   2.579   2.238  0.2158 -0.3292  0.2048
 7742SOL     OW30699   4.678   3.025   5.474  0.2301 -0.0226 -0.3336
 7742SOL    HW230700   4.695   2.933   5.453 -0.5435 -0.3803  0.5322
 7742SOL    HW330701   4.739   3.045   5.544 -1.6847 -0.8605  1.7135
 7742SOL    MW430702   4.688   3.015   5.480 -0.6423 -0.1124  0.0084
 7743SOL     OW30703   1.882   0.551   2.721  0.1848 -0.3566 -0.2745
 7743SOL    HW230704   1.967   0.584   2.749  0.9079 -3.6210  1.9622
 7743SOL    HW330705   1.819   0.613   2.756  1.5160  0.7739  0.2279
 7743SOL    MW430706   1.885   0.563   2.729 -0.0531 -0.3652  0.1751
 7744SOL     OW30707   5.367   3.517   3.277  0.5639 -1.0249 -0.3328
 7744SOL    HW230708   5.325   3.432   3.291  1.0072 -1.1343  0.3653
 7744SOL    HW330709   5.298   3.572   3.241  0.2686 -1.6815 -0.7966
 7744SOL    MW430710   5.352   3.513   3.274 -0.1019 -0.6893  0.5269
 7745SOL     OW30711   1.230   2.174   0.472  0.1077  0.4075  0.4961
 7745SOL    HW230712   1.229   2.103   0.408 -0.6794  1.3594 -0.5981
 7745SOL    HW330713   1.150   2.163   0.523  1.3729 -1.1337  2.2826
 7745SOL    MW430714   1.219   2.163   0.470 -0.2550 -0.2476 -0.1724
 7746SOL     OW30715   1.821   6.163   0.744 -0.5248  0.0293  1.0618
 7746SOL    HW230716   1.865   6.134   0.664 -0.5330  0.1584  1.0098
 7746SOL    HW330717   1.877   6.233   0.778 -0.6820  0.1844  1.0028
 7746SOL    MW430718   1.834   6.169   0.738 -0.7073 -0.8318 -0.1691
 7747SOL     OW30719   4.386   0.683   1.830  0.1503  0.1549  1.3280
 7747SOL    HW230720   4.306   0.641   1.800  1.7011 -2.7301  0.9390
 7747SOL    HW330721   4.421   0.727   1.753  0.3917 -1.0744  0.7128
 7747SOL    MW430722   4.380   0.684   1.816 -0.1314  0.5029  0.3054
 7748SOL     OW30723   6.104   5.762   3.435 -0.4455 -0.4566  0.5929
 7748SOL    HW230724   6.115   5.736   3.343  1.3951  2.3557 -0.1318
 7748SOL    HW330725   6.017   5.803   3.438 -1.3364 -2.2782  0.6253
 7748SOL    MW430726   6.094   5.764   3.423 -0.4122 -0.2345  0.2691
 7749SOL     OW30727   4.463   5.765   1.612 -0.1252  0.2034  0.3802
 7749SOL    HW230728   4.524   5.691   1.612  0.6142  0.7879 -0.8339
 7749SOL    HW330729   4.481   5.811   1.694  1.3455  0.5686 -0.1212
 7749SOL    MW430730   4.473   5.761   1.623 -0.3452  0.4750 -0.1330
 7750SOL     OW30731   4.156   6.308   0.346 -0.0540  0.2580  0.3705
 7750SOL    HW230732   4.177   6.295   0.438  0.8828  2.8117  0.6124
 7750SOL    HW330733   4.240   6.333   0.306 -0.6874  0.4156 -0.9093
 7750SOL    MW430734   4.170   6.310   0.353 -1.1580 -0.0281  0.1409
 7751SOL     OW30735   5.691   4.739   2.438 -0.6588  0.0234 -0.0102
 7751SOL    HW230736   5.628   4.685   2.391 -2.2495  1.9382 -0.2003
 7751SOL    HW330737   5.640   4.780   2.507  0.6785  0.6933  0.6157
 7751SOL    MW430738   5.676   4.737   2.441 -0.0965 -0.3070  0.1608
 7752SOL     OW30739   3.846   5.312   3.286  0.3669  0.5889 -0.6345
 7752SOL    HW230740   3.871   5.383   3.346 -1.3057  1.3942 -0.8413
 7752SOL    HW330741   3.889   5.234   3.322 -0.4128  1.0715  1.4959
 7752SOL    MW430742   3.855   5.311   3.299  0.7309  0.4091  0.6529
 7753SOL     OW30743   0.018   0.338   3.071  0.2071 -0.1628 -0.0105
 7753SOL    HW230744  -0.065   0.292   3.063  0.8665 -1.1386 -1.9632
 7753SOL    HW330745  -0.002   0.417   3.121 -1.7418 -0.6850  0.0940
 7753SOL    MW430746   0.005   0.342   3.076  0.0475  0.3351  0.0840
 7754SOL     OW30747   3.477   1.052   0.894 -0.1759  0.4396  0.3438
 7754SOL    HW230748   3.436   1.103   0.964  0.2074  1.1648  0.0482
 7754SOL    HW330749   3.569   1.076   0.898  0.1592 -0.8450  0.7184
 7754SOL    MW430750   3.484   1.062   0.904  0.1267  0.7941 -0.0967
 7755SOL     OW30751   6.160   0.420   0.347  0.6045 -0.1384  0.4171
 7755SOL    HW230752   6.204   0.406   0.263 -0.0649  0.0565  0.0246
 7755SOL    HW330753   6.206   0.494   0.386  1.2378 -0.5403  0.4508
 7755SOL    MW430754   6.172   0.428   0.341 -0.3278 -0.1621  0.5015
 7756SOL     OW30755   4.522   2.671   3.890 -0.0474  0.4506 -0.1834
 7756SOL    HW230756   4.507   2.589   3.842 -0.6467  0.0533  0.6538
 7756SOL    HW330757   4.579   2.645   3.963 -0.3819  0.7420  0.1837
 7756SOL    MW430758   4.527   2.656   3.893 -0.0359  0.6780  0.4222
 7757SOL     OW30759   2.386   4.729   5.631  0.2642  0.0680 -0.6496
 7757SOL    HW230760   2.413   4.791   5.699  1.3203 -0.1993 -0.8073
 7757SOL    HW330761   2.323   4.778   5.578 -1.1679  0.0307  0.9581
 7757SOL    MW430762   2.382   4.744   5.633  0.3273 -0.2288  0.0650
 7758SOL     OW30763   6.438   1.733   4.374  0.0401 -0.6449 -0.1990
 7758SOL    HW230764   6.394   1.649   4.384  1.0779 -1.2534 -0.5311
 7758SOL    HW330765   6.462   1.736   4.281 -0.7786  0.4325 -0.3894
 7758SOL    MW430766   6.435   1.722   4.363  0.3305  0.4499 -0.3077
 7759SOL     OW30767   5.061   2.092   4.717 -0.3080 -0.0415 -0.0927
 7759SOL    HW230768   5.131   2.031   4.741 -0.6626 -0.9759 -1.3013
 7759SOL    HW330769   5.014   2.109   4.799  0.4904 -0.4905  0.4714
 7759SOL    MW430770   5.064   2.086   4.731  0.3855  0.0861 -0.2376
 7760SOL     OW30771   5.097   4.089   2.876  0.3027  0.3929  0.3145
 7760SOL    HW230772   5.116   4.065   2.967  0.1990  1.1052  0.5254
 7760SOL    HW330773   5.151   4.029   2.824 -0.0955 -0.4288  0.8235
 7760SOL    MW430774   5.107   4.078   2.881 -0.4368 -0.6303  0.3487
 7761SOL     OW30775   2.392   0.399   5.571 -0.2478  0.2409  0.1554
 7761SOL    HW230776   2.460   0.447   5.619 -1.1367  0.1197  1.5862
 7761SOL    HW330777   2.316   0.401   5.629 -1.7302  1.0019 -1.7368
 7761SOL    MW430778   2.391   0.405   5.585  0.3290 -0.1711  0.2610
 7762SOL     OW30779   3.647   2.976   4.285 -0.1918  0.2882 -0.3468
 7762SOL    HW230780   3.683   3.058   4.251  0.2013 -0.4205 -1.6819
 7762SOL    HW330781   3.624   2.997   4.376 -0.0999  1.8740 -0.6496
 7762SOL    MW430782   3.648   2.990   4.292  0.1294  0.1853  0.3300
 7763SOL     OW30783   1.480   6.239   5.498  0.5658 -0.3211  0.0863
 7763SOL    HW230784   1.492   6.192   5.415  3.4525 -1.2223  0.8806
 7763SOL    HW330785   1.561   6.222   5.546 -0.2309  1.7427  2.3325
 7763SOL    MW430786   1.492   6.230   5.493 -0.3230  0.2939  0.2983
 7764SOL     OW30787   3.928   0.451   2.678 -0.2656  0.1885 -0.2645
 7764SOL    HW230788   4.009   0.463   2.627 -0.4096  1.4731 -0.2252
 7764SOL    HW330789   3.922   0.530   2.732 -1.8801  0.4226 -0.7389
 7764SOL    MW430790   3.938   0.463   2.678  0.2293  0.1043 -0.2808
 7765SOL     OW30791   3.053   5.123   3.884 -0.3896  0.0692  0.1568
 7765SOL    HW230792   3.115   5.145   3.953  1.6189 -2.2794 -0.7547
 7765SOL    HW330793   3.071   5.186   3.814 -0.5441  0.7397  0.7137
 7765SOL    MW430794   3.063   5.134   3.884  0.7560  0.7015 -0.2536
 7766SOL     OW30795   3.854   5.722   5.685  0.0202  0.0190 -0.8758
 7766SOL    HW230796   3.896   5.808   5.681 -1.2464  0.6285 -2.3456
 7766SOL    HW330797   3.816   5.717   5.772 -0.8372  1.4481 -1.1438
 7766SOL    MW430798   3.855   5.733   5.696 -0.0306 -0.2679 -0.0412
 7767SOL     OW30799   3.386   0.576   1.922  0.9408 -0.4676  0.4002
 7767SOL    HW230800   3.463   0.620   1.960  0.5845 -0.0469  0.6478
 7767SOL    HW330801   3.314   0.638   1.935  0.3736 -1.2328  0.9630
 7767SOL    MW430802   3.387   0.590   1.928  0.4450 -0.4040 -0.2048
 7768SOL     OW30803   2.028   5.886   0.456  0.0460 -0.2495 -0.1425
 7768SOL    HW230804   2.051   5.916   0.368 -0.5157  1.0301  0.1160
 7768SOL    HW330805   2.055   5.794   0.458  2.5638  0.3942 -0.7602
 7768SOL    MW430806   2.035   5.878   0.445  0.7254  0.8537  0.2711
 7769SOL     OW30807   5.689   5.609   5.904 -0.0422 -0.2517 -0.0608
 7769SOL    HW230808   5.711   5.696   5.937 -1.1284 -1.0598  3.2004
 7769SOL    HW330809   5.599   5.617   5.873 -0.6667 -0.4797  1.6109
 7769SOL    MW430810   5.680   5.622   5.904  0.1608  0.3029 -0.0976
 7770SOL     OW30811   4.822   4.787   3.810  0.3931  0.5209 -0.1458
 7770SOL    HW230812   4.742   4.753   3.849 -0.3397  1.4740 -0.7584
 7770SOL    HW330813   4.829   4.743   3.725  0.8655 -0.0161  0.1626
 7770SOL    MW430814   4.812   4.777   3.804 -0.1038  0.0158  0.2481
 7771SOL     OW30815   4.767   3.633   1.155 -0.3122 -0.1363  0.1932
 7771SOL    HW230816   4.679   3.599   1.169 -0.2709 -0.3411 -0.0500
 7771SOL    HW330817   4.753   3.716   1.109 -0.3904 -0.0237  0.4169
 7771SOL    MW430818   4.754   3.640   1.151  0.6730 -0.1206 -0.0018
 7772SOL     OW30819   6.312   5.998   5.916 -0.0158  0.0940  0.3479
 7772SOL    HW230820   6.332   5.984   5.823 -0.6003 -2.2808  0.4995
 7772SOL    HW330821   6.254   6.074   5.917  0.5730  0.5992 -1.1584
 7772SOL    MW430822   6.307   6.006   5.904 -0.5561 -0.0859 -0.2586
 7773SOL     OW30823   6.333   2.868   1.583  0.1055 -0.9198  0.5434
 7773SOL    HW230824   6.406   2.908   1.629  0.4223  0.2980 -0.9490
 7773SOL    HW330825   6.256   2.916   1.613  0.2918 -0.2283 -0.0709
 7773SOL    MW430826   6.332   2.879   1.593 -0.1205 -0.2800 -0.5394
 7774SOL     OW30827   2.443   3.518   5.182 -0.4795  0.1657  0.7819
 7774SOL    HW230828   2.371   3.571   5.149 -0.1668  0.3394  0.3723
 7774SOL    HW330829   2.437   3.526   5.278 -1.5070 -0.5058  0.7923
 7774SOL    MW430830   2.433   3.526   5.191 -0.0591  0.4748 -0.4448
 7775SOL     OW30831   4.001   0.206   3.767 -0.4652  0.0503  0.0225
 7775SOL    HW230832   4.064   0.144   3.806 -0.6788  0.0207  0.3301
 7775SOL    HW330833   3.989   0.174   3.678  0.0925  0.1624 -0.0967
 7775SOL    MW430834   4.008   0.193   3.761 -0.6076 -0.3786  0.6827
 7776SOL     OW30835   6.184   1.849   4.435  0.2420  0.3046  0.5173
 7776SOL    HW230836   6.118   1.789   4.399 -0.0736  0.8855  0.1107
 7776SOL    HW330837   6.261   1.835   4.379 -0.5814  1.9753 -1.1415
 7776SOL    MW430838   6.185   1.839   4.423  0.5732 -0.2816  0.4069
 7777SOL     OW30839   2.178   0.576   2.529 -0.6954  0.5176 -0.4859
 7777SOL    HW230840   2.158   0.488   2.498 -0.6649  1.3004 -2.8823
 7777SOL    HW330841   2.212   0.562   2.618 -2.1337 -1.7139 -0.2001
 7777SOL    MW430842   2.180   0.562   2.537  0.2080 -0.1355  0.0604
 7778SOL     OW30843   0.364   5.972   1.396  0.2092 -0.2993 -0.2733
 7778SOL    HW230844   0.445   6.016   1.373  0.2847  1.3606  2.6183
 7778SOL    HW330845   0.383   5.928   1.479 -1.9489  0.6302  0.7984
 7778SOL    MW430846   0.377   5.972   1.404  0.2013  0.2099 -0.0822
 7779SOL     OW30847   2.252   2.194   5.172 -0.1360 -0.3706 -0.3025
 7779SOL    HW230848   2.218   2.283   5.156 -0.4704 -0.4536 -0.0673
 7779SOL    HW330849   2.224   2.144   5.095 -2.5195 -0.9897  0.8669
 7779SOL    MW430850   2.244   2.199   5.160  0.1871 -0.5692  0.7107
 7780SOL     OW30851   1.831   0.627   1.479  0.0895  0.5067 -0.6976
 7780SOL    HW230852   1.908   0.607   1.531 -1.7292 -0.3467  1.8723
 7780SOL    HW330853   1.855   0.601   1.390  2.8714  0.7158 -0.0952
 7780SOL    MW430854   1.844   0.621   1.474  0.4392 -0.1166  0.0392
 7781SOL     OW30855   4.712   5.011   0.411 -0.4317  0.4060 -0.1719
 7781SOL    HW230856   4.681   5.000   0.501  1.2944 -0.0711  0.4092
 7781SOL    HW330857   4.795   5.058   0.420 -0.6982  1.2284 -1.6052
 7781SOL    MW430858   4.719   5.016   0.424 -0.4032  0.2888  0.3101
 7782SOL     OW30859   2.396   5.768   4.698 -0.0694  0.2980  0.4005
 7782SOL    HW230860   2.440   5.757   4.614  1.6235  0.0316  1.2698
 7782SOL    HW330861   2.325   5.830   4.680  1.4268  1.7582 -0.8459
 7782SOL    MW430862   2.392   5.775   4.685  0.6390 -0.3526  0.0951
 7783SOL     OW30863   1.603   4.623   2.530 -0.5125  0.1700 -0.3696
 7783SOL    HW230864   1.623   4.714   2.554  2.7211 -0.7371  0.9720
 7783SOL    HW330865   1.578   4.582   2.612 -0.5959 -0.4684 -0.7107
 7783SOL    MW430866   1.603   4.630   2.544  0.0961  0.1966  0.5083
 7784SOL     OW30867   1.970   1.051   2.184  0.3548 -0.5903  0.2160
 7784SOL    HW230868   1.906   1.035   2.114  0.4705  1.6910 -0.4659
 7784SOL    HW330869   1.992   0.963   2.215 -0.5176 -1.6368 -1.8645
 7784SOL    MW430870   1.964   1.037   2.178  0.3038  0.1614 -0.3152
 7785SOL     OW30871   1.008   2.257   4.191  0.7719 -0.1569 -0.1479
 7785SOL    HW230872   0.950   2.283   4.263  1.3713 -2.1468  1.1563
 7785SOL    HW330873   1.064   2.334   4.176 -0.7427  1.0249  0.0453
 7785SOL    MW430874   1.008   2.271   4.199  1.1489 -0.2461 -0.1949
 7786SOL     OW30875   4.911   5.288   1.949  0.8061  0.0821  0.2364
 7786SOL    HW230876   4.930   5.266   1.858  0.0055 -1.0974  0.3403
 7786SOL    HW330877   4.846   5.358   1.944  1.8736  1.0672 -0.0921
 7786SOL    MW430878   4.905   5.294   1.937  0.0688  0.3853 -0.1626
 7787SOL     OW30879   3.944   4.253   1.938  0.3369  0.4134  0.1594
 7787SOL    HW230880   3.939   4.246   2.034 -0.1823 -0.5895  0.0742
 7787SOL    HW330881   4.036   4.271   1.920  0.7470 -0.8935  0.7819
 7787SOL    MW430882   3.955   4.254   1.948 -0.1156  0.2795  0.0589
 7788SOL     OW30883   0.125   2.849   2.907  0.0850 -0.5645  0.7326
 7788SOL    HW230884   0.094   2.788   2.973 -1.3524  0.4044  0.9995
 7788SOL    HW330885   0.111   2.804   2.824 -3.7589  0.3965  0.6886
 7788SOL    MW430886   0.119   2.835   2.905  0.6290  0.1797 -0.0556
 7789SOL     OW30887   2.361   3.567   1.144 -0.0327 -0.2369 -0.3614
 7789SOL    HW230888   2.441   3.619   1.158  0.6839 -0.3623 -3.2445
 7789SOL    HW330889   2.290   3.629   1.154  0.5978  0.4704 -0.1443
 7789SOL    MW430890   2.362   3.582   1.147  0.0481  0.1697 -0.1612
 7790SOL     OW30891   4.833   0.651   3.697  0.1741  0.3673 -0.3586
 7790SOL    HW230892   4.872   0.571   3.661 -0.2467  0.9676 -2.2396
 7790SOL    HW330893   4.741   0.630   3.707  0.1258  0.4948 -0.5277
 7790SOL    MW430894   4.826   0.637   3.694  0.2567 -0.0158 -0.1169
 7791SOL     OW30895   4.777   4.938   0.716 -0.6103 -0.7131  0.1401
 7791SOL    HW230896   4.722   4.896   0.783 -1.2051  2.9758  2.2496
 7791SOL    HW330897   4.859   4.957   0.761 -0.9560  1.7074 -0.1379
 7791SOL    MW430898   4.780   4.935   0.731  0.0014  0.3291 -0.4933
 7792SOL     OW30899   1.398   2.406   2.425 -0.6315 -0.4787  0.1296
 7792SOL    HW230900   1.306   2.420   2.445 -0.4536  0.9032  0.0378
 7792SOL    HW330901   1.397   2.341   2.355 -1.5076 -0.8200  0.4423
 7792SOL    MW430902   1.386   2.399   2.418 -0.2353 -0.2336  0.3263
 7793SOL     OW30903   5.112   2.506   3.645 -0.1246  0.0028 -0.0119
 7793SOL    HW230904   5.085   2.417   3.667  2.1725 -0.3554  1.6217
 7793SOL    HW330905   5.074   2.561   3.714 -0.8378  0.2178 -0.5557
 7793SOL    MW430906   5.103   2.502   3.657  0.1410  0.0301  0.0253
 7794SOL     OW30907   0.273   3.374   1.985 -0.6050  0.0692  0.0562
 7794SOL    HW230908   0.243   3.456   2.023 -0.9432 -0.8612  1.9157
 7794SOL    HW330909   0.357   3.394   1.945 -0.0922  1.0564  1.5850
 7794SOL    MW430910   0.280   3.387   1.985 -0.5218 -0.2626 -0.0292
 7795SOL     OW30911   4.602   4.782   2.016 -0.1058  0.1584 -0.0528
 7795SOL    HW230912   4.642   4.823   2.092  0.8429  2.0120 -1.4489
 7795SOL    HW330913   4.669   4.723   1.982  0.2083  0.7489 -0.4867
 7795SOL    MW430914   4.616   4.780   2.021  0.0756 -0.1312 -0.2092
 7796SOL     OW30915   5.303   4.490   5.261  0.5016 -0.1840 -0.2874
 7796SOL    HW230916   5.213   4.457   5.262  0.9439 -1.3963  0.2927
 7796SOL    HW330917   5.343   4.448   5.185  1.0140 -0.8615  0.3500
 7796SOL    MW430918   5.296   4.480   5.251 -0.2677  0.1928  0.5399
 7797SOL     OW30919   6.120   3.825   0.793 -0.2067 -0.3759 -0.0478
 7797SOL    HW230920   6.121   3.863   0.705 -0.7274  0.6730  0.3695
 7797SOL    HW330921   6.027   3.816   0.814 -0.1799  1.4520  1.1986
 7797SOL    MW430922   6.108   3.829   0.784 -0.3530 -0.2587 -0.2256
 7798SOL     OW30923   4.298   5.620   4.942  0.2373  0.7988  0.2914
 7798SOL    HW230924   4.356   5.669   4.884  2.4968 -1.2947  0.6153
 7798SOL    HW330925   4.357   5.574   5.001 -1.2839 -4.8313 -1.9400
 7798SOL    MW430926   4.313   5.621   4.942  0.4217  0.3643 -0.2761
 7799SOL     OW30927   4.788   1.930   5.958  0.4551 -0.9131  0.0012
 7799SOL    HW230928   4.714   1.917   6.018 -0.8254 -0.9225 -1.5322
 7799SOL    HW330929   4.753   1.910   5.871  1.7741  0.8169 -0.9976
 7799SOL    MW430930   4.774   1.925   5.955  0.4227 -0.1313 -0.3350
 7800SOL     OW30931   1.619   0.692   3.908 -0.4479 -0.5555  0.7614
 7800SOL    HW230932   1.677   0.644   3.968 -0.9648 -0.5964  1.2352
 7800SOL    HW330933   1.642   0.658   3.821 -0.6479 -1.5078  1.0641
 7800SOL    MW430934   1.630   0.681   3.904  0.4439 -0.6194  0.5154
 7801SOL     OW30935   5.661   3.087   2.878 -0.4792 -0.5389  0.0057
 7801SOL    HW230936   5.756   3.075   2.874 -0.0969  1.9965  0.0212
 7801SOL    HW330937   5.645   3.126   2.964 -1.3732  0.1635 -0.4595
 7801SOL    MW430938   5.671   3.091   2.889 -0.2057  0.3398  0.7526
 7802SOL     OW30939   4.650   1.519   0.585 -0.5259  0.2702  0.4294
 7802SOL    HW230940   4.660   1.429   0.615 -0.0474  0.1002 -0.2263
 7802SOL    HW330941   4.634   1.512   0.491  1.9965  0.9554 -0.1328
 7802SOL    MW430942   4.649   1.506   0.577  0.3587  0.3834  0.0529
 7803SOL     OW30943   5.176   3.185   2.742  0.2038  0.0023  0.2158
 7803SOL    HW230944   5.096   3.236   2.732  0.9371  1.4232  1.2386
 7803SOL    HW330945   5.245   3.241   2.707  0.8106 -1.0894 -0.3923
 7803SOL    MW430946   5.174   3.199   2.736  0.7086  0.5826  0.1566
 7804SOL     OW30947   2.296   5.356   2.601 -0.2450  0.5917 -0.1904
 7804SOL    HW230948   2.291   5.273   2.554 -0.2095 -0.6202  1.8457
 7804SOL    HW330949   2.326   5.419   2.535  1.9253 -1.4311 -1.2930
 7804SOL    MW430950   2.300   5.353   2.586  0.5351 -0.2720  0.4934
 7805SOL     OW30951   5.888   0.014   5.915 -0.1048  0.3062 -0.3073
 7805SOL    HW230952   5.906   0.060   5.997 -0.3420 -1.7023  0.9464
 7805SOL    HW330953   5.818   0.064   5.874 -1.3818  0.2921  1.7065
 7805SOL    MW430954   5.881   0.027   5.920  0.0145  0.0345  0.2183
 7806SOL     OW30955   2.822   2.637   4.044  0.1897 -0.4546  0.2006
 7806SOL    HW230956   2.860   2.639   3.956  1.2784 -1.7159  0.6182
 7806SOL    HW330957   2.897   2.654   4.102 -0.7244  1.6214  0.8661
 7806SOL    MW430958   2.837   2.640   4.040 -0.3235 -0.1349  0.2133
 7807SOL     OW30959   1.306   5.512   4.272 -0.0367 -0.4139  0.0265
 7807SOL    HW230960   1.285   5.418   4.275  0.9945 -0.6561 -0.0486
 7807SOL    HW330961   1.224   5.555   4.295 -0.4133 -1.3505  0.5058
 7807SOL    MW430962   1.292   5.505   4.275  0.5475  0.2225 -0.3914
 7808SOL     OW30963   2.330   0.022   2.667 -0.1139  0.0525  0.6112
 7808SOL    HW230964   2.418   0.053   2.690 -0.0171 -0.8407  1.5391
 7808SOL    HW330965   2.271   0.081   2.714 -0.0324  0.7897 -0.1851
 7808SOL    MW430966   2.334   0.034   2.676 -0.4330 -0.2106 -0.6987
 7809SOL     OW30967   5.360   2.661   2.472  0.2726  0.3195 -0.0273
 7809SOL    HW230968   5.354   2.757   2.472  1.4576  0.4099  0.1217
 7809SOL    HW330969   5.329   2.635   2.386 -0.0671  0.8342 -0.0683
 7809SOL    MW430970   5.355   2.670   2.461  0.0461  0.3054  0.4975
 7810SOL     OW30971   4.371   0.421   2.110 -0.1576  0.3264  0.1278
 7810SOL    HW230972   4.393   0.514   2.114  0.0706  0.3722 -1.5469
 7810SOL    HW330973   4.387   0.396   2.019  2.4605 -2.0387  1.0935
 7810SOL    MW430974   4.376   0.430   2.099  0.2783  0.6945 -0.1541
 7811SOL     OW30975   5.851   5.430   3.175  0.0098  0.2193  0.2611
 7811SOL    HW230976   5.768   5.439   3.222 -0.8288  1.6012 -1.3812
 7811SOL    HW330977   5.871   5.518   3.144  0.4488 -0.6237 -2.0335
 7811SOL    MW430978   5.842   5.443   3.177 -0.4837 -0.6498 -0.4172
 7812SOL     OW30979   2.234   2.002   0.908 -0.2654 -0.3503 -0.5312
 7812SOL    HW230980   2.313   2.005   0.853 -0.1874  2.4568 -0.4433
 7812SOL    HW330981   2.267   2.015   0.997 -0.7960  0.9145 -0.5003
 7812SOL    MW430982   2.249   2.004   0.913 -0.0122 -0.1098  0.3658
 7813SOL     OW30983   4.161   1.315   0.384 -0.2889 -0.5148 -0.6634
 7813SOL    HW230984   4.201   1.332   0.299  0.4929 -1.0924 -0.4227
 7813SOL    HW330985   4.068   1.337   0.372 -0.0515  0.0706 -1.4594
 7813SOL    MW430986   4.154   1.320   0.371  0.6063  0.0920  0.3591
 7814SOL     OW30987   4.513   3.217   5.034  0.7999 -0.4408  0.4068
 7814SOL    HW230988   4.435   3.259   5.071  1.2893 -0.2331  1.2192
 7814SOL    HW330989   4.522   3.136   5.084 -1.0812 -2.4316 -2.2114
 7814SOL    MW430990   4.504   3.212   5.046 -0.1044 -0.2444  0.3319
 7815SOL     OW30991   1.167   3.370   4.875 -0.2731 -0.6896 -0.1828
 7815SOL    HW230992   1.225   3.442   4.898 -0.5054 -0.3271 -0.7141
 7815SOL    HW330993   1.158   3.320   4.956  0.3716 -0.4669  0.0355
 7815SOL    MW430994   1.174   3.373   4.889  0.4341  0.9003 -0.3701
 7816SOL     OW30995   0.711   1.848   3.865 -0.4246  0.1236  0.3760
 7816SOL    HW230996   0.717   1.914   3.934 -0.9478  1.4706 -0.8215
 7816SOL    HW330997   0.711   1.764   3.912  1.0835  0.9127  1.8908
 7816SOL    MW430998   0.712   1.845   3.880  0.2178 -0.4030 -0.1331
 7817SOL     OW30999   5.044   2.322   5.768  0.0917  0.4283  0.1305
 7817SOL    HW231000   5.102   2.385   5.810  1.0413 -2.1494  3.0448
 7817SOL    HW331001   4.986   2.292   5.838 -1.3483 -0.8652 -1.4983
 7817SOL    MW431002   5.044   2.327   5.783 -0.5221 -0.5325  0.0501
 7818SOL     OW31003   3.672   1.305   3.975  0.3422 -0.0451 -0.2407
 7818SOL    HW231004   3.665   1.211   3.995 -0.0588  0.2817  1.3444
 7818SOL    HW331005   3.757   1.330   4.009 -0.1227  0.4264  0.6129
 7818SOL    MW431006   3.682   1.296   3.982 -0.7841 -0.2606  0.2309
 7819SOL     OW31007   4.091   2.005   4.768  0.1817  0.5568  0.1953
 7819SOL    HW231008   4.045   2.082   4.803 -0.9621 -0.5537  1.2477
 7819SOL    HW331009   4.033   1.932   4.788  1.7800 -0.7445  0.2814
 7819SOL    MW431010   4.077   2.005   4.775 -1.1103 -0.2149 -0.1790
 7820SOL     OW31011   0.221   3.604   4.931  0.8611  0.2896  0.2607
 7820SOL    HW231012   0.234   3.513   4.905 -0.0833  0.4176 -0.7137
 7820SOL    HW331013   0.269   3.654   4.865  1.1802  0.5138  0.6582
 7820SOL    MW431014   0.229   3.599   4.919  0.5945 -0.2526 -0.3753
 7821SOL     OW31015   0.150   0.484   6.042  0.2537  0.7366  0.2648
 7821SOL    HW231016   0.210   0.421   6.081 -0.6527  0.7595  1.7961
 7821SOL    HW331017   0.078   0.430   6.009 -0.2164  0.8946  1.0009
 7821SOL    MW431018   0.148   0.469   6.043 -0.0989 -0.7294 -0.6002
 7822SOL     OW31019   1.481   6.081   2.946 -0.2043  0.0861  0.2392
 7822SOL    HW231020   1.503   6.038   3.029 -0.7991  0.3049  0.5204
 7822SOL    HW331021   1.399   6.040   2.919 -0.3478  0.4704  0.0879
 7822SOL    MW431022   1.473   6.070   2.954 -0.2621  0.2658  0.0078
 7823SOL     OW31023   3.988   1.887   0.051  0.3804  0.2407  0.5749
 7823SOL    HW231024   4.064   1.925   0.007 -0.5738  0.9797 -0.4988
 7823SOL    HW331025   3.936   1.963   0.078 -0.4004 -0.2679  0.5188
 7823SOL    MW431026   3.991   1.902   0.049  0.2460  0.1663 -0.2036
 7824SOL     OW31027   4.228   0.042   0.845  0.1109  0.3217  0.0469
 7824SOL    HW231028   4.315   0.080   0.853  0.4665  0.0774 -2.1260
 7824SOL    HW331029   4.238  -0.029   0.781 -1.7885  0.7205 -0.7633
 7824SOL    MW431030   4.241   0.038   0.838  0.1535 -0.0365 -0.8743
 7825SOL     OW31031   0.824   2.298   4.393  0.4796 -0.7196  0.2094
 7825SOL    HW231032   0.782   2.212   4.388  0.8773 -0.8771 -0.5885
 7825SOL    HW331033   0.752   2.358   4.412  0.3332 -1.3303  1.7422
 7825SOL    MW431034   0.809   2.294   4.394  0.4515  0.2038  0.4394
 7826SOL     OW31035   3.245   4.657   2.135 -0.1727  0.2200 -0.6340
 7826SOL    HW231036   3.173   4.667   2.198 -1.2407 -2.3753 -1.3095
 7826SOL    HW331037   3.201   4.639   2.052  1.2595 -0.3752 -1.2848
 7826SOL    MW431038   3.230   4.656   2.132 -0.5097 -0.2029 -0.5267
 7827SOL     OW31039   1.027   2.828   1.023 -0.4694  0.2327 -0.0828
 7827SOL    HW231040   1.056   2.919   1.030  0.8920 -0.1654 -0.2289
 7827SOL    HW331041   0.989   2.808   1.108 -1.9242  1.2881 -0.4411
 7827SOL    MW431042   1.026   2.837   1.035  0.2076 -0.2286 -0.2601
 7828SOL     OW31043   4.400   5.085   3.858 -0.5146  0.0911 -0.1908
 7828SOL    HW231044   4.333   5.033   3.814 -1.0537  0.1397  0.5535
 7828SOL    HW331045   4.371   5.176   3.845 -0.7361  0.0993  0.3573
 7828SOL    MW431046   4.387   5.090   3.850  0.1996 -0.1017  0.2344
 7829SOL     OW31047   2.479   2.979   3.914 -0.5162 -0.0401  0.3628
 7829SOL    HW231048   2.554   2.921   3.898  0.0093  0.7704 -0.2028
 7829SOL    HW331049   2.407   2.920   3.936 -0.1700 -0.9567 -0.8269
 7829SOL    MW431050   2.480   2.963   3.915 -0.6754 -0.0622 -0.0030
 7830SOL     OW31051   4.983   2.085   3.544 -0.1702 -0.4615 -0.0571
 7830SOL    HW231052   5.054   2.041   3.591  0.1438  0.4501  0.3335
 7830SOL    HW331053   5.013   2.087   3.453 -0.2264 -1.1155 -0.0983
 7830SOL    MW431054   4.997   2.079   3.538  0.3089  0.3345 -0.2566
 7831SOL     OW31055   5.356   0.779   2.077 -1.1207 -0.2802  0.0137
 7831SOL    HW231056   5.281   0.720   2.071 -1.0031 -0.3559 -0.7600
 7831SOL    HW331057   5.383   0.794   1.987  0.3573 -0.9723  0.3064
 7831SOL    MW431058   5.350   0.773   2.064 -0.1014 -0.0932  0.4387
 7832SOL     OW31059   0.704   4.387   1.950 -0.7045 -0.0569  0.3990
 7832SOL    HW231060   0.684   4.323   1.882 -0.4821  0.7390 -0.4303
 7832SOL    HW331061   0.695   4.472   1.907  1.1820  0.4277  0.8838
 7832SOL    MW431062   0.700   4.390   1.935  0.2358 -0.1331 -0.0532
 7833SOL     OW31063   5.419   2.495   0.808 -0.0532  0.4082  0.3362
 7833SOL    HW231064   5.421   2.585   0.773 -1.0754  0.4525  0.3548
 7833SOL    HW331065   5.510   2.466   0.805  0.2184  1.2677 -0.1487
 7833SOL    MW431066   5.431   2.503   0.803  0.2736 -0.1416  0.3048
 7834SOL     OW31067   3.161   1.747   3.744 -0.4177  0.4384 -0.3837
 7834SOL    HW231068   3.099   1.719   3.675 -0.6027  0.9399 -0.4239
 7834SOL    HW331069   3.119   1.720   3.826 -0.7245  0.8400 -0.4076
 7834SOL    MW431070   3.147   1.740   3.746  0.5025  0.2861  0.0369
 7835SOL     OW31071   3.694   2.280   3.344 -0.3013 -0.0537  0.4691
 7835SOL    HW231072   3.711   2.192   3.312 -1.0551 -0.3405  0.8294
 7835SOL    HW331073   3.695   2.272   3.439 -1.3066  0.1262  0.5056
 7835SOL    MW431074   3.696   2.267   3.352 -0.1337  0.2100  0.0469
 7836SOL     OW31075   4.344   2.433   4.074  0.1060 -0.6020  0.3209
 7836SOL    HW231076   4.429   2.393   4.053 -0.0296 -1.0795  0.6655
 7836SOL    HW331077   4.292   2.422   3.995  0.6373  0.4782 -0.2155
 7836SOL    MW431078   4.348   2.427   4.061 -0.8896  0.3569  0.4003
 7837SOL     OW31079   1.560   2.296   3.947  0.2910 -0.2123  0.2969
 7837SOL    HW231080   1.611   2.231   3.995 -1.4305 -2.0075 -0.1802
 7837SOL    HW331081   1.507   2.340   4.013 -0.2034 -0.9097  0.3787
 7837SOL    MW431082   1.560   2.293   3.962  0.1681 -0.0219  0.2814
 7838SOL     OW31083   4.547   6.254   0.834 -0.0124  0.1377 -0.1407
 7838SOL    HW231084   4.537   6.185   0.769  0.5351  0.2236 -0.3220
 7838SOL    HW331085   4.483   6.232   0.902 -0.7038  0.1422 -0.7794
 7838SOL    MW431086   4.537   6.242   0.834  0.0389 -0.5343  0.1520
 7839SOL     OW31087   2.010   5.975   0.935 -0.1770  0.1074  0.0343
 7839SOL    HW231088   1.979   5.886   0.919  0.2329  0.2055 -1.4513
 7839SOL    HW331089   2.011   6.016   0.849 -0.7085  1.6874  0.7299
 7839SOL    MW431090   2.006   5.969   0.922  0.5547 -0.1955 -0.7104
 7840SOL     OW31091   2.862   5.483   3.175  0.0441  0.2589  0.1177
 7840SOL    HW231092   2.863   5.465   3.269  1.3130 -0.0228  0.0729
 7840SOL    HW331093   2.886   5.575   3.168 -2.6748  1.0576  0.1601
 7840SOL    MW431094   2.865   5.492   3.186 -0.4074 -0.5548  0.3654
 7841SOL     OW31095   2.998   6.152   1.577 -0.2301 -0.0002  0.1723
 7841SOL    HW231096   2.966   6.169   1.666 -0.1114 -1.1579  0.4479
 7841SOL    HW331097   3.031   6.237   1.547 -1.7836  0.8031  0.6006
 7841SOL    MW431098   2.998   6.166   1.585  0.4457  0.5670 -0.4871
 7842SOL     OW31099   6.098   1.110   3.621  0.7990  0.4682 -0.1154
 7842SOL    HW231100   6.092   1.135   3.714  2.4454 -0.3305  0.2394
 7842SOL    HW331101   6.192   1.109   3.602  0.5870 -0.9765 -1.3315
 7842SOL    MW431102   6.109   1.113   3.631 -0.1542  0.4309  0.6488
 7843SOL     OW31103   4.800   0.967   3.893 -0.3210  0.6632  0.4941
 7843SOL    HW231104   4.819   0.909   3.818 -0.9336 -1.3397  1.7957
 7843SOL    HW331105   4.795   1.054   3.855  2.2387  0.1331 -1.3568
 7843SOL    MW431106   4.802   0.971   3.878  0.4121 -0.1856 -0.3478
 7844SOL     OW31107   5.193   4.889   4.520 -0.2109  0.2329  0.1249
 7844SOL    HW231108   5.108   4.873   4.480  0.1416 -1.2510 -0.0875
 7844SOL    HW331109   5.247   4.816   4.491  1.4802  1.7243 -0.6661
 7844SOL    MW431110   5.189   4.877   4.511  0.1975  0.2642 -0.4480
 7845SOL     OW31111   1.959   0.976   6.060  0.3173  0.7776  0.2982
 7845SOL    HW231112   2.009   0.898   6.038  3.0343  1.9699  1.6857
 7845SOL    HW331113   1.952   0.974   6.155 -1.6880  1.0741  0.1962
 7845SOL    MW431114   1.964   0.966   6.069  0.2174 -0.3838  0.4712
 7846SOL     OW31115   1.163   3.939   1.563  0.6852  0.4063  0.1645
 7846SOL    HW231116   1.070   3.956   1.551  0.7538  0.3255 -0.5399
 7846SOL    HW331117   1.199   3.935   1.474  1.1653 -0.6289  0.3833
 7846SOL    MW431118   1.156   3.941   1.549 -0.6574  0.7238  0.0745
 7847SOL     OW31119   2.328   5.476   4.018 -0.0125 -0.0736 -0.2710
 7847SOL    HW231120   2.287   5.535   3.956  0.8903  0.5192 -0.3123
 7847SOL    HW331121   2.301   5.508   4.104 -0.4256 -0.2793 -0.3206
 7847SOL    MW431122   2.319   5.488   4.021 -0.0005  0.4540  0.2086
 7848SOL     OW31123   2.617   3.291   2.737  0.4810  0.1344  0.2762
 7848SOL    HW231124   2.590   3.367   2.686  0.7694  0.2535  0.2967
 7848SOL    HW331125   2.623   3.219   2.674  1.8361  0.5126 -0.0553
 7848SOL    MW431126   2.615   3.291   2.722 -0.2422 -0.3281  0.6418
 7849SOL     OW31127   0.961   0.919   6.340 -0.0848 -0.3953  0.2792
 7849SOL    HW231128   1.035   0.892   6.394  2.2203 -0.1126 -2.4930
 7849SOL    HW331129   0.956   0.852   6.271 -0.9461  0.7660 -0.8397
 7849SOL    MW431130   0.970   0.907   6.338 -0.2806  0.0027  0.2350
 7850SOL     OW31131   5.444   5.359   4.454 -0.1277  0.8425 -0.2842
 7850SOL    HW231132   5.399   5.291   4.504 -0.3293  0.2103 -1.2858
 7850SOL    HW331133   5.407   5.441   4.487 -1.1338  0.3885 -0.2281
 7850SOL    MW431134   5.433   5.361   4.465 -0.8998  0.2221 -0.0261
 7851SOL     OW31135   5.650   2.588   2.361  0.7133 -0.6446  0.2001
 7851SOL    HW231136   5.576   2.622   2.412  0.1416 -0.6449 -0.6017
 7851SOL    HW331137   5.610   2.522   2.304  1.0361  0.4652 -1.3648
 7851SOL    MW431138   5.635   2.584   2.361 -0.2866  0.1564 -0.0900
 7852SOL     OW31139   1.608   3.550   0.713  0.2579  0.2565  0.1009
 7852SOL    HW231140   1.652   3.522   0.633  0.7982  1.0453  0.1137
 7852SOL    HW331141   1.614   3.474   0.772  0.7004  0.0104 -0.2579
 7852SOL    MW431142   1.615   3.536   0.710 -0.4948  0.4132 -0.2113
 7853SOL     OW31143   5.451   2.543   1.186 -0.0347  0.5803  0.4618
 7853SOL    HW231144   5.420   2.525   1.274 -0.4699 -1.3046 -0.0351
 7853SOL    HW331145   5.473   2.457   1.149  0.2670  1.3209 -1.2207
 7853SOL    MW431146   5.450   2.530   1.192  0.1273  0.0150  0.0079
 7854SOL     OW31147   3.127   2.449   5.902 -0.4135 -0.8499  0.4741
 7854SOL    HW231148   3.165   2.463   5.988 -0.7696 -1.1739  0.6840
 7854SOL    HW331149   3.154   2.360   5.877 -2.5494 -1.8578  1.4380
 7854SOL    MW431150   3.135   2.439   5.910  0.2762 -0.2411 -0.1224
 7855SOL     OW31151   6.344   3.183   4.131 -0.5556  0.2285  0.6474
 7855SOL    HW231152   6.426   3.220   4.098 -0.6664 -1.5751 -1.9558
 7855SOL    HW331153   6.292   3.259   4.159  0.1037  1.8880 -2.2459
 7855SOL    MW431154   6.348   3.198   4.130  0.3684 -0.0946 -0.0144
 7856SOL     OW31155   4.984   2.926   4.149  0.1445  0.3764  0.9684
 7856SOL    HW231156   4.951   2.866   4.082 -0.1496  2.0646 -0.4836
 7856SOL    HW331157   5.079   2.925   4.136  0.1743 -0.0828  1.2211
 7856SOL    MW431158   4.992   2.918   4.138 -0.7188  0.2479  0.0289
 7857SOL     OW31159   3.127   6.373   1.503 -0.1949 -0.0664  0.1220
 7857SOL    HW231160   3.221   6.369   1.521  0.1553 -1.0800 -1.6915
 7857SOL    HW331161   3.120   6.425   1.423 -1.0479 -1.0629 -0.4782
 7857SOL    MW431162   3.139   6.380   1.495  0.4151  0.3170 -0.0669
 7858SOL     OW31163   5.484   2.163   1.542 -0.1649  0.1998  0.2821
 7858SOL    HW231164   5.483   2.257   1.522  0.3771 -0.6018 -4.7568
 7858SOL    HW331165   5.557   2.154   1.604  0.3435  3.0015  0.2611
 7858SOL    MW431166   5.494   2.174   1.548  0.3642  0.3625  0.4490
 7859SOL     OW31167   3.567   3.639   4.078 -0.0646 -0.3840  0.2159
 7859SOL    HW231168   3.660   3.632   4.100 -0.0807  0.1049  0.4593
 7859SOL    HW331169   3.542   3.726   4.109 -0.9403 -1.0250  1.4320
 7859SOL    MW431170   3.576   3.650   4.085 -1.0727 -0.1692  0.3272
 7860SOL     OW31171   0.211   0.978   1.364  0.3220 -0.1918 -0.3400
 7860SOL    HW231172   0.163   0.908   1.320  0.4084 -0.9843  0.7872
 7860SOL    HW331173   0.284   0.934   1.406 -1.2185  0.0526  2.8505
 7860SOL    MW431174   0.214   0.963   1.363  0.3295 -0.3255  0.3288
 7861SOL     OW31175   0.370   4.781   5.219  0.1356  0.3868  0.2808
 7861SOL    HW231176   0.328   4.866   5.235  2.7763  1.6670  0.9634
 7861SOL    HW331177   0.403   4.755   5.305  0.4149 -0.7446 -0.1615
 7861SOL    MW431178   0.369   4.789   5.232 -0.3256 -0.2032  0.1109
 7862SOL     OW31179   0.109   1.202   1.861 -0.3868  0.2720  0.5063
 7862SOL    HW231180   0.035   1.198   1.921 -1.2469  2.0285 -0.3435
 7862SOL    HW331181   0.084   1.147   1.787  0.5072 -1.5803  1.5291
 7862SOL    MW431182   0.096   1.194   1.859 -0.5532 -0.4474  0.3369
 7863SOL     OW31183   2.444   6.076   4.559 -0.0600  0.7014 -0.5002
 7863SOL    HW231184   2.515   6.068   4.623  1.5162 -0.8731 -2.2959
 7863SOL    HW331185   2.477   6.140   4.496  0.8038 -1.5167 -2.4518
 7863SOL    MW431186   2.458   6.084   4.559  0.3334  0.3521 -0.2693
 7864SOL     OW31187   0.680   1.886   6.408  0.1844  0.0835  0.0565
 7864SOL    HW231188   0.674   1.937   6.328 -1.2664 -1.6919 -1.0317
 7864SOL    HW331189   0.590   1.864   6.430  0.6853 -1.0967  1.1023
 7864SOL    MW431190   0.667   1.890   6.401  1.2992  0.5369 -0.0550
 7865SOL     OW31191   1.320   0.259   0.946  0.1859 -0.3927 -0.0433
 7865SOL    HW231192   1.409   0.293   0.938 -0.1157  0.5270  0.4874
 7865SOL    HW331193   1.264   0.332   0.920 -0.4838 -0.3021  1.5864
 7865SOL    MW431194   1.325   0.273   0.941 -0.2396  0.7576 -0.4789
 7866SOL     OW31195   4.122   3.046   4.550  0.6926 -0.4964  0.2109
 7866SOL    HW231196   4.138   2.974   4.612  1.9747  0.2961  0.8559
 7866SOL    HW331197   4.159   3.015   4.467 -1.1678 -1.6240 -0.2478
 7866SOL    MW431198   4.129   3.032   4.547 -0.6851  0.3662  0.0363
 7867SOL     OW31199   2.474   4.559   0.332 -0.3312  0.0897 -0.1349
 7867SOL    HW231200   2.498   4.493   0.268  1.6945  0.5313  0.1089
 7867SOL    HW331201   2.544   4.624   0.327 -1.2317  1.1993  1.0313
 7867SOL    MW431202   2.486   4.559   0.323  0.0612 -0.3406 -0.2726
 7868SOL     OW31203   4.957   2.857   4.415  0.0049 -0.2404 -0.0729
 7868SOL    HW231204   4.956   2.867   4.320  0.6171 -0.7171 -0.1339
 7868SOL    HW331205   5.049   2.843   4.437 -0.1412 -0.1959  0.5841
 7868SOL    MW431206   4.969   2.857   4.406  0.2691 -0.0666  0.1050
 7869SOL     OW31207   4.017   1.129   1.585  0.0468  0.0073 -0.1877
 7869SOL    HW231208   3.940   1.074   1.569 -1.0452  1.1271  0.9904
 7869SOL    HW331209   4.009   1.156   1.676  2.2120 -0.3735  0.1725
 7869SOL    MW431210   4.006   1.125   1.595  0.5652  0.5455  0.6651
 7870SOL     OW31211   0.845   1.673   5.294  0.5180  0.7194  0.2174
 7870SOL    HW231212   0.854   1.580   5.315 -0.0301  0.9447  1.5354
 7870SOL    HW331213   0.780   1.675   5.224  0.5374  0.1150  0.1713
 7870SOL    MW431214   0.838   1.661   5.287 -0.8901  0.0194 -0.5053
 7871SOL     OW31215   5.751   0.530   0.839  0.6395 -0.2656  0.2617
 7871SOL    HW231216   5.822   0.543   0.902  0.6961 -2.9733  0.8583
 7871SOL    HW331217   5.702   0.455   0.873  0.5690 -1.7470 -2.7738
 7871SOL    MW431218   5.754   0.522   0.852  0.0996  0.6028  0.1714
 7872SOL     OW31219   0.319   0.138   5.914 -0.3065  0.2033  0.1897
 7872SOL    HW231220   0.349   0.047   5.918 -0.9763  0.0181  1.5980
 7872SOL    HW331221   0.240   0.140   5.967  0.7197  1.9768  1.7911
 7872SOL    MW431222   0.313   0.126   5.922  0.6262  0.2803 -0.3291
 7873SOL     OW31223   0.351   5.948   4.894  0.2186  0.3813 -0.3240
 7873SOL    HW231224   0.338   5.884   4.965 -0.7045  1.2983  0.3734
 7873SOL    HW331225   0.264   5.956   4.854  0.5745  0.4157 -1.1034
 7873SOL    MW431226   0.338   5.940   4.898 -0.1727  0.0871  0.0645
 7874SOL     OW31227   0.307   3.057   6.353  0.5662  0.4315  0.1598
 7874SOL    HW231228   0.385   3.099   6.389  2.4319 -3.4160  1.0797
 7874SOL    HW331229   0.335   3.023   6.268  0.0660 -1.3844  0.6901
 7874SOL    MW431230   0.321   3.058   6.346 -0.9981 -0.1522 -0.3005
 7875SOL     OW31231   6.051   0.842   3.703 -0.1249  0.1541 -0.0613
 7875SOL    HW231232   6.073   0.929   3.668  1.0594 -0.9169 -2.1558
 7875SOL    HW331233   5.979   0.858   3.763 -0.0103  2.5778 -0.4740
 7875SOL    MW431234   6.044   0.856   3.706  0.1418 -0.2869  0.0124
 7876SOL     OW31235   0.627   0.672   5.030 -0.4649  0.3452 -0.3009
 7876SOL    HW231236   0.606   0.608   4.961  0.3739 -0.5677  0.2657
 7876SOL    HW331237   0.592   0.633   5.110  0.0721  0.5935  0.0563
 7876SOL    MW431238   0.619   0.658   5.031  0.0776 -0.1059  0.0283
 7877SOL     OW31239   4.337   3.538   0.150 -0.0877 -0.5844 -0.6069
 7877SOL    HW231240   4.277   3.605   0.183  1.1940  1.0170 -1.4093
 7877SOL    HW331241   4.341   3.553   0.055 -1.0051 -2.8682 -1.0839
 7877SOL    MW431242   4.329   3.549   0.142 -0.3352  0.4972 -0.2316
 7878SOL     OW31243   2.062   0.470   3.175 -0.6366 -0.1084 -0.2178
 7878SOL    HW231244   1.992   0.405   3.187 -1.3497  0.6634 -0.1085
 7878SOL    HW331245   2.016   0.552   3.157  0.2213  0.5662  0.5569
 7878SOL    MW431246   2.047   0.472   3.174  0.6497  0.3810 -0.1012
 7879SOL     OW31247   2.527   1.301   1.043  0.0824 -0.1061  0.0395
 7879SOL    HW231248   2.482   1.377   1.079  1.3741  0.4876  0.4663
 7879SOL    HW331249   2.457   1.241   1.018 -0.9603  1.1857 -0.2278
 7879SOL    MW431250   2.512   1.303   1.045  0.6854 -0.5667 -0.1121
 7880SOL     OW31251   0.252   5.591   6.066 -0.4168 -0.6329 -0.0866
 7880SOL    HW231252   0.265   5.499   6.092 -1.9645 -0.9526 -0.3405
 7880SOL    HW331253   0.166   5.613   6.101 -0.9411  0.0896 -1.7440
 7880SOL    MW431254   0.242   5.582   6.074  0.2875 -0.6506  0.1720
 7881SOL     OW31255   2.091   2.099   1.922  0.0089 -0.5125  0.5832
 7881SOL    HW231256   2.152   2.071   1.990  0.2787  0.0481  0.5761
 7881SOL    HW331257   2.144   2.150   1.862 -0.6076  0.6533  1.0001
 7881SOL    MW431258   2.106   2.102   1.923 -0.3870 -0.1281  0.0349
 7882SOL     OW31259   0.424   6.235   3.243  0.3288 -0.0593 -0.0354
 7882SOL    HW231260   0.399   6.171   3.310  0.2453  1.6806  1.7235
 7882SOL    HW331261   0.471   6.303   3.293  0.5957  1.1328 -1.8392
 7882SOL    MW431262   0.427   6.236   3.259 -0.2372 -0.1696  0.2316
 7883SOL     OW31263   2.300   6.333   6.081  0.2846 -0.5698  0.0578
 7883SOL    HW231264   2.287   6.249   6.037 -0.2680 -0.4372 -0.0449
 7883SOL    HW331265   2.262   6.397   6.021  0.4498 -0.2747  0.2657
 7883SOL    MW431266   2.293   6.330   6.067  0.1158  0.2683  0.1724
 7884SOL     OW31267   5.087   2.496   1.869  0.0549 -0.0271  0.8908
 7884SOL    HW231268   5.152   2.566   1.862  0.2125  0.1631  3.3214
 7884SOL    HW331269   5.139   2.416   1.876 -0.0274 -0.0610  1.1081
 7884SOL    MW431270   5.103   2.495   1.869 -0.5264  1.0860  0.2100
 7885SOL     OW31271   1.621   5.119   5.876  0.2872  0.4753  0.3963
 7885SOL    HW231272   1.581   5.033   5.865  0.0191  0.5742  0.5891
 7885SOL    HW331273   1.547   5.180   5.881  0.4615  0.6639  0.6987
 7885SOL    MW431274   1.606   5.116   5.875 -0.0658  0.1336 -0.2045
 7886SOL     OW31275   1.312   2.080   2.124 -0.4714  0.4040 -0.2296
 7886SOL    HW231276   1.373   2.031   2.178 -0.9642  0.0421  0.0093
 7886SOL    HW331277   1.228   2.072   2.169 -0.8381  0.3031 -0.9127
 7886SOL    MW431278   1.309   2.072   2.137  0.6112 -0.5873 -0.0673
 7887SOL     OW31279   4.650   5.493   2.120  0.0623 -0.0862  0.1773
 7887SOL    HW231280   4.570   5.546   2.127 -0.3121 -0.1069 -2.8137
 7887SOL    HW331281   4.629   5.412   2.167 -0.3660  1.2314  2.3939
 7887SOL    MW431282   4.637   5.489   2.127 -0.3393 -0.4272 -0.5111
 7888SOL     OW31283   6.330   2.391   1.701 -0.5548  0.1966  0.1556
 7888SOL    HW231284   6.277   2.451   1.648 -0.6497 -0.5067 -0.5692
 7888SOL    HW331285   6.418   2.397   1.662 -0.7065 -0.5928 -0.3180
 7888SOL    MW431286   6.335   2.400   1.689 -0.4856 -0.2413 -0.1990
 7889SOL     OW31287   3.688   0.177   1.173 -0.7409  0.1903  0.6554
 7889SOL    HW231288   3.638   0.255   1.151  0.1353  0.5021 -0.2868
 7889SOL    HW331289   3.623   0.117   1.210 -1.3522  1.4977  1.7888
 7889SOL    MW431290   3.673   0.179   1.175  0.0029 -0.2090 -0.0378
 7890SOL     OW31291   2.704   5.666   6.275 -0.1050  0.1805 -0.1603
 7890SOL    HW231292   2.626   5.720   6.269  1.7833  3.1775 -0.1812
 7890SOL    HW331293   2.699   5.624   6.361 -1.7628  0.1443 -0.2496
 7890SOL    MW431294   2.693   5.667   6.285  0.6434  0.1197 -0.1182
 7891SOL     OW31295   6.094   5.957   2.328 -0.4307  0.3112 -0.1822
 7891SOL    HW231296   6.100   5.866   2.302  0.4747  0.0928  0.7346
 7891SOL    HW331297   6.036   5.956   2.405  0.1715  0.4085  0.2752
 7891SOL    MW431298   6.087   5.945   2.335  0.4321 -0.3702  0.4289
 7892SOL     OW31299   0.539   3.417   3.049 -0.6929 -0.6141  0.3002
 7892SOL    HW231300   0.463   3.403   3.104 -1.0819 -0.0106 -0.0751
 7892SOL    HW331301   0.611   3.373   3.095 -1.3599 -1.6339  0.3972
 7892SOL    MW431302   0.539   3.409   3.062  0.5191  0.0739 -0.2786
 7893SOL     OW31303   1.816   4.232   0.100 -0.3340  0.0184  0.0342
 7893SOL    HW231304   1.841   4.141   0.113  2.2390  0.0080 -3.5850
 7893SOL    HW331305   1.899   4.281   0.102 -1.1236  1.6214 -2.1781
 7893SOL    MW431306   1.830   4.227   0.102 -0.1031 -0.1363  0.1703
 7894SOL     OW31307   4.774   5.704   0.891 -0.4664 -0.0948 -0.7041
 7894SOL    HW231308   4.758   5.733   0.801  0.9917 -0.5000 -1.1111
 7894SOL    HW331309   4.687   5.686   0.925 -1.1343  1.1098 -1.6700
 7894SOL    MW431310   4.760   5.706   0.883  0.4282 -0.1763  0.2278
 7895SOL     OW31311   5.434   6.416   3.165  0.5700 -0.0882 -0.2323
 7895SOL    HW231312   5.392   6.392   3.248 -1.7565  0.6321 -1.1226
 7895SOL    HW331313   5.446   6.511   3.172 -1.0969  0.2494 -1.2593
 7895SOL    MW431314   5.430   6.426   3.177 -0.5169  0.6912 -0.3238
 7896SOL     OW31315   0.010   2.789   6.005 -0.0074  0.1287 -0.2358
 7896SOL    HW231316  -0.082   2.771   5.983  0.1023  0.6131 -1.1062
 7896SOL    HW331317   0.015   2.770   6.099 -0.7794 -0.7811 -0.3523
 7896SOL    MW431318  -0.002   2.784   6.015 -0.4572 -0.2579 -0.0909
 7897SOL     OW31319   3.490   6.007   5.785 -0.0243 -0.0624 -0.0238
 7897SOL    HW231320   3.507   5.967   5.700 -0.5409  0.4846 -0.3927
 7897SOL    HW331321   3.576   6.007   5.829 -0.0157 -1.5663  0.0097
 7897SOL    MW431322   3.504   6.002   5.780  0.3103  0.2236 -0.1224
 7898SOL     OW31323   0.821   3.190   2.430 -0.0013  0.2471 -0.4055
 7898SOL    HW231324   0.790   3.205   2.341 -0.3593  0.5777 -0.2290
 7898SOL    HW331325   0.849   3.277   2.461  1.4042 -0.0948 -0.6695
 7898SOL    MW431326   0.821   3.204   2.423  0.3009 -0.0843  0.0740
 7899SOL     OW31327   1.434   1.615   5.572  0.4233 -1.1866  0.3960
 7899SOL    HW231328   1.406   1.627   5.481 -0.3152 -1.8896  0.5184
 7899SOL    HW331329   1.473   1.699   5.597  0.8117 -1.0508 -0.6302
 7899SOL    MW431330   1.436   1.628   5.563  0.3826 -0.2481  0.7529
 7900SOL     OW31331   4.501   2.457   1.417  0.5861 -0.0540  0.2524
 7900SOL    HW231332   4.510   2.552   1.423 -0.8888  0.1777 -0.8529
 7900SOL    HW331333   4.478   2.430   1.506 -2.1678  1.0310 -0.0414
 7900SOL    MW431334   4.499   2.466   1.430  0.4554 -0.3177 -0.3922
 7901SOL     OW31335   6.290   1.518   4.453  0.1513  0.1115 -0.6209
 7901SOL    HW231336   6.290   1.440   4.397 -0.3068 -1.5872  1.5907
 7901SOL    HW331337   6.344   1.494   4.527 -2.2142  0.8076  1.4620
 7901SOL    MW431338   6.297   1.504   4.455 -0.5028  0.6754 -0.0923
 7902SOL     OW31339   2.848   5.022   3.092  0.6667  0.6421 -0.1086
 7902SOL    HW231340   2.877   5.107   3.059 -0.0216  0.1684 -2.0805
 7902SOL    HW331341   2.904   4.958   3.048 -0.1263 -0.0181 -0.1835
 7902SOL    MW431342   2.859   5.025   3.082 -0.0817  0.2698  0.1949
 7903SOL     OW31343   0.433   6.277   2.716  0.4768 -0.0095  0.2430
 7903SOL    HW231344   0.520   6.303   2.686  0.2793  1.7803  1.0453
 7903SOL    HW331345   0.447   6.237   2.802  0.5575 -0.2621  0.1125
 7903SOL    MW431346   0.446   6.276   2.723  0.2181 -0.0195  0.1395
 7904SOL     OW31347   1.437   2.708   0.803 -0.1346 -0.1362 -0.4415
 7904SOL    HW231348   1.485   2.630   0.775  0.1295 -0.3958  0.6889
 7904SOL    HW331349   1.500   2.780   0.794 -0.0483 -0.2203 -0.5109
 7904SOL    MW431350   1.452   2.707   0.798 -0.0955 -0.1716 -0.1986
 7905SOL     OW31351   5.038   3.047   1.828 -0.1601  0.9297 -0.2255
 7905SOL    HW231352   4.948   3.016   1.837 -0.5143  1.7988 -0.6494
 7905SOL    HW331353   5.083   2.978   1.779 -0.4144  0.1885  0.5481
 7905SOL    MW431354   5.032   3.034   1.823 -0.1619  0.5574  0.1728
 7906SOL     OW31355   1.081   2.586   2.951 -0.1886 -0.5471 -0.2890
 7906SOL    HW231356   1.144   2.528   2.993  0.1058  0.0119  0.0529
 7906SOL    HW331357   1.128   2.624   2.877 -0.3189 -0.5876 -0.3944
 7906SOL    MW431358   1.095   2.583   2.947  0.4125 -0.0796  0.2635
 7907SOL     OW31359   0.068   1.945   2.811 -0.4251  0.2575  0.3676
 7907SOL    HW231360   0.017   1.947   2.730 -1.1832 -1.0582  0.7756
 7907SOL    HW331361   0.158   1.959   2.783 -0.7920  0.8306 -0.5818
 7907SOL    MW431362   0.073   1.947   2.797 -0.0117  0.1949  0.3945
 7908SOL     OW31363   2.269   3.616   4.994 -0.1455 -0.3789  0.8092
 7908SOL    HW231364   2.320   3.538   4.974  0.0255 -0.2093  0.5758
 7908SOL    HW331365   2.319   3.688   4.955  0.2683 -0.0167  1.9764
 7908SOL    MW431366   2.282   3.615   4.986  0.1978 -0.0791  0.3172
 7909SOL     OW31367   4.402   4.615   3.615  0.6226  0.5797  0.2393
 7909SOL    HW231368   4.474   4.577   3.565  0.0769 -2.4862  1.6026
 7909SOL    HW331369   4.440   4.693   3.656  2.0355  1.1761 -2.0134
 7909SOL    MW431370   4.416   4.621   3.613  0.1936  0.0110  0.5469
 7910SOL     OW31371   3.857   1.939   5.445  0.0872  0.1690 -0.1175
 7910SOL    HW231372   3.863   2.023   5.399  1.8494 -0.1935 -0.5971
 7910SOL    HW331373   3.812   1.881   5.384 -0.0929  0.4426 -0.2473
 7910SOL    MW431374   3.852   1.943   5.431 -0.4538 -0.1145 -0.3171
 7911SOL     OW31375   5.741   0.220   2.042 -0.5675 -0.2813  0.6426
 7911SOL    HW231376   5.659   0.198   2.086 -0.7965 -0.8066 -0.0397
 7911SOL    HW331377   5.716   0.247   1.954  0.0710 -1.7253 -0.0239
 7911SOL    MW431378   5.727   0.220   2.036  0.9552 -0.1085 -0.2279
 7912SOL     OW31379   1.226   4.116   0.239 -0.2928  0.1139 -0.0429
 7912SOL    HW231380   1.190   4.050   0.298  1.5212  0.3238  1.4008
 7912SOL    HW331381   1.310   4.079   0.210 -1.1673 -0.0323 -2.6663
 7912SOL    MW431382   1.232   4.102   0.243  0.4927 -0.0595  0.1348
 7913SOL     OW31383   6.441   1.252   5.866 -0.9587  0.0448  0.2532
 7913SOL    HW231384   6.431   1.250   5.771  0.8549  1.0969 -0.0104
 7913SOL    HW331385   6.358   1.219   5.900 -0.9952 -2.0472 -1.6942
 7913SOL    MW431386   6.429   1.248   5.858  0.1398  0.4288  0.5074
 7914SOL     OW31387   0.991   3.083   4.220 -0.1878  0.8253 -0.3294
 7914SOL    HW231388   1.047   3.036   4.283 -0.7871 -0.9781 -1.0923
 7914SOL    HW331389   1.053   3.122   4.158  0.3167  0.9558  0.2410
 7914SOL    MW431390   1.007   3.082   4.220  0.5000  0.5432  0.2807
 7915SOL     OW31391   2.316   0.727   2.334 -0.5990 -0.2062 -0.4122
 7915SOL    HW231392   2.262   0.674   2.392  0.2534 -0.2103  0.4042
 7915SOL    HW331393   2.384   0.667   2.303 -0.2981  0.1091 -0.3777
 7915SOL    MW431394   2.318   0.712   2.338  0.3563 -0.1578 -0.0743
 7916SOL     OW31395   0.852   5.694   5.285 -0.1251  0.4949 -0.2558
 7916SOL    HW231396   0.862   5.769   5.344 -1.1210  0.5877 -0.1872
 7916SOL    HW331397   0.940   5.656   5.280 -0.3252 -0.6797  2.8378
 7916SOL    MW431398   0.865   5.699   5.292  0.4963 -0.6003 -0.1397
 7917SOL     OW31399   0.255   2.878   5.856  0.3893  0.0410  0.1758
 7917SOL    HW231400   0.232   2.971   5.858 -0.2510 -0.1218  1.5057
 7917SOL    HW331401   0.175   2.833   5.885 -0.3152 -1.1745 -3.2558
 7917SOL    MW431402   0.241   2.885   5.860  0.0096  0.2232  0.2082
 7918SOL     OW31403   2.491   2.046   3.230  0.2690  0.5872 -0.1903
 7918SOL    HW231404   2.524   1.983   3.294  0.8700  0.3977 -0.6798
 7918SOL    HW331405   2.568   2.076   3.183 -0.3121 -0.4953 -1.9283
 7918SOL    MW431406   2.505   2.041   3.232 -0.4812  0.1088 -0.5384
 7919SOL     OW31407   1.652   2.267   2.679  0.0552  0.0442 -0.0358
 7919SOL    HW231408   1.561   2.264   2.649 -0.7741  0.2724  2.2031
 7919SOL    HW331409   1.683   2.353   2.652 -0.0500 -0.3931 -1.6438
 7919SOL    MW431410   1.644   2.278   2.672 -0.3697 -0.1719  0.4358
 7920SOL     OW31411   1.066   1.046   0.541 -0.4758  0.2231  0.1558
 7920SOL    HW231412   0.974   1.033   0.517 -0.2831 -0.9580 -0.0046
 7920SOL    HW331413   1.099   0.958   0.558  0.8253  0.5632 -0.4991
 7920SOL    MW431414   1.058   1.033   0.540 -0.1199  0.1087  0.3949
 7921SOL     OW31415   0.137   3.188   2.926  0.4047  0.2562  0.2793
 7921SOL    HW231416   0.180   3.177   2.841 -0.9480 -1.0263 -0.2964
 7921SOL    HW331417   0.069   3.121   2.926  1.8935 -1.4591  3.3785
 7921SOL    MW431418   0.134   3.177   2.915 -1.0368 -0.8284 -0.0486
 7922SOL     OW31419   5.075   1.802   2.613 -0.0565 -0.6040 -0.3494
 7922SOL    HW231420   5.123   1.720   2.601  0.6946 -0.2257  0.0058
 7922SOL    HW331421   5.050   1.802   2.706 -1.3626 -1.1229 -0.6866
 7922SOL    MW431422   5.078   1.791   2.624 -0.6003 -0.1068  0.4960
 7923SOL     OW31423   0.609   1.517   3.335 -0.3141  0.4380  0.0678
 7923SOL    HW231424   0.678   1.452   3.327  0.2648  1.0709 -0.2213
 7923SOL    HW331425   0.649   1.598   3.304 -1.4106  0.6800 -0.7847
 7923SOL    MW431426   0.624   1.519   3.330  0.0599  0.1408 -0.2376
 7924SOL     OW31427   3.555   3.067   3.378 -0.2607 -0.1941  0.0579
 7924SOL    HW231428   3.506   3.015   3.441  0.9515 -1.8362 -0.2818
 7924SOL    HW331429   3.517   3.044   3.293  0.5958 -0.9499 -0.1393
 7924SOL    MW431430   3.543   3.057   3.375  0.2514  0.3490  0.7511
 7925SOL     OW31431   0.306   6.019   3.770 -0.1453 -0.3446 -0.0951
 7925SOL    HW231432   0.307   5.925   3.752 -0.5271 -1.1380  3.3161
 7925SOL    HW331433   0.348   6.028   3.856 -0.7388  2.5372  0.0184
 7925SOL    MW431434   0.312   6.008   3.779 -0.3813 -0.1094  0.0359
 7926SOL     OW31435   1.357   0.353   1.670  0.5813 -0.0543  0.5200
 7926SOL    HW231436   1.439   0.341   1.718  0.4114  0.0857  0.8461
 7926SOL    HW331437   1.385   0.374   1.581  0.9152 -3.2091 -0.2458
 7926SOL    MW431438   1.371   0.354   1.664 -0.6203  0.2635  0.0099
 7927SOL     OW31439   3.702   0.379   5.361  0.8772 -0.6226  0.3976
 7927SOL    HW231440   3.712   0.466   5.322 -1.7585  0.6457  2.2339
 7927SOL    HW331441   3.790   0.356   5.391  1.7365  1.1713 -0.5576
 7927SOL    MW431442   3.715   0.388   5.360 -0.1459  0.2141  0.3029
 7928SOL     OW31443   2.313   5.065   3.782  0.3220  0.0309 -0.1534
 7928SOL    HW231444   2.218   5.053   3.780  0.3267 -0.3358  0.9958
 7928SOL    HW331445   2.326   5.156   3.757 -0.3257  0.0793 -0.3450
 7928SOL    MW431446   2.302   5.075   3.778 -0.1626 -0.3992 -0.5508
 7929SOL     OW31447   4.271   0.362   4.770 -0.4055  0.3272 -0.1137
 7929SOL    HW231448   4.309   0.439   4.729 -0.7553  0.5509 -0.0164
 7929SOL    HW331449   4.177   0.377   4.768 -0.4011  1.1106  2.2362
 7929SOL    MW431450   4.264   0.374   4.764  0.0476  0.4812 -0.2175
 7930SOL     OW31451   0.385   2.718   0.511  0.1279  0.1772 -0.2900
 7930SOL    HW231452   0.365   2.772   0.434 -1.2503 -0.2895 -0.2849
 7930SOL    HW331453   0.356   2.630   0.487  2.5951 -0.6761 -0.3957
 7930SOL    MW431454   0.378   2.714   0.498  0.5087  0.4481 -0.3575
 7931SOL     OW31455   0.669   1.544   3.611  0.3963  0.0965  0.3039
 7931SOL    HW231456   0.606   1.605   3.650 -0.2020  0.0356 -0.5472
 7931SOL    HW331457   0.645   1.540   3.519  2.7265  1.4053 -0.4356
 7931SOL    MW431458   0.657   1.551   3.604 -0.3032  0.1049  0.3245
 7932SOL     OW31459   1.432   2.640   6.355  0.4906  0.1134  0.2328
 7932SOL    HW231460   1.492   2.574   6.391  0.1322 -0.2501  0.1671
 7932SOL    HW331461   1.446   2.717   6.411  1.6881  0.3440 -0.3519
 7932SOL    MW431462   1.442   2.642   6.367 -0.2585  0.2099 -0.1238
 7933SOL     OW31463   0.835   2.101   2.322  0.2125  0.0462  0.3273
 7933SOL    HW231464   0.810   2.063   2.238 -1.3473 -1.2869  1.3288
 7933SOL    HW331465   0.868   2.027   2.373  1.1769  0.8412  0.8954
 7933SOL    MW431466   0.837   2.086   2.318  0.0652  0.2943  0.1374
 7934SOL     OW31467   5.502   0.856   0.166 -0.5561  0.1947  0.0898
 7934SOL    HW231468   5.423   0.904   0.143  0.0290  1.1333  0.0087
 7934SOL    HW331469   5.487   0.826   0.255 -2.0205 -1.7725 -0.7421
 7934SOL    MW431470   5.490   0.858   0.175 -0.2465 -0.3431  0.1733
 7935SOL     OW31471   4.120   2.333   3.170 -0.4290 -0.0465 -0.0876
 7935SOL    HW231472   4.045   2.391   3.160 -0.7118 -0.1825  1.2003
 7935SOL    HW331473   4.124   2.285   3.087 -1.4144  0.3659 -0.3853
 7935SOL    MW431474   4.111   2.334   3.157  0.1408  0.0030 -0.2839
 7936SOL     OW31475   5.668   4.906   4.404  0.7108 -0.5813  0.5761
 7936SOL    HW231476   5.678   4.999   4.383  0.6698 -0.5657  0.6267
 7936SOL    HW331477   5.742   4.887   4.462  2.0798 -1.1260 -1.2265
 7936SOL    MW431478   5.679   4.915   4.409  0.1379 -0.4682 -0.4062
 7937SOL     OW31479   2.201   0.496   1.119 -0.5568 -0.2006 -0.0478
 7937SOL    HW231480   2.229   0.413   1.079 -0.7932  0.0685 -0.7955
 7937SOL    HW331481   2.182   0.552   1.044  1.0256  1.0320  0.4153
 7937SOL    MW431482   2.202   0.492   1.104 -0.5075  0.1027  0.4898
 7938SOL     OW31483   3.884   4.498   6.407 -0.0336  0.0899 -0.1193
 7938SOL    HW231484   3.842   4.509   6.322 -0.7728  0.2841  0.2602
 7938SOL    HW331485   3.900   4.587   6.438 -1.3493  0.0631  0.6973
 7938SOL    MW431486   3.881   4.511   6.400  0.4304  0.2536 -0.8046
 7939SOL     OW31487   6.213   0.203   5.919  0.7732 -0.1267  0.2946
 7939SOL    HW231488   6.239   0.176   5.831  2.0894 -2.0091  1.1878
 7939SOL    HW331489   6.249   0.291   5.929  2.8771 -0.8812 -0.1917
 7939SOL    MW431490   6.221   0.211   5.909  0.0862 -0.4899 -0.0193
 7940SOL     OW31491   4.681   0.065   4.124  0.1062  0.9375  0.4023
 7940SOL    HW231492   4.756   0.116   4.155 -0.0208  0.4173  1.6354
 7940SOL    HW331493   4.719  -0.015   4.088  0.1270  0.2008  1.9770
 7940SOL    MW431494   4.696   0.062   4.124  0.4746 -0.4824 -0.0280
 7941SOL     OW31495   0.770   3.253   3.839  0.1351  0.7043 -0.5037
 7941SOL    HW231496   0.803   3.197   3.909 -4.6076  0.1392  1.6263
 7941SOL    HW331497   0.784   3.203   3.759  1.7302 -0.5954  0.5247
 7941SOL    MW431498   0.777   3.239   3.838  0.5084 -0.2037  0.4516
 7942SOL     OW31499   5.711   4.956   0.122 -0.2501  0.5067 -0.3415
 7942SOL    HW231500   5.642   4.985   0.181 -0.4904 -0.4017 -0.1674
 7942SOL    HW331501   5.772   4.907   0.177  1.0381  2.0672 -0.3173
 7942SOL    MW431502   5.710   4.953   0.137  0.3049  0.4776  0.3643
 7943SOL     OW31503   3.780   4.806   3.382 -0.1671  0.6568 -0.4151
 7943SOL    HW231504   3.847   4.778   3.444  0.0316  0.5568 -0.6693
 7943SOL    HW331505   3.711   4.845   3.436 -0.9346 -1.2571  0.0459
 7943SOL    MW431506   3.780   4.808   3.397 -0.1222  0.2351 -0.0375
 7944SOL     OW31507   0.451   4.367   5.737 -0.4261 -0.2230 -0.3699
 7944SOL    HW231508   0.402   4.305   5.791 -0.7127 -0.2453 -0.6521
 7944SOL    HW331509   0.518   4.315   5.693  0.2935 -0.0827  0.5353
 7944SOL    MW431510   0.453   4.352   5.738  0.3017 -0.4383 -0.6860
 7945SOL     OW31511   4.096   2.298   5.227  0.4473 -0.2345  0.1717
 7945SOL    HW231512   4.088   2.359   5.154 -0.6349 -1.1756 -0.5265
 7945SOL    HW331513   4.160   2.339   5.285  0.4376  1.1100 -0.7163
 7945SOL    MW431514   4.103   2.312   5.225  0.3527  0.0907  0.2361
 7946SOL     OW31515   5.288   1.972   5.429 -0.1158 -0.1491 -0.3545
 7946SOL    HW231516   5.234   1.925   5.492 -1.1788 -0.1353 -1.2372
 7946SOL    HW331517   5.284   2.063   5.456 -0.0403 -0.2308 -0.0682
 7946SOL    MW431518   5.281   1.978   5.441  0.0288  0.4990 -0.2624
 7947SOL     OW31519   1.552   3.354   5.243 -0.0216  0.0055 -0.3682
 7947SOL    HW231520   1.622   3.398   5.291 -0.2445  0.7179 -0.6763
 7947SOL    HW331521   1.481   3.418   5.239 -0.6094 -0.6233 -0.2621
 7947SOL    MW431522   1.552   3.368   5.249  0.0613  0.1788  0.5654
 7948SOL     OW31523   2.063   0.737   1.268 -0.7942 -0.1644  0.3451
 7948SOL    HW231524   2.033   0.647   1.257  0.7264 -0.3728 -3.7316
 7948SOL    HW331525   1.999   0.790   1.220  0.2464  0.4656 -0.3834
 7948SOL    MW431526   2.051   0.732   1.261  0.5522 -0.2820  0.5200
 7949SOL     OW31527   1.511   0.756   3.432 -0.2714 -0.6319  0.5915
 7949SOL    HW231528   1.434   0.699   3.438 -1.2257  0.5357 -0.3645
 7949SOL    HW331529   1.551   0.734   3.348 -2.1285  1.8400 -1.0851
 7949SOL    MW431530   1.506   0.745   3.422  0.4068 -0.0554  0.4485
 7950SOL     OW31531   0.701   2.144   0.165 -0.0642 -0.1602  0.6044
 7950SOL    HW231532   0.709   2.107   0.077  0.3719 -0.5048  0.7852
 7950SOL    HW331533   0.719   2.238   0.153  1.5227 -0.4378  0.5405
 7950SOL    MW431534   0.705   2.152   0.151 -0.6158 -0.5956 -0.0215
 7951SOL     OW31535   2.928   2.025   1.839 -0.6929 -0.1497 -0.1667
 7951SOL    HW231536   2.936   2.045   1.745 -1.1019 -0.2552 -0.2277
 7951SOL    HW331537   2.972   1.941   1.849  1.7417  1.0759  0.2356
 7951SOL    MW431538   2.935   2.017   1.828 -0.3379 -0.2634 -0.6323
 7952SOL     OW31539   0.171   3.153   5.847  0.4335 -0.0808  0.0016
 7952SOL    HW231540   0.112   3.199   5.908 -0.1060  3.3802 -2.7867
 7952SOL    HW331541   0.256   3.193   5.861  0.1885  1.1629 -1.7685
 7952SOL    MW431542   0.174   3.164   5.857 -0.1676 -0.2774 -0.0461
 7953SOL     OW31543   0.106   3.276   0.476  0.2210 -0.1133 -0.2121
 7953SOL    HW231544   0.089   3.368   0.497  2.2894  0.3015 -0.1471
 7953SOL    HW331545   0.188   3.256   0.522 -0.2187 -2.0216 -0.1868
 7953SOL    MW431546   0.115   3.285   0.485  0.2895 -0.5272  0.4563
 7954SOL     OW31547   1.968   4.564   2.439  0.1271 -0.3342  0.3559
 7954SOL    HW231548   1.929   4.493   2.390  0.9238 -1.2879  1.0556
 7954SOL    HW331549   1.948   4.643   2.388 -1.7371 -0.8950  0.1562
 7954SOL    MW431550   1.961   4.565   2.426  0.0104  0.5715  0.2215
 7955SOL     OW31551   4.472   2.394   6.217  0.3328 -0.6429  0.4918
 7955SOL    HW231552   4.487   2.452   6.292  0.6960  1.2169 -0.9538
 7955SOL    HW331553   4.406   2.439   6.165 -0.7482 -2.4562  0.2280
 7955SOL    MW431554   4.466   2.407   6.220 -0.2036 -0.0308 -0.8957
 7956SOL     OW31555   4.889   3.200   3.110  0.9400  1.0079  0.0936
 7956SOL    HW231556   4.928   3.277   3.152  2.0764  0.5050  0.0225
 7956SOL    HW331557   4.965   3.147   3.084  0.2093  0.5025 -1.0628
 7956SOL    MW431558   4.904   3.203   3.112 -0.1854  0.0484  0.6053
 7957SOL     OW31559   1.999   3.778   3.855 -0.3987  0.9268  0.3206
 7957SOL    HW231560   2.076   3.785   3.797  1.0023  1.3936  2.1459
 7957SOL    HW331561   2.004   3.690   3.891 -1.0452  0.7712  0.0435
 7957SOL    MW431562   2.010   3.768   3.852 -0.8847  0.2459 -0.5096
 7958SOL     OW31563   0.118   5.756   5.533 -0.2231 -0.1698  0.0629
 7958SOL    HW231564   0.041   5.722   5.488 -0.2403  0.5795 -0.4868
 7958SOL    HW331565   0.086   5.777   5.621 -0.7863  0.6525 -0.3266
 7958SOL    MW431566   0.103   5.754   5.539  0.2330  0.1247 -0.0627
 7959SOL     OW31567   1.877   4.957   5.950 -1.4083  0.2278  0.2694
 7959SOL    HW231568   1.907   4.995   6.032  1.9374  1.5702 -1.3875
 7959SOL    HW331569   1.827   5.028   5.908  0.5746  1.1607 -0.6406
 7959SOL    MW431570   1.874   4.972   5.955  0.2282 -0.5147 -0.5618
 7960SOL     OW31571   2.015   3.101   0.922 -0.4803 -0.4957 -0.2386
 7960SOL    HW231572   1.941   3.138   0.971  0.5809 -0.6943  1.6144
 7960SOL    HW331573   2.060   3.178   0.886  0.1319 -0.1001  1.2623
 7960SOL    MW431574   2.011   3.116   0.924 -0.2183 -0.2496  0.2235
 7961SOL     OW31575   2.525   6.339   5.897  0.2084 -0.6033  0.0801
 7961SOL    HW231576   2.461   6.361   5.964 -0.8125  1.4879 -1.4683
 7961SOL    HW331577   2.473   6.324   5.817  1.5664  2.5143 -1.5707
 7961SOL    MW431578   2.510   6.340   5.895  0.8951  0.2314  0.8831
 7962SOL     OW31579   0.724   6.348   2.919 -0.0685  0.3831 -0.4363
 7962SOL    HW231580   0.784   6.282   2.954 -1.4807 -0.3359  0.7599
 7962SOL    HW331581   0.764   6.431   2.943  2.1734  0.0700 -2.7011
 7962SOL    MW431582   0.737   6.350   2.927 -0.3644  0.4443 -0.0972
 7963SOL     OW31583   1.565   0.099   4.342  0.1448  0.2440 -0.1602
 7963SOL    HW231584   1.589   0.115   4.434  0.2991  0.9248 -0.3128
 7963SOL    HW331585   1.472   0.123   4.338 -0.2443 -1.0945  0.1181
 7963SOL    MW431586   1.556   0.104   4.354 -0.1195  0.6101  0.4766
 7964SOL     OW31587   3.845   4.261   5.250 -0.0737 -0.3136  0.0964
 7964SOL    HW231588   3.767   4.305   5.217  0.2038  0.2056  0.1191
 7964SOL    HW331589   3.917   4.297   5.198  0.4684  1.0519  1.6623
 7964SOL    MW431590   3.844   4.272   5.239 -0.0948  0.0023 -0.4695
 7965SOL     OW31591   5.384   4.990   6.424 -0.0939 -0.6374  0.0140
 7965SOL    HW231592   5.415   5.049   6.494 -0.7048  0.4507 -0.6097
 7965SOL    HW331593   5.463   4.969   6.375  0.2704 -1.0454  0.7550
 7965SOL    MW431594   5.399   4.995   6.427  0.0244  0.1182 -0.6227
 7966SOL     OW31595   5.911   2.495   3.380 -0.3908  0.0347  0.0891
 7966SOL    HW231596   5.964   2.473   3.303 -0.4243 -1.1454  0.3720
 7966SOL    HW331597   5.973   2.493   3.453 -0.3905  0.9793  0.1163
 7966SOL    MW431598   5.926   2.492   3.379 -0.4863 -0.6182  0.5301
 7967SOL     OW31599   3.997   2.360   5.860  0.3554  0.2324 -0.0082
 7967SOL    HW231600   4.035   2.447   5.848  1.3151  0.0782  1.5816
 7967SOL    HW331601   3.998   2.321   5.772  0.3650  1.6251 -0.6512
 7967SOL    MW431602   4.002   2.366   5.847  0.3008 -0.2067 -0.5402
 7968SOL     OW31603   1.237   4.928   5.982 -0.0355 -0.7040  0.9343
 7968SOL    HW231604   1.144   4.922   6.004 -0.4904 -0.8188 -0.8576
 7968SOL    HW331605   1.258   4.842   5.944  1.2774 -1.3083  2.9110
 7968SOL    MW431606   1.227   4.916   5.980 -0.2162 -0.0546 -0.0141
 7969SOL     OW31607   0.899   5.898   0.337  0.3944 -0.0499 -0.0416
 7969SOL    HW231608   0.951   5.975   0.360 -0.9605  0.7660  0.4232
 7969SOL    HW331609   0.848   5.925   0.260 -0.8539 -0.0912  0.7367
 7969SOL    MW431610   0.899   5.911   0.330 -0.3107  0.4276  0.4981
 7970SOL     OW31611   4.504   2.012   4.648 -0.3541 -0.2963 -0.3839
 7970SOL    HW231612   4.491   2.106   4.664  1.5481  0.4265 -2.5900
 7970SOL    HW331613   4.597   1.997   4.666 -0.7901 -1.9697  0.6719
 7970SOL    MW431614   4.514   2.023   4.653 -0.0702  0.0457 -0.0496
 7971SOL     OW31615   1.951   1.185   2.418  0.2809  0.3965  0.1838
 7971SOL    HW231616   1.878   1.154   2.472 -1.0184  2.2536 -0.3964
 7971SOL    HW331617   1.951   1.129   2.341 -1.9322  1.6137 -0.7937
 7971SOL    MW431618   1.942   1.174   2.415 -0.5548  0.1875 -0.1402
 7972SOL     OW31619   0.217   5.987   4.149  0.4426  0.3373 -0.0461
 7972SOL    HW231620   0.127   6.017   4.149 -0.0642 -1.1011  0.4257
 7972SOL    HW331621   0.215   5.905   4.100  0.9375 -1.1591  2.2835
 7972SOL    MW431622   0.205   5.980   4.143  0.2322 -0.2081  0.7111
 7973SOL     OW31623   5.269   6.221   0.383 -0.2955  0.6253  0.1324
 7973SOL    HW231624   5.282   6.127   0.372 -1.8437  0.3042  0.8213
 7973SOL    HW331625   5.330   6.245   0.453 -0.1731  0.0602  0.2272
 7973SOL    MW431626   5.279   6.212   0.390 -0.3201 -0.0732 -1.0714
 7974SOL     OW31627   6.422   2.316   5.368  0.1050  0.4485  0.6035
 7974SOL    HW231628   6.509   2.279   5.355 -0.4637 -1.1350  1.0907
 7974SOL    HW331629   6.372   2.247   5.410 -1.8173  0.8084 -0.9219
 7974SOL    MW431630   6.427   2.302   5.372 -0.4216 -0.3012  0.0566
 7975SOL     OW31631   3.750   2.829   5.341 -0.0251 -0.5846 -0.8126
 7975SOL    HW231632   3.786   2.915   5.362 -1.5657  0.0437 -0.6454
 7975SOL    HW331633   3.825   2.770   5.348  0.4893  0.2451  2.1335
 7975SOL    MW431634   3.765   2.833   5.344 -0.4860 -0.4319 -0.5530
 7976SOL     OW31635   2.119   5.607   0.506  0.6133 -0.1799 -0.2709
 7976SOL    HW231636   2.210   5.579   0.499  0.7291 -0.4413  1.7132
 7976SOL    HW331637   2.071   5.546   0.450  1.7414  0.6373 -2.1998
 7976SOL    MW431638   2.124   5.595   0.498  0.6527  0.2532 -0.9092
 7977SOL     OW31639   4.894   5.105   2.364  0.3660  0.2134 -0.2415
 7977SOL    HW231640   4.901   5.037   2.432  0.3657 -1.5571 -1.9354
 7977SOL    HW331641   4.982   5.113   2.328  0.5726  1.8073  0.5102
 7977SOL    MW431642   4.907   5.097   2.368  0.1469 -0.3362 -0.9337
 7978SOL     OW31643   1.704   5.937   4.118 -0.1069 -0.2316  0.0272
 7978SOL    HW231644   1.721   5.845   4.137 -2.6469 -0.7390  0.1519
 7978SOL    HW331645   1.735   5.984   4.195  1.0697 -0.9580  0.0276
 7978SOL    MW431646   1.710   5.931   4.130  0.1485 -0.7757  0.5162
 7979SOL     OW31647   1.471   5.022   1.656 -0.4217  0.6219  0.2756
 7979SOL    HW231648   1.446   4.940   1.613  0.1419  0.6109 -0.0423
 7979SOL    HW331649   1.493   5.082   1.584  1.4709  0.3005  0.5316
 7979SOL    MW431650   1.471   5.019   1.641 -0.2325  0.3657 -0.3733
 7980SOL     OW31651   3.928   0.022   2.189 -0.1970  0.5218 -0.5753
 7980SOL    HW231652   4.021   0.040   2.204  0.4394 -2.7377  0.2458
 7980SOL    HW331653   3.887   0.035   2.275 -0.3187  1.0084 -0.7060
 7980SOL    MW431654   3.935   0.026   2.203 -0.3083 -0.4449  0.1645
 7981SOL     OW31655   4.252   0.700   2.673  0.0914 -0.3157  0.3620
 7981SOL    HW231656   4.197   0.736   2.743 -1.4102 -1.4801 -0.1525
 7981SOL    HW331657   4.192   0.647   2.620  1.3979 -0.3172 -1.2091
 7981SOL    MW431658   4.237   0.698   2.675  0.0711 -0.4835  0.3779
 7982SOL     OW31659   1.559   0.244   0.577  0.3629 -0.8133 -0.3110
 7982SOL    HW231660   1.536   0.335   0.594  2.4828 -0.3025  0.1788
 7982SOL    HW331661   1.604   0.247   0.492 -1.1435 -1.7305 -1.1840
 7982SOL    MW431662   1.562   0.257   0.568 -0.3119  0.5053 -0.7355
 7983SOL     OW31663   4.087   5.596   3.161  0.2147  0.2160  0.6975
 7983SOL    HW231664   4.158   5.657   3.137  0.7019  0.0216  1.5810
 7983SOL    HW331665   4.057   5.560   3.078  0.2582  1.2906  0.1954
 7983SOL    MW431666   4.093   5.600   3.147  0.0101  0.6752  0.6247
 7984SOL     OW31667   6.307   1.787   4.682  0.5482 -0.5364  0.3565
 7984SOL    HW231668   6.270   1.854   4.739 -2.7029 -1.9093  0.1023
 7984SOL    HW331669   6.243   1.779   4.610  2.7609 -1.2720 -1.6608
 7984SOL    MW431670   6.293   1.795   4.680  0.8614  0.8347  0.0261
 7985SOL     OW31671   3.363   1.555   5.226  0.3369  0.1997 -0.0067
 7985SOL    HW231672   3.402   1.526   5.143  1.6732 -0.9785  0.9824
 7985SOL    HW331673   3.271   1.530   5.219  0.3261  0.5138 -1.3000
 7985SOL    MW431674   3.356   1.548   5.214  0.4423  0.4051  0.0976
 7986SOL     OW31675   4.790   5.593   0.093 -0.1082 -0.0569 -0.0996
 7986SOL    HW231676   4.726   5.538   0.138 -1.3692 -1.5587 -3.4069
 7986SOL    HW331677   4.737   5.655   0.042  1.2019  1.3307  0.1810
 7986SOL    MW431678   4.775   5.594   0.092 -0.4300  0.0914  0.1920
 7987SOL     OW31679   4.074   3.432   5.635 -0.6244 -0.3581 -0.2927
 7987SOL    HW231680   4.045   3.467   5.719  1.9632  1.9772 -0.2342
 7987SOL    HW331681   4.059   3.504   5.573  1.9083 -0.2102 -0.8296
 7987SOL    MW431682   4.068   3.446   5.638 -0.7191  0.4908  0.7401
 7988SOL     OW31683   2.431   2.773   3.167 -0.9552 -0.0917 -1.0881
 7988SOL    HW231684   2.389   2.737   3.246 -0.0159  0.8900 -0.1166
 7988SOL    HW331685   2.477   2.851   3.197  0.9330 -0.6896 -2.2748
 7988SOL    MW431686   2.431   2.779   3.181 -0.1512  0.7513  0.1634
 7989SOL     OW31687   0.325   2.828   0.251  0.1664  0.0894 -0.4424
 7989SOL    HW231688   0.239   2.802   0.217 -0.1911 -0.3132  0.7131
 7989SOL    HW331689   0.322   2.923   0.253 -0.8098  0.0577  0.8892
 7989SOL    MW431690   0.313   2.837   0.247  0.3105 -0.5620 -0.0367
 7990SOL     OW31691   4.883   1.303   4.643 -0.7536  0.3793 -0.3881
 7990SOL    HW231692   4.863   1.251   4.721 -1.3890  2.2295  0.7309
 7990SOL    HW331693   4.953   1.255   4.600  1.3103  0.4782  2.5883
 7990SOL    MW431694   4.889   1.290   4.648  0.1027 -0.1459  0.2366
 7991SOL     OW31695   2.455   1.699   0.992  0.1536  0.4924 -0.3196
 7991SOL    HW231696   2.545   1.669   0.975 -0.2611 -0.8687 -0.1940
 7991SOL    HW331697   2.418   1.632   1.049 -0.8961  1.1413 -0.2201
 7991SOL    MW431698   2.462   1.687   0.997 -0.0613 -0.0939  0.9189
 7992SOL     OW31699   2.606   2.263   2.700 -0.0976 -0.3451 -0.0340
 7992SOL    HW231700   2.577   2.244   2.611  1.5063 -1.0949 -0.4397
 7992SOL    HW331701   2.567   2.194   2.753  1.9342 -2.1917 -0.7910
 7992SOL    MW431702   2.597   2.251   2.696  0.0525 -0.5800  0.3879
 7993SOL     OW31703   4.488   1.906  -0.005  0.4615  0.0783  0.0228
 7993SOL    HW231704   4.570   1.946  -0.033 -0.4190  1.0971 -1.1694
 7993SOL    HW331705   4.494   1.906   0.091  1.5183  0.8301 -0.0159
 7993SOL    MW431706   4.500   1.911   0.004 -0.4322 -0.3232  0.3582
 7994SOL     OW31707   2.713   4.520   3.028  0.1250  0.5744  0.1801
 7994SOL    HW231708   2.792   4.466   3.036  1.7954  2.8156 -0.2282
 7994SOL    HW331709   2.681   4.503   2.940  1.6724  1.5129 -0.6050
 7994SOL    MW431710   2.720   4.510   3.018  0.2422  0.8404 -0.0331
 7995SOL     OW31711   3.392   5.062   4.902 -0.1262  0.6131 -0.3852
 7995SOL    HW231712   3.327   5.122   4.938 -1.9724 -0.7886 -1.2060
 7995SOL    HW331713   3.448   5.118   4.848 -3.5214  1.3883 -3.5178
 7995SOL    MW431714   3.391   5.077   4.900  0.1673 -0.6374  0.4021
 7996SOL     OW31715   4.331   0.427   2.824 -0.8219  0.4261  0.3704
 7996SOL    HW231716   4.253   0.406   2.875 -0.9893 -1.9530 -0.7441
 7996SOL    HW331717   4.314   0.514   2.789 -2.3533  0.5170  1.2585
 7996SOL    MW431718   4.319   0.436   2.826  0.0420 -0.3248 -0.5473
 7997SOL     OW31719   6.173   3.175   5.381  0.0133  0.3162  0.0252
 7997SOL    HW231720   6.160   3.267   5.358 -1.6022  0.3965  1.1415
 7997SOL    HW331721   6.139   3.168   5.470  0.5753 -1.2693  0.1351
 7997SOL    MW431722   6.167   3.186   5.390 -0.9206  0.0342 -0.4099
 7998SOL     OW31723   0.687   5.867   3.796 -0.0138  0.1484  0.0313
 7998SOL    HW231724   0.767   5.815   3.803  0.8438  1.3278 -0.7609
 7998SOL    HW331725   0.626   5.823   3.856  0.4965 -2.0348 -0.9405
 7998SOL    MW431726   0.689   5.854   3.805  0.2402 -0.4576  0.3028
 7999SOL     OW31727   0.903   3.699   2.001 -0.0722 -0.3922 -0.0713
 7999SOL    HW231728   0.909   3.699   1.905  2.1720 -1.3893 -0.0098
 7999SOL    HW331729   0.995   3.701   2.030 -0.7175  1.6659  2.1029
 7999SOL    MW431730   0.916   3.699   1.992 -0.3382  0.0557  0.2423
 8000SOL     OW31731   6.054   6.030   3.182  0.9594  0.1808 -0.1782
 8000SOL    HW231732   6.139   5.988   3.170  0.7432 -0.2029 -0.3878
 8000SOL    HW331733   6.062   6.115   3.139  1.7779  0.8629  1.2271
 8000SOL    MW431734   6.066   6.036   3.175 -0.4940 -0.1549 -0.3014
 8001SOL     OW31735   0.124   2.556   5.425 -0.3687  0.0744  0.1209
 8001SOL    HW231736   0.160   2.576   5.338 -0.1307  2.2718  0.6765
 8001SOL    HW331737   0.064   2.483   5.410  2.1297 -1.8412 -1.3266
 8001SOL    MW431738   0.121   2.549   5.411 -0.3847  0.0589  0.6209
 8002SOL     OW31739   1.429   0.559   4.291 -0.5693 -0.4983  0.0465
 8002SOL    HW231740   1.497   0.523   4.348 -0.1915  1.1908  0.7215
 8002SOL    HW331741   1.347   0.548   4.340 -0.6527 -1.5324 -0.2964
 8002SOL    MW431742   1.427   0.553   4.305 -0.2198 -0.5692 -0.4146
 8003SOL     OW31743   3.405   0.841   0.197 -0.4194  0.5564  0.5898
 8003SOL    HW231744   3.434   0.901   0.129 -0.7898  0.0966  0.0162
 8003SOL    HW331745   3.470   0.771   0.197 -0.6899  0.2999  0.3533
 8003SOL    MW431746   3.417   0.839   0.188 -0.6803  0.4234  0.1188
 8004SOL     OW31747   0.063   4.509   2.657  0.2593 -0.5415  0.1046
 8004SOL    HW231748   0.151   4.492   2.691  1.1130  1.5263 -0.8384
 8004SOL    HW331749   0.065   4.472   2.568 -0.1841 -1.3755  0.4359
 8004SOL    MW431750   0.075   4.502   2.650 -0.3138 -0.1508 -0.2594
 8005SOL     OW31751   0.956   4.134   3.987  0.0994 -0.0314 -0.1756
 8005SOL    HW231752   1.030   4.138   3.927  1.0102  1.1925  0.9871
 8005SOL    HW331753   0.883   4.104   3.932  0.9185  0.9363 -1.8707
 8005SOL    MW431754   0.956   4.130   3.972 -0.0356  0.4137  0.8566
 8006SOL     OW31755   3.482   5.158   1.020 -0.1526  0.2067 -0.4828
 8006SOL    HW231756   3.421   5.131   1.090  1.1245  0.1333  0.6374
 8006SOL    HW331757   3.467   5.095   0.950 -1.8785  0.6246 -0.5358
 8006SOL    MW431758   3.472   5.146   1.020  0.3630  0.0909  0.0724
 8007SOL     OW31759   5.650   1.631   2.990 -0.5613 -0.2023  0.3896
 8007SOL    HW231760   5.653   1.600   2.899 -1.1977 -0.0422  0.3084
 8007SOL    HW331761   5.658   1.553   3.043 -0.1757 -0.2973  0.1975
 8007SOL    MW431762   5.651   1.617   2.985 -0.0334  0.8658 -0.8960
 8008SOL     OW31763   4.654   0.622   3.419  0.9340 -0.4011 -0.2439
 8008SOL    HW231764   4.734   0.619   3.367  0.9156 -0.4061 -0.2711
 8008SOL    HW331765   4.588   0.577   3.366  0.7664  0.1143 -0.4807
 8008SOL    MW431766   4.656   0.616   3.405  0.3591 -0.0366  0.0017
 8009SOL     OW31767   6.020   1.002   2.645  0.4757  0.0012 -0.0412
 8009SOL    HW231768   6.061   1.087   2.659 -1.9170  0.9686  1.7375
 8009SOL    HW331769   5.978   1.010   2.559  0.9653  0.3098 -0.2548
 8009SOL    MW431770   6.020   1.014   2.635 -0.4085  0.1406 -0.6127
 8010SOL     OW31771   5.012   0.693   3.096 -0.5329 -0.2298  0.4453
 8010SOL    HW231772   4.971   0.708   3.011  1.7539  0.9043 -0.5613
 8010SOL    HW331773   4.962   0.749   3.156  0.0952  1.9486 -0.9265
 8010SOL    MW431774   5.000   0.703   3.092  0.2826  0.5121 -0.4049
 8011SOL     OW31775   5.413   1.045   2.144  0.4965  0.1180  0.2270
 8011SOL    HW231776   5.391   1.084   2.059 -0.2501  1.7478  1.1099
 8011SOL    HW331777   5.396   0.952   2.133 -0.1482  0.3790 -1.2385
 8011SOL    MW431778   5.408   1.038   2.132  0.4945 -0.1634 -0.2876
 8012SOL     OW31779   3.666   1.846   5.909  0.0945  0.0026  0.2990
 8012SOL    HW231780   3.730   1.902   5.865 -0.1482  0.4350  0.5027
 8012SOL    HW331781   3.581   1.884   5.888  0.0098  0.7243  1.8403
 8012SOL    MW431782   3.663   1.858   5.900  0.6922 -0.4174  0.1124
 8013SOL     OW31783   1.656   5.629   4.675 -0.3043 -0.1792 -0.1752
 8013SOL    HW231784   1.718   5.562   4.703 -0.0639 -0.0833 -0.4741
 8013SOL    HW331785   1.607   5.589   4.603 -0.6484 -0.2836  0.1144
 8013SOL    MW431786   1.658   5.615   4.669 -0.7683  0.0907  0.1493
 8014SOL     OW31787   5.848   3.458   0.634  0.2608  0.1095  0.2887
 8014SOL    HW231788   5.854   3.391   0.566 -1.5732  0.6026 -0.4151
 8014SOL    HW331789   5.792   3.419   0.702  0.6643  0.2648  0.7177
 8014SOL    MW431790   5.841   3.444   0.634 -0.0680 -0.6887 -0.2951
 8015SOL     OW31791   0.738   4.926   5.501 -0.4154 -0.1892  0.2675
 8015SOL    HW231792   0.718   4.893   5.413 -1.3422 -0.3842  0.5424
 8015SOL    HW331793   0.750   4.847   5.553  1.0783 -0.0851  0.1343
 8015SOL    MW431794   0.737   4.911   5.496  0.0944 -0.1598 -0.1197
 8016SOL     OW31795   1.724   0.272   0.350 -0.3852 -0.0015 -0.1696
 8016SOL    HW231796   1.749   0.364   0.356  0.8907 -0.4170  2.0396
 8016SOL    HW331797   1.691   0.262   0.261  1.2984  2.1296 -1.1237
 8016SOL    MW431798   1.723   0.283   0.339 -0.1110 -0.5736 -0.0471
 8017SOL     OW31799   5.454   1.375   3.542 -0.1100  0.1413  0.1060
 8017SOL    HW231800   5.382   1.351   3.600 -0.2148 -2.6630 -1.0350
 8017SOL    HW331801   5.477   1.464   3.568 -0.5416 -0.7193  4.0201
 8017SOL    MW431802   5.448   1.383   3.553 -0.0292 -0.2441  0.2704
 8018SOL     OW31803   1.988   6.070   6.117  0.0267  0.6121  0.1571
 8018SOL    HW231804   2.069   6.045   6.074 -0.1689  1.7867 -0.9376
 8018SOL    HW331805   1.921   6.064   6.048 -1.1210 -1.7032  1.3487
 8018SOL    MW431806   1.990   6.066   6.102  0.7733  0.0130  0.0516
 8019SOL     OW31807   0.068   4.772   2.691 -0.1743  0.0182 -0.5466
 8019SOL    HW231808   0.069   4.678   2.677  0.9239 -0.2640  1.0369
 8019SOL    HW331809   0.063   4.810   2.604  1.9017 -1.5190 -1.4316
 8019SOL    MW431810   0.068   4.765   2.678 -0.3349 -0.5289 -0.0064
 8020SOL     OW31811   1.519   1.853   0.898  0.4809  0.2022  0.1867
 8020SOL    HW231812   1.581   1.819   0.962  0.0573 -0.4804  0.2425
 8020SOL    HW331813   1.484   1.776   0.854 -0.3687  0.5677  0.1967
 8020SOL    MW431814   1.523   1.838   0.901 -0.2443  0.4984 -0.2138
 8021SOL     OW31815   3.013   3.740   2.783  0.0240  0.3253 -0.0304
 8021SOL    HW231816   2.929   3.718   2.823 -0.1899  1.2487  0.0693
 8021SOL    HW331817   3.021   3.835   2.795  0.8330  0.3327 -0.5150
 8021SOL    MW431818   3.003   3.750   2.790 -0.3005 -0.6669 -0.0643
 8022SOL     OW31819   1.311   3.779   0.167 -0.4149 -0.8447  0.0589
 8022SOL    HW231820   1.312   3.686   0.186 -1.4519 -1.3767 -2.1227
 8022SOL    HW331821   1.226   3.795   0.125 -0.3853  1.1443  0.6262
 8022SOL    MW431822   1.300   3.769   0.164  0.3203  0.2594 -0.7234
 8023SOL     OW31823   0.051   5.727   0.060 -0.0977 -0.5508  0.6743
 8023SOL    HW231824  -0.004   5.660   0.020  1.1070 -1.2136  0.0742
 8023SOL    HW331825  -0.010   5.784   0.107 -1.4812 -0.2352 -1.3961
 8023SOL    MW431826   0.036   5.726   0.061 -0.2079  0.3660 -0.4431
 8024SOL     OW31827   0.479   0.441   0.757  0.5103  0.1490  0.1018
 8024SOL    HW231828   0.503   0.375   0.822 -0.3385  1.3193  1.6537
 8024SOL    HW331829   0.408   0.400   0.707 -1.6582  0.6605  2.5882
 8024SOL    MW431830   0.473   0.427   0.759  0.4609 -0.4039  0.4950
 8025SOL     OW31831   4.918   0.879   0.255 -0.0060 -0.0566 -0.2919
 8025SOL    HW231832   4.950   0.832   0.332  0.1685  0.1595 -0.2323
 8025SOL    HW331833   4.827   0.851   0.246 -0.2323  0.4428  0.4007
 8025SOL    MW431834   4.910   0.869   0.264 -0.6720 -0.2106  0.4392
 8026SOL     OW31835   0.780   5.378   5.015  0.1717  0.2447 -0.5570
 8026SOL    HW231836   0.743   5.320   4.947  0.6076  0.5573 -1.0627
 8026SOL    HW331837   0.874   5.366   5.008  0.2409  0.6589 -0.3312
 8026SOL    MW431838   0.787   5.369   5.005 -0.1068  0.4731  0.0534
 8027SOL     OW31839   5.941   6.032   4.373  0.1462  0.0585 -0.6362
 8027SOL    HW231840   5.991   6.107   4.406 -1.2646  0.3513  0.9523
 8027SOL    HW331841   5.850   6.062   4.374 -0.5080 -1.8007  0.4960
 8027SOL    MW431842   5.936   6.046   4.378  0.0177 -0.8209 -0.1279
 8028SOL     OW31843   5.363   5.917   5.779 -0.1152  0.1832  0.1876
 8028SOL    HW231844   5.381   5.873   5.862  1.4934  0.2393 -0.1066
 8028SOL    HW331845   5.383   6.009   5.795  0.3980  0.1628 -0.3070
 8028SOL    MW431846   5.368   5.923   5.792 -0.0358  0.3357 -0.6544
 8029SOL     OW31847   0.911   1.207   4.349 -0.2879  0.2396  0.4367
 8029SOL    HW231848   0.958   1.246   4.275  1.0101 -0.3282  0.9390
 8029SOL    HW331849   0.884   1.282   4.402 -0.2172  0.5871 -0.0102
 8029SOL    MW431850   0.914   1.222   4.346 -0.2280 -0.4263  0.6772
 8030SOL     OW31851   2.663   1.977   2.861  0.1553  0.1621 -0.4186
 8030SOL    HW231852   2.573   1.976   2.828  0.2016 -1.9256 -0.6485
 8030SOL    HW331853   2.716   1.949   2.787  0.7444 -0.5135  0.2318
 8030SOL    MW431854   2.658   1.973   2.847  0.0320  0.0362  0.3177
 8031SOL     OW31855   2.267   2.944   0.896 -0.0994 -0.3204  0.1316
 8031SOL    HW231856   2.180   2.984   0.901 -0.8390 -1.8462 -0.1458
 8031SOL    HW331857   2.283   2.934   0.802  0.4405  0.0604  0.1778
 8031SOL    MW431858   2.257   2.948   0.885 -0.6746 -0.5757  0.1500
 8032SOL     OW31859   2.344   6.110   2.097  0.6075  0.4453 -0.2041
 8032SOL    HW231860   2.270   6.142   2.046  0.0459 -0.5494 -0.0442
 8032SOL    HW331861   2.334   6.015   2.096  2.1492  0.2749 -0.5607
 8032SOL    MW431862   2.333   6.102   2.090 -0.6225 -0.0854 -0.6502
 8033SOL     OW31863   3.097   6.436   6.317  0.1839 -0.2791  0.5913
 8033SOL    HW231864   3.037   6.477   6.380  1.5855  0.1608  1.6813
 8033SOL    HW331865   3.143   6.369   6.367  1.3940  0.1438  0.0851
 8033SOL    MW431866   3.095   6.433   6.332  0.0214 -0.2250  0.6013
 8034SOL     OW31867   0.259   5.319   6.206 -0.2034 -0.0516 -0.3315
 8034SOL    HW231868   0.345   5.286   6.230  0.4509  1.4070 -0.5854
 8034SOL    HW331869   0.240   5.277   6.122  0.1353 -0.5711 -0.1550
 8034SOL    MW431870   0.267   5.309   6.198 -0.3172  0.1159  0.0084
 8035SOL     OW31871   4.040   3.634   6.239 -0.0101 -0.5315 -0.0450
 8035SOL    HW231872   4.121   3.589   6.261 -0.2610 -1.0447 -0.1586
 8035SOL    HW331873   3.995   3.644   6.323  0.2789 -0.0279  0.0522
 8035SOL    MW431874   4.044   3.629   6.253 -0.3380 -0.0645  0.4940
 8036SOL     OW31875   1.012   5.570   4.251  0.0491  0.1122 -0.1831
 8036SOL    HW231876   0.983   5.659   4.271 -3.6244 -0.5158 -1.8903
 8036SOL    HW331877   0.943   5.534   4.196  2.7472 -2.9071 -1.9496
 8036SOL    MW431878   0.999   5.577   4.246 -0.3983 -0.4043 -0.4593
 8037SOL     OW31879   0.743   0.748   5.510 -0.1514  0.3836 -0.4700
 8037SOL    HW231880   0.703   0.827   5.474  0.0205 -0.3505 -2.3763
 8037SOL    HW331881   0.821   0.780   5.556  0.2080  1.3008 -1.6522
 8037SOL    MW431882   0.748   0.763   5.511  0.2663 -0.5025 -0.2744
 8038SOL     OW31883   0.370   0.915   5.968 -0.0162  0.3619  0.0437
 8038SOL    HW231884   0.342   0.826   5.944  1.9241 -0.2437 -0.1224
 8038SOL    HW331885   0.417   0.904   6.050 -0.3331  1.3598  0.3730
 8038SOL    MW431886   0.373   0.901   5.975 -0.4626  0.3432 -0.9306
 8039SOL     OW31887   0.556   2.058   1.778  0.0705  0.2240 -0.4038
 8039SOL    HW231888   0.526   2.076   1.689  0.2649 -2.8779 -1.2252
 8039SOL    HW331889   0.630   1.998   1.767  1.5104  1.4324  1.8276
 8039SOL    MW431890   0.562   2.052   1.765 -0.2373  0.1981 -0.7698
 8040SOL     OW31891   0.557   5.158   2.602  0.0793  0.6729 -0.4444
 8040SOL    HW231892   0.594   5.074   2.629 -0.1840  0.7841  0.2715
 8040SOL    HW331893   0.508   5.189   2.678  1.4260  2.2240 -0.1612
 8040SOL    MW431894   0.555   5.151   2.615  0.0467  0.2030  0.7199
 8041SOL     OW31895   2.930   0.237   5.545 -0.2803  0.0120 -0.5208
 8041SOL    HW231896   2.845   0.243   5.589 -0.6273 -0.5955 -1.0845
 8041SOL    HW331897   2.994   0.242   5.616 -0.7980  0.0167 -0.0438
 8041SOL    MW431898   2.928   0.238   5.561  0.3523 -0.2632  0.0967
 8042SOL     OW31899   3.331   3.454   6.279 -0.2111  0.1537 -0.0066
 8042SOL    HW231900   3.396   3.497   6.224  0.7031 -0.4664  0.5527
 8042SOL    HW331901   3.278   3.402   6.219  1.2631 -1.1240 -0.2426
 8042SOL    MW431902   3.332   3.453   6.264  0.4797  0.4258  0.2812
 8043SOL     OW31903   6.297   0.241   2.731  0.4550 -0.1819  0.5854
 8043SOL    HW231904   6.236   0.217   2.661  0.9520  3.0764 -1.1947
 8043SOL    HW331905   6.245   0.232   2.812 -0.7406 -2.2378 -0.3276
 8043SOL    MW431906   6.282   0.237   2.733  0.8390 -0.4325  0.0124
 8044SOL     OW31907   0.327   0.548   5.039  0.1451 -0.3943 -0.0643
 8044SOL    HW231908   0.290   0.550   4.950 -0.2679 -1.7440  0.0427
 8044SOL    HW331909   0.307   0.634   5.076 -0.4486 -0.1261 -0.9772
 8044SOL    MW431910   0.319   0.559   5.032  0.5112  0.0542 -0.2301
 8045SOL     OW31911   2.647   3.866   2.911 -0.9736  0.0348 -0.0658
 8045SOL    HW231912   2.638   3.828   2.823  0.9975  0.7348 -0.6323
 8045SOL    HW331913   2.571   3.923   2.920 -1.7519 -0.8302 -0.8976
 8045SOL    MW431914   2.636   3.868   2.900 -0.1994 -0.2798  0.2855
 8046SOL     OW31915   4.810   1.603   2.540 -0.1525 -0.3628  0.2534
 8046SOL    HW231916   4.718   1.627   2.539 -0.1909 -0.2938 -2.6736
 8046SOL    HW331917   4.822   1.550   2.461  2.3465 -0.2146  0.4482
 8046SOL    MW431918   4.800   1.599   2.530  0.1129 -0.6320 -0.0381
 8047SOL     OW31919   0.656   4.118   5.928 -0.2976 -0.9391  0.1345
 8047SOL    HW231920   0.716   4.188   5.901  1.5092 -0.5892  4.3022
 8047SOL    HW331921   0.572   4.162   5.938  0.1499 -0.0015 -0.0420
 8047SOL    MW431922   0.653   4.133   5.925  0.6370 -0.5373 -0.3131
 8048SOL     OW31923   4.414   0.023   6.422  0.1669  0.1323 -0.3460
 8048SOL    HW231924   4.320   0.035   6.408  0.1721 -0.8498 -1.3557
 8048SOL    HW331925   4.456   0.072   6.352  0.3458 -0.8787 -0.9646
 8048SOL    MW431926   4.407   0.031   6.411  0.1149 -0.5391 -0.6109
 8049SOL     OW31927   6.398   6.193   5.438  0.3851  0.2011  0.3952
 8049SOL    HW231928   6.421   6.286   5.434  1.3925 -0.0722 -1.2051
 8049SOL    HW331929   6.478   6.151   5.469  1.1390 -0.4476 -2.2069
 8049SOL    MW431930   6.412   6.200   5.442  0.0296  0.2926  0.4174
 8050SOL     OW31931   4.837   0.805   5.478 -0.1245 -0.5197  0.1974
 8050SOL    HW231932   4.787   0.800   5.397  0.6977 -1.5958 -0.2749
 8050SOL    HW331933   4.928   0.814   5.450  0.1864 -1.0465  0.9865
 8050SOL    MW431934   4.842   0.806   5.464 -0.1911 -0.4663  0.3976
 8051SOL     OW31935   5.329   5.051   4.198  0.2937 -0.4211 -0.3116
 8051SOL    HW231936   5.383   4.983   4.157  0.0769  0.5665 -2.3764
 8051SOL    HW331937   5.386   5.128   4.201  0.4068 -0.5279  1.6384
 8051SOL    MW431938   5.344   5.052   4.193 -0.2522  0.7101  0.9399
 8052SOL     OW31939   0.063   1.981   3.383 -0.3737 -0.0835  0.5090
 8052SOL    HW231940   0.139   1.934   3.417 -0.4308  1.2824  2.7136
 8052SOL    HW331941   0.097   2.032   3.310  0.4215 -0.8224  0.3398
 8052SOL    MW431942   0.077   1.981   3.378 -0.2548  1.2858  0.3778
 8053SOL     OW31943   5.721   5.494   5.191  0.0645  0.2385  0.1374
 8053SOL    HW231944   5.704   5.401   5.182  1.3438 -0.0018  0.0583
 8053SOL    HW331945   5.692   5.515   5.280 -2.2076  0.2504 -0.5544
 8053SOL    MW431946   5.715   5.485   5.202  0.2681 -0.2383 -0.1658
 8054SOL     OW31947   3.718   5.903   0.855 -0.3126  0.1304 -0.3508
 8054SOL    HW231948   3.774   5.875   0.783 -0.6959  0.8110 -0.9331
 8054SOL    HW331949   3.760   5.982   0.889 -1.6419  1.4875 -1.7316
 8054SOL    MW431950   3.731   5.910   0.850  0.2971 -0.3758  0.3516
 8055SOL     OW31951   5.585   5.318   6.268 -0.8384  0.0123  0.1033
 8055SOL    HW231952   5.666   5.342   6.222 -0.3997 -1.3391  0.1225
 8055SOL    HW331953   5.523   5.297   6.199 -0.9961  0.4532  0.1034
 8055SOL    MW431954   5.588   5.319   6.253 -0.0655 -0.2079  0.1180
 8056SOL     OW31955   3.303   4.268   5.659  0.4536 -0.1616 -0.5543
 8056SOL    HW231956   3.329   4.334   5.594  1.3805 -1.1682 -1.2483
 8056SOL    HW331957   3.209   4.280   5.669  0.4280  0.5552 -1.4804
 8056SOL    MW431958   3.294   4.279   5.652 -0.3625  0.3124 -0.0375
 8057SOL     OW31959   3.494   0.553   3.454  0.0923  0.0712 -0.6948
 8057SOL    HW231960   3.514   0.611   3.527  1.6075 -0.8494 -0.3339
 8057SOL    HW331961   3.430   0.491   3.490  1.0418 -0.5553 -0.0204
 8057SOL    MW431962   3.488   0.553   3.468  0.2086  0.5233 -0.4388
 8058SOL     OW31963   1.348   1.359   0.833 -0.5234 -0.0822 -0.5022
 8058SOL    HW231964   1.392   1.306   0.899 -1.0484 -0.4387 -0.4363
 8058SOL    HW331965   1.265   1.314   0.816 -0.8884  0.5985 -0.5897
 8058SOL    MW431966   1.343   1.346   0.840 -0.5573  0.0995 -0.1224
 8059SOL     OW31967   2.926   2.255   0.171 -0.2067  0.2761  0.1073
 8059SOL    HW231968   2.849   2.269   0.116 -0.4288 -0.9393  0.0746
 8059SOL    HW331969   2.891   2.244   0.260 -0.7032 -4.6398 -0.3802
 8059SOL    MW431970   2.911   2.255   0.176 -0.7101 -0.5391 -0.6880
 8060SOL     OW31971   1.241   2.149   3.058 -0.0011  0.3030 -0.5362
 8060SOL    HW231972   1.333   2.176   3.055 -0.1336  0.9021  0.5879
 8060SOL    HW331973   1.239   2.077   3.121 -0.5249  1.2213  0.5127
 8060SOL    MW431974   1.253   2.143   3.066  0.1424 -0.4011 -0.1879
 8061SOL     OW31975   5.151   4.522   0.699 -0.0496 -0.0302 -0.0520
 8061SOL    HW231976   5.242   4.520   0.728 -0.2125 -0.1642  0.4716
 8061SOL    HW331977   5.130   4.616   0.695 -0.1959 -0.0167  0.8484
 8061SOL    MW431978   5.160   4.534   0.703 -0.3448 -0.2770  0.2046
 8062SOL     OW31979   1.559   1.875   4.662 -0.7811 -0.4591 -0.2803
 8062SOL    HW231980   1.635   1.847   4.713 -1.2030  0.0814  0.6568
 8062SOL    HW331981   1.557   1.815   4.587 -0.3304 -1.4613  0.4955
 8062SOL    MW431982   1.568   1.863   4.659  0.0969  0.0569 -0.6166
 8063SOL     OW31983   2.668   0.378   3.644  0.5983  0.5659  0.0456
 8063SOL    HW231984   2.629   0.333   3.569  2.5406  1.4128 -1.5502
 8063SOL    HW331985   2.644   0.324   3.719 -1.3164 -0.3757 -1.1532
 8063SOL    MW431986   2.660   0.365   3.644 -0.0541 -0.2599  0.0633
 8064SOL     OW31987   2.140   4.104   6.199  0.2706 -0.5554 -0.1844
 8064SOL    HW231988   2.056   4.140   6.229  1.5135 -0.1290  3.2827
 8064SOL    HW331989   2.122   4.013   6.179 -1.0468 -0.4739  0.5322
 8064SOL    MW431990   2.127   4.097   6.200  0.0104  0.1767  0.4797
 8065SOL     OW31991   2.200   0.642   4.963 -0.0853 -0.5433 -0.0208
 8065SOL    HW231992   2.154   0.713   5.007  4.2540  2.7400 -0.1201
 8065SOL    HW331993   2.212   0.672   4.873  0.9109 -1.8961 -0.3767
 8065SOL    MW431994   2.196   0.655   4.957  0.3523  0.3173 -0.6534
 8066SOL     OW31995   1.141   1.625   1.137 -0.0585 -0.5340 -0.7150
 8066SOL    HW231996   1.146   1.719   1.124  0.1918 -0.1932  1.4125
 8066SOL    HW331997   1.060   1.611   1.186  0.3080 -1.3230 -0.3075
 8066SOL    MW431998   1.131   1.636   1.142  0.0629  0.4770  0.5166
 8067SOL     OW31999   2.845   5.728   4.347  0.6481  0.0230 -0.0756
 8067SOL    HW232000   2.793   5.719   4.427  0.0244 -1.3220 -0.6032
 8067SOL    HW332001   2.845   5.822   4.328 -2.0388  0.0369 -0.3268
 8067SOL    MW432002   2.838   5.740   4.355 -0.1713 -0.0521 -0.2543
 8068SOL     OW32003   3.778   4.449   4.984 -0.0352  0.1545 -0.0660
 8068SOL    HW232004   3.734   4.490   5.059 -0.6028 -0.5059 -0.0323
 8068SOL    HW332005   3.707   4.424   4.925  0.2890 -0.8689 -0.0415
 8068SOL    MW432006   3.763   4.451   4.987 -0.4399  0.3201  0.0655
 8069SOL     OW32007   3.576   2.752   6.073 -0.4660 -0.3981 -0.1012
 8069SOL    HW232008   3.601   2.741   6.165 -1.9184 -1.0132  0.2498
 8069SOL    HW332009   3.659   2.764   6.027  0.3512 -0.9341  1.1760
 8069SOL    MW432010   3.590   2.752   6.079 -0.1710 -0.1633 -0.0345
 8070SOL     OW32011   4.391   0.260   1.845  0.3258 -0.2702 -0.3381
 8070SOL    HW232012   4.313   0.259   1.790  0.5372  1.4235 -0.7167
 8070SOL    HW332013   4.407   0.168   1.865 -1.4811 -0.6910 -0.6355
 8070SOL    MW432014   4.383   0.248   1.840 -0.2276 -0.0959 -0.9698
 8071SOL     OW32015   4.835   5.445   6.304  0.0165  0.2114 -0.3032
 8071SOL    HW232016   4.826   5.512   6.372 -1.8040 -1.3370  1.0972
 8071SOL    HW332017   4.918   5.402   6.324  1.1489  1.8584 -1.1410
 8071SOL    MW432018   4.845   5.448   6.316  0.2700 -0.1002 -0.4027
 8072SOL     OW32019   5.460   5.575   5.752 -0.3560 -0.0787 -0.1642
 8072SOL    HW232020   5.393   5.630   5.710  0.2433  0.8016  0.0071
 8072SOL    HW332021   5.456   5.493   5.703  1.7891  1.5759 -3.5320
 8072SOL    MW432022   5.450   5.572   5.740 -0.3288  0.0630 -0.2125
 8073SOL     OW32023   4.418   2.977   0.873 -0.7798 -0.4401  0.6063
 8073SOL    HW232024   4.328   2.948   0.860 -1.2205  0.1503  2.1484
 8073SOL    HW332025   4.421   3.065   0.836 -1.0608 -0.1517  1.2576
 8073SOL    MW432026   4.407   2.985   0.866 -0.2158  0.3302  0.2483
 8074SOL     OW32027   1.762   3.859   4.953 -0.6334  0.1120  0.2095
 8074SOL    HW232028   1.784   3.880   5.044  0.5137 -1.5020  0.3413
 8074SOL    HW332029   1.798   3.932   4.903  1.3549 -0.3673  0.8344
 8074SOL    MW432030   1.770   3.872   4.958  0.1672 -0.4598 -0.0280
 8075SOL     OW32031   3.467   2.676   5.148  0.2231  0.0876  0.1363
 8075SOL    HW232032   3.379   2.671   5.109  0.7982  0.4696 -1.2683
 8075SOL    HW332033   3.523   2.704   5.076  1.4081  0.4361  1.1740
 8075SOL    MW432034   3.463   2.679   5.133 -0.8013 -0.2665 -0.6884
 8076SOL     OW32035   2.345   3.252   0.605 -0.3822  0.1238 -0.0367
 8076SOL    HW232036   2.342   3.157   0.594 -0.3853  0.0996  0.1610
 8076SOL    HW332037   2.407   3.265   0.677 -0.8209  0.2389  0.3261
 8076SOL    MW432038   2.353   3.241   0.613  0.0284 -0.1976 -0.4536
 8077SOL     OW32039   5.775   6.060   1.707  0.2244  0.5077  0.3182
 8077SOL    HW232040   5.870   6.058   1.696  0.7325 -2.5309  3.3543
 8077SOL    HW332041   5.763   6.064   1.802 -2.6390 -0.2874  0.0691
 8077SOL    MW432042   5.786   6.060   1.718  0.2889  0.0642 -0.4603
 8078SOL     OW32043   2.241   3.146   2.854  0.0976  0.3600  0.1909
 8078SOL    HW232044   2.217   3.128   2.945  2.0981 -2.3415  0.3041
 8078SOL    HW332045   2.334   3.125   2.850 -0.1900 -0.7199 -2.7343
 8078SOL    MW432046   2.250   3.141   2.866  0.6320  0.1731  0.6441
 8079SOL     OW32047   2.784   1.083   1.749  0.2853 -0.2390 -0.2173
 8079SOL    HW232048   2.851   1.104   1.814 -0.1182  2.6894 -0.5865
 8079SOL    HW332049   2.719   1.033   1.797  1.9091 -1.7180  0.5453
 8079SOL    MW432050   2.784   1.079   1.764  0.4092 -0.5212 -0.0761
 8080SOL     OW32051   5.648   4.846   5.450 -0.2534  0.0453 -0.3460
 8080SOL    HW232052   5.611   4.759   5.433  0.9750 -0.6104  0.1579
 8080SOL    HW332053   5.582   4.890   5.503 -1.4469 -0.1001 -1.6677
 8080SOL    MW432054   5.634   4.840   5.455 -0.5722  0.0451 -0.0221
 8081SOL     OW32055   5.994   6.092   0.299  0.1876 -0.1313 -0.5485
 8081SOL    HW232056   6.055   6.149   0.344 -1.9428  1.7423  0.1330
 8081SOL    HW332057   5.998   6.120   0.207  0.0152  0.3239 -0.4194
 8081SOL    MW432058   6.002   6.103   0.293  0.4650  0.3538  0.2891
 8082SOL     OW32059   1.644   1.708   1.119  0.3755 -0.0262 -0.1973
 8082SOL    HW232060   1.692   1.661   1.051  0.5116 -1.3028  0.7440
 8082SOL    HW332061   1.712   1.732   1.183  0.0813  0.0476  0.0910
 8082SOL    MW432062   1.660   1.705   1.119 -0.4021  0.3073 -0.4111
 8083SOL     OW32063   4.025   0.771   5.039 -0.2401  0.2659 -0.7303
 8083SOL    HW232064   4.069   0.821   4.970 -1.3117 -0.0483 -1.6588
 8083SOL    HW332065   3.945   0.738   4.998 -0.9323  0.1277  0.6923
 8083SOL    MW432066   4.021   0.773   5.025  0.3947 -0.4618 -0.0174
 8084SOL     OW32067   4.101   6.339   1.703 -0.4362 -0.4983 -0.0517
 8084SOL    HW232068   4.067   6.403   1.641 -1.0741 -2.0429 -1.3706
 8084SOL    HW332069   4.172   6.295   1.655 -1.3850 -2.1763  0.0283
 8084SOL    MW432070   4.106   6.341   1.688  0.0080  0.0612  0.1191
 8085SOL     OW32071   1.961   0.037   3.180  0.0366 -0.0418  0.4394
 8085SOL    HW232072   1.921   0.121   3.198  0.0413  0.3625 -1.2557
 8085SOL    HW332073   2.055   0.055   3.180  0.0113  0.2309 -1.0012
 8085SOL    MW432074   1.968   0.050   3.183 -0.4445 -0.5289 -0.0945
 8086SOL     OW32075   2.180   2.957   4.283 -0.7040 -0.4073  0.2231
 8086SOL    HW232076   2.244   3.004   4.337 -2.2896  1.7809  0.2760
 8086SOL    HW332077   2.185   2.999   4.198 -1.1482 -1.1212 -0.1650
 8086SOL    MW432078   2.189   2.969   4.279 -0.6374 -0.4597 -0.0017
 8087SOL     OW32079   0.083   0.486   5.219  0.4072 -0.3909 -0.1754
 8087SOL    HW232080   0.029   0.557   5.185  1.2774  0.9921  1.1699
 8087SOL    HW332081   0.058   0.409   5.168 -1.9732  0.4418 -0.3682
 8087SOL    MW432082   0.073   0.485   5.208  0.6849 -0.3403 -0.5036
 8088SOL     OW32083   1.457   1.813   1.846 -0.0296  0.2757  0.2083
 8088SOL    HW232084   1.391   1.880   1.833 -0.6587 -0.5428 -1.0063
 8088SOL    HW332085   1.408   1.733   1.865  0.5081 -0.5480 -1.5894
 8088SOL    MW432086   1.442   1.811   1.847  0.5192 -0.2621  0.5411
 8089SOL     OW32087   1.989   0.454   3.459 -0.0312  0.2712  0.7328
 8089SOL    HW232088   2.013   0.547   3.460 -1.4923  0.6751  0.6747
 8089SOL    HW332089   1.900   0.452   3.494  0.4460 -1.2709  1.9870
 8089SOL    MW432090   1.980   0.466   3.464 -0.3122 -0.3156  0.6552
 8090SOL     OW32091   5.531   6.374   1.828  0.6155  0.0729 -0.4474
 8090SOL    HW232092   5.457   6.359   1.769 -0.3312 -1.5687  1.0718
 8090SOL    HW332093   5.607   6.343   1.780  0.1087  0.2541 -1.4007
 8090SOL    MW432094   5.531   6.368   1.814 -0.5559  0.6080 -1.0046
 8091SOL     OW32095   3.252   5.164   1.247 -0.2105 -0.1800  0.0350
 8091SOL    HW232096   3.308   5.228   1.291 -0.4118  0.4997 -0.6810
 8091SOL    HW332097   3.189   5.137   1.315  0.9943 -0.9990  0.8595
 8091SOL    MW432098   3.251   5.169   1.262  0.7517 -0.0482  0.0816
 8092SOL     OW32099   1.939   2.362   6.279  0.2697  0.5055 -0.6250
 8092SOL    HW232100   2.034   2.371   6.279  0.5278 -1.6761 -0.0178
 8092SOL    HW332101   1.924   2.270   6.303 -2.0064  0.9668 -0.1103
 8092SOL    MW432102   1.950   2.351   6.282 -0.2953  0.1418 -0.1535
 8093SOL     OW32103   2.384   1.749   3.401 -0.1204 -0.1441  0.2915
 8093SOL    HW232104   2.373   1.654   3.392  0.3841 -0.2222  0.4678
 8093SOL    HW332105   2.295   1.783   3.404 -0.3062 -0.5957  0.0573
 8093SOL    MW432106   2.371   1.741   3.400  0.1557  0.1775 -0.0250
 8094SOL     OW32107   6.055   0.858   5.664  0.1183  0.1215  0.0002
 8094SOL    HW232108   6.050   0.944   5.622  1.6053  0.3570  0.2638
 8094SOL    HW332109   6.122   0.867   5.732  2.2009 -1.8769 -1.5970
 8094SOL    MW432110   6.063   0.870   5.667 -0.4518  0.0839  0.1277
 8095SOL     OW32111   1.968   0.339   0.680  0.4592 -0.2160 -0.0867
 8095SOL    HW232112   1.913   0.305   0.751  1.1050  1.0562  1.0777
 8095SOL    HW332113   1.923   0.419   0.652  0.9680  0.0606 -0.1179
 8095SOL    MW432114   1.955   0.345   0.686  0.0274 -0.3561 -0.5054
 8096SOL     OW32115   0.746   2.056   4.651 -0.4957 -0.0044 -0.3009
 8096SOL    HW232116   0.762   2.150   4.641  1.0711 -0.1441  0.5248
 8096SOL    HW332117   0.831   2.016   4.631 -0.8487 -1.1608  0.4608
 8096SOL    MW432118   0.759   2.063   4.647  0.0717 -0.4365  0.1797
 8097SOL     OW32119   2.553   4.293   1.735 -0.0939  0.2225  0.2229
 8097SOL    HW232120   2.633   4.344   1.720  0.3859 -0.7346 -0.5329
 8097SOL    HW332121   2.491   4.328   1.672  0.3618 -0.3749 -0.5781
 8097SOL    MW432122   2.556   4.305   1.724 -0.3861 -0.0251  0.2454
 8098SOL     OW32123   0.996   4.006   2.131  0.1915 -0.2258  0.0520
 8098SOL    HW232124   1.033   4.027   2.217  0.5500  1.1093 -0.4187
 8098SOL    HW332125   0.914   3.961   2.151 -0.0745  0.6848  1.0960
 8098SOL    MW432126   0.990   4.003   2.145  0.3332 -0.0572  0.2290
 8099SOL     OW32127   2.901   4.264   2.277  0.0039  0.2706  0.3524
 8099SOL    HW232128   2.840   4.191   2.271  0.2757  0.1334 -0.9685
 8099SOL    HW332129   2.929   4.263   2.369  1.1873 -2.2939  0.0725
 8099SOL    MW432130   2.897   4.254   2.288 -0.0421 -0.1546 -0.9129
 8100SOL     OW32131   2.308   5.008   3.511  0.2471  0.1927  0.2254
 8100SOL    HW232132   2.385   4.973   3.467  0.6254  1.4649 -0.1658
 8100SOL    HW332133   2.336   5.023   3.602  0.8946  1.8155 -0.1932
 8100SOL    MW432134   2.322   5.006   3.517  0.8979  0.0925 -0.0116
 8101SOL     OW32135   2.516   3.965   0.100 -0.1367 -0.3129  0.3544
 8101SOL    HW232136   2.476   3.909   0.034 -1.5368  0.4985  0.4668
 8101SOL    HW332137   2.448   3.973   0.168  0.7878 -0.0915  1.2767
 8101SOL    MW432138   2.501   3.958   0.100 -0.4497  0.1448 -0.3051
 8102SOL     OW32139   3.557   3.118   2.912 -0.2168  0.1915  0.0392
 8102SOL    HW232140   3.587   3.166   2.989  0.8438  0.8362 -0.7354
 8102SOL    HW332141   3.622   3.048   2.900 -1.0119 -0.6314  0.3784
 8102SOL    MW432142   3.570   3.115   2.920  0.9596  0.1171 -0.0028
 8103SOL     OW32143   2.846   3.435   1.789  0.1363 -0.4161  0.2355
 8103SOL    HW232144   2.757   3.472   1.788  0.6216  0.8186  0.9834
 8103SOL    HW332145   2.887   3.473   1.867  1.7434  0.0183 -0.7771
 8103SOL    MW432146   2.839   3.445   1.799 -0.7985 -0.0740  0.3635
 8104SOL     OW32147   3.006   2.900   4.671  0.2893 -0.3476  0.0850
 8104SOL    HW232148   2.993   2.938   4.584  1.5106 -1.0833 -0.4393
 8104SOL    HW332149   2.978   2.969   4.731 -1.2771 -0.0934 -0.8689
 8104SOL    MW432150   3.000   2.914   4.668 -0.3661 -0.2746  0.6411
 8105SOL     OW32151   1.352   5.046   6.211 -0.0593 -0.5691  0.4263
 8105SOL    HW232152   1.446   5.033   6.216  0.2699  1.0481 -0.5804
 8105SOL    HW332153   1.331   5.035   6.118 -0.6010  0.4946  0.4076
 8105SOL    MW432154   1.361   5.043   6.199 -0.3444  0.1059  0.0925
 8106SOL     OW32155   5.759   4.930   0.501  0.4894 -0.0486 -1.2015
 8106SOL    HW232156   5.669   4.908   0.475  0.0884 -0.7007  0.5396
 8106SOL    HW332157   5.752   5.019   0.535  0.1801 -0.5333  0.1059
 8106SOL    MW432158   5.746   4.939   0.502 -0.1887  0.3795 -0.3725
 8107SOL     OW32159   0.354   0.364   1.720 -0.3202 -0.2006  0.2002
 8107SOL    HW232160   0.394   0.424   1.783  0.1411 -0.6624  0.3578
 8107SOL    HW332161   0.318   0.293   1.774 -2.2698  0.6914  0.1484
 8107SOL    MW432162   0.355   0.363   1.735  0.4534  0.1088  0.2478
 8108SOL     OW32163   5.523   2.836   3.080 -0.0631  0.3297 -0.9142
 8108SOL    HW232164   5.610   2.872   3.096 -0.3014  0.7942 -0.6700
 8108SOL    HW332165   5.509   2.773   3.151 -0.1424  0.6407 -0.6548
 8108SOL    MW432166   5.532   2.832   3.092 -0.4624 -0.0961 -0.3586
 8109SOL     OW32167   4.827   0.443   6.128  0.4463  0.1651  0.5435
 8109SOL    HW232168   4.818   0.390   6.048  1.7727  1.2717 -0.4066
 8109SOL    HW332169   4.879   0.388   6.187  1.7563  0.3176 -0.4054
 8109SOL    MW432170   4.833   0.429   6.125 -0.2367 -0.0042  0.2665
 8110SOL     OW32171   4.035   1.956   0.880  0.4309  0.1753  0.7535
 8110SOL    HW232172   3.981   2.016   0.930  0.8018  1.9731 -0.8930
 8110SOL    HW332173   3.981   1.877   0.871 -1.0124  1.1022  1.0104
 8110SOL    MW432174   4.020   1.953   0.885  0.4351  0.4129  0.4208
 8111SOL     OW32175   6.065   2.543   0.867  0.6222  0.1598  0.5595
 8111SOL    HW232176   6.034   2.457   0.896  0.0896 -0.5460 -1.8698
 8111SOL    HW332177   6.020   2.605   0.925 -1.3956 -1.0832  0.4334
 8111SOL    MW432178   6.055   2.540   0.878  0.2108 -0.0329 -0.3496
 8112SOL     OW32179   1.497   4.089   0.166  0.1030  0.0913 -0.0985
 8112SOL    HW232180   1.503   4.016   0.104  0.9071 -0.7178  0.8817
 8112SOL    HW332181   1.510   4.048   0.252 -0.0629  1.3103  0.5280
 8112SOL    MW432182   1.500   4.074   0.169 -0.5941 -0.8962 -0.0699
 8113SOL     OW32183   0.204   1.094   4.594  0.4093 -0.5105 -0.1073
 8113SOL    HW232184   0.298   1.113   4.600  1.1329 -3.2819 -1.0775
 8113SOL    HW332185   0.190   1.022   4.656 -1.2233  0.2298  0.4357
 8113SOL    MW432186   0.214   1.087   4.603 -0.5520  0.6496  0.4206
 8114SOL     OW32187   3.993   2.582   6.312 -0.1841 -0.4600 -0.6995
 8114SOL    HW232188   3.943   2.566   6.232  0.0062  1.2484 -1.2160
 8114SOL    HW332189   3.967   2.671   6.338  2.1405  0.2891 -0.6943
 8114SOL    MW432190   3.983   2.592   6.305 -0.1329  0.1787  0.5469
 8115SOL     OW32191   1.732   6.335   3.068 -0.0584  0.4037 -0.1721
 8115SOL    HW232192   1.743   6.336   2.973 -1.7101 -0.2617 -0.3939
 8115SOL    HW332193   1.813   6.373   3.101  0.8981 -0.0946 -1.8052
 8115SOL    MW432194   1.744   6.340   3.060  0.0303 -0.8310  0.0026
 8116SOL     OW32195   0.610   3.007   2.508  0.0493 -0.0981 -0.2645
 8116SOL    HW232196   0.667   3.081   2.486  0.4055  0.1621  1.4094
 8116SOL    HW332197   0.603   2.957   2.427 -1.8159  2.7920 -2.0322
 8116SOL    MW432198   0.617   3.010   2.495  0.5560 -0.1925  0.5510
 8117SOL     OW32199   3.008   6.065   4.878 -0.8992 -0.3804  0.4466
 8117SOL    HW232200   2.966   6.143   4.915 -2.0127 -0.1497 -1.2095
 8117SOL    HW332201   2.969   5.992   4.926  0.6010  0.0357  2.4453
 8117SOL    MW432202   2.997   6.066   4.890 -0.2960  0.1798  0.2325
 8118SOL     OW32203   1.155   6.079   0.937 -0.0793  0.3455 -0.0737
 8118SOL    HW232204   1.250   6.065   0.930 -0.1503 -0.5610  0.6159
 8118SOL    HW332205   1.120   6.050   0.853  0.1094 -0.7575  0.2140
 8118SOL    MW432206   1.163   6.073   0.925 -0.3304  0.4405 -0.0936
 8119SOL     OW32207   0.384   5.097   2.398  1.1398 -0.0937 -0.0439
 8119SOL    HW232208   0.399   5.140   2.314  1.0034 -1.6648 -0.9151
 8119SOL    HW332209   0.443   5.141   2.459  0.1291  2.1219 -0.5774
 8119SOL    MW432210   0.394   5.108   2.395 -0.4663  0.1763  0.8302
 8120SOL     OW32211   3.169   3.731   3.386  0.4273  0.3663  0.5171
 8120SOL    HW232212   3.203   3.651   3.426 -0.5939  0.6205  1.9989
 8120SOL    HW332213   3.128   3.778   3.459  2.2729  2.9716 -0.0067
 8120SOL    MW432214   3.168   3.727   3.401  0.3184 -0.3936 -0.2427
 8121SOL     OW32215   6.316   3.626   0.958 -0.1942  0.6010  0.1714
 8121SOL    HW232216   6.312   3.700   0.897  0.4742 -0.5272 -1.3265
 8121SOL    HW332217   6.361   3.660   1.035  0.8754  1.5514 -0.8322
 8121SOL    MW432218   6.321   3.640   0.960 -0.0561 -0.0370  0.2672
 8122SOL     OW32219   4.779   3.377   4.165  0.0742  0.8025  0.0104
 8122SOL    HW232220   4.797   3.426   4.084  2.8295 -0.4737 -0.2594
 8122SOL    HW332221   4.841   3.412   4.229 -1.4959  1.2001  1.3905
 8122SOL    MW432222   4.789   3.388   4.163 -0.3785 -0.1810 -0.6096
 8123SOL     OW32223   2.031   3.651   1.875  0.2197 -0.4161  0.2902
 8123SOL    HW232224   1.984   3.629   1.955  0.6106  1.8416  1.2066
 8123SOL    HW332225   1.996   3.736   1.848 -1.0937 -1.8303 -2.9289
 8123SOL    MW432226   2.020   3.659   1.882 -0.1182  0.4374 -0.0431
 8124SOL     OW32227   6.159   4.832   0.533  0.1187  0.0197  0.7034
 8124SOL    HW232228   6.093   4.881   0.582 -1.0196  0.6202 -1.3247
 8124SOL    HW332229   6.237   4.887   0.537 -0.9173  1.7225 -0.8881
 8124SOL    MW432230   6.161   4.845   0.540  0.9030 -0.5673  0.0382
 8125SOL     OW32231   1.577   6.263   4.357  0.2303  0.3973  0.4413
 8125SOL    HW232232   1.562   6.350   4.320  1.7659  0.1757 -0.8231
 8125SOL    HW332233   1.665   6.266   4.393  0.6432 -0.8531 -0.3745
 8125SOL    MW432234   1.587   6.275   4.357  0.1275 -0.1778 -0.5263
 8126SOL     OW32235   4.891   2.735   1.243  0.1613  0.5460  0.4019
 8126SOL    HW232236   4.917   2.824   1.218  1.2211  0.3596  0.7843
 8126SOL    HW332237   4.953   2.678   1.197 -1.8663 -0.1708 -1.6738
 8126SOL    MW432238   4.903   2.739   1.234  0.2185  0.2401 -0.5786
 8127SOL     OW32239   1.549   6.411   5.196  0.2506  0.3711 -0.0780
 8127SOL    HW232240   1.576   6.430   5.106 -1.3216  0.9136 -0.4530
 8127SOL    HW332241   1.459   6.441   5.202 -0.3113 -1.3713  1.1335
 8127SOL    MW432242   1.541   6.417   5.185  0.2721  0.2703  0.4602
 8128SOL     OW32243   3.229   2.467   0.840 -0.0168 -0.3111 -0.2463
 8128SOL    HW232244   3.230   2.546   0.785 -1.0476 -1.1157 -1.4876
 8128SOL    HW332245   3.263   2.496   0.924 -0.9967  1.6354 -0.4562
 8128SOL    MW432246   3.234   2.481   0.844  0.0573  0.0742 -0.1683
 8129SOL     OW32247   4.778   4.599   1.911  0.1430  0.3265 -0.4825
 8129SOL    HW232248   4.841   4.621   1.843  0.0229  1.8019 -0.1471
 8129SOL    HW332249   4.703   4.563   1.863  0.4825  0.3382 -1.0316
 8129SOL    MW432250   4.776   4.597   1.896 -0.0219  0.0651 -0.0658
 8130SOL     OW32251   0.867   5.705   6.250  0.6733  0.0891 -0.4328
 8130SOL    HW232252   0.925   5.665   6.315  1.2805  0.9762 -0.4107
 8130SOL    HW332253   0.860   5.796   6.276 -0.4201  0.0922 -0.6818
 8130SOL    MW432254   0.874   5.712   6.262 -0.2053 -0.2121  0.4486
 8131SOL     OW32255   5.257   1.624   5.637 -0.2657  0.5235  0.1740
 8131SOL    HW232256   5.191   1.692   5.621  1.3181  2.4251  1.1960
 8131SOL    HW332257   5.226   1.580   5.716 -0.7708  0.7785  0.1258
 8131SOL    MW432258   5.244   1.627   5.646  0.2685 -0.2621 -0.0792
 8132SOL     OW32259   4.705   4.381   2.838 -0.0224  0.0142 -0.0987
 8132SOL    HW232260   4.797   4.394   2.817  0.0568 -0.0508  0.2016
 8132SOL    HW332261   4.658   4.427   2.769  0.2090 -1.1465 -1.0747
 8132SOL    MW432262   4.711   4.388   2.826 -0.1052  0.3133 -0.2273
 8133SOL     OW32263   6.221   4.189   1.647 -0.1309  0.0021  0.1433
 8133SOL    HW232264   6.226   4.231   1.561  0.8272  0.0458  0.2004
 8133SOL    HW332265   6.278   4.112   1.639 -1.6712 -1.1913  0.1053
 8133SOL    MW432266   6.229   4.184   1.635 -0.0288  0.0935  0.1585
 8134SOL     OW32267   5.119   2.831   1.649  0.5441  0.0824  0.3174
 8134SOL    HW232268   5.165   2.884   1.584  0.7967 -0.7605 -0.1953
 8134SOL    HW332269   5.044   2.794   1.602 -0.0645  0.5831  0.8708
 8134SOL    MW432270   5.115   2.833   1.635 -0.2941  0.3560 -0.3272
 8135SOL     OW32271   5.072   3.080   0.895 -0.0383  0.1060  0.3750
 8135SOL    HW232272   4.992   3.117   0.931 -1.0628 -1.4183 -0.2106
 8135SOL    HW332273   5.050   3.059   0.804  1.0441 -0.2661  0.1831
 8135SOL    MW432274   5.058   3.082   0.888 -0.1712  0.0132 -0.0432
 8136SOL     OW32275   1.109   2.747   1.756 -0.2179 -0.3960 -0.1661
 8136SOL    HW232276   1.201   2.754   1.730 -0.1552  0.6129  0.2636
 8136SOL    HW332277   1.081   2.662   1.723 -0.3231  0.9509 -4.1655
 8136SOL    MW432278   1.118   2.737   1.748 -0.2250  0.4961  0.4072
 8137SOL     OW32279   2.183   4.338   6.030  0.1117  0.9211 -0.3774
 8137SOL    HW232280   2.127   4.275   6.075  0.5569  0.8873  0.1408
 8137SOL    HW332281   2.268   4.295   6.025  0.7883  2.0037  1.2057
 8137SOL    MW432282   2.187   4.324   6.035  0.5589 -0.6055  0.2152
 8138SOL     OW32283   2.876   2.942   3.064 -0.4242 -0.3998  0.3857
 8138SOL    HW232284   2.835   2.901   2.987 -0.1090  0.6005 -0.3376
 8138SOL    HW332285   2.953   2.889   3.081  0.5811  0.4820 -1.2194
 8138SOL    MW432286   2.881   2.929   3.056 -0.1222 -0.7722 -0.1060
 8139SOL     OW32287   2.814   0.792   3.426  0.0134 -0.6586 -0.4806
 8139SOL    HW232288   2.868   0.740   3.366  0.2087  0.4408 -1.3023
 8139SOL    HW332289   2.746   0.732   3.455  0.6347 -1.5731 -0.8381
 8139SOL    MW432290   2.812   0.777   3.422  0.2615 -0.1510 -0.3533
 8140SOL     OW32291   0.917   5.863   3.412 -0.3459 -0.2126 -0.3289
 8140SOL    HW232292   0.857   5.863   3.337  0.7428  1.9572 -1.2858
 8140SOL    HW332293   0.993   5.812   3.382 -0.3151 -0.1510 -0.3563
 8140SOL    MW432294   0.919   5.857   3.398  0.5374  0.1216 -0.3834
 8141SOL     OW32295   5.398   3.555   0.018 -0.1019  0.4755 -0.0780
 8141SOL    HW232296   5.456   3.531   0.091 -0.9734 -2.9482 -0.3394
 8141SOL    HW332297   5.446   3.527  -0.060 -0.9999  0.0392 -0.4811
 8141SOL    MW432298   5.412   3.548   0.018 -0.2164  0.3857  0.2776
 8142SOL     OW32299   0.380   6.418   4.072 -0.5055 -0.5628  0.1929
 8142SOL    HW232300   0.435   6.351   4.031 -0.2232  0.0828 -0.5050
 8142SOL    HW332301   0.291   6.387   4.057 -0.3787 -0.7761 -0.1345
 8142SOL    MW432302   0.375   6.405   4.065 -0.5655 -0.0247  0.1781
 8143SOL     OW32303   4.793   6.041   1.852  0.4970  0.1101 -0.1849
 8143SOL    HW232304   4.818   5.949   1.865  1.6787  0.2487 -1.3153
 8143SOL    HW332305   4.798   6.054   1.758  1.1313  1.5582  0.0200
 8143SOL    MW432306   4.797   6.030   1.841 -0.2188 -0.3149  0.2638
 8144SOL     OW32307   5.912   1.992   3.481 -0.1090  0.0384 -0.4902
 8144SOL    HW232308   5.932   1.978   3.574  0.9777 -2.5336 -1.0168
 8144SOL    HW332309   5.833   2.046   3.482  0.5652  1.1410  1.8820
 8144SOL    MW432310   5.904   1.997   3.493  0.2329  0.2218  0.8766
 8145SOL     OW32311   2.278   2.241   0.449 -0.3364  0.5180  0.0011
 8145SOL    HW232312   2.263   2.243   0.544 -1.2027 -0.6629 -0.0856
 8145SOL    HW332313   2.372   2.227   0.440 -0.3864 -0.3806  0.7152
 8145SOL    MW432314   2.289   2.240   0.461 -0.1497 -0.2872  0.0356
 8146SOL     OW32315   4.276   0.302   1.202  0.2570  0.0922  0.1531
 8146SOL    HW232316   4.282   0.304   1.106  0.8491  0.5453  0.1916
 8146SOL    HW332317   4.185   0.278   1.220  0.3936 -0.9496 -0.5136
 8146SOL    MW432318   4.265   0.299   1.192 -0.3389  0.3663  0.0624
 8147SOL     OW32319   2.304   5.873   5.320 -0.0001 -0.0263 -0.1986
 8147SOL    HW232320   2.331   5.940   5.256  0.0237 -1.7342 -2.0769
 8147SOL    HW332321   2.209   5.882   5.325 -0.0320 -0.0397 -0.6901
 8147SOL    MW432322   2.295   5.883   5.312 -0.3499 -0.5987 -0.1132
 8148SOL     OW32323   2.993   0.807   0.396  0.2822  0.0604  0.8636
 8148SOL    HW232324   3.074   0.761   0.421  0.8374  0.4584 -0.1313
 8148SOL    HW332325   3.018   0.858   0.319 -1.6882 -2.2770 -1.5064
 8148SOL    MW432326   3.007   0.808   0.389 -0.0960  0.5359  0.1515
 8149SOL     OW32327   2.245   5.167   0.246  0.6404  0.3773 -0.3134
 8149SOL    HW232328   2.204   5.245   0.283  1.7133  0.7151  0.1891
 8149SOL    HW332329   2.179   5.133   0.185 -1.0084  0.0386  1.5421
 8149SOL    MW432330   2.231   5.173   0.243  0.1956  0.2593  0.1447
 8150SOL     OW32331   5.903   1.406   6.065  0.0611 -0.1794 -0.2709
 8150SOL    HW232332   5.871   1.447   5.985  2.4081  0.1635 -1.1179
 8150SOL    HW332333   5.880   1.313   6.055 -0.0062 -0.0724 -1.1528
 8150SOL    MW432334   5.896   1.399   6.053 -0.7963 -0.6453 -0.3025
 8151SOL     OW32335   2.491   1.521   3.116  0.3319  0.3978  0.1405
 8151SOL    HW232336   2.536   1.606   3.110  0.5595  0.2864  0.2332
 8151SOL    HW332337   2.436   1.518   3.038 -0.0473  0.8381  0.3816
 8151SOL    MW432338   2.490   1.532   3.105 -0.1257 -0.0756  0.0263
 8152SOL     OW32339   1.400   6.428   5.979  0.3523 -0.2758 -0.0473
 8152SOL    HW232340   1.337   6.433   5.906  0.0164  2.9609  0.3187
 8152SOL    HW332341   1.352   6.462   6.054  0.8677 -3.0724  1.6919
 8152SOL    MW432342   1.385   6.433   5.979  0.8263 -0.3740 -0.1399
 8153SOL     OW32343   2.233   0.015   3.079 -0.2640  0.0384 -0.0348
 8153SOL    HW232344   2.231   0.107   3.051 -1.6797 -0.7002 -2.6679
 8153SOL    HW332345   2.317  -0.018   3.045  0.2860  0.3364  0.9885
 8153SOL    MW432346   2.244   0.023   3.071  0.3193 -1.2099 -0.0962
 8154SOL     OW32347   0.211   6.114   5.233  0.3369 -0.1614  0.1427
 8154SOL    HW232348   0.270   6.051   5.275  0.4873 -0.4185 -0.4375
 8154SOL    HW332349   0.127   6.069   5.229  0.6747 -0.7430 -1.1648
 8154SOL    MW432350   0.208   6.100   5.238  0.0127  0.1170  0.1787
 8155SOL     OW32351   3.358   1.450   4.954  0.3092 -0.4795 -0.1525
 8155SOL    HW232352   3.352   1.357   4.976  0.6613  0.0276  2.3855
 8155SOL    HW332353   3.442   1.458   4.908  1.3579 -1.1458  1.5389
 8155SOL    MW432354   3.368   1.439   4.951 -0.3661  0.0623  0.4261
 8156SOL     OW32355   2.922   5.798   2.331 -0.2614  0.4100 -0.1343
 8156SOL    HW232356   2.987   5.862   2.303 -0.5950  0.5040 -0.7038
 8156SOL    HW332357   2.844   5.849   2.349 -0.5594  0.1569 -0.6925
 8156SOL    MW432358   2.921   5.813   2.330  0.1991  0.1681  0.1244
 8157SOL     OW32359   3.216   3.340   1.759  0.3316  0.3869 -0.3158
 8157SOL    HW232360   3.186   3.249   1.751  1.4002  0.0883 -1.0705
 8157SOL    HW332361   3.311   3.335   1.754  0.4341  1.4978  0.2398
 8157SOL    MW432362   3.224   3.328   1.757  0.1704 -0.2169 -0.0890
 8158SOL     OW32363   5.052   5.926   0.298  0.1623  0.5703 -0.3299
 8158SOL    HW232364   5.013   5.839   0.285  0.1950  0.6124 -0.7053
 8158SOL    HW332365   5.055   5.965   0.211  3.8864 -0.6397 -0.9319
 8158SOL    MW432366   5.047   5.919   0.285 -0.0813  0.2559 -0.1680
 8159SOL     OW32367   3.776   2.809   0.281  0.2570  0.1552  0.5906
 8159SOL    HW232368   3.837   2.817   0.355  0.7525 -0.4004  0.2536
 8159SOL    HW332369   3.742   2.720   0.288  1.5656 -0.5048 -0.7723
 8159SOL    MW432370   3.780   2.799   0.292 -0.2899 -0.0814  0.1071
 8160SOL     OW32371   1.618   2.581   1.856 -0.1510  0.5550  0.2074
 8160SOL    HW232372   1.615   2.550   1.766  0.0237 -1.9617  0.9884
 8160SOL    HW332373   1.564   2.660   1.857 -0.4685  0.4126 -1.9928
 8160SOL    MW432374   1.611   2.588   1.844 -0.5944  0.5084 -0.2208
 8161SOL     OW32375   6.037   1.505   5.528 -0.3524  0.5614  0.3643
 8161SOL    HW232376   5.955   1.459   5.544  0.4368 -0.4240  1.7532
 8161SOL    HW332377   6.089   1.491   5.607  1.1554  1.1820 -0.4712
 8161SOL    MW432378   6.033   1.497   5.540 -0.3774 -0.0840  0.0894
 8162SOL     OW32379   5.846   3.537   6.331 -0.0687  0.0611  0.1080
 8162SOL    HW232380   5.836   3.629   6.307 -3.2892  0.2001  1.4162
 8162SOL    HW332381   5.853   3.538   6.427  0.9645 -1.0377  0.0716
 8162SOL    MW432382   5.845   3.549   6.340  0.0539 -1.0946 -0.0978
 8163SOL     OW32383   4.874   2.571   0.140  0.0664  0.2855  0.6372
 8163SOL    HW232384   4.840   2.632   0.075  1.2177  1.9246  1.4959
 8163SOL    HW332385   4.800   2.515   0.163 -0.3058 -0.5829 -2.2663
 8163SOL    MW432386   4.860   2.571   0.135 -0.3762  0.6726  0.4030
 8164SOL     OW32387   4.811   4.003   3.461  0.2572  0.4654  0.2947
 8164SOL    HW232388   4.803   4.022   3.555  1.8081  0.3932  0.4760
 8164SOL    HW332389   4.722   4.009   3.427 -0.3003  0.7091  1.7341
 8164SOL    MW432390   4.798   4.006   3.469  0.2710  0.3674  0.6030
 8165SOL     OW32391   0.090   5.095   2.275 -0.6778 -0.2020 -0.1181
 8165SOL    HW232392   0.155   5.151   2.316  2.1511 -0.5127 -3.6412
 8165SOL    HW332393   0.009   5.146   2.278  0.5231  1.7399  1.4421
 8165SOL    MW432394   0.088   5.110   2.281  0.0395 -0.3617  0.6789
 8166SOL     OW32395   4.670   2.584   4.101  0.3190  0.5022 -0.2080
 8166SOL    HW232396   4.765   2.571   4.099  0.5341  1.2780  2.2365
 8166SOL    HW332397   4.635   2.496   4.114  0.8169  0.3815  0.3924
 8166SOL    MW432398   4.678   2.571   4.102 -0.3998  0.1723 -0.0935
 8167SOL     OW32399   6.353   2.540   5.119  0.0617  0.0927  0.2707
 8167SOL    HW232400   6.441   2.557   5.084 -0.2553 -0.2716 -0.7591
 8167SOL    HW332401   6.350   2.588   5.201  1.2256  0.1169  0.3176
 8167SOL    MW432402   6.365   2.549   5.125  0.1003  0.0120  0.5863
 8168SOL     OW32403   4.872   0.427   2.649  0.1962 -0.0871  0.5701
 8168SOL    HW232404   4.891   0.395   2.561 -0.3393 -0.7986  0.7093
 8168SOL    HW332405   4.807   0.496   2.636 -0.1620 -0.4470  0.4359
 8168SOL    MW432406   4.866   0.432   2.636 -0.2920  0.0213  0.0956
 8169SOL     OW32407   0.304   0.494   0.493  0.2807  0.2417  0.6339
 8169SOL    HW232408   0.323   0.588   0.494 -0.3642  0.4380 -1.3725
 8169SOL    HW332409   0.377   0.456   0.444 -0.1127 -0.1133  0.3133
 8169SOL    MW432410   0.316   0.501   0.487  0.1866  0.3084 -0.1298
 8170SOL     OW32411   5.477   1.497   2.512 -0.0174 -0.1758  0.4381
 8170SOL    HW232412   5.509   1.569   2.568  0.7493 -1.9629  2.4330
 8170SOL    HW332413   5.382   1.504   2.516  0.0411  0.3753  1.1013
 8170SOL    MW432414   5.469   1.508   2.520  0.3888  0.1977  0.0063
 8171SOL     OW32415   4.646   5.848   0.662 -0.1727 -0.0679  0.1446
 8171SOL    HW232416   4.616   5.935   0.637  0.3237 -0.3403 -1.4889
 8171SOL    HW332417   4.566   5.796   0.672 -0.4380  0.4002  0.4527
 8171SOL    MW432418   4.632   5.852   0.660 -0.1421  0.5048 -0.3902
 8172SOL     OW32419   3.034   4.350   4.882 -0.2065 -0.2695  0.1941
 8172SOL    HW232420   2.988   4.268   4.862 -0.6338  0.0598 -0.2033
 8172SOL    HW332421   2.992   4.415   4.826 -1.0945  0.5887  1.7893
 8172SOL    MW432422   3.022   4.347   4.872 -0.3644 -0.8751 -0.1468
 8173SOL     OW32423   1.806   5.510   0.149 -0.0096  0.0973  0.8323
 8173SOL    HW232424   1.746   5.464   0.091  2.0624  0.2002 -1.5898
 8173SOL    HW332425   1.751   5.569   0.199 -1.9783 -0.0889 -0.9582
 8173SOL    MW432426   1.791   5.512   0.148  0.3993 -0.4918  0.3583
 8174SOL     OW32427   5.833   4.816   5.671 -0.5449  0.0441 -0.1601
 8174SOL    HW232428   5.786   4.839   5.591  0.5207  0.7520 -0.6127
 8174SOL    HW332429   5.924   4.803   5.642  0.0318  1.1268  1.0294
 8174SOL    MW432430   5.839   4.818   5.657  0.4095 -0.4898  0.7384
 8175SOL     OW32431   6.178   0.024   6.144  0.1439 -0.0094  0.3322
 8175SOL    HW232432   6.200   0.107   6.102  0.6150 -0.3344 -0.0736
 8175SOL    HW332433   6.104   0.045   6.200 -0.6488  0.4025 -0.8153
 8175SOL    MW432434   6.171   0.038   6.146 -0.8621  0.0857  0.3728
 8176SOL     OW32435   3.184   0.354   0.193  0.1396  0.7330 -0.1011
 8176SOL    HW232436   3.189   0.267   0.153  2.1116  0.9572 -0.4363
 8176SOL    HW332437   3.220   0.342   0.281 -0.6395  1.0056  0.2648
 8176SOL    MW432438   3.189   0.341   0.200 -0.0611 -0.2636  0.2209
 8177SOL     OW32439   0.015   5.390   0.330 -0.4857 -0.3303 -0.1258
 8177SOL    HW232440  -0.036   5.310   0.336  0.7739 -1.1981 -0.4186
 8177SOL    HW332441   0.099   5.361   0.293  0.0469  1.1021 -0.0838
 8177SOL    MW432442   0.020   5.376   0.326 -0.4557  0.4683 -0.0982
 8178SOL     OW32443   3.058   2.417   1.970  0.3366  0.6827 -0.2663
 8178SOL    HW232444   3.047   2.475   1.895  0.3140 -0.6032 -1.2964
 8178SOL    HW332445   3.079   2.332   1.932 -2.5916 -0.7459  1.0335
 8178SOL    MW432446   3.060   2.414   1.955 -0.4077 -1.1592  0.0890
 8179SOL     OW32447   0.605   2.965   0.672  0.1296 -0.1805  0.0495
 8179SOL    HW232448   0.684   3.017   0.686  0.0721 -0.4611  1.5565
 8179SOL    HW332449   0.635   2.887   0.625  0.7993 -0.4341  0.8903
 8179SOL    MW432450   0.619   2.962   0.667 -0.1227 -0.0438 -0.4283
 8180SOL     OW32451   2.000   5.954   2.977 -0.2114 -0.3154 -0.3505
 8180SOL    HW232452   1.993   5.978   2.884  0.3410 -0.4549 -0.4330
 8180SOL    HW332453   2.074   6.005   3.009  0.1130 -0.8811 -0.1908
 8180SOL    MW432454   2.009   5.964   2.969 -0.2878 -0.1129  0.0259
 8181SOL     OW32455   5.793   5.459   6.133  0.3211 -0.2340  0.7193
 8181SOL    HW232456   5.874   5.418   6.104  1.0674  1.0547  0.8997
 8181SOL    HW332457   5.760   5.504   6.055 -0.1543 -0.6494  0.6788
 8181SOL    MW432458   5.799   5.459   6.119 -0.5069  0.3586 -0.6178
 8182SOL     OW32459   2.475   0.040   1.270  0.1366  0.6860 -0.0971
 8182SOL    HW232460   2.446  -0.051   1.271 -0.1937  0.7843 -0.4638
 8182SOL    HW332461   2.525   0.048   1.189 -0.6393  1.0730 -0.5491
 8182SOL    MW432462   2.478   0.029   1.259  0.0472 -0.1238  0.2812
 8183SOL     OW32463   5.221   4.056   2.232  0.8049 -0.0978 -0.7957
 8183SOL    HW232464   5.224   4.147   2.202 -0.2780  1.0267  2.1227
 8183SOL    HW332465   5.301   4.045   2.284 -0.2579  0.1194  0.9920
 8183SOL    MW432466   5.232   4.067   2.235 -0.2457  0.2043 -0.3833
 8184SOL     OW32467   4.352   4.499   5.571 -0.0351 -0.4133  0.2267
 8184SOL    HW232468   4.325   4.479   5.482 -2.4135 -1.5692  1.1185
 8184SOL    HW332469   4.369   4.594   5.570 -1.2532 -0.1675 -1.1669
 8184SOL    MW432470   4.351   4.509   5.559 -0.1804 -0.4247 -0.1169
 8185SOL     OW32471   4.929   3.260   5.665  0.2670  0.0751  0.3837
 8185SOL    HW232472   5.014   3.241   5.623  0.4353  0.2282  0.6520
 8185SOL    HW332473   4.896   3.175   5.693  0.0772 -0.0500 -0.2020
 8185SOL    MW432474   4.936   3.246   5.663 -0.2236  0.0358 -0.0162
 8186SOL     OW32475   0.708   2.635   5.079  0.9461  0.0182 -0.3921
 8186SOL    HW232476   0.622   2.646   5.038  0.5950  0.0518  0.3403
 8186SOL    HW332477   0.735   2.546   5.054  1.4985  0.6186 -2.0716
 8186SOL    MW432478   0.700   2.625   5.071 -0.1841  0.3041  0.4662
 8187SOL     OW32479   0.948   4.880   5.897  0.0780  0.2405 -0.2217
 8187SOL    HW232480   0.853   4.869   5.898 -0.3170  3.0729  0.7921
 8187SOL    HW332481   0.965   4.943   5.827  1.1404  0.2759  0.0424
 8187SOL    MW432482   0.938   4.887   5.888 -0.2182 -0.6925 -0.3009
 8188SOL     OW32483   5.837   2.617   3.869  0.1138  0.6928  0.2936
 8188SOL    HW232484   5.871   2.706   3.859  0.7935  0.5165  0.9293
 8188SOL    HW332485   5.761   2.613   3.811  0.0005  1.7276  0.3538
 8188SOL    MW432486   5.831   2.628   3.860  0.0156 -0.6251  0.7556
 8189SOL     OW32487   5.182   3.443   4.945  0.6753  0.1626 -0.3294
 8189SOL    HW232488   5.198   3.479   4.857  2.0356  0.0213 -0.1733
 8189SOL    HW332489   5.269   3.419   4.976  0.1666 -0.1189  0.9264
 8189SOL    MW432490   5.196   3.445   4.937 -0.1703 -0.3642 -0.3923
 8190SOL     OW32491   3.129   2.465   0.131  0.0517  0.4767 -0.8883
 8190SOL    HW232492   3.142   2.481   0.225  0.1488 -1.0084 -0.6283
 8190SOL    HW332493   3.050   2.411   0.127 -0.6953  1.5965 -1.7756
 8190SOL    MW432494   3.120   2.460   0.143 -0.2465  0.2007 -0.3031
 8191SOL     OW32495   3.114   1.447   5.761  0.3816  0.5981  0.7011
 8191SOL    HW232496   3.203   1.467   5.791 -0.0846  0.5085  2.2367
 8191SOL    HW332497   3.099   1.357   5.789 -0.6805  1.0765  1.7173
 8191SOL    MW432498   3.124   1.438   5.769 -0.2774 -0.0758 -0.3927
 8192SOL     OW32499   2.825   4.487   0.341 -0.3359 -0.5248 -0.9329
 8192SOL    HW232500   2.775   4.445   0.411 -1.2837 -0.8267 -1.7734
 8192SOL    HW332501   2.791   4.450   0.260 -0.1868  0.7816 -1.6360
 8192SOL    MW432502   2.814   4.477   0.340 -0.1074  0.1861  0.1785
 8193SOL     OW32503   6.328   1.618   2.784 -0.2305 -0.7996 -0.3703
 8193SOL    HW232504   6.306   1.583   2.697  0.3600  1.1053 -1.3391
 8193SOL    HW332505   6.244   1.641   2.823 -0.3951  2.4373 -2.3016
 8193SOL    MW432506   6.314   1.617   2.778 -0.6344  0.5119  0.3859
 8194SOL     OW32507   0.557   5.616   5.227  0.4827  0.4523  0.0535
 8194SOL    HW232508   0.519   5.547   5.173  0.3647  0.8725 -0.4112
 8194SOL    HW332509   0.649   5.619   5.200  0.4548  0.5729 -0.0268
 8194SOL    MW432510   0.564   5.607   5.216  0.3844  0.5535  0.3590
 8195SOL     OW32511   5.918   4.618   2.580  0.5425 -0.0588 -0.1032
 8195SOL    HW232512   5.851   4.646   2.518 -0.6134 -0.7027  0.8090
 8195SOL    HW332513   5.959   4.700   2.609 -1.0815  0.5315  0.6548
 8195SOL    MW432514   5.914   4.633   2.576 -1.0411  0.4664  0.0087
 8196SOL     OW32515   6.302   5.518   6.406 -0.3329 -0.0855  0.0545
 8196SOL    HW232516   6.227   5.536   6.350 -0.0284  1.9097  0.2204
 8196SOL    HW332517   6.265   5.516   6.495 -0.3016  0.1419  0.0723
 8196SOL    MW432518   6.287   5.520   6.411  0.4884 -0.1785  0.3124
 8197SOL     OW32519   5.539   4.386   2.879  0.1925  0.2748  0.0245
 8197SOL    HW232520   5.459   4.334   2.875 -1.4026  2.6583 -0.6832
 8197SOL    HW332521   5.540   4.422   2.967  1.5029 -1.1464  0.6463
 8197SOL    MW432522   5.529   4.384   2.890 -0.2887 -0.6948  0.4789
 8198SOL     OW32523   1.585   3.113   4.282  0.2696 -0.1592  0.1484
 8198SOL    HW232524   1.589   3.018   4.270 -1.1374 -0.2739  0.4326
 8198SOL    HW332525   1.539   3.145   4.205 -1.0491  0.0495  0.9955
 8198SOL    MW432526   1.580   3.104   4.271  0.0599 -0.2820  0.0232
 8199SOL     OW32527   5.695   1.082   3.497 -0.0392 -0.2332 -0.0564
 8199SOL    HW232528   5.626   1.111   3.438  1.2930 -0.9241 -2.0447
 8199SOL    HW332529   5.677   0.990   3.512 -0.1936 -0.1345  0.4045
 8199SOL    MW432530   5.683   1.074   3.491  0.4507 -0.6466 -0.9232
 8200SOL     OW32531   2.588   3.726   1.084  0.0061 -0.4038 -0.0135
 8200SOL    HW232532   2.546   3.753   1.003  0.5800 -0.5326 -0.3553
 8200SOL    HW332533   2.664   3.784   1.092 -0.2141 -0.1841  0.5914
 8200SOL    MW432534   2.592   3.737   1.075  0.2383  0.1649  0.4265
 8201SOL     OW32535   3.892   0.687   0.292  0.2301 -0.1393  0.2600
 8201SOL    HW232536   3.872   0.594   0.307  0.1520 -0.0961  0.4232
 8201SOL    HW332537   3.811   0.732   0.313  1.2140  0.3240  3.6391
 8201SOL    MW432538   3.879   0.681   0.297 -0.3151 -0.6439  0.1695
 8202SOL     OW32539   3.092   5.649   5.268  0.0821  0.7364 -0.3196
 8202SOL    HW232540   3.016   5.648   5.210  0.7649  1.6904 -1.2768
 8202SOL    HW332541   3.066   5.705   5.341 -1.1754 -1.3363  0.9265
 8202SOL    MW432542   3.079   5.656   5.270  0.1202  0.2431  0.4249
 8203SOL     OW32543   0.140   1.472   6.020 -0.5913  0.6274 -0.1395
 8203SOL    HW232544   0.080   1.421   5.965 -0.8244 -0.5156  1.1079
 8203SOL    HW332545   0.109   1.457   6.110  1.3825  0.2094  0.5276
 8203SOL    MW432546   0.128   1.463   6.025 -0.3263 -0.8170  0.5458
 8204SOL     OW32547   1.277   5.459   5.784  0.6585 -0.0990 -0.1296
 8204SOL    HW232548   1.217   5.522   5.744  0.5591 -0.6227 -0.8256
 8204SOL    HW332549   1.223   5.381   5.798  1.4929 -1.1419 -2.2237
 8204SOL    MW432550   1.262   5.457   5.780  0.4353 -0.0336  0.2493
 8205SOL     OW32551   1.941   3.970   0.181 -0.4440  0.3803 -0.5167
 8205SOL    HW232552   1.959   4.022   0.259 -0.8629 -0.4001  0.1227
 8205SOL    HW332553   2.025   3.932   0.156 -0.5632 -0.5346  0.4322
 8205SOL    MW432554   1.954   3.972   0.188 -0.4590  0.1624  0.3685
 8206SOL     OW32555   2.110   4.905   3.240  0.3616  0.2360 -0.1065
 8206SOL    HW232556   2.051   4.937   3.308  2.8258  1.4387  1.6109
 8206SOL    HW332557   2.092   4.962   3.165  0.2620  1.4751  0.8233
 8206SOL    MW432558   2.100   4.917   3.239 -0.1583  0.3698  0.1074
 8207SOL     OW32559   0.968   4.969   3.686 -0.1050 -0.1856  0.1363
 8207SOL    HW232560   0.963   4.949   3.593 -0.6842 -0.8559  0.3060
 8207SOL    HW332561   0.900   5.034   3.701 -0.3308 -0.4310  0.1797
 8207SOL    MW432562   0.959   4.975   3.676  0.3900 -0.4517  0.4972
 8208SOL     OW32563   2.256   5.809   2.731 -0.0962 -0.0858  0.4356
 8208SOL    HW232564   2.321   5.809   2.660  0.1050  1.0124  0.5949
 8208SOL    HW332565   2.196   5.738   2.709  1.9065 -2.0728  0.9983
 8208SOL    MW432566   2.257   5.800   2.719 -0.0657 -0.1502 -0.4303
 8209SOL     OW32567   1.697   2.496   5.972  0.1834 -0.1793  0.5605
 8209SOL    HW232568   1.639   2.420   5.972 -3.4743  2.2349 -2.5559
 8209SOL    HW332569   1.749   2.488   5.893  0.3828  0.1509  0.6550
 8209SOL    MW432570   1.696   2.485   5.962 -0.1313  0.4214 -0.3674
 8210SOL     OW32571   4.711   0.179   6.005  0.1515 -0.1358  0.2345
 8210SOL    HW232572   4.693   0.119   5.932 -0.3025  1.4370 -1.0156
 8210SOL    HW332573   4.780   0.136   6.055 -0.6893 -2.0498 -0.1542
 8210SOL    MW432574   4.717   0.165   6.002  0.5839  0.1182  0.4843
 8211SOL     OW32575   3.418   4.459   2.710  0.0146 -0.1546 -0.0000
 8211SOL    HW232576   3.487   4.412   2.757 -0.1196 -2.0799 -1.6296
 8211SOL    HW332577   3.433   4.439   2.618 -1.5631  1.0209 -0.5633
 8211SOL    MW432578   3.429   4.450   2.704 -0.2907  0.9822 -0.2523
 8212SOL     OW32579   4.307   4.547   2.878 -0.2561  0.4203 -0.4529
 8212SOL    HW232580   4.373   4.509   2.821 -0.0984  0.6030 -0.3907
 8212SOL    HW332581   4.255   4.603   2.820 -0.4139  0.2065 -0.5198
 8212SOL    MW432582   4.309   4.549   2.863 -0.5734 -0.9957 -0.1274
 8213SOL     OW32583   3.028   1.049   0.952 -0.1033 -0.1091 -0.5906
 8213SOL    HW232584   3.002   1.025   0.863  0.6450 -0.0531 -0.8316
 8213SOL    HW332585   3.123   1.037   0.953 -0.0613  0.2613  0.0855
 8213SOL    MW432586   3.037   1.045   0.940  0.1867  0.1632 -0.8502
 8214SOL     OW32587   0.336   3.724   2.827  0.6986  0.3226 -0.3512
 8214SOL    HW232588   0.283   3.738   2.749  2.4904  1.7624 -1.3858
 8214SOL    HW332589   0.279   3.674   2.885 -0.8504 -0.4374 -2.3861
 8214SOL    MW432590   0.321   3.720   2.824  0.4754 -0.1711  0.5056
 8215SOL     OW32591   3.659   3.831   6.402  0.4144  0.2354  0.3632
 8215SOL    HW232592   3.726   3.831   6.471 -0.1945  2.5770  1.0652
 8215SOL    HW332593   3.576   3.835   6.450 -0.1539 -0.7304 -0.5126
 8215SOL    MW432594   3.657   3.831   6.418 -0.5150 -0.0996  0.5345
 8216SOL     OW32595   2.613   0.370   4.343  0.2438 -0.4167 -0.4965
 8216SOL    HW232596   2.674   0.431   4.384 -1.0797  0.0436  0.9038
 8216SOL    HW332597   2.623   0.289   4.393 -1.2196  0.0801  0.7082
 8216SOL    MW432598   2.622   0.367   4.355  0.3068  0.5622  0.1716
 8217SOL     OW32599   2.410   1.130   2.273  0.0886  0.5804 -0.2047
 8217SOL    HW232600   2.494   1.171   2.252 -0.0210 -1.0637 -5.0658
 8217SOL    HW332601   2.433   1.045   2.311  0.5320  1.0525  0.6023
 8217SOL    MW432602   2.424   1.124   2.275  0.3679 -0.1873  0.1498
 8218SOL     OW32603   3.669   3.508   4.394  0.6462  0.3703 -0.4043
 8218SOL    HW232604   3.661   3.529   4.487  0.0675  0.3467 -0.4483
 8218SOL    HW332605   3.579   3.504   4.362  0.6597 -2.2004 -0.3903
 8218SOL    MW432606   3.656   3.510   4.402  0.3268  0.5858 -0.4878
 8219SOL     OW32607   1.587   3.332   2.366  0.3073 -0.0026  0.3866
 8219SOL    HW232608   1.639   3.392   2.421  2.6086 -1.7704  0.2862
 8219SOL    HW332609   1.606   3.245   2.401 -1.3288 -0.8735 -0.7637
 8219SOL    MW432610   1.597   3.329   2.378  0.0825 -0.0844 -0.3231
 8220SOL     OW32611   4.999   6.318   4.502  0.2586  0.3832 -0.0977
 8220SOL    HW232612   4.977   6.385   4.437 -0.7758  0.5953  0.4575
 8220SOL    HW332613   5.038   6.247   4.450 -0.4808  0.5707 -0.9482
 8220SOL    MW432614   5.002   6.318   4.486 -0.3115  0.1728  0.2629
 8221SOL     OW32615   5.316   3.926   4.185  0.3973  0.1132 -0.8036
 8221SOL    HW232616   5.401   3.928   4.142 -0.0661  0.2266 -1.7276
 8221SOL    HW332617   5.273   4.008   4.159  0.0048  0.0600 -0.3486
 8221SOL    MW432618   5.321   3.937   4.176  0.6520 -0.9376  0.1989
 8222SOL     OW32619   5.426   0.826   5.761 -0.2850 -0.3071 -0.5647
 8222SOL    HW232620   5.352   0.881   5.738  0.1887  0.1134 -1.1332
 8222SOL    HW332621   5.503   0.877   5.734  0.4075  0.5892  2.6475
 8222SOL    MW432622   5.427   0.840   5.755 -0.2177  0.4679 -0.2199
 8223SOL     OW32623   6.244   2.322   1.944  0.5671 -0.3298 -0.1033
 8223SOL    HW232624   6.254   2.411   1.980  0.1419 -0.0681 -0.6112
 8223SOL    HW332625   6.300   2.321   1.867  1.7180 -0.9899  0.7257
 8223SOL    MW432626   6.252   2.334   1.938  0.6629  0.0906  0.0751
 8224SOL     OW32627   3.246   2.709   3.346  0.6071 -0.2303 -0.1782
 8224SOL    HW232628   3.233   2.614   3.354  1.3290 -0.2773  0.4836
 8224SOL    HW332629   3.332   2.725   3.385  1.0784  0.5242 -1.4784
 8224SOL    MW432630   3.255   2.699   3.352  0.0128 -0.9668 -0.0667
 8225SOL     OW32631   2.037   1.724   3.946  0.2664 -0.1001 -0.5780
 8225SOL    HW232632   2.041   1.630   3.925  2.2197 -0.3423  0.6244
 8225SOL    HW332633   2.052   1.768   3.862 -1.7176 -0.7815 -1.3615
 8225SOL    MW432634   2.040   1.717   3.932  0.3307  0.2092 -0.3253
 8226SOL     OW32635   0.833   5.506   2.511  0.0914 -0.7181  1.0466
 8226SOL    HW232636   0.785   5.467   2.438 -0.6365 -0.6838  1.4968
 8226SOL    HW332637   0.845   5.597   2.486 -0.3231 -0.6603  1.0520
 8226SOL    MW432638   0.828   5.513   2.498 -0.0764 -0.3864  0.0210
 8227SOL     OW32639   2.511   3.154   2.947  0.7426 -0.3745  0.2688
 8227SOL    HW232640   2.570   3.086   2.980  1.7677  0.7294  0.7971
 8227SOL    HW332641   2.566   3.204   2.885  0.3227  0.5832  0.6558
 8227SOL    MW432642   2.526   3.152   2.943  0.3902 -0.5110 -0.1725
 8228SOL     OW32643   0.344   0.313   6.149  0.1570 -0.8882 -0.1088
 8228SOL    HW232644   0.347   0.266   6.065 -1.0467 -1.1351 -0.0289
 8228SOL    HW332645   0.294   0.255   6.206 -1.9035  0.7371 -0.1677
 8228SOL    MW432646   0.338   0.299   6.145 -0.0916  0.2086 -0.1021
 8229SOL     OW32647   0.554   3.175   1.271 -0.0574 -0.5717 -0.4227
 8229SOL    HW232648   0.551   3.211   1.183  2.0558 -0.6937 -0.6062
 8229SOL    HW332649   0.610   3.098   1.264  0.0136 -0.6859  0.9783
 8229SOL    MW432650   0.561   3.170   1.259 -0.1317  0.1538 -0.2109
 8230SOL     OW32651   1.063   0.579   5.998  0.3582  0.5675  0.5021
 8230SOL    HW232652   1.146   0.537   6.019 -0.7375 -1.7961  0.4573
 8230SOL    HW332653   1.053   0.567   5.904 -0.0404  0.7935  0.5128
 8230SOL    MW432654   1.072   0.572   5.988 -0.2060  0.1685 -0.0068
 8231SOL     OW32655   3.608   0.893   3.120 -0.0673 -0.2614 -0.4125
 8231SOL    HW232656   3.558   0.947   3.059  0.2979 -1.4754 -1.8528
 8231SOL    HW332657   3.542   0.859   3.181 -0.2917  1.7947  0.5616
 8231SOL    MW432658   3.593   0.896   3.120 -0.2473 -0.6092  0.6615
 8232SOL     OW32659   6.122   3.494   1.907 -0.4236 -0.1856  0.1425
 8232SOL    HW232660   6.124   3.411   1.860 -0.4207  0.4167 -0.9529
 8232SOL    HW332661   6.040   3.536   1.878  1.2498  1.7658 -2.1606
 8232SOL    MW432662   6.111   3.489   1.897  0.7297  0.7607 -0.2770
 8233SOL     OW32663   3.073   0.789   2.700 -0.1011 -0.0322  0.3861
 8233SOL    HW232664   3.103   0.830   2.781 -2.3723 -0.8385  1.7421
 8233SOL    HW332665   2.985   0.824   2.687 -0.5559 -1.4615 -0.6046
 8233SOL    MW432666   3.065   0.799   2.709 -0.1133  0.1176 -0.1344
 8234SOL     OW32667   2.361   1.507   2.863 -0.2359  0.1057 -0.6445
 8234SOL    HW232668   2.381   1.594   2.828  0.2623  0.5545  0.6927
 8234SOL    HW332669   2.399   1.446   2.799  0.8517  0.8967 -0.7773
 8234SOL    MW432670   2.369   1.511   2.850  0.3973  0.4053  0.2935
 8235SOL     OW32671   5.281   3.577   6.050 -0.1600  0.0727  0.3049
 8235SOL    HW232672   5.268   3.533   5.966 -0.1819 -0.8275  0.7677
 8235SOL    HW332673   5.239   3.662   6.040 -2.1314 -0.8777  0.1495
 8235SOL    MW432674   5.274   3.583   6.038 -0.4628 -1.0192  0.6808
 8236SOL     OW32675   2.926   3.542   2.321  0.4422 -0.1949  0.2961
 8236SOL    HW232676   2.901   3.475   2.386 -0.2561  1.1689  1.4937
 8236SOL    HW332677   2.955   3.616   2.374  0.9314  0.5556 -1.0030
 8236SOL    MW432678   2.926   3.543   2.337 -0.4595  0.6001 -0.1619
 8237SOL     OW32679   0.733   1.871   0.418  0.0805 -0.6635  0.2129
 8237SOL    HW232680   0.651   1.897   0.376  1.4996  3.6745 -0.3826
 8237SOL    HW332681   0.789   1.841   0.347  0.4046  0.6492 -0.1129
 8237SOL    MW432682   0.729   1.871   0.403 -0.3356 -0.4795  0.2530
 8238SOL     OW32683   0.795   5.325   3.103 -0.1402 -0.1933  0.3385
 8238SOL    HW232684   0.842   5.392   3.054 -0.5746 -0.1127  0.0311
 8238SOL    HW332685   0.729   5.372   3.154 -2.4240 -0.5741 -2.0808
 8238SOL    MW432686   0.793   5.340   3.104  0.3021  0.2920  0.4086
 8239SOL     OW32687   5.531   6.276   0.131 -0.5204 -0.7054 -0.0044
 8239SOL    HW232688   5.446   6.315   0.109 -0.1258 -0.1795 -0.6456
 8239SOL    HW332689   5.586   6.295   0.055 -0.0126 -1.6080  0.1232
 8239SOL    MW432690   5.527   6.283   0.118  0.1631 -0.1280  0.0089
 8240SOL     OW32691   0.767   5.243   6.170 -0.0557  0.1089 -0.3075
 8240SOL    HW232692   0.827   5.302   6.216  0.3210  2.8057 -3.7728
 8240SOL    HW332693   0.820   5.164   6.153  0.7722  0.3348  1.1096
 8240SOL    MW432694   0.782   5.240   6.174 -0.4261 -0.1457 -1.0837
 8241SOL     OW32695   0.094   2.290   2.561 -0.3319 -0.0678 -0.2253
 8241SOL    HW232696   0.077   2.327   2.647 -2.4948 -0.3047 -0.4859
 8241SOL    HW332697   0.060   2.354   2.499  0.5895 -0.1979 -0.8978
 8241SOL    MW432698   0.087   2.303   2.564  0.4731  0.7070  0.0534
 8242SOL     OW32699   2.467   6.037   0.501 -0.4412 -0.1133  0.1654
 8242SOL    HW232700   2.449   5.983   0.424 -0.7275  1.3450 -0.8298
 8242SOL    HW332701   2.467   5.975   0.574 -4.8602 -1.0154 -0.2954
 8242SOL    MW432702   2.464   6.022   0.500 -0.1140 -0.0622  0.1436
 8243SOL     OW32703   3.642   2.769   2.347 -0.0181  0.4738 -0.3430
 8243SOL    HW232704   3.568   2.829   2.341 -1.3406 -1.1177 -0.9075
 8243SOL    HW332705   3.628   2.707   2.275  0.4718 -1.3607  1.0667
 8243SOL    MW432706   3.630   2.768   2.336 -0.8890 -0.3532  0.0742
 8244SOL     OW32707   3.691   3.598   5.772  0.3613 -0.1741  0.2149
 8244SOL    HW232708   3.685   3.679   5.723 -1.3010  1.2253  2.5384
 8244SOL    HW332709   3.610   3.551   5.753 -0.2764  0.3585  1.4944
 8244SOL    MW432710   3.680   3.602   5.763  0.4782 -0.4319  0.1334
 8245SOL     OW32711   1.213   5.387   6.156 -0.5221 -0.3257 -0.0936
 8245SOL    HW232712   1.197   5.347   6.242  0.4177  1.1639  0.8184
 8245SOL    HW332713   1.127   5.418   6.128 -1.1273 -2.1719 -0.4594
 8245SOL    MW432714   1.199   5.385   6.164  0.4087 -0.7409 -0.1158
 8246SOL     OW32715   0.277   1.414   3.599 -0.0177 -0.2295 -0.1167
 8246SOL    HW232716   0.209   1.457   3.649 -0.6886 -2.1207  0.6700
 8246SOL    HW332717   0.270   1.452   3.511 -0.5156  1.2624  0.5377
 8246SOL    MW432718   0.267   1.425   3.594 -0.0234 -0.1115 -0.0792
 8247SOL     OW32719   4.825   3.466   3.686 -0.0164 -0.0368 -0.3064
 8247SOL    HW232720   4.778   3.383   3.683 -0.0684  0.0172 -1.7650
 8247SOL    HW332721   4.918   3.442   3.678 -0.0185  0.0358 -0.5445
 8247SOL    MW432722   4.831   3.452   3.684 -0.4939  0.1585  0.4059
 8248SOL     OW32723   5.478   3.568   4.031  0.7581 -0.1293  0.3001
 8248SOL    HW232724   5.413   3.544   4.096 -0.7161 -1.6973 -1.6336
 8248SOL    HW332725   5.480   3.494   3.970  2.4204  1.0349 -1.1625
 8248SOL    MW432726   5.470   3.555   4.032 -0.1030  0.1783  0.1547
 8249SOL     OW32727   3.284   6.271   4.663  0.6047 -0.2679  0.4963
 8249SOL    HW232728   3.199   6.228   4.675  1.1513 -1.5996 -0.2649
 8249SOL    HW332729   3.335   6.244   4.740  0.9678 -1.0436 -0.0118
 8249SOL    MW432730   3.279   6.262   4.675 -0.1144  0.2540  0.4274
 8250SOL     OW32731   2.124   3.216   5.180  0.0161 -0.2489 -0.0752
 8250SOL    HW232732   2.113   3.202   5.274  0.6396  0.4692  0.1151
 8250SOL    HW332733   2.068   3.292   5.160 -0.2642 -0.5174 -0.3246
 8250SOL    MW432734   2.115   3.224   5.189  0.1742  0.7814 -0.5065
 8251SOL     OW32735   2.809   5.146   1.971 -0.1817 -0.1806  0.1620
 8251SOL    HW232736   2.791   5.058   2.004 -0.5695 -0.3850 -0.5740
 8251SOL    HW332737   2.828   5.134   1.878  1.2637  0.3438  0.3636
 8251SOL    MW432738   2.809   5.133   1.963 -0.5535  0.0182 -0.3840
 8252SOL     OW32739   5.317   0.558   5.738  0.2181 -0.2567 -0.4968
 8252SOL    HW232740   5.361   0.641   5.723  1.0533 -0.5283  0.3666
 8252SOL    HW332741   5.244   0.580   5.797  0.9723 -0.2549  0.4666
 8252SOL    MW432742   5.313   0.572   5.744  0.0630 -0.5406 -0.1435
 8253SOL     OW32743   4.103   5.988   0.012 -0.1264  0.4971  0.2651
 8253SOL    HW232744   4.078   6.073  -0.024  1.1020  0.4914 -0.6774
 8253SOL    HW332745   4.181   5.963  -0.038 -1.3022 -1.8988 -0.5394
 8253SOL    MW432746   4.110   5.996   0.001 -0.1069  0.1141  0.8367
 8254SOL     OW32747   4.137   4.310   4.433 -0.1407  0.7437  0.2390
 8254SOL    HW232748   4.100   4.228   4.403  1.5922  0.8299 -2.3853
 8254SOL    HW332749   4.083   4.334   4.509 -2.3085 -1.4678 -0.4816
 8254SOL    MW432750   4.125   4.303   4.439  0.2507 -0.8165 -0.3836
 8255SOL     OW32751   5.747   0.629   3.376  0.7507  0.7581 -0.3298
 8255SOL    HW232752   5.655   0.614   3.354  0.6693  0.8467 -0.0536
 8255SOL    HW332753   5.779   0.688   3.309  0.0963  2.2528  0.6297
 8255SOL    MW432754   5.739   0.634   3.365  0.3864  0.2669 -0.3615
 8256SOL     OW32755   5.906   6.166   5.970  0.2315 -0.4758 -0.6350
 8256SOL    HW232756   5.889   6.252   5.933  0.8319 -0.2611 -0.4126
 8256SOL    HW332757   5.896   6.106   5.897 -0.2183 -0.2278 -0.7841
 8256SOL    MW432758   5.902   6.169   5.956  0.2701 -0.8102 -0.3488
 8257SOL     OW32759   6.192   5.467   0.208  0.6594  0.2746 -0.1877
 8257SOL    HW232760   6.164   5.534   0.270 -0.1567 -0.3850  0.1884
 8257SOL    HW332761   6.274   5.433   0.244 -0.0170 -0.3976  0.7904
 8257SOL    MW432762   6.199   5.471   0.221 -0.8051 -0.1228 -0.0502
 8258SOL     OW32763   6.378   6.020   0.712  0.2077 -1.1451 -0.4843
 8258SOL    HW232764   6.296   5.996   0.755 -0.1662 -0.0372 -0.5448
 8258SOL    HW332765   6.446   5.978   0.764 -0.3669 -1.6548 -0.1347
 8258SOL    MW432766   6.376   6.012   0.724 -0.2409  0.4104  0.7244
 8259SOL     OW32767   5.533   1.090   3.754  0.1785  0.2171  0.0905
 8259SOL    HW232768   5.594   1.093   3.681  0.5947  1.5890  0.4598
 8259SOL    HW332769   5.527   1.181   3.784 -2.2843  0.1999 -0.1293
 8259SOL    MW432770   5.540   1.102   3.748 -0.0264 -0.3651  0.5402
 8260SOL     OW32771   5.408   1.550   2.149  0.0505 -0.4629  0.1660
 8260SOL    HW232772   5.416   1.618   2.216  0.5731  0.5569 -0.8894
 8260SOL    HW332773   5.364   1.478   2.194 -1.0799  0.7828  1.1639
 8260SOL    MW432774   5.404   1.550   2.164 -0.2983 -0.3199 -0.5006
 8261SOL     OW32775   4.150   5.848   2.861  0.5033  0.0748 -0.1982
 8261SOL    HW232776   4.069   5.831   2.813  0.8070 -0.0809 -0.6553
 8261SOL    HW332777   4.120   5.873   2.949 -0.0213 -0.7881 -0.1117
 8261SOL    MW432778   4.135   5.849   2.866 -0.5799 -0.6140  0.5164
 8262SOL     OW32779   4.976   5.239   1.685  0.6124 -0.0616  0.0829
 8262SOL    HW232780   5.004   5.331   1.682  1.3461 -0.2532  0.7620
 8262SOL    HW332781   5.033   5.194   1.623  2.0767 -0.5057  1.6907
 8262SOL    MW432782   4.987   5.245   1.676  0.1082 -0.4529  0.0945
 8263SOL     OW32783   0.946   3.756   1.735 -0.4165  0.1627 -0.5703
 8263SOL    HW232784   0.970   3.835   1.785  2.2392  0.2585 -1.8443
 8263SOL    HW332785   1.014   3.692   1.757 -1.7805 -1.3692 -0.6069
 8263SOL    MW432786   0.958   3.758   1.745 -0.7573  0.1523  0.4920
 8264SOL     OW32787   6.348   5.291   5.515 -0.1471 -0.2109 -0.0379
 8264SOL    HW232788   6.409   5.333   5.454 -1.1825  0.2247 -0.8039
 8264SOL    HW332789   6.403   5.266   5.589  0.9455  0.2651 -0.6466
 8264SOL    MW432790   6.363   5.293   5.517  0.3052 -0.2393 -0.3057
 8265SOL     OW32791   4.520   1.954   1.641  0.3291  0.3925 -0.7110
 8265SOL    HW232792   4.480   1.929   1.558 -0.3307  1.0661 -0.6118
 8265SOL    HW332793   4.612   1.967   1.621  0.4244 -0.7214 -1.0475
 8265SOL    MW432794   4.527   1.953   1.628 -0.0307 -0.1100  0.1319
 8266SOL     OW32795   1.235   0.274   5.405 -0.1936 -0.2138  0.3470
 8266SOL    HW232796   1.236   0.303   5.314  0.7101 -0.1232  0.3773
 8266SOL    HW332797   1.320   0.300   5.440 -0.9667  0.8118  1.5650
 8266SOL    MW432798   1.246   0.281   5.397 -0.0841  0.0981  0.3115
 8267SOL     OW32799   4.865   3.849   0.978 -0.6796 -0.5626  0.2948
 8267SOL    HW232800   4.915   3.768   0.965 -0.8322 -0.3238 -2.1558
 8267SOL    HW332801   4.931   3.918   0.980 -0.7210 -0.5115 -0.1120
 8267SOL    MW432802   4.880   3.847   0.977  0.8629 -0.4376  0.2535
 8268SOL     OW32803   1.545   5.453   5.876 -0.2729  0.1667 -0.4590
 8268SOL    HW232804   1.453   5.438   5.856 -0.5396  0.4620  0.4934
 8268SOL    HW332805   1.591   5.434   5.794 -1.0787 -0.9093 -0.6889
 8268SOL    MW432806   1.539   5.449   5.862  0.1145 -0.6759  0.1804
 8269SOL     OW32807   2.871   1.514   0.449  0.5504  0.1525  0.6841
 8269SOL    HW232808   2.928   1.438   0.434  0.9074  0.3780  0.8851
 8269SOL    HW332809   2.793   1.477   0.491  0.4311 -0.1944  0.1638
 8269SOL    MW432810   2.869   1.499   0.452  0.2067  0.5950 -0.2017
 8270SOL     OW32811   1.483   0.318   1.415 -0.0752 -0.1203  0.0849
 8270SOL    HW232812   1.506   0.250   1.351 -1.3858 -2.0650  1.5475
 8270SOL    HW332813   1.567   0.344   1.454  0.5244 -0.3547 -1.0065
 8270SOL    MW432814   1.497   0.312   1.412 -0.7878  0.5777  0.0107
 8271SOL     OW32815   3.370   2.096   1.050 -0.2391  0.4909 -0.0235
 8271SOL    HW232816   3.394   2.160   1.116 -0.0413  1.9788 -1.4919
 8271SOL    HW332817   3.274   2.100   1.047 -0.1873  1.6483 -0.9493
 8271SOL    MW432818   3.360   2.105   1.058 -0.2489  0.4042  0.8077
 8272SOL     OW32819   2.698   3.656   2.229 -0.1275  0.3045  0.1401
 8272SOL    HW232820   2.776   3.621   2.274  0.1252 -2.3085 -2.0175
 8272SOL    HW332821   2.733   3.700   2.151 -0.7242 -0.9101 -0.8617
 8272SOL    MW432822   2.713   3.657   2.224  0.8201  0.5552  0.2704
 8273SOL     OW32823   2.167   6.391   3.807 -0.2043  0.1404 -0.1826
 8273SOL    HW232824   2.078   6.361   3.829 -1.0079  0.9015 -2.2261
 8273SOL    HW332825   2.172   6.387   3.712  1.4296  1.5969 -0.2192
 8273SOL    MW432826   2.156   6.387   3.798  0.0445  0.4032 -0.4261
 8274SOL     OW32827   5.483   6.418   5.344 -0.2593  0.4082  0.2208
 8274SOL    HW232828   5.458   6.335   5.385  1.5752 -0.4641 -0.3522
 8274SOL    HW332829   5.464   6.484   5.411  0.3437 -0.7266  1.5494
 8274SOL    MW432830   5.477   6.416   5.358  0.2103  0.0240  0.2505
 8275SOL     OW32831   1.132   6.280   2.684 -0.3797 -0.3236  0.7347
 8275SOL    HW232832   1.046   6.240   2.698  0.0019 -0.5079  3.0625
 8275SOL    HW332833   1.132   6.358   2.740  0.1662  0.9968 -1.0259
 8275SOL    MW432834   1.121   6.285   2.693 -0.2710  0.4566  0.3837
 8276SOL     OW32835   1.290   0.859   2.715  0.1213 -0.1313  0.1355
 8276SOL    HW232836   1.211   0.841   2.665 -0.5743  0.6225  0.9170
 8276SOL    HW332837   1.297   0.955   2.715 -0.8447  0.0331  2.7755
 8276SOL    MW432838   1.280   0.869   2.709 -0.3419 -0.1303 -0.4872
 8277SOL     OW32839   3.158   2.876   2.865  0.1574  0.8416 -0.5697
 8277SOL    HW232840   3.161   2.967   2.894  0.3643  0.9394 -0.8893
 8277SOL    HW332841   3.079   2.869   2.812 -1.8004 -0.0246  2.2298
 8277SOL    MW432842   3.148   2.887   2.861 -0.2558 -0.0305  0.1684
 8278SOL     OW32843   2.195   6.044   2.372 -0.1692 -0.0379 -0.2321
 8278SOL    HW232844   2.215   6.113   2.435 -1.1936 -1.6196  1.9880
 8278SOL    HW332845   2.132   6.084   2.312 -0.9590  0.9028  1.1592
 8278SOL    MW432846   2.189   6.058   2.373 -0.5218  0.2424  0.0813
 8279SOL     OW32847   2.442   0.553   4.527  0.2508  0.7073  0.2667
 8279SOL    HW232848   2.438   0.620   4.459  1.0696  0.4039 -0.0993
 8279SOL    HW332849   2.490   0.481   4.487  0.3866  0.3616  1.0299
 8279SOL    MW432850   2.448   0.553   4.513 -0.3525  0.2448  0.4802
 8280SOL     OW32851   1.209   3.997   4.463 -0.1410 -0.2241  0.5610
 8280SOL    HW232852   1.219   3.902   4.466 -0.2343 -0.2487  0.1529
 8280SOL    HW332853   1.142   4.012   4.397  1.4691  0.2146 -1.0478
 8280SOL    MW432854   1.202   3.987   4.455 -0.5100 -0.8356 -0.0777
 8281SOL     OW32855   5.020   1.112   0.126 -0.5832  0.0761 -0.1062
 8281SOL    HW232856   4.977   1.035   0.164  2.1382 -0.9394  1.1731
 8281SOL    HW332857   4.964   1.185   0.151 -2.8930 -1.3512 -0.7509
 8281SOL    MW432858   5.007   1.111   0.134  0.3833  0.1465  0.1320
 8282SOL     OW32859   1.877   4.134   5.548 -0.3903 -0.1666  0.0122
 8282SOL    HW232860   1.890   4.148   5.454 -0.9838  2.9870  0.2932
 8282SOL    HW332861   1.789   4.096   5.555 -0.1423 -0.9212 -0.6756
 8282SOL    MW432862   1.867   4.130   5.536  0.1044 -0.3567 -0.2462
 8283SOL     OW32863   2.247   2.249   2.412 -0.3785 -0.2307 -0.0844
 8283SOL    HW232864   2.238   2.339   2.383  0.8209 -0.4638 -1.2703
 8283SOL    HW332865   2.341   2.230   2.404 -0.2860 -0.9668  2.0320
 8283SOL    MW432866   2.258   2.258   2.407  0.3645  0.4227 -0.1977
 8284SOL     OW32867   3.886   2.640   0.543  0.4335 -0.0118  0.2657
 8284SOL    HW232868   3.941   2.571   0.506  1.8153  1.2495 -0.1008
 8284SOL    HW332869   3.807   2.594   0.571  0.3779 -1.4252 -1.9379
 8284SOL    MW432870   3.883   2.625   0.541  0.0962  0.1271  0.4170
 8285SOL     OW32871   0.735   4.979   4.569  0.7153 -0.4870  0.4976
 8285SOL    HW232872   0.702   4.901   4.614 -1.4195  1.1213  1.9040
 8285SOL    HW332873   0.657   5.021   4.533  1.7248  1.3248  0.3044
 8285SOL    MW432874   0.721   4.974   4.570 -0.8763  0.1593 -0.6270
 8286SOL     OW32875   0.725   4.531   1.699  0.0965 -0.2037  0.0634
 8286SOL    HW232876   0.811   4.569   1.686  0.6640 -1.2006  0.7369
 8286SOL    HW332877   0.667   4.606   1.713  0.6631  0.5198 -1.3071
 8286SOL    MW432878   0.728   4.546   1.699  0.6237 -0.2508 -0.0966
 8287SOL     OW32879   0.343   1.818   5.222 -0.2143  0.0179  0.2772
 8287SOL    HW232880   0.283   1.883   5.259  0.6204  1.3315 -0.5570
 8287SOL    HW332881   0.429   1.841   5.258  0.2594  0.0228 -0.7968
 8287SOL    MW432882   0.347   1.830   5.231  0.1759  0.3206  0.0220
 8288SOL     OW32883   6.004   2.197   1.640  0.5403 -0.0954  0.4059
 8288SOL    HW232884   6.094   2.163   1.637  0.4106 -0.5310  1.3634
 8288SOL    HW332885   5.991   2.222   1.731 -0.4925 -0.5036  0.3801
 8288SOL    MW432886   6.014   2.196   1.651  0.0168  0.9005 -0.1586
 8289SOL     OW32887   4.517   6.126   2.891  0.4444  0.2463  0.2514
 8289SOL    HW232888   4.565   6.178   2.826  1.7687 -1.1667  0.0315
 8289SOL    HW332889   4.431   6.111   2.851  0.8743  0.2777 -0.7192
 8289SOL    MW432890   4.512   6.131   2.877 -0.3314 -0.1679  0.7082
 8290SOL     OW32891   4.700   1.578   3.614  0.3945 -0.2525 -0.2848
 8290SOL    HW232892   4.634   1.528   3.661  0.3157 -0.1460 -0.2807
 8290SOL    HW332893   4.700   1.541   3.526  0.2821 -0.2101 -0.3032
 8290SOL    MW432894   4.691   1.567   3.608  0.3624 -0.1180  0.1871
 8291SOL     OW32895   0.872   5.656   3.839  0.1530 -0.6875  0.4197
 8291SOL    HW232896   0.964   5.666   3.864 -0.1979  0.9562  1.1149
 8291SOL    HW332897   0.833   5.608   3.912 -0.1433  1.1596  1.5148
 8291SOL    MW432898   0.879   5.651   3.852 -0.6336 -0.0407  0.1326
 8292SOL     OW32899   4.224   4.604   6.415  0.5312  0.7976  0.9538
 8292SOL    HW232900   4.136   4.638   6.434  0.3497  0.3214  0.9675
 8292SOL    HW332901   4.219   4.511   6.434 -0.1448 -0.1449 -2.9461
 8292SOL    MW432902   4.212   4.596   6.420 -0.0114  0.2469  0.2237
 8293SOL     OW32903   0.842   1.215   2.199 -0.1008  0.5270  0.8335
 8293SOL    HW232904   0.918   1.236   2.145  0.2997 -0.1461  1.1266
 8293SOL    HW332905   0.855   1.263   2.280  0.3148 -0.0424  1.1126
 8293SOL    MW432906   0.853   1.224   2.202 -0.4097  0.1731  0.2231
 8294SOL     OW32907   2.749   3.791   3.404  0.1536  0.3546  0.1611
 8294SOL    HW232908   2.799   3.867   3.374 -0.5512  1.0817  0.8202
 8294SOL    HW332909   2.658   3.819   3.401  0.0029  0.2779  2.3995
 8294SOL    MW432910   2.744   3.805   3.399  0.0937  0.0821 -0.1685
 8295SOL     OW32911   5.427   5.642   3.859 -0.0533 -0.6864  0.5153
 8295SOL    HW232912   5.415   5.735   3.843 -0.5110 -0.4931  1.8906
 8295SOL    HW332913   5.409   5.600   3.775  0.5602  0.4863 -0.2145
 8295SOL    MW432914   5.423   5.649   3.846  0.2215  0.7379 -0.1914
 8296SOL     OW32915   3.173   5.537   5.712 -0.3399  0.3004  0.4574
 8296SOL    HW232916   3.113   5.541   5.786  1.6965  2.1033  2.1450
 8296SOL    HW332917   3.175   5.626   5.678  0.3884 -0.0355 -0.4181
 8296SOL    MW432918   3.165   5.549   5.717 -0.1447  0.4648  0.3277
 8297SOL     OW32919   0.943   2.327   5.198  0.0581  0.2547 -0.6193
 8297SOL    HW232920   1.013   2.266   5.175  0.2331 -0.7176  2.0827
 8297SOL    HW332921   0.893   2.281   5.265 -2.9790  1.1104 -2.1489
 8297SOL    MW432922   0.946   2.313   5.204  0.1335 -0.9906 -0.5754
 8298SOL     OW32923   3.101   1.152   4.560 -0.3670  0.0475  0.5307
 8298SOL    HW232924   3.156   1.088   4.514 -1.0464  0.2020 -0.5208
 8298SOL    HW332925   3.074   1.214   4.493 -0.7346  0.7412  1.3019
 8298SOL    MW432926   3.105   1.151   4.545 -0.3292  0.0027  0.1126
 8299SOL     OW32927   4.635   4.631   5.019 -0.2123 -0.7284 -0.9764
 8299SOL    HW232928   4.712   4.682   4.996  0.5351 -1.1837  0.3873
 8299SOL    HW332929   4.655   4.542   4.991 -0.6237 -0.6848 -1.4216
 8299SOL    MW432930   4.648   4.626   5.013  0.2477 -0.2631  0.3976
 8300SOL     OW32931   3.091   3.682   1.167 -0.0562 -0.2553 -0.0634
 8300SOL    HW232932   3.093   3.661   1.261  0.1888 -0.7907 -0.1817
 8300SOL    HW332933   3.131   3.768   1.160  1.5225 -0.9294  0.1471
 8300SOL    MW432934   3.096   3.690   1.179  0.5798  0.6735  0.6238
 8301SOL     OW32935   2.342   0.864   3.647  0.3649 -0.0219  0.5339
 8301SOL    HW232936   2.325   0.828   3.559 -1.5311  2.0560 -0.0459
 8301SOL    HW332937   2.347   0.787   3.703 -5.1293 -1.4573 -0.3098
 8301SOL    MW432938   2.340   0.849   3.643  0.0625  0.2311  0.4756
 8302SOL     OW32939   3.155   1.565   4.592 -0.4785  0.1686 -0.4279
 8302SOL    HW232940   3.186   1.607   4.672  0.4718 -0.7689 -0.2915
 8302SOL    HW332941   3.234   1.547   4.542 -1.0564  0.7420 -1.6023
 8302SOL    MW432942   3.169   1.569   4.596  0.1591 -0.2685  0.2976
 8303SOL     OW32943   3.426   0.958   1.548  0.3731 -0.2859  0.6265
 8303SOL    HW232944   3.456   1.049   1.542 -0.7996  0.0668 -0.4937
 8303SOL    HW332945   3.332   0.966   1.565 -0.6176 -1.1325 -3.3364
 8303SOL    MW432946   3.417   0.971   1.549 -0.3273  0.5569 -0.0703
 8304SOL     OW32947   1.534   3.854   0.021 -0.0734 -0.3766 -0.0178
 8304SOL    HW232948   1.465   3.813   0.073 -3.3043  1.9616 -2.0848
 8304SOL    HW332949   1.506   3.842  -0.070  2.5898  0.1960 -1.0141
 8304SOL    MW432950   1.521   3.847   0.016 -0.7253  0.0233 -0.4743
 8305SOL     OW32951   4.445   1.089   2.053 -0.4218 -0.4974 -0.1011
 8305SOL    HW232952   4.364   1.130   2.085 -1.8473 -1.3558 -2.3650
 8305SOL    HW332953   4.417   1.003   2.022  1.4244 -0.8925 -0.7666
 8305SOL    MW432954   4.430   1.083   2.053 -0.1199  0.1496 -0.1045
 8306SOL     OW32955   2.624   2.376   4.778  0.3852 -0.0435  0.6116
 8306SOL    HW232956   2.576   2.432   4.717  0.1871 -1.3157 -0.4240
 8306SOL    HW332957   2.557   2.323   4.820  0.6166  0.1858  1.2825
 8306SOL    MW432958   2.609   2.377   4.775 -0.2202 -0.6022  0.4363
 8307SOL     OW32959   5.073   2.368   2.428 -0.3171 -0.0177  0.0294
 8307SOL    HW232960   5.003   2.433   2.426  1.5084  2.0912 -0.1028
 8307SOL    HW332961   5.035   2.290   2.389 -2.0457  1.6427 -1.8582
 8307SOL    MW432962   5.059   2.367   2.423  0.2153 -0.6661 -0.6307
 8308SOL     OW32963   0.141   4.745   3.525 -0.3852 -0.0532  0.1035
 8308SOL    HW232964   0.074   4.811   3.509 -0.2976 -0.0995 -0.4853
 8308SOL    HW332965   0.118   4.707   3.610 -2.6703 -1.9058 -1.1995
 8308SOL    MW432966   0.129   4.749   3.534  0.1968 -0.1981 -0.6559
 8309SOL     OW32967   4.216   4.078   3.337 -0.0359  0.2062 -0.1181
 8309SOL    HW232968   4.157   4.151   3.355 -0.4329 -0.0208 -0.4877
 8309SOL    HW332969   4.295   4.119   3.302 -0.2434  0.4611 -0.2888
 8309SOL    MW432970   4.219   4.093   3.335 -0.1786 -0.3945 -0.0022
 8310SOL     OW32971   3.696   3.189   1.588 -0.5582 -0.4049  0.1323
 8310SOL    HW232972   3.766   3.218   1.647 -0.5335 -1.8000  0.8098
 8310SOL    HW332973   3.616   3.229   1.623 -0.0836  1.6601 -0.9651
 8310SOL    MW432974   3.695   3.198   1.601  0.0048  0.1027  0.0938
 8311SOL     OW32975   2.167   2.282   4.832 -0.6428 -0.2188  0.3476
 8311SOL    HW232976   2.096   2.218   4.843 -1.6082  0.7356 -0.1605
 8311SOL    HW332977   2.159   2.311   4.741  0.4274 -0.1056  0.2717
 8311SOL    MW432978   2.157   2.277   4.821  0.2699 -0.3720 -0.3636
 8312SOL     OW32979   0.128   5.850   1.295 -0.0499 -0.0108 -1.0033
 8312SOL    HW232980   0.043   5.894   1.292  0.0425  0.2324 -0.2135
 8312SOL    HW332981   0.189   5.918   1.322  0.1184 -0.5826  0.0819
 8312SOL    MW432982   0.124   5.864   1.298 -0.3411 -0.0702  0.1246
 8313SOL     OW32983   4.418   2.379   1.675 -0.4530  0.2408 -0.6237
 8313SOL    HW232984   4.366   2.298   1.678 -1.6858  1.0304  0.5331
 8313SOL    HW332985   4.358   2.447   1.706  1.3122  1.1827  0.9346
 8313SOL    MW432986   4.403   2.377   1.680 -0.1507  0.2694 -0.2203
 8314SOL     OW32987   4.106   1.861   5.642 -0.0687  0.2736 -0.0856
 8314SOL    HW232988   4.061   1.907   5.712 -2.6309 -0.9489 -0.7689
 8314SOL    HW332989   4.036   1.839   5.580  1.9489  0.6639 -2.6832
 8314SOL    MW432990   4.091   1.864   5.643 -0.1779 -0.0263  0.6734
 8315SOL     OW32991   2.112   6.047   4.268  0.2291  0.2244  0.1906
 8315SOL    HW232992   2.105   5.956   4.295  0.4308  0.1047 -0.1542
 8315SOL    HW332993   2.203   6.057   4.240  0.4521  0.7595  1.0390
 8315SOL    MW432994   2.123   6.037   4.268  0.6695  0.4346 -0.4298
 8316SOL     OW32995   3.641   0.356   5.981  0.6989 -0.3538  0.1091
 8316SOL    HW232996   3.687   0.427   5.937  1.5060 -0.0514  1.3785
 8316SOL    HW332997   3.604   0.304   5.910  1.2165  0.5845 -0.8841
 8316SOL    MW432998   3.642   0.358   5.966 -0.1388  0.1025 -0.4335
 8317SOL     OW32999   2.902   4.853   3.818  0.4415 -0.3977  0.5451
 8317SOL    HW233000   2.819   4.810   3.800  0.4980 -0.1847 -0.2645
 8317SOL    HW333001   2.912   4.848   3.913 -0.6475 -0.1500  0.6822
 8317SOL    MW433002   2.893   4.847   3.828  0.3810 -0.5233 -0.8203
 8318SOL     OW33003   5.473   3.800   6.307 -0.5399  0.0781 -0.8463
 8318SOL    HW233004   5.393   3.847   6.284 -0.9494  1.1658  2.3368
 8318SOL    HW333005   5.445   3.735   6.371  0.9688 -0.2727 -0.5023
 8318SOL    MW433006   5.459   3.798   6.312 -0.1438  0.6156 -0.1274
 8319SOL     OW33007   4.356   0.049   3.426 -0.6449  0.4732 -0.1969
 8319SOL    HW233008   4.444   0.082   3.437  0.1283 -1.3844 -0.3803
 8319SOL    HW333009   4.334   0.067   3.335 -0.5064  1.0358 -0.1196
 8319SOL    MW433010   4.364   0.055   3.416  0.0553 -0.1431 -0.4411
 8320SOL     OW33011   0.757   4.640   0.031  0.1674 -0.0493  0.3066
 8320SOL    HW233012   0.691   4.708   0.048 -0.2370 -0.8597  2.1951
 8320SOL    HW333013   0.814   4.643   0.107  1.9989  0.2095 -1.0117
 8320SOL    MW433014   0.755   4.649   0.043 -0.0660  0.2511  0.1618
 8321SOL     OW33015   3.720   5.159   2.884  0.2927  0.1855  0.1170
 8321SOL    HW233016   3.737   5.247   2.918 -1.0837  0.2480  0.6988
 8321SOL    HW333017   3.666   5.174   2.806 -0.7742 -0.1668  0.7738
 8321SOL    MW433018   3.715   5.173   2.878 -0.1584  0.0670 -0.2502
 8322SOL     OW33019   5.831   2.719   6.231  0.0552  0.0071 -0.4471
 8322SOL    HW233020   5.759   2.761   6.278 -0.2542  0.1360 -1.0257
 8322SOL    HW333021   5.798   2.632   6.210  1.0547 -0.9341  1.6207
 8322SOL    MW433022   5.817   2.713   6.234  0.3800 -0.4244 -0.5634
 8323SOL     OW33023   5.334   0.676   0.729 -0.3455  0.1910  0.5597
 8323SOL    HW233024   5.314   0.582   0.724  0.0832  0.0868  0.7262
 8323SOL    HW333025   5.391   0.692   0.654  1.2411 -0.1202  1.6575
 8323SOL    MW433026   5.339   0.666   0.719  0.1411  0.1742  0.6263
 8324SOL     OW33027   1.829   6.260   4.478 -0.5392 -0.2057 -0.2518
 8324SOL    HW233028   1.804   6.249   4.570  1.5988  0.7202  0.5041
 8324SOL    HW333029   1.924   6.262   4.479 -0.4844  0.9066 -2.3667
 8324SOL    MW433030   1.838   6.259   4.490 -0.0158  0.1484  0.7154
 8325SOL     OW33031   0.011   3.375   3.796  0.0500  0.1820  0.0031
 8325SOL    HW233032  -0.057   3.442   3.805 -0.9644 -0.3458 -2.7543
 8325SOL    HW333033   0.091   3.424   3.775 -1.0211  0.6491 -3.7274
 8325SOL    MW433034   0.012   3.390   3.795  0.2081  0.1763 -0.0748
 8326SOL     OW33035   5.060   5.496   2.867 -0.0393 -0.0006  0.0998
 8326SOL    HW233036   4.991   5.533   2.922 -0.9864 -1.5534 -0.0009
 8326SOL    HW333037   5.087   5.569   2.811 -1.1948  0.7910  0.5248
 8326SOL    MW433038   5.054   5.511   2.867  0.1272  0.2806  0.0860
 8327SOL     OW33039   6.329   4.452   2.227  0.1238 -0.3350 -0.2785
 8327SOL    HW233040   6.244   4.414   2.248  0.2957 -0.7499 -0.3191
 8327SOL    HW333041   6.381   4.441   2.307  1.4923 -3.8875 -1.4566
 8327SOL    MW433042   6.325   4.446   2.240  0.2563  0.5479 -0.2604
 8328SOL     OW33043   2.439   3.008   3.562 -0.4841 -0.7295  0.5691
 8328SOL    HW233044   2.519   2.956   3.552  0.2994  0.6968 -1.3062
 8328SOL    HW333045   2.469   3.090   3.603 -1.2594 -0.7772  1.2504
 8328SOL    MW433046   2.454   3.012   3.566  0.5193 -0.2109  0.6171
 8329SOL     OW33047   5.185   4.813   0.669  0.3303  0.8795  0.0103
 8329SOL    HW233048   5.141   4.795   0.586 -1.3938  2.7102  0.4788
 8329SOL    HW333049   5.115   4.837   0.729  1.3686 -1.5302  2.4243
 8329SOL    MW433050   5.170   4.814   0.666  0.1405  0.0159  1.1500
 8330SOL     OW33051   0.728   6.386   6.355 -0.7717  0.0840 -0.3187
 8330SOL    HW233052   0.784   6.331   6.411 -1.3458 -0.4808 -0.2825
 8330SOL    HW333053   0.707   6.462   6.409 -1.0079 -0.2741  0.0997
 8330SOL    MW433054   0.733   6.388   6.370  0.0216 -0.3168  0.0925
 8331SOL     OW33055   0.175   0.668   6.265 -0.0954 -0.2243 -0.4506
 8331SOL    HW233056   0.187   0.610   6.189  0.8977 -0.4021 -0.1725
 8331SOL    HW333057   0.099   0.721   6.243 -2.7447 -3.3492  0.3264
 8331SOL    MW433058   0.167   0.667   6.252  0.4416  0.0006  0.6095
 8332SOL     OW33059   4.880   5.795   6.278 -0.1342  0.6715  0.1801
 8332SOL    HW233060   4.886   5.761   6.189  0.5085 -1.4955  0.9897
 8332SOL    HW333061   4.786   5.799   6.295 -0.3113  2.1597 -0.9256
 8332SOL    MW433062   4.869   5.791   6.268 -0.8225  0.2964 -0.1934
 8333SOL     OW33063   1.697   0.675   3.648 -0.4098 -0.3683  0.4122
 8333SOL    HW233064   1.638   0.709   3.581 -0.1116 -0.6286  0.0122
 8333SOL    HW333065   1.767   0.740   3.654 -0.2497 -0.5171  0.2076
 8333SOL    MW433066   1.699   0.688   3.640  0.8568 -0.3355  0.1042
 8334SOL     OW33067   6.290   1.634   1.463 -0.0896 -0.4296  0.2952
 8334SOL    HW233068   6.196   1.649   1.471 -0.5062 -1.9404 -1.0893
 8334SOL    HW333069   6.330   1.694   1.526 -1.9012  1.0327  0.1198
 8334SOL    MW433070   6.283   1.644   1.472 -0.6543  0.1922  0.4411
 8335SOL     OW33071   1.519   2.166   3.077  0.1507 -0.0678 -0.0701
 8335SOL    HW233072   1.592   2.208   3.122 -0.3259  1.0229 -0.2634
 8335SOL    HW333073   1.555   2.084   3.043  0.5257 -0.8978  2.2155
 8335SOL    MW433074   1.533   2.161   3.078  0.2320  0.0186 -0.1889
 8336SOL     OW33075   5.977   6.173   0.922 -0.1555  0.3512  0.5707
 8336SOL    HW233076   6.028   6.229   0.981  0.1264  0.1966  0.4777
 8336SOL    HW333077   5.948   6.233   0.853 -1.5835  0.8060  1.5231
 8336SOL    MW433078   5.980   6.189   0.921  0.5092  0.1357 -0.2559
 8337SOL     OW33079   3.857   1.350   6.021  0.4500  0.4083 -0.5172
 8337SOL    HW233080   3.892   1.294   6.090  0.2838  0.4811 -0.3705
 8337SOL    HW333081   3.920   1.421   6.013  0.5089  0.3585 -0.4926
 8337SOL    MW433082   3.870   1.352   6.029  0.1194  0.0289 -0.4747
 8338SOL     OW33083   0.081   0.127   3.238  0.2131 -0.4971  0.2200
 8338SOL    HW233084   0.082   0.196   3.173 -0.2448 -0.7513 -0.0631
 8338SOL    HW333085   0.106   0.048   3.190  1.7501 -0.3603  0.7551
 8338SOL    MW433086   0.084   0.125   3.223  0.2450 -0.0932  0.8244
 8339SOL     OW33087   2.029   0.244   5.808  0.8776 -0.1259  0.4090
 8339SOL    HW233088   2.082   0.322   5.794  2.3056 -1.0804  0.3729
 8339SOL    HW333089   2.027   0.200   5.723  1.2881 -0.8555  0.7649
 8339SOL    MW433090   2.035   0.248   5.795 -0.6547  0.5604 -0.3989
 8340SOL     OW33091   4.278   5.341   3.820  0.2900  0.3309  0.5063
 8340SOL    HW233092   4.368   5.374   3.826  0.3746  0.0090  1.2399
 8340SOL    HW333093   4.230   5.408   3.773  1.2139 -0.1204 -1.1725
 8340SOL    MW433094   4.284   5.354   3.815  0.7173  0.3517 -0.0357
 8341SOL     OW33095   1.778   6.344   2.234 -0.2248  0.1697 -0.5173
 8341SOL    HW233096   1.832   6.376   2.306 -0.5345 -0.7115  0.1234
 8341SOL    HW333097   1.796   6.404   2.162 -0.3824  1.4581  0.4756
 8341SOL    MW433098   1.787   6.356   2.234 -0.1450  0.5339 -0.4931
 8342SOL     OW33099   4.030   6.117   3.747 -0.0497 -0.3043  0.4069
 8342SOL    HW233100   4.098   6.085   3.807  1.5782 -1.6224 -1.9728
 8342SOL    HW333101   4.073   6.188   3.700 -0.7370 -0.3732 -0.3296
 8342SOL    MW433102   4.045   6.122   3.749 -0.2361 -0.1369  0.0861
 8343SOL     OW33103   2.005   5.123   0.903  0.2511 -0.4282 -0.0567
 8343SOL    HW233104   1.949   5.130   0.980  1.9314  0.5438  1.1538
 8343SOL    HW333105   2.023   5.029   0.896 -2.0964 -0.8797 -0.9797
 8343SOL    MW433106   2.000   5.111   0.913 -0.3768  0.2439 -0.3938
 8344SOL     OW33107   2.333   4.839   6.401  0.0614  0.2206  0.0451
 8344SOL    HW233108   2.275   4.779   6.447  0.0021  1.4625  1.7098
 8344SOL    HW333109   2.421   4.813   6.428  0.0031  1.3034  1.4234
 8344SOL    MW433110   2.337   4.828   6.411 -0.1316  0.6045 -0.4682
 8345SOL     OW33111   0.307   1.705   0.049  0.4453  0.0610  0.6531
 8345SOL    HW233112   0.367   1.632   0.036 -0.0102  0.0436 -1.7992
 8345SOL    HW333113   0.331   1.768  -0.019 -1.1957  0.8057  0.7168
 8345SOL    MW433114   0.318   1.704   0.038  0.5216  0.0659 -0.0192
 8346SOL     OW33115   0.817   1.994   2.872  0.2186 -0.1682 -0.7558
 8346SOL    HW233116   0.797   1.932   2.802 -0.7542  1.5507 -2.0833
 8346SOL    HW333117   0.908   2.020   2.856 -0.4660  1.4053 -2.4379
 8346SOL    MW433118   0.827   1.989   2.861  0.2847 -0.5682  0.3324
 8347SOL     OW33119   2.247   3.051   5.725 -1.0196  0.3205  0.6189
 8347SOL    HW233120   2.285   2.999   5.796 -0.6344  1.3378  1.1862
 8347SOL    HW333121   2.310   3.045   5.654 -1.1164 -0.2156  0.5748
 8347SOL    MW433122   2.260   3.044   5.725  0.1864  0.3191  0.1857
 8348SOL     OW33123   5.511   2.252   5.299  0.2204  0.5616  0.0922
 8348SOL    HW233124   5.452   2.274   5.228 -0.5142 -1.3508  0.0406
 8348SOL    HW333125   5.575   2.193   5.259  0.3253  0.1816  0.8017
 8348SOL    MW433126   5.512   2.247   5.285 -0.2839 -0.1589 -0.1199
 8349SOL     OW33127   2.307   0.356   0.086 -0.0395 -0.1309  0.0348
 8349SOL    HW233128   2.324   0.450   0.092  0.2184 -0.2391  1.6541
 8349SOL    HW333129   2.358   0.318   0.158 -0.3717 -1.4755 -0.4033
 8349SOL    MW433130   2.316   0.363   0.096  0.4163  0.2864 -0.4972
 8350SOL     OW33131   4.382   0.984   1.443  0.5519  0.0040  0.0075
 8350SOL    HW233132   4.337   0.924   1.384  1.5901 -2.1058  1.2139
 8350SOL    HW333133   4.362   1.071   1.410 -0.2410 -1.0272 -2.4341
 8350SOL    MW433134   4.373   0.988   1.431  0.1522  0.5534 -0.5549
 8351SOL     OW33135   0.255   1.613   4.870 -0.2673  0.5334  0.1671
 8351SOL    HW233136   0.342   1.651   4.858  0.2502 -0.8444 -0.6938
 8351SOL    HW333137   0.262   1.560   4.949 -1.5441  3.6050  2.5613
 8351SOL    MW433138   0.267   1.611   4.879  0.0946 -0.3801  0.3441
 8352SOL     OW33139   6.328   1.951   2.599 -0.5984  0.4832 -0.4054
 8352SOL    HW233140   6.354   1.869   2.558 -0.3458 -0.0632  0.8065
 8352SOL    HW333141   6.244   1.932   2.640  0.2093  0.3320  1.2496
 8352SOL    MW433142   6.320   1.938   2.599  0.2727 -0.2718 -0.1267
 8353SOL     OW33143   4.833   3.933   2.067  0.2719  0.2206 -0.1422
 8353SOL    HW233144   4.827   4.005   2.004 -1.2213 -1.1894 -1.7066
 8353SOL    HW333145   4.904   3.878   2.032 -0.1938 -0.2825 -0.3052
 8353SOL    MW433146   4.842   3.935   2.054 -0.8574 -0.5207 -0.1324
 8354SOL     OW33147   1.514   5.543   4.456  0.0615 -0.3116 -0.1513
 8354SOL    HW233148   1.451   5.536   4.385 -0.2895  1.0460  0.0066
 8354SOL    HW333149   1.565   5.462   4.451 -1.2397 -1.1186 -0.6999
 8354SOL    MW433150   1.512   5.532   4.446  0.4520  0.2404 -0.1985
 8355SOL     OW33151   3.744   0.745   4.910  0.1200 -0.0832 -0.8307
 8355SOL    HW233152   3.734   0.839   4.893  0.7734  0.4415  1.3536
 8355SOL    HW333153   3.661   0.719   4.948 -0.0557 -0.4214 -1.4240
 8355SOL    MW433154   3.732   0.754   4.912 -0.3287 -0.5817  0.7665
 8356SOL     OW33155   1.952   5.909   1.562 -0.3695 -0.3170 -0.0833
 8356SOL    HW233156   1.937   5.983   1.503 -2.1148 -0.6765 -0.1409
 8356SOL    HW333157   2.043   5.920   1.591  0.2985  0.2914 -2.2041
 8356SOL    MW433158   1.962   5.920   1.558 -0.1074 -0.1864 -0.2929
 8357SOL     OW33159   6.301   2.367   0.139  0.3532 -0.0758  0.4256
 8357SOL    HW233160   6.256   2.382   0.056  2.6822 -0.7957 -1.0827
 8357SOL    HW333161   6.319   2.455   0.173 -0.3111  0.2317  0.0092
 8357SOL    MW433162   6.297   2.380   0.132 -0.2493 -0.0587  0.2387
 8358SOL     OW33163   5.714   3.858   1.982 -0.4363  0.3045 -0.4485
 8358SOL    HW233164   5.781   3.876   2.048  1.9894 -0.7432 -2.4421
 8358SOL    HW333165   5.719   3.932   1.921 -0.9159  0.1102 -0.7286
 8358SOL    MW433166   5.724   3.870   1.982 -0.5335 -0.2273 -0.0288
 8359SOL     OW33167   4.411   3.719   2.573  0.0258 -0.2358 -0.2311
 8359SOL    HW233168   4.389   3.801   2.619 -0.4733 -0.4668 -0.0511
 8359SOL    HW333169   4.341   3.709   2.508 -1.4292 -1.8357  1.4439
 8359SOL    MW433170   4.398   3.729   2.571 -0.2114  0.1398 -0.0484
 8360SOL     OW33171   3.394   0.007   3.116  0.2711 -0.2539  0.2004
 8360SOL    HW233172   3.314  -0.019   3.163  0.7090 -1.4844  0.3045
 8360SOL    HW333173   3.363   0.064   3.046 -0.9545 -2.1945 -0.9383
 8360SOL    MW433174   3.379   0.011   3.113 -0.4624 -0.3283  0.3929
 8361SOL     OW33175   5.500   6.136   4.786 -0.1590 -0.2409  0.0063
 8361SOL    HW233176   5.533   6.127   4.875 -1.7313 -2.3089  0.4683
 8361SOL    HW333177   5.460   6.223   4.783  0.2599  0.0000  1.1963
 8361SOL    MW433178   5.499   6.147   4.797 -0.0896 -0.0582 -0.2042
 8362SOL     OW33179   1.652   5.310   1.711  0.2938 -0.0719 -0.2873
 8362SOL    HW233180   1.697   5.245   1.764 -1.7542 -1.2021  0.1524
 8362SOL    HW333181   1.676   5.288   1.621 -0.0893 -1.2469 -0.1237
 8362SOL    MW433182   1.661   5.299   1.706 -0.2128  0.1459  0.4584
 8363SOL     OW33183   0.090   0.117   4.316  0.6090 -0.0181 -0.1863
 8363SOL    HW233184   0.110   0.046   4.377  0.1045  0.0901  0.1150
 8363SOL    HW333185   0.172   0.165   4.307  1.0327 -0.8030 -0.6119
 8363SOL    MW433186   0.103   0.114   4.323  0.1144 -0.1283  0.2771
 8364SOL     OW33187   6.334   4.790   5.020  0.5107  0.1477 -0.2908
 8364SOL    HW233188   6.265   4.776   5.085  1.6393 -0.4425  0.8254
 8364SOL    HW333189   6.415   4.764   5.065  1.5905  1.6805 -1.2540
 8364SOL    MW433190   6.336   4.785   5.035 -0.4082 -0.0696 -0.5549
 8365SOL     OW33191   0.529   0.044   3.377 -0.3690  0.4336 -0.6765
 8365SOL    HW233192   0.581   0.063   3.299 -0.7537 -1.8894 -1.5990
 8365SOL    HW333193   0.591   0.004   3.438 -0.8402 -2.0315 -1.6528
 8365SOL    MW433194   0.544   0.041   3.375  0.1108  0.2705  0.0713
 8366SOL     OW33195   3.140   1.028   1.325  0.8667 -0.8184  0.0342
 8366SOL    HW233196   3.045   1.037   1.323  0.9673  0.2160 -1.0130
 8366SOL    HW333197   3.164   1.050   1.415  0.2698  0.8639 -0.1953
 8366SOL    MW433198   3.130   1.032   1.337 -0.5294 -0.4941  0.0841
 8367SOL     OW33199   2.522   3.100   5.306  0.4371 -0.3998  0.4172
 8367SOL    HW233200   2.579   3.036   5.263  1.1368 -0.4421  1.3659
 8367SOL    HW333201   2.582   3.163   5.346 -0.2416  1.5746 -1.4727
 8367SOL    MW433202   2.537   3.100   5.306 -0.1155  0.1252  0.4077
 8368SOL     OW33203   4.358   0.139   5.489  0.3110  0.2460 -0.2309
 8368SOL    HW233204   4.380   0.138   5.396  1.5405  1.5300  0.0194
 8368SOL    HW333205   4.352   0.231   5.512 -1.7209 -0.0318  0.6164
 8368SOL    MW433206   4.360   0.151   5.480 -0.3434  0.3252 -0.1446
 8369SOL     OW33207   6.157   1.553   3.942  0.0000 -0.2814 -0.1664
 8369SOL    HW233208   6.202   1.625   3.986 -1.5533  1.1155 -0.7874
 8369SOL    HW333209   6.192   1.553   3.853  1.0058 -1.2275  0.2038
 8369SOL    MW433210   6.168   1.562   3.936  0.2018  0.0076 -0.3850
 8370SOL     OW33211   2.438   4.268   0.184 -0.2090 -0.3952  0.2446
 8370SOL    HW233212   2.395   4.202   0.130  2.1893 -1.5267 -0.4409
 8370SOL    HW333213   2.411   4.248   0.273  0.3592 -2.2819  0.0390
 8370SOL    MW433214   2.429   4.257   0.188  0.1032  0.5110 -0.0802
 8371SOL     OW33215   0.277   4.244   3.613 -0.2456 -0.0081 -0.0801
 8371SOL    HW233216   0.339   4.317   3.619 -0.9535  0.5778  0.2556
 8371SOL    HW333217   0.264   4.231   3.519 -1.6207  1.6125 -0.1446
 8371SOL    MW433218   0.284   4.252   3.601  0.3176  0.0300 -0.0419
 8372SOL     OW33219   0.739   0.152   2.317  0.1080 -0.0020 -0.5377
 8372SOL    HW233220   0.760   0.068   2.275  1.0016  0.9714 -2.1577
 8372SOL    HW333221   0.770   0.218   2.254 -0.9455  1.5421  0.5080
 8372SOL    MW433222   0.746   0.150   2.303 -0.3061 -0.4359 -0.0409
 8373SOL     OW33223   1.270   3.609   3.024 -0.5487 -1.0610 -0.3233
 8373SOL    HW233224   1.298   3.693   3.058 -0.8389 -1.3692  0.7173
 8373SOL    HW333225   1.240   3.627   2.935 -0.1578 -0.1609 -0.2772
 8373SOL    MW433226   1.270   3.622   3.017 -0.1780  0.0924  0.2814
 8374SOL     OW33227   2.093   0.680   2.851 -0.9554  0.2097 -0.1857
 8374SOL    HW233228   2.120   0.771   2.863 -0.1831 -0.1305  0.8242
 8374SOL    HW333229   2.174   0.635   2.826 -1.3901 -0.1635 -0.9725
 8374SOL    MW433230   2.107   0.686   2.849 -0.2974 -1.0557 -0.5224
 8375SOL     OW33231   5.538   1.547   4.001  0.6033  0.3743 -0.0031
 8375SOL    HW233232   5.604   1.488   3.965  0.5994  0.6889 -0.5272
 8375SOL    HW333233   5.564   1.634   3.973  0.8376  0.6854  1.1217
 8375SOL    MW433234   5.550   1.551   3.993 -0.8655 -0.0655 -0.2273
 8376SOL     OW33235   4.264   0.734   6.308 -0.0826  0.1862 -0.1807
 8376SOL    HW233236   4.305   0.721   6.393  1.3829  1.4099 -0.6402
 8376SOL    HW333237   4.213   0.654   6.292  0.5687 -0.5530  1.2969
 8376SOL    MW433238   4.262   0.722   6.317 -0.6270  0.1800  0.1000
 8377SOL     OW33239   1.324   5.507   2.676  0.0922 -0.1508  0.3834
 8377SOL    HW233240   1.392   5.525   2.612  0.3750 -1.4242  0.3145
 8377SOL    HW333241   1.364   5.530   2.760 -0.0237  0.7997  0.1947
 8377SOL    MW433242   1.338   5.512   2.679  0.2211  0.1581  0.6195
 8378SOL     OW33243   0.688   4.801   5.924  0.4271  0.1986  0.1979
 8378SOL    HW233244   0.647   4.822   5.840 -1.2199 -0.0768  0.8924
 8378SOL    HW333245   0.662   4.711   5.942  1.0191  0.1491  0.8702
 8378SOL    MW433246   0.679   4.792   5.915  0.1189 -0.1778 -0.0297
 8379SOL     OW33247   4.165   5.778   6.095  0.0552  0.0422  0.2564
 8379SOL    HW233248   4.224   5.808   6.163 -1.0236 -0.4760  1.4627
 8379SOL    HW333249   4.222   5.742   6.027  1.2595  2.2958 -0.0491
 8379SOL    MW433250   4.180   5.777   6.095 -0.1180  0.2121  0.3140
 8380SOL     OW33251   2.302   2.354   1.629  0.1957  0.2577  0.0549
 8380SOL    HW233252   2.232   2.321   1.572 -1.1098  3.7788 -0.6471
 8380SOL    HW333253   2.377   2.299   1.609 -1.4375 -1.4824 -1.7597
 8380SOL    MW433254   2.303   2.342   1.619  0.0248 -0.1228 -0.0401
 8381SOL     OW33255   3.017   0.342   4.010  0.1332 -0.2433  0.1163
 8381SOL    HW233256   2.977   0.429   4.015 -0.8763 -0.7174  0.4345
 8381SOL    HW333257   2.976   0.293   4.081  0.9560 -0.8855  0.1627
 8381SOL    MW433258   3.007   0.347   4.020  0.3833  0.2386  0.1456
 8382SOL     OW33259   1.394   2.550   4.096  0.8821  0.2916 -0.0145
 8382SOL    HW233260   1.423   2.635   4.064 -0.7869  1.7744  2.0771
 8382SOL    HW333261   1.364   2.503   4.018  2.0368  1.4982 -1.2286
 8382SOL    MW433262   1.394   2.555   4.081  0.8212  0.0578  0.0652
 8383SOL     OW33263   2.633   0.475   0.223  0.7996 -0.1467 -0.2225
 8383SOL    HW233264   2.563   0.515   0.170  0.4125 -0.5950 -0.0544
 8383SOL    HW333265   2.708   0.534   0.212  0.0738  0.9563  0.4751
 8383SOL    MW433266   2.633   0.488   0.215 -0.6386 -0.1862  0.0356
 8384SOL     OW33267   2.352   1.124   0.954  0.0744 -0.0757 -0.6788
 8384SOL    HW233268   2.266   1.113   0.996  0.8792  0.2795  1.1372
 8384SOL    HW333269   2.370   1.038   0.915 -1.4360  0.0744 -1.8310
 8384SOL    MW433270   2.343   1.111   0.954  0.3071  0.4942 -0.0037
 8385SOL     OW33271   0.343   2.275   5.597 -0.5063 -0.1834  0.2810
 8385SOL    HW233272   0.434   2.291   5.621 -0.3666 -1.5538  0.7477
 8385SOL    HW333273   0.296   2.352   5.627  0.4932  0.5459  0.0268
 8385SOL    MW433274   0.349   2.287   5.604  0.0466  0.0944 -0.6844
 8386SOL     OW33275   1.548   1.491   4.677 -0.1846 -0.0307 -0.2223
 8386SOL    HW233276   1.598   1.411   4.695 -2.7130 -1.7646 -0.3903
 8386SOL    HW333277   1.498   1.507   4.757 -1.6198 -0.1363 -1.0640
 8386SOL    MW433278   1.548   1.483   4.690  0.8868  0.6470 -0.0572
 8387SOL     OW33279   1.205   2.446   4.979  0.4274 -0.0423 -0.2125
 8387SOL    HW233280   1.204   2.422   4.887  0.2795  1.0753 -0.5166
 8387SOL    HW333281   1.198   2.363   5.026  1.9328 -0.7461 -1.1721
 8387SOL    MW433282   1.204   2.432   4.973 -0.5796  0.1054 -0.0716
 8388SOL     OW33283   4.823   3.239   1.002 -0.4704 -0.8499  0.0328
 8388SOL    HW233284   4.887   3.306   1.026  1.5390 -3.0664  1.3790
 8388SOL    HW333285   4.780   3.273   0.924  1.4866  1.3347 -0.1928
 8388SOL    MW433286   4.826   3.252   0.995 -0.4504  0.2145  0.2227
 8389SOL     OW33287   2.573   2.084   0.162 -0.1222  0.3537  0.2938
 8389SOL    HW233288   2.619   2.154   0.114 -0.4532  0.3414 -0.0456
 8389SOL    HW333289   2.569   2.115   0.252  0.0582  0.6065  0.2159
 8389SOL    MW433290   2.579   2.097   0.167  0.2863 -0.6072 -0.1328
 8390SOL     OW33291   5.247   0.576   3.151 -0.3574 -0.1815 -0.4142
 8390SOL    HW233292   5.203   0.499   3.187 -0.8309 -0.4297 -1.4757
 8390SOL    HW333293   5.176   0.631   3.119  0.0432  0.0277 -0.9564
 8390SOL    MW433294   5.232   0.573   3.151 -0.3102  0.4331 -0.2526
 8391SOL     OW33295   0.849   0.525   4.363 -0.1509  0.0809  0.4418
 8391SOL    HW233296   0.831   0.431   4.357 -1.9679  0.4679 -0.9742
 8391SOL    HW333297   0.819   0.550   4.450 -2.1793 -0.1895 -0.1495
 8391SOL    MW433298   0.843   0.516   4.373 -0.0196 -0.6183  0.0564
 8392SOL     OW33299   0.568   6.016   3.540 -0.6734 -0.2497  0.5787
 8392SOL    HW233300   0.485   6.049   3.574 -0.0470 -0.8200  2.8158
 8392SOL    HW333301   0.601   5.959   3.610  2.1039  0.7916  0.2132
 8392SOL    MW433302   0.561   6.013   3.554  0.0068  0.0969 -0.4361
 8393SOL     OW33303   1.041   4.445   5.625 -0.0320 -0.6348 -0.0378
 8393SOL    HW233304   1.040   4.357   5.589 -3.0514 -0.1829 -1.3460
 8393SOL    HW333305   0.966   4.448   5.684  0.7244  0.7438  0.9163
 8393SOL    MW433306   1.031   4.434   5.628 -0.5095  0.9584  0.1941
 8394SOL     OW33307   3.278   4.447   3.168 -0.2280  0.5795 -0.2826
 8394SOL    HW233308   3.199   4.497   3.146  1.3835  2.8307 -1.3750
 8394SOL    HW333309   3.291   4.389   3.093 -1.5583 -0.8637  0.5420
 8394SOL    MW433310   3.269   4.446   3.155 -0.5886  0.3961 -0.3805
 8395SOL     OW33311   1.145   5.785   0.310 -0.2014  0.0484 -0.2124
 8395SOL    HW233312   1.156   5.700   0.353  0.4443 -1.1320 -2.5098
 8395SOL    HW333313   1.051   5.802   0.315 -0.1467  0.0204  1.6426
 8395SOL    MW433314   1.134   5.776   0.316  0.3006  0.0733  0.0580
 8396SOL     OW33315   2.797   6.201   0.051  0.3260 -0.1225  0.0486
 8396SOL    HW233316   2.769   6.273   0.108  1.4917 -0.4848  1.1419
 8396SOL    HW333317   2.805   6.241  -0.036 -1.2808  0.4945  0.1597
 8396SOL    MW433318   2.795   6.216   0.047  0.2606  0.4590 -0.1366
 8397SOL     OW33319   2.963   2.949   3.357  0.4721  0.4026 -0.0951
 8397SOL    HW233320   3.055   2.971   3.340  0.1234  1.0272 -1.2854
 8397SOL    HW333321   2.955   2.857   3.331  0.8537  0.1968  0.4781
 8397SOL    MW433322   2.974   2.940   3.352  0.2795  0.7634 -0.0055
 8398SOL     OW33323   5.620   2.114   0.830  0.3295  0.6758 -0.4735
 8398SOL    HW233324   5.677   2.040   0.810  0.9891  1.0737 -0.1169
 8398SOL    HW333325   5.552   2.077   0.886  1.5512  0.6184  1.0461
 8398SOL    MW433326   5.619   2.099   0.835  1.1271 -0.1675 -0.3715
 8399SOL     OW33327   2.199   6.195   4.675  0.0284  0.5759 -0.1418
 8399SOL    HW233328   2.293   6.189   4.657  0.0285  0.2819 -0.0583
 8399SOL    HW333329   2.192   6.249   4.754  0.0381  1.7584 -0.9277
 8399SOL    MW433330   2.211   6.201   4.683 -0.4719 -0.0760 -0.2623
 8400SOL     OW33331   3.490   4.018   3.731  0.4424 -0.3297  0.0112
 8400SOL    HW233332   3.561   3.961   3.703  1.5594  0.1504  1.7213
 8400SOL    HW333333   3.431   3.961   3.781 -0.3038 -0.6778 -1.2142
 8400SOL    MW433334   3.491   4.003   3.734 -0.4848  0.0677  0.2387
 8401SOL     OW33335   1.777   4.209   2.374 -0.6756 -0.7497 -0.4835
 8401SOL    HW233336   1.774   4.249   2.461  2.0247 -1.1270 -0.1108
 8401SOL    HW333337   1.819   4.276   2.319 -2.2506 -0.5608 -1.4996
 8401SOL    MW433338   1.782   4.223   2.378 -0.3242 -0.4092  0.0180
 8402SOL     OW33339   5.298   5.316   5.769  0.4007  0.1751 -0.0832
 8402SOL    HW233340   5.284   5.361   5.686  1.9263  0.8681  0.0025
 8402SOL    HW333341   5.392   5.295   5.769  0.1473 -1.0144  0.8741
 8402SOL    MW433342   5.309   5.320   5.758  0.4734 -0.0749  0.0108
 8403SOL     OW33343   3.210   0.762   6.050 -0.0191 -0.2407 -0.0054
 8403SOL    HW233344   3.150   0.828   6.016 -1.0388 -0.4635  1.3026
 8403SOL    HW333345   3.216   0.697   5.980 -0.3290  0.3906 -0.6337
 8403SOL    MW433346   3.203   0.762   6.036  0.1572  0.0273  0.3019
 8404SOL     OW33347   2.671   5.882   3.586 -0.5545  0.3185 -0.1293
 8404SOL    HW233348   2.764   5.877   3.608 -0.2448 -1.2438 -1.6031
 8404SOL    HW333349   2.657   5.811   3.524 -2.2903  1.7616 -1.5216
 8404SOL    MW433350   2.682   5.872   3.581 -0.1378  0.0328 -0.3936
 8405SOL     OW33351   2.096   4.674   4.333  0.5869 -0.2079 -0.2369
 8405SOL    HW233352   2.104   4.651   4.425 -0.8973  0.1513  0.0204
 8405SOL    HW333353   2.171   4.730   4.315  0.5370  0.2728  0.9541
 8405SOL    MW433354   2.107   4.679   4.343 -0.0116  0.3026  0.5473
 8406SOL     OW33355   4.650   0.835   0.187  0.0133  0.3453  0.3844
 8406SOL    HW233356   4.631   0.796   0.101 -2.6354 -0.9397  1.4220
 8406SOL    HW333357   4.641   0.929   0.174 -0.0381  0.1893 -0.8123
 8406SOL    MW433358   4.646   0.842   0.174 -0.0992  0.3150 -0.5314
 8407SOL     OW33359   6.036   4.162   2.094 -0.2587 -0.0539 -0.3990
 8407SOL    HW233360   6.085   4.199   2.168 -0.5571 -0.1886 -0.1365
 8407SOL    HW333361   6.091   4.182   2.018  0.9642 -1.5419  0.0524
 8407SOL    MW433362   6.050   4.170   2.093 -0.1799 -0.0951  0.5999
 8408SOL     OW33363   2.202   4.041   4.206 -0.7369  0.5707 -0.9868
 8408SOL    HW233364   2.143   4.041   4.130 -0.5554 -1.1020 -1.1622
 8408SOL    HW333365   2.283   4.080   4.173 -0.6863 -0.0643 -1.6553
 8408SOL    MW433366   2.205   4.046   4.192  0.2816  0.1667  0.2793
 8409SOL     OW33367   1.316   0.493   1.238  0.0945 -0.3759 -0.2792
 8409SOL    HW233368   1.272   0.545   1.306  0.7827 -1.1467  0.7779
 8409SOL    HW333369   1.362   0.425   1.286 -0.3055 -1.6168 -1.6017
 8409SOL    MW433370   1.316   0.491   1.254  0.3384  0.1060 -0.0787
 8410SOL     OW33371   2.617   4.766   3.237 -0.0553  0.4424 -0.4186
 8410SOL    HW233372   2.620   4.757   3.141  1.0505  2.1888 -0.5942
 8410SOL    HW333373   2.690   4.713   3.268 -0.4812 -0.2147 -0.5124
 8410SOL    MW433374   2.627   4.758   3.228  0.0929 -0.0588  0.0491
 8411SOL     OW33375   1.204   1.260   5.509  0.5212 -0.3214 -0.1548
 8411SOL    HW233376   1.156   1.197   5.456  1.1605 -0.7920 -0.1822
 8411SOL    HW333377   1.208   1.339   5.454 -3.9042  1.3109  1.4089
 8411SOL    MW433378   1.198   1.262   5.495 -0.1233 -0.3694 -0.4836
 8412SOL     OW33379   1.655   1.398   0.003  0.0245  0.8833  0.0590
 8412SOL    HW233380   1.644   1.341   0.079 -1.3038 -0.2058 -0.9261
 8412SOL    HW333381   1.579   1.456   0.005 -0.3668  0.4083 -0.8104
 8412SOL    MW433382   1.644   1.398   0.013 -0.0813  0.3308  0.3830
 8413SOL     OW33383   5.097   5.509   5.319 -0.2018  0.1019 -0.2902
 8413SOL    HW233384   5.015   5.500   5.271  0.1035 -0.6220 -0.6972
 8413SOL    HW333385   5.161   5.462   5.265  0.4198  0.4179  0.1623
 8413SOL    MW433386   5.095   5.502   5.306  0.1100 -0.4457  0.1321
 8414SOL     OW33387   5.147   0.036   5.161  0.0161  0.1993  0.2809
 8414SOL    HW233388   5.054   0.019   5.152 -0.1285  0.7884  0.6134
 8414SOL    HW333389   5.161   0.119   5.116  0.3255  0.2688  0.5034
 8414SOL    MW433390   5.137   0.044   5.154  0.0459 -0.2641  0.1252
 8415SOL     OW33391   4.398   1.645   0.287 -0.5936  0.7970  0.2486
 8415SOL    HW233392   4.342   1.667   0.361 -1.2642 -0.6689  0.2139
 8415SOL    HW333393   4.448   1.725   0.269 -0.5008  1.2081  2.1887
 8415SOL    MW433394   4.397   1.659   0.294 -0.2497 -0.3215  0.1185
 8416SOL     OW33395   1.074   3.219   3.308 -0.3516  0.2609  0.2206
 8416SOL    HW233396   1.141   3.282   3.281 -1.8399  1.9520  0.2297
 8416SOL    HW333397   1.118   3.162   3.370  1.6906 -0.2437 -1.5547
 8416SOL    MW433398   1.088   3.220   3.312 -0.3526 -0.1691  0.5280
 8417SOL     OW33399   1.934   6.062   4.067  0.6137  0.3391  0.1958
 8417SOL    HW233400   1.991   6.056   4.144 -0.2022 -1.3521  0.7242
 8417SOL    HW333401   1.868   5.995   4.081 -0.2134  0.7430 -1.4758
 8417SOL    MW433402   1.933   6.053   4.079 -0.0741  0.1549 -0.0374
 8418SOL     OW33403   1.769   6.064   3.122 -0.1372 -0.3205  0.1027
 8418SOL    HW233404   1.747   6.153   3.096 -0.9296 -0.3980  0.4541
 8418SOL    HW333405   1.857   6.049   3.087  0.0042  0.5924  0.0452
 8418SOL    MW433406   1.777   6.074   3.114  0.3894 -0.3142 -0.0676
 8419SOL     OW33407   4.895   4.720   4.995 -0.3711 -0.2955 -0.1209
 8419SOL    HW233408   4.934   4.755   5.075  0.8857 -2.4481  0.2820
 8419SOL    HW333409   4.945   4.760   4.924 -0.3173  0.2735  0.2365
 8419SOL    MW433410   4.907   4.730   4.996 -0.2274 -0.1312 -0.3881
 8420SOL     OW33411   1.805   5.967   1.768 -0.2771 -0.6519  0.7262
 8420SOL    HW233412   1.838   5.950   1.680 -0.9291  2.4396 -0.2584
 8420SOL    HW333413   1.756   5.888   1.791 -1.4983 -0.9560 -2.3909
 8420SOL    MW433414   1.803   5.954   1.760 -0.3259  0.2878 -0.0137
 8421SOL     OW33415   4.546   0.863   1.635  0.0364  0.5135  0.2520
 8421SOL    HW233416   4.499   0.885   1.554 -0.4030 -0.9420  0.0817
 8421SOL    HW333417   4.621   0.813   1.605  0.3352  0.6978  0.6979
 8421SOL    MW433418   4.549   0.859   1.620  0.7116  0.4620 -1.1355
 8422SOL     OW33419   0.653   4.333   3.642  0.1803 -1.0552 -0.4192
 8422SOL    HW233420   0.593   4.400   3.676 -0.8861 -1.9218 -0.5410
 8422SOL    HW333421   0.675   4.280   3.719  0.8430 -0.7130 -0.3665
 8422SOL    MW433422   0.648   4.335   3.657  0.3870  0.0483  0.4942
 8423SOL     OW33423   1.461   3.299   1.855 -0.2173  0.2677  0.4307
 8423SOL    HW233424   1.465   3.321   1.948  1.3205 -1.5193  0.8446
 8423SOL    HW333425   1.372   3.324   1.828 -1.1225 -0.2860  2.6701
 8423SOL    MW433426   1.450   3.305   1.864 -0.1353  0.0723  0.6046
 8424SOL     OW33427   0.553   1.693   2.513  0.3897 -0.2988 -0.2705
 8424SOL    HW233428   0.523   1.713   2.424 -2.6429  0.4343  0.8148
 8424SOL    HW333429   0.521   1.604   2.529 -1.3152  0.4821  0.9098
 8424SOL    MW433430   0.545   1.684   2.503 -0.3942 -0.4182  0.3280
 8425SOL     OW33431   0.673   6.324   5.278  0.5145 -0.1164 -0.3090
 8425SOL    HW233432   0.599   6.290   5.328 -0.8233  3.5960  0.5452
 8425SOL    HW333433   0.636   6.347   5.193  0.9590  0.6956 -0.2878
 8425SOL    MW433434   0.658   6.322   5.274  0.0757  0.2379 -0.0781
 8426SOL     OW33435   3.819   4.259   5.788  0.1661  0.7927  0.5341
 8426SOL    HW233436   3.833   4.271   5.694  1.2271 -0.9306  0.4419
 8426SOL    HW333437   3.900   4.288   5.829  0.5527 -0.4926  0.7262
 8426SOL    MW433438   3.831   4.264   5.781  0.8052  0.3378 -0.1429
 8427SOL     OW33439   3.565   2.333   0.444  0.1490  0.3143  0.3972
 8427SOL    HW233440   3.578   2.239   0.446  2.5478  0.4802 -1.9640
 8427SOL    HW333441   3.588   2.363   0.532 -2.8787 -1.3939  1.9315
 8427SOL    MW433442   3.570   2.325   0.456  0.2815 -0.0673 -0.2688
 8428SOL     OW33443   2.565   1.063   3.592  0.2865  0.3551 -0.3287
 8428SOL    HW233444   2.498   1.000   3.620  0.7272 -0.2446 -0.6084
 8428SOL    HW333445   2.618   1.079   3.670  0.4755  0.0021 -0.3869
 8428SOL    MW433446   2.563   1.057   3.606  0.2999  0.3790  0.0471
 8429SOL     OW33447   3.170   0.662   5.336 -0.1505 -0.1353  0.0499
 8429SOL    HW233448   3.195   0.655   5.244  2.6553  0.9319  0.6369
 8429SOL    HW333449   3.099   0.598   5.346 -0.6758 -0.1620 -2.8402
 8429SOL    MW433450   3.164   0.652   5.325 -0.1684  0.0483 -0.2773
 8430SOL     OW33451   5.289   2.979   5.582 -0.3574 -0.3477 -0.0531
 8430SOL    HW233452   5.247   2.905   5.538 -1.7275 -0.8315  1.9341
 8430SOL    HW333453   5.244   3.056   5.547  0.3567 -0.4874 -1.3523
 8430SOL    MW433454   5.277   2.979   5.571 -0.2736 -0.2023  0.0073
 8431SOL     OW33455   0.759   3.680   5.996 -0.0522 -0.5453  0.2880
 8431SOL    HW233456   0.851   3.700   5.979 -0.3824  1.1644  0.3257
 8431SOL    HW333457   0.745   3.707   6.087 -1.0488  1.0781 -0.3123
 8431SOL    MW433458   0.769   3.686   6.006 -0.5584  0.1537  0.1396
 8432SOL     OW33459   0.952   1.064   3.522 -0.0271 -0.2159 -0.2058
 8432SOL    HW233460   0.875   1.010   3.506 -0.4803  0.3284  0.1337
 8432SOL    HW333461   0.919   1.153   3.527  0.5908  0.0005  0.1492
 8432SOL    MW433462   0.938   1.068   3.521 -0.1446 -0.5867  0.4754
 8433SOL     OW33463   4.795   4.126   4.959 -0.1021  0.1597 -0.2896
 8433SOL    HW233464   4.852   4.086   4.894 -1.1244 -1.5194 -0.2282
 8433SOL    HW333465   4.709   4.086   4.943 -0.7185  0.8561  1.1028
 8433SOL    MW433466   4.791   4.115   4.948  0.2533 -0.4548 -0.2995
 8434SOL     OW33467   5.682   5.805   0.378 -0.1574 -1.0549 -0.6418
 8434SOL    HW233468   5.637   5.863   0.316 -1.1847 -0.6845  0.4114
 8434SOL    HW333469   5.611   5.768   0.431  0.7273 -1.0017  0.6027
 8434SOL    MW433470   5.666   5.808   0.377  0.3547  0.2509 -0.0587
 8435SOL     OW33471   3.440   0.405   3.138 -0.4064 -0.1608 -0.3112
 8435SOL    HW233472   3.443   0.324   3.189  0.2402 -0.9507 -1.5595
 8435SOL    HW333473   3.409   0.378   3.051  2.4508  0.4261 -1.6134
 8435SOL    MW433474   3.436   0.391   3.133  0.4253 -0.0529 -0.2194
 8436SOL     OW33475   2.558   4.771   5.244 -0.2676  0.2679  0.5042
 8436SOL    HW233476   2.525   4.699   5.299  0.4038 -0.7124 -0.3485
 8436SOL    HW333477   2.637   4.736   5.203  0.6785  1.8576  0.8622
 8436SOL    MW433478   2.564   4.757   5.246 -0.0018 -0.2948  0.0298
 8437SOL     OW33479   4.083   3.593   3.677 -0.0509 -0.7988 -0.1610
 8437SOL    HW233480   4.132   3.583   3.759  0.3270  0.1451 -0.2550
 8437SOL    HW333481   4.149   3.580   3.609  0.4229  1.6995 -0.2946
 8437SOL    MW433482   4.098   3.590   3.679 -0.0192  0.0252  0.3741
 8438SOL     OW33483   5.868   4.834   4.609  0.1146 -0.6229 -0.2952
 8438SOL    HW233484   5.935   4.772   4.583  2.1571  0.4442  2.0283
 8438SOL    HW333485   5.913   4.918   4.615 -0.6197 -0.3004  3.8869
 8438SOL    MW433486   5.882   4.837   4.606  0.5565 -0.3946  0.4799
 8439SOL     OW33487   0.970   4.423   4.233  0.2782 -0.1301  0.0328
 8439SOL    HW233488   1.009   4.396   4.316  0.8223  0.1984 -0.1100
 8439SOL    HW333489   1.043   4.422   4.170  0.0569  0.4584 -0.2457
 8439SOL    MW433490   0.985   4.419   4.235  0.1098 -0.3705 -0.3092
 8440SOL     OW33491   3.948   0.842   0.628  0.1690  0.9772 -0.0017
 8440SOL    HW233492   4.012   0.824   0.559 -0.0850  0.5830 -0.1416
 8440SOL    HW333493   3.926   0.934   0.617  0.9202  1.1816  0.2271
 8440SOL    MW433494   3.953   0.851   0.618 -0.2242 -0.2396 -0.2536
 8441SOL     OW33495   2.235   0.258   0.700  0.4441 -0.3290  0.0355
 8441SOL    HW233496   2.246   0.165   0.683 -1.2317 -0.3610 -1.0231
 8441SOL    HW333497   2.153   0.281   0.658  0.4115  1.4644  0.9838
 8441SOL    MW433498   2.226   0.249   0.692  0.6172 -0.6269 -0.0680
 8442SOL     OW33499   4.205   6.115   5.418 -0.0440 -0.1555 -0.9547
 8442SOL    HW233500   4.193   6.210   5.427 -1.3907 -0.4530  0.9615
 8442SOL    HW333501   4.299   6.101   5.434 -0.2663  0.6480  1.3661
 8442SOL    MW433502   4.216   6.126   5.421  0.8005  0.3972 -0.9934
 8443SOL     OW33503   6.398   3.671   3.825  0.1906 -0.2342  0.0505
 8443SOL    HW233504   6.316   3.707   3.860  0.6974 -1.2074  2.4867
 8443SOL    HW333505   6.448   3.748   3.797 -1.3248  0.4039 -1.0495
 8443SOL    MW433506   6.394   3.686   3.826 -0.3567 -0.0283  0.0849
 8444SOL     OW33507   2.854   4.973   4.771  0.4067 -0.6990 -0.2558
 8444SOL    HW233508   2.943   4.964   4.805  0.5674 -0.5121 -0.6167
 8444SOL    HW333509   2.859   4.936   4.682  0.0388 -1.0130 -0.1490
 8444SOL    MW433510   2.867   4.967   4.764 -0.3540 -0.2938 -0.1007
 8445SOL     OW33511   1.775   5.402   3.331 -0.0563 -0.3461 -0.0320
 8445SOL    HW233512   1.856   5.436   3.369  0.0837  0.8807 -1.3098
 8445SOL    HW333513   1.797   5.388   3.238 -1.2851  0.0018 -0.3930
 8445SOL    MW433514   1.789   5.405   3.324  0.4918  0.3000  0.0293
 8446SOL     OW33515   0.620   0.618   3.759 -0.0908 -0.0151  0.9046
 8446SOL    HW233516   0.620   0.671   3.679 -2.1835  1.5562  1.8520
 8446SOL    HW333517   0.705   0.635   3.800  0.0732  1.0007  0.1670
 8446SOL    MW433518   0.631   0.627   3.754 -0.3254 -0.3324 -0.0755
 8447SOL     OW33519   3.013   5.590   2.911 -0.0489  0.1661 -0.1764
 8447SOL    HW233520   3.038   5.526   2.844  1.0912 -0.1065  0.5009
 8447SOL    HW333521   3.094   5.634   2.935 -0.9819  3.0139 -1.7188
 8447SOL    MW433522   3.027   5.587   2.905 -0.1692  0.1510  0.5630
 8448SOL     OW33523   5.377   5.477   4.795  0.0948 -0.0930 -0.0712
 8448SOL    HW233524   5.290   5.452   4.828 -0.3486  1.8372  0.3604
 8448SOL    HW333525   5.411   5.537   4.861  0.4839  1.4897 -1.6541
 8448SOL    MW433526   5.370   5.481   4.808  0.2743 -0.2425  0.4834
 8449SOL     OW33527   4.045   1.774   0.311  0.0838  0.1801  0.5554
 8449SOL    HW233528   4.036   1.819   0.226  0.2113  1.1668  1.0464
 8449SOL    HW333529   3.978   1.814   0.366  2.6322  2.5937  2.1575
 8449SOL    MW433530   4.035   1.785   0.307 -0.2843 -0.0451 -0.3794
 8450SOL     OW33531   5.357   5.686   1.679  0.0270 -0.5233 -0.1080
 8450SOL    HW233532   5.322   5.756   1.734  3.9869 -0.0796  2.2541
 8450SOL    HW333533   5.422   5.729   1.624  0.3949 -1.9379 -0.8309
 8450SOL    MW433534   5.361   5.701   1.679 -0.7085  0.4398 -0.0120
 8451SOL     OW33535   3.197   4.585   2.866 -0.0282  0.5711  0.0499
 8451SOL    HW233536   3.255   4.516   2.835  0.2121 -0.0572  1.7958
 8451SOL    HW333537   3.109   4.549   2.856  0.0110  0.5717 -0.3275
 8451SOL    MW433538   3.193   4.571   2.861 -0.0171  0.3168 -0.2174
 8452SOL     OW33539   1.324   4.576   2.471 -0.1970  0.0518 -0.1457
 8452SOL    HW233540   1.336   4.520   2.548  1.2687  0.5821  0.0515
 8452SOL    HW333541   1.413   4.589   2.438 -0.6063  1.4532 -0.7681
 8452SOL    MW433542   1.337   4.570   2.477  0.0132 -0.4052 -0.0293
 8453SOL     OW33543   3.037   2.808   5.778 -0.3163  0.3841  0.3879
 8453SOL    HW233544   3.002   2.746   5.842  3.3098 -0.9096  1.3157
 8453SOL    HW333545   3.106   2.854   5.825  0.0294  2.0339 -1.6088
 8453SOL    MW433546   3.041   2.806   5.793  0.2811 -0.2155 -0.2865
 8454SOL     OW33547   4.445   1.060   3.760  0.4424  0.4633 -0.6786
 8454SOL    HW233548   4.447   1.054   3.856 -1.8032  2.3022 -0.4222
 8454SOL    HW333549   4.362   1.019   3.735  0.4502  1.0384 -1.6991
 8454SOL    MW433550   4.434   1.054   3.770 -0.4475 -0.2058 -0.5545
 8455SOL     OW33551   2.964   4.993   6.204  0.6557  0.0949 -0.8032
 8455SOL    HW233552   3.014   5.031   6.276  4.2616 -1.9962 -1.9499
 8455SOL    HW333553   2.907   4.929   6.246  0.9837  0.5255  0.3457
 8455SOL    MW433554   2.963   4.990   6.219 -0.9138  0.1054 -0.0593
 8456SOL     OW33555   2.756   1.255   1.267 -0.1501 -0.4003 -0.3022
 8456SOL    HW233556   2.690   1.318   1.240  0.2565  0.7433  1.2161
 8456SOL    HW333557   2.831   1.273   1.210 -0.1458  0.2997 -0.0827
 8456SOL    MW433558   2.757   1.266   1.256  0.3801  0.1616 -0.4501
 8457SOL     OW33559   3.921   0.803   3.446 -0.3486  0.2378  0.1181
 8457SOL    HW233560   3.993   0.849   3.489 -1.2066  0.6758  1.1207
 8457SOL    HW333561   3.870   0.872   3.404 -1.0348  0.0868  0.7067
 8457SOL    MW433562   3.924   0.818   3.446  0.7261 -0.2481  0.2074
 8458SOL     OW33563   1.752   5.905   6.057 -0.4095 -0.6592 -0.4332
 8458SOL    HW233564   1.698   5.827   6.063 -0.5726 -0.4677  0.7640
 8458SOL    HW333565   1.737   5.952   6.139  0.6231  0.0141 -0.6044
 8458SOL    MW433566   1.743   5.901   6.068  0.4745  0.0432  0.3690
 8459SOL     OW33567   6.257   1.974   3.828  0.0776  0.0092  0.7714
 8459SOL    HW233568   6.211   2.048   3.866 -0.3907 -0.1481  0.5102
 8459SOL    HW333569   6.265   1.911   3.900  0.8850  0.4889  1.1232
 8459SOL    MW433570   6.252   1.975   3.842  0.1265 -0.7258  0.7490
 8460SOL     OW33571   6.280   3.224   0.494  0.4513  0.1498  0.3085
 8460SOL    HW233572   6.376   3.220   0.487  0.4835 -1.3774  1.2385
 8460SOL    HW333573   6.264   3.271   0.576  0.3847  0.6570  0.0106
 8460SOL    MW433574   6.291   3.230   0.504  0.4477  0.0511 -0.5380
 8461SOL     OW33575   0.763   4.647   1.351  0.1870  0.2904  0.1627
 8461SOL    HW233576   0.783   4.727   1.399 -0.4021  1.4521 -1.4375
 8461SOL    HW333577   0.837   4.588   1.369  1.3612  1.7398  0.2141
 8461SOL    MW433578   0.776   4.649   1.360  0.0213  0.4427  0.3356
 8462SOL     OW33579   1.923   2.471   0.555 -0.3060  0.8708 -0.0177
 8462SOL    HW233580   1.911   2.376   0.561 -2.8721  1.1477  0.8002
 8462SOL    HW333581   1.918   2.491   0.462 -1.3882  0.3189 -0.0949
 8462SOL    MW433582   1.921   2.461   0.544  0.4155 -0.0220  0.4074
 8463SOL     OW33583   0.878   1.207   2.908 -0.4914  0.3242  0.5885
 8463SOL    HW233584   0.892   1.275   2.842 -0.0092 -0.5871 -0.2836
 8463SOL    HW333585   0.965   1.195   2.948 -1.0833  1.9285  2.4915
 8463SOL    MW433586   0.892   1.214   2.905  1.1553  0.4780  0.0441
 8464SOL     OW33587   1.457   3.386   2.970 -0.4244  0.0795  0.2129
 8464SOL    HW233588   1.403   3.314   2.938  0.8666 -1.5585  1.5800
 8464SOL    HW333589   1.394   3.455   2.991 -1.7087 -0.6786 -0.9717
 8464SOL    MW433590   1.441   3.386   2.968 -0.0274 -0.5977 -0.4576
 8465SOL     OW33591   1.798   0.337   2.900 -0.5566  0.4061 -0.7597
 8465SOL    HW233592   1.720   0.382   2.932 -0.2859 -0.0936  0.6549
 8465SOL    HW333593   1.851   0.406   2.861  0.0642  1.4408  1.7663
 8465SOL    MW433594   1.794   0.352   2.899  0.1702 -0.4000 -0.5020
 8466SOL     OW33595   3.422   4.473   4.742 -0.1970  0.7309 -0.6548
 8466SOL    HW233596   3.379   4.500   4.823  1.3707  0.8875  0.1617
 8466SOL    HW333597   3.487   4.541   4.725  0.1946  0.1710 -1.4906
 8466SOL    MW433598   3.425   4.486   4.750 -0.6111 -0.9089  0.2965
 8467SOL     OW33599   2.100   0.842   4.717  0.0922  0.7003  0.0450
 8467SOL    HW233600   2.129   0.929   4.747 -1.3443  1.4735 -0.6703
 8467SOL    HW333601   2.008   0.838   4.743 -0.4122  0.2344 -1.6985
 8467SOL    MW433602   2.091   0.853   4.724 -0.1877  0.0792 -0.0080
 8468SOL     OW33603   0.468   0.558   4.582  0.0753  0.2825 -0.6056
 8468SOL    HW233604   0.466   0.539   4.676 -2.9612 -0.1003 -0.6434
 8468SOL    HW333605   0.462   0.473   4.540 -0.5297  0.5560 -1.0877
 8468SOL    MW433606   0.467   0.544   4.589 -0.3474 -0.6087 -0.1903
 8469SOL     OW33607   0.077   4.397   1.417  0.1669 -0.5338  0.5030
 8469SOL    HW233608   0.111   4.373   1.331  1.6636  2.3602  0.1495
 8469SOL    HW333609  -0.018   4.397   1.405  0.2995 -1.3502 -0.7828
 8469SOL    MW433610   0.069   4.394   1.404 -0.1750  0.0785  0.2560
 8470SOL     OW33611   3.943   5.745   2.722  0.3584 -0.3134  0.1014
 8470SOL    HW233612   3.953   5.661   2.768 -0.7186 -0.5086 -0.0008
 8470SOL    HW333613   3.850   5.766   2.729  0.3244  0.1016 -1.2060
 8470SOL    MW433614   3.932   5.736   2.729 -0.3878 -0.1501  0.1611
 8471SOL     OW33615   1.702   6.033   3.424  0.5209 -0.5409  0.2770
 8471SOL    HW233616   1.737   6.068   3.342  2.0223 -0.7088  0.8150
 8471SOL    HW333617   1.728   5.941   3.423  1.8259 -0.2209  1.5692
 8471SOL    MW433618   1.710   6.025   3.413 -0.5298 -0.3600 -0.8192
 8472SOL     OW33619   2.403   3.418   3.274 -0.8020 -0.1686  0.3888
 8472SOL    HW233620   2.480   3.475   3.265 -0.1252 -0.3674  3.6599
 8472SOL    HW333621   2.437   3.329   3.265 -1.1707 -0.2134 -0.7691
 8472SOL    MW433622   2.418   3.414   3.271 -0.0312  0.2762  0.2779
 8473SOL     OW33623   0.642   5.137   2.963 -0.0578  0.2158 -0.0478
 8473SOL    HW233624   0.572   5.175   2.910 -0.6803  0.3410  0.8410
 8473SOL    HW333625   0.659   5.204   3.030  1.0889  0.2930 -0.4014
 8473SOL    MW433626   0.635   5.151   2.965  0.3787 -0.0672  0.0012
 8474SOL     OW33627   1.637   2.726   5.571  0.0804 -0.0242  0.4521
 8474SOL    HW233628   1.682   2.791   5.518  1.2066  0.0624  1.4661
 8474SOL    HW333629   1.580   2.777   5.629 -2.6123 -0.1762 -1.8114
 8474SOL    MW433630   1.635   2.741   5.572  0.1169 -0.7077  0.2587
 8475SOL     OW33631   5.472   5.549   2.117  0.4824  0.2078 -0.3337
 8475SOL    HW233632   5.378   5.561   2.100  0.3713  2.6607  1.5039
 8475SOL    HW333633   5.514   5.618   2.066  1.2248 -0.2694 -0.3851
 8475SOL    MW433634   5.465   5.560   2.108 -0.4307 -0.2590  0.1549
 8476SOL     OW33635   2.810   2.156   5.688  0.1014  0.3930 -0.1964
 8476SOL    HW233636   2.793   2.243   5.652  1.4040  0.6165 -0.2985
 8476SOL    HW333637   2.791   2.164   5.781 -1.0475  0.4200 -0.4114
 8476SOL    MW433638   2.805   2.169   5.696 -0.3323  0.2225  0.8403
 8477SOL     OW33639   1.413   5.787   5.791  0.3676 -0.8467  0.4129
 8477SOL    HW233640   1.406   5.734   5.870 -2.0247 -1.9392 -0.4444
 8477SOL    HW333641   1.407   5.725   5.719 -1.3844  0.4182 -0.6206
 8477SOL    MW433642   1.411   5.772   5.792  0.0016  0.0211 -0.0832
 8478SOL     OW33643   5.375   2.330   6.403 -0.0929 -0.0848  0.2765
 8478SOL    HW233644   5.335   2.342   6.489  1.5517  1.6804  0.8618
 8478SOL    HW333645   5.303   2.342   6.341 -0.7281  1.8758  1.3258
 8478SOL    MW433646   5.360   2.333   6.406 -0.5364  0.6062  0.2276
 8479SOL     OW33647   2.788   0.109   5.834  0.2369 -0.1558  0.1999
 8479SOL    HW233648   2.704   0.129   5.875  1.9638  1.5037  3.3437
 8479SOL    HW333649   2.785   0.014   5.819 -2.2818 -0.0830 -0.1678
 8479SOL    MW433650   2.777   0.099   5.838  0.4598  0.4208  0.5197
 8480SOL     OW33651   1.566   4.484   2.286  0.3771 -0.1015 -0.1176
 8480SOL    HW233652   1.600   4.527   2.365  0.3151 -1.1543  0.5110
 8480SOL    HW333653   1.640   4.432   2.254  0.0301 -0.6809 -0.0048
 8480SOL    MW433654   1.581   4.483   2.292 -0.0981  0.3951  0.2327
 8481SOL     OW33655   1.712   0.777   2.442  0.6600 -0.1793  0.1953
 8481SOL    HW233656   1.661   0.745   2.368  0.0083  0.0349  0.5439
 8481SOL    HW333657   1.657   0.844   2.482  0.2536 -1.4417  1.8752
 8481SOL    MW433658   1.698   0.781   2.437 -0.2503 -0.0459  0.0231
 8482SOL     OW33659   0.057   3.443   5.196 -0.7360  0.0432  0.1288
 8482SOL    HW233660   0.008   3.421   5.116 -0.6242  0.8469 -0.1748
 8482SOL    HW333661   0.144   3.408   5.180 -0.8649 -0.2869  0.1352
 8482SOL    MW433662   0.062   3.436   5.183  0.2190  0.2807  0.2662
 8483SOL     OW33663   6.082   4.567   5.104  0.1749  0.1448  0.7534
 8483SOL    HW233664   6.069   4.621   5.027  1.8830 -0.5290 -0.0769
 8483SOL    HW333665   6.076   4.627   5.178 -1.9436  0.7250  0.1792
 8483SOL    MW433666   6.080   4.582   5.104  0.3852 -0.5652  0.2232
 8484SOL     OW33667   4.545   0.064   3.831 -0.9071 -0.4553 -0.0408
 8484SOL    HW233668   4.554   0.077   3.925  0.0410  1.2710 -0.3255
 8484SOL    HW333669   4.542   0.152   3.795  0.1439 -1.0612 -1.7375
 8484SOL    MW433670   4.546   0.077   3.839 -0.1666 -0.0731 -0.1001
 8485SOL     OW33671   0.892   4.204   5.370  0.2168  0.5244  0.1932
 8485SOL    HW233672   0.925   4.187   5.458  1.9046  2.2559 -0.0552
 8485SOL    HW333673   0.818   4.263   5.383 -0.7390 -0.7084  0.5331
 8485SOL    MW433674   0.886   4.209   5.383 -0.2777  0.2685  0.7332
 8486SOL     OW33675   4.981   4.725   6.227 -0.3808  0.1628  0.0578
 8486SOL    HW233676   5.067   4.695   6.255 -0.7412  0.5081  1.6089
 8486SOL    HW333677   4.929   4.645   6.219 -0.3880  0.0857  0.8141
 8486SOL    MW433678   4.986   4.711   6.229 -0.4608 -0.4315 -0.1376
 8487SOL     OW33679   1.363   0.612   3.846  0.4749 -0.1444  0.0140
 8487SOL    HW233680   1.451   0.631   3.879  0.4494  2.9812 -1.3702
 8487SOL    HW333681   1.308   0.605   3.924  1.4547  0.8017  0.8025
 8487SOL    MW433682   1.367   0.613   3.861 -0.2400 -0.0449  0.1194
 8488SOL     OW33683   1.527   3.614   5.653  0.3151 -0.0449  0.4955
 8488SOL    HW233684   1.514   3.520   5.668  1.3059 -0.0343  1.6130
 8488SOL    HW333685   1.480   3.656   5.724  0.6525  0.2622  0.5388
 8488SOL    MW433686   1.519   3.607   5.664 -0.2400 -0.0776 -0.5240
 8489SOL     OW33687   4.836   1.348   0.181  0.1949  0.3261  0.1081
 8489SOL    HW233688   4.763   1.375   0.238  1.3016  0.8210  1.3471
 8489SOL    HW333689   4.808   1.373   0.093 -0.3200  2.3875  0.7829
 8489SOL    MW433690   4.823   1.355   0.177 -0.6141 -0.1695 -0.3017
 8490SOL     OW33691   1.963   3.105   0.603 -0.4682 -0.0933  0.3230
 8490SOL    HW233692   2.032   3.047   0.635 -0.3437 -0.1243  0.0056
 8490SOL    HW333693   1.970   3.101   0.507  0.3146  1.3474  0.2840
 8490SOL    MW433694   1.973   3.097   0.594  0.3438  0.1416  0.1183
 8491SOL     OW33695   4.057   2.898   5.212  0.2978 -0.1078 -0.3503
 8491SOL    HW233696   4.094   2.817   5.178  0.2393  0.2098 -1.1757
 8491SOL    HW333697   4.028   2.946   5.135 -1.8036 -0.3094  0.2384
 8491SOL    MW433698   4.058   2.893   5.198 -0.9059 -0.0207 -0.2751
 8492SOL     OW33699   2.484   0.373   4.895  0.0712 -0.1943  0.3091
 8492SOL    HW233700   2.512   0.290   4.934 -0.8468 -0.4511  0.4348
 8492SOL    HW333701   2.420   0.408   4.956 -1.6170 -0.7503 -1.0504
 8492SOL    MW433702   2.479   0.366   4.908 -0.3050  0.2595  0.1178
 8493SOL     OW33703   3.872   0.418   5.014 -0.0649 -0.5014  0.4684
 8493SOL    HW233704   3.852   0.329   5.041  2.7602 -0.6326  2.5399
 8493SOL    HW333705   3.935   0.408   4.942 -1.1864 -0.0973 -0.6258
 8493SOL    MW433706   3.878   0.405   5.008  0.1045  0.1917  0.6017
 8494SOL     OW33707   5.535   6.012   0.252  0.7237 -0.2678 -0.3206
 8494SOL    HW233708   5.537   6.085   0.190 -0.4560 -0.5384 -0.6997
 8494SOL    HW333709   5.537   6.054   0.338 -1.8732  0.3629 -0.4934
 8494SOL    MW433710   5.536   6.027   0.255 -0.2814 -0.1099 -0.3428
 8495SOL     OW33711   2.900   1.100   0.013 -0.1931  0.5173 -0.3023
 8495SOL    HW233712   2.823   1.042   0.014  0.9941 -1.1439 -0.0772
 8495SOL    HW333713   2.952   1.071   0.088 -0.7825  3.7412  1.5403
 8495SOL    MW433714   2.897   1.088   0.023  0.6179  0.4751  0.7002
 8496SOL     OW33715   2.971   1.714   5.343 -0.1351 -0.2708  0.5234
 8496SOL    HW233716   2.989   1.808   5.350  1.1569 -0.5819  1.8702
 8496SOL    HW333717   2.883   1.703   5.380 -0.4057  0.4163  0.1095
 8496SOL    MW433718   2.962   1.725   5.348  0.1996 -0.1054  0.0057
 8497SOL     OW33719   2.525   2.251   1.066  0.4509  0.4507 -0.0180
 8497SOL    HW233720   2.555   2.162   1.044 -2.1449 -0.2310 -1.1646
 8497SOL    HW333721   2.510   2.293   0.982 -3.2103  0.1206  0.2858
 8497SOL    MW433722   2.527   2.245   1.052 -0.1034  0.4030  0.0186
 8498SOL     OW33723   2.667   4.646   4.415 -0.4041 -0.6570 -0.1878
 8498SOL    HW233724   2.585   4.604   4.388  0.3631 -2.5894  0.2736
 8498SOL    HW333725   2.709   4.581   4.472  0.4924  1.1289  1.2923
 8498SOL    MW433726   2.662   4.632   4.419 -0.0696  0.7830  0.0574
 8499SOL     OW33727   2.555   4.499   3.662  0.3222 -0.2241  0.0526
 8499SOL    HW233728   2.474   4.546   3.642 -0.1916  0.2228  2.7960
 8499SOL    HW333729   2.526   4.418   3.705  1.2850 -2.0712 -2.4694
 8499SOL    MW433730   2.540   4.494   3.665  0.5701  0.3133 -0.0135
 8500SOL     OW33731   4.296   4.028   4.096  0.1720 -0.8134  0.0161
 8500SOL    HW233732   4.240   4.060   4.167  0.6627 -0.4420  0.2375
 8500SOL    HW333733   4.264   3.939   4.080 -0.5948 -0.5511  0.0165
 8500SOL    MW433734   4.284   4.020   4.103 -0.2589  0.2537  0.1292
 8501SOL     OW33735   5.762   2.124   5.175  0.1136  0.2682  0.2570
 8501SOL    HW233736   5.737   2.067   5.102  1.3074  0.5003 -0.3441
 8501SOL    HW333737   5.813   2.193   5.135  2.0734 -0.4011  1.4845
 8501SOL    MW433738   5.765   2.125   5.160  0.0907 -0.1679 -0.1086
 8502SOL     OW33739   2.464   2.721   1.981  0.2917  0.5072  0.1617
 8502SOL    HW233740   2.491   2.660   1.913  0.7705  0.3794  0.4633
 8502SOL    HW333741   2.387   2.681   2.021  0.0821  0.5252 -0.2262
 8502SOL    MW433742   2.458   2.708   1.978  0.4922 -0.1874  0.0466
 8503SOL     OW33743   4.523   1.361   5.266  0.7017 -1.0474  0.1818
 8503SOL    HW233744   4.480   1.351   5.351  0.1830  0.4621  0.1163
 8503SOL    HW333745   4.612   1.387   5.288  0.1508  0.8654  0.2776
 8503SOL    MW433746   4.529   1.363   5.280 -0.2499 -0.1335  0.1892
 8504SOL     OW33747   2.758   2.209   0.716 -0.0934  0.1455  0.2899
 8504SOL    HW233748   2.752   2.116   0.695  1.0926 -0.0100  0.5492
 8504SOL    HW333749   2.671   2.233   0.747 -0.4748 -0.8201 -0.0008
 8504SOL    MW433750   2.746   2.200   0.717  0.0270 -0.5715 -0.1877
 8505SOL     OW33751   6.173   3.012   2.691  0.4703 -0.2902 -0.1790
 8505SOL    HW233752   6.217   3.010   2.776 -1.9279 -0.7647  1.1462
 8505SOL    HW333753   6.211   2.939   2.642 -0.7354 -2.5189  1.9952
 8505SOL    MW433754   6.184   3.002   2.695  0.0845  0.4005 -0.3138
 8506SOL     OW33755   6.304   3.012   2.942  0.2262 -0.0003  0.4992
 8506SOL    HW233756   6.383   2.957   2.932 -1.7496 -2.6898 -2.1504
 8506SOL    HW333757   6.269   2.988   3.027  1.6900  0.4720  1.2688
 8506SOL    MW433758   6.310   3.002   2.952 -0.1254  0.1860 -0.2320
 8507SOL     OW33759   3.016   3.476   3.779  0.4222  0.0188  0.1384
 8507SOL    HW233760   2.978   3.516   3.701  0.5259  2.1302  1.0889
 8507SOL    HW333761   2.945   3.425   3.818 -0.3700  0.9531 -0.0418
 8507SOL    MW433762   3.002   3.475   3.774 -0.0635  0.0288  0.5631
 8508SOL     OW33763   2.906   0.888   1.158  0.1859 -0.2713  0.2510
 8508SOL    HW233764   2.824   0.856   1.120  0.3011 -1.4706  0.9711
 8508SOL    HW333765   2.963   0.905   1.083  0.4072 -2.5635 -0.1481
 8508SOL    MW433766   2.902   0.886   1.143  0.3292 -0.0514  0.1803
 8509SOL     OW33767   3.756   2.285   4.052  0.5952  0.2270 -0.4259
 8509SOL    HW233768   3.790   2.278   4.141 -0.7250  1.8258  0.2640
 8509SOL    HW333769   3.827   2.252   3.996  1.6721 -0.2694  1.1655
 8509SOL    MW433770   3.770   2.280   4.056 -0.5935  0.1286  0.0588
 8510SOL     OW33771   3.638   0.324   4.579  0.3945 -0.1556 -0.3800
 8510SOL    HW233772   3.644   0.336   4.674 -1.3813  0.8924 -0.3518
 8510SOL    HW333773   3.714   0.271   4.557  2.5465  2.0106  1.2153
 8510SOL    MW433774   3.648   0.319   4.589 -0.0005 -0.0887  0.1120
 8511SOL     OW33775   6.063   2.914   0.308  0.0726  0.3010  0.0899
 8511SOL    HW233776   6.045   2.820   0.307 -0.7512  0.4519  0.0807
 8511SOL    HW333777   6.116   2.928   0.387  0.8058 -0.2667 -0.2803
 8511SOL    MW433778   6.068   2.903   0.318 -0.5023  0.5954 -0.7027
 8512SOL     OW33779   0.919   1.627   1.318 -0.3998 -0.3170 -0.4135
 8512SOL    HW233780   0.835   1.669   1.335  0.2086  1.2825 -1.2101
 8512SOL    HW333781   0.978   1.664   1.384 -0.3076 -1.5080  0.2080
 8512SOL    MW433782   0.916   1.637   1.329 -0.6148  0.4534 -0.3149
 8513SOL     OW33783   5.712   2.607   1.571  0.9874  0.3766  0.5965
 8513SOL    HW233784   5.662   2.669   1.624 -1.9765 -0.5979 -0.8828
 8513SOL    HW333785   5.733   2.655   1.491 -0.5447 -0.1977 -0.1785
 8513SOL    MW433786   5.708   2.621   1.568  0.7933 -0.0900 -0.2425
 8514SOL     OW33787   4.938   3.788   2.965 -0.4977 -0.3184  0.1324
 8514SOL    HW233788   4.873   3.718   2.970  1.0493 -1.9332 -1.2797
 8514SOL    HW333789   4.933   3.819   2.875 -1.0990  1.3926  0.7102
 8514SOL    MW433790   4.929   3.783   2.954 -0.2206 -0.2352 -0.3965
 8515SOL     OW33791   1.639   4.078   5.882 -0.0078 -0.1115 -0.1695
 8515SOL    HW233792   1.635   4.169   5.853 -1.5734 -0.9320 -2.9588
 8515SOL    HW333793   1.730   4.064   5.906  0.4679  1.9319 -0.5788
 8515SOL    MW433794   1.650   4.088   5.881 -0.2622 -0.4904  0.0825
 8516SOL     OW33795   1.010   2.625   2.136 -0.5672 -0.5314  0.0164
 8516SOL    HW233796   1.087   2.680   2.153 -0.2752 -0.5624 -1.1114
 8516SOL    HW333797   0.974   2.607   2.223  0.4800 -0.2052  0.5432
 8516SOL    MW433798   1.016   2.630   2.150 -0.1931  0.3415 -0.0522
 8517SOL     OW33799   3.091   6.418   2.080 -0.0582 -0.5167 -0.7212
 8517SOL    HW233800   3.054   6.355   2.142 -0.6258 -0.7943 -1.3354
 8517SOL    HW333801   3.019   6.476   2.057  0.3662  0.1307 -0.4645
 8517SOL    MW433802   3.077   6.417   2.085 -0.5895  0.2286  0.6176
 8518SOL     OW33803   2.498   5.852   4.936  1.1630 -0.2308  0.6202
 8518SOL    HW233804   2.479   5.805   4.855  1.6539  0.9831 -0.2394
 8518SOL    HW333805   2.509   5.784   5.002  0.8189 -1.2502 -0.3527
 8518SOL    MW433806   2.497   5.837   4.934  0.3514  0.5531  0.3003
 8519SOL     OW33807   2.914   0.181   1.532 -0.3003  0.0806 -0.1454
 8519SOL    HW233808   2.982   0.248   1.527  0.7539 -0.8626  0.9323
 8519SOL    HW333809   2.907   0.147   1.443  1.1106 -0.2329 -0.1592
 8519SOL    MW433810   2.922   0.186   1.520  0.1980 -0.1408 -0.1723
 8520SOL     OW33811   4.554   0.512   0.978 -0.4132 -0.1252 -0.2117
 8520SOL    HW233812   4.574   0.542   1.066 -0.2551  1.7423 -0.8242
 8520SOL    HW333813   4.613   0.562   0.921 -0.9672 -0.7873 -1.4210
 8520SOL    MW433814   4.564   0.523   0.982 -0.2688 -0.0792  0.3001
 8521SOL     OW33815   3.015   2.166   6.178  0.3286 -0.2892  0.3621
 8521SOL    HW233816   3.026   2.089   6.235  1.2717  0.8512  1.7814
 8521SOL    HW333817   3.059   2.141   6.097  2.8031 -0.4215  1.6449
 8521SOL    MW433818   3.022   2.152   6.175 -0.0534  0.3244 -0.2485
 8522SOL     OW33819   6.019   2.811   5.103  0.0463 -0.0369  0.0798
 8522SOL    HW233820   6.045   2.786   5.015 -0.3705 -1.3083  0.3044
 8522SOL    HW333821   6.084   2.876   5.130 -0.5485  1.3739 -1.6357
 8522SOL    MW433822   6.031   2.816   5.095  0.0864  0.3235 -0.0435
 8523SOL     OW33823   1.786   3.472   3.787 -0.3806  0.4109  0.0521
 8523SOL    HW233824   1.824   3.384   3.784 -0.6363  0.3084 -0.2469
 8523SOL    HW333825   1.771   3.495   3.695 -1.6342  0.1880  0.1754
 8523SOL    MW433826   1.789   3.464   3.774  0.0827  0.1815 -0.2272
 8524SOL     OW33827   5.342   5.028   4.906  0.2524 -0.1438  0.0308
 8524SOL    HW233828   5.313   4.944   4.872  1.5066 -0.4199 -0.4141
 8524SOL    HW333829   5.375   5.009   4.994 -2.5932  0.4990  1.3634
 8524SOL    MW433830   5.343   5.014   4.913  0.0292 -0.0049  0.3894
 8525SOL     OW33831   4.085   2.103   1.311 -0.3527 -0.2595 -0.4541
 8525SOL    HW233832   4.181   2.111   1.311 -0.1477 -2.1495 -1.3306
 8525SOL    HW333833   4.068   2.014   1.343 -1.7717 -0.1846 -0.9308
 8525SOL    MW433834   4.096   2.092   1.315  0.2607  0.2097 -0.2409
 8526SOL     OW33835   4.973   1.505   0.983  0.3005  0.4274  0.0287
 8526SOL    HW233836   5.058   1.464   0.995  0.1732  0.4928  1.3643
 8526SOL    HW333837   4.922   1.442   0.933  1.3690  0.7356 -1.5127
 8526SOL    MW433838   4.977   1.492   0.978 -0.1556 -0.0761 -0.3531
 8527SOL     OW33839   2.359   2.958   0.611 -0.0712 -0.0933  0.4161
 8527SOL    HW233840   2.430   2.971   0.548 -0.6193  0.9183 -0.0132
 8527SOL    HW333841   2.293   2.908   0.562  1.2280 -3.0754  1.4863
 8527SOL    MW433842   2.360   2.953   0.596 -0.0576 -0.0988  0.0852
 8528SOL     OW33843   1.108   0.791   5.224 -0.0401  0.5137 -0.4173
 8528SOL    HW233844   1.017   0.794   5.196 -0.0869  0.3404 -0.2823
 8528SOL    HW333845   1.107   0.828   5.312  0.0107  0.4421 -0.3874
 8528SOL    MW433846   1.096   0.796   5.232  0.7607  0.0011  0.0809
 8529SOL     OW33847   4.560   0.243   3.106  0.2646  0.0058 -0.1505
 8529SOL    HW233848   4.603   0.293   3.036  0.0446 -1.2191 -1.2021
 8529SOL    HW333849   4.630   0.189   3.144  0.3563  0.5747  0.5070
 8529SOL    MW433850   4.575   0.242   3.102  0.1408 -0.5660 -0.5827
 8530SOL     OW33851   3.307   4.699   1.001 -0.2232  0.2612  0.3949
 8530SOL    HW233852   3.251   4.750   1.059  1.7059  3.0922 -0.0059
 8530SOL    HW333853   3.274   4.718   0.913  0.7790  1.2540  0.2141
 8530SOL    MW433854   3.295   4.708   0.997  0.0560 -0.2376 -0.9507
 8531SOL     OW33855   5.174   2.772   0.682  0.3203  0.1309  0.3291
 8531SOL    HW233856   5.125   2.834   0.628 -1.4809 -2.1338 -0.8076
 8531SOL    HW333857   5.117   2.755   0.756  0.3259 -0.9096  0.1050
 8531SOL    MW433858   5.160   2.778   0.684 -0.1071  0.2807 -0.0130
 8532SOL     OW33859   5.493   2.705   4.375 -0.0579 -0.4858 -0.5131
 8532SOL    HW233860   5.491   2.707   4.279 -0.3731 -0.8190 -0.5109
 8532SOL    HW333861   5.518   2.615   4.397 -1.7480 -0.9131 -0.2508
 8532SOL    MW433862   5.496   2.694   4.365 -0.0416  0.2179  0.4170
 8533SOL     OW33863   0.082   4.394   2.399  0.0416  0.1244 -0.3260
 8533SOL    HW233864   0.167   4.436   2.384  0.8900 -0.9321  1.2322
 8533SOL    HW333865   0.083   4.318   2.342 -0.3524  0.7129 -1.1370
 8533SOL    MW433866   0.094   4.390   2.389  0.5232 -0.1788 -0.1284
 8534SOL     OW33867   0.282   3.230   5.176  0.2184 -0.2620  0.3409
 8534SOL    HW233868   0.299   3.136   5.166  0.4932 -0.0748 -1.2621
 8534SOL    HW333869   0.284   3.245   5.270  2.7471 -1.4086  0.5633
 8534SOL    MW433870   0.285   3.220   5.187 -0.1899  0.3616  0.1426
 8535SOL     OW33871   0.193   4.182   2.869  0.2583 -0.6249  0.0617
 8535SOL    HW233872   0.186   4.264   2.919  1.2382 -1.6007  1.8929
 8535SOL    HW333873   0.236   4.121   2.928  1.9967 -1.7217 -2.1900
 8535SOL    MW433874   0.197   4.185   2.883 -0.0794 -0.1193  0.0604
 8536SOL     OW33875   0.721   3.029   3.224  0.0286 -0.0977  0.1469
 8536SOL    HW233876   0.678   2.969   3.163 -0.9631  0.6403  0.1050
 8536SOL    HW333877   0.811   3.036   3.191  0.2225 -1.6862  0.2632
 8536SOL    MW433878   0.727   3.022   3.212 -0.3024 -0.0852 -0.6923
 8537SOL     OW33879   5.628   0.302   6.042 -0.1411  0.2792  0.1153
 8537SOL    HW233880   5.577   0.380   6.022 -0.2921  0.2468  0.3693
 8537SOL    HW333881   5.626   0.251   5.961 -0.5210  0.2758  0.1259
 8537SOL    MW433882   5.621   0.305   6.028 -0.1062  0.4799  0.6062
 8538SOL     OW33883   2.828   3.348   5.794 -0.5132 -0.4312 -0.5185
 8538SOL    HW233884   2.911   3.378   5.757 -0.7006 -0.0419 -0.6237
 8538SOL    HW333885   2.852   3.270   5.844 -0.0401 -0.1581 -0.3073
 8538SOL    MW433886   2.842   3.341   5.796 -0.4373 -0.5299  0.0671
 8539SOL     OW33887   3.392   3.209   1.356 -0.1362  0.0321  0.4093
 8539SOL    HW233888   3.408   3.213   1.262  0.0711  0.6540  0.4733
 8539SOL    HW333889   3.314   3.262   1.369  0.6745  1.1532  0.7830
 8539SOL    MW433890   3.384   3.216   1.345 -0.3919  0.0956 -0.1988
 8540SOL     OW33891   4.359   3.878   6.119 -0.0380  0.4305  0.5547
 8540SOL    HW233892   4.290   3.901   6.058  0.8577 -0.3292 -0.8213
 8540SOL    HW333893   4.429   3.941   6.101  0.9252 -0.8648 -0.5432
 8540SOL    MW433894   4.359   3.889   6.108 -0.5727  0.6411  0.2332
 8541SOL     OW33895   6.099   2.459   2.710 -0.2003  0.3909  0.2998
 8541SOL    HW233896   6.190   2.431   2.722 -0.4971 -0.4095  0.7125
 8541SOL    HW333897   6.092   2.475   2.616  0.4098  0.6351  0.2858
 8541SOL    MW433898   6.110   2.458   2.699  0.1130  0.4352 -0.2441
 8542SOL     OW33899   3.821   0.955   4.657  0.5200  0.4330  0.2734
 8542SOL    HW233900   3.893   0.902   4.624 -0.0553  0.5692 -1.2747
 8542SOL    HW333901   3.818   1.031   4.599 -0.4876  0.7220  0.6850
 8542SOL    MW433902   3.830   0.958   4.645  0.3250 -0.2760  0.0004
 8543SOL     OW33903   0.328   1.599   3.050 -0.2723  0.4543 -0.5396
 8543SOL    HW233904   0.240   1.637   3.047  0.6296  2.7742  0.3923
 8543SOL    HW333905   0.341   1.563   2.963 -2.2403 -0.2347 -0.6077
 8543SOL    MW433906   0.318   1.599   3.038 -0.4943  0.3618 -0.2345
 8544SOL     OW33907   3.867   3.548   3.998  0.3456 -0.6054 -0.3908
 8544SOL    HW233908   3.857   3.623   3.939  2.1534  1.5009  1.7628
 8544SOL    HW333909   3.960   3.525   3.993  0.0371 -2.0134 -0.1724
 8544SOL    MW433910   3.878   3.555   3.990 -0.0361 -0.6710  0.5268
 8545SOL     OW33911   1.348   4.311   2.257  0.1017  0.1936 -0.0609
 8545SOL    HW233912   1.352   4.280   2.347 -0.3395  0.0253 -0.0971
 8545SOL    HW333913   1.391   4.397   2.260  3.0641 -1.1581 -0.3242
 8545SOL    MW433914   1.354   4.318   2.269 -0.4649 -0.2888 -0.5929
 8546SOL     OW33915   3.436   2.426   2.317 -1.0766 -0.2786  0.7716
 8546SOL    HW233916   3.363   2.400   2.261 -1.4462  0.6733  0.7874
 8546SOL    HW333917   3.395   2.463   2.395 -0.5624 -1.2882  1.5495
 8546SOL    MW433918   3.421   2.427   2.320 -0.6754  0.3765  0.4855
 8547SOL     OW33919   5.997   6.411   4.870  0.0261  0.5795  0.1325
 8547SOL    HW233920   6.051   6.369   4.803 -0.9041 -0.5994  0.0828
 8547SOL    HW333921   6.011   6.358   4.949  0.2780  1.3136  0.5942
 8547SOL    MW433922   6.006   6.398   4.872  0.2621  0.1618  0.3235
 8548SOL     OW33923   3.028   4.492   1.048 -0.2224  0.2861  0.8662
 8548SOL    HW233924   3.000   4.580   1.022 -1.2490  0.3591  2.1316
 8548SOL    HW333925   2.958   4.434   1.017  0.8129 -0.2090 -0.6416
 8548SOL    MW433926   3.015   4.496   1.041  0.3748 -0.4775  0.2821
 8549SOL     OW33927   3.445   4.627   4.357  0.1337  0.0620 -0.0025
 8549SOL    HW233928   3.449   4.714   4.396 -1.5582  0.8572 -1.4738
 8549SOL    HW333929   3.456   4.642   4.263 -0.4369 -1.2599 -0.3091
 8549SOL    MW433930   3.447   4.640   4.350  0.3844  0.0354 -0.0255
 8550SOL     OW33931   5.019   4.158   3.774 -0.5835  0.1639 -0.4034
 8550SOL    HW233932   5.022   4.062   3.772  2.7469  0.1473 -1.4738
 8550SOL    HW333933   4.990   4.179   3.862 -0.9828 -1.8146 -0.0049
 8550SOL    MW433934   5.015   4.148   3.785  0.0140 -0.1399  0.3502
 8551SOL     OW33935   4.203   4.925   2.977 -0.5198 -0.3359 -0.2496
 8551SOL    HW233936   4.145   4.849   2.980 -0.6856 -0.2550 -1.0607
 8551SOL    HW333937   4.145   4.998   2.953 -0.4503  0.1482  0.9754
 8551SOL    MW433938   4.187   4.925   2.974 -0.2600 -0.2843  0.6317
 8552SOL     OW33939   3.844   2.243   5.354 -0.7132  0.4649  0.5085
 8552SOL    HW233940   3.770   2.267   5.298 -1.0566 -0.9228  0.3515
 8552SOL    HW333941   3.919   2.242   5.294 -1.2157 -1.8401 -0.1609
 8552SOL    MW433942   3.845   2.246   5.338  0.3416 -0.2947  0.1239
 8553SOL     OW33943   2.300   0.490   3.357  0.2695  0.2353 -0.6536
 8553SOL    HW233944   2.221   0.445   3.326 -0.0540  0.2901  0.0831
 8553SOL    HW333945   2.357   0.492   3.280  0.5976 -2.1146 -0.5465
 8553SOL    MW433946   2.297   0.484   3.343 -0.6621 -0.1823  0.3410
 8554SOL     OW33947   1.748   1.655   0.138  0.2498 -0.4325  0.2775
 8554SOL    HW233948   1.710   1.690   0.057  0.6397 -1.3160 -0.3003
 8554SOL    HW333949   1.809   1.587   0.109  2.1371  0.8121  1.2097
 8554SOL    MW433950   1.751   1.650   0.123  0.5442  0.6706  0.0638
 8555SOL     OW33951   6.000   5.760   6.052  0.1059  0.0104 -0.2231
 8555SOL    HW233952   6.059   5.764   5.976 -0.2571 -0.7267 -0.5469
 8555SOL    HW333953   6.035   5.690   6.106  1.0343  1.2793  0.8766
 8555SOL    MW433954   6.013   5.752   6.049 -0.1586  0.1444 -0.2810
 8556SOL     OW33955   2.922   0.258   4.792  0.3894 -0.1987 -0.0873
 8556SOL    HW233956   2.934   0.269   4.886 -1.0181 -0.1164  0.1137
 8556SOL    HW333957   2.910   0.164   4.780  2.8597 -0.5255 -0.5293
 8556SOL    MW433958   2.922   0.247   4.803  0.1802 -0.2940 -0.1575
 8557SOL     OW33959   4.355   1.070   0.011 -0.1943  0.6314 -0.1786
 8557SOL    HW233960   4.374   1.027   0.094  0.4242 -0.0027 -0.6423
 8557SOL    HW333961   4.261   1.056  -0.003  0.4307 -3.1241 -1.6905
 8557SOL    MW433962   4.345   1.063   0.020  0.0772  0.3795 -0.0577
 8558SOL     OW33963   5.365   1.391   4.661  0.7976 -0.7033 -0.8720
 8558SOL    HW233964   5.417   1.447   4.603 -0.2443  0.9706 -0.2619
 8558SOL    HW333965   5.351   1.311   4.610  1.7241 -0.1529 -2.0604
 8558SOL    MW433966   5.370   1.388   4.647 -0.6693  0.2137 -0.1733
 8559SOL     OW33967   0.223   3.407   1.015  0.0852  0.1011 -0.0171
 8559SOL    HW233968   0.290   3.341   1.032 -0.3481 -0.4090 -0.2597
 8559SOL    HW333969   0.170   3.370   0.945 -1.6705 -0.4307  1.5022
 8559SOL    MW433970   0.225   3.393   1.008  0.3684 -0.2742 -0.0100
 8560SOL     OW33971   2.774   1.354   3.475 -0.2883  0.1451 -0.8460
 8560SOL    HW233972   2.707   1.334   3.409 -1.2892 -0.9450  0.4448
 8560SOL    HW333973   2.764   1.447   3.493 -2.7562 -0.3238  0.6297
 8560SOL    MW433974   2.764   1.364   3.469 -0.2205 -0.4723  0.5812
 8561SOL     OW33975   2.975   2.047   2.994 -0.1303  0.0713  0.0708
 8561SOL    HW233976   2.965   1.979   2.927  2.0224 -2.0098  1.7078
 8561SOL    HW333977   3.026   2.005   3.063  0.0312  2.9523  1.8396
 8561SOL    MW433978   2.980   2.032   2.994  0.2322 -0.4061 -0.0832
 8562SOL     OW33979   3.624   3.029   1.283  0.2978  0.1942 -0.0407
 8562SOL    HW233980   3.654   2.990   1.365 -0.7164 -0.4904  0.0199
 8562SOL    HW333981   3.636   3.123   1.295  1.0293  0.0397  0.5238
 8562SOL    MW433982   3.630   3.036   1.295 -0.1897  0.5128 -0.2726
 8563SOL     OW33983   4.642   0.900   1.319 -0.4408 -0.1220 -0.9202
 8563SOL    HW233984   4.685   0.878   1.402 -0.4015 -1.2525 -1.2194
 8563SOL    HW333985   4.551   0.918   1.343 -0.3600 -0.1448 -0.5907
 8563SOL    MW433986   4.636   0.900   1.333  0.2693 -0.0659 -0.2873
 8564SOL     OW33987   2.475   1.919   0.767  0.6065  0.0529  0.2071
 8564SOL    HW233988   2.547   1.940   0.708  0.0515  1.7435  0.0928
 8564SOL    HW333989   2.412   1.871   0.712  1.2252 -0.6488  0.0936
 8564SOL    MW433990   2.476   1.915   0.752 -0.8310  0.0005  0.2922
 8565SOL     OW33991   4.453   6.109   2.320  0.0759 -0.1671 -0.1111
 8565SOL    HW233992   4.454   6.034   2.380 -1.1967 -0.3238 -0.2677
 8565SOL    HW333993   4.443   6.070   2.233  0.5708  0.1371 -0.3113
 8565SOL    MW433994   4.452   6.094   2.317  0.2851  0.2001  0.6437
 8566SOL     OW33995   4.007   5.449   1.156 -0.0391 -0.0124  0.3477
 8566SOL    HW233996   3.926   5.427   1.203  0.6598  1.2826  2.2397
 8566SOL    HW333997   3.977   5.471   1.068 -1.2539 -3.8620 -0.4111
 8566SOL    MW433998   3.992   5.449   1.151 -0.4750  0.0060 -0.0118
 8567SOL     OW33999   1.307   2.391   2.753 -0.1378  0.0592 -0.1936
 8567SOL    HW234000   1.282   2.473   2.711  1.4252  1.4994  1.4937
 8567SOL    HW334001   1.226   2.341   2.758 -0.6680  0.3800 -3.4704
 8567SOL    MW434002   1.293   2.396   2.748 -0.0557  0.3812 -0.2413
 8568SOL     OW34003   5.327   5.442   5.143 -0.2977 -0.0002 -0.2119
 8568SOL    HW234004   5.265   5.390   5.091 -2.1544  0.4457  1.4063
 8568SOL    HW334005   5.374   5.495   5.079 -0.1566 -1.7899 -1.6774
 8568SOL    MW434006   5.325   5.442   5.128  0.1304 -0.4579  0.1744
 8569SOL     OW34007   0.307   6.295   6.387 -0.4037 -0.1701  0.2237
 8569SOL    HW234008   0.328   6.380   6.426 -2.7015  0.0534  1.1288
 8569SOL    HW334009   0.315   6.233   6.460  1.6967 -0.8665 -0.5318
 8569SOL    MW434010   0.311   6.298   6.402  0.2671  0.0159  0.1528
 8570SOL     OW34011   1.782   3.415   5.818  0.3161 -0.2325  0.0833
 8570SOL    HW234012   1.691   3.398   5.793 -0.0426 -2.0950  2.4024
 8570SOL    HW334013   1.812   3.334   5.858  3.4764 -0.1292 -1.7064
 8570SOL    MW434014   1.774   3.402   5.820 -0.7331  1.1403  0.1606
 8571SOL     OW34015   0.440   3.103   0.269  0.5057  0.2248 -0.2399
 8571SOL    HW234016   0.422   3.195   0.249 -1.0792  0.6099  2.4425
 8571SOL    HW334017   0.534   3.094   0.260  0.5930  1.8333 -1.4624
 8571SOL    MW434018   0.450   3.114   0.265 -0.3214  0.1092 -0.2851
 8572SOL     OW34019   5.715   5.656   4.149  0.2906 -0.1639 -0.0671
 8572SOL    HW234020   5.782   5.701   4.098 -0.0772  1.3084  0.6799
 8572SOL    HW334021   5.649   5.723   4.165  0.2425 -0.6507  2.0385
 8572SOL    MW434022   5.715   5.671   4.144  0.3799  0.7067 -0.0088
 8573SOL     OW34023   0.463   5.764   0.726 -0.1165 -0.6029 -0.3252
 8573SOL    HW234024   0.457   5.843   0.781 -0.9714 -0.3468 -0.7598
 8573SOL    HW334025   0.380   5.718   0.741 -0.7543 -0.0886 -2.0270
 8573SOL    MW434026   0.451   5.769   0.735 -0.5912  0.1644 -0.1912
 8574SOL     OW34027   4.048   1.395   0.013  0.2330  0.8268 -0.3319
 8574SOL    HW234028   4.132   1.417   0.053  1.9973 -0.1160 -3.1946
 8574SOL    HW334029   4.005   1.480  -0.001  0.7904  1.3422  0.9671
 8574SOL    MW434030   4.053   1.409   0.016  0.2742 -0.3185 -0.2485
 8575SOL     OW34031   1.067   4.473   3.800 -0.4045 -0.3959 -0.0060
 8575SOL    HW234032   1.026   4.437   3.879 -2.5630  0.0894 -0.8400
 8575SOL    HW334033   1.032   4.561   3.793  1.4959  0.3684 -0.3444
 8575SOL    MW434034   1.057   4.480   3.810  0.1076 -0.0710  0.0758
 8576SOL     OW34035   2.395   1.302   3.565 -0.0073 -0.0274  0.6651
 8576SOL    HW234036   2.468   1.240   3.565  0.2424  0.2073  2.5797
 8576SOL    HW334037   2.414   1.361   3.639 -0.7418  1.7312 -0.4811
 8576SOL    MW434038   2.407   1.302   3.575 -0.1883 -0.0378 -0.4992
 8577SOL     OW34039   0.272   0.410   2.914  0.0831  0.1177 -0.0192
 8577SOL    HW234040   0.267   0.435   2.821 -0.8210  0.2428  0.0537
 8577SOL    HW334041   0.192   0.360   2.929  0.3799 -0.1648  0.6216
 8577SOL    MW434042   0.261   0.407   2.903 -0.5092  0.1044  0.4715
 8578SOL     OW34043   6.231   4.538   3.861 -0.3702 -0.4098  0.0264
 8578SOL    HW234044   6.190   4.594   3.927 -0.3203  0.3981 -0.6126
 8578SOL    HW334045   6.300   4.492   3.908 -0.1209  0.4051  0.4668
 8578SOL    MW434046   6.235   4.539   3.876 -0.0316 -0.0765  0.0305
 8579SOL     OW34047   0.972   6.013   4.043 -0.3457 -0.1971  0.4210
 8579SOL    HW234048   1.058   6.020   4.001 -0.0205 -0.4798  1.0272
 8579SOL    HW334049   0.910   6.044   3.976  0.1457 -0.7476 -0.3078
 8579SOL    MW434050   0.975   6.018   4.029 -0.1127  0.4361  0.9626
 8580SOL     OW34051   4.695   0.070   2.381  0.0089  0.1571 -0.0319
 8580SOL    HW234052   4.620   0.015   2.401  0.5394  0.1403  2.1565
 8580SOL    HW334053   4.727   0.037   2.296 -0.4593 -2.0544  0.5834
 8580SOL    MW434054   4.689   0.058   2.372  0.3457  0.1938  0.3831
 8581SOL     OW34055   5.937   1.477   0.025  0.0926 -0.0525 -0.2969
 8581SOL    HW234056   5.946   1.390  -0.014 -1.7994 -0.6103  0.4012
 8581SOL    HW334057   5.880   1.464   0.101  0.2422  1.7080  0.1701
 8581SOL    MW434058   5.931   1.464   0.030 -0.5449  0.4988  1.2672
 8582SOL     OW34059   2.455   5.247   4.944  0.2054 -0.2173  0.5060
 8582SOL    HW234060   2.536   5.196   4.937  1.0297  1.1071 -0.1356
 8582SOL    HW334061   2.385   5.183   4.932  1.1794 -1.2562  0.1512
 8582SOL    MW434062   2.457   5.232   4.942  0.0494  0.0412 -0.0022
 8583SOL     OW34063   1.899   1.134   5.830 -0.1228 -0.4322  0.0302
 8583SOL    HW234064   1.903   1.103   5.921 -1.1832  3.3289  1.5738
 8583SOL    HW334065   1.811   1.108   5.801 -0.4675 -0.1517  0.7715
 8583SOL    MW434066   1.888   1.127   5.838  0.4341 -0.4506  0.1928
 8584SOL     OW34067   6.306   5.019   4.814  0.0030  0.3321 -0.0218
 8584SOL    HW234068   6.294   4.961   4.740 -1.0178 -0.2677  0.5902
 8584SOL    HW334069   6.317   4.960   4.889  3.8165  0.8365  0.0071
 8584SOL    MW434070   6.306   5.004   4.814 -0.0738  0.4262  0.0134
 8585SOL     OW34071   1.245   3.632   5.570 -0.3983 -0.2749  0.2153
 8585SOL    HW234072   1.191   3.568   5.617 -0.3138 -1.6148 -1.3818
 8585SOL    HW334073   1.334   3.617   5.603 -0.4015 -0.9155 -0.0436
 8585SOL    MW434074   1.250   3.621   5.580 -0.7940 -0.3343 -0.2793
 8586SOL     OW34075   0.641   3.343   2.796  0.0400  0.1796 -0.0141
 8586SOL    HW234076   0.612   3.390   2.873  2.8819 -0.3260  1.5297
 8586SOL    HW334077   0.735   3.330   2.810  0.4248 -1.0889 -2.9615
 8586SOL    MW434078   0.650   3.347   2.808  0.0237  0.0115  0.5808
 8587SOL     OW34079   6.222   0.353   1.986  0.8329 -0.2374  0.4820
 8587SOL    HW234080   6.313   0.364   1.959  1.7775 -1.8491  2.6845
 8587SOL    HW334081   6.189   0.281   1.933  0.4344  1.0271 -1.0715
 8587SOL    MW434082   6.230   0.345   1.976  0.0796 -0.0706  0.4522
 8588SOL     OW34083   5.472   5.131   0.205 -0.1460  0.0098 -0.0311
 8588SOL    HW234084   5.477   5.226   0.221  0.1688  0.3994 -2.1078
 8588SOL    HW334085   5.456   5.093   0.291  4.3647  1.5037  1.7325
 8588SOL    MW434086   5.470   5.139   0.218  0.4294 -0.0050  0.2072
 8589SOL     OW34087   6.387   6.201   0.315  0.3092 -0.0522  0.5976
 8589SOL    HW234088   6.406   6.273   0.255  2.0717 -0.4633  0.5983
 8589SOL    HW334089   6.312   6.231   0.365 -1.3502  0.2448 -1.8804
 8589SOL    MW434090   6.380   6.214   0.314 -0.6412  0.1026 -0.3396
 8590SOL     OW34091   2.621   5.382   5.966  0.0535  0.2288  0.4946
 8590SOL    HW234092   2.593   5.303   6.013 -1.4672  0.3481 -0.1574
 8590SOL    HW334093   2.635   5.354   5.876  0.9151  0.4216  0.5623
 8590SOL    MW434094   2.619   5.368   5.961  0.0581 -0.3285  0.7951
 8591SOL     OW34095   1.706   1.145   5.270  0.1347  0.1293 -0.3468
 8591SOL    HW234096   1.755   1.133   5.351  0.1184 -0.3634 -0.4072
 8591SOL    HW334097   1.617   1.115   5.290 -0.2500  1.3560 -0.1321
 8591SOL    MW434098   1.700   1.139   5.283 -0.2605 -0.2935  0.2755
 8592SOL     OW34099   2.326   4.565   0.589 -0.0545  0.2305 -0.1044
 8592SOL    HW234100   2.345   4.593   0.500 -2.5306 -0.5404 -0.9340
 8592SOL    HW334101   2.357   4.474   0.593 -0.1632  0.1894 -0.2320
 8592SOL    MW434102   2.333   4.557   0.578 -0.5238 -0.2346  0.0710
 8593SOL     OW34103   5.562   2.015   2.069 -0.1997  0.1716 -0.1675
 8593SOL    HW234104   5.555   2.032   2.163  1.4055 -0.4802  0.1064
 8593SOL    HW334105   5.548   2.100   2.029 -1.4137  0.3692  0.6169
 8593SOL    MW434106   5.559   2.028   2.076  0.4196  0.0685  0.1679
 8594SOL     OW34107   5.493   1.159   4.106  0.1534 -0.8497 -0.0118
 8594SOL    HW234108   5.558   1.208   4.055  1.7533 -1.5903  1.2382
 8594SOL    HW334109   5.506   1.188   4.196 -1.7370 -0.5318  0.2084
 8594SOL    MW434110   5.503   1.169   4.111 -0.0678 -0.0109  0.9083
 8595SOL     OW34111   1.722   2.510   3.862 -0.2367  0.3576 -0.3576
 8595SOL    HW234112   1.801   2.469   3.826 -0.1711  0.0617  0.1161
 8595SOL    HW334113   1.673   2.438   3.901 -0.4587  0.6280 -0.1354
 8595SOL    MW434114   1.726   2.495   3.862 -0.4908 -0.4095 -0.4747
 8596SOL     OW34115   3.640   3.064   0.223  0.2351  0.2443  0.6541
 8596SOL    HW234116   3.545   3.066   0.236  0.1790 -0.7382  0.4732
 8596SOL    HW334117   3.666   2.974   0.245  0.7628 -0.2319 -1.6132
 8596SOL    MW434118   3.631   3.052   0.227 -0.2614 -0.2331 -0.6511
 8597SOL     OW34119   1.759   0.028   5.747 -0.4359 -0.4616  0.3784
 8597SOL    HW234120   1.723  -0.037   5.809 -0.1065  1.2575  2.5034
 8597SOL    HW334121   1.772   0.106   5.800 -0.3779  1.2322 -1.9894
 8597SOL    MW434122   1.756   0.030   5.763 -0.7675 -0.5943  0.4212
 8598SOL     OW34123   4.552   0.077   2.865  0.0720  0.5434  0.0656
 8598SOL    HW234124   4.518   0.105   2.950 -0.5676  1.1073 -0.3627
 8598SOL    HW334125   4.587   0.157   2.826  1.5001  0.0670  0.2959
 8598SOL    MW434126   4.552   0.091   2.871  0.4450 -0.6637  0.2050
 8599SOL     OW34127   3.832   5.122   6.311  0.7594 -0.1372  0.0649
 8599SOL    HW234128   3.824   5.109   6.406 -0.3729  1.2400  0.2051
 8599SOL    HW334129   3.891   5.197   6.303 -0.8747  1.1986 -0.1588
 8599SOL    MW434130   3.838   5.130   6.323 -0.0677 -0.3453  0.2539
 8600SOL     OW34131   5.335   2.032   3.949  0.8326  0.1175  0.3957
 8600SOL    HW234132   5.409   2.093   3.957  1.3520 -0.5105  0.4466
 8600SOL    HW334133   5.284   2.066   3.876  1.8125 -0.0872 -0.4053
 8600SOL    MW434134   5.338   2.044   3.940 -0.4703 -0.2234 -0.1329
 8601SOL     OW34135   4.747   1.113   6.290 -0.3275  0.3310  0.2740
 8601SOL    HW234136   4.838   1.107   6.262 -0.6684  0.6895 -0.9620
 8601SOL    HW334137   4.696   1.106   6.209 -1.4443 -0.9644  1.0526
 8601SOL    MW434138   4.752   1.111   6.276  0.4759 -0.8583 -0.1571
 8602SOL     OW34139   3.625   5.085   5.132 -0.0140  0.3138  0.0731
 8602SOL    HW234140   3.559   5.150   5.111  0.9766  1.1661 -0.4920
 8602SOL    HW334141   3.659   5.113   5.217 -0.2908 -0.0592  0.3103
 8602SOL    MW434142   3.621   5.097   5.141 -0.0809 -0.0026  0.0734
 8603SOL     OW34143   3.312   4.152   1.773 -0.0252  0.3582  0.4466
 8603SOL    HW234144   3.267   4.221   1.821 -0.7314  0.8555 -0.8845
 8603SOL    HW334145   3.340   4.194   1.691  0.2565 -0.7117 -0.0274
 8603SOL    MW434146   3.310   4.167   1.768 -0.3281 -0.5983  0.1776
 8604SOL     OW34147   4.925   5.960   4.016 -0.4944 -0.0515 -0.1981
 8604SOL    HW234148   5.018   5.982   4.009  0.1840 -1.9873  1.5844
 8604SOL    HW334149   4.908   5.958   4.110 -2.6011  1.1021 -0.4996
 8604SOL    MW434150   4.935   5.962   4.027 -0.6077  0.1828 -0.2454
 8605SOL     OW34151   6.092   0.425   2.359  0.1294 -0.4468 -0.3770
 8605SOL    HW234152   6.081   0.476   2.279 -0.8270 -0.5182 -0.3002
 8605SOL    HW334153   6.186   0.428   2.377 -0.0960  3.5074  1.0745
 8605SOL    MW434154   6.103   0.432   2.351  0.4042 -0.6380 -0.1962
 8606SOL     OW34155   1.981   2.352   1.027 -0.1114 -0.2012 -0.1417
 8606SOL    HW234156   2.053   2.361   1.089 -0.3800  2.0354 -0.0463
 8606SOL    HW334157   1.979   2.436   0.980 -1.7219 -0.7539 -1.1538
 8606SOL    MW434158   1.990   2.364   1.029  0.4494  0.4294  0.1136
 8607SOL     OW34159   4.377   2.160   1.301 -0.4965 -0.3813 -0.0158
 8607SOL    HW234160   4.422   2.205   1.373 -0.1493  0.2836 -0.6373
 8607SOL    HW334161   4.422   2.076   1.293 -0.9003 -0.7066  0.9020
 8607SOL    MW434162   4.389   2.155   1.310 -0.4293  0.4995 -0.2940
 8608SOL     OW34163   3.364   1.386   2.295 -0.5313  0.4010 -0.1011
 8608SOL    HW234164   3.322   1.469   2.275  0.0662  0.7300 -0.0161
 8608SOL    HW334165   3.442   1.384   2.239 -1.6433 -1.0780 -1.7045
 8608SOL    MW434166   3.369   1.397   2.285 -0.1696 -0.5545  0.3307
 8609SOL     OW34167   1.878   1.397   2.240 -0.1342 -0.3626  0.4033
 8609SOL    HW234168   1.875   1.347   2.159 -0.9763  1.1195 -0.5072
 8609SOL    HW334169   1.906   1.333   2.306  1.5431 -1.3661 -1.1898
 8609SOL    MW434170   1.882   1.382   2.238  0.1597  0.0804  0.1978
 8610SOL     OW34171   2.686   1.212   2.276  1.2178  0.0799  0.2633
 8610SOL    HW234172   2.751   1.150   2.242  0.9772 -0.1484  0.2091
 8610SOL    HW334173   2.734   1.294   2.285  1.2587  0.1925 -0.7808
 8610SOL    MW434174   2.701   1.215   2.272  0.0972 -0.1527  0.4861
 8611SOL     OW34175   2.987   1.450   4.996  0.0593 -0.4497 -0.0909
 8611SOL    HW234176   3.035   1.402   4.928  0.2739 -0.9606  0.4134
 8611SOL    HW334177   3.023   1.416   5.078  0.2720  0.6447  0.2750
 8611SOL    MW434178   2.998   1.439   4.998  0.1608 -0.3500  0.2484
 8612SOL     OW34179   2.023   3.761   5.138  0.7476 -0.3381 -0.0925
 8612SOL    HW234180   2.088   3.713   5.086  1.0654 -0.4800  0.4245
 8612SOL    HW334181   1.991   3.697   5.202 -0.1832 -0.3750 -0.5769
 8612SOL    MW434182   2.027   3.746   5.139  0.4091 -0.0514  0.1812
 8613SOL     OW34183   4.158   3.901   1.479 -0.5080  0.4623 -0.1121
 8613SOL    HW234184   4.128   3.954   1.553 -0.4993  0.2716  0.0272
 8613SOL    HW334185   4.244   3.869   1.506 -0.6056  0.2042 -0.1106
 8613SOL    MW434186   4.165   3.904   1.492  0.4725 -0.1659  0.3350
 8614SOL     OW34187   1.131   4.892   3.177 -0.2029 -0.2261 -0.1222
 8614SOL    HW234188   1.104   4.977   3.143 -1.1623 -0.2137  0.6297
 8614SOL    HW334189   1.076   4.878   3.254  0.4272 -1.2159  0.1704
 8614SOL    MW434190   1.120   4.901   3.182  0.3949 -0.1333  0.4829
 8615SOL     OW34191   2.315   4.746   1.058 -0.3116 -0.3391  0.0470
 8615SOL    HW234192   2.403   4.738   1.096 -0.7318  1.3371  1.4840
 8615SOL    HW334193   2.317   4.687   0.982  2.8708  1.4238 -1.4544
 8615SOL    MW434194   2.327   4.737   1.053 -0.4255 -0.1446 -0.4755
 8616SOL     OW34195   5.080   3.893   3.389 -0.0274 -0.5183  0.3745
 8616SOL    HW234196   5.141   3.915   3.459 -0.6343  1.0062  0.4511
 8616SOL    HW334197   4.994   3.919   3.422 -0.2656  0.8109 -1.1217
 8616SOL    MW434198   5.076   3.899   3.402 -0.7326  1.0536 -0.0473
 8617SOL     OW34199   1.984   2.426   6.022  0.1703 -0.1784  0.9145
 8617SOL    HW234200   1.979   2.402   6.114 -1.5818 -1.6249  0.4925
 8617SOL    HW334201   2.049   2.365   5.985 -0.5772 -0.9478  0.8348
 8617SOL    MW434202   1.992   2.415   6.029 -0.1820 -0.3880  0.3152
 8618SOL     OW34203   4.891   0.288   3.440  0.4089 -0.3116  0.0668
 8618SOL    HW234204   4.879   0.356   3.374 -1.9830 -0.8983 -0.2016
 8618SOL    HW334205   4.898   0.335   3.522  1.1985  0.3321 -0.3511
 8618SOL    MW434206   4.891   0.303   3.442 -0.3438  0.6604  0.3744
 8619SOL     OW34207   2.212   1.167   6.275 -0.5453  0.2142 -0.1468
 8619SOL    HW234208   2.267   1.234   6.235  0.7500 -0.4824  0.4075
 8619SOL    HW334209   2.130   1.212   6.295 -0.2872  1.2173 -1.2034
 8619SOL    MW434210   2.209   1.182   6.272  0.1042  0.2555 -0.3208
 8620SOL     OW34211   4.936   2.534   2.130 -0.4811 -0.1413  0.2497
 8620SOL    HW234212   4.975   2.528   2.043 -1.3688  2.6801 -0.4559
 8620SOL    HW334213   4.873   2.462   2.134 -0.4071 -0.3253 -1.4338
 8620SOL    MW434214   4.933   2.524   2.119  0.2493  0.2657 -0.0915
 8621SOL     OW34215   4.461   0.333   4.364 -0.3296  0.4845 -0.0120
 8621SOL    HW234216   4.398   0.316   4.434 -0.2075  0.6555  0.1412
 8621SOL    HW334217   4.452   0.259   4.305 -0.9588  0.7115 -0.2028
 8621SOL    MW434218   4.452   0.321   4.366 -0.2820 -0.3298  0.4606
 8622SOL     OW34219   2.706   2.281   0.014 -0.1990  0.1047  0.2316
 8622SOL    HW234220   2.731   2.304  -0.075 -0.0029  1.3009  0.5771
 8622SOL    HW334221   2.657   2.357   0.046  0.8322  0.2514  1.5681
 8622SOL    MW434222   2.703   2.294   0.006  0.4455 -0.7197 -0.0907
 8623SOL     OW34223   5.115   3.380   4.007 -0.0743 -0.2270 -0.1449
 8623SOL    HW234224   5.044   3.317   4.013  0.6115 -1.0674 -0.6583
 8623SOL    HW334225   5.105   3.420   3.921  0.2142 -0.5278 -0.3212
 8623SOL    MW434226   5.104   3.377   3.996  0.0946  0.0435 -0.2955
 8624SOL     OW34227   6.313   5.056   0.230 -0.4666 -0.2551 -0.0805
 8624SOL    HW234228   6.286   4.966   0.213  2.3341 -1.1659 -0.1492
 8624SOL    HW334229   6.245   5.090   0.289 -0.6391 -3.0522  1.5118
 8624SOL    MW434230   6.300   5.048   0.236 -0.3540 -0.1552 -0.4293
 8625SOL     OW34231   2.182   5.821   5.810 -0.0886  0.3643 -0.0032
 8625SOL    HW234232   2.167   5.818   5.904  1.1587 -3.0254  0.1979
 8625SOL    HW334233   2.100   5.855   5.774 -1.2846 -0.0655  2.1468
 8625SOL    MW434234   2.169   5.825   5.818  0.2727 -0.4611  0.0646
 8626SOL     OW34235   0.898   2.811   1.936  0.4458  0.5997  0.4321
 8626SOL    HW234236   0.963   2.800   1.866  0.3561  0.5257  0.3597
 8626SOL    HW334237   0.937   2.768   2.012 -0.4799 -1.5123 -0.1964
 8626SOL    MW434238   0.912   2.804   1.937  0.7088  0.1948  0.2683
 8627SOL     OW34239   1.070   0.765   0.574 -0.5964  0.3280 -0.1050
 8627SOL    HW234240   1.070   0.676   0.541 -1.3029  0.4918 -0.5649
 8627SOL    HW334241   0.986   0.775   0.619 -0.8373  0.9768 -0.6773
 8627SOL    MW434242   1.059   0.755   0.576 -0.5385  0.0127  0.6098
 8628SOL     OW34243   4.680   3.829   5.259 -0.3251  0.1723 -0.1507
 8628SOL    HW234244   4.611   3.797   5.316  0.2672  0.6578  0.8651
 8628SOL    HW334245   4.640   3.901   5.210 -0.9264 -0.4538 -0.5869
 8628SOL    MW434246   4.666   3.834   5.260  0.5433 -0.3061 -0.5856
 8629SOL     OW34247   3.292   3.672   5.346  0.7976 -0.0893  0.6156
 8629SOL    HW234248   3.310   3.730   5.419 -1.3401  0.2479  0.9241
 8629SOL    HW334249   3.300   3.727   5.268 -1.0213  0.6419  0.8946
 8629SOL    MW434250   3.295   3.687   5.345  0.1405 -0.2844 -0.1190
 8630SOL     OW34251   4.844   5.773   1.913  0.8520  0.1726 -0.3741
 8630SOL    HW234252   4.819   5.804   2.001 -0.7540  0.3146 -0.8594
 8630SOL    HW334253   4.808   5.685   1.907  1.8382 -0.2314 -0.5372
 8630SOL    MW434254   4.836   5.766   1.924 -0.1730  0.0959 -0.4001
 8631SOL     OW34255   5.733   2.877   5.976 -0.5212  0.0630 -0.0996
 8631SOL    HW234256   5.736   2.816   6.050 -0.1093  2.1526  1.7094
 8631SOL    HW334257   5.824   2.897   5.958 -0.6314 -0.2571 -1.0796
 8631SOL    MW434258   5.745   2.871   5.983 -0.6525 -0.0698 -0.5111
 8632SOL     OW34259   4.396   0.641   4.354 -0.1112 -0.4044 -0.6444
 8632SOL    HW234260   4.387   0.563   4.299 -0.1815 -0.4699 -0.5427
 8632SOL    HW334261   4.364   0.713   4.301  0.6900 -0.3243 -1.0247
 8632SOL    MW434262   4.391   0.640   4.340 -0.3108 -0.3982 -0.5323
 8633SOL     OW34263   0.669   4.817   3.531  0.1849 -0.3382 -0.5338
 8633SOL    HW234264   0.702   4.900   3.565 -0.4950 -0.8459  1.4796
 8633SOL    HW334265   0.621   4.842   3.452 -2.2207  1.6085  1.3791
 8633SOL    MW434266   0.667   4.831   3.525 -0.5720 -0.2914 -0.4232
 8634SOL     OW34267   4.592   3.925   1.014  0.1750 -0.6468  0.1494
 8634SOL    HW234268   4.575   4.018   1.000  0.3831 -0.7160 -0.6003
 8634SOL    HW334269   4.686   3.916   1.002  0.0101 -1.1372 -0.9536
 8634SOL    MW434270   4.602   3.936   1.010  0.1266  0.4797 -0.2911
 8635SOL     OW34271   3.898   4.060   0.286 -0.2534 -0.3254 -0.7675
 8635SOL    HW234272   3.921   4.046   0.378 -1.3627 -0.2443 -0.4692
 8635SOL    HW334273   3.983   4.063   0.241  0.3054 -0.3909  0.2403
 8635SOL    MW434274   3.912   4.059   0.292 -0.0279  0.0393  0.2534
 8636SOL     OW34275   3.040   0.961   6.261  0.1610 -0.0959 -0.2539
 8636SOL    HW234276   2.987   1.017   6.319 -0.4439  0.1015 -0.9864
 8636SOL    HW334277   3.034   1.003   6.175  1.2840 -0.2358 -0.4117
 8636SOL    MW434278   3.032   0.974   6.258  0.0233 -0.2054 -0.2777
 8637SOL     OW34279   0.554   1.076   5.747  0.4809 -0.3152 -0.0461
 8637SOL    HW234280   0.640   1.099   5.782  0.5937 -0.3166 -0.3167
 8637SOL    HW334281   0.552   0.980   5.747 -0.1261 -0.3205  1.4125
 8637SOL    MW434282   0.565   1.067   5.751  0.2812  0.6765  0.4354
 8638SOL     OW34283   2.241   4.295   1.333 -0.7715 -0.5103  0.3746
 8638SOL    HW234284   2.277   4.370   1.380 -0.8336  0.6937 -1.3631
 8638SOL    HW334285   2.197   4.334   1.257  0.8943 -2.3636 -1.6893
 8638SOL    MW434286   2.240   4.310   1.329  0.4266  0.2782 -0.5183
 8639SOL     OW34287   3.930   3.716   3.375  0.3845 -0.6305 -0.0219
 8639SOL    HW234288   3.922   3.803   3.414  1.5398 -1.0640  1.2982
 8639SOL    HW334289   3.862   3.664   3.418 -0.8945 -0.1991 -1.4579
 8639SOL    MW434290   3.920   3.720   3.386  0.0495 -0.4747 -0.2929
 8640SOL     OW34291   0.160   2.945   5.416 -0.1927  0.1722 -0.2960
 8640SOL    HW234292   0.124   3.031   5.441 -0.7326 -0.1906  0.2160
 8640SOL    HW334293   0.208   2.916   5.494  0.1305  0.0831 -0.5289
 8640SOL    MW434294   0.161   2.953   5.430 -0.1840  0.3443  0.2496
 8641SOL     OW34295   5.992   1.663   4.329  0.0518  0.0474 -0.0224
 8641SOL    HW234296   5.983   1.578   4.285 -0.2051 -0.2011  0.5154
 8641SOL    HW334297   5.904   1.687   4.355  0.3471 -0.4647  1.5863
 8641SOL    MW434298   5.979   1.655   4.326  0.3182  0.7733 -0.1103
 8642SOL     OW34299   2.696   0.964   4.998 -0.1974 -0.3921  0.2581
 8642SOL    HW234300   2.633   0.893   4.999 -0.3172 -0.3864 -1.9577
 8642SOL    HW334301   2.776   0.927   5.035 -0.7105 -1.2149  0.5413
 8642SOL    MW434302   2.698   0.950   5.003  0.6489  0.4323 -0.3207
 8643SOL     OW34303   3.488   0.232   2.285 -0.6541  0.0961  0.8377
 8643SOL    HW234304   3.429   0.292   2.240  1.0796 -0.3075 -2.2894
 8643SOL    HW334305   3.471   0.147   2.245  1.4888 -0.1522  0.3232
 8643SOL    MW434306   3.478   0.228   2.274 -0.8980 -0.1992 -0.0516
 8644SOL     OW34307   4.535   1.902   0.654  0.5656  0.1945  0.3886
 8644SOL    HW234308   4.625   1.871   0.662  1.4294  1.4121 -2.7535
 8644SOL    HW334309   4.481   1.825   0.669  2.1987 -0.8954  0.9179
 8644SOL    MW434310   4.540   1.888   0.657 -0.1572  0.5805 -0.5190
 8645SOL     OW34311   3.542   0.111   2.750 -0.1773 -0.0990 -0.4493
 8645SOL    HW234312   3.607   0.062   2.801  0.2457 -0.7413 -1.5728
 8645SOL    HW334313   3.594   0.165   2.691 -0.6347  1.9043  0.8833
 8645SOL    MW434314   3.558   0.112   2.749  0.4611 -0.1221  0.3438
 8646SOL     OW34315   1.945   2.476   0.291 -0.4975 -0.3083  0.1798
 8646SOL    HW234316   1.870   2.437   0.246 -0.0270 -0.3986 -0.5519
 8646SOL    HW334317   1.934   2.570   0.279 -0.2626 -0.3392 -0.3293
 8646SOL    MW434318   1.934   2.483   0.283  0.6926 -0.3074  0.0083
 8647SOL     OW34319   5.187   0.561   1.594  0.2168  0.3727  0.1452
 8647SOL    HW234320   5.180   0.503   1.670 -0.0582  0.5368  0.2446
 8647SOL    HW334321   5.217   0.644   1.630  1.1072  0.1581 -0.0602
 8647SOL    MW434322   5.190   0.564   1.609 -0.0741  0.2848  0.2266
 8648SOL     OW34323   3.071   0.264   2.176 -0.0404 -0.3324 -0.3587
 8648SOL    HW234324   3.054   0.304   2.091  0.7457  1.0827  0.1147
 8648SOL    HW334325   3.115   0.181   2.155 -0.1100 -0.1384 -1.3318
 8648SOL    MW434326   3.075   0.258   2.162 -0.4298  0.2262 -0.4134
 8649SOL     OW34327   3.291   1.242   0.752 -0.9355  0.0318  0.6135
 8649SOL    HW234328   3.222   1.187   0.713 -1.0584 -0.6634  1.7732
 8649SOL    HW334329   3.361   1.181   0.773 -0.2580  0.6296  0.1430
 8649SOL    MW434330   3.291   1.227   0.749 -0.1491 -0.0482  0.4272
 8650SOL     OW34331   4.937   5.296   0.191  0.1892  0.6014 -0.0923
 8650SOL    HW234332   4.970   5.300   0.281 -0.4121 -0.5780  0.2088
 8650SOL    HW334333   4.842   5.288   0.201  0.1800 -0.3714 -0.7826
 8650SOL    MW434334   4.929   5.295   0.204 -0.0334  0.1125  0.0315
 8651SOL     OW34335   2.556   1.120   2.866  0.5188  0.2322  0.3199
 8651SOL    HW234336   2.642   1.081   2.851 -0.3353 -1.4569 -0.5706
 8651SOL    HW334337   2.542   1.178   2.792  0.3566 -0.5150 -0.2405
 8651SOL    MW434338   2.565   1.122   2.854 -0.0993  0.2965 -0.3012
 8652SOL     OW34339   0.624   3.540   2.587 -0.0205 -0.6613  0.2747
 8652SOL    HW234340   0.633   3.500   2.673  0.1874  1.7033  1.4294
 8652SOL    HW334341   0.704   3.516   2.540  0.6033 -0.6625  1.3260
 8652SOL    MW434342   0.635   3.532   2.592 -0.2918 -0.4537 -0.4530
 8653SOL     OW34343   0.802   4.943   1.795 -0.5478 -0.6301  0.8919
 8653SOL    HW234344   0.784   5.035   1.777  2.8791  0.2746  1.4659
 8653SOL    HW334345   0.725   4.897   1.760 -2.0784  2.3350 -0.0331
 8653SOL    MW434346   0.789   4.949   1.788  0.7456  0.0503 -0.8171
 8654SOL     OW34347   5.415   4.177   1.883  0.1631  0.1269 -0.2361
 8654SOL    HW234348   5.430   4.100   1.829 -1.1331  0.4659 -1.1314
 8654SOL    HW334349   5.332   4.160   1.927  0.4557  0.5060  0.4822
 8654SOL    MW434350   5.406   4.165   1.882 -0.2090  0.6718  0.6627
 8655SOL     OW34351   3.986   5.231   0.645  0.0649  0.5963  0.7178
 8655SOL    HW234352   3.961   5.149   0.601 -1.3948  0.5262  1.6068
 8655SOL    HW334353   4.046   5.273   0.584  0.8032 -1.1023  0.2139
 8655SOL    MW434354   3.990   5.225   0.631  0.1030  0.2450 -0.2443
 8656SOL     OW34355   2.404   4.472   1.520  0.4806 -0.0373 -0.4705
 8656SOL    HW234356   2.494   4.473   1.489  0.9105  1.8985  0.7066
 8656SOL    HW334357   2.377   4.563   1.520 -0.6437 -0.3203  1.4921
 8656SOL    MW434358   2.412   4.484   1.516  0.5852  0.1356 -0.0825
 8657SOL     OW34359   0.510   1.013   2.616  0.0595  0.2197  0.0800
 8657SOL    HW234360   0.521   1.008   2.711 -0.1216 -1.1675  0.0453
 8657SOL    HW334361   0.444   1.081   2.603  1.0599  1.3891  0.8497
 8657SOL    MW434362   0.503   1.021   2.627  0.1285 -0.3523 -0.0668
 8658SOL     OW34363   0.659   2.101   6.241 -0.6409 -0.2785 -0.0071
 8658SOL    HW234364   0.581   2.157   6.237 -0.6008 -0.0002  2.0283
 8658SOL    HW334365   0.673   2.072   6.150 -0.6400  3.0124 -1.2036
 8658SOL    MW434366   0.651   2.105   6.228 -0.0040  0.2261 -0.4613
 8659SOL     OW34367   5.246   2.140   2.156  0.0843 -0.1129 -0.3996
 8659SOL    HW234368   5.301   2.153   2.233 -1.2588 -0.1108  0.6042
 8659SOL    HW334369   5.241   2.045   2.146  0.1465 -0.1179 -0.3835
 8659SOL    MW434370   5.252   2.129   2.165 -0.2272 -0.3267  0.0220
 8660SOL     OW34371   5.257   3.350   0.290  0.2721  1.1848 -0.2945
 8660SOL    HW234372   5.196   3.317   0.356 -1.9657  1.4259 -2.1485
 8660SOL    HW334373   5.296   3.272   0.251 -1.6483  0.8252 -1.5947
 8660SOL    MW434374   5.254   3.336   0.294 -1.3390 -0.2924  0.0488
 8661SOL     OW34375   3.420   0.100   3.575  0.6624  0.3424 -0.5371
 8661SOL    HW234376   3.508   0.106   3.612  1.2747  0.1561 -1.9141
 8661SOL    HW334377   3.392   0.010   3.595  0.3868  0.6922  0.7252
 8661SOL    MW434378   3.428   0.089   3.583  0.2160  0.0716  0.4365
 8662SOL     OW34379   4.382   5.757   3.476 -0.1043  0.3711 -0.4652
 8662SOL    HW234380   4.364   5.846   3.505  0.7579  0.1504  0.8064
 8662SOL    HW334381   4.397   5.707   3.556 -0.4776 -0.9055 -1.1560
 8662SOL    MW434382   4.382   5.762   3.490 -0.0995  0.7108 -0.5629
 8663SOL     OW34383   3.423   3.610   0.298 -0.2223 -0.2470  0.2319
 8663SOL    HW234384   3.459   3.699   0.306 -0.6810 -0.0007 -0.3428
 8663SOL    HW334385   3.358   3.617   0.228  0.7797 -1.3628 -0.8680
 8663SOL    MW434386   3.419   3.623   0.290 -0.3846 -0.2979 -0.2328
 8664SOL     OW34387   3.304   3.967   1.520 -0.5654  0.3911 -0.4833
 8664SOL    HW234388   3.368   3.932   1.582 -0.8774 -1.1148 -0.9606
 8664SOL    HW334389   3.335   4.055   1.500  0.0509  0.5511  1.0838
 8664SOL    MW434390   3.316   3.974   1.525 -0.0610 -0.0646  0.1817
 8665SOL     OW34391   6.015   4.304   5.019 -0.3429  0.2109 -0.0978
 8665SOL    HW234392   6.037   4.390   5.055  1.2532 -1.2586  2.8196
 8665SOL    HW334393   6.096   4.274   4.979 -0.1197 -0.8582  1.0819
 8665SOL    MW434394   6.028   4.311   5.019  0.0759  0.3510  0.2582
 8666SOL     OW34395   1.859   6.321   0.081 -0.1193 -0.0500 -0.2065
 8666SOL    HW234396   1.828   6.316  -0.010  1.3256  0.2606 -0.7512
 8666SOL    HW334397   1.871   6.230   0.107 -0.1969 -0.1311 -0.4520
 8666SOL    MW434398   1.857   6.308   0.072  0.0737 -0.1390 -0.0044
 8667SOL     OW34399   2.542   4.196   2.667 -0.0844  0.0510 -0.5979
 8667SOL    HW234400   2.467   4.156   2.623 -0.7386  1.4027 -0.7440
 8667SOL    HW334401   2.616   4.140   2.643 -1.3465 -2.7463  1.5063
 8667SOL    MW434402   2.542   4.183   2.658  0.1082 -0.2884 -0.3625
 8668SOL     OW34403   5.647   0.347   2.347 -0.5945  0.1550  0.4422
 8668SOL    HW234404   5.604   0.269   2.311  1.3012 -0.7113 -0.0912
 8668SOL    HW334405   5.687   0.389   2.271 -0.4320  0.8767  0.9193
 8668SOL    MW434406   5.647   0.342   2.332  0.0689  0.0895 -0.3973
 8669SOL     OW34407   2.263   0.288   4.080 -0.2643  0.4966  0.0743
 8669SOL    HW234408   2.280   0.195   4.089  0.6274  0.4516 -1.6212
 8669SOL    HW334409   2.348   0.330   4.092 -0.1919  0.8662 -1.4549
 8669SOL    MW434410   2.277   0.282   4.083  0.5802 -0.0450  0.4994
 8670SOL     OW34411   0.612   0.070   0.772  0.2480  0.1622 -0.6043
 8670SOL    HW234412   0.682   0.100   0.713 -0.1744  0.6610 -0.8626
 8670SOL    HW334413   0.580   0.150   0.814 -0.7359  0.0500 -1.1128
 8670SOL    MW434414   0.617   0.085   0.770  0.3832  0.4499 -0.4821
 8671SOL     OW34415   2.525   1.230   6.272  0.1629 -0.3421  0.6355
 8671SOL    HW234416   2.477   1.313   6.274  0.6509 -0.0601  1.9408
 8671SOL    HW334417   2.580   1.236   6.194 -1.7735 -0.6187 -0.8120
 8671SOL    MW434418   2.526   1.242   6.262 -0.2733 -0.7181 -0.1234
 8672SOL     OW34419   0.394   5.197   2.821 -0.0232  0.3277  0.6349
 8672SOL    HW234420   0.319   5.154   2.781 -0.5548  1.8826 -0.1097
 8672SOL    HW334421   0.358   5.251   2.891  0.1653  2.2257 -0.6607
 8672SOL    MW434422   0.380   5.198   2.825 -0.2382 -0.0648 -0.5326
 8673SOL     OW34423   4.498   2.959   4.723 -0.5341 -0.2180 -0.3530
 8673SOL    HW234424   4.455   3.043   4.737  0.9746  0.7172 -1.0614
 8673SOL    HW334425   4.525   2.961   4.631 -0.0017 -1.2561 -0.2376
 8673SOL    MW434426   4.496   2.970   4.713 -0.0569  0.0316  0.2391
 8674SOL     OW34427   5.395   2.690   0.263  0.1876  0.4845 -0.1156
 8674SOL    HW234428   5.463   2.647   0.211 -1.5230 -2.7427  0.0298
 8674SOL    HW334429   5.409   2.657   0.352 -0.7755  0.7788  0.1538
 8674SOL    MW434430   5.405   2.680   0.268  1.2490  0.4152  0.7149
 8675SOL     OW34431   4.035   3.124   1.346  0.1926  0.2255 -0.0830
 8675SOL    HW234432   4.013   3.043   1.392 -0.4173  0.6518  0.3851
 8675SOL    HW334433   4.020   3.104   1.254 -0.4057 -0.0507  0.0709
 8675SOL    MW434434   4.030   3.110   1.340 -0.2154 -0.1112 -0.4060
 8676SOL     OW34435   0.264   1.135   2.568 -0.3599  0.3292 -0.6874
 8676SOL    HW234436   0.194   1.151   2.632 -1.0769  0.1935 -1.4110
 8676SOL    HW334437   0.225   1.074   2.506  1.0528 -1.2263 -0.0921
 8676SOL    MW434438   0.250   1.129   2.568  0.1648 -0.4414  0.1274
 8677SOL     OW34439   2.623   4.228   4.285 -0.2942 -0.6461 -0.0731
 8677SOL    HW234440   2.560   4.170   4.328 -0.0175  0.4083  1.8667
 8677SOL    HW334441   2.707   4.182   4.292 -0.3467 -0.7321 -0.0158
 8677SOL    MW434442   2.626   4.214   4.291 -0.3626 -0.3756  0.4871
 8678SOL     OW34443   0.483   5.118   0.217 -0.0851  0.2445  0.0390
 8678SOL    HW234444   0.475   5.038   0.270  1.5846 -0.0558 -0.1253
 8678SOL    HW334445   0.436   5.184   0.267  0.0473 -0.4222  1.0825
 8678SOL    MW434446   0.475   5.116   0.231  0.1443 -0.7838 -0.3246
 8679SOL     OW34447   3.915   3.055   5.396  0.5434 -0.5690  0.2742
 8679SOL    HW234448   3.895   3.141   5.359 -0.8259 -0.8445  0.3147
 8679SOL    HW334449   3.950   3.005   5.322  0.0044 -0.4004 -0.1034
 8679SOL    MW434450   3.917   3.060   5.381 -0.1321  0.1693 -0.5113
 8680SOL     OW34451   6.032   4.427   3.701  0.1124  0.0394 -0.7526
 8680SOL    HW234452   6.109   4.461   3.748 -1.2686  1.5519  0.5754
 8680SOL    HW334453   6.039   4.332   3.709  0.4113  0.2059  1.8409
 8680SOL    MW434454   6.043   4.419   3.709  0.0760  0.1091  0.1381
 8681SOL     OW34455   2.090   1.454   3.897 -0.7607  0.3069 -0.1249
 8681SOL    HW234456   2.105   1.396   3.972  2.3729 -1.6667 -2.0418
 8681SOL    HW334457   2.056   1.396   3.829  0.0477  1.2129 -1.3386
 8681SOL    MW434458   2.088   1.438   3.898 -0.6006  0.3055 -0.4124
 8682SOL     OW34459   3.352   3.133   0.227 -0.2349 -0.3238  0.0305
 8682SOL    HW234460   3.308   3.196   0.169 -0.3704  0.4042  0.9052
 8682SOL    HW334461   3.326   3.047   0.193 -1.9677  0.0802  0.2300
 8682SOL    MW434462   3.343   3.130   0.215  0.1019 -0.2591 -0.1872
 8683SOL     OW34463   0.537   3.888   3.776 -0.3940  0.0105 -0.2100
 8683SOL    HW234464   0.520   3.929   3.691  1.8434  0.9546 -0.2794
 8683SOL    HW334465   0.599   3.818   3.757  0.0405  0.1600  0.5984
 8683SOL    MW434466   0.543   3.884   3.763 -0.5513 -0.3636 -0.3731
 8684SOL     OW34467   0.546   2.779   1.916  0.4017  0.6427  0.2584
 8684SOL    HW234468   0.639   2.754   1.909 -0.2636 -2.4057  0.7506
 8684SOL    HW334469   0.518   2.792   1.825  1.6814  3.6968  0.1631
 8684SOL    MW434470   0.555   2.777   1.903  0.2650 -0.5052 -0.0047
 8685SOL     OW34471   2.400   5.268   2.171 -0.3982 -0.4409  0.1794
 8685SOL    HW234472   2.404   5.335   2.240 -1.4424 -0.9011  0.7083
 8685SOL    HW334473   2.409   5.185   2.218  1.0535 -0.6894 -0.4885
 8685SOL    MW434474   2.402   5.266   2.186 -0.2856 -0.4421  0.2729
 8686SOL     OW34475   2.048   3.782   0.765  0.3399 -0.1651 -0.4919
 8686SOL    HW234476   2.084   3.867   0.738  1.3331 -0.3689  0.1535
 8686SOL    HW334477   1.995   3.754   0.691 -0.2786  1.1677 -0.5954
 8686SOL    MW434478   2.045   3.790   0.752 -0.3229  0.3148 -0.6534
 8687SOL     OW34479   5.187   2.586   5.706  0.2174 -0.4127  0.4701
 8687SOL    HW234480   5.248   2.567   5.635 -0.8032  0.2066 -0.5905
 8687SOL    HW334481   5.239   2.638   5.768  0.6371  0.5573 -0.6688
 8687SOL    MW434482   5.202   2.590   5.705  0.3889  0.4557 -0.9290
 8688SOL     OW34483   0.276   2.582   5.149  0.4808 -0.3972 -0.1529
 8688SOL    HW234484   0.347   2.632   5.190  1.0985  0.4951 -2.2151
 8688SOL    HW334485   0.259   2.627   5.067 -1.5195 -1.4543 -0.3700
 8688SOL    MW434486   0.283   2.594   5.144  0.2426 -0.0629  0.2022
 8689SOL     OW34487   6.324   1.175   5.622 -0.6365  0.1243 -0.1492
 8689SOL    HW234488   6.326   1.080   5.638 -0.6802 -0.0315 -1.0520
 8689SOL    HW334489   6.371   1.187   5.540  1.3566  1.1412  1.0610
 8689SOL    MW434490   6.331   1.164   5.613 -0.4383  0.5240 -0.4479
 8690SOL     OW34491   5.494   4.821   4.054  0.4726  0.1736  0.1875
 8690SOL    HW234492   5.419   4.768   4.080  0.5489  0.3512  0.7868
 8690SOL    HW334493   5.532   4.775   3.980 -0.9735  0.7422 -0.9459
 8690SOL    MW434494   5.489   4.808   4.048  0.3013  0.5077  0.6577
 8691SOL     OW34495   1.704   0.762   4.278 -0.5109  0.2088  0.1158
 8691SOL    HW234496   1.700   0.803   4.364  1.8112  2.7758 -0.8539
 8691SOL    HW334497   1.655   0.821   4.221  0.8304  0.4130 -0.8829
 8691SOL    MW434498   1.697   0.775   4.282  0.4417 -0.2223  1.2695
 8692SOL     OW34499   4.537   2.969   4.433 -0.1156  0.1496 -0.0212
 8692SOL    HW234500   4.590   3.044   4.405  0.5766 -0.2226  0.2720
 8692SOL    HW334501   4.570   2.895   4.382  1.1239 -0.5246  1.6625
 8692SOL    MW434502   4.548   2.969   4.423 -0.3137 -0.2939 -0.0493
 8693SOL     OW34503   1.678   1.552   1.905 -0.0448 -0.4154 -0.2951
 8693SOL    HW234504   1.707   1.608   1.977  1.5772 -1.1292 -0.3546
 8693SOL    HW334505   1.749   1.490   1.892 -0.5763 -0.7179 -2.1022
 8693SOL    MW434506   1.691   1.551   1.913 -0.7107  0.1471 -0.4228
 8694SOL     OW34507   3.294   4.085   0.475  0.8592 -0.4683  0.3452
 8694SOL    HW234508   3.321   4.055   0.562  0.6878  0.6736  0.8017
 8694SOL    HW334509   3.242   4.164   0.491 -0.4952 -1.0989 -0.6951
 8694SOL    MW434510   3.290   4.091   0.489  0.5435  0.6818  0.1148
 8695SOL     OW34511   0.581   4.094   1.349  0.2910  0.2213  0.3756
 8695SOL    HW234512   0.653   4.146   1.315  0.2792  0.0462  0.0764
 8695SOL    HW334513   0.551   4.142   1.426  1.0911  0.0062  0.8373
 8695SOL    MW434514   0.587   4.107   1.355  0.2127 -0.0305  0.4882
 8696SOL     OW34515   1.210   5.213   6.373 -0.8600  0.3267  0.6398
 8696SOL    HW234516   1.251   5.156   6.308 -1.9636  1.8119 -1.4752
 8696SOL    HW334517   1.268   5.208   6.449  0.4164 -1.6027 -0.3608
 8696SOL    MW434518   1.223   5.205   6.374 -0.2595 -0.0932 -0.3443
 8697SOL     OW34519   3.405   2.218   5.498  0.4279 -0.0435 -0.7180
 8697SOL    HW234520   3.344   2.195   5.428 -2.1069 -0.9845  1.6010
 8697SOL    HW334521   3.417   2.312   5.491 -1.4301  0.1785 -1.1893
 8697SOL    MW434522   3.399   2.227   5.488  0.0053 -0.1434  0.6559
 8698SOL     OW34523   3.315   5.848   0.429 -0.3255 -0.1772  0.3171
 8698SOL    HW234524   3.346   5.758   0.418 -0.6293 -0.1697 -0.7231
 8698SOL    HW334525   3.391   5.897   0.460  0.4201 -0.3827 -1.1391
 8698SOL    MW434526   3.329   5.843   0.432  0.0150 -0.0684 -0.0902
 8699SOL     OW34527   4.901   4.086   0.014 -0.2169  0.4776  0.2854
 8699SOL    HW234528   4.841   4.032  -0.037 -1.7889  0.7791  1.7009
 8699SOL    HW334529   4.884   4.175  -0.017  0.6415  0.4122 -0.3893
 8699SOL    MW434530   4.891   4.091   0.004 -0.1344 -0.2482  0.2710
 8700SOL     OW34531   1.300   1.608   4.049 -0.0859  0.1262 -0.2549
 8700SOL    HW234532   1.340   1.683   4.093  0.5538 -0.4213  0.1162
 8700SOL    HW334533   1.360   1.587   3.977  0.7935 -1.2216  0.8043
 8700SOL    MW434534   1.313   1.615   4.045 -0.6353  0.8443 -0.3477
 8701SOL     OW34535   3.957   4.970   3.254 -0.2311  0.1585  0.0040
 8701SOL    HW234536   3.983   4.933   3.169 -0.3206 -1.7010  0.7406
 8701SOL    HW334537   3.885   4.914   3.283  0.2142  0.3809  1.6095
 8701SOL    MW434538   3.951   4.958   3.246 -0.4600 -0.9487  0.3685
 8702SOL     OW34539   2.217   2.737   3.397  0.5311 -0.2108 -0.1225
 8702SOL    HW234540   2.221   2.829   3.370  1.5474 -0.2897 -0.2695
 8702SOL    HW334541   2.187   2.740   3.488  0.2660  0.2407 -0.2174
 8702SOL    MW434542   2.213   2.750   3.405  0.2990 -0.3992 -1.1155
 8703SOL     OW34543   6.104   5.538   6.230  0.2805  0.2022 -0.7671
 8703SOL    HW234544   6.097   5.501   6.143  0.0776 -2.5617  0.3452
 8703SOL    HW334545   6.040   5.490   6.282  1.4538  0.7096  1.2461
 8703SOL    MW434546   6.095   5.527   6.225  0.2710 -0.3877  0.0869
 8704SOL     OW34547   0.234   1.646   1.565 -0.2262  0.0180 -0.7907
 8704SOL    HW234548   0.301   1.578   1.565 -1.7141 -1.5073 -0.0164
 8704SOL    HW334549   0.201   1.647   1.475  0.2527  0.2116 -0.9705
 8704SOL    MW434550   0.239   1.637   1.553 -0.3280 -0.1720  0.1357
 8705SOL     OW34551   3.220   0.550   5.589 -0.5488  0.1963 -0.3888
 8705SOL    HW234552   3.269   0.615   5.537 -1.2879  2.0271  1.0674
 8705SOL    HW334553   3.128   0.566   5.568 -1.0944  2.5290  2.8782
 8705SOL    MW434554   3.215   0.561   5.580 -0.1961  0.1518  0.2458
 8706SOL     OW34555   0.160   2.663   1.769  0.1350 -0.2105 -0.2939
 8706SOL    HW234556   0.247   2.628   1.751  1.2236  1.0008  2.1195
 8706SOL    HW334557   0.174   2.757   1.780 -1.8524  0.3157 -1.7352
 8706SOL    MW434558   0.173   2.671   1.768  0.1360  0.2693 -0.6867
 8707SOL     OW34559   5.514   4.563   0.177  0.0531 -0.2351 -0.0156
 8707SOL    HW234560   5.434   4.608   0.147 -0.4975 -1.1363  0.0602
 8707SOL    HW334561   5.585   4.610   0.135 -0.5243  0.5230 -0.1722
 8707SOL    MW434562   5.513   4.575   0.168 -0.8072  0.0944 -0.0994
 8708SOL     OW34563   1.362   3.938   1.058  0.0393 -0.4323 -0.5940
 8708SOL    HW234564   1.284   3.995   1.064  0.3122 -0.2174  1.5076
 8708SOL    HW334565   1.419   3.983   0.996  0.4049  1.8681  1.2785
 8708SOL    MW434566   1.359   3.952   1.051 -0.0223  0.1691  0.7002
 8709SOL     OW34567   2.760   1.453   4.842 -0.1072  0.3350  0.4461
 8709SOL    HW234568   2.787   1.517   4.776 -2.4677  0.7161 -0.2429
 8709SOL    HW334569   2.826   1.460   4.911  2.7981 -0.4446 -2.0217
 8709SOL    MW434570   2.772   1.462   4.842 -0.3413  0.1817 -0.5445
 8710SOL     OW34571   3.611   5.603   3.088 -0.5909  0.1884  0.4398
 8710SOL    HW234572   3.685   5.646   3.130 -0.3986 -0.0028  0.3028
 8710SOL    HW334573   3.549   5.587   3.159  0.8761 -2.6412  1.2662
 8710SOL    MW434574   3.613   5.606   3.103  0.2121 -0.3033 -0.0348
 8711SOL     OW34575   2.963   2.218   3.346 -0.3403 -0.3837  0.5250
 8711SOL    HW234576   3.042   2.242   3.298 -1.3878 -1.3326 -1.7906
 8711SOL    HW334577   2.992   2.152   3.409  0.7499 -0.5583 -0.1484
 8711SOL    MW434578   2.977   2.213   3.348 -0.5833 -0.2516  0.1142
 8712SOL     OW34579   4.531   4.044   5.137  0.0122 -0.0767  0.2295
 8712SOL    HW234580   4.495   4.103   5.071 -1.4372 -1.8199 -0.6619
 8712SOL    HW334581   4.480   4.062   5.216 -3.0815 -2.4639 -0.9995
 8712SOL    MW434582   4.519   4.054   5.139  0.2468  0.3179  0.1721
 8713SOL     OW34583   6.400   0.186   1.733 -0.1480 -0.0598  0.2535
 8713SOL    HW234584   6.375   0.262   1.682 -0.9686 -0.1565  0.5077
 8713SOL    HW334585   6.318   0.152   1.769  0.4252  0.2497  1.9740
 8713SOL    MW434586   6.386   0.191   1.731 -0.3772 -0.2565 -0.4263
 8714SOL     OW34587   5.875   3.960   2.210 -0.3142 -0.1547 -0.5078
 8714SOL    HW234588   5.917   4.036   2.170 -1.7279  0.9814  0.0580
 8714SOL    HW334589   5.947   3.908   2.245  0.7589  0.3251 -1.8928
 8714SOL    MW434590   5.890   3.963   2.209 -0.6061 -0.1924 -0.0080
 8715SOL     OW34591   4.174   6.222   2.383  0.8159 -0.4379  0.7103
 8715SOL    HW234592   4.254   6.170   2.387  0.7515 -0.4655  2.1846
 8715SOL    HW334593   4.104   6.160   2.404  0.3774 -0.4189 -0.5840
 8715SOL    MW434594   4.175   6.207   2.386 -0.0024 -0.9063  0.0714
 8716SOL     OW34595   1.661   4.318   5.437  0.1225  0.0732 -0.3893
 8716SOL    HW234596   1.748   4.336   5.471 -0.1458  0.9026 -0.1222
 8716SOL    HW334597   1.631   4.242   5.487 -0.1766  1.1434  1.1173
 8716SOL    MW434598   1.668   4.310   5.448 -0.2570  0.6540  0.1839
 8717SOL     OW34599   1.027   5.497   3.408 -0.2319  0.1467 -0.5791
 8717SOL    HW234600   0.948   5.529   3.452  1.1597 -0.1528  2.3450
 8717SOL    HW334601   1.093   5.563   3.428  0.4716  0.0443 -2.4132
 8717SOL    MW434602   1.025   5.510   3.417  0.3646  0.4531 -0.4068
 8718SOL     OW34603   0.905   5.767   2.049  0.1158  0.2430  0.3910
 8718SOL    HW234604   0.934   5.857   2.035  0.7480  0.1138  0.8468
 8718SOL    HW334605   0.847   5.772   2.125 -3.2428  0.9293 -1.9696
 8718SOL    MW434606   0.901   5.780   2.057 -0.5783  0.5269 -0.2200
 8719SOL     OW34607   0.135   4.013   1.741  0.5183 -0.2240 -0.3284
 8719SOL    HW234608   0.064   3.980   1.686 -0.8420 -0.3706  1.3991
 8719SOL    HW334609   0.170   4.088   1.694 -2.3814  1.3221 -0.2352
 8719SOL    MW434610   0.130   4.018   1.728  0.1269  0.1258 -0.6761
 8720SOL     OW34611   5.780   3.179   2.431 -0.1866 -0.0471 -0.0714
 8720SOL    HW234612   5.851   3.120   2.456  1.3359  2.0932  0.9182
 8720SOL    HW334613   5.709   3.158   2.491  0.0055 -1.4018 -0.2774
 8720SOL    MW434614   5.780   3.169   2.442  0.1783  0.0525  0.1354
 8721SOL     OW34615   5.292   2.741   1.057 -0.0557 -0.5734  0.1202
 8721SOL    HW234616   5.329   2.662   1.097  0.8498 -0.2854 -0.1241
 8721SOL    HW334617   5.337   2.749   0.973 -0.1218  0.2168  0.1542
 8721SOL    MW434618   5.303   2.732   1.051  0.2532 -0.0525  0.5633
 8722SOL     OW34619   2.502   0.037   2.971 -0.1628  0.3107  0.0267
 8722SOL    HW234620   2.539   0.059   2.886  3.1599  0.8360  1.4719
 8722SOL    HW334621   2.483  -0.057   2.966  0.4711  0.2316 -1.1237
 8722SOL    MW434622   2.504   0.028   2.959  0.1348  0.3075 -0.7279
 8723SOL     OW34623   5.644   5.852   3.122  0.1626 -0.0377 -0.6610
 8723SOL    HW234624   5.573   5.798   3.156  0.4252 -0.3166 -0.5479
 8723SOL    HW334625   5.694   5.876   3.200  0.0813  0.3187 -0.7180
 8723SOL    MW434626   5.642   5.848   3.137 -0.2923 -0.5784 -0.4470
 8724SOL     OW34627   0.936   2.576   2.422 -0.3943 -0.3225  0.2347
 8724SOL    HW234628   0.861   2.556   2.477 -1.0708  0.9342 -0.1721
 8724SOL    HW334629   0.967   2.661   2.454  0.8785 -0.8345  0.4131
 8724SOL    MW434630   0.930   2.585   2.434  0.5087 -0.0734  0.3493
 8725SOL     OW34631   2.971   5.220   5.428  0.0698 -0.4351  0.1176
 8725SOL    HW234632   3.037   5.288   5.439  0.6782 -0.5612 -2.2676
 8725SOL    HW334633   2.901   5.261   5.378 -0.8168 -0.8241  1.0162
 8725SOL    MW434634   2.971   5.234   5.423 -0.2175 -0.1942 -0.2465
 8726SOL     OW34635   5.881   6.013   5.729  0.1493  0.8688  1.0727
 8726SOL    HW234636   5.895   6.087   5.669  2.1100 -1.2021 -1.2388
 8726SOL    HW334637   5.792   5.983   5.709  0.1633  1.2330  0.4354
 8726SOL    MW434638   5.871   6.019   5.719 -0.2211  0.5090  0.5504
 8727SOL     OW34639   6.226   4.737   2.256  0.2700  0.1149  0.2215
 8727SOL    HW234640   6.189   4.795   2.189  2.7205  0.0668 -1.2846
 8727SOL    HW334641   6.247   4.656   2.209 -0.0318 -0.7890  1.5812
 8727SOL    MW434642   6.224   4.734   2.241 -0.1452 -0.2915 -0.6688
 8728SOL     OW34643   0.084   1.978   0.339 -0.5501  0.0144 -0.0997
 8728SOL    HW234644   0.013   1.958   0.400 -0.0622 -0.3422  0.3631
 8728SOL    HW334645   0.051   2.050   0.285 -0.7593  0.7804  1.0196
 8728SOL    MW434646   0.071   1.985   0.340 -0.0541 -0.0686 -0.3302
 8729SOL     OW34647   1.796   4.758   4.951 -0.7573  1.2758  0.1519
 8729SOL    HW234648   1.738   4.790   4.882  1.6369 -0.4001 -2.9158
 8729SOL    HW334649   1.760   4.672   4.974 -0.0646  0.6206 -1.1109
 8729SOL    MW434650   1.783   4.751   4.945 -0.5479  0.0812 -0.1775
 8730SOL     OW34651   3.084   5.631   4.112 -0.2514  0.2673  0.5647
 8730SOL    HW234652   3.049   5.564   4.170  1.5903  1.1090  2.8228
 8730SOL    HW334653   3.010   5.655   4.055 -1.4344 -2.3414  0.8633
 8730SOL    MW434654   3.069   5.626   4.112 -0.2013 -0.6499 -0.4244
 8731SOL     OW34655   4.458   2.423   0.058 -0.2444  0.2572  0.3423
 8731SOL    HW234656   4.386   2.361   0.048 -0.5043  0.7509 -1.1853
 8731SOL    HW334657   4.514   2.385   0.125 -0.5751 -1.4643 -0.3063
 8731SOL    MW434658   4.456   2.410   0.065  0.0018 -0.4429 -0.0791
 8732SOL     OW34659   4.614   3.179   3.072 -0.1976  0.2417  0.3324
 8732SOL    HW234660   4.704   3.172   3.103  0.9481  0.8824 -2.5640
 8732SOL    HW334661   4.579   3.090   3.078  0.8026 -0.1251  0.9343
 8732SOL    MW434662   4.621   3.166   3.077 -0.4321 -0.4596 -0.2146
 8733SOL     OW34663   2.337   5.924   5.602 -0.6536  0.2686 -0.9042
 8733SOL    HW234664   2.268   5.890   5.658 -0.5851  1.6981  0.1120
 8733SOL    HW334665   2.308   5.905   5.513 -1.3130 -1.0347 -0.4290
 8733SOL    MW434666   2.324   5.917   5.597  0.0241  0.0464 -0.1675
 8734SOL     OW34667   2.685   5.088   4.963  0.0644  0.4486  0.0606
 8734SOL    HW234668   2.638   5.016   4.920  0.3682  0.6442 -0.6175
 8734SOL    HW334669   2.737   5.128   4.893  1.3976  0.1192  0.8233
 8734SOL    MW434670   2.686   5.084   4.948 -0.8437 -0.3702 -0.3351
 8735SOL     OW34671   1.763   2.916   4.520 -0.5987 -0.4387 -0.4793
 8735SOL    HW234672   1.683   2.936   4.570 -0.8128 -1.1181 -0.5457
 8735SOL    HW334673   1.779   2.824   4.538 -1.2539 -0.9890 -2.4800
 8735SOL    MW434674   1.754   2.907   4.529  0.0645 -0.3772  0.6217
 8736SOL     OW34675   1.106   0.471   4.042 -0.5537  0.5750 -0.3207
 8736SOL    HW234676   1.139   0.419   3.969 -1.1008  0.8869 -0.7959
 8736SOL    HW334677   1.125   0.418   4.120 -0.7429 -0.1443 -0.7622
 8736SOL    MW434678   1.113   0.458   4.043 -0.3094 -0.0174 -0.6425
 8737SOL     OW34679   5.008   0.954   2.099 -0.5197 -0.4563  0.0952
 8737SOL    HW234680   4.921   0.962   2.138 -1.3821 -1.7709 -1.4537
 8737SOL    HW334681   5.068   0.969   2.172 -2.0185  0.6122  1.1732
 8737SOL    MW434682   5.005   0.957   2.114  0.2582  0.0173  0.3871
 8738SOL     OW34683   1.167   5.402   2.971 -0.1632 -0.8046  0.1141
 8738SOL    HW234684   1.097   5.449   3.017  0.4371 -1.1876  1.4680
 8738SOL    HW334685   1.148   5.310   2.987  0.2156 -0.9354 -0.1763
 8738SOL    MW434686   1.155   5.396   2.979  0.2758 -0.0882  0.0799
 8739SOL     OW34687   3.204   5.085   5.638  0.0672  0.0655  0.5329
 8739SOL    HW234688   3.284   5.093   5.690  0.1161 -1.7764  0.8253
 8739SOL    HW334689   3.135   5.121   5.695  0.6367  1.4465  0.3700
 8739SOL    MW434690   3.205   5.091   5.653  0.2072  0.0744  0.0002
 8740SOL     OW34691   3.870   1.847   4.799 -0.6337 -0.1349 -0.2888
 8740SOL    HW234692   3.785   1.875   4.766 -1.1811  0.7826  1.7264
 8740SOL    HW334693   3.887   1.763   4.756 -2.8638 -0.6525 -0.2484
 8740SOL    MW434694   3.861   1.840   4.789  0.4099 -0.2635 -0.1176
 8741SOL     OW34695   3.480   1.372   4.168  0.0769  0.5387  0.1021
 8741SOL    HW234696   3.535   1.367   4.090  0.0847 -0.8265  0.1702
 8741SOL    HW334697   3.454   1.281   4.185 -3.0407  1.1879 -0.5314
 8741SOL    MW434698   3.484   1.359   4.160  0.3510 -0.9491  0.1876
 8742SOL     OW34699   0.880   2.521   1.453  0.5202  0.0102  0.3262
 8742SOL    HW234700   0.909   2.435   1.422  2.1124  0.5157  0.3332
 8742SOL    HW334701   0.888   2.578   1.377 -0.1749  0.2529  0.4240
 8742SOL    MW434702   0.885   2.517   1.439 -0.1209 -0.5191  0.0654
 8743SOL     OW34703   3.945   5.169   3.881  0.3829  0.0399 -0.0284
 8743SOL    HW234704   3.860   5.131   3.903  0.0542  0.8714  0.1650
 8743SOL    HW334705   4.006   5.095   3.884  0.5063  0.0271  4.2751
 8743SOL    MW434706   3.942   5.154   3.885  0.1140  0.2202  0.4570
 8744SOL     OW34707   0.867   1.823   0.171 -0.0682  0.3653 -0.2537
 8744SOL    HW234708   0.929   1.896   0.174  0.3063  0.0339  1.6976
 8744SOL    HW334709   0.810   1.843   0.097  2.2031  0.7993 -1.9831
 8744SOL    MW434710   0.868   1.835   0.162  0.0028 -0.0388  0.4097
 8745SOL     OW34711   1.602   3.855   3.159 -0.7714  0.6102  0.5950
 8745SOL    HW234712   1.642   3.839   3.074 -1.9042 -1.5246  0.4150
 8745SOL    HW334713   1.508   3.852   3.143 -1.0038  0.6149  1.8509
 8745SOL    MW434714   1.595   3.852   3.146 -0.1485 -0.1333  0.6910
 8746SOL     OW34715   5.858   0.809   0.395 -1.0266 -0.2461 -0.5373
 8746SOL    HW234716   5.916   0.799   0.319 -2.5637  0.4503 -1.8784
 8746SOL    HW334717   5.792   0.873   0.366 -1.6787  0.0161  1.3924
 8746SOL    MW434718   5.857   0.816   0.381  0.3926  0.0294  0.4237
 8747SOL     OW34719   4.893   0.167   5.446 -0.1468 -0.2940 -0.0108
 8747SOL    HW234720   4.806   0.206   5.446  0.2159  0.6683  1.7628
 8747SOL    HW334721   4.880   0.080   5.485 -0.9719 -2.2172 -4.0571
 8747SOL    MW434722   4.880   0.160   5.451  0.2519 -0.6979  0.0399
 8748SOL     OW34723   1.437   1.210   0.604  0.2862  0.0340 -0.2715
 8748SOL    HW234724   1.421   1.255   0.687  0.3637 -0.6317  0.1118
 8748SOL    HW334725   1.393   1.263   0.538 -0.9637 -0.1736  0.3750
 8748SOL    MW434726   1.429   1.223   0.606 -0.3588 -0.2267 -0.5191
 8749SOL     OW34727   4.074   2.131   0.328 -0.1001  0.6706  0.0174
 8749SOL    HW234728   4.065   2.082   0.410 -0.5454 -0.2360 -0.5504
 8749SOL    HW334729   3.984   2.143   0.297  0.1176 -1.4742 -1.7214
 8749SOL    MW434730   4.061   2.126   0.334 -0.1807 -0.5029 -0.1553
 8750SOL     OW34731   0.955   6.219   2.996  0.3606  0.2084 -0.1510
 8750SOL    HW234732   0.949   6.219   3.092 -2.1484 -1.1897 -0.2215
 8750SOL    HW334733   0.998   6.137   2.975  0.2810  0.1939 -0.2542
 8750SOL    MW434734   0.960   6.208   3.006  0.0767 -0.4711 -0.3407
 8751SOL     OW34735   2.032   6.250   1.605 -0.3504 -0.3201 -0.2428
 8751SOL    HW234736   2.108   6.277   1.554 -1.0484  2.3085 -0.0012
 8751SOL    HW334737   1.974   6.208   1.540  0.2471 -0.1589 -0.8963
 8751SOL    MW434738   2.034   6.248   1.589  0.2993 -0.1749 -0.4622
 8752SOL     OW34739   2.311   3.807   3.220  0.2542  0.0357  0.4991
 8752SOL    HW234740   2.360   3.769   3.147  0.0454 -0.1437  0.4494
 8752SOL    HW334741   2.233   3.752   3.227  0.8438 -0.7153  1.6472
 8752SOL    MW434742   2.307   3.794   3.211 -0.0773 -0.1636  0.2059
 8753SOL     OW34743   3.751   3.859   0.897  0.2691 -0.3432 -0.1272
 8753SOL    HW234744   3.723   3.804   0.970  1.1304  0.6830  1.0301
 8753SOL    HW334745   3.773   3.798   0.827 -1.3052 -1.3194  0.1886
 8753SOL    MW434746   3.750   3.844   0.897 -0.2430  0.2412  0.1924
 8754SOL     OW34747   3.329   1.114   4.000  0.4982  0.7458 -0.1399
 8754SOL    HW234748   3.270   1.055   3.954  0.4805  0.4615  0.2350
 8754SOL    HW334749   3.414   1.069   3.998  0.2096  0.0900  1.2481
 8754SOL    MW434750   3.332   1.100   3.994  0.3910  0.1696  0.2355
 8755SOL     OW34751   3.030   1.705   3.489 -0.2899  0.2053  1.0025
 8755SOL    HW234752   2.945   1.673   3.520 -0.6231  1.7498  1.7630
 8755SOL    HW334753   3.020   1.800   3.484 -0.2211  0.1892 -3.8092
 8755SOL    MW434754   3.018   1.713   3.493 -0.1702 -0.3185  0.7427
 8756SOL     OW34755   6.096   0.617   5.863  0.1823  0.0507 -0.4625
 8756SOL    HW234756   6.070   0.565   5.940 -0.4390  0.0287 -0.6786
 8756SOL    HW334757   6.120   0.702   5.899  2.9183 -0.8722  0.1033
 8756SOL    MW434758   6.096   0.622   5.878 -0.0318  0.4191  0.2144
 8757SOL     OW34759   0.307   3.812   3.448  0.5214  0.1700 -0.5473
 8757SOL    HW234760   0.260   3.815   3.531  0.7989 -0.0334 -0.3823
 8757SOL    HW334761   0.240   3.831   3.382  0.3763  0.6766 -0.2533
 8757SOL    MW434762   0.292   3.815   3.450 -0.1097  0.1371  0.2830
 8758SOL     OW34763   1.444   5.177   2.767 -0.5906  0.2579 -0.0837
 8758SOL    HW234764   1.420   5.116   2.837  1.5595 -0.4727  0.0899
 8758SOL    HW334765   1.389   5.254   2.783 -0.4517 -0.0315  2.1832
 8758SOL    MW434766   1.433   5.179   2.779 -0.2673  0.2179  0.3486
 8759SOL     OW34767   1.875   4.528   1.735  0.0069 -0.1280  0.0109
 8759SOL    HW234768   1.930   4.492   1.665  0.9096 -0.7292  1.0020
 8759SOL    HW334769   1.804   4.573   1.689  0.3966 -0.7910 -1.2814
 8759SOL    MW434770   1.873   4.529   1.720  0.1939  0.5720  0.1320
 8760SOL     OW34771   4.002   2.700   4.647 -0.0066  0.4395 -0.1560
 8760SOL    HW234772   4.031   2.610   4.661  1.1215  0.9981  1.2739
 8760SOL    HW334773   4.077   2.754   4.670 -1.5619  1.8834  1.9146
 8760SOL    MW434774   4.015   2.696   4.652  0.2943  0.0435  0.1923
 8761SOL     OW34775   1.681   5.538   3.729 -0.1908 -0.3211  0.0784
 8761SOL    HW234776   1.752   5.547   3.665 -1.1841 -0.8001 -1.1472
 8761SOL    HW334777   1.631   5.618   3.719 -0.7710 -0.7220 -0.3054
 8761SOL    MW434778   1.684   5.549   3.719 -0.3007  0.2286  0.3862
 8762SOL     OW34779   2.481   1.340   2.640 -0.5659 -0.7474 -0.0514
 8762SOL    HW234780   2.538   1.274   2.602 -1.2162 -1.1283 -0.3794
 8762SOL    HW334781   2.407   1.345   2.580  0.8340  2.4996 -1.7814
 8762SOL    MW434782   2.479   1.332   2.627 -0.1477 -0.6744 -0.3436
 8763SOL     OW34783   2.743   2.505   0.967  0.7354 -0.3980 -0.8521
 8763SOL    HW234784   2.790   2.556   1.032 -0.0599 -0.4067 -0.2553
 8763SOL    HW334785   2.654   2.500   1.000 -0.1642  1.1242 -2.8022
 8763SOL    MW434786   2.737   2.511   0.980  0.3288  0.5692  0.6971
 8764SOL     OW34787   1.844   3.883   3.303 -0.3007  0.3437 -0.2367
 8764SOL    HW234788   1.758   3.879   3.261  0.1230  0.3818 -1.1320
 8764SOL    HW334789   1.906   3.874   3.231  0.4478  0.1305  0.4232
 8764SOL    MW434790   1.841   3.882   3.288  0.3948 -0.0220  0.6141
 8765SOL     OW34791   6.103   1.337   4.889  0.2026  0.2346  0.3842
 8765SOL    HW234792   6.071   1.287   4.814 -0.7870  0.1469  0.8461
 8765SOL    HW334793   6.196   1.352   4.870  0.1544 -0.4612 -0.4771
 8765SOL    MW434794   6.111   1.333   4.877 -0.1658  0.0764  0.1838
 8766SOL     OW34795   3.168   5.012   1.481  0.4980  0.3372  0.0511
 8766SOL    HW234796   3.210   5.055   1.556 -1.0303  1.7585  0.1494
 8766SOL    HW334797   3.075   5.014   1.501  0.1973 -0.9647 -1.0550
 8766SOL    MW434798   3.161   5.018   1.493  0.1218 -0.3434 -0.1146
 8767SOL     OW34799   1.875   1.038   5.086 -0.0563  0.2896  0.3472
 8767SOL    HW234800   1.796   1.065   5.133 -0.3871 -1.1367  0.6641
 8767SOL    HW334801   1.842   0.986   5.013  0.5537  0.6482 -0.1843
 8767SOL    MW434802   1.860   1.035   5.083 -0.4884  0.3425 -0.1412
 8768SOL     OW34803   2.568   3.540   4.234 -0.1995  0.0370  0.1153
 8768SOL    HW234804   2.570   3.634   4.216  1.8348  0.0404  0.1355
 8768SOL    HW334805   2.501   3.505   4.175  0.2078  1.2719 -1.1094
 8768SOL    MW434806   2.559   3.547   4.224  0.0002 -0.2965  0.5874
 8769SOL     OW34807   1.304   5.260   3.269  0.2788 -0.2944 -0.0389
 8769SOL    HW234808   1.392   5.232   3.297  0.2362 -0.6998 -0.2947
 8769SOL    HW334809   1.309   5.355   3.267  0.2097 -0.2322  1.5922
 8769SOL    MW434810   1.317   5.269   3.272  0.3937  0.1038  0.4779
 8770SOL     OW34811   1.518   4.617   0.664 -0.7244 -0.0281 -0.2452
 8770SOL    HW234812   1.513   4.697   0.716  1.3241 -0.7774  1.2290
 8770SOL    HW334813   1.545   4.647   0.577 -1.6635  1.0058 -0.2130
 8770SOL    MW434814   1.520   4.632   0.659  0.0265 -0.5306 -0.9305
 8771SOL     OW34815   2.270   3.351   2.640  0.1860 -0.7620  0.0845
 8771SOL    HW234816   2.286   3.302   2.720  1.7702 -0.5546 -0.0644
 8771SOL    HW334817   2.347   3.334   2.585 -1.4490 -1.9488 -1.9610
 8771SOL    MW434818   2.282   3.343   2.644  0.1283 -0.5181 -0.5808
 8772SOL     OW34819   4.706   4.810   5.983 -0.3706 -0.1119  0.1397
 8772SOL    HW234820   4.784   4.757   5.996 -0.5439 -0.2777  0.4957
 8772SOL    HW334821   4.673   4.828   6.071  1.0045  2.5878  0.2110
 8772SOL    MW434822   4.712   4.805   5.996  0.3882  0.1402  0.7118
 8773SOL     OW34823   2.077   1.787   6.363 -0.1864 -0.4757  0.3622
 8773SOL    HW234824   2.031   1.806   6.444 -0.7418 -1.9015  0.4112
 8773SOL    HW334825   2.169   1.805   6.382 -0.2170 -1.4433  1.5390
 8773SOL    MW434826   2.083   1.792   6.376  0.0082 -0.2780 -0.4742
 8774SOL     OW34827   5.124   0.626   2.037 -0.0997  0.3258 -0.0010
 8774SOL    HW234828   5.123   0.576   2.118  1.6443  2.3009  1.3288
 8774SOL    HW334829   5.128   0.559   1.968 -0.2174 -1.3732  1.5616
 8774SOL    MW434830   5.124   0.610   2.038  0.7121  0.1420  0.7995
 8775SOL     OW34831   6.381   5.957   3.569  0.3928 -0.1982 -0.1590
 8775SOL    HW234832   6.437   6.034   3.555  0.4738 -0.0859  0.7100
 8775SOL    HW334833   6.400   5.900   3.494  2.5617 -0.6717  0.6591
 8775SOL    MW434834   6.391   5.960   3.557 -0.1773  0.6197 -0.0846
 8776SOL     OW34835   0.461   0.549   0.107 -0.3363  0.1268 -1.0981
 8776SOL    HW234836   0.439   0.636   0.074  2.1248  0.2593 -2.6085
 8776SOL    HW334837   0.505   0.506   0.034 -1.0169 -2.2256 -0.2010
 8776SOL    MW434838   0.464   0.555   0.093 -0.0165  0.0690  0.3121
 8777SOL     OW34839   5.422   2.680   5.365  0.7420 -0.2640 -0.1834
 8777SOL    HW234840   5.501   2.735   5.360  1.0697 -0.7374 -0.2725
 8777SOL    HW334841   5.402   2.660   5.273  0.4201 -0.0105 -0.1699
 8777SOL    MW434842   5.430   2.685   5.352  0.6992 -0.3565  0.4826
 8778SOL     OW34843   2.782   1.123   0.384 -0.1795  0.1131 -0.6733
 8778SOL    HW234844   2.742   1.182   0.449  1.6604 -1.3334  1.9808
 8778SOL    HW334845   2.875   1.144   0.387  0.4401 -2.3997 -0.1257
 8778SOL    MW434846   2.789   1.133   0.393 -0.5168  0.1144 -0.3174
 8779SOL     OW34847   1.276   1.141   2.666  0.0354 -0.1903  0.4817
 8779SOL    HW234848   1.314   1.208   2.723  0.8584 -0.1013 -0.1648
 8779SOL    HW334849   1.285   1.175   2.578 -1.1959 -0.3508  0.2686
 8779SOL    MW434850   1.282   1.154   2.662 -0.2314 -0.0383 -0.0807
 8780SOL     OW34851   1.149   1.137   1.657 -0.0025  0.0154  0.4343
 8780SOL    HW234852   1.146   1.107   1.566 -0.9204 -0.2277  0.5324
 8780SOL    HW334853   1.071   1.100   1.697 -0.6400  1.6691  0.8309
 8780SOL    MW434854   1.138   1.128   1.650  0.1672  0.1659  0.6732
 8781SOL     OW34855   5.612   3.701   3.056 -0.1241  0.5031  0.2780
 8781SOL    HW234856   5.558   3.622   3.063 -1.9221  1.7162  0.7323
 8781SOL    HW334857   5.688   3.673   3.004 -1.0889 -1.3222 -0.2458
 8781SOL    MW434858   5.615   3.687   3.050  0.6352 -0.0011 -0.7304
 8782SOL     OW34859   1.191   3.315   1.796  0.2606 -0.0212  0.0187
 8782SOL    HW234860   1.124   3.268   1.746  0.4178 -0.5934  0.3363
 8782SOL    HW334861   1.165   3.303   1.887 -0.7900  2.1542  0.0630
 8782SOL    MW434862   1.179   3.307   1.802  0.7423  0.0464  0.0407
 8783SOL     OW34863   5.045   1.370   1.616 -0.7252  0.4135  0.6179
 8783SOL    HW234864   5.133   1.390   1.646  0.2255 -1.5794 -0.6203
 8783SOL    HW334865   5.044   1.275   1.604 -2.8541  0.4450  0.0080
 8783SOL    MW434866   5.056   1.360   1.618 -0.0100 -0.3824  0.0806
 8784SOL     OW34867   3.852   1.702   1.250  0.1137 -0.2004 -0.6679
 8784SOL    HW234868   3.937   1.681   1.212  0.2839 -0.5886 -0.0953
 8784SOL    HW334869   3.864   1.689   1.344  0.4004  3.0889 -0.1493
 8784SOL    MW434870   3.865   1.698   1.257 -0.4855  0.4986 -0.1568
 8785SOL     OW34871   0.144   0.441   1.069  0.1401  0.1592  0.2699
 8785SOL    HW234872   0.129   0.357   1.026  1.6667  0.0433 -0.0947
 8785SOL    HW334873   0.233   0.435   1.103  0.1193  1.4758  0.6049
 8785SOL    MW434874   0.154   0.429   1.067 -0.0889  0.1302 -0.2488
 8786SOL     OW34875   5.002   1.683   1.429 -0.0326 -0.0083 -0.6835
 8786SOL    HW234876   5.080   1.650   1.475 -0.2475 -1.7003 -1.4620
 8786SOL    HW334877   5.007   1.644   1.342 -2.4022 -1.2512 -0.3451
 8786SOL    MW434878   5.013   1.674   1.424 -0.3871 -0.3270 -0.0905
 8787SOL     OW34879   2.114   6.287   4.431  0.4198 -0.0078  0.2320
 8787SOL    HW234880   2.116   6.218   4.365 -1.0395 -1.7315  1.8599
 8787SOL    HW334881   2.160   6.250   4.506  0.8245  1.3593  0.6983
 8787SOL    MW434882   2.121   6.273   4.432  0.5904 -0.6321 -0.7360
 8788SOL     OW34883   3.193   0.669   1.394  0.4373  0.0561 -0.1633
 8788SOL    HW234884   3.273   0.699   1.352  0.7778  2.2727  1.8183
 8788SOL    HW334885   3.217   0.657   1.486 -1.4220  0.7200  0.4677
 8788SOL    MW434886   3.206   0.672   1.401 -0.1842 -0.8729 -0.4809
 8789SOL     OW34887   4.367   3.947   5.467 -0.5805 -0.1231  0.4315
 8789SOL    HW234888   4.298   4.013   5.461 -0.6813 -0.2961 -0.4431
 8789SOL    HW334889   4.448   3.995   5.451 -0.6192 -0.1357  0.1874
 8789SOL    MW434890   4.368   3.962   5.464 -0.1862 -0.1221 -0.1224
 8790SOL     OW34891   3.350   5.101   2.387  0.1577  0.2380  0.1753
 8790SOL    HW234892   3.296   5.076   2.312  0.3260  1.7907 -0.5032
 8790SOL    HW334893   3.311   5.056   2.461  1.0039 -2.7512 -1.0646
 8790SOL    MW434894   3.338   5.092   2.387  0.6682 -0.2279  0.3265
 8791SOL     OW34895   3.971   3.890   2.736 -0.2417 -0.2057  0.2370
 8791SOL    HW234896   4.009   3.835   2.804  1.9577 -0.8045 -1.3792
 8791SOL    HW334897   4.002   3.852   2.654 -0.9068  1.8497 -1.0346
 8791SOL    MW434898   3.980   3.878   2.734 -0.9098 -0.4816  0.2502
 8792SOL     OW34899   1.748   2.413   4.243  0.4371  0.4706  0.4347
 8792SOL    HW234900   1.798   2.429   4.323 -0.4419  1.0821  0.8810
 8792SOL    HW334901   1.669   2.369   4.273  0.7822 -0.6804 -0.2905
 8792SOL    MW434902   1.744   2.409   4.258  0.2042 -0.2895  0.7028
 8793SOL     OW34903   3.940   1.320   0.727 -0.2859 -0.2237  0.3221
 8793SOL    HW234904   3.894   1.400   0.700 -1.0304 -0.6267  0.3758
 8793SOL    HW334905   3.930   1.317   0.822  1.5481  0.7091  0.5957
 8793SOL    MW434906   3.933   1.330   0.736  0.3586  0.6478  0.0055
 8794SOL     OW34907   5.625   2.175   6.324 -0.4785 -0.4892  0.6034
 8794SOL    HW234908   5.710   2.138   6.348  1.9676  3.8893 -0.2616
 8794SOL    HW334909   5.592   2.215   6.404 -0.4599  0.0023  0.3693
 8794SOL    MW434910   5.632   2.176   6.337 -0.5900 -0.0248  0.1494
 8795SOL     OW34911   2.968   4.840   4.087  0.3551  0.4683  0.7927
 8795SOL    HW234912   2.928   4.759   4.118  2.0239  0.3494  2.9027
 8795SOL    HW334913   2.909   4.909   4.119  0.2563  0.1758  1.2616
 8795SOL    MW434914   2.955   4.839   4.095 -0.3106  0.1942 -1.0462
 8796SOL     OW34915   5.286   0.063   4.224 -0.2615  0.0793  0.0184
 8796SOL    HW234916   5.232  -0.014   4.204 -2.1476  1.5096 -0.7463
 8796SOL    HW334917   5.369   0.047   4.179 -1.6541 -0.2513 -2.6272
 8796SOL    MW434918   5.290   0.051   4.216  0.1970  0.4943 -0.1723
 8797SOL     OW34919   0.577   0.260   0.971  0.1931 -0.2800 -0.8733
 8797SOL    HW234920   0.667   0.267   1.001  0.4961  0.3206 -1.8600
 8797SOL    HW334921   0.536   0.198   1.031  0.7831  0.7788  0.6804
 8797SOL    MW434922   0.583   0.253   0.982 -0.2009  0.0196 -0.1538
 8798SOL     OW34923   0.285   1.547   2.218  0.4331 -0.0975  0.5819
 8798SOL    HW234924   0.301   1.475   2.279  0.8900  1.1270  1.9543
 8798SOL    HW334925   0.324   1.518   2.136  0.2375 -1.5826  0.9911
 8798SOL    MW434926   0.292   1.534   2.215 -0.0367 -0.0335  0.2633
 8799SOL     OW34927   5.799   5.273   5.856  0.3603  0.3942 -0.0318
 8799SOL    HW234928   5.764   5.251   5.942 -0.7720  1.1206 -0.2859
 8799SOL    HW334929   5.826   5.364   5.863  2.8728 -0.3024  0.3406
 8799SOL    MW434930   5.798   5.282   5.868 -0.4310 -0.1557  0.1944
 8800SOL     OW34931   1.754   2.046   0.797  0.4108 -0.2493 -0.1598
 8800SOL    HW234932   1.825   2.097   0.757 -1.0233  0.8766 -1.4307
 8800SOL    HW334933   1.746   1.969   0.741  0.1492  0.0105 -0.4898
 8800SOL    MW434934   1.762   2.043   0.784 -0.4623  0.3134 -0.3926
 8801SOL     OW34935   0.241   5.207   0.881  0.1698 -0.0228 -0.2674
 8801SOL    HW234936   0.321   5.259   0.872 -0.1776  0.5198 -0.2824
 8801SOL    HW334937   0.193   5.249   0.953 -1.2728  1.2114 -1.8743
 8801SOL    MW434938   0.245   5.219   0.889  0.0430  0.0618  0.0035
 8802SOL     OW34939   4.124   0.402   2.989 -0.2561 -0.2106 -0.1239
 8802SOL    HW234940   4.109   0.494   3.011  0.1238  0.1542 -1.2695
 8802SOL    HW334941   4.044   0.357   3.015 -1.4283  0.8503 -1.6414
 8802SOL    MW434942   4.112   0.408   2.995 -0.1025  0.0584 -0.4019
 8803SOL     OW34943   3.985   4.621   5.317 -0.2470 -0.2872  0.0127
 8803SOL    HW234944   3.972   4.656   5.229 -0.8771 -1.3526 -0.3414
 8803SOL    HW334945   3.932   4.677   5.373 -0.8387 -0.3472 -0.4694
 8803SOL    MW434946   3.976   4.633   5.313  0.3643 -0.1873 -0.3596
 8804SOL     OW34947   1.539   6.045   5.797 -0.1005 -0.2750 -0.3682
 8804SOL    HW234948   1.497   5.960   5.809 -2.4707  0.8620 -0.0462
 8804SOL    HW334949   1.591   6.035   5.718  1.0357 -2.4812  0.5736
 8804SOL    MW434950   1.540   6.033   5.788 -0.3399  0.6551 -0.1144
 8805SOL     OW34951   0.553   0.903   6.208  0.1041  0.2475  0.8728
 8805SOL    HW234952   0.616   0.851   6.158  2.3245  1.5964  2.0967
 8805SOL    HW334953   0.579   0.994   6.193 -0.3558  0.7785  2.8706
 8805SOL    MW434954   0.564   0.909   6.200  0.1822 -0.0477 -0.4914
 8806SOL     OW34955   2.945   0.821   5.070 -1.0175 -0.2476 -0.1262
 8806SOL    HW234956   2.994   0.775   5.001 -0.5936  0.3367 -0.2248
 8806SOL    HW334957   3.004   0.890   5.099 -1.4173 -0.1352  0.4362
 8806SOL    MW434958   2.959   0.824   5.064  0.6533  0.2552 -0.2842
 8807SOL     OW34959   3.296   3.375   2.565  0.0190 -0.0882 -0.1210
 8807SOL    HW234960   3.304   3.465   2.534  0.1271 -0.1832 -0.3699
 8807SOL    HW334961   3.384   3.350   2.591 -0.2986  0.4644  1.5968
 8807SOL    MW434962   3.308   3.383   2.564 -0.2926 -0.8515 -0.1223
 8808SOL     OW34963   1.871   1.144   3.499  0.8839  0.2909  0.3575
 8808SOL    HW234964   1.917   1.209   3.553 -0.4808  0.4320  1.4086
 8808SOL    HW334965   1.900   1.162   3.410  1.0782  1.8894  0.7163
 8808SOL    MW434966   1.881   1.155   3.494  0.1252 -0.2136 -0.4695
 8809SOL     OW34967   0.464   4.400   5.049 -0.0944 -0.0750 -0.3017
 8809SOL    HW234968   0.474   4.347   5.128 -0.4676  0.4731  0.1200
 8809SOL    HW334969   0.387   4.454   5.066 -0.1570  0.0717 -1.0306
 8809SOL    MW434970   0.455   4.400   5.062  0.3028  0.1341 -0.7501
 8810SOL     OW34971   3.616   3.163   2.173  0.2161 -0.0982 -0.1411
 8810SOL    HW234972   3.689   3.197   2.225 -1.2139  0.0204  1.8945
 8810SOL    HW334973   3.574   3.098   2.230 -0.5834 -1.0334 -1.7269
 8810SOL    MW434974   3.620   3.159   2.187  0.2361 -0.1025 -0.0858
 8811SOL     OW34975   2.051   3.081   6.419 -0.5758 -0.1895 -0.6452
 8811SOL    HW234976   2.074   3.004   6.367 -1.6889 -1.0046  0.0124
 8811SOL    HW334977   2.081   3.155   6.367 -0.1200 -1.0405 -1.6357
 8811SOL    MW434978   2.058   3.080   6.405 -0.2687 -0.3842 -0.1622
 8812SOL     OW34979   4.026   1.647   4.651 -0.2557  0.1196  0.3941
 8812SOL    HW234980   4.105   1.593   4.642  1.0375  1.9529  0.1487
 8812SOL    HW334981   3.954   1.588   4.628  1.2254 -1.0178 -1.6726
 8812SOL    MW434982   4.027   1.632   4.646 -0.6410  0.4078 -0.0268
 8813SOL     OW34983   1.495   0.350   5.510  0.3979 -0.0589 -0.0817
 8813SOL    HW234984   1.555   0.280   5.482 -1.2525 -1.1437 -1.0813
 8813SOL    HW334985   1.465   0.323   5.597 -2.1622 -2.0663 -1.4269
 8813SOL    MW434986   1.499   0.337   5.518  0.2500  0.3953 -0.1079
 8814SOL     OW34987   0.223   3.778   2.585 -0.2640 -0.4240  0.1506
 8814SOL    HW234988   0.204   3.713   2.517  0.3453 -0.3464 -0.1056
 8814SOL    HW334989   0.231   3.860   2.538 -0.1441 -0.3160  0.3566
 8814SOL    MW434990   0.222   3.780   2.570 -1.0304  0.2390 -0.3700
 8815SOL     OW34991   3.880   5.116   3.496 -0.2035  0.3091  0.6788
 8815SOL    HW234992   3.916   5.068   3.422 -2.6832 -1.6205  0.6056
 8815SOL    HW334993   3.795   5.077   3.511 -1.3023  3.0402  2.3135
 8815SOL    MW434994   3.874   5.105   3.488  0.1330  0.0452 -0.1142
 8816SOL     OW34995   2.025   4.765   5.796 -0.5869 -0.4373 -0.3153
 8816SOL    HW234996   1.976   4.839   5.833  0.3227  1.9153 -3.3412
 8816SOL    HW334997   1.963   4.724   5.735 -0.9355 -1.9554  1.0130
 8816SOL    MW434998   2.010   4.770   5.793 -0.9210  0.1687  0.5819
 8817SOL     OW34999   3.572   5.459   1.615 -0.0945 -0.4382 -0.2927
 8817SOL    HW235000   3.501   5.443   1.676 -0.6955 -1.3964 -1.2081
 8817SOL    HW335001   3.535   5.519   1.550 -0.0439 -0.8356 -0.6985
 8817SOL    MW435002   3.558   5.465   1.614 -0.6126 -0.0281 -0.4714
 8818SOL     OW35003   3.032   0.140   4.417  0.0756 -0.3306  0.5749
 8818SOL    HW235004   2.974   0.147   4.341  0.1902  0.8809  0.5698
 8818SOL    HW335005   3.048   0.231   4.442  2.1652 -0.6210  0.4341
 8818SOL    MW435006   3.026   0.153   4.410 -0.0539 -0.2403 -0.2257
 8819SOL     OW35007   3.710   2.339   0.895  0.3982 -0.3285  0.0731
 8819SOL    HW235008   3.671   2.375   0.974 -1.8685  0.7020 -1.3897
 8819SOL    HW335009   3.791   2.299   0.924 -0.0848  0.4629  2.8081
 8819SOL    MW435010   3.715   2.339   0.909 -0.1130 -0.4588  0.3470
 8820SOL     OW35011   5.141   1.287   5.233  0.1251  0.1845 -0.1061
 8820SOL    HW235012   5.059   1.311   5.190  1.0229  1.1269 -1.3658
 8820SOL    HW335013   5.129   1.314   5.324 -1.0184  0.1439 -0.2249
 8820SOL    MW435014   5.129   1.293   5.239 -0.0894 -1.1137  0.0818
 8821SOL     OW35015   1.927   3.147   2.297 -0.2450  0.0100  0.4035
 8821SOL    HW235016   1.992   3.198   2.344 -2.5143  2.5240  1.0644
 8821SOL    HW335017   1.888   3.208   2.235 -1.5477 -1.5605 -0.4190
 8821SOL    MW435018   1.930   3.162   2.295 -0.0782  0.0209 -0.4125
 8822SOL     OW35019   0.497   5.926   2.898 -0.1096  0.1133 -0.0135
 8822SOL    HW235020   0.511   6.010   2.941 -2.0764  0.4748  0.0067
 8822SOL    HW335021   0.585   5.893   2.880  0.8306  3.4039 -2.4530
 8822SOL    MW435022   0.510   5.933   2.901  0.2434 -0.4651 -0.1465
 8823SOL     OW35023   5.748   6.364   0.310 -0.1887  0.3214 -0.2972
 8823SOL    HW235024   5.777   6.294   0.368  0.4710  0.1131 -0.8664
 8823SOL    HW335025   5.671   6.328   0.265  1.7172 -1.1537 -2.6375
 8823SOL    MW435026   5.741   6.350   0.311 -0.0970 -0.3128  0.3116
 8824SOL     OW35027   3.166   6.354   3.827  0.2837  0.2032 -0.5609
 8824SOL    HW235028   3.125   6.412   3.763  2.2266  1.0925 -1.0814
 8824SOL    HW335029   3.160   6.401   3.910  1.2249  0.8583 -0.8503
 8824SOL    MW435030   3.160   6.368   3.830 -0.6964 -0.3017 -0.0638
 8825SOL     OW35031   4.062   1.015   0.019 -0.4648 -0.3728 -0.3878
 8825SOL    HW235032   4.085   1.025   0.112  1.8531  2.0154 -1.0758
 8825SOL    HW335033   3.987   1.073   0.007 -1.8622 -1.9620  0.2479
 8825SOL    MW435034   4.055   1.024   0.030 -0.4201  0.2814  0.0365
 8826SOL     OW35035   1.855   6.358   5.442 -0.6121  0.0635  0.4106
 8826SOL    HW235036   1.879   6.436   5.491  1.6518 -1.1523  1.3965
 8826SOL    HW335037   1.877   6.378   5.351 -0.8787  0.8606  0.5163
 8826SOL    MW435038   1.861   6.371   5.436  0.3951  0.0153 -0.6313
 8827SOL     OW35039   2.023   5.080   3.504 -0.1240 -0.3094 -0.5301
 8827SOL    HW235040   2.113   5.054   3.483 -0.7806 -2.2545 -1.2194
 8827SOL    HW335041   2.012   5.056   3.595 -0.0466 -0.3879 -0.5406
 8827SOL    MW435042   2.034   5.073   3.513 -0.6216 -0.2068 -0.0864
 8828SOL     OW35043   5.114   4.091   3.181 -0.4541  0.9133  0.0525
 8828SOL    HW235044   5.083   4.178   3.205  1.1597  1.7489 -0.6743
 8828SOL    HW335045   5.106   4.040   3.261 -1.5389  1.6877  0.4640
 8828SOL    MW435046   5.109   4.096   3.194 -0.2779 -0.1480 -0.2340
 8829SOL     OW35047   1.852   5.847   4.653 -0.3081  0.1777  0.8011
 8829SOL    HW235048   1.819   5.928   4.691 -2.7667 -0.2887 -0.1180
 8829SOL    HW335049   1.780   5.784   4.664 -0.2797 -0.6161 -2.3563
 8829SOL    MW435050   1.838   5.849   4.659  0.2618  0.4956  0.4162
 8830SOL     OW35051   0.587   0.962   3.766 -0.5150 -0.1938  0.7508
 8830SOL    HW235052   0.577   0.932   3.675  1.2642  0.3607  0.3484
 8830SOL    HW335053   0.680   0.951   3.785 -0.7187  0.4597  2.2544
 8830SOL    MW435054   0.598   0.956   3.757 -0.4191 -0.0477 -0.5176
 8831SOL     OW35055   3.067   5.305   6.050  0.6706  0.1444 -0.5668
 8831SOL    HW235056   3.114   5.276   6.128  0.2030 -0.0223 -0.3421
 8831SOL    HW335057   3.008   5.373   6.081  1.3239  0.9137 -0.9902
 8831SOL    MW435058   3.065   5.310   6.064  0.2318  0.2280  0.1348
 8832SOL     OW35059   0.666   5.711   1.927  0.6110  0.3710 -0.1058
 8832SOL    HW235060   0.636   5.640   1.983  1.6965 -1.4556 -1.7153
 8832SOL    HW335061   0.741   5.749   1.973 -1.0735  1.7748  1.6332
 8832SOL    MW435062   0.672   5.707   1.940  0.1856 -0.1699  0.2334
 8833SOL     OW35063   1.144   2.531   4.209  0.0807 -0.9044  0.2403
 8833SOL    HW235064   1.080   2.601   4.199 -0.3241 -1.0912  1.3143
 8833SOL    HW335065   1.222   2.563   4.165 -0.3510 -0.1259  0.0215
 8833SOL    MW435066   1.146   2.545   4.202 -0.2647  0.0345 -0.0445
 8834SOL     OW35067   4.021   3.739   2.486  0.1054  0.0739  0.3229
 8834SOL    HW235068   4.106   3.713   2.451  0.6228  1.2048  0.7041
 8834SOL    HW335069   3.968   3.659   2.482 -0.5970  0.3922 -4.9948
 8834SOL    MW435070   4.025   3.725   2.481  0.0910  0.1064  0.4240
 8835SOL     OW35071   1.955   2.060   4.496  0.9011  0.4251  0.2446
 8835SOL    HW235072   1.967   2.043   4.402  0.8537  0.6844  0.1909
 8835SOL    HW335073   1.873   2.108   4.501  0.0320 -1.0242  0.5705
 8835SOL    MW435074   1.946   2.064   4.484 -0.1071 -0.0866  0.1081
 8836SOL     OW35075   2.707   5.968   4.248  0.0971 -0.0478 -0.1890
 8836SOL    HW235076   2.794   6.004   4.266 -0.2066  0.6586 -0.0999
 8836SOL    HW335077   2.686   5.999   4.160  0.0044 -0.3594 -0.2781
 8836SOL    MW435078   2.715   5.977   4.239  0.0763  0.0097 -0.4448
 8837SOL     OW35079   6.396   1.420   0.750  0.0005 -0.0273  0.0762
 8837SOL    HW235080   6.477   1.424   0.700 -0.1398  2.0932 -0.0821
 8837SOL    HW335081   6.340   1.360   0.701  0.9679 -0.4047 -0.5948
 8837SOL    MW435082   6.399   1.413   0.737  0.2938 -1.2658 -0.1379
 8838SOL     OW35083   5.531   1.848   5.346  0.3077  0.4306  0.8530
 8838SOL    HW235084   5.518   1.848   5.251  1.9344  1.7096  0.5857
 8838SOL    HW335085   5.458   1.899   5.380  0.4931  1.2066  0.1269
 8838SOL    MW435086   5.520   1.854   5.338  0.3283  0.3143 -0.4509
 8839SOL     OW35087   1.778   4.846   1.795 -0.4613 -0.0325  0.5809
 8839SOL    HW235088   1.726   4.917   1.831  1.4475  0.8191  1.8128
 8839SOL    HW335089   1.731   4.766   1.820 -0.5366  0.6461  2.7808
 8839SOL    MW435090   1.765   4.845   1.803  0.1293  1.1560  0.0628
 8840SOL     OW35091   4.272   2.709   2.888  0.2002 -0.1206  0.2855
 8840SOL    HW235092   4.280   2.635   2.827 -2.0131 -0.1696 -0.0180
 8840SOL    HW335093   4.338   2.691   2.956  0.8889 -1.4560 -0.6916
 8840SOL    MW435094   4.282   2.697   2.889  0.5648  0.3464  0.1734
 8841SOL     OW35095   1.185   6.268   2.401  0.1286 -0.5607 -0.0207
 8841SOL    HW235096   1.158   6.298   2.487 -0.8821 -1.2831 -0.0712
 8841SOL    HW335097   1.246   6.335   2.370  0.2476 -0.1325  1.1095
 8841SOL    MW435098   1.190   6.281   2.408 -0.2411  0.1918 -0.1533
 8842SOL     OW35099   5.744   3.192   1.007 -0.1964  0.6905 -0.1005
 8842SOL    HW235100   5.707   3.224   0.925 -0.1102 -1.4788 -1.0588
 8842SOL    HW335101   5.678   3.212   1.073 -0.7606  1.4789 -0.8799
 8842SOL    MW435102   5.731   3.199   1.005 -0.0314 -0.0982 -0.2101
 8843SOL     OW35103   6.139   0.674   1.700 -0.2959 -0.1966  0.1785
 8843SOL    HW235104   6.220   0.627   1.724  1.5371  1.5510 -2.0446
 8843SOL    HW335105   6.105   0.625   1.625  0.1586  0.4278 -0.4632
 8843SOL    MW435106   6.145   0.661   1.693 -0.1596  0.0695  0.1869
 8844SOL     OW35107   0.835   3.094   0.765 -0.0802 -0.2653 -0.1426
 8844SOL    HW235108   0.908   3.055   0.814  0.0212  1.0199  0.7706
 8844SOL    HW335109   0.835   3.186   0.790 -2.7542 -0.4403  0.8116
 8844SOL    MW435110   0.845   3.101   0.775  0.0190  0.1513  0.1964
 8845SOL     OW35111   3.318   4.701   3.377 -0.6160 -0.5248 -0.5805
 8845SOL    HW235112   3.368   4.772   3.336  0.1105 -0.3508  0.5629
 8845SOL    HW335113   3.287   4.649   3.303 -0.9876  0.8536 -1.4390
 8845SOL    MW435114   3.321   4.703   3.362 -0.2871  0.4166  0.1015
 8846SOL     OW35115   3.291   0.940   6.388  0.5277 -0.2284  0.3674
 8846SOL    HW235116   3.355   0.892   6.336  0.1833  0.2801 -0.5423
 8846SOL    HW335117   3.219   0.958   6.328  0.3989  0.9273  0.8346
 8846SOL    MW435118   3.290   0.936   6.373 -0.4306 -0.3842 -0.3970
 8847SOL     OW35119   5.607   2.613   3.719  0.0555  0.1583 -0.1903
 8847SOL    HW235120   5.603   2.549   3.648  0.9153  1.3891 -1.3994
 8847SOL    HW335121   5.597   2.698   3.675  2.8980  1.1109  0.8234
 8847SOL    MW435122   5.605   2.616   3.704 -0.2573 -0.3715  0.8813
 8848SOL     OW35123   6.072   5.794   2.635 -0.1475  0.5179  0.5545
 8848SOL    HW235124   6.052   5.721   2.575 -0.9182  1.2717 -0.1260
 8848SOL    HW335125   5.996   5.851   2.629  0.1931  1.0841  1.5488
 8848SOL    MW435126   6.060   5.792   2.626 -0.4627  0.1221  0.3291
 8849SOL     OW35127   3.468   3.869   0.158 -0.0512  0.0347 -0.2883
 8849SOL    HW235128   3.524   3.934   0.201 -0.0480 -0.2019  0.0778
 8849SOL    HW335129   3.379   3.900   0.174 -0.0415  0.0668 -0.2992
 8849SOL    MW435130   3.464   3.881   0.166 -0.0030  0.7093  0.1179
 8850SOL     OW35131   1.516   5.569   2.473  0.6037 -0.1290  0.4374
 8850SOL    HW235132   1.555   5.653   2.450  0.9439 -0.2740  0.4790
 8850SOL    HW335133   1.590   5.515   2.501  0.1657  0.1761  2.2952
 8850SOL    MW435134   1.531   5.573   2.473 -0.0115  0.2689 -0.3450
 8851SOL     OW35135   3.583   3.962   0.695  0.2267 -0.2432  0.3872
 8851SOL    HW235136   3.638   3.939   0.770  0.1653 -0.2425  0.4320
 8851SOL    HW335137   3.625   4.040   0.658 -0.5502  0.6190  1.2748
 8851SOL    MW435138   3.596   3.969   0.700 -0.0530 -0.1812 -0.2103
 8852SOL     OW35139   5.507   0.172   2.173  0.4798 -0.0493  0.0939
 8852SOL    HW235140   5.451   0.218   2.111 -1.2130 -0.7063  1.0706
 8852SOL    HW335141   5.471   0.083   2.178  0.9616 -0.2003  1.5272
 8852SOL    MW435142   5.495   0.166   2.166  0.4842 -0.0421 -0.0945
 8853SOL     OW35143   0.828   0.360   1.059  0.4891  0.4709 -0.2773
 8853SOL    HW235144   0.898   0.416   1.094  0.4980 -0.2948  0.9603
 8853SOL    HW335145   0.787   0.321   1.136  1.1089 -2.0106 -1.1104
 8853SOL    MW435146   0.832   0.363   1.074 -0.0189 -0.1262 -0.7509
 8854SOL     OW35147   2.356   5.268   1.156  0.1938 -0.5113 -0.0786
 8854SOL    HW235148   2.425   5.333   1.139 -0.7125  0.3270 -0.6341
 8854SOL    HW335149   2.349   5.220   1.073  0.5293 -1.0107  0.1784
 8854SOL    MW435150   2.364   5.270   1.143 -0.1768  0.1618 -0.3839
 8855SOL     OW35151   1.942   4.312   4.269  0.6927 -0.7197 -0.7241
 8855SOL    HW235152   1.918   4.267   4.188 -1.4808 -0.9476  0.0023
 8855SOL    HW335153   1.891   4.393   4.267  1.2862 -0.3182  0.0202
 8855SOL    MW435154   1.932   4.317   4.258  0.0349  0.3088  0.0169
 8856SOL     OW35155   2.437   5.838   2.148  0.3386 -0.3755  0.7213
 8856SOL    HW235156   2.482   5.757   2.127  1.6186  0.4601  0.1631
 8856SOL    HW335157   2.345   5.820   2.128  0.8711 -1.0473 -1.3576
 8856SOL    MW435158   2.431   5.825   2.143  0.4972 -0.0224  0.3589
 8857SOL     OW35159   4.933   5.214   3.689  0.1596  0.6001  0.0975
 8857SOL    HW235160   4.892   5.290   3.648 -0.1354  0.0147 -0.7280
 8857SOL    HW335161   4.884   5.139   3.655  1.7052 -0.1078 -0.6670
 8857SOL    MW435162   4.921   5.214   3.679 -0.4708  0.3470 -0.2064
 8858SOL     OW35163   4.432   5.189   0.377 -0.0454  0.7479 -0.0117
 8858SOL    HW235164   4.478   5.131   0.316 -1.2007 -1.6806  1.2622
 8858SOL    HW335165   4.373   5.240   0.323  0.5377  0.2638 -1.1347
 8858SOL    MW435166   4.431   5.188   0.362  0.2361 -0.1257  0.3114
 8859SOL     OW35167   0.242   3.954   4.096  0.3420  0.0732  0.3152
 8859SOL    HW235168   0.222   3.998   4.013  0.9527  1.1742  0.7479
 8859SOL    HW335169   0.156   3.936   4.134  0.0451 -0.5791 -0.6072
 8859SOL    MW435170   0.228   3.957   4.090 -0.0657 -0.2720  0.4691
 8860SOL     OW35171   2.851   5.273   2.687  0.2066 -0.8572  0.0136
 8860SOL    HW235172   2.756   5.282   2.687  0.2835  0.0775 -0.4620
 8860SOL    HW335173   2.876   5.285   2.779 -0.0850 -0.4871  0.0478
 8860SOL    MW435174   2.842   5.276   2.699  0.4159  0.8929  0.7218
 8861SOL     OW35175   0.801   4.160   0.055 -0.5696  0.1684  0.0601
 8861SOL    HW235176   0.865   4.197   0.117 -0.1704  0.9818 -0.8109
 8861SOL    HW335177   0.789   4.070   0.085  0.3545  0.2492  0.7403
 8861SOL    MW435178   0.808   4.153   0.067  0.4089 -0.3231 -0.2453
 8862SOL     OW35179   3.031   4.616   5.192  0.2377  0.3089 -0.1178
 8862SOL    HW235180   3.111   4.654   5.154  0.0037  1.1996  0.2522
 8862SOL    HW335181   3.002   4.681   5.256  0.7988 -1.2684  1.8419
 8862SOL    MW435182   3.038   4.630   5.196 -0.4717  0.1703 -0.3354
 8863SOL     OW35183   2.120   2.308   5.605 -0.6937  0.2352 -0.3929
 8863SOL    HW235184   2.168   2.261   5.536  0.7613  1.1345 -0.0485
 8863SOL    HW335185   2.037   2.261   5.613  0.4416 -1.8939 -0.4672
 8863SOL    MW435186   2.115   2.296   5.597  0.0511  0.0228  0.0322
 8864SOL     OW35187   2.527   3.306   0.814  0.0725  0.1672 -0.4409
 8864SOL    HW235188   2.527   3.228   0.869  0.9605  0.3677 -0.1448
 8864SOL    HW335189   2.579   3.370   0.862  0.0714  0.6577 -1.0762
 8864SOL    MW435190   2.534   3.304   0.828 -0.4134  0.1411 -0.1263
 8865SOL     OW35191   3.827   5.799   4.068 -0.5530 -0.1286  0.2658
 8865SOL    HW235192   3.827   5.827   3.976 -2.0257 -1.9678 -0.3483
 8865SOL    HW335193   3.881   5.720   4.069  1.5188  1.2078  1.5138
 8865SOL    MW435194   3.834   5.793   4.056  0.0633 -0.6433 -0.0408
 8866SOL     OW35195   5.713   5.070   2.077  0.1512  0.2306 -0.0646
 8866SOL    HW235196   5.762   5.041   2.153 -0.9348 -1.1773  0.1429
 8866SOL    HW335197   5.659   5.142   2.109  2.2101  2.0298 -0.3718
 8866SOL    MW435198   5.712   5.076   2.091  0.2513 -0.0797  0.1463
 8867SOL     OW35199   1.418   2.354   3.351 -0.0490  0.0934  0.0346
 8867SOL    HW235200   1.488   2.419   3.341  0.8879 -0.8906 -0.1230
 8867SOL    HW335201   1.465   2.273   3.373 -1.3198 -0.0870  2.3571
 8867SOL    MW435202   1.434   2.352   3.352 -0.0527 -0.3020  0.2255
 8868SOL     OW35203   0.320   4.552   5.586  0.1673 -0.4957  0.0622
 8868SOL    HW235204   0.234   4.517   5.564 -0.0230 -0.7166  1.1108
 8868SOL    HW335205   0.367   4.479   5.623  0.9838 -0.4864 -0.9137
 8868SOL    MW435206   0.315   4.538   5.588 -0.0745 -0.0571 -0.5239
 8869SOL     OW35207   0.074   5.970   4.799 -0.1617  0.6200  0.0108
 8869SOL    HW235208   0.003   5.982   4.735  0.4044  0.1251 -0.7249
 8869SOL    HW335209   0.081   6.054   4.843 -0.8271  0.8528 -0.3070
 8869SOL    MW435210   0.065   5.982   4.796 -0.3298 -0.4805  0.3082
 8870SOL     OW35211   1.671   5.139   0.565  0.0796  0.7381  0.0711
 8870SOL    HW235212   1.661   5.151   0.470  0.7315  0.1157 -0.0797
 8870SOL    HW335213   1.640   5.222   0.602  0.2358  1.1597 -0.7105
 8870SOL    MW435214   1.666   5.152   0.557 -0.1293 -0.2221 -0.3943
 8871SOL     OW35215   6.381   0.498   1.267  0.7714 -0.4807 -0.4155
 8871SOL    HW235216   6.457   0.461   1.223 -0.3819 -2.4815 -0.8787
 8871SOL    HW335217   6.317   0.511   1.197  0.6789  1.2593 -0.0527
 8871SOL    MW435218   6.382   0.495   1.252 -0.5479 -0.1861  0.6277
 8872SOL     OW35219   2.432   0.974   0.128 -0.0956  0.3013  0.3190
 8872SOL    HW235220   2.469   0.980   0.216  1.1964  0.6101 -0.2366
 8872SOL    HW335221   2.396   1.061   0.111  0.8216  0.6312  0.0389
 8872SOL    MW435222   2.432   0.986   0.138  0.3072  0.3273 -0.0748
 8873SOL     OW35223   5.737   1.439   0.211  0.2951 -0.1351 -0.5597
 8873SOL    HW235224   5.712   1.375   0.143  0.0215 -0.6997  0.0590
 8873SOL    HW335225   5.666   1.433   0.275 -0.4749  1.8221 -1.1670
 8873SOL    MW435226   5.724   1.430   0.210 -0.3062  0.1175  0.1436
 8874SOL     OW35227   1.087   0.326   4.272  0.4441 -0.3212  0.3932
 8874SOL    HW235228   1.058   0.372   4.350  1.0226 -0.9282  0.9782
 8874SOL    HW335229   1.027   0.252   4.263  0.7359 -0.5833  0.5988
 8874SOL    MW435230   1.075   0.322   4.281  0.2316 -0.1346 -0.2247
 8875SOL     OW35231   5.036   4.806   4.779 -0.1618 -1.0373 -0.1225
 8875SOL    HW235232   5.005   4.747   4.711  0.8271 -0.8336 -0.7623
 8875SOL    HW335233   5.131   4.793   4.782 -0.0602 -0.2785  0.4777
 8875SOL    MW435234   5.045   4.797   4.771 -0.0237  0.3279  0.6741
 8876SOL     OW35235   5.556   3.626   0.645  0.1399 -0.5346  0.0939
 8876SOL    HW235236   5.635   3.665   0.608 -0.0180 -1.2006 -0.9909
 8876SOL    HW335237   5.551   3.540   0.604 -0.2221 -1.1889  1.4554
 8876SOL    MW435238   5.566   3.620   0.635 -0.1358  0.2755  0.3957
 8877SOL     OW35239   1.836   4.692   4.060  0.0641  0.1042  0.0999
 8877SOL    HW235240   1.803   4.744   3.987 -0.7992 -1.0356 -0.3481
 8877SOL    HW335241   1.803   4.736   4.138 -0.1363  0.5706 -0.2460
 8877SOL    MW435242   1.827   4.705   4.060 -0.3069  0.1083  0.0475
 8878SOL     OW35243   2.817   2.526   0.308 -0.2944  0.1128 -0.3864
 8878SOL    HW235244   2.811   2.611   0.263 -0.8209  0.3979  0.2188
 8878SOL    HW335245   2.898   2.533   0.359 -1.4510  1.1327  1.4205
 8878SOL    MW435246   2.827   2.538   0.308 -0.0991 -0.0423  0.0202
 8879SOL     OW35247   4.783   2.004   4.665 -0.4897 -0.4436 -0.1093
 8879SOL    HW235248   4.816   1.974   4.749 -0.5030  0.2084  0.1322
 8879SOL    HW335249   4.770   2.098   4.676  0.7851 -0.1008 -1.2551
 8879SOL    MW435250   4.786   2.012   4.678 -0.1613 -0.0522 -0.0768
 8880SOL     OW35251   2.288   1.559   5.069  0.0009 -0.3235  0.5248
 8880SOL    HW235252   2.374   1.550   5.026 -0.1843 -0.3418  0.1563
 8880SOL    HW335253   2.225   1.552   4.998 -0.3171 -0.5394  0.8268
 8880SOL    MW435254   2.291   1.557   5.054  0.0166 -0.0881 -0.5278
 8881SOL     OW35255   5.533   4.604   2.216 -0.1035  0.4704  0.2261
 8881SOL    HW235256   5.533   4.645   2.129 -0.6505 -1.4987 -0.7601
 8881SOL    HW335257   5.541   4.510   2.198 -0.9220 -0.0420  2.2889
 8881SOL    MW435258   5.534   4.597   2.202  0.8378  0.6572  0.1740
 8882SOL     OW35259   1.935   2.953   3.588 -0.4447 -0.0069 -0.1675
 8882SOL    HW235260   1.930   2.858   3.595 -0.9997 -0.0914 -1.4062
 8882SOL    HW335261   2.010   2.978   3.642 -0.4883 -1.1124  0.4154
 8882SOL    MW435262   1.944   2.944   3.596 -0.4448  0.5964  0.0483
 8883SOL     OW35263   1.317   3.858   3.114  0.4517  0.0644 -0.1497
 8883SOL    HW235264   1.332   3.950   3.093  1.0299  0.3872  1.5624
 8883SOL    HW335265   1.258   3.860   3.190 -0.4557 -1.0139 -0.7899
 8883SOL    MW435266   1.311   3.870   3.121 -0.0679 -0.6169 -0.0816
 8884SOL     OW35267   6.252   4.065   0.888  0.0806  0.1801 -0.3543
 8884SOL    HW235268   6.220   3.978   0.865  1.2670 -0.3959  0.0859
 8884SOL    HW335269   6.176   4.122   0.876 -0.8775 -0.9878 -0.1276
 8884SOL    MW435270   6.237   4.061   0.883 -0.2142 -0.2052  0.7666
 8885SOL     OW35271   4.513   6.071   1.531 -0.2846  0.3627 -0.3800
 8885SOL    HW235272   4.608   6.082   1.530 -0.4121  1.6196 -0.3725
 8885SOL    HW335273   4.500   5.978   1.513  0.9376  0.2143 -0.6311
 8885SOL    MW435274   4.524   6.060   1.528  0.0781  0.2403  0.1571
 8886SOL     OW35275   0.161   3.039   0.889  0.0241  0.0098  0.0880
 8886SOL    HW235276   0.180   2.997   0.806  0.8016  0.2892  0.1154
 8886SOL    HW335277   0.136   3.128   0.866 -0.1165 -0.0186  0.1295
 8886SOL    MW435278   0.161   3.045   0.875  0.0497  0.1516 -0.4144
 8887SOL     OW35279   3.059   5.655   0.843 -0.2218  0.6777 -0.1177
 8887SOL    HW235280   3.027   5.678   0.756  0.5438 -0.4717 -0.7328
 8887SOL    HW335281   3.002   5.583   0.871  0.2622  0.2566 -0.1857
 8887SOL    MW435282   3.047   5.649   0.835 -0.5571  0.4951  0.0219
 8888SOL     OW35283   4.615   2.980   1.584  0.3931  0.1691 -0.1673
 8888SOL    HW235284   4.559   3.031   1.642  0.4273 -0.0804  0.0841
 8888SOL    HW335285   4.661   3.046   1.532  0.2538  0.3892 -0.0147
 8888SOL    MW435286   4.614   2.996   1.585  0.0372 -0.0306  0.1972
 8889SOL     OW35287   0.079   2.675   1.495  0.9654  0.1709  0.3747
 8889SOL    HW235288   0.003   2.726   1.523  1.5520  0.7448  0.9766
 8889SOL    HW335289   0.135   2.671   1.573 -0.0843 -3.4105  1.1141
 8889SOL    MW435290   0.077   2.682   1.509 -0.5825  0.2449  0.3701
 8890SOL     OW35291   1.716   5.801   0.836  0.6786 -0.4940 -0.2678
 8890SOL    HW235292   1.754   5.794   0.749  0.4937 -0.8358 -0.3231
 8890SOL    HW335293   1.775   5.749   0.892  0.6222 -0.5390 -0.2492
 8890SOL    MW435294   1.729   5.793   0.832 -0.4108  0.5948  0.4226
 8891SOL     OW35295   4.728   3.769   6.055 -0.5965  0.2478 -0.8275
 8891SOL    HW235296   4.816   3.738   6.077 -0.3817  1.6753  0.4470
 8891SOL    HW335297   4.734   3.794   5.963  0.5820  1.1050 -0.5417
 8891SOL    MW435298   4.741   3.768   6.045  0.0498 -0.0536 -0.1563
 8892SOL     OW35299   0.473   4.747   5.484 -0.0590  0.2582 -0.2269
 8892SOL    HW235300   0.413   4.690   5.532 -0.0493 -0.8933 -1.5165
 8892SOL    HW335301   0.559   4.729   5.521 -0.0536 -0.6110 -0.6420
 8892SOL    MW435302   0.476   4.737   5.495  0.4117  0.0543  0.5267
 8893SOL     OW35303   5.476   1.898   2.884  0.5737  0.4007 -0.0310
 8893SOL    HW235304   5.402   1.958   2.893  0.7584  0.2930  2.8946
 8893SOL    HW335305   5.550   1.954   2.860  0.2782  1.0385  0.5188
 8893SOL    MW435306   5.476   1.913   2.882 -0.1085  0.1694 -0.1007
 8894SOL     OW35307   1.689   2.704   0.396 -0.1849  0.0520 -0.1118
 8894SOL    HW235308   1.625   2.765   0.359 -0.2198 -1.2215 -2.3084
 8894SOL    HW335309   1.646   2.618   0.392  1.8697 -0.9968 -2.4811
 8894SOL    MW435310   1.675   2.701   0.391 -0.2183 -0.1210 -0.0934
 8895SOL     OW35311   1.229   1.945   3.238 -0.1766  0.2410 -0.4791
 8895SOL    HW235312   1.186   1.955   3.323 -0.8155 -0.8790 -0.6499
 8895SOL    HW335313   1.166   1.897   3.184  0.3048  0.7425 -1.5245
 8895SOL    MW435314   1.215   1.940   3.242  0.5561  0.5355  0.0826
 8896SOL     OW35315   5.746   2.655   1.921  0.8289  0.1388  0.0279
 8896SOL    HW235316   5.695   2.706   1.859  0.4670  0.5678  0.6592
 8896SOL    HW335317   5.727   2.564   1.900  3.2362  0.1059 -2.6163
 8896SOL    MW435318   5.737   2.650   1.910  0.6368  0.3544  0.4058
 8897SOL     OW35319   6.200   1.973   6.076 -0.6795  0.9011 -0.3629
 8897SOL    HW235320   6.264   1.919   6.123 -2.0331 -0.0905  0.4408
 8897SOL    HW335321   6.187   2.049   6.133 -0.1315  1.1646 -0.5873
 8897SOL    MW435322   6.207   1.976   6.090  0.4943  0.2992 -0.1981
 8898SOL     OW35323   4.801   0.775   1.564 -0.5659  0.6733  0.4491
 8898SOL    HW235324   4.792   0.688   1.604 -2.1045  1.1999  1.3489
 8898SOL    HW335325   4.847   0.827   1.629 -0.2074  0.6976  0.1774
 8898SOL    MW435326   4.806   0.770   1.578 -0.0594 -0.3579  0.0839
 8899SOL     OW35327   2.942   2.301   4.092  0.4996  0.1736  0.4533
 8899SOL    HW235328   2.995   2.226   4.067  0.8600  0.1185  1.3468
 8899SOL    HW335329   2.894   2.324   4.013  0.3366 -1.0369  0.1818
 8899SOL    MW435330   2.942   2.294   4.079  0.5465 -0.2421 -0.5924
 8900SOL     OW35331   0.903   4.791   2.987 -0.3471  0.0449 -0.1359
 8900SOL    HW235332   0.957   4.853   3.036 -0.8921 -1.0832  1.9993
 8900SOL    HW335333   0.857   4.740   3.054 -1.4062 -1.3626 -1.8363
 8900SOL    MW435334   0.904   4.792   3.002 -0.1401 -0.0378  0.2298
 8901SOL     OW35335   4.402   0.316   1.445 -0.2520  0.7127  0.3702
 8901SOL    HW235336   4.365   0.309   1.358  1.8790  0.0515 -0.5408
 8901SOL    HW335337   4.483   0.365   1.433  0.8063 -0.6013  1.7153
 8901SOL    MW435338   4.408   0.322   1.432 -0.5211 -0.7507  0.3224
 8902SOL     OW35339   1.339   5.169   5.867 -0.0932  0.3031 -0.4817
 8902SOL    HW235340   1.315   5.084   5.904 -0.8598  0.2247 -1.1407
 8902SOL    HW335341   1.264   5.225   5.884  0.9048  1.2413  1.0895
 8902SOL    MW435342   1.326   5.165   5.874 -0.2600  0.1284  0.8467
 8903SOL     OW35343   1.184   5.846   0.032  0.3061  0.2096 -0.0692
 8903SOL    HW235344   1.195   5.940   0.015 -0.3178  0.1848 -0.6519
 8903SOL    HW335345   1.196   5.837   0.127 -2.5652  1.3411  0.5006
 8903SOL    MW435346   1.187   5.857   0.042 -0.4719 -0.2492 -0.3607
 8904NA      NA35347   6.205   0.845   2.619 -0.0099  0.0280  0.5748
 8905NA      NA35348   6.393   1.933   1.031  0.2033  0.2607 -0.2334
 8906NA      NA35349   5.218   2.528   3.174  0.1538  0.3392  0.0285
 8907NA      NA35350   5.206   1.538   0.488 -0.0235  0.3610 -0.0868
 8908NA      NA35351   3.388   2.316   2.969 -0.1792 -0.0712 -0.0338
 8909NA      NA35352   2.410   6.112   1.030 -0.4450 -0.0457  0.2866
 8910NA      NA35353   1.390   3.609   4.262 -0.0235  0.3043 -0.2798
 8911NA      NA35354   3.635   0.058   6.427  0.1455 -0.2698 -0.2126
   6.43155   6.43155   6.43155
