; L47_GMX.top created by acpype (v: 2022.1.3) on Wed Jun  8 14:36:52 2022


[ moleculetype ]
;name            nrexcl
 L47              3

[ atoms ]
;   nr  type  resi  res  atom  cgnr     charge      mass       ; qtot   bond_type
     1   c3     1   L47     C    1    -0.171100     12.01000 ; qtot -0.171
     2   hc     1   L47     H    2     0.082033      1.00800 ; qtot -0.089
     3   hc     1   L47    H1    3     0.082033      1.00800 ; qtot -0.007
     4   hc     1   L47    H2    4     0.082033      1.00800 ; qtot 0.075
     5    c     1   L47    C1    5     0.681100     12.01000 ; qtot 0.756
     6    o     1   L47     O    6    -0.559100     16.00000 ; qtot 0.197
     7    n     1   L47     N    7    -0.382000     14.01000 ; qtot -0.185
     8   c3     1   L47    C2    8     0.082000     12.01000 ; qtot -0.103
     9   h1     1   L47    H3    9     0.067200      1.00800 ; qtot -0.036
    10   h1     1   L47    H4   10     0.067200      1.00800 ; qtot 0.031
    11   c3     1   L47    C3   11    -0.040100     12.01000 ; qtot -0.009
    12   hc     1   L47    H5   12     0.078700      1.00800 ; qtot 0.070
    13   hc     1   L47    H6   13     0.078700      1.00800 ; qtot 0.149
    14   ca     1   L47    C4   14    -0.167300     12.01000 ; qtot -0.019
    15   ca     1   L47    C5   15     0.173600     12.01000 ; qtot 0.155
    16   ca     1   L47    C6   16    -0.185000     12.01000 ; qtot -0.030
    17   ha     1   L47    H7   17     0.191000      1.00800 ; qtot 0.161
    18   ca     1   L47    C7   18     0.023000     12.01000 ; qtot 0.184
    19   ha     1   L47    H8   19     0.143000      1.00800 ; qtot 0.327
    20   ca     1   L47    C8   20    -0.498500     12.01000 ; qtot -0.172
    21   ca     1   L47    C9   21     0.038000     12.01000 ; qtot -0.134
    22   ha     1   L47    H9   22     0.161000      1.00800 ; qtot 0.027
    23   sy     1   L47     S   23     1.523201     32.06000 ; qtot 1.551
    24    o     1   L47    O1   24    -0.667800     16.00000 ; qtot 0.883
    25    o     1   L47    O2   25    -0.667800     16.00000 ; qtot 0.215
    26   n3     1   L47    N1   26    -0.795500     14.01000 ; qtot -0.580
    27   c3     1   L47   C10   27     0.195800     12.01000 ; qtot -0.385
    28   h1     1   L47   H10   28     0.089200      1.00800 ; qtot -0.295
    29   h1     1   L47   H11   29     0.089200      1.00800 ; qtot -0.206
    30   c3     1   L47   C11   30    -0.140400     12.01000 ; qtot -0.347
    31   hc     1   L47   H12   31     0.094200      1.00800 ; qtot -0.252
    32   hc     1   L47   H13   32     0.094200      1.00800 ; qtot -0.158
    33   c3     1   L47   C12   33     0.113800     12.01000 ; qtot -0.044
    34   hx     1   L47   H14   34     0.099700      1.00800 ; qtot 0.055
    35   hx     1   L47   H15   35     0.099700      1.00800 ; qtot 0.155
    36   n4     1   L47    N2   36    -0.762000     14.01000 ; qtot -0.607
    37   hn     1   L47   H16   37     0.471300      1.00800 ; qtot -0.136
    38   hn     1   L47   H17   38     0.471300      1.00800 ; qtot 0.336
    39   c3     1   L47   C13   39     0.070800     12.01000 ; qtot 0.406
    40   hx     1   L47   H18   40     0.103200      1.00800 ; qtot 0.510
    41   hx     1   L47   H19   41     0.103200      1.00800 ; qtot 0.613
    42   c3     1   L47   C14   42     0.210800     12.01000 ; qtot 0.824
    43   h1     1   L47   H20   43     0.088200      1.00800 ; qtot 0.912
    44   h1     1   L47   H21   44     0.088200      1.00800 ; qtot 1.000

[ bonds ]
;   ai     aj funct   r             k
     1      2   1    1.0969e-01    2.7665e+05 ;      C - H     
     1      3   1    1.0969e-01    2.7665e+05 ;      C - H1    
     1      4   1    1.0969e-01    2.7665e+05 ;      C - H2    
     1      5   1    1.5241e-01    2.6192e+05 ;      C - C1    
     5      6   1    1.2183e-01    5.3363e+05 ;     C1 - O     
     5      7   1    1.3789e-01    3.5782e+05 ;     C1 - N     
     7      8   1    1.4619e-01    2.7506e+05 ;      N - C2    
     7     15   1    1.4121e-01    3.2150e+05 ;      N - C5    
     8      9   1    1.0969e-01    2.7665e+05 ;     C2 - H3    
     8     10   1    1.0969e-01    2.7665e+05 ;     C2 - H4    
     8     11   1    1.5375e-01    2.5179e+05 ;     C2 - C3    
    11     12   1    1.0969e-01    2.7665e+05 ;     C3 - H5    
    11     13   1    1.0969e-01    2.7665e+05 ;     C3 - H6    
    11     14   1    1.5156e-01    2.6861e+05 ;     C3 - C4    
    14     15   1    1.3984e-01    3.8585e+05 ;     C4 - C5    
    14     21   1    1.3984e-01    3.8585e+05 ;     C4 - C9    
    15     16   1    1.3984e-01    3.8585e+05 ;     C5 - C6    
    16     17   1    1.0860e-01    2.8937e+05 ;     C6 - H7    
    16     18   1    1.3984e-01    3.8585e+05 ;     C6 - C7    
    18     19   1    1.0860e-01    2.8937e+05 ;     C7 - H8    
    18     20   1    1.3984e-01    3.8585e+05 ;     C7 - C8    
    20     21   1    1.3984e-01    3.8585e+05 ;     C8 - C9    
    20     23   1    1.7909e-01    2.0368e+05 ;     C8 - S     
    21     22   1    1.0860e-01    2.8937e+05 ;     C9 - H9    
    23     24   1    1.4660e-01    4.1254e+05 ;      S - O1    
    23     25   1    1.4660e-01    4.1254e+05 ;      S - O2    
    23     26   1    1.6962e-01    2.4886e+05 ;      S - N1    
    26     27   1    1.4647e-01    2.7271e+05 ;     N1 - C10   
    26     42   1    1.4647e-01    2.7271e+05 ;     N1 - C14   
    27     28   1    1.0969e-01    2.7665e+05 ;    C10 - H10   
    27     29   1    1.0969e-01    2.7665e+05 ;    C10 - H11   
    27     30   1    1.5375e-01    2.5179e+05 ;    C10 - C11   
    30     31   1    1.0969e-01    2.7665e+05 ;    C11 - H12   
    30     32   1    1.0969e-01    2.7665e+05 ;    C11 - H13   
    30     33   1    1.5375e-01    2.5179e+05 ;    C11 - C12   
    33     34   1    1.0910e-01    2.8342e+05 ;    C12 - H14   
    33     35   1    1.0910e-01    2.8342e+05 ;    C12 - H15   
    33     36   1    1.5110e-01    2.3707e+05 ;    C12 - N2    
    36     37   1    1.0304e-01    3.1229e+05 ;     N2 - H16   
    36     38   1    1.0304e-01    3.1229e+05 ;     N2 - H17   
    36     39   1    1.5110e-01    2.3707e+05 ;     N2 - C13   
    39     40   1    1.0910e-01    2.8342e+05 ;    C13 - H18   
    39     41   1    1.0910e-01    2.8342e+05 ;    C13 - H19   
    39     42   1    1.5375e-01    2.5179e+05 ;    C13 - C14   
    42     43   1    1.0969e-01    2.7665e+05 ;    C14 - H20   
    42     44   1    1.0969e-01    2.7665e+05 ;    C14 - H21   

[ pairs ]
;   ai     aj    funct
     1      8      1 ;      C - C2    
     1     15      1 ;      C - C5    
     2      6      1 ;      H - O     
     2      7      1 ;      H - N     
     3      6      1 ;     H1 - O     
     3      7      1 ;     H1 - N     
     4      6      1 ;     H2 - O     
     4      7      1 ;     H2 - N     
     5      9      1 ;     C1 - H3    
     5     10      1 ;     C1 - H4    
     5     11      1 ;     C1 - C3    
     5     14      1 ;     C1 - C4    
     5     16      1 ;     C1 - C6    
     6      8      1 ;      O - C2    
     6     15      1 ;      O - C5    
     7     12      1 ;      N - H5    
     7     13      1 ;      N - H6    
     7     17      1 ;      N - H7    
     7     18      1 ;      N - C7    
     7     21      1 ;      N - C9    
     8     16      1 ;     C2 - C6    
     8     21      1 ;     C2 - C9    
     9     12      1 ;     H3 - H5    
     9     13      1 ;     H3 - H6    
     9     14      1 ;     H3 - C4    
     9     15      1 ;     H3 - C5    
    10     12      1 ;     H4 - H5    
    10     13      1 ;     H4 - H6    
    10     14      1 ;     H4 - C4    
    10     15      1 ;     H4 - C5    
    11     16      1 ;     C3 - C6    
    11     20      1 ;     C3 - C8    
    11     22      1 ;     C3 - H9    
    12     15      1 ;     H5 - C5    
    12     21      1 ;     H5 - C9    
    13     15      1 ;     H6 - C5    
    13     21      1 ;     H6 - C9    
    14     17      1 ;     C4 - H7    
    14     18      1 ;     C4 - C7    
    14     23      1 ;     C4 - S     
    15     19      1 ;     C5 - H8    
    15     20      1 ;     C5 - C8    
    15     22      1 ;     C5 - H9    
    16     21      1 ;     C6 - C9    
    16     23      1 ;     C6 - S     
    17     19      1 ;     H7 - H8    
    17     20      1 ;     H7 - C8    
    18     22      1 ;     C7 - H9    
    18     24      1 ;     C7 - O1    
    18     25      1 ;     C7 - O2    
    18     26      1 ;     C7 - N1    
    19     21      1 ;     H8 - C9    
    19     23      1 ;     H8 - S     
    20     27      1 ;     C8 - C10   
    20     42      1 ;     C8 - C14   
    21     24      1 ;     C9 - O1    
    21     25      1 ;     C9 - O2    
    21     26      1 ;     C9 - N1    
    22     23      1 ;     H9 - S     
    23     28      1 ;      S - H10   
    23     29      1 ;      S - H11   
    23     30      1 ;      S - C11   
    23     39      1 ;      S - C13   
    23     43      1 ;      S - H20   
    23     44      1 ;      S - H21   
    24     27      1 ;     O1 - C10   
    24     42      1 ;     O1 - C14   
    25     27      1 ;     O2 - C10   
    25     42      1 ;     O2 - C14   
    26     31      1 ;     N1 - H12   
    26     32      1 ;     N1 - H13   
    26     33      1 ;     N1 - C12   
    26     36      1 ;     N1 - N2    
    26     40      1 ;     N1 - H18   
    26     41      1 ;     N1 - H19   
    27     34      1 ;    C10 - H14   
    27     35      1 ;    C10 - H15   
    27     36      1 ;    C10 - N2    
    27     39      1 ;    C10 - C13   
    27     43      1 ;    C10 - H20   
    27     44      1 ;    C10 - H21   
    28     31      1 ;    H10 - H12   
    28     32      1 ;    H10 - H13   
    28     33      1 ;    H10 - C12   
    28     42      1 ;    H10 - C14   
    29     31      1 ;    H11 - H12   
    29     32      1 ;    H11 - H13   
    29     33      1 ;    H11 - C12   
    29     42      1 ;    H11 - C14   
    30     37      1 ;    C11 - H16   
    30     38      1 ;    C11 - H17   
    30     39      1 ;    C11 - C13   
    30     42      1 ;    C11 - C14   
    31     34      1 ;    H12 - H14   
    31     35      1 ;    H12 - H15   
    31     36      1 ;    H12 - N2    
    32     34      1 ;    H13 - H14   
    32     35      1 ;    H13 - H15   
    32     36      1 ;    H13 - N2    
    33     40      1 ;    C12 - H18   
    33     41      1 ;    C12 - H19   
    33     42      1 ;    C12 - C14   
    34     37      1 ;    H14 - H16   
    34     38      1 ;    H14 - H17   
    34     39      1 ;    H14 - C13   
    35     37      1 ;    H15 - H16   
    35     38      1 ;    H15 - H17   
    35     39      1 ;    H15 - C13   
    36     43      1 ;     N2 - H20   
    36     44      1 ;     N2 - H21   
    37     40      1 ;    H16 - H18   
    37     41      1 ;    H16 - H19   
    37     42      1 ;    H16 - C14   
    38     40      1 ;    H17 - H18   
    38     41      1 ;    H17 - H19   
    38     42      1 ;    H17 - C14   
    40     43      1 ;    H18 - H20   
    40     44      1 ;    H18 - H21   
    41     43      1 ;    H19 - H20   
    41     44      1 ;    H19 - H21   

[ angles ]
;   ai     aj     ak    funct   theta         cth
     1      5      6      1    1.2320e+02    5.6400e+02 ;      C - C1     - O     
     1      5      7      1    1.1518e+02    5.5898e+02 ;      C - C1     - N     
     2      1      3      1    1.0758e+02    3.2970e+02 ;      H - C      - H1    
     2      1      4      1    1.0758e+02    3.2970e+02 ;      H - C      - H2    
     2      1      5      1    1.0877e+02    3.9246e+02 ;      H - C      - C1    
     3      1      4      1    1.0758e+02    3.2970e+02 ;     H1 - C      - H2    
     3      1      5      1    1.0877e+02    3.9246e+02 ;     H1 - C      - C1    
     4      1      5      1    1.0877e+02    3.9246e+02 ;     H2 - C      - C1    
     5      7      8      1    1.2069e+02    5.3053e+02 ;     C1 - N      - C2    
     5      7     15      1    1.2371e+02    5.3388e+02 ;     C1 - N      - C5    
     6      5      7      1    1.2305e+02    6.2091e+02 ;      O - C1     - N     
     7      8      9      1    1.0888e+02    4.1673e+02 ;      N - C2     - H3    
     7      8     10      1    1.0888e+02    4.1673e+02 ;      N - C2     - H4    
     7      8     11      1    1.1161e+02    5.5145e+02 ;      N - C2     - C3    
     7     15     14      1    1.2019e+02    5.6819e+02 ;      N - C5     - C4    
     7     15     16      1    1.2019e+02    5.6819e+02 ;      N - C5     - C6    
     8      7     15      1    1.1983e+02    5.2718e+02 ;     C2 - N      - C5    
     8     11     12      1    1.0980e+02    3.8744e+02 ;     C2 - C3     - H5    
     8     11     13      1    1.0980e+02    3.8744e+02 ;     C2 - C3     - H6    
     8     11     14      1    1.1207e+02    5.2802e+02 ;     C2 - C3     - C4    
     9      8     10      1    1.0846e+02    3.2803e+02 ;     H3 - C2     - H4    
     9      8     11      1    1.0956e+02    3.8828e+02 ;     H3 - C2     - C3    
    10      8     11      1    1.0956e+02    3.8828e+02 ;     H4 - C2     - C3    
    11     14     15      1    1.2077e+02    5.3137e+02 ;     C3 - C4     - C5    
    11     14     21      1    1.2077e+02    5.3137e+02 ;     C3 - C4     - C9    
    12     11     13      1    1.0758e+02    3.2970e+02 ;     H5 - C3     - H6    
    12     11     14      1    1.1047e+02    3.9162e+02 ;     H5 - C3     - C4    
    13     11     14      1    1.1047e+02    3.9162e+02 ;     H6 - C3     - C4    
    14     15     16      1    1.2002e+02    5.5731e+02 ;     C4 - C5     - C6    
    14     21     20      1    1.2002e+02    5.5731e+02 ;     C4 - C9     - C8    
    14     21     22      1    1.1988e+02    4.0334e+02 ;     C4 - C9     - H9    
    15     14     21      1    1.2002e+02    5.5731e+02 ;     C5 - C4     - C9    
    15     16     17      1    1.1988e+02    4.0334e+02 ;     C5 - C6     - H7    
    15     16     18      1    1.2002e+02    5.5731e+02 ;     C5 - C6     - C7    
    16     18     19      1    1.1988e+02    4.0334e+02 ;     C6 - C7     - H8    
    16     18     20      1    1.2002e+02    5.5731e+02 ;     C6 - C7     - C8    
    17     16     18      1    1.1988e+02    4.0334e+02 ;     H7 - C6     - C7    
    18     20     21      1    1.2002e+02    5.5731e+02 ;     C7 - C8     - C9    
    18     20     23      1    1.1942e+02    5.1463e+02 ;     C7 - C8     - S     
    19     18     20      1    1.1988e+02    4.0334e+02 ;     H8 - C7     - C8    
    20     21     22      1    1.1988e+02    4.0334e+02 ;     C8 - C9     - H9    
    20     23     24      1    1.0835e+02    5.5061e+02 ;     C8 - S      - O1    
    20     23     25      1    1.0835e+02    5.5061e+02 ;     C8 - S      - O2    
    20     23     26      1    1.0244e+02    5.3555e+02 ;     C8 - S      - N1    
    21     20     23      1    1.1942e+02    5.1463e+02 ;     C9 - C8     - S     
    23     26     27      1    1.1525e+02    5.2300e+02 ;      S - N1     - C10   
    23     26     42      1    1.1525e+02    5.2300e+02 ;      S - N1     - C14   
    24     23     25      1    1.2141e+02    6.0668e+02 ;     O1 - S      - O2    
    24     23     26      1    1.0713e+02    5.8911e+02 ;     O1 - S      - N1    
    25     23     26      1    1.0713e+02    5.8911e+02 ;     O2 - S      - N1    
    26     27     28      1    1.0988e+02    4.1422e+02 ;     N1 - C10    - H10   
    26     27     29      1    1.0988e+02    4.1422e+02 ;     N1 - C10    - H11   
    26     27     30      1    1.1104e+02    5.5229e+02 ;     N1 - C10    - C11   
    26     42     39      1    1.1104e+02    5.5229e+02 ;     N1 - C14    - C13   
    26     42     43      1    1.0988e+02    4.1422e+02 ;     N1 - C14    - H20   
    26     42     44      1    1.0988e+02    4.1422e+02 ;     N1 - C14    - H21   
    27     26     42      1    1.1235e+02    5.3388e+02 ;    C10 - N1     - C14   
    27     30     31      1    1.0980e+02    3.8744e+02 ;    C10 - C11    - H12   
    27     30     32      1    1.0980e+02    3.8744e+02 ;    C10 - C11    - H13   
    27     30     33      1    1.1151e+02    5.2635e+02 ;    C10 - C11    - C12   
    28     27     29      1    1.0846e+02    3.2803e+02 ;    H10 - C10    - H11   
    28     27     30      1    1.0956e+02    3.8828e+02 ;    H10 - C10    - C11   
    29     27     30      1    1.0956e+02    3.8828e+02 ;    H11 - C10    - C11   
    30     33     34      1    1.1056e+02    3.8660e+02 ;    C11 - C12    - H14   
    30     33     35      1    1.1056e+02    3.8660e+02 ;    C11 - C12    - H15   
    30     33     36      1    1.1421e+02    5.3723e+02 ;    C11 - C12    - N2    
    31     30     32      1    1.0758e+02    3.2970e+02 ;    H12 - C11    - H13   
    31     30     33      1    1.0980e+02    3.8744e+02 ;    H12 - C11    - C12   
    32     30     33      1    1.0980e+02    3.8744e+02 ;    H13 - C11    - C12   
    33     36     37      1    1.1011e+02    3.8409e+02 ;    C12 - N2     - H16   
    33     36     38      1    1.1011e+02    3.8409e+02 ;    C12 - N2     - H17   
    33     36     39      1    1.0966e+02    5.2384e+02 ;    C12 - N2     - C13   
    34     33     35      1    1.0975e+02    3.2803e+02 ;    H14 - C12    - H15   
    34     33     36      1    1.0801e+02    4.0668e+02 ;    H14 - C12    - N2    
    35     33     36      1    1.0801e+02    4.0668e+02 ;    H15 - C12    - N2    
    36     39     40      1    1.0801e+02    4.0668e+02 ;     N2 - C13    - H18   
    36     39     41      1    1.0801e+02    4.0668e+02 ;     N2 - C13    - H19   
    36     39     42      1    1.1421e+02    5.3723e+02 ;     N2 - C13    - C14   
    37     36     38      1    1.0830e+02    3.3974e+02 ;    H16 - N2     - H17   
    37     36     39      1    1.1011e+02    3.8409e+02 ;    H16 - N2     - C13   
    38     36     39      1    1.1011e+02    3.8409e+02 ;    H17 - N2     - C13   
    39     42     43      1    1.0956e+02    3.8828e+02 ;    C13 - C14    - H20   
    39     42     44      1    1.0956e+02    3.8828e+02 ;    C13 - C14    - H21   
    40     39     41      1    1.0975e+02    3.2803e+02 ;    H18 - C13    - H19   
    40     39     42      1    1.1056e+02    3.8660e+02 ;    H18 - C13    - C14   
    41     39     42      1    1.1056e+02    3.8660e+02 ;    H19 - C13    - C14   
    43     42     44      1    1.0846e+02    3.2803e+02 ;    H20 - C14    - H21   

[ dihedrals ] ; propers
; for gromacs 4.5 or higher, using funct 9
;    i      j      k      l   func   phase     kd      pn
     1      5      7      8      9     0.00   0.00000   0 ;      C-    C1-     N-    C2
     1      5      7      8      9   180.00   6.27600   1 ;      C-    C1-     N-    C2
     1      5      7     15      9   180.00  10.46000   2 ;      C-    C1-     N-    C5
     2      1      5      6      9     0.00   0.00000   0 ;      H-     C-    C1-     O
     2      1      5      6      9     0.00   3.34720   1 ;      H-     C-    C1-     O
     2      1      5      6      9   180.00   0.33472   3 ;      H-     C-    C1-     O
     2      1      5      7      9   180.00   0.00000   2 ;      H-     C-    C1-     N
     3      1      5      6      9     0.00   0.00000   0 ;     H1-     C-    C1-     O
     3      1      5      6      9     0.00   3.34720   1 ;     H1-     C-    C1-     O
     3      1      5      6      9   180.00   0.33472   3 ;     H1-     C-    C1-     O
     3      1      5      7      9   180.00   0.00000   2 ;     H1-     C-    C1-     N
     4      1      5      6      9     0.00   0.00000   0 ;     H2-     C-    C1-     O
     4      1      5      6      9     0.00   3.34720   1 ;     H2-     C-    C1-     O
     4      1      5      6      9   180.00   0.33472   3 ;     H2-     C-    C1-     O
     4      1      5      7      9   180.00   0.00000   2 ;     H2-     C-    C1-     N
     5      7      8      9      9     0.00   0.00000   0 ;     C1-     N-    C2-    H3
     5      7      8     10      9     0.00   0.00000   0 ;     C1-     N-    C2-    H4
     5      7      8     11      9     0.00   0.00000   0 ;     C1-     N-    C2-    C3
     5      7      8     11      9     0.00   2.21752   1 ;     C1-     N-    C2-    C3
     5      7      8     11      9   180.00   0.62760   3 ;     C1-     N-    C2-    C3
     5      7      8     11      9   180.00   2.09200   4 ;     C1-     N-    C2-    C3
     5      7     15     14      9   180.00   1.88280   2 ;     C1-     N-    C5-    C4
     5      7     15     16      9   180.00   1.88280   2 ;     C1-     N-    C5-    C6
     6      5      7      8      9   180.00  10.46000   2 ;      O-    C1-     N-    C2
     6      5      7     15      9   180.00  10.46000   2 ;      O-    C1-     N-    C5
     7      8     11     12      9     0.00   0.65084   3 ;      N-    C2-    C3-    H5
     7      8     11     13      9     0.00   0.65084   3 ;      N-    C2-    C3-    H6
     7      8     11     14      9     0.00   0.65084   3 ;      N-    C2-    C3-    C4
     7     15     14     11      9   180.00  15.16700   2 ;      N-    C5-    C4-    C3
     7     15     14     21      9   180.00  15.16700   2 ;      N-    C5-    C4-    C9
     7     15     16     17      9   180.00  15.16700   2 ;      N-    C5-    C6-    H7
     7     15     16     18      9   180.00  15.16700   2 ;      N-    C5-    C6-    C7
     8      7     15     14      9   180.00   1.88280   2 ;     C2-     N-    C5-    C4
     8      7     15     16      9   180.00   1.88280   2 ;     C2-     N-    C5-    C6
     8     11     14     15      9     0.00   0.00000   0 ;     C2-    C3-    C4-    C5
     8     11     14     21      9     0.00   0.00000   0 ;     C2-    C3-    C4-    C9
     9      8      7     15      9     0.00   0.00000   0 ;     H3-    C2-     N-    C5
     9      8     11     12      9     0.00   0.65084   3 ;     H3-    C2-    C3-    H5
     9      8     11     13      9     0.00   0.65084   3 ;     H3-    C2-    C3-    H6
     9      8     11     14      9     0.00   0.65084   3 ;     H3-    C2-    C3-    C4
    10      8      7     15      9     0.00   0.00000   0 ;     H4-    C2-     N-    C5
    10      8     11     12      9     0.00   0.65084   3 ;     H4-    C2-    C3-    H5
    10      8     11     13      9     0.00   0.65084   3 ;     H4-    C2-    C3-    H6
    10      8     11     14      9     0.00   0.65084   3 ;     H4-    C2-    C3-    C4
    11      8      7     15      9     0.00   0.00000   0 ;     C3-    C2-     N-    C5
    11     14     15     16      9   180.00  15.16700   2 ;     C3-    C4-    C5-    C6
    11     14     21     20      9   180.00  15.16700   2 ;     C3-    C4-    C9-    C8
    11     14     21     22      9   180.00  15.16700   2 ;     C3-    C4-    C9-    H9
    12     11     14     15      9     0.00   0.00000   0 ;     H5-    C3-    C4-    C5
    12     11     14     21      9     0.00   0.00000   0 ;     H5-    C3-    C4-    C9
    13     11     14     15      9     0.00   0.00000   0 ;     H6-    C3-    C4-    C5
    13     11     14     21      9     0.00   0.00000   0 ;     H6-    C3-    C4-    C9
    14     15     16     17      9   180.00  15.16700   2 ;     C4-    C5-    C6-    H7
    14     15     16     18      9   180.00  15.16700   2 ;     C4-    C5-    C6-    C7
    14     21     20     18      9   180.00  15.16700   2 ;     C4-    C9-    C8-    C7
    14     21     20     23      9   180.00  15.16700   2 ;     C4-    C9-    C8-     S
    15     14     21     20      9   180.00  15.16700   2 ;     C5-    C4-    C9-    C8
    15     14     21     22      9   180.00  15.16700   2 ;     C5-    C4-    C9-    H9
    15     16     18     19      9   180.00  15.16700   2 ;     C5-    C6-    C7-    H8
    15     16     18     20      9   180.00  15.16700   2 ;     C5-    C6-    C7-    C8
    16     15     14     21      9   180.00  15.16700   2 ;     C6-    C5-    C4-    C9
    16     18     20     21      9   180.00  15.16700   2 ;     C6-    C7-    C8-    C9
    16     18     20     23      9   180.00  15.16700   2 ;     C6-    C7-    C8-     S
    17     16     18     19      9   180.00  15.16700   2 ;     H7-    C6-    C7-    H8
    17     16     18     20      9   180.00  15.16700   2 ;     H7-    C6-    C7-    C8
    18     20     21     22      9   180.00  15.16700   2 ;     C7-    C8-    C9-    H9
    18     20     23     24      9   180.00   5.43920   2 ;     C7-    C8-     S-    O1
    18     20     23     25      9   180.00   5.43920   2 ;     C7-    C8-     S-    O2
    18     20     23     26      9   180.00   5.43920   2 ;     C7-    C8-     S-    N1
    19     18     20     21      9   180.00  15.16700   2 ;     H8-    C7-    C8-    C9
    19     18     20     23      9   180.00  15.16700   2 ;     H8-    C7-    C8-     S
    20     23     26     27      9     0.00  13.10987   2 ;     C8-     S-    N1-   C10
    20     23     26     42      9     0.00  13.10987   2 ;     C8-     S-    N1-   C14
    21     20     23     24      9   180.00   5.43920   2 ;     C9-    C8-     S-    O1
    21     20     23     25      9   180.00   5.43920   2 ;     C9-    C8-     S-    O2
    21     20     23     26      9   180.00   5.43920   2 ;     C9-    C8-     S-    N1
    22     21     20     23      9   180.00  15.16700   2 ;     H9-    C9-    C8-     S
    23     26     27     28      9     0.00   1.25520   3 ;      S-    N1-   C10-   H10
    23     26     27     29      9     0.00   1.25520   3 ;      S-    N1-   C10-   H11
    23     26     27     30      9     0.00   1.25520   3 ;      S-    N1-   C10-   C11
    23     26     42     39      9     0.00   1.25520   3 ;      S-    N1-   C14-   C13
    23     26     42     43      9     0.00   1.25520   3 ;      S-    N1-   C14-   H20
    23     26     42     44      9     0.00   1.25520   3 ;      S-    N1-   C14-   H21
    24     23     26     27      9     0.00  13.10987   2 ;     O1-     S-    N1-   C10
    24     23     26     42      9     0.00  13.10987   2 ;     O1-     S-    N1-   C14
    25     23     26     27      9     0.00  13.10987   2 ;     O2-     S-    N1-   C10
    25     23     26     42      9     0.00  13.10987   2 ;     O2-     S-    N1-   C14
    26     27     30     31      9     0.00   0.65084   3 ;     N1-   C10-   C11-   H12
    26     27     30     32      9     0.00   0.65084   3 ;     N1-   C10-   C11-   H13
    26     27     30     33      9     0.00   0.65084   3 ;     N1-   C10-   C11-   C12
    26     42     39     36      9     0.00   0.65084   3 ;     N1-   C14-   C13-    N2
    26     42     39     40      9     0.00   0.65084   3 ;     N1-   C14-   C13-   H18
    26     42     39     41      9     0.00   0.65084   3 ;     N1-   C14-   C13-   H19
    27     26     42     39      9     0.00   1.25520   3 ;    C10-    N1-   C14-   C13
    27     26     42     39      9   180.00   2.00832   2 ;    C10-    N1-   C14-   C13
    27     26     42     43      9     0.00   1.25520   3 ;    C10-    N1-   C14-   H20
    27     26     42     44      9     0.00   1.25520   3 ;    C10-    N1-   C14-   H21
    27     30     33     34      9     0.00   0.65084   3 ;    C10-   C11-   C12-   H14
    27     30     33     35      9     0.00   0.65084   3 ;    C10-   C11-   C12-   H15
    27     30     33     36      9     0.00   0.65084   3 ;    C10-   C11-   C12-    N2
    28     27     26     42      9     0.00   1.25520   3 ;    H10-   C10-    N1-   C14
    28     27     30     31      9     0.00   0.65084   3 ;    H10-   C10-   C11-   H12
    28     27     30     32      9     0.00   0.65084   3 ;    H10-   C10-   C11-   H13
    28     27     30     33      9     0.00   0.65084   3 ;    H10-   C10-   C11-   C12
    29     27     26     42      9     0.00   1.25520   3 ;    H11-   C10-    N1-   C14
    29     27     30     31      9     0.00   0.65084   3 ;    H11-   C10-   C11-   H12
    29     27     30     32      9     0.00   0.65084   3 ;    H11-   C10-   C11-   H13
    29     27     30     33      9     0.00   0.65084   3 ;    H11-   C10-   C11-   C12
    30     27     26     42      9     0.00   1.25520   3 ;    C11-   C10-    N1-   C14
    30     27     26     42      9   180.00   2.00832   2 ;    C11-   C10-    N1-   C14
    30     33     36     37      9     0.00   0.65084   3 ;    C11-   C12-    N2-   H16
    30     33     36     38      9     0.00   0.65084   3 ;    C11-   C12-    N2-   H17
    30     33     36     39      9     0.00   0.65084   3 ;    C11-   C12-    N2-   C13
    31     30     33     34      9     0.00   0.65084   3 ;    H12-   C11-   C12-   H14
    31     30     33     35      9     0.00   0.65084   3 ;    H12-   C11-   C12-   H15
    31     30     33     36      9     0.00   0.65084   3 ;    H12-   C11-   C12-    N2
    32     30     33     34      9     0.00   0.65084   3 ;    H13-   C11-   C12-   H14
    32     30     33     35      9     0.00   0.65084   3 ;    H13-   C11-   C12-   H15
    32     30     33     36      9     0.00   0.65084   3 ;    H13-   C11-   C12-    N2
    33     36     39     40      9     0.00   0.65084   3 ;    C12-    N2-   C13-   H18
    33     36     39     41      9     0.00   0.65084   3 ;    C12-    N2-   C13-   H19
    33     36     39     42      9     0.00   0.65084   3 ;    C12-    N2-   C13-   C14
    34     33     36     37      9     0.00   0.65084   3 ;    H14-   C12-    N2-   H16
    34     33     36     38      9     0.00   0.65084   3 ;    H14-   C12-    N2-   H17
    34     33     36     39      9     0.00   0.65084   3 ;    H14-   C12-    N2-   C13
    35     33     36     37      9     0.00   0.65084   3 ;    H15-   C12-    N2-   H16
    35     33     36     38      9     0.00   0.65084   3 ;    H15-   C12-    N2-   H17
    35     33     36     39      9     0.00   0.65084   3 ;    H15-   C12-    N2-   C13
    36     39     42     43      9     0.00   0.65084   3 ;     N2-   C13-   C14-   H20
    36     39     42     44      9     0.00   0.65084   3 ;     N2-   C13-   C14-   H21
    37     36     39     40      9     0.00   0.65084   3 ;    H16-    N2-   C13-   H18
    37     36     39     41      9     0.00   0.65084   3 ;    H16-    N2-   C13-   H19
    37     36     39     42      9     0.00   0.65084   3 ;    H16-    N2-   C13-   C14
    38     36     39     40      9     0.00   0.65084   3 ;    H17-    N2-   C13-   H18
    38     36     39     41      9     0.00   0.65084   3 ;    H17-    N2-   C13-   H19
    38     36     39     42      9     0.00   0.65084   3 ;    H17-    N2-   C13-   C14
    40     39     42     43      9     0.00   0.65084   3 ;    H18-   C13-   C14-   H20
    40     39     42     44      9     0.00   0.65084   3 ;    H18-   C13-   C14-   H21
    41     39     42     43      9     0.00   0.65084   3 ;    H19-   C13-   C14-   H20
    41     39     42     44      9     0.00   0.65084   3 ;    H19-   C13-   C14-   H21

[ dihedrals ] ; impropers
; treated as propers in GROMACS to use correct AMBER analytical function
;    i      j      k      l   func   phase     kd      pn
     1      7      5      6      4   180.00  43.93200   2 ;      C-     N-    C1-     O
     5      8      7     15      4   180.00   4.60240   2 ;     C1-    C2-     N-    C5
    14     16     15      7      4   180.00   4.60240   2 ;     C4-    C6-    C5-     N
    14     20     21     22      4   180.00   4.60240   2 ;     C4-    C8-    C9-    H9
    15     18     16     17      4   180.00   4.60240   2 ;     C5-    C7-    C6-    H7
    15     21     14     11      4   180.00   4.60240   2 ;     C5-    C9-    C4-    C3
    16     20     18     19      4   180.00   4.60240   2 ;     C6-    C8-    C7-    H8
    18     21     20     23      4   180.00   4.60240   2 ;     C7-    C9-    C8-     S

