A-SYNC WITH FASUDIL
35315
  121NASP     N    1   1.517   5.127   4.294 -0.4658 -1.2630 -0.3427
  121NASP    H1    2   1.498   5.225   4.275  1.2789 -0.7151  0.5345
  121NASP    H2    3   1.590   5.132   4.363  0.4026  3.1376 -1.2975
  121NASP    H3    4   1.436   5.071   4.317  0.6059 -3.1297 -0.9409
  121NASP    CA    5   1.563   5.048   4.178 -0.1386 -0.4766  0.5993
  121NASP    HA    6   1.485   4.985   4.134 -1.5747 -0.2142  2.6035
  121NASP    CB    7   1.636   5.136   4.069  0.6464 -0.7263 -0.3192
  121NASP   HB1    8   1.561   5.197   4.019 -0.2385 -0.3274  1.4085
  121NASP   HB2    9   1.697   5.069   4.008 -0.8663 -2.4926  0.0110
  121NASP    CG   10   1.736   5.244   4.128  0.3080  0.2338  0.3097
  121NASP   OD1   11   1.804   5.310   4.052 -0.0473  0.2067  0.1169
  121NASP   OD2   12   1.744   5.271   4.247  0.0306  0.0297  0.1325
  121NASP     C   13   1.661   4.948   4.237 -0.0350  0.0735  0.3907
  121NASP     O   14   1.710   4.961   4.347 -0.3280  0.0170  0.1464
  122ASN      N   15   1.667   4.833   4.170 -0.9851 -0.2967 -0.1147
  122ASN      H   16   1.621   4.831   4.080  0.0307  1.4070 -0.7334
  122ASN     CA   17   1.737   4.711   4.209  0.1720 -0.7722 -0.4667
  122ASN     HA   18   1.794   4.721   4.302 -0.7736 -0.0645  0.0677
  122ASN     CB   19   1.626   4.610   4.248 -0.5751 -0.1913 -0.0119
  122ASN    HB1   20   1.554   4.588   4.169  0.1897  0.1327 -0.8133
  122ASN    HB2   21   1.570   4.655   4.330  1.6590 -1.4220  2.3625
  122ASN     CG   22   1.671   4.471   4.304 -1.4496 -0.2449  0.6684
  122ASN    OD1   23   1.790   4.436   4.313  0.4011 -0.2671 -0.6691
  122ASN    ND2   24   1.578   4.396   4.344  0.4390 -0.2687  0.4170
  122ASN   HD21   25   1.616   4.312   4.384  0.9486  0.3675  1.3192
  122ASN   HD22   26   1.483   4.430   4.355  0.8982  1.8355 -1.3275
  122ASN      C   27   1.831   4.665   4.100 -0.2971 -0.3227  0.6218
  122ASN      O   28   1.806   4.692   3.980  0.3074 -0.5127 -0.0263
  123GLU      N   29   1.946   4.603   4.135  0.5959 -0.0568  0.0790
  123GLU      H   30   1.957   4.577   4.232  0.8585  0.6974  0.2620
  123GLU     CA   31   2.029   4.539   4.035  0.7572 -0.6734 -0.2645
  123GLU     HA   32   2.036   4.599   3.943  2.3855  0.9857  0.8614
  123GLU     CB   33   2.177   4.534   4.086  0.1827 -0.5482 -0.2652
  123GLU    HB1   34   2.232   4.466   4.021  0.4650 -0.5256 -0.0493
  123GLU    HB2   35   2.189   4.490   4.185  3.5010 -1.0858 -0.7881
  123GLU     CG   36   2.242   4.667   4.086 -0.1797 -0.2570  0.0127
  123GLU    HG1   37   2.198   4.727   4.005 -0.2814 -2.6078 -1.7664
  123GLU    HG2   38   2.348   4.650   4.069  0.4718  0.8457  2.5060
  123GLU     CD   39   2.247   4.750   4.218 -0.2455 -0.4155 -0.5158
  123GLU    OE1   40   2.251   4.876   4.205 -0.0068  0.1420 -0.3778
  123GLU    OE2   41   2.243   4.690   4.329 -0.0151  0.1067  0.0155
  123GLU      C   42   1.984   4.405   3.987 -0.1792  0.1557  0.8814
  123GLU      O   43   2.040   4.354   3.894 -0.3231  0.1663 -0.1359
  124ALA      N   44   1.890   4.345   4.060 -0.0591  0.6747 -0.0936
  124ALA      H   45   1.850   4.403   4.133  0.7474  2.9796 -1.4115
  124ALA     CA   46   1.817   4.221   4.030 -0.3720  0.1938 -0.2540
  124ALA     HA   47   1.851   4.170   3.939 -0.8370  0.9091 -0.8358
  124ALA     CB   48   1.845   4.124   4.153 -0.5920  0.0298  0.9262
  124ALA    HB1   49   1.953   4.121   4.169 -0.4934  1.4798  0.6577
  124ALA    HB2   50   1.833   4.019   4.126  2.2031 -0.1841  0.1766
  124ALA    HB3   51   1.793   4.156   4.243 -1.5428  1.3251 -0.0381
  124ALA      C   52   1.665   4.240   4.017 -0.1447  0.6132  1.0727
  124ALA      O   53   1.614   4.354   4.028  0.3276 -0.4264  0.4377
  125TYR      N   54   1.589   4.131   3.985 -0.2787 -0.0238 -0.5289
  125TYR      H   55   1.624   4.037   3.990 -0.5000 -0.0782  0.0291
  125TYR     CA   56   1.445   4.149   3.968 -0.3035 -0.1270 -0.6828
  125TYR     HA   57   1.424   4.238   3.909  2.0007  0.4415 -0.7232
  125TYR     CB   58   1.387   4.030   3.891  0.4399 -0.3786  0.8310
  125TYR    HB1   59   1.279   4.035   3.891  0.4585  0.1653  1.1092
  125TYR    HB2   60   1.415   3.933   3.931  1.3363 -0.8049 -0.7599
  125TYR     CG   61   1.437   4.037   3.748 -0.8278 -0.2953 -0.6681
  125TYR    CD1   62   1.396   4.141   3.666 -0.2207  0.4596  0.0286
  125TYR    HD1   63   1.322   4.214   3.697  0.3736  1.2155 -0.2952
  125TYR    CE1   64   1.438   4.152   3.532  0.8903 -0.1233 -0.0692
  125TYR    HE1   65   1.400   4.233   3.472  1.0857  1.7105  2.1187
  125TYR     CZ   66   1.532   4.059   3.482 -0.1443 -0.0507 -0.2475
  125TYR     OH   67   1.590   4.075   3.359  0.6517  0.1817 -0.2591
  125TYR     HH   68   1.654   4.007   3.341 -0.9693 -1.6852  0.7041
  125TYR    CE2   69   1.578   3.954   3.564 -0.2515 -0.9020 -0.3451
  125TYR    HE2   70   1.649   3.881   3.528 -0.5011 -0.0468 -2.7302
  125TYR    CD2   71   1.535   3.944   3.699 -0.4654 -0.2852  0.2209
  125TYR    HD2   72   1.575   3.867   3.763  1.4935 -0.5888 -1.2838
  125TYR      C   73   1.363   4.171   4.092  0.1084 -0.1474 -0.5978
  125TYR      O   74   1.371   4.089   4.187 -0.0611 -0.1180 -0.7733
  126GLU      N   75   1.276   4.273   4.102  0.1264 -0.6513  0.4986
  126GLU      H   76   1.277   4.338   4.025  0.9891 -1.8647 -0.5745
  126GLU     CA   77   1.167   4.292   4.201 -0.4255 -0.1708 -1.0752
  126GLU     HA   78   1.213   4.284   4.299 -2.1335 -0.2700 -0.2385
  126GLU     CB   79   1.106   4.429   4.175  0.2607 -0.0135 -0.4571
  126GLU    HB1   80   1.035   4.425   4.093 -0.9232 -1.8325  0.5896
  126GLU    HB2   81   1.181   4.504   4.149 -1.2984  2.4783  1.6729
  126GLU     CG   82   1.037   4.478   4.297 -0.5133 -0.0458 -0.0819
  126GLU    HG1   83   1.119   4.485   4.368 -0.9988  1.2227  0.3823
  126GLU    HG2   84   0.961   4.408   4.332 -1.5642  2.2348  2.5791
  126GLU     CD   85   0.980   4.618   4.278 -0.6348  0.4631 -0.7828
  126GLU    OE1   86   1.012   4.694   4.180 -0.1204  0.2088  0.1316
  126GLU    OE2   87   0.901   4.658   4.367  0.5175  0.2342 -0.1327
  126GLU      C   88   1.065   4.174   4.180  1.0493 -0.0703  0.0794
  126GLU      O   89   1.051   4.133   4.065  0.2362  0.5513  0.1190
  127MET      N   90   0.998   4.112   4.285  0.1195 -0.0277  0.3368
  127MET      H   91   0.995   4.157   4.375  0.4018 -0.5992  0.6348
  127MET     CA   92   0.897   4.004   4.266 -0.6380  0.3105 -0.2818
  127MET     HA   93   0.948   3.930   4.204 -2.0124 -0.6768 -0.2680
  127MET     CB   94   0.864   3.948   4.408  0.0574 -0.2325 -0.5039
  127MET    HB1   95   0.794   3.866   4.396 -0.7002  0.3115  0.1296
  127MET    HB2   96   0.814   4.030   4.459 -1.6560  0.7951 -3.5711
  127MET     CG   97   0.987   3.905   4.488  0.0898 -0.6137 -0.4728
  127MET    HG1   98   0.950   3.859   4.580  0.9911 -2.7433 -1.0946
  127MET    HG2   99   1.053   3.987   4.515  0.9728 -1.4115 -0.1423
  127MET     SD  100   1.090   3.796   4.408  0.1268  0.4793  0.4609
  127MET     CE  101   1.237   3.798   4.511  0.5128  0.1835 -0.1546
  127MET    HE1  102   1.269   3.698   4.538  0.0746 -0.2509 -1.2264
  127MET    HE2  103   1.222   3.846   4.608  2.4908 -0.0330  0.2964
  127MET    HE3  104   1.326   3.847   4.471  2.3427 -0.7701  2.4383
  127MET      C  105   0.776   4.068   4.192  0.5691  0.5612  0.5675
  127MET      O  106   0.733   4.184   4.212  0.9985  0.5442 -0.2796
  128PRO      N  107   0.720   3.982   4.107 -0.3340  0.0422 -0.5330
  128PRO     CD  108   0.762   3.839   4.081  0.1934 -1.0948  0.2061
  128PRO    HD1  109   0.757   3.779   4.172  0.6363 -2.1955 -0.4790
  128PRO    HD2  110   0.861   3.830   4.037 -0.4589 -2.6497 -0.9987
  128PRO     CG  111   0.658   3.793   3.979 -0.3061 -0.1277  0.1689
  128PRO    HG1  112   0.580   3.730   4.023  1.5311 -2.9702 -0.4136
  128PRO    HG2  113   0.709   3.744   3.896  1.3324  3.0703 -0.8475
  128PRO     CB  114   0.591   3.917   3.922 -0.4249  0.5376  0.0950
  128PRO    HB1  115   0.650   3.958   3.840  0.5916  0.1494  0.6089
  128PRO    HB2  116   0.493   3.892   3.883 -0.4098 -0.3822  0.6201
  128PRO     CA  117   0.593   4.013   4.041  0.4835  0.0799  0.2808
  128PRO     HA  118   0.588   4.115   4.002  2.4575  0.7456  1.6400
  128PRO      C  119   0.471   3.996   4.129 -0.0788  0.3283  0.0626
  128PRO      O  120   0.482   3.940   4.237  0.6969 -1.0125  0.2073
  129SER      N  121   0.356   4.028   4.079  0.2471 -0.6265  0.3604
  129SER      H  122   0.352   4.047   3.980 -0.7154  0.2044  0.5426
  129SER     CA  123   0.229   3.996   4.143 -0.0348 -0.2298  0.2789
  129SER     HA  124   0.241   4.028   4.247 -1.7212  2.4805 -0.2415
  129SER     CB  125   0.116   4.073   4.088 -0.7451  0.0969  0.8716
  129SER    HB1  126   0.145   4.177   4.072 -0.9596  0.1084  0.5423
  129SER    HB2  127   0.032   4.075   4.157 -1.0294 -0.1650  0.5335
  129SER     OG  128   0.074   4.018   3.962  0.4498  0.0299 -0.9039
  129SER    HG1  129  -0.003   4.067   3.933 -0.3590 -0.0557  0.9774
  129SER      C  130   0.194   3.845   4.152 -0.2762  0.1843 -0.0282
  129SER      O  131   0.247   3.759   4.074 -0.1453  0.2954 -0.4506
  130GLU      N  132   0.110   3.798   4.247  0.7413 -0.0968 -0.3512
  130GLU      H  133   0.060   3.865   4.304 -1.8368 -1.6351 -0.6319
  130GLU     CA  134   0.051   3.667   4.259 -0.4596  0.2716  0.1217
  130GLU     HA  135   0.135   3.601   4.281 -1.1210 -1.0836 -1.2276
  130GLU     CB  136  -0.050   3.653   4.374 -0.0849 -0.2987  0.5906
  130GLU    HB1  137  -0.078   3.548   4.379  0.3643 -0.3798  1.8929
  130GLU    HB2  138  -0.142   3.709   4.356  0.7530  2.8685  4.5408
  130GLU     CG  139   0.008   3.707   4.511 -0.7325  0.9161 -0.5516
  130GLU    HG1  140   0.010   3.815   4.494 -2.8235  1.0371 -0.2766
  130GLU    HG2  141   0.108   3.668   4.526 -0.0988  1.7820 -2.1731
  130GLU     CD  142  -0.086   3.675   4.628  0.3729  0.0832 -0.1373
  130GLU    OE1  143  -0.087   3.555   4.663  0.1453  0.2156 -0.0184
  130GLU    OE2  144  -0.151   3.765   4.692  0.2902 -0.1576  0.1388
  130GLU      C  145  -0.029   3.625   4.130 -0.4567 -0.2241 -0.2858
  130GLU      O  146  -0.086   3.701   4.067 -0.7314 -1.2569  0.5350
  131GLU      N  147  -0.039   3.496   4.101  0.4126 -0.3950 -0.8267
  131GLU      H  148  -0.009   3.434   4.175  0.9387  1.9137  1.0105
  131GLU     CA  149  -0.111   3.445   3.980  0.3044  0.3382 -0.8031
  131GLU     HA  150  -0.070   3.503   3.897  0.6833  0.7787 -0.3169
  131GLU     CB  151  -0.085   3.298   3.949  0.0406 -0.2652 -0.3655
  131GLU    HB1  152  -0.175   3.240   3.965  0.5134 -0.3495  2.5772
  131GLU    HB2  153   0.009   3.263   3.992 -0.0567 -0.2339 -0.1291
  131GLU     CG  154  -0.067   3.295   3.794  0.0618  0.2371 -0.2552
  131GLU    HG1  155   0.019   3.356   3.765 -0.4262  0.2526 -1.7431
  131GLU    HG2  156  -0.154   3.330   3.740 -0.6013  1.2659  1.4197
  131GLU     CD  157  -0.011   3.149   3.761  0.2111  0.2173 -0.0081
  131GLU    OE1  158  -0.006   3.116   3.642 -0.0794  0.0942 -0.1406
  131GLU    OE2  159   0.026   3.072   3.851 -0.3789  0.1977 -0.6806
  131GLU      C  160  -0.259   3.485   3.983  0.0066  0.0059  0.6507
  131GLU      O  161  -0.326   3.486   3.880  0.2559 -0.5319  0.1766
  132GLY      N  162  -0.321   3.512   4.097  0.3188 -0.5860 -0.0220
  132GLY      H  163  -0.263   3.513   4.180  1.4314 -2.8680 -0.6714
  132GLY     CA  164  -0.457   3.571   4.099 -0.1591  0.0998 -0.2879
  132GLY    HA1  165  -0.487   3.574   4.204 -0.3192 -0.4775 -0.3143
  132GLY    HA2  166  -0.529   3.515   4.040 -1.5816 -1.8169  3.0023
  132GLY      C  167  -0.448   3.712   4.048  0.3184 -0.4085 -0.4136
  132GLY      O  168  -0.450   3.811   4.120  0.0580  0.3910  0.3875
  133TYR      N  169  -0.441   3.720   3.915 -0.4447  0.1339  0.0855
  133TYR      H  170  -0.415   3.638   3.863  0.5222  1.0724 -0.9839
  133TYR     CA  171  -0.432   3.853   3.841  0.1516  0.4056  0.5390
  133TYR     HA  172  -0.343   3.906   3.875 -0.9037  1.9191  1.0147
  133TYR     CB  173  -0.425   3.833   3.691  0.3910  0.8616  0.2384
  133TYR    HB1  174  -0.328   3.788   3.670 -0.3276 -1.5661  1.7651
  133TYR    HB2  175  -0.412   3.927   3.637  0.4005  0.2508 -0.8591
  133TYR     CG  176  -0.535   3.748   3.628 -0.7268  0.4763 -0.4243
  133TYR    CD1  177  -0.648   3.807   3.570  0.2790  0.2789  0.6772
  133TYR    HD1  178  -0.661   3.913   3.584 -0.2342  0.1220  1.4522
  133TYR    CE1  179  -0.732   3.735   3.486 -0.2051 -0.1488 -0.2601
  133TYR    HE1  180  -0.818   3.776   3.437 -0.7104 -1.4991 -0.5528
  133TYR     CZ  181  -0.707   3.597   3.469 -0.1212 -0.3182 -0.5011
  133TYR     OH  182  -0.775   3.519   3.384  0.2395 -0.2796 -0.2836
  133TYR     HH  183  -0.826   3.578   3.328 -1.7671  0.5913  2.2561
  133TYR    CE2  184  -0.603   3.537   3.544  0.2458  0.4123 -0.1128
  133TYR    HE2  185  -0.596   3.430   3.534  1.5429  0.5055 -0.3895
  133TYR    CD2  186  -0.511   3.609   3.621  0.0738  0.0041 -0.6852
  133TYR    HD2  187  -0.426   3.560   3.666  0.1988 -0.6127 -1.5670
  133TYR      C  188  -0.554   3.944   3.862  0.1510  0.1968 -0.6711
  133TYR      O  189  -0.656   3.902   3.924  0.4572  0.6599 -0.2447
  134GLN      N  190  -0.552   4.065   3.816 -0.0510  0.9781 -0.0030
  134GLN      H  191  -0.463   4.095   3.778  2.0631 -2.3640  1.8286
  134GLN     CA  192  -0.660   4.165   3.810  0.0302 -0.3411  0.0543
  134GLN     HA  193  -0.756   4.116   3.828 -0.3610  0.4379  0.1252
  134GLN     CB  194  -0.634   4.272   3.924 -1.3408 -0.3440  0.1462
  134GLN    HB1  195  -0.681   4.368   3.905 -0.6951  0.5736  2.7590
  134GLN    HB2  196  -0.528   4.295   3.937 -1.5622  0.1699  1.1882
  134GLN     CG  197  -0.682   4.224   4.061  0.4915  0.0288  0.4566
  134GLN    HG1  198  -0.624   4.133   4.080  0.7576  0.2442  0.6803
  134GLN    HG2  199  -0.787   4.198   4.048  0.5729 -0.0101 -0.1857
  134GLN     CD  200  -0.673   4.329   4.166  0.1609 -0.0650 -0.6621
  134GLN    OE1  201  -0.649   4.449   4.141 -0.0051  0.1187 -0.0129
  134GLN    NE2  202  -0.711   4.303   4.289 -0.2370  0.2460  0.4072
  134GLN   HE21  203  -0.737   4.381   4.348 -0.0252 -0.7050  1.8172
  134GLN   HE22  204  -0.721   4.207   4.316  1.2725 -0.3725 -1.0671
  134GLN      C  205  -0.670   4.234   3.673  0.2862  1.3082 -0.6457
  134GLN      O  206  -0.583   4.206   3.586  0.5143 -0.2518 -0.2786
  135ASP      N  207  -0.780   4.312   3.643 -0.3621  0.2887  0.1082
  135ASP      H  208  -0.843   4.330   3.719  0.4419  2.6399  0.3029
  135ASP     CA  209  -0.814   4.370   3.512  0.6062 -1.0297  0.1055
  135ASP     HA  210  -0.803   4.293   3.436 -0.7620 -0.3639 -0.8092
  135ASP     CB  211  -0.958   4.429   3.515 -0.5737 -0.2091 -0.1345
  135ASP    HB1  212  -1.024   4.351   3.553 -0.4008 -0.1227  0.3394
  135ASP    HB2  213  -0.983   4.451   3.411  3.8483 -0.5267 -1.4716
  135ASP     CG  214  -0.955   4.558   3.599  0.0809  0.0415 -0.3204
  135ASP    OD1  215  -0.938   4.557   3.723 -0.0608 -0.4742 -1.0928
  135ASP    OD2  216  -0.987   4.673   3.556  0.1316  0.2960  0.0024
  135ASP      C  217  -0.709   4.478   3.479  0.0458  0.5912 -0.3426
  135ASP      O  218  -0.642   4.531   3.569  0.1815 -0.2101 -0.3094
  136TYR      N  219  -0.701   4.522   3.349 -0.1451 -0.4195  0.3000
  136TYR      H  220  -0.746   4.467   3.277  0.4885 -0.5190 -0.0223
  136TYR     CA  221  -0.645   4.652   3.306  0.6404  0.3371 -0.7447
  136TYR     HA  222  -0.661   4.725   3.386  0.6318 -0.8297  0.3574
  136TYR     CB  223  -0.499   4.632   3.285 -0.4408 -0.3999 -0.1956
  136TYR    HB1  224  -0.479   4.526   3.272 -0.7850 -0.6599  1.2093
  136TYR    HB2  225  -0.446   4.653   3.378 -1.0130  2.1023 -0.3690
  136TYR     CG  226  -0.442   4.723   3.173 -0.2496 -0.1027  0.3724
  136TYR    CD1  227  -0.408   4.655   3.054 -0.0422  0.0071  0.0161
  136TYR    HD1  228  -0.414   4.548   3.044  4.3136 -0.3548 -0.9063
  136TYR    CE1  229  -0.337   4.727   2.951  0.4429 -0.8690 -0.0596
  136TYR    HE1  230  -0.310   4.684   2.856  3.4443  1.1438 -0.2233
  136TYR     CZ  231  -0.316   4.864   2.968  0.5751  0.2027 -0.0149
  136TYR     OH  232  -0.249   4.926   2.870 -0.1909  0.3322 -0.3168
  136TYR     HH  233  -0.205   4.863   2.812 -1.9298  0.6166 -2.0456
  136TYR    CE2  234  -0.354   4.929   3.086  0.3974 -0.1742  0.1233
  136TYR    HE2  235  -0.343   5.034   3.109 -0.1582 -0.2917  0.9690
  136TYR    CD2  236  -0.415   4.860   3.191 -0.3349  0.1197 -0.2351
  136TYR    HD2  237  -0.435   4.900   3.289  3.3591 -0.5890  0.9507
  136TYR      C  238  -0.722   4.698   3.178 -0.3185  0.0907 -0.1867
  136TYR      O  239  -0.748   4.626   3.083  0.7105 -0.5094 -0.1051
  137GLU      N  240  -0.765   4.825   3.179 -0.3981 -0.5315  0.6591
  137GLU      H  241  -0.731   4.886   3.252 -2.2453  1.7829 -0.3134
  137GLU     CA  242  -0.828   4.904   3.073  0.1569 -0.0574 -0.0069
  137GLU     HA  243  -0.864   4.834   2.998 -0.0366 -0.9714  0.9172
  137GLU     CB  244  -0.944   4.977   3.136 -0.0450 -0.5062  0.3735
  137GLU    HB1  245  -0.972   5.066   3.080  2.8416 -0.5777 -1.4100
  137GLU    HB2  246  -0.905   5.007   3.233 -0.7344  0.2517  0.4198
  137GLU     CG  247  -1.064   4.895   3.173 -0.0228  0.3174 -0.1773
  137GLU    HG1  248  -1.033   4.814   3.240 -1.5529 -0.5260 -0.4548
  137GLU    HG2  249  -1.096   4.845   3.081 -0.0192 -0.9574  0.4896
  137GLU     CD  250  -1.179   4.965   3.238 -0.2732  0.9170  0.4264
  137GLU    OE1  251  -1.197   5.085   3.208 -0.0690 -0.0192  0.2676
  137GLU    OE2  252  -1.249   4.899   3.319 -0.3112  0.4901 -0.5828
  137GLU      C  253  -0.727   4.994   3.004 -0.1753 -0.2713  0.1412
  137GLU      O  254  -0.658   5.067   3.071  1.3405 -0.0680  0.2581
  138PRO      N  255  -0.700   4.996   2.868 -0.3586 -0.1041 -0.0380
  138PRO     CD  256  -0.735   4.889   2.776 -0.2439 -0.0442  0.4723
  138PRO    HD1  257  -0.842   4.867   2.774  0.2512 -2.6977 -0.8287
  138PRO    HD2  258  -0.671   4.805   2.801  0.6986  0.3319 -0.5948
  138PRO     CG  259  -0.689   4.935   2.634 -0.6468 -0.4912 -0.6281
  138PRO    HG1  260  -0.771   4.974   2.573  1.7879  2.4125 -2.3275
  138PRO    HG2  261  -0.639   4.855   2.579  1.1046 -0.3478  0.6924
  138PRO     CB  262  -0.577   5.038   2.669 -0.1234  0.2041  0.1814
  138PRO    HB1  263  -0.481   4.988   2.680  0.8096  1.4587 -1.6317
  138PRO    HB2  264  -0.570   5.113   2.590  0.3252 -0.0887 -0.0603
  138PRO     CA  265  -0.618   5.096   2.804 -0.3159  0.5925 -0.3155
  138PRO     HA  266  -0.525   5.093   2.861 -0.4297 -2.9989 -0.1291
  138PRO      C  267  -0.678   5.238   2.814  0.2969  0.7292 -0.5830
  138PRO      O  268  -0.799   5.253   2.778 -0.4641 -0.0502 -0.1788
  139GLU      N  269  -0.601   5.338   2.860  0.3342  0.0459  0.0499
  139GLU      H  270  -0.500   5.332   2.867  0.3818 -1.9469 -1.4103
  139GLU     CA  271  -0.649   5.475   2.862  0.1926  0.1169 -0.1897
  139GLU     HA  272  -0.750   5.479   2.901  1.4425 -1.2995  3.6533
  139GLU     CB  273  -0.561   5.550   2.958  0.1700 -0.2600 -0.7866
  139GLU    HB1  274  -0.457   5.540   2.927  1.4327 -1.2220  3.1136
  139GLU    HB2  275  -0.586   5.498   3.051  2.4408 -0.0787 -0.0132
  139GLU     CG  276  -0.576   5.699   2.965  0.3633 -0.5191  0.0086
  139GLU    HG1  277  -0.683   5.721   2.970  0.5034 -0.1132  2.3355
  139GLU    HG2  278  -0.529   5.752   2.882  0.1252  0.3287  0.4064
  139GLU     CD  279  -0.498   5.760   3.086  0.5524  0.2901  0.2576
  139GLU    OE1  280  -0.441   5.691   3.177  0.1637  0.2619  0.5388
  139GLU    OE2  281  -0.494   5.884   3.089 -0.3051  0.6523 -0.3848
  139GLU      C  282  -0.656   5.529   2.722 -0.1990 -0.1677  0.0435
  139GLU      O  283  -0.582   5.485   2.631  0.2585 -0.2183 -0.6632
  140CALA     N  284  -0.729   5.636   2.700  0.1148  0.1694 -0.0174
  140CALA     H  285  -0.794   5.659   2.773  0.2829 -3.2523  1.3568
  140CALA    CA  286  -0.739   5.712   2.567  0.3127  0.6540 -0.6478
  140CALA    HA  287  -0.652   5.693   2.505  0.8565  1.6784 -0.2203
  140CALA    CB  288  -0.854   5.670   2.475  0.0833 -0.1452 -0.3783
  140CALA   HB1  289  -0.876   5.563   2.471  1.8660 -0.7610  3.0080
  140CALA   HB2  290  -0.829   5.715   2.379  5.2598 -0.2276  0.6322
  140CALA   HB3  291  -0.949   5.719   2.498 -1.0211 -2.1029 -0.5222
  140CALA     C  292  -0.730   5.866   2.605 -0.3710  0.2475 -0.5284
  140CALA   OC1  293  -0.818   5.913   2.680 -0.3806 -0.4234  0.2144
  140CALA   OC2  294  -0.627   5.931   2.573 -0.3634  0.3550  0.0881
  141FAS      C  295   5.154   5.879   4.418 -0.2372 -0.7705  0.0226
  141FAS     C1  296   5.253   5.916   4.303 -0.3859 -0.7978  0.0706
  141FAS      N  297   5.213   6.037   4.220  0.4287 -0.1795  0.1578
  141FAS     C2  298   5.156   6.151   4.299  0.3721  0.4127  0.3508
  141FAS     C3  299   5.219   6.186   4.434 -0.4394  0.2798  0.3638
  141FAS     N1  300   5.177   6.092   4.548 -0.2045 -0.1989  0.3995
  141FAS     C4  301   5.202   5.945   4.546 -0.2975 -0.0606  0.3570
  141FAS      S  302   5.233   6.158   4.691 -0.0197  0.0446 -0.1195
  141FAS      O  303   5.163   6.073   4.789  0.3759  0.4014  0.9122
  141FAS     O1  304   5.382   6.164   4.692  0.1697 -0.5715  0.2445
  141FAS     C5  305   5.142   6.315   4.700  0.2999 -0.3958 -0.7345
  141FAS     C6  306   5.225   6.431   4.720 -0.0452 -0.1914 -0.0392
  141FAS     C7  307   5.166   6.556   4.738  0.5957 -0.0987 -0.4884
  141FAS     C8  308   5.024   6.567   4.739 -0.1863 -0.2743  0.5136
  141FAS     C9  309   4.948   6.451   4.721  0.0927  0.1367 -0.4548
  141FAS    C10  310   5.006   6.326   4.704  0.0652 -0.5190  0.8600
  141FAS    C11  311   4.919   6.217   4.688 -0.7737 -0.4966  0.3931
  141FAS    C12  312   4.785   6.239   4.685  0.0656  0.5128  0.4549
  141FAS     N2  313   4.728   6.355   4.704  0.4650 -0.3057  0.0871
  141FAS    C13  314   4.809   6.459   4.719  0.3757 -0.2741  0.1740
  141FAS      H  315   5.164   5.771   4.434 -3.2552 -1.4518 -1.6739
  141FAS     H1  316   5.045   5.886   4.403 -0.5250 -2.9742  0.6153
  141FAS     H2  317   5.268   5.832   4.235  3.1444 -0.5018  0.3329
  141FAS     H3  318   5.347   5.949   4.348 -1.4164  1.4317  0.7718
  141FAS     H4  319   5.294   6.075   4.168  0.6434 -0.8698 -0.0193
  141FAS     H5  320   5.052   6.135   4.325  0.7301  0.9395  2.3165
  141FAS     H6  321   5.167   6.239   4.235  0.8677  0.1022 -0.0053
  141FAS     H7  322   5.192   6.289   4.461  2.9903  0.7433  2.7204
  141FAS     H8  323   5.327   6.189   4.418 -0.3384  1.9578  1.1506
  141FAS     H9  324   5.139   5.896   4.620 -0.2665  1.0807  1.1630
  141FAS    H10  325   5.309   5.923   4.548  0.2209  2.1596  0.2564
  141FAS    H11  326   5.333   6.425   4.710 -0.1846  0.7912 -3.0685
  141FAS    H12  327   5.219   6.648   4.757  0.9970 -0.5979  0.9006
  141FAS    H13  328   4.975   6.663   4.755  0.8965  0.6892 -1.5517
  141FAS    H14  329   4.951   6.116   4.663 -0.1042 -0.3443  0.6083
  141FAS    H15  330   4.719   6.153   4.685  0.3362  0.2016 -2.3554
  141FAS    H16  331   4.765   6.558   4.708  0.8874 -0.0251  0.3582
  141FAS    H17  332   5.140   6.022   4.149 -1.6825  2.8928  1.4362
  142SOL     OW  333   5.586   6.403   2.340  0.1598  0.7112 -0.1375
  142SOL    HW2  334   5.523   6.403   2.412  0.7761  1.8294  0.4124
  142SOL    HW3  335   5.622   6.491   2.338  2.5999 -0.1755  0.3385
  142SOL    MW4  336   5.582   6.414   2.349 -0.3549 -0.4265 -0.0833
  143SOL     OW  337   2.476   4.601   2.265 -0.1715  0.3691  0.2998
  143SOL    HW2  338   2.466   4.643   2.180 -0.0509  1.0030  0.5904
  143SOL    HW3  339   2.563   4.627   2.295  1.0756 -2.3299 -0.7083
  143SOL    MW4  340   2.486   4.610   2.258  0.0294 -0.3935 -0.1082
  144SOL     OW  341   6.420   2.266   1.682 -0.3887 -0.1327  0.1358
  144SOL    HW2  342   6.493   2.223   1.726 -0.0290  0.5998  0.2797
  144SOL    HW3  343   6.456   2.350   1.652 -0.9727 -0.0749 -0.4389
  144SOL    MW4  344   6.435   2.272   1.684 -0.4449 -0.0821 -0.1382
  145SOL     OW  345   2.241   4.857   1.197 -0.1106 -0.5795  0.1980
  145SOL    HW2  346   2.177   4.815   1.253 -1.4640  0.0656 -0.7929
  145SOL    HW3  347   2.277   4.928   1.250 -1.1494 -0.1657  0.3709
  145SOL    MW4  348   2.237   4.861   1.211 -0.3520 -0.6371  0.3189
  146SOL     OW  349   4.283   5.143   2.248  0.1465  0.3526 -0.0423
  146SOL    HW2  350   4.272   5.122   2.155  0.4780 -0.0084  0.0018
  146SOL    HW3  351   4.211   5.204   2.267 -0.4730 -0.2821 -0.3127
  146SOL    MW4  352   4.272   5.148   2.238  0.5609  0.0427  0.2338
  147SOL     OW  353   1.710   5.390   1.135  0.4883 -0.1120  0.2438
  147SOL    HW2  354   1.618   5.364   1.130  0.2643  0.7091  0.0702
  147SOL    HW3  355   1.710   5.470   1.187  1.3894 -1.5077  2.5925
  147SOL    MW4  356   1.698   5.397   1.141  0.1502  0.4002 -0.3826
  148SOL     OW  357   3.069   2.333   3.357  0.3047 -0.3418 -0.4199
  148SOL    HW2  358   3.101   2.243   3.352  0.7616 -0.1912 -0.2659
  148SOL    HW3  359   3.147   2.387   3.347  0.1677  0.0283  0.4342
  148SOL    MW4  360   3.083   2.328   3.355 -0.0178 -0.3856  0.1815
  149SOL     OW  361   2.046   5.447   5.636 -0.6140 -0.5200 -0.3463
  149SOL    HW2  362   2.128   5.399   5.648 -0.5613 -0.6675 -1.1817
  149SOL    HW3  363   2.004   5.446   5.722  0.3729 -0.2245  0.1513
  149SOL    MW4  364   2.051   5.440   5.649 -0.2656 -0.3249 -0.1667
  150SOL     OW  365   1.723   6.251   5.136  0.0292 -0.0258 -0.4180
  150SOL    HW2  366   1.705   6.230   5.228  0.0890  1.7015  0.0148
  150SOL    HW3  367   1.743   6.344   5.136 -1.6998  0.4123 -2.4418
  150SOL    MW4  368   1.723   6.260   5.148  0.7821 -0.1951  0.8293
  151SOL     OW  369   6.282   0.069   5.065  0.3679  0.5655 -0.2031
  151SOL    HW2  370   6.286   0.165   5.071  1.3471  0.4374  3.4333
  151SOL    HW3  371   6.235   0.042   5.144  1.7198 -2.0337 -0.1891
  151SOL    MW4  372   6.276   0.078   5.077  0.1824  0.5449 -0.4579
  152SOL     OW  373   1.564   3.322   4.061  0.1220  0.6347  0.2153
  152SOL    HW2  374   1.527   3.241   4.096 -1.3668  2.2881  2.7926
  152SOL    HW3  375   1.517   3.337   3.979 -1.7096  0.3457  1.1641
  152SOL    MW4  376   1.553   3.313   4.055  0.2969  0.6139  0.1398
  153SOL     OW  377   1.599   1.964   2.509  0.1405  0.1295 -0.3439
  153SOL    HW2  378   1.622   1.889   2.563 -0.3333  0.6912  0.6597
  153SOL    HW3  379   1.626   2.040   2.560 -1.9265  0.7335 -0.0826
  153SOL    MW4  380   1.606   1.964   2.523 -0.0133  0.1889 -0.1732
  154SOL     OW  381   2.555   1.494   6.309 -0.1748  0.2696 -0.3123
  154SOL    HW2  382   2.513   1.408   6.304  0.8145 -0.3776  1.5002
  154SOL    HW3  383   2.646   1.478   6.282  0.5846  0.2367  2.0528
  154SOL    MW4  384   2.562   1.480   6.305  0.3502 -0.1435 -0.5608
  155SOL     OW  385   4.567   3.285   3.381  0.1761  0.4632  0.0192
  155SOL    HW2  386   4.575   3.194   3.353  0.5211  0.7520 -0.8571
  155SOL    HW3  387   4.603   3.286   3.470 -0.9859 -0.4825  0.5334
  155SOL    MW4  388   4.573   3.273   3.389  0.4250 -0.4187  0.2172
  156SOL     OW  389   5.697   1.630   1.430 -0.3377 -0.5703 -0.2892
  156SOL    HW2  390   5.716   1.591   1.515  0.6700 -0.6814 -0.5562
  156SOL    HW3  391   5.695   1.724   1.446  0.0971 -0.5777 -0.1936
  156SOL    MW4  392   5.699   1.637   1.443  0.0795  0.8012  0.0112
  157SOL     OW  393   2.578   0.987   5.709 -0.2641 -0.0664  0.1133
  157SOL    HW2  394   2.564   0.904   5.665 -0.3281  0.2290 -0.4358
  157SOL    HW3  395   2.609   1.046   5.640  1.3080 -0.0454  0.8100
  157SOL    MW4  396   2.580   0.984   5.694 -0.6020  0.1737  0.4612
  158SOL     OW  397   3.292   1.713   0.751 -0.0603  0.0300 -0.7471
  158SOL    HW2  398   3.336   1.779   0.804 -3.2451  2.8577 -1.2083
  158SOL    HW3  399   3.291   1.750   0.663 -1.4048 -0.8785 -1.1504
  158SOL    MW4  400   3.297   1.726   0.747  0.0396  0.3999 -0.0751
  159SOL     OW  401   3.699   1.371   5.138  0.4115  0.2781 -0.2125
  159SOL    HW2  402   3.628   1.423   5.102 -0.3423 -0.7949 -0.3183
  159SOL    HW3  403   3.777   1.402   5.092 -0.1250  0.8210 -0.7718
  159SOL    MW4  404   3.700   1.382   5.127 -0.0089  0.7492 -0.0173
  160SOL     OW  405   0.465   0.065   1.649  0.3028  0.1129  0.8468
  160SOL    HW2  406   0.554   0.030   1.649  0.1484 -0.3003 -0.2344
  160SOL    HW3  407   0.429   0.039   1.565 -0.5966  0.9254  0.9706
  160SOL    MW4  408   0.472   0.057   1.638  0.4500  0.0314  0.1790
  161SOL     OW  409   5.461   3.238   4.076 -0.3603 -0.5161  0.2281
  161SOL    HW2  410   5.532   3.228   4.140 -0.2792  1.8751  0.6173
  161SOL    HW3  411   5.391   3.281   4.125 -1.1213 -0.5825 -0.7821
  161SOL    MW4  412   5.461   3.242   4.091 -0.0865 -0.3570 -1.1723
  162SOL     OW  413   5.807   1.480   5.840  0.5027 -0.3846 -0.7839
  162SOL    HW2  414   5.741   1.414   5.859  1.1343 -0.8055  0.0005
  162SOL    HW3  415   5.810   1.534   5.919  0.0657  0.5412 -1.3754
  162SOL    MW4  416   5.798   1.479   5.853  0.2540  0.5490 -0.1767
  163SOL     OW  417   1.340   2.038   2.437  0.0142 -0.4423  0.0090
  163SOL    HW2  418   1.282   2.009   2.508 -1.2462  0.4687 -0.5933
  163SOL    HW3  419   1.428   2.022   2.470 -0.5531 -3.3629  0.3323
  163SOL    MW4  420   1.344   2.032   2.451  0.2135  0.1975  0.0351
  164SOL     OW  421   5.850   0.598   1.832 -0.2186 -0.0334 -0.0320
  164SOL    HW2  422   5.755   0.606   1.843 -0.2833  1.4442 -1.4366
  164SOL    HW3  423   5.861   0.559   1.745  0.4712  0.3343 -0.1157
  164SOL    MW4  424   5.839   0.594   1.822  0.6016  0.2541  0.0266
  165SOL     OW  425   1.942   4.769   5.898  0.4727  0.4655  0.7888
  165SOL    HW2  426   1.906   4.682   5.881 -0.0449  1.2452 -3.0949
  165SOL    HW3  427   2.036   4.756   5.903  0.5337 -0.2179 -1.3077
  165SOL    MW4  428   1.949   4.756   5.897 -0.1402 -0.1438 -0.0310
  166SOL     OW  429   1.335   0.104   0.554  0.8923  0.0852  0.2763
  166SOL    HW2  430   1.284   0.140   0.627  0.1018  2.5989 -1.3950
  166SOL    HW3  431   1.278   0.037   0.516  0.6226 -0.0688  0.9370
  166SOL    MW4  432   1.321   0.100   0.559 -0.0965 -0.4564  0.2864
  167SOL     OW  433   6.438   6.242   4.846  0.4783  0.0164 -0.0180
  167SOL    HW2  434   6.534   6.244   4.850  0.4707  2.0975  0.1961
  167SOL    HW3  435   6.418   6.165   4.792  2.2519 -0.4927 -0.0187
  167SOL    MW4  436   6.448   6.232   4.839  1.1520 -0.4565 -0.2523
  168SOL     OW  437   2.585   0.406   3.206  0.3437 -0.4548  0.7769
  168SOL    HW2  438   2.607   0.492   3.241  1.5415  0.2636 -1.5319
  168SOL    HW3  439   2.503   0.421   3.157  0.8175 -0.4877 -0.0380
  168SOL    MW4  440   2.577   0.419   3.204 -0.3175  0.1064 -0.1344
  169SOL     OW  441   0.448   4.943   5.918 -0.1421  0.4163 -0.3690
  169SOL    HW2  442   0.437   4.956   6.013 -0.1207 -0.8066 -0.1771
  169SOL    HW3  443   0.480   4.853   5.910 -0.7661  0.2804 -1.5790
  169SOL    MW4  444   0.451   4.933   5.930 -0.1250  0.0349 -0.2526
  170SOL     OW  445   3.336   2.441   0.347 -0.1517  0.2487  0.0465
  170SOL    HW2  446   3.285   2.374   0.302 -0.3125 -1.4415  2.5658
  170SOL    HW3  447   3.411   2.455   0.290 -0.9635 -0.8016 -1.3724
  170SOL    MW4  448   3.339   2.434   0.333  0.2058 -0.1632  0.4057
  171SOL     OW  449   4.858   1.172   1.543  0.6797  0.3831  0.2830
  171SOL    HW2  450   4.934   1.121   1.572  1.0367  0.9669  0.3918
  171SOL    HW3  451   4.891   1.225   1.471  0.2069  0.1693 -0.0983
  171SOL    MW4  452   4.872   1.172   1.537 -0.0419 -0.3610 -0.2458
  172SOL     OW  453   0.557   2.688   6.162 -0.1705 -0.8813  0.1486
  172SOL    HW2  454   0.593   2.685   6.074  0.2165  0.6031  0.2336
  172SOL    HW3  455   0.494   2.616   6.164 -0.7752 -0.4581 -1.6039
  172SOL    MW4  456   0.553   2.678   6.151  0.4137  0.1314 -0.5659
  173SOL     OW  457   1.653   5.035   1.126  0.0744 -0.1811  0.0976
  173SOL    HW2  458   1.734   5.064   1.169 -0.8465  1.9580  0.5252
  173SOL    HW3  459   1.609   4.982   1.193  0.1840  0.3322  0.5824
  173SOL    MW4  460   1.658   5.032   1.141  0.4273 -0.3506  0.2961
  174SOL     OW  461   1.021   0.844   0.651  0.4465 -0.2622 -0.3878
  174SOL    HW2  462   1.082   0.888   0.592  1.7342 -0.6390  0.6108
  174SOL    HW3  463   1.065   0.762   0.675 -1.1528 -1.3115 -0.8629
  174SOL    MW4  464   1.035   0.839   0.646  0.2271  0.0440  0.2759
  175SOL     OW  465   2.747   3.266   5.609  0.0921 -0.4772  0.5207
  175SOL    HW2  466   2.670   3.211   5.595 -0.2572  0.1170  0.0194
  175SOL    HW3  467   2.806   3.213   5.663  1.0384 -2.5206 -2.2705
  175SOL    MW4  468   2.745   3.252   5.614  0.0865 -0.2629 -0.1982
  176SOL     OW  469   1.091   2.559   6.329  0.1697 -0.0446  0.1081
  176SOL    HW2  470   1.164   2.498   6.314  0.6607  0.7319 -0.7451
  176SOL    HW3  471   1.131   2.634   6.373 -0.1437  0.3185 -0.2224
  176SOL    MW4  472   1.106   2.561   6.333 -0.0523  0.2451  0.0924
  177SOL     OW  473   2.848   3.163   1.888  0.4359  0.9249 -0.2314
  177SOL    HW2  474   2.932   3.131   1.856 -0.9972 -1.1075 -2.3083
  177SOL    HW3  475   2.818   3.094   1.947  0.4916  1.9490  1.0169
  177SOL    MW4  476   2.855   3.150   1.891 -0.8526  0.7949 -0.0940
  178SOL     OW  477   1.330   6.415   2.315 -0.2335  0.3664 -0.3224
  178SOL    HW2  478   1.383   6.392   2.238 -1.3142 -0.0673 -0.9568
  178SOL    HW3  479   1.375   6.373   2.388 -0.5618 -1.3825 -1.0670
  178SOL    MW4  480   1.343   6.407   2.314  0.1909  0.5049  0.3353
  179SOL     OW  481   5.858   5.536   3.870  0.0913  0.2901 -0.0470
  179SOL    HW2  482   5.839   5.602   3.935 -0.2531 -1.3142  1.5502
  179SOL    HW3  483   5.904   5.467   3.918  0.3681 -0.6799 -1.6210
  179SOL    MW4  484   5.862   5.535   3.885  0.4118  0.0006 -0.0562
  180SOL     OW  485   5.869   5.939   0.759  0.9024  0.1637 -0.1598
  180SOL    HW2  486   5.915   5.914   0.839  2.3902  2.3817 -0.2395
  180SOL    HW3  487   5.907   5.884   0.691  0.9281 -0.4633  0.3509
  180SOL    MW4  488   5.880   5.929   0.761 -0.0936  0.5778  0.0742
  181SOL     OW  489   1.864   4.264   3.695 -0.4207 -0.1926 -0.3907
  181SOL    HW2  490   1.885   4.176   3.664 -0.7484 -0.3018 -0.3005
  181SOL    HW3  491   1.922   4.278   3.770  0.9988  0.3983 -1.5457
  181SOL    MW4  492   1.875   4.254   3.701 -0.3368  0.4530  0.3004
  182SOL     OW  493   2.290   6.117   1.257 -0.7294 -0.4598  0.0652
  182SOL    HW2  494   2.310   6.140   1.167 -0.4611 -1.6807 -0.2035
  182SOL    HW3  495   2.240   6.035   1.250  0.1888 -1.1244  1.0703
  182SOL    MW4  496   2.286   6.109   1.244  0.3535 -0.4214 -0.6615
  183SOL     OW  497   3.021   1.181   1.613  0.0272 -0.1369  0.7666
  183SOL    HW2  498   3.076   1.146   1.683 -1.3744  0.9908  2.5354
  183SOL    HW3  499   3.048   1.273   1.604 -0.1000 -0.1565  0.1320
  183SOL    MW4  500   3.032   1.189   1.621 -0.1746 -0.5433  0.1342
  184SOL     OW  501   3.564   2.245   5.247 -0.0089  0.2257  0.1395
  184SOL    HW2  502   3.504   2.180   5.211  0.3230 -0.2951  0.5058
  184SOL    HW3  503   3.508   2.304   5.298 -0.1297 -0.7215  1.1501
  184SOL    MW4  504   3.549   2.244   5.249 -0.2773 -0.1579 -0.0627
  185SOL     OW  505   0.342   1.783   4.756 -0.3032 -0.1218  0.1588
  185SOL    HW2  506   0.332   1.867   4.710  0.0189  0.1825  0.6310
  185SOL    HW3  507   0.423   1.794   4.807  0.6450 -1.3008 -1.0230
  185SOL    MW4  508   0.352   1.796   4.756 -0.3132 -0.2903  0.1173
  186SOL     OW  509   2.810   6.003   2.773  0.6545  0.1118  0.3922
  186SOL    HW2  510   2.780   6.060   2.844  1.5076  1.1310 -0.0344
  186SOL    HW3  511   2.855   6.062   2.712  2.2638 -1.1155  0.3134
  186SOL    MW4  512   2.812   6.018   2.774 -0.7560 -0.4484  0.9844
  187SOL     OW  513   3.076   3.319   0.473  0.5102 -0.0868 -0.3928
  187SOL    HW2  514   3.083   3.273   0.390  0.7840 -3.7855  1.4739
  187SOL    HW3  515   3.166   3.335   0.499  0.4569  0.0482 -0.2895
  187SOL    MW4  516   3.089   3.315   0.466  0.4857  0.4128 -0.4046
  188SOL     OW  517   3.025   0.462   0.141 -0.0580  0.1620  0.3469
  188SOL    HW2  518   3.016   0.440   0.048  0.2513  1.2852  0.0324
  188SOL    HW3  519   3.109   0.425   0.167  1.4729  2.6099 -0.7188
  188SOL    MW4  520   3.035   0.454   0.132  0.2314 -0.1805 -0.1300
  189SOL     OW  521   3.120   0.368   4.811  0.2934 -0.0890  0.1303
  189SOL    HW2  522   3.085   0.433   4.749 -0.4220 -2.4992 -2.2097
  189SOL    HW3  523   3.195   0.330   4.765 -1.1465 -2.9843 -0.0391
  189SOL    MW4  524   3.125   0.372   4.796  0.8149  0.1648  0.0176
  190SOL     OW  525   6.032   2.276   0.184  0.6455  0.3535  0.2504
  190SOL    HW2  526   6.119   2.255   0.151  0.2699 -0.3751 -0.3123
  190SOL    HW3  527   6.021   2.219   0.260 -0.4672 -1.8320 -1.4161
  190SOL    MW4  528   6.042   2.266   0.189 -0.0232 -0.5424  0.1983
  191SOL     OW  529   1.052   4.070   5.460  0.1114 -0.4925  0.0174
  191SOL    HW2  530   1.145   4.092   5.450  0.5005 -1.7346  0.7576
  191SOL    HW3  531   1.015   4.144   5.507  1.0649 -0.6602  1.0889
  191SOL    MW4  532   1.059   4.082   5.465  0.0090 -0.1399 -0.2799
  192SOL     OW  533   0.318   6.132   3.135  0.5602  0.7505  0.1020
  192SOL    HW2  534   0.377   6.063   3.166 -0.9027 -0.9057 -0.6022
  192SOL    HW3  535   0.361   6.214   3.160  1.3754 -0.4058  2.8664
  192SOL    MW4  536   0.331   6.134   3.143  0.0768  0.2845  0.3496
  193SOL     OW  537   4.335   3.628   0.078 -0.1104 -0.4681 -0.1355
  193SOL    HW2  538   4.244   3.647   0.103 -0.3325 -1.7368  0.0833
  193SOL    HW3  539   4.360   3.702   0.023 -1.4867 -0.3884 -0.7068
  193SOL    MW4  540   4.326   3.640   0.074 -0.0242  0.0213  0.3743
  194SOL     OW  541   2.501   2.727   0.814  0.1515  0.0457  0.4884
  194SOL    HW2  542   2.491   2.815   0.776 -0.1879  0.3597  1.2805
  194SOL    HW3  543   2.568   2.685   0.760  1.0736  1.1576  0.7225
  194SOL    MW4  544   2.509   2.733   0.802 -0.5454 -0.3476  0.2058
  195SOL     OW  545   4.995   3.358   2.503  0.4255  0.3277 -0.5992
  195SOL    HW2  546   5.009   3.315   2.587  0.0557  0.6433 -0.3717
  195SOL    HW3  547   4.971   3.448   2.526 -0.4912  0.2038 -1.0129
  195SOL    MW4  548   4.994   3.364   2.517 -0.1391  0.1598  0.3792
  196SOL     OW  549   1.646   1.372   5.946 -0.1279 -0.5769  0.0666
  196SOL    HW2  550   1.596   1.304   5.900  0.3525 -0.0444 -1.2724
  196SOL    HW3  551   1.579   1.421   5.993 -0.9862  0.3778 -2.0308
  196SOL    MW4  552   1.630   1.369   5.946 -0.0574 -0.4284  0.5719
  197SOL     OW  553   4.300   2.446   0.184  0.1022  0.2246  0.1637
  197SOL    HW2  554   4.290   2.395   0.104  1.0098 -0.0248  0.1978
  197SOL    HW3  555   4.271   2.387   0.254 -0.7036  0.4484  0.0279
  197SOL    MW4  556   4.295   2.432   0.183 -0.1288  1.1293 -0.0781
  198SOL     OW  557   4.194   0.108   3.616  0.0440  0.1948  0.3840
  198SOL    HW2  558   4.258   0.102   3.687  1.1789  0.9320 -0.5467
  198SOL    HW3  559   4.153   0.021   3.613  1.9777 -0.7536  0.1052
  198SOL    MW4  560   4.197   0.095   3.625  0.7158 -0.0896 -0.0463
  199SOL     OW  561   5.417   2.313   4.953  0.4401 -0.0430  0.4934
  199SOL    HW2  562   5.341   2.271   4.993  0.3388  0.1691  0.5259
  199SOL    HW3  563   5.442   2.381   5.016  0.0723  0.5190  0.0424
  199SOL    MW4  564   5.410   2.316   4.967  0.2922  0.0561 -0.0126
  200SOL     OW  565   5.485   5.821   0.244 -0.5892 -0.3916 -0.3508
  200SOL    HW2  566   5.478   5.902   0.294  3.0602  0.3552 -0.7597
  200SOL    HW3  567   5.495   5.850   0.153  1.1977 -1.1849 -0.4556
  200SOL    MW4  568   5.486   5.836   0.238 -0.1039 -0.1193 -0.1321
  201SOL     OW  569   4.518   0.916   4.470 -0.2014 -0.0728 -0.3080
  201SOL    HW2  570   4.549   0.883   4.554 -3.1571 -0.2484  0.8157
  201SOL    HW3  571   4.518   0.839   4.412  0.3749 -0.2890 -0.0273
  201SOL    MW4  572   4.522   0.901   4.473  0.3219  0.1184  0.1703
  202SOL     OW  573   1.966   1.731   1.814 -0.3366 -0.2897  0.4066
  202SOL    HW2  574   1.894   1.690   1.766 -0.1850  0.0895 -0.1515
  202SOL    HW3  575   1.943   1.720   1.906 -1.9632  1.3355  0.2369
  202SOL    MW4  576   1.954   1.724   1.819 -0.2785 -0.0002 -0.6030
  203SOL     OW  577   5.350   3.315   5.691  0.2284 -0.1820 -0.6275
  203SOL    HW2  578   5.331   3.409   5.686 -0.4923 -0.3581 -1.5668
  203SOL    HW3  579   5.394   3.304   5.775 -0.5148  0.8508 -0.0717
  203SOL    MW4  580   5.353   3.326   5.701  0.4768  0.2692  0.0489
  204SOL     OW  581   3.992   2.266   3.796 -0.5943  0.4817 -0.8278
  204SOL    HW2  582   4.009   2.350   3.753 -0.9541  0.4430 -1.0538
  204SOL    HW3  583   4.048   2.267   3.874 -1.4088  1.4137 -0.2240
  204SOL    MW4  584   4.002   2.277   3.801 -0.1460  0.0940 -0.1860
  205SOL     OW  585   4.409   2.326   2.919 -0.0977 -0.1715  0.2430
  205SOL    HW2  586   4.348   2.268   2.965  0.2798 -0.4679  0.3846
  205SOL    HW3  587   4.493   2.279   2.923 -0.0548 -0.1883 -0.7279
  205SOL    MW4  588   4.412   2.312   2.926 -0.0224 -1.1271  0.0612
  206SOL     OW  589   1.331   3.532   0.870  0.1402 -0.2511  0.5003
  206SOL    HW2  590   1.254   3.477   0.884  0.0060  0.0974  1.1691
  206SOL    HW3  591   1.400   3.491   0.923  0.0372  0.2182  1.0113
  206SOL    MW4  592   1.330   3.519   0.879  0.7590 -0.3265  1.0641
  207SOL     OW  593   6.251   5.001   0.720 -0.0962  0.4221  0.0547
  207SOL    HW2  594   6.164   5.035   0.699 -0.3671 -0.4348 -0.2245
  207SOL    HW3  595   6.254   4.999   0.816  0.0411  1.5126  0.0869
  207SOL    MW4  596   6.240   5.005   0.730 -0.3631 -0.5161  0.0274
  208SOL     OW  597   2.183   2.958   0.561 -0.6908  0.4257  0.2594
  208SOL    HW2  598   2.141   2.872   0.574  1.5722 -0.3916  3.5500
  208SOL    HW3  599   2.137   3.016   0.621  0.8166  0.2226  1.7009
  208SOL    MW4  600   2.172   2.954   0.571 -0.6421  0.7784 -0.8582
  209SOL     OW  601   2.771   1.415   1.487 -0.6354 -0.2627  0.1082
  209SOL    HW2  602   2.700   1.355   1.510 -2.5682  0.7099 -2.7374
  209SOL    HW3  603   2.800   1.385   1.401  0.3881  1.1280 -0.0583
  209SOL    MW4  604   2.765   1.403   1.479  0.3853 -0.4432 -0.1382
  210SOL     OW  605   3.994   2.284   2.702  0.1618  0.5533 -0.0110
  210SOL    HW2  606   3.981   2.281   2.797 -2.6677 -0.4099 -0.3543
  210SOL    HW3  607   3.929   2.346   2.671  0.9764  0.7668 -1.3590
  210SOL    MW4  608   3.984   2.292   2.711  0.1457 -0.1305 -0.7125
  211SOL     OW  609   5.274   5.644   0.205  0.1861  0.3922  0.3366
  211SOL    HW2  610   5.214   5.659   0.279  0.8554  0.4226  0.8853
  211SOL    HW3  611   5.344   5.707   0.218  1.6368 -1.2957  1.1378
  211SOL    MW4  612   5.275   5.654   0.217 -0.0902 -0.2315  0.3810
  212SOL     OW  613   5.625   4.600   0.498 -0.0457 -0.2532 -0.6108
  212SOL    HW2  614   5.718   4.577   0.499  0.2767  0.8740 -2.1348
  212SOL    HW3  615   5.585   4.539   0.560  1.5569 -1.3819 -0.6269
  212SOL    MW4  616   5.632   4.589   0.507  0.8493 -0.6217  0.2204
  213SOL     OW  617   2.194   0.629   6.013 -0.4667 -0.3023 -0.1925
  213SOL    HW2  618   2.219   0.577   5.936  1.7670  1.0731 -0.5035
  213SOL    HW3  619   2.276   0.641   6.061 -1.6195 -0.1973  1.8618
  213SOL    MW4  620   2.208   0.624   6.009 -0.4397  0.3321 -0.7658
  214SOL     OW  621   4.587   6.199   3.467  0.2140  0.3788  0.2477
  214SOL    HW2  622   4.628   6.124   3.424  0.1568  0.9152 -0.7745
  214SOL    HW3  623   4.494   6.191   3.446  0.4607  1.8631 -1.7157
  214SOL    MW4  624   4.580   6.189   3.459  0.1189  0.0760  0.0044
  215SOL     OW  625   3.592   0.558   2.381 -0.4777 -0.2604 -0.0152
  215SOL    HW2  626   3.678   0.601   2.377 -0.3401 -0.3219  1.5955
  215SOL    HW3  627   3.530   0.630   2.389 -0.6938 -0.1688 -1.9930
  215SOL    MW4  628   3.595   0.573   2.382  0.2848 -0.3174 -0.3948
  216SOL     OW  629   5.613   1.316   3.583 -0.5019  0.0472  0.4858
  216SOL    HW2  630   5.662   1.375   3.526 -0.1753 -0.6776 -0.0076
  216SOL    HW3  631   5.578   1.249   3.524  0.6222 -1.2543  1.2129
  216SOL    MW4  632   5.615   1.315   3.568  0.1486 -0.0347 -0.7733
  217SOL     OW  633   0.418   3.692   5.098 -0.1942  0.1016 -0.1797
  217SOL    HW2  634   0.356   3.632   5.058  0.2306  0.1022 -0.8630
  217SOL    HW3  635   0.365   3.750   5.152 -0.4744 -1.6640  1.5169
  217SOL    MW4  636   0.403   3.692   5.100 -0.6809 -1.0611 -0.8302
  218SOL     OW  637   2.345   5.951   1.642 -0.1417  0.1874  1.2443
  218SOL    HW2  638   2.307   5.946   1.729 -2.7830  0.9306  0.2370
  218SOL    HW3  639   2.305   5.878   1.594 -0.3183  0.9921  0.1331
  218SOL    MW4  640   2.335   5.941   1.647  0.0934 -0.6509  0.2753
  219SOL     OW  641   0.170   4.635   6.412  0.9133 -0.1954 -0.2311
  219SOL    HW2  642   0.089   4.647   6.363  0.0459 -0.8561  0.9835
  219SOL    HW3  643   0.180   4.716   6.463  1.4546  0.2114 -0.9650
  219SOL    MW4  644   0.161   4.648   6.413 -0.1762  0.1113 -0.0540
  220SOL     OW  645   1.222   6.340   5.468  0.2339 -0.4196 -0.2945
  220SOL    HW2  646   1.259   6.428   5.461 -2.8182  1.0685  0.2953
  220SOL    HW3  647   1.252   6.294   5.390  1.5261  1.2958 -0.8574
  220SOL    MW4  648   1.231   6.346   5.457 -0.1860 -0.1641  0.4767
  221SOL     OW  649   4.717   0.227   2.940 -0.1413  0.0247 -0.0027
  221SOL    HW2  650   4.721   0.214   2.846  1.0413  2.9745 -0.4821
  221SOL    HW3  651   4.624   0.231   2.960 -0.4050 -0.8339 -1.0089
  221SOL    MW4  652   4.705   0.226   2.930  0.6985 -0.6214 -0.1725
  222SOL     OW  653   3.029   5.916   5.528 -0.0647 -0.1429  0.6830
  222SOL    HW2  654   3.105   5.973   5.513 -0.7230  0.5378 -0.1853
  222SOL    HW3  655   2.997   5.941   5.614 -0.3889  0.8822  0.2847
  222SOL    MW4  656   3.035   5.927   5.537 -0.1888  0.6530 -0.0221
  223SOL     OW  657   5.041   1.967   3.656  0.1274 -0.2855  0.0979
  223SOL    HW2  658   4.989   2.046   3.640  1.2889  0.0295 -2.7807
  223SOL    HW3  659   5.059   1.932   3.568  1.9562 -2.2155  1.1505
  223SOL    MW4  660   5.036   1.973   3.642 -0.1022  0.0809  0.3341
  224SOL     OW  661   5.311   5.530   4.285  0.6766 -0.4445  0.6319
  224SOL    HW2  662   5.231   5.499   4.329  0.3383  0.0801  0.4016
  224SOL    HW3  663   5.280   5.597   4.224  1.3265 -0.0259  0.7491
  224SOL    MW4  664   5.296   5.535   4.283  0.1259  0.3109 -0.0348
  225SOL     OW  665   0.769   1.120   2.107 -0.1227 -0.4990  0.1580
  225SOL    HW2  666   0.750   1.029   2.133 -1.0647 -0.0020  1.3476
  225SOL    HW3  667   0.798   1.161   2.188 -0.9840  0.5881 -0.0744
  225SOL    MW4  668   0.770   1.113   2.121  0.1416 -0.4413  0.1429
  226SOL     OW  669   0.549   3.409   4.026 -0.4871  0.2330 -0.0149
  226SOL    HW2  670   0.487   3.422   4.098 -0.2293  1.4044  0.0096
  226SOL    HW3  671   0.504   3.440   3.948 -0.0011  0.9385 -0.0237
  226SOL    MW4  672   0.535   3.414   4.025  0.4890 -0.1139 -0.1740
  227SOL     OW  673   6.441   2.514   2.864 -0.6082  0.2430 -0.1585
  227SOL    HW2  674   6.357   2.509   2.819 -2.0614  1.3697  2.2130
  227SOL    HW3  675   6.434   2.451   2.936  0.9389 -0.2568 -0.4014
  227SOL    MW4  676   6.429   2.505   2.868 -0.4925 -0.1456  0.2565
  228SOL     OW  677   3.865   5.668   5.548 -0.4870  0.5786 -0.1860
  228SOL    HW2  678   3.898   5.599   5.490 -0.0183 -0.2574  1.0168
  228SOL    HW3  679   3.781   5.693   5.510 -0.8187 -0.8853 -0.5016
  228SOL    MW4  680   3.858   5.662   5.536  0.0882 -0.3710  0.7735
  229SOL     OW  681   3.239   4.335   4.550  0.3892  0.5258 -0.4826
  229SOL    HW2  682   3.178   4.324   4.477  0.4360 -0.5408 -0.3854
  229SOL    HW3  683   3.311   4.275   4.531 -0.2535 -0.8498  1.0877
  229SOL    MW4  684   3.240   4.326   4.538  0.4860 -0.2257  0.6033
  230SOL     OW  685   2.554   0.836   3.494 -0.2958  0.1277  0.5974
  230SOL    HW2  686   2.461   0.849   3.516 -0.3964 -0.6920  0.6599
  230SOL    HW3  687   2.568   0.893   3.418 -1.3589 -1.1915 -0.6441
  230SOL    MW4  688   2.543   0.845   3.487  0.2137  0.1116  0.8196
  231SOL     OW  689   6.114   2.276   2.906  0.3928  0.5161  0.8007
  231SOL    HW2  690   6.145   2.346   2.964 -0.8039 -0.0126  2.1310
  231SOL    HW3  691   6.124   2.196   2.958  1.1523 -0.2543 -0.4698
  231SOL    MW4  692   6.120   2.274   2.921  0.0562  0.4872  0.0143
  232SOL     OW  693   0.633   2.008   2.580  0.1022 -0.3233  0.0118
  232SOL    HW2  694   0.720   2.044   2.602 -0.3785  0.0008  1.5397
  232SOL    HW3  695   0.649   1.951   2.505  1.6255 -0.1797  0.1838
  232SOL    MW4  696   0.647   2.005   2.573 -0.0861  0.7445  0.0211
  233SOL     OW  697   6.226   1.436   0.660 -0.1690 -0.4286  0.1671
  233SOL    HW2  698   6.307   1.459   0.706  1.0313 -1.4084 -1.3326
  233SOL    HW3  699   6.234   1.342   0.643 -0.2308 -0.0428 -2.4643
  233SOL    MW4  700   6.238   1.427   0.664  0.1099  0.3459 -0.5735
  234SOL     OW  701   6.130   2.944   5.123 -0.4819  0.2026 -0.0941
  234SOL    HW2  702   6.147   2.979   5.035 -0.0780  4.6336  1.4808
  234SOL    HW3  703   6.059   2.881   5.110  1.1928 -1.1828 -3.8277
  234SOL    MW4  704   6.123   2.940   5.109 -0.5355 -0.6729 -0.0637
  235SOL     OW  705   4.163   4.123   6.218 -0.0620  0.1547  0.5805
  235SOL    HW2  706   4.245   4.079   6.198  0.2634  1.6203 -1.6239
  235SOL    HW3  707   4.172   4.152   6.309  1.0900 -1.2549  0.9515
  235SOL    MW4  708   4.175   4.121   6.227 -0.5575  0.3136 -0.0574
  236SOL     OW  709   6.080   3.183   1.643 -0.1352 -0.2476 -0.0042
  236SOL    HW2  710   6.122   3.099   1.626 -0.8550 -0.7327  0.5422
  236SOL    HW3  711   6.152   3.243   1.658  0.4285 -0.4777 -1.5964
  236SOL    MW4  712   6.095   3.180   1.643 -0.0525 -0.4155 -0.1217
  237SOL     OW  713   0.934   6.183   6.066 -0.2295  0.5888  0.0710
  237SOL    HW2  714   0.909   6.097   6.101  0.5824  0.8427  1.3538
  237SOL    HW3  715   0.876   6.196   5.991 -0.3183 -1.1103 -0.2031
  237SOL    MW4  716   0.923   6.173   6.061  0.2567 -0.8910 -0.5191
  238SOL     OW  717   5.719   3.497   2.611  0.0168  0.3517  0.3644
  238SOL    HW2  718   5.756   3.418   2.572  0.1489  0.4777  0.2403
  238SOL    HW3  719   5.656   3.529   2.547  1.0121  1.1706 -0.2297
  238SOL    MW4  720   5.716   3.491   2.598  0.0307 -0.1821 -0.2466
  239SOL     OW  721   1.166   1.593   0.081  0.3366  0.5138 -0.5800
  239SOL    HW2  722   1.096   1.650   0.114 -0.3844 -0.0410 -1.1044
  239SOL    HW3  723   1.225   1.581   0.155 -1.5576 -1.1916  0.7707
  239SOL    MW4  724   1.164   1.599   0.095 -0.0240  0.1562 -0.7091
  240SOL     OW  725   1.813   3.424   1.708 -0.1984 -0.0153  0.0016
  240SOL    HW2  726   1.880   3.388   1.651  0.1672 -0.7821  0.8764
  240SOL    HW3  727   1.770   3.347   1.745 -0.6746  0.4636  0.4624
  240SOL    MW4  728   1.816   3.409   1.706  0.5361 -0.1084  0.2202
  241SOL     OW  729   2.850   4.775   2.047  0.1245  0.4366 -0.3292
  241SOL    HW2  730   2.778   4.814   1.998  0.1646  0.2199 -0.5622
  241SOL    HW3  731   2.824   4.785   2.139 -0.3016  0.1783 -0.4186
  241SOL    MW4  732   2.837   4.781   2.053  0.3175 -0.6592  0.0079
  242SOL     OW  733   1.417   3.492   4.724  0.1157 -0.0244  0.3771
  242SOL    HW2  734   1.457   3.408   4.747  1.1404  0.1708 -0.5466
  242SOL    HW3  735   1.359   3.513   4.796 -0.7038 -1.8749  0.2975
  242SOL    MW4  736   1.415   3.484   4.736 -0.2208  0.2434 -0.1053
  243SOL     OW  737   4.724   1.045   4.024 -0.6055 -0.5818  0.0471
  243SOL    HW2  738   4.685   1.104   3.960 -0.7839  1.1953  1.6937
  243SOL    HW3  739   4.815   1.074   4.031  0.1337 -2.4034 -1.1730
  243SOL    MW4  740   4.731   1.056   4.016  0.6035 -0.0900 -0.2396
  244SOL     OW  741   1.661   5.716   2.633  0.4856 -0.1451  0.3073
  244SOL    HW2  742   1.628   5.691   2.546  0.4163  1.1247 -0.0601
  244SOL    HW3  743   1.587   5.761   2.674  1.1317  1.0235  0.2289
  244SOL    MW4  744   1.647   5.719   2.627  0.5684  0.1370 -0.5769
  245SOL     OW  745   0.237   2.161   4.161  0.2866  0.2924  0.5108
  245SOL    HW2  746   0.215   2.078   4.119 -2.5767  0.7603  0.9178
  245SOL    HW3  747   0.257   2.220   4.089 -0.4470 -0.0207  0.0374
  245SOL    MW4  748   0.237   2.158   4.146 -0.1861 -0.2535  0.5809
  246SOL     OW  749   2.519   5.175   0.423  0.2407  0.1086  0.2858
  246SOL    HW2  750   2.548   5.267   0.420  0.8708 -0.0615  0.9475
  246SOL    HW3  751   2.475   5.161   0.339  0.7725  0.8110 -0.1186
  246SOL    MW4  752   2.517   5.186   0.412  0.1988 -0.3163 -0.3386
  247SOL     OW  753   6.290   4.045   1.078  0.1542 -0.0134 -0.1316
  247SOL    HW2  754   6.317   4.056   1.169 -1.7130  0.6658  0.3856
  247SOL    HW3  755   6.315   3.955   1.057 -1.6238 -1.0970  1.9226
  247SOL    MW4  756   6.297   4.035   1.087 -0.1479  0.0606  0.3336
  248SOL     OW  757   2.900   0.815   5.631  0.0785 -0.1880  0.0868
  248SOL    HW2  758   2.904   0.726   5.668 -0.7453  0.0285  0.7226
  248SOL    HW3  759   2.870   0.869   5.704 -3.1728  0.0147 -1.2566
  248SOL    MW4  760   2.896   0.810   5.646 -0.2187  0.7827 -0.0274
  249SOL     OW  761   1.453   4.503   6.338 -0.7797 -0.2703  0.2674
  249SOL    HW2  762   1.405   4.450   6.401 -0.1455  0.3023  1.2544
  249SOL    HW3  763   1.453   4.591   6.375 -0.2664  0.0464 -0.4514
  249SOL    MW4  764   1.447   4.508   6.351  0.1252  0.2502  0.0416
  250SOL     OW  765   6.218   0.329   0.153 -0.6849  0.6249  0.4919
  250SOL    HW2  766   6.281   0.342   0.224 -1.4280 -1.3474  1.6093
  250SOL    HW3  767   6.140   0.376   0.181 -0.4674  1.1423  0.2289
  250SOL    MW4  768   6.216   0.337   0.166  0.4660  0.1671  0.0096
  251SOL     OW  769   3.344   1.424   1.045  0.4025  0.2834 -0.8730
  251SOL    HW2  770   3.350   1.370   0.966 -1.4339 -0.0180 -0.8375
  251SOL    HW3  771   3.376   1.367   1.115 -0.0514 -0.2174 -1.0708
  251SOL    MW4  772   3.349   1.410   1.044 -0.3408  0.2548 -0.0628
  252SOL     OW  773   1.824   6.246   5.904 -0.1387 -0.4292  0.3993
  252SOL    HW2  774   1.820   6.340   5.890  0.5353 -0.4730 -0.1461
  252SOL    HW3  775   1.783   6.209   5.825  1.2013 -0.6225 -0.2263
  252SOL    MW4  776   1.818   6.253   5.892 -0.0423  0.4543 -0.5042
  253SOL     OW  777   0.536   4.570   0.080  0.0737 -0.2410 -0.2073
  253SOL    HW2  778   0.460   4.519   0.110 -2.6773  3.5357  0.0077
  253SOL    HW3  779   0.504   4.614   0.001  1.7683  2.0716  0.3165
  253SOL    MW4  780   0.522   4.569   0.074  0.3341  0.1419 -0.2243
  254SOL     OW  781   1.203   0.779   4.007  0.1066 -0.2905  0.0172
  254SOL    HW2  782   1.206   0.714   4.078  0.7797 -0.3485 -0.0623
  254SOL    HW3  783   1.294   0.799   3.989 -0.1103  1.4092  0.6848
  254SOL    MW4  784   1.215   0.773   4.014 -0.0367  0.6590  0.1127
  255SOL     OW  785   1.352   1.076   0.849 -0.3348  0.3684  0.0195
  255SOL    HW2  786   1.302   1.150   0.814  0.1022  0.2692 -0.8709
  255SOL    HW3  787   1.381   1.028   0.771  0.6131  0.0828  0.5250
  255SOL    MW4  788   1.349   1.080   0.834  0.2440  0.4366 -0.2149
  256SOL     OW  789   2.914   1.337   3.627  0.5319  0.2546  0.4329
  256SOL    HW2  790   2.986   1.383   3.584 -0.4363  1.3810 -0.0425
  256SOL    HW3  791   2.848   1.405   3.642 -0.0952 -0.5915  1.6015
  256SOL    MW4  792   2.915   1.352   3.623 -0.0975 -0.2114  0.3420
  257SOL     OW  793   1.711   1.172   2.742  0.2375  0.9914  0.1957
  257SOL    HW2  794   1.734   1.163   2.835 -1.4076 -1.8101  0.4483
  257SOL    HW3  795   1.772   1.113   2.697 -1.7051 -1.1249  0.1164
  257SOL    MW4  796   1.723   1.163   2.749 -0.4190 -0.0763  0.5213
  258SOL     OW  797   3.153   4.088   1.613 -0.1398 -0.4474 -0.0811
  258SOL    HW2  798   3.214   4.148   1.656  0.1733  0.6276 -1.8953
  258SOL    HW3  799   3.067   4.116   1.642  0.1064 -0.3046  0.5190
  258SOL    MW4  800   3.150   4.100   1.622 -0.1525  0.5122 -0.7344
  259SOL     OW  801   4.608   5.928   1.523  0.9536 -0.1799 -0.9509
  259SOL    HW2  802   4.544   5.859   1.506 -0.7734  1.4046 -1.1864
  259SOL    HW3  803   4.600   5.946   1.616 -0.1514  1.1318 -1.2794
  259SOL    MW4  804   4.599   5.921   1.533 -0.1445  0.0139 -0.1184
  260SOL     OW  805   4.811   0.479   3.060  0.5966  0.3792  0.0756
  260SOL    HW2  806   4.765   0.494   3.143  1.7126  0.3132  0.7393
  260SOL    HW3  807   4.787   0.390   3.035 -0.4841  0.7284 -0.1685
  260SOL    MW4  808   4.802   0.469   3.068  0.2201 -0.3018  0.9676
  261SOL     OW  809   2.546   2.647   3.242  0.2381  0.7122 -0.1181
  261SOL    HW2  810   2.559   2.727   3.294 -1.2980  2.8650 -2.7452
  261SOL    HW3  811   2.470   2.667   3.187 -1.7890 -3.5355  0.7286
  261SOL    MW4  812   2.537   2.660   3.242  0.7626  0.1444  0.0199
  262SOL     OW  813   3.188   3.844   2.813 -0.3787  0.3000 -0.5178
  262SOL    HW2  814   3.189   3.798   2.897  0.0539  2.7002  0.8856
  262SOL    HW3  815   3.280   3.858   2.791 -0.4974  0.1470 -1.1451
  262SOL    MW4  816   3.200   3.840   2.821  0.6868  0.4162  0.2820
  263SOL     OW  817   0.044   5.297   0.477  0.2716 -0.3635  0.0053
  263SOL    HW2  818   0.116   5.348   0.513 -0.2485  0.3423  0.0604
  263SOL    HW3  819   0.077   5.207   0.476  1.2437 -0.0176 -0.2146
  263SOL    MW4  820   0.058   5.292   0.482 -0.5292 -0.2954  0.2083
  264SOL     OW  821   0.541   5.981   3.527 -0.0774 -0.4356  0.2516
  264SOL    HW2  822   0.475   5.921   3.494 -0.3842 -0.4425  0.8615
  264SOL    HW3  823   0.512   6.002   3.616  0.6946 -0.3697  0.4932
  264SOL    MW4  824   0.528   5.976   3.535 -0.1059 -0.5099 -0.2940
  265SOL     OW  825   2.550   4.687   1.172  0.1464 -0.1419  0.1909
  265SOL    HW2  826   2.596   4.721   1.096 -0.3233  0.6627  0.2568
  265SOL    HW3  827   2.602   4.717   1.247  0.7402 -1.1311  0.1975
  265SOL    MW4  828   2.563   4.696   1.172 -0.1687  0.1789  0.2046
  266SOL     OW  829   0.379   4.415   3.621 -0.3676 -0.0567 -0.0306
  266SOL    HW2  830   0.378   4.508   3.644  0.9317 -0.4792  1.9701
  266SOL    HW3  831   0.389   4.414   3.526 -1.9298  1.8189 -0.2747
  266SOL    MW4  832   0.380   4.427   3.612  0.2198  0.2117 -0.1173
  267SOL     OW  833   5.874   1.664   3.423  0.6449 -0.4409  0.0354
  267SOL    HW2  834   5.941   1.708   3.371  1.0338 -0.6623  0.3379
  267SOL    HW3  835   5.923   1.604   3.479  0.1927 -0.5986  0.2702
  267SOL    MW4  836   5.889   1.662   3.424 -0.2177 -0.5421 -0.1047
  268SOL     OW  837   4.354   0.323   6.406 -0.0863 -0.0375 -0.2964
  268SOL    HW2  838   4.378   0.231   6.416  1.2563  0.3827  0.6428
  268SOL    HW3  839   4.292   0.340   6.477 -0.0136 -0.1140 -0.2145
  268SOL    MW4  840   4.349   0.313   6.416 -0.3201 -0.0215  0.0212
  269SOL     OW  841   1.032   2.866   3.338  0.0739  0.0832 -0.9867
  269SOL    HW2  842   1.102   2.848   3.401  0.2122 -2.2091 -1.7009
  269SOL    HW3  843   1.024   2.962   3.338  1.0903  0.2542  1.3577
  269SOL    MW4  844   1.040   2.876   3.347  0.3184 -0.4629 -0.0308
  270SOL     OW  845   2.804   1.086   2.387 -0.0544 -0.3100  0.0271
  270SOL    HW2  846   2.875   1.063   2.327  1.3128  0.2975  1.3558
  270SOL    HW3  847   2.739   1.130   2.331  0.1222 -1.7708 -1.3817
  270SOL    MW4  848   2.804   1.089   2.371  0.4512  0.1653  0.2483
  271SOL     OW  849   2.035   4.294   1.919  0.0963 -0.5402 -0.0082
  271SOL    HW2  850   2.012   4.387   1.926  2.5214  0.2058 -0.7821
  271SOL    HW3  851   2.050   4.266   2.009  1.4341  0.4692  0.1233
  271SOL    MW4  852   2.034   4.303   1.931  0.1616 -0.0614  0.1759
  272SOL     OW  853   1.276   4.599   0.429  0.9001  0.1708 -0.9860
  272SOL    HW2  854   1.329   4.669   0.467  2.7348 -1.6893  0.0965
  272SOL    HW3  855   1.338   4.527   0.417 -0.6541 -0.9131 -3.1376
  272SOL    MW4  856   1.291   4.599   0.432  0.5937 -0.8653  0.6704
  273SOL     OW  857   1.484   5.642   2.402 -0.0883 -0.0965 -0.1655
  273SOL    HW2  858   1.527   5.562   2.432 -1.1523 -0.4414  0.4599
  273SOL    HW3  859   1.544   5.677   2.336  0.4836 -1.2970 -0.3088
  273SOL    MW4  860   1.498   5.636   2.397  0.4467  0.0650 -0.1313
  274SOL     OW  861   5.882   3.232   2.943 -0.2761  0.5213 -0.3450
  274SOL    HW2  862   5.919   3.276   3.021 -1.2940 -1.9400  1.6689
  274SOL    HW3  863   5.801   3.279   2.925  0.3040  1.5402 -0.3671
  274SOL    MW4  864   5.877   3.244   2.951  0.1768  0.3374 -0.3588
  275SOL     OW  865   0.452   3.186   0.472  0.1096 -0.0861 -0.1491
  275SOL    HW2  866   0.413   3.239   0.541 -0.1598  0.7836 -0.9434
  275SOL    HW3  867   0.472   3.248   0.402 -0.9822 -1.1261 -1.4546
  275SOL    MW4  868   0.449   3.201   0.472  0.8465  0.4103 -1.0275
  276SOL     OW  869   4.411   2.913   3.401  0.0767  0.1259 -0.7793
  276SOL    HW2  870   4.424   2.830   3.356  0.6783  0.4408 -1.1979
  276SOL    HW3  871   4.449   2.899   3.488  0.7832  0.1687 -1.0748
  276SOL    MW4  872   4.418   2.900   3.407  0.0404 -0.2535 -0.3994
  277SOL     OW  873   2.374   5.709   6.116 -0.2441 -0.1426  0.3500
  277SOL    HW2  874   2.439   5.777   6.098  0.2016 -0.5770  0.3018
  277SOL    HW3  875   2.350   5.675   6.029 -1.4938  0.8846  0.2656
  277SOL    MW4  876   2.379   5.713   6.102  0.0042 -0.2656  0.1927
  278SOL     OW  877   0.313   1.301   4.115 -0.1373  0.1433 -0.1225
  278SOL    HW2  878   0.395   1.258   4.140 -0.4450 -0.6706 -0.4856
  278SOL    HW3  879   0.335   1.394   4.114  0.6739 -0.0305  0.1892
  278SOL    MW4  880   0.327   1.307   4.118  0.6533  0.1856  0.0623
  279SOL     OW  881   4.918   1.623   4.364 -0.0712 -0.5990 -0.1672
  279SOL    HW2  882   4.887   1.649   4.451 -1.2391  1.9752 -1.2362
  279SOL    HW3  883   4.838   1.599   4.317  0.2255  0.3985 -1.2123
  279SOL    MW4  884   4.903   1.623   4.370 -0.8086  0.2461  0.4821
  280SOL     OW  885   0.906   1.413   0.246  0.1309  0.2697  0.3566
  280SOL    HW2  886   0.903   1.471   0.170 -1.7808 -0.9290 -0.5719
  280SOL    HW3  887   0.827   1.434   0.296 -0.2320 -1.0260  0.3681
  280SOL    MW4  888   0.895   1.423   0.243  0.1146  0.7393 -0.3498
  281SOL     OW  889   1.544   6.358   0.903  0.0611 -0.3398  0.2337
  281SOL    HW2  890   1.517   6.449   0.911 -0.5628 -0.5483  0.5360
  281SOL    HW3  891   1.576   6.334   0.990 -0.9031 -0.7579  0.4896
  281SOL    MW4  892   1.545   6.367   0.916  0.4031 -0.1773 -0.5742
  282SOL     OW  893   5.306   4.230   1.787  0.3893 -0.6832  0.8006
  282SOL    HW2  894   5.368   4.193   1.725  1.1797  0.6011  0.7873
  282SOL    HW3  895   5.337   4.201   1.873  0.2289 -1.1236  0.7147
  282SOL    MW4  896   5.318   4.221   1.790  1.0914  0.3823  0.2969
  283SOL     OW  897   6.187   5.563   0.122 -0.9397 -0.0410  0.4052
  283SOL    HW2  898   6.269   5.577   0.170 -1.0532  0.3331  0.4909
  283SOL    HW3  899   6.138   5.501   0.177 -0.1358 -1.3834 -0.3327
  283SOL    MW4  900   6.191   5.556   0.136  0.0775 -0.0703  0.2387
  284SOL     OW  901   4.561   1.077   1.240 -0.3808  0.3200 -0.0982
  284SOL    HW2  902   4.529   1.048   1.326  0.0089  0.2795  0.0333
  284SOL    HW3  903   4.481   1.096   1.191 -0.6165 -0.1663  0.0936
  284SOL    MW4  904   4.546   1.076   1.245  0.1668  0.1618  0.5166
  285SOL     OW  905   3.662   2.925   3.219  0.2003 -0.1330  0.0897
  285SOL    HW2  906   3.650   3.004   3.272 -0.5624 -0.0543 -0.1924
  285SOL    HW3  907   3.682   2.958   3.131  1.2763 -0.2625  0.2766
  285SOL    MW4  908   3.663   2.940   3.214 -0.1085  0.0462 -0.0696
  286SOL     OW  909   5.971   2.271   2.626 -0.0455 -0.1139 -0.4017
  286SOL    HW2  910   5.913   2.345   2.614 -0.6243 -0.5693 -0.4452
  286SOL    HW3  911   5.970   2.255   2.721  0.5610  0.3125 -0.3173
  286SOL    MW4  912   5.963   2.279   2.637 -0.0926  0.5685 -0.2704
  287SOL     OW  913   0.551   4.188   1.920 -0.2658 -0.0709  0.0814
  287SOL    HW2  914   0.480   4.135   1.882 -0.7922 -0.2499  1.2549
  287SOL    HW3  915   0.631   4.141   1.897 -0.6973 -1.1674  0.7110
  287SOL    MW4  916   0.552   4.175   1.912  0.2374  0.5470 -0.6763
  288SOL     OW  917   0.460   3.902   0.884  0.4040 -0.6095  0.2756
  288SOL    HW2  918   0.534   3.948   0.923  2.7486 -0.9409 -3.2816
  288SOL    HW3  919   0.435   3.957   0.809 -1.0070 -1.9595 -0.2931
  288SOL    MW4  920   0.466   3.915   0.879 -0.4389  0.8091 -0.1540
  289SOL     OW  921   5.125   3.486   1.503  0.5014 -0.2611  0.6159
  289SOL    HW2  922   5.119   3.513   1.595  1.5130  3.5861 -0.2577
  289SOL    HW3  923   5.059   3.538   1.458  0.9529 -1.0432 -1.0484
  289SOL    MW4  924   5.115   3.496   1.509  0.1954  0.9388 -0.5606
  290SOL     OW  925   3.260   5.559   3.848 -0.1244  0.5399  0.2806
  290SOL    HW2  926   3.265   5.540   3.754 -0.8715 -2.0459  0.6721
  290SOL    HW3  927   3.169   5.537   3.871  0.3330  0.1506  1.7860
  290SOL    MW4  928   3.248   5.554   3.838  0.0781 -0.0087 -0.0659
  291SOL     OW  929   5.320   5.407   1.816 -0.4149 -0.2891 -0.1683
  291SOL    HW2  930   5.267   5.343   1.864 -1.8671 -0.7472 -2.2248
  291SOL    HW3  931   5.266   5.486   1.813 -0.6469 -0.4736 -1.5215
  291SOL    MW4  932   5.306   5.409   1.822  0.2074  0.1974 -0.2730
  292SOL     OW  933   5.998   0.099   3.457  0.0774 -0.3262  0.0764
  292SOL    HW2  934   6.008   0.080   3.550  0.9598  0.6071  0.1919
  292SOL    HW3  935   5.908   0.073   3.437 -0.2169 -0.2736  1.2569
  292SOL    MW4  936   5.987   0.093   3.467 -0.6035 -0.1346  0.0107
  293SOL     OW  937   0.792   4.068   1.828 -0.1258 -0.2860  0.3004
  293SOL    HW2  938   0.793   3.973   1.843  0.2051 -0.4679 -0.7938
  293SOL    HW3  939   0.860   4.102   1.887  1.5134 -1.0334 -1.0773
  293SOL    MW4  940   0.801   4.060   1.838 -0.9637 -0.6205  0.0744
  294SOL     OW  941   5.691   6.227   0.400 -0.5252  0.1359 -0.0643
  294SOL    HW2  942   5.731   6.305   0.361 -2.0170  0.2321 -1.5313
  294SOL    HW3  943   5.694   6.244   0.495 -0.7267  1.9543 -0.3408
  294SOL    MW4  944   5.696   6.240   0.408  0.2748  0.6160 -0.2992
  295SOL     OW  945   5.404   1.730   3.302 -0.3352 -0.1741  0.3530
  295SOL    HW2  946   5.357   1.647   3.288 -0.3313 -0.3445  1.2783
  295SOL    HW3  947   5.339   1.787   3.342 -0.4729  0.4374 -0.7232
  295SOL    MW4  948   5.389   1.726   3.306 -0.5501 -0.2634 -0.2574
  296SOL     OW  949   1.876   6.311   4.866 -0.1236 -0.2890  0.1096
  296SOL    HW2  950   1.849   6.252   4.937  0.2914 -1.3799 -0.6113
  296SOL    HW3  951   1.797   6.326   4.816 -0.3356  0.1742  0.5724
  296SOL    MW4  952   1.862   6.305   4.869 -0.3950 -0.3088 -0.4246
  297SOL     OW  953   3.875   5.309   2.988 -0.3729  0.2386  0.2963
  297SOL    HW2  954   3.915   5.385   2.948  0.8018 -1.5395 -2.1594
  297SOL    HW3  955   3.784   5.310   2.956 -0.0060 -0.0495 -0.7953
  297SOL    MW4  956   3.868   5.319   2.978  0.3687  0.5385  0.4089
  298SOL     OW  957   0.907   0.049   0.387  0.7704 -0.0766 -0.1495
  298SOL    HW2  958   0.989   0.001   0.397  0.5273 -0.5271 -0.2696
  298SOL    HW3  959   0.871   0.052   0.476  0.0334 -1.5045 -0.3630
  298SOL    MW4  960   0.913   0.043   0.400  0.1127  0.0530 -0.2468
  299SOL     OW  961   1.756   1.998   0.630 -0.1746  0.0804  0.5612
  299SOL    HW2  962   1.726   1.910   0.606  1.5690 -0.9241  1.8442
  299SOL    HW3  963   1.820   1.983   0.700  0.6128  2.3310  0.3892
  299SOL    MW4  964   1.761   1.984   0.636  0.0890  0.7614  0.1974
  300SOL     OW  965   5.978   1.135   0.234 -0.0610 -0.6206  0.0779
  300SOL    HW2  966   5.947   1.097   0.151 -0.4128  1.3594 -0.7644
  300SOL    HW3  967   6.058   1.182   0.211 -0.4527  0.4043  0.7305
  300SOL    MW4  968   5.984   1.136   0.220 -0.3884 -0.0056  0.3309
  301SOL     OW  969   2.257   1.823   4.395  0.0089  0.1359 -0.2892
  301SOL    HW2  970   2.192   1.795   4.331 -0.2684  0.4686 -0.1543
  301SOL    HW3  971   2.340   1.787   4.362  0.0273  1.0822 -1.3484
  301SOL    MW4  972   2.259   1.814   4.382  0.4090  0.0852 -0.1549
  302SOL     OW  973   6.118   2.036   3.048  0.3635  0.4079  0.2960
  302SOL    HW2  974   6.155   1.967   2.993  0.2525 -0.2519  1.0303
  302SOL    HW3  975   6.171   2.034   3.128  0.9232  1.7689 -0.0159
  302SOL    MW4  976   6.130   2.026   3.052 -0.4942  0.4769  0.0364
  303SOL     OW  977   0.457   0.764   2.543  0.7436  0.1342  0.8148
  303SOL    HW2  978   0.394   0.783   2.613 -0.3488  1.2823 -0.4371
  303SOL    HW3  979   0.461   0.844   2.491  1.6554 -0.6306 -0.3464
  303SOL    MW4  980   0.449   0.777   2.545  0.1562 -0.5276  0.1453
  304SOL     OW  981   0.806   2.700   3.327 -0.3803 -0.7355 -0.2390
  304SOL    HW2  982   0.864   2.776   3.328  0.3658 -1.2791 -0.9143
  304SOL    HW3  983   0.804   2.670   3.418  0.3295 -0.6530 -0.1888
  304SOL    MW4  984   0.814   2.706   3.339 -0.1249  1.3677  0.2751
  305SOL     OW  985   2.132   6.296   0.754  0.2638  0.1411  0.0288
  305SOL    HW2  986   2.111   6.339   0.672  2.3799  1.4189  0.0787
  305SOL    HW3  987   2.223   6.268   0.744 -0.2694 -2.1981  0.9371
  305SOL    MW4  988   2.142   6.298   0.742 -0.8440 -0.1744  0.4512
  306SOL     OW  989   3.647   4.243   4.288 -0.2693  0.3399 -0.2717
  306SOL    HW2  990   3.735   4.231   4.252 -0.2606  0.3519 -0.2540
  306SOL    HW3  991   3.652   4.324   4.339 -0.5133  0.7944 -0.9576
  306SOL    MW4  992   3.659   4.252   4.290  0.5694 -0.6094 -0.0487
  307SOL     OW  993   1.853   5.353   0.524 -0.7030 -0.2188  0.3254
  307SOL    HW2  994   1.774   5.407   0.531 -0.7883 -0.4753  1.6584
  307SOL    HW3  995   1.856   5.305   0.607  0.9381 -0.0877  0.3680
  307SOL    MW4  996   1.843   5.354   0.536  0.0248 -0.7115 -0.2952
  308SOL     OW  997   3.765   0.571   0.118  0.0521 -0.3380 -0.1222
  308SOL    HW2  998   3.852   0.544   0.088  0.1200  1.6997 -2.0185
  308SOL    HW3  999   3.773   0.666   0.134 -1.6060 -0.2644  0.5069
  308SOL    MW4 1000   3.777   0.580   0.116  0.3911 -0.1406  0.5460
  309SOL     OW 1001   4.404   6.310   4.844  0.6715  0.2950 -0.3192
  309SOL    HW2 1002   4.328   6.319   4.902  2.4825  1.3284  2.0677
  309SOL    HW3 1003   4.442   6.225   4.867  0.1698 -0.3366 -1.6893
  309SOL    MW4 1004   4.399   6.300   4.855  0.5298 -0.3454  0.0451
  310SOL     OW 1005   0.455   0.430   5.508 -0.8950 -0.6062  0.5575
  310SOL    HW2 1006   0.517   0.474   5.566  1.4696 -2.8721 -0.0827
  310SOL    HW3 1007   0.472   0.469   5.422 -0.6761 -0.8784  0.4745
  310SOL    MW4 1008   0.466   0.441   5.504  0.0343 -0.4386 -0.2869
  311SOL     OW 1009   4.345   2.076   0.846 -0.4320  0.2435 -0.4075
  311SOL    HW2 1010   4.402   2.058   0.771  0.8126 -0.5238  0.7036
  311SOL    HW3 1011   4.404   2.104   0.915 -1.4746  0.0142  0.5978
  311SOL    MW4 1012   4.360   2.078   0.845  0.0074 -0.2357 -0.5532
  312SOL     OW 1013   2.447   2.063   4.276 -0.3451  0.1661 -0.3550
  312SOL    HW2 1014   2.443   2.126   4.348  1.0402  0.6983 -0.7204
  312SOL    HW3 1015   2.376   2.002   4.295 -2.6678  2.5610 -0.6920
  312SOL    MW4 1016   2.437   2.064   4.288  0.4539  0.1353  0.4291
  313SOL     OW 1017   1.802   4.655   4.672 -0.5526  0.6232  0.2274
  313SOL    HW2 1018   1.839   4.592   4.610 -0.0047  0.6521  0.5151
  313SOL    HW3 1019   1.823   4.741   4.634 -0.2190  0.6406  0.4454
  313SOL    MW4 1020   1.810   4.658   4.659  0.1557 -0.6326  0.3031
  314SOL     OW 1021   1.543   2.243   0.399  0.2930  0.3475  0.5347
  314SOL    HW2 1022   1.564   2.320   0.452 -2.1522  0.0567  2.1092
  314SOL    HW3 1023   1.530   2.173   0.463  2.3602 -1.4261 -0.8570
  314SOL    MW4 1024   1.544   2.244   0.415 -0.4996 -0.3318  0.4219
  315SOL     OW 1025   0.938   5.243   0.876  0.0625  0.1819 -0.3695
  315SOL    HW2 1026   0.886   5.260   0.798  0.5409 -0.8492 -0.9259
  315SOL    HW3 1027   1.001   5.315   0.879  0.0820  0.1945 -0.9717
  315SOL    MW4 1028   0.939   5.255   0.866  0.3484 -0.4026 -0.0252
  316SOL     OW 1029   1.747   4.958   5.948 -0.0327 -0.4088  0.1959
  316SOL    HW2 1030   1.682   4.929   5.884 -0.2798 -1.2448  0.8131
  316SOL    HW3 1031   1.818   4.894   5.940 -0.1331 -0.6100  0.8575
  316SOL    MW4 1032   1.748   4.946   5.938  0.1863 -0.1123 -0.2154
  317SOL     OW 1033   5.235   2.781   6.394  0.3905 -0.3019  0.4425
  317SOL    HW2 1034   5.218   2.694   6.357  0.5454 -0.4040  0.6163
  317SOL    HW3 1035   5.191   2.841   6.333  2.6473 -0.2683 -1.2895
  317SOL    MW4 1036   5.227   2.777   6.381  0.4265  0.1684 -0.1888
  318SOL     OW 1037   4.271   5.878   1.729  0.3724 -0.2245  0.6861
  318SOL    HW2 1038   4.275   5.972   1.714 -2.1556  0.0026  1.0915
  318SOL    HW3 1039   4.296   5.839   1.645 -0.2121  0.8395 -0.0046
  318SOL    MW4 1040   4.275   5.885   1.716 -0.0999 -0.0148  0.4017
  319SOL     OW 1041   3.509   1.059   5.448  0.2853 -0.4195  0.5276
  319SOL    HW2 1042   3.525   1.102   5.364 -0.0527  0.9232  1.1212
  319SOL    HW3 1043   3.453   1.120   5.496 -0.1459 -1.5031  1.4479
  319SOL    MW4 1044   3.504   1.073   5.443  0.0079 -0.1012  0.0305
  320SOL     OW 1045   0.320   0.447   3.315  0.7154 -0.0052 -0.0800
  320SOL    HW2 1046   0.253   0.444   3.384  1.1350  0.9948  0.3814
  320SOL    HW3 1047   0.402   0.460   3.362  1.1388 -0.3402 -0.7095
  320SOL    MW4 1048   0.322   0.448   3.330 -0.0073 -0.5182  0.2562
  321SOL     OW 1049   3.872   0.155   2.014  0.1444 -0.0343 -0.1499
  321SOL    HW2 1050   3.931   0.187   2.082  0.8440 -0.1383 -0.7015
  321SOL    HW3 1051   3.802   0.221   2.010 -0.0350 -0.1447  0.8212
  321SOL    MW4 1052   3.870   0.168   2.023  0.6284  0.2802 -0.2209
  322SOL     OW 1053   0.167   2.510   3.240 -0.0208 -0.5751  0.7983
  322SOL    HW2 1054   0.125   2.595   3.249  0.1371 -0.2780 -1.0649
  322SOL    HW3 1055   0.254   2.529   3.206 -1.1299 -1.5534 -3.0745
  322SOL    MW4 1056   0.173   2.523   3.237 -0.1965  0.4888  0.4017
  323SOL     OW 1057   3.908   6.155   6.251  0.1772 -0.0386 -0.0490
  323SOL    HW2 1058   3.931   6.199   6.333 -0.8848 -0.4699  0.4970
  323SOL    HW3 1059   3.819   6.183   6.232  0.9051  1.2103 -1.8713
  323SOL    MW4 1060   3.900   6.164   6.260 -0.0885 -0.0914  0.3820
  324SOL     OW 1061   2.063   0.208   3.821  0.0246  0.1384 -0.2442
  324SOL    HW2 1062   1.989   0.180   3.875 -0.0057  1.4834  0.4664
  324SOL    HW3 1063   2.137   0.159   3.855 -0.2784 -0.1410  0.0216
  324SOL    MW4 1064   2.063   0.198   3.832  0.2114 -0.3360  0.1764
  325SOL     OW 1065   6.258   6.093   1.558  0.4696  0.0013 -0.0632
  325SOL    HW2 1066   6.259   6.004   1.593  1.7176 -0.0457 -0.1513
  325SOL    HW3 1067   6.351   6.118   1.556  0.4765  0.0727 -3.0974
  325SOL    MW4 1068   6.271   6.084   1.562 -0.4139 -0.2329 -0.4932
  326SOL     OW 1069   3.948   0.583   0.709 -0.1689  0.3077 -0.7100
  326SOL    HW2 1070   3.879   0.639   0.746  0.8772  0.2522  1.5344
  326SOL    HW3 1071   4.005   0.644   0.663  0.3957  1.0116  0.8292
  326SOL    MW4 1072   3.946   0.599   0.708 -0.1182 -0.6058  0.0183
  327SOL     OW 1073   5.325   5.536   2.742  0.0208  0.4726 -0.6340
  327SOL    HW2 1074   5.353   5.464   2.798 -1.2507 -0.0425 -0.6150
  327SOL    HW3 1075   5.318   5.497   2.655 -2.7178 -0.0366 -0.2642
  327SOL    MW4 1076   5.328   5.521   2.738 -0.2425 -0.9686 -0.1468
  328SOL     OW 1077   5.280   1.269   4.659  0.2074  0.6016 -0.2468
  328SOL    HW2 1078   5.360   1.289   4.611 -0.8440  2.6824 -1.3117
  328SOL    HW3 1079   5.308   1.260   4.750  1.8793 -0.6855 -0.8350
  328SOL    MW4 1080   5.294   1.271   4.664  0.1663  0.7151  0.2809
  329SOL     OW 1081   3.294   3.525   6.203  0.8015 -0.4393 -0.0448
  329SOL    HW2 1082   3.217   3.491   6.157  0.3784  0.7513 -0.2561
  329SOL    HW3 1083   3.263   3.545   6.291  0.7158  0.5598 -0.2922
  329SOL    MW4 1084   3.280   3.523   6.208 -0.1425  0.2270 -0.6288
  330SOL     OW 1085   0.297   4.676   0.483  0.0886 -0.0124  0.1819
  330SOL    HW2 1086   0.254   4.591   0.491 -0.3267  0.2638  0.9892
  330SOL    HW3 1087   0.297   4.711   0.572 -0.4966  1.1953 -0.2797
  330SOL    MW4 1088   0.291   4.669   0.495 -0.4975 -0.1767  0.1469
  331SOL     OW 1089   3.410   0.204   4.291 -0.2568 -0.4516  0.0707
  331SOL    HW2 1090   3.427   0.226   4.200  2.1695  0.1191  0.5982
  331SOL    HW3 1091   3.394   0.109   4.291  1.2522 -0.7398 -0.7992
  331SOL    MW4 1092   3.410   0.194   4.279 -0.2084 -0.0986  0.0896
  332SOL     OW 1093   2.963   1.845   1.840  0.0694 -0.1057  0.3046
  332SOL    HW2 1094   2.996   1.809   1.922 -0.0489 -0.6016  0.1384
  332SOL    HW3 1095   2.905   1.778   1.806 -0.1180  0.2258 -0.0374
  332SOL    MW4 1096   2.960   1.832   1.846 -0.4153 -0.4689  0.1030
  333SOL     OW 1097   3.172   4.977   5.538  0.2169  0.0950  0.2911
  333SOL    HW2 1098   3.220   4.942   5.463  0.7866  0.7654  0.3375
  333SOL    HW3 1099   3.214   4.936   5.614  0.0558 -0.0883  0.2840
  333SOL    MW4 1100   3.184   4.967   5.538  0.4722 -0.0039  0.1936
  334SOL     OW 1101   1.059   1.327   2.658 -0.3342  0.1431  0.2740
  334SOL    HW2 1102   1.051   1.310   2.565 -0.5512 -2.0178  0.6362
  334SOL    HW3 1103   1.115   1.257   2.691  0.6203  1.4630  1.6176
  334SOL    MW4 1104   1.065   1.315   2.650  0.8723 -0.5513 -0.1017
  335SOL     OW 1105   2.215   0.832   3.869 -0.4726 -0.0336  0.2092
  335SOL    HW2 1106   2.128   0.812   3.834 -0.0365 -1.8015  0.0241
  335SOL    HW3 1107   2.232   0.763   3.933  1.0927 -0.1774 -0.3032
  335SOL    MW4 1108   2.206   0.820   3.873  0.0862  0.4961 -0.1084
  336SOL     OW 1109   0.301   3.507   6.317  0.0075 -0.1159 -0.0638
  336SOL    HW2 1110   0.331   3.486   6.228  0.9332 -0.7318  0.3761
  336SOL    HW3 1111   0.265   3.425   6.350  1.6752 -0.5268  0.8893
  336SOL    MW4 1112   0.301   3.494   6.309 -0.3065 -0.0537 -0.3724
  337SOL     OW 1113   4.310   4.299   3.688 -0.3852  0.2062  0.1336
  337SOL    HW2 1114   4.327   4.312   3.781  2.0186 -1.3468  0.0251
  337SOL    HW3 1115   4.246   4.228   3.685  0.3802 -0.5355  0.6527
  337SOL    MW4 1116   4.304   4.291   3.700 -0.2083  0.4616 -0.4549
  338SOL     OW 1117   1.061   3.824   0.067 -0.6345 -0.6059  0.0645
  338SOL    HW2 1118   1.112   3.893   0.109 -1.7542 -0.2846  0.9188
  338SOL    HW3 1119   1.087   3.828  -0.025  0.0209  0.3106  0.2768
  338SOL    MW4 1120   1.072   3.833   0.060 -0.0127  0.0202  1.2395
  339SOL     OW 1121   2.095   2.522   1.590 -0.2124 -0.3915 -0.2776
  339SOL    HW2 1122   2.120   2.551   1.502  2.0779  3.3025  1.3454
  339SOL    HW3 1123   2.166   2.464   1.618  0.5035  0.6152  0.0511
  339SOL    MW4 1124   2.107   2.518   1.582  0.1802  0.4470  0.3357
  340SOL     OW 1125   1.762   2.746   0.152  0.2950  0.4833  0.4926
  340SOL    HW2 1126   1.721   2.792   0.078  1.4790  0.4304 -0.2154
  340SOL    HW3 1127   1.723   2.658   0.149 -0.0551  0.6406  0.2605
  340SOL    MW4 1128   1.751   2.741   0.141  0.1548 -0.2525 -0.5264
  341SOL     OW 1129   0.906   4.390   2.170  0.3517  0.3358 -0.5886
  341SOL    HW2 1130   0.949   4.310   2.143  0.2122  0.3491 -0.8479
  341SOL    HW3 1131   0.933   4.402   2.262 -0.2298 -0.4091 -0.3109
  341SOL    MW4 1132   0.915   4.381   2.179 -0.2588  0.1405  0.7550
  342SOL     OW 1133   5.550   6.433   6.058 -0.3510 -0.2047  0.3283
  342SOL    HW2 1134   5.466   6.400   6.090 -0.1379  0.1643  1.3059
  342SOL    HW3 1135   5.551   6.411   5.965 -0.3315 -2.7113  0.8525
  342SOL    MW4 1136   5.539   6.426   6.050  0.6684 -0.4407 -0.1932
  343SOL     OW 1137   3.399   1.959   6.396  0.1481  0.1676 -0.3199
  343SOL    HW2 1138   3.477   1.924   6.354 -0.3561 -0.7168 -0.5377
  343SOL    HW3 1139   3.347   1.882   6.419 -1.2971  0.7756 -1.4022
  343SOL    MW4 1140   3.402   1.944   6.393  0.1634  0.0860  0.1730
  344SOL     OW 1141   2.293   5.374   1.477  0.3112 -0.8192 -0.0239
  344SOL    HW2 1142   2.342   5.417   1.547 -0.6662  0.8712 -0.3073
  344SOL    HW3 1143   2.271   5.445   1.416 -0.8808 -1.8366 -0.8332
  344SOL    MW4 1144   2.296   5.389   1.478 -0.0823 -0.1377 -0.1006
  345SOL     OW 1145   2.359   3.207   1.129  0.2235  0.5408  0.3956
  345SOL    HW2 1146   2.451   3.231   1.143  1.4327 -1.3589 -3.2251
  345SOL    HW3 1147   2.352   3.119   1.165 -0.9853  1.5514  2.8827
  345SOL    MW4 1148   2.370   3.199   1.136  0.1642 -0.5592  0.3129
  346SOL     OW 1149   1.816   3.750   0.944 -0.8351  0.4430 -0.7858
  346SOL    HW2 1150   1.743   3.812   0.949 -1.7573 -0.5209 -1.7236
  346SOL    HW3 1151   1.827   3.734   0.850  0.3624  0.2917 -0.6384
  346SOL    MW4 1152   1.808   3.756   0.932 -0.2529 -0.2594 -0.1789
  347SOL     OW 1153   3.643   0.075   5.073  1.0987 -0.1209 -0.4171
  347SOL    HW2 1154   3.631   0.074   5.168 -0.8850  1.0252 -0.6127
  347SOL    HW3 1155   3.595  -0.002   5.043  1.7641 -0.5083 -0.5284
  347SOL    MW4 1156   3.635   0.065   5.082  0.1064  0.3299 -0.3013
  348SOL     OW 1157   1.914   1.472   2.341  0.4202 -0.1620  0.2302
  348SOL    HW2 1158   1.886   1.460   2.250 -0.3421 -0.9573  0.5615
  348SOL    HW3 1159   1.846   1.429   2.393  1.1403 -0.2014  1.1564
  348SOL    MW4 1160   1.901   1.465   2.336 -0.2020  0.1489 -0.2835
  349SOL     OW 1161   3.228   5.639   0.994 -0.4492  0.2791  0.2023
  349SOL    HW2 1162   3.147   5.644   1.044  0.5555  1.2688  1.8580
  349SOL    HW3 1163   3.201   5.617   0.905 -2.4242 -0.4126  0.9147
  349SOL    MW4 1164   3.214   5.637   0.989  1.1019  0.1802  0.3367
  350SOL     OW 1165   4.861   1.716   1.880  0.0352  0.0862 -0.4495
  350SOL    HW2 1166   4.894   1.716   1.970  2.3694  2.0728 -1.1958
  350SOL    HW3 1167   4.937   1.692   1.827 -1.3596 -1.3244 -1.9258
  350SOL    MW4 1168   4.875   1.713   1.885  0.1133 -0.4867  0.0979
  351SOL     OW 1169   2.312   3.807   1.752 -0.4375  0.3016  0.2836
  351SOL    HW2 1170   2.222   3.786   1.729 -0.3933  0.0970  0.2894
  351SOL    HW3 1171   2.335   3.882   1.697 -1.2128  1.5461  1.5969
  351SOL    MW4 1172   2.304   3.814   1.742 -0.4480 -0.2112  0.1060
  352SOL     OW 1173   0.624   3.699   5.280 -0.3342 -0.5688  0.2317
  352SOL    HW2 1174   0.698   3.667   5.229  0.5312 -0.1276  1.1743
  352SOL    HW3 1175   0.554   3.710   5.216  0.9910  0.9180 -1.0425
  352SOL    MW4 1176   0.625   3.696   5.265  0.2239  0.2016 -0.0577
  353SOL     OW 1177   2.102   5.519   2.295  0.3606  0.2128 -0.3418
  353SOL    HW2 1178   2.191   5.552   2.279  1.0745 -1.2846  0.3031
  353SOL    HW3 1179   2.095   5.514   2.390  0.2551 -1.3301 -0.4090
  353SOL    MW4 1180   2.113   5.523   2.305 -0.1141  0.3777  0.0003
  354SOL     OW 1181   3.802   1.239   3.558  0.2709  0.1370  0.0318
  354SOL    HW2 1182   3.809   1.327   3.521 -0.7958 -0.4243 -1.6427
  354SOL    HW3 1183   3.741   1.248   3.631  1.4190  1.0547  0.9086
  354SOL    MW4 1184   3.795   1.252   3.563  0.2387 -0.2377  0.0754
  355SOL     OW 1185   0.767   2.046   3.419  0.1273 -0.6829  0.0765
  355SOL    HW2 1186   0.693   2.009   3.467 -0.4260 -1.2262 -1.1496
  355SOL    HW3 1187   0.730   2.077   3.337  0.8519  1.2958  0.4399
  355SOL    MW4 1188   0.752   2.045   3.415  0.4823 -0.0995 -0.3015
  356SOL     OW 1189   2.046   2.928   0.826  0.2150 -0.4314 -0.1063
  356SOL    HW2 1190   2.033   2.963   0.914  1.2646 -1.0453  0.3142
  356SOL    HW3 1191   2.075   2.837   0.841  0.6025 -0.4744 -1.0701
  356SOL    MW4 1192   2.048   2.920   0.840 -0.5761  0.7569  1.1325
  357SOL     OW 1193   1.011   0.130   4.630  0.1572  0.2217  0.0908
  357SOL    HW2 1194   0.956   0.200   4.666 -0.1322 -0.4264  0.9343
  357SOL    HW3 1195   1.074   0.112   4.699 -0.6939 -1.3640  0.5017
  357SOL    MW4 1196   1.012   0.137   4.644 -0.1952 -0.2087 -0.0487
  358SOL     OW 1197   6.030   0.734   2.479  0.0938  0.4564  0.2407
  358SOL    HW2 1198   5.979   0.795   2.534 -0.5133  1.1647 -1.0473
  358SOL    HW3 1199   6.052   0.786   2.402  0.6269 -0.6186 -0.3386
  358SOL    MW4 1200   6.026   0.749   2.476 -0.3769  0.2719 -0.0977
  359SOL     OW 1201   2.292   2.402   0.355 -0.2912 -0.2014  0.2417
  359SOL    HW2 1202   2.245   2.379   0.275  0.0852 -0.2998  0.0427
  359SOL    HW3 1203   2.383   2.376   0.337 -0.2189 -0.2962  0.7288
  359SOL    MW4 1204   2.298   2.395   0.342 -0.1094 -0.1263  0.5136
  360SOL     OW 1205   3.463   6.236   2.818  0.2320 -0.5738 -0.0818
  360SOL    HW2 1206   3.529   6.300   2.794 -0.3233  0.3394  0.7761
  360SOL    HW3 1207   3.380   6.273   2.786  0.2171 -2.3266 -2.3941
  360SOL    MW4 1208   3.461   6.249   2.810 -0.7035  0.0411 -0.3284
  361SOL     OW 1209   6.457   0.168   5.609  0.4504 -0.2945  0.1270
  361SOL    HW2 1210   6.452   0.254   5.649  0.1922 -0.7257  1.0612
  361SOL    HW3 1211   6.544   0.165   5.568  0.0200  0.8053 -0.9008
  361SOL    MW4 1212   6.468   0.179   5.609  0.0126  0.3027 -0.5511
  362SOL     OW 1213   4.071   1.580   0.260 -0.1625  0.1560  0.2019
  362SOL    HW2 1214   4.167   1.572   0.267 -0.1101  0.4863 -0.0969
  362SOL    HW3 1215   4.057   1.667   0.222 -0.5986  0.2609  0.5899
  362SOL    MW4 1216   4.082   1.591   0.256  0.4545 -0.5708  0.2878
  363SOL     OW 1217   5.711   0.770   5.731 -0.0960 -0.1220  0.0892
  363SOL    HW2 1218   5.657   0.705   5.777 -0.2837 -2.3529 -2.9628
  363SOL    HW3 1219   5.798   0.760   5.768 -0.4846 -0.9126  0.8232
  363SOL    MW4 1220   5.715   0.760   5.742  0.0200  0.1256 -0.4632
  364SOL     OW 1221   3.332   2.370   2.578  0.1668  0.1370 -0.5077
  364SOL    HW2 1222   3.360   2.337   2.492 -1.2506 -1.2678 -0.4622
  364SOL    HW3 1223   3.390   2.326   2.640 -0.0956 -0.3746 -0.6197
  364SOL    MW4 1224   3.343   2.360   2.575  0.6953 -0.0830  0.2079
  365SOL     OW 1225   4.163   0.957   1.051 -0.7515 -0.3148  0.4902
  365SOL    HW2 1226   4.089   0.997   1.006 -1.1813 -1.0904  0.4814
  365SOL    HW3 1227   4.220   1.030   1.074 -1.5592  0.3052  0.5693
  365SOL    MW4 1228   4.161   0.972   1.048  0.1673  0.9597 -0.2408
  366SOL     OW 1229   3.554   0.044   5.448  0.6649  0.2926 -0.2227
  366SOL    HW2 1230   3.463   0.037   5.476  1.1165 -0.8019  1.1584
  366SOL    HW3 1231   3.587   0.123   5.492  0.0250  1.5368 -1.9150
  366SOL    MW4 1232   3.547   0.053   5.458 -0.2859 -0.3404 -0.5899
  367SOL     OW 1233   4.578   2.134   1.683 -0.0499 -0.4508  0.1044
  367SOL    HW2 1234   4.623   2.053   1.708  1.1305  0.1887  0.1370
  367SOL    HW3 1235   4.640   2.203   1.706 -0.5201  0.3829 -1.0711
  367SOL    MW4 1236   4.592   2.132   1.689  0.2017  0.0530  0.2994
  368SOL     OW 1237   0.906   2.412   2.820  0.3461  0.3047 -0.0761
  368SOL    HW2 1238   0.815   2.441   2.820 -0.4594 -1.9660  1.3889
  368SOL    HW3 1239   0.957   2.493   2.826 -1.6965  1.5516  2.2659
  368SOL    MW4 1240   0.901   2.427   2.821 -0.7702  0.1644 -0.1595
  369SOL     OW 1241   6.164   2.751   1.004 -0.0371  0.2449  0.8828
  369SOL    HW2 1242   6.147   2.830   1.056  1.7536 -0.1623  2.1965
  369SOL    HW3 1243   6.077   2.719   0.980 -0.8597  1.6553  1.7878
  369SOL    MW4 1244   6.150   2.757   1.007  0.0579 -0.3082 -0.5283
  370SOL     OW 1245   1.086   6.027   5.111 -0.6232 -0.7111  0.2974
  370SOL    HW2 1246   1.053   5.983   5.033  1.6744 -1.3363 -0.3747
  370SOL    HW3 1247   1.009   6.037   5.167 -2.1833 -0.8957 -1.7196
  370SOL    MW4 1248   1.071   6.023   5.108  0.0804 -0.5208  0.3625
  371SOL     OW 1249   6.108   4.369   2.316 -0.5456  0.0698  0.2722
  371SOL    HW2 1250   6.094   4.406   2.229 -1.0856 -0.5908  0.0704
  371SOL    HW3 1251   6.202   4.357   2.323 -0.6224 -1.4877 -0.9134
  371SOL    MW4 1252   6.118   4.373   2.306  0.8021 -0.6575 -0.5327
  372SOL     OW 1253   5.825   2.777   0.686 -0.6519 -0.0938 -0.4450
  372SOL    HW2 1254   5.903   2.832   0.672  1.6893 -2.9409  0.2929
  372SOL    HW3 1255   5.858   2.687   0.680 -4.0789 -1.4759 -0.7232
  372SOL    MW4 1256   5.840   2.772   0.683 -0.0955 -0.1935 -0.0946
  373SOL     OW 1257   3.412   1.766   3.438 -0.1881  0.0728 -0.7204
  373SOL    HW2 1258   3.467   1.700   3.396 -1.2628 -0.4937 -1.3060
  373SOL    HW3 1259   3.428   1.847   3.390 -1.3636 -0.5533 -2.2621
  373SOL    MW4 1260   3.421   1.768   3.426  0.6643  0.8864  0.1979
  374SOL     OW 1261   5.909   6.071   2.377 -0.3216  0.9893  0.7526
  374SOL    HW2 1262   5.863   6.017   2.441 -1.8283  0.8088 -0.4122
  374SOL    HW3 1263   5.950   6.140   2.428  1.5227 -1.1062  2.2726
  374SOL    MW4 1264   5.908   6.073   2.392 -0.1925  0.2701  0.1400
  375SOL     OW 1265   2.263   4.928   1.522  0.0785 -0.2850 -0.5054
  375SOL    HW2 1266   2.196   4.984   1.560 -0.4464 -0.3313 -1.3421
  375SOL    HW3 1267   2.277   4.860   1.588  0.6643  0.7611  0.4825
  375SOL    MW4 1268   2.256   4.926   1.536 -0.0107  0.1215  0.3012
  376SOL     OW 1269   2.839   3.215   2.727 -0.5403  0.0941 -0.1750
  376SOL    HW2 1270   2.816   3.151   2.660 -1.8026  0.3639 -0.0332
  376SOL    HW3 1271   2.829   3.167   2.810  1.1464 -0.2800 -0.1474
  376SOL    MW4 1272   2.835   3.201   2.729  0.2245 -0.7836 -0.1935
  377SOL     OW 1273   3.272   4.326   5.177 -0.4649 -0.0303  0.4267
  377SOL    HW2 1274   3.306   4.243   5.141  1.0340 -0.2376  2.2068
  377SOL    HW3 1275   3.185   4.303   5.211  0.2914 -1.1439  1.7176
  377SOL    MW4 1276   3.265   4.312   5.176  0.3325 -0.2136  0.0192
  378SOL     OW 1277   3.258   5.603   6.173  0.1049 -0.4734 -0.3689
  378SOL    HW2 1278   3.292   5.524   6.131 -0.7794 -1.0100 -0.1102
  378SOL    HW3 1279   3.329   5.667   6.166  0.0926 -0.6256 -2.4185
  378SOL    MW4 1280   3.272   5.601   6.167 -0.4475  0.2906 -0.0525
  379SOL     OW 1281   2.881   2.939   0.399 -0.4734 -0.0731 -0.1293
  379SOL    HW2 1282   2.969   2.939   0.362 -0.0951 -1.8145  0.6982
  379SOL    HW3 1283   2.877   3.021   0.450  0.2433  0.5672 -1.0628
  379SOL    MW4 1284   2.892   2.950   0.401  0.3620 -0.1564  0.3412
  380SOL     OW 1285   5.001   3.582   0.875 -0.0434 -0.2676 -0.7081
  380SOL    HW2 1286   5.064   3.654   0.881 -0.1993 -0.0441 -1.5192
  380SOL    HW3 1287   4.932   3.615   0.817 -1.0162 -0.4396  0.3200
  380SOL    MW4 1288   5.000   3.596   0.868 -0.0341 -0.4225  0.5860
  381SOL     OW 1289   5.831   5.189   6.406 -0.0999 -0.1203  0.5520
  381SOL    HW2 1290   5.862   5.101   6.386 -0.3727  0.0280 -0.6053
  381SOL    HW3 1291   5.818   5.230   6.320 -1.4690  0.5242  1.0401
  381SOL    MW4 1292   5.834   5.183   6.392  0.4129 -0.4688 -0.1407
  382SOL     OW 1293   3.273   1.673   2.248 -0.8353 -0.1181 -0.2263
  382SOL    HW2 1294   3.211   1.636   2.311 -1.1696 -1.9236 -1.5291
  382SOL    HW3 1295   3.218   1.711   2.180 -0.4763  1.8105  0.5059
  382SOL    MW4 1296   3.257   1.673   2.247  0.2410  1.1559  0.2028
  383SOL     OW 1297   6.356   6.218   2.523 -0.2910 -0.1364 -0.0949
  383SOL    HW2 1298   6.359   6.208   2.428 -0.0723  0.5671 -0.1658
  383SOL    HW3 1299   6.446   6.200   2.551  0.4652  2.7011 -0.3570
  383SOL    MW4 1300   6.368   6.214   2.514  0.5582  0.3218  0.2375
  384SOL     OW 1301   2.308   1.150   2.924 -0.2513  0.0741 -0.3409
  384SOL    HW2 1302   2.241   1.172   2.859  0.2828  1.6164 -0.3962
  384SOL    HW3 1303   2.356   1.078   2.884 -0.7921  0.0942 -1.0556
  384SOL    MW4 1304   2.305   1.143   2.910 -0.1723 -0.1720 -0.3760
  385SOL     OW 1305   2.847   4.105   1.940  0.4225  0.0986 -0.0372
  385SOL    HW2 1306   2.892   4.184   1.969 -1.2665  1.2837 -0.4570
  385SOL    HW3 1307   2.847   4.111   1.844  0.8367 -0.7592 -0.1057
  385SOL    MW4 1308   2.853   4.116   1.931 -0.0567  0.1289 -0.3215
  386SOL     OW 1309   5.862   6.296   1.020  0.3173 -0.3067  0.4793
  386SOL    HW2 1310   5.841   6.279   1.112  1.7494  1.7329  1.2583
  386SOL    HW3 1311   5.942   6.246   1.004 -0.2642 -1.1561  0.1082
  386SOL    MW4 1312   5.870   6.287   1.030  0.1502 -0.5223  0.2708
  387SOL     OW 1313   4.548   5.014   1.428  0.4392 -0.1441 -0.8654
  387SOL    HW2 1314   4.596   5.097   1.422  0.3123 -0.1125 -1.5367
  387SOL    HW3 1315   4.457   5.040   1.439  0.7609 -0.1823  2.8482
  387SOL    MW4 1316   4.543   5.028   1.428 -0.2449  0.0981 -0.6028
  388SOL     OW 1317   1.106   4.805   1.461  0.5801  0.1798  0.7606
  388SOL    HW2 1318   1.171   4.756   1.511  1.6030  1.3070  0.5852
  388SOL    HW3 1319   1.101   4.890   1.505  0.2068  0.5677 -0.0111
  388SOL    MW4 1320   1.114   4.810   1.473 -0.5113  0.3505  0.6184
  389SOL     OW 1321   1.989   6.371   5.254  0.0207 -0.2299 -0.1970
  389SOL    HW2 1322   2.002   6.277   5.236 -1.1783 -0.5231  0.3523
  389SOL    HW3 1323   1.894   6.383   5.246  0.2708  1.1987 -1.4304
  389SOL    MW4 1324   1.978   6.360   5.251 -0.1910 -0.3034  0.3093
  390SOL     OW 1325   5.270   0.859   6.301  0.5871 -0.2021  0.2504
  390SOL    HW2 1326   5.365   0.857   6.317  0.8149  1.2148 -0.7377
  390SOL    HW3 1327   5.232   0.877   6.387  1.2343 -0.4194  0.5939
  390SOL    MW4 1328   5.278   0.861   6.315  0.7608  0.1754 -0.3497
  391SOL     OW 1329   6.158   2.677   2.253  0.4983 -0.5555 -0.5312
  391SOL    HW2 1330   6.231   2.739   2.261 -0.1784  0.3201 -0.9223
  391SOL    HW3 1331   6.085   2.731   2.224 -0.1366 -1.5375 -0.7919
  391SOL    MW4 1332   6.158   2.692   2.250  0.0768  0.4699  0.6018
  392SOL     OW 1333   1.200   2.270   1.879 -0.2242  0.1219  0.2393
  392SOL    HW2 1334   1.142   2.311   1.813  0.6490  0.0921 -0.5675
  392SOL    HW3 1335   1.237   2.344   1.926 -1.2045  0.1313  1.0318
  392SOL    MW4 1336   1.197   2.285   1.876 -0.0760 -0.0090 -0.2557
  393SOL     OW 1337   4.607   0.947   4.968 -0.6545 -0.4224  0.2674
  393SOL    HW2 1338   4.539   0.897   5.014 -0.8161 -1.0046 -0.5831
  393SOL    HW3 1339   4.674   0.962   5.035 -0.4156 -2.1302  0.4728
  393SOL    MW4 1340   4.607   0.942   4.983 -0.0871 -0.4299 -0.5652
  394SOL     OW 1341   3.658   0.339   1.949 -0.2173  0.0539  0.6836
  394SOL    HW2 1342   3.607   0.409   1.990  0.5771  1.5490 -0.7608
  394SOL    HW3 1343   3.701   0.381   1.875 -0.3054 -2.1613 -0.7126
  394SOL    MW4 1344   3.657   0.354   1.945  0.7108  0.3835 -0.9549
  395SOL     OW 1345   3.119   0.920   4.438  0.6488 -0.0092  0.0417
  395SOL    HW2 1346   3.041   0.882   4.477  0.3544 -0.8617 -1.2832
  395SOL    HW3 1347   3.132   0.869   4.357  1.6322  1.1813 -0.5803
  395SOL    MW4 1348   3.110   0.908   4.432 -0.2082 -0.1024  0.2379
  396SOL     OW 1349   2.497   3.852   3.484  0.1658  0.0354 -0.0928
  396SOL    HW2 1350   2.563   3.803   3.435  0.2796  0.7672 -0.6856
  396SOL    HW3 1351   2.435   3.785   3.514  1.1544 -0.6619  0.4609
  396SOL    MW4 1352   2.498   3.836   3.482 -0.1928  0.2297 -0.4303
  397SOL     OW 1353   5.021   6.235   3.172 -0.1098  0.1736  0.2034
  397SOL    HW2 1354   5.039   6.322   3.136  0.8149 -0.3076 -0.5554
  397SOL    HW3 1355   5.098   6.183   3.147  0.0406 -0.4852  1.9112
  397SOL    MW4 1356   5.034   6.240   3.164 -0.0827  0.0071  0.2553
  398SOL     OW 1357   4.570   3.995   3.426  0.0303 -0.3622  0.0743
  398SOL    HW2 1358   4.537   3.996   3.336 -1.9831  0.6223  0.7713
  398SOL    HW3 1359   4.660   4.028   3.419  0.3428 -1.4070 -1.6773
  398SOL    MW4 1360   4.578   3.999   3.413  0.3976 -0.2161 -0.2126
  399SOL     OW 1361   5.348   4.930   0.928 -0.5547  0.0577  0.9575
  399SOL    HW2 1362   5.345   4.987   1.005  1.6786  2.2170 -0.4090
  399SOL    HW3 1363   5.262   4.941   0.886 -1.7113 -0.9602  2.9038
  399SOL    MW4 1364   5.336   4.939   0.933 -0.0740  0.4144 -0.2100
  400SOL     OW 1365   6.002   4.320   2.739 -0.7015 -0.2427  0.3219
  400SOL    HW2 1366   6.094   4.341   2.721 -1.0567 -0.1030 -1.5301
  400SOL    HW3 1367   6.003   4.276   2.824  1.2013 -1.1652 -0.1322
  400SOL    MW4 1368   6.014   4.317   2.748 -0.4847 -0.2113 -0.5737
  401SOL     OW 1369   2.883   4.163   1.667 -0.2993  0.2762  0.0488
  401SOL    HW2 1370   2.837   4.247   1.665  0.8962  0.9513 -0.0336
  401SOL    HW3 1371   2.842   4.112   1.597 -0.9737  0.8206  0.0322
  401SOL    MW4 1372   2.871   4.168   1.657 -0.2308  0.5097  0.1016
  402SOL     OW 1373   4.776   3.118   2.701 -0.3735 -0.1747  0.0856
  402SOL    HW2 1374   4.846   3.057   2.680 -0.2866 -0.4926  1.2410
  402SOL    HW3 1375   4.760   3.165   2.620  1.0449 -0.2391 -0.2514
  402SOL    MW4 1376   4.783   3.116   2.688 -0.0543 -0.2406 -0.4014
  403SOL     OW 1377   4.069   4.665   1.365  0.4482 -0.2541 -0.7078
  403SOL    HW2 1378   4.070   4.716   1.445 -1.0747 -2.2419  0.6868
  403SOL    HW3 1379   4.149   4.690   1.319  1.3623  0.9675  1.4194
  403SOL    MW4 1380   4.080   4.675   1.370  0.4058  1.0433  0.0175
  404SOL     OW 1381   1.841   5.724   3.595  0.0835  0.6530  0.3873
  404SOL    HW2 1382   1.915   5.684   3.642 -0.0068  1.4862  1.2733
  404SOL    HW3 1383   1.770   5.726   3.659 -0.1466  1.5091  0.1149
  404SOL    MW4 1384   1.842   5.719   3.609 -0.2022  0.0727 -0.3471
  405SOL     OW 1385   2.770   4.901   4.559  0.3784  0.2678  0.2345
  405SOL    HW2 1386   2.727   4.816   4.569  1.1589 -0.0945  0.5610
  405SOL    HW3 1387   2.760   4.943   4.644 -0.4506  0.7227 -0.0771
  405SOL    MW4 1388   2.763   4.895   4.571  0.4360 -0.2302 -0.2560
  406SOL     OW 1389   2.945   4.631   0.505  0.5270 -0.3662 -0.6115
  406SOL    HW2 1390   2.939   4.598   0.415 -2.0730  0.8150 -0.9646
  406SOL    HW3 1391   2.872   4.590   0.551  0.1323  1.1608  0.2004
  406SOL    MW4 1392   2.934   4.621   0.499 -0.0514 -0.4996  0.1448
  407SOL     OW 1393   6.450   1.827   3.198 -0.5945  0.5899 -0.4954
  407SOL    HW2 1394   6.533   1.848   3.155  0.0451 -0.0877  0.3670
  407SOL    HW3 1395   6.394   1.797   3.127  0.0638  0.5727 -1.0217
  407SOL    MW4 1396   6.454   1.826   3.183  0.1574 -0.0642  0.3186
  408SOL     OW 1397   1.415   4.147   2.384  0.9182 -0.2562  0.2603
  408SOL    HW2 1398   1.373   4.208   2.324  0.9986 -0.3898  0.0675
  408SOL    HW3 1399   1.345   4.087   2.410  1.2443 -1.2378 -1.0207
  408SOL    MW4 1400   1.400   4.147   2.379 -0.0936 -0.1835  0.1803
  409SOL     OW 1401   5.736   4.604   4.459 -0.3968 -0.2591  0.4672
  409SOL    HW2 1402   5.665   4.622   4.521 -0.5452  0.8534 -0.0036
  409SOL    HW3 1403   5.800   4.673   4.474 -0.6681  0.3366 -0.9457
  409SOL    MW4 1404   5.735   4.615   4.469  1.2141  0.0139  0.6343
  410SOL     OW 1405   4.217   2.990   4.210 -0.3066  0.2349  0.9133
  410SOL    HW2 1406   4.304   2.952   4.217  0.7293  2.1118 -0.6563
  410SOL    HW3 1407   4.164   2.921   4.169  1.4293  0.2683 -1.6164
  410SOL    MW4 1408   4.221   2.976   4.205 -0.1656  0.1702 -0.2240
  411SOL     OW 1409   3.550   0.586   0.478  0.1042  0.2915  0.0372
  411SOL    HW2 1410   3.644   0.575   0.485 -0.1130 -0.8048  2.6655
  411SOL    HW3 1411   3.537   0.681   0.467  1.4928  0.4276 -0.5195
  411SOL    MW4 1412   3.561   0.597   0.478  0.3563  0.8079 -0.3340
  412SOL     OW 1413   4.754   1.703   5.145 -0.1196 -0.6865 -0.7126
  412SOL    HW2 1414   4.814   1.631   5.165 -0.7612 -0.9848  0.1948
  412SOL    HW3 1415   4.691   1.665   5.085 -1.2638 -1.3166  0.8141
  412SOL    MW4 1416   4.754   1.688   5.140  0.2130 -0.1742 -0.5350
  413SOL     OW 1417   4.605   1.270   5.080  0.6597 -0.6888  0.0401
  413SOL    HW2 1418   4.573   1.196   5.131 -0.1802  0.2334  0.8906
  413SOL    HW3 1419   4.633   1.334   5.146 -3.0879  1.7425 -0.4419
  413SOL    MW4 1420   4.605   1.269   5.096 -0.2579  0.6338 -0.1473
  414SOL     OW 1421   2.275   6.338   5.020  0.9102  0.3249 -0.1412
  414SOL    HW2 1422   2.359   6.322   4.976  1.6649  0.7038  1.0874
  414SOL    HW3 1423   2.298   6.395   5.094 -0.8177  2.5412 -1.2002
  414SOL    MW4 1424   2.289   6.343   5.024 -0.0459 -0.0321  0.4406
  415SOL     OW 1425   5.211   0.107   1.667  0.4875 -0.0567  0.3003
  415SOL    HW2 1426   5.265   0.184   1.686  0.1968  0.1218  0.4145
  415SOL    HW3 1427   5.256   0.035   1.711 -0.6077  0.4824  2.4446
  415SOL    MW4 1428   5.224   0.107   1.676  0.0910 -1.1185  0.6445
  416SOL     OW 1429   6.016   3.913   0.366  0.3674  0.0924  0.2021
  416SOL    HW2 1430   5.973   3.865   0.436 -3.0323  1.6770 -0.6205
  416SOL    HW3 1431   6.050   3.992   0.409  0.9269 -0.3298  0.5489
  416SOL    MW4 1432   6.015   3.917   0.381  1.1939 -0.1593 -0.3865
  417SOL     OW 1433   2.324   3.279   4.524  0.0606  0.2677 -0.0850
  417SOL    HW2 1434   2.324   3.227   4.604 -1.1235  1.3961  0.6789
  417SOL    HW3 1435   2.401   3.335   4.531 -1.0122  1.6593  1.1778
  417SOL    MW4 1436   2.334   3.279   4.535  0.2172 -0.2763  0.1253
  418SOL     OW 1437   4.573   6.005   6.010  0.3414 -0.2494  0.3753
  418SOL    HW2 1438   4.555   6.091   5.972  3.9772  1.3392  1.7891
  418SOL    HW3 1439   4.533   6.008   6.097 -1.2533 -0.8561 -0.2975
  418SOL    MW4 1440   4.565   6.017   6.016 -0.0249 -0.2852  0.0352
  419SOL     OW 1441   4.511   2.606   3.826 -0.1962  0.6066  0.4808
  419SOL    HW2 1442   4.566   2.615   3.749 -0.0706  0.7069  0.5822
  419SOL    HW3 1443   4.524   2.516   3.855 -0.6761  0.3954  0.0569
  419SOL    MW4 1444   4.520   2.596   3.820 -0.0846 -0.3434  0.3219
  420SOL     OW 1445   2.883   4.510   4.038  0.2598  0.0315 -0.3669
  420SOL    HW2 1446   2.922   4.475   4.118 -0.2514  0.8490  0.2592
  420SOL    HW3 1447   2.956   4.546   3.988  0.5703 -0.4193 -0.2382
  420SOL    MW4 1448   2.897   4.510   4.042  0.4944 -0.4564 -0.6908
  421SOL     OW 1449   2.517   2.901   5.333 -0.1446  0.2205  0.0074
  421SOL    HW2 1450   2.599   2.869   5.371  0.2823  0.2972 -0.8214
  421SOL    HW3 1451   2.543   2.938   5.249 -0.9502  0.7772 -0.0084
  421SOL    MW4 1452   2.531   2.902   5.327 -0.0063  0.0566  0.7273
  422SOL     OW 1453   1.379   4.400   6.085 -0.2514  0.0120 -0.1512
  422SOL    HW2 1454   1.418   4.439   6.163  2.0787 -0.1576 -1.1455
  422SOL    HW3 1455   1.287   4.386   6.109  0.8913 -2.7329  3.6173
  422SOL    MW4 1456   1.372   4.403   6.099  0.0382  0.1336 -0.1047
  423SOL     OW 1457   3.407   0.011   3.044  0.0442  0.2115  0.0444
  423SOL    HW2 1458   3.314  -0.010   3.045 -0.1399  0.8773 -1.0945
  423SOL    HW3 1459   3.440  -0.033   2.965  0.4655  0.8395 -0.1380
  423SOL    MW4 1460   3.399   0.003   3.034  0.1296  0.7686  0.6912
  424SOL     OW 1461   4.411   1.525   4.365  0.4392 -0.3378 -0.0590
  424SOL    HW2 1462   4.379   1.492   4.281  0.8540  0.7786 -0.6701
  424SOL    HW3 1463   4.359   1.477   4.430  0.0022 -1.1010 -0.9407
  424SOL    MW4 1464   4.400   1.514   4.363 -0.5077 -0.2004 -0.2202
  425SOL     OW 1465   3.130   3.586   4.849 -0.3227  0.0634 -0.3239
  425SOL    HW2 1466   3.073   3.512   4.871 -0.2916  0.2085  0.2820
  425SOL    HW3 1467   3.123   3.644   4.925  0.1122  0.3991 -0.5388
  425SOL    MW4 1468   3.121   3.584   4.862 -0.1989 -0.1101 -0.0800
  426SOL     OW 1469   4.287   4.767   2.960 -0.1056  0.0648 -0.1825
  426SOL    HW2 1470   4.207   4.786   2.910 -1.0132 -3.6738 -0.4736
  426SOL    HW3 1471   4.355   4.759   2.893  0.1937  1.6292 -0.0930
  426SOL    MW4 1472   4.285   4.769   2.944  0.6528  0.3493  0.1965
  427SOL     OW 1473   0.913   3.474   6.102 -0.0172 -0.2701 -0.1998
  427SOL    HW2 1474   0.940   3.557   6.063 -0.8669  0.6709  1.1117
  427SOL    HW3 1475   0.961   3.470   6.185 -0.1194 -1.0219 -0.1677
  427SOL    MW4 1476   0.923   3.484   6.108  0.3172  0.1552 -0.1944
  428SOL     OW 1477   5.814   6.075   3.407 -0.7090  0.7798  0.4475
  428SOL    HW2 1478   5.821   6.139   3.478  1.3137 -0.1573  1.1591
  428SOL    HW3 1479   5.892   6.090   3.354 -1.4386  0.4548 -0.7498
  428SOL    MW4 1480   5.825   6.086   3.410  0.1346 -0.5456 -0.7273
  429SOL     OW 1481   3.440   0.673   3.483 -0.4165  0.4819  0.6211
  429SOL    HW2 1482   3.455   0.752   3.535  1.2115  1.0533 -0.6388
  429SOL    HW3 1483   3.519   0.620   3.496 -1.7086 -1.2403  1.8772
  429SOL    MW4 1484   3.453   0.677   3.491 -0.0196 -0.7320 -0.5251
  430SOL     OW 1485   6.431   0.638   0.987 -0.1449 -0.2020 -0.1002
  430SOL    HW2 1486   6.460   0.548   0.972  0.3666  0.0975 -0.9887
  430SOL    HW3 1487   6.502   0.678   1.037 -0.4317 -0.3221  0.4106
  430SOL    MW4 1488   6.444   0.631   0.992 -0.9706 -0.0324  0.0614
  431SOL     OW 1489   5.530   4.082   6.381  0.3949 -0.1741 -0.3862
  431SOL    HW2 1490   5.548   4.030   6.460 -0.9134  1.4016  1.0135
  431SOL    HW3 1491   5.608   4.137   6.371 -0.2593  1.0936  1.0801
  431SOL    MW4 1492   5.543   4.082   6.390  0.0428  0.0576  0.6482
  432SOL     OW 1493   0.585   4.992   4.419  0.1021 -0.0363  0.1808
  432SOL    HW2 1494   0.598   4.949   4.334 -0.1735 -0.3649  0.3033
  432SOL    HW3 1495   0.656   4.958   4.474 -0.3392 -0.6364  0.3903
  432SOL    MW4 1496   0.596   4.982   4.415 -0.1947  0.2193 -0.3382
  433SOL     OW 1497   3.357   6.419   3.570  0.0343 -1.0295 -0.2764
  433SOL    HW2 1498   3.284   6.458   3.617 -0.4621 -1.1730 -0.9164
  433SOL    HW3 1499   3.387   6.348   3.627  0.1711 -0.4816  0.3388
  433SOL    MW4 1500   3.351   6.415   3.584 -1.2110 -0.0714  0.2120
  434SOL     OW 1501   0.916   2.650   1.431 -0.0912 -0.3408  0.4389
  434SOL    HW2 1502   0.831   2.692   1.443 -0.4161 -1.0983  0.8281
  434SOL    HW3 1503   0.977   2.723   1.418 -0.8702  0.1849 -0.3276
  434SOL    MW4 1504   0.913   2.665   1.431 -0.3057  0.2998 -0.2892
  435SOL     OW 1505   5.823   6.052   5.944 -0.3658  0.2318  0.5600
  435SOL    HW2 1506   5.767   6.077   5.871  1.3522  0.7929 -0.6466
  435SOL    HW3 1507   5.823   6.128   6.002 -0.6045  0.3449  0.4096
  435SOL    MW4 1508   5.816   6.065   5.942  0.1894 -0.0914  0.2054
  436SOL     OW 1509   0.207   5.305   5.822  0.0109  0.6926  0.1713
  436SOL    HW2 1510   0.197   5.211   5.837 -0.8461 -0.0623 -3.8530
  436SOL    HW3 1511   0.230   5.341   5.908  0.0796 -3.0967  1.9525
  436SOL    MW4 1512   0.209   5.298   5.835 -0.2563  0.6765  0.0325
  437SOL     OW 1513   3.443   0.886   0.319 -0.6016  0.3259  0.5257
  437SOL    HW2 1514   3.472   0.921   0.235  0.4074  0.8882  1.0889
  437SOL    HW3 1515   3.358   0.928   0.335  0.2233  1.9608  0.8219
  437SOL    MW4 1516   3.435   0.896   0.310 -0.3156  0.7680 -0.1954
  438SOL     OW 1517   2.061   1.812   2.796  0.0677  0.0194  0.7431
  438SOL    HW2 1518   1.967   1.832   2.797  0.5011  2.3610  1.4173
  438SOL    HW3 1519   2.089   1.823   2.886  1.4804  2.4904  0.1197
  438SOL    MW4 1520   2.053   1.816   2.808 -0.2293  0.1345 -0.1337
  439SOL     OW 1521   2.567   1.359   0.315  0.8886 -0.0642 -0.0781
  439SOL    HW2 1522   2.658   1.331   0.323  1.0036  0.1451 -0.6001
  439SOL    HW3 1523   2.570   1.435   0.258  0.0745 -1.8921 -2.7608
  439SOL    MW4 1524   2.579   1.365   0.309 -0.2526  0.1946  0.2863
  440SOL     OW 1525   4.417   2.749   2.879 -0.0052  0.0045  0.0209
  440SOL    HW2 1526   4.403   2.687   2.808 -0.1088 -0.4055  0.3990
  440SOL    HW3 1527   4.445   2.830   2.835 -0.0822 -0.2413 -0.4839
  440SOL    MW4 1528   4.419   2.752   2.864 -0.0633  0.2945 -0.5822
  441SOL     OW 1529   5.771   0.292   4.499 -0.0202 -0.5049  0.4505
  441SOL    HW2 1530   5.710   0.242   4.445 -0.4085  0.1315  0.2864
  441SOL    HW3 1531   5.720   0.368   4.529  0.6931  0.0604  0.2741
  441SOL    MW4 1532   5.756   0.296   4.496 -0.5400 -0.5212  0.5199
  442SOL     OW 1533   1.253   0.728   2.458  0.5310  0.1874 -0.3492
  442SOL    HW2 1534   1.211   0.643   2.450  0.4620  0.3553 -2.3926
  442SOL    HW3 1535   1.181   0.790   2.470  0.5341  0.0369  0.4781
  442SOL    MW4 1536   1.238   0.725   2.458 -0.1147  0.8441 -0.0175
  443SOL     OW 1537   1.588   6.162   0.487 -0.1281  0.0274  0.0600
  443SOL    HW2 1538   1.604   6.068   0.474 -0.0031  0.2463 -1.4904
  443SOL    HW3 1539   1.663   6.192   0.539  0.3539 -0.5248 -0.3059
  443SOL    MW4 1540   1.600   6.153   0.492  0.9314 -0.1443  0.1536
  444SOL     OW 1541   4.331   3.884   5.157 -0.0316 -0.6553  0.1347
  444SOL    HW2 1542   4.339   3.791   5.137 -2.1095 -0.2762 -3.1951
  444SOL    HW3 1543   4.246   3.892   5.199 -0.1517 -0.1965 -0.1884
  444SOL    MW4 1544   4.321   3.873   5.160 -0.0402  0.3200 -0.0309
  445SOL     OW 1545   2.831   0.505   1.536  0.2947 -0.4654 -0.1186
  445SOL    HW2 1546   2.846   0.588   1.492 -0.1703  0.9460  2.2232
  445SOL    HW3 1547   2.915   0.482   1.575  1.0748 -2.3950 -2.6196
  445SOL    MW4 1548   2.844   0.513   1.535 -0.2303 -0.7695 -0.3798
  446SOL     OW 1549   1.039   0.875   6.236  0.0464 -0.2344 -0.6459
  446SOL    HW2 1550   0.952   0.852   6.203  0.8308 -1.1027 -2.2070
  446SOL    HW3 1551   1.095   0.803   6.209  1.0202 -0.3945  1.5751
  446SOL    MW4 1552   1.034   0.863   6.228  0.0792  0.4633 -0.2269
  447SOL     OW 1553   1.877   1.439   2.056  0.3597 -0.1814  0.1309
  447SOL    HW2 1554   1.784   1.448   2.074  0.2771  2.5160 -1.1382
  447SOL    HW3 1555   1.882   1.374   1.986 -0.2555 -2.2793  1.9321
  447SOL    MW4 1556   1.866   1.432   2.049 -0.0932 -0.0969  0.6886
  448SOL     OW 1557   1.311   1.020   3.586 -0.3422  0.0202  0.8636
  448SOL    HW2 1558   1.260   1.053   3.513  0.2374 -0.1487  0.3735
  448SOL    HW3 1559   1.247   1.004   3.655 -0.8546  0.4557  0.4932
  448SOL    MW4 1560   1.296   1.022   3.586  0.1132  0.7102  0.2765
  449SOL     OW 1561   5.611   2.390   4.466 -0.0611 -0.0184 -0.0382
  449SOL    HW2 1562   5.526   2.372   4.507 -0.4053  1.2898 -0.1465
  449SOL    HW3 1563   5.627   2.482   4.484  1.0241 -0.0891 -0.6036
  449SOL    MW4 1564   5.602   2.400   4.474  0.2723 -0.2468  0.0732
  450SOL     OW 1565   2.901   2.390   1.290  0.8122  0.1502 -1.0723
  450SOL    HW2 1566   2.829   2.388   1.227  0.8218 -0.0828 -1.0762
  450SOL    HW3 1567   2.933   2.300   1.294 -2.2645 -1.0800  2.7362
  450SOL    MW4 1568   2.896   2.378   1.282  0.2548  0.6385  0.2949
  451SOL     OW 1569   6.258   2.976   1.614 -0.1248  0.0300 -0.2660
  451SOL    HW2 1570   6.261   2.881   1.625 -0.1436 -0.0396 -0.8455
  451SOL    HW3 1571   6.292   2.992   1.526 -0.6901  0.5111 -0.4070
  451SOL    MW4 1572   6.263   2.966   1.604 -0.1684 -0.5412  0.8810
  452SOL     OW 1573   4.179   2.458   4.329 -0.0059 -0.5420 -0.3390
  452SOL    HW2 1574   4.205   2.539   4.372  1.5205 -0.1933 -1.8267
  452SOL    HW3 1575   4.200   2.389   4.392  2.4494 -0.0830 -0.5731
  452SOL    MW4 1576   4.185   2.460   4.343 -0.2605  0.1719 -0.3720
  453SOL     OW 1577   1.998   2.619   2.055  0.0273  0.0204 -0.5727
  453SOL    HW2 1578   1.938   2.575   1.995  0.3652  0.7429 -1.4495
  453SOL    HW3 1579   2.016   2.704   2.015 -0.3089  0.8262  0.9044
  453SOL    MW4 1580   1.993   2.624   2.042 -0.0892  0.7115  0.5443
  454SOL     OW 1581   0.859   5.385   4.910 -0.0797  0.5481 -0.2776
  454SOL    HW2 1582   0.770   5.414   4.893 -0.9436 -0.8945  1.4744
  454SOL    HW3 1583   0.893   5.357   4.825 -2.4108 -1.7850 -0.5484
  454SOL    MW4 1584   0.852   5.385   4.897 -0.2674 -0.4465 -0.2726
  455SOL     OW 1585   4.038   4.358   0.437 -0.7182  0.1236 -0.4112
  455SOL    HW2 1586   4.006   4.416   0.368 -1.4547  0.7354  0.4166
  455SOL    HW3 1587   3.965   4.352   0.499  0.7654  1.6472  1.6110
  455SOL    MW4 1588   4.024   4.365   0.436  0.0836  0.1317  0.5510
  456SOL     OW 1589   3.510   3.518   5.837 -0.2556 -0.3122 -0.4549
  456SOL    HW2 1590   3.574   3.477   5.780 -0.2437  0.5119 -1.0577
  456SOL    HW3 1591   3.537   3.494   5.926 -0.3773 -1.7517 -0.7953
  456SOL    MW4 1592   3.522   3.510   5.842  0.2391  0.3359 -0.5009
  457SOL     OW 1593   5.973   1.065   2.144  0.0866 -0.0020  0.3591
  457SOL    HW2 1594   5.938   1.048   2.057 -0.0808  1.3599  0.1326
  457SOL    HW3 1595   6.022   1.147   2.135  0.4869 -0.0988  1.4339
  457SOL    MW4 1596   5.975   1.074   2.132  0.3599 -0.8332  0.1572
  458SOL     OW 1597   4.625   2.625   5.172 -0.3106 -0.1853  0.7534
  458SOL    HW2 1598   4.679   2.621   5.251  1.4099 -1.3073 -0.4081
  458SOL    HW3 1599   4.535   2.617   5.203  0.3733 -1.2799  2.5496
  458SOL    MW4 1600   4.620   2.624   5.186 -0.0529  0.1468 -0.3858
  459SOL     OW 1601   4.899   0.191   3.607  0.1476  0.1895 -0.4716
  459SOL    HW2 1602   4.979   0.196   3.660  0.0005 -0.0092 -0.2307
  459SOL    HW3 1603   4.930   0.170   3.519  0.2831 -1.0107 -0.1573
  459SOL    MW4 1604   4.914   0.189   3.602 -0.0030 -0.4682 -0.1294
  460SOL     OW 1605   3.988   5.993   1.458 -0.1006  0.0025 -0.1871
  460SOL    HW2 1606   4.063   5.946   1.495  0.7790  2.2098  0.9967
  460SOL    HW3 1607   4.007   5.998   1.364  1.4545  0.8528  0.1409
  460SOL    MW4 1608   4.000   5.988   1.450  0.1974 -0.1697  0.1547
  461SOL     OW 1609   2.696   0.757   0.121  0.2848  0.3464 -0.5497
  461SOL    HW2 1610   2.788   0.735   0.105  0.4224 -0.1660  0.8088
  461SOL    HW3 1611   2.697   0.851   0.137  1.0592 -0.0472  2.2438
  461SOL    MW4 1612   2.708   0.766   0.121 -0.1863  0.0797  0.1588
  462SOL     OW 1613   3.367   2.783   1.752  0.0666 -0.4704  0.0593
  462SOL    HW2 1614   3.454   2.803   1.718 -0.6998  0.8834 -1.1714
  462SOL    HW3 1615   3.358   2.689   1.738  1.4932 -0.7314  0.6470
  462SOL    MW4 1616   3.377   2.773   1.746 -0.0990  0.5389  0.3807
  463SOL     OW 1617   1.051   0.787   2.861  0.0309  0.2090 -0.3351
  463SOL    HW2 1618   0.986   0.838   2.909  0.9838  1.2597 -0.1230
  463SOL    HW3 1619   1.080   0.845   2.791  2.5870  0.8267  1.0816
  463SOL    MW4 1620   1.046   0.801   2.858  0.3762  0.3434 -0.6674
  464SOL     OW 1621   1.166   3.135   4.191  0.1656  0.0011 -0.3905
  464SOL    HW2 1622   1.187   3.207   4.250  0.7252  0.4454 -1.1208
  464SOL    HW3 1623   1.071   3.126   4.198  0.2040  0.1564  0.4423
  464SOL    MW4 1624   1.156   3.143   4.200  0.5907 -0.3039  0.0947
  465SOL     OW 1625   1.713   3.145   2.646 -0.1033 -0.1832  0.4644
  465SOL    HW2 1626   1.632   3.114   2.605  0.1871 -0.3408 -0.0038
  465SOL    HW3 1627   1.727   3.231   2.607 -1.1364  0.7642  2.0772
  465SOL    MW4 1628   1.704   3.152   2.635 -0.7300 -0.1931  0.1365
  466SOL     OW 1629   0.325   4.504   3.956  0.3007  0.0302  0.1162
  466SOL    HW2 1630   0.386   4.534   4.023  0.9582  0.3390 -0.5970
  466SOL    HW3 1631   0.357   4.544   3.875 -0.2016 -0.6992 -0.4586
  466SOL    MW4 1632   0.337   4.513   3.954  0.3805  0.1847 -0.3069
  467SOL     OW 1633   0.990   0.072   2.041 -0.4582 -0.2372  0.3133
  467SOL    HW2 1634   1.016  -0.012   2.003  0.3159 -0.2855  0.9190
  467SOL    HW3 1635   1.026   0.070   2.130 -0.9844  0.4714  0.5518
  467SOL    MW4 1636   0.998   0.060   2.048 -0.2319  0.3290 -0.2162
  468SOL     OW 1637   4.530   3.947   5.316 -0.2825  0.0027  0.0577
  468SOL    HW2 1638   4.459   3.906   5.266 -0.4217  0.7753 -0.3958
  468SOL    HW3 1639   4.556   4.022   5.262  0.4693  0.0743  0.5153
  468SOL    MW4 1640   4.524   3.951   5.302  0.3766  0.0476 -0.0570
  469SOL     OW 1641   0.053   5.538   1.188 -0.2362 -0.0638  0.3579
  469SOL    HW2 1642  -0.021   5.531   1.128 -1.1960 -0.1464  1.5014
  469SOL    HW3 1643   0.131   5.535   1.132 -1.1101  1.2747 -1.0029
  469SOL    MW4 1644   0.054   5.537   1.173  0.5720 -0.2035 -0.3956
  470SOL     OW 1645   2.978   5.208   5.915 -0.0041 -0.3096 -0.0369
  470SOL    HW2 1646   2.960   5.221   5.822  2.3209 -1.7999 -0.7912
  470SOL    HW3 1647   2.922   5.135   5.940 -2.4543  1.5993  0.4792
  470SOL    MW4 1648   2.968   5.200   5.906 -1.0400  0.2365  0.0001
  471SOL     OW 1649   0.560   4.019   5.164 -0.2147  0.9288  0.1253
  471SOL    HW2 1650   0.474   4.021   5.121  0.0240  1.2723 -0.3378
  471SOL    HW3 1651   0.616   3.970   5.105 -0.1552  0.4714  0.5556
  471SOL    MW4 1652   0.556   4.013   5.151  0.2938  0.3651 -0.1206
  472SOL     OW 1653   2.365   1.278   4.655 -0.1447  0.2832  0.0626
  472SOL    HW2 1654   2.415   1.358   4.675  0.1871 -0.1544  1.0383
  472SOL    HW3 1655   2.429   1.208   4.664 -1.0765 -0.3633  1.9990
  472SOL    MW4 1656   2.380   1.280   4.659 -0.1714 -0.2687  0.2642
  473SOL     OW 1657   2.169   2.214   5.553  0.0225  0.2696 -0.7636
  473SOL    HW2 1658   2.171   2.271   5.476 -0.0383  1.0507 -0.2028
  473SOL    HW3 1659   2.261   2.199   5.574  0.0382  0.4878 -0.6762
  473SOL    MW4 1660   2.181   2.219   5.545  0.0398 -0.0348  0.5666
  474SOL     OW 1661   1.525   1.393   4.059  0.2601  0.0912 -0.1093
  474SOL    HW2 1662   1.505   1.331   4.130  0.5396 -0.6420 -0.6574
  474SOL    HW3 1663   1.579   1.343   3.998 -1.3729  0.1604 -1.7062
  474SOL    MW4 1664   1.529   1.378   4.060 -0.0153  1.0451 -0.5765
  475SOL     OW 1665   0.154   5.789   1.532 -0.3049 -0.1831  0.3969
  475SOL    HW2 1666   0.204   5.849   1.587  0.3688  0.6361 -1.0438
  475SOL    HW3 1667   0.213   5.715   1.517  0.4258  0.6362 -1.0372
  475SOL    MW4 1668   0.168   5.787   1.537  0.1935 -0.3384 -0.1043
  476SOL     OW 1669   1.469   1.961   3.224 -0.0856  0.2522  0.1712
  476SOL    HW2 1670   1.387   1.942   3.178  0.4062 -1.8761  0.0763
  476SOL    HW3 1671   1.511   1.876   3.234  2.3301  1.3278 -0.1443
  476SOL    MW4 1672   1.464   1.947   3.219 -0.2441 -0.1861 -0.2206
  477SOL     OW 1673   4.624   4.414   5.394 -0.1895  0.1369 -0.1635
  477SOL    HW2 1674   4.621   4.367   5.477  0.7884  0.3170 -0.0157
  477SOL    HW3 1675   4.534   4.443   5.379 -0.7991 -1.6385 -0.1861
  477SOL    MW4 1676   4.612   4.412   5.403  0.3219  0.4376 -0.0856
  478SOL     OW 1677   2.374   1.547   4.249 -0.0151  0.1297  0.3319
  478SOL    HW2 1678   2.457   1.521   4.289 -0.3616  1.5010  2.0464
  478SOL    HW3 1679   2.307   1.519   4.311 -0.5623  2.3141  0.8157
  478SOL    MW4 1680   2.376   1.540   4.262 -0.0855 -0.0365  0.1752
  479SOL     OW 1681   0.872   1.133   0.265  0.0552  0.4839  0.0184
  479SOL    HW2 1682   0.962   1.100   0.270 -0.8062 -1.9927  0.5775
  479SOL    HW3 1683   0.881   1.221   0.227  2.6973  0.3725  0.1760
  479SOL    MW4 1684   0.885   1.141   0.261 -0.5630  0.1543  0.3269
  480SOL     OW 1685   5.365   1.356   0.513  0.2941 -1.5243 -0.1418
  480SOL    HW2 1686   5.319   1.388   0.591 -0.3979 -0.4199 -0.9655
  480SOL    HW3 1687   5.296   1.328   0.454  0.8349 -2.8257 -0.1789
  480SOL    MW4 1688   5.350   1.357   0.515  0.2720 -0.1602 -0.2996
  481SOL     OW 1689   1.722   0.091   1.773 -0.7233 -0.4516 -0.0613
  481SOL    HW2 1690   1.662   0.066   1.702 -0.4347  1.0149 -0.8525
  481SOL    HW3 1691   1.667   0.139   1.835 -0.7798 -0.9346  0.2732
  481SOL    MW4 1692   1.707   0.094   1.772  0.0666  0.0042 -0.4442
  482SOL     OW 1693   1.702   0.192   1.123 -0.2482  0.0196 -0.3390
  482SOL    HW2 1694   1.724   0.126   1.057 -0.9647 -0.2220 -0.3451
  482SOL    HW3 1695   1.751   0.270   1.097  0.0673 -0.3028 -0.7196
  482SOL    MW4 1696   1.711   0.193   1.111  0.4019  0.1692 -0.1379
  483SOL     OW 1697   3.266   5.521   0.013 -0.5101  0.2846  0.0624
  483SOL    HW2 1698   3.258   5.541  -0.080  0.3164 -2.2291 -0.6406
  483SOL    HW3 1699   3.339   5.459   0.018 -1.8028 -1.2111  2.0801
  483SOL    MW4 1700   3.274   5.515   0.001 -0.2308  0.0052 -0.1964
  484SOL     OW 1701   5.116   5.643   2.873  0.4447 -0.2754  0.0150
  484SOL    HW2 1702   5.072   5.692   2.803  0.3284  0.0960  0.3420
  484SOL    HW3 1703   5.190   5.600   2.829 -1.3382 -2.5266 -0.9539
  484SOL    MW4 1704   5.120   5.644   2.858 -0.0844 -0.3289 -0.0552
  485SOL     OW 1705   3.352   4.916   6.020 -0.2085 -0.4155  0.0225
  485SOL    HW2 1706   3.329   4.851   6.086 -3.3775  0.7404  0.2116
  485SOL    HW3 1707   3.322   4.877   5.937  0.7308 -0.4735 -0.2990
  485SOL    MW4 1708   3.345   4.902   6.018 -0.2374 -0.5819 -0.1477
  486SOL     OW 1709   1.067   5.154   1.395 -0.3315 -0.0472  0.1447
  486SOL    HW2 1710   1.100   5.127   1.481 -0.6247 -2.2051 -0.3702
  486SOL    HW3 1711   1.129   5.117   1.332 -0.4876  0.9464 -0.6182
  486SOL    MW4 1712   1.079   5.146   1.398 -0.0109 -0.1524  0.1339
  487SOL     OW 1713   2.468   5.250   1.288 -0.0822  0.3752  0.3281
  487SOL    HW2 1714   2.475   5.159   1.316  1.5743  0.7650  1.3301
  487SOL    HW3 1715   2.419   5.294   1.357  0.0878  0.4540  0.3999
  487SOL    MW4 1716   2.463   5.244   1.301 -0.2809 -0.5383  0.0552
  488SOL     OW 1717   5.341   0.269   3.284  0.6623 -0.0130  0.0854
  488SOL    HW2 1718   5.306   0.182   3.302  0.5454  0.0724  0.2715
  488SOL    HW3 1719   5.358   0.307   3.370  1.3423 -0.1028 -0.0072
  488SOL    MW4 1720   5.339   0.262   3.297  0.2290  0.3177 -0.2043
  489SOL     OW 1721   3.547   1.794   0.570 -0.1272  0.0937  0.7644
  489SOL    HW2 1722   3.591   1.856   0.629  2.8005 -1.0081 -0.0714
  489SOL    HW3 1723   3.527   1.845   0.492  2.1007  0.1527  0.1521
  489SOL    MW4 1724   3.550   1.809   0.568 -0.3779  0.1997  0.3369
  490SOL     OW 1725   2.081   3.203   0.694 -0.3540 -0.5418 -0.5554
  490SOL    HW2 1726   2.050   3.135   0.753 -0.1908  0.6611  1.0035
  490SOL    HW3 1727   2.159   3.238   0.738  0.4003 -0.3145 -2.0252
  490SOL    MW4 1728   2.088   3.199   0.708 -0.5860  0.2576 -0.0628
  491SOL     OW 1729   1.839   0.306   5.400  0.3990  0.2527  0.0736
  491SOL    HW2 1730   1.798   0.382   5.359 -0.4564 -0.5688 -0.6488
  491SOL    HW3 1731   1.933   0.320   5.387  0.1874  0.4701 -1.3836
  491SOL    MW4 1732   1.846   0.318   5.393  0.4964  0.4676 -0.8527
  492SOL     OW 1733   2.315   1.128   1.652  0.2881  0.5323 -0.2099
  492SOL    HW2 1734   2.345   1.038   1.662  0.4592  0.3704 -1.8486
  492SOL    HW3 1735   2.379   1.168   1.592 -0.2309  1.4979 -0.1389
  492SOL    MW4 1736   2.327   1.121   1.645  0.4326  0.5986  0.2974
  493SOL     OW 1737   3.225   6.338   5.277 -0.3697 -0.4948 -0.0623
  493SOL    HW2 1738   3.224   6.386   5.359  0.4907  0.9493 -0.8628
  493SOL    HW3 1739   3.133   6.326   5.255 -0.7222 -3.0231  2.2459
  493SOL    MW4 1740   3.213   6.343   5.285  0.2311  0.4618  0.0949
  494SOL     OW 1741   3.046   6.415   1.119  0.6646 -0.5463 -0.1081
  494SOL    HW2 1742   3.107   6.387   1.187  0.7801 -3.4745 -1.2505
  494SOL    HW3 1743   2.959   6.405   1.159  0.7914  0.2003  0.3762
  494SOL    MW4 1744   3.042   6.410   1.133 -0.0042 -0.4670  0.0205
  495SOL     OW 1745   5.255   2.493   1.502 -0.1485 -0.2042 -0.0547
  495SOL    HW2 1746   5.241   2.533   1.416 -0.2104  1.7913  0.8340
  495SOL    HW3 1747   5.218   2.556   1.564  1.2775 -0.8697  1.5394
  495SOL    MW4 1748   5.248   2.507   1.499 -0.0920  0.3441 -0.6258
  496SOL     OW 1749   4.613   5.639   5.443  0.2134 -0.3992  0.0232
  496SOL    HW2 1750   4.697   5.683   5.459  0.7637 -1.1171 -0.7922
  496SOL    HW3 1751   4.636   5.565   5.387 -1.1744  0.3232 -1.6054
  496SOL    MW4 1752   4.627   5.635   5.437  0.1561 -0.1389  0.4603
  497SOL     OW 1753   2.238   2.090   0.191  0.2449 -0.3715  0.9037
  497SOL    HW2 1754   2.186   2.062   0.266  1.1279 -0.4606  1.4881
  497SOL    HW3 1755   2.240   2.013   0.134 -1.8692  0.2032 -0.0731
  497SOL    MW4 1756   2.231   2.076   0.193  0.1522 -0.3096 -0.5240
  498SOL     OW 1757   3.917   0.276   0.395  0.5537 -0.0562  0.1666
  498SOL    HW2 1758   3.908   0.275   0.490 -0.9956 -0.8302  0.0552
  498SOL    HW3 1759   3.952   0.189   0.373 -0.9635 -0.6406 -0.0719
  498SOL    MW4 1760   3.920   0.264   0.405  0.4079  0.8616 -0.2282
  499SOL     OW 1761   4.316   2.834   0.504  0.9270  0.1281  0.2577
  499SOL    HW2 1762   4.230   2.800   0.481  0.9780  0.2204 -0.0668
  499SOL    HW3 1763   4.351   2.770   0.566  0.1373  0.6897  1.3371
  499SOL    MW4 1764   4.309   2.821   0.509  0.2219  0.6495  0.5399
  500SOL     OW 1765   1.537   3.267   4.944  0.4947  0.5041  0.3745
  500SOL    HW2 1766   1.601   3.316   4.995 -0.2912  0.5446  1.3709
  500SOL    HW3 1767   1.526   3.185   4.993  1.6213 -0.6070 -1.1346
  500SOL    MW4 1768   1.544   3.263   4.957  0.1826  0.2034  0.0574
  501SOL     OW 1769   4.314   5.968   5.206 -0.3889 -0.4062 -0.6464
  501SOL    HW2 1770   4.267   5.976   5.123  0.5967  0.8362 -1.1326
  501SOL    HW3 1771   4.263   6.021   5.268  0.2166  0.7804 -1.1243
  501SOL    MW4 1772   4.301   5.976   5.203  0.2301 -0.2761 -0.1046
  502SOL     OW 1773   4.154   3.038   5.501 -0.4875  0.1557  0.2364
  502SOL    HW2 1774   4.206   2.998   5.432 -0.3021 -1.3476  1.2032
  502SOL    HW3 1775   4.213   3.101   5.541  0.6029 -1.3978  1.1982
  502SOL    MW4 1776   4.169   3.041   5.497  0.2551 -0.3717 -0.3975
  503SOL     OW 1777   3.601   4.843   0.885 -0.0247  0.6451  0.3655
  503SOL    HW2 1778   3.654   4.919   0.911 -0.7355  1.2497  0.0650
  503SOL    HW3 1779   3.526   4.880   0.839  0.6999 -0.3446 -1.7396
  503SOL    MW4 1780   3.598   4.858   0.882  0.5137 -0.1847  0.0882
  504SOL     OW 1781   2.348   4.491   6.274 -0.2359 -0.6524 -0.3692
  504SOL    HW2 1782   2.375   4.465   6.362 -1.6158  0.7992  0.5144
  504SOL    HW3 1783   2.323   4.409   6.232  0.6114 -1.3899  0.5131
  504SOL    MW4 1784   2.349   4.477   6.280  0.5176  0.3372  0.7206
  505SOL     OW 1785   2.725   1.162   3.513  0.2150  0.1036  0.1560
  505SOL    HW2 1786   2.799   1.205   3.556  1.4447 -1.0200 -0.7447
  505SOL    HW3 1787   2.763   1.084   3.472 -1.8313 -1.6928  1.4142
  505SOL    MW4 1788   2.740   1.157   3.513 -0.4331 -0.3645 -0.0153
  506SOL     OW 1789   0.844   1.200   1.570 -0.1326  0.5239  0.5204
  506SOL    HW2 1790   0.786   1.194   1.494  2.0208  0.8387 -1.2657
  506SOL    HW3 1791   0.912   1.262   1.544  1.1816 -0.0358  2.3627
  506SOL    MW4 1792   0.846   1.207   1.556 -0.4004 -0.0691  0.1611
  507SOL     OW 1793   3.108   6.059   1.951  0.0628 -0.3586  0.3658
  507SOL    HW2 1794   3.179   6.104   1.905 -2.0387 -0.1267 -3.0248
  507SOL    HW3 1795   3.097   6.108   2.033  2.9377  0.3188  0.4433
  507SOL    MW4 1796   3.116   6.071   1.956  0.2102  0.4047  0.1356
  508SOL     OW 1797   1.564   1.531   2.394 -0.2768 -0.2888 -0.1624
  508SOL    HW2 1798   1.476   1.525   2.431  0.0247  0.0668  0.6444
  508SOL    HW3 1799   1.622   1.511   2.467  0.3469  0.7005 -0.3588
  508SOL    MW4 1800   1.560   1.528   2.408 -0.1021 -0.4029  0.6525
  509SOL     OW 1801   3.844   2.133   1.849 -0.0137 -0.0045  0.1332
  509SOL    HW2 1802   3.785   2.129   1.774  2.6799  1.1495 -2.2685
  509SOL    HW3 1803   3.816   2.211   1.897 -1.3194 -0.3095 -0.1040
  509SOL    MW4 1804   3.833   2.143   1.845 -0.1733 -0.9677  0.4746
  510SOL     OW 1805   4.367   4.665   1.807  0.5568 -0.6102 -0.4167
  510SOL    HW2 1806   4.275   4.661   1.832  1.1193 -3.0392  1.8383
  510SOL    HW3 1807   4.379   4.589   1.751  1.0666  0.0603 -1.2251
  510SOL    MW4 1808   4.357   4.654   1.803 -0.5700  0.0012 -0.2569
  511SOL     OW 1809   0.119   2.882   3.501  0.1663 -0.5227  0.2917
  511SOL    HW2 1810   0.079   2.963   3.531 -3.3547 -1.5412 -1.0613
  511SOL    HW3 1811   0.200   2.909   3.458 -1.2033  2.4081 -0.7059
  511SOL    MW4 1812   0.124   2.896   3.499 -0.4968 -0.6668 -0.0795
  512SOL     OW 1813   4.742   3.989   2.265  0.2540  1.0143  0.7974
  512SOL    HW2 1814   4.800   4.065   2.275  0.2697  1.2264 -0.7034
  512SOL    HW3 1815   4.670   4.022   2.211 -0.3252  0.2525  1.0905
  512SOL    MW4 1816   4.740   4.004   2.259  0.2432 -0.3007  0.2452
  513SOL     OW 1817   3.915   4.690   6.060  0.3008  0.7292  0.0114
  513SOL    HW2 1818   3.994   4.732   6.093  0.9947 -1.6151  1.5771
  513SOL    HW3 1819   3.945   4.607   6.024 -1.5048 -0.8218  1.8084
  513SOL    MW4 1820   3.929   4.685   6.060  0.1693 -0.6591 -0.9999
  514SOL     OW 1821   6.365   1.872   0.748  0.5277  0.3676  0.8247
  514SOL    HW2 1822   6.343   1.816   0.822  0.5735 -0.7418  0.0408
  514SOL    HW3 1823   6.355   1.961   0.780 -0.7079 -0.0938  1.7856
  514SOL    MW4 1824   6.360   1.876   0.762  0.2706  0.4320 -0.0672
  515SOL     OW 1825   1.374   1.944   5.327  0.8167  0.4634 -0.1149
  515SOL    HW2 1826   1.457   1.979   5.361  0.8424  0.5753 -0.2910
  515SOL    HW3 1827   1.307   1.980   5.385  0.8745  0.5364 -0.0941
  515SOL    MW4 1828   1.376   1.953   5.339 -0.1040  0.3744 -0.7035
  516SOL     OW 1829   5.748   1.579   0.465 -0.0437 -0.2332 -0.4225
  516SOL    HW2 1830   5.735   1.518   0.538  1.6240 -0.7002 -0.4844
  516SOL    HW3 1831   5.775   1.661   0.507  1.6180 -0.7001 -0.4913
  516SOL    MW4 1832   5.750   1.582   0.480 -0.3841 -0.1686  0.0852
  517SOL     OW 1833   3.283   4.726   3.248  0.0384 -0.1004 -0.6386
  517SOL    HW2 1834   3.355   4.756   3.303 -1.9477  0.7164  1.6582
  517SOL    HW3 1835   3.234   4.805   3.226 -2.3226 -0.9254  1.1630
  517SOL    MW4 1836   3.286   4.740   3.252 -0.2376  0.4062 -1.1978
  518SOL     OW 1837   6.005   0.930   2.842  0.2305 -0.4319  0.4437
  518SOL    HW2 1838   5.961   0.919   2.757 -2.7084 -0.3349  1.8239
  518SOL    HW3 1839   6.017   1.024   2.850 -0.6789 -0.3146  0.6243
  518SOL    MW4 1840   6.001   0.941   2.832  0.0327 -0.1895  0.2815
  519SOL     OW 1841   0.253   2.549   4.291 -0.2185 -0.4868  0.2213
  519SOL    HW2 1842   0.336   2.520   4.330  1.3892  0.1270 -2.4436
  519SOL    HW3 1843   0.257   2.644   4.294 -1.0276 -0.4559  0.4156
  519SOL    MW4 1844   0.265   2.558   4.296 -0.0042  0.5326  0.3935
  520SOL     OW 1845   0.671   4.083   5.406 -0.2320 -0.5244 -0.4435
  520SOL    HW2 1846   0.621   4.058   5.328 -1.1673 -0.6258  0.1753
  520SOL    HW3 1847   0.617   4.149   5.449  0.6798  0.1709 -0.3129
  520SOL    MW4 1848   0.658   4.089   5.401 -0.0483 -0.3121 -0.0242
  521SOL     OW 1849   3.052   1.051   2.621 -0.1732 -0.4343 -0.4668
  521SOL    HW2 1850   3.050   0.966   2.667  0.8635  0.1426  0.7065
  521SOL    HW3 1851   2.959   1.072   2.607 -0.6911  0.1142  2.8864
  521SOL    MW4 1852   3.039   1.042   2.626  0.1793 -0.2660  0.2998
  522SOL     OW 1853   4.186   3.329   2.514 -0.1460 -0.3924  0.1907
  522SOL    HW2 1854   4.235   3.247   2.523 -0.7776 -1.0002 -1.6170
  522SOL    HW3 1855   4.094   3.302   2.514 -0.7286  0.8087  4.5819
  522SOL    MW4 1856   4.180   3.314   2.515  0.3528  0.3506  0.2183
  523SOL     OW 1857   5.815   5.781   5.246 -0.6106 -0.3186  0.5978
  523SOL    HW2 1858   5.886   5.718   5.229 -0.4733 -0.6171  2.1107
  523SOL    HW3 1859   5.858   5.866   5.246 -0.5595 -0.3379 -0.1392
  523SOL    MW4 1860   5.830   5.784   5.244  0.2676 -0.5752 -0.5945
  524SOL     OW 1861   1.930   0.939   0.188  0.0572  0.2904  0.0268
  524SOL    HW2 1862   2.011   0.989   0.179  1.1051 -1.4879 -0.8761
  524SOL    HW3 1863   1.891   0.972   0.269  1.0396  2.0353 -0.1545
  524SOL    MW4 1864   1.936   0.950   0.198  0.2915  0.0106  0.0674
  525SOL     OW 1865   3.369   1.166   1.160  0.1413  0.2289  1.1245
  525SOL    HW2 1866   3.292   1.113   1.141 -0.9594  1.8910  0.6950
  525SOL    HW3 1867   3.443   1.107   1.147 -0.9148 -0.7116 -1.1324
  525SOL    MW4 1868   3.369   1.152   1.156 -0.1252 -0.7751  0.0605
  526SOL     OW 1869   4.730   1.603   3.493  0.5675  0.4501 -0.2204
  526SOL    HW2 1870   4.709   1.525   3.546 -0.6039  1.0394  0.2203
  526SOL    HW3 1871   4.662   1.666   3.516  0.6200  1.0830 -1.7072
  526SOL    MW4 1872   4.718   1.601   3.503  0.4364  0.5961  0.9002
  527SOL     OW 1873   3.450   5.970   5.298  0.6905  0.2992  0.3337
  527SOL    HW2 1874   3.464   5.877   5.278  1.9612  0.7037 -0.8448
  527SOL    HW3 1875   3.534   5.998   5.336  1.6227  1.7378 -2.5498
  527SOL    MW4 1876   3.463   5.961   5.301  0.0438  0.5408 -0.2116
  528SOL     OW 1877   1.647   1.671   5.598  0.1786  0.5515  0.1109
  528SOL    HW2 1878   1.689   1.627   5.672 -0.2039 -0.6042 -0.3412
  528SOL    HW3 1879   1.698   1.752   5.586  2.8385 -1.1590 -0.9259
  528SOL    MW4 1880   1.660   1.676   5.606 -0.6277  0.1125 -0.2764
  529SOL     OW 1881   0.062   4.975   0.599 -0.2115  0.7250  0.3145
  529SOL    HW2 1882   0.099   4.916   0.665 -2.0526  0.6990  1.3975
  529SOL    HW3 1883  -0.010   5.019   0.645 -1.4361  0.8454 -1.6292
  529SOL    MW4 1884   0.057   4.973   0.614 -0.9042 -0.2163  0.2071
  530SOL     OW 1885   3.647   4.930   5.998 -0.5812  0.3845  0.1033
  530SOL    HW2 1886   3.639   4.844   6.038  0.4532 -0.6000 -1.6944
  530SOL    HW3 1887   3.557   4.960   5.985 -0.9395  0.0543  1.6680
  530SOL    MW4 1888   3.634   4.923   6.002  0.0476  0.7417 -0.3696
  531SOL     OW 1889   3.696   5.920   1.042 -0.8194  0.7104  0.3059
  531SOL    HW2 1890   3.610   5.960   1.055  0.1387  2.9479  0.2509
  531SOL    HW3 1891   3.700   5.901   0.949 -0.7884  1.8578  0.0541
  531SOL    MW4 1892   3.686   5.923   1.032  0.2752  0.6770  0.5210
  532SOL     OW 1893   3.900   4.274   6.296  0.1050  0.2261 -0.4035
  532SOL    HW2 1894   3.879   4.243   6.384  2.0452  3.0864  1.2285
  532SOL    HW3 1895   3.975   4.222   6.269  0.0263 -0.1016  0.0005
  532SOL    MW4 1896   3.907   4.263   6.304 -0.2801  0.0154  0.6743
  533SOL     OW 1897   0.386   3.087   4.465 -0.4964  0.1664  0.1728
  533SOL    HW2 1898   0.458   3.129   4.512 -0.0052 -0.9004  0.3963
  533SOL    HW3 1899   0.368   3.146   4.392  0.7688  0.3275 -0.0290
  533SOL    MW4 1900   0.393   3.101   4.462  0.2481 -0.1917  0.2036
  534SOL     OW 1901   1.925   2.271   4.729 -0.3639 -0.0883 -0.0894
  534SOL    HW2 1902   1.910   2.352   4.680 -1.9804 -0.3717 -0.1214
  534SOL    HW3 1903   1.861   2.210   4.693  0.3957 -1.1917  0.3897
  534SOL    MW4 1904   1.914   2.274   4.717 -0.7086 -0.1777  1.0733
  535SOL     OW 1905   2.407   5.631   4.298  0.3553  0.1827  0.0603
  535SOL    HW2 1906   2.353   5.602   4.371  1.9689  0.8777  1.5842
  535SOL    HW3 1907   2.384   5.723   4.286 -1.1503 -0.3233 -1.5234
  535SOL    MW4 1908   2.397   5.639   4.306  0.0342  0.0011 -0.3783
  536SOL     OW 1909   1.670   2.107   6.058  0.2399  0.2681  0.3520
  536SOL    HW2 1910   1.597   2.058   6.019  1.6850 -0.6187 -1.4382
  536SOL    HW3 1911   1.735   2.040   6.080  1.3167  1.1668  0.0386
  536SOL    MW4 1912   1.669   2.092   6.055 -0.0761 -0.0125 -0.0230
  537SOL     OW 1913   6.459   5.543   0.183 -0.2831  0.3815 -0.2899
  537SOL    HW2 1914   6.471   5.591   0.266  1.1272  1.6772 -1.1811
  537SOL    HW3 1915   6.446   5.452   0.210  1.1465  0.6031  1.3603
  537SOL    MW4 1916   6.459   5.537   0.198  0.1625 -0.6184  0.1463
  538SOL     OW 1917   3.801   4.112   3.519  0.3762  0.3463  0.2324
  538SOL    HW2 1918   3.737   4.111   3.590  1.0780 -1.7077  0.9081
  538SOL    HW3 1919   3.776   4.039   3.462  2.4581 -0.9778  0.8979
  538SOL    MW4 1920   3.790   4.102   3.521  0.3591  0.1552 -0.1479
  539SOL     OW 1921   1.396   5.372   1.901  0.1376 -0.0145  0.1951
  539SOL    HW2 1922   1.436   5.291   1.870 -0.0560  0.3746 -1.1373
  539SOL    HW3 1923   1.345   5.404   1.826 -2.5587 -0.3827  1.7566
  539SOL    MW4 1924   1.395   5.365   1.887  0.2221 -0.7131  0.0506
  540SOL     OW 1925   3.241   4.453   0.215 -0.0871 -0.2473  0.3834
  540SOL    HW2 1926   3.289   4.465   0.133  1.3154  0.3083  1.2628
  540SOL    HW3 1927   3.209   4.363   0.210  2.5700 -1.2843  0.5082
  540SOL    MW4 1928   3.243   4.442   0.204 -0.3752 -0.4253  0.0405
  541SOL     OW 1929   0.842   3.701   1.888 -0.4000 -0.2173 -0.2475
  541SOL    HW2 1930   0.766   3.667   1.935  0.0021 -2.3181 -1.0293
  541SOL    HW3 1931   0.918   3.673   1.939 -0.0458  3.5530  1.6415
  541SOL    MW4 1932   0.842   3.693   1.901 -0.0364  0.1954 -0.1208
  542SOL     OW 1933   5.655   2.283   1.599 -0.5924 -0.2628  0.2237
  542SOL    HW2 1934   5.693   2.230   1.669  1.9553 -0.2506 -0.9940
  542SOL    HW3 1935   5.683   2.372   1.619 -1.5707  0.0525  0.2268
  542SOL    MW4 1936   5.664   2.288   1.611 -0.1546  0.2656 -0.4229
  543SOL     OW 1937   4.473   6.308   4.230 -0.4985  0.2587 -0.0723
  543SOL    HW2 1938   4.518   6.319   4.146  3.7664  3.3885  2.2077
  543SOL    HW3 1939   4.454   6.214   4.235  2.6386 -0.7397 -2.9200
  543SOL    MW4 1940   4.476   6.297   4.219  0.3255 -0.6655  0.4065
  544SOL     OW 1941   4.542   4.624   2.045  0.7102 -0.3357  0.2483
  544SOL    HW2 1942   4.598   4.551   2.019  2.4565  1.4586 -1.4005
  544SOL    HW3 1943   4.464   4.616   1.989  0.7255 -1.1016  0.3257
  544SOL    MW4 1944   4.539   4.614   2.034  0.0322  0.1123  0.6633
  545SOL     OW 1945   4.166   3.821   3.653 -0.6078  0.9858 -0.0987
  545SOL    HW2 1946   4.178   3.742   3.707  2.4063  2.2247  1.2561
  545SOL    HW3 1947   4.196   3.795   3.566 -1.8882  0.0407 -0.2935
  545SOL    MW4 1948   4.172   3.807   3.649  0.3463 -0.6705  0.2913
  546SOL     OW 1949   1.615   0.796   5.561  0.2955 -0.2130 -0.1540
  546SOL    HW2 1950   1.524   0.783   5.590  0.5638  0.3639  1.0053
  546SOL    HW3 1951   1.662   0.820   5.640  1.3459  0.1033 -0.8557
  546SOL    MW4 1952   1.609   0.798   5.575  0.0285  0.8125  0.9241
  547SOL     OW 1953   4.499   3.687   4.886 -0.3153 -0.3673 -0.0519
  547SOL    HW2 1954   4.454   3.770   4.867  0.9294  0.6331  1.1270
  547SOL    HW3 1955   4.541   3.663   4.803 -2.2867 -0.9113 -0.9533
  547SOL    MW4 1956   4.499   3.695   4.872  0.1040  0.7087  0.2358
  548SOL     OW 1957   5.720   3.994   3.254  0.3349 -0.8987 -0.4331
  548SOL    HW2 1958   5.737   3.930   3.185  0.7244  0.1104 -1.3206
  548SOL    HW3 1959   5.803   4.002   3.301  0.0988 -1.5142  0.0867
  548SOL    MW4 1960   5.733   3.987   3.251 -0.2430  0.0744  0.1370
  549SOL     OW 1961   5.822   2.495   1.850 -0.4913 -0.2099 -0.0292
  549SOL    HW2 1962   5.865   2.456   1.927 -1.9408 -0.1062  0.8733
  549SOL    HW3 1963   5.862   2.582   1.842 -0.0525 -0.3716  0.3774
  549SOL    MW4 1964   5.833   2.502   1.859  0.2027  0.1982 -0.2050
  550SOL     OW 1965   4.843   1.916   3.395  0.6104 -0.1583  0.2012
  550SOL    HW2 1966   4.767   1.959   3.434  1.3032  1.0760  0.2246
  550SOL    HW3 1967   4.826   1.823   3.409 -1.1336  0.0425 -0.2390
  550SOL    MW4 1968   4.830   1.909   3.402 -0.8854 -0.2003 -0.0926
  551SOL     OW 1969   0.922   2.883   4.234  0.6241 -0.4713 -0.3933
  551SOL    HW2 1970   0.868   2.846   4.304  0.1612  0.0215 -0.4812
  551SOL    HW3 1971   1.002   2.830   4.235  0.5050 -0.6540  0.3154
  551SOL    MW4 1972   0.925   2.871   4.244  0.0745 -0.0514  0.6705
  552SOL     OW 1973   0.161   4.301   3.804 -0.0415  0.6562  0.3035
  552SOL    HW2 1974   0.230   4.352   3.847 -1.3766  2.3813  0.5352
  552SOL    HW3 1975   0.149   4.344   3.720  0.9034 -1.2456 -0.8760
  552SOL    MW4 1976   0.169   4.313   3.799 -0.0728 -0.0425 -0.5566
  553SOL     OW 1977   3.156   1.085   3.720  0.1809 -0.1883 -0.0768
  553SOL    HW2 1978   3.072   1.104   3.762 -0.3900 -2.8396  0.1785
  553SOL    HW3 1979   3.144   1.111   3.629 -1.1567 -1.0665 -0.1791
  553SOL    MW4 1980   3.143   1.091   3.714  0.1302 -0.0975  0.3559
  554SOL     OW 1981   5.149   6.226   6.419  0.1777  0.3799  0.3572
  554SOL    HW2 1982   5.060   6.259   6.418 -0.3564 -0.9293 -1.2971
  554SOL    HW3 1983   5.145   6.146   6.366  2.2892  0.1836  0.4090
  554SOL    MW4 1984   5.137   6.220   6.412 -0.0320  0.5220 -0.2745
  555SOL     OW 1985   0.097   1.956   1.183 -0.2220 -0.6908 -0.2144
  555SOL    HW2 1986   0.154   1.920   1.115  0.5162  1.9791 -1.1331
  555SOL    HW3 1987   0.045   2.023   1.139 -0.5372  0.3483  1.6208
  555SOL    MW4 1988   0.098   1.960   1.168 -0.4284  0.0359 -0.3831
  556SOL     OW 1989   2.426   0.364   4.509  0.4026  0.0424  0.4425
  556SOL    HW2 1990   2.355   0.309   4.543  0.6984 -1.3046 -0.9899
  556SOL    HW3 1991   2.391   0.401   4.428  1.1681 -0.2955 -0.0544
  556SOL    MW4 1992   2.412   0.362   4.503  0.3088  0.1493  0.0049
  557SOL     OW 1993   6.437   4.103   3.492  0.6183 -0.0398  0.1710
  557SOL    HW2 1994   6.415   4.099   3.399  1.4584  1.0046 -0.0971
  557SOL    HW3 1995   6.488   4.183   3.501 -0.3223  0.4411  1.7242
  557SOL    MW4 1996   6.440   4.113   3.481  0.1222 -0.0389 -0.1201
  558SOL     OW 1997   4.667   1.426   4.611  0.2233 -0.0232  0.3393
  558SOL    HW2 1998   4.704   1.428   4.522  1.8348  1.7900  0.9891
  558SOL    HW3 1999   4.732   1.378   4.663 -0.4332 -0.5637  0.6790
  558SOL    MW4 2000   4.681   1.420   4.606  0.3224 -0.2638  0.1778
  559SOL     OW 2001   3.097   2.385   1.659  0.1421 -0.6600 -0.0752
  559SOL    HW2 2002   3.044   2.341   1.725 -0.3140  0.0564  0.0443
  559SOL    HW3 2003   3.149   2.315   1.620 -0.7232 -1.3406 -0.0352
  559SOL    MW4 2004   3.097   2.370   1.662 -0.0243  0.6307  0.2399
  560SOL     OW 2005   3.927   1.595   3.074  0.2118 -0.4147  0.4180
  560SOL    HW2 2006   3.902   1.687   3.077 -0.0673 -0.3807 -1.6594
  560SOL    HW3 2007   4.010   1.591   3.122  1.2427  1.2859 -1.0995
  560SOL    MW4 2008   3.935   1.606   3.081 -0.2456  0.1175  0.0565
  561SOL     OW 2009   4.506   4.449   0.479  0.3339 -0.0862 -0.2771
  561SOL    HW2 2010   4.440   4.384   0.501  0.6504  0.1711  1.5538
  561SOL    HW3 2011   4.582   4.425   0.532  0.7895  1.2008 -0.3201
  561SOL    MW4 2012   4.508   4.437   0.489  0.3716 -0.1842  0.1317
  562SOL     OW 2013   2.148   6.345   3.123  0.0121  0.3160  0.0420
  562SOL    HW2 2014   2.215   6.369   3.187  0.2540 -0.2426  0.0033
  562SOL    HW3 2015   2.139   6.423   3.068  0.6002  0.4164  0.0778
  562SOL    MW4 2016   2.156   6.359   3.124  0.3419 -0.0664 -0.5401
  563SOL     OW 2017   2.207   4.648   2.139  0.2981  0.2533  0.0680
  563SOL    HW2 2018   2.201   4.743   2.151 -0.0020  0.2485 -0.0483
  563SOL    HW3 2019   2.275   4.637   2.073 -1.4780  0.5232 -1.9030
  563SOL    MW4 2020   2.215   4.659   2.132  0.3441  0.1417 -0.2541
  564SOL     OW 2021   3.451   0.624   1.800  0.1279  0.0309  0.0983
  564SOL    HW2 2022   3.400   0.550   1.766 -0.7577 -0.1651  1.7352
  564SOL    HW3 2023   3.492   0.662   1.723 -0.3875 -1.4245 -0.9426
  564SOL    MW4 2024   3.450   0.620   1.786  0.0049 -0.2778  0.1100
  565SOL     OW 2025   0.235   2.463   1.639 -0.4715 -0.1755 -0.2910
  565SOL    HW2 2026   0.201   2.539   1.591 -1.4661 -0.3187  0.1506
  565SOL    HW3 2027   0.251   2.496   1.727  1.7690  0.1984 -0.7689
  565SOL    MW4 2028   0.232   2.477   1.644  0.3439  0.2203 -0.5056
  566SOL     OW 2029   1.688   5.900   5.926  0.6421  0.3395 -0.1650
  566SOL    HW2 2030   1.694   5.964   5.856 -0.5315  0.9026  0.2301
  566SOL    HW3 2031   1.757   5.926   5.988  0.0949  1.3174  0.0562
  566SOL    MW4 2032   1.698   5.912   5.925 -0.0267  0.5759 -0.1028
  567SOL     OW 2033   2.008   2.309   3.381  0.7622  0.2163  0.3050
  567SOL    HW2 2034   2.087   2.283   3.333  0.2979  0.2179 -0.4820
  567SOL    HW3 2035   1.936   2.288   3.321  0.1647  0.2024  1.0199
  567SOL    MW4 2036   2.009   2.303   3.367  0.3601  0.2302  0.4747
  568SOL     OW 2037   2.839   6.049   1.883 -0.2944 -0.4522  0.4156
  568SOL    HW2 2038   2.933   6.061   1.897  0.2108 -1.1626 -1.9433
  568SOL    HW3 2039   2.806   6.017   1.967  1.5498 -0.0770  1.3214
  568SOL    MW4 2040   2.847   6.046   1.896 -0.2504 -0.2556  0.2714
  569SOL     OW 2041   0.515   4.070   3.543 -0.4834 -0.1525  0.2650
  569SOL    HW2 2042   0.457   4.096   3.614 -0.8419  0.8189 -0.3696
  569SOL    HW3 2043   0.457   4.060   3.467  0.0326 -0.2105 -0.1257
  569SOL    MW4 2044   0.500   4.072   3.542 -0.0267 -0.1293 -0.3348
  570SOL     OW 2045   3.380   5.220   1.880 -0.3284  0.5383  0.2236
  570SOL    HW2 2046   3.447   5.180   1.825 -0.4645 -1.1237  1.1958
  570SOL    HW3 2047   3.384   5.313   1.859 -1.1383 -0.1053 -3.3706
  570SOL    MW4 2048   3.390   5.227   1.870  0.1111  0.5313 -0.2943
  571SOL     OW 2049   4.465   3.350   4.093 -0.2346 -0.0757 -0.9395
  571SOL    HW2 2050   4.524   3.275   4.086  0.4302  0.4543 -1.1676
  571SOL    HW3 2051   4.377   3.313   4.082 -0.0368 -1.0395  0.5433
  571SOL    MW4 2052   4.461   3.335   4.090 -0.1397 -0.2422  0.6597
  572SOL     OW 2053   5.258   2.555   1.211  0.0236  0.7250  0.0421
  572SOL    HW2 2054   5.258   2.470   1.167 -1.0877  1.6291 -1.8224
  572SOL    HW3 2055   5.170   2.589   1.197 -0.8496  0.6280  4.0376
  572SOL    MW4 2056   5.246   2.548   1.203 -0.3715 -0.0537  0.5456
  573SOL     OW 2057   6.306   5.357   5.408  0.2497  0.1650  0.3407
  573SOL    HW2 2058   6.336   5.358   5.499 -1.9747  1.4768  1.1219
  573SOL    HW3 2059   6.351   5.430   5.367  0.9175 -0.1542  0.4891
  573SOL    MW4 2060   6.316   5.367   5.415 -0.0392  0.1318 -0.1584
  574SOL     OW 2061   5.041   3.626   5.972  0.5610  0.4167 -0.3989
  574SOL    HW2 2062   4.985   3.659   6.042  0.4514 -0.5712 -0.0064
  574SOL    HW3 2063   4.981   3.581   5.912  0.7730  0.4504 -0.6391
  574SOL    MW4 2064   5.026   3.625   5.973  0.2840 -0.6811  0.0887
  575SOL     OW 2065   1.705   2.829   2.744 -0.0238 -0.3901 -0.6456
  575SOL    HW2 2066   1.725   2.827   2.651 -0.9379  1.5148 -0.9343
  575SOL    HW3 2067   1.695   2.922   2.765 -2.9133 -0.8661  0.6447
  575SOL    MW4 2068   1.707   2.841   2.735 -0.0056  0.0515 -0.2679
  576SOL     OW 2069   6.382   0.633   4.398 -0.1516 -0.2807 -0.5680
  576SOL    HW2 2070   6.436   0.701   4.355 -0.3245  0.6212  0.5927
  576SOL    HW3 2071   6.324   0.682   4.455 -0.9025 -1.3807 -0.3721
  576SOL    MW4 2072   6.382   0.649   4.400 -0.4279 -0.2111 -0.5494
  577SOL     OW 2073   5.049   0.466   4.842 -0.6392  0.0269 -0.5274
  577SOL    HW2 2074   4.980   0.448   4.905 -0.0960 -0.3614 -0.0329
  577SOL    HW3 2075   5.117   0.510   4.893 -0.0804 -0.5302 -0.7797
  577SOL    MW4 2076   5.049   0.470   4.857 -0.3832  0.2077 -0.0649
  578SOL     OW 2077   6.275   5.104   5.727 -0.0070  0.1454 -0.1796
  578SOL    HW2 2078   6.346   5.066   5.675 -1.2393 -0.9430 -1.1271
  578SOL    HW3 2079   6.296   5.197   5.732  2.4590 -0.4010  1.1514
  578SOL    MW4 2080   6.287   5.111   5.721 -0.1244 -0.6130 -0.0540
  579SOL     OW 2081   3.828   0.413   1.073  0.2834  0.3824 -0.2705
  579SOL    HW2 2082   3.786   0.365   1.002  1.9796 -0.1756 -0.9520
  579SOL    HW3 2083   3.877   0.346   1.122 -1.2536  0.6555  1.7860
  579SOL    MW4 2084   3.829   0.398   1.070  1.0885  0.6030  0.1838
  580SOL     OW 2085   2.465   3.696   2.424  0.5965 -0.4172 -0.5085
  580SOL    HW2 2086   2.533   3.642   2.384  1.2096 -0.3675  0.4401
  580SOL    HW3 2087   2.392   3.636   2.438  0.9188 -0.7754 -0.3408
  580SOL    MW4 2088   2.464   3.681   2.420  0.3255  0.3474  0.1205
  581SOL     OW 2089   5.945   2.525   0.991  0.5113  0.2330 -0.2727
  581SOL    HW2 2090   5.850   2.525   0.998  0.5724 -0.0390  0.7498
  581SOL    HW3 2091   5.965   2.460   0.924  0.0111 -0.3898  0.1704
  581SOL    MW4 2092   5.935   2.517   0.983  0.4002 -0.3041 -0.3928
  582SOL     OW 2093   0.147   1.414   0.469  0.3714  0.4388  0.1746
  582SOL    HW2 2094   0.064   1.414   0.421  0.0125 -1.2134  0.7166
  582SOL    HW3 2095   0.170   1.321   0.477  1.1429  0.7390  1.9643
  582SOL    MW4 2096   0.139   1.402   0.464  0.9828 -0.3616 -0.7538
  583SOL     OW 2097   3.193   3.178   2.356 -0.0309 -0.9177  0.1649
  583SOL    HW2 2098   3.223   3.121   2.285 -1.2309 -1.0398 -0.2785
  583SOL    HW3 2099   3.201   3.267   2.321  1.0992 -0.8420  0.5687
  583SOL    MW4 2100   3.198   3.182   2.342  0.1073 -0.4133 -0.2767
  584SOL     OW 2101   3.957   3.733   5.103  0.0566 -0.3391 -0.0847
  584SOL    HW2 2102   4.015   3.782   5.045 -1.6702  0.9919 -0.7899
  584SOL    HW3 2103   3.958   3.644   5.069  0.4084  0.0401 -1.0995
  584SOL    MW4 2104   3.965   3.728   5.091  0.2787 -0.0991  0.7040
  585SOL     OW 2105   0.066   0.150   0.081 -0.1871 -0.3024 -0.1108
  585SOL    HW2 2106   0.128   0.112   0.142 -0.4202 -1.0832 -0.3485
  585SOL    HW3 2107   0.106   0.138  -0.005  0.9932  2.4040 -0.0359
  585SOL    MW4 2108   0.079   0.144   0.078 -0.0708  0.2335  0.0759
  586SOL     OW 2109   0.565   5.155   2.528 -0.0545  0.2318  0.0367
  586SOL    HW2 2110   0.598   5.240   2.558 -1.1530  0.1072  1.7214
  586SOL    HW3 2111   0.476   5.173   2.499 -0.2306 -0.3145  0.2294
  586SOL    MW4 2112   0.558   5.169   2.528  0.0705 -0.6244  0.3746
  587SOL     OW 2113   3.576   2.445   4.291 -0.2821  0.0335 -0.1219
  587SOL    HW2 2114   3.584   2.527   4.341 -1.8065 -0.6502  1.3008
  587SOL    HW3 2115   3.667   2.420   4.272  0.3479  0.5054  2.0302
  587SOL    MW4 2116   3.589   2.453   4.295  0.1222  0.7394 -0.5995
  588SOL     OW 2117   4.531   0.463   0.203  0.3321  0.7689 -0.2746
  588SOL    HW2 2118   4.540   0.380   0.250  1.3429 -0.2138 -2.0850
  588SOL    HW3 2119   4.438   0.468   0.180  0.0641  0.6700  0.7432
  588SOL    MW4 2120   4.520   0.453   0.206 -0.0412  0.8949  0.0871
  589SOL     OW 2121   5.484   0.718   4.935 -0.0895 -0.6266  0.2436
  589SOL    HW2 2122   5.404   0.691   4.981 -0.3744 -1.2008 -0.5753
  589SOL    HW3 2123   5.487   0.662   4.857  0.5066  0.1792 -0.3239
  589SOL    MW4 2124   5.473   0.707   4.931  0.4184 -0.6692 -0.0415
  590SOL     OW 2125   5.129   1.013   0.441  0.3933 -0.1203 -0.8885
  590SOL    HW2 2126   5.117   0.984   0.531  0.2321  0.7644 -0.6180
  590SOL    HW3 2127   5.223   1.029   0.434  0.7484 -2.1708 -1.5092
  590SOL    MW4 2128   5.140   1.012   0.452  0.2026  0.1863  0.2102
  591SOL     OW 2129   4.530   1.620   2.092  0.1029 -0.2939 -0.3690
  591SOL    HW2 2130   4.475   1.605   2.169  1.4723 -0.7487  0.5569
  591SOL    HW3 2131   4.587   1.692   2.117  3.0077 -2.6857  0.5030
  591SOL    MW4 2132   4.530   1.627   2.105  0.0795 -0.4693  0.1946
  592SOL     OW 2133   3.027   0.215   2.567  0.1158  0.5700  0.2648
  592SOL    HW2 2134   2.982   0.142   2.524 -0.2356  0.3270  1.0403
  592SOL    HW3 2135   2.958   0.275   2.592  0.4696  1.6580 -1.2089
  592SOL    MW4 2136   3.012   0.213   2.564  0.5518  0.1537  0.2147
  593SOL     OW 2137   2.747   4.485   0.926 -0.2898 -0.2356  0.1432
  593SOL    HW2 2138   2.733   4.460   1.017 -1.1518  0.2488  0.1596
  593SOL    HW3 2139   2.832   4.529   0.925 -0.1102 -0.5712  0.6395
  593SOL    MW4 2140   2.757   4.488   0.938 -0.2926  0.1403 -0.4555
  594SOL     OW 2141   4.712   0.311   6.150  0.2388  0.4551 -0.1024
  594SOL    HW2 2142   4.708   0.399   6.112 -1.3632  0.7894  0.7734
  594SOL    HW3 2143   4.690   0.324   6.242  0.7476 -0.7831  0.2148
  594SOL    MW4 2144   4.709   0.324   6.157  0.6305 -1.0167  0.1457
  595SOL     OW 2145   5.232   1.650   2.901  0.0803  0.2123 -0.8895
  595SOL    HW2 2146   5.252   1.627   2.811  1.0224 -0.0863 -0.6142
  595SOL    HW3 2147   5.316   1.677   2.939 -0.3118  0.4094 -0.1227
  595SOL    MW4 2148   5.246   1.651   2.894 -0.0954 -0.1604  0.1298
  596SOL     OW 2149   2.906   1.358   2.451  0.3743  0.3281 -0.1331
  596SOL    HW2 2150   2.915   1.265   2.430  1.0033  0.0932  1.0798
  596SOL    HW3 2151   2.826   1.362   2.504  1.0261  0.2765  0.8682
  596SOL    MW4 2152   2.896   1.346   2.455  0.3351 -0.3021  0.1922
  597SOL     OW 2153   5.129   2.535   6.275  0.0846 -0.2804 -0.0948
  597SOL    HW2 2154   5.043   2.518   6.313  0.8294  0.3597  2.0446
  597SOL    HW3 2155   5.170   2.449   6.270  0.2373 -0.3277  1.3680
  597SOL    MW4 2156   5.123   2.521   6.279 -0.8019  0.2856  0.0227
  598SOL     OW 2157   4.454   4.344   3.448  0.0429  0.1286 -0.3097
  598SOL    HW2 2158   4.548   4.352   3.458 -0.0060  1.3453 -0.6411
  598SOL    HW3 2159   4.421   4.323   3.535  0.5695  0.2411 -0.0859
  598SOL    MW4 2160   4.462   4.343   3.461 -0.3667 -0.5071 -0.7577
  599SOL     OW 2161   4.300   1.778   4.468  0.5807 -0.1937  0.4231
  599SOL    HW2 2162   4.240   1.810   4.401  1.9570  0.3647 -0.5954
  599SOL    HW3 2163   4.326   1.691   4.438 -0.0571 -0.6245  1.0963
  599SOL    MW4 2164   4.296   1.771   4.455  0.4472 -0.0774 -0.5524
  600SOL     OW 2165   4.135   1.137   2.042 -0.1430  0.0676 -0.3081
  600SOL    HW2 2166   4.111   1.210   2.099  1.8923 -0.3090  1.1760
  600SOL    HW3 2167   4.129   1.060   2.099 -3.0432 -1.1394 -2.0527
  600SOL    MW4 2168   4.131   1.136   2.057 -0.0518 -0.3557 -0.3621
  601SOL     OW 2169   4.052   1.694   3.511  0.0908 -0.4395  0.4412
  601SOL    HW2 2170   4.018   1.622   3.457  1.1209 -0.3458 -0.3718
  601SOL    HW3 2171   3.975   1.730   3.554 -0.8333 -0.3017 -1.2359
  601SOL    MW4 2172   4.038   1.689   3.510 -0.1308  0.1891 -0.4845
  602SOL     OW 2173   1.265   4.746   4.618 -0.2654 -0.6531  0.0369
  602SOL    HW2 2174   1.280   4.656   4.590  0.4263 -0.9271  1.2461
  602SOL    HW3 2175   1.172   4.749   4.641 -0.1941 -1.1871  0.4180
  602SOL    MW4 2176   1.254   4.735   4.617  0.1332 -0.4134  0.5677
  603SOL     OW 2177   0.546   4.583   4.183  0.4319  0.2067 -0.4158
  603SOL    HW2 2178   0.551   4.491   4.159  0.2930 -0.1986  1.0198
  603SOL    HW3 2179   0.548   4.583   4.279  0.4870  1.6973 -0.3940
  603SOL    MW4 2180   0.547   4.571   4.193  0.4580 -0.0662 -0.0942
  604SOL     OW 2181   3.216   1.783   4.861 -0.2701 -0.5668  1.0985
  604SOL    HW2 2182   3.297   1.810   4.818 -1.4954  1.6592  0.0356
  604SOL    HW3 2183   3.223   1.688   4.867  1.8301 -0.5493 -0.1642
  604SOL    MW4 2184   3.228   1.774   4.856  0.3146 -0.1060 -0.4019
  605SOL     OW 2185   5.794   2.264   5.680  0.4921 -0.2954 -0.3582
  605SOL    HW2 2186   5.728   2.201   5.708  2.2115 -1.7297  0.6649
  605SOL    HW3 2187   5.767   2.347   5.720 -0.0750 -1.1091  1.0081
  605SOL    MW4 2188   5.782   2.267   5.689 -0.1759  0.1653 -0.3113
  606SOL     OW 2189   5.343   2.960   3.898  0.3326  0.5265 -0.1029
  606SOL    HW2 2190   5.310   2.892   3.839  1.7472  0.3663 -0.7644
  606SOL    HW3 2191   5.338   2.920   3.985 -0.1014  0.0794 -0.3260
  606SOL    MW4 2192   5.338   2.946   3.901  0.6761  0.5910  0.0175
  607SOL     OW 2193   0.784   1.942   6.305 -0.5813  0.4686 -0.1779
  607SOL    HW2 2194   0.729   1.981   6.238 -3.0449 -0.4632  1.1948
  607SOL    HW3 2195   0.730   1.942   6.384  1.3634 -0.6034  1.2455
  607SOL    MW4 2196   0.770   1.947   6.306 -0.2684  0.0641 -0.0151
  608SOL     OW 2197   3.766   5.585   0.034  0.8725  0.9031  0.5658
  608SOL    HW2 2198   3.745   5.590  -0.059 -0.3784  0.3648  0.8064
  608SOL    HW3 2199   3.809   5.500   0.044  0.1147  0.5261  0.6439
  608SOL    MW4 2200   3.769   5.574   0.023  0.2108  0.1017 -0.0558
  609SOL     OW 2201   1.880   2.163   0.433  0.1760 -0.3723 -0.0385
  609SOL    HW2 2202   1.832   2.115   0.500 -3.4210  1.3204 -1.1451
  609SOL    HW3 2203   1.918   2.238   0.479 -0.7905 -0.1589  0.4295
  609SOL    MW4 2204   1.879   2.167   0.448 -0.3303 -0.2829  0.6187
  610SOL     OW 2205   6.152   3.660   5.977  0.0280 -0.0323  0.5252
  610SOL    HW2 2206   6.126   3.633   6.065 -0.0323 -0.1776  0.4638
  610SOL    HW3 2207   6.073   3.650   5.925  0.2800 -0.7743  0.2707
  610SOL    MW4 2208   6.138   3.655   5.982 -0.8012 -0.2083 -0.0831
  611SOL     OW 2209   5.412   2.021   6.018  0.1572  0.0737 -0.0895
  611SOL    HW2 2210   5.497   1.981   6.036  1.0068  1.1757 -1.4206
  611SOL    HW3 2211   5.409   2.099   6.074  0.5205  0.6436 -0.8542
  611SOL    MW4 2212   5.423   2.026   6.028 -0.2556 -0.0476 -0.7323
  612SOL     OW 2213   5.805   2.124   3.894  0.1090  0.4436  0.0198
  612SOL    HW2 2214   5.811   2.029   3.900  0.7293  0.5127  0.6269
  612SOL    HW3 2215   5.739   2.148   3.960 -2.6241  0.1973 -2.4027
  612SOL    MW4 2216   5.797   2.115   3.903  0.9318  0.1053 -0.1094
  613SOL     OW 2217   1.333   6.060   4.422 -0.0847 -0.6066 -0.1640
  613SOL    HW2 2218   1.310   6.128   4.358 -1.3955 -2.6380 -1.9862
  613SOL    HW3 2219   1.288   6.086   4.502  0.0845  1.0466 -0.5669
  613SOL    MW4 2220   1.324   6.072   4.424  0.1644  0.6619 -0.1315
  614SOL     OW 2221   6.338   4.450   2.658 -0.2779 -0.5065 -0.3886
  614SOL    HW2 2222   6.431   4.472   2.669 -0.9281  2.3489  0.1897
  614SOL    HW3 2223   6.309   4.428   2.747 -0.2139 -1.2566 -0.5466
  614SOL    MW4 2224   6.347   4.450   2.671 -0.4313  0.0606  0.2923
  615SOL     OW 2225   1.120   4.767   6.153  0.1317 -0.0955 -0.3125
  615SOL    HW2 2226   1.210   4.756   6.123  0.3649 -0.7320  0.5756
  615SOL    HW3 2227   1.122   4.845   6.207  0.3597 -0.6243  0.4567
  615SOL    MW4 2228   1.132   4.776   6.156  0.7329  0.2218  0.1393
  616SOL     OW 2229   1.884   2.388   4.323 -0.0336  0.5634  0.4832
  616SOL    HW2 2230   1.803   2.342   4.302  0.8226 -0.3102 -1.0769
  616SOL    HW3 2231   1.915   2.422   4.239  1.6100  0.2091  0.9111
  616SOL    MW4 2232   1.878   2.387   4.309 -0.0062 -0.5341  0.3034
  617SOL     OW 2233   4.162   1.149   2.901 -0.3013  0.1004  0.3651
  617SOL    HW2 2234   4.166   1.237   2.863  0.9497  0.7297  1.8371
  617SOL    HW3 2235   4.227   1.151   2.972  0.1436 -2.1768  0.0903
  617SOL    MW4 2236   4.171   1.161   2.905 -0.0781  0.1532  0.1334
  618SOL     OW 2237   3.063   2.708   2.519  0.1222 -0.4118  0.6348
  618SOL    HW2 2238   3.098   2.681   2.604  0.3559 -0.1708  0.6184
  618SOL    HW3 2239   3.000   2.778   2.541  0.8465  0.2833  0.5497
  618SOL    MW4 2240   3.059   2.714   2.533 -0.4322  0.0088 -0.0554
  619SOL     OW 2241   5.533   2.559   0.677  0.3278 -0.6637  0.8417
  619SOL    HW2 2242   5.556   2.572   0.769  0.2853  2.2860  0.5470
  619SOL    HW3 2243   5.564   2.639   0.634 -1.5901 -0.9954 -1.3088
  619SOL    MW4 2244   5.540   2.571   0.684  0.2678  0.6335  0.0070
  620SOL     OW 2245   5.507   1.999   4.703  0.2966 -0.4911 -0.3475
  620SOL    HW2 2246   5.543   1.965   4.785 -1.5202 -1.0019  0.2962
  620SOL    HW3 2247   5.576   2.055   4.668  1.1091 -0.1871  1.5717
  620SOL    MW4 2248   5.521   2.002   4.710  0.1576  0.0592 -0.1240
  621SOL     OW 2249   4.193   2.895   0.980  0.3075 -0.1104 -0.4493
  621SOL    HW2 2250   4.170   2.897   0.888  1.1186  1.5916 -0.6688
  621SOL    HW3 2251   4.209   2.803   1.000 -2.6623 -0.8923 -1.2391
  621SOL    MW4 2252   4.192   2.883   0.971  0.1472 -0.5388 -0.5672
  622SOL     OW 2253   3.885   2.066   0.494 -0.2292 -0.1378 -0.0210
  622SOL    HW2 2254   3.969   2.085   0.535 -0.5722 -0.0692  0.6630
  622SOL    HW3 2255   3.836   2.018   0.560 -0.3878 -0.9974 -0.7505
  622SOL    MW4 2256   3.890   2.062   0.508 -0.2642  0.6511  0.1583
  623SOL     OW 2257   4.896   2.316   2.160 -0.0673 -0.2595  0.2227
  623SOL    HW2 2258   4.879   2.264   2.081  0.1240 -0.2805  0.1948
  623SOL    HW3 2259   4.810   2.330   2.198  0.0595 -2.9723  1.7424
  623SOL    MW4 2260   4.882   2.311   2.155  0.2260 -0.4694  0.4082
  624SOL     OW 2261   4.922   1.668   2.146  0.1472  0.3026  0.1445
  624SOL    HW2 2262   4.996   1.702   2.196  0.8628 -1.8372  0.6536
  624SOL    HW3 2263   4.847   1.719   2.178  1.1879  1.7401  0.4368
  624SOL    MW4 2264   4.922   1.679   2.157  0.2355  0.3139  0.3832
  625SOL     OW 2265   6.119   0.093   4.165  0.2388 -0.2085 -0.5549
  625SOL    HW2 2266   6.184   0.154   4.200 -0.3144 -0.7255  1.5168
  625SOL    HW3 2267   6.099   0.035   4.239 -0.9982 -1.3949 -1.7796
  625SOL    MW4 2268   6.125   0.093   4.180  0.7437  0.2528  0.4480
  626SOL     OW 2269   3.781   5.433   0.962 -0.3852 -0.0641 -0.3676
  626SOL    HW2 2270   3.706   5.481   0.928 -0.7589 -0.7191 -0.4856
  626SOL    HW3 2271   3.852   5.498   0.965 -1.1957  0.8109  0.6762
  626SOL    MW4 2272   3.781   5.448   0.958 -0.8220  0.1688 -0.2133
  627SOL     OW 2273   5.442   4.028   5.744  0.0606  0.4911  0.0829
  627SOL    HW2 2274   5.347   4.039   5.737  0.0438 -0.2553 -1.1278
  627SOL    HW3 2275   5.474   4.047   5.656  1.3065  3.0275  1.0000
  627SOL    MW4 2276   5.433   4.032   5.731  0.5942  0.5061  0.1106
  628SOL     OW 2277   5.397   2.367   4.064  0.0271 -1.0125  0.2190
  628SOL    HW2 2278   5.441   2.451   4.071 -1.6758  0.1016 -1.2485
  628SOL    HW3 2279   5.456   2.313   4.010  0.0420  0.1355 -0.9781
  628SOL    MW4 2280   5.410   2.371   4.058 -0.0085  0.7908 -0.1718
  629SOL     OW 2281   2.144   3.158   1.906  0.2291  0.4057  0.4019
  629SOL    HW2 2282   2.231   3.180   1.872  0.1567  1.0492  0.6273
  629SOL    HW3 2283   2.120   3.232   1.961 -0.1157 -0.1388  0.9976
  629SOL    MW4 2284   2.152   3.170   1.909  0.0154  0.4945  0.3461
  630SOL     OW 2285   2.714   3.971   2.963 -0.2234 -0.1923 -0.1098
  630SOL    HW2 2286   2.709   4.034   2.891 -2.6873  0.4007  0.4922
  630SOL    HW3 2287   2.625   3.969   2.999  0.8302 -0.7779  2.6689
  630SOL    MW4 2288   2.701   3.979   2.958 -0.1656  0.4318  0.2101
  631SOL     OW 2289   5.498   3.196   1.517 -0.1028 -0.3137  0.7336
  631SOL    HW2 2290   5.571   3.258   1.522 -0.3559  0.1544 -0.8251
  631SOL    HW3 2291   5.485   3.182   1.423 -1.2957 -1.2545  1.0166
  631SOL    MW4 2292   5.506   3.202   1.506 -1.0370 -0.2345 -0.1771
  632SOL     OW 2293   4.535   4.254   1.239  0.0465 -0.2236 -0.8428
  632SOL    HW2 2294   4.591   4.176   1.247 -0.0059 -0.3744 -1.8477
  632SOL    HW3 2295   4.596   4.327   1.245  0.0226 -0.2970  0.7786
  632SOL    MW4 2296   4.551   4.253   1.241  0.2607  0.5633  0.2601
  633SOL     OW 2297   5.558   4.465   1.924  0.4648  0.4195  0.1837
  633SOL    HW2 2298   5.605   4.430   1.999  0.2107  0.7758  0.5156
  633SOL    HW3 2299   5.502   4.534   1.961  0.9731  1.1974 -0.4418
  633SOL    MW4 2300   5.557   4.470   1.938 -0.0009  0.1008  0.7326
  634SOL     OW 2301   0.111   1.975   3.912 -0.0985 -0.4880 -0.0762
  634SOL    HW2 2302   0.145   2.054   3.869 -0.2762 -0.1833  0.3261
  634SOL    HW3 2303   0.016   1.991   3.918 -0.0265 -0.3315  0.7984
  634SOL    MW4 2304   0.103   1.988   3.907  0.1784 -0.1909 -0.8417
  635SOL     OW 2305   3.731   0.613   3.514  0.1234  0.0898  0.1176
  635SOL    HW2 2306   3.821   0.597   3.485  0.1221 -0.7208  0.5463
  635SOL    HW3 2307   3.730   0.585   3.606 -0.0285  2.0557  0.7692
  635SOL    MW4 2308   3.743   0.607   3.523 -0.0516  0.4377 -0.5724
  636SOL     OW 2309   4.038   0.321   5.462  0.0488 -0.2528 -0.4682
  636SOL    HW2 2310   4.061   0.265   5.537  1.4343 -0.8500 -1.2979
  636SOL    HW3 2311   4.121   0.360   5.435 -0.7275  1.4535 -0.5559
  636SOL    MW4 2312   4.052   0.319   5.468  0.4951  0.2553 -0.0468
  637SOL     OW 2313   4.923   3.388   4.196  0.8451  0.3270 -0.0539
  637SOL    HW2 2314   4.948   3.462   4.252  2.0305  0.4073 -0.6666
  637SOL    HW3 2315   4.828   3.380   4.209  0.3664  3.0248 -1.2167
  637SOL    MW4 2316   4.914   3.397   4.206  0.7421 -0.0166 -0.0405
  638SOL     OW 2317   0.118   0.031   5.061 -0.5166  0.6532 -0.4304
  638SOL    HW2 2318   0.023   0.023   5.074 -0.4209 -1.3979 -0.6468
  638SOL    HW3 2319   0.142  -0.047   5.012  1.8044 -0.6659  2.5230
  638SOL    MW4 2320   0.108   0.020   5.056 -0.0694  0.0629  0.4320
  639SOL     OW 2321   0.987   1.284   3.594 -0.0812  0.2762 -0.1415
  639SOL    HW2 2322   0.991   1.254   3.685  1.3174 -0.9174 -0.5617
  639SOL    HW3 2323   0.894   1.302   3.579 -1.1243 -3.7879  0.2703
  639SOL    MW4 2324   0.975   1.282   3.604 -0.3111  0.3807  0.4377
  640SOL     OW 2325   0.944   6.201   3.593  0.7762 -0.0405  0.2363
  640SOL    HW2 2326   1.020   6.176   3.540  1.7941  0.1737  1.5299
  640SOL    HW3 2327   0.904   6.117   3.619 -0.0564 -0.1412 -1.2607
  640SOL    MW4 2328   0.949   6.186   3.590 -0.0685  0.0269 -0.2493
  641SOL     OW 2329   5.255   1.461   2.653  0.1024 -0.3844  0.3082
  641SOL    HW2 2330   5.238   1.377   2.696  2.4783 -1.5588 -0.8432
  641SOL    HW3 2331   5.219   1.452   2.566  0.1640 -0.1184  0.2532
  641SOL    MW4 2332   5.248   1.449   2.647 -0.0734 -0.0032 -0.3764
  642SOL     OW 2333   0.657   3.740   6.075  0.0919  0.2344  0.0504
  642SOL    HW2 2334   0.740   3.785   6.092 -0.2877  2.0442 -2.3081
  642SOL    HW3 2335   0.591   3.794   6.119 -0.0866  0.3416 -0.3456
  642SOL    MW4 2336   0.659   3.753   6.083 -1.0033 -0.6886 -1.0010
  643SOL     OW 2337   4.256   2.670   3.796  0.2020 -0.0318  0.9460
  643SOL    HW2 2338   4.349   2.650   3.810  0.6114 -0.7428 -2.0999
  643SOL    HW3 2339   4.251   2.765   3.805  1.7149  0.2867 -0.7541
  643SOL    MW4 2340   4.268   2.680   3.799  0.3552 -0.3000 -0.1619
  644SOL     OW 2341   2.494   1.670   1.930  0.6661  0.4037 -0.0430
  644SOL    HW2 2342   2.484   1.716   1.846  0.2631 -1.6786 -1.1831
  644SOL    HW3 2343   2.421   1.701   1.983 -0.2766  0.2353 -1.2003
  644SOL    MW4 2344   2.483   1.680   1.926 -0.9445  0.3667 -0.2064
  645SOL     OW 2345   5.630   0.282   4.037  0.2208 -0.2503  0.1572
  645SOL    HW2 2346   5.677   0.201   4.018 -1.1771 -1.0324 -0.1409
  645SOL    HW3 2347   5.697   0.341   4.071  1.2180 -1.6357  0.7171
  645SOL    MW4 2348   5.645   0.279   4.039  0.2973  0.4643 -0.0833
  646SOL     OW 2349   5.581   0.799   4.320 -0.0127  0.8553 -0.1080
  646SOL    HW2 2350   5.619   0.880   4.353  1.5473  0.6943 -1.4117
  646SOL    HW3 2351   5.559   0.818   4.229 -0.8270  0.1913 -0.0657
  646SOL    MW4 2352   5.583   0.812   4.312 -0.1112 -0.1992 -0.2340
  647SOL     OW 2353   5.978   0.990   3.749 -0.3663  0.1023  0.2515
  647SOL    HW2 2354   5.999   1.005   3.657  2.0694 -2.5384  0.2246
  647SOL    HW3 2355   6.032   1.053   3.797  0.3019 -0.1974 -0.0922
  647SOL    MW4 2356   5.988   1.000   3.743  0.7208  0.0263 -0.2119
  648SOL     OW 2357   5.331   4.781   3.865 -0.0044  0.2598 -0.5937
  648SOL    HW2 2358   5.284   4.727   3.927 -0.1518  0.3815 -0.5982
  648SOL    HW3 2359   5.386   4.720   3.815 -0.5983  0.0419 -0.9874
  648SOL    MW4 2360   5.332   4.766   3.866  0.4474 -0.2617 -0.2420
  649SOL     OW 2361   5.553   1.366   5.929 -0.3487 -0.0722  0.3437
  649SOL    HW2 2362   5.528   1.457   5.916  0.7657  0.3952  1.2972
  649SOL    HW3 2363   5.576   1.360   6.022  1.4233 -0.8480 -0.0998
  649SOL    MW4 2364   5.553   1.377   5.939  0.2632  0.0135  0.7423
  650SOL     OW 2365   1.113   3.902   4.981 -0.2971  0.5450 -0.1520
  650SOL    HW2 2366   1.181   3.950   4.934  0.5329 -0.2431  0.2012
  650SOL    HW3 2367   1.140   3.907   5.073  0.4289 -1.4720 -0.1983
  650SOL    MW4 2368   1.126   3.909   4.987  0.5404  0.0498 -0.4321
  651SOL     OW 2369   0.380   4.150   1.163 -0.1420 -0.3586 -0.2017
  651SOL    HW2 2370   0.383   4.238   1.201  1.0561 -0.0518 -0.9514
  651SOL    HW3 2371   0.466   4.139   1.122 -1.0626 -1.0084 -2.0596
  651SOL    MW4 2372   0.392   4.160   1.163 -0.5804 -0.1811 -0.8927
  652SOL     OW 2373   5.771   2.117   1.799  0.1639 -0.2733  0.1302
  652SOL    HW2 2374   5.850   2.144   1.845  0.9315 -2.7881  0.4819
  652SOL    HW3 2375   5.802   2.080   1.717 -0.7409 -0.2568 -0.2369
  652SOL    MW4 2376   5.785   2.115   1.794 -0.3568 -0.5779 -0.3970
  653SOL     OW 2377   3.774   1.951   2.552 -0.3676 -0.0310  0.3392
  653SOL    HW2 2378   3.767   1.857   2.538  2.5238 -0.3466  0.4138
  653SOL    HW3 2379   3.863   1.964   2.585 -0.4400  2.7924 -0.2894
  653SOL    MW4 2380   3.785   1.940   2.554  0.3449 -0.7435  0.0444
  654SOL     OW 2381   5.418   1.122   2.390 -0.0670 -0.2674  0.3911
  654SOL    HW2 2382   5.450   1.054   2.449  0.2158  0.4195  1.0387
  654SOL    HW3 2383   5.464   1.201   2.417  1.3193 -0.2294 -1.7874
  654SOL    MW4 2384   5.428   1.123   2.401  0.0084 -0.0827  0.0963
  655SOL     OW 2385   4.051   0.678   3.478 -0.5375  0.0216 -0.0875
  655SOL    HW2 2386   4.000   0.752   3.444  0.6466  0.4732 -0.9632
  655SOL    HW3 2387   4.083   0.708   3.564  1.5809  1.3985 -1.2527
  655SOL    MW4 2388   4.049   0.692   3.485  0.0537  0.2122  0.3927
  656SOL     OW 2389   2.373   0.685   1.489  0.5688 -0.2346 -1.0547
  656SOL    HW2 2390   2.356   0.591   1.497  0.9064 -0.1965  0.5151
  656SOL    HW3 2391   2.370   0.702   1.395  3.1064 -2.2951 -1.6211
  656SOL    MW4 2392   2.370   0.675   1.478 -0.2345  0.2152  0.2509
  657SOL     OW 2393   2.181   5.324   0.662 -0.7476  0.7548 -0.0198
  657SOL    HW2 2394   2.143   5.240   0.688  0.1019  0.3290 -0.1167
  657SOL    HW3 2395   2.179   5.322   0.566  0.3218  0.3350 -0.0494
  657SOL    MW4 2396   2.176   5.313   0.653  0.8202  0.1381  0.6012
  658SOL     OW 2397   0.624   4.481   2.239  0.3662  0.5761  0.7608
  658SOL    HW2 2398   0.568   4.474   2.162  2.2236  1.5763 -0.7998
  658SOL    HW3 2399   0.705   4.436   2.214  0.7438  0.2532  2.4391
  658SOL    MW4 2400   0.627   4.474   2.226 -0.2874 -0.0214  0.4784
  659SOL     OW 2401   1.908   0.260   4.699 -0.1543  0.2305  0.0268
  659SOL    HW2 2402   1.910   0.185   4.639  2.2315  0.0921  0.1801
  659SOL    HW3 2403   1.858   0.327   4.652 -1.0591 -0.9374 -0.7341
  659SOL    MW4 2404   1.902   0.259   4.685 -0.1628 -0.5331  0.1887
  660SOL     OW 2405   0.145   6.100   1.255  0.4176  0.0843  0.2603
  660SOL    HW2 2406   0.211   6.070   1.192 -0.5413 -0.8921 -0.2997
  660SOL    HW3 2407   0.061   6.072   1.218 -0.2621  0.5621  1.3804
  660SOL    MW4 2408   0.143   6.093   1.242  0.2478 -0.0147  0.3809
  661SOL     OW 2409   3.569   4.712   3.387 -0.1226 -0.2929  0.5011
  661SOL    HW2 2410   3.593   4.767   3.462  0.1061 -0.7468  0.7660
  661SOL    HW3 2411   3.610   4.627   3.405 -1.2988 -0.8659  0.5909
  661SOL    MW4 2412   3.578   4.708   3.399  0.2533  0.3431  0.1481
  662SOL     OW 2413   1.272   5.082   1.221 -0.2177 -0.5950  0.3671
  662SOL    HW2 2414   1.224   5.068   1.140  0.0908 -0.2620  0.1240
  662SOL    HW3 2415   1.332   5.008   1.227 -0.6161 -0.9037  0.5678
  662SOL    MW4 2416   1.274   5.070   1.211 -0.4019  0.3352  0.0869
  663SOL     OW 2417   4.930   4.154   4.725  0.1107 -0.1744 -0.0269
  663SOL    HW2 2418   5.020   4.126   4.742  0.6844  2.2876  1.5381
  663SOL    HW3 2419   4.937   4.207   4.645 -0.1730 -0.7977 -0.4778
  663SOL    MW4 2420   4.943   4.157   4.717 -0.0572  0.0256 -0.2240
  664SOL     OW 2421   3.301   0.490   4.996  0.4251  0.0312 -0.2125
  664SOL    HW2 2422   3.227   0.446   4.954  1.8907 -0.6868 -2.2169
  664SOL    HW3 2423   3.262   0.540   5.068 -2.2555  1.2199 -2.3212
  664SOL    MW4 2424   3.286   0.491   5.000  0.0788 -0.3617  0.4567
  665SOL     OW 2425   3.719   0.200   3.444 -0.6094 -0.3059 -0.1276
  665SOL    HW2 2426   3.709   0.117   3.490  3.3782 -1.0749 -0.3045
  665SOL    HW3 2427   3.705   0.178   3.352  0.2936 -0.8027 -0.1586
  665SOL    MW4 2428   3.716   0.186   3.438  0.0728  0.3836 -0.4376
  666SOL     OW 2429   2.599   2.434   2.078  0.1817 -0.8374 -0.3298
  666SOL    HW2 2430   2.540   2.476   2.016 -0.3195 -0.7564  0.1932
  666SOL    HW3 2431   2.687   2.458   2.048 -0.0813  0.0169 -0.4415
  666SOL    MW4 2432   2.603   2.443   2.066  0.1673  0.3136 -0.2379
  667SOL     OW 2433   4.113   1.654   4.651  0.0307 -0.1734  0.2847
  667SOL    HW2 2434   4.161   1.576   4.679  0.3318 -0.1170 -0.0655
  667SOL    HW3 2435   4.166   1.691   4.581  0.3000  0.8091  1.0004
  667SOL    MW4 2436   4.126   1.648   4.645  0.8705 -0.0148 -0.4959
  668SOL     OW 2437   1.281   3.240   1.858  0.5799 -0.1879 -0.0684
  668SOL    HW2 2438   1.315   3.324   1.829 -0.6051  0.3949  0.1547
  668SOL    HW3 2439   1.358   3.190   1.885  1.2943  0.8201 -0.2061
  668SOL    MW4 2440   1.296   3.245   1.857  0.1798 -0.4603 -0.5392
  669SOL     OW 2441   3.814   2.045   3.874 -0.5788 -0.1227 -0.9223
  669SOL    HW2 2442   3.722   2.050   3.846  0.0765  0.8426 -3.1333
  669SOL    HW3 2443   3.848   2.133   3.860  0.3983 -0.1132  1.1437
  669SOL    MW4 2444   3.806   2.057   3.868  0.4049 -0.0831  0.3499
  670SOL     OW 2445   2.235   1.436   4.467 -0.5542 -0.6074 -0.3048
  670SOL    HW2 2446   2.276   1.365   4.516 -0.6436  0.4499  1.3818
  670SOL    HW3 2447   2.186   1.486   4.533 -1.2238  0.5064 -1.5875
  670SOL    MW4 2448   2.234   1.434   4.482  0.6373 -0.2718 -0.3887
  671SOL     OW 2449   3.827   2.719   4.836 -0.2657 -0.1861 -0.4353
  671SOL    HW2 2450   3.812   2.812   4.820  0.5962 -0.2503 -1.7938
  671SOL    HW3 2451   3.762   2.674   4.781  0.6956 -0.3764 -1.4738
  671SOL    MW4 2452   3.817   2.725   4.826  0.3034  0.4051 -0.1077
  672SOL     OW 2453   1.277   1.397   5.895  0.0436  0.6542 -0.0077
  672SOL    HW2 2454   1.195   1.442   5.917  0.8504  1.6238  1.1848
  672SOL    HW3 2455   1.251   1.307   5.878 -1.4302  1.2221 -0.9425
  672SOL    MW4 2456   1.263   1.391   5.896 -0.0207  0.6470  0.7610
  673SOL     OW 2457   6.358   0.505   3.919 -0.4435 -0.1777 -0.0989
  673SOL    HW2 2458   6.453   0.512   3.926 -0.3540 -0.5151 -0.8691
  673SOL    HW3 2459   6.327   0.504   4.010 -0.0354  3.6692  0.2511
  673SOL    MW4 2460   6.366   0.505   3.932 -0.8467  0.1362  0.0363
  674SOL     OW 2461   1.280   4.151   2.688 -0.2782  0.1396 -0.4252
  674SOL    HW2 2462   1.246   4.134   2.600 -0.6278  4.1937 -1.2897
  674SOL    HW3 2463   1.204   4.139   2.745 -1.6079  2.6415 -1.4949
  674SOL    MW4 2464   1.265   4.147   2.684 -0.4288  0.3312 -0.3818
  675SOL     OW 2465   5.355   1.028   0.632  0.2038  0.0546  0.3073
  675SOL    HW2 2466   5.378   1.107   0.583 -2.3618  0.2395 -0.8027
  675SOL    HW3 2467   5.425   0.966   0.612  1.6033  1.6246  0.1570
  675SOL    MW4 2468   5.367   1.030   0.623 -0.3261 -0.2436 -0.1820
  676SOL     OW 2469   1.189   2.443   2.234  0.0746 -0.7325 -0.2214
  676SOL    HW2 2470   1.129   2.457   2.161  0.2384 -0.2186 -0.2638
  676SOL    HW3 2471   1.273   2.479   2.204 -0.4240  1.8220  1.0849
  676SOL    MW4 2472   1.192   2.450   2.221 -0.3691 -0.0820 -0.5734
  677SOL     OW 2473   2.180   4.545   5.435 -0.1168 -0.1257  0.0253
  677SOL    HW2 2474   2.246   4.574   5.372  1.7052 -0.1762  1.8060
  677SOL    HW3 2475   2.181   4.612   5.504 -1.4487 -0.4812  0.4148
  677SOL    MW4 2476   2.189   4.557   5.436 -0.2362  0.3900  0.3135
  678SOL     OW 2477   1.955   4.126   0.189  0.2408  0.1737  0.1135
  678SOL    HW2 2478   1.895   4.185   0.143 -0.6225 -0.8820 -0.1713
  678SOL    HW3 2479   2.024   4.183   0.223 -1.4112  1.5643  1.2801
  678SOL    MW4 2480   1.957   4.141   0.187 -0.2120  0.0188 -0.0956
  679SOL     OW 2481   6.408   3.459   2.812  0.2567  0.1447  0.1479
  679SOL    HW2 2482   6.470   3.441   2.883  0.5928  1.4584  0.2130
  679SOL    HW3 2483   6.428   3.549   2.785 -0.2766 -0.1226 -1.2012
  679SOL    MW4 2484   6.419   3.468   2.818  0.4060 -0.3092 -0.3894
  680SOL     OW 2485   2.154   1.393   6.179 -0.0633 -0.3148  0.3931
  680SOL    HW2 2486   2.104   1.314   6.198 -1.1011  0.5782  1.6217
  680SOL    HW3 2487   2.197   1.414   6.262 -0.2577  0.6984  0.2520
  680SOL    MW4 2488   2.153   1.386   6.193  0.8756  0.5100  0.0558
  681SOL     OW 2489   5.820   4.043   6.073 -0.2503  0.1729  0.2749
  681SOL    HW2 2490   5.733   4.035   6.033  0.5711 -0.9833 -1.4104
  681SOL    HW3 2491   5.868   4.102   6.015  0.4331 -0.0844  0.5680
  681SOL    MW4 2492   5.815   4.050   6.060  0.1644 -0.5717 -0.0598
  682SOL     OW 2493   5.641   3.778   2.045  0.6536 -0.1403  0.0752
  682SOL    HW2 2494   5.651   3.815   1.958  0.6849 -1.9953 -0.7607
  682SOL    HW3 2495   5.547   3.784   2.063  0.8286  1.6338  0.6094
  682SOL    MW4 2496   5.630   3.784   2.036  0.9725  0.2072 -0.7043
  683SOL     OW 2497   1.474   1.346   3.606 -0.2602  0.2446 -0.2327
  683SOL    HW2 2498   1.380   1.361   3.610 -0.1531  1.3566 -1.4237
  683SOL    HW3 2499   1.505   1.368   3.694 -1.1396 -0.5606  0.3072
  683SOL    MW4 2500   1.466   1.351   3.618  0.5547  0.2787 -0.4686
  684SOL     OW 2501   6.038   3.416   2.366 -0.1509 -0.4976 -0.2354
  684SOL    HW2 2502   6.123   3.451   2.339  0.4932 -1.6285  0.2393
  684SOL    HW3 2503   5.985   3.416   2.286  0.8219 -1.2675 -0.8994
  684SOL    MW4 2504   6.042   3.421   2.352 -0.4959  0.0581  0.3734
  685SOL     OW 2505   1.433   5.569   3.397 -0.4777  0.0228 -0.1740
  685SOL    HW2 2506   1.446   5.575   3.302 -0.5783 -1.1662 -0.2737
  685SOL    HW3 2507   1.417   5.659   3.424  0.1415  0.4659 -1.1983
  685SOL    MW4 2508   1.433   5.582   3.388 -0.5730  0.1172  0.3407
  686SOL     OW 2509   5.564   1.740   2.735  0.3052 -0.0708  0.5338
  686SOL    HW2 2510   5.559   1.748   2.831 -2.3147  1.8883  0.3383
  686SOL    HW3 2511   5.627   1.807   2.709  0.8532 -0.4556  0.8263
  686SOL    MW4 2512   5.572   1.750   2.744  0.3427  0.2159 -0.1494
  687SOL     OW 2513   2.310   3.209   6.080 -0.6227 -0.7455  0.2457
  687SOL    HW2 2514   2.257   3.274   6.034  0.5196  0.2577  0.3120
  687SOL    HW3 2515   2.301   3.129   6.027 -2.0855 -0.5794  0.1963
  687SOL    MW4 2516   2.301   3.207   6.067  0.1297  0.9405  0.3213
  688SOL     OW 2517   4.142   5.158   5.861 -0.4684 -0.6436 -0.6375
  688SOL    HW2 2518   4.147   5.062   5.852  0.3636 -0.6168 -0.4896
  688SOL    HW3 2519   4.165   5.174   5.952 -0.2961 -0.2756 -0.7472
  688SOL    MW4 2520   4.146   5.147   5.872 -0.2166 -0.6308 -0.1133
  689SOL     OW 2521   3.170   5.365   3.174 -0.5547 -0.3413 -0.0726
  689SOL    HW2 2522   3.225   5.409   3.239 -1.1315 -0.0909  0.2580
  689SOL    HW3 2523   3.204   5.395   3.090  0.9661 -1.6002  0.0615
  689SOL    MW4 2524   3.182   5.375   3.172  0.0302  0.0040 -0.2395
  690SOL     OW 2525   2.344   4.079   5.501  0.5713  0.3443  0.0106
  690SOL    HW2 2526   2.306   4.166   5.507  2.8229  1.3144  1.6262
  690SOL    HW3 2527   2.293   4.026   5.563 -1.1751  0.3087 -1.3970
  690SOL    MW4 2528   2.333   4.083   5.510 -0.0151  0.0170  0.2743
  691SOL     OW 2529   2.316   0.145   1.133 -0.2377 -0.7762 -0.2845
  691SOL    HW2 2530   2.246   0.115   1.076 -0.0964  0.2943 -1.0422
  691SOL    HW3 2531   2.396   0.112   1.092 -0.0897  0.4863 -1.0631
  691SOL    MW4 2532   2.318   0.136   1.120  0.1122  0.2836 -0.2826
  692SOL     OW 2533   3.567   5.497   0.221 -0.3566 -0.5164 -0.7802
  692SOL    HW2 2534   3.631   5.534   0.159 -0.8814 -1.4156 -1.8867
  692SOL    HW3 2535   3.508   5.445   0.167 -2.1240  0.3637  0.1852
  692SOL    MW4 2536   3.568   5.495   0.205 -0.4665  0.0540 -0.0314
  693SOL     OW 2537   5.007   5.447   2.566 -0.3370  0.5295  0.4166
  693SOL    HW2 2538   5.093   5.407   2.552 -0.1967  1.1324 -0.5556
  693SOL    HW3 2539   4.987   5.490   2.483 -2.0458 -0.4617  0.2661
  693SOL    MW4 2540   5.015   5.448   2.553 -0.1936 -0.1964 -0.6373
  694SOL     OW 2541   1.295   6.277   0.170  0.2135  0.0735  0.0628
  694SOL    HW2 2542   1.381   6.279   0.211 -0.2904 -1.3953  1.2649
  694SOL    HW3 2543   1.265   6.368   0.172  0.7583  0.2366  1.8062
  694SOL    MW4 2544   1.302   6.290   0.175  0.0099  0.0248 -0.2382
  695SOL     OW 2545   5.646   1.791   5.410  0.0354 -0.4657 -0.5672
  695SOL    HW2 2546   5.654   1.701   5.378 -1.3196  0.0482 -2.4395
  695SOL    HW3 2547   5.735   1.826   5.402  0.4745 -1.4570 -0.3024
  695SOL    MW4 2548   5.659   1.784   5.405 -0.2164 -0.4496 -0.0930
  696SOL     OW 2549   6.345   3.759   3.144  0.4216 -0.0368  0.7958
  696SOL    HW2 2550   6.414   3.824   3.157 -0.4397  1.3575 -1.0804
  696SOL    HW3 2551   6.314   3.775   3.055 -3.7443  0.8636  2.1857
  696SOL    MW4 2552   6.350   3.770   3.134 -0.1080 -0.0128 -0.8701
  697SOL     OW 2553   5.003   5.906   3.198 -0.0410  0.2104 -0.2267
  697SOL    HW2 2554   5.085   5.861   3.176 -0.0123 -0.1647  0.6097
  697SOL    HW3 2555   4.949   5.838   3.239 -0.0474  0.9003  0.9285
  697SOL    MW4 2556   5.007   5.891   3.200  0.5914  0.0943  0.3224
  698SOL     OW 2557   3.857   6.169   5.533 -0.3628  0.4547 -0.4459
  698SOL    HW2 2558   3.930   6.187   5.591 -0.2994 -0.0902 -0.3535
  698SOL    HW3 2559   3.856   6.243   5.471  0.8281 -0.0003 -1.0221
  698SOL    MW4 2560   3.866   6.181   5.532 -0.6370 -0.1472  0.4964
  699SOL     OW 2561   3.208   3.930   3.443 -0.0648  0.3586  0.0471
  699SOL    HW2 2562   3.280   3.935   3.380  0.1804  0.9294  0.3690
  699SOL    HW3 2563   3.245   3.962   3.525 -0.6771  0.6408  0.2228
  699SOL    MW4 2564   3.222   3.935   3.446 -0.2230  0.4787 -0.4009
  700SOL     OW 2565   3.394   4.028   1.424  0.1751  0.1272  0.2946
  700SOL    HW2 2566   3.454   4.082   1.474  0.7175  0.3605 -0.5781
  700SOL    HW3 2567   3.326   4.089   1.394  0.6339  0.2936 -0.4501
  700SOL    MW4 2568   3.393   4.043   1.426  0.4287  0.1996  0.0845
  701SOL     OW 2569   1.329   0.362   4.396  0.0736  0.1515 -0.0744
  701SOL    HW2 2570   1.307   0.270   4.377  1.3769  0.0480 -1.2621
  701SOL    HW3 2571   1.423   0.361   4.412 -0.1141  1.1085  1.2668
  701SOL    MW4 2572   1.338   0.350   4.396  0.0704  0.0657  0.2295
  702SOL     OW 2573   1.555   0.480   0.674  0.3347  0.1212 -0.0914
  702SOL    HW2 2574   1.513   0.450   0.755  0.9711 -1.3152 -0.2636
  702SOL    HW3 2575   1.489   0.537   0.633  0.1569  1.2193  1.6023
  702SOL    MW4 2576   1.541   0.484   0.679 -0.2957  0.6183 -0.4337
  703SOL     OW 2577   1.563   5.447   2.941 -0.1191 -0.4989  0.1505
  703SOL    HW2 2578   1.527   5.389   3.008  1.2633 -0.3895  1.0313
  703SOL    HW3 2579   1.486   5.479   2.893 -1.2661  0.2360  2.3448
  703SOL    MW4 2580   1.548   5.444   2.943 -0.0563  0.5082 -0.3646
  704SOL     OW 2581   3.694   2.306   1.267 -0.7848  0.4686  0.3105
  704SOL    HW2 2582   3.740   2.247   1.326 -0.6401  0.4067  0.1365
  704SOL    HW3 2583   3.615   2.331   1.315 -1.5399 -0.9247 -0.1370
  704SOL    MW4 2584   3.690   2.301   1.281 -0.0947  0.2797 -0.3274
  705SOL     OW 2585   3.953   5.591   6.184  0.0213 -0.1645  0.0147
  705SOL    HW2 2586   3.964   5.684   6.165 -2.3222  0.2037  0.1498
  705SOL    HW3 2587   3.918   5.554   6.102  0.1529 -0.7712  0.2237
  705SOL    MW4 2588   3.950   5.598   6.171  0.6985 -0.8405 -0.2773
  706SOL     OW 2589   1.985   3.543   0.457 -0.5213 -0.4828  0.2161
  706SOL    HW2 2590   1.951   3.555   0.545 -1.4394 -1.1461 -0.0334
  706SOL    HW3 2591   2.031   3.624   0.438 -1.9385  0.4471  0.5981
  706SOL    MW4 2592   1.987   3.555   0.466 -0.0416  0.2803 -0.4022
  707SOL     OW 2593   5.811   1.684   6.058 -0.2690 -0.4894 -0.3058
  707SOL    HW2 2594   5.760   1.636   6.123 -2.2792  1.8965  0.0293
  707SOL    HW3 2595   5.901   1.675   6.087 -1.0774  0.4509  2.8960
  707SOL    MW4 2596   5.816   1.677   6.071 -0.2121 -0.0539  0.0281
  708SOL     OW 2597   0.854   0.928   2.984  0.0433 -0.3927 -0.1797
  708SOL    HW2 2598   0.867   0.952   3.076  0.7920  2.8856 -1.0077
  708SOL    HW3 2599   0.765   0.893   2.981 -0.4159  0.5074  1.6357
  708SOL    MW4 2600   0.844   0.927   2.996  0.0205  0.3058 -0.5548
  709SOL     OW 2601   5.824   5.054   0.223  0.4162 -0.6278  0.0352
  709SOL    HW2 2602   5.821   4.961   0.203 -0.3882 -0.5301 -0.3299
  709SOL    HW3 2603   5.799   5.097   0.142  3.2957  0.0401 -0.6069
  709SOL    MW4 2604   5.820   5.048   0.210  0.3754 -0.4068 -0.0707
  710SOL     OW 2605   0.848   1.418   0.645 -0.0386  0.0716  0.3899
  710SOL    HW2 2606   0.923   1.463   0.683  0.8371  0.6014 -1.7914
  710SOL    HW3 2607   0.885   1.341   0.602 -1.0313 -0.7514  0.9581
  710SOL    MW4 2608   0.863   1.414   0.644 -0.4866 -0.3599  0.4197
  711SOL     OW 2609   2.319   2.703   3.099  0.5947  0.8252  0.7427
  711SOL    HW2 2610   2.247   2.757   3.132  0.8731 -0.4431  3.7479
  711SOL    HW3 2611   2.286   2.613   3.107  2.0065  0.2988  0.8067
  711SOL    MW4 2612   2.305   2.698   3.104  0.4638 -0.0312  0.6432
  712SOL     OW 2613   5.719   3.616   1.773  0.0872 -0.2235  0.1415
  712SOL    HW2 2614   5.807   3.595   1.804  0.2363  0.9565  0.5875
  712SOL    HW3 2615   5.661   3.563   1.826  0.5594 -2.3045 -1.2873
  712SOL    MW4 2616   5.723   3.606   1.784  0.4350 -0.1324  0.1567
  713SOL     OW 2617   1.305   3.587   4.285 -0.1202  0.5698 -0.0708
  713SOL    HW2 2618   1.338   3.632   4.206  1.7267 -0.2836  0.1626
  713SOL    HW3 2619   1.383   3.572   4.338 -0.8959 -1.6021  0.5324
  713SOL    MW4 2620   1.320   3.591   4.281 -0.0142 -0.2156 -0.0909
  714SOL     OW 2621   5.956   3.469   1.814 -0.3380  0.9180 -0.1167
  714SOL    HW2 2622   5.965   3.454   1.720 -0.3256  0.9040 -0.1132
  714SOL    HW3 2623   6.024   3.533   1.836 -0.1600  0.7132 -0.0658
  714SOL    MW4 2624   5.966   3.476   1.805  0.0289 -0.3532 -0.0412
  715SOL     OW 2625   3.938   3.121   2.855 -0.0687  0.0660  0.0083
  715SOL    HW2 2626   4.006   3.079   2.803  0.9229 -0.0294  1.3382
  715SOL    HW3 2627   3.982   3.147   2.936 -1.1332  1.8213  0.0831
  715SOL    MW4 2628   3.953   3.119   2.859 -0.3904 -0.4223 -0.3392
  716SOL     OW 2629   2.411   4.911   0.982 -0.3757 -0.2037 -0.2405
  716SOL    HW2 2630   2.358   4.927   0.903 -1.0130 -0.1170  0.1927
  716SOL    HW3 2631   2.346   4.892   1.050  0.1639 -0.1588  0.2934
  716SOL    MW4 2632   2.395   4.910   0.980  0.2841  0.0697  0.3660
  717SOL     OW 2633   2.692   2.440   5.230 -0.7417  0.6097  0.4079
  717SOL    HW2 2634   2.666   2.369   5.173 -2.3982  0.8951  0.7741
  717SOL    HW3 2635   2.632   2.511   5.210  1.0108  2.0357 -0.1158
  717SOL    MW4 2636   2.681   2.440   5.220  0.5754  0.1090 -0.3965
  718SOL     OW 2637   4.690   3.751   3.346  0.5212 -0.3475  0.0888
  718SOL    HW2 2638   4.663   3.842   3.344  0.9681 -0.1886  0.8215
  718SOL    HW3 2639   4.674   3.723   3.436  0.2839 -1.0269 -0.1565
  718SOL    MW4 2640   4.684   3.759   3.357 -0.2273 -0.5629 -0.2514
  719SOL     OW 2641   5.979   6.208   1.889 -0.1542  0.6529 -0.8744
  719SOL    HW2 2642   5.976   6.145   1.816  1.7362 -0.1208 -0.3460
  719SOL    HW3 2643   6.053   6.180   1.942 -1.2325  1.4459  1.1637
  719SOL    MW4 2644   5.988   6.196   1.886  0.1412 -0.2026 -0.4294
  720SOL     OW 2645   3.854   0.766   4.787 -0.0703 -0.0686 -0.0857
  720SOL    HW2 2646   3.785   0.824   4.754  1.4483  1.5827 -0.4950
  720SOL    HW3 2647   3.806   0.693   4.827 -2.0302  0.5172 -1.2086
  720SOL    MW4 2648   3.838   0.764   4.788 -0.3414 -0.2802 -0.8970
  721SOL     OW 2649   5.847   4.156   0.729 -0.1062  0.1175  0.3197
  721SOL    HW2 2650   5.903   4.080   0.747 -0.9721 -0.1451  2.1898
  721SOL    HW3 2651   5.779   4.122   0.671  0.4461 -0.1061 -0.2044
  721SOL    MW4 2652   5.845   4.142   0.724  0.1490  0.4605 -0.0939
  722SOL     OW 2653   0.658   1.065   0.732  0.3479 -0.2251  0.1132
  722SOL    HW2 2654   0.743   1.105   0.715 -0.4649  1.3764 -0.4073
  722SOL    HW3 2655   0.594   1.132   0.706 -1.0690 -1.0950  1.1821
  722SOL    MW4 2656   0.660   1.079   0.726  0.2023  0.2600  0.4439
  723SOL     OW 2657   1.162   4.381   5.487 -0.3974 -0.2532  0.3175
  723SOL    HW2 2658   1.087   4.409   5.539 -1.0035 -0.2545 -0.5285
  723SOL    HW3 2659   1.130   4.384   5.397  0.9060  0.6584 -0.1357
  723SOL    MW4 2660   1.148   4.385   5.482 -0.0913 -0.3503 -0.1907
  724SOL     OW 2661   3.741   1.282   0.656  0.3101 -0.2385  0.0297
  724SOL    HW2 2662   3.681   1.289   0.581  0.7570  0.0634 -0.3067
  724SOL    HW3 2663   3.699   1.220   0.715 -1.3059  1.4059  0.7140
  724SOL    MW4 2664   3.727   1.275   0.654 -0.0727 -0.0211 -0.3085
  725SOL     OW 2665   4.959   2.550   2.476  0.3622 -0.1916 -0.2153
  725SOL    HW2 2666   5.006   2.610   2.533 -0.6039  2.4337 -1.9523
  725SOL    HW3 2667   4.974   2.584   2.388 -2.9922 -0.4328 -1.0236
  725SOL    MW4 2668   4.967   2.562   2.472  0.2076  0.1658 -1.0490
  726SOL     OW 2669   4.892   4.232   2.271 -0.3537  0.6991 -0.6404
  726SOL    HW2 2670   4.836   4.305   2.244 -1.0594  0.7715  0.8984
  726SOL    HW3 2671   4.916   4.253   2.361  0.5385 -0.3218 -0.6214
  726SOL    MW4 2672   4.888   4.244   2.280 -0.4110 -0.3277 -0.0754
  727SOL     OW 2673   0.745   2.566   0.699  0.1469 -0.5063 -0.3351
  727SOL    HW2 2674   0.768   2.599   0.612 -0.1446  0.5510 -0.0241
  727SOL    HW3 2675   0.817   2.594   0.755 -0.0950 -0.3978 -0.0721
  727SOL    MW4 2676   0.757   2.574   0.695  0.3720  0.2913 -0.1270
  728SOL     OW 2677   6.285   2.393   4.502  0.3440  0.0836 -0.4333
  728SOL    HW2 2678   6.312   2.440   4.423 -2.2441  1.1807 -0.7608
  728SOL    HW3 2679   6.253   2.461   4.561  0.4040 -0.9094  0.7820
  728SOL    MW4 2680   6.285   2.408   4.500 -0.4908 -0.1668 -0.0622
  729SOL     OW 2681   0.444   3.028   0.234  0.0276  0.1192  0.1451
  729SOL    HW2 2682   0.433   3.073   0.318  0.8507  1.2770 -0.3345
  729SOL    HW3 2683   0.489   2.947   0.255  1.9320  1.2479  0.6498
  729SOL    MW4 2684   0.449   3.023   0.247  0.0397  0.5848  0.3410
  730SOL     OW 2685   4.094   6.115   2.546 -0.5389  1.0634  0.4648
  730SOL    HW2 2686   4.135   6.130   2.631 -0.7826 -0.5349  0.9023
  730SOL    HW3 2687   4.028   6.048   2.563 -0.0426  0.1029 -1.1202
  730SOL    MW4 2688   4.091   6.108   2.559 -0.1073 -0.0515 -0.7040
  731SOL     OW 2689   1.691   3.476   0.386  0.0940 -0.2578  0.1329
  731SOL    HW2 2690   1.743   3.396   0.393  0.1187 -0.2452  0.0960
  731SOL    HW3 2691   1.657   3.491   0.474 -0.9546 -1.0073 -0.1317
  731SOL    MW4 2692   1.693   3.468   0.399 -0.3167  0.1779 -0.1995
  732SOL     OW 2693   4.458   4.510   6.300 -0.0758 -0.3484  0.0745
  732SOL    HW2 2694   4.370   4.490   6.331 -0.3537 -0.4092 -0.7217
  732SOL    HW3 2695   4.496   4.563   6.369 -0.7313 -0.3384  0.4389
  732SOL    MW4 2696   4.451   4.514   6.313  0.3936 -0.4500  0.3163
  733SOL     OW 2697   6.289   4.701   1.286  0.0695 -0.1943  0.4803
  733SOL    HW2 2698   6.368   4.755   1.273 -0.8493  1.1318  0.1846
  733SOL    HW3 2699   6.218   4.765   1.295 -0.9824 -1.3680  0.7090
  733SOL    MW4 2700   6.290   4.717   1.285  0.8061  0.0478 -0.9473
  734SOL     OW 2701   4.736   4.202   0.427 -0.3144 -0.1393 -0.6536
  734SOL    HW2 2702   4.649   4.181   0.394 -0.4798 -0.3650 -0.0890
  734SOL    HW3 2703   4.722   4.225   0.519  0.0952  0.7474 -0.7970
  734SOL    MW4 2704   4.723   4.202   0.435 -0.4964 -0.2493  0.2486
  735SOL     OW 2705   6.110   5.072   4.175 -0.6490  0.4527 -0.3444
  735SOL    HW2 2706   6.034   5.024   4.141 -0.5025 -0.2512  0.2886
  735SOL    HW3 2707   6.074   5.132   4.240 -0.5663 -0.6954  0.8020
  735SOL    MW4 2708   6.095   5.074   4.179  0.1707  0.0679  0.5016
  736SOL     OW 2709   3.767   3.231   1.381 -0.3376 -0.3303 -0.4852
  736SOL    HW2 2710   3.809   3.300   1.330  0.6023 -0.5290  0.0003
  736SOL    HW3 2711   3.673   3.244   1.367 -0.1601  0.8639 -0.6303
  736SOL    MW4 2712   3.760   3.241   1.372 -0.0166 -0.3602  0.0643
  737SOL     OW 2713   1.765   2.522   5.613  0.6639  0.3373  0.1871
  737SOL    HW2 2714   1.702   2.450   5.600 -0.8668  1.2256  2.0132
  737SOL    HW3 2715   1.851   2.481   5.602 -0.1747 -1.5650  0.2399
  737SOL    MW4 2716   1.768   2.507   5.610  1.2170 -0.0908  0.4114
  738SOL     OW 2717   5.536   0.684   2.963  0.1825 -0.1614 -0.5597
  738SOL    HW2 2718   5.607   0.631   3.000  0.4252  0.6588  0.2006
  738SOL    HW3 2719   5.563   0.775   2.980  0.3376  0.2859 -2.8198
  738SOL    MW4 2720   5.549   0.689   2.970  0.3245 -0.5409 -0.4510
  739SOL     OW 2721   3.620   2.671   4.440 -0.3692 -0.2500  0.2394
  739SOL    HW2 2722   3.714   2.689   4.434 -0.8324  3.4253  1.3636
  739SOL    HW3 2723   3.582   2.721   4.367 -1.5134 -1.0035  0.2979
  739SOL    MW4 2724   3.628   2.680   4.429  0.3512  0.0047  0.2325
  740SOL     OW 2725   1.367   4.222   0.915  0.2013  0.4439 -0.2378
  740SOL    HW2 2726   1.302   4.278   0.956 -1.2242 -0.9892 -0.4407
  740SOL    HW3 2727   1.413   4.181   0.989 -0.4012  0.0607 -0.0689
  740SOL    MW4 2728   1.365   4.224   0.930 -0.5886  0.2746 -0.3681
  741SOL     OW 2729   2.127   5.542   2.585  0.1783  0.3527  0.7856
  741SOL    HW2 2730   2.085   5.491   2.654 -1.7316  1.6720  0.6723
  741SOL    HW3 2731   2.066   5.614   2.567  0.2351 -0.2776 -2.7298
  741SOL    MW4 2732   2.113   5.545   2.591 -0.3412 -0.6318 -0.1961
  742SOL     OW 2733   1.560   6.352   1.601 -0.1068  0.0810 -0.1067
  742SOL    HW2 2734   1.544   6.306   1.683 -0.8636 -0.0535 -0.3299
  742SOL    HW3 2735   1.633   6.305   1.561 -0.5583 -0.6232 -0.1059
  742SOL    MW4 2736   1.568   6.340   1.606 -0.0718 -0.4546 -0.1129
  743SOL     OW 2737   3.815   1.747   5.662  0.4597  0.4185  0.1843
  743SOL    HW2 2738   3.869   1.764   5.739 -1.6975  3.4061  1.2232
  743SOL    HW3 2739   3.729   1.725   5.699  0.4649 -2.9044 -1.4190
  743SOL    MW4 2740   3.811   1.746   5.677  0.2313 -0.2795  0.3994
  744SOL     OW 2741   2.422   2.277   4.459  0.9324  0.3356 -0.1615
  744SOL    HW2 2742   2.339   2.315   4.487  0.3357 -1.3626  0.5356
  744SOL    HW3 2743   2.467   2.253   4.540  2.1907  1.3603 -0.5279
  744SOL    MW4 2744   2.417   2.279   4.473  0.8321  0.2094  0.3626
  745SOL     OW 2745   0.259   0.854   5.523 -0.6637  0.5526 -0.3725
  745SOL    HW2 2746   0.182   0.891   5.567 -1.9281 -0.6845 -1.4283
  745SOL    HW3 2747   0.239   0.862   5.429  0.4943  0.1724 -0.6704
  745SOL    MW4 2748   0.246   0.860   5.516 -0.1226  0.0986 -0.0105
  746SOL     OW 2749   4.293   6.057   4.268 -0.0660 -0.1032 -0.2362
  746SOL    HW2 2750   4.252   6.062   4.354 -0.3580  1.0563 -0.4308
  746SOL    HW3 2751   4.230   6.010   4.214  0.1690 -0.9406  0.1954
  746SOL    MW4 2752   4.280   6.052   4.272  0.1410 -0.3349 -0.3906
  747SOL     OW 2753   3.836   1.852   1.569 -0.4112 -0.2357  0.1266
  747SOL    HW2 2754   3.921   1.891   1.554 -0.6294 -0.3494 -1.6066
  747SOL    HW3 2755   3.855   1.768   1.612  0.1351  1.0106  2.4762
  747SOL    MW4 2756   3.849   1.846   1.573  0.3591  0.0632  0.4099
  748SOL     OW 2757   4.470   2.612   2.592 -0.2107 -0.2467 -0.2403
  748SOL    HW2 2758   4.449   2.662   2.513  0.0393 -0.7467 -0.6289
  748SOL    HW3 2759   4.564   2.595   2.585 -0.0253  0.3711  0.5563
  748SOL    MW4 2760   4.480   2.616   2.581 -0.2212 -0.1856 -0.2502
  749SOL     OW 2761   0.208   4.773   0.744 -0.4880  0.3934  0.3948
  749SOL    HW2 2762   0.142   4.736   0.802  0.1872 -0.2929  0.7591
  749SOL    HW3 2763   0.266   4.823   0.802 -0.1657  0.2210  0.2232
  749SOL    MW4 2764   0.207   4.774   0.759  0.3983 -0.2622 -0.6847
  750SOL     OW 2765   4.627   0.037   5.614  0.7240 -0.4412  0.4136
  750SOL    HW2 2766   4.558   0.101   5.628  1.2245  0.0988  0.4453
  750SOL    HW3 2767   4.666   0.024   5.700  0.7738 -0.6176  0.3660
  750SOL    MW4 2768   4.623   0.044   5.627  0.1057  0.2374 -0.2373
  751SOL     OW 2769   1.388   4.937   3.693  0.3490  0.1289 -0.1814
  751SOL    HW2 2770   1.460   4.996   3.669  1.2781 -1.7137 -2.2753
  751SOL    HW3 2771   1.418   4.893   3.773 -0.2349  2.1576  1.2407
  751SOL    MW4 2772   1.401   4.939   3.701 -0.3904  0.1646  0.1191
  752SOL     OW 2773   2.697   4.770   1.384  0.3072  0.1430  0.2448
  752SOL    HW2 2774   2.750   4.838   1.427  2.6081 -1.6554  0.4610
  752SOL    HW3 2775   2.653   4.725   1.456  0.3115  0.1884  0.2756
  752SOL    MW4 2776   2.698   4.773   1.399 -0.2238 -0.0433  0.0825
  753SOL     OW 2777   1.943   5.603   2.937 -0.1677 -0.0233 -0.3081
  753SOL    HW2 2778   1.922   5.601   3.030 -0.9926 -0.4645 -0.4836
  753SOL    HW3 2779   1.862   5.574   2.894  0.5559 -0.9898 -1.0945
  753SOL    MW4 2780   1.929   5.599   2.943  0.1801  0.1322 -0.0285
  754SOL     OW 2781   3.072   4.305   3.070  0.3568 -0.0581 -0.8553
  754SOL    HW2 2782   2.990   4.259   3.090 -0.1068 -0.0512 -2.5859
  754SOL    HW3 2783   3.057   4.395   3.100  0.7507 -0.6568  1.2699
  754SOL    MW4 2784   3.059   4.311   3.077  0.6556 -0.0104  0.2260
  755SOL     OW 2785   6.420   5.956   3.771 -0.2297  0.1268 -0.0467
  755SOL    HW2 2786   6.368   5.897   3.826 -1.5399  1.8346  0.6129
  755SOL    HW3 2787   6.508   5.951   3.807  0.3305 -3.1519 -1.4464
  755SOL    MW4 2788   6.425   5.947   3.783 -0.1101  0.2102 -0.6298
  756SOL     OW 2789   3.812   4.540   6.291 -0.3160  0.4641  0.1157
  756SOL    HW2 2790   3.839   4.449   6.285 -2.2513 -0.1729  0.3601
  756SOL    HW3 2791   3.858   4.584   6.220  0.5209 -0.7256 -0.1039
  756SOL    MW4 2792   3.822   4.534   6.281  0.0762 -0.3952 -0.3089
  757SOL     OW 2793   3.638   0.606   6.162  0.9231  0.1741 -0.2666
  757SOL    HW2 2794   3.717   0.568   6.125  1.6411  1.9865 -0.7123
  757SOL    HW3 2795   3.662   0.698   6.180 -1.3641  1.0597 -1.3927
  757SOL    MW4 2796   3.652   0.613   6.160  0.8070 -0.5925 -0.2600
  758SOL     OW 2797   5.098   0.711   3.007  0.1633 -0.1419  0.2389
  758SOL    HW2 2798   5.072   0.649   2.940  0.9073  1.2017 -1.3822
  758SOL    HW3 2799   5.186   0.683   3.033  0.2734 -0.0987 -0.0831
  758SOL    MW4 2800   5.106   0.699   3.002 -0.3454 -0.6921 -0.2473
  759SOL     OW 2801   5.050   0.426   5.901  0.1863 -0.1550  0.6170
  759SOL    HW2 2802   5.098   0.503   5.868 -0.0174  0.2784  1.3056
  759SOL    HW3 2803   5.057   0.362   5.831  0.5622  0.4116  0.1220
  759SOL    MW4 2804   5.058   0.428   5.888 -0.2258  0.3000  0.1187
  760SOL     OW 2805   1.857   5.841   5.283  0.1459  0.0734  0.4724
  760SOL    HW2 2806   1.929   5.781   5.300 -0.7588 -0.5933  2.2987
  760SOL    HW3 2807   1.779   5.786   5.283 -0.4181  0.8211 -1.1048
  760SOL    MW4 2808   1.856   5.826   5.285  0.0976  0.2715 -0.3372
  761SOL     OW 2809   4.035   4.699   4.184 -0.3311  0.2015  0.2443
  761SOL    HW2 2810   4.049   4.698   4.278 -1.7849 -3.2359  0.5732
  761SOL    HW3 2811   4.108   4.647   4.149 -1.2521 -0.8322 -0.1888
  761SOL    MW4 2812   4.047   4.692   4.192  0.1503 -0.4081  0.6824
  762SOL     OW 2813   0.044   5.381   4.407 -0.5018  0.8180  0.6330
  762SOL    HW2 2814   0.135   5.359   4.424 -1.0030  0.4554  3.3660
  762SOL    HW3 2815   0.040   5.397   4.313  2.1139 -0.2844  0.2472
  762SOL    MW4 2816   0.055   5.380   4.397 -0.3311 -0.0125 -0.2122
  763SOL     OW 2817   4.585   5.840   5.187 -1.1892  0.0662 -0.2039
  763SOL    HW2 2818   4.581   5.749   5.159 -0.6498 -0.5434  1.5818
  763SOL    HW3 2819   4.494   5.867   5.195 -1.3812 -0.7937  0.6538
  763SOL    MW4 2820   4.573   5.832   5.184  0.1280 -0.3639  0.3440
  764SOL     OW 2821   5.257   4.891   0.548  0.0150 -0.5275  0.4177
  764SOL    HW2 2822   5.325   4.919   0.487  0.8195 -2.3094  0.4414
  764SOL    HW3 2823   5.175   4.914   0.505  0.5556 -1.9059 -1.4401
  764SOL    MW4 2824   5.256   4.898   0.534 -0.2864  0.8585  0.6990
  765SOL     OW 2825   5.584   4.388   5.736 -0.4186  0.0971  0.4978
  765SOL    HW2 2826   5.589   4.392   5.641 -1.2001  1.3169  0.4944
  765SOL    HW3 2827   5.656   4.443   5.766 -1.0202  0.8281  0.6015
  765SOL    MW4 2828   5.594   4.395   5.728  1.0699  0.1629  0.3796
  766SOL     OW 2829   0.141   0.801   2.948 -0.1498  0.5333 -0.1375
  766SOL    HW2 2830   0.171   0.714   2.975  0.2167 -0.0141 -2.1830
  766SOL    HW3 2831   0.046   0.793   2.943 -0.2828  0.8007  1.3942
  766SOL    MW4 2832   0.132   0.788   2.951  0.1115  0.9043 -0.0096
  767SOL     OW 2833   4.743   0.923   3.276 -0.2152  0.1408 -0.4407
  767SOL    HW2 2834   4.812   0.861   3.251  1.0932  1.2466  0.2823
  767SOL    HW3 2835   4.678   0.917   3.206 -0.3413 -2.3261 -0.1975
  767SOL    MW4 2836   4.744   0.914   3.263 -0.0866  0.2117 -0.1572
  768SOL     OW 2837   5.691   0.576   1.160  0.8349 -0.0727 -0.4191
  768SOL    HW2 2838   5.608   0.592   1.114  0.5444  0.0840  0.1394
  768SOL    HW3 2839   5.705   0.482   1.153 -0.0940 -0.3240  0.6093
  768SOL    MW4 2840   5.682   0.566   1.153 -0.2437 -0.4119  0.1444
  769SOL     OW 2841   3.305   1.163   0.144 -0.9681  0.1490  0.1248
  769SOL    HW2 2842   3.372   1.225   0.173  0.0446 -1.0430  0.4225
  769SOL    HW3 2843   3.250   1.214   0.083 -0.0813  1.2775  0.2243
  769SOL    MW4 2844   3.307   1.178   0.140 -0.5029 -0.0009 -0.0562
  770SOL     OW 2845   1.535   3.298   1.518 -0.0130  0.2182  0.3932
  770SOL    HW2 2846   1.450   3.301   1.474 -0.0002  2.4330  0.4232
  770SOL    HW3 2847   1.517   3.329   1.607  0.5600 -0.9738  0.9526
  770SOL    MW4 2848   1.521   3.302   1.524 -0.4139 -0.0507  0.3138
  771SOL     OW 2849   1.759   4.532   2.475  0.0194  0.3512  0.5467
  771SOL    HW2 2850   1.737   4.447   2.512 -0.3818  0.5244  0.7061
  771SOL    HW3 2851   1.831   4.564   2.530 -0.2226  0.3741  0.8493
  771SOL    MW4 2852   1.766   4.525   2.487 -0.1695 -0.3514 -0.5424
  772SOL     OW 2853   1.344   3.135   0.736  0.0329  0.2545  0.4619
  772SOL    HW2 2854   1.344   3.050   0.691  2.2876  1.3442 -1.8095
  772SOL    HW3 2855   1.318   3.198   0.669  0.8037  1.6430  1.4248
  772SOL    MW4 2856   1.341   3.132   0.721 -0.2629 -0.5175  0.1582
  773SOL     OW 2857   4.511   1.680   4.999  0.3518 -0.3265  0.5267
  773SOL    HW2 2858   4.424   1.721   5.002 -0.5708 -2.1792  0.8102
  773SOL    HW3 2859   4.500   1.606   4.939  1.6854 -0.6929  0.7110
  773SOL    MW4 2860   4.498   1.676   4.992  0.1456  0.0779  0.3619
  774SOL     OW 2861   2.366   3.020   3.366 -0.0518 -0.1932  0.2681
  774SOL    HW2 2862   2.440   2.967   3.397  0.5170  0.9301  0.9236
  774SOL    HW3 2863   2.326   2.968   3.298  1.4119 -0.8160 -0.1623
  774SOL    MW4 2864   2.371   3.006   3.361 -0.5469  0.0463 -0.4214
  775SOL     OW 2865   4.315   0.327   0.456 -0.4002 -0.5502 -0.0163
  775SOL    HW2 2866   4.328   0.410   0.501 -0.3881 -0.1628 -0.7254
  775SOL    HW3 2867   4.283   0.268   0.525 -0.8017  0.1451  0.4115
  775SOL    MW4 2868   4.312   0.330   0.471  0.0417 -0.0034  0.0528
  776SOL     OW 2869   3.961   3.601   4.469  0.8941 -0.1853  0.4548
  776SOL    HW2 2870   4.014   3.625   4.545 -0.1190  0.2311  1.0513
  776SOL    HW3 2871   3.915   3.522   4.496  2.2386 -1.3661 -0.5680
  776SOL    MW4 2872   3.962   3.594   4.483  0.2803 -0.6789 -0.0687
  777SOL     OW 2873   1.623   5.291   0.714  0.7246 -0.3796  0.5584
  777SOL    HW2 2874   1.672   5.353   0.770 -0.8089  0.6942  0.7881
  777SOL    HW3 2875   1.598   5.221   0.774  0.4245 -0.0112  0.8757
  777SOL    MW4 2876   1.626   5.290   0.729 -0.6440 -0.2259 -0.2822
  778SOL     OW 2877   3.501   2.877   6.151 -0.8348 -0.0175  0.0343
  778SOL    HW2 2878   3.490   2.922   6.235  0.8242  1.8319 -0.6718
  778SOL    HW3 2879   3.563   2.806   6.171 -0.6823  0.2205  0.4263
  778SOL    MW4 2880   3.508   2.874   6.165 -0.0272 -0.1665 -0.1708
  779SOL     OW 2881   0.509   2.832   0.771  0.0757 -0.8107 -0.5915
  779SOL    HW2 2882   0.548   2.832   0.683  0.9996 -0.1536 -0.2015
  779SOL    HW3 2883   0.466   2.918   0.777  1.3597 -0.1980  0.1538
  779SOL    MW4 2884   0.508   2.844   0.760  0.4326  0.5901 -0.2340
  780SOL     OW 2885   4.636   5.365   0.809  0.4467  0.2279  0.0434
  780SOL    HW2 2886   4.678   5.420   0.743 -1.1867  0.1806 -1.0775
  780SOL    HW3 2887   4.600   5.291   0.760  1.8450 -1.4481  1.4053
  780SOL    MW4 2888   4.637   5.362   0.794 -0.3710 -0.1835 -0.1141
  781SOL     OW 2889   4.682   6.302   6.264 -0.5869  0.3631 -0.0547
  781SOL    HW2 2890   4.750   6.314   6.330  0.4827 -0.9190 -0.8733
  781SOL    HW3 2891   4.604   6.277   6.314 -0.5983  2.2582  0.9262
  781SOL    MW4 2892   4.680   6.300   6.279  0.5660 -0.1471 -0.2156
  782SOL     OW 2893   3.265   1.542   6.237 -0.1226 -0.0079 -0.1007
  782SOL    HW2 2894   3.187   1.496   6.204  0.8534 -1.8276 -0.0229
  782SOL    HW3 2895   3.281   1.501   6.322  0.7584  0.5412 -0.0026
  782SOL    MW4 2896   3.257   1.530   6.244  0.4102  0.5411  0.1723
  783SOL     OW 2897   2.183   4.844   2.654  0.0058 -0.0709 -0.0573
  783SOL    HW2 2898   2.237   4.853   2.732 -0.7738 -0.2853  0.5192
  783SOL    HW3 2899   2.240   4.801   2.590  0.9098  0.8488  0.1057
  783SOL    MW4 2900   2.197   4.839   2.656  0.5609  0.1538 -0.1576
  784SOL     OW 2901   1.914   5.235   2.320  0.1993 -0.1875  0.1627
  784SOL    HW2 2902   1.955   5.190   2.394  1.3261 -0.0234 -0.3456
  784SOL    HW3 2903   1.987   5.268   2.269 -0.5781  0.0912 -0.7909
  784SOL    MW4 2904   1.929   5.233   2.323 -0.3396  0.4867 -0.0319
  785SOL     OW 2905   4.840   3.065   4.894  0.0901  0.1362 -0.2477
  785SOL    HW2 2906   4.899   3.071   4.969 -2.0619  2.1050  1.4584
  785SOL    HW3 2907   4.842   3.153   4.856 -2.9029  0.7985  0.9062
  785SOL    MW4 2908   4.848   3.078   4.899  0.2192  0.4327  0.1351
  786SOL     OW 2909   2.564   6.168   6.163  0.1574  0.6522  0.0428
  786SOL    HW2 2910   2.620   6.219   6.105 -0.2662  0.7149 -0.3222
  786SOL    HW3 2911   2.624   6.123   6.222  0.9108 -2.3900 -2.7749
  786SOL    MW4 2912   2.579   6.169   6.163  0.7660 -0.0374  0.5634
  787SOL     OW 2913   3.627   1.608   1.173 -0.2377  0.0876  0.3786
  787SOL    HW2 2914   3.640   1.527   1.124 -0.6159 -0.2319  0.7987
  787SOL    HW3 2915   3.657   1.587   1.262  2.1180  1.1677 -0.0713
  787SOL    MW4 2916   3.633   1.595   1.178 -0.2115 -0.2779 -0.4597
  788SOL     OW 2917   0.350   5.225   3.781 -0.1433  0.0836 -0.2595
  788SOL    HW2 2918   0.350   5.224   3.877 -1.7524 -0.4487 -0.2406
  788SOL    HW3 2919   0.298   5.303   3.758  0.3905  0.3131 -0.7030
  788SOL    MW4 2920   0.343   5.235   3.790 -0.5888  0.9016  0.2045
  789SOL     OW 2921   5.956   3.296   5.308 -0.1454 -0.1205 -0.4201
  789SOL    HW2 2922   5.992   3.261   5.390 -0.3382 -0.4919 -0.4960
  789SOL    HW3 2923   5.988   3.386   5.305  0.3279 -0.2790 -0.2138
  789SOL    MW4 2924   5.965   3.303   5.319 -0.0678 -0.0507 -0.1957
  790SOL     OW 2925   2.124   4.697   6.234 -0.3268  0.2898 -0.4329
  790SOL    HW2 2926   2.136   4.782   6.275  0.6128 -1.1799  2.6028
  790SOL    HW3 2927   2.209   4.653   6.245 -1.1477 -1.4759 -0.8112
  790SOL    MW4 2928   2.137   4.702   6.241  0.3598 -0.1632 -0.3686
  791SOL     OW 2929   2.375   5.098   0.198 -0.0451  0.0159 -0.5578
  791SOL    HW2 2930   2.321   5.169   0.234  1.2592 -0.3458  2.3910
  791SOL    HW3 2931   2.314   5.025   0.190 -0.1956 -0.3659  2.6431
  791SOL    MW4 2932   2.360   5.098   0.202  0.1124 -0.1725 -0.1479
  792SOL     OW 2933   2.593   5.453   5.617  0.2096  0.4775 -0.1127
  792SOL    HW2 2934   2.650   5.478   5.690 -1.0940  0.6010  0.8831
  792SOL    HW3 2935   2.565   5.364   5.638 -0.8757  0.8397 -0.0018
  792SOL    MW4 2936   2.597   5.445   5.629 -0.3894 -0.5849  0.2707
  793SOL     OW 2937   3.887   6.266   4.128  0.3499  0.5018 -0.0829
  793SOL    HW2 2938   3.815   6.288   4.187  1.6541  0.0635  1.7605
  793SOL    HW3 2939   3.894   6.341   4.069 -2.3130  0.0487 -1.0908
  793SOL    MW4 2940   3.879   6.279   4.128 -0.0636  0.3235  0.1565
  794SOL     OW 2941   3.229   4.239   2.483  0.0742 -0.4243  0.6535
  794SOL    HW2 2942   3.160   4.269   2.542  0.1720  2.2039 -0.4264
  794SOL    HW3 2943   3.182   4.207   2.405  0.0206  0.5227  0.2836
  794SOL    MW4 2944   3.214   4.238   2.480  0.2201  0.2403 -0.3322
  795SOL     OW 2945   6.026   3.151   4.384  0.2946 -0.3843 -0.0603
  795SOL    HW2 2946   6.084   3.079   4.360 -1.2656 -2.1395  1.1243
  795SOL    HW3 2947   5.972   3.165   4.306  0.6697 -0.4317 -0.3304
  795SOL    MW4 2948   6.026   3.143   4.371 -0.0769 -0.2480  0.1877
  796SOL     OW 2949   0.179   0.409   3.982 -0.4869 -0.3598 -0.3004
  796SOL    HW2 2950   0.164   0.315   3.981  1.5995 -0.7846  1.1291
  796SOL    HW3 2951   0.202   0.429   4.073  0.4761  1.2635 -0.8510
  796SOL    MW4 2952   0.180   0.399   3.994 -0.3193 -0.0989 -1.0300
  797SOL     OW 2953   5.286   3.663   0.871  0.0749 -0.4850  0.3711
  797SOL    HW2 2954   5.322   3.709   0.947  0.4555  1.8982 -1.1233
  797SOL    HW3 2955   5.326   3.576   0.874  0.5256 -0.2547  2.5473
  797SOL    MW4 2956   5.296   3.658   0.881 -0.1810  0.3150  0.0001
  798SOL     OW 2957   3.707   5.643   2.520  0.0779 -0.1960 -0.1010
  798SOL    HW2 2958   3.723   5.639   2.426  0.6819 -0.2242  0.0015
  798SOL    HW3 2959   3.621   5.685   2.528  0.7722  1.4156 -0.6085
  798SOL    MW4 2960   3.697   5.648   2.509  0.0514  0.9019  0.3660
  799SOL     OW 2961   0.962   3.144   0.368 -0.5782 -0.0374 -0.3616
  799SOL    HW2 2962   1.006   3.063   0.395 -0.2048  0.2792 -0.0083
  799SOL    HW3 2963   0.878   3.115   0.332 -1.1676 -0.4755  1.2673
  799SOL    MW4 2964   0.957   3.129   0.367 -0.1649  0.1759 -0.4272
  800SOL     OW 2965   1.338   6.425   3.002 -0.1733  0.3611  0.1158
  800SOL    HW2 2966   1.284   6.498   2.975  0.1090  0.5372  0.0188
  800SOL    HW3 2967   1.303   6.399   3.087  0.3771  1.2853  0.6362
  800SOL    MW4 2968   1.327   6.431   3.010 -0.0976  0.2148  0.3098
  801SOL     OW 2969   1.946   3.689   2.130 -0.3223 -0.1547  1.0624
  801SOL    HW2 2970   2.018   3.738   2.089  0.7072 -2.4244 -0.0475
  801SOL    HW3 2971   1.960   3.700   2.224  0.0159  1.4153  0.8589
  801SOL    MW4 2972   1.957   3.697   2.137 -0.1642 -0.0758 -0.1259
  802SOL     OW 2973   0.730   5.377   2.559  0.3520 -0.2571 -0.1008
  802SOL    HW2 2974   0.774   5.444   2.506 -1.9264  0.9702 -0.6131
  802SOL    HW3 2975   0.796   5.347   2.620  1.2199  3.4594  1.0459
  802SOL    MW4 2976   0.744   5.382   2.560  0.1323  0.0388 -0.3935
  803SOL     OW 2977   4.594   5.051   0.158 -0.3831  0.8308  0.0442
  803SOL    HW2 2978   4.525   4.986   0.169  1.3512 -1.0068  0.5848
  803SOL    HW3 2979   4.618   5.045   0.065 -0.8559  1.3713 -0.1134
  803SOL    MW4 2980   4.588   5.042   0.147 -0.1679  0.4258  0.4956
  804SOL     OW 2981   0.957   6.397   0.013 -0.3116  0.6884  0.2567
  804SOL    HW2 2982   0.965   6.302   0.018 -0.5328  0.6772  0.4251
  804SOL    HW3 2983   0.867   6.415   0.043 -0.5569  0.8856 -0.5835
  804SOL    MW4 2984   0.946   6.387   0.018  0.3033 -0.3003  0.0112
  805SOL     OW 2985   0.122   2.897   5.026  0.1872 -0.4134 -0.1438
  805SOL    HW2 2986   0.128   2.951   4.947 -0.5377 -0.6587 -0.3681
  805SOL    HW3 2987   0.171   2.818   5.004  2.7528  0.7821  0.7693
  805SOL    MW4 2988   0.129   2.894   5.013 -0.6038  0.5513 -0.0178
  806SOL     OW 2989   5.776   1.336   3.988 -0.1916 -0.1171  0.3554
  806SOL    HW2 2990   5.729   1.416   4.012 -1.2354 -0.2068 -1.2417
  806SOL    HW3 2991   5.711   1.283   3.943  0.9473 -1.1089 -0.1681
  806SOL    MW4 2992   5.761   1.340   3.985  0.6207  0.1454  0.5231
  807SOL     OW 2993   0.816   3.342   4.444  0.2815  0.1000 -0.2856
  807SOL    HW2 2994   0.725   3.324   4.468  0.0758  0.0218 -1.0846
  807SOL    HW3 2995   0.836   3.277   4.377  1.2122 -0.4379  0.4951
  807SOL    MW4 2996   0.807   3.331   4.438  0.5520  0.0686  0.3673
  808SOL     OW 2997   4.054   2.582   2.402  0.3301 -0.6118 -0.1425
  808SOL    HW2 2998   4.045   2.495   2.440 -1.9035 -0.0771  0.7301
  808SOL    HW3 2999   4.013   2.641   2.465  0.3689  0.8686 -1.4209
  808SOL    MW4 3000   4.047   2.578   2.415 -0.6001 -0.0460  0.0616
  809SOL     OW 3001   6.329   3.290   4.995 -0.1970  0.6380  0.3175
  809SOL    HW2 3002   6.373   3.370   4.968  0.0477  0.2885 -0.3316
  809SOL    HW3 3003   6.259   3.278   4.931  0.9696 -0.7009 -0.7614
  809SOL    MW4 3004   6.325   3.299   4.983 -0.1833 -0.4092 -0.0223
  810SOL     OW 3005   5.133   5.251   6.122 -0.3703 -0.1140  0.2379
  810SOL    HW2 3006   5.182   5.249   6.204 -2.3867  4.9731  1.9918
  810SOL    HW3 3007   5.045   5.220   6.146 -0.8206  0.8512 -0.1279
  810SOL    MW4 3008   5.128   5.246   6.136  0.0632 -0.6928 -0.2207
  811SOL     OW 3009   0.843   0.642   4.198 -0.2607 -0.1318  0.6583
  811SOL    HW2 3010   0.850   0.566   4.256 -1.7461 -0.2740  0.7058
  811SOL    HW3 3011   0.838   0.606   4.110 -0.3680 -0.0564  0.6323
  811SOL    MW4 3012   0.843   0.627   4.194 -0.0844 -0.2019 -0.3240
  812SOL     OW 3013   5.985   3.802   1.014 -0.0605  0.3465  0.0103
  812SOL    HW2 3014   5.911   3.749   0.983  0.6009  0.1153 -1.2420
  812SOL    HW3 3015   6.016   3.848   0.936 -0.6007  2.6112  1.0616
  812SOL    MW4 3016   5.979   3.801   0.999 -0.1299 -0.0292  0.1136
  813SOL     OW 3017   6.390   4.621   6.205  0.4616 -0.5577  0.3055
  813SOL    HW2 3018   6.304   4.613   6.164  0.4603 -3.9032  0.6382
  813SOL    HW3 3019   6.452   4.610   6.132  0.5409 -1.2837  0.4788
  813SOL    MW4 3020   6.387   4.618   6.190 -0.1232 -0.0729 -0.5168
  814SOL     OW 3021   3.335   1.325   3.792 -0.9522 -0.1875  0.3292
  814SOL    HW2 3022   3.286   1.248   3.762  1.0858 -0.9867 -1.2147
  814SOL    HW3 3023   3.268   1.385   3.823 -2.7950 -1.7367 -0.4039
  814SOL    MW4 3024   3.320   1.322   3.792  0.0578 -0.3397 -0.5702
  815SOL     OW 3025   3.824   0.520   5.522 -0.0289  0.9409 -0.0822
  815SOL    HW2 3026   3.909   0.500   5.483 -0.3533 -1.6689  0.3818
  815SOL    HW3 3027   3.845   0.571   5.600  1.0262  1.1514 -0.4827
  815SOL    MW4 3028   3.838   0.524   5.527  0.5562 -0.2081 -0.3981
  816SOL     OW 3029   5.582   2.551   1.222  0.0527  0.2858 -0.4452
  816SOL    HW2 3030   5.615   2.515   1.304  1.1463 -0.4067 -1.1665
  816SOL    HW3 3031   5.488   2.565   1.237  0.5708  2.1284  1.6106
  816SOL    MW4 3032   5.574   2.548   1.235  0.7293 -0.4977  0.4355
  817SOL     OW 3033   3.933   1.082   4.681  0.7497 -0.2289 -0.3242
  817SOL    HW2 3034   3.900   1.133   4.607  0.4656 -0.9521 -0.7180
  817SOL    HW3 3035   4.019   1.051   4.653  0.1478 -1.4972 -0.8669
  817SOL    MW4 3036   3.940   1.084   4.667  0.3799  0.3191 -0.4630
  818SOL     OW 3037   5.311   2.063   5.218 -0.1681 -0.2905 -0.0304
  818SOL    HW2 3038   5.248   2.082   5.148  0.8164  0.7657 -0.6856
  818SOL    HW3 3039   5.354   2.147   5.234  1.0199 -0.9561  0.4274
  818SOL    MW4 3040   5.309   2.077   5.211 -0.2042 -0.2058  0.0302
  819SOL     OW 3041   4.299   3.388   6.310 -0.3529 -1.0334 -0.1640
  819SOL    HW2 3042   4.344   3.452   6.366  1.1136 -0.5929 -1.7381
  819SOL    HW3 3043   4.291   3.310   6.364  0.1582 -0.3362  0.9566
  819SOL    MW4 3044   4.304   3.386   6.324 -0.2073 -0.0630 -0.2502
  820SOL     OW 3045   1.593   3.021   5.072 -0.0637 -0.3774 -0.5389
  820SOL    HW2 3046   1.626   3.004   5.161  0.0009  2.5224  0.1137
  820SOL    HW3 3047   1.655   2.977   5.014  1.1580 -0.5072  0.8115
  820SOL    MW4 3048   1.605   3.013   5.076  0.0625  0.3496  0.0596
  821SOL     OW 3049   5.210   1.842   0.827 -0.3644  0.2775 -0.2539
  821SOL    HW2 3050   5.266   1.907   0.871  0.7998 -0.3650 -0.7578
  821SOL    HW3 3051   5.209   1.870   0.736 -0.3055 -0.1032 -0.3708
  821SOL    MW4 3052   5.218   1.854   0.821  0.0271 -0.2837  0.1605
  822SOL     OW 3053   6.128   6.368   5.566  0.5065  0.0557  0.0803
  822SOL    HW2 3054   6.032   6.363   5.556  0.7109 -1.3299 -1.8585
  822SOL    HW3 3055   6.146   6.461   5.578 -0.9653  0.6203 -1.5973
  822SOL    MW4 3056   6.117   6.380   5.566 -0.3459  0.3185 -0.2341
  823SOL     OW 3057   3.062   3.302   5.209  0.0097 -0.5375  0.3558
  823SOL    HW2 3058   3.137   3.358   5.230  0.7453 -1.1293 -0.6007
  823SOL    HW3 3059   3.091   3.214   5.235  0.2131 -0.9911 -1.3119
  823SOL    MW4 3060   3.076   3.298   5.215 -0.0096 -0.3153 -0.2769
  824SOL     OW 3061   6.024   4.750   1.104 -0.0637 -0.3725  0.4796
  824SOL    HW2 3062   5.983   4.670   1.138 -0.8335  0.4265  1.4810
  824SOL    HW3 3063   5.959   4.788   1.046 -1.8064  2.0046  3.6501
  824SOL    MW4 3064   6.010   4.744   1.101 -0.1675  0.3748 -0.0019
  825SOL     OW 3065   5.424   5.189   6.138  0.5366  0.0769  0.5386
  825SOL    HW2 3066   5.462   5.138   6.066  0.4916 -2.1069  1.9765
  825SOL    HW3 3067   5.331   5.192   6.119  0.6228  0.2271  0.1160
  825SOL    MW4 3068   5.417   5.183   6.126  0.2986  0.3953  0.6387
  826SOL     OW 3069   2.676   5.437   3.003 -0.0577  0.0440 -0.4762
  826SOL    HW2 3070   2.690   5.526   3.034  2.2572 -0.5127  0.3587
  826SOL    HW3 3071   2.761   5.411   2.966 -0.8028 -1.6583 -1.1097
  826SOL    MW4 3072   2.689   5.445   3.002 -0.4304  0.9083 -0.2043
  827SOL     OW 3073   5.080   0.107   3.138 -0.6327  0.0298 -0.2330
  827SOL    HW2 3074   5.113   0.093   3.050  1.7872 -0.6146  0.6902
  827SOL    HW3 3075   5.099   0.199   3.156 -0.7604  0.0575 -0.2380
  827SOL    MW4 3076   5.087   0.117   3.129 -0.1065 -0.0246  0.3507
  828SOL     OW 3077   0.167   1.343   1.652  0.4902  0.0702  0.4422
  828SOL    HW2 3078   0.151   1.399   1.728  1.2375 -0.1733  0.7931
  828SOL    HW3 3079   0.210   1.400   1.588  0.5633  0.0861  0.5058
  828SOL    MW4 3080   0.171   1.358   1.654  0.4949  0.2254  0.2660
  829SOL     OW 3081   1.151   2.721   3.868  0.8254  0.1633  0.6644
  829SOL    HW2 3082   1.158   2.767   3.784  1.3330 -1.1733 -0.0546
  829SOL    HW3 3083   1.072   2.758   3.909  0.7544  1.0628 -0.2445
  829SOL    MW4 3084   1.142   2.732   3.862  0.0619  0.6685  0.2168
  830SOL     OW 3085   0.471   1.048   3.886 -0.1903 -0.1548  0.1708
  830SOL    HW2 3086   0.382   1.046   3.851 -0.1302  0.0382  0.0044
  830SOL    HW3 3087   0.524   1.083   3.814  0.1614 -1.0987 -0.0464
  830SOL    MW4 3088   0.466   1.052   3.872 -0.2046 -0.0134 -0.2526
  831SOL     OW 3089   3.389   5.000   4.201 -0.7365  0.4233 -0.5399
  831SOL    HW2 3090   3.430   5.046   4.274 -0.2069 -0.9647  0.0795
  831SOL    HW3 3091   3.462   4.967   4.149 -1.0135 -1.4323  0.1562
  831SOL    MW4 3092   3.404   5.002   4.204 -0.0940 -0.6333 -0.2966
  832SOL     OW 3093   0.260   1.125   0.555  0.0318 -0.1129  0.7116
  832SOL    HW2 3094   0.282   1.040   0.518 -0.8643 -0.3782  0.7557
  832SOL    HW3 3095   0.205   1.105   0.631  0.5951  0.4737  1.2868
  832SOL    MW4 3096   0.256   1.111   0.561 -0.1789  0.3928 -0.8524
  833SOL     OW 3097   4.243   1.100   5.359 -0.2872 -0.0351  0.2978
  833SOL    HW2 3098   4.267   1.181   5.403 -3.1606  0.0787  1.8879
  833SOL    HW3 3099   4.201   1.127   5.278  1.0780 -0.0979 -0.4672
  833SOL    MW4 3100   4.241   1.114   5.355 -1.2591 -0.2505 -0.5164
  834SOL     OW 3101   4.462   1.900   3.210  0.2262 -0.1287 -0.2123
  834SOL    HW2 3102   4.482   1.989   3.239 -0.5750  0.5898 -1.7517
  834SOL    HW3 3103   4.379   1.880   3.253  1.9967 -1.5474  2.9098
  834SOL    MW4 3104   4.454   1.909   3.219  0.1282  0.0432  0.1835
  835SOL     OW 3105   4.609   3.127   4.055  0.2548 -0.1428 -0.1127
  835SOL    HW2 3106   4.660   3.137   3.975 -0.8323 -1.9025 -1.0820
  835SOL    HW3 3107   4.667   3.083   4.117  0.7926  0.4046 -0.2166
  835SOL    MW4 3108   4.623   3.123   4.053 -0.0363 -0.2787 -0.2195
  836SOL     OW 3109   3.319   4.487   6.387  0.2565 -0.5436  0.2919
  836SOL    HW2 3110   3.356   4.432   6.319  0.4650  1.5457 -1.3896
  836SOL    HW3 3111   3.349   4.575   6.366 -0.9143  0.4016  2.2500
  836SOL    MW4 3112   3.328   4.491   6.375  0.4676 -0.6401 -0.4048
  837SOL     OW 3113   4.190   1.117   2.416  0.4030 -0.1613  0.2160
  837SOL    HW2 3114   4.141   1.035   2.408 -2.2212  1.0536  2.4544
  837SOL    HW3 3115   4.204   1.128   2.511  0.0781  2.2894  0.0412
  837SOL    MW4 3116   4.185   1.107   2.428 -0.7341  0.1076 -0.5044
  838SOL     OW 3117   5.797   5.455   4.303 -0.1106  0.3873 -0.2262
  838SOL    HW2 3118   5.728   5.435   4.366  0.1660 -0.3834 -0.1642
  838SOL    HW3 3119   5.804   5.551   4.305 -0.7316  0.4292  0.2339
  838SOL    MW4 3120   5.788   5.465   4.312  0.6001  0.1097 -0.2033
  839SOL     OW 3121   0.307   5.610   1.807  1.0869  0.7247 -0.1674
  839SOL    HW2 3122   0.336   5.539   1.864  1.2707 -0.9747 -2.2466
  839SOL    HW3 3123   0.335   5.583   1.719 -0.5480  2.4510 -1.2974
  839SOL    MW4 3124   0.315   5.597   1.803 -0.1502 -0.5232 -0.4076
  840SOL     OW 3125   4.868   2.050   2.767  0.2522 -0.0174 -0.5198
  840SOL    HW2 3126   4.824   2.099   2.837  0.2157  0.1000 -0.6246
  840SOL    HW3 3127   4.921   1.984   2.813  0.6954  0.4463 -0.3583
  840SOL    MW4 3128   4.869   2.048   2.783 -0.1504 -0.1835 -0.6536
  841SOL     OW 3129   0.996   2.435   0.115  0.0559 -0.3357  0.0521
  841SOL    HW2 3130   0.914   2.468   0.151  0.1357 -1.4054  1.2957
  841SOL    HW3 3131   1.000   2.472   0.026 -1.4007  0.3174  0.2290
  841SOL    MW4 3132   0.986   2.444   0.108  0.3486 -0.5450 -0.4854
  842SOL     OW 3133   5.544   3.326   0.636  0.3622  0.7727  0.3219
  842SOL    HW2 3134   5.478   3.257   0.625 -0.3149  1.0195  2.3905
  842SOL    HW3 3135   5.625   3.278   0.654 -0.1669  0.4295  2.0843
  842SOL    MW4 3136   5.546   3.310   0.637 -0.5122  0.4150 -0.1048
  843SOL     OW 3137   0.148   2.162   5.750  0.0740  0.0893 -0.0611
  843SOL    HW2 3138   0.183   2.203   5.830 -0.1068 -1.6361  0.9465
  843SOL    HW3 3139   0.209   2.092   5.729  0.1967  0.6165 -1.5606
  843SOL    MW4 3140   0.160   2.158   5.758  0.4850  0.5022  0.0172
  844SOL     OW 3141   0.140   5.891   0.912  0.1224 -0.2214 -0.6580
  844SOL    HW2 3142   0.137   5.986   0.902 -1.2000 -0.2075 -0.4010
  844SOL    HW3 3143   0.128   5.858   0.823 -0.1996 -0.1369 -0.6488
  844SOL    MW4 3144   0.138   5.899   0.899 -0.5751 -0.0844  0.0319
  845SOL     OW 3145   0.395   4.023   3.248  0.1688 -0.0170  0.4039
  845SOL    HW2 3146   0.470   3.985   3.202 -0.2102 -0.6368  0.2830
  845SOL    HW3 3147   0.331   3.951   3.253 -1.1763  0.9901 -1.1938
  845SOL    MW4 3148   0.396   4.008   3.242  0.0585  0.3571  0.1501
  846SOL     OW 3149   3.310   4.391   2.208  0.2509 -0.1735  0.1646
  846SOL    HW2 3150   3.383   4.452   2.213  0.4652 -0.4934  1.1648
  846SOL    HW3 3151   3.241   4.431   2.260  0.3015 -0.6530  0.6089
  846SOL    MW4 3152   3.310   4.404   2.215  0.6336 -0.1152  0.1963
  847SOL     OW 3153   1.429   6.012   5.770 -0.3760  0.1385  0.3597
  847SOL    HW2 3154   1.372   5.992   5.844 -1.6767 -1.6739 -1.0163
  847SOL    HW3 3155   1.389   5.964   5.696  2.5844 -0.7094 -0.8318
  847SOL    MW4 3156   1.416   6.003   5.770  0.3696  1.0289 -0.7077
  848SOL     OW 3157   1.762   1.525   5.367  0.1625  0.2873 -0.3516
  848SOL    HW2 3158   1.734   1.559   5.452  0.8777  0.6635 -0.2639
  848SOL    HW3 3159   1.703   1.567   5.304  0.0211  0.4691 -0.0995
  848SOL    MW4 3160   1.751   1.535   5.370 -0.3847  0.4250  0.3789
  849SOL     OW 3161   5.110   0.759   4.083 -0.6894  0.0433  0.0463
  849SOL    HW2 3162   5.128   0.790   4.172  1.2271  0.5587 -0.4606
  849SOL    HW3 3163   5.019   0.784   4.066 -0.5602  1.4721  1.2627
  849SOL    MW4 3164   5.101   0.766   4.092 -0.0447 -0.1699  0.1006
  850SOL     OW 3165   2.550   1.679   3.464  0.1132 -0.1585  0.6524
  850SOL    HW2 3166   2.543   1.638   3.378  2.3606 -0.5570  0.5997
  850SOL    HW3 3167   2.633   1.726   3.462 -0.9372  1.9069  1.7832
  850SOL    MW4 3168   2.560   1.680   3.453  0.2047  0.0180  0.3583
  851SOL     OW 3169   2.383   4.285   4.278  0.1521  0.3707 -0.5356
  851SOL    HW2 3170   2.294   4.251   4.275  1.3336 -3.0596 -2.0570
  851SOL    HW3 3171   2.412   4.287   4.187  2.5674 -1.6913  0.0606
  851SOL    MW4 3172   2.375   4.281   4.266 -0.0464 -0.1696 -1.0926
  852SOL     OW 3173   5.904   4.566   0.612  0.0031  0.0438  0.3719
  852SOL    HW2 3174   5.954   4.615   0.547 -0.3776 -0.0320  0.0164
  852SOL    HW3 3175   5.949   4.483   0.621  0.6988  0.4715  1.0326
  852SOL    MW4 3176   5.916   4.562   0.605  0.2295  0.4934 -0.2357
  853SOL     OW 3177   1.567   0.878   0.396  0.0029  0.1900  0.2310
  853SOL    HW2 3178   1.659   0.905   0.398  0.4071 -1.1115  0.4209
  853SOL    HW3 3179   1.551   0.857   0.304 -0.3318  1.1152  0.0705
  853SOL    MW4 3180   1.577   0.879   0.384 -0.4645  0.3941  0.6286
  854SOL     OW 3181   6.232   1.992   3.938  0.2161 -0.4795 -0.3820
  854SOL    HW2 3182   6.212   2.082   3.964  2.6596  0.0283  0.0220
  854SOL    HW3 3183   6.196   1.984   3.850 -1.5460  0.2956  0.2266
  854SOL    MW4 3184   6.225   2.003   3.930 -0.0074  0.0533 -0.0213
  855SOL     OW 3185   1.486   3.044   4.485 -0.8001 -0.4434 -0.1828
  855SOL    HW2 3186   1.511   3.117   4.542 -0.3417  0.6899 -1.7490
  855SOL    HW3 3187   1.558   2.982   4.492 -0.4256  0.0007 -0.0135
  855SOL    MW4 3188   1.499   3.046   4.493 -0.3462 -0.0525  0.2793
  856SOL     OW 3189   1.215   5.163   4.894 -0.0548 -0.1884  0.1707
  856SOL    HW2 3190   1.152   5.098   4.923 -0.1298 -1.4271 -2.4870
  856SOL    HW3 3191   1.299   5.117   4.891  0.6839  0.9333  1.8608
  856SOL    MW4 3192   1.218   5.149   4.898  0.3312 -0.3983 -0.3075
  857SOL     OW 3193   5.572   5.717   4.376 -0.2716 -0.0543  0.2070
  857SOL    HW2 3194   5.544   5.761   4.456 -1.5915 -0.4332 -0.0130
  857SOL    HW3 3195   5.521   5.636   4.374  1.1672 -0.9897 -0.0453
  857SOL    MW4 3196   5.561   5.712   4.386  0.1820 -0.1434 -0.5580
  858SOL     OW 3197   1.510   2.354   2.267 -0.1880  0.0563  0.4979
  858SOL    HW2 3198   1.597   2.326   2.240 -0.1585  0.0781  0.5687
  858SOL    HW3 3199   1.450   2.289   2.230 -0.2430  0.6918 -0.5505
  858SOL    MW4 3200   1.513   2.342   2.259  0.1095  0.1371  0.0681
  859SOL     OW 3201   1.412   4.058   5.197  0.3122  0.2639 -0.0356
  859SOL    HW2 3202   1.367   4.141   5.179 -0.6592 -0.6120 -1.9849
  859SOL    HW3 3203   1.505   4.078   5.187  0.1115  1.1858 -0.1437
  859SOL    MW4 3204   1.418   4.071   5.193 -0.0763  0.2221 -0.4473
  860SOL     OW 3205   0.297   4.925   5.641 -0.1184  0.3637  0.1536
  860SOL    HW2 3206   0.366   4.861   5.626 -0.7301 -0.5760  1.1378
  860SOL    HW3 3207   0.306   4.948   5.734  0.5135  2.2364 -0.3450
  860SOL    MW4 3208   0.307   4.919   5.652 -0.1369  0.0916  0.2095
  861SOL     OW 3209   2.577   0.160   4.039 -0.3303 -0.1931  0.1406
  861SOL    HW2 3210   2.649   0.193   3.985  1.7538 -3.1451  0.8130
  861SOL    HW3 3211   2.573   0.066   4.019 -2.0517 -0.6681  2.2846
  861SOL    MW4 3212   2.586   0.152   4.029 -0.0804  0.1989 -0.2084
  862SOL     OW 3213   0.471   5.472   1.243 -0.3007 -0.0936  0.5830
  862SOL    HW2 3214   0.445   5.564   1.248  0.0612  0.0428  0.0611
  862SOL    HW3 3215   0.565   5.473   1.262 -0.3846 -0.4135  1.0406
  862SOL    MW4 3216   0.480   5.484   1.246 -0.0966 -0.1184  0.0825
  863SOL     OW 3217   0.386   5.877   5.919 -0.1530  0.4675 -0.1513
  863SOL    HW2 3218   0.339   5.860   5.837 -1.6568  0.0654  0.7460
  863SOL    HW3 3219   0.323   5.926   5.972  0.9647  1.1210  0.6072
  863SOL    MW4 3220   0.371   5.882   5.915  0.3485 -0.2342 -0.3072
  864SOL     OW 3221   1.643   4.283   5.474  0.1857 -0.5681 -0.2061
  864SOL    HW2 3222   1.563   4.277   5.525 -0.0104  2.3387  0.0342
  864SOL    HW3 3223   1.711   4.304   5.538  0.1779  1.7532 -0.8321
  864SOL    MW4 3224   1.641   4.285   5.489  0.0348  0.2506 -0.1382
  865SOL     OW 3225   2.782   1.739   5.851 -0.1822  0.2613 -0.2479
  865SOL    HW2 3226   2.708   1.796   5.831 -1.1785 -1.3093 -1.3163
  865SOL    HW3 3227   2.857   1.780   5.808 -0.6230  1.3622  0.0162
  865SOL    MW4 3228   2.782   1.752   5.842  0.6441  0.0210  0.0935
  866SOL     OW 3229   4.635   5.199   0.429  0.1238 -0.6543 -0.0802
  866SOL    HW2 3230   4.629   5.146   0.508 -0.7941 -1.3312 -0.6023
  866SOL    HW3 3231   4.607   5.142   0.358  0.6288  0.0433 -0.8640
  866SOL    MW4 3232   4.631   5.185   0.430  0.3698  0.1764  0.4360
  867SOL     OW 3233   2.664   2.750   4.945  0.2945 -0.1027  0.4643
  867SOL    HW2 3234   2.606   2.763   4.870  2.0314  1.5264 -0.6708
  867SOL    HW3 3235   2.611   2.700   5.008 -1.1113 -1.8664 -1.9454
  867SOL    MW4 3236   2.649   2.745   4.943  0.2650 -0.1272  0.5770
  868SOL     OW 3237   6.331   3.304   0.354  0.4630 -0.5835  0.4387
  868SOL    HW2 3238   6.305   3.385   0.398  0.9171  0.0785 -0.4700
  868SOL    HW3 3239   6.402   3.331   0.295  0.0695 -1.4851 -0.4729
  868SOL    MW4 3240   6.337   3.319   0.352 -0.0897  0.6525  0.3152
  869SOL     OW 3241   4.923   1.590   1.065 -0.2920  0.0234  0.0293
  869SOL    HW2 3242   5.000   1.550   1.106  0.0538  0.1633 -0.4838
  869SOL    HW3 3243   4.858   1.520   1.062  0.1064 -0.3352 -0.3121
  869SOL    MW4 3244   4.924   1.576   1.070 -0.0238  0.2194  0.5970
  870SOL     OW 3245   0.079   3.960   6.280 -0.2582 -0.4670  0.3668
  870SOL    HW2 3246   0.091   3.873   6.241 -2.1135 -1.2146  1.3594
  870SOL    HW3 3247   0.108   3.950   6.370 -2.0674 -0.5718  0.9716
  870SOL    MW4 3248   0.084   3.947   6.287 -0.1820  0.0966  0.3734
  871SOL     OW 3249   5.907   1.745   4.669  0.2672  0.3525  0.0672
  871SOL    HW2 3250   5.903   1.766   4.576 -0.2899  1.9569  0.4153
  871SOL    HW3 3251   5.842   1.676   4.681 -2.2788  2.5632 -0.1807
  871SOL    MW4 3252   5.898   1.739   4.658 -0.0001 -0.1449  0.0137
  872SOL     OW 3253   1.474   5.109   0.898 -0.6368  0.1629  0.0704
  872SOL    HW2 3254   1.383   5.087   0.917 -0.6838 -0.1256 -0.4513
  872SOL    HW3 3255   1.519   5.101   0.982 -0.8917 -0.7502  0.1351
  872SOL    MW4 3256   1.468   5.105   0.911  0.5052 -0.1704 -0.2889
  873SOL     OW 3257   2.276   5.951   2.718  0.4464 -0.2406  0.6722
  873SOL    HW2 3258   2.225   5.909   2.787 -1.4672 -1.2977 -1.2273
  873SOL    HW3 3259   2.318   5.878   2.672  0.7968  0.3243  0.0829
  873SOL    MW4 3260   2.275   5.936   2.721  0.0520  0.1732 -0.5231
  874SOL     OW 3261   4.127   4.727   5.201 -0.2984  0.0526 -0.3777
  874SOL    HW2 3262   4.141   4.715   5.107 -0.6751  0.8410 -0.5423
  874SOL    HW3 3263   4.108   4.821   5.211 -0.0864  0.0118  0.5051
  874SOL    MW4 3264   4.126   4.738   5.190  0.3570  0.4695 -0.7434
  875SOL     OW 3265   1.496   4.783   6.410 -0.3709 -0.0584  0.2507
  875SOL    HW2 3266   1.403   4.791   6.386 -0.6895  0.1474  1.4959
  875SOL    HW3 3267   1.543   4.797   6.327 -1.4408 -0.0985 -0.3868
  875SOL    MW4 3268   1.490   4.786   6.396  0.4187  0.1852 -0.1781
  876SOL     OW 3269   0.027   3.160   5.227 -0.0779  0.0548  0.8207
  876SOL    HW2 3270  -0.001   3.070   5.237  1.0957 -0.1827  2.2298
  876SOL    HW3 3271  -0.022   3.192   5.151 -1.9540 -1.1641  1.4523
  876SOL    MW4 3272   0.017   3.153   5.218  0.5698  0.4234 -0.4021
  877SOL     OW 3273   2.845   2.153   5.935 -0.0979  0.1075  0.1186
  877SOL    HW2 3274   2.803   2.086   5.989 -1.4880  0.8815  0.0705
  877SOL    HW3 3275   2.929   2.170   5.976  0.3298 -1.7303  0.0607
  877SOL    MW4 3276   2.850   2.147   5.947  0.0801  0.2127 -0.3085
  878SOL     OW 3277   3.588   3.199   5.511 -1.0199  0.3065  0.2542
  878SOL    HW2 3278   3.609   3.106   5.518 -1.2763  0.1834 -0.5915
  878SOL    HW3 3279   3.493   3.204   5.527 -1.0581  0.3884  0.0032
  878SOL    MW4 3280   3.578   3.187   5.514 -0.0162 -0.3822  0.5788
  879SOL     OW 3281   2.062   4.969   6.262  0.5603 -0.1696  0.0312
  879SOL    HW2 3282   1.989   5.011   6.307  1.3958 -0.3204  1.5935
  879SOL    HW3 3283   2.133   5.033   6.266  0.8116 -0.4094 -0.5840
  879SOL    MW4 3284   2.062   4.983   6.269  0.1468  1.4504 -0.4928
  880SOL     OW 3285   5.049   1.047   5.567 -0.5414  0.0293 -0.0167
  880SOL    HW2 3286   5.098   1.126   5.588  0.2755 -1.1346  3.0821
  880SOL    HW3 3287   5.117   0.982   5.545 -1.0164 -0.4270 -0.1614
  880SOL    MW4 3288   5.065   1.049   5.567  0.0535 -0.0814 -0.2139
  881SOL     OW 3289   2.508   1.237   1.482 -0.2874  0.3143  0.2273
  881SOL    HW2 3290   2.570   1.169   1.458 -1.7251 -0.9078 -0.2312
  881SOL    HW3 3291   2.465   1.260   1.400 -0.5214  1.0600  0.5475
  881SOL    MW4 3292   2.510   1.231   1.468  0.2462  0.0263 -0.6388
  882SOL     OW 3293   5.692   3.908   0.656  0.6132  0.0289 -0.3188
  882SOL    HW2 3294   5.631   3.838   0.677 -0.1535  0.5405 -0.7769
  882SOL    HW3 3295   5.644   3.965   0.596  1.5947  0.3690 -0.8181
  882SOL    MW4 3296   5.678   3.906   0.651 -0.3085  0.3369 -0.0557
  883SOL     OW 3297   5.748   6.237   6.148  0.4153  0.0704  0.3486
  883SOL    HW2 3298   5.825   6.264   6.198  1.8422  1.3224 -2.3160
  883SOL    HW3 3299   5.705   6.319   6.124 -1.2945 -0.5841  1.0343
  883SOL    MW4 3300   5.753   6.251   6.152  0.3038  0.3927 -0.1901
  884SOL     OW 3301   3.928   0.117   4.124 -0.3808 -0.6180 -0.0106
  884SOL    HW2 3302   4.007   0.167   4.103 -0.5778 -0.1317  0.3743
  884SOL    HW3 3303   3.857   0.181   4.117 -0.9114 -1.3104 -1.5431
  884SOL    MW4 3304   3.929   0.132   4.120 -0.1836  0.3495  0.3971
  885SOL     OW 3305   1.336   5.511   2.787  0.1076 -0.0420  0.0712
  885SOL    HW2 3306   1.272   5.580   2.803 -2.1652 -1.7948 -0.7919
  885SOL    HW3 3307   1.283   5.436   2.757  2.5504 -1.7365 -0.3151
  885SOL    MW4 3308   1.321   5.510   2.785  0.1595 -0.0175 -0.1788
  886SOL     OW 3309   5.559   2.455   3.011 -0.0588  0.0301  0.1797
  886SOL    HW2 3310   5.494   2.495   3.069  1.6421  0.4444  1.8957
  886SOL    HW3 3311   5.553   2.361   3.030 -0.3430  0.0291  0.1026
  886SOL    MW4 3312   5.549   2.448   3.021  0.0109 -0.0557 -0.1433
  887SOL     OW 3313   0.303   5.136   2.443  0.0804  0.0395 -0.4574
  887SOL    HW2 3314   0.288   5.214   2.391 -0.0544 -0.2553 -0.8660
  887SOL    HW3 3315   0.344   5.074   2.383 -1.4544 -0.8388 -0.6727
  887SOL    MW4 3316   0.306   5.138   2.429 -0.1287 -0.2697 -0.5596
  888SOL     OW 3317   0.996   1.812   2.481 -0.2656  0.4167 -0.3958
  888SOL    HW2 3318   0.944   1.889   2.502 -3.9594 -2.1973  0.9579
  888SOL    HW3 3319   1.013   1.770   2.565 -0.2751 -1.3913 -1.2387
  888SOL    MW4 3320   0.992   1.817   2.494 -0.4862 -0.4536  0.0193
  889SOL     OW 3321   1.190   2.276   0.235 -0.2206 -0.2635 -0.0016
  889SOL    HW2 3322   1.108   2.312   0.201 -0.0664  0.1601  0.0670
  889SOL    HW3 3323   1.259   2.324   0.189 -0.0050 -1.1816 -0.6469
  889SOL    MW4 3324   1.188   2.287   0.225  0.0401  0.6734  0.5572
  890SOL     OW 3325   4.056   4.012   0.676 -0.0305  0.6823  0.1349
  890SOL    HW2 3326   4.004   4.032   0.598 -1.4347 -0.0520  0.8415
  890SOL    HW3 3327   4.104   4.092   0.695 -1.0609  1.4506 -0.4421
  890SOL    MW4 3328   4.056   4.025   0.668 -0.0128 -0.6338 -0.2430
  891SOL     OW 3329   5.218   5.038   2.740  0.2886 -0.3345 -0.2101
  891SOL    HW2 3330   5.196   5.089   2.818  1.1899 -1.8331  1.0830
  891SOL    HW3 3331   5.292   5.084   2.702 -0.8629  1.0482 -0.8729
  891SOL    MW4 3332   5.225   5.051   2.745  0.0198  0.1267  0.0397
  892SOL     OW 3333   5.036   2.778   2.676  0.0563  0.1827 -0.2603
  892SOL    HW2 3334   5.022   2.792   2.769 -1.2470 -2.6476  0.0783
  892SOL    HW3 3335   5.063   2.863   2.642  2.1982  0.9355  2.9453
  892SOL    MW4 3336   5.038   2.791   2.683 -0.0718 -0.4744 -0.3278
  893SOL     OW 3337   0.644   5.304   3.199 -0.7251  0.6625 -0.2153
  893SOL    HW2 3338   0.679   5.375   3.145 -0.8561  1.4904  0.7503
  893SOL    HW3 3339   0.562   5.279   3.156  1.1828 -1.6944 -2.8331
  893SOL    MW4 3340   0.638   5.310   3.186 -0.0104  0.1223 -0.2037
  894SOL     OW 3341   1.634   3.112   1.041 -0.3124 -0.5988 -0.0126
  894SOL    HW2 3342   1.539   3.105   1.033 -0.2798 -1.8408  0.5651
  894SOL    HW3 3343   1.663   3.137   0.953 -1.2225  0.6649  0.0089
  894SOL    MW4 3344   1.625   3.115   1.028  0.3019 -0.2838  0.0525
  895SOL     OW 3345   2.145   1.139   2.104  0.0662  0.5365  0.2092
  895SOL    HW2 3346   2.106   1.093   2.030 -0.3130  2.2751 -0.7383
  895SOL    HW3 3347   2.239   1.129   2.091  0.0511 -2.2516  1.5759
  895SOL    MW4 3348   2.152   1.132   2.093  0.4809  0.4446  0.1031
  896SOL     OW 3349   1.959   4.797   5.067 -0.3857  0.0233 -0.6449
  896SOL    HW2 3350   2.026   4.855   5.105 -0.4420  0.2763 -0.9275
  896SOL    HW3 3351   1.886   4.802   5.128 -0.7243  0.9394 -1.1077
  896SOL    MW4 3352   1.958   4.805   5.080  0.7225  0.0059 -0.1816
  897SOL     OW 3353   6.448   1.322   3.378 -0.6090 -0.0661  0.1414
  897SOL    HW2 3354   6.471   1.237   3.340 -2.1750 -0.3729 -0.1872
  897SOL    HW3 3355   6.502   1.385   3.331 -0.5008 -0.7339 -0.6548
  897SOL    MW4 3356   6.458   1.319   3.367  0.1633  0.3196 -0.5683
  898SOL     OW 3357   1.108   2.932   5.336  0.0579  0.0930 -0.1178
  898SOL    HW2 3358   1.098   3.022   5.304  2.3575  0.5215  0.1449
  898SOL    HW3 3359   1.124   2.942   5.430 -0.0125 -0.6064 -0.0280
  898SOL    MW4 3360   1.109   2.945   5.344 -0.2667  0.6436 -0.7260
  899SOL     OW 3361   4.138   2.926   0.718 -0.1754  0.1899  0.1138
  899SOL    HW2 3362   4.135   3.021   0.705 -0.5967  0.0763 -0.6097
  899SOL    HW3 3363   4.191   2.893   0.646 -1.7136 -0.3335 -0.8100
  899SOL    MW4 3364   4.145   2.934   0.707 -0.1389 -0.3777  0.5331
  900SOL     OW 3365   4.082   0.905   5.834 -0.6843 -0.1245  0.9281
  900SOL    HW2 3366   4.175   0.903   5.857 -0.6544  1.5165  1.0460
  900SOL    HW3 3367   4.082   0.905   5.738 -0.3949  2.7513  0.8496
  900SOL    MW4 3368   4.095   0.905   5.824  0.2708 -0.1123  0.2050
  901SOL     OW 3369   4.097   2.079   4.700  0.8150 -0.9242 -0.0185
  901SOL    HW2 3370   4.051   2.115   4.776  0.8005 -0.5544 -0.2013
  901SOL    HW3 3371   4.035   2.017   4.661 -0.4166  1.1507 -1.5336
  901SOL    MW4 3372   4.083   2.075   4.705 -0.4706 -0.1475 -0.3605
  902SOL     OW 3373   3.531   3.060   5.779 -0.0110  0.1298 -0.0833
  902SOL    HW2 3374   3.471   3.135   5.775 -1.3437 -0.8096  1.1581
  902SOL    HW3 3375   3.474   2.985   5.792  1.4715 -0.6943  2.3289
  902SOL    MW4 3376   3.515   3.060   5.780  0.5114 -0.1170 -0.5012
  903SOL     OW 3377   0.361   4.558   4.396 -0.0599  0.2406 -0.1123
  903SOL    HW2 3378   0.437   4.548   4.453  1.4611 -1.0597 -2.1800
  903SOL    HW3 3379   0.287   4.528   4.449  1.4498 -2.1715  0.8374
  903SOL    MW4 3380   0.361   4.553   4.410  0.2697  0.4019  0.5081
  904SOL     OW 3381   0.553   3.544   3.677 -0.0047 -0.1761  0.1610
  904SOL    HW2 3382   0.559   3.636   3.651 -0.9697  0.5680  2.3647
  904SOL    HW3 3383   0.459   3.529   3.690  0.1461 -1.4716 -0.1049
  904SOL    MW4 3384   0.541   3.554   3.675  0.2398 -0.6264  0.2232
  905SOL     OW 3385   4.157   4.186   5.244  0.3771  0.1922  0.9109
  905SOL    HW2 3386   4.117   4.238   5.314 -0.4722  0.1594  0.4635
  905SOL    HW3 3387   4.105   4.206   5.166 -0.3746 -1.7600  0.8467
  905SOL    MW4 3388   4.145   4.196   5.243  0.5589  0.0046 -0.5110
  906SOL     OW 3389   3.093   1.850   1.486 -0.0099 -0.3463 -0.2095
  906SOL    HW2 3390   3.114   1.833   1.394  0.6172  1.8133 -0.5106
  906SOL    HW3 3391   3.000   1.829   1.493 -0.4085  0.7956 -1.7024
  906SOL    MW4 3392   3.084   1.845   1.475 -0.0893 -0.0277  0.2266
  907SOL     OW 3393   3.483   5.471   5.277 -0.1752  0.0271  0.4751
  907SOL    HW2 3394   3.392   5.445   5.294 -0.0821 -1.3023 -0.8079
  907SOL    HW3 3395   3.535   5.396   5.306  0.5152  0.7367  1.1097
  907SOL    MW4 3396   3.478   5.458   5.283 -0.5402 -0.1000  0.1570
  908SOL     OW 3397   5.497   0.293   3.066 -0.3412  0.8711  0.2816
  908SOL    HW2 3398   5.459   0.288   3.153  0.5701 -0.6242  0.6203
  908SOL    HW3 3399   5.422   0.291   3.006 -0.8730 -0.6234  0.9658
  908SOL    MW4 3400   5.482   0.292   3.069  0.3546 -0.2069  0.1579
  909SOL     OW 3401   1.294   2.441   1.369  0.2201 -0.0137 -0.1625
  909SOL    HW2 3402   1.309   2.525   1.326 -0.0216  0.9174  1.4888
  909SOL    HW3 3403   1.240   2.462   1.445  0.3684 -1.6295  0.4352
  909SOL    MW4 3404   1.289   2.455   1.373 -0.0411  0.2074  0.5304
  910SOL     OW 3405   2.780   4.310   5.714 -0.2458 -0.3590 -0.1723
  910SOL    HW2 3406   2.832   4.380   5.754  0.4689 -0.4237 -0.9613
  910SOL    HW3 3407   2.693   4.349   5.701 -0.2912 -0.1268  0.8076
  910SOL    MW4 3408   2.775   4.324   5.717  0.0045 -0.2115  0.5782
  911SOL     OW 3409   2.223   3.443   1.158 -0.2177  0.0279  0.9029
  911SOL    HW2 3410   2.259   3.357   1.136  0.8471  0.3621  1.2899
  911SOL    HW3 3411   2.198   3.481   1.073 -2.9734 -1.5888  0.8773
  911SOL    MW4 3412   2.225   3.437   1.144 -0.7409 -0.2586  0.7062
  912SOL     OW 3413   4.264   3.072   1.200 -0.5729 -0.2837  0.2379
  912SOL    HW2 3414   4.322   3.129   1.150 -0.1495  0.7291  1.8223
  912SOL    HW3 3415   4.224   3.015   1.134 -0.5882  1.4529 -1.3277
  912SOL    MW4 3416   4.267   3.072   1.184 -0.3087 -0.0089  0.0891
  913SOL     OW 3417   3.920   3.219   2.503 -0.0712  0.4435 -0.7320
  913SOL    HW2 3418   3.880   3.277   2.438  0.5967  0.3472 -1.2359
  913SOL    HW3 3419   3.874   3.239   2.584 -2.4167 -0.9122 -1.6203
  913SOL    MW4 3420   3.909   3.229   2.505  0.6135  0.5238 -0.3428
  914SOL     OW 3421   0.898   5.631   2.815 -0.2571  0.1005  0.4300
  914SOL    HW2 3422   0.827   5.666   2.762 -0.9915 -1.4075  0.3604
  914SOL    HW3 3423   0.911   5.541   2.782  2.8768  0.8359 -0.7597
  914SOL    MW4 3424   0.891   5.623   2.804  0.7853 -0.0306  0.1983
  915SOL     OW 3425   0.223   6.231   5.947  0.2238 -0.3595 -0.0737
  915SOL    HW2 3426   0.242   6.277   6.028  0.6064 -0.3792 -0.1515
  915SOL    HW3 3427   0.309   6.216   5.907  0.1184 -1.2761  0.0244
  915SOL    MW4 3428   0.237   6.235   5.952 -0.0920 -0.5966 -0.1466
  916SOL     OW 3429   1.300   1.548   6.268  0.3647 -0.6281 -0.5975
  916SOL    HW2 3430   1.290   1.574   6.360  2.6977 -1.8731  0.0688
  916SOL    HW3 3431   1.211   1.525   6.240 -0.4937  0.4019  1.1261
  916SOL    MW4 3432   1.287   1.549   6.276 -0.1844  0.2383  0.4001
  917SOL     OW 3433   4.974   5.674   0.663  0.0284  0.0856 -0.1917
  917SOL    HW2 3434   5.025   5.722   0.729  1.2254 -0.6295 -0.5617
  917SOL    HW3 3435   5.038   5.615   0.622 -1.6670 -3.0277  1.3213
  917SOL    MW4 3436   4.990   5.673   0.666 -0.1883  0.4180  0.1882
  918SOL     OW 3437   5.057   3.250   3.576  0.4573 -0.4681  0.4156
  918SOL    HW2 3438   5.125   3.237   3.643 -0.3183 -1.1558  1.0954
  918SOL    HW3 3439   5.105   3.247   3.493  1.6120  1.5292  0.9349
  918SOL    MW4 3440   5.073   3.248   3.574 -0.0522 -0.0290 -0.1900
  919SOL     OW 3441   1.942   5.101   2.941  0.8412 -0.3354  0.5659
  919SOL    HW2 3442   1.980   5.179   2.900 -1.7410  0.8689  0.2554
  919SOL    HW3 3443   1.850   5.124   2.955  0.5288 -2.5037  2.6494
  919SOL    MW4 3444   1.935   5.115   2.937  0.0605 -0.3780  0.6408
  920SOL     OW 3445   0.480   5.650   6.080  0.0017 -0.2515  0.0130
  920SOL    HW2 3446   0.461   5.735   6.040  0.1971 -0.2451 -0.0662
  920SOL    HW3 3447   0.397   5.603   6.076 -0.2195  0.0899  0.4335
  920SOL    MW4 3448   0.467   5.655   6.074  1.0071 -0.0933  0.9770
  921SOL     OW 3449   1.378   2.428   2.953  0.3513  0.1123 -0.5518
  921SOL    HW2 3450   1.470   2.401   2.950  0.3922  0.1637  0.1530
  921SOL    HW3 3451   1.358   2.436   3.046 -0.3262  0.2526 -0.7031
  921SOL    MW4 3452   1.387   2.425   2.965 -0.2944 -0.2935 -0.2760
  922SOL     OW 3453   0.156   3.961   2.552 -0.7211 -0.4738  0.0264
  922SOL    HW2 3454   0.176   3.930   2.464 -1.8734  0.5737 -0.6345
  922SOL    HW3 3455   0.063   3.983   2.550 -0.5847  0.3508  1.2615
  922SOL    MW4 3456   0.146   3.960   2.540 -0.5187  0.2659  0.5739
  923SOL     OW 3457   4.718   3.099   1.599  0.6968  0.4564 -0.1346
  923SOL    HW2 3458   4.627   3.121   1.580  0.2961 -0.9210  0.0826
  923SOL    HW3 3459   4.744   3.163   1.665 -0.2721  0.5695  0.1570
  923SOL    MW4 3460   4.710   3.111   1.605  0.4057  0.0520 -0.0590
  924SOL     OW 3461   4.837   2.698   1.812 -0.3223  0.5629  0.2125
  924SOL    HW2 3462   4.798   2.636   1.750 -0.5333 -0.2248  1.1125
  924SOL    HW3 3463   4.763   2.729   1.865  0.0303  0.2614  0.8931
  924SOL    MW4 3464   4.822   2.694   1.811 -0.1609  0.0513  0.0252
  925SOL     OW 3465   0.648   0.772   3.301  0.4022  0.0675  0.1121
  925SOL    HW2 3466   0.741   0.775   3.323  0.9402  0.4340 -1.9750
  925SOL    HW3 3467   0.643   0.716   3.223 -0.9175  1.1541 -0.6431
  925SOL    MW4 3468   0.660   0.765   3.293  0.3863 -0.7269  0.0658
  926SOL     OW 3469   5.038   5.503   6.407  0.5682 -0.6188  0.1366
  926SOL    HW2 3470   5.098   5.506   6.333  1.4338  1.1870  0.8520
  926SOL    HW3 3471   4.951   5.493   6.367  0.9834  0.5849 -1.1531
  926SOL    MW4 3472   5.034   5.502   6.392  0.3439  0.1786  0.6333
  927SOL     OW 3473   0.233   3.512   1.768 -0.0787  0.9604  0.0990
  927SOL    HW2 3474   0.228   3.424   1.805 -0.6208  0.6363 -0.7239
  927SOL    HW3 3475   0.326   3.534   1.773  0.1216  0.1817 -0.0518
  927SOL    MW4 3476   0.245   3.503   1.774 -0.7378 -0.2912 -0.6351
  928SOL     OW 3477   4.711   4.537   3.116 -0.3555 -0.0548  0.2037
  928SOL    HW2 3478   4.707   4.632   3.103 -3.2318 -0.2475 -0.9047
  928SOL    HW3 3479   4.629   4.515   3.161 -0.7739 -2.2497 -1.4482
  928SOL    MW4 3480   4.700   4.547   3.120 -0.4201  0.0759 -0.4910
  929SOL     OW 3481   1.179   1.129   5.817 -0.3244  0.1097  0.1853
  929SOL    HW2 3482   1.122   1.148   5.742  1.9019  2.8821 -0.9758
  929SOL    HW3 3483   1.189   1.033   5.815 -1.2930 -0.0265 -2.3519
  929SOL    MW4 3484   1.173   1.119   5.807 -0.0818  0.1117  0.3380
  930SOL     OW 3485   2.585   1.386   3.351  0.1168  0.3860  0.3748
  930SOL    HW2 3486   2.624   1.315   3.403  3.2218  1.0745 -0.7607
  930SOL    HW3 3487   2.584   1.351   3.262 -1.9909  0.4373  0.3369
  930SOL    MW4 3488   2.590   1.372   3.346 -0.1943 -0.0692  0.1836
  931SOL     OW 3489   3.025   0.017   5.989  0.0251  0.2209 -0.9880
  931SOL    HW2 3490   3.018   0.048   6.080  1.1688  1.6579 -1.3414
  931SOL    HW3 3491   3.064  -0.070   5.997 -0.8092 -0.0838 -0.0584
  931SOL    MW4 3492   3.030   0.009   6.002  0.2524  0.0645  0.3216
  932SOL     OW 3493   5.583   3.850   2.525 -0.7415 -0.1759  0.2569
  932SOL    HW2 3494   5.503   3.902   2.527  1.0914  2.9189 -0.1410
  932SOL    HW3 3495   5.615   3.858   2.435  0.9139  0.2361  0.8403
  932SOL    MW4 3496   5.577   3.858   2.513  0.0300 -0.5427  0.8046
  933SOL     OW 3497   1.087   5.895   1.351  0.3457  0.2698  0.3477
  933SOL    HW2 3498   1.032   5.884   1.274 -1.5586 -0.7109  1.7325
  933SOL    HW3 3499   1.125   5.982   1.342 -1.6555  1.1034 -0.6021
  933SOL    MW4 3500   1.085   5.905   1.340 -0.1503  0.2435 -0.4273
  934SOL     OW 3501   0.136   4.001   5.658 -0.1357 -0.1669 -0.5396
  934SOL    HW2 3502   0.212   4.008   5.601 -1.7210 -0.7259 -2.8925
  934SOL    HW3 3503   0.124   3.907   5.672 -0.0578 -0.0547  0.2993
  934SOL    MW4 3504   0.144   3.990   5.652 -0.2942 -0.2069  0.2922
  935SOL     OW 3505   5.148   2.009   5.884  0.3613 -0.3601  0.3789
  935SOL    HW2 3506   5.233   2.045   5.909 -0.8828  1.6022  2.1472
  935SOL    HW3 3507   5.168   1.929   5.837  3.2347  0.9620 -0.8530
  935SOL    MW4 3508   5.162   2.003   5.881 -0.2358  0.2722  0.1735
  936SOL     OW 3509   5.195   3.684   2.953  0.3675 -0.1521  0.3389
  936SOL    HW2 3510   5.102   3.688   2.975 -0.0997  1.4783 -1.6002
  936SOL    HW3 3511   5.236   3.750   3.009  0.0942  0.1639  0.1705
  936SOL    MW4 3512   5.188   3.693   2.963 -0.7618 -0.2639 -0.2779
  937SOL     OW 3513   6.175   2.953   2.424 -0.0226  0.2055  0.1064
  937SOL    HW2 3514   6.106   2.900   2.463 -0.5843  0.9770  0.1743
  937SOL    HW3 3515   6.247   2.949   2.487  0.0696 -0.7579 -0.0576
  937SOL    MW4 3516   6.176   2.946   2.438  0.3126  0.0052  0.1298
  938SOL     OW 3517   2.835   0.980   5.835  0.4054  0.0282  0.2964
  938SOL    HW2 3518   2.887   1.059   5.831  1.3156 -0.4716  1.5538
  938SOL    HW3 3519   2.754   1.001   5.788  1.4946  0.9907 -1.1914
  938SOL    MW4 3520   2.831   0.993   5.828 -0.0148  0.3473  0.3295
  939SOL     OW 3521   3.594   5.050   2.062 -0.1351  0.1212 -0.3352
  939SOL    HW2 3522   3.549   4.991   2.002  1.1448 -0.1435 -1.0755
  939SOL    HW3 3523   3.551   5.037   2.146 -0.8183 -0.7914 -0.8150
  939SOL    MW4 3524   3.582   5.040   2.065  0.3151  0.0178 -0.2653
  940SOL     OW 3525   4.526   6.023   3.915 -0.1969 -0.1999  0.3513
  940SOL    HW2 3526   4.483   5.946   3.879 -0.0073 -1.8066  3.2672
  940SOL    HW3 3527   4.613   6.023   3.875 -0.4479 -1.1072 -0.2053
  940SOL    MW4 3528   4.532   6.013   3.905  0.7374 -0.3333  0.5323
  941SOL     OW 3529   1.235   5.756   2.044 -0.4710 -0.9828 -0.5090
  941SOL    HW2 3530   1.205   5.846   2.045  0.1600 -0.7513 -1.4645
  941SOL    HW3 3531   1.163   5.706   2.005 -0.7425 -0.8703 -0.1554
  941SOL    MW4 3532   1.222   5.761   2.039  0.0620 -0.3973 -0.3727
  942SOL     OW 3533   4.876   6.293   2.883  0.4581 -0.2279  0.3707
  942SOL    HW2 3534   4.828   6.347   2.945 -0.4876  1.3269 -1.5941
  942SOL    HW3 3535   4.957   6.340   2.867 -0.7536  1.2656 -2.0345
  942SOL    MW4 3536   4.880   6.306   2.889  0.3260  0.1657 -0.2912
  943SOL     OW 3537   0.376   1.161   3.367  0.2023 -0.0896 -0.6261
  943SOL    HW2 3538   0.458   1.201   3.339 -0.4942  0.6987 -1.6200
  943SOL    HW3 3539   0.339   1.224   3.429  0.3068 -0.4017 -0.2460
  943SOL    MW4 3540   0.382   1.175   3.372  0.3233 -0.1182 -0.1982
  944SOL     OW 3541   5.498   0.283   3.541 -0.2821 -0.2473 -0.2871
  944SOL    HW2 3542   5.526   0.322   3.624  0.4611  1.3258 -1.2281
  944SOL    HW3 3543   5.519   0.190   3.550 -0.2665 -0.1160  1.2898
  944SOL    MW4 3544   5.505   0.276   3.553 -0.8045 -0.0224 -0.6901
  945SOL     OW 3545   4.982   2.963   2.333 -0.0254  0.6404 -0.1416
  945SOL    HW2 3546   4.946   2.890   2.283 -1.6557  0.9654  0.4909
  945SOL    HW3 3547   4.994   3.033   2.269  1.2524 -0.0395 -0.6930
  945SOL    MW4 3548   4.979   2.963   2.318  0.2981 -0.5587 -0.5474
  946SOL     OW 3549   4.722   1.658   2.949  0.5265 -0.4610 -0.7400
  946SOL    HW2 3550   4.812   1.689   2.947  0.3581  0.2156  0.7953
  946SOL    HW3 3551   4.721   1.591   3.017 -0.2580  0.0508 -0.2224
  946SOL    MW4 3552   4.733   1.654   2.958  0.4394  0.1844 -0.1660
  947SOL     OW 3553   6.351   3.820   0.922 -0.0109  0.2498  0.4222
  947SOL    HW2 3554   6.444   3.801   0.910 -0.2677 -0.8907  0.1599
  947SOL    HW3 3555   6.334   3.896   0.867  0.2547 -0.9682 -1.4267
  947SOL    MW4 3556   6.361   3.827   0.913 -0.7879 -0.0759 -0.2092
  948SOL     OW 3557   1.631   5.733   2.183  0.0103 -0.6628 -0.0467
  948SOL    HW2 3558   1.563   5.733   2.115 -0.8734  0.3777  0.7892
  948SOL    HW3 3559   1.683   5.655   2.165 -0.8703 -1.0096 -1.2485
  948SOL    MW4 3560   1.629   5.723   2.172 -0.0418 -0.3478 -0.0503
  949SOL     OW 3561   1.333   1.894   0.511 -0.1398 -0.2048  0.6090
  949SOL    HW2 3562   1.244   1.911   0.541 -0.8938 -1.6913 -0.6343
  949SOL    HW3 3563   1.328   1.900   0.416  1.3412  0.7176  0.5680
  949SOL    MW4 3564   1.321   1.897   0.503 -0.3812  0.2057  0.2618
  950SOL     OW 3565   0.900   2.010   0.766 -0.1744  0.2971 -0.5875
  950SOL    HW2 3566   0.823   1.957   0.747 -0.5490  1.3926 -2.4464
  950SOL    HW3 3567   0.967   1.978   0.705  1.0538 -0.9793  1.3529
  950SOL    MW4 3568   0.899   1.999   0.755 -0.0540 -0.6572  0.2858
  951SOL     OW 3569   0.874   1.681   3.127 -0.5505  0.0915 -0.4156
  951SOL    HW2 3570   0.840   1.593   3.111 -0.1037  0.3590 -3.2844
  951SOL    HW3 3571   0.802   1.740   3.105 -0.1346  0.5035 -0.6873
  951SOL    MW4 3572   0.860   1.677   3.122  0.9379  0.2759 -0.2440
  952SOL     OW 3573   3.612   2.398   2.342 -0.2115 -0.2722 -0.7983
  952SOL    HW2 3574   3.539   2.342   2.315 -0.6447 -0.4361  0.6463
  952SOL    HW3 3575   3.578   2.487   2.333 -0.5508 -0.3434 -0.2670
  952SOL    MW4 3576   3.598   2.402   2.337 -0.1261  0.0122  0.3110
  953SOL     OW 3577   2.732   3.546   6.151  0.8092 -0.0690 -0.0327
  953SOL    HW2 3578   2.725   3.553   6.246 -1.0011  0.6615 -0.1847
  953SOL    HW3 3579   2.799   3.610   6.127  1.1744 -0.1568  0.7214
  953SOL    MW4 3580   2.740   3.555   6.160 -0.3691 -0.4733  0.4783
  954SOL     OW 3581   5.717   4.638   4.830  0.3179 -0.2960 -0.2872
  954SOL    HW2 3582   5.774   4.573   4.788 -0.9637 -1.5305 -0.1891
  954SOL    HW3 3583   5.706   4.605   4.919 -0.3961  0.0310 -0.2492
  954SOL    MW4 3584   5.723   4.625   4.837  0.6745 -0.0043  0.6080
  955SOL     OW 3585   3.404   1.477   0.054  0.5530  0.3833 -0.1263
  955SOL    HW2 3586   3.347   1.456   0.128 -0.5693  2.2783 -0.3763
  955SOL    HW3 3587   3.453   1.397   0.038  0.7019 -0.1607  2.5337
  955SOL    MW4 3588   3.403   1.464   0.062  0.5132 -0.2983 -0.0546
  956SOL     OW 3589   3.482   1.910   6.053  0.1675  0.1585  0.5111
  956SOL    HW2 3590   3.537   1.942   6.124  2.5803 -0.4849 -0.9421
  956SOL    HW3 3591   3.538   1.851   6.003 -1.4547  0.3993 -1.8013
  956SOL    MW4 3592   3.496   1.907   6.056  0.0819  0.4990 -0.1378
  957SOL     OW 3593   2.578   3.965   0.253  0.5128 -0.3342  0.6661
  957SOL    HW2 3594   2.581   4.050   0.209 -0.9326 -0.1877  0.7936
  957SOL    HW3 3595   2.511   3.975   0.320  0.1072 -1.6538  0.4920
  957SOL    MW4 3596   2.569   3.977   0.256 -0.0768  0.2152  0.7882
  958SOL     OW 3597   3.189   3.036   5.224 -0.1774 -0.1105 -0.0659
  958SOL    HW2 3598   3.251   3.031   5.151  2.9191 -0.3124  2.3311
  958SOL    HW3 3599   3.123   2.969   5.205  0.7920 -0.4804 -2.4047
  958SOL    MW4 3600   3.189   3.026   5.212  0.4548 -0.0674 -0.0210
  959SOL     OW 3601   0.624   3.148   3.506  0.2214  0.1545  0.2694
  959SOL    HW2 3602   0.676   3.086   3.558 -0.0055 -0.5007 -0.2695
  959SOL    HW3 3603   0.630   3.230   3.555  1.1296 -0.0998  0.6196
  959SOL    MW4 3604   0.632   3.151   3.519  0.1798 -0.1641 -0.5562
  960SOL     OW 3605   2.722   0.342   6.351  0.1488 -0.6508  0.4537
  960SOL    HW2 3606   2.720   0.247   6.354  3.7223 -0.8446  1.4002
  960SOL    HW3 3607   2.719   0.369   6.443  1.7986 -0.0509  0.3618
  960SOL    MW4 3608   2.721   0.333   6.363  0.5208  0.0621  0.0944
  961SOL     OW 3609   3.552   1.471   3.078 -0.7109 -0.0824 -0.0281
  961SOL    HW2 3610   3.645   1.450   3.077 -0.9424 -1.1607  0.2756
  961SOL    HW3 3611   3.507   1.387   3.073 -1.6731  0.3359  1.0134
  961SOL    MW4 3612   3.558   1.457   3.077  0.4164 -0.0777 -0.2881
  962SOL     OW 3613   4.848   3.270   5.512 -0.2642 -0.1305 -0.0945
  962SOL    HW2 3614   4.855   3.232   5.425  1.4006 -0.6234  0.2084
  962SOL    HW3 3615   4.831   3.196   5.570 -0.6497  0.0942  0.0813
  962SOL    MW4 3616   4.847   3.255   5.508 -0.6003 -0.4891 -0.3837
  963SOL     OW 3617   2.825   2.941   2.054  0.0188 -0.0591  0.0950
  963SOL    HW2 3618   2.888   2.900   2.114  1.3792 -0.3780 -1.4737
  963SOL    HW3 3619   2.744   2.945   2.104  0.5729 -2.0984  1.2896
  963SOL    MW4 3620   2.823   2.936   2.068  0.1831  0.4419 -0.4469
  964SOL     OW 3621   0.602   2.202   4.310 -0.3176 -0.1875 -0.0012
  964SOL    HW2 3622   0.579   2.288   4.345  1.7104  0.1510  0.6551
  964SOL    HW3 3623   0.525   2.147   4.326 -1.3909  1.3262  0.1704
  964SOL    MW4 3624   0.589   2.206   4.317  0.1149  0.7210 -0.2542
  965SOL     OW 3625   6.304   0.830   2.961  0.5544 -0.3021 -0.1305
  965SOL    HW2 3626   6.270   0.835   2.871  0.6203  1.9229 -0.0868
  965SOL    HW3 3627   6.227   0.812   3.015  0.2514 -0.1923 -0.5149
  965SOL    MW4 3628   6.289   0.829   2.956  0.6092 -0.0625  0.4491
  966SOL     OW 3629   3.143   2.640   3.756 -0.0884  0.0503  0.2510
  966SOL    HW2 3630   3.082   2.698   3.709 -0.0443  0.5312  0.7728
  966SOL    HW3 3631   3.229   2.680   3.741  0.1518 -0.7909 -0.7330
  966SOL    MW4 3632   3.146   2.653   3.748 -0.3477 -0.3152  0.3082
  967SOL     OW 3633   5.156   1.064   0.829  0.1921  0.0811 -0.0695
  967SOL    HW2 3634   5.074   1.052   0.781  0.5059 -2.3332 -0.1521
  967SOL    HW3 3635   5.224   1.043   0.764  0.6659 -1.9927  0.9988
  967SOL    MW4 3636   5.154   1.059   0.814  0.3339  0.1801  0.3049
  968SOL     OW 3637   4.226   3.311   1.720 -0.2573  0.2398 -0.2133
  968SOL    HW2 3638   4.213   3.377   1.653 -0.6775  0.3430 -0.0360
  968SOL    HW3 3639   4.193   3.230   1.682 -0.6363  0.3293 -0.0767
  968SOL    MW4 3640   4.220   3.309   1.706 -0.6112  0.0813  0.2969
  969SOL     OW 3641   3.050   2.467   1.025  0.3176  0.4595  0.2488
  969SOL    HW2 3642   3.017   2.471   1.115 -0.6951 -2.1403  0.0950
  969SOL    HW3 3643   3.119   2.401   1.027  0.2988  0.3802 -0.8681
  969SOL    MW4 3644   3.054   2.459   1.037  1.3167 -0.2156  0.2643
  970SOL     OW 3645   5.991   3.434   3.109  1.0096  0.3800  0.5296
  970SOL    HW2 3646   5.913   3.463   3.061 -0.0682 -1.6821  0.9075
  970SOL    HW3 3647   6.059   3.428   3.042 -0.3859 -2.1859 -0.8264
  970SOL    MW4 3648   5.990   3.437   3.094 -1.0933 -0.3385  0.1466
  971SOL     OW 3649   5.410   5.214   3.696 -0.0141  0.4818  0.2951
  971SOL    HW2 3650   5.396   5.292   3.751  1.5525  1.6581 -0.8668
  971SOL    HW3 3651   5.329   5.205   3.646 -0.1691  1.4767  0.3415
  971SOL    MW4 3652   5.397   5.223   3.697 -0.0623 -0.0817  0.1479
  972SOL     OW 3653   3.579   1.336   4.815 -0.2066 -0.3026  0.0335
  972SOL    HW2 3654   3.581   1.264   4.753 -1.9723 -0.2326 -0.1639
  972SOL    HW3 3655   3.588   1.415   4.761  2.0949 -0.3389  0.2841
  972SOL    MW4 3656   3.580   1.337   4.800 -0.2743 -0.7714 -0.4038
  973SOL     OW 3657   0.349   3.317   0.986  0.0764 -0.3389  0.1454
  973SOL    HW2 3658   0.284   3.371   0.943 -0.4788 -0.1663  1.1772
  973SOL    HW3 3659   0.387   3.373   1.054 -0.4543 -1.1920  1.1814
  973SOL    MW4 3660   0.346   3.331   0.989  0.2017  0.0468  0.3047
  974SOL     OW 3661   2.918   3.785   5.200  0.3599 -0.8055 -0.0476
  974SOL    HW2 3662   2.864   3.782   5.121 -0.5922 -0.1218  0.5586
  974SOL    HW3 3663   2.880   3.854   5.253  2.5706  0.5610 -0.1068
  974SOL    MW4 3664   2.906   3.793   5.196  0.1300  0.1438  0.1266
  975SOL     OW 3665   2.868   0.210   4.871 -0.1262  0.0588 -0.3821
  975SOL    HW2 3666   2.949   0.195   4.919  0.0489  1.7560 -0.0954
  975SOL    HW3 3667   2.860   0.305   4.866 -1.5270 -0.0812 -1.3856
  975SOL    MW4 3668   2.878   0.221   4.877  0.1123  0.1606 -0.0941
  976SOL     OW 3669   1.384   4.553   3.510  0.4264 -0.4369  0.6098
  976SOL    HW2 3670   1.464   4.574   3.461  0.8091 -0.9138  1.0196
  976SOL    HW3 3671   1.407   4.475   3.560 -0.7776 -1.5096 -0.4492
  976SOL    MW4 3672   1.398   4.546   3.510  0.2676  0.4701 -0.1573
  977SOL     OW 3673   2.803   1.259   0.428 -0.6794  0.1109  0.2313
  977SOL    HW2 3674   2.884   1.270   0.378  0.3463 -0.5683  1.6448
  977SOL    HW3 3675   2.832   1.260   0.520 -2.4529  1.1334  0.8253
  977SOL    MW4 3676   2.818   1.260   0.434  0.3785 -0.1268 -0.4054
  978SOL     OW 3677   3.822   1.365   5.621  0.4099  0.0950  0.4628
  978SOL    HW2 3678   3.825   1.272   5.599 -1.4472  0.2285 -0.5604
  978SOL    HW3 3679   3.842   1.369   5.714 -0.1340 -1.3929  0.6633
  978SOL    MW4 3680   3.825   1.354   5.630  0.0595 -0.4344 -0.2440
  979SOL     OW 3681   5.105   2.256   0.012 -0.0459 -0.0167 -0.3100
  979SOL    HW2 3682   5.170   2.323   0.031  0.8253 -1.1931  1.0354
  979SOL    HW3 3683   5.124   2.185   0.073 -1.0525 -1.4258 -1.5393
  979SOL    MW4 3684   5.116   2.255   0.022 -0.1734  0.4097 -0.1121
  980SOL     OW 3685   0.453   2.011   0.778 -0.0471  0.1319  0.1822
  980SOL    HW2 3686   0.534   2.061   0.782 -0.3029  0.5133  0.6861
  980SOL    HW3 3687   0.386   2.076   0.755 -0.3345 -0.0226  0.5636
  980SOL    MW4 3688   0.455   2.026   0.776 -0.5193 -0.0769 -0.2722
  981SOL     OW 3689   3.590   0.308   3.676  0.3696  0.2285 -0.4824
  981SOL    HW2 3690   3.646   0.385   3.691 -1.2335  1.0674  1.5976
  981SOL    HW3 3691   3.629   0.266   3.599  2.2517  2.2245 -0.7399
  981SOL    MW4 3692   3.603   0.313   3.668  0.5057  0.3177  0.0562
  982SOL     OW 3693   3.822   2.417   3.501  0.5792  0.4933 -0.6269
  982SOL    HW2 3694   3.866   2.460   3.574 -2.5747 -0.8124  2.3291
  982SOL    HW3 3695   3.769   2.487   3.461  1.7870  1.0580 -1.3002
  982SOL    MW4 3696   3.821   2.432   3.505 -0.2480 -0.0894  0.0100
  983SOL     OW 3697   5.341   4.902   0.076 -0.7235  0.1261  0.0713
  983SOL    HW2 3698   5.403   4.972   0.055 -0.7411  0.1584  0.1257
  983SOL    HW3 3699   5.383   4.823   0.044  0.0274 -0.0539  1.3960
  983SOL    MW4 3700   5.355   4.901   0.069  0.2337 -0.0807 -0.4213
  984SOL     OW 3701   0.368   2.502   4.053 -0.0262  0.2449 -1.0563
  984SOL    HW2 3702   0.301   2.527   3.990  0.1306 -0.4191 -1.4962
  984SOL    HW3 3703   0.328   2.521   4.138 -1.1078 -0.8638 -1.2734
  984SOL    MW4 3704   0.354   2.508   4.056  0.5342  0.1942  0.6700
  985SOL     OW 3705   5.716   1.437   5.029  0.1264  0.3910 -0.4690
  985SOL    HW2 3706   5.692   1.345   5.037  2.6592 -0.2251  0.9554
  985SOL    HW3 3707   5.689   1.477   5.111  1.0296  0.3856 -0.1553
  985SOL    MW4 3708   5.710   1.430   5.041 -0.3213  0.6898 -0.2994
  986SOL     OW 3709   0.284   2.517   2.881 -0.2300 -0.7193 -0.2758
  986SOL    HW2 3710   0.325   2.436   2.850 -0.1244 -1.6969  2.1850
  986SOL    HW3 3711   0.191   2.507   2.860 -0.0707 -1.0767 -0.8096
  986SOL    MW4 3712   0.277   2.505   2.874 -0.0917  0.0312  0.5543
  987SOL     OW 3713   3.612   4.679   6.125  0.2619  0.5607 -0.0772
  987SOL    HW2 3714   3.661   4.617   6.179  0.6522  1.8421  1.1070
  987SOL    HW3 3715   3.619   4.644   6.036  2.1765 -0.0188  0.2559
  987SOL    MW4 3716   3.620   4.666   6.121 -0.6360 -0.0004 -0.3129
  988SOL     OW 3717   5.628   0.001   3.504 -0.1789 -0.0328 -0.2079
  988SOL    HW2 3718   5.661   0.032   3.419  0.6993 -1.3666 -0.3819
  988SOL    HW3 3719   5.546  -0.044   3.482  0.5711 -1.2876 -0.5190
  988SOL    MW4 3720   5.622  -0.001   3.490  0.1822 -0.0262 -0.5565
  989SOL     OW 3721   4.894   3.753   6.171 -0.1863  0.3237 -0.0991
  989SOL    HW2 3722   4.915   3.827   6.227 -1.4295  0.4707  0.1926
  989SOL    HW3 3723   4.862   3.685   6.231  1.1666 -0.5535 -0.3316
  989SOL    MW4 3724   4.892   3.754   6.186  0.7275 -0.3609  0.2605
  990SOL     OW 3725   4.434   4.937   5.118  0.6060 -0.1903 -0.7011
  990SOL    HW2 3726   4.433   4.890   5.035 -0.4295 -0.6057 -0.4750
  990SOL    HW3 3727   4.363   5.001   5.109  0.0207 -0.7110  0.1147
  990SOL    MW4 3728   4.424   4.939   5.106 -0.0001 -0.8435 -0.9435
  991SOL     OW 3729   2.659   0.484   4.621 -0.0067  0.2423  0.0352
  991SOL    HW2 3730   2.697   0.520   4.541  1.0904 -1.3231 -0.2058
  991SOL    HW3 3731   2.587   0.428   4.590 -0.7314  1.0079  0.2935
  991SOL    MW4 3732   2.654   0.481   4.606  0.4278 -0.1098  0.5323
  992SOL     OW 3733   5.833   0.048   1.999  0.1165 -0.0157 -0.1390
  992SOL    HW2 3734   5.905   0.053   1.936  0.7526 -0.3358  0.5486
  992SOL    HW3 3735   5.810   0.139   2.017  1.8732  0.1867  1.3364
  992SOL    MW4 3736   5.839   0.061   1.993  0.5916  0.0713  0.2668
  993SOL     OW 3737   1.174   4.115   3.385  0.1845 -0.3190 -0.5284
  993SOL    HW2 3738   1.164   4.206   3.413  0.6885 -0.7466  1.2360
  993SOL    HW3 3739   1.121   4.065   3.448  0.6655 -1.3043 -0.8841
  993SOL    MW4 3740   1.166   4.121   3.397  0.8122  0.3480 -0.4054
  994SOL     OW 3741   4.243   5.698   4.009 -0.1779 -0.0875 -0.4712
  994SOL    HW2 3742   4.199   5.783   4.002  1.9722  1.0706 -1.1082
  994SOL    HW3 3743   4.325   5.710   3.960  1.2301 -1.8241  1.2965
  994SOL    MW4 3744   4.248   5.711   4.002  0.5451 -0.2550  0.2913
  995SOL     OW 3745   6.299   6.327   3.787  0.3557 -0.1029  0.4249
  995SOL    HW2 3746   6.219   6.372   3.761 -0.3958 -0.2714  2.3157
  995SOL    HW3 3747   6.317   6.268   3.714 -2.3720 -1.5107  0.7584
  995SOL    MW4 3748   6.291   6.325   3.774 -0.5534 -0.0785  0.4113
  996SOL     OW 3749   1.853   3.724   0.667  0.1427  0.2152 -0.5051
  996SOL    HW2 3750   1.844   3.810   0.627  0.0511  0.2974 -0.3042
  996SOL    HW3 3751   1.768   3.682   0.654  0.0013  0.3708 -0.0915
  996SOL    MW4 3752   1.841   3.730   0.660 -0.2707 -0.0876 -0.0803
  997SOL     OW 3753   1.642   3.802   4.285  0.2384 -0.1028 -0.1930
  997SOL    HW2 3754   1.591   3.740   4.337 -0.0453 -0.0027 -0.3486
  997SOL    HW3 3755   1.648   3.880   4.340 -0.0515 -0.0013 -0.3030
  997SOL    MW4 3756   1.636   3.804   4.299 -0.0801 -0.2775  0.1916
  998SOL     OW 3757   2.013   4.343   0.595 -0.3780 -0.5727  0.1175
  998SOL    HW2 3758   1.945   4.279   0.573  0.2031 -1.1027 -0.1433
  998SOL    HW3 3759   1.978   4.426   0.562 -1.9805 -0.3917  2.1034
  998SOL    MW4 3760   1.999   4.345   0.588 -0.3811  0.1480  0.0690
  999SOL     OW 3761   6.090   1.773   3.294  0.2372  0.0990 -0.1567
  999SOL    HW2 3762   6.119   1.733   3.212 -0.4967  0.9303 -0.8509
  999SOL    HW3 3763   6.162   1.758   3.355  1.6768  1.1422 -1.5134
  999SOL    MW4 3764   6.104   1.766   3.291  0.1749 -0.2646  0.4853
 1000SOL     OW 3765   0.489   1.248   0.616  0.1706  0.4876  0.3257
 1000SOL    HW2 3766   0.403   1.227   0.581  0.6277  0.7606 -1.0458
 1000SOL    HW3 3767   0.476   1.329   0.665 -0.3214  0.6550 -0.0721
 1000SOL    MW4 3768   0.476   1.256   0.618 -0.3923  0.0250  0.5834
 1001SOL     OW 3769   3.880   3.115   5.450  0.5811  1.4433 -0.3192
 1001SOL    HW2 3770   3.892   3.204   5.482  0.5604  1.7263 -1.0701
 1001SOL    HW3 3771   3.967   3.075   5.453  0.1633  0.5129  2.7297
 1001SOL    MW4 3772   3.893   3.122   5.454  0.1941 -0.3828 -0.3986
 1002SOL     OW 3773   4.782   1.732   4.590 -0.0375  0.4879 -0.3383
 1002SOL    HW2 3774   4.832   1.760   4.667 -0.2307  1.0157 -0.4001
 1002SOL    HW3 3775   4.712   1.677   4.626 -0.7268  1.5353 -0.0234
 1002SOL    MW4 3776   4.780   1.728   4.605 -0.0736  1.0037  0.1376
 1003SOL     OW 3777   2.549   3.385   5.008  0.1203  0.0118  0.0498
 1003SOL    HW2 3778   2.542   3.392   5.103 -1.4251 -1.1642  0.0715
 1003SOL    HW3 3779   2.482   3.321   4.984 -1.0715  1.9327 -2.0779
 1003SOL    MW4 3780   2.539   3.377   5.017 -0.3788  0.1496 -0.3035
 1004SOL     OW 3781   0.162   2.706   0.627  0.3742  0.8409 -0.0731
 1004SOL    HW2 3782   0.079   2.708   0.675  0.6262  1.1633  0.3562
 1004SOL    HW3 3783   0.173   2.796   0.596  0.2643  0.6586 -0.6463
 1004SOL    MW4 3784   0.152   2.718   0.629 -0.0640  0.6721 -0.2727
 1005SOL     OW 3785   1.204   1.098   4.905 -0.5104  0.4796  0.6117
 1005SOL    HW2 3786   1.258   1.042   4.960 -0.6956 -1.2087 -0.8236
 1005SOL    HW3 3787   1.121   1.105   4.953  0.0246  0.8033  1.5185
 1005SOL    MW4 3788   1.200   1.091   4.919 -0.4569  0.1521 -0.5151
 1006SOL     OW 3789   0.087   1.484   3.888 -0.5917  0.2265  0.2825
 1006SOL    HW2 3790   0.121   1.559   3.840 -0.4315  0.3894  0.6480
 1006SOL    HW3 3791   0.155   1.417   3.880 -0.6873  0.1586  0.0471
 1006SOL    MW4 3792   0.100   1.485   3.881  0.1646 -0.1523 -0.1673
 1007SOL     OW 3793   0.956   0.295   3.696  0.4020  0.3484 -0.2180
 1007SOL    HW2 3794   0.880   0.351   3.680  1.0620  1.1912 -0.4438
 1007SOL    HW3 3795   0.927   0.208   3.669 -0.7416  0.5121  0.4469
 1007SOL    MW4 3796   0.942   0.291   3.690 -0.6196  0.4522 -0.3655
 1008SOL     OW 3797   2.055   3.973   2.859  0.9391  0.2309 -0.3693
 1008SOL    HW2 3798   1.998   3.991   2.933  0.5380  0.9085 -0.8281
 1008SOL    HW3 3799   2.141   3.957   2.898  0.9321  1.4551  0.1899
 1008SOL    MW4 3800   2.059   3.973   2.874  0.1462  0.9515 -0.0367
 1009SOL     OW 3801   4.966   6.386   4.337  0.4948 -0.3612  0.4646
 1009SOL    HW2 3802   4.931   6.474   4.352  0.2759 -0.2795 -0.4632
 1009SOL    HW3 3803   5.016   6.393   4.256  3.1508 -0.3572  1.9955
 1009SOL    MW4 3804   4.968   6.398   4.328  0.1142  0.1241 -0.0862
 1010SOL     OW 3805   2.470   3.334   0.379  0.4202  0.1880  0.3907
 1010SOL    HW2 3806   2.383   3.321   0.418  0.8341  1.0517  1.6876
 1010SOL    HW3 3807   2.452   3.349   0.286 -0.9153  1.2147  0.7705
 1010SOL    MW4 3808   2.456   3.334   0.372 -0.2308 -0.5336 -0.0900
 1011SOL     OW 3809   3.223   4.589   0.527  0.0210  0.0271 -0.7605
 1011SOL    HW2 3810   3.134   4.621   0.541  0.1605  0.8342 -1.6267
 1011SOL    HW3 3811   3.226   4.567   0.434 -0.1290 -2.7613 -0.1779
 1011SOL    MW4 3812   3.212   4.590   0.516  0.2018  0.0994  0.2263
 1012SOL     OW 3813   5.560   2.484   2.204  0.4035 -0.4007  0.5965
 1012SOL    HW2 3814   5.477   2.490   2.251  0.1910  0.4710  0.1239
 1012SOL    HW3 3815   5.622   2.534   2.258  0.3360 -0.0377  0.3420
 1012SOL    MW4 3816   5.557   2.492   2.217  0.3196 -0.4920 -0.2412
 1013SOL     OW 3817   5.202   0.876   1.088 -0.0978 -0.4294 -0.0324
 1013SOL    HW2 3818   5.206   0.781   1.104  0.8489 -0.1958  1.2108
 1013SOL    HW3 3819   5.276   0.894   1.030  0.0195 -0.3759  0.1339
 1013SOL    MW4 3820   5.212   0.866   1.082 -0.1939 -0.6652 -0.1486
 1014SOL     OW 3821   1.915   3.282   6.197 -0.6588 -0.4222 -0.3334
 1014SOL    HW2 3822   1.965   3.358   6.224 -0.8564  0.2626 -1.7942
 1014SOL    HW3 3823   1.886   3.241   6.279  1.0168 -0.0089  0.5053
 1014SOL    MW4 3824   1.918   3.286   6.211 -0.8337 -0.1854 -0.7782
 1015SOL     OW 3825   0.417   4.838   3.505 -0.0212  0.3788 -0.0538
 1015SOL    HW2 3826   0.444   4.815   3.416 -1.4023  1.3137 -0.7444
 1015SOL    HW3 3827   0.403   4.932   3.503 -1.1452  0.2546  0.8512
 1015SOL    MW4 3828   0.419   4.847   3.493 -0.0822  0.9060  0.6625
 1016SOL     OW 3829   0.972   3.434   4.817  0.8063  0.3724  0.5749
 1016SOL    HW2 3830   1.024   3.403   4.742 -1.9335 -1.6328 -0.6827
 1016SOL    HW3 3831   0.963   3.528   4.802  0.4375  0.0459 -1.6047
 1016SOL    MW4 3832   0.978   3.442   4.805  0.0022 -0.8543  0.2071
 1017SOL     OW 3833   0.660   0.494   2.223  0.4550 -0.0330 -0.3895
 1017SOL    HW2 3834   0.641   0.404   2.197 -4.0366  0.1283  1.4170
 1017SOL    HW3 3835   0.609   0.547   2.161 -0.1243  0.9975  0.9276
 1017SOL    MW4 3836   0.651   0.490   2.211 -0.2339 -0.9181 -0.3317
 1018SOL     OW 3837   2.774   6.329   1.116 -1.2296  0.3806 -0.1625
 1018SOL    HW2 3838   2.827   6.261   1.074 -1.3124  0.1768  0.0610
 1018SOL    HW3 3839   2.766   6.300   1.207 -0.9069  0.9052  0.0350
 1018SOL    MW4 3840   2.780   6.316   1.122  0.1672 -0.3027  0.7050
 1019SOL     OW 3841   6.408   2.868   2.563  0.2171  0.2994  0.5431
 1019SOL    HW2 3842   6.469   2.795   2.557  2.7350  2.1675  1.5517
 1019SOL    HW3 3843   6.349   2.845   2.635  1.0489 -0.6718  0.9335
 1019SOL    MW4 3844   6.408   2.856   2.571  0.3183  0.4542  0.1009
 1020SOL     OW 3845   0.618   2.625   5.908  0.0113  0.4244 -0.1029
 1020SOL    HW2 3846   0.569   2.698   5.870  1.9368  1.6260 -0.4140
 1020SOL    HW3 3847   0.688   2.608   5.845 -0.3810 -1.7348 -0.0342
 1020SOL    MW4 3848   0.621   2.633   5.895 -0.1181  0.3199  0.8349
 1021SOL     OW 3849   0.193   0.260   6.018  0.1097  0.5124 -0.5606
 1021SOL    HW2 3850   0.108   0.221   6.041  0.5590  0.3834  1.0369
 1021SOL    HW3 3851   0.232   0.198   5.957  0.3022 -1.0176  1.0182
 1021SOL    MW4 3852   0.187   0.246   6.013 -0.0464  0.2680 -0.0507
 1022SOL     OW 3853   2.163   0.843   6.282 -0.0010  0.0352 -1.0304
 1022SOL    HW2 3854   2.091   0.876   6.336 -1.3699 -0.7861 -2.2785
 1022SOL    HW3 3855   2.142   0.750   6.269  1.0944 -0.1300 -1.7377
 1022SOL    MW4 3856   2.151   0.835   6.288 -0.0149  0.2899 -0.1020
 1023SOL     OW 3857   5.661   5.374   3.751  0.4432  0.0810 -0.1987
 1023SOL    HW2 3858   5.637   5.299   3.805 -1.6802  0.7539 -0.1158
 1023SOL    HW3 3859   5.721   5.425   3.805  0.7808 -0.8305  0.2936
 1023SOL    MW4 3860   5.665   5.371   3.765 -0.2424 -0.0142  0.1045
 1024SOL     OW 3861   0.592   2.058   1.398 -0.7930 -0.1941  0.0115
 1024SOL    HW2 3862   0.567   1.988   1.458  1.3651  0.4167  1.7163
 1024SOL    HW3 3863   0.522   2.124   1.408 -1.0267 -0.5757  1.0407
 1024SOL    MW4 3864   0.579   2.058   1.407  0.0444  0.8924 -0.0304
 1025SOL     OW 3865   4.529   2.133   5.728 -0.3178  0.0305 -0.2987
 1025SOL    HW2 3866   4.441   2.152   5.694 -0.7976  0.4230  1.0607
 1025SOL    HW3 3867   4.578   2.103   5.652 -1.3392  0.7809 -1.3079
 1025SOL    MW4 3868   4.524   2.132   5.714  0.1596  0.1609 -0.2077
 1026SOL     OW 3869   3.717   5.681   2.231 -0.6427  0.6225 -0.3565
 1026SOL    HW2 3870   3.648   5.745   2.214 -1.2572 -0.6165 -3.0820
 1026SOL    HW3 3871   3.797   5.721   2.196 -0.5924  0.8100 -0.0238
 1026SOL    MW4 3872   3.718   5.695   2.224 -0.0619  0.6169 -0.3086
 1027SOL     OW 3873   3.767   4.300   1.975 -0.3605 -0.1387 -0.1497
 1027SOL    HW2 3874   3.729   4.377   2.018  1.7700  0.2158  1.2550
 1027SOL    HW3 3875   3.731   4.226   2.023  0.0101  0.1476  0.5867
 1027SOL    MW4 3876   3.757   4.301   1.987 -0.3847 -0.3015  0.3455
 1028SOL     OW 3877   3.464   2.130   4.826 -0.5550 -0.0117  0.1462
 1028SOL    HW2 3878   3.492   2.051   4.872 -1.2409  0.3122  1.1329
 1028SOL    HW3 3879   3.491   2.202   4.883  0.5492  0.5276 -0.9873
 1028SOL    MW4 3880   3.471   2.129   4.840 -0.2184  1.2268 -0.1757
 1029SOL     OW 3881   6.425   5.737   2.206  0.2137 -0.4470 -0.3188
 1029SOL    HW2 3882   6.487   5.787   2.259 -0.4058  0.3496 -0.3223
 1029SOL    HW3 3883   6.340   5.776   2.225 -0.5537 -2.5592  0.9284
 1029SOL    MW4 3884   6.422   5.749   2.216 -0.1306  0.3166  0.3137
 1030SOL     OW 3885   3.701   0.743   1.177  0.2308  0.2177  0.6629
 1030SOL    HW2 3886   3.669   0.666   1.225  0.1633  0.8894  1.7242
 1030SOL    HW3 3887   3.796   0.730   1.171 -0.1010 -1.8120 -2.5484
 1030SOL    MW4 3888   3.709   0.731   1.183 -0.3700  0.1912  0.6478
 1031SOL     OW 3889   2.689   2.421   1.594 -0.1154  0.1587 -0.2188
 1031SOL    HW2 3890   2.743   2.471   1.533 -1.3624 -1.0424 -2.4279
 1031SOL    HW3 3891   2.745   2.350   1.623  0.3519  0.4890 -0.3029
 1031SOL    MW4 3892   2.703   2.418   1.590  0.4354  0.4784 -0.1025
 1032SOL     OW 3893   5.081   2.977   4.141  0.0722  0.4434 -0.2419
 1032SOL    HW2 3894   5.101   2.885   4.152  1.6287  0.9774  1.9692
 1032SOL    HW3 3895   5.013   2.995   4.207  0.1215  0.9780 -0.3342
 1032SOL    MW4 3896   5.074   2.968   4.151  0.2142 -0.4012  0.2109
 1033SOL     OW 3897   0.330   4.439   5.598 -0.2938  0.9927 -0.5373
 1033SOL    HW2 3898   0.337   4.361   5.653  0.7246  0.8429 -0.8680
 1033SOL    HW3 3899   0.236   4.459   5.597 -0.3696  0.8601  1.0576
 1033SOL    MW4 3900   0.318   4.432   5.605 -0.0688 -0.1476 -0.3987
 1034SOL     OW 3901   0.337   1.862   1.006 -0.4317 -0.4859  0.3601
 1034SOL    HW2 3902   0.385   1.925   0.953  0.6070 -1.4024  0.1955
 1034SOL    HW3 3903   0.403   1.802   1.039 -1.2262 -0.6888  1.6583
 1034SOL    MW4 3904   0.352   1.862   1.004  0.2769  0.4361 -0.5149
 1035SOL     OW 3905   4.185   4.302   3.299  0.0469  0.1433 -0.0409
 1035SOL    HW2 3906   4.144   4.242   3.362 -0.3864  2.3404  1.9436
 1035SOL    HW3 3907   4.254   4.345   3.350  0.6080  1.0260 -1.5080
 1035SOL    MW4 3908   4.189   4.300   3.314  0.2929  0.6322  0.2541
 1036SOL     OW 3909   6.158   0.752   6.163  0.0577 -0.0902  0.1513
 1036SOL    HW2 3910   6.221   0.817   6.195 -0.2794  0.0226  0.5940
 1036SOL    HW3 3911   6.194   0.668   6.191 -0.5597  0.0436  1.4256
 1036SOL    MW4 3912   6.171   0.749   6.171  0.0046 -0.6592 -0.1559
 1037SOL     OW 3913   4.867   1.119   3.134 -0.6100  0.1485  0.0116
 1037SOL    HW2 3914   4.816   1.159   3.064 -0.4978 -0.5927 -0.4980
 1037SOL    HW3 3915   4.809   1.053   3.171  0.2342 -1.2456 -1.0891
 1037SOL    MW4 3916   4.853   1.116   3.130 -0.1349  0.1941 -0.4243
 1038SOL     OW 3917   1.036   1.519   5.944  0.5450 -0.1859 -0.6070
 1038SOL    HW2 3918   1.033   1.569   6.025  3.0584  0.2744 -0.7189
 1038SOL    HW3 3919   1.025   1.584   5.874 -0.1523 -0.3780 -0.6857
 1038SOL    MW4 3920   1.034   1.534   5.945 -0.0574  0.7091  0.3696
 1039SOL     OW 3921   4.455   0.210   6.116  0.3035 -0.1243 -0.0081
 1039SOL    HW2 3922   4.538   0.251   6.092 -0.5878  0.8663 -1.5425
 1039SOL    HW3 3923   4.423   0.263   6.189 -0.0534  0.9596 -0.9175
 1039SOL    MW4 3924   4.462   0.223   6.123 -0.5174  0.4018 -0.3668
 1040SOL     OW 3925   4.430   5.526   0.926 -0.0092 -0.7843  0.4034
 1040SOL    HW2 3926   4.497   5.459   0.915 -1.5446 -2.1461 -1.2448
 1040SOL    HW3 3927   4.395   5.539   0.838 -1.4529  0.3978  1.1100
 1040SOL    MW4 3928   4.435   5.519   0.913 -0.5565  0.3827 -0.4434
 1041SOL     OW 3929   1.112   1.379   4.441  0.4181  0.3795 -0.0844
 1041SOL    HW2 3930   1.197   1.418   4.422  0.2638  0.9291  0.3232
 1041SOL    HW3 3931   1.122   1.339   4.528  1.2489 -2.4940 -1.3997
 1041SOL    MW4 3932   1.125   1.379   4.450 -0.4018  0.0436  0.3813
 1042SOL     OW 3933   0.153   4.431   4.550  0.8405  0.3335  0.0453
 1042SOL    HW2 3934   0.078   4.416   4.492  1.3992  1.5843 -1.0566
 1042SOL    HW3 3935   0.148   4.360   4.615 -2.3481  1.3680  1.1349
 1042SOL    MW4 3936   0.142   4.420   4.551 -0.2634  0.4155 -0.2995
 1043SOL     OW 3937   1.643   4.114   2.961  0.5196 -0.0666 -0.2571
 1043SOL    HW2 3938   1.596   4.069   2.891  0.7170 -1.4912  0.5070
 1043SOL    HW3 3939   1.576   4.141   3.023  0.4548  0.2554 -0.4639
 1043SOL    MW4 3940   1.628   4.112   2.960 -0.0733  0.3178 -0.0548
 1044SOL     OW 3941   4.655   4.631   1.016 -0.1959  0.0675 -0.0894
 1044SOL    HW2 3942   4.610   4.711   1.041  2.1039  1.1632  0.8564
 1044SOL    HW3 3943   4.703   4.653   0.936  0.9552 -0.1294  0.5222
 1044SOL    MW4 3944   4.656   4.644   1.009  0.3974  0.1074 -0.1083
 1045SOL     OW 3945   1.771   3.993   1.407 -0.2333 -0.1794  0.2923
 1045SOL    HW2 3946   1.817   4.049   1.344  0.4178 -1.2261 -0.2075
 1045SOL    HW3 3947   1.756   3.911   1.358 -0.8660 -0.5494  1.0949
 1045SOL    MW4 3948   1.775   3.989   1.392  0.5259 -0.3139  0.8461
 1046SOL     OW 3949   0.498   5.587   4.585  0.3700  0.5613 -0.1421
 1046SOL    HW2 3950   0.564   5.647   4.549  0.5535 -0.0596 -0.8498
 1046SOL    HW3 3951   0.538   5.553   4.665  0.1622  1.5610  0.4116
 1046SOL    MW4 3952   0.512   5.591   4.591 -0.0866  0.5333 -0.7405
 1047SOL     OW 3953   4.474   0.372   2.284  0.1830 -0.1808 -0.1231
 1047SOL    HW2 3954   4.397   0.401   2.334 -0.1896 -1.2561 -0.0318
 1047SOL    HW3 3955   4.540   0.439   2.300 -1.4090  1.9384 -1.9882
 1047SOL    MW4 3956   4.472   0.385   2.293  0.1819 -0.3266  0.2183
 1048SOL     OW 3957   3.795   4.800   2.080  0.2064  0.5208 -0.4881
 1048SOL    HW2 3958   3.726   4.861   2.107 -2.0457 -1.8924 -0.3117
 1048SOL    HW3 3959   3.848   4.788   2.159 -1.1158  0.0643  0.3677
 1048SOL    MW4 3960   3.793   4.806   2.094  0.5001  0.8153  0.3395
 1049SOL     OW 3961   5.098   4.349   6.239 -0.5929 -0.1458  0.0882
 1049SOL    HW2 3962   5.192   4.346   6.220 -0.8301 -0.3413 -1.1072
 1049SOL    HW3 3963   5.091   4.411   6.312  0.3080  1.1508 -0.8790
 1049SOL    MW4 3964   5.110   4.357   6.246 -0.1692  0.3319 -0.2214
 1050SOL     OW 3965   5.064   6.027   3.441 -0.2300  0.1066 -0.0703
 1050SOL    HW2 3966   5.063   5.998   3.350 -0.4220 -0.7933  0.2148
 1050SOL    HW3 3967   5.079   5.948   3.492  0.2506  0.6566  0.6691
 1050SOL    MW4 3968   5.066   6.013   3.436 -0.0609 -0.6349 -0.1847
 1051SOL     OW 3969   4.145   6.080   5.741  0.0465 -0.0005  0.1254
 1051SOL    HW2 3970   4.107   5.996   5.714 -2.1380  1.2245 -0.7936
 1051SOL    HW3 3971   4.213   6.097   5.675  0.4054 -0.9382  0.2295
 1051SOL    MW4 3972   4.149   6.071   5.728 -0.2718  0.1000  0.4298
 1052SOL     OW 3973   4.815   5.060   3.607 -0.6638 -0.6162 -0.2804
 1052SOL    HW2 3974   4.768   5.075   3.689 -1.2594 -1.0985 -0.5149
 1052SOL    HW3 3975   4.806   5.142   3.559 -1.3244 -0.7113 -0.3367
 1052SOL    MW4 3976   4.807   5.073   3.611 -0.6136 -0.4103 -0.6522
 1053SOL     OW 3977   1.809   2.490   2.570 -0.2686  0.1611  0.1357
 1053SOL    HW2 3978   1.785   2.560   2.509 -1.8952  0.4534  1.0585
 1053SOL    HW3 3979   1.843   2.420   2.513 -1.0444  0.7105 -1.0521
 1053SOL    MW4 3980   1.811   2.490   2.554 -0.4660 -0.6398  0.2790
 1054SOL     OW 3981   1.585   3.587   3.582 -0.3760  0.2140  0.3332
 1054SOL    HW2 3982   1.569   3.509   3.636  0.4809 -1.6550 -1.9306
 1054SOL    HW3 3983   1.498   3.623   3.565 -0.9972 -1.4168 -0.1484
 1054SOL    MW4 3984   1.571   3.581   3.587 -0.1977 -0.5607 -0.5439
 1055SOL     OW 3985   0.615   1.313   2.842 -0.1051 -0.2330  0.3205
 1055SOL    HW2 3986   0.570   1.268   2.913 -1.4667 -0.5515 -0.6934
 1055SOL    HW3 3987   0.654   1.244   2.789 -2.6808 -0.3865 -1.5592
 1055SOL    MW4 3988   0.614   1.298   2.844 -0.1502 -0.4966 -0.4906
 1056SOL     OW 3989   5.975   0.801   1.940 -0.3184 -0.2241  0.4184
 1056SOL    HW2 3990   6.027   0.835   1.867 -0.4554  0.0245  0.4393
 1056SOL    HW3 3991   5.929   0.726   1.903 -2.4510  1.4528 -0.4885
 1056SOL    MW4 3992   5.976   0.795   1.926 -0.2244  0.6613  0.6893
 1057SOL     OW 3993   3.080   4.185   3.652  0.3131  0.0727  0.0773
 1057SOL    HW2 3994   3.087   4.168   3.746 -1.2519 -1.0560  0.0428
 1057SOL    HW3 3995   3.030   4.266   3.646  2.8124  1.7310  0.1875
 1057SOL    MW4 3996   3.074   4.193   3.664  0.2242  0.1203 -0.1013
 1058SOL     OW 3997   1.020   2.126   6.303  0.1869  0.0714  0.1712
 1058SOL    HW2 3998   1.100   2.113   6.354 -0.1583 -1.3234  0.4074
 1058SOL    HW3 3999   0.976   2.041   6.306 -0.4391  0.3028 -1.4424
 1058SOL    MW4 4000   1.025   2.113   6.310 -0.1344  0.6397 -0.4146
 1059SOL     OW 4001   2.492   2.045   4.863 -0.0516 -0.1765 -0.1590
 1059SOL    HW2 4002   2.400   2.034   4.840 -0.2521 -1.2902  1.0580
 1059SOL    HW3 4003   2.530   1.958   4.857 -0.2043 -0.7178  3.6774
 1059SOL    MW4 4004   2.485   2.032   4.859  0.8911 -0.3409  0.3407
 1060SOL     OW 4005   2.875   1.099   3.883  0.6901  0.1660  0.5506
 1060SOL    HW2 4006   2.813   1.107   3.955 -3.5316  2.3723 -2.7908
 1060SOL    HW3 4007   2.856   1.014   3.844  0.3717  0.4513  0.0646
 1060SOL    MW4 4008   2.864   1.089   3.887  0.0477  0.3685  0.5951
 1061SOL     OW 4009   1.785   4.958   2.611  0.3790 -0.0707  0.0820
 1061SOL    HW2 4010   1.730   4.902   2.666 -0.1692  1.6845  1.3746
 1061SOL    HW3 4011   1.776   4.920   2.523 -3.2242  0.3340  0.1340
 1061SOL    MW4 4012   1.776   4.945   2.607 -0.2134 -0.1730 -0.0692
 1062SOL     OW 4013   6.333   4.843   4.994 -0.0474 -0.0371 -0.3269
 1062SOL    HW2 4014   6.295   4.882   4.916 -1.3799 -0.9026 -0.1583
 1062SOL    HW3 4015   6.300   4.753   4.993 -1.2098  0.2959  1.8989
 1062SOL    MW4 4016   6.324   4.836   4.984 -0.1881 -0.3736 -0.5381
 1063SOL     OW 4017   1.657   2.953   3.659 -0.2083  0.4172 -0.1249
 1063SOL    HW2 4018   1.686   2.895   3.589  0.5231 -0.5869  0.9598
 1063SOL    HW3 4019   1.659   3.041   3.621 -0.7680 -0.1820 -1.6307
 1063SOL    MW4 4020   1.661   2.957   3.645  0.4108 -0.4416  0.0287
 1064SOL     OW 4021   4.716   4.853   2.065  0.0119 -0.0078  0.5175
 1064SOL    HW2 4022   4.677   4.774   2.027  0.6761 -1.6833  3.0473
 1064SOL    HW3 4023   4.803   4.859   2.025 -0.1423 -0.4079  0.1157
 1064SOL    MW4 4024   4.722   4.844   2.055 -0.4933  0.2867 -0.8393
 1065SOL     OW 4025   2.462   0.717   6.103  0.1806  0.0621 -0.2903
 1065SOL    HW2 4026   2.476   0.801   6.060 -1.6479 -0.2050 -1.5036
 1065SOL    HW3 4027   2.508   0.653   6.049 -0.1702  0.0250 -0.5476
 1065SOL    MW4 4028   2.470   0.719   6.090 -0.3346  0.3959  0.3503
 1066SOL     OW 4029   0.501   0.488   0.458 -0.1305 -0.8333  0.3741
 1066SOL    HW2 4030   0.544   0.486   0.373 -1.2220 -1.2368 -0.1880
 1066SOL    HW3 4031   0.407   0.481   0.438 -0.3375 -2.2020  1.6608
 1066SOL    MW4 4032   0.494   0.487   0.445 -0.4750 -0.2794  0.6378
 1067SOL     OW 4033   4.673   0.020   0.155  0.1527 -0.5250  0.3487
 1067SOL    HW2 4034   4.663   0.070   0.236 -0.5067  0.2107 -0.1693
 1067SOL    HW3 4035   4.608   0.058   0.095  2.0144  0.3478 -1.2114
 1067SOL    MW4 4036   4.663   0.032   0.157  0.0297 -0.7747  0.2400
 1068SOL     OW 4037   6.285   4.030   6.101  0.2587  0.3469 -0.0446
 1068SOL    HW2 4038   6.358   4.007   6.159  1.5306  0.5714 -1.4738
 1068SOL    HW3 4039   6.307   3.987   6.018 -1.3607  0.2646 -0.4571
 1068SOL    MW4 4040   6.298   4.021   6.098  0.5767  0.1946 -0.0092
 1069SOL     OW 4041   0.812   3.829   5.499  0.4230  0.2593 -0.1776
 1069SOL    HW2 4042   0.782   3.910   5.460 -2.2011 -0.7500 -0.4581
 1069SOL    HW3 4043   0.776   3.760   5.442  3.4836 -1.1532 -0.6055
 1069SOL    MW4 4044   0.803   3.830   5.486 -0.3992 -0.5034  0.1566
 1070SOL     OW 4045   3.946   6.053   3.345 -0.1506  0.1679  0.3764
 1070SOL    HW2 4046   3.931   6.145   3.367 -2.2916 -0.3737  1.3965
 1070SOL    HW3 4047   3.918   6.046   3.254 -0.6313  0.4024  0.5001
 1070SOL    MW4 4048   3.940   6.064   3.336 -0.3681 -0.1380 -0.4287
 1071SOL     OW 4049   0.119   0.366   2.102 -0.1022  0.1800  0.3379
 1071SOL    HW2 4050   0.061   0.441   2.115 -2.9207 -1.7322 -0.2385
 1071SOL    HW3 4051   0.146   0.372   2.010 -0.2168  0.5388  0.3260
 1071SOL    MW4 4052   0.115   0.376   2.091  0.1118  1.0087  0.7550
 1072SOL     OW 4053   4.800   1.141   1.071 -0.0991  1.0677  0.0032
 1072SOL    HW2 4054   4.836   1.053   1.064 -0.5790  0.8658  0.0243
 1072SOL    HW3 4055   4.733   1.134   1.140  1.3119  1.9229  1.5234
 1072SOL    MW4 4056   4.796   1.128   1.079  0.1852 -0.5125  0.0821
 1073SOL     OW 4057   2.172   1.625   2.598 -0.3785  0.0426 -0.1367
 1073SOL    HW2 4058   2.128   1.652   2.678 -1.4128 -1.9370  0.0379
 1073SOL    HW3 4059   2.159   1.697   2.537  2.0198  2.4250  1.9536
 1073SOL    MW4 4060   2.164   1.638   2.601 -0.1923 -0.5035 -0.2456
 1074SOL     OW 4061   6.354   3.531   6.383 -0.2255 -0.0374  0.1373
 1074SOL    HW2 4062   6.350   3.625   6.402  2.7510  0.5178 -1.4178
 1074SOL    HW3 4063   6.286   3.517   6.318 -0.1247  1.2648 -0.2862
 1074SOL    MW4 4064   6.345   3.542   6.377  0.2322 -0.5780 -0.3651
 1075SOL     OW 4065   1.946   0.843   4.847 -0.5303 -0.2695 -0.6963
 1075SOL    HW2 4066   1.918   0.869   4.760 -0.8411  1.1089 -0.1986
 1075SOL    HW3 4067   1.971   0.924   4.890 -2.2585 -0.6342  1.1683
 1075SOL    MW4 4068   1.946   0.857   4.841  0.6554 -0.3597 -0.0713
 1076SOL     OW 4069   5.109   5.575   3.423 -0.2182  0.4195  0.3118
 1076SOL    HW2 4070   5.131   5.482   3.414 -0.0702  0.3130  1.6304
 1076SOL    HW3 4071   5.158   5.618   3.353  1.1827 -0.2923  0.8138
 1076SOL    MW4 4072   5.119   5.568   3.413 -0.2220 -0.0253  0.6911
 1077SOL     OW 4073   0.456   2.901   3.636 -0.1455 -0.4730  0.2070
 1077SOL    HW2 4074   0.406   2.974   3.673 -0.3371  0.4723 -1.8089
 1077SOL    HW3 4075   0.542   2.938   3.618  0.2764 -1.2094  0.6670
 1077SOL    MW4 4076   0.461   2.915   3.639 -0.1741 -0.0392 -0.5039
 1078SOL     OW 4077   3.075   1.908   0.188 -0.3670 -0.1114 -0.8447
 1078SOL    HW2 4078   3.056   1.996   0.158 -0.5399  0.3554  0.5497
 1078SOL    HW3 4079   3.042   1.905   0.278 -0.3107 -1.5750 -0.8355
 1078SOL    MW4 4080   3.068   1.919   0.196 -0.2611  0.0486  0.5643
 1079SOL     OW 4081   0.456   1.587   5.932 -0.0652 -0.2655  0.5098
 1079SOL    HW2 4082   0.519   1.626   5.992  0.8878  0.8464 -1.1233
 1079SOL    HW3 4083   0.381   1.647   5.933 -0.9122 -1.2743  1.9969
 1079SOL    MW4 4084   0.454   1.600   5.940 -0.2748  0.2816 -0.2729
 1080SOL     OW 4085   2.529   1.516   4.710  0.7989 -0.2301  0.0212
 1080SOL    HW2 4086   2.601   1.471   4.754  1.0980  0.0856 -0.1462
 1080SOL    HW3 4087   2.571   1.581   4.655  0.3251  1.0757  1.1543
 1080SOL    MW4 4088   2.544   1.518   4.708 -1.1416 -0.1174  0.2026
 1081SOL     OW 4089   0.621   3.126   4.067 -0.3316 -0.7467  0.3506
 1081SOL    HW2 4090   0.592   3.215   4.086  0.7577 -0.5017  0.9117
 1081SOL    HW3 4091   0.543   3.072   4.080 -1.2322  0.2023 -0.8246
 1081SOL    MW4 4092   0.607   3.131   4.071 -0.1094  0.0111 -0.2092
 1082SOL     OW 4093   2.621   2.190   5.086  0.3788  0.2709 -0.1767
 1082SOL    HW2 4094   2.592   2.144   5.164  2.3143  0.0373  0.4509
 1082SOL    HW3 4095   2.578   2.144   5.013 -0.4905 -0.2545  0.6480
 1082SOL    MW4 4096   2.611   2.178   5.086  0.6159 -0.5376 -0.1370
 1083SOL     OW 4097   2.144   4.903   2.028  0.0594  0.0014 -0.0689
 1083SOL    HW2 4098   2.075   4.953   2.072  0.2215  1.2083 -1.1396
 1083SOL    HW3 4099   2.218   4.964   2.022  0.4318 -0.5204 -0.9594
 1083SOL    MW4 4100   2.145   4.918   2.033 -0.9050 -0.6383  0.1167
 1084SOL     OW 4101   3.630   2.292   2.975 -0.5871  0.1006  0.4295
 1084SOL    HW2 4102   3.641   2.387   2.970 -0.1889  0.0935  1.1339
 1084SOL    HW3 4103   3.625   2.264   2.883  1.4152  0.5608  0.1267
 1084SOL    MW4 4104   3.631   2.300   2.962 -0.1419  0.0550  0.1987
 1085SOL     OW 4105   6.093   6.156   0.922 -0.2192 -0.0760 -0.4689
 1085SOL    HW2 4106   6.052   6.205   0.850 -1.1545 -1.3198 -0.8253
 1085SOL    HW3 4107   6.149   6.220   0.966 -3.9866  2.4559  1.3087
 1085SOL    MW4 4108   6.095   6.171   0.918 -0.0166  0.1043 -0.3406
 1086SOL     OW 4109   1.789   4.519   5.889  0.6534  0.1885  0.4182
 1086SOL    HW2 4110   1.695   4.505   5.878  0.8371 -0.0937 -1.0621
 1086SOL    HW3 4111   1.813   4.469   5.966 -0.6377  1.3586  1.6385
 1086SOL    MW4 4112   1.780   4.511   5.898  0.4971  0.4964 -0.0848
 1087SOL     OW 4113   2.247   0.429   5.839 -0.4067 -0.0643 -0.3512
 1087SOL    HW2 4114   2.177   0.368   5.863  0.8671 -1.8619 -0.9639
 1087SOL    HW3 4115   2.207   0.488   5.775 -1.5859 -0.4770 -0.0177
 1087SOL    MW4 4116   2.232   0.429   5.834 -0.3631 -0.2652 -0.1680
 1088SOL     OW 4117   3.573   1.558   0.789  0.0922  0.2984  0.2348
 1088SOL    HW2 4118   3.491   1.602   0.811 -0.0948 -0.7309  1.7531
 1088SOL    HW3 4119   3.557   1.519   0.703 -0.8554  0.4735  0.3187
 1088SOL    MW4 4120   3.560   1.559   0.781 -0.0991  0.0344  0.0712
 1089SOL     OW 4121   3.490   3.159   0.402 -0.2484 -0.1303  0.7282
 1089SOL    HW2 4122   3.462   3.219   0.471 -0.4923  0.9109 -0.2484
 1089SOL    HW3 4123   3.458   3.073   0.430 -1.3260  0.4583  1.3530
 1089SOL    MW4 4124   3.482   3.155   0.415  0.3248  0.3694 -0.1915
 1090SOL     OW 4125   2.810   1.820   0.059  0.3875  0.3315  0.2248
 1090SOL    HW2 4126   2.719   1.827   0.029  0.9570  0.3394 -1.6519
 1090SOL    HW3 4127   2.855   1.775  -0.013  1.5735 -1.1074  1.7880
 1090SOL    MW4 4128   2.804   1.815   0.045 -0.4959  0.5664  0.1196
 1091SOL     OW 4129   5.806   2.336   0.033 -0.5343  0.2159  0.7776
 1091SOL    HW2 4130   5.834   2.350  -0.058 -0.7810  1.5759  0.9011
 1091SOL    HW3 4131   5.887   2.328   0.082 -0.3247  2.1330  0.8202
 1091SOL    MW4 4132   5.820   2.337   0.027  0.0307 -0.1532 -0.1503
 1092SOL     OW 4133   4.348   5.559   0.670  0.7491  0.8055  0.0947
 1092SOL    HW2 4134   4.256   5.560   0.644  1.3934  2.4623 -2.5168
 1092SOL    HW3 4135   4.393   5.519   0.596  2.1683  0.1717  1.2584
 1092SOL    MW4 4136   4.342   5.554   0.657  0.2449  0.2766 -0.3619
 1093SOL     OW 4137   3.851   3.556   1.526 -0.1229 -0.5353 -0.2698
 1093SOL    HW2 4138   3.821   3.618   1.592 -0.8433 -1.8188  0.6670
 1093SOL    HW3 4139   3.945   3.570   1.521 -0.2313  0.4293  0.1278
 1093SOL    MW4 4140   3.860   3.566   1.534 -0.0888  0.0662 -0.9472
 1094SOL     OW 4141   5.238   1.286   0.982 -0.1046  0.5611 -0.1039
 1094SOL    HW2 4142   5.246   1.355   0.916 -0.4994  0.9079  0.2135
 1094SOL    HW3 4143   5.205   1.210   0.933 -1.8998  1.2541 -0.0433
 1094SOL    MW4 4144   5.235   1.285   0.967  0.9079 -0.5160  0.3371
 1095SOL     OW 4145   2.709   6.182   3.665 -0.1736 -0.0503 -0.0260
 1095SOL    HW2 4146   2.791   6.190   3.617 -0.6267 -0.4342 -0.8860
 1095SOL    HW3 4147   2.670   6.270   3.660  1.3342  0.9034  2.6130
 1095SOL    MW4 4148   2.714   6.195   3.658 -0.1888 -0.1086 -0.2985
 1096SOL     OW 4149   4.553   2.474   0.739  0.4564 -0.1312 -0.2925
 1096SOL    HW2 4150   4.622   2.500   0.679  0.5804  0.1767 -0.0204
 1096SOL    HW3 4151   4.491   2.547   0.739  1.5736  0.8872  1.6396
 1096SOL    MW4 4152   4.554   2.487   0.731 -0.6400 -0.3752  0.8232
 1097SOL     OW 4153   1.066   5.907   6.376 -0.3928 -0.0511 -0.3350
 1097SOL    HW2 4154   0.994   5.927   6.316  0.3803 -0.1299 -1.3207
 1097SOL    HW3 4155   1.123   5.984   6.371  0.3352 -0.6020 -0.7106
 1097SOL    MW4 4156   1.064   5.920   6.367  0.2802 -0.1148  0.1020
 1098SOL     OW 4157   6.348   4.472   3.132  0.3061  0.1747 -0.1014
 1098SOL    HW2 4158   6.320   4.484   3.222 -0.9319  1.1028 -0.5759
 1098SOL    HW3 4159   6.364   4.561   3.100 -0.5952 -0.0282 -1.1891
 1098SOL    MW4 4160   6.347   4.486   3.139  0.0878 -0.1611  0.3741
 1099SOL     OW 4161   3.552   0.278   6.282  0.0301 -0.4156 -0.5015
 1099SOL    HW2 4162   3.534   0.366   6.316 -1.8150 -0.6442 -0.7593
 1099SOL    HW3 4163   3.613   0.240   6.344  1.0184  1.1100 -0.4880
 1099SOL    MW4 4164   3.558   0.285   6.295  0.6393 -0.1022  0.4742
 1100SOL     OW 4165   5.805   5.007   4.346  0.2925 -0.0530 -0.0146
 1100SOL    HW2 4166   5.710   5.004   4.343  0.2399 -0.1679  1.3591
 1100SOL    HW3 4167   5.826   5.099   4.361  0.2442 -0.3965  2.6899
 1100SOL    MW4 4168   5.796   5.019   4.348 -0.7364  0.3303  0.1327
 1101SOL     OW 4169   3.753   5.524   2.002  0.0217  0.5373  0.4523
 1101SOL    HW2 4170   3.731   5.552   2.091  0.4199 -1.7192  1.3316
 1101SOL    HW3 4171   3.823   5.460   2.014  0.3350  0.4438 -1.5374
 1101SOL    MW4 4172   3.759   5.519   2.015 -0.2817 -0.0670  0.1174
 1102SOL     OW 4173   0.193   0.310   3.648 -0.1826  0.3120  0.4125
 1102SOL    HW2 4174   0.165   0.401   3.640  1.6528  1.0539  1.6607
 1102SOL    HW3 4175   0.122   0.266   3.694 -1.0323  1.1305 -0.0880
 1102SOL    MW4 4176   0.180   0.316   3.653  0.0775 -0.1388  0.2839
 1103SOL     OW 4177   0.642   5.621   0.997  0.0988 -0.0238 -0.2106
 1103SOL    HW2 4178   0.677   5.651   1.081  0.5006 -1.3484  0.1074
 1103SOL    HW3 4179   0.678   5.533   0.985  0.8871  0.5212 -2.2664
 1103SOL    MW4 4180   0.651   5.613   1.006 -0.4980  0.3889 -0.0991
 1104SOL     OW 4181   1.090   0.977   4.644  0.0631 -0.0461  0.4614
 1104SOL    HW2 4182   1.142   0.958   4.722 -1.7903  0.2193  1.8478
 1104SOL    HW3 4183   1.007   0.930   4.658 -0.2201 -0.2399 -1.5170
 1104SOL    MW4 4184   1.086   0.968   4.656  0.4956  0.1468  0.2803
 1105SOL     OW 4185   4.077   0.759   4.430  0.0961  0.3242  0.4747
 1105SOL    HW2 4186   4.112   0.691   4.488  0.8012 -0.3284 -0.6756
 1105SOL    HW3 4187   3.987   0.772   4.460 -0.1721 -1.3763  0.4941
 1105SOL    MW4 4188   4.070   0.752   4.442 -0.5914 -0.4477  0.0111
 1106SOL     OW 4189   2.472   0.583   0.066  0.0740  0.1128  0.1093
 1106SOL    HW2 4190   2.438   0.560   0.152 -0.0180 -0.3702 -0.0542
 1106SOL    HW3 4191   2.563   0.610   0.081 -0.5456  2.0790  0.6530
 1106SOL    MW4 4192   2.479   0.584   0.079 -0.2016 -0.3030  0.2403
 1107SOL     OW 4193   1.867   5.952   4.389  0.5082 -0.1388 -0.3929
 1107SOL    HW2 4194   1.804   5.895   4.343  0.3167  1.4207 -2.2140
 1107SOL    HW3 4195   1.823   5.975   4.471 -0.3739 -0.8019 -0.6641
 1107SOL    MW4 4196   1.853   5.947   4.394 -0.0933 -0.4414 -0.2638
 1108SOL     OW 4197   2.425   0.839   1.720 -1.0573  0.5502 -0.6247
 1108SOL    HW2 4198   2.377   0.793   1.789  0.6879  2.1060  1.7833
 1108SOL    HW3 4199   2.405   0.790   1.640 -3.0700 -1.4446  0.9789
 1108SOL    MW4 4200   2.416   0.826   1.719 -0.2920  0.5582 -0.4326
 1109SOL     OW 4201   0.680   5.572   2.080 -0.0008 -0.5978  0.8913
 1109SOL    HW2 4202   0.683   5.647   2.140  1.6037 -0.7490  1.0296
 1109SOL    HW3 4203   0.709   5.498   2.133  2.3147 -0.5854 -0.2454
 1109SOL    MW4 4204   0.684   5.572   2.095  0.7763  0.2466  0.3151
 1110SOL     OW 4205   5.561   0.668   0.033  0.0170 -0.2037 -0.2325
 1110SOL    HW2 4206   5.636   0.716   0.069 -0.8603  0.4655  0.7655
 1110SOL    HW3 4207   5.579   0.663  -0.061  0.6234  1.2183 -0.2275
 1110SOL    MW4 4208   5.573   0.674   0.025  0.1720 -0.6175 -0.2457
 1111SOL     OW 4209   2.563   4.940   5.621  0.5122  0.7463 -0.4562
 1111SOL    HW2 4210   2.493   4.948   5.686  0.8251  1.3101 -0.1868
 1111SOL    HW3 4211   2.587   4.847   5.624  0.3327  0.7139  0.0260
 1111SOL    MW4 4212   2.557   4.929   5.630 -0.0363  0.3415 -0.3237
 1112SOL     OW 4213   4.126   3.453   1.451  0.5951 -0.3412 -0.6927
 1112SOL    HW2 4214   4.068   3.453   1.376 -0.8454 -0.3393  0.3800
 1112SOL    HW3 4215   4.175   3.371   1.444 -1.9722 -2.0526  0.1444
 1112SOL    MW4 4216   4.125   3.442   1.441 -0.5459 -0.1373  0.6119
 1113SOL     OW 4217   3.121   2.888   0.244  0.2836  0.5630 -0.1959
 1113SOL    HW2 4218   3.161   2.827   0.306  1.6826  0.6641 -0.9683
 1113SOL    HW3 4219   3.124   2.842   0.160 -1.3283  0.5451 -0.2775
 1113SOL    MW4 4220   3.127   2.874   0.241  0.1579 -0.3637  0.0497
 1114SOL     OW 4221   3.487   3.920   1.198  0.2756  0.1825 -0.5634
 1114SOL    HW2 4222   3.448   3.952   1.279 -1.0462  1.5116 -1.6678
 1114SOL    HW3 4223   3.582   3.924   1.213  0.0641  1.4156  0.5341
 1114SOL    MW4 4224   3.495   3.925   1.211 -0.3158  0.0444 -0.2387
 1115SOL     OW 4225   4.360   5.472   1.336 -0.6896 -0.2017  0.0323
 1115SOL    HW2 4226   4.451   5.462   1.363 -0.4494  1.0068 -0.3050
 1115SOL    HW3 4227   4.312   5.488   1.417 -0.3114  1.0737  0.0226
 1115SOL    MW4 4228   4.366   5.472   1.350  0.0767  0.0039  0.3438
 1116SOL     OW 4229   2.443   4.974   4.370 -0.0716  0.1897 -0.0638
 1116SOL    HW2 4230   2.530   4.973   4.331 -0.5409  2.8030 -1.3768
 1116SOL    HW3 4231   2.388   4.927   4.306  0.3068 -1.5193  0.7975
 1116SOL    MW4 4232   2.447   4.967   4.356  0.0120 -0.0464  0.3705
 1117SOL     OW 4233   6.277   5.581   3.448  0.3651  0.4776  0.1608
 1117SOL    HW2 4234   6.232   5.548   3.526 -1.3217 -2.3948 -1.8476
 1117SOL    HW3 4235   6.236   5.665   3.430 -0.4990  0.3306  1.3381
 1117SOL    MW4 4236   6.266   5.588   3.456  0.0272  0.0101  0.4214
 1118SOL     OW 4237   1.479   2.076   0.629  0.2225  0.2459 -0.7025
 1118SOL    HW2 4238   1.430   2.000   0.598  0.0715  0.1117 -0.1501
 1118SOL    HW3 4239   1.567   2.041   0.648 -0.1825 -0.0743  0.7142
 1118SOL    MW4 4240   1.484   2.061   0.628 -0.0725  0.2163 -0.0217
 1119SOL     OW 4241   3.973   4.476   3.370  0.1942 -0.4118  0.3804
 1119SOL    HW2 4242   4.032   4.551   3.361 -1.4459  0.8454 -0.6435
 1119SOL    HW3 4243   4.030   4.399   3.363  1.9370  0.7091  1.5077
 1119SOL    MW4 4244   3.988   4.476   3.368  0.0707  0.2903 -0.6303
 1120SOL     OW 4245   0.032   3.319   4.613 -0.7986 -0.6222  0.1623
 1120SOL    HW2 4246   0.110   3.373   4.624 -2.1709  1.2264  1.4889
 1120SOL    HW3 4247  -0.041   3.381   4.617 -2.3836 -2.3303 -0.5289
 1120SOL    MW4 4248   0.033   3.334   4.615  0.1613 -0.6087  0.3020
 1121SOL     OW 4249   4.255   4.486   4.166  0.0326  0.0203 -0.4577
 1121SOL    HW2 4250   4.253   4.426   4.240 -0.8049 -0.4315 -0.8244
 1121SOL    HW3 4251   4.231   4.431   4.091  0.0321  0.6473 -0.9248
 1121SOL    MW4 4252   4.251   4.471   4.166 -0.1166 -0.2734  0.3838
 1122SOL     OW 4253   0.674   0.546   3.120  0.5303  0.3794  0.2285
 1122SOL    HW2 4254   0.753   0.550   3.066  0.4402  1.2467  0.1503
 1122SOL    HW3 4255   0.643   0.456   3.109  0.6810  0.4446 -0.9447
 1122SOL    MW4 4256   0.680   0.535   3.111  0.2849 -0.2155 -0.0343
 1123SOL     OW 4257   0.419   1.841   5.247 -0.3078  0.1428 -0.0710
 1123SOL    HW2 4258   0.450   1.880   5.329  0.2396  2.2996 -1.2335
 1123SOL    HW3 4259   0.330   1.876   5.236 -0.0475  0.5682 -0.8307
 1123SOL    MW4 4260   0.411   1.851   5.257 -0.4650  0.4615 -0.3347
 1124SOL     OW 4261   5.330   3.594   5.683  0.2195 -0.3477  0.0163
 1124SOL    HW2 4262   5.304   3.637   5.602  0.8284 -2.5418 -1.4276
 1124SOL    HW3 4263   5.422   3.617   5.694  0.6012 -1.3693 -0.8633
 1124SOL    MW4 4264   5.338   3.602   5.674  0.0676  0.1372  0.0444
 1125SOL     OW 4265   0.806   3.511   0.400  0.0335 -0.4054  0.2816
 1125SOL    HW2 4266   0.811   3.502   0.305  0.4778  0.2964  0.2320
 1125SOL    HW3 4267   0.882   3.464   0.433  0.7113  0.5936  0.1925
 1125SOL    MW4 4268   0.816   3.504   0.392 -0.0670 -0.3292 -0.3180
 1126SOL     OW 4269   3.252   0.358   3.967  0.2426  0.7437 -0.4456
 1126SOL    HW2 4270   3.266   0.387   3.877  1.4884  0.0241 -0.5067
 1126SOL    HW3 4271   3.161   0.383   3.987  0.4770  2.4128 -1.3081
 1126SOL    MW4 4272   3.241   0.365   3.958 -0.0543  0.6585 -0.4025
 1127SOL     OW 4273   4.324   5.286   4.445  0.4205 -0.2818  0.0172
 1127SOL    HW2 4274   4.242   5.335   4.445  0.4040 -0.2346 -1.8976
 1127SOL    HW3 4275   4.385   5.341   4.396  1.4643 -0.5544  0.9647
 1127SOL    MW4 4276   4.321   5.300   4.438  0.1908 -0.2677 -0.2558
 1128SOL     OW 4277   1.075   6.363   0.733  0.4154  0.4434 -0.2082
 1128SOL    HW2 4278   1.135   6.357   0.659  0.3174  0.3488 -0.2807
 1128SOL    HW3 4279   0.989   6.379   0.693  0.6131  2.1138 -0.0475
 1128SOL    MW4 4280   1.071   6.364   0.718  0.3815 -0.5104 -0.5912
 1129SOL     OW 4281   0.528   0.556   6.207 -0.1470 -0.0440  0.1060
 1129SOL    HW2 4282   0.591   0.579   6.276 -1.9229  1.3371  1.3784
 1129SOL    HW3 4283   0.546   0.619   6.137 -0.6326  0.9245  0.8221
 1129SOL    MW4 4284   0.539   0.567   6.207  0.2723 -0.0406  0.0853
 1130SOL     OW 4285   1.747   0.140   5.597 -0.2588 -0.6205  0.2168
 1130SOL    HW2 4286   1.782   0.203   5.533 -2.2689 -1.2533 -1.6307
 1130SOL    HW3 4287   1.782   0.056   5.569  1.1182 -0.5797  1.7120
 1130SOL    MW4 4288   1.756   0.137   5.585 -0.3742  0.1840  0.3101
 1131SOL     OW 4289   2.504   2.506   1.818 -0.3503  0.0897  0.0370
 1131SOL    HW2 4290   2.417   2.477   1.791 -0.0302 -0.4115 -0.5033
 1131SOL    HW3 4291   2.559   2.489   1.741  0.4260 -0.5653  0.7146
 1131SOL    MW4 4292   2.500   2.500   1.804 -0.0148 -0.5036 -0.3564
 1132SOL     OW 4293   5.670   6.105   0.883 -0.4826  0.2878 -0.1784
 1132SOL    HW2 4294   5.726   6.059   0.820 -1.2305  1.3173 -1.6610
 1132SOL    HW3 4295   5.731   6.159   0.933  0.2381 -1.2665  0.6717
 1132SOL    MW4 4296   5.686   6.106   0.881  0.1248  0.2818  0.0867
 1133SOL     OW 4297   4.012   0.916   4.991  0.5954 -0.1587 -0.2793
 1133SOL    HW2 4298   4.080   0.949   4.933  1.0759  0.8793  0.8370
 1133SOL    HW3 4299   3.957   0.861   4.935  2.7611 -1.6577 -1.0462
 1133SOL    MW4 4300   4.013   0.913   4.976 -0.0750 -0.0288 -0.1451
 1134SOL     OW 4301   6.042   3.940   1.527  0.5095  0.6975  0.2153
 1134SOL    HW2 4302   5.998   3.973   1.449  1.8204  0.4281 -0.6615
 1134SOL    HW3 4303   5.984   3.964   1.599 -0.7294  0.9448 -0.8294
 1134SOL    MW4 4304   6.028   3.947   1.527  0.2859 -0.3849 -0.5154
 1135SOL     OW 4305   1.438   2.380   2.547 -0.2759  0.6344 -0.4535
 1135SOL    HW2 4306   1.520   2.390   2.594 -0.2740 -0.1789 -0.2637
 1135SOL    HW3 4307   1.463   2.355   2.458 -0.3174 -0.4865 -0.1665
 1135SOL    MW4 4308   1.452   2.378   2.542  0.2013 -0.1180  0.0122
 1136SOL     OW 4309   5.330   3.014   0.389  0.7286 -0.4208 -0.3696
 1136SOL    HW2 4310   5.326   3.033   0.296  1.2689 -0.7569 -0.4636
 1136SOL    HW3 4311   5.254   2.958   0.406 -0.1831  0.8002 -0.3222
 1136SOL    MW4 4312   5.319   3.009   0.379  0.3037  0.0185  0.2915
 1137SOL     OW 4313   2.733   0.009   4.752  0.8441  0.7464  0.0589
 1137SOL    HW2 4314   2.774  -0.077   4.744  0.3397  0.6450 -2.3689
 1137SOL    HW3 4315   2.800   0.065   4.790  2.4459  0.0466 -1.6236
 1137SOL    MW4 4316   2.747   0.005   4.756  0.1131  0.5627 -0.0915
 1138SOL     OW 4317   3.637   4.014   0.269 -0.3901 -0.8214  0.2782
 1138SOL    HW2 4318   3.589   4.089   0.303 -0.2362 -1.1265  1.1978
 1138SOL    HW3 4319   3.569   3.958   0.230 -0.4447  0.0186 -0.8677
 1138SOL    MW4 4320   3.621   4.016   0.268 -0.0921 -0.0252 -0.3679
 1139SOL     OW 4321   1.015   3.047   3.019  0.7410 -0.4045 -0.7280
 1139SOL    HW2 4322   1.013   3.083   3.108  0.9755  1.0467 -1.2769
 1139SOL    HW3 4323   0.959   2.970   3.023 -0.9481  0.7946  0.2135
 1139SOL    MW4 4324   1.007   3.042   3.031  0.8549  0.3114  0.0727
 1140SOL     OW 4325   2.571   0.223   2.388  0.1097 -0.4391  0.0379
 1140SOL    HW2 4326   2.615   0.186   2.312  0.8695 -0.6868  0.5891
 1140SOL    HW3 4327   2.609   0.177   2.463 -3.0175 -2.6997  0.4402
 1140SOL    MW4 4328   2.582   0.212   2.388  0.0680  0.0120  0.3768
 1141SOL     OW 4329   4.338   2.875   1.421 -0.3862 -0.4534  0.4155
 1141SOL    HW2 4330   4.333   2.925   1.340  0.6535  1.8388  1.6746
 1141SOL    HW3 4331   4.247   2.862   1.447 -0.6925  0.4065 -0.1871
 1141SOL    MW4 4332   4.326   2.880   1.414 -0.5266 -0.0148  0.2264
 1142SOL     OW 4333   2.963   3.855   0.588  0.5380  0.0363 -0.0306
 1142SOL    HW2 4334   2.923   3.920   0.531  2.7850  0.0175 -1.7322
 1142SOL    HW3 4335   3.008   3.907   0.655 -1.1133  0.0779  1.1082
 1142SOL    MW4 4336   2.964   3.871   0.590  0.1974  0.5785  0.2970
 1143SOL     OW 4337   1.149   5.469   0.325  0.2188  0.2786 -0.2162
 1143SOL    HW2 4338   1.078   5.412   0.353 -0.6528  0.2753 -2.3094
 1143SOL    HW3 4339   1.106   5.544   0.284  1.3973  0.0836 -1.8915
 1143SOL    MW4 4340   1.134   5.472   0.323 -0.3512 -0.0505  0.5558
 1144SOL     OW 4341   2.528   3.421   5.281 -0.2805 -0.2813 -0.0087
 1144SOL    HW2 4342   2.616   3.401   5.313 -0.7744  0.2423  1.7617
 1144SOL    HW3 4343   2.527   3.516   5.270 -1.0019 -0.1057  1.3041
 1144SOL    MW4 4344   2.540   3.431   5.284 -0.1088 -0.7069 -0.0532
 1145SOL     OW 4345   4.332   1.920   6.280 -0.1607  0.6224  0.3035
 1145SOL    HW2 4346   4.313   1.990   6.342 -0.9421 -1.6816  2.8599
 1145SOL    HW3 4347   4.405   1.872   6.319  1.3137  0.7465 -2.0923
 1145SOL    MW4 4348   4.339   1.923   6.293 -0.4341  0.4659  0.3615
 1146SOL     OW 4349   4.271   2.297   5.618  0.3138  0.0516  0.4229
 1146SOL    HW2 4350   4.322   2.371   5.650  1.1811 -0.9779  1.5274
 1146SOL    HW3 4351   4.297   2.286   5.527  1.6920 -0.1367  0.8261
 1146SOL    MW4 4352   4.281   2.305   5.611 -0.6792 -0.0359 -0.6000
 1147SOL     OW 4353   3.031   1.480   5.414  0.6945  0.5300 -0.0841
 1147SOL    HW2 4354   3.013   1.572   5.393  1.5527  0.6796 -0.1920
 1147SOL    HW3 4355   3.116   1.462   5.374  0.2554 -0.5018 -0.6016
 1147SOL    MW4 4356   3.040   1.490   5.406  0.4253 -0.0292  0.3566
 1148SOL     OW 4357   2.410   1.425   2.160 -0.0087 -0.1779  0.3615
 1148SOL    HW2 4358   2.324   1.410   2.200 -0.1615  2.2446  1.0674
 1148SOL    HW3 4359   2.394   1.492   2.093  0.9168 -1.5423 -1.3288
 1148SOL    MW4 4360   2.396   1.432   2.156  0.2475  0.0017 -0.0830
 1149SOL     OW 4361   4.700   1.792   2.248 -0.4426 -0.2668 -0.4847
 1149SOL    HW2 4362   4.680   1.884   2.263  1.8706  0.2892 -0.4685
 1149SOL    HW3 4363   4.700   1.752   2.335 -2.0135 -0.4356 -0.5441
 1149SOL    MW4 4364   4.697   1.799   2.261  0.1030  0.1209  0.0241
 1150SOL     OW 4365   3.398   1.395   3.526  0.1487 -0.1678  0.5187
 1150SOL    HW2 4366   3.415   1.409   3.620 -0.5409 -0.6174  0.7203
 1150SOL    HW3 4367   3.413   1.301   3.513  3.1829  0.3501 -0.4834
 1150SOL    MW4 4368   3.402   1.384   3.537 -0.0482  0.0312 -0.5463
 1151SOL     OW 4369   6.227   6.027   0.731 -0.1978  0.0022 -0.2431
 1151SOL    HW2 4370   6.170   5.971   0.679 -1.5323  0.8532  0.2634
 1151SOL    HW3 4371   6.171   6.061   0.801  0.9857  0.6743  0.4183
 1151SOL    MW4 4372   6.212   6.024   0.734 -0.2799 -0.4646 -0.1545
 1152SOL     OW 4373   4.819   3.258   0.399  0.1670  0.5201  0.0847
 1152SOL    HW2 4374   4.908   3.236   0.426  0.8049  0.7874 -1.6572
 1152SOL    HW3 4375   4.828   3.343   0.356 -0.8030  0.1979 -0.7807
 1152SOL    MW4 4376   4.832   3.266   0.397 -0.1067  0.0322 -0.8357
 1153SOL     OW 4377   6.021   5.591   5.264 -0.0915  0.0373  0.5768
 1153SOL    HW2 4378   6.111   5.600   5.294  0.3456  0.4457 -0.7766
 1153SOL    HW3 4379   5.992   5.506   5.299  1.4820 -1.0124 -0.5223
 1153SOL    MW4 4380   6.029   5.581   5.273  0.5538 -0.5398 -0.5052
 1154SOL     OW 4381   0.461   1.849   3.247 -0.3338 -0.0187  0.2825
 1154SOL    HW2 4382   0.387   1.870   3.190  0.4763  1.7928 -0.2019
 1154SOL    HW3 4383   0.537   1.851   3.188 -0.0204 -4.0796  0.2865
 1154SOL    MW4 4384   0.462   1.852   3.232 -0.1062  0.6317  0.8629
 1155SOL     OW 4385   4.471   2.620   1.447  0.0700 -0.4142 -0.6766
 1155SOL    HW2 4386   4.473   2.716   1.440  0.2115 -0.3675 -0.0604
 1155SOL    HW3 4387   4.457   2.590   1.357  0.7992  0.1585 -0.9968
 1155SOL    MW4 4388   4.469   2.629   1.434 -0.2653  0.8121  0.5949
 1156SOL     OW 4389   1.781   2.615   1.429 -0.0159  0.4891 -0.1417
 1156SOL    HW2 4390   1.861   2.644   1.386 -0.4330  0.7537 -0.7426
 1156SOL    HW3 4391   1.747   2.546   1.373  0.9328 -1.1858  1.2440
 1156SOL    MW4 4392   1.787   2.610   1.416  0.3351 -0.1748  0.7050
 1157SOL     OW 4393   2.996   2.804   2.234  0.5077  0.0123  0.0960
 1157SOL    HW2 4394   2.917   2.759   2.265  1.2347 -0.9160  0.6717
 1157SOL    HW3 4395   3.006   2.878   2.294  2.5978 -2.4557  3.1109
 1157SOL    MW4 4396   2.987   2.808   2.246 -0.3497  0.4750 -0.1472
 1158SOL     OW 4397   6.398   3.019   0.023 -0.8347  0.1163  0.6401
 1158SOL    HW2 4398   6.463   3.003   0.091 -1.9194 -2.0692  1.2486
 1158SOL    HW3 4399   6.382   2.933  -0.015 -0.9547  1.1293 -1.7792
 1158SOL    MW4 4400   6.405   3.005   0.027 -0.7274 -0.3353 -0.5304
 1159SOL     OW 4401   5.443   2.585   6.324  0.0706 -0.6216  0.1936
 1159SOL    HW2 4402   5.432   2.559   6.233 -0.8474 -1.0597  0.4260
 1159SOL    HW3 4403   5.413   2.675   6.327  1.4550 -0.1147 -0.2161
 1159SOL    MW4 4404   5.438   2.593   6.313 -0.3500  0.0421 -0.5017
 1160SOL     OW 4405   4.010   2.737   5.396 -0.3293  0.3490 -0.4983
 1160SOL    HW2 4406   4.053   2.652   5.385 -1.2727 -0.1596 -0.3563
 1160SOL    HW3 4407   3.960   2.728   5.478  0.1330  1.2873 -0.1043
 1160SOL    MW4 4408   4.009   2.724   5.405 -0.3957 -0.7375 -0.1177
 1161SOL     OW 4409   2.621   0.974   3.265  0.0782  0.0718 -0.1676
 1161SOL    HW2 4410   2.696   1.032   3.248  0.6936 -1.1632 -1.9287
 1161SOL    HW3 4411   2.551   1.007   3.209 -0.1833  0.2417  0.2546
 1161SOL    MW4 4412   2.622   0.986   3.256  0.3743  0.3293  0.0314
 1162SOL     OW 4413   5.295   1.067   5.158 -0.3941 -0.2310  0.9976
 1162SOL    HW2 4414   5.285   1.145   5.103 -0.1408 -2.1506 -1.9495
 1162SOL    HW3 4415   5.375   1.026   5.128 -1.1047 -2.2414  1.7050
 1162SOL    MW4 4416   5.304   1.072   5.147 -0.1076 -0.3538 -0.2634
 1163SOL     OW 4417   1.672   1.147   4.764 -0.2490 -0.1913 -0.0940
 1163SOL    HW2 4418   1.608   1.113   4.702 -0.6086  1.2337 -0.5636
 1163SOL    HW3 4419   1.734   1.196   4.709 -0.3501  0.7651  0.6169
 1163SOL    MW4 4420   1.672   1.149   4.748 -0.3936 -0.2398  0.5736
 1164SOL     OW 4421   2.598   3.091   0.490 -0.2956 -0.0122  0.5078
 1164SOL    HW2 4422   2.581   3.140   0.409  0.4840  0.1745  0.4473
 1164SOL    HW3 4423   2.679   3.129   0.524 -1.5522  1.1501  2.3480
 1164SOL    MW4 4424   2.606   3.103   0.484  0.7553 -0.2489  0.0629
 1165SOL     OW 4425   3.218   3.555   0.021 -0.2701  0.2120  0.2060
 1165SOL    HW2 4426   3.286   3.561   0.088  1.1563 -1.4980 -1.0184
 1165SOL    HW3 4427   3.207   3.462   0.007 -0.6081  0.5289 -1.8667
 1165SOL    MW4 4428   3.225   3.544   0.028 -0.0649  0.5520  0.2029
 1166SOL     OW 4429   1.489   5.823   3.973  0.1924  0.4909 -0.2891
 1166SOL    HW2 4430   1.426   5.854   4.038 -0.2094 -0.7088 -0.0681
 1166SOL    HW3 4431   1.562   5.884   3.979 -0.2547  0.9564  0.6167
 1166SOL    MW4 4432   1.490   5.835   3.983 -0.5063 -0.0265 -0.1685
 1167SOL     OW 4433   5.735   4.612   1.323 -0.1856  0.1370 -0.0725
 1167SOL    HW2 4434   5.762   4.541   1.264 -2.9756 -0.7381 -0.4551
 1167SOL    HW3 4435   5.732   4.690   1.268  1.0217  0.1746 -0.1109
 1167SOL    MW4 4436   5.738   4.613   1.308 -0.1077 -0.3334  0.6444
 1168SOL     OW 4437   3.169   6.061   3.708  0.0444  0.3452  0.3914
 1168SOL    HW2 4438   3.225   5.986   3.690  0.0557  0.4904 -0.2141
 1168SOL    HW3 4439   3.100   6.027   3.765  0.5479  0.0866  0.8504
 1168SOL    MW4 4440   3.167   6.047   3.713  0.0161  0.3367  0.2224
 1169SOL     OW 4441   0.404   1.172   2.426 -0.2202 -0.0246  0.0867
 1169SOL    HW2 4442   0.352   1.235   2.475 -0.6342  1.1628 -1.7748
 1169SOL    HW3 4443   0.374   1.181   2.336 -0.0704 -2.7131 -0.3020
 1169SOL    MW4 4444   0.393   1.182   2.420  0.1873 -0.2778  0.2534
 1170SOL     OW 4445   1.350   4.009   5.460  0.3217  0.1772 -0.2682
 1170SOL    HW2 4446   1.415   3.964   5.514 -1.3872 -1.2706  0.6968
 1170SOL    HW3 4447   1.394   4.024   5.376  2.1827  0.1356  0.6446
 1170SOL    MW4 4448   1.364   4.005   5.456 -0.2934  0.3125  0.1458
 1171SOL     OW 4449   0.508   4.314   4.138  0.2652  0.3920  0.2178
 1171SOL    HW2 4450   0.589   4.266   4.155  0.6026  1.1718  0.8615
 1171SOL    HW3 4451   0.454   4.297   4.215 -0.9382 -1.5830 -0.9661
 1171SOL    MW4 4452   0.512   4.305   4.151  0.7404  0.0661  0.0206
 1172SOL     OW 4453   1.236   1.521   5.065  0.2347  0.4167 -0.0065
 1172SOL    HW2 4454   1.189   1.576   5.127  0.4663 -0.2520  0.7819
 1172SOL    HW3 4455   1.299   1.473   5.119  0.1262 -0.5204 -0.6931
 1172SOL    MW4 4456   1.238   1.522   5.080  0.3474 -0.5991 -0.3081
 1173SOL     OW 4457   2.094   0.432   2.635 -0.1283  0.2738  0.2384
 1173SOL    HW2 4458   2.049   0.417   2.717  0.0452  0.9953  0.4778
 1173SOL    HW3 4459   2.088   0.349   2.588 -0.3436 -0.1033  0.9197
 1173SOL    MW4 4460   2.088   0.419   2.640 -0.2506  0.0054  0.5274
 1174SOL     OW 4461   1.380   1.158   6.091  1.0633 -0.2553 -0.4085
 1174SOL    HW2 4462   1.432   1.149   6.011  0.4942 -2.4720 -0.5868
 1174SOL    HW3 4463   1.421   1.098   6.153  0.9738  0.8023  0.7040
 1174SOL    MW4 4464   1.392   1.149   6.088  0.1185  0.0897  0.2246
 1175SOL     OW 4465   5.592   2.352   6.012 -0.1649  0.1329  0.0531
 1175SOL    HW2 4466   5.550   2.299   6.080  2.0234 -0.6830  0.8623
 1175SOL    HW3 4467   5.663   2.398   6.058  1.5338 -0.6227 -1.6773
 1175SOL    MW4 4468   5.596   2.351   6.027  0.4704 -0.2639 -0.0402
 1176SOL     OW 4469   3.057   6.326   4.827  0.0188 -0.2321 -0.4211
 1176SOL    HW2 4470   3.145   6.358   4.848  0.3586 -1.5836  0.3171
 1176SOL    HW3 4471   3.039   6.363   4.740  0.4220  1.8015  0.3041
 1176SOL    MW4 4472   3.067   6.335   4.818  0.5711  0.5014 -0.3358
 1177SOL     OW 4473   3.893   6.127   0.849  0.9179  0.5780 -0.2787
 1177SOL    HW2 4474   3.911   6.035   0.835  1.0130  0.6084 -0.3550
 1177SOL    HW3 4475   3.974   6.162   0.886  0.3227  0.2752  1.3761
 1177SOL    MW4 4476   3.906   6.120   0.852 -0.0660  0.7046  0.1395
 1178SOL     OW 4477   2.112   0.838   2.781 -0.1151  0.3307  0.1361
 1178SOL    HW2 4478   2.149   0.822   2.694 -0.5302  0.3212 -0.0413
 1178SOL    HW3 4479   2.159   0.778   2.839 -0.5552 -0.4012 -0.2582
 1178SOL    MW4 4480   2.123   0.828   2.777  0.3280 -0.2815 -0.0000
 1179SOL     OW 4481   5.472   2.040   4.296  0.1641 -0.3638  0.3741
 1179SOL    HW2 4482   5.460   1.955   4.254  3.1356  0.4657 -2.6635
 1179SOL    HW3 4483   5.545   2.027   4.356 -1.3754 -0.5676  2.2845
 1179SOL    MW4 4484   5.480   2.027   4.298  0.0196 -0.0395  0.0461
 1180SOL     OW 4485   3.091   2.748   0.004  0.1201 -0.4436  0.1965
 1180SOL    HW2 4486   3.121   2.672  -0.047  0.6633  0.3841 -0.7724
 1180SOL    HW3 4487   3.008   2.720   0.043  1.3104 -2.2530  1.6150
 1180SOL    MW4 4488   3.084   2.734   0.002 -0.4702 -0.3366  0.2341
 1181SOL     OW 4489   1.709   6.138   3.535 -0.2794 -0.5095  0.4697
 1181SOL    HW2 4490   1.788   6.116   3.583 -0.2610 -0.5704  0.4123
 1181SOL    HW3 4491   1.740   6.174   3.452 -0.2669  1.6857  1.3685
 1181SOL    MW4 4492   1.723   6.140   3.530 -0.0349  0.0559  0.4888
 1182SOL     OW 4493   4.777   1.389   2.421 -0.1837  0.1094  0.3218
 1182SOL    HW2 4494   4.847   1.327   2.445 -1.3312 -1.3687 -0.0260
 1182SOL    HW3 4495   4.731   1.346   2.349 -3.1414 -0.2849  2.2573
 1182SOL    MW4 4496   4.780   1.375   2.415  0.0959  0.3613  0.4935
 1183SOL     OW 4497   3.389   2.998   2.201  0.0684 -0.2776 -0.0180
 1183SOL    HW2 4498   3.374   2.952   2.119  1.0695 -0.2038 -0.2618
 1183SOL    HW3 4499   3.358   2.938   2.269  0.7917 -1.0658 -0.3675
 1183SOL    MW4 4500   3.383   2.984   2.199 -0.0105  0.6958 -0.4694
 1184SOL     OW 4501   5.810   1.409   1.120 -0.0287 -0.1627  0.1196
 1184SOL    HW2 4502   5.848   1.446   1.200  0.1438  0.8819 -0.4340
 1184SOL    HW3 4503   5.836   1.469   1.051 -1.1885 -0.4011 -0.5457
 1184SOL    MW4 4504   5.818   1.422   1.122 -0.2817  0.9861 -0.2974
 1185SOL     OW 4505   4.406   0.925   4.022  0.7089  0.2731  0.0010
 1185SOL    HW2 4506   4.437   1.007   4.059 -0.3231  0.5520  0.2946
 1185SOL    HW3 4507   4.334   0.899   4.079  1.4479 -1.1901  0.3035
 1185SOL    MW4 4508   4.401   0.932   4.034  0.6078  0.0863  0.1424
 1186SOL     OW 4509   4.641   0.014   3.335  0.1192  0.3999  0.1848
 1186SOL    HW2 4510   4.622  -0.076   3.361 -1.2709  0.3578 -0.8818
 1186SOL    HW3 4511   4.572   0.066   3.377 -0.6971  0.6172 -1.3604
 1186SOL    MW4 4512   4.629   0.009   3.344 -0.1353  0.0761 -0.4775
 1187SOL     OW 4513   2.099   3.662   1.424  0.8243 -0.4421  0.0279
 1187SOL    HW2 4514   2.091   3.695   1.514  1.3610  2.0888 -0.7856
 1187SOL    HW3 4515   2.104   3.740   1.370  1.0843 -1.9076 -2.1877
 1187SOL    MW4 4516   2.099   3.677   1.429  0.4934 -0.2862  0.8089
 1188SOL     OW 4517   6.046   2.214   4.507  0.9432 -0.1065 -0.1307
 1188SOL    HW2 4518   6.081   2.125   4.506 -0.2621 -0.7005  2.6641
 1188SOL    HW3 4519   6.123   2.270   4.497  2.1043 -1.4239  1.0523
 1188SOL    MW4 4520   6.061   2.210   4.505  0.3669  0.1844 -0.1104
 1189SOL     OW 4521   1.539   1.696   3.706 -0.3791 -0.2210  0.6078
 1189SOL    HW2 4522   1.598   1.747   3.761 -0.6516 -0.5616  1.2285
 1189SOL    HW3 4523   1.479   1.760   3.669  1.0382  0.2953 -0.9358
 1189SOL    MW4 4524   1.539   1.711   3.708  0.3238 -0.1701 -0.4438
 1190SOL     OW 4525   4.332   1.173   1.095 -0.2398  0.0801  0.5469
 1190SOL    HW2 4526   4.406   1.203   1.042 -0.8409  0.4809 -0.0793
 1190SOL    HW3 4527   4.306   1.249   1.146  0.0083 -0.1637  1.0462
 1190SOL    MW4 4528   4.339   1.187   1.094  0.2653 -0.3485  0.3378
 1191SOL     OW 4529   4.392   2.579   3.330  0.3115 -0.0650  0.4101
 1191SOL    HW2 4530   4.478   2.618   3.316 -0.7213  2.2885  0.0892
 1191SOL    HW3 4531   4.356   2.567   3.242 -0.8162  1.8300  0.5561
 1191SOL    MW4 4532   4.398   2.583   3.317  0.5368 -0.7168  1.0604
 1192SOL     OW 4533   6.133   0.940   1.709 -0.2387  0.1246 -0.5629
 1192SOL    HW2 4534   6.094   1.026   1.726  0.4318  0.2889  0.2117
 1192SOL    HW3 4535   6.123   0.928   1.615 -1.0663  0.6917 -0.5559
 1192SOL    MW4 4536   6.127   0.950   1.699  0.2913  0.3857  0.6943
 1193SOL     OW 4537   4.860   3.518   4.591  0.3516 -0.8718 -0.1783
 1193SOL    HW2 4538   4.772   3.543   4.621  0.1912  0.1980 -1.4418
 1193SOL    HW3 4539   4.915   3.594   4.610  0.5159 -0.6694 -1.3402
 1193SOL    MW4 4540   4.856   3.531   4.597 -0.0189  0.1671 -0.9075
 1194SOL     OW 4541   5.899   5.470   5.614  0.6300  0.1221 -0.6218
 1194SOL    HW2 4542   5.889   5.454   5.520  0.7176 -1.4178 -0.3833
 1194SOL    HW3 4543   5.988   5.504   5.622  0.3495  1.0308 -1.1755
 1194SOL    MW4 4544   5.909   5.473   5.602  0.3693  0.3987 -0.3935
 1195SOL     OW 4545   3.218   2.549   5.762  0.0826 -0.2479  0.2780
 1195SOL    HW2 4546   3.202   2.485   5.693  1.4893 -1.8369  1.3487
 1195SOL    HW3 4547   3.246   2.628   5.716 -1.5633 -0.3986 -1.0671
 1195SOL    MW4 4548   3.219   2.551   5.747  0.6409  0.2711  0.3869
 1196SOL     OW 4549   0.802   3.091   6.108  0.0761  0.3191 -0.5156
 1196SOL    HW2 4550   0.870   3.137   6.060  0.6383  0.6495  0.5541
 1196SOL    HW3 4551   0.840   3.078   6.195 -0.8867 -0.2982 -0.1759
 1196SOL    MW4 4552   0.816   3.095   6.113  0.2677  0.2567 -0.0241
 1197SOL     OW 4553   5.677   4.576   5.115 -0.2347 -0.6619  0.1506
 1197SOL    HW2 4554   5.676   4.482   5.133  1.7049 -0.6910  0.2200
 1197SOL    HW3 4555   5.677   4.617   5.202  0.0816 -0.6135  0.1265
 1197SOL    MW4 4556   5.677   4.569   5.129  0.1537  0.3778 -0.1511
 1198SOL     OW 4557   3.674   3.610   2.490 -0.0948  0.3207 -0.5420
 1198SOL    HW2 4558   3.675   3.667   2.567  0.3278  0.0450 -0.3356
 1198SOL    HW3 4559   3.612   3.541   2.512  1.4182 -0.8210  0.3633
 1198SOL    MW4 4560   3.666   3.609   2.503  0.5395 -0.5960  0.0520
 1199SOL     OW 4561   4.868   4.463   0.389 -0.2382 -0.2531  0.3325
 1199SOL    HW2 4562   4.958   4.454   0.422  0.3798 -2.0743 -1.5728
 1199SOL    HW3 4563   4.820   4.391   0.430  0.2362 -1.7652 -1.5942
 1199SOL    MW4 4564   4.874   4.452   0.399 -0.0129 -0.3105 -0.0948
 1200SOL     OW 4565   3.707   2.995   2.510 -0.3251 -0.2398  0.3809
 1200SOL    HW2 4566   3.680   2.948   2.432  1.0191  2.4827 -1.8997
 1200SOL    HW3 4567   3.794   3.030   2.489 -0.4879  1.7412  2.5547
 1200SOL    MW4 4568   3.715   2.994   2.497 -0.1895  0.8161 -0.3248
 1201SOL     OW 4569   3.435   5.088   5.730  0.1794  0.4950 -0.4451
 1201SOL    HW2 4570   3.360   5.094   5.789  0.4875  1.3894 -0.1223
 1201SOL    HW3 4571   3.466   5.179   5.722 -0.4527  0.5727 -2.7638
 1201SOL    MW4 4572   3.429   5.101   5.737  0.2476  0.1224  0.2957
 1202SOL     OW 4573   2.840   1.953   0.796  0.0358  0.1412 -0.1518
 1202SOL    HW2 4574   2.812   1.880   0.741  1.3355  0.7555 -1.7304
 1202SOL    HW3 4575   2.933   1.936   0.813  0.0870  0.8791  0.3791
 1202SOL    MW4 4576   2.849   1.941   0.791  0.9829  0.0745 -0.0625
 1203SOL     OW 4577   4.905   0.792   5.647 -0.2458  0.6536 -0.9176
 1203SOL    HW2 4578   4.830   0.836   5.686 -0.5089  0.4372 -1.1724
 1203SOL    HW3 4579   4.927   0.845   5.570 -0.9313  0.0297 -1.5611
 1203SOL    MW4 4580   4.898   0.805   5.642 -0.3933  0.2602  0.1222
 1204SOL     OW 4581   1.124   5.749   1.071 -0.0962  0.0532  0.2155
 1204SOL    HW2 4582   1.059   5.795   1.018 -0.9637 -0.6692  0.6157
 1204SOL    HW3 4583   1.077   5.672   1.104  0.9755 -0.4921  0.5076
 1204SOL    MW4 4584   1.109   5.745   1.068  1.1900 -0.0156  0.0380
 1205SOL     OW 4585   0.433   4.096   2.165  0.2439  0.3236  0.1654
 1205SOL    HW2 4586   0.477   4.131   2.088  0.3320 -0.2125 -0.0355
 1205SOL    HW3 4587   0.459   4.004   2.168 -0.4537  0.1202  0.3314
 1205SOL    MW4 4588   0.442   4.088   2.156 -0.0394  0.3269  0.2918
 1206SOL     OW 4589   3.983   2.635   0.772 -0.4695 -0.7354 -0.2654
 1206SOL    HW2 4590   4.030   2.558   0.741  0.5477  0.5511 -2.0818
 1206SOL    HW3 4591   4.044   2.707   0.762 -2.0723  0.6554 -0.5412
 1206SOL    MW4 4592   3.997   2.634   0.767  0.7174  0.5365  0.4922
 1207SOL     OW 4593   0.735   6.365   2.648 -0.4052 -0.0336  0.3046
 1207SOL    HW2 4594   0.758   6.457   2.660 -0.6792  0.1349 -0.4418
 1207SOL    HW3 4595   0.646   6.366   2.613 -0.3311 -0.5733  0.0780
 1207SOL    MW4 4596   0.726   6.377   2.645 -0.0616 -0.3558  0.0928
 1208SOL     OW 4597   1.258   4.799   4.162  0.2805  0.0366 -0.1462
 1208SOL    HW2 4598   1.176   4.749   4.159 -0.4102  1.1722 -1.1222
 1208SOL    HW3 4599   1.239   4.878   4.111  2.1106  0.1267 -0.7411
 1208SOL    MW4 4600   1.244   4.803   4.155  0.1116  0.4535 -0.1853
 1209SOL     OW 4601   3.591   1.570   4.666  0.7319 -0.0647 -0.5328
 1209SOL    HW2 4602   3.683   1.576   4.642  0.7186  1.0084 -0.3885
 1209SOL    HW3 4603   3.545   1.560   4.583  0.8705  1.0478 -0.7629
 1209SOL    MW4 4604   3.597   1.570   4.652  0.2498  0.2746  0.0868
 1210SOL     OW 4605   5.978   4.271   5.902  0.1655  0.7379  0.5369
 1210SOL    HW2 4606   6.022   4.308   5.979  0.5522  0.7644  0.3085
 1210SOL    HW3 4607   6.048   4.264   5.837  0.0746 -0.2838  0.5346
 1210SOL    MW4 4608   5.993   4.275   5.904  0.0410 -0.2142  0.0284
 1211SOL     OW 4609   5.424   6.428   2.566 -0.3362 -0.0051 -0.3360
 1211SOL    HW2 4610   5.489   6.410   2.635  0.1653  1.1764 -0.4853
 1211SOL    HW3 4611   5.377   6.345   2.557  0.4759 -0.5895  0.4883
 1211SOL    MW4 4612   5.426   6.415   2.574 -0.2486  0.6297  0.3509
 1212SOL     OW 4613   1.991   1.163   6.223 -0.2425  0.0187  0.3763
 1212SOL    HW2 4614   1.945   1.177   6.306  0.6012 -0.5073  0.9584
 1212SOL    HW3 4615   1.925   1.177   6.156 -1.0590  0.0245  1.1584
 1212SOL    MW4 4616   1.976   1.166   6.225 -0.3632  0.0566  0.1612
 1213SOL     OW 4617   0.566   4.630   0.568 -0.3120  0.1986 -0.2634
 1213SOL    HW2 4618   0.486   4.663   0.526  0.1877  1.8187 -0.0043
 1213SOL    HW3 4619   0.589   4.552   0.517 -1.8856 -0.1444 -0.5195
 1213SOL    MW4 4620   0.558   4.624   0.556  0.0545 -0.0727  0.5260
 1214SOL     OW 4621   3.298   1.290   1.400 -0.4675 -0.6487  0.0551
 1214SOL    HW2 4622   3.282   1.209   1.448 -0.3696 -1.0336 -0.5487
 1214SOL    HW3 4623   3.318   1.261   1.311 -0.9179  0.0648 -0.2844
 1214SOL    MW4 4624   3.299   1.275   1.394 -0.5277  0.7226  0.4958
 1215SOL     OW 4625   2.373   6.010   3.019 -0.2237 -0.3199  0.5879
 1215SOL    HW2 4626   2.320   6.088   3.038  0.3389  0.3959 -0.6437
 1215SOL    HW3 4627   2.441   6.011   3.086 -0.0923  0.3845  0.4594
 1215SOL    MW4 4628   2.375   6.021   3.031 -0.2795 -1.0286 -0.1052
 1216SOL     OW 4629   3.456   5.005   6.422  0.2737  0.5151 -0.0506
 1216SOL    HW2 4630   3.481   4.975   6.510 -0.5366  3.1695  1.1920
 1216SOL    HW3 4631   3.537   5.036   6.383  0.4206  0.5940  0.3130
 1216SOL    MW4 4632   3.470   5.005   6.429 -0.1932  0.0452 -0.1963
 1217SOL     OW 4633   1.645   0.532   5.489 -0.0258  0.1321  0.4206
 1217SOL    HW2 4634   1.620   0.619   5.521  2.1574  0.7197  0.7121
 1217SOL    HW3 4635   1.579   0.510   5.424 -1.7295  1.1301  1.7410
 1217SOL    MW4 4636   1.633   0.541   5.485  0.2131  0.1342 -0.7764
 1218SOL     OW 4637   5.878   5.034   4.997 -0.0005  0.6085  0.3747
 1218SOL    HW2 4638   5.950   4.979   5.026  0.5634  0.9023 -0.4432
 1218SOL    HW3 4639   5.852   4.999   4.912 -1.3487  0.0284  0.9938
 1218SOL    MW4 4640   5.884   5.022   4.990  0.1707 -0.7674 -0.1756
 1219SOL     OW 4641   1.779   0.013   0.725  0.2911  0.1715 -0.1223
 1219SOL    HW2 4642   1.748   0.089   0.677 -1.4875 -0.6945 -0.4326
 1219SOL    HW3 4643   1.702  -0.020   0.772  0.8417 -1.7570 -0.4571
 1219SOL    MW4 4644   1.765   0.018   0.725 -0.0072 -0.2583  0.2155
 1220SOL     OW 4645   1.473   5.655   1.940  0.0951 -0.2667  0.2926
 1220SOL    HW2 4646   1.436   5.572   1.910 -0.3697 -0.1129  0.4349
 1220SOL    HW3 4647   1.401   5.700   1.985  0.2511  0.3553 -0.0605
 1220SOL    MW4 4648   1.459   5.650   1.942 -0.2353  0.3442 -0.3469
 1221SOL     OW 4649   0.692   4.370   0.899  0.0326  0.7629 -0.4706
 1221SOL    HW2 4650   0.758   4.405   0.838 -0.3854  0.4486 -1.1188
 1221SOL    HW3 4651   0.651   4.448   0.936  0.7642  0.9624 -0.0541
 1221SOL    MW4 4652   0.696   4.385   0.896  0.1711  0.7352  0.3949
 1222SOL     OW 4653   5.499   3.265   3.151  0.1089 -0.0393 -0.2006
 1222SOL    HW2 4654   5.470   3.343   3.103 -0.6922  0.5539  1.1784
 1222SOL    HW3 4655   5.485   3.287   3.243 -1.1479 -2.1992  0.1954
 1222SOL    MW4 4656   5.493   3.278   3.157  0.2838  0.2443 -0.6527
 1223SOL     OW 4657   2.779   5.956   2.152  0.2107 -0.4287 -0.3701
 1223SOL    HW2 4658   2.788   6.044   2.188 -0.9317 -0.8843  1.1336
 1223SOL    HW3 4659   2.840   5.903   2.205  2.4863 -0.2519 -2.6244
 1223SOL    MW4 4660   2.788   5.960   2.164 -0.0674 -0.0268 -0.2501
 1224SOL     OW 4661   6.029   0.916   5.510 -0.2219  0.2777 -0.1510
 1224SOL    HW2 4662   5.964   0.846   5.517 -0.9880  0.9864  0.0375
 1224SOL    HW3 4663   5.987   0.981   5.454  1.0969 -0.0797 -1.5948
 1224SOL    MW4 4664   6.015   0.915   5.504 -0.0655  0.5064  0.3901
 1225SOL     OW 4665   4.583   1.225   6.385  0.3769 -0.2923  0.4596
 1225SOL    HW2 4666   4.614   1.206   6.296 -1.3779 -1.0579 -0.0266
 1225SOL    HW3 4667   4.662   1.219   6.439  1.5294  0.4363 -1.0587
 1225SOL    MW4 4668   4.598   1.221   6.381  0.0245  0.2724  0.4382
 1226SOL     OW 4669   4.906   2.220   6.248 -0.0342 -0.1335  0.2232
 1226SOL    HW2 4670   4.880   2.310   6.228  0.8000 -0.2037 -1.3665
 1226SOL    HW3 4671   4.971   2.229   6.317  0.5729  0.5627 -0.4219
 1226SOL    MW4 4672   4.911   2.233   6.254 -0.3760 -0.3588  0.2571
 1227SOL     OW 4673   4.731   1.675   2.487  0.2814  0.3880 -0.0236
 1227SOL    HW2 4674   4.751   1.584   2.468  1.5991  0.6754 -0.0887
 1227SOL    HW3 4675   4.643   1.673   2.525 -0.0141 -0.8111 -0.7456
 1227SOL    MW4 4676   4.722   1.663   2.490 -0.4780  0.5227  0.3202
 1228SOL     OW 4677   2.326   1.471   3.387 -0.0958 -0.0030 -0.0890
 1228SOL    HW2 4678   2.413   1.431   3.384  0.1082  0.3696  0.6636
 1228SOL    HW3 4679   2.310   1.487   3.480 -1.0120 -0.1518 -0.2130
 1228SOL    MW4 4680   2.336   1.468   3.399  0.2362  0.2543 -0.0882
 1229SOL     OW 4681   4.940   0.783   6.016  0.5666 -1.0800  0.2982
 1229SOL    HW2 4682   4.940   0.874   5.988 -1.5185 -1.0051  0.3519
 1229SOL    HW3 4683   4.960   0.786   6.110 -0.0219 -0.6078  0.4148
 1229SOL    MW4 4684   4.942   0.795   6.025 -0.1028 -0.6326  0.3851
 1230SOL     OW 4685   3.696   1.083   1.378 -0.0229 -0.5361  0.0663
 1230SOL    HW2 4686   3.672   1.021   1.447  0.3397 -2.7088 -1.6792
 1230SOL    HW3 4687   3.775   1.047   1.339  0.2786  1.1122 -0.9287
 1230SOL    MW4 4688   3.703   1.070   1.382 -0.2801  0.0291 -0.1195
 1231SOL     OW 4689   5.286   3.487   3.235 -0.0978 -0.2310  0.1300
 1231SOL    HW2 4690   5.303   3.505   3.327  0.7873 -3.6903  0.7656
 1231SOL    HW3 4691   5.192   3.469   3.231 -0.1352 -0.0874  0.3301
 1231SOL    MW4 4692   5.276   3.487   3.247 -0.0675 -0.2601  0.5165
 1232SOL     OW 4693   2.392   3.528   2.978 -0.2572  0.0706  0.3543
 1232SOL    HW2 4694   2.424   3.588   3.046 -1.3077  0.5174  0.4692
 1232SOL    HW3 4695   2.472   3.499   2.933  0.3791  0.4824  1.1828
 1232SOL    MW4 4696   2.407   3.532   2.981  0.4398  0.0714  0.6455
 1233SOL     OW 4697   5.579   0.058   0.091  0.8329  0.3920 -0.0379
 1233SOL    HW2 4698   5.529  -0.023   0.098 -0.3557  1.1549  0.7008
 1233SOL    HW3 4699   5.535   0.108   0.022  1.2229  0.6323 -0.1177
 1233SOL    MW4 4700   5.567   0.054   0.083  0.4571 -0.1123 -0.4035
 1234SOL     OW 4701   1.216   1.188   1.797 -1.2888  0.0630  0.4124
 1234SOL    HW2 4702   1.213   1.137   1.716 -2.0005  1.4739 -0.4871
 1234SOL    HW3 4703   1.284   1.254   1.783 -0.8289 -0.1957  1.3071
 1234SOL    MW4 4704   1.224   1.190   1.785 -0.2980  0.5877 -0.1385
 1235SOL     OW 4705   0.204   6.387   1.505 -0.2292  0.2865  0.7007
 1235SOL    HW2 4706   0.237   6.384   1.415  0.6526  0.8867  0.9929
 1235SOL    HW3 4707   0.154   6.306   1.514  0.9519 -0.5423  0.1559
 1235SOL    MW4 4708   0.202   6.376   1.494  0.0159 -0.0471 -0.6084
 1236SOL     OW 4709   6.332   1.521   0.392  0.2057  0.5174  0.2932
 1236SOL    HW2 4710   6.316   1.472   0.472 -0.2119 -1.5428 -0.9906
 1236SOL    HW3 4711   6.288   1.605   0.406  0.9236  0.5848  2.5489
 1236SOL    MW4 4712   6.324   1.526   0.405 -0.2878  0.2205 -0.5436
 1237SOL     OW 4713   1.873   2.819   4.335 -0.0645  0.2176 -0.3156
 1237SOL    HW2 4714   1.956   2.865   4.323  0.9177 -1.5719 -0.7923
 1237SOL    HW3 4715   1.828   2.827   4.251  0.1692  0.1838 -0.4444
 1237SOL    MW4 4716   1.878   2.826   4.322  0.2946 -0.0671 -0.1697
 1238SOL     OW 4717   3.627   6.284   2.240 -0.7382  0.0225 -0.4144
 1238SOL    HW2 4718   3.707   6.245   2.204 -0.7871  1.1211 -1.7654
 1238SOL    HW3 4719   3.649   6.303   2.332 -0.7139 -3.1122  0.3466
 1238SOL    MW4 4720   3.641   6.281   2.248 -0.3076  0.2367 -0.7009
 1239SOL     OW 4721   3.278   1.242   0.812  0.2287 -0.5091 -0.1963
 1239SOL    HW2 4722   3.319   1.218   0.729  1.6061 -0.9009  0.5791
 1239SOL    HW3 4723   3.211   1.306   0.788  1.5920  0.4944 -1.4410
 1239SOL    MW4 4724   3.274   1.247   0.798 -0.1363 -0.6052  0.0912
 1240SOL     OW 4725   1.685   1.373   3.421  0.6604  0.0912 -0.2896
 1240SOL    HW2 4726   1.763   1.325   3.449 -0.2275 -1.1734  0.0950
 1240SOL    HW3 4727   1.620   1.355   3.488 -0.5013 -0.3034 -1.4795
 1240SOL    MW4 4728   1.687   1.364   3.433 -0.1132 -0.5629  0.4861
 1241SOL     OW 4729   1.820   1.023   0.455 -0.5162 -0.2323 -0.1061
 1241SOL    HW2 4730   1.755   1.092   0.472  2.2364  3.1225 -2.0327
 1241SOL    HW3 4731   1.873   1.020   0.535 -0.1123  0.5216 -0.3457
 1241SOL    MW4 4732   1.818   1.032   0.468  0.2318  0.4136  0.1445
 1242SOL     OW 4733   0.651   0.527   0.234 -0.5594  0.5296 -0.3918
 1242SOL    HW2 4734   0.605   0.610   0.219  0.0979  0.9353 -0.2237
 1242SOL    HW3 4735   0.729   0.552   0.284 -0.1225 -0.1282 -0.7361
 1242SOL    MW4 4736   0.656   0.542   0.238  0.3541  0.4208 -0.2328
 1243SOL     OW 4737   4.884   4.034   3.738  0.5081 -0.4274  0.2600
 1243SOL    HW2 4738   4.794   4.066   3.739  0.4917 -0.4815  0.4518
 1243SOL    HW3 4739   4.930   4.095   3.680  0.1983 -0.8009 -0.4028
 1243SOL    MW4 4740   4.878   4.046   3.730 -0.4278 -0.4275  0.2246
 1244SOL     OW 4741   5.476   1.110   3.436  0.2682  0.1311 -0.2540
 1244SOL    HW2 4742   5.383   1.094   3.419  0.0795  3.1792 -2.9430
 1244SOL    HW3 4743   5.522   1.054   3.374  0.1868 -0.3702  0.1343
 1244SOL    MW4 4744   5.470   1.101   3.426  0.1000 -0.3984  0.3822
 1245SOL     OW 4745   0.981   2.183   2.236  0.7027 -0.4944 -0.1340
 1245SOL    HW2 4746   1.012   2.213   2.322  0.3217 -0.4316 -0.0161
 1245SOL    HW3 4747   0.999   2.089   2.235  3.3966 -0.0308 -1.1340
 1245SOL    MW4 4748   0.987   2.175   2.247 -0.0935 -0.3969  0.2930
 1246SOL     OW 4749   1.296   3.829   2.750 -0.3058 -0.0493 -0.1496
 1246SOL    HW2 4750   1.354   3.904   2.758  0.3886 -0.5554 -0.3871
 1246SOL    HW3 4751   1.266   3.812   2.839 -0.5162  0.5381 -0.1019
 1246SOL    MW4 4752   1.300   3.837   2.763  0.3268 -0.1011  1.0190
 1247SOL     OW 4753   0.597   4.864   0.336  0.1778  0.2031  0.4108
 1247SOL    HW2 4754   0.569   4.881   0.426 -2.2543  0.3760 -0.3170
 1247SOL    HW3 4755   0.614   4.769   0.334 -2.3013 -0.3018  0.4747
 1247SOL    MW4 4756   0.596   4.853   0.348  0.1157  0.4797  0.2746
 1248SOL     OW 4757   3.195   5.193   3.814  0.5415  0.4258 -0.0618
 1248SOL    HW2 4758   3.232   5.104   3.812  0.8382  0.4177  2.5777
 1248SOL    HW3 4759   3.101   5.180   3.826  0.5309  0.4685 -0.0976
 1248SOL    MW4 4760   3.188   5.179   3.815  0.4430  0.1302  0.2773
 1249SOL     OW 4761   4.888   1.062   4.639 -0.7010  0.0925 -0.8419
 1249SOL    HW2 4762   4.878   1.153   4.668 -0.0493  0.3590 -1.4205
 1249SOL    HW3 4763   4.845   1.060   4.553 -2.2961 -0.5984 -0.0725
 1249SOL    MW4 4764   4.881   1.074   4.631  0.0917 -0.0376  0.0369
 1250SOL     OW 4765   4.226   5.029   4.734 -0.1030 -0.4492  0.3491
 1250SOL    HW2 4766   4.269   5.000   4.654 -0.0828  0.8887 -0.1421
 1250SOL    HW3 4767   4.153   5.082   4.705 -0.6622 -0.7237  1.2140
 1250SOL    MW4 4768   4.222   5.032   4.720  0.2599 -0.6533 -0.1367
 1251SOL     OW 4769   4.843   1.974   0.540  0.3419 -0.0298 -0.3973
 1251SOL    HW2 4770   4.783   1.900   0.533  0.3869 -0.1777  0.6187
 1251SOL    HW3 4771   4.923   1.936   0.575  0.4797  0.4493 -0.1977
 1251SOL    MW4 4772   4.845   1.959   0.543 -0.4947  0.4369  0.8114
 1252SOL     OW 4773   5.362   1.848   4.119 -0.4043  0.0125  0.2534
 1252SOL    HW2 4774   5.327   1.932   4.088  0.8426  0.8934  1.1463
 1252SOL    HW3 4775   5.408   1.812   4.043  0.4252  0.9145  0.3082
 1252SOL    MW4 4776   5.363   1.855   4.105 -0.1185  0.3844 -0.4111
 1253SOL     OW 4777   4.987   1.784   2.839  0.6254  0.1922  0.2610
 1253SOL    HW2 4778   4.995   1.757   2.747  2.7717 -2.4674  1.0713
 1253SOL    HW3 4779   5.075   1.775   2.874 -0.5255 -1.3928  3.1499
 1253SOL    MW4 4780   4.999   1.779   2.831  0.0990 -0.0577  0.7488
 1254SOL     OW 4781   1.712   1.312   0.804 -0.4013 -1.1216  0.1691
 1254SOL    HW2 4782   1.763   1.388   0.836  1.2494 -2.5827  1.2086
 1254SOL    HW3 4783   1.774   1.239   0.807 -1.9119 -2.5080 -0.9271
 1254SOL    MW4 4784   1.727   1.313   0.809 -0.6372 -0.2218 -0.6628
 1255SOL     OW 4785   3.456   0.997   2.824 -0.2730  0.2413 -0.5520
 1255SOL    HW2 4786   3.411   0.927   2.872  1.7133  0.3770  1.7561
 1255SOL    HW3 4787   3.387   1.057   2.798 -1.8312 -1.6049 -0.9353
 1255SOL    MW4 4788   3.441   0.996   2.827  0.4557 -0.6144 -0.7540
 1256SOL     OW 4789   3.147   6.113   2.585 -0.9400  0.0192  0.3006
 1256SOL    HW2 4790   3.209   6.072   2.645  1.2490  2.0533 -0.3737
 1256SOL    HW3 4791   3.168   6.075   2.500  1.0215  2.2083 -0.3075
 1256SOL    MW4 4792   3.158   6.103   2.582 -1.0571 -0.6322 -0.3000
 1257SOL     OW 4793   3.274   2.630   4.304  0.4041 -0.4315  0.0902
 1257SOL    HW2 4794   3.265   2.644   4.210  0.9726 -2.0960 -0.2419
 1257SOL    HW3 4795   3.263   2.717   4.343 -1.5063  0.0425 -1.3805
 1257SOL    MW4 4796   3.271   2.643   4.297  0.5044 -0.3738  0.5940
 1258SOL     OW 4797   1.975   5.877   1.083 -0.1203  0.6049  0.5854
 1258SOL    HW2 4798   1.986   5.921   0.999 -1.5824  0.1342  0.1167
 1258SOL    HW3 4799   1.880   5.872   1.095  0.0560  0.0448  1.9420
 1258SOL    MW4 4800   1.964   5.882   1.074 -0.6698 -0.6991  0.2302
 1259SOL     OW 4801   5.401   3.517   4.902  0.4019 -0.1796 -0.1126
 1259SOL    HW2 4802   5.307   3.512   4.919  0.5761 -1.0463  0.6933
 1259SOL    HW3 4803   5.412   3.480   4.815  0.0370 -0.4396 -0.0485
 1259SOL    MW4 4804   5.390   3.511   4.893 -0.0899 -0.0482  0.0713
 1260SOL     OW 4805   2.112   0.044   4.839 -0.3583  0.0321  0.0657
 1260SOL    HW2 4806   2.164  -0.006   4.902 -1.5411  1.3086  2.1913
 1260SOL    HW3 4807   2.031  -0.007   4.829  0.1814 -0.6337 -1.2222
 1260SOL    MW4 4808   2.108   0.030   4.846  0.5644 -0.5642  0.4824
 1261SOL     OW 4809   4.641   3.374   0.078  0.2170  0.3146 -0.2856
 1261SOL    HW2 4810   4.714   3.400   0.134  0.7614  0.7084 -1.1477
 1261SOL    HW3 4811   4.623   3.283   0.102  2.7268 -0.7020 -1.8121
 1261SOL    MW4 4812   4.648   3.365   0.088  0.4604 -0.0135 -0.3483
 1262SOL     OW 4813   1.848   1.452   1.575 -0.3285 -0.3473 -0.5588
 1262SOL    HW2 4814   1.874   1.375   1.626 -1.5209  0.7246  1.7606
 1262SOL    HW3 4815   1.783   1.418   1.513 -1.2390 -1.1429  0.7878
 1262SOL    MW4 4816   1.843   1.437   1.573  0.0419  0.3216 -0.3377
 1263SOL     OW 4817   5.144   2.089   1.931  0.2814 -0.0234  0.0929
 1263SOL    HW2 4818   5.195   2.156   1.977  1.1723  0.2300 -1.2147
 1263SOL    HW3 4819   5.184   2.084   1.844 -2.9222  1.3317 -1.6005
 1263SOL    MW4 4820   5.156   2.097   1.926 -0.4255 -0.2202 -0.2664
 1264SOL     OW 4821   0.890   5.565   2.426  0.4539 -0.2446 -0.8919
 1264SOL    HW2 4822   0.904   5.654   2.394  0.4423  0.0865  0.0024
 1264SOL    HW3 4823   0.964   5.515   2.390  1.0474  0.3546 -0.5357
 1264SOL    MW4 4824   0.902   5.570   2.417  0.3517  0.0534  0.2493
 1265SOL     OW 4825   5.846   5.055   2.004  0.1672 -0.3475  0.5155
 1265SOL    HW2 4826   5.844   4.989   1.935  0.1197 -0.0621  0.2361
 1265SOL    HW3 4827   5.934   5.093   1.997  0.5162 -0.9999  1.2747
 1265SOL    MW4 4828   5.857   5.052   1.994  0.4517  0.2153  0.2044
 1266SOL     OW 4829   4.515   2.341   3.633  0.3276 -0.2973 -0.2020
 1266SOL    HW2 4830   4.482   2.336   3.723  0.4675  1.1538 -0.0388
 1266SOL    HW3 4831   4.442   2.311   3.579  0.2290 -1.1496  0.3857
 1266SOL    MW4 4832   4.501   2.337   3.638 -0.3562 -0.4209 -0.0292
 1267SOL     OW 4833   1.653   2.845   4.129 -0.2711 -0.9457  0.3046
 1267SOL    HW2 4834   1.589   2.912   4.151  0.6791  0.4436 -0.9448
 1267SOL    HW3 4835   1.612   2.795   4.059 -0.5621 -0.9747  0.4946
 1267SOL    MW4 4836   1.639   2.848   4.122  0.1366  0.5017  0.0285
 1268SOL     OW 4837   0.780   2.649   2.072  0.5406  0.0956 -0.1833
 1268SOL    HW2 4838   0.741   2.672   1.988 -0.3570 -0.6875  0.0149
 1268SOL    HW3 4839   0.833   2.726   2.094 -0.6863  1.0891 -0.5619
 1268SOL    MW4 4840   0.782   2.662   2.064  0.1945  0.2275 -0.6806
 1269SOL     OW 4841   3.394   3.498   0.942  0.2058  0.3309 -0.2727
 1269SOL    HW2 4842   3.427   3.549   1.015 -0.3735 -0.0371  0.2552
 1269SOL    HW3 4843   3.444   3.417   0.943 -0.4796 -0.0946  0.3354
 1269SOL    MW4 4844   3.405   3.494   0.952  0.9148 -0.1549  0.3292
 1270SOL     OW 4845   4.548   2.377   5.942 -0.5312  0.1104  0.7937
 1270SOL    HW2 4846   4.519   2.335   6.023 -0.8345 -2.6537 -0.6382
 1270SOL    HW3 4847   4.596   2.308   5.895 -3.1429  0.5160 -2.8337
 1270SOL    MW4 4848   4.551   2.362   5.946  0.3479  0.1437 -0.1631
 1271SOL     OW 4849   1.356   4.428   3.035 -0.3428 -0.2868 -0.1926
 1271SOL    HW2 4850   1.399   4.470   3.109 -1.4881  1.9732 -0.7137
 1271SOL    HW3 4851   1.356   4.335   3.056  1.3291  0.0648  1.5764
 1271SOL    MW4 4852   1.362   4.422   3.047 -0.0752  0.0956 -0.1737
 1272SOL     OW 4853   2.923   5.668   4.205  0.4965 -0.0686 -0.5626
 1272SOL    HW2 4854   2.934   5.716   4.122  1.0423 -0.9670 -1.0258
 1272SOL    HW3 4855   2.844   5.616   4.191  0.9999 -0.7775 -0.8033
 1272SOL    MW4 4856   2.914   5.668   4.192 -0.5012  0.0110  0.8171
 1273SOL     OW 4857   1.714   0.344   0.081  0.9159  0.2692 -0.3652
 1273SOL    HW2 4858   1.774   0.419   0.076  0.6517  0.5526  0.6392
 1273SOL    HW3 4859   1.628   0.383   0.096  0.5831 -0.1805 -1.0332
 1273SOL    MW4 4860   1.710   0.359   0.082 -0.5754  0.4405  0.4563
 1274SOL     OW 4861   4.253   2.134   3.055 -0.9570 -0.1803 -0.0925
 1274SOL    HW2 4862   4.253   2.098   3.144 -0.1683 -0.3392 -0.1505
 1274SOL    HW3 4863   4.176   2.096   3.014 -0.6349 -1.1003  0.1330
 1274SOL    MW4 4864   4.243   2.124   3.062 -0.0704  0.8927 -0.4391
 1275SOL     OW 4865   0.801   4.423   5.398 -0.1776 -0.4683 -0.1398
 1275SOL    HW2 4866   0.823   4.383   5.482 -2.4215 -0.8076  0.3660
 1275SOL    HW3 4867   0.839   4.510   5.402  1.8682 -1.3206  0.1623
 1275SOL    MW4 4868   0.809   4.429   5.410  0.0563  0.4763 -0.4220
 1276SOL     OW 4869   4.295   3.725   3.424 -0.4944  0.0166  0.1185
 1276SOL    HW2 4870   4.352   3.679   3.363  0.1741  1.0410 -0.0576
 1276SOL    HW3 4871   4.283   3.811   3.385 -2.0989 -0.1411  0.2049
 1276SOL    MW4 4872   4.301   3.730   3.411 -0.2684 -0.2586  0.2213
 1277SOL     OW 4873   6.050   0.956   4.405  0.6806 -0.1414  0.2159
 1277SOL    HW2 4874   6.072   1.020   4.473  1.1053  0.7842 -0.7580
 1277SOL    HW3 4875   5.955   0.948   4.409  0.7085 -0.1017  0.9329
 1277SOL    MW4 4876   6.041   0.964   4.414  0.4864  0.4376  0.2290
 1278SOL     OW 4877   2.394   0.532   2.613  0.2939 -0.1409 -0.1329
 1278SOL    HW2 4878   2.418   0.533   2.521 -1.0637  0.2487 -0.5055
 1278SOL    HW3 4879   2.303   0.505   2.614  0.3469 -0.3465  1.1194
 1278SOL    MW4 4880   2.385   0.528   2.601  0.3419 -0.0021  0.1607
 1279SOL     OW 4881   4.191   1.796   6.014  0.0394  0.1058 -0.6285
 1279SOL    HW2 4882   4.230   1.714   5.983  0.7910  0.3512 -0.3719
 1279SOL    HW3 4883   4.223   1.805   6.104 -0.2738  0.5369 -0.5573
 1279SOL    MW4 4884   4.201   1.786   6.022  0.7313  1.2831 -0.0894
 1280SOL     OW 4885   5.282   4.182   4.610  0.2650 -0.2121 -0.2909
 1280SOL    HW2 4886   5.369   4.146   4.595 -0.1029 -1.0725 -0.4349
 1280SOL    HW3 4887   5.298   4.271   4.639  1.2774 -0.9703  1.6646
 1280SOL    MW4 4888   5.296   4.189   4.612 -0.9069  0.2280  1.0461
 1281SOL     OW 4889   0.680   4.746   3.591 -0.1555 -0.1991  0.3051
 1281SOL    HW2 4890   0.677   4.717   3.682 -0.1941  1.9682  1.0542
 1281SOL    HW3 4891   0.594   4.787   3.577  0.3794  0.7626 -0.2382
 1281SOL    MW4 4892   0.668   4.748   3.601 -0.4665  0.2492  0.3543
 1282SOL     OW 4893   0.719   5.341   6.357 -0.8912  0.5292  0.1894
 1282SOL    HW2 4894   0.802   5.388   6.346 -0.7735  0.0821 -0.9537
 1282SOL    HW3 4895   0.680   5.380   6.436  0.9476 -0.0655  1.4621
 1282SOL    MW4 4896   0.725   5.353   6.366 -0.2071  0.5716 -0.0475
 1283SOL     OW 4897   0.133   1.388   2.091 -0.0382  0.3126 -0.0137
 1283SOL    HW2 4898   0.157   1.302   2.126  1.0779 -0.0857 -1.6525
 1283SOL    HW3 4899   0.216   1.433   2.077 -0.4347  0.5697 -1.7964
 1283SOL    MW4 4900   0.147   1.383   2.094  0.1131 -0.0094 -0.1585
 1284SOL     OW 4901   5.983   5.868   0.094  0.6771 -0.0878 -0.5919
 1284SOL    HW2 4902   5.914   5.825   0.145  0.6311  0.5641 -0.0907
 1284SOL    HW3 4903   6.009   5.803   0.030  1.5582 -1.3747  1.0060
 1284SOL    MW4 4904   5.977   5.854   0.093  0.3548 -0.0649 -0.0037
 1285SOL     OW 4905   1.939   4.944   3.906  0.5337  0.3574 -0.0308
 1285SOL    HW2 4906   1.982   4.919   3.824 -0.5922 -0.3073 -0.4493
 1285SOL    HW3 4907   1.881   4.870   3.926 -0.5564  1.2885  0.3872
 1285SOL    MW4 4908   1.937   4.931   3.898 -0.1337  0.5224  0.2819
 1286SOL     OW 4909   3.515   1.738   3.692  0.5928 -0.0854 -0.0550
 1286SOL    HW2 4910   3.455   1.684   3.743  1.7849 -2.4081 -0.9364
 1286SOL    HW3 4911   3.464   1.767   3.616  0.2330 -1.0241 -0.1803
 1286SOL    MW4 4912   3.501   1.735   3.688  0.2874 -0.1243 -0.6929
 1287SOL     OW 4913   3.424   4.618   2.998  0.4449 -0.1265 -0.2738
 1287SOL    HW2 4914   3.512   4.649   2.976  1.1069 -0.6291  1.4560
 1287SOL    HW3 4915   3.406   4.658   3.083 -1.6259  1.1116 -1.2324
 1287SOL    MW4 4916   3.433   4.627   3.006  0.4058  0.2832  0.4237
 1288SOL     OW 4917   1.016   0.747   5.948  0.3279 -0.0945  0.1660
 1288SOL    HW2 4918   1.044   0.681   6.012 -0.1754 -2.1793 -1.6251
 1288SOL    HW3 4919   1.097   0.785   5.915  0.6735 -0.3863  0.6753
 1288SOL    MW4 4920   1.030   0.743   5.952 -0.6144  0.2809 -0.0576
 1289SOL     OW 4921   5.685   3.445   1.517  0.8862 -0.0229 -0.3976
 1289SOL    HW2 4922   5.780   3.434   1.510  0.9690 -0.4282  1.0625
 1289SOL    HW3 4923   5.673   3.511   1.585  0.1150 -0.2730 -0.2817
 1289SOL    MW4 4924   5.696   3.452   1.525  0.1547 -0.6935 -0.8287
 1290SOL     OW 4925   1.006   3.048   4.962 -0.6276  0.6587  0.2968
 1290SOL    HW2 4926   1.102   3.055   4.958 -0.6680  3.3507  1.7292
 1290SOL    HW3 4927   0.990   2.973   5.020  0.5768 -0.0931 -0.2913
 1290SOL    MW4 4928   1.017   3.039   4.969 -0.1228 -0.6919  0.3377
 1291SOL     OW 4929   2.734   1.561   3.668 -0.2378  0.1706  0.0766
 1291SOL    HW2 4930   2.656   1.528   3.623  0.1351 -1.0471  0.2975
 1291SOL    HW3 4931   2.700   1.614   3.739 -0.8845 -0.7601  0.4749
 1291SOL    MW4 4932   2.719   1.563   3.671  0.4646 -0.3779 -0.0072
 1292SOL     OW 4933   2.932   1.646   4.001 -0.2683 -0.4780 -0.1117
 1292SOL    HW2 4934   2.954   1.725   4.051 -1.2272 -0.5585  0.4575
 1292SOL    HW3 4935   2.837   1.649   3.993 -0.0915  0.2957 -3.1917
 1292SOL    MW4 4936   2.922   1.657   4.006  0.2016  0.0412 -0.1149
 1293SOL     OW 4937   5.251   0.194   5.362 -0.6097 -0.0355 -0.2400
 1293SOL    HW2 4938   5.184   0.205   5.428 -0.9220  1.0428 -0.7224
 1293SOL    HW3 4939   5.208   0.144   5.292 -0.8271  0.3972 -0.4183
 1293SOL    MW4 4940   5.237   0.189   5.361 -0.9443  0.2526 -0.0209
 1294SOL     OW 4941   3.120   2.935   2.834 -0.4203  0.2538  0.2076
 1294SOL    HW2 4942   3.163   2.867   2.783 -0.6415  0.7735 -0.7089
 1294SOL    HW3 4943   3.028   2.909   2.838 -0.4045  0.2172  0.3348
 1294SOL    MW4 4944   3.114   2.923   2.828 -0.0199  0.4102 -0.1595
 1295SOL     OW 4945   3.515   6.004   1.775  0.4200 -0.0871  0.9802
 1295SOL    HW2 4946   3.609   6.015   1.766  0.3393  0.3699  0.6616
 1295SOL    HW3 4947   3.501   5.909   1.767  0.8735 -0.1795  1.2884
 1295SOL    MW4 4948   3.526   5.993   1.773 -0.0283  0.3845 -0.3784
 1296SOL     OW 4949   6.458   2.034   4.473 -0.1159 -0.2281  0.0044
 1296SOL    HW2 4950   6.505   1.966   4.520  1.2779 -0.6921 -1.9301
 1296SOL    HW3 4951   6.494   2.116   4.507  0.8745 -0.5516 -0.2279
 1296SOL    MW4 4952   6.469   2.036   4.484 -0.1902  0.0802 -0.0292
 1297SOL     OW 4953   2.933   3.755   4.715 -0.2839  0.1376 -0.1975
 1297SOL    HW2 4954   2.954   3.816   4.645  0.4909 -1.0683 -1.0519
 1297SOL    HW3 4955   3.017   3.727   4.750 -0.6359 -0.1613  0.4369
 1297SOL    MW4 4956   2.947   3.759   4.710  0.2514 -0.2198  0.0439
 1298SOL     OW 4957   3.051   1.530   0.094  0.1198 -0.1699  0.4482
 1298SOL    HW2 4958   3.053   1.457   0.032 -1.5505  0.3071 -0.2130
 1298SOL    HW3 4959   3.060   1.488   0.180 -0.9957 -1.1897  0.0972
 1298SOL    MW4 4960   3.052   1.515   0.097  0.0109  0.1289  0.7673
 1299SOL     OW 4961   3.547   1.107   5.144  0.4568 -0.3966  0.3036
 1299SOL    HW2 4962   3.583   1.191   5.114 -0.2677 -0.6498 -1.3554
 1299SOL    HW3 4963   3.624   1.056   5.169  1.0212  0.2319 -0.1017
 1299SOL    MW4 4964   3.562   1.111   5.143  0.5399 -0.0976  0.4620
 1300SOL     OW 4965   5.779   2.035   1.113 -0.3338 -0.3881 -0.3168
 1300SOL    HW2 4966   5.859   2.080   1.085 -0.4560  0.2328  0.3034
 1300SOL    HW3 4967   5.757   1.978   1.039  0.4571 -0.2746 -0.6576
 1300SOL    MW4 4968   5.787   2.033   1.099 -0.6903 -0.0434 -0.1848
 1301SOL     OW 4969   3.588   2.533   0.212 -0.4913 -0.1604  0.0896
 1301SOL    HW2 4970   3.584   2.624   0.242 -1.8147 -0.3501  0.5869
 1301SOL    HW3 4971   3.536   2.533   0.131  0.9581 -0.1465 -0.8666
 1301SOL    MW4 4972   3.580   2.545   0.205  0.7693  0.4403 -0.3877
 1302SOL     OW 4973   3.212   2.892   1.957  0.6856 -0.2809  0.0172
 1302SOL    HW2 4974   3.263   2.861   1.882  2.5185 -1.4329  1.6342
 1302SOL    HW3 4975   3.173   2.975   1.927  2.3528 -0.0852 -1.8046
 1302SOL    MW4 4976   3.214   2.899   1.943 -0.2931 -1.0419 -0.1175
 1303SOL     OW 4977   5.303   1.464   0.780  0.1239 -0.0836 -0.3203
 1303SOL    HW2 4978   5.239   1.534   0.795  0.2317 -0.0617  0.0585
 1303SOL    HW3 4979   5.387   1.505   0.801  0.0339 -0.8291  1.6821
 1303SOL    MW4 4980   5.306   1.479   0.785  0.8245 -0.9800 -0.6787
 1304SOL     OW 4981   2.056   1.043   2.975  0.0205  0.6656  0.5606
 1304SOL    HW2 4982   2.143   1.082   2.981  0.1049  0.9759 -1.8170
 1304SOL    HW3 4983   2.068   0.964   2.921 -0.7327 -0.8919  2.5278
 1304SOL    MW4 4984   2.069   1.037   2.968 -0.1270 -0.1068  0.4757
 1305SOL     OW 4985   1.048   3.115   4.674  0.3950 -0.1268 -0.0455
 1305SOL    HW2 4986   1.096   3.195   4.656 -0.1465  0.5697  1.4213
 1305SOL    HW3 4987   1.026   3.120   4.767 -0.1714 -1.6971 -0.0498
 1305SOL    MW4 4988   1.052   3.126   4.684 -0.1112  0.0969 -0.3269
 1306SOL     OW 4989   6.073   6.245   6.163 -0.2645  0.3113 -0.2704
 1306SOL    HW2 4990   6.166   6.241   6.141 -0.3699  1.5954 -1.0831
 1306SOL    HW3 4991   6.043   6.327   6.124 -1.4066  0.6804  1.2821
 1306SOL    MW4 4992   6.081   6.255   6.155  0.5643  0.5345 -0.5322
 1307SOL     OW 4993   5.032   3.665   4.254 -0.1858  0.6947  0.2123
 1307SOL    HW2 4994   5.107   3.677   4.195  0.3532 -2.8268 -0.0413
 1307SOL    HW3 4995   5.063   3.692   4.340  0.6542  1.2550 -0.2588
 1307SOL    MW4 4996   5.046   3.670   4.257 -0.4804 -0.5419  0.1451
 1308SOL     OW 4997   4.048   2.763   0.481  0.1897 -0.4908 -0.2692
 1308SOL    HW2 4998   4.012   2.814   0.409  0.0747 -1.6323 -1.0433
 1308SOL    HW3 4999   3.984   2.771   0.552  0.0331  0.1679 -0.4786
 1308SOL    MW4 5000   4.035   2.771   0.481 -0.0914  0.2315  0.2138
 1309SOL     OW 5001   5.648   5.964   3.077 -0.2795  0.5505  0.4745
 1309SOL    HW2 5002   5.715   5.922   3.132  1.0598 -0.3142 -1.6559
 1309SOL    HW3 5003   5.698   6.003   3.005 -1.9802  0.9817 -0.5212
 1309SOL    MW4 5004   5.664   5.964   3.075 -0.4092 -0.4056  0.0820
 1310SOL     OW 5005   2.073   3.381   2.065 -0.1231  0.7720  0.3867
 1310SOL    HW2 5006   1.979   3.364   2.076 -0.6112  1.0689 -2.3916
 1310SOL    HW3 5007   2.077   3.450   1.999  2.0679  0.8031  0.4834
 1310SOL    MW4 5008   2.061   3.387   2.057 -0.0164  0.2606  0.2902
 1311SOL     OW 5009   5.354   0.927   5.752  0.6525  0.2036 -0.1389
 1311SOL    HW2 5010   5.378   1.011   5.789 -2.0583  1.1226 -0.2201
 1311SOL    HW3 5011   5.285   0.894   5.810 -0.9189 -0.1675 -2.0888
 1311SOL    MW4 5012   5.348   0.933   5.765  0.6343 -0.0032 -0.3288
 1312SOL     OW 5013   2.435   5.903   3.871 -0.2743 -0.0170  0.1934
 1312SOL    HW2 5014   2.479   5.911   3.787  0.7341  1.6551  0.8242
 1312SOL    HW3 5015   2.478   5.828   3.913 -0.1350 -0.2727 -0.3956
 1312SOL    MW4 5016   2.446   5.894   3.866 -0.2113 -0.0738  0.0234
 1313SOL     OW 5017   5.532   0.509   3.301 -0.5542 -0.1929 -0.1969
 1313SOL    HW2 5018   5.611   0.500   3.247 -0.4068 -1.5882  0.2079
 1313SOL    HW3 5019   5.539   0.437   3.364 -1.8431  0.0634  0.2520
 1313SOL    MW4 5020   5.544   0.499   3.302  0.7069  0.7928 -0.6252
 1314SOL     OW 5021   3.888   2.506   0.176 -0.1590 -0.9596 -0.3580
 1314SOL    HW2 5022   3.922   2.525   0.263  0.8341 -1.3249 -0.6461
 1314SOL    HW3 5023   3.799   2.539   0.177  0.8280  2.0240 -0.2565
 1314SOL    MW4 5024   3.881   2.513   0.187 -0.1541  0.6200 -0.1040
 1315SOL     OW 5025   4.718   5.461   3.262 -0.1015  0.4482  0.8666
 1315SOL    HW2 5026   4.780   5.468   3.190 -0.7954 -0.7263  0.1309
 1315SOL    HW3 5027   4.651   5.400   3.231 -0.9802  0.7465  2.1017
 1315SOL    MW4 5028   4.718   5.454   3.249  0.1361 -0.1706 -0.2795
 1316SOL     OW 5029   1.268   0.282   3.248 -0.1415  0.2036 -0.4349
 1316SOL    HW2 5030   1.192   0.295   3.191 -0.7062 -1.6163 -0.1804
 1316SOL    HW3 5031   1.233   0.288   3.336 -0.0160 -0.7011 -0.3159
 1316SOL    MW4 5032   1.254   0.284   3.252 -0.5169  0.0485  0.0445
 1317SOL     OW 5033   1.184   1.695   1.667 -0.4999 -0.5999  0.6537
 1317SOL    HW2 5034   1.144   1.683   1.581  0.2482 -1.9407  0.4639
 1317SOL    HW3 5035   1.166   1.614   1.713  0.2317 -0.4089  1.2964
 1317SOL    MW4 5036   1.176   1.683   1.662 -0.8357 -0.0913  0.2791
 1318SOL     OW 5037   3.317   4.950   3.737 -0.4067  0.0662  0.5087
 1318SOL    HW2 5038   3.353   4.882   3.794 -1.7188 -0.4204  0.7860
 1318SOL    HW3 5039   3.329   4.917   3.648  0.4713  0.2431  0.5524
 1318SOL    MW4 5040   3.324   4.937   3.733 -0.3836 -0.1167 -0.4176
 1319SOL     OW 5041   3.092   4.138   2.266  0.1761  0.6094 -0.7025
 1319SOL    HW2 5042   3.058   4.192   2.195 -0.8161  1.8162  0.6371
 1319SOL    HW3 5043   3.022   4.076   2.285 -0.3254  1.4850  0.4096
 1319SOL    MW4 5044   3.078   4.137   2.259  0.5898  0.7147 -0.0125
 1320SOL     OW 5045   3.541   2.681   5.224  0.0584  0.3325 -0.6059
 1320SOL    HW2 5046   3.565   2.674   5.316  0.5300  1.9579 -0.5725
 1320SOL    HW3 5047   3.611   2.636   5.177  0.9487  1.3153 -0.2636
 1320SOL    MW4 5048   3.553   2.675   5.230  0.0117  0.0102 -0.0184
 1321SOL     OW 5049   2.895   3.393   2.379 -0.3068  0.1438 -0.6680
 1321SOL    HW2 5050   2.950   3.416   2.454 -0.2332 -0.5974 -0.4869
 1321SOL    HW3 5051   2.820   3.452   2.385  0.1314  0.7008 -0.5275
 1321SOL    MW4 5052   2.892   3.404   2.389  0.0986 -0.4003  0.0322
 1322SOL     OW 5053   2.550   4.885   0.466 -0.3469  0.2239  0.1046
 1322SOL    HW2 5054   2.561   4.980   0.461 -0.5806  0.1985 -1.0335
 1322SOL    HW3 5055   2.532   4.869   0.558  0.1485  1.2329  0.4014
 1322SOL    MW4 5056   2.549   4.896   0.478 -0.0468  0.2134 -0.4238
 1323SOL     OW 5057   0.746   0.851   1.428  0.0627  0.4174  0.3767
 1323SOL    HW2 5058   0.654   0.867   1.448  0.3370  0.9901  1.2657
 1323SOL    HW3 5059   0.773   0.929   1.380 -0.1912 -0.2558 -0.8919
 1323SOL    MW4 5060   0.737   0.864   1.424  0.4038 -0.0526 -0.5931
 1324SOL     OW 5061   5.238   1.168   5.957 -0.2962  0.2105 -0.3195
 1324SOL    HW2 5062   5.326   1.179   5.922  0.7655  1.5486  2.4914
 1324SOL    HW3 5063   5.250   1.160   6.051 -3.1613  0.0020  0.1195
 1324SOL    MW4 5064   5.251   1.168   5.965  0.8585 -0.6572 -0.0169
 1325SOL     OW 5065   4.868   3.099   5.300  0.0080 -0.2227 -0.6404
 1325SOL    HW2 5066   4.830   3.012   5.303  0.1285 -0.2614 -0.0670
 1325SOL    HW3 5067   4.917   3.101   5.218  0.3144 -0.8274 -0.4792
 1325SOL    MW4 5068   4.870   3.088   5.290 -0.2387 -0.0512  0.1472
 1326SOL     OW 5069   3.794   5.891   1.835 -0.4189 -0.1925  0.5357
 1326SOL    HW2 5070   3.866   5.939   1.793  1.4604 -1.8658  1.6243
 1326SOL    HW3 5071   3.784   5.812   1.783 -1.8445  0.2311  0.1276
 1326SOL    MW4 5072   3.803   5.887   1.823 -0.9195 -0.2158  0.0248
 1327SOL     OW 5073   4.121   5.531   0.136 -0.5855 -0.6329  0.1987
 1327SOL    HW2 5074   4.211   5.553   0.161 -0.0057 -0.9429 -1.4648
 1327SOL    HW3 5075   4.131   5.465   0.067 -2.0683 -0.1603 -0.5103
 1327SOL    MW4 5076   4.134   5.525   0.131 -0.1248  0.3586  0.1212
 1328SOL     OW 5077   3.426   0.305   1.055  0.1546 -0.3604  0.1320
 1328SOL    HW2 5078   3.467   0.354   1.126 -0.5209 -1.1809  1.1238
 1328SOL    HW3 5079   3.345   0.272   1.093 -1.0280  0.4934 -1.4995
 1328SOL    MW4 5080   3.421   0.307   1.069  0.3835  0.3024 -0.2723
 1329SOL     OW 5081   1.184   6.082   0.533  0.3294 -0.2479 -0.4628
 1329SOL    HW2 5082   1.234   6.132   0.598  0.8035  0.4727 -1.3474
 1329SOL    HW3 5083   1.146   6.010   0.582  2.6807 -1.1545  0.1698
 1329SOL    MW4 5084   1.186   6.079   0.548  0.1085  0.1291  0.3496
 1330SOL     OW 5085   2.184   3.808   5.028  1.0082 -0.1776 -0.0798
 1330SOL    HW2 5086   2.218   3.850   5.107 -2.9109  1.6946  0.8624
 1330SOL    HW3 5087   2.200   3.715   5.042  0.8694  0.1318  2.7723
 1330SOL    MW4 5088   2.190   3.802   5.040 -0.2516 -0.1976  0.0736
 1331SOL     OW 5089   1.050   2.671   2.857  0.4352  0.3668 -0.1245
 1331SOL    HW2 5090   1.143   2.696   2.853  0.5001  0.8754  2.7323
 1331SOL    HW3 5091   1.031   2.663   2.950 -2.4016  0.1663 -0.6338
 1331SOL    MW4 5092   1.060   2.673   2.869 -0.2272  0.6073  0.4211
 1332SOL     OW 5093   4.322   3.890   0.600  0.8499  0.0179 -0.0382
 1332SOL    HW2 5094   4.300   3.872   0.691  0.0950  1.3346  0.0551
 1332SOL    HW3 5095   4.394   3.829   0.581  0.3213 -1.0123  1.0983
 1332SOL    MW4 5096   4.329   3.880   0.609 -0.0177  0.6269  0.0209
 1333SOL     OW 5097   2.033   2.610   1.280 -0.5763  0.0551 -0.0275
 1333SOL    HW2 5098   2.049   2.588   1.188 -0.2796  0.2734 -0.0334
 1333SOL    HW3 5099   2.090   2.686   1.296  0.0373 -0.5206  0.5792
 1333SOL    MW4 5100   2.043   2.617   1.270 -0.0937 -0.3120  0.2882
 1334SOL     OW 5101   4.561   1.138   3.760  0.9540 -0.0618 -0.5358
 1334SOL    HW2 5102   4.595   1.174   3.678  2.3982 -1.0789 -0.4322
 1334SOL    HW3 5103   4.495   1.074   3.734  1.9500 -0.9445 -0.9829
 1334SOL    MW4 5104   4.557   1.134   3.746 -0.4010 -0.0716  0.2111
 1335SOL     OW 5105   0.522   3.567   5.899  0.1662 -0.1279  0.3356
 1335SOL    HW2 5106   0.586   3.496   5.898 -0.4089 -0.7448 -2.6905
 1335SOL    HW3 5107   0.568   3.641   5.939  3.4129 -0.0408 -3.0469
 1335SOL    MW4 5108   0.536   3.567   5.904  0.0836 -0.6352  0.6665
 1336SOL     OW 5109   1.563   3.748   2.433 -0.3493 -0.1969  0.4425
 1336SOL    HW2 5110   1.511   3.780   2.360 -0.9033 -3.5427 -0.8202
 1336SOL    HW3 5111   1.498   3.709   2.493  0.4038 -2.4875 -0.1152
 1336SOL    MW4 5112   1.547   3.747   2.431 -0.6304  0.1667  0.5696
 1337SOL     OW 5113   2.368   4.579   2.881  0.5178  0.3032  0.2075
 1337SOL    HW2 5114   2.382   4.504   2.939  0.9948 -1.4703 -2.0283
 1337SOL    HW3 5115   2.284   4.615   2.909 -0.0487 -1.4900  0.9905
 1337SOL    MW4 5116   2.359   4.574   2.892  0.2626 -0.7000  0.0003
 1338SOL     OW 5117   4.245   3.419   5.481 -0.3827 -0.1635  0.3158
 1338SOL    HW2 5118   4.303   3.347   5.507  0.1344 -0.5889 -1.8850
 1338SOL    HW3 5119   4.158   3.379   5.474  0.0462 -0.8252 -1.7334
 1338SOL    MW4 5120   4.241   3.404   5.484  0.5341 -0.0214  1.2400
 1339SOL     OW 5121   1.037   3.687   5.438 -0.1135 -0.2445 -0.0622
 1339SOL    HW2 5122   0.962   3.739   5.465 -1.2046 -1.4443 -0.6843
 1339SOL    HW3 5123   1.087   3.673   5.518  1.1213  3.0748 -0.1284
 1339SOL    MW4 5124   1.034   3.692   5.452  0.5889  0.3073  0.4465
 1340SOL     OW 5125   6.265   6.131   3.581  0.0786 -0.7705 -0.4173
 1340SOL    HW2 5126   6.352   6.093   3.595  0.7595  0.6211 -0.6433
 1340SOL    HW3 5127   6.253   6.128   3.487  0.0024 -0.7515 -0.4077
 1340SOL    MW4 5128   6.275   6.126   3.571 -0.1597 -0.2741 -0.0018
 1341SOL     OW 5129   3.670   0.402   2.677  0.0077 -0.1944 -0.3969
 1341SOL    HW2 5130   3.751   0.414   2.728  0.4022 -0.0483 -1.0502
 1341SOL    HW3 5131   3.700   0.392   2.587 -0.8123  1.6367 -0.8985
 1341SOL    MW4 5132   3.685   0.402   2.672  0.1549  0.4078  0.3225
 1342SOL     OW 5133   0.128   0.442   4.487 -0.5969 -0.2640 -0.1326
 1342SOL    HW2 5134   0.110   0.370   4.547 -0.9676  0.0496  0.1352
 1342SOL    HW3 5135   0.044   0.484   4.472 -0.1733  1.0274  0.9013
 1342SOL    MW4 5136   0.115   0.438   4.493 -1.0060  0.7674 -0.3612
 1343SOL     OW 5137   1.098   2.138   1.560  0.3247  0.4062  0.3185
 1343SOL    HW2 5138   1.160   2.107   1.626  2.1074  0.7513 -1.1017
 1343SOL    HW3 5139   1.027   2.075   1.562  1.5625 -1.0405  0.8153
 1343SOL    MW4 5140   1.097   2.126   1.569 -0.0047 -0.0651  0.4922
 1344SOL     OW 5141   0.082   0.196   2.778  0.0970  0.0646  0.6535
 1344SOL    HW2 5142   0.075   0.172   2.686 -0.7227 -1.5256  1.0919
 1344SOL    HW3 5143   0.026   0.274   2.787  0.5228  0.4871 -0.2642
 1344SOL    MW4 5144   0.073   0.203   2.767 -0.2044 -0.8240  0.2666
 1345SOL     OW 5145   4.677   2.833   0.905 -0.3202 -0.6996 -0.6350
 1345SOL    HW2 5146   4.760   2.849   0.860  0.4495  0.4706  1.1119
 1345SOL    HW3 5147   4.697   2.841   0.998 -1.8320 -3.1591  0.0219
 1345SOL    MW4 5148   4.690   2.836   0.911 -0.4811  0.6886 -0.7660
 1346SOL     OW 5149   6.382   6.173   2.250  0.0707 -0.7601 -0.3180
 1346SOL    HW2 5150   6.319   6.241   2.230  1.1784  0.1823 -0.7146
 1346SOL    HW3 5151   6.344   6.093   2.214 -1.8976 -0.6559  1.3598
 1346SOL    MW4 5152   6.369   6.171   2.243 -0.3836  0.2763 -0.1396
 1347SOL     OW 5153   3.078   5.223   1.943 -0.1432 -0.2355  0.7008
 1347SOL    HW2 5154   3.172   5.205   1.939 -0.2227 -0.4924 -1.6275
 1347SOL    HW3 5155   3.057   5.255   1.855 -2.3341 -0.6430  1.0287
 1347SOL    MW4 5156   3.088   5.225   1.931  0.1370 -0.0904  0.1332
 1348SOL     OW 5157   3.898   4.458   5.766  0.1064 -0.6650 -0.3407
 1348SOL    HW2 5158   3.963   4.429   5.831  0.4883 -3.3326 -1.7394
 1348SOL    HW3 5159   3.949   4.511   5.705  0.1615  0.2361  0.4637
 1348SOL    MW4 5160   3.914   4.461   5.767 -0.2850  0.0416  1.0611
 1349SOL     OW 5161   0.960   0.204   3.970 -0.4815 -0.0662  0.0698
 1349SOL    HW2 5162   1.035   0.147   3.953  0.1370  0.5013  0.8545
 1349SOL    HW3 5163   0.957   0.263   3.894  0.0426  0.0894  0.1626
 1349SOL    MW4 5164   0.969   0.204   3.958  0.3268 -0.0148  0.2706
 1350SOL     OW 5165   0.147   3.981   1.136 -0.4275  0.0776 -0.8964
 1350SOL    HW2 5166   0.219   4.043   1.143 -0.2691 -0.1834 -0.0804
 1350SOL    HW3 5167   0.068   4.036   1.137 -0.2584  0.3393 -1.4510
 1350SOL    MW4 5168   0.146   3.996   1.137 -0.0391  0.1641 -0.3941
 1351SOL     OW 5169   2.771   2.510   3.147 -0.1182  0.4398 -0.6693
 1351SOL    HW2 5170   2.703   2.570   3.177  0.0200  0.4471 -0.3683
 1351SOL    HW3 5171   2.745   2.425   3.181 -0.5005  0.2572 -1.3916
 1351SOL    MW4 5172   2.759   2.507   3.155 -0.2350  0.1217  0.2600
 1352SOL     OW 5173   0.830   4.089   2.711  0.1353  0.2827 -0.0328
 1352SOL    HW2 5174   0.754   4.148   2.717  1.0106  1.7014 -1.9436
 1352SOL    HW3 5175   0.791   4.002   2.702 -1.2037  0.5782  2.1592
 1352SOL    MW4 5176   0.815   4.085   2.710 -0.3398 -0.1819 -0.1637
 1353SOL     OW 5177   1.690   1.415   0.420 -0.7859 -0.0771 -0.0439
 1353SOL    HW2 5178   1.661   1.349   0.483  0.2565 -1.2785 -0.7584
 1353SOL    HW3 5179   1.769   1.453   0.459  0.5693 -1.6693 -1.0586
 1353SOL    MW4 5180   1.697   1.411   0.433 -0.3981  0.4902  0.1245
 1354SOL     OW 5181   0.207   0.940   5.261 -0.5529  0.0911  0.3968
 1354SOL    HW2 5182   0.211   0.872   5.194  0.1056  1.9018 -1.5279
 1354SOL    HW3 5183   0.216   1.022   5.212 -1.3167  1.5827  2.6011
 1354SOL    MW4 5184   0.209   0.942   5.245 -0.5380  0.2868  0.1022
 1355SOL     OW 5185   1.749   3.831   3.279 -0.6873 -0.4523 -0.1024
 1355SOL    HW2 5186   1.713   3.765   3.219  0.0711  0.5215 -1.7197
 1355SOL    HW3 5187   1.798   3.891   3.221  2.2127 -0.8242  1.7477
 1355SOL    MW4 5188   1.751   3.830   3.263  0.3905  0.5265  0.3877
 1356SOL     OW 5189   0.809   2.791   2.727 -0.0564 -0.0091  0.4927
 1356SOL    HW2 5190   0.867   2.784   2.651 -0.7846 -1.8290  0.0482
 1356SOL    HW3 5191   0.863   2.764   2.801 -0.2003 -1.4075  0.1210
 1356SOL    MW4 5192   0.824   2.786   2.726 -0.4885  0.4239 -0.4599
 1357SOL     OW 5193   3.446   6.036   1.113 -0.2129  0.4442 -0.1442
 1357SOL    HW2 5194   3.479   6.115   1.070  1.7110 -0.7277 -0.9450
 1357SOL    HW3 5195   3.400   5.989   1.044 -1.2043  0.7691  0.2879
 1357SOL    MW4 5196   3.445   6.040   1.098  0.2267  0.2753 -0.4855
 1358SOL     OW 5197   2.584   2.941   5.807  0.2775  0.2622  0.1248
 1358SOL    HW2 5198   2.567   3.009   5.741 -0.4882 -0.7796 -0.7741
 1358SOL    HW3 5199   2.599   2.991   5.888 -0.9528  1.4923 -0.3548
 1358SOL    MW4 5200   2.584   2.957   5.809  0.0639  0.5053 -0.8261
 1359SOL     OW 5201   3.062   0.846   2.828  0.0891  0.1174 -0.6975
 1359SOL    HW2 5202   3.015   0.912   2.880  0.6871 -0.0903  0.1304
 1359SOL    HW3 5203   3.147   0.838   2.871  0.4992 -0.2672 -1.5606
 1359SOL    MW4 5204   3.067   0.854   2.841  0.0206  0.2580 -0.2100
 1360SOL     OW 5205   5.133   3.888   5.489 -0.0601 -0.4639 -0.2704
 1360SOL    HW2 5206   5.076   3.913   5.417 -1.0982 -1.1214  0.3104
 1360SOL    HW3 5207   5.185   3.815   5.455 -1.2529 -1.4413 -0.0525
 1360SOL    MW4 5208   5.133   3.882   5.475 -0.4927 -0.2961  0.4142
 1361SOL     OW 5209   2.338   5.512   4.980  0.2282 -0.3300  0.1771
 1361SOL    HW2 5210   2.289   5.573   4.926  1.2528  1.3151  1.0345
 1361SOL    HW3 5211   2.388   5.567   5.040  2.3548 -1.9285  0.0001
 1361SOL    MW4 5212   2.338   5.527   4.980  0.4970 -0.5340 -0.1241
 1362SOL     OW 5213   5.499   3.176   1.235  0.2356 -0.6274  0.0910
 1362SOL    HW2 5214   5.470   3.093   1.198  0.3014 -0.7003  0.2021
 1362SOL    HW3 5215   5.429   3.238   1.213  1.0954 -0.2447 -1.7273
 1362SOL    MW4 5216   5.486   3.173   1.228  0.5188  0.4557  0.4869
 1363SOL     OW 5217   1.491   3.047   2.517  0.2601 -0.0014 -0.4394
 1363SOL    HW2 5218   1.449   3.051   2.432 -1.1070 -1.5028  0.1065
 1363SOL    HW3 5219   1.425   3.007   2.575  1.7799 -0.7048  0.8942
 1363SOL    MW4 5220   1.477   3.042   2.514  0.3187  0.4984 -0.1883
 1364SOL     OW 5221   1.758   1.840   0.209  0.1148  0.2575 -0.1733
 1364SOL    HW2 5222   1.755   1.923   0.257 -0.7945 -0.7780  1.6735
 1364SOL    HW3 5223   1.689   1.787   0.249  1.3130 -1.7428 -0.6370
 1364SOL    MW4 5224   1.749   1.844   0.221  0.0278  0.0276  0.5728
 1365SOL     OW 5225   6.102   5.093   6.135 -0.2766 -0.4990 -0.2452
 1365SOL    HW2 5226   6.031   5.033   6.154  0.3895 -1.1203  0.3072
 1365SOL    HW3 5227   6.142   5.112   6.220 -1.1703  1.6384 -0.2243
 1365SOL    MW4 5228   6.098   5.088   6.149  0.1688  0.3993 -0.3277
 1366SOL     OW 5229   2.192   3.870   0.714 -0.5891  0.4761  0.0924
 1366SOL    HW2 5230   2.132   3.879   0.789  0.0361 -1.2553  0.8685
 1366SOL    HW3 5231   2.183   3.778   0.689  1.8219  0.1231  0.3290
 1366SOL    MW4 5232   2.183   3.859   0.721  0.1035  0.2019  0.4062
 1367SOL     OW 5233   3.091   2.676   4.060 -0.1202 -0.4231  0.1268
 1367SOL    HW2 5234   3.102   2.667   3.965 -1.0598 -0.0795 -0.0258
 1367SOL    HW3 5235   3.100   2.587   4.094  1.4604 -0.3968 -0.1293
 1367SOL    MW4 5236   3.094   2.663   4.052  0.2514 -0.4195  0.2367
 1368SOL     OW 5237   3.795   6.389   5.334  0.2728  0.2167 -0.0935
 1368SOL    HW2 5238   3.849   6.467   5.324  1.2141 -0.3860  0.0591
 1368SOL    HW3 5239   3.716   6.419   5.378 -1.3627  1.8860 -3.7319
 1368SOL    MW4 5240   3.792   6.403   5.339  0.0204  0.2400  0.5435
 1369SOL     OW 5241   0.650   0.373   3.801 -0.3884 -0.1379  0.5153
 1369SOL    HW2 5242   0.574   0.430   3.814 -1.6304 -1.4721 -0.5649
 1369SOL    HW3 5243   0.647   0.313   3.875  1.6375  1.8245  2.3498
 1369SOL    MW4 5244   0.639   0.373   3.813 -0.4051 -0.0130  0.6162
 1370SOL     OW 5245   4.375   0.449   3.570 -0.0111  0.2692  0.8532
 1370SOL    HW2 5246   4.413   0.370   3.607  0.1615  0.7969  1.8447
 1370SOL    HW3 5247   4.428   0.520   3.607 -1.6050  0.9990  1.8526
 1370SOL    MW4 5248   4.387   0.448   3.580 -0.0777 -0.4099  0.1512
 1371SOL     OW 5249   1.337   1.058   3.153 -0.2856  0.0333 -0.3701
 1371SOL    HW2 5250   1.382   0.974   3.158 -1.1265 -0.4078  0.1602
 1371SOL    HW3 5251   1.396   1.120   3.196  0.5202 -0.1928 -1.1214
 1371SOL    MW4 5252   1.350   1.055   3.160  0.0390 -0.0815  0.0057
 1372SOL     OW 5253   1.005   5.236   3.704 -0.7929  0.0882 -0.1749
 1372SOL    HW2 5254   1.081   5.192   3.666 -3.2958 -3.1091 -1.8891
 1372SOL    HW3 5255   0.996   5.198   3.791  0.8679  2.3075  1.0694
 1372SOL    MW4 5256   1.014   5.226   3.710  0.2224 -0.3752 -0.2182
 1373SOL     OW 5257   1.838   1.969   1.975 -0.0460  0.4540 -0.5124
 1373SOL    HW2 5258   1.918   2.018   1.996  0.8912 -1.2187  0.0072
 1373SOL    HW3 5259   1.838   1.965   1.879  2.1741 -2.0298 -0.5158
 1373SOL    MW4 5260   1.849   1.975   1.965 -0.9561  0.6494 -0.0407
 1374SOL     OW 5261   3.834   5.994   2.635  0.0803  0.4411  0.4931
 1374SOL    HW2 5262   3.799   6.079   2.662 -3.4331 -0.9511  0.9213
 1374SOL    HW3 5263   3.800   5.982   2.546 -0.2601 -0.8542  0.7759
 1374SOL    MW4 5264   3.825   6.004   2.627  0.6047  0.3293  0.5450
 1375SOL     OW 5265   2.512   2.631   1.093  0.2809 -0.0619  0.4941
 1375SOL    HW2 5266   2.486   2.719   1.124  0.0821 -0.2046  0.7436
 1375SOL    HW3 5267   2.492   2.632   1.000  1.2655  0.5172  0.2687
 1375SOL    MW4 5268   2.506   2.643   1.085  0.0972  0.3145  0.0023
 1376SOL     OW 5269   2.937   1.960   4.081  0.3508  0.9954 -0.2484
 1376SOL    HW2 5270   2.865   2.022   4.094  0.5452  1.2259 -0.2606
 1376SOL    HW3 5271   3.010   1.997   4.131 -0.1511 -0.3409  1.5702
 1376SOL    MW4 5272   2.937   1.973   4.089 -0.0788 -0.7362  0.0398
 1377SOL     OW 5273   0.063   0.781   5.901 -0.2613  0.1673  0.0268
 1377SOL    HW2 5274  -0.031   0.764   5.907  0.0957 -1.5717  1.4270
 1377SOL    HW3 5275   0.104   0.696   5.915  1.5377  0.7905 -1.1077
 1377SOL    MW4 5276   0.056   0.768   5.904 -0.1893  0.1825 -0.9027
 1378SOL     OW 5277   3.615   4.744   0.427  0.4213  0.2008  0.0332
 1378SOL    HW2 5278   3.532   4.767   0.468 -0.5920 -1.2848 -1.0781
 1378SOL    HW3 5279   3.614   4.789   0.343 -0.6978 -2.0993 -1.2973
 1378SOL    MW4 5280   3.604   4.753   0.421  0.1783 -0.0561  0.4862
 1379SOL     OW 5281   1.736   4.394   1.136  0.3701 -0.5698 -0.1497
 1379SOL    HW2 5282   1.693   4.413   1.053  1.0360  0.0819 -0.3571
 1379SOL    HW3 5283   1.665   4.394   1.200 -0.2266 -1.6332 -0.7880
 1379SOL    MW4 5284   1.721   4.397   1.134  0.4357 -0.0741  0.1313
 1380SOL     OW 5285   5.110   4.003   4.467 -0.0805 -0.2279 -0.2569
 1380SOL    HW2 5286   5.131   4.020   4.376 -0.2607 -1.9374 -0.6519
 1380SOL    HW3 5287   5.165   4.065   4.516  0.7132  0.0747 -1.4814
 1380SOL    MW4 5288   5.120   4.014   4.462  0.0371  0.0167  0.0561
 1381SOL     OW 5289   2.663   4.349   2.970  0.0718 -0.4894 -0.0240
 1381SOL    HW2 5290   2.702   4.421   3.020  1.7958  0.2763 -2.2351
 1381SOL    HW3 5291   2.711   4.271   2.998  0.8175 -0.1174 -0.2233
 1381SOL    MW4 5292   2.675   4.348   2.980 -0.6064 -0.2152  0.0180
 1382SOL     OW 5293   5.450   0.215   0.450  0.3893 -0.0086 -0.2465
 1382SOL    HW2 5294   5.355   0.229   0.458  0.2340 -1.3307  0.5467
 1382SOL    HW3 5295   5.458   0.133   0.402  1.1940  0.9869 -1.8973
 1382SOL    MW4 5296   5.438   0.206   0.445 -0.0729 -0.3105 -0.2284
 1383SOL     OW 5297   2.588   0.157   1.686 -0.0474  0.1930  0.3966
 1383SOL    HW2 5298   2.670   0.115   1.659  0.0416  0.1496  0.7401
 1383SOL    HW3 5299   2.608   0.250   1.690 -0.7388  0.5627 -2.3082
 1383SOL    MW4 5300   2.601   0.164   1.683  0.1651  0.5801  0.4865
 1384SOL     OW 5301   6.101   1.239   2.846  0.7049 -0.6108  0.3164
 1384SOL    HW2 5302   6.159   1.204   2.778  0.4329 -2.0095  0.7643
 1384SOL    HW3 5303   6.136   1.205   2.928  0.1065 -0.2614  0.7257
 1384SOL    MW4 5304   6.113   1.230   2.848 -0.5565  0.1619  0.1960
 1385SOL     OW 5305   1.842   0.991   5.179 -0.1673 -0.6869  0.2038
 1385SOL    HW2 5306   1.809   0.909   5.217 -0.6181 -0.5930  0.0201
 1385SOL    HW3 5307   1.783   1.009   5.107 -0.3056  0.0137  0.4888
 1385SOL    MW4 5308   1.830   0.982   5.174 -0.2856  0.4535  0.1907
 1386SOL     OW 5309   2.113   1.090   1.449  0.0627 -0.1370  0.2946
 1386SOL    HW2 5310   2.179   1.080   1.518  0.9506  0.4064 -0.4593
 1386SOL    HW3 5311   2.102   1.185   1.440 -0.1408 -0.2079 -0.2157
 1386SOL    MW4 5312   2.121   1.101   1.457  0.4273  0.3094  0.1495
 1387SOL     OW 5313   2.675   4.343   6.193  0.1406  0.1482 -0.4327
 1387SOL    HW2 5314   2.632   4.274   6.141  0.5399 -0.1599 -0.3574
 1387SOL    HW3 5315   2.635   4.424   6.162 -2.1302 -0.2635  1.1807
 1387SOL    MW4 5316   2.664   4.345   6.182 -0.1867  0.4106 -1.0234
 1388SOL     OW 5317   1.842   5.682   3.188  0.3578  0.7113 -0.4775
 1388SOL    HW2 5318   1.830   5.759   3.245 -2.8017 -0.3249  0.4816
 1388SOL    HW3 5319   1.754   5.648   3.176  1.6478 -3.1958 -0.2969
 1388SOL    MW4 5320   1.829   5.688   3.194  0.2160  0.1502 -0.0194
 1389SOL     OW 5321   5.398   2.296   1.867 -0.0324 -0.2604 -0.2574
 1389SOL    HW2 5322   5.380   2.299   1.961 -1.2396  0.5727 -0.4871
 1389SOL    HW3 5323   5.442   2.379   1.848  2.0155 -1.2561 -0.1250
 1389SOL    MW4 5324   5.402   2.307   1.877 -0.5164  0.3513  0.2708
 1390SOL     OW 5325   0.487   3.937   0.456  0.6724 -0.3279 -0.2155
 1390SOL    HW2 5326   0.508   3.907   0.368 -0.9109 -1.9632 -0.0910
 1390SOL    HW3 5327   0.546   3.888   0.513  1.3356  0.3440 -0.3082
 1390SOL    MW4 5328   0.498   3.927   0.452 -0.1101  0.0176  0.5515
 1391SOL     OW 5329   0.284   5.393   2.302  0.6486  0.0282  0.0245
 1391SOL    HW2 5330   0.204   5.445   2.295  2.1234  3.0339  2.8045
 1391SOL    HW3 5331   0.337   5.421   2.228 -0.2843 -1.0421 -1.1040
 1391SOL    MW4 5332   0.280   5.404   2.292 -0.3936  0.1682  0.2633
 1392SOL     OW 5333   4.230   3.854   2.479  0.5049 -0.0885  0.2367
 1392SOL    HW2 5334   4.297   3.796   2.443  0.1520 -1.9857  2.4272
 1392SOL    HW3 5335   4.271   3.895   2.555 -0.4727 -0.4584  0.9782
 1392SOL    MW4 5336   4.244   3.852   2.484 -0.0470 -0.3961  0.4334
 1393SOL     OW 5337   0.981   3.238   5.960  0.2025  0.3513 -0.5681
 1393SOL    HW2 5338   0.985   3.325   5.999 -1.6561  1.4602 -2.6050
 1393SOL    HW3 5339   0.972   3.255   5.866 -0.1686 -2.0560 -1.0281
 1393SOL    MW4 5340   0.980   3.252   5.952  0.1680  0.3117 -0.0832
 1394SOL     OW 5341   6.205   0.786   5.894  0.5211  0.8806  0.1004
 1394SOL    HW2 5342   6.143   0.741   5.838  1.9298 -0.6908 -0.2745
 1394SOL    HW3 5343   6.169   0.778   5.983 -0.0717  0.4882 -0.1730
 1394SOL    MW4 5344   6.192   0.779   5.899  0.0795 -0.3821 -0.4814
 1395SOL     OW 5345   3.269   4.544   5.008  0.4423 -0.3461  0.4112
 1395SOL    HW2 5346   3.245   4.495   5.086 -0.5523 -0.3537  0.1171
 1395SOL    HW3 5347   3.233   4.493   4.935  1.1714 -0.2316 -0.0444
 1395SOL    MW4 5348   3.261   4.531   5.009  0.0797  0.6136  0.2446
 1396SOL     OW 5349   1.866   5.283   3.534  0.0961  0.6220 -0.1857
 1396SOL    HW2 5350   1.889   5.273   3.626 -0.0679  0.6720 -0.1400
 1396SOL    HW3 5351   1.845   5.376   3.524 -0.0599  0.5822 -0.2329
 1396SOL    MW4 5352   1.866   5.294   3.545  0.1150  0.1796  0.3071
 1397SOL     OW 5353   4.509   0.159   2.475  0.3049 -0.0213  0.6972
 1397SOL    HW2 5354   4.578   0.185   2.536 -0.4408  0.0981  1.4933
 1397SOL    HW3 5355   4.487   0.239   2.428  0.4957  0.0001  0.6413
 1397SOL    MW4 5356   4.515   0.173   2.477 -0.3450  0.1819 -0.4518
 1398SOL     OW 5357   2.765   2.771   2.489  0.5591  0.4073  0.0738
 1398SOL    HW2 5358   2.739   2.721   2.413  1.5020  1.5842 -1.0772
 1398SOL    HW3 5359   2.788   2.706   2.555 -1.1436 -0.6222 -0.3207
 1398SOL    MW4 5360   2.765   2.756   2.488  0.2578 -0.1431  0.3033
 1399SOL     OW 5361   0.521   1.580   3.233  0.9059  0.0327 -0.1571
 1399SOL    HW2 5362   0.436   1.539   3.214  0.7725  0.3789 -0.3206
 1399SOL    HW3 5363   0.502   1.674   3.238  1.3348  0.1446 -0.5336
 1399SOL    MW4 5364   0.507   1.587   3.231  0.2506  0.4190  0.0535
 1400SOL     OW 5365   1.518   1.122   1.942 -0.1397 -0.5529 -0.3548
 1400SOL    HW2 5366   1.587   1.174   1.902 -1.8173  1.0495 -1.3393
 1400SOL    HW3 5367   1.524   1.036   1.900  0.6135 -0.1215 -1.1358
 1400SOL    MW4 5368   1.528   1.117   1.931 -1.4733 -0.4504 -0.6751
 1401SOL     OW 5369   5.091   1.543   1.829 -0.2824 -0.4011  0.0943
 1401SOL    HW2 5370   5.054   1.479   1.889 -0.7934 -0.1332  0.0680
 1401SOL    HW3 5371   5.171   1.573   1.872 -0.6533 -0.1995  0.6545
 1401SOL    MW4 5372   5.097   1.538   1.842 -0.1327  0.0356 -0.3517
 1402SOL     OW 5373   1.766   5.913   2.352  0.2241 -0.9202 -0.2588
 1402SOL    HW2 5374   1.708   5.949   2.419  2.2235  0.8563  0.6365
 1402SOL    HW3 5375   1.707   5.888   2.281 -1.6189  2.4124 -0.1417
 1402SOL    MW4 5376   1.751   5.915   2.351  0.8254 -0.0648 -0.0632
 1403SOL     OW 5377   2.941   6.323   2.843 -0.3132  0.0508  0.2320
 1403SOL    HW2 5378   2.913   6.415   2.851 -0.1588  0.1043  0.1638
 1403SOL    HW3 5379   2.924   6.301   2.752 -2.5818 -0.7306  0.7987
 1403SOL    MW4 5380   2.935   6.332   2.832  0.0582  0.1886  0.4646
 1404SOL     OW 5381   5.043   1.365   1.616  0.3617  0.2170  0.3385
 1404SOL    HW2 5382   4.966   1.317   1.646 -0.8787  0.4079 -2.2150
 1404SOL    HW3 5383   5.054   1.435   1.681 -1.0083 -0.3954  1.2869
 1404SOL    MW4 5384   5.034   1.368   1.629 -0.0243 -0.4409  0.4623
 1405SOL     OW 5385   1.736   3.415   2.578  0.2480 -0.5162 -0.0874
 1405SOL    HW2 5386   1.689   3.443   2.500 -0.3113  0.8859  0.7156
 1405SOL    HW3 5387   1.676   3.434   2.650  1.4688 -0.0048  0.8339
 1405SOL    MW4 5388   1.722   3.422   2.577 -0.4441 -0.0283 -0.1963
 1406SOL     OW 5389   2.831   2.909   5.983 -0.6786 -0.2296 -0.1087
 1406SOL    HW2 5390   2.775   2.834   5.965 -0.4553 -0.4434  0.0965
 1406SOL    HW3 5391   2.920   2.878   5.966 -0.7028  0.5616 -2.0267
 1406SOL    MW4 5392   2.835   2.895   5.978 -0.3304  0.2210 -0.4558
 1407SOL     OW 5393   3.222   0.658   0.458 -0.1415 -0.1407  0.0628
 1407SOL    HW2 5394   3.147   0.714   0.439 -0.5050 -0.1574  1.3490
 1407SOL    HW3 5395   3.254   0.630   0.372 -1.3298  0.2243 -0.5161
 1407SOL    MW4 5396   3.216   0.662   0.444  0.2157 -0.2055  0.4924
 1408SOL     OW 5397   2.172   3.885   2.032 -0.1342 -0.1538 -0.3301
 1408SOL    HW2 5398   2.230   3.872   2.107  0.8420  0.6177 -0.9297
 1408SOL    HW3 5399   2.228   3.871   1.956 -1.2116 -1.3605 -0.9492
 1408SOL    MW4 5400   2.187   3.881   2.032 -0.8046  0.4286 -0.0296
 1409SOL     OW 5401   0.839   0.513   3.566 -0.0413  0.5352  0.1724
 1409SOL    HW2 5402   0.908   0.579   3.560 -0.1363  0.8619  2.1294
 1409SOL    HW3 5403   0.857   0.453   3.493  0.9119  1.8922 -0.7532
 1409SOL    MW4 5404   0.851   0.514   3.556  0.0405  0.2867 -0.4601
 1410SOL     OW 5405   2.208   1.818   2.397  0.9533 -0.5962  0.1082
 1410SOL    HW2 5406   2.197   1.759   2.323  0.9960 -0.1323 -0.2718
 1410SOL    HW3 5407   2.152   1.893   2.376  1.2121 -0.3218  0.3952
 1410SOL    MW4 5408   2.199   1.820   2.385  0.2105 -0.1525 -0.3655
 1411SOL     OW 5409   5.160   5.384   1.093  0.1399 -0.3393  0.0711
 1411SOL    HW2 5410   5.079   5.333   1.094 -0.3040  0.3365 -0.2734
 1411SOL    HW3 5411   5.132   5.473   1.072  0.8323  0.1743  1.2161
 1411SOL    MW4 5412   5.145   5.389   1.090  0.0400  0.1902 -0.0076
 1412SOL     OW 5413   4.833   4.663   1.730  0.0876 -0.3122  0.6257
 1412SOL    HW2 5414   4.803   4.575   1.710 -1.0342 -0.6009  3.1784
 1412SOL    HW3 5415   4.764   4.721   1.697  0.6783 -0.3683 -0.7709
 1412SOL    MW4 5416   4.820   4.659   1.723  0.2963  0.4186 -0.3755
 1413SOL     OW 5417   0.125   0.133   4.048 -0.6109  0.3598  0.1133
 1413SOL    HW2 5418   0.056   0.101   4.107 -0.6511 -0.5108 -0.4006
 1413SOL    HW3 5419   0.102   0.098   3.962  0.4064  0.1587 -0.0870
 1413SOL    MW4 5420   0.112   0.124   4.045 -0.4626 -0.9471 -0.6149
 1414SOL     OW 5421   2.393   6.327   4.599 -0.1978  0.3060 -0.4315
 1414SOL    HW2 5422   2.451   6.267   4.552  1.2913  1.7476 -0.5175
 1414SOL    HW3 5423   2.414   6.314   4.691  1.3814  1.8340 -0.5225
 1414SOL    MW4 5424   2.403   6.317   4.605  0.5197  0.0211  0.0034
 1415SOL     OW 5425   2.388   6.158   0.741  0.2657 -0.0137  0.1557
 1415SOL    HW2 5426   2.366   6.122   0.655 -0.9137  2.9344 -0.8938
 1415SOL    HW3 5427   2.474   6.199   0.729  0.3937 -0.1352  0.6050
 1415SOL    MW4 5428   2.397   6.158   0.728  0.6404  0.1744 -0.5106
 1416SOL     OW 5429   1.648   3.197   0.750  0.4375  0.5835  0.3431
 1416SOL    HW2 5430   1.693   3.202   0.666  1.1075  2.2036  0.7578
 1416SOL    HW3 5431   1.562   3.162   0.730 -0.2846  3.1027 -1.4196
 1416SOL    MW4 5432   1.643   3.193   0.736  0.4488 -0.1443  0.2057
 1417SOL     OW 5433   6.163   4.848   4.775 -0.3141  0.4251  0.4787
 1417SOL    HW2 5434   6.200   4.784   4.714 -0.3072  1.1896 -0.3435
 1417SOL    HW3 5435   6.068   4.840   4.763 -0.3220  0.3975  0.5590
 1417SOL    MW4 5436   6.155   4.839   4.765  0.1419  0.0552 -0.2637
 1418SOL     OW 5437   5.425   6.087   0.335 -0.8335 -0.1574  0.9126
 1418SOL    HW2 5438   5.429   6.093   0.430 -2.4141  1.4358  0.9334
 1418SOL    HW3 5439   5.426   6.178   0.304 -1.3506 -0.5979 -0.5131
 1418SOL    MW4 5440   5.426   6.100   0.343 -0.9106 -0.0152  0.3517
 1419SOL     OW 5441   3.358   2.311   2.281 -0.3600  0.4113 -0.3366
 1419SOL    HW2 5442   3.318   2.225   2.264  0.3412  0.0611 -0.2699
 1419SOL    HW3 5443   3.340   2.362   2.203 -1.0315  0.2963 -0.2598
 1419SOL    MW4 5444   3.351   2.306   2.269  0.2962  0.5934 -0.5661
 1420SOL     OW 5445   1.423   5.576   0.265  0.1565  0.4893 -0.0504
 1420SOL    HW2 5446   1.331   5.550   0.275 -0.4088  0.5543 -3.5828
 1420SOL    HW3 5447   1.419   5.664   0.229  1.5907  0.5071 -0.2160
 1420SOL    MW4 5448   1.410   5.584   0.261  0.0940 -0.4374 -0.4233
 1421SOL     OW 5449   3.134   4.327   0.525 -0.1076 -0.0706 -0.8397
 1421SOL    HW2 5450   3.194   4.272   0.575 -0.5037 -0.8797 -1.2458
 1421SOL    HW3 5451   3.174   4.414   0.527  1.4767 -0.7511 -1.7610
 1421SOL    MW4 5452   3.147   4.332   0.532  0.1022  0.0457  0.3804
 1422SOL     OW 5453   2.357   2.869   1.577  0.2598  0.2203  0.1867
 1422SOL    HW2 5454   2.295   2.843   1.645  2.0300  0.8747  2.1762
 1422SOL    HW3 5455   2.436   2.818   1.597  1.8973  2.7884  0.6772
 1422SOL    MW4 5456   2.360   2.859   1.588  0.0310 -0.0654  0.3610
 1423SOL     OW 5457   0.857   0.346   4.714  0.2731  0.1536 -0.4718
 1423SOL    HW2 5458   0.926   0.406   4.743 -1.6490  1.6953  1.2291
 1423SOL    HW3 5459   0.794   0.347   4.785 -1.7228 -0.8605 -2.1393
 1423SOL    MW4 5460   0.858   0.354   4.727 -0.2564  0.2700 -0.6290
 1424SOL     OW 5461   4.011   4.360   3.898 -0.1351  0.0392  0.2242
 1424SOL    HW2 5462   3.967   4.332   3.978  0.2706  0.0763  0.4659
 1424SOL    HW3 5463   4.076   4.424   3.928 -1.6759  1.9996 -0.4111
 1424SOL    MW4 5464   4.014   4.365   3.912 -0.1736 -0.1540 -0.3268
 1425SOL     OW 5465   0.967   5.651   0.648  0.0400  0.2869 -0.6200
 1425SOL    HW2 5466   1.011   5.690   0.573 -1.0583  0.8851 -0.9791
 1425SOL    HW3 5467   0.945   5.725   0.705  0.7935 -0.1512  0.2708
 1425SOL    MW4 5468   0.970   5.665   0.646 -0.3877 -0.2913  0.0251
 1426SOL     OW 5469   2.049   0.345   1.123  0.0155 -0.3480 -0.1122
 1426SOL    HW2 5470   2.073   0.253   1.110 -1.3967 -0.4893 -2.1288
 1426SOL    HW3 5471   2.129   0.394   1.100  0.3226 -1.0152 -0.4900
 1426SOL    MW4 5472   2.063   0.339   1.118  0.0727 -0.1683 -0.0830
 1427SOL     OW 5473   3.256   6.113   5.446  0.3575 -0.0275  0.0203
 1427SOL    HW2 5474   3.269   6.193   5.394 -0.6236 -0.2756 -0.6434
 1427SOL    HW3 5475   3.290   6.043   5.391  1.1436 -0.0889  0.5692
 1427SOL    MW4 5476   3.262   6.114   5.432  0.0389 -0.2129 -0.3191
 1428SOL     OW 5477   6.014   1.602   0.317  0.4619 -0.0725  0.0810
 1428SOL    HW2 5478   5.926   1.623   0.350  0.0852  0.4595 -1.1983
 1428SOL    HW3 5479   6.064   1.579   0.395 -1.2920 -2.2116  0.6941
 1428SOL    MW4 5480   6.009   1.601   0.332 -0.0212 -0.1212 -0.0884
 1429SOL     OW 5481   4.665   3.384   2.991 -0.1005  0.3206  0.1868
 1429SOL    HW2 5482   4.636   3.395   2.900  2.6916  1.2095 -0.6933
 1429SOL    HW3 5483   4.692   3.293   2.996  2.4260  0.9360 -0.8280
 1429SOL    MW4 5484   4.665   3.373   2.979 -0.1430 -0.5013  0.3430
 1430SOL     OW 5485   2.102   3.039   0.311 -0.6619  0.0299 -0.5382
 1430SOL    HW2 5486   2.150   3.007   0.387 -0.1574  0.9699 -0.4460
 1430SOL    HW3 5487   2.014   3.002   0.321 -1.1691  1.5615  1.4839
 1430SOL    MW4 5488   2.097   3.030   0.322  0.4637  0.5795  0.5498
 1431SOL     OW 5489   2.560   3.758   0.694  0.3050 -0.4153  0.1809
 1431SOL    HW2 5490   2.539   3.704   0.617 -0.5313  1.0258 -0.6573
 1431SOL    HW3 5491   2.546   3.848   0.664  2.2274  0.3316  1.3498
 1431SOL    MW4 5492   2.555   3.763   0.680  0.4331  0.1652 -0.3011
 1432SOL     OW 5493   3.673   5.238   5.034  0.3303  0.4896 -0.7720
 1432SOL    HW2 5494   3.686   5.317   4.982 -1.3054  0.7887 -0.7786
 1432SOL    HW3 5495   3.737   5.245   5.104  0.9015  1.3034 -1.3518
 1432SOL    MW4 5496   3.683   5.249   5.036  0.7706  0.7200 -0.2617
 1433SOL     OW 5497   0.119   2.822   1.806  0.5239 -0.2527 -0.3296
 1433SOL    HW2 5498   0.091   2.816   1.715 -2.0781 -0.8707  0.4182
 1433SOL    HW3 5499   0.079   2.746   1.849 -1.1002  1.7006  1.9253
 1433SOL    MW4 5500   0.110   2.812   1.800  0.4155 -0.2123 -0.3745
 1434SOL     OW 5501   5.471   2.450   0.324  0.3264  0.1543 -0.2698
 1434SOL    HW2 5502   5.411   2.445   0.250 -1.0257 -2.1899  0.8650
 1434SOL    HW3 5503   5.544   2.502   0.293 -1.3260  1.3571 -2.4116
 1434SOL    MW4 5504   5.472   2.456   0.310  0.8822  0.6651  0.6648
 1435SOL     OW 5505   3.342   5.924   5.820  0.4129 -0.3991  0.5337
 1435SOL    HW2 5506   3.322   5.931   5.914 -1.0283  2.6267  0.1081
 1435SOL    HW3 5507   3.436   5.912   5.816  0.5207 -0.4021  2.3587
 1435SOL    MW4 5508   3.351   5.923   5.832 -0.0997 -0.0036 -0.1065
 1436SOL     OW 5509   3.233   1.900   1.178  0.5160 -0.4628  0.2070
 1436SOL    HW2 5510   3.139   1.886   1.186  0.6942 -0.9391  1.5959
 1436SOL    HW3 5511   3.270   1.813   1.162  0.7930 -0.3899  0.4280
 1436SOL    MW4 5512   3.226   1.887   1.177 -0.0088 -0.7211 -0.5903
 1437SOL     OW 5513   1.727   2.053   3.122  0.3151 -0.2401  0.1499
 1437SOL    HW2 5514   1.756   1.994   3.193  0.8064 -1.0395 -0.6858
 1437SOL    HW3 5515   1.632   2.045   3.122  0.3297 -0.4658  0.5211
 1437SOL    MW4 5516   1.718   2.044   3.131 -0.0772 -0.0533  0.2931
 1438SOL     OW 5517   3.957   0.225   1.276  0.1082  0.4292  0.3330
 1438SOL    HW2 5518   4.047   0.255   1.261  0.4682 -0.1512  1.2751
 1438SOL    HW3 5519   3.955   0.137   1.240 -0.8130  1.3087 -1.9790
 1438SOL    MW4 5520   3.968   0.218   1.269 -0.2028  0.1309  0.0691
 1439SOL     OW 5521   5.826   6.124   5.014 -0.1330 -0.1526  0.2494
 1439SOL    HW2 5522   5.863   6.106   5.100  1.6523 -1.0167 -0.6361
 1439SOL    HW3 5523   5.884   6.191   4.976 -0.3179 -0.4675 -0.6252
 1439SOL    MW4 5524   5.839   6.131   5.020  0.5294  0.3069 -0.2383
 1440SOL     OW 5525   0.762   2.245   3.606  0.2357  0.3148 -0.0814
 1440SOL    HW2 5526   0.778   2.179   3.538 -0.0923  1.7029 -1.5620
 1440SOL    HW3 5527   0.791   2.203   3.687 -1.4088 -2.2286 -0.7134
 1440SOL    MW4 5528   0.768   2.231   3.608  0.4558 -0.0301  0.0130
 1441SOL     OW 5529   1.612   2.651   3.922 -0.0401  0.1450 -0.2509
 1441SOL    HW2 5530   1.595   2.653   3.828 -1.3660  0.3927 -0.0341
 1441SOL    HW3 5531   1.575   2.567   3.951 -0.1050  0.2989  0.1223
 1441SOL    MW4 5532   1.605   2.640   3.913 -0.4507 -0.8450  0.3096
 1442SOL     OW 5533   4.826   6.401   5.436 -0.0768  0.0024  0.4461
 1442SOL    HW2 5534   4.817   6.306   5.437 -0.3892 -0.0465 -1.6290
 1442SOL    HW3 5535   4.767   6.432   5.505 -0.8630 -1.2714  0.3770
 1442SOL    MW4 5536   4.817   6.393   5.445  0.5483  0.3248 -0.0070
 1443SOL     OW 5537   0.230   1.722   5.842  0.3998 -0.0612 -0.2931
 1443SOL    HW2 5538   0.187   1.729   5.928  0.2162 -0.2505 -0.3667
 1443SOL    HW3 5539   0.164   1.680   5.787  1.2751 -1.9794  0.0239
 1443SOL    MW4 5540   0.215   1.717   5.846  0.2144 -0.0983  0.7426
 1444SOL     OW 5541   1.689   5.895   1.095  0.2713  0.0672  0.2789
 1444SOL    HW2 5542   1.686   5.966   1.032  0.4522  0.4521  0.6973
 1444SOL    HW3 5543   1.606   5.902   1.143  0.0592 -0.3283 -0.0291
 1444SOL    MW4 5544   1.678   5.905   1.093  0.6027 -0.0229  0.0763
 1445SOL     OW 5545   1.143   1.160   2.975 -0.0696 -0.0116 -0.2853
 1445SOL    HW2 5546   1.219   1.129   3.024 -0.1230 -1.2402 -0.9297
 1445SOL    HW3 5547   1.084   1.196   3.042  1.7532  2.5909  0.0720
 1445SOL    MW4 5548   1.145   1.160   2.991 -0.1160 -0.0600  0.6548
 1446SOL     OW 5549   1.386   2.932   0.506 -0.1009 -0.2817  0.2561
 1446SOL    HW2 5550   1.479   2.937   0.483 -0.2071  1.2154  0.0667
 1446SOL    HW3 5551   1.384   2.871   0.580  1.3375  1.2823  1.6814
 1446SOL    MW4 5552   1.398   2.925   0.513 -0.4078  0.2672  0.2755
 1447SOL     OW 5553   0.156   0.836   1.428  0.1688  0.1691  0.0193
 1447SOL    HW2 5554   0.062   0.823   1.444  0.1864 -0.1784 -0.1507
 1447SOL    HW3 5555   0.200   0.780   1.491  0.2947  1.2856  0.9644
 1447SOL    MW4 5556   0.149   0.827   1.438  0.2856 -0.3234 -0.0893
 1448SOL     OW 5557   6.251   2.599   4.692  0.5850  0.1337 -0.4366
 1448SOL    HW2 5558   6.299   2.585   4.774  0.5322 -0.6277 -0.5236
 1448SOL    HW3 5559   6.292   2.676   4.653  0.7285  0.3935  0.2230
 1448SOL    MW4 5560   6.263   2.607   4.698  0.3536  0.0590  0.5444
 1449SOL     OW 5561   0.835   1.981   4.719  0.0392  0.0349 -0.4680
 1449SOL    HW2 5562   0.824   1.886   4.730 -1.2270  0.2005 -0.1692
 1449SOL    HW3 5563   0.902   2.005   4.782 -1.6439 -0.2480  1.5550
 1449SOL    MW4 5564   0.842   1.971   4.729 -0.1663  0.6009 -1.0299
 1450SOL     OW 5565   2.106   1.161   4.653  0.2040  0.3818 -0.6220
 1450SOL    HW2 5566   2.139   1.109   4.580  0.4338  1.3210 -1.2088
 1450SOL    HW3 5567   2.176   1.224   4.671  1.6407 -1.8520  2.5988
 1450SOL    MW4 5568   2.120   1.163   4.646 -0.2374 -0.1794 -0.5545
 1451SOL     OW 5569   4.671   4.214   5.198  0.2633  0.3173 -0.7645
 1451SOL    HW2 5570   4.677   4.298   5.243  1.4517 -0.2170  0.1362
 1451SOL    HW3 5571   4.718   4.228   5.116  0.3894  0.5610 -0.6540
 1451SOL    MW4 5572   4.678   4.227   5.193  0.1394 -0.0495 -0.0345
 1452SOL     OW 5573   5.955   1.864   0.747  0.4984  0.0617 -0.3223
 1452SOL    HW2 5574   5.975   1.771   0.734  1.9879  0.3420 -0.1990
 1452SOL    HW3 5575   5.893   1.885   0.678  2.5614 -0.2881 -2.4082
 1452SOL    MW4 5576   5.950   1.855   0.736  0.5006 -0.4595  0.0267
 1453SOL     OW 5577   0.086   5.703   3.149  0.4009 -0.1646 -0.3729
 1453SOL    HW2 5578   0.039   5.662   3.077 -1.3692 -2.3892  1.8649
 1453SOL    HW3 5579   0.136   5.632   3.189  1.6895  1.1063  0.3536
 1453SOL    MW4 5580   0.086   5.688   3.145  0.1433  0.0906  0.5988
 1454SOL     OW 5581   3.424   0.013   5.952 -0.6129  0.2933  0.1222
 1454SOL    HW2 5582   3.477   0.012   5.873 -0.8250  1.1484 -0.0345
 1454SOL    HW3 5583   3.339   0.047   5.924 -1.2446 -1.0171  0.3804
 1454SOL    MW4 5584   3.420   0.017   5.938 -0.0875 -0.3264  0.4651
 1455SOL     OW 5585   0.432   4.686   2.554  0.2845  0.0585  0.9797
 1455SOL    HW2 5586   0.477   4.765   2.584 -0.1491  1.1546 -1.0433
 1455SOL    HW3 5587   0.502   4.621   2.545  1.0058  0.8659  0.6247
 1455SOL    MW4 5588   0.447   4.688   2.557  0.4041 -0.1096 -0.1942
 1456SOL     OW 5589   5.074   3.641   6.433  0.4181  0.1942  1.0153
 1456SOL    HW2 5590   5.082   3.690   6.515 -0.4343  0.2792  1.0542
 1456SOL    HW3 5591   5.095   3.551   6.456  1.9133  0.4995  0.9618
 1456SOL    MW4 5592   5.078   3.636   6.447  0.3206  0.1101  0.0861
 1457SOL     OW 5593   4.126   5.293   3.758  0.2933  0.0040 -0.2999
 1457SOL    HW2 5594   4.134   5.199   3.774  0.1186 -0.0066 -0.2693
 1457SOL    HW3 5595   4.182   5.310   3.682 -1.8946 -0.6433 -2.1799
 1457SOL    MW4 5596   4.134   5.283   3.750  0.1811  0.5904 -0.5934
 1458SOL     OW 5597   6.171   3.845   5.275  0.4345 -0.3294 -0.2815
 1458SOL    HW2 5598   6.111   3.836   5.349 -0.1708 -0.7393 -0.8135
 1458SOL    HW3 5599   6.202   3.936   5.281 -0.4971 -0.0067 -0.1849
 1458SOL    MW4 5600   6.167   3.856   5.285 -0.0852  0.1964  0.2725
 1459SOL     OW 5601   1.484   0.824   4.325  0.0969  0.1933  0.1252
 1459SOL    HW2 5602   1.425   0.766   4.374 -0.0422 -2.7206 -3.1022
 1459SOL    HW3 5603   1.442   0.909   4.329 -1.8770 -0.7582  1.7946
 1459SOL    MW4 5604   1.470   0.827   4.332  0.3167  0.5482 -0.1572
 1460SOL     OW 5605   4.169   5.313   0.767 -0.6439 -0.0305  0.0365
 1460SOL    HW2 5606   4.099   5.277   0.821 -1.5520  1.7717  0.1659
 1460SOL    HW3 5607   4.126   5.382   0.716  1.0681  1.2683  0.2643
 1460SOL    MW4 5608   4.154   5.318   0.767  0.5960 -0.7167  0.0591
 1461SOL     OW 5609   3.269   0.178   2.860  0.0116 -0.1714  1.2398
 1461SOL    HW2 5610   3.306   0.144   2.942  2.6522  1.8839  1.0425
 1461SOL    HW3 5611   3.345   0.191   2.803 -1.6644 -0.6654 -1.2425
 1461SOL    MW4 5612   3.284   0.176   2.863 -0.6301  0.0268 -0.0281
 1462SOL     OW 5613   0.324   4.636   2.298 -0.3353  0.1735 -0.2030
 1462SOL    HW2 5614   0.378   4.659   2.373 -0.8395 -1.4985  0.7329
 1462SOL    HW3 5615   0.248   4.695   2.304 -0.0260  0.5332  0.1865
 1462SOL    MW4 5616   0.321   4.647   2.308 -0.6412 -0.4223 -0.9118
 1463SOL     OW 5617   5.690   3.128   1.949 -0.3764 -0.5288 -0.1909
 1463SOL    HW2 5618   5.697   3.061   1.882 -0.5817  0.2976 -1.0617
 1463SOL    HW3 5619   5.776   3.170   1.950  0.0855 -1.4713  1.0838
 1463SOL    MW4 5620   5.702   3.125   1.940 -0.1140  0.1124  0.0745
 1464SOL     OW 5621   4.498   2.749   5.785  0.1815 -0.0572  0.2415
 1464SOL    HW2 5622   4.487   2.829   5.836  1.3238  0.8758 -0.8902
 1464SOL    HW3 5623   4.590   2.724   5.799  0.7233  0.5784 -1.7574
 1464SOL    MW4 5624   4.509   2.756   5.794  0.7570  0.4352 -0.5397
 1465SOL     OW 5625   5.874   1.479   1.977 -0.0972 -0.0362  0.7362
 1465SOL    HW2 5626   5.867   1.388   1.949  0.4452  0.3403 -0.6771
 1465SOL    HW3 5627   5.922   1.523   1.907 -0.6263  1.4119  1.2377
 1465SOL    MW4 5628   5.879   1.473   1.964  0.2384  0.3138 -0.1863
 1466SOL     OW 5629   1.606   4.582   3.278  0.2735  0.3652 -0.5729
 1466SOL    HW2 5630   1.654   4.512   3.324 -2.4176 -0.1746  1.6769
 1466SOL    HW3 5631   1.637   4.663   3.319  0.2611  0.1365 -0.1011
 1466SOL    MW4 5632   1.617   4.583   3.290  0.2227 -0.2718  0.8255
 1467SOL     OW 5633   5.698   1.860   0.908  0.0259  0.6003 -0.5937
 1467SOL    HW2 5634   5.788   1.851   0.879  0.2760 -1.0972  0.5633
 1467SOL    HW3 5635   5.669   1.770   0.927 -1.1311  1.2850  1.2418
 1467SOL    MW4 5636   5.706   1.847   0.907 -0.1350  0.6830 -0.3213
 1468SOL     OW 5637   1.875   4.658   2.896 -0.0194 -0.2224 -0.2285
 1468SOL    HW2 5638   1.810   4.727   2.885  0.4238 -0.0742 -2.3231
 1468SOL    HW3 5639   1.825   4.583   2.926 -0.9994  0.1903 -0.7768
 1468SOL    MW4 5640   1.860   4.657   2.898  0.1092  0.1908  0.2783
 1469SOL     OW 5641   4.640   5.105   1.769  0.5399  0.0561 -0.3264
 1469SOL    HW2 5642   4.644   5.142   1.857  0.8617  0.5990 -0.5638
 1469SOL    HW3 5643   4.556   5.059   1.766  0.3290  0.4055  0.1172
 1469SOL    MW4 5644   4.629   5.104   1.780  0.3080 -0.1756  0.6284
 1470SOL     OW 5645   0.402   0.801   4.536  0.1809  0.4435 -0.1940
 1470SOL    HW2 5646   0.405   0.787   4.441 -2.2871 -0.2322 -0.2474
 1470SOL    HW3 5647   0.415   0.895   4.546 -2.1525  1.0025 -1.5001
 1470SOL    MW4 5648   0.404   0.812   4.524 -0.2304 -0.1513 -0.0972
 1471SOL     OW 5649   4.432   3.454   2.465 -0.0200  0.5232  0.4101
 1471SOL    HW2 5650   4.506   3.413   2.419 -1.3167 -1.3398 -0.1233
 1471SOL    HW3 5651   4.392   3.382   2.513 -2.7577  0.9841 -1.0112
 1471SOL    MW4 5652   4.437   3.439   2.465 -0.2738 -1.0872  0.0934
 1472SOL     OW 5653   0.499   2.673   0.084 -0.3554 -0.3535 -0.0618
 1472SOL    HW2 5654   0.457   2.734   0.023  0.0003  1.1305  1.1452
 1472SOL    HW3 5655   0.579   2.646   0.039  0.1492  1.1092 -0.0759
 1472SOL    MW4 5656   0.504   2.677   0.070  0.5501  0.0702  0.7921
 1473SOL     OW 5657   5.814   4.107   5.447  0.0472  0.0467 -0.1324
 1473SOL    HW2 5658   5.879   4.037   5.438 -0.6449 -0.5477 -0.6990
 1473SOL    HW3 5659   5.766   4.084   5.526  0.5826  0.5469  0.3486
 1473SOL    MW4 5660   5.816   4.094   5.456  0.4271 -0.2559  0.3086
 1474SOL     OW 5661   2.975   3.868   2.642  0.0385  0.5072 -0.1735
 1474SOL    HW2 5662   3.048   3.855   2.703  1.7812  0.0690 -2.2137
 1474SOL    HW3 5663   2.938   3.953   2.667  2.0954  1.3761  0.1477
 1474SOL    MW4 5664   2.980   3.878   2.654  0.2242 -0.2516  0.2309
 1475SOL     OW 5665   2.068   5.026   5.204  0.2623  0.2964 -0.0642
 1475SOL    HW2 5666   2.156   4.999   5.229  0.0588 -0.9022 -0.5772
 1475SOL    HW3 5667   2.080   5.086   5.130  0.7365  1.9062  1.2603
 1475SOL    MW4 5668   2.081   5.030   5.198 -0.2950 -0.4961  0.0521
 1476SOL     OW 5669   2.528   0.777   3.779 -0.3714 -0.1619 -0.6943
 1476SOL    HW2 5670   2.563   0.788   3.690  3.0574 -1.9568  0.2529
 1476SOL    HW3 5671   2.457   0.714   3.769  1.7175 -2.5306 -1.9929
 1476SOL    MW4 5672   2.524   0.770   3.766 -0.2020  0.2749  0.3302
 1477SOL     OW 5673   1.217   6.181   4.904 -0.7684 -0.0798  0.4454
 1477SOL    HW2 5674   1.177   6.126   4.972  2.1226  0.0695  2.4213
 1477SOL    HW3 5675   1.291   6.222   4.947  0.3858  1.1630 -2.4874
 1477SOL    MW4 5676   1.221   6.179   4.919 -0.4362  0.2507 -0.2004
 1478SOL     OW 5677   0.147   0.417   0.095  0.1164 -0.5526 -0.0071
 1478SOL    HW2 5678   0.225   0.395   0.043  0.9950  0.1028  0.9755
 1478SOL    HW3 5679   0.099   0.335   0.104  0.2997 -0.8186 -1.2550
 1478SOL    MW4 5680   0.151   0.404   0.089 -0.3249  0.4030 -0.2174
 1479SOL     OW 5681   5.595   1.537   3.380  0.1754  0.2448 -0.2813
 1479SOL    HW2 5682   5.542   1.615   3.362  0.2000  0.4032  0.3309
 1479SOL    HW3 5683   5.680   1.572   3.407  0.8766 -0.0058 -2.0197
 1479SOL    MW4 5684   5.599   1.552   3.381 -0.2516  0.3524 -0.1411
 1480SOL     OW 5685   0.700   2.649   1.778 -0.0338  0.1797  0.2711
 1480SOL    HW2 5686   0.621   2.701   1.790  0.8168  1.1878  1.7175
 1480SOL    HW3 5687   0.677   2.586   1.709 -1.7850  1.0332  0.0342
 1480SOL    MW4 5688   0.687   2.647   1.770 -0.7651  0.7220 -0.0227
 1481SOL     OW 5689   6.434   4.385   5.818 -0.3914 -0.2949  0.6156
 1481SOL    HW2 5690   6.473   4.425   5.740  1.0786 -0.9182  0.9927
 1481SOL    HW3 5691   6.351   4.431   5.830 -0.5279 -0.0260 -1.1648
 1481SOL    MW4 5692   6.428   4.397   5.809  0.3164  0.8831  0.7837
 1482SOL     OW 5693   0.815   4.742   6.334  0.1142 -0.2049  0.2186
 1482SOL    HW2 5694   0.895   4.699   6.365  0.7169  1.3215  0.8606
 1482SOL    HW3 5695   0.837   4.835   6.330 -1.7474  0.3003  0.7861
 1482SOL    MW4 5696   0.829   4.748   6.337 -0.1308  0.3687  0.3254
 1483SOL     OW 5697   3.847   4.044   3.057  0.6039 -0.2866  0.1837
 1483SOL    HW2 5698   3.874   4.088   2.976  0.6611 -0.9214 -0.1470
 1483SOL    HW3 5699   3.767   3.997   3.033  0.2902  0.0021  0.6520
 1483SOL    MW4 5700   3.840   4.044   3.043 -0.5843  0.0152  0.1859
 1484SOL     OW 5701   3.428   1.112   0.583  0.3896 -0.1641 -0.1875
 1484SOL    HW2 5702   3.464   1.025   0.595 -0.0866 -0.7020 -2.2248
 1484SOL    HW3 5703   3.496   1.161   0.537 -0.1116 -0.1268 -0.9186
 1484SOL    MW4 5704   3.442   1.107   0.578  0.3648 -0.0604 -0.4985
 1485SOL     OW 5705   0.184   4.667   6.039  0.0831 -0.4411  0.0121
 1485SOL    HW2 5706   0.147   4.687   5.953  1.0474 -0.8598 -0.5190
 1485SOL    HW3 5707   0.177   4.749   6.088 -0.7349 -0.2825 -0.3602
 1485SOL    MW4 5708   0.178   4.681   6.034 -0.4181 -0.4269 -0.2387
 1486SOL     OW 5709   1.639   1.572   0.066  0.0442 -0.3913  0.0652
 1486SOL    HW2 5710   1.610   1.513   0.135  0.0926 -0.7460 -0.2124
 1486SOL    HW3 5711   1.568   1.636   0.057  0.8383  0.7891  1.7126
 1486SOL    MW4 5712   1.625   1.573   0.074 -0.0284  0.3335  0.2710
 1487SOL     OW 5713   5.130   6.292   6.023  0.5406  0.5422  0.3007
 1487SOL    HW2 5714   5.042   6.274   6.056  0.9603 -0.8450  0.7675
 1487SOL    HW3 5715   5.171   6.347   6.090  0.7495 -0.6854  1.2348
 1487SOL    MW4 5716   5.124   6.297   6.037  0.2291 -0.0755  0.0740
 1488SOL     OW 5717   2.012   3.682   2.391  0.1167  0.2324  0.1594
 1488SOL    HW2 5718   1.970   3.618   2.448 -0.0920 -0.3051 -0.5902
 1488SOL    HW3 5719   2.106   3.666   2.401  0.0879  0.2531  0.4727
 1488SOL    MW4 5720   2.019   3.671   2.400 -1.0305 -0.1795 -0.9466
 1489SOL     OW 5721   5.076   0.318   1.019  0.0620 -0.2724  0.2367
 1489SOL    HW2 5722   5.166   0.288   1.024  0.0860 -0.4615 -0.9995
 1489SOL    HW3 5723   5.064   0.344   0.928 -1.3270 -0.8759  0.2226
 1489SOL    MW4 5724   5.086   0.318   1.008 -0.2299  0.0922  0.1817
 1490SOL     OW 5725   2.882   0.235   3.430 -0.0134  0.6369  0.6000
 1490SOL    HW2 5726   2.978   0.244   3.430 -0.1193  2.3166 -1.1423
 1490SOL    HW3 5727   2.861   0.202   3.343 -1.0180 -0.0120  1.0722
 1490SOL    MW4 5728   2.892   0.232   3.419 -0.7414  0.0981 -0.5517
 1491SOL     OW 5729   3.250   1.190   6.114 -0.2535 -0.2961 -0.0663
 1491SOL    HW2 5730   3.161   1.155   6.123  0.0038 -0.9265  0.0906
 1491SOL    HW3 5731   3.282   1.154   6.031  0.4331 -1.4094  0.6552
 1491SOL    MW4 5732   3.242   1.181   6.104  0.2919 -0.3366  0.3166
 1492SOL     OW 5733   2.816   5.019   1.153  0.2041  0.0519 -0.2866
 1492SOL    HW2 5734   2.903   4.999   1.118 -0.2952  0.2754 -1.7258
 1492SOL    HW3 5735   2.827   5.104   1.196  0.7799 -0.0917 -0.1451
 1492SOL    MW4 5736   2.829   5.028   1.154 -0.2749  0.1104 -0.2458
 1493SOL     OW 5737   5.954   2.246   4.216  0.2374  0.3093 -0.0862
 1493SOL    HW2 5738   5.891   2.317   4.207  1.4587  1.4746  0.2162
 1493SOL    HW3 5739   5.956   2.226   4.309  0.6733  0.6090 -0.0316
 1493SOL    MW4 5740   5.946   2.252   4.227  0.1108 -0.1564 -0.5598
 1494SOL     OW 5741   3.954   0.179   6.352 -0.2037  0.0570  0.3853
 1494SOL    HW2 5742   3.936   0.204   6.261  0.4020 -0.0812  0.2220
 1494SOL    HW3 5743   3.874   0.134   6.380 -0.7377  0.8775  0.2156
 1494SOL    MW4 5744   3.941   0.176   6.343  0.9310  0.2471  0.5817
 1495SOL     OW 5745   5.117   4.151   2.148 -0.5785 -0.6596 -0.3885
 1495SOL    HW2 5746   5.048   4.201   2.191 -0.2058 -0.5174  0.0497
 1495SOL    HW3 5747   5.088   4.060   2.154 -0.0096 -0.7629  1.1650
 1495SOL    MW4 5748   5.104   4.145   2.154 -0.1166  0.4503 -0.2026
 1496SOL     OW 5749   2.013   5.348   1.811 -0.2245 -0.0150  0.2369
 1496SOL    HW2 5750   2.033   5.283   1.744 -1.1944  0.3500 -0.4378
 1496SOL    HW3 5751   1.988   5.297   1.888 -0.6966 -0.4394 -0.1926
 1496SOL    MW4 5752   2.012   5.333   1.812 -0.3180  0.1457  0.4234
 1497SOL     OW 5753   4.801   2.987   4.620  0.6226  0.3922  0.1481
 1497SOL    HW2 5754   4.821   2.989   4.714  0.0640  0.3129  0.2743
 1497SOL    HW3 5755   4.706   2.997   4.616  0.4767 -0.9803 -0.3475
 1497SOL    MW4 5756   4.791   2.989   4.632 -0.2672  0.0021 -0.6049
 1498SOL     OW 5757   1.470   1.758   1.644  0.1844  0.1094  0.3339
 1498SOL    HW2 5758   1.472   1.815   1.567 -0.2699 -0.7618 -0.3462
 1498SOL    HW3 5759   1.376   1.745   1.661  0.2283 -1.5234 -0.3927
 1498SOL    MW4 5760   1.458   1.764   1.636  0.1711 -0.1387 -0.7694
 1499SOL     OW 5761   4.450   2.344   3.906 -0.1442  0.0513  0.0161
 1499SOL    HW2 5762   4.490   2.294   3.977 -2.1612 -0.4350  0.8917
 1499SOL    HW3 5763   4.367   2.374   3.943 -0.8478  0.5229 -1.8705
 1499SOL    MW4 5764   4.444   2.341   3.921 -0.9922  0.3872  0.0775
 1500SOL     OW 5765   5.794   2.967   3.038  0.4499 -0.5427 -0.3060
 1500SOL    HW2 5766   5.784   2.898   2.972  0.6735 -0.7965 -0.0789
 1500SOL    HW3 5767   5.792   3.049   2.989 -0.1373 -0.6983 -0.5459
 1500SOL    MW4 5768   5.792   2.969   3.023 -0.9819  0.0313  0.9507
 1501SOL     OW 5769   2.894   2.297   1.849 -0.4004  0.1206 -0.0625
 1501SOL    HW2 5770   2.918   2.290   1.941 -2.9152  0.4021  0.6688
 1501SOL    HW3 5771   2.851   2.214   1.828  0.0258  0.1117 -0.9803
 1501SOL    MW4 5772   2.892   2.285   1.858  0.4738  0.1079 -0.5271
 1502SOL     OW 5773   0.303   2.756   1.354 -0.2660 -0.1458 -0.0874
 1502SOL    HW2 5774   0.363   2.770   1.428  0.0406 -0.5104 -0.2588
 1502SOL    HW3 5775   0.216   2.766   1.392 -0.1030  0.1915  0.2117
 1502SOL    MW4 5776   0.300   2.759   1.369  0.2181  0.4867 -0.4488
 1503SOL     OW 5777   3.875   0.211   6.086 -0.7527 -0.1264 -0.4051
 1503SOL    HW2 5778   3.877   0.307   6.086  0.6825 -0.0997  1.5569
 1503SOL    HW3 5779   3.789   0.189   6.049 -0.8086  1.8690 -1.6199
 1503SOL    MW4 5780   3.864   0.221   6.081  0.2553  0.5007 -0.8671
 1504SOL     OW 5781   1.875   5.877   5.551 -0.2174  0.1981 -0.2466
 1504SOL    HW2 5782   1.857   5.870   5.458  1.0299 -1.2956 -0.4175
 1504SOL    HW3 5783   1.927   5.957   5.560 -2.7559  1.9890 -0.3558
 1504SOL    MW4 5784   1.879   5.887   5.540 -0.2465  0.1831 -0.2168
 1505SOL     OW 5785   2.069   1.180   4.065 -0.1277  0.0246  0.1591
 1505SOL    HW2 5786   2.106   1.267   4.052 -1.4519  0.5995  0.1051
 1505SOL    HW3 5787   2.054   1.174   4.159  1.7121 -0.9190  0.4553
 1505SOL    MW4 5788   2.072   1.191   4.075 -0.0017  0.8094  0.2232
 1506SOL     OW 5789   3.848   4.873   1.795 -0.3108 -0.5174  0.3357
 1506SOL    HW2 5790   3.868   4.965   1.813  4.1015 -1.2758  0.3923
 1506SOL    HW3 5791   3.840   4.833   1.881  2.5579 -0.8923  0.5307
 1506SOL    MW4 5792   3.850   4.880   1.808  0.0459  0.6523  0.1565
 1507SOL     OW 5793   5.248   1.491   4.892  0.4914 -0.0107  0.1305
 1507SOL    HW2 5794   5.318   1.547   4.860  0.7710 -0.4410 -0.0157
 1507SOL    HW3 5795   5.238   1.516   4.984  0.2026  0.6915 -0.0828
 1507SOL    MW4 5796   5.256   1.502   4.900 -0.3506 -0.2536  0.7055
 1508SOL     OW 5797   1.382   0.385   6.280  0.2825 -0.2251 -0.4487
 1508SOL    HW2 5798   1.363   0.386   6.186 -0.2302  3.1188 -0.4350
 1508SOL    HW3 5799   1.450   0.452   6.291 -0.7790  0.5706  1.7254
 1508SOL    MW4 5800   1.389   0.394   6.269 -0.1833  0.1393  0.3336
 1509SOL     OW 5801   5.751   5.502   2.075  0.6245 -0.3099 -0.7182
 1509SOL    HW2 5802   5.666   5.542   2.093  1.2194  2.2126 -3.0170
 1509SOL    HW3 5803   5.787   5.483   2.162 -0.8982  1.6097  0.4069
 1509SOL    MW4 5804   5.745   5.504   2.089  0.6208  0.4176 -0.0384
 1510SOL     OW 5805   1.089   0.958   0.122  0.3306 -0.0894 -0.3909
 1510SOL    HW2 5806   1.115   0.908   0.044 -1.3925 -0.6852 -0.6123
 1510SOL    HW3 5807   1.074   1.047   0.091  0.7822 -0.0493 -0.5021
 1510SOL    MW4 5808   1.091   0.963   0.108  0.5272  0.1643  0.3388
 1511SOL     OW 5809   3.707   4.272   1.038 -0.7715 -0.0194 -0.6440
 1511SOL    HW2 5810   3.620   4.246   1.008 -0.7367 -0.8008 -0.0926
 1511SOL    HW3 5811   3.712   4.240   1.128  0.6136 -1.2473 -1.1203
 1511SOL    MW4 5812   3.696   4.264   1.046 -0.4073 -0.5052  0.0822
 1512SOL     OW 5813   6.199   2.941   4.337 -0.2092  0.3154  0.2815
 1512SOL    HW2 5814   6.171   2.850   4.328 -2.0383  1.0457 -3.6577
 1512SOL    HW3 5815   6.286   2.943   4.296 -0.5946  0.5010 -0.5310
 1512SOL    MW4 5816   6.207   2.929   4.330 -0.2787  0.0772  0.3592
 1513SOL     OW 5817   5.567   5.091   1.723  0.4393  0.2625  0.2019
 1513SOL    HW2 5818   5.650   5.089   1.674  0.1018 -1.6834 -0.3723
 1513SOL    HW3 5819   5.540   5.000   1.728 -1.3933  0.7966  0.9024
 1513SOL    MW4 5820   5.575   5.079   1.717 -0.3955 -0.2701  0.8233
 1514SOL     OW 5821   3.891   1.979   3.406 -0.4627  0.4697 -0.0917
 1514SOL    HW2 5822   3.813   2.034   3.397  1.7813  3.8700 -0.6693
 1514SOL    HW3 5823   3.906   1.974   3.500 -0.8123  0.6837 -0.0226
 1514SOL    MW4 5824   3.883   1.985   3.417 -0.1779  0.2056  0.3509
 1515SOL     OW 5825   4.649   2.461   4.719 -0.4692  0.2737 -0.4618
 1515SOL    HW2 5826   4.713   2.500   4.778  0.9936  0.9867 -2.4162
 1515SOL    HW3 5827   4.628   2.377   4.759 -0.2020  1.0718  1.4767
 1515SOL    MW4 5828   4.655   2.455   4.732  0.4119 -0.4106  0.2236
 1516SOL     OW 5829   3.879   5.160   5.504 -0.2921  0.5124  0.5452
 1516SOL    HW2 5830   3.854   5.121   5.420 -0.3507 -1.1110  1.2869
 1516SOL    HW3 5831   3.973   5.140   5.512  0.0664  1.9504  0.2160
 1516SOL    MW4 5832   3.888   5.152   5.494  0.4641 -0.0270  0.1153
 1517SOL     OW 5833   4.497   1.570   0.583 -0.1456  0.4111 -0.2329
 1517SOL    HW2 5834   4.409   1.587   0.618 -0.7376 -0.1365 -1.3984
 1517SOL    HW3 5835   4.485   1.495   0.524  1.2554 -0.1472  0.1646
 1517SOL    MW4 5836   4.484   1.562   0.580 -0.4314  0.1611 -0.6610
 1518SOL     OW 5837   6.288   0.960   6.363 -0.0246 -0.7918 -0.5425
 1518SOL    HW2 5838   6.239   0.907   6.426 -0.2524 -0.5759 -0.5391
 1518SOL    HW3 5839   6.302   1.044   6.407 -1.3858 -0.1495 -1.3003
 1518SOL    MW4 5840   6.284   0.964   6.377 -0.2830  0.4653 -0.3573
 1519SOL     OW 5841   1.473   6.310   4.984 -0.2368 -0.2962  0.4995
 1519SOL    HW2 5842   1.550   6.283   5.034  0.8138  0.1475 -0.8362
 1519SOL    HW3 5843   1.508   6.342   4.901 -1.6755  1.7932  0.6083
 1519SOL    MW4 5844   1.488   6.311   4.980 -0.2069  0.2577 -0.4050
 1520SOL     OW 5845   6.104   2.444   3.377  0.5010  0.0698  0.5335
 1520SOL    HW2 5846   6.181   2.471   3.427 -0.0741  0.9150  0.9750
 1520SOL    HW3 5847   6.050   2.396   3.440 -0.9347  2.4080  1.1980
 1520SOL    MW4 5848   6.107   2.441   3.392 -0.2151 -0.0773  0.2215
 1521SOL     OW 5849   1.511   0.792   2.534  0.4948  0.0318  0.1673
 1521SOL    HW2 5850   1.423   0.757   2.519  0.3987  0.3989 -0.1639
 1521SOL    HW3 5851   1.552   0.731   2.594  0.0083 -0.1402  0.3253
 1521SOL    MW4 5852   1.505   0.780   2.540  0.0351 -0.0093  0.5950
 1522SOL     OW 5853   5.602   1.288   5.528  0.2340  0.4731  0.0293
 1522SOL    HW2 5854   5.697   1.276   5.526  0.2331  0.5123 -0.4407
 1522SOL    HW3 5855   5.573   1.237   5.603  0.6081  0.2936  0.0542
 1522SOL    MW4 5856   5.611   1.280   5.537 -0.1803 -0.1330 -0.1859
 1523SOL     OW 5857   4.553   0.964   3.077 -0.1420  0.5928 -0.1127
 1523SOL    HW2 5858   4.559   1.033   3.010  1.1843 -1.2815 -2.0611
 1523SOL    HW3 5859   4.579   0.884   3.031 -0.2391 -0.9887  2.4146
 1523SOL    MW4 5860   4.558   0.963   3.062 -0.2431  0.2486 -0.2461
 1524SOL     OW 5861   3.090   5.171   3.344  0.3943  0.1970 -0.6209
 1524SOL    HW2 5862   3.103   5.241   3.279 -0.7604  1.5709  0.5577
 1524SOL    HW3 5863   2.998   5.147   3.335  0.7063 -0.9713 -0.7928
 1524SOL    MW4 5864   3.080   5.177   3.334 -0.0864  0.2479 -0.0238
 1525SOL     OW 5865   1.431   6.232   3.557 -0.4749 -0.7330  0.6419
 1525SOL    HW2 5866   1.517   6.191   3.548 -0.2238 -0.9267  3.2826
 1525SOL    HW3 5867   1.448   6.326   3.553 -0.4338 -0.7679 -0.6412
 1525SOL    MW4 5868   1.445   6.239   3.555  0.2727 -0.0982  0.2448
 1526SOL     OW 5869   4.658   4.337   5.652 -0.3662 -0.4336 -0.5118
 1526SOL    HW2 5870   4.752   4.351   5.645 -0.1442 -1.3133  0.4035
 1526SOL    HW3 5871   4.621   4.425   5.662  0.3684 -0.0905 -0.7743
 1526SOL    MW4 5872   4.665   4.350   5.653 -0.2547 -0.0126 -0.6708
 1527SOL     OW 5873   2.344   5.612   1.294  0.8594  0.1896  0.2379
 1527SOL    HW2 5874   2.432   5.603   1.329  0.7952 -2.1121  0.0113
 1527SOL    HW3 5875   2.307   5.687   1.340  2.6572  0.6998  0.9286
 1527SOL    MW4 5876   2.351   5.621   1.305  0.0674  0.4386 -0.1671
 1528SOL     OW 5877   4.247   5.477   1.600  0.1511  0.5502 -0.4281
 1528SOL    HW2 5878   4.202   5.552   1.638 -0.7440  0.3570 -1.0772
 1528SOL    HW3 5879   4.298   5.440   1.672  0.6215  1.7806 -0.0987
 1528SOL    MW4 5880   4.248   5.482   1.614  0.1623  0.1852 -0.6663
 1529SOL     OW 5881   4.585   1.547   0.102  0.2778 -0.0005 -0.0298
 1529SOL    HW2 5882   4.635   1.469   0.125 -1.6275 -1.5595 -0.8748
 1529SOL    HW3 5883   4.519   1.555   0.171 -1.5017 -1.0382 -1.5037
 1529SOL    MW4 5884   4.583   1.538   0.114 -0.3541 -0.4649 -0.3680
 1530SOL     OW 5885   5.075   2.141   4.096 -0.0887  0.0045 -0.1052
 1530SOL    HW2 5886   5.103   2.119   4.007 -1.6146  1.2265 -0.9500
 1530SOL    HW3 5887   5.108   2.230   4.110 -0.5678  0.1312  0.2285
 1530SOL    MW4 5888   5.083   2.150   4.086 -0.2967  0.3039  0.3998
 1531SOL     OW 5889   4.178   1.839   2.503  0.4119 -0.3899 -0.5119
 1531SOL    HW2 5890   4.260   1.850   2.454  0.8440  0.7051  0.3961
 1531SOL    HW3 5891   4.111   1.878   2.447  0.4021 -1.7156 -1.4721
 1531SOL    MW4 5892   4.180   1.846   2.490 -0.5685 -0.3193  0.0634
 1532SOL     OW 5893   5.999   0.665   5.733  0.4145 -0.5660  0.6159
 1532SOL    HW2 5894   5.957   0.659   5.647  0.8577 -0.5354  0.3905
 1532SOL    HW3 5895   6.044   0.581   5.742 -1.5314 -1.5529  1.8518
 1532SOL    MW4 5896   6.000   0.653   5.723 -0.2328 -0.0861 -0.1101
 1533SOL     OW 5897   4.103   3.128   3.081 -0.0430 -0.8160  0.1488
 1533SOL    HW2 5898   4.105   3.220   3.105  0.1918 -0.8183  0.1352
 1533SOL    HW3 5899   4.053   3.086   3.151  0.4245 -0.7833  0.5050
 1533SOL    MW4 5900   4.096   3.134   3.093  0.7391  0.4652  0.4702
 1534SOL     OW 5901   3.184   5.459   5.353  0.2539 -0.7269 -0.3159
 1534SOL    HW2 5902   3.192   5.371   5.390  0.1766 -0.6778 -0.1778
 1534SOL    HW3 5903   3.117   5.451   5.285 -2.0037 -0.1774  1.6834
 1534SOL    MW4 5904   3.176   5.446   5.349  0.0840  0.1275  0.1424
 1535SOL     OW 5905   3.250   2.075   2.981  0.0005  0.0096 -0.4052
 1535SOL    HW2 5906   3.321   2.138   2.991 -0.2049  0.3723 -1.1347
 1535SOL    HW3 5907   3.282   1.995   3.025  0.6898  0.2883 -0.3862
 1535SOL    MW4 5908   3.264   2.072   2.988  0.4334 -0.1146 -0.2684
 1536SOL     OW 5909   6.251   2.815   6.339 -0.2266  0.5461 -0.0083
 1536SOL    HW2 5910   6.303   2.758   6.283 -0.6682 -1.7275  1.7677
 1536SOL    HW3 5911   6.200   2.869   6.278 -0.9600 -2.0374 -1.8503
 1536SOL    MW4 5912   6.251   2.815   6.323 -0.7412  0.5119 -0.8296
 1537SOL     OW 5913   0.546   4.311   4.701  0.0116 -0.3926  0.0208
 1537SOL    HW2 5914   0.528   4.218   4.714  1.7171 -0.6588  0.7609
 1537SOL    HW3 5915   0.598   4.315   4.621 -0.0275 -0.0740  0.0079
 1537SOL    MW4 5916   0.550   4.300   4.692  0.5671  0.3633  0.1015
 1538SOL     OW 5917   3.432   0.848   2.436  0.0048  0.6397 -0.3860
 1538SOL    HW2 5918   3.477   0.836   2.519  1.8162  4.0926 -0.6956
 1538SOL    HW3 5919   3.364   0.781   2.436  0.6657 -0.2592  3.3186
 1538SOL    MW4 5920   3.429   0.838   2.447 -0.1334  0.1194 -0.5336
 1539SOL     OW 5921   4.135   4.122   0.275 -0.3506  0.3702 -0.1568
 1539SOL    HW2 5922   4.101   4.195   0.326  1.1850  0.1467  1.3046
 1539SOL    HW3 5923   4.129   4.151   0.184 -2.5270  1.0736  0.1513
 1539SOL    MW4 5924   4.130   4.136   0.269  0.3209 -0.7219  0.0325
 1540SOL     OW 5925   6.210   1.459   1.311 -0.0118  0.3323 -0.2542
 1540SOL    HW2 5926   6.120   1.487   1.329 -0.1417 -0.3754  0.1970
 1540SOL    HW3 5927   6.222   1.480   1.219 -0.5371  0.7090 -0.2482
 1540SOL    MW4 5928   6.199   1.466   1.301 -0.4693 -0.0077  0.3993
 1541SOL     OW 5929   2.068   4.023   3.641  0.6188  0.3248 -0.1147
 1541SOL    HW2 5930   2.063   3.992   3.550  0.2832  1.1980 -0.4059
 1541SOL    HW3 5931   1.991   3.986   3.683  0.9058 -0.2873 -0.1114
 1541SOL    MW4 5932   2.057   4.014   3.634  0.4348 -0.1423 -0.2444
 1542SOL     OW 5933   5.236   6.317   5.758 -0.0018  0.0753 -0.0560
 1542SOL    HW2 5934   5.194   6.339   5.841  3.6256 -0.0438  2.0390
 1542SOL    HW3 5935   5.175   6.347   5.691 -2.1526  2.2285  2.6347
 1542SOL    MW4 5936   5.222   6.324   5.760 -0.1000  0.0893 -0.2962
 1543SOL     OW 5937   3.451   0.659   4.824 -0.2886  0.0560 -0.2620
 1543SOL    HW2 5938   3.417   0.601   4.892  1.1867  0.0636  0.5146
 1543SOL    HW3 5939   3.437   0.611   4.742 -0.9324 -0.4978  0.1618
 1543SOL    MW4 5940   3.445   0.645   4.822 -0.1084 -0.4207  0.1500
 1544SOL     OW 5941   0.289   0.723   0.109  0.3092 -0.3313 -0.2093
 1544SOL    HW2 5942   0.221   0.766   0.161  2.0090  1.5157  0.6284
 1544SOL    HW3 5943   0.241   0.666   0.049 -1.9077  0.1871  0.9598
 1544SOL    MW4 5944   0.274   0.722   0.108 -0.0756 -0.4816 -0.0360
 1545SOL     OW 5945   2.646   3.510   2.848  0.6500 -0.5503  0.2236
 1545SOL    HW2 5946   2.620   3.466   2.767 -2.7720 -0.1883  0.9431
 1545SOL    HW3 5947   2.684   3.593   2.820  1.3048 -1.2326 -1.0003
 1545SOL    MW4 5948   2.647   3.515   2.834 -0.0993  0.1537  0.2534
 1546SOL     OW 5949   5.333   2.619   4.453  0.0737 -0.3196  0.1868
 1546SOL    HW2 5950   5.348   2.688   4.518 -1.1281  0.5408 -0.4013
 1546SOL    HW3 5951   5.318   2.540   4.505  1.5749 -0.1928  0.8759
 1546SOL    MW4 5952   5.333   2.618   4.468 -0.1520 -0.3973  0.0854
 1547SOL     OW 5953   6.187   1.968   4.547 -0.1999 -0.6436  0.8588
 1547SOL    HW2 5954   6.269   1.976   4.500 -1.3495 -1.2655 -1.3839
 1547SOL    HW3 5955   6.146   1.890   4.510 -1.7588 -0.4164  2.0044
 1547SOL    MW4 5956   6.192   1.958   4.536 -0.0501  0.0559  0.2367
 1548SOL     OW 5957   3.933   1.962   1.237  0.7955 -0.1397  0.0907
 1548SOL    HW2 5958   4.014   1.999   1.272  0.0724  0.0418  1.6481
 1548SOL    HW3 5959   3.913   2.016   1.161  1.3284  0.8001  0.6047
 1548SOL    MW4 5960   3.941   1.974   1.231 -0.6178 -0.0955  0.1295
 1549SOL     OW 5961   5.722   5.560   1.193  0.0265 -0.3656  0.6032
 1549SOL    HW2 5962   5.694   5.547   1.284  0.9307 -0.0285  0.9477
 1549SOL    HW3 5963   5.816   5.544   1.195  0.2196  0.5854 -0.0811
 1549SOL    MW4 5964   5.731   5.556   1.205  0.1030 -0.2741  0.2395
 1550SOL     OW 5965   5.213   2.501   0.753  0.3838 -0.1988  0.3921
 1550SOL    HW2 5966   5.233   2.540   0.668  0.3164 -2.3271 -0.6661
 1550SOL    HW3 5967   5.268   2.549   0.815 -0.2497  2.0348 -0.6628
 1550SOL    MW4 5968   5.223   2.512   0.750 -0.3326 -0.1689 -0.1741
 1551SOL     OW 5969   4.667   2.559   3.583 -0.4569 -0.0415 -0.0322
 1551SOL    HW2 5970   4.756   2.534   3.558 -0.0714 -0.1353  1.3670
 1551SOL    HW3 5971   4.620   2.476   3.594 -0.1427 -0.0618  1.2194
 1551SOL    MW4 5972   4.672   2.545   3.581 -0.6625 -0.1837 -0.2150
 1552SOL     OW 5973   5.164   0.588   1.038  1.1356 -0.0445 -0.5103
 1552SOL    HW2 5974   5.158   0.494   1.027 -1.8213  0.0675 -0.8340
 1552SOL    HW3 5975   5.162   0.623   0.949 -0.5354  0.3272 -0.3680
 1552SOL    MW4 5976   5.163   0.581   1.025  1.0480 -0.1921 -0.0212
 1553SOL     OW 5977   5.683   5.764   6.431 -0.0969 -0.4819  0.1825
 1553SOL    HW2 5978   5.736   5.740   6.354 -1.2431 -1.4102 -0.3550
 1553SOL    HW3 5979   5.624   5.831   6.399  1.1424  1.0399  0.9519
 1553SOL    MW4 5980   5.682   5.769   6.416 -0.3161  0.2402  0.0712
 1554SOL     OW 5981   3.793   2.762   1.002  0.5628  0.3528  0.3922
 1554SOL    HW2 5982   3.816   2.689   1.059  0.9606 -0.4263 -0.7330
 1554SOL    HW3 5983   3.829   2.739   0.916  1.8889  2.4971  0.2952
 1554SOL    MW4 5984   3.800   2.750   0.998  0.0223 -0.0011 -0.1343
 1555SOL     OW 5985   5.164   1.485   1.165  0.0373  0.0851 -0.5450
 1555SOL    HW2 5986   5.204   1.407   1.127  0.4993 -0.4352  0.9178
 1555SOL    HW3 5987   5.180   1.476   1.259  0.5917  2.2096 -0.3790
 1555SOL    MW4 5988   5.172   1.474   1.173  0.0981 -0.2153  0.5565
 1556SOL     OW 5989   0.274   2.016   4.640  0.2211 -0.2128  0.2943
 1556SOL    HW2 5990   0.286   2.027   4.546 -3.6202 -2.5424 -0.6787
 1556SOL    HW3 5991   0.283   2.104   4.676  0.3108  1.0056 -2.4617
 1556SOL    MW4 5992   0.277   2.029   4.632  0.5675 -0.0611  0.7131
 1557SOL     OW 5993   6.193   1.746   0.504 -0.0735  0.1327 -0.2329
 1557SOL    HW2 5994   6.183   1.723   0.597  1.6546 -0.8238 -0.2271
 1557SOL    HW3 5995   6.250   1.823   0.505  0.9445 -0.5973 -0.5072
 1557SOL    MW4 5996   6.199   1.753   0.517 -0.1324  0.4373 -0.0471
 1558SOL     OW 5997   1.806   1.226   0.254  0.2721 -1.0307 -0.0578
 1558SOL    HW2 5998   1.757   1.235   0.172  1.0141  0.8398 -0.3492
 1558SOL    HW3 5999   1.776   1.299   0.308  1.9047 -0.4761  0.1656
 1558SOL    MW4 6000   1.796   1.237   0.250  0.2101  0.1378  0.1297
 1559SOL     OW 6001   0.102   1.085   3.306  0.4066  0.3472  0.4478
 1559SOL    HW2 6002   0.193   1.096   3.335  0.7877  1.2564 -1.0202
 1559SOL    HW3 6003   0.089   0.990   3.306  2.3130 -0.0236 -1.9640
 1559SOL    MW4 6004   0.112   1.074   3.310  0.2939 -0.5087 -0.4446
 1560SOL     OW 6005   4.937   5.510   2.150 -0.4865 -0.0765 -0.2323
 1560SOL    HW2 6006   4.918   5.416   2.147  1.3090 -0.4684 -0.1108
 1560SOL    HW3 6007   5.007   5.518   2.214  1.0929  1.0392 -2.0140
 1560SOL    MW4 6008   4.943   5.499   2.158 -0.4826 -0.0982  0.4923
 1561SOL     OW 6009   1.046   0.905   2.545  0.5688  0.0482  0.6974
 1561SOL    HW2 6010   1.070   0.978   2.602  0.5969  1.9462 -1.5877
 1561SOL    HW3 6011   0.953   0.890   2.563  0.2403  1.5097  0.3699
 1561SOL    MW4 6012   1.037   0.913   2.555 -0.3665 -0.2404  0.2998
 1562SOL     OW 6013   3.445   4.063   0.964  0.0916 -0.3824 -0.0885
 1562SOL    HW2 6014   3.378   4.116   1.006  1.0111  1.1303 -0.4627
 1562SOL    HW3 6015   3.473   4.001   1.031  0.0073  0.5499  0.8217
 1562SOL    MW4 6016   3.440   4.062   0.978 -0.5520 -0.1951  0.0017
 1563SOL     OW 6017   6.099   4.263   1.425  0.2303  0.0098 -0.6450
 1563SOL    HW2 6018   6.161   4.334   1.437  0.8300 -0.8087  1.5914
 1563SOL    HW3 6019   6.014   4.301   1.449  0.2634  0.4177 -1.1546
 1563SOL    MW4 6020   6.096   4.277   1.430 -0.7255 -0.0140 -0.0051
 1564SOL     OW 6021   3.038   6.394   1.657 -0.1902  0.4340  0.2970
 1564SOL    HW2 6022   3.120   6.362   1.618 -0.7009  1.8498 -2.1758
 1564SOL    HW3 6023   3.067   6.457   1.723  0.7644  0.9985 -0.6120
 1564SOL    MW4 6024   3.053   6.398   1.661 -0.6214 -0.4015  0.2744
 1565SOL     OW 6025   6.107   4.169   0.421  0.6096  0.1949 -0.2002
 1565SOL    HW2 6026   6.196   4.178   0.389  1.3283 -1.2677  1.2292
 1565SOL    HW3 6027   6.101   4.232   0.494  0.4110  0.4180 -0.4073
 1565SOL    MW4 6028   6.118   4.179   0.427  0.1829  0.4455  0.1859
 1566SOL     OW 6029   2.836   3.362   2.072 -0.1031  0.3412  0.2486
 1566SOL    HW2 6030   2.909   3.394   2.125  1.6000  0.6347 -2.1282
 1566SOL    HW3 6031   2.867   3.280   2.034 -1.5755 -0.2648  0.2725
 1566SOL    MW4 6032   2.850   3.355   2.074  0.0361  0.8907  0.4590
 1567SOL     OW 6033   1.168   2.263   3.307  0.1937  0.3099 -0.4044
 1567SOL    HW2 6034   1.079   2.297   3.309  0.0793 -0.0205  0.9746
 1567SOL    HW3 6035   1.170   2.205   3.231 -0.7833  0.2887 -0.4206
 1567SOL    MW4 6036   1.156   2.260   3.297 -0.4002 -0.0410 -0.0020
 1568SOL     OW 6037   4.971   3.320   2.789 -0.3410  0.0593  0.1014
 1568SOL    HW2 6038   4.925   3.236   2.789  0.1620 -0.2791 -1.8876
 1568SOL    HW3 6039   5.053   3.304   2.835 -0.6493 -0.2906  0.5299
 1568SOL    MW4 6040   4.976   3.307   2.795 -0.1576  0.2844 -0.1963
 1569SOL     OW 6041   0.234   0.677   6.283 -0.4826  0.6626 -0.4026
 1569SOL    HW2 6042   0.327   0.698   6.295 -0.4600 -0.3439  1.8559
 1569SOL    HW3 6043   0.189   0.758   6.306 -0.1951  0.4871  0.8728
 1569SOL    MW4 6044   0.241   0.690   6.288 -0.3380 -0.1489  0.2546
 1570SOL     OW 6045   5.359   1.647   1.935  0.6027 -0.4641 -0.6682
 1570SOL    HW2 6046   5.361   1.582   2.005 -1.5949 -0.0510 -0.1588
 1570SOL    HW3 6047   5.322   1.725   1.975  0.5965  0.2242 -1.9509
 1570SOL    MW4 6048   5.354   1.649   1.949  0.1298  0.1153  0.5577
 1571SOL     OW 6049   1.404   1.079   4.697 -0.0566 -0.3145 -0.9447
 1571SOL    HW2 6050   1.339   1.111   4.760  1.0109  0.1856 -0.0494
 1571SOL    HW3 6051   1.377   1.116   4.613  0.2073  1.6062 -0.2324
 1571SOL    MW4 6052   1.392   1.088   4.694 -0.3291  0.4490  0.6844
 1572SOL     OW 6053   2.871   2.875   2.916  0.0990  0.3117  0.4572
 1572SOL    HW2 6054   2.781   2.848   2.899  0.1870  0.3859 -0.1527
 1572SOL    HW3 6055   2.862   2.964   2.951  0.0192  1.1945 -1.6353
 1572SOL    MW4 6056   2.858   2.884   2.918  0.1066 -0.5536 -0.0935
 1573SOL     OW 6057   5.363   2.637   3.838 -0.2289 -0.1137  0.4159
 1573SOL    HW2 6058   5.310   2.612   3.762 -1.3337 -0.4029  1.2499
 1573SOL    HW3 6059   5.426   2.566   3.848 -0.8462 -0.6653  0.4613
 1573SOL    MW4 6060   5.364   2.625   3.829  0.7546 -0.1533  0.5419
 1574SOL     OW 6061   1.918   0.544   5.175  0.4317  0.1613 -0.0305
 1574SOL    HW2 6062   1.965   0.531   5.092 -0.8572  0.4371 -0.8321
 1574SOL    HW3 6063   1.978   0.597   5.228  0.7386  1.1735 -1.3153
 1574SOL    MW4 6064   1.932   0.549   5.171  0.2295 -0.4524  0.2724
 1575SOL     OW 6065   4.456   3.747   3.067  0.2001 -0.4118 -0.6534
 1575SOL    HW2 6066   4.501   3.746   2.983 -0.5141  0.8438 -1.0848
 1575SOL    HW3 6067   4.478   3.664   3.108  1.9604 -0.3226 -1.3402
 1575SOL    MW4 6068   4.465   3.736   3.062  0.0774  0.4469  0.6664
 1576SOL     OW 6069   1.040   2.026   0.232 -0.1292 -1.0024 -0.4669
 1576SOL    HW2 6070   0.951   2.060   0.219 -0.5312 -0.8449  2.0936
 1576SOL    HW3 6071   1.097   2.092   0.194 -1.0608 -0.5265 -1.0961
 1576SOL    MW4 6072   1.036   2.039   0.225  0.2991 -0.4375  0.4805
 1577SOL     OW 6073   3.930   3.795   5.598 -0.5738 -0.2516  0.1802
 1577SOL    HW2 6074   3.938   3.747   5.516 -0.3609 -1.5791  0.9504
 1577SOL    HW3 6075   3.837   3.789   5.620 -0.4303 -0.9628  0.6365
 1577SOL    MW4 6076   3.918   3.788   5.590  0.1176 -0.3129  0.9954
 1578SOL     OW 6077   3.065   4.127   3.961 -0.0709 -0.2040 -0.1966
 1578SOL    HW2 6078   3.094   4.204   4.009  1.6365  1.5535 -3.6345
 1578SOL    HW3 6079   2.977   4.150   3.929  0.3094  0.2205 -0.9575
 1578SOL    MW4 6080   3.057   4.140   3.963  0.2316 -0.3822 -0.0215
 1579SOL     OW 6081   1.042   0.263   2.540  0.1435 -0.0494  0.7554
 1579SOL    HW2 6082   1.100   0.328   2.499 -1.7605  1.4716  0.3385
 1579SOL    HW3 6083   0.954   0.297   2.526 -0.8518 -2.0020  1.8616
 1579SOL    MW4 6084   1.038   0.276   2.533 -0.1382  0.1931  0.5020
 1580SOL     OW 6085   5.454   4.374   0.066  0.3654  0.2959  0.7890
 1580SOL    HW2 6086   5.534   4.330   0.094  0.6728  0.2740 -0.1008
 1580SOL    HW3 6087   5.445   4.351  -0.026  0.4003  1.8799  0.3611
 1580SOL    MW4 6088   5.463   4.365   0.057  0.1350  0.2695  0.0623
 1581SOL     OW 6089   0.292   5.064   0.459 -0.7490 -0.0595 -0.7364
 1581SOL    HW2 6090   0.225   5.024   0.514 -0.3853 -0.9309 -0.9058
 1581SOL    HW3 6091   0.272   5.033   0.371  1.2383 -2.3841 -0.5017
 1581SOL    MW4 6092   0.280   5.054   0.455  0.3626  0.3524 -0.9083
 1582SOL     OW 6093   4.748   5.859   2.839 -0.3261  0.0596 -0.2315
 1582SOL    HW2 6094   4.801   5.800   2.785 -0.9835 -0.2047 -0.6000
 1582SOL    HW3 6095   4.812   5.915   2.883  0.3360 -1.1147  0.3477
 1582SOL    MW4 6096   4.763   5.858   2.838 -0.3246 -0.4086  0.2916
 1583SOL     OW 6097   1.562   5.451   0.039 -0.3894  0.3746 -0.2581
 1583SOL    HW2 6098   1.510   5.475   0.115 -2.2133 -0.6234 -1.1223
 1583SOL    HW3 6099   1.511   5.383  -0.005  1.0930  0.1877 -1.8223
 1583SOL    MW4 6100   1.549   5.445   0.043 -0.0099 -0.1392 -0.2311
 1584SOL     OW 6101   1.606   4.027   2.206 -0.1834  0.3723 -0.0998
 1584SOL    HW2 6102   1.605   4.060   2.116 -1.5064 -0.4546 -0.4131
 1584SOL    HW3 6103   1.535   4.075   2.250 -0.7547 -0.5464 -0.0060
 1584SOL    MW4 6104   1.597   4.038   2.200  0.2181  0.1378 -0.3847
 1585SOL     OW 6105   3.211   0.903   1.369 -0.0966 -0.5060 -0.4896
 1585SOL    HW2 6106   3.116   0.899   1.357 -0.3555 -2.0951  1.5145
 1585SOL    HW3 6107   3.223   0.952   1.450  0.8882  0.6093 -1.2772
 1585SOL    MW4 6108   3.200   0.909   1.378 -0.0751  0.2814 -0.1865
 1586SOL     OW 6109   1.085   4.811   1.153  0.5658 -0.5453  0.3799
 1586SOL    HW2 6110   1.160   4.760   1.120 -0.1871 -0.9977 -0.6964
 1586SOL    HW3 6111   1.106   4.827   1.245  1.1387 -2.2667  0.5880
 1586SOL    MW4 6112   1.098   4.806   1.161  0.5510  0.5524  0.3506
 1587SOL     OW 6113   2.756   2.139   0.387  0.1583  0.2739 -0.6499
 1587SOL    HW2 6114   2.722   2.053   0.362 -0.4376  0.5451 -0.8057
 1587SOL    HW3 6115   2.687   2.200   0.360  1.1961  0.9419 -1.8361
 1587SOL    MW4 6116   2.742   2.136   0.380  0.2005 -0.2207  0.1345
 1588SOL     OW 6117   4.886   4.823   4.870 -0.1364 -0.4192 -0.1545
 1588SOL    HW2 6118   4.825   4.816   4.797  1.2228  2.5419 -1.7340
 1588SOL    HW3 6119   4.830   4.826   4.948 -1.8152 -0.3779 -1.3049
 1588SOL    MW4 6120   4.871   4.822   4.870 -0.0273  0.0066 -0.0979
 1589SOL     OW 6121   3.103   1.135   3.385 -0.2920 -0.1066  0.2159
 1589SOL    HW2 6122   3.198   1.141   3.393  0.0248 -3.7809  0.9719
 1589SOL    HW3 6123   3.073   1.225   3.390  2.9969  1.0658  2.1551
 1589SOL    MW4 6124   3.112   1.147   3.387  0.3691 -0.1008 -0.9829
 1590SOL     OW 6125   2.415   4.588   1.977  0.1394 -0.2417 -0.4198
 1590SOL    HW2 6126   2.367   4.510   1.948 -0.8101  0.2809 -0.2847
 1590SOL    HW3 6127   2.506   4.559   1.982 -0.0791 -1.1223 -1.1647
 1590SOL    MW4 6128   2.421   4.574   1.974 -0.4301  0.4456 -0.0045
 1591SOL     OW 6129   5.656   5.039   3.915  0.0119 -0.4238  0.0431
 1591SOL    HW2 6130   5.589   5.034   3.984 -3.1666  1.7492 -2.6220
 1591SOL    HW3 6131   5.631   4.971   3.853  1.0560 -0.3812 -0.4445
 1591SOL    MW4 6132   5.644   5.029   3.916  0.1270 -0.4139  0.4907
 1592SOL     OW 6133   2.966   0.738   1.415  0.2039 -0.2234  0.0391
 1592SOL    HW2 6134   2.935   0.750   1.326  1.2285  0.1927 -0.2689
 1592SOL    HW3 6135   2.937   0.816   1.462  0.7107  0.1243 -0.2259
 1592SOL    MW4 6136   2.958   0.750   1.410  0.6805 -0.3899 -0.6705
 1593SOL     OW 6137   4.847   5.783   1.530 -0.0302 -0.4455 -0.1735
 1593SOL    HW2 6138   4.768   5.835   1.513  0.9219  0.8219 -0.8628
 1593SOL    HW3 6139   4.814   5.703   1.572 -1.6717  0.0598 -0.4181
 1593SOL    MW4 6140   4.832   5.779   1.533  0.0966 -0.3112  0.4104
 1594SOL     OW 6141   3.230   0.603   6.128  0.3121  0.0622  0.4331
 1594SOL    HW2 6142   3.273   0.643   6.204  0.6120  0.5109  0.0398
 1594SOL    HW3 6143   3.279   0.637   6.053 -1.4004  1.4792 -0.1180
 1594SOL    MW4 6144   3.242   0.613   6.128  0.8543  0.1373  0.2949
 1595SOL     OW 6145   3.692   0.116   0.019 -0.7068  0.0422  0.2922
 1595SOL    HW2 6146   3.671   0.022   0.015  1.1489 -0.4152  0.7345
 1595SOL    HW3 6147   3.683   0.139   0.111  0.8034 -0.2053  0.5228
 1595SOL    MW4 6148   3.688   0.106   0.031 -0.0320 -0.0818  0.3156
 1596SOL     OW 6149   1.915   6.247   4.284 -0.3949  0.6246 -0.5787
 1596SOL    HW2 6150   1.913   6.177   4.349 -3.0182  1.5079  0.4058
 1596SOL    HW3 6151   1.907   6.202   4.200 -1.1940 -0.3117 -0.0172
 1596SOL    MW4 6152   1.914   6.232   4.282  0.1809  0.4674 -0.5530
 1597SOL     OW 6153   1.183   0.550   3.018  0.5040 -0.0653 -0.2048
 1597SOL    HW2 6154   1.277   0.540   3.005  0.5636  0.9552 -0.5811
 1597SOL    HW3 6155   1.161   0.634   2.979 -0.8148 -0.9029 -1.3682
 1597SOL    MW4 6156   1.192   0.560   3.011 -0.3473 -0.2888 -0.2244
 1598SOL     OW 6157   0.234   1.563   0.014  0.1014 -0.3486 -0.5854
 1598SOL    HW2 6158   0.277   1.481   0.038 -0.1992 -0.0236  1.2411
 1598SOL    HW3 6159   0.149   1.559   0.059  0.3573  1.2297  0.0941
 1598SOL    MW4 6160   0.228   1.552   0.023  0.1984 -0.0949  0.2877
 1599SOL     OW 6161   1.904   2.607   6.200  0.1018  0.1345  0.1860
 1599SOL    HW2 6162   1.979   2.616   6.258  0.6455  0.0237 -0.4767
 1599SOL    HW3 6163   1.916   2.521   6.159 -0.1342  0.3148 -0.2716
 1599SOL    MW4 6164   1.915   2.597   6.202  0.8209  0.3576 -0.4316
 1600SOL     OW 6165   0.810   3.065   5.367  0.2024  0.1363 -0.2469
 1600SOL    HW2 6166   0.878   3.110   5.316 -1.7857  0.7299 -2.5535
 1600SOL    HW3 6167   0.803   3.116   5.447  1.6479  0.7702 -0.4882
 1600SOL    MW4 6168   0.818   3.078   5.371 -0.2378  0.0014  0.3629
 1601SOL     OW 6169   2.984   4.331   2.061  0.2067 -0.1527 -0.2381
 1601SOL    HW2 6170   2.917   4.346   2.127 -1.8019  1.2440 -2.4332
 1601SOL    HW3 6171   3.010   4.419   2.032  2.0202 -0.6937 -0.3948
 1601SOL    MW4 6172   2.979   4.345   2.066 -0.3043  0.0373  0.4553
 1602SOL     OW 6173   0.644   1.761   5.100  0.0897 -0.0343 -0.2906
 1602SOL    HW2 6174   0.617   1.796   5.015 -0.6466 -2.1929 -1.0130
 1602SOL    HW3 6175   0.570   1.780   5.158 -1.0226 -1.7544 -1.0834
 1602SOL    MW4 6176   0.630   1.768   5.097  0.3069 -0.3093 -0.1478
 1603SOL     OW 6177   4.816   0.063   0.390  0.2252  0.2252  0.5152
 1603SOL    HW2 6178   4.863  -0.009   0.431 -0.2209  0.4994  1.5506
 1603SOL    HW3 6179   4.785   0.116   0.463 -1.1721  0.3779 -0.1409
 1603SOL    MW4 6180   4.818   0.060   0.405 -0.3013  0.3038  0.1467
 1604SOL     OW 6181   5.640   1.487   2.982 -0.2741  0.7683  0.1157
 1604SOL    HW2 6182   5.728   1.514   3.008  0.2120 -1.8942  1.5931
 1604SOL    HW3 6183   5.654   1.431   2.905 -0.6022 -0.0014  0.6039
 1604SOL    MW4 6184   5.654   1.483   2.975  0.5141 -0.4303  0.0814
 1605SOL     OW 6185   6.268   1.401   3.109 -0.0504 -0.7524 -0.3677
 1605SOL    HW2 6186   6.341   1.376   3.166 -0.4824 -1.0330  0.0717
 1605SOL    HW3 6187   6.194   1.412   3.168 -0.5264 -1.1271 -0.8837
 1605SOL    MW4 6188   6.268   1.399   3.124 -0.0754  0.5021  0.1367
 1606SOL     OW 6189   0.740   0.019   0.163  0.4695  0.0547  0.5392
 1606SOL    HW2 6190   0.798   0.041   0.236  0.5219 -2.4482  1.3171
 1606SOL    HW3 6191   0.721   0.104   0.122 -0.0135  1.6399  3.7316
 1606SOL    MW4 6192   0.745   0.033   0.167 -0.4772  0.1382 -0.3857
 1607SOL     OW 6193   4.208   3.604   3.838  0.3781  0.4586 -0.2045
 1607SOL    HW2 6194   4.214   3.664   3.912  0.8251  0.6683 -0.4097
 1607SOL    HW3 6195   4.295   3.564   3.832 -0.4132 -1.6376  1.1087
 1607SOL    MW4 6196   4.220   3.606   3.847  0.4032 -0.1347 -0.3970
 1608SOL     OW 6197   5.059   0.337   5.513 -0.3940  0.1237 -0.0834
 1608SOL    HW2 6198   4.966   0.316   5.516 -0.3781  0.1243  1.9561
 1608SOL    HW3 6199   5.063   0.431   5.500 -0.6202 -0.0423 -1.5252
 1608SOL    MW4 6200   5.048   0.346   5.512  0.2010 -0.2307  0.4333
 1609SOL     OW 6201   3.432   2.536   3.577  0.3309  0.1169  0.5866
 1609SOL    HW2 6202   3.375   2.532   3.654  1.3377 -1.5928  1.2976
 1609SOL    HW3 6203   3.480   2.453   3.579  0.6721  0.2053 -1.6746
 1609SOL    MW4 6204   3.431   2.524   3.588 -0.1944 -0.0089 -0.6872
 1610SOL     OW 6205   0.786   3.494   2.613  0.3192  0.3014  0.2409
 1610SOL    HW2 6206   0.817   3.537   2.692  1.2403  0.2272 -0.0729
 1610SOL    HW3 6207   0.864   3.480   2.561 -0.2226 -0.0483 -0.4944
 1610SOL    MW4 6208   0.800   3.497   2.617 -0.1462  0.9918 -0.2843
 1611SOL     OW 6209   0.688   2.868   0.967 -0.5404  0.1722 -0.3696
 1611SOL    HW2 6210   0.616   2.843   0.908 -1.8925  1.0181  0.8543
 1611SOL    HW3 6211   0.673   2.815   1.046  0.6252 -0.1632 -0.3612
 1611SOL    MW4 6212   0.676   2.857   0.969 -0.1361  0.6372 -0.6872
 1612SOL     OW 6213   0.828   4.190   3.291 -0.0240 -0.2713  0.6102
 1612SOL    HW2 6214   0.897   4.220   3.232  0.6424 -0.6656  1.1690
 1612SOL    HW3 6215   0.747   4.207   3.244  0.4274  0.5950  0.1066
 1612SOL    MW4 6216   0.826   4.196   3.277  0.2363 -0.1584  0.1274
 1613SOL     OW 6217   0.156   0.556   5.330  0.0035  0.3473  0.2450
 1613SOL    HW2 6218   0.159   0.469   5.291  2.8374  0.3932  0.0926
 1613SOL    HW3 6219   0.161   0.616   5.255  0.8459  0.5362  0.4330
 1613SOL    MW4 6220   0.157   0.553   5.315 -0.3266  0.0321  0.5001
 1614SOL     OW 6221   5.950   3.765   2.264  0.0928 -0.5535  0.0512
 1614SOL    HW2 6222   5.987   3.776   2.352 -0.3958 -0.3423  0.2347
 1614SOL    HW3 6223   5.906   3.680   2.267  0.1529 -0.5868 -0.0167
 1614SOL    MW4 6224   5.949   3.755   2.276  0.3237  0.4368  0.5350
 1615SOL     OW 6225   1.252   3.336   1.450 -0.0331  0.4384  0.0668
 1615SOL    HW2 6226   1.191   3.373   1.386  0.4259  0.4661 -0.3671
 1615SOL    HW3 6227   1.205   3.262   1.488 -0.1047  0.0630 -0.7324
 1615SOL    MW4 6228   1.238   3.331   1.446  0.6279  0.0419  0.2051
 1616SOL     OW 6229   4.374   0.650   3.023 -0.2516 -0.3539  0.1535
 1616SOL    HW2 6230   4.469   0.659   3.018 -0.2729  0.3806  0.9286
 1616SOL    HW3 6231   4.361   0.571   3.075 -0.0660 -0.4594  0.0419
 1616SOL    MW4 6232   4.385   0.641   3.029  0.3845  0.3269 -0.4782
 1617SOL     OW 6233   1.800   3.933   6.354  1.3367  0.1386  0.1506
 1617SOL    HW2 6234   1.750   3.932   6.272  0.6299 -0.4787  0.5757
 1617SOL    HW3 6235   1.807   3.841   6.379 -0.8682  0.4355  2.2009
 1617SOL    MW4 6236   1.794   3.921   6.346 -0.0236 -0.1051  0.4905
 1618SOL     OW 6237   6.183   1.457   1.020  0.3980 -0.1025  0.2031
 1618SOL    HW2 6238   6.192   1.362   1.033 -0.3494 -0.9028 -3.8424
 1618SOL    HW3 6239   6.090   1.475   1.039  0.3498 -0.3215  0.1741
 1618SOL    MW4 6240   6.172   1.447   1.024 -0.0514  0.3461 -0.0726
 1619SOL     OW 6241   3.000   5.745   2.968 -0.3656 -0.1590 -0.2157
 1619SOL    HW2 6242   3.041   5.742   3.054 -1.1778 -0.3515  0.1729
 1619SOL    HW3 6243   3.072   5.767   2.908  0.5062 -1.4857  0.3029
 1619SOL    MW4 6244   3.015   5.748   2.972 -1.0288  0.0649 -1.1290
 1620SOL     OW 6245   2.538   5.293   5.931  0.3204 -0.0055  0.6914
 1620SOL    HW2 6246   2.515   5.222   5.990  1.5903  0.8360  2.2984
 1620SOL    HW3 6247   2.573   5.250   5.853 -0.1955 -1.1300  1.0693
 1620SOL    MW4 6248   2.540   5.278   5.929 -0.2235 -0.3334  0.0088
 1621SOL     OW 6249   5.498   3.712   0.691 -0.5918  0.4242 -0.1968
 1621SOL    HW2 6250   5.418   3.725   0.742 -1.2691  0.3956 -1.2283
 1621SOL    HW3 6251   5.473   3.651   0.622 -0.3894  2.3547 -2.0723
 1621SOL    MW4 6252   5.485   3.705   0.689  0.3886 -0.3548  0.7750
 1622SOL     OW 6253   5.991   5.523   1.199  0.0630 -0.4311  0.0111
 1622SOL    HW2 6254   6.012   5.538   1.107 -0.5363  1.1305  0.1102
 1622SOL    HW3 6255   6.065   5.561   1.247 -0.2375 -0.0963  0.2101
 1622SOL    MW4 6256   6.004   5.530   1.193  0.2567 -0.3812 -0.0408
 1623SOL     OW 6257   3.561   1.300   4.486 -0.9657 -0.1620  0.4897
 1623SOL    HW2 6258   3.553   1.223   4.542  0.9920  0.3126  1.5148
 1623SOL    HW3 6259   3.654   1.323   4.490 -1.3033  1.6224 -0.6503
 1623SOL    MW4 6260   3.572   1.293   4.494  0.4870 -0.3206  0.5953
 1624SOL     OW 6261   0.039   0.838   4.983 -0.2509 -0.7885 -0.2457
 1624SOL    HW2 6262  -0.048   0.849   4.944  0.0668 -0.3001 -0.8477
 1624SOL    HW3 6263   0.087   0.917   4.957 -0.0820 -0.3489  1.3335
 1624SOL    MW4 6264   0.034   0.850   4.974 -0.2605 -0.2653  0.0360
 1625SOL     OW 6265   6.275   1.643   3.924 -0.0127 -0.1489 -0.1005
 1625SOL    HW2 6266   6.355   1.645   3.872 -0.3954 -0.7918 -0.7330
 1625SOL    HW3 6267   6.292   1.578   3.992 -0.1125 -0.5540 -0.4528
 1625SOL    MW4 6268   6.287   1.634   3.926  0.4695 -0.0518  0.5456
 1626SOL     OW 6269   1.074   4.233   3.808 -0.2062 -0.2143 -0.1897
 1626SOL    HW2 6270   1.063   4.202   3.898 -0.0541  0.0718 -0.0690
 1626SOL    HW3 6271   0.991   4.277   3.787 -0.4365 -0.7284 -0.3752
 1626SOL    MW4 6272   1.062   4.235   3.817 -0.2926 -0.3997  0.8327
 1627SOL     OW 6273   4.331   0.675   4.857 -0.1073 -0.7889  0.4568
 1627SOL    HW2 6274   4.404   0.699   4.799 -0.0861 -3.1469 -0.6108
 1627SOL    HW3 6275   4.324   0.748   4.918  0.4241  1.4565 -1.9756
 1627SOL    MW4 6276   4.340   0.687   4.857 -0.2453  0.1870  0.6076
 1628SOL     OW 6277   6.080   0.441   2.541  0.2307 -0.3831  0.2486
 1628SOL    HW2 6278   6.016   0.428   2.611  0.4825 -1.3497  0.3116
 1628SOL    HW3 6279   6.065   0.531   2.511 -1.0420 -0.5328  0.3702
 1628SOL    MW4 6280   6.070   0.451   2.546  0.1644 -0.2234  0.1755
 1629SOL     OW 6281   1.207   5.932   3.728 -0.2717  0.3824  0.3129
 1629SOL    HW2 6282   1.169   5.982   3.656  0.2312  2.1640  1.2059
 1629SOL    HW3 6283   1.137   5.928   3.794 -0.3451 -0.1944  0.1990
 1629SOL    MW4 6284   1.193   5.938   3.727  0.4438  0.0290 -0.6869
 1630SOL     OW 6285   4.260   5.235   0.382 -0.2772  0.2453  0.4430
 1630SOL    HW2 6286   4.177   5.282   0.376 -0.5476  0.0863  2.2706
 1630SOL    HW3 6287   4.323   5.299   0.415 -0.3603 -0.3249  1.7672
 1630SOL    MW4 6288   4.257   5.249   0.385 -0.2937  0.0990  0.1300
 1631SOL     OW 6289   5.500   2.105   0.022 -0.2645  0.3498 -0.3676
 1631SOL    HW2 6290   5.482   2.138   0.110 -0.9838  0.7405 -0.6430
 1631SOL    HW3 6291   5.588   2.069   0.027 -0.4849 -0.1004  0.6403
 1631SOL    MW4 6292   5.509   2.105   0.034 -0.0030 -0.3369 -0.1060
 1632SOL     OW 6293   6.059   6.033   2.897  0.1501 -0.1504 -0.1618
 1632SOL    HW2 6294   6.026   5.983   2.972 -0.7152 -0.4744 -0.7328
 1632SOL    HW3 6295   6.077   5.966   2.830  0.8151  0.1411 -0.2762
 1632SOL    MW4 6296   6.057   6.017   2.898 -0.1004  0.7460 -0.1978
 1633SOL     OW 6297   2.011   3.030   6.096  0.4387 -0.5317 -0.3663
 1633SOL    HW2 6298   2.006   3.125   6.107  1.4713 -0.5379  0.3337
 1633SOL    HW3 6299   1.920   3.001   6.095  0.1019  0.1665  2.4256
 1633SOL    MW4 6300   1.998   3.039   6.097 -0.6948 -0.2708 -0.3776
 1634SOL     OW 6301   4.278   1.760   5.740 -0.1567  0.2458  0.3087
 1634SOL    HW2 6302   4.295   1.819   5.813  0.0815  1.1066 -0.4192
 1634SOL    HW3 6303   4.361   1.758   5.691 -0.6123  0.4886 -0.4876
 1634SOL    MW4 6304   4.291   1.768   5.743 -0.1244 -0.2521  0.5786
 1635SOL     OW 6305   3.439   4.309   4.133  0.1876  0.3840 -0.8861
 1635SOL    HW2 6306   3.510   4.271   4.184 -1.4457 -1.2100  0.2999
 1635SOL    HW3 6307   3.458   4.283   4.043  0.1771 -1.5887 -0.3546
 1635SOL    MW4 6308   3.451   4.301   4.128  0.2718  0.2624  0.3759
 1636SOL     OW 6309   2.226   0.927   4.529  0.2602 -0.0845 -0.2767
 1636SOL    HW2 6310   2.212   0.845   4.483  0.3158 -0.0532 -0.3508
 1636SOL    HW3 6311   2.283   0.977   4.471 -0.4793  0.3570 -0.6420
 1636SOL    MW4 6312   2.232   0.923   4.515  0.2131  0.2705 -0.2105
 1637SOL     OW 6313   2.174   1.938   1.777  0.7435  0.5973 -0.3941
 1637SOL    HW2 6314   2.137   2.010   1.726 -0.2802  0.8725  0.6885
 1637SOL    HW3 6315   2.107   1.869   1.774  1.6092 -0.2510 -1.2228
 1637SOL    MW4 6316   2.160   1.938   1.770 -0.1196  0.5959 -0.3142
 1638SOL     OW 6317   1.509   3.377   3.772  0.1612 -0.1871 -0.1084
 1638SOL    HW2 6318   1.421   3.391   3.736  0.0051  1.7892  0.8927
 1638SOL    HW3 6319   1.540   3.296   3.731 -1.4773 -0.0451 -1.7117
 1638SOL    MW4 6320   1.501   3.368   3.762  0.0935 -0.0090  0.2627
 1639SOL     OW 6321   3.296   1.354   2.297 -0.1060 -0.2824  0.2549
 1639SOL    HW2 6322   3.385   1.340   2.329  0.7193  0.4142 -1.5498
 1639SOL    HW3 6323   3.263   1.428   2.348  2.3734  3.0013 -2.4053
 1639SOL    MW4 6324   3.303   1.362   2.308  0.4997 -0.4521  0.8448
 1640SOL     OW 6325   2.675   5.172   5.703 -0.4380 -0.2207  0.0546
 1640SOL    HW2 6326   2.639   5.089   5.672 -0.7080  0.5546 -1.8826
 1640SOL    HW3 6327   2.749   5.190   5.645  1.3166 -0.3525  2.1379
 1640SOL    MW4 6328   2.680   5.163   5.691  0.1464  0.2259 -0.2147
 1641SOL     OW 6329   4.889   5.184   1.855 -0.8279 -0.2910  0.3865
 1641SOL    HW2 6330   4.912   5.261   1.802  1.5363 -0.1709  1.4522
 1641SOL    HW3 6331   4.824   5.137   1.802 -2.4503  2.4531 -0.2440
 1641SOL    MW4 6332   4.884   5.188   1.841 -0.2717 -0.7845 -0.6458
 1642SOL     OW 6333   3.935   5.083   2.713  0.0649  0.0224  0.0305
 1642SOL    HW2 6334   3.936   5.085   2.617  1.5387  0.3992  0.0326
 1642SOL    HW3 6335   3.851   5.121   2.737  0.1763  1.0454 -1.1093
 1642SOL    MW4 6336   3.924   5.089   2.704 -0.1207  0.2473  0.8930
 1643SOL     OW 6337   0.692   3.396   4.813  0.4894  0.3032 -0.1287
 1643SOL    HW2 6338   0.663   3.382   4.903 -0.8258  2.4140 -0.1712
 1643SOL    HW3 6339   0.787   3.406   4.820  0.3019  1.4950  1.1977
 1643SOL    MW4 6340   0.701   3.395   4.826  0.5210 -0.6884 -0.5646
 1644SOL     OW 6341   2.765   3.269   4.905  0.0062  0.0804 -0.8062
 1644SOL    HW2 6342   2.721   3.219   4.837 -1.5817  0.4090 -0.0730
 1644SOL    HW3 6343   2.695   3.322   4.945  1.0764  0.6401  0.4017
 1644SOL    MW4 6344   2.750   3.269   4.901  0.4805  0.4117 -0.3684
 1645SOL     OW 6345   0.481   2.178   5.796  0.5813  0.3824 -0.1951
 1645SOL    HW2 6346   0.527   2.190   5.713 -0.3182 -0.0528 -0.7717
 1645SOL    HW3 6347   0.503   2.089   5.823  0.4255  0.3232 -0.2595
 1645SOL    MW4 6348   0.490   2.168   5.789 -0.6126 -0.1261  0.1792
 1646SOL     OW 6349   3.420   4.063   5.134 -0.1695 -1.0319 -0.2251
 1646SOL    HW2 6350   3.369   4.016   5.199 -0.8790 -0.6582 -0.5004
 1646SOL    HW3 6351   3.506   4.074   5.174 -0.6675 -0.5846  0.7490
 1646SOL    MW4 6352   3.425   4.058   5.148 -0.0387 -0.0999  0.4246
 1647SOL     OW 6353   0.050   3.895   1.914 -0.1040 -0.2534 -0.1250
 1647SOL    HW2 6354  -0.011   3.900   1.840  1.7526  0.8794 -1.6861
 1647SOL    HW3 6355   0.122   3.953   1.889  1.3208 -1.0323  1.9279
 1647SOL    MW4 6356   0.051   3.903   1.901 -0.2862  0.4664  0.2356
 1648SOL     OW 6357   4.026   3.640   5.370 -0.2959 -0.0623  0.1553
 1648SOL    HW2 6358   4.121   3.628   5.369 -0.1355  1.1259  0.1124
 1648SOL    HW3 6359   4.006   3.683   5.288 -0.9737 -0.8645 -0.1173
 1648SOL    MW4 6360   4.036   3.644   5.359 -0.3054 -0.2553  0.7183
 1649SOL     OW 6361   0.067   0.877   2.494 -0.0664 -0.2808 -0.4309
 1649SOL    HW2 6362   0.137   0.869   2.558 -0.3566  2.0646  0.2851
 1649SOL    HW3 6363   0.113   0.898   2.412  0.2475 -2.4543 -0.8697
 1649SOL    MW4 6364   0.083   0.879   2.491 -0.1878  0.4075 -0.1747
 1650SOL     OW 6365   3.278   6.346   4.425  0.0277  0.3624 -0.6067
 1650SOL    HW2 6366   3.345   6.282   4.446  0.2748  0.5721 -0.7496
 1650SOL    HW3 6367   3.281   6.355   4.330  0.2386  0.8454 -0.5597
 1650SOL    MW4 6368   3.287   6.339   4.415  0.5142  0.2680  0.5028
 1651SOL     OW 6369   5.604   4.435   1.648 -0.0473  0.1432 -0.4531
 1651SOL    HW2 6370   5.584   4.436   1.741  0.9265  0.8712 -0.2352
 1651SOL    HW3 6371   5.552   4.507   1.612 -0.0708  0.1565 -0.3929
 1651SOL    MW4 6372   5.594   4.445   1.655  0.3119 -0.5172  0.5314
 1652SOL     OW 6373   0.261   5.664   4.702  0.4154 -0.1485 -0.0030
 1652SOL    HW2 6374   0.328   5.636   4.639  0.8655 -0.8255  0.7530
 1652SOL    HW3 6375   0.185   5.609   4.682  0.6176 -0.4899  0.1622
 1652SOL    MW4 6376   0.260   5.653   4.691 -0.5007  0.0725 -0.3264
 1653SOL     OW 6377   3.180   4.870   1.971 -0.2467 -0.0775 -0.4755
 1653SOL    HW2 6378   3.177   4.937   2.039 -0.1028 -1.4120  0.9035
 1653SOL    HW3 6379   3.140   4.793   2.011  1.0444 -1.3006 -1.4250
 1653SOL    MW4 6380   3.174   4.869   1.985 -0.2178 -0.5950  0.7022
 1654SOL     OW 6381   1.473   1.427   5.688  0.2906  0.2460  0.1848
 1654SOL    HW2 6382   1.476   1.522   5.682  0.3752  0.2193 -0.2897
 1654SOL    HW3 6383   1.418   1.408   5.764  1.1291  0.6829  0.9142
 1654SOL    MW4 6384   1.466   1.437   5.697 -0.1777  0.1225 -0.1139
 1655SOL     OW 6385   2.982   4.378   6.081 -0.4050  0.1570  0.0082
 1655SOL    HW2 6386   2.887   4.372   6.085 -0.3426 -0.4881  0.6028
 1655SOL    HW3 6387   3.011   4.368   6.172  0.3148 -1.2221 -0.3482
 1655SOL    MW4 6388   2.973   4.376   6.094 -0.3810 -0.2961 -0.3793
 1656SOL     OW 6389   3.091   1.468   3.858  0.0082  0.1348 -0.3563
 1656SOL    HW2 6390   3.032   1.411   3.809 -0.5090 -0.8239  1.2806
 1656SOL    HW3 6391   3.035   1.509   3.924  0.6262  1.5826 -0.6777
 1656SOL    MW4 6392   3.076   1.466   3.860  0.8857  0.1671 -0.6117
 1657SOL     OW 6393   1.288   3.194   5.682  0.1732 -0.1203  0.0351
 1657SOL    HW2 6394   1.285   3.153   5.769  0.2248  0.3911  0.2793
 1657SOL    HW3 6395   1.364   3.154   5.640 -0.5586 -1.2710 -0.2342
 1657SOL    MW4 6396   1.298   3.183   5.688 -0.1051  0.2973 -0.0141
 1658SOL     OW 6397   0.674   3.051   1.613 -0.1614 -0.0150 -1.1048
 1658SOL    HW2 6398   0.715   3.057   1.527  2.1930  2.3486  0.0295
 1658SOL    HW3 6399   0.744   3.022   1.671 -1.2553  0.0152  0.2838
 1658SOL    MW4 6400   0.689   3.048   1.609 -0.2400  0.0543 -0.0207
 1659SOL     OW 6401   2.236   2.155   4.715  0.4791 -0.1396 -0.4693
 1659SOL    HW2 6402   2.194   2.081   4.671 -0.3385 -0.2838  0.5354
 1659SOL    HW3 6403   2.194   2.232   4.677  2.5947 -0.0292 -2.8703
 1659SOL    MW4 6404   2.225   2.155   4.704  0.7828 -0.0723 -0.0882
 1660SOL     OW 6405   4.108   3.849   4.873 -0.2337  0.1217  0.9725
 1660SOL    HW2 6406   4.039   3.898   4.828  0.3067 -0.2530 -0.3030
 1660SOL    HW3 6407   4.189   3.897   4.852  0.2128 -0.9153  0.2600
 1660SOL    MW4 6408   4.109   3.862   4.864 -0.6856  0.1528  0.3584
 1661SOL     OW 6409   4.814   3.847   0.956  0.3033  0.3653  0.1498
 1661SOL    HW2 6410   4.764   3.901   0.894 -0.9311 -0.3332  0.5108
 1661SOL    HW3 6411   4.904   3.854   0.926  0.1721  2.5300  0.1101
 1661SOL    MW4 6412   4.819   3.855   0.944  0.1544 -0.7584  0.3505
 1662SOL     OW 6413   5.973   2.578   2.595 -0.0314 -0.3645 -0.1057
 1662SOL    HW2 6414   5.959   2.668   2.567 -2.2697 -1.0246 -1.4113
 1662SOL    HW3 6415   5.936   2.574   2.683  0.9125  0.1758  0.3274
 1662SOL    MW4 6416   5.966   2.589   2.603  0.1489 -0.5356 -0.2596
 1663SOL     OW 6417   6.038   1.587   2.589  0.6631  0.3096 -0.0970
 1663SOL    HW2 6418   6.051   1.500   2.551  1.5809  0.5660 -0.3912
 1663SOL    HW3 6419   5.948   1.609   2.568  1.2794  0.6800 -2.6580
 1663SOL    MW4 6420   6.028   1.578   2.581 -0.4456  0.1419  0.2068
 1664SOL     OW 6421   1.592   2.677   3.623  0.1312  0.0624 -0.2055
 1664SOL    HW2 6422   1.503   2.673   3.589  0.5893 -0.4556 -1.4286
 1664SOL    HW3 6423   1.629   2.591   3.603  0.4372 -0.2981  1.6945
 1664SOL    MW4 6424   1.585   2.665   3.616 -0.3668 -0.2586  0.1161
 1665SOL     OW 6425   5.302   3.204   3.733 -0.6094 -0.2499  0.3122
 1665SOL    HW2 6426   5.305   3.138   3.803  1.1611  0.8298  1.3254
 1665SOL    HW3 6427   5.378   3.184   3.679 -0.0221  0.9475  0.6603
 1665SOL    MW4 6428   5.313   3.192   3.735  0.4353  0.2787 -0.1579
 1666SOL     OW 6429   3.272   4.973   0.258  0.2342  0.6067 -0.1178
 1666SOL    HW2 6430   3.205   5.033   0.290 -1.1975 -2.3056  3.0598
 1666SOL    HW3 6431   3.227   4.920   0.192  0.5025  0.9693 -0.5902
 1666SOL    MW4 6432   3.257   4.974   0.253 -0.4713 -0.7001 -0.0255
 1667SOL     OW 6433   2.024   0.309   0.269  0.3273 -0.3654 -0.4755
 1667SOL    HW2 6434   1.951   0.347   0.317  0.6240  0.1566 -0.4247
 1667SOL    HW3 6435   2.025   0.217   0.294  0.0897 -0.2312  0.0284
 1667SOL    MW4 6436   2.015   0.302   0.278  0.3695 -0.0707 -0.5640
 1668SOL     OW 6437   0.282   3.467   3.741 -0.2358  0.1362  0.0742
 1668SOL    HW2 6438   0.222   3.444   3.670 -0.6160  0.3819  0.3187
 1668SOL    HW3 6439   0.328   3.385   3.761 -1.9412 -0.5736  1.2830
 1668SOL    MW4 6440   0.280   3.453   3.734  0.1846  0.1942 -0.2655
 1669SOL     OW 6441   5.604   1.829   4.914 -0.3625 -0.3134 -0.1009
 1669SOL    HW2 6442   5.565   1.831   5.001 -0.3252 -0.6594 -0.0746
 1669SOL    HW3 6443   5.697   1.846   4.929 -0.4621  0.2624 -0.1383
 1669SOL    MW4 6444   5.612   1.831   4.927  0.0169 -0.1857 -0.4182
 1670SOL     OW 6445   1.623   0.805   3.702  0.1493  0.3252 -0.0652
 1670SOL    HW2 6446   1.563   0.758   3.644 -1.6895  1.9766  0.4146
 1670SOL    HW3 6447   1.580   0.803   3.787 -0.3941  3.3842 -0.1525
 1670SOL    MW4 6448   1.609   0.798   3.705 -0.3139  0.2896 -0.0672
 1671SOL     OW 6449   4.416   2.229   1.214 -0.0221 -0.2945  0.4365
 1671SOL    HW2 6450   4.453   2.250   1.128  0.6913 -0.2890  0.7389
 1671SOL    HW3 6451   4.489   2.194   1.264 -0.6927 -1.3837  0.6831
 1671SOL    MW4 6452   4.430   2.227   1.209  0.1609  0.0451  0.2105
 1672SOL     OW 6453   1.608   5.390   2.431 -0.4700 -0.0583 -0.5610
 1672SOL    HW2 6454   1.699   5.405   2.407 -0.3792  2.0921  0.8091
 1672SOL    HW3 6455   1.613   5.353   2.519 -0.8960  0.7521 -0.1820
 1672SOL    MW4 6456   1.620   5.387   2.440  0.3593 -0.5447  0.1013
 1673SOL     OW 6457   4.466   0.480   3.919 -0.1909  0.3017 -0.1386
 1673SOL    HW2 6458   4.521   0.557   3.931  1.2056 -0.8089  1.0964
 1673SOL    HW3 6459   4.504   0.434   3.845 -0.7497  0.5656 -0.5949
 1673SOL    MW4 6460   4.478   0.484   3.911 -0.4493  0.8405  0.3559
 1674SOL     OW 6461   1.859   1.783   5.926  0.3002 -0.9438 -0.7698
 1674SOL    HW2 6462   1.835   1.694   5.902  0.5446 -1.3063  0.2735
 1674SOL    HW3 6463   1.939   1.801   5.875 -0.1668 -1.0375 -1.5438
 1674SOL    MW4 6464   1.867   1.774   5.916 -0.3433 -0.0870  0.2276
 1675SOL     OW 6465   1.665   4.049   0.289  0.2648  0.0695 -0.6985
 1675SOL    HW2 6466   1.752   4.068   0.254 -0.3143 -0.4616 -2.5879
 1675SOL    HW3 6467   1.679   4.033   0.382  2.0359  0.9228 -0.7697
 1675SOL    MW4 6468   1.678   4.050   0.296 -0.1978 -0.4146  0.2752
 1676SOL     OW 6469   3.658   3.537   0.284 -0.3821 -0.1581 -0.4503
 1676SOL    HW2 6470   3.718   3.579   0.346  0.0908 -2.9061  1.1351
 1676SOL    HW3 6471   3.712   3.520   0.206  0.2874 -0.5402  0.0838
 1676SOL    MW4 6472   3.673   3.540   0.282 -0.1125  0.1767  0.2673
 1677SOL     OW 6473   2.250   2.929   5.937  0.4209 -0.1116  0.4052
 1677SOL    HW2 6474   2.326   2.898   5.987  0.6817 -0.0245  0.0684
 1677SOL    HW3 6475   2.178   2.930   6.000 -0.0611 -3.1665  0.0643
 1677SOL    MW4 6476   2.251   2.925   5.952  0.6683 -0.4402 -0.7868
 1678SOL     OW 6477   4.497   5.550   2.651 -0.1871 -0.5557 -0.1629
 1678SOL    HW2 6478   4.523   5.481   2.591 -1.7783 -1.1304 -0.2612
 1678SOL    HW3 6479   4.474   5.624   2.595  1.0058 -0.1113 -0.0863
 1678SOL    MW4 6480   4.497   5.551   2.636 -0.0613 -0.2174 -0.1586
 1679SOL     OW 6481   2.941   3.541   1.076  0.1338  0.2829  0.3804
 1679SOL    HW2 6482   2.978   3.624   1.105  3.7854 -1.5731  1.6222
 1679SOL    HW3 6483   3.014   3.479   1.079 -2.1917 -2.8497 -1.2478
 1679SOL    MW4 6484   2.955   3.544   1.080 -0.5918  1.0227  0.0442
 1680SOL     OW 6485   6.301   0.346   3.245  0.1372 -0.1071 -0.5279
 1680SOL    HW2 6486   6.372   0.330   3.183  0.5408 -2.8060  0.5051
 1680SOL    HW3 6487   6.274   0.259   3.274 -1.8863  0.9544  1.0425
 1680SOL    MW4 6488   6.307   0.332   3.241 -0.6110 -0.3315  0.3403
 1681SOL     OW 6489   2.827   4.028   3.643 -0.1792 -0.1118 -0.0820
 1681SOL    HW2 6490   2.909   4.057   3.603  0.3189  0.4218  1.2667
 1681SOL    HW3 6491   2.787   4.108   3.676 -1.9732 -0.1657 -1.9505
 1681SOL    MW4 6492   2.833   4.042   3.642  0.0965 -0.4457  0.3714
 1682SOL     OW 6493   0.726   5.687   1.265 -0.4643  0.4927 -0.1271
 1682SOL    HW2 6494   0.775   5.769   1.252 -0.2467 -0.0522 -3.5368
 1682SOL    HW3 6495   0.783   5.634   1.320  2.1831  0.4942 -2.6456
 1682SOL    MW4 6496   0.740   5.691   1.271  0.1219  0.2113  0.3528
 1683SOL     OW 6497   1.624   4.837   1.396  0.8120 -0.2825 -0.0683
 1683SOL    HW2 6498   1.590   4.762   1.445  2.3092 -2.0602 -1.6094
 1683SOL    HW3 6499   1.715   4.845   1.424  0.4749  1.5173  0.6455
 1683SOL    MW4 6500   1.631   4.828   1.406 -0.1145  0.6605 -0.1665
 1684SOL     OW 6501   2.945   6.416   2.356 -0.2899 -0.0397 -0.3190
 1684SOL    HW2 6502   3.034   6.386   2.336 -0.1045  0.3202 -0.0390
 1684SOL    HW3 6503   2.888   6.347   2.321  0.0484  0.2649 -1.5317
 1684SOL    MW4 6504   2.949   6.403   2.349  0.1764  0.3994 -0.3109
 1685SOL     OW 6505   2.637   2.437   2.883 -0.0354  0.2665 -0.0216
 1685SOL    HW2 6506   2.580   2.360   2.890 -2.2509  1.8710  1.1457
 1685SOL    HW3 6507   2.687   2.437   2.964  1.0023 -0.6272 -0.6275
 1685SOL    MW4 6508   2.636   2.427   2.895  0.2780 -0.6677 -0.0590
 1686SOL     OW 6509   1.883   1.749   2.483  0.3023  0.0992 -0.1780
 1686SOL    HW2 6510   1.907   1.682   2.419 -0.4202 -0.5535  0.2151
 1686SOL    HW3 6511   1.847   1.821   2.430 -0.0034 -0.3066 -0.5274
 1686SOL    MW4 6512   1.881   1.750   2.468  0.1016 -0.0735  0.1295
 1687SOL     OW 6513   0.186   5.720   6.365  0.4707  0.0216  0.0349
 1687SOL    HW2 6514   0.177   5.774   6.444 -2.1173  0.1107 -0.2311
 1687SOL    HW3 6515   0.228   5.640   6.395 -1.4865 -0.4191  1.7990
 1687SOL    MW4 6516   0.190   5.717   6.379  0.1857 -0.1419 -1.2816
 1688SOL     OW 6517   1.318   2.420   6.303 -0.5213 -0.0356 -0.5701
 1688SOL    HW2 6518   1.346   2.500   6.257 -0.2775 -0.5627 -1.3540
 1688SOL    HW3 6519   1.395   2.364   6.303 -0.1410  0.4091  1.5688
 1688SOL    MW4 6520   1.332   2.423   6.297 -0.3446 -0.1745 -0.1064
 1689SOL     OW 6521   5.534   3.620   3.148 -0.0085  0.1105 -0.1627
 1689SOL    HW2 6522   5.444   3.588   3.152  0.3303 -0.8354  0.1492
 1689SOL    HW3 6523   5.525   3.715   3.141 -1.0613 -0.0834 -1.9688
 1689SOL    MW4 6524   5.521   3.628   3.148  0.0373  0.4253  0.2828
 1690SOL     OW 6525   2.178   6.137   4.548 -0.3156 -0.2281 -0.1346
 1690SOL    HW2 6526   2.238   6.173   4.614  1.3615  0.2022 -1.7968
 1690SOL    HW3 6527   2.193   6.191   4.470 -2.2308 -0.7251 -0.9059
 1690SOL    MW4 6528   2.188   6.149   4.546 -0.3801  0.0926 -0.0547
 1691SOL     OW 6529   1.334   2.777   0.729 -0.2438 -0.2320 -0.0380
 1691SOL    HW2 6530   1.286   2.710   0.679  0.7581 -0.7885 -0.2687
 1691SOL    HW3 6531   1.295   2.772   0.817  1.0376 -2.4549  0.4815
 1691SOL    MW4 6532   1.322   2.767   0.734 -0.3912  0.0739  0.3956
 1692SOL     OW 6533   2.008   2.775   4.619  0.6497 -0.0027 -0.0566
 1692SOL    HW2 6534   2.074   2.799   4.554  0.7209  0.2987  0.1263
 1692SOL    HW3 6535   1.942   2.844   4.614  1.1841  0.5949  0.9327
 1692SOL    MW4 6536   2.008   2.787   4.610 -0.3645 -0.2959 -0.2896
 1693SOL     OW 6537   2.134   5.055   3.209  0.3685  0.0235 -0.1989
 1693SOL    HW2 6538   2.173   5.102   3.282  0.2366  0.5871 -0.4857
 1693SOL    HW3 6539   2.125   5.121   3.140 -1.3171 -0.0082 -0.0605
 1693SOL    MW4 6540   2.138   5.070   3.210  0.6730  0.5301 -0.3111
 1694SOL     OW 6541   4.388   6.286   0.514 -0.4316  0.2634 -0.5562
 1694SOL    HW2 6542   4.387   6.377   0.541  0.5482  0.4968 -1.2712
 1694SOL    HW3 6543   4.299   6.255   0.529 -0.3156  0.7896  1.4893
 1694SOL    MW4 6544   4.376   6.294   0.520 -0.1848 -0.3359 -0.0840
 1695SOL     OW 6545   6.382   2.773   0.819  0.2168  0.1534  0.2798
 1695SOL    HW2 6546   6.418   2.842   0.874  0.2684  0.1835  0.2097
 1695SOL    HW3 6547   6.307   2.741   0.867  1.4879 -1.2994  1.4020
 1695SOL    MW4 6548   6.377   2.778   0.832  0.0160 -0.3562  0.0868
 1696SOL     OW 6549   5.690   3.901   0.132 -0.6919  0.2841 -0.1361
 1696SOL    HW2 6550   5.662   3.832   0.072 -1.9718 -3.0222  3.7540
 1696SOL    HW3 6551   5.784   3.911   0.116 -0.9968 -0.3214 -2.6524
 1696SOL    MW4 6552   5.699   3.893   0.122 -0.3751  0.0940  0.4118
 1697SOL     OW 6553   0.892   4.055   5.216 -0.2075  0.2883  0.0415
 1697SOL    HW2 6554   0.969   4.039   5.270 -1.0038  1.5154  1.6273
 1697SOL    HW3 6555   0.821   4.073   5.279 -1.2098  1.6506 -1.3851
 1697SOL    MW4 6556   0.892   4.055   5.231 -0.4218  0.2547 -0.2246
 1698SOL     OW 6557   3.598   3.877   0.566 -0.0754  0.1168 -0.6253
 1698SOL    HW2 6558   3.523   3.896   0.511 -0.3857 -1.1668 -0.6713
 1698SOL    HW3 6559   3.671   3.867   0.505 -0.3608 -1.0121 -0.8024
 1698SOL    MW4 6560   3.598   3.879   0.551  0.4857 -0.2134 -0.3025
 1699SOL     OW 6561   5.691   5.221   0.727 -0.0883 -0.1721  0.1584
 1699SOL    HW2 6562   5.740   5.193   0.649 -1.0437  1.4761 -1.1091
 1699SOL    HW3 6563   5.602   5.190   0.710 -0.2869  0.1385  0.6358
 1699SOL    MW4 6564   5.686   5.213   0.714 -0.8784 -0.0018  0.3586
 1700SOL     OW 6565   6.055   2.980   3.882 -0.5258  0.4446  0.3268
 1700SOL    HW2 6566   6.113   2.956   3.809 -0.8734  2.0457 -0.5425
 1700SOL    HW3 6567   6.023   2.897   3.916  0.3020 -0.3787 -0.8246
 1700SOL    MW4 6568   6.058   2.966   3.877 -0.2079 -0.4347  0.0232
 1701SOL     OW 6569   1.820   3.975   3.783 -0.3330 -0.1678  0.1479
 1701SOL    HW2 6570   1.772   3.940   3.858  1.0125 -1.3617  0.5147
 1701SOL    HW3 6571   1.827   3.900   3.723  2.0420 -0.4300  0.6433
 1701SOL    MW4 6572   1.815   3.960   3.785  0.0481 -0.1624  0.1863
 1702SOL     OW 6573   0.993   4.083   2.486 -0.1600 -0.0055  0.2281
 1702SOL    HW2 6574   1.013   4.172   2.456  1.6955 -0.4093  0.1731
 1702SOL    HW3 6575   0.926   4.095   2.553  1.9562  1.7496  2.2049
 1702SOL    MW4 6576   0.987   4.096   2.491 -0.0597  0.0418 -0.0666
 1703SOL     OW 6577   1.950   3.282   5.898 -0.6718 -0.0980 -0.0668
 1703SOL    HW2 6578   2.019   3.348   5.896  0.3324 -1.1245 -0.4154
 1703SOL    HW3 6579   1.911   3.291   5.985  0.8404 -0.4295  0.6668
 1703SOL    MW4 6580   1.954   3.292   5.909 -0.4424 -0.2059  0.3070
 1704SOL     OW 6581   2.678   4.131   0.853 -0.0025 -0.0928  0.5129
 1704SOL    HW2 6582   2.698   4.049   0.898 -1.8308 -2.1361 -2.1169
 1704SOL    HW3 6583   2.754   4.146   0.795 -1.0967 -1.9196 -1.5215
 1704SOL    MW4 6584   2.691   4.122   0.851  0.0827  0.6281  0.0340
 1705SOL     OW 6585   2.685   4.410   1.244 -0.1401  0.2756  0.4990
 1705SOL    HW2 6586   2.659   4.502   1.235  0.4601  0.5381  1.3344
 1705SOL    HW3 6587   2.619   4.362   1.194  0.8854  1.3270 -2.0310
 1705SOL    MW4 6588   2.673   4.416   1.236 -1.3123  0.6916  0.8232
 1706SOL     OW 6589   6.288   4.981   5.985  0.1793  0.7050  0.0379
 1706SOL    HW2 6590   6.215   5.012   6.039 -0.6825 -1.1655  0.0180
 1706SOL    HW3 6591   6.260   4.998   5.895 -0.7476 -0.9262 -0.0251
 1706SOL    MW4 6592   6.275   4.987   5.980  0.3616  0.3763  0.2305
 1707SOL     OW 6593   1.880   0.648   3.321 -0.6271  0.0315 -0.0501
 1707SOL    HW2 6594   1.891   0.647   3.416 -0.1684 -2.8099 -0.0363
 1707SOL    HW3 6595   1.785   0.650   3.308 -0.6860  1.7362  0.3833
 1707SOL    MW4 6596   1.869   0.648   3.332 -0.2470  0.1379  0.4582
 1708SOL     OW 6597   1.568   2.234   6.296 -0.0983  0.1087  0.1543
 1708SOL    HW2 6598   1.654   2.258   6.331 -0.3769  1.6492 -0.1597
 1708SOL    HW3 6599   1.583   2.219   6.203  0.1645 -1.5106  0.4283
 1708SOL    MW4 6600   1.581   2.235   6.288  0.1764 -0.0183 -0.0019
 1709SOL     OW 6601   1.269   5.054   4.034 -0.6385 -0.0942 -0.0878
 1709SOL    HW2 6602   1.318   5.081   3.956 -1.3754 -1.3660 -1.0171
 1709SOL    HW3 6603   1.251   5.136   4.080  1.0963  0.5479 -0.4588
 1709SOL    MW4 6604   1.273   5.068   4.030 -0.4388  0.0886  0.1028
 1710SOL     OW 6605   5.993   5.610   4.593 -0.0181 -0.2763  0.1720
 1710SOL    HW2 6606   5.933   5.663   4.645 -2.7719 -2.7930 -0.2259
 1710SOL    HW3 6607   5.971   5.631   4.502  0.8139 -0.1009  0.0028
 1710SOL    MW4 6608   5.982   5.620   4.588  0.0154  0.1885  0.4652
 1711SOL     OW 6609   1.829   0.474   6.196  0.4115 -0.1577 -0.1143
 1711SOL    HW2 6610   1.740   0.491   6.225 -0.1176 -1.4399 -0.9065
 1711SOL    HW3 6611   1.838   0.379   6.200  1.7270 -0.0600 -0.1126
 1711SOL    MW4 6612   1.819   0.464   6.200 -0.7096  0.4262  0.1971
 1712SOL     OW 6613   1.902   0.053   4.043 -0.3076 -0.3300  0.6547
 1712SOL    HW2 6614   1.965  -0.016   4.024  0.3749  0.4675 -0.1175
 1712SOL    HW3 6615   1.927   0.087   4.128  2.4301  2.1076 -0.9247
 1712SOL    MW4 6616   1.914   0.049   4.052 -0.1016 -0.2572  0.1453
 1713SOL     OW 6617   1.982   3.061   1.061  0.0247  0.5309 -0.4122
 1713SOL    HW2 6618   1.970   3.155   1.074  0.9168  0.4892  0.8542
 1713SOL    HW3 6619   2.013   3.028   1.145 -0.6977 -0.9850 -0.7062
 1713SOL    MW4 6620   1.985   3.069   1.074 -0.2506  0.0954  0.7793
 1714SOL     OW 6621   4.591   1.945   3.872 -0.0353 -0.0839  0.0053
 1714SOL    HW2 6622   4.600   2.031   3.830 -1.4655  0.3552  0.5465
 1714SOL    HW3 6623   4.662   1.893   3.835  0.9627  1.3730 -0.2169
 1714SOL    MW4 6624   4.601   1.949   3.861  0.4401  0.3229  0.4052
 1715SOL     OW 6625   3.150   1.227   5.207  0.3284 -0.2258  0.2314
 1715SOL    HW2 6626   3.179   1.206   5.118  0.3524  0.7871 -0.0129
 1715SOL    HW3 6627   3.215   1.291   5.238  0.3540 -0.6207  1.0041
 1715SOL    MW4 6628   3.163   1.233   5.199 -0.3288  0.0519  0.3349
 1716SOL     OW 6629   5.536   0.990   4.909 -0.0326 -0.5000 -0.6928
 1716SOL    HW2 6630   5.541   0.900   4.943 -0.7398 -0.6428 -0.9560
 1716SOL    HW3 6631   5.500   0.980   4.821  1.6762 -0.1221 -1.4900
 1716SOL    MW4 6632   5.532   0.976   4.902  0.2818  0.6335 -0.2980
 1717SOL     OW 6633   1.714   1.202   6.147 -0.0049 -0.6409  0.3386
 1717SOL    HW2 6634   1.682   1.120   6.109  0.6430 -0.4429 -0.6649
 1717SOL    HW3 6635   1.693   1.268   6.081 -1.3809  0.1829  1.5384
 1717SOL    MW4 6636   1.707   1.200   6.133  0.1073  1.4274  0.2767
 1718SOL     OW 6637   2.783   4.097   2.710 -0.3831  0.0889  0.1582
 1718SOL    HW2 6638   2.858   4.148   2.680  0.1232  0.5102  2.0004
 1718SOL    HW3 6639   2.716   4.110   2.642  0.2671  1.9459 -0.1727
 1718SOL    MW4 6640   2.784   4.105   2.697  0.1714 -0.1074  0.8575
 1719SOL     OW 6641   5.394   6.173   1.292 -0.0164 -0.3876  0.3371
 1719SOL    HW2 6642   5.431   6.104   1.347  1.7145  0.5013  0.3577
 1719SOL    HW3 6643   5.358   6.127   1.216  0.7056 -1.3446  0.5567
 1719SOL    MW4 6644   5.394   6.158   1.289  0.1463  0.7843  0.0744
 1720SOL     OW 6645   4.900   2.360   1.137  0.0421 -0.6515  0.1037
 1720SOL    HW2 6646   4.832   2.427   1.130  0.0803 -0.5790  0.4351
 1720SOL    HW3 6647   4.898   2.316   1.052 -0.1960 -0.4365 -0.0049
 1720SOL    MW4 6648   4.891   2.363   1.124  0.2363 -0.1629  0.2664
 1721SOL     OW 6649   5.013   2.774   1.379 -0.4342 -0.0199  0.2950
 1721SOL    HW2 6650   5.000   2.697   1.435 -1.5783 -0.7855 -0.9734
 1721SOL    HW3 6651   4.973   2.846   1.429 -3.2790 -1.0509 -0.3272
 1721SOL    MW4 6652   5.006   2.773   1.393 -0.3081 -0.1895 -0.2670
 1722SOL     OW 6653   3.092   2.412   4.134 -0.3869  0.0967 -0.1083
 1722SOL    HW2 6654   3.145   2.378   4.206 -0.3989 -0.6414 -0.4426
 1722SOL    HW3 6655   3.112   2.355   4.060  1.0235  1.9215 -1.2185
 1722SOL    MW4 6656   3.102   2.400   4.134 -0.0469 -0.1019  0.0549
 1723SOL     OW 6657   1.519   0.045   5.375  0.1432  0.0046 -0.8747
 1723SOL    HW2 6658   1.512   0.067   5.468 -1.7512  0.1147 -0.9942
 1723SOL    HW3 6659   1.607   0.072   5.351  0.4815  0.5033  0.7594
 1723SOL    MW4 6660   1.530   0.052   5.384  0.0499  0.4463 -0.1208
 1724SOL     OW 6661   0.544   0.794   0.216 -0.1424  0.2781 -0.9041
 1724SOL    HW2 6662   0.608   0.850   0.172  0.1182  0.6118 -0.1174
 1724SOL    HW3 6663   0.466   0.798   0.160  0.4865 -0.0800 -1.8389
 1724SOL    MW4 6664   0.542   0.802   0.203  0.1081  0.0310  0.4324
 1725SOL     OW 6665   2.216   3.881   4.534  0.0544 -0.2600  0.6272
 1725SOL    HW2 6666   2.276   3.859   4.605  1.2572  0.4091 -0.1472
 1725SOL    HW3 6667   2.130   3.855   4.566  0.6528 -0.5303  2.0782
 1725SOL    MW4 6668   2.213   3.875   4.548 -0.1147  0.0719  0.1485
 1726SOL     OW 6669   4.532   4.308   2.492 -0.2495  0.4358  0.6257
 1726SOL    HW2 6670   4.592   4.290   2.564 -1.0097  0.9899  1.4179
 1726SOL    HW3 6671   4.552   4.398   2.466  1.0668 -0.2474 -0.9107
 1726SOL    MW4 6672   4.542   4.317   2.498 -0.3246  0.6028  0.1505
 1727SOL     OW 6673   5.527   1.092   2.100  0.2198 -0.0907 -0.4494
 1727SOL    HW2 6674   5.586   1.066   2.030  1.0335  0.8940 -0.1592
 1727SOL    HW3 6675   5.567   1.056   2.180  0.3273  0.4026 -0.2768
 1727SOL    MW4 6676   5.540   1.084   2.102  0.0959 -0.1248 -0.1403
 1728SOL     OW 6677   5.393   5.383   1.261  0.6516 -0.2716  0.4456
 1728SOL    HW2 6678   5.457   5.384   1.191  1.1851 -0.0416  0.9326
 1728SOL    HW3 6679   5.309   5.370   1.217  0.6338  2.5026 -0.5216
 1728SOL    MW4 6680   5.390   5.382   1.246  0.0137  0.6708 -0.0441
 1729SOL     OW 6681   5.511   5.347   0.377 -0.3158  0.1296  0.1996
 1729SOL    HW2 6682   5.513   5.415   0.445 -0.8362 -0.6250  0.9847
 1729SOL    HW3 6683   5.596   5.305   0.382 -0.4464 -0.0937  0.5605
 1729SOL    MW4 6684   5.522   5.351   0.387 -0.3695 -0.2582  0.5624
 1730SOL     OW 6685   3.001   4.796   3.766  0.1973 -0.9512  0.3819
 1730SOL    HW2 6686   2.987   4.887   3.741  0.8580 -1.1109 -0.6411
 1730SOL    HW3 6687   2.920   4.751   3.741  0.8621 -1.1198 -1.6543
 1730SOL    MW4 6688   2.988   4.802   3.760  0.3236  0.2183  1.0196
 1731SOL     OW 6689   2.409   5.888   5.658 -0.6094 -0.2063 -0.4079
 1731SOL    HW2 6690   2.395   5.808   5.708  1.6305  0.5634  1.6274
 1731SOL    HW3 6691   2.430   5.955   5.723  0.9153  1.2451 -2.2563
 1731SOL    MW4 6692   2.410   5.887   5.673 -0.0173 -0.0263  0.1493
 1732SOL     OW 6693   0.728   3.050   0.237  0.2719  0.2255  0.4011
 1732SOL    HW2 6694   0.750   2.971   0.188 -0.5365 -0.6086  1.3320
 1732SOL    HW3 6695   0.633   3.056   0.232  0.2569  0.6727  1.0219
 1732SOL    MW4 6696   0.718   3.040   0.230  0.2367 -0.1170  0.4445
 1733SOL     OW 6697   6.097   5.874   1.949  0.8652 -0.3591 -0.5068
 1733SOL    HW2 6698   6.003   5.861   1.958  0.8488  1.1163  2.8104
 1733SOL    HW3 6699   6.134   5.786   1.947 -0.3886 -1.0453  2.1154
 1733SOL    MW4 6700   6.089   5.861   1.950  0.1072 -0.2762 -0.5747
 1734SOL     OW 6701   1.783   5.895   3.363  0.0539  0.1402  0.0247
 1734SOL    HW2 6702   1.828   5.860   3.440  0.1097 -1.5527 -0.7211
 1734SOL    HW3 6703   1.736   5.972   3.395 -0.5124 -0.9292  1.9222
 1734SOL    MW4 6704   1.783   5.900   3.377 -0.5736 -0.0646 -0.3678
 1735SOL     OW 6705   0.803   6.047   3.261  0.1665  0.4273  0.2651
 1735SOL    HW2 6706   0.763   6.079   3.342  0.1212  1.4840 -0.1605
 1735SOL    HW3 6707   0.733   6.053   3.196  0.5920  0.9166 -0.1592
 1735SOL    MW4 6708   0.788   6.052   3.263  0.2390  0.0452 -0.1416
 1736SOL     OW 6709   0.590   5.122   5.731  0.1728  0.3776  0.1980
 1736SOL    HW2 6710   0.527   5.061   5.768  0.8515 -0.4798 -0.0348
 1736SOL    HW3 6711   0.604   5.091   5.641 -0.1170  1.3836 -0.2059
 1736SOL    MW4 6712   0.584   5.110   5.724 -0.0252  0.3461  0.2520
 1737SOL     OW 6713   1.242   5.443   1.685  0.5708 -0.1073 -0.4609
 1737SOL    HW2 6714   1.289   5.515   1.642 -0.4196  1.0381  0.2745
 1737SOL    HW3 6715   1.265   5.365   1.635  1.0443  0.8523 -1.7973
 1737SOL    MW4 6716   1.251   5.443   1.673  0.3334  0.2251 -0.3325
 1738SOL     OW 6717   1.363   2.452   3.218  0.1918 -0.0871  0.5482
 1738SOL    HW2 6718   1.440   2.421   3.265 -0.9783 -0.6787  2.1527
 1738SOL    HW3 6719   1.292   2.395   3.247 -0.7886  0.2012 -1.1762
 1738SOL    MW4 6720   1.364   2.441   3.228 -0.2158  0.3607  0.2032
 1739SOL     OW 6721   0.638   0.923   5.328 -0.1718  0.3351  0.6397
 1739SOL    HW2 6722   0.685   0.990   5.278 -0.1367  0.1938  0.4840
 1739SOL    HW3 6723   0.627   0.850   5.267 -1.6896  0.8372  0.2612
 1739SOL    MW4 6724   0.643   0.922   5.313  0.0591  0.0992 -0.4358
 1740SOL     OW 6725   1.655   4.816   6.173  0.1615  0.3721 -0.1680
 1740SOL    HW2 6726   1.723   4.790   6.235 -0.7823  0.3262  0.8840
 1740SOL    HW3 6727   1.701   4.867   6.106  1.0422  1.4047  1.1801
 1740SOL    MW4 6728   1.670   4.819   6.172  0.2905  0.4433 -0.0090
 1741SOL     OW 6729   0.078   2.610   2.561 -0.6981 -0.0704 -0.1219
 1741SOL    HW2 6730  -0.001   2.564   2.588  0.2703 -1.2767  0.8111
 1741SOL    HW3 6731   0.121   2.550   2.500 -0.6208  0.6875 -0.8254
 1741SOL    MW4 6732   0.073   2.596   2.557 -0.2540  0.7090 -0.3428
 1742SOL     OW 6733   5.918   2.049   2.441  0.1983 -0.4771  0.3438
 1742SOL    HW2 6734   5.929   2.135   2.480 -2.3350 -0.5664  1.4412
 1742SOL    HW3 6735   5.919   1.988   2.515  0.7019 -1.2557 -0.2850
 1742SOL    MW4 6736   5.919   2.052   2.456 -0.2641  0.6517  0.3072
 1743SOL     OW 6737   1.192   0.574   4.207  0.0888  0.0666 -0.0366
 1743SOL    HW2 6738   1.135   0.625   4.263  1.0824  2.4021 -1.0349
 1743SOL    HW3 6739   1.221   0.501   4.262 -1.0764  0.7572  1.5641
 1743SOL    MW4 6740   1.188   0.571   4.221  0.4173  0.5201 -0.1706
 1744SOL     OW 6741   0.381   2.262   1.470 -0.6287 -0.2188 -0.3686
 1744SOL    HW2 6742   0.339   2.329   1.524 -1.9039 -0.8308 -0.5655
 1744SOL    HW3 6743   0.319   2.190   1.469  1.8998 -2.7064  2.2919
 1744SOL    MW4 6744   0.367   2.262   1.477  0.2339  0.0902  0.5677
 1745SOL     OW 6745   1.910   3.044   4.589  0.1281 -0.5527  0.6501
 1745SOL    HW2 6746   1.932   3.122   4.539 -0.9937 -0.5003  0.1976
 1745SOL    HW3 6747   1.916   3.071   4.680 -0.1643  0.0473  0.4989
 1745SOL    MW4 6748   1.913   3.058   4.594  0.0290  0.7566  0.0399
 1746SOL     OW 6749   5.674   0.249   6.107 -0.0643  0.5769 -0.3984
 1746SOL    HW2 6750   5.708   0.264   6.019  0.9263 -0.6218 -0.2450
 1746SOL    HW3 6751   5.635   0.161   6.103 -0.0752  0.5412  0.3456
 1746SOL    MW4 6752   5.673   0.239   6.095 -0.2523  0.4406  0.7224
 1747SOL     OW 6753   1.289   2.524   4.205 -0.4145 -1.0277 -0.2096
 1747SOL    HW2 6754   1.366   2.562   4.162 -0.8294 -0.1474 -0.1976
 1747SOL    HW3 6755   1.276   2.441   4.161  0.8036 -1.3955  0.0790
 1747SOL    MW4 6756   1.297   2.518   4.194 -0.3913  0.6470  0.1440
 1748SOL     OW 6757   3.953   5.549   2.857  0.4780  0.0448  0.3119
 1748SOL    HW2 6758   3.915   5.502   2.783 -0.9611  0.5517  0.6902
 1748SOL    HW3 6759   4.048   5.536   2.848  0.2113 -4.5080  1.4029
 1748SOL    MW4 6760   3.961   5.541   2.846  0.0178 -0.0444  0.2997
 1749SOL     OW 6761   3.387   4.889   2.812 -0.1830  0.3619 -0.0361
 1749SOL    HW2 6762   3.308   4.872   2.761  1.2216 -1.5659 -1.7371
 1749SOL    HW3 6763   3.390   4.818   2.876  1.0529 -0.7409 -1.2284
 1749SOL    MW4 6764   3.377   4.877   2.814  0.7964 -0.3246 -0.3970
 1750SOL     OW 6765   1.426   5.947   5.079 -0.0897  0.1955  0.9756
 1750SOL    HW2 6766   1.478   6.007   5.025 -1.1068 -0.0387 -0.3081
 1750SOL    HW3 6767   1.399   5.878   5.019 -0.0648 -0.8444  2.1349
 1750SOL    MW4 6768   1.429   5.946   5.064  0.0239  0.8379  0.7064
 1751SOL     OW 6769   5.451   1.753   4.507  0.0578  0.3870 -0.5180
 1751SOL    HW2 6770   5.356   1.758   4.502  0.0949  0.8796 -0.7461
 1751SOL    HW3 6771   5.480   1.842   4.525  0.5102  0.3712 -1.1111
 1751SOL    MW4 6772   5.442   1.765   4.508 -0.0852 -0.1442  0.1038
 1752SOL     OW 6773   5.613   5.271   5.452  0.9656 -0.1346  0.1677
 1752SOL    HW2 6774   5.659   5.188   5.468  0.5748 -0.0671  1.8330
 1752SOL    HW3 6775   5.536   5.246   5.402  1.4517 -0.6073 -0.3700
 1752SOL    MW4 6776   5.609   5.257   5.448  0.3917  0.1004  0.3112
 1753SOL     OW 6777   3.605   4.874   1.336 -0.4072 -0.0189  0.5091
 1753SOL    HW2 6778   3.661   4.797   1.325  0.3812  0.5471  0.4808
 1753SOL    HW3 6779   3.649   4.927   1.403 -0.1001  1.1597 -0.5996
 1753SOL    MW4 6780   3.618   4.871   1.344 -0.0697  0.3578  0.5166
 1754SOL     OW 6781   1.754   5.391   1.705  0.3979 -0.6218 -0.1829
 1754SOL    HW2 6782   1.843   5.369   1.732  0.1397 -0.4600  0.8254
 1754SOL    HW3 6783   1.703   5.313   1.725 -0.3103  0.3994  2.3861
 1754SOL    MW4 6784   1.759   5.378   1.711  0.1288  0.2491 -0.1776
 1755SOL     OW 6785   3.417   6.211   0.183  0.0827 -0.7182 -0.1475
 1755SOL    HW2 6786   3.439   6.174   0.269  1.0245  0.0069 -0.0680
 1755SOL    HW3 6787   3.358   6.283   0.203  0.8676 -0.0953 -0.0436
 1755SOL    MW4 6788   3.412   6.215   0.197  0.0619 -0.2597  0.3374
 1756SOL     OW 6789   0.722   1.346   1.038  0.0263 -0.0525 -0.0244
 1756SOL    HW2 6790   0.727   1.281   1.109  1.5580 -0.1414 -0.1747
 1756SOL    HW3 6791   0.676   1.301   0.968 -0.2093 -0.4762  0.3941
 1756SOL    MW4 6792   0.717   1.332   1.038  0.0310  0.3593  0.1331
 1757SOL     OW 6793   0.031   5.134   3.357 -0.4471 -0.1233  0.0737
 1757SOL    HW2 6794  -0.064   5.122   3.348 -0.5620 -0.1774  1.2429
 1757SOL    HW3 6795   0.055   5.081   3.433  0.8876 -1.8441 -1.4549
 1757SOL    MW4 6796   0.022   5.125   3.366  0.5213 -0.4896  0.3763
 1758SOL     OW 6797   5.678   2.272   4.872 -0.1890  0.2521 -0.3114
 1758SOL    HW2 6798   5.714   2.355   4.901 -0.8311  0.2087  0.6499
 1758SOL    HW3 6799   5.584   2.280   4.885 -0.3621 -0.2713 -1.1463
 1758SOL    MW4 6800   5.671   2.284   4.878 -0.0227 -0.2328 -0.2164
 1759SOL     OW 6801   4.687   3.805   6.436 -0.7172  0.5066 -0.0733
 1759SOL    HW2 6802   4.745   3.877   6.410 -0.3320  0.6966  1.2564
 1759SOL    HW3 6803   4.728   3.727   6.398  1.0918  0.4819  1.7592
 1759SOL    MW4 6804   4.700   3.804   6.427  0.4384  0.1372 -0.6642
 1760SOL     OW 6805   3.343   1.631   3.887 -0.1374 -0.5961 -0.1054
 1760SOL    HW2 6806   3.248   1.617   3.877  0.0704 -1.7332 -0.6508
 1760SOL    HW3 6807   3.366   1.578   3.963  0.1791 -0.8729 -0.3953
 1760SOL    MW4 6808   3.333   1.622   3.896  0.0714  0.4507 -0.5383
 1761SOL     OW 6809   2.700   4.378   1.732  0.3085  0.3815 -0.7736
 1761SOL    HW2 6810   2.680   4.452   1.676 -2.7138 -0.1339 -0.5183
 1761SOL    HW3 6811   2.697   4.413   1.821 -1.0740  0.0012 -0.6553
 1761SOL    MW4 6812   2.697   4.392   1.736  0.9359 -0.1987  0.3309
 1762SOL     OW 6813   0.678   6.327   0.869 -0.3298  0.1556  0.8559
 1762SOL    HW2 6814   0.604   6.345   0.811  1.2641  0.3736 -1.2535
 1762SOL    HW3 6815   0.701   6.412   0.906  0.4317  0.5780 -0.5261
 1762SOL    MW4 6816   0.672   6.341   0.866 -0.3885  0.0246  0.1440
 1763SOL     OW 6817   0.527   0.724   4.100  0.0195 -0.0577  0.4220
 1763SOL    HW2 6818   0.550   0.733   4.007 -0.3749  1.5325  0.4526
 1763SOL    HW3 6819   0.537   0.630   4.118 -2.5820 -0.9526 -1.9534
 1763SOL    MW4 6820   0.531   0.712   4.090 -0.5282  0.1297 -0.8099
 1764SOL     OW 6821   0.309   4.279   0.318  0.6121  0.4374  0.0706
 1764SOL    HW2 6822   0.266   4.322   0.392  0.6341 -0.2353  0.4833
 1764SOL    HW3 6823   0.292   4.337   0.243 -2.0011 -0.3175 -0.0254
 1764SOL    MW4 6824   0.301   4.292   0.318 -0.4123  0.1982  0.4336
 1765SOL     OW 6825   2.212   3.747   3.868  0.0873 -0.5123  0.3365
 1765SOL    HW2 6826   2.125   3.720   3.897  0.6776 -1.0851  1.6803
 1765SOL    HW3 6827   2.242   3.809   3.934  0.0111  1.1241 -1.0839
 1765SOL    MW4 6828   2.205   3.751   3.880 -0.0976  0.0450  0.2366
 1766SOL     OW 6829   6.300   2.370   0.118  0.5086 -0.4171 -0.3781
 1766SOL    HW2 6830   6.299   2.462   0.145  2.8655 -0.7494  1.0135
 1766SOL    HW3 6831   6.290   2.374   0.023  0.0606  1.2431 -0.2965
 1766SOL    MW4 6832   6.298   2.383   0.109 -0.4203  0.6296  0.1922
 1767SOL     OW 6833   6.087   5.695   2.390 -0.6681 -0.0495  0.1204
 1767SOL    HW2 6834   6.107   5.666   2.479  0.7633  2.0545  0.5585
 1767SOL    HW3 6835   6.118   5.624   2.334  0.9325 -0.2503  1.2145
 1767SOL    MW4 6836   6.094   5.682   2.394 -0.0963 -0.3791 -0.3551
 1768SOL     OW 6837   3.720   2.522   5.713 -0.2073 -0.1036 -0.2246
 1768SOL    HW2 6838   3.691   2.432   5.728  1.4556 -0.6583 -0.1476
 1768SOL    HW3 6839   3.706   2.565   5.797  1.3428 -0.9863  0.5189
 1768SOL    MW4 6840   3.714   2.516   5.726 -0.1835  0.2143 -0.1271
 1769SOL     OW 6841   6.086   4.209   1.751  0.0603  0.1547  0.2897
 1769SOL    HW2 6842   6.017   4.274   1.762  0.1571  0.1365  1.0184
 1769SOL    HW3 6843   6.101   4.206   1.656  0.1141  1.2547  0.2496
 1769SOL    MW4 6844   6.079   4.217   1.740 -0.3963 -0.0317  0.1817
 1770SOL     OW 6845   4.299   2.401   2.685  0.2389 -0.0826  0.0730
 1770SOL    HW2 6846   4.354   2.472   2.653 -1.2295  0.5912 -1.1092
 1770SOL    HW3 6847   4.341   2.371   2.766  0.6487  2.4112  0.8458
 1770SOL    MW4 6848   4.312   2.406   2.691  0.8248 -1.1950  0.1738
 1771SOL     OW 6849   1.172   2.544   5.928  0.3663 -0.0130  0.1371
 1771SOL    HW2 6850   1.089   2.568   5.970 -0.7707 -0.3911 -1.7677
 1771SOL    HW3 6851   1.155   2.459   5.888  1.2028  0.5518 -1.5042
 1771SOL    MW4 6852   1.159   2.536   5.928 -0.5212 -0.0213 -0.5076
 1772SOL     OW 6853   0.311   1.287   5.500 -0.2548  0.4390 -0.3373
 1772SOL    HW2 6854   0.339   1.196   5.496 -0.1289  0.4493  0.1751
 1772SOL    HW3 6855   0.373   1.334   5.445  1.7305  0.6825  1.9344
 1772SOL    MW4 6856   0.323   1.282   5.492 -0.6288 -0.0684 -0.2381
 1773SOL     OW 6857   2.219   2.814   1.348 -0.2335 -0.2459 -0.3708
 1773SOL    HW2 6858   2.281   2.852   1.285 -1.0461  1.6121 -0.1195
 1773SOL    HW3 6859   2.275   2.780   1.418  0.5542  0.9440 -0.3804
 1773SOL    MW4 6860   2.235   2.815   1.349 -0.0321 -0.9228  0.0426
 1774SOL     OW 6861   1.887   2.333   1.637 -0.3578 -0.1359 -0.0938
 1774SOL    HW2 6862   1.949   2.395   1.599 -0.4772 -0.3044 -0.5626
 1774SOL    HW3 6863   1.932   2.249   1.637 -0.7246 -0.3378 -0.7986
 1774SOL    MW4 6864   1.901   2.330   1.632 -1.0078  0.1950 -0.0778
 1775SOL     OW 6865   2.055   0.143   3.418 -0.2938  0.1826  0.3803
 1775SOL    HW2 6866   2.093   0.202   3.482 -0.5838  1.2279 -0.3870
 1775SOL    HW3 6867   1.967   0.178   3.401  0.4394  1.0897 -1.9872
 1775SOL    MW4 6868   2.048   0.155   3.424  0.6393  0.2508  0.8466
 1776SOL     OW 6869   3.725   6.009   2.381  0.1342  0.2253  0.6284
 1776SOL    HW2 6870   3.747   6.057   2.302 -0.4585 -0.1815  0.2137
 1776SOL    HW3 6871   3.630   6.021   2.392  0.0955 -0.2731  0.9002
 1776SOL    MW4 6872   3.715   6.017   2.372 -0.5378 -0.0371  0.2581
 1777SOL     OW 6873   1.552   6.297   0.249  0.1536 -0.3252 -0.2593
 1777SOL    HW2 6874   1.561   6.252   0.333  2.0428  0.2033 -0.1420
 1777SOL    HW3 6875   1.575   6.388   0.268  0.9121 -0.2584 -1.4145
 1777SOL    MW4 6876   1.556   6.303   0.263  0.4793  0.0858  0.2320
 1778SOL     OW 6877   2.330   4.752   2.452  0.2809 -0.3791 -0.1566
 1778SOL    HW2 6878   2.367   4.838   2.431 -1.0585  0.2077 -0.2324
 1778SOL    HW3 6879   2.370   4.693   2.388  1.7988  0.0153  0.3762
 1778SOL    MW4 6880   2.340   4.755   2.441  0.0021  0.2002  0.5786
 1779SOL     OW 6881   2.248   0.036   1.468 -0.8034 -0.1389  0.5444
 1779SOL    HW2 6882   2.266  -0.052   1.501  1.7822 -1.0374 -2.6453
 1779SOL    HW3 6883   2.203   0.080   1.540 -1.2932 -3.6935  2.6817
 1779SOL    MW4 6884   2.245   0.030   1.482  0.3443 -0.2029 -0.2197
 1780SOL     OW 6885   1.401   3.016   3.811 -0.2146 -1.0192  0.1576
 1780SOL    HW2 6886   1.384   2.948   3.875  0.3180 -0.9533  0.3724
 1780SOL    HW3 6887   1.480   2.988   3.766 -1.4423 -1.8981 -1.6033
 1780SOL    MW4 6888   1.409   3.003   3.813  0.9272 -0.2691  0.0998
 1781SOL     OW 6889   2.650   2.491   4.077  0.0137  0.2208  0.2746
 1781SOL    HW2 6890   2.686   2.580   4.073  0.5659  0.0133  0.5584
 1781SOL    HW3 6891   2.717   2.440   4.124 -0.4667 -0.2621  0.4403
 1781SOL    MW4 6892   2.664   2.496   4.083 -0.3891  0.0561  0.3634
 1782SOL     OW 6893   6.186   0.822   4.937  0.2956 -0.0436  0.1852
 1782SOL    HW2 6894   6.136   0.844   5.015  1.1307  1.5502  0.3127
 1782SOL    HW3 6895   6.119   0.799   4.872 -0.4621 -0.3595  1.0548
 1782SOL    MW4 6896   6.170   0.822   4.938 -0.2167  0.4680  0.3101
 1783SOL     OW 6897   0.483   0.168   5.176 -0.0662  0.4579 -0.0704
 1783SOL    HW2 6898   0.457   0.122   5.256  0.7286  0.0135 -0.0638
 1783SOL    HW3 6899   0.554   0.115   5.140 -1.0017  0.1522 -1.5497
 1783SOL    MW4 6900   0.489   0.155   5.182 -0.6089  0.7823  0.4428
 1784SOL     OW 6901   3.135   0.840   0.846  0.4913  0.1783  0.1865
 1784SOL    HW2 6902   3.066   0.832   0.780  0.4742  0.1038  0.2141
 1784SOL    HW3 6903   3.216   0.835   0.796  0.4831 -0.2879  0.2179
 1784SOL    MW4 6904   3.136   0.839   0.831  0.0315  0.5633  0.2333
 1785SOL     OW 6905   5.008   2.899   1.900  0.1755  0.2338  0.0113
 1785SOL    HW2 6906   5.085   2.844   1.912 -0.2398 -0.4693 -0.4436
 1785SOL    HW3 6907   4.943   2.841   1.859 -0.5910  0.8092  0.3744
 1785SOL    MW4 6908   5.009   2.884   1.896 -0.0165 -0.1923 -0.0393
 1786SOL     OW 6909   0.093   4.822   3.742 -0.1224  0.0182 -0.3702
 1786SOL    HW2 6910   0.130   4.908   3.722  0.5039 -0.5349 -1.6973
 1786SOL    HW3 6911   0.011   4.841   3.788  0.6191  1.2995  0.4867
 1786SOL    MW4 6912   0.087   4.836   3.746  0.4034  0.4504 -0.5849
 1787SOL     OW 6913   3.252   1.700   0.323 -1.0294  0.2310 -0.3986
 1787SOL    HW2 6914   3.277   1.761   0.254  1.7609  2.1959  2.0618
 1787SOL    HW3 6915   3.288   1.616   0.295  1.4900  1.3219 -0.7002
 1787SOL    MW4 6916   3.260   1.697   0.310 -0.9497  0.0878 -0.0489
 1788SOL     OW 6917   0.999   4.942   4.680 -0.1125  0.1009  0.0109
 1788SOL    HW2 6918   1.048   5.017   4.647 -0.6495  0.4636  0.0329
 1788SOL    HW3 6919   1.019   4.940   4.773  0.1586  0.0195 -0.0477
 1788SOL    MW4 6920   1.009   4.951   4.688  0.4652 -0.0135 -0.2142
 1789SOL     OW 6921   2.536   2.022   5.282 -0.2154  0.2074  0.0298
 1789SOL    HW2 6922   2.445   2.030   5.253  0.0516  1.3085 -0.5658
 1789SOL    HW3 6923   2.567   1.942   5.241 -0.6486  0.3290 -0.5452
 1789SOL    MW4 6924   2.528   2.013   5.273 -0.1878 -0.1713  0.0279
 1790SOL     OW 6925   4.487   5.970   2.780 -0.5018 -0.0609 -0.6482
 1790SOL    HW2 6926   4.571   5.940   2.813  0.2307  2.2858 -0.2027
 1790SOL    HW3 6927   4.424   5.904   2.812  1.1410 -2.0284 -1.2606
 1790SOL    MW4 6928   4.489   5.957   2.789 -0.4662 -0.5484  0.0358
 1791SOL     OW 6929   4.190   1.468   4.885 -0.3119 -0.4287 -0.7681
 1791SOL    HW2 6930   4.282   1.464   4.860 -0.2633 -0.4314 -0.5874
 1791SOL    HW3 6931   4.158   1.378   4.876 -0.1070 -0.5737 -0.1075
 1791SOL    MW4 6932   4.198   1.456   4.880  0.2728 -0.9126  0.3364
 1792SOL     OW 6933   2.241   3.533   2.428  0.2364  0.1520  0.3189
 1792SOL    HW2 6934   2.258   3.522   2.335 -0.9890 -0.4775  0.1481
 1792SOL    HW3 6935   2.238   3.443   2.463  0.7355  0.3799  0.9765
 1792SOL    MW4 6936   2.243   3.519   2.421 -0.3729  0.2656  0.4339
 1793SOL     OW 6937   2.227   5.250   3.905 -0.0225 -0.6005  0.4516
 1793SOL    HW2 6938   2.276   5.324   3.941  0.2289 -0.4556 -0.1794
 1793SOL    HW3 6939   2.146   5.247   3.957  0.1605 -0.1597  0.7688
 1793SOL    MW4 6940   2.223   5.259   3.917 -0.0726  0.5644  0.2096
 1794SOL     OW 6941   5.046   2.265   1.592  0.9925  0.0302 -0.1437
 1794SOL    HW2 6942   5.057   2.335   1.657  2.3725  0.8403 -1.1638
 1794SOL    HW3 6943   5.114   2.202   1.614  1.9510  0.6621 -1.1844
 1794SOL    MW4 6944   5.057   2.266   1.604  0.0176  0.0593 -0.1678
 1795SOL     OW 6945   3.026   0.657   4.956 -0.3310 -0.2917  0.1683
 1795SOL    HW2 6946   2.965   0.584   4.968  0.1293 -0.5818  0.7504
 1795SOL    HW3 6947   2.977   0.719   4.902 -1.0826 -0.6027  0.4680
 1795SOL    MW4 6948   3.011   0.656   4.951 -0.4804 -0.2358  0.1840
 1796SOL     OW 6949   0.456   0.912   3.464  0.6881 -0.7257 -0.6440
 1796SOL    HW2 6950   0.437   0.980   3.400 -0.0474 -1.6913 -1.4881
 1796SOL    HW3 6951   0.504   0.845   3.415 -1.2667 -2.2192 -0.6583
 1796SOL    MW4 6952   0.459   0.912   3.449 -0.2733 -0.2345 -0.4742
 1797SOL     OW 6953   5.245   5.894   2.916  0.4525 -0.1101 -0.0529
 1797SOL    HW2 6954   5.335   5.894   2.884  0.9169 -1.6102  1.1333
 1797SOL    HW3 6955   5.220   5.801   2.918 -0.6725  0.1852  0.8704
 1797SOL    MW4 6956   5.253   5.882   2.912  0.4123 -0.4083 -0.0962
 1798SOL     OW 6957   3.578   2.981   5.225  0.3736 -0.2421  0.2508
 1798SOL    HW2 6958   3.578   3.001   5.319 -0.1900  1.6489 -0.1189
 1798SOL    HW3 6959   3.593   2.887   5.221  1.8214 -0.1627  2.1974
 1798SOL    MW4 6960   3.580   2.971   5.237 -0.4000  0.4078 -0.7061
 1799SOL     OW 6961   3.526   6.312   4.692 -0.5616 -0.1160 -0.5463
 1799SOL    HW2 6962   3.578   6.255   4.748 -0.6389  1.4747  1.2346
 1799SOL    HW3 6963   3.478   6.252   4.635  0.1792 -1.7664  0.4860
 1799SOL    MW4 6964   3.526   6.296   4.692 -0.7109  0.6873  0.2373
 1800SOL     OW 6965   1.718   5.490   4.405 -0.4958 -0.0872  0.8273
 1800SOL    HW2 6966   1.728   5.423   4.337 -0.4045  0.8887 -0.1463
 1800SOL    HW3 6967   1.656   5.553   4.368 -0.0308  0.7473  1.4316
 1800SOL    MW4 6968   1.711   5.489   4.391 -0.8293 -0.3129 -0.4653
 1801SOL     OW 6969   1.753   1.569   4.123  0.1642  0.0983  0.0396
 1801SOL    HW2 6970   1.829   1.566   4.064 -1.6845 -0.3681 -2.4840
 1801SOL    HW3 6971   1.733   1.477   4.139 -1.1726  0.1430 -1.1898
 1801SOL    MW4 6972   1.761   1.556   4.117  0.2328  0.1574 -0.4415
 1802SOL     OW 6973   1.072   3.893   5.666 -0.1358  0.1913 -0.0516
 1802SOL    HW2 6974   1.016   3.919   5.739 -0.1068  0.2038 -0.0335
 1802SOL    HW3 6975   1.029   3.926   5.588 -0.2742 -0.0007 -0.0573
 1802SOL    MW4 6976   1.059   3.901   5.666  0.1518 -0.1017  0.0867
 1803SOL     OW 6977   0.606   4.073   2.441 -0.0695 -0.0339 -0.0469
 1803SOL    HW2 6978   0.604   4.138   2.511  0.8712  0.1908 -0.2083
 1803SOL    HW3 6979   0.534   4.098   2.383 -1.1683 -0.5101  1.0620
 1803SOL    MW4 6980   0.596   4.085   2.442  0.0744  0.2137 -0.3535
 1804SOL     OW 6981   0.539   2.542   5.014  0.3498 -0.1380 -0.1368
 1804SOL    HW2 6982   0.539   2.616   4.953 -0.8154 -0.1021 -0.1158
 1804SOL    HW3 6983   0.489   2.474   4.969  0.0461 -0.3423  0.5054
 1804SOL    MW4 6984   0.533   2.543   5.000  0.1775 -0.1078 -0.2191
 1805SOL     OW 6985   6.361   1.978   0.246  0.4704  0.5890 -0.2545
 1805SOL    HW2 6986   6.437   1.920   0.246  0.1089  0.0961  0.1720
 1805SOL    HW3 6987   6.391   2.058   0.290  0.4168 -0.0639  1.0144
 1805SOL    MW4 6988   6.375   1.981   0.251  0.1545 -0.2842  0.9527
 1806SOL     OW 6989   5.478   1.575   0.383  0.2142 -0.0042 -0.6322
 1806SOL    HW2 6990   5.569   1.563   0.409  0.1657 -0.5265 -0.6904
 1806SOL    HW3 6991   5.433   1.496   0.415  0.2632 -0.9699 -2.7866
 1806SOL    MW4 6992   5.484   1.563   0.391 -0.0145 -0.4697 -0.1995
 1807SOL     OW 6993   1.256   0.491   3.703  0.0695 -0.0460  0.0995
 1807SOL    HW2 6994   1.304   0.481   3.785 -1.3384  1.1082  1.1214
 1807SOL    HW3 6995   1.176   0.538   3.728  0.5486  2.2707 -2.2593
 1807SOL    MW4 6996   1.251   0.496   3.717 -0.4761  0.3405 -0.0590
 1808SOL     OW 6997   0.109   4.997   3.135  0.0971 -0.8614  0.5264
 1808SOL    HW2 6998   0.202   4.973   3.143  0.0628 -1.3991 -0.4440
 1808SOL    HW3 6999   0.093   5.058   3.207  1.4174 -0.1306  0.2294
 1808SOL    MW4 7000   0.119   5.002   3.145  0.1185 -0.2620 -0.5792
 1809SOL     OW 7001   1.357   2.110   6.120  0.0765  0.0186  0.9456
 1809SOL    HW2 7002   1.347   2.015   6.112 -0.0899 -0.0297  1.6453
 1809SOL    HW3 7003   1.360   2.125   6.215 -1.8817  0.8981  0.9171
 1809SOL    MW4 7004   1.356   2.099   6.132 -0.2471 -0.1109 -0.2433
 1810SOL     OW 7005   1.851   1.302   4.622 -0.5037 -0.1688  0.3502
 1810SOL    HW2 7006   1.840   1.326   4.530  2.2151  1.6781  0.4066
 1810SOL    HW3 7007   1.924   1.240   4.622 -2.4143 -2.5658  1.0498
 1810SOL    MW4 7008   1.859   1.297   4.610 -0.1858  0.4158  0.2337
 1811SOL     OW 7009   0.944   0.032   3.337  0.0620  0.5850 -0.1936
 1811SOL    HW2 7010   0.927   0.046   3.430  1.8452  1.7001  0.0114
 1811SOL    HW3 7011   1.034   0.001   3.333 -0.2750 -0.3070 -1.5153
 1811SOL    MW4 7012   0.954   0.030   3.349  0.0323  0.1092  0.4589
 1812SOL     OW 7013   4.960   1.892   0.993 -0.7491 -0.2009  0.3221
 1812SOL    HW2 7014   5.045   1.880   0.951 -0.7059 -0.3980  0.4651
 1812SOL    HW3 7015   4.950   1.815   1.049 -0.3274  0.5519  1.4859
 1812SOL    MW4 7016   4.970   1.880   0.995  0.0099 -0.5688  0.6372
 1813SOL     OW 7017   3.998   2.588   3.977  0.0979 -0.3858 -0.1788
 1813SOL    HW2 7018   4.089   2.572   3.949 -0.3999  0.7495 -2.7239
 1813SOL    HW3 7019   4.002   2.671   4.025  0.6998 -1.5161  1.8683
 1813SOL    MW4 7020   4.011   2.596   3.980  0.0117 -0.0509 -0.3725
 1814SOL     OW 7021   2.350   0.589   3.718  0.1596 -0.2014 -0.9933
 1814SOL    HW2 7022   2.296   0.544   3.783 -0.5698  0.6255 -1.0195
 1814SOL    HW3 7023   2.427   0.532   3.708  0.2845 -0.3372  0.5826
 1814SOL    MW4 7024   2.353   0.575   3.725  0.2997 -0.1797  0.2700
 1815SOL     OW 7025   4.484   6.196   0.772 -0.0080 -0.4033  0.2276
 1815SOL    HW2 7026   4.543   6.123   0.756  2.2823  1.4041 -0.2006
 1815SOL    HW3 7027   4.448   6.218   0.686 -0.9652 -1.1812  0.4087
 1815SOL    MW4 7028   4.487   6.189   0.759 -0.4847 -0.3138 -0.3936
 1816SOL     OW 7029   0.489   0.496   1.421 -0.3768  0.4214 -0.0551
 1816SOL    HW2 7030   0.451   0.429   1.364 -1.6665  0.2616  0.9567
 1816SOL    HW3 7031   0.573   0.517   1.379 -0.6266 -0.7179 -1.2180
 1816SOL    MW4 7032   0.495   0.490   1.408 -0.2160 -0.6036 -0.1836
 1817SOL     OW 7033   1.647   2.532   6.277 -0.3308 -0.1659 -0.3109
 1817SOL    HW2 7034   1.617   2.473   6.208 -1.1690 -0.9758  0.7294
 1817SOL    HW3 7035   1.731   2.566   6.244 -1.5554  0.9260 -2.5739
 1817SOL    MW4 7036   1.655   2.529   6.263  0.3024  0.0227  0.6933
 1818SOL     OW 7037   2.798   3.113   5.129  0.2524  0.5915  1.0229
 1818SOL    HW2 7038   2.786   3.174   5.057  0.5892 -1.0029 -0.4457
 1818SOL    HW3 7039   2.844   3.164   5.196  1.6163  1.6342 -0.6164
 1818SOL    MW4 7040   2.802   3.128   5.129  0.2908 -0.0447 -0.0147
 1819SOL     OW 7041   5.412   1.355   2.024 -0.3848 -0.2207  0.9490
 1819SOL    HW2 7042   5.419   1.343   1.929 -3.5211  0.3959  0.5327
 1819SOL    HW3 7043   5.445   1.273   2.061  2.4707  0.1630 -0.5264
 1819SOL    MW4 7044   5.417   1.342   2.016 -0.2530 -0.2428 -0.3287
 1820SOL     OW 7045   5.965   3.118   1.386 -0.3415 -0.1911 -0.1619
 1820SOL    HW2 7046   5.998   3.150   1.470  0.5582 -0.2598 -0.4820
 1820SOL    HW3 7047   5.890   3.174   1.367 -0.7449 -0.3687  0.8298
 1820SOL    MW4 7048   5.960   3.130   1.394  0.1369 -0.2765 -0.4368
 1821SOL     OW 7049   6.309   4.799   3.298  0.7537  0.1977 -0.4582
 1821SOL    HW2 7050   6.257   4.880   3.297  0.2291 -0.1236  0.2536
 1821SOL    HW3 7051   6.379   4.816   3.361  0.3976 -0.0419  0.0121
 1821SOL    MW4 7052   6.311   4.812   3.306 -0.2682  0.4632  0.4505
 1822SOL     OW 7053   2.955   5.622   5.475 -0.1274 -0.1114 -0.2064
 1822SOL    HW2 7054   2.974   5.714   5.494 -1.1207 -0.2537  1.8458
 1822SOL    HW3 7055   3.039   5.584   5.451  0.8472  0.7522  1.6382
 1822SOL    MW4 7056   2.968   5.629   5.474  0.3683  0.0215  0.4738
 1823SOL     OW 7057   6.063   6.081   3.793  0.0199  0.3157  0.2563
 1823SOL    HW2 7058   6.122   6.125   3.732 -1.4916  1.0565 -0.7565
 1823SOL    HW3 7059   6.120   6.034   3.853  1.6111  0.9238 -0.7235
 1823SOL    MW4 7060   6.078   6.081   3.793 -0.3044  0.4006 -0.1453
 1824SOL     OW 7061   2.473   2.873   4.148  0.1633 -0.1585 -0.2880
 1824SOL    HW2 7062   2.440   2.784   4.134  0.9135 -0.2939 -1.3389
 1824SOL    HW3 7063   2.478   2.911   4.060 -0.6417  1.1209  0.1857
 1824SOL    MW4 7064   2.469   2.866   4.135 -0.0187  0.0254 -0.2899
 1825SOL     OW 7065   6.452   0.957   5.690  0.1062  0.2130  0.0507
 1825SOL    HW2 7066   6.441   0.903   5.769 -0.2166  0.5559  0.2452
 1825SOL    HW3 7067   6.401   0.912   5.623  0.1992  0.0378  0.0986
 1825SOL    MW4 7068   6.444   0.944   5.692 -0.4170 -0.2725  0.2862
 1826SOL     OW 7069   1.677   6.060   0.900  0.3789  0.5021  0.1275
 1826SOL    HW2 7070   1.772   6.065   0.891  0.2096  2.0692 -1.4550
 1826SOL    HW3 7071   1.650   6.151   0.917 -0.8674  0.1660  0.0362
 1826SOL    MW4 7072   1.686   6.073   0.901  0.4903 -0.1307  0.5671
 1827SOL     OW 7073   1.879   1.955   6.154 -0.1968 -0.0385 -0.6254
 1827SOL    HW2 7074   1.858   1.907   6.234 -1.3518 -0.3888 -1.1080
 1827SOL    HW3 7075   1.888   1.888   6.087 -3.9700  0.3511 -1.7838
 1827SOL    MW4 7076   1.877   1.940   6.156  0.2653 -0.1956  0.0010
 1828SOL     OW 7077   1.947   0.612   2.514  0.4429 -0.4220 -0.7032
 1828SOL    HW2 7078   1.994   0.546   2.565 -0.0243  0.1128  0.4622
 1828SOL    HW3 7079   1.855   0.582   2.517  0.1294  0.5641  0.3563
 1828SOL    MW4 7080   1.941   0.599   2.521 -0.4833  0.1097 -0.1945
 1829SOL     OW 7081   3.995   2.495   5.658 -0.2680 -0.5851 -0.0859
 1829SOL    HW2 7082   4.033   2.412   5.689 -1.4344 -1.5331 -1.0823
 1829SOL    HW3 7083   3.904   2.492   5.688  0.1268  1.2261  1.4725
 1829SOL    MW4 7084   3.988   2.484   5.666 -0.1504 -0.5405 -0.1872
 1830SOL     OW 7085   1.697   5.637   1.556  0.3406  0.1418  0.1045
 1830SOL    HW2 7086   1.710   5.562   1.615 -0.5240 -0.1819 -0.1082
 1830SOL    HW3 7087   1.677   5.710   1.615 -0.9392 -0.2728  0.2061
 1830SOL    MW4 7088   1.696   5.637   1.572  0.1933  0.5889  0.4084
 1831SOL     OW 7089   1.907   6.204   4.579 -0.2039  0.0783  0.2486
 1831SOL    HW2 7090   2.002   6.191   4.579  0.1560  2.2155  0.3174
 1831SOL    HW3 7091   1.881   6.191   4.670 -0.0149 -0.7327  0.1883
 1831SOL    MW4 7092   1.916   6.201   4.591  0.5029  0.3745 -0.0076
 1832SOL     OW 7093   0.907   3.085   6.392  0.1189 -0.6822 -0.1569
 1832SOL    HW2 7094   0.968   3.121   6.456 -0.4041 -0.3648  0.1658
 1832SOL    HW3 7095   0.881   3.000   6.428 -1.1988  0.0677  0.7260
 1832SOL    MW4 7096   0.912   3.079   6.405 -0.5211 -0.1795 -0.4444
 1833SOL     OW 7097   2.542   6.399   0.710 -0.2945 -0.2517 -0.0734
 1833SOL    HW2 7098   2.635   6.375   0.712  0.0253  0.9713  0.4121
 1833SOL    HW3 7099   2.536   6.466   0.642 -0.8444 -0.4297 -0.2008
 1833SOL    MW4 7100   2.554   6.405   0.701 -0.0121 -0.2232  0.4766
 1834SOL     OW 7101   3.916   4.087   2.538  0.6781 -0.3207 -0.4735
 1834SOL    HW2 7102   3.943   4.033   2.463  1.7598 -0.0669 -0.2793
 1834SOL    HW3 7103   3.865   4.158   2.499  2.1803  0.4537 -1.1268
 1834SOL    MW4 7104   3.913   4.089   2.523  0.6213 -0.2339 -0.3221
 1835SOL     OW 7105   0.299   0.061   5.857  0.4674 -0.1059  0.0907
 1835SOL    HW2 7106   0.245  -0.019   5.856  0.4216 -0.0983  0.9145
 1835SOL    HW3 7107   0.292   0.096   5.769  0.1548 -0.7971 -0.1675
 1835SOL    MW4 7108   0.291   0.055   5.845  0.0884 -0.0012 -0.3312
 1836SOL     OW 7109   0.634   5.762   4.049 -1.1201  0.1000  0.1226
 1836SOL    HW2 7110   0.639   5.744   4.143 -0.4266  2.2476  0.5382
 1836SOL    HW3 7111   0.717   5.728   4.014 -1.4031 -0.7517  0.2542
 1836SOL    MW4 7112   0.646   5.755   4.057  0.1672 -0.2827 -0.4271
 1837SOL     OW 7113   5.330   1.916   6.308 -0.0859  0.3587 -0.3589
 1837SOL    HW2 7114   5.420   1.900   6.334 -0.6377 -1.5488  0.5761
 1837SOL    HW3 7115   5.322   2.011   6.306  1.9769  0.5692 -0.6656
 1837SOL    MW4 7116   5.341   1.926   6.311  0.1064  0.5636 -0.0692
 1838SOL     OW 7117   0.276   6.285   4.889 -0.1696  0.1569 -0.6755
 1838SOL    HW2 7118   0.324   6.316   4.812  1.9879  2.2590  1.3414
 1838SOL    HW3 7119   0.325   6.208   4.918  0.8440  1.0899  0.1953
 1838SOL    MW4 7120   0.289   6.279   4.882  0.3497  0.4622 -0.0166
 1839SOL     OW 7121   0.653   5.744   5.258  0.2425  0.2740 -0.5962
 1839SOL    HW2 7122   0.715   5.692   5.310 -0.1458  0.3612 -0.0283
 1839SOL    HW3 7123   0.590   5.680   5.225 -0.9311  0.4893  1.0955
 1839SOL    MW4 7124   0.653   5.728   5.261 -0.2948  0.2821 -0.4223
 1840SOL     OW 7125   0.550   1.418   3.842 -0.3444  0.1010  0.9297
 1840SOL    HW2 7126   0.534   1.512   3.848  2.4944  0.9504 -1.9304
 1840SOL    HW3 7127   0.612   1.400   3.913 -0.0411  0.6474  0.8114
 1840SOL    MW4 7128   0.556   1.428   3.852 -0.0975 -0.6618 -0.5273
 1841SOL     OW 7129   6.318   2.924   0.479  0.4127 -0.0314  0.3153
 1841SOL    HW2 7130   6.381   2.966   0.538  0.4365  1.1842 -0.5396
 1841SOL    HW3 7131   6.259   2.995   0.452 -0.1770 -0.7650 -0.3762
 1841SOL    MW4 7132   6.319   2.939   0.483 -0.4557 -0.3519 -0.4377
 1842SOL     OW 7133   5.873   1.980   4.181 -0.3084 -0.0689 -0.0020
 1842SOL    HW2 7134   5.888   2.075   4.180 -2.3929  0.3287  0.2423
 1842SOL    HW3 7135   5.838   1.960   4.094 -0.5701 -0.4571  0.1867
 1842SOL    MW4 7136   5.870   1.990   4.170 -0.4212  0.2319 -0.2189
 1843SOL     OW 7137   4.533   5.938   1.795  0.4253 -0.4131 -0.0972
 1843SOL    HW2 7138   4.447   5.899   1.781  0.4702 -0.3714 -0.5019
 1843SOL    HW3 7139   4.579   5.875   1.852 -0.0595 -0.1674  0.5772
 1843SOL    MW4 7140   4.528   5.924   1.801 -0.6673 -0.3140 -0.5110
 1844SOL     OW 7141   3.170   6.084   4.775 -0.4282  0.4583 -0.4195
 1844SOL    HW2 7142   3.159   6.042   4.860 -2.5860 -0.5190 -1.1112
 1844SOL    HW3 7143   3.124   6.167   4.782 -0.6163  0.3735 -0.6239
 1844SOL    MW4 7144   3.163   6.090   4.787 -0.1002 -0.0375 -0.3687
 1845SOL     OW 7145   4.845   2.525   4.533  0.1838  0.4502 -0.8598
 1845SOL    HW2 7146   4.907   2.452   4.539  0.0007  0.4131  1.0565
 1845SOL    HW3 7147   4.772   2.499   4.590 -0.8457  1.2365 -1.7796
 1845SOL    MW4 7148   4.843   2.512   4.541 -0.0651  0.0932  0.0128
 1846SOL     OW 7149   4.722   6.128   5.012  0.1169 -0.7223  0.2677
 1846SOL    HW2 7150   4.802   6.096   4.971  0.7345  0.2196  0.7222
 1846SOL    HW3 7151   4.710   6.071   5.089 -0.8429 -2.2478 -0.9329
 1846SOL    MW4 7152   4.731   6.116   5.017 -0.3671 -0.7900  0.3243
 1847SOL     OW 7153   5.458   1.974   0.940  0.3717 -0.0872  0.1832
 1847SOL    HW2 7154   5.543   1.951   0.904  0.2370  0.2297 -0.3417
 1847SOL    HW3 7155   5.462   2.068   0.956 -0.0671  0.0304 -0.3698
 1847SOL    MW4 7156   5.470   1.983   0.938  0.2403  0.4006  0.4236
 1848SOL     OW 7157   4.327   2.390   2.260  0.0485 -0.6040  0.6025
 1848SOL    HW2 7158   4.257   2.331   2.285  1.0666 -1.3680  1.7762
 1848SOL    HW3 7159   4.308   2.472   2.306  0.0059 -0.8498  1.0200
 1848SOL    MW4 7160   4.316   2.393   2.269 -0.5677 -0.1065  0.3564
 1849SOL     OW 7161   5.263   1.862   2.074  0.2669  0.6078  1.1531
 1849SOL    HW2 7162   5.220   1.932   2.025  1.2422  0.7382  0.4616
 1849SOL    HW3 7163   5.348   1.898   2.098  2.0311 -1.2314 -1.6873
 1849SOL    MW4 7164   5.269   1.876   2.071 -0.1804 -0.1147 -0.2629
 1850SOL     OW 7165   3.827   0.541   0.380 -0.1587 -0.9426 -0.0707
 1850SOL    HW2 7166   3.859   0.452   0.396  1.5333 -0.2536  0.6198
 1850SOL    HW3 7167   3.807   0.542   0.286 -0.3309 -2.0771 -0.0623
 1850SOL    MW4 7168   3.828   0.529   0.370 -0.3249  0.2349  0.0212
 1851SOL     OW 7169   0.863   0.954   3.933 -0.6283 -0.1221  0.3834
 1851SOL    HW2 7170   0.877   1.045   3.907 -1.1559 -0.4769 -1.2870
 1851SOL    HW3 7171   0.856   0.957   4.028 -0.2528  1.5263  0.3913
 1851SOL    MW4 7172   0.864   0.967   3.942  1.2716  0.4446  0.6955
 1852SOL     OW 7173   4.837   0.795   4.069  0.2264  0.1204 -0.1684
 1852SOL    HW2 7174   4.840   0.791   4.164  5.4118  0.5348 -0.0272
 1852SOL    HW3 7175   4.806   0.883   4.049 -0.6442  0.1279  1.1212
 1852SOL    MW4 7176   4.833   0.806   4.079 -0.1066  0.1142 -0.3699
 1853SOL     OW 7177   1.204   2.436   2.672  0.3802 -0.8513  0.2487
 1853SOL    HW2 7178   1.187   2.393   2.755 -1.6551 -0.6855 -0.0221
 1853SOL    HW3 7179   1.298   2.423   2.656  0.8832 -0.6717  2.6591
 1853SOL    MW4 7180   1.214   2.429   2.681  1.5032  0.7576  0.8363
 1854SOL     OW 7181   1.576   3.247   4.663  0.2673  0.0108  0.2795
 1854SOL    HW2 7182   1.645   3.310   4.686 -0.5761  0.5858  1.3385
 1854SOL    HW3 7183   1.551   3.208   4.747 -0.0932 -0.8364 -0.2109
 1854SOL    MW4 7184   1.582   3.250   4.677 -0.4845  0.0231  0.2956
 1855SOL     OW 7185   1.544   1.822   1.934 -0.1010 -0.4760  0.1217
 1855SOL    HW2 7186   1.579   1.759   1.996  0.8223 -1.1987 -1.0676
 1855SOL    HW3 7187   1.546   1.777   1.850  0.1869  0.9848 -0.7017
 1855SOL    MW4 7188   1.549   1.808   1.931 -0.1089  0.2195 -0.5269
 1856SOL     OW 7189   2.166   2.351   0.108 -0.3845 -0.0910 -0.6447
 1856SOL    HW2 7190   2.159   2.356   0.013 -0.2577  0.1985 -0.6426
 1856SOL    HW3 7191   2.203   2.265   0.125  1.6950  0.6619 -1.0030
 1856SOL    MW4 7192   2.170   2.341   0.098 -0.9249  0.1203  0.0810
 1857SOL     OW 7193   5.780   0.036   0.272 -0.3426  0.7237 -0.0741
 1857SOL    HW2 7194   5.861   0.005   0.232 -0.3471 -0.9212  1.0824
 1857SOL    HW3 7195   5.718   0.044   0.198  0.5120  0.8266 -0.7964
 1857SOL    MW4 7196   5.782   0.033   0.257  0.1377 -0.2738  0.2114
 1858SOL     OW 7197   2.303   0.099   2.047  0.4120 -0.1970 -0.2178
 1858SOL    HW2 7198   2.373   0.161   2.068 -0.8782  0.6464  1.9153
 1858SOL    HW3 7199   2.234   0.153   2.009 -0.1284 -0.5646  0.2246
 1858SOL    MW4 7200   2.303   0.115   2.045  0.8975  0.0231 -0.0986
 1859SOL     OW 7201   5.797   2.283   1.330 -0.6358  0.3245 -0.2376
 1859SOL    HW2 7202   5.864   2.214   1.338  0.1917  1.1285 -0.0298
 1859SOL    HW3 7203   5.749   2.279   1.412  0.7985  1.3764  0.7007
 1859SOL    MW4 7204   5.800   2.273   1.342 -0.2424 -0.4373 -0.2881
 1860SOL     OW 7205   4.095   5.013   3.446  0.4271  0.3738 -0.1801
 1860SOL    HW2 7206   4.018   5.022   3.390  1.1309 -0.0413 -1.2580
 1860SOL    HW3 7207   4.115   5.103   3.473 -0.2033  0.5293 -0.2049
 1860SOL    MW4 7208   4.088   5.026   3.442 -0.3522 -0.3169  0.2071
 1861SOL     OW 7209   2.398   3.107   2.159 -0.3601 -0.5772 -0.5882
 1861SOL    HW2 7210   2.430   3.111   2.069 -0.4143  1.1589 -0.5550
 1861SOL    HW3 7211   2.324   3.046   2.156 -0.6577 -0.1754 -1.8188
 1861SOL    MW4 7212   2.392   3.099   2.147  0.3836 -0.0595 -0.4099
 1862SOL     OW 7213   3.271   4.798   5.756 -0.1276 -0.7748  0.3369
 1862SOL    HW2 7214   3.199   4.738   5.736  0.7143 -3.3510  3.9517
 1862SOL    HW3 7215   3.347   4.741   5.765  1.6540  1.4319 -0.0248
 1862SOL    MW4 7216   3.271   4.783   5.755  0.0307  0.2931  0.7627
 1863SOL     OW 7217   2.007   6.271   3.695  0.5450 -0.8505 -0.0503
 1863SOL    HW2 7218   1.927   6.322   3.706  0.9805 -0.0216 -0.6789
 1863SOL    HW3 7219   1.976   6.185   3.666 -0.1320 -0.6249 -0.0170
 1863SOL    MW4 7220   1.993   6.266   3.693 -0.4219  0.6690  1.3254
 1864SOL     OW 7221   4.962   5.860   4.115  0.0311  0.2142  0.3570
 1864SOL    HW2 7222   4.913   5.863   4.033  0.4296  2.2379  0.1429
 1864SOL    HW3 7223   4.896   5.869   4.183 -0.2326 -0.8214  0.2596
 1864SOL    MW4 7224   4.947   5.862   4.113 -0.0667  0.5337 -0.1709
 1865SOL     OW 7225   1.642   0.938   6.066  0.2444  0.0819  0.1557
 1865SOL    HW2 7226   1.569   0.886   6.032 -2.0341  1.8074  2.0051
 1865SOL    HW3 7227   1.702   0.874   6.103 -0.9217 -1.3645 -0.3276
 1865SOL    MW4 7228   1.640   0.923   6.066 -0.2170 -0.2252  0.5983
 1866SOL     OW 7229   2.702   0.714   2.127 -0.1202 -0.4285 -0.5655
 1866SOL    HW2 7230   2.679   0.642   2.068  0.2443 -2.0767  1.2144
 1866SOL    HW3 7231   2.700   0.791   2.071 -0.6417 -1.7784 -2.5403
 1866SOL    MW4 7232   2.699   0.714   2.112  0.2239  0.2490 -0.6682
 1867SOL     OW 7233   5.495   1.226   1.456  0.3174 -0.0089 -0.3127
 1867SOL    HW2 7234   5.400   1.236   1.449  0.1407 -1.6161 -0.4396
 1867SOL    HW3 7235   5.530   1.306   1.415 -0.9530 -0.0711 -1.5986
 1867SOL    MW4 7236   5.487   1.238   1.450  0.0736  0.2211 -0.4332
 1868SOL     OW 7237   0.765   2.019   4.425  0.6235  0.3068 -0.0299
 1868SOL    HW2 7238   0.741   2.106   4.391 -0.8280  0.1183  0.4389
 1868SOL    HW3 7239   0.785   2.035   4.518 -2.5810 -0.2405  0.8684
 1868SOL    MW4 7240   0.764   2.033   4.433 -0.1927  0.5142 -0.9746
 1869SOL     OW 7241   5.936   0.624   4.557 -0.2378  0.3799 -0.1322
 1869SOL    HW2 7242   5.954   0.613   4.464  0.6271 -1.6784  0.2265
 1869SOL    HW3 7243   5.933   0.719   4.570  0.4259  0.7139 -2.0970
 1869SOL    MW4 7244   5.938   0.635   4.547  0.9221  0.2909 -0.2597
 1870SOL     OW 7245   3.773   5.001   3.903  0.7630  0.2926 -0.4020
 1870SOL    HW2 7246   3.812   4.921   3.870 -0.4604 -0.9393  1.0167
 1870SOL    HW3 7247   3.695   5.015   3.848  0.8406  0.3834 -0.4903
 1870SOL    MW4 7248   3.768   4.993   3.891  0.6977 -0.0752 -0.0376
 1871SOL     OW 7249   3.026   1.438   1.932 -0.2560 -0.0527  0.1419
 1871SOL    HW2 7250   2.931   1.429   1.927 -0.1361 -1.1499 -0.5310
 1871SOL    HW3 7251   3.050   1.482   1.850 -0.3538  2.1973  1.2463
 1871SOL    MW4 7252   3.017   1.443   1.920 -0.2152 -0.3650  0.8233
 1872SOL     OW 7253   0.114   0.455   0.576 -0.2221 -0.0072  0.3280
 1872SOL    HW2 7254   0.154   0.500   0.502 -0.5652  2.6415  1.6062
 1872SOL    HW3 7255   0.184   0.449   0.641  0.3305 -3.0987 -0.3932
 1872SOL    MW4 7256   0.129   0.460   0.575 -0.2174 -0.1751 -0.4208
 1873SOL     OW 7257   6.106   6.324   2.863  0.0159 -0.7388  0.9319
 1873SOL    HW2 7258   6.200   6.321   2.881  0.1905  0.7940  0.3749
 1873SOL    HW3 7259   6.081   6.232   2.852  1.6320 -1.1294  0.1875
 1873SOL    MW4 7260   6.115   6.311   2.864 -0.6637  0.0683  0.7501
 1874SOL     OW 7261   1.921   6.023   3.682 -0.0831  0.3830  0.0841
 1874SOL    HW2 7262   2.007   5.981   3.693 -0.6781 -0.8245  0.3639
 1874SOL    HW3 7263   1.898   6.053   3.770 -0.8563 -1.1949  0.4576
 1874SOL    MW4 7264   1.929   6.021   3.695 -0.8626  0.0258  0.5444
 1875SOL     OW 7265   5.149   6.225   1.903  0.4402  0.7146 -0.1246
 1875SOL    HW2 7266   5.144   6.136   1.938 -1.0865  1.1610  0.8714
 1875SOL    HW3 7267   5.086   6.226   1.831 -0.9527  1.4394  1.0320
 1875SOL    MW4 7268   5.140   6.214   1.898  0.2109  0.1723  0.0923
 1876SOL     OW 7269   0.175   2.051   2.488  0.0224 -0.3751  0.2737
 1876SOL    HW2 7270   0.156   2.111   2.416 -1.7300 -1.3678 -0.1413
 1876SOL    HW3 7271   0.089   2.027   2.523  0.7940 -0.7597  2.0016
 1876SOL    MW4 7272   0.161   2.056   2.483 -0.6918  0.4044  0.8911
 1877SOL     OW 7273   0.713   4.319   4.462 -0.2605  0.0095 -0.1047
 1877SOL    HW2 7274   0.699   4.411   4.440 -1.6987  0.1520  1.1967
 1877SOL    HW3 7275   0.683   4.270   4.386 -0.1795  0.5884 -0.5139
 1877SOL    MW4 7276   0.707   4.324   4.449  0.1952 -0.2091 -0.1061
 1878SOL     OW 7277   1.451   6.303   2.529  0.0463 -0.5743 -0.3216
 1878SOL    HW2 7278   1.495   6.220   2.513  1.2872 -0.2639  1.1729
 1878SOL    HW3 7279   1.387   6.283   2.597  1.5723 -0.0354  1.3701
 1878SOL    MW4 7280   1.449   6.289   2.536 -0.0868 -0.0747  0.6203
 1879SOL     OW 7281   0.846   6.259   1.811  0.0831  0.0489  0.3175
 1879SOL    HW2 7282   0.812   6.178   1.773 -0.4111  0.5584 -0.3556
 1879SOL    HW3 7283   0.782   6.282   1.879 -0.5824  0.6320 -0.4745
 1879SOL    MW4 7284   0.833   6.251   1.815 -0.1661 -0.0622  0.0998
 1880SOL     OW 7285   2.035   1.536   4.662  0.4515 -0.0026 -0.2844
 1880SOL    HW2 7286   1.992   1.453   4.637  0.2287 -0.0182  0.1383
 1880SOL    HW3 7287   1.971   1.603   4.640 -0.2236 -0.0908  1.2445
 1880SOL    MW4 7288   2.021   1.534   4.656 -0.2604  0.1282 -0.2606
 1881SOL     OW 7289   0.041   5.199   0.110 -0.3136  0.3430 -0.2103
 1881SOL    HW2 7290   0.103   5.125   0.111 -1.5394 -0.7146  0.8614
 1881SOL    HW3 7291  -0.028   5.173   0.170 -1.5007  1.7845 -0.8974
 1881SOL    MW4 7292   0.040   5.186   0.118 -0.1595  0.1402  0.1222
 1882SOL     OW 7293   3.983   6.336   2.839 -0.0716  0.6490  0.0571
 1882SOL    HW2 7294   3.925   6.386   2.781 -0.5655  1.1404  0.9692
 1882SOL    HW3 7295   3.942   6.340   2.925  0.4179 -0.4663  0.3682
 1882SOL    MW4 7296   3.970   6.343   2.842 -0.0837  0.4125  0.2069
 1883SOL     OW 7297   1.051   0.745   4.401 -0.4141 -0.3885  0.3415
 1883SOL    HW2 7298   1.040   0.840   4.402 -0.7525 -0.4203  1.9831
 1883SOL    HW3 7299   0.961   0.710   4.403 -0.2877 -0.7528 -0.0784
 1883SOL    MW4 7300   1.037   0.753   4.401 -0.5860 -0.6851 -0.0601
 1884SOL     OW 7301   1.516   1.845   4.020 -0.5193  0.1966 -0.7800
 1884SOL    HW2 7302   1.475   1.762   3.994  1.2300 -1.2717  0.8356
 1884SOL    HW3 7303   1.595   1.850   3.966 -1.2491  1.5116 -1.7825
 1884SOL    MW4 7304   1.521   1.835   4.009 -0.0529  0.0577 -0.2672
 1885SOL     OW 7305   3.953   1.861   3.127  0.1202 -0.6165 -0.6908
 1885SOL    HW2 7306   3.942   1.913   3.207  0.5077 -0.0088 -1.0233
 1885SOL    HW3 7307   3.975   1.925   3.060 -1.0060 -1.0248 -1.4732
 1885SOL    MW4 7308   3.955   1.876   3.129 -0.9374 -0.2368 -0.1804
 1886SOL     OW 7309   5.337   5.282   4.505  0.1742 -0.5016 -0.1463
 1886SOL    HW2 7310   5.296   5.368   4.509 -0.3013 -0.6677 -1.0969
 1886SOL    HW3 7311   5.300   5.241   4.426 -1.5284 -2.5662  1.6069
 1886SOL    MW4 7312   5.327   5.288   4.495 -0.4012 -0.3666  0.6924
 1887SOL     OW 7313   1.133   3.560   5.692  0.1482 -1.1793  0.2667
 1887SOL    HW2 7314   1.217   3.518   5.709  0.2500 -1.2980 -0.4818
 1887SOL    HW3 7315   1.074   3.488   5.668  0.4093 -0.9049 -1.3452
 1887SOL    MW4 7316   1.136   3.545   5.691  0.0999 -0.4952 -0.5401
 1888SOL     OW 7317   4.092   6.301   3.617 -0.2152 -0.5293  0.4463
 1888SOL    HW2 7318   4.018   6.313   3.558 -1.0191  1.8222  1.7745
 1888SOL    HW3 7319   4.164   6.274   3.560 -1.0597  1.1577 -1.5761
 1888SOL    MW4 7320   4.092   6.299   3.602  0.8668 -0.0567 -0.1613
 1889SOL     OW 7321   1.251   2.166   2.897 -0.2656  0.2003  0.2427
 1889SOL    HW2 7322   1.293   2.251   2.909 -0.6226  0.2934  0.9038
 1889SOL    HW3 7323   1.165   2.176   2.937 -0.4548 -0.3621 -0.0072
 1889SOL    MW4 7324   1.245   2.178   2.904 -0.5909  0.1091 -0.1876
 1890SOL     OW 7325   5.359   1.391   3.626 -0.0346 -0.1900 -0.2150
 1890SOL    HW2 7326   5.338   1.317   3.683 -0.6233  0.4585  0.4519
 1890SOL    HW3 7327   5.454   1.389   3.617  0.0225 -0.5923  0.4015
 1890SOL    MW4 7328   5.368   1.381   3.633  0.1433 -0.2177  0.2134
 1891SOL     OW 7329   3.901   0.724   4.116 -0.5414 -0.1962  0.2568
 1891SOL    HW2 7330   3.933   0.813   4.134  0.3454 -0.4941  0.2022
 1891SOL    HW3 7331   3.935   0.704   4.028  0.7900 -1.2526  0.9851
 1891SOL    MW4 7332   3.910   0.733   4.106  0.1601 -0.2665 -0.3825
 1892SOL     OW 7333   4.670   1.100   3.484  0.6278  0.0029  0.6216
 1892SOL    HW2 7334   4.703   1.028   3.431  0.0780  0.3321 -0.2032
 1892SOL    HW3 7335   4.737   1.114   3.550  1.4465 -0.2891 -0.1196
 1892SOL    MW4 7336   4.683   1.093   3.485 -0.4028  0.4031 -0.4987
 1893SOL     OW 7337   3.165   4.799   0.039  0.2772  0.0908 -0.1430
 1893SOL    HW2 7338   3.091   4.802  -0.020  0.3025  2.2007 -0.1357
 1893SOL    HW3 7339   3.241   4.814  -0.017  0.4575  0.4347  0.1913
 1893SOL    MW4 7340   3.166   4.802   0.024  0.0812 -0.0592  0.5850
 1894SOL     OW 7341   4.461   4.680   4.095  0.5235 -0.1213  0.1612
 1894SOL    HW2 7342   4.388   4.626   4.125 -0.3556  0.6602 -0.4967
 1894SOL    HW3 7343   4.464   4.666   4.000  0.5207  0.6793  0.0296
 1894SOL    MW4 7344   4.452   4.671   4.086 -0.1010  0.6758 -0.1751
 1895SOL     OW 7345   3.852   6.378   3.090  0.2096 -0.2309  0.5744
 1895SOL    HW2 7346   3.776   6.437   3.089 -0.3361 -0.8811  1.7850
 1895SOL    HW3 7347   3.922   6.429   3.132 -0.2901 -0.4535  1.7113
 1895SOL    MW4 7348   3.851   6.393   3.095 -0.1487  0.6127  0.3484
 1896SOL     OW 7349   3.354   2.397   2.030  0.2869  0.2090 -0.6024
 1896SOL    HW2 7350   3.311   2.451   1.963 -0.7411 -1.3628 -1.2737
 1896SOL    HW3 7351   3.389   2.323   1.982 -0.2526 -0.8226  0.5519
 1896SOL    MW4 7352   3.353   2.395   2.015 -0.4120  0.7203  0.7612
 1897SOL     OW 7353   3.775   2.955   1.302  0.0972 -0.2974 -0.1683
 1897SOL    HW2 7354   3.763   3.045   1.333 -0.7590 -0.5205  0.1552
 1897SOL    HW3 7355   3.804   2.907   1.379 -0.8082 -0.5849  0.0069
 1897SOL    MW4 7356   3.777   2.961   1.316 -0.0210 -0.6088 -0.6247
 1898SOL     OW 7357   4.791   1.764   5.800  0.5099  0.0459  0.6640
 1898SOL    HW2 7358   4.829   1.833   5.746 -2.6094  0.9853 -0.5014
 1898SOL    HW3 7359   4.859   1.696   5.803  1.9416  1.2204 -1.9475
 1898SOL    MW4 7360   4.805   1.764   5.794  0.1297 -0.2449  0.4480
 1899SOL     OW 7361   2.145   4.428   5.886 -0.0073  0.4381 -0.0128
 1899SOL    HW2 7362   2.119   4.371   5.814 -3.9703  3.1548 -1.1127
 1899SOL    HW3 7363   2.075   4.417   5.951  1.3484  1.0295  1.6333
 1899SOL    MW4 7364   2.132   4.419   5.885 -0.1406 -0.0652  0.6640
 1900SOL     OW 7365   3.360   4.969   4.663  0.7166 -0.0484 -0.0291
 1900SOL    HW2 7366   3.352   5.022   4.742  0.2434  0.7713 -0.6101
 1900SOL    HW3 7367   3.387   5.031   4.595 -0.3483 -0.4330 -0.8311
 1900SOL    MW4 7368   3.363   4.984   4.665 -0.4762  0.1798  0.1256
 1901SOL     OW 7369   5.368   3.880   1.984 -0.3044  0.6094 -0.5520
 1901SOL    HW2 7370   5.278   3.855   1.963 -0.2946  1.6030 -1.9265
 1901SOL    HW3 7371   5.362   3.974   2.001  0.4614  0.6469 -0.4881
 1901SOL    MW4 7372   5.355   3.889   1.984  0.2842  0.1549  0.5885
 1902SOL     OW 7373   3.939   5.062   0.339  0.1762  0.2228 -0.0240
 1902SOL    HW2 7374   3.945   5.060   0.434 -0.2525 -1.0474 -0.0164
 1902SOL    HW3 7375   3.968   4.975   0.311  0.3622  0.6035 -1.0605
 1902SOL    MW4 7376   3.944   5.050   0.348 -0.1306  0.2085  0.5870
 1903SOL     OW 7377   0.577   0.725   5.977 -0.4420 -0.1239  0.4175
 1903SOL    HW2 7378   0.598   0.818   5.971 -1.7205  0.4251  2.8699
 1903SOL    HW3 7379   0.497   0.714   5.926  1.1442 -0.5105 -2.1177
 1903SOL    MW4 7380   0.569   0.736   5.970  0.2819 -0.2073 -0.0344
 1904SOL     OW 7381   5.785   4.215   6.299  0.0543  0.3029  0.3324
 1904SOL    HW2 7382   5.781   4.166   6.217  1.6924  0.9894 -0.2008
 1904SOL    HW3 7383   5.774   4.307   6.273  1.5548  0.6263  0.7094
 1904SOL    MW4 7384   5.783   4.221   6.284 -0.5089 -0.4932  0.2082
 1905SOL     OW 7385   1.194   1.098   2.725 -0.4159 -0.4547 -0.1871
 1905SOL    HW2 7386   1.180   1.136   2.812 -1.2258 -0.2985 -0.3868
 1905SOL    HW3 7387   1.289   1.087   2.720 -0.3589 -0.4881  0.7267
 1905SOL    MW4 7388   1.205   1.102   2.736 -0.2203 -0.5068 -0.8438
 1906SOL     OW 7389   0.830   2.570   0.345 -0.0089 -0.2266  0.4461
 1906SOL    HW2 7390   0.908   2.574   0.400  1.2438 -2.4728 -1.0219
 1906SOL    HW3 7391   0.792   2.484   0.363 -0.0976 -0.6374 -1.4524
 1906SOL    MW4 7392   0.835   2.559   0.355  0.0481  0.4643  0.0563
 1907SOL     OW 7393   5.029   4.271   5.186  0.4834  0.2331  0.4246
 1907SOL    HW2 7394   5.103   4.293   5.129  0.2059  2.1102  0.7309
 1907SOL    HW3 7395   5.038   4.330   5.261 -0.1671 -0.9621  1.4843
 1907SOL    MW4 7396   5.040   4.282   5.188  0.0059 -0.0824  0.5428
 1908SOL     OW 7397   3.333   0.206   0.705 -0.1189 -0.2530  0.1586
 1908SOL    HW2 7398   3.380   0.254   0.636 -0.0573  1.1568  1.1481
 1908SOL    HW3 7399   3.253   0.256   0.719  0.3850  0.1267  1.8771
 1908SOL    MW4 7400   3.329   0.219   0.698 -0.2664 -0.3758 -0.1219
 1909SOL     OW 7401   3.341   3.903   0.458 -0.2674  0.0088  0.3086
 1909SOL    HW2 7402   3.331   3.945   0.373 -0.9753  1.2138  0.9579
 1909SOL    HW3 7403   3.272   3.837   0.461 -0.0387 -0.2563 -0.1678
 1909SOL    MW4 7404   3.331   3.900   0.448  0.0661 -0.0424 -0.4051
 1910SOL     OW 7405   3.735   1.946   0.703  0.0963 -0.5708  0.4891
 1910SOL    HW2 7406   3.771   1.885   0.767  3.0089  0.8457  0.3667
 1910SOL    HW3 7407   3.692   2.013   0.756  0.0053 -0.8884  0.8196
 1910SOL    MW4 7408   3.734   1.947   0.719 -0.3712  0.4879  0.0897
 1911SOL     OW 7409   3.835   1.448   4.862 -0.2204  0.6714 -0.5950
 1911SOL    HW2 7410   3.906   1.385   4.866 -0.6384  0.0241 -2.4492
 1911SOL    HW3 7411   3.755   1.395   4.863 -0.5851  1.1613 -1.8299
 1911SOL    MW4 7412   3.833   1.433   4.863 -0.0251  0.0480  0.1537
 1912SOL     OW 7413   3.401   5.020   0.726  0.7353  0.2361  0.2971
 1912SOL    HW2 7414   3.318   5.067   0.724  1.6907  1.9892 -0.2522
 1912SOL    HW3 7415   3.384   4.939   0.679 -0.6118  0.6631  0.0093
 1912SOL    MW4 7416   3.388   5.016   0.720 -0.2465 -0.5093 -0.1782
 1913SOL     OW 7417   3.720   6.419   2.475 -0.0592 -0.3216  0.0019
 1913SOL    HW2 7418   3.802   6.376   2.451  1.4066  0.3412  3.2878
 1913SOL    HW3 7419   3.713   6.494   2.415  2.4737  0.3656  0.4733
 1913SOL    MW4 7420   3.730   6.423   2.464  0.2023 -0.9098  0.1403
 1914SOL     OW 7421   2.573   6.272   2.059 -0.2268  0.3176 -0.2548
 1914SOL    HW2 7422   2.567   6.232   1.973  1.6050 -2.0541  0.5865
 1914SOL    HW3 7423   2.503   6.231   2.110 -2.2046  2.7166 -0.8502
 1914SOL    MW4 7424   2.563   6.262   2.055  0.0928  0.5689 -0.4368
 1915SOL     OW 7425   3.145   2.510   4.514 -0.7279  0.2629 -0.4460
 1915SOL    HW2 7426   3.192   2.519   4.431 -0.0684  0.4517 -0.0599
 1915SOL    HW3 7427   3.132   2.416   4.524 -2.3008  0.3214 -1.5688
 1915SOL    MW4 7428   3.150   2.499   4.505 -0.3392 -0.2909 -0.2468
 1916SOL     OW 7429   2.940   4.167   4.730  0.0218  0.3021  0.5012
 1916SOL    HW2 7430   2.996   4.242   4.751 -0.3598  0.3723  1.2954
 1916SOL    HW3 7431   2.894   4.193   4.650  1.8691 -0.1728 -0.7824
 1916SOL    MW4 7432   2.941   4.180   4.722  0.7146 -0.1955 -0.2385
 1917SOL     OW 7433   1.546   0.817   1.016  0.6814 -0.1661 -0.0787
 1917SOL    HW2 7434   1.616   0.857   1.068  1.1138  0.5417 -1.1825
 1917SOL    HW3 7435   1.574   0.827   0.925 -0.7237 -0.1160 -0.5371
 1917SOL    MW4 7436   1.559   0.823   1.011 -0.4925  0.6796  0.1043
 1918SOL     OW 7437   5.904   1.007   6.049 -0.0237  0.1265  0.5005
 1918SOL    HW2 7438   5.868   0.951   6.117 -0.5171  1.7468  1.6196
 1918SOL    HW3 7439   5.965   1.064   6.095 -1.0391  1.8550 -0.2270
 1918SOL    MW4 7440   5.907   1.007   6.064  0.0900  0.4904 -0.2513
 1919SOL     OW 7441   3.216   5.476   1.391 -0.0585 -0.0398 -0.1314
 1919SOL    HW2 7442   3.311   5.464   1.384  0.2409  1.4635  0.7976
 1919SOL    HW3 7443   3.180   5.422   1.321  1.4588 -0.8593 -0.3389
 1919SOL    MW4 7444   3.224   5.467   1.381  0.2908  0.4742 -0.0736
 1920SOL     OW 7445   2.217   4.126   3.841  0.2407 -0.2817  0.5396
 1920SOL    HW2 7446   2.176   4.097   3.760  1.2136  0.2219 -0.1554
 1920SOL    HW3 7447   2.160   4.195   3.874  0.2754  0.0902 -0.1651
 1920SOL    MW4 7448   2.204   4.131   3.835  0.3128  0.1041  0.0909
 1921SOL     OW 7449   1.310   5.134   5.674 -0.1394 -0.2197 -0.1212
 1921SOL    HW2 7450   1.299   5.040   5.689 -0.4719 -0.0155  1.0321
 1921SOL    HW3 7451   1.336   5.141   5.582 -1.9746 -1.2851 -0.7628
 1921SOL    MW4 7452   1.312   5.123   5.664  0.4180  0.6048  0.5347
 1922SOL     OW 7453   2.797   1.661   0.718 -0.0967 -0.4719  0.2085
 1922SOL    HW2 7454   2.812   1.638   0.809  1.0444 -2.5538 -0.4273
 1922SOL    HW3 7455   2.762   1.581   0.678  1.0403 -0.1750 -1.5159
 1922SOL    MW4 7456   2.794   1.648   0.725  0.0532 -0.0372  0.4225
 1923SOL     OW 7457   3.089   4.212   0.287  0.0553 -0.2353  0.3574
 1923SOL    HW2 7458   3.122   4.263   0.360 -1.0094 -0.9919  1.4024
 1923SOL    HW3 7459   2.996   4.234   0.283  0.0736 -0.2912 -0.7121
 1923SOL    MW4 7460   3.081   4.222   0.296  0.2048 -0.0406 -0.3348
 1924SOL     OW 7461   6.342   0.599   3.393 -0.1678  0.0438 -0.2535
 1924SOL    HW2 7462   6.354   0.527   3.331 -2.0672 -0.0008 -0.6170
 1924SOL    HW3 7463   6.386   0.673   3.351  0.0695 -0.4041 -0.8235
 1924SOL    MW4 7464   6.349   0.599   3.379 -0.0303 -0.2954  0.6630
 1925SOL     OW 7465   6.432   3.521   4.909  0.5500 -0.7885  0.4582
 1925SOL    HW2 7466   6.401   3.518   4.819 -1.3812 -0.0997  1.0542
 1925SOL    HW3 7467   6.527   3.515   4.902  0.5284  0.3983 -1.6861
 1925SOL    MW4 7468   6.440   3.520   4.896  0.7849  0.1320 -0.1033
 1926SOL     OW 7469   6.035   4.433   2.039  0.5649  0.4314 -0.3470
 1926SOL    HW2 7470   5.984   4.487   1.979  2.1349  0.5602 -1.6506
 1926SOL    HW3 7471   5.990   4.349   2.040  0.9123  0.1657 -2.3906
 1926SOL    MW4 7472   6.022   4.429   2.031  0.0234  0.3907  0.2055
 1927SOL     OW 7473   1.656   1.749   2.680  0.2297  0.0974  0.0316
 1927SOL    HW2 7474   1.712   1.699   2.621  0.9473  2.3229 -1.2794
 1927SOL    HW3 7475   1.710   1.763   2.758  1.1505  1.2900 -0.7843
 1927SOL    MW4 7476   1.670   1.745   2.682 -0.3478  0.7160 -0.0563
 1928SOL     OW 7477   2.693   4.827   0.996 -0.6313 -0.6404  0.3271
 1928SOL    HW2 7478   2.605   4.863   0.991 -0.3157  0.2664  1.0272
 1928SOL    HW3 7479   2.731   4.866   1.074  0.0412 -1.8407  0.6244
 1928SOL    MW4 7480   2.687   4.837   1.006 -0.5997 -0.1184 -0.5454
 1929SOL     OW 7481   0.787   5.132   1.414 -0.0689 -0.1027 -0.3962
 1929SOL    HW2 7482   0.882   5.123   1.417  0.3895  2.3825 -3.0074
 1929SOL    HW3 7483   0.772   5.225   1.393 -2.9524 -0.8360 -2.2504
 1929SOL    MW4 7484   0.797   5.143   1.411 -0.8931 -0.7160  0.1249
 1930SOL     OW 7485   3.272   6.305   1.283 -0.1030 -0.0425 -0.3841
 1930SOL    HW2 7486   3.264   6.211   1.265 -0.3462  0.3507 -2.6871
 1930SOL    HW3 7487   3.361   6.327   1.256 -0.1794  0.4564 -0.2368
 1930SOL    MW4 7488   3.283   6.295   1.277  0.5313 -0.1124  0.4011
 1931SOL     OW 7489   3.826   5.056   4.869 -0.4605 -0.4358  0.4418
 1931SOL    HW2 7490   3.782   5.117   4.927 -1.0318 -0.3444 -0.0781
 1931SOL    HW3 7491   3.757   4.999   4.835 -0.1417 -0.4923 -0.1390
 1931SOL    MW4 7492   3.811   5.056   4.872 -0.4087  0.1209 -0.5784
 1932SOL     OW 7493   5.038   1.321   3.279  0.7598  0.2260  0.2903
 1932SOL    HW2 7494   5.066   1.358   3.195  1.5776 -2.3178 -0.6335
 1932SOL    HW3 7495   4.959   1.272   3.258  2.0339 -2.0347  0.5480
 1932SOL    MW4 7496   5.032   1.320   3.265 -0.0147 -0.4971  0.2560
 1933SOL     OW 7497   5.707   1.097   5.261 -0.0112 -0.2186  0.0796
 1933SOL    HW2 7498   5.656   1.127   5.337  0.1622 -2.0818  0.9758
 1933SOL    HW3 7499   5.714   1.003   5.273  0.8443 -0.4230 -1.7837
 1933SOL    MW4 7500   5.701   1.089   5.273 -0.3193  0.7245 -0.3321
 1934SOL     OW 7501   5.434   3.158   1.876 -0.2605  0.2354 -0.2854
 1934SOL    HW2 7502   5.522   3.150   1.914 -0.0767  1.8866 -0.2841
 1934SOL    HW3 7503   5.415   3.071   1.841  1.7369  0.0422 -1.0489
 1934SOL    MW4 7504   5.443   3.145   1.876  0.3615 -0.1003 -0.3478
 1935SOL     OW 7505   4.015   2.362   5.048  0.0439  0.6146 -0.1970
 1935SOL    HW2 7506   4.053   2.434   4.997 -1.1107  0.8239 -0.7994
 1935SOL    HW3 7507   3.965   2.406   5.117  1.1148  0.3383  0.7766
 1935SOL    MW4 7508   4.013   2.377   5.051 -0.2025  0.2332 -0.2281
 1936SOL     OW 7509   3.863   5.271   3.886 -0.0895  0.1368  0.2093
 1936SOL    HW2 7510   3.955   5.291   3.866 -0.8688  1.4812 -2.7083
 1936SOL    HW3 7511   3.854   5.178   3.869  0.3614  0.3746 -1.5444
 1936SOL    MW4 7512   3.874   5.262   3.881  0.2495  0.3379  0.6528
 1937SOL     OW 7513   0.281   2.271   5.961 -0.3971 -0.2121  0.2423
 1937SOL    HW2 7514   0.366   2.251   5.921 -0.6717 -0.0838 -0.4131
 1937SOL    HW3 7515   0.273   2.206   6.032  0.7160  0.4398  1.0149
 1937SOL    MW4 7516   0.291   2.260   5.965 -0.3176  0.2456  0.3568
 1938SOL     OW 7517   0.282   2.941   1.068  0.3650  0.0766 -0.2423
 1938SOL    HW2 7518   0.337   2.999   1.122  0.2264 -0.6755  0.7432
 1938SOL    HW3 7519   0.322   2.855   1.078 -1.0340 -0.5161  0.6087
 1938SOL    MW4 7520   0.294   2.938   1.077 -0.2606 -0.8100 -0.6854
 1939SOL     OW 7521   4.018   4.804   3.120 -0.0465  0.4071 -0.1724
 1939SOL    HW2 7522   4.105   4.768   3.103  0.9328  2.0599  1.0713
 1939SOL    HW3 7523   4.023   4.894   3.087 -1.2019  0.6028  0.1727
 1939SOL    MW4 7524   4.030   4.811   3.113  0.3437 -0.4689  0.1367
 1940SOL     OW 7525   0.273   1.316   3.563  0.2211 -0.2007 -0.4989
 1940SOL    HW2 7526   0.293   1.290   3.653 -0.2436  0.9630 -0.0389
 1940SOL    HW3 7527   0.289   1.410   3.561 -0.8947 -0.0082 -1.3103
 1940SOL    MW4 7528   0.278   1.325   3.574 -0.4489 -0.6172  0.0603
 1941SOL     OW 7529   1.009   5.436   4.583 -0.0170  0.2932 -0.3293
 1941SOL    HW2 7530   1.025   5.346   4.554 -1.1226 -0.4772  1.2383
 1941SOL    HW3 7531   1.077   5.453   4.648 -0.4701  0.1293  0.2060
 1941SOL    MW4 7532   1.020   5.426   4.588  0.1545  0.1685 -0.0923
 1942SOL     OW 7533   3.041   1.568   5.064 -0.6513 -0.4260 -0.2447
 1942SOL    HW2 7534   3.082   1.646   5.103 -1.8213 -0.4113  1.0104
 1942SOL    HW3 7535   3.059   1.498   5.127  0.6222 -1.2666 -1.4955
 1942SOL    MW4 7536   3.049   1.569   5.078  0.2017  0.3316 -0.2209
 1943SOL     OW 7537   0.717   1.360   4.067 -0.3397  0.7253 -0.4361
 1943SOL    HW2 7538   0.671   1.406   4.137  0.8253  0.2651  0.6649
 1943SOL    HW3 7539   0.802   1.338   4.104  0.6388  1.1848 -2.2839
 1943SOL    MW4 7540   0.722   1.363   4.081 -0.0205 -0.1499  0.0261
 1944SOL     OW 7541   0.583   1.110   4.131 -0.5471  0.2066 -0.0712
 1944SOL    HW2 7542   0.639   1.181   4.101  0.5935 -0.4806  0.3530
 1944SOL    HW3 7543   0.551   1.069   4.050  0.0548  0.2314 -0.3257
 1944SOL    MW4 7544   0.586   1.114   4.116  0.2072 -0.0532  0.3296
 1945SOL     OW 7545   0.076   4.843   2.777 -0.2531 -0.5195  0.0778
 1945SOL    HW2 7546   0.113   4.762   2.744 -2.7347 -1.2718 -1.1084
 1945SOL    HW3 7547   0.062   4.897   2.699 -0.1111  0.3973  0.6673
 1945SOL    MW4 7548   0.079   4.840   2.762 -0.1096 -0.4259  0.1635
 1946SOL     OW 7549   1.186   0.156   0.816 -0.3651  0.1784  0.0178
 1946SOL    HW2 7550   1.148   0.071   0.795 -0.0813 -0.2797  1.3010
 1946SOL    HW3 7551   1.253   0.137   0.881 -0.0627  1.3489  0.0676
 1946SOL    MW4 7552   1.190   0.142   0.821 -0.3768 -0.2627  0.3028
 1947SOL     OW 7553   6.270   6.303   1.090  0.1484  0.1960 -0.1499
 1947SOL    HW2 7554   6.235   6.315   1.179  0.0952  1.7681 -0.3485
 1947SOL    HW3 7555   6.331   6.230   1.098 -0.2138  0.0029  1.0835
 1947SOL    MW4 7556   6.273   6.295   1.103  0.1701  0.0406 -0.1351
 1948SOL     OW 7557   1.818   4.909   3.127 -0.3586  0.5769 -0.1200
 1948SOL    HW2 7558   1.796   4.966   3.200  0.5246 -0.1590  0.7378
 1948SOL    HW3 7559   1.890   4.955   3.082  0.4707  0.0807  0.6709
 1948SOL    MW4 7560   1.825   4.923   3.131  0.4939  0.4553  0.3675
 1949SOL     OW 7561   1.551   5.896   3.200  0.1214  0.3008 -0.0291
 1949SOL    HW2 7562   1.638   5.899   3.239  0.2555 -0.1652 -0.2937
 1949SOL    HW3 7563   1.553   5.961   3.131  0.8731 -1.0145 -1.2914
 1949SOL    MW4 7564   1.563   5.905   3.196 -0.0170 -0.5078 -0.4637
 1950SOL     OW 7565   5.131   2.090   1.268 -0.1795 -0.0807 -0.2769
 1950SOL    HW2 7566   5.163   2.008   1.230 -1.5712 -0.5247 -0.5220
 1950SOL    HW3 7567   5.195   2.111   1.336 -0.1756 -1.7496  0.2831
 1950SOL    MW4 7568   5.144   2.082   1.272  0.4184 -0.1698  0.0690
 1951SOL     OW 7569   1.619   3.926   6.157 -0.0185 -0.4683 -0.0331
 1951SOL    HW2 7570   1.547   3.989   6.154 -0.2402 -0.6722  0.6629
 1951SOL    HW3 7571   1.576   3.841   6.157  0.3020 -0.6700 -1.7435
 1951SOL    MW4 7572   1.604   3.923   6.157  0.6055  0.3990  0.1975
 1952SOL     OW 7573   5.595   0.553   5.886  0.3372  0.2570  0.1809
 1952SOL    HW2 7574   5.647   0.485   5.842  0.8247 -0.4343  1.7351
 1952SOL    HW3 7575   5.516   0.562   5.832 -0.0268 -2.0140  0.2264
 1952SOL    MW4 7576   5.591   0.545   5.874  0.6640 -0.2059 -0.4998
 1953SOL     OW 7577   4.908   6.249   3.711 -0.4525  0.4951  0.3387
 1953SOL    HW2 7578   4.884   6.334   3.748  0.2872  1.1549 -0.6446
 1953SOL    HW3 7579   4.902   6.262   3.616 -0.6754 -0.6649  0.1808
 1953SOL    MW4 7580   4.904   6.262   3.703  0.2002  0.5692  0.5834
 1954SOL     OW 7581   0.334   2.890   2.548 -0.2813 -0.3727  0.2204
 1954SOL    HW2 7582   0.313   2.976   2.584 -2.0471  0.3987 -2.3540
 1954SOL    HW3 7583   0.417   2.903   2.502  0.4456 -0.5973  1.4242
 1954SOL    MW4 7584   0.342   2.903   2.546 -0.0069  0.1486  0.1197
 1955SOL     OW 7585   2.010   3.769   4.219  0.0271 -0.2299  0.0448
 1955SOL    HW2 7586   2.043   3.680   4.209  0.4903 -0.0026 -0.4714
 1955SOL    HW3 7587   2.048   3.817   4.145  0.4467  0.5889  0.7806
 1955SOL    MW4 7588   2.019   3.764   4.208  0.4103  0.1658 -0.3120
 1956SOL     OW 7589   3.249   4.641   0.840 -0.3690  0.1813  0.2556
 1956SOL    HW2 7590   3.325   4.632   0.898  0.2640  1.5809 -0.3073
 1956SOL    HW3 7591   3.257   4.569   0.778  0.2685  0.0718  0.4641
 1956SOL    MW4 7592   3.260   4.630   0.839 -0.1249 -0.6260 -0.1464
 1957SOL     OW 7593   0.229   0.458   5.788  0.3892 -0.1815 -0.6483
 1957SOL    HW2 7594   0.232   0.474   5.882 -1.1364 -0.6997 -0.4791
 1957SOL    HW3 7595   0.273   0.533   5.749 -0.1341  0.7127  0.4311
 1957SOL    MW4 7596   0.235   0.470   5.795 -0.0628 -0.1581  0.2548
 1958SOL     OW 7597   5.912   2.151   5.270 -0.1948 -0.6714 -0.1166
 1958SOL    HW2 7598   5.913   2.156   5.175  1.5121 -0.6115 -0.1166
 1958SOL    HW3 7599   5.930   2.059   5.290  1.5027 -0.3123  0.1386
 1958SOL    MW4 7600   5.914   2.140   5.260 -0.0532 -0.0301  0.0484
 1959SOL     OW 7601   0.150   2.317   6.304 -0.4142 -0.2169 -0.5265
 1959SOL    HW2 7602   0.162   2.412   6.296 -0.0897 -0.1562  0.6304
 1959SOL    HW3 7603   0.058   2.303   6.280 -1.6080  0.8785  2.9105
 1959SOL    MW4 7604   0.139   2.328   6.300 -0.2669  0.0428 -0.3637
 1960SOL     OW 7605   4.958   5.277   3.119  0.3388 -0.6186 -0.0280
 1960SOL    HW2 7606   4.955   5.239   3.207  1.5034  0.5769  0.5584
 1960SOL    HW3 7607   5.043   5.249   3.084  1.2271  1.3610  0.4157
 1960SOL    MW4 7608   4.969   5.268   3.126 -0.1563  0.0942  0.4375
 1961SOL     OW 7609   0.361   5.120   3.453 -0.5421  0.1627 -0.3777
 1961SOL    HW2 7610   0.446   5.153   3.483  0.1408 -0.1669 -1.8710
 1961SOL    HW3 7611   0.307   5.120   3.532  1.0570 -0.3365  0.7791
 1961SOL    MW4 7612   0.365   5.124   3.467 -0.2152  0.3514 -0.0641
 1962SOL     OW 7613   5.282   3.732   6.281  0.1901  0.0311 -0.6307
 1962SOL    HW2 7614   5.297   3.661   6.219  0.5455 -0.5415  0.1105
 1962SOL    HW3 7615   5.217   3.698   6.342  0.5119  0.2705 -0.1510
 1962SOL    MW4 7616   5.275   3.718   6.281 -0.4011  0.9979 -0.1289
 1963SOL     OW 7617   4.965   0.303   1.282 -0.2107 -0.1638  0.1639
 1963SOL    HW2 7618   5.015   0.225   1.306  2.0960  1.5623  1.4321
 1963SOL    HW3 7619   5.012   0.339   1.207 -2.0721 -0.6680 -1.3021
 1963SOL    MW4 7620   4.978   0.297   1.275 -0.4991  0.5289 -0.2191
 1964SOL     OW 7621   0.562   0.376   4.542 -0.5583  0.1762 -0.0965
 1964SOL    HW2 7622   0.638   0.357   4.597 -1.5623 -0.1887  1.2182
 1964SOL    HW3 7623   0.500   0.305   4.561 -1.6713  1.0683 -0.2876
 1964SOL    MW4 7624   0.564   0.364   4.552 -0.5034 -0.1432  0.5250
 1965SOL     OW 7625   1.621   5.867   0.445 -0.4952 -0.2665 -0.6670
 1965SOL    HW2 7626   1.543   5.825   0.480 -0.7803 -0.0682 -1.0679
 1965SOL    HW3 7627   1.676   5.795   0.415 -0.1688 -0.4535  0.3445
 1965SOL    MW4 7628   1.618   5.852   0.446 -0.0300 -0.2861  0.8828
 1966SOL     OW 7629   3.189   4.337   3.346 -0.4237 -0.4957 -0.1032
 1966SOL    HW2 7630   3.273   4.304   3.315  0.5633  1.3959  0.4037
 1966SOL    HW3 7631   3.137   4.347   3.267  0.4553 -0.0576 -0.6448
 1966SOL    MW4 7632   3.193   4.334   3.332 -0.7131  0.1049  0.1614
 1967SOL     OW 7633   2.470   2.812   4.755  0.1330  0.5033  0.1214
 1967SOL    HW2 7634   2.504   2.755   4.686  1.0485 -0.0267  0.9884
 1967SOL    HW3 7635   2.520   2.893   4.746  2.1883 -0.4828  1.7779
 1967SOL    MW4 7636   2.481   2.815   4.745  0.0974 -0.5558 -0.2101
 1968SOL     OW 7637   0.317   5.913   5.297  0.2385  0.2518  0.1841
 1968SOL    HW2 7638   0.408   5.942   5.298  0.1662  0.5102 -0.2787
 1968SOL    HW3 7639   0.268   5.986   5.338  0.2679 -0.0054  0.6890
 1968SOL    MW4 7640   0.322   5.927   5.303 -0.3216 -0.1666  0.2064
 1969SOL     OW 7641   3.716   2.617   3.880 -0.4743 -0.0575 -0.3655
 1969SOL    HW2 7642   3.802   2.601   3.918 -0.3211 -2.4457 -1.5476
 1969SOL    HW3 7643   3.702   2.544   3.819 -2.9138  0.7952 -0.9598
 1969SOL    MW4 7644   3.725   2.605   3.877  0.5725 -0.1305  0.2847
 1970SOL     OW 7645   3.146   3.053   4.773 -0.0253  0.2725  0.0689
 1970SOL    HW2 7646   3.105   3.138   4.789  0.4536  0.6895 -0.8395
 1970SOL    HW3 7647   3.079   2.989   4.798  0.0590  0.8816  1.9722
 1970SOL    MW4 7648   3.131   3.056   4.778  0.1222  0.1342  0.4609
 1971SOL     OW 7649   3.583   0.930   4.899 -0.5874 -0.7268  0.3222
 1971SOL    HW2 7650   3.579   0.849   4.950 -1.4463  0.5692  2.4570
 1971SOL    HW3 7651   3.584   1.000   4.965  0.9345  1.0097 -1.4264
 1971SOL    MW4 7652   3.582   0.928   4.915  0.3197 -0.1169  0.1554
 1972SOL     OW 7653   4.535   6.161   2.958  0.6498 -0.0220  0.0751
 1972SOL    HW2 7654   4.616   6.204   2.929  1.4634 -1.1013  0.6599
 1972SOL    HW3 7655   4.518   6.095   2.891  0.5014 -0.1040  0.1948
 1972SOL    MW4 7656   4.544   6.158   2.945  0.7268  0.1305  0.2665
 1973SOL     OW 7657   4.136   1.539   3.723  0.1673  0.3134  0.1770
 1973SOL    HW2 7658   4.112   1.589   3.645 -0.2160 -0.5619 -0.2744
 1973SOL    HW3 7659   4.052   1.520   3.765 -0.1175 -3.0884 -1.6032
 1973SOL    MW4 7660   4.122   1.543   3.718 -0.0219  0.2913 -0.0838
 1974SOL     OW 7661   2.648   0.488   2.952 -0.0917 -0.3538 -0.2676
 1974SOL    HW2 7662   2.742   0.478   2.940 -0.0707 -1.7228  0.7011
 1974SOL    HW3 7663   2.634   0.466   3.044 -1.1741  1.4319  0.0245
 1974SOL    MW4 7664   2.658   0.483   2.962 -0.0735  0.0153 -0.1771
 1975SOL     OW 7665   0.024   5.746   2.732 -0.5280 -0.2418 -0.2430
 1975SOL    HW2 7666  -0.016   5.823   2.693  0.3784 -0.7270 -2.2460
 1975SOL    HW3 7667  -0.044   5.709   2.789 -1.6387  0.9345 -0.7768
 1975SOL    MW4 7668   0.009   5.751   2.734  0.1217  0.7363 -0.3656
 1976SOL     OW 7669   5.455   4.012   0.941 -0.2696 -0.0567  0.9510
 1976SOL    HW2 7670   5.403   4.080   0.984 -0.8198  0.2594 -0.1630
 1976SOL    HW3 7671   5.544   4.026   0.972 -0.4980  0.7347  1.2698
 1976SOL    MW4 7672   5.460   4.023   0.950 -0.0153 -0.0024 -0.2745
 1977SOL     OW 7673   2.549   1.253   3.727 -0.2726 -0.2471 -0.2499
 1977SOL    HW2 7674   2.568   1.179   3.785  0.4657  0.3961  0.3514
 1977SOL    HW3 7675   2.578   1.223   3.640 -2.1202 -1.5193 -0.5018
 1977SOL    MW4 7676   2.555   1.239   3.723 -0.2899  0.0467  0.3224
 1978SOL     OW 7677   6.027   2.947   3.454 -0.0565  0.4286 -0.5139
 1978SOL    HW2 7678   5.932   2.949   3.461 -0.0271  1.2262 -0.2439
 1978SOL    HW3 7679   6.046   2.993   3.372  0.1604  1.7002  0.2297
 1978SOL    MW4 7680   6.017   2.953   3.444  0.3401 -0.5868 -0.0313
 1979SOL     OW 7681   0.076   0.202   2.503 -0.1032 -0.0773 -0.5675
 1979SOL    HW2 7682  -0.007   0.157   2.492  0.4244 -2.0854  2.4262
 1979SOL    HW3 7683   0.053   0.287   2.541 -0.8492 -0.0443 -1.0779
 1979SOL    MW4 7684   0.062   0.207   2.507  0.3487 -0.1793  0.6341
 1980SOL     OW 7685   2.516   0.328   2.774  0.7268 -0.4206 -0.1772
 1980SOL    HW2 7686   2.481   0.391   2.711 -0.0023 -1.6050 -0.9900
 1980SOL    HW3 7687   2.572   0.380   2.832  0.4578  0.8910 -1.0666
 1980SOL    MW4 7688   2.519   0.343   2.774 -0.4832  0.6657  0.2970
 1981SOL     OW 7689   3.418   6.278   4.144  0.7372  0.3879  0.1973
 1981SOL    HW2 7690   3.403   6.193   4.103 -1.2621  1.3796 -1.2694
 1981SOL    HW3 7691   3.468   6.327   4.079  0.2431  0.9485  0.2326
 1981SOL    MW4 7692   3.423   6.273   4.130 -0.6371 -0.2974 -0.1840
 1982SOL     OW 7693   5.721   4.396   2.143  0.0115 -0.2082 -0.0420
 1982SOL    HW2 7694   5.660   4.328   2.169  0.2624 -0.2079  0.5620
 1982SOL    HW3 7695   5.719   4.459   2.214 -0.3076  0.4873 -0.6501
 1982SOL    MW4 7696   5.713   4.395   2.155 -0.0922  0.1404 -0.1271
 1983SOL     OW 7697   3.683   1.688   2.505 -0.0515  0.2107 -0.1666
 1983SOL    HW2 7698   3.705   1.654   2.419 -0.4116 -0.6017  0.0506
 1983SOL    HW3 7699   3.693   1.613   2.564  4.2944  1.5898  1.2777
 1983SOL    MW4 7700   3.687   1.674   2.502  0.2963  0.2944 -0.5490
 1984SOL     OW 7701   3.970   3.480   4.965  0.4163  0.1592 -0.1961
 1984SOL    HW2 7702   4.042   3.456   4.907  1.8171  0.9141  1.1746
 1984SOL    HW3 7703   3.892   3.476   4.909  1.3335 -1.8041 -1.4457
 1984SOL    MW4 7704   3.969   3.476   4.950 -0.1324 -0.5513 -0.8463
 1985SOL     OW 7705   3.488   6.093   2.483  0.5860 -0.1609  0.3117
 1985SOL    HW2 7706   3.468   6.187   2.476  0.1167 -0.2669  0.2156
 1985SOL    HW3 7707   3.433   6.062   2.555 -2.5434 -1.2285 -2.3092
 1985SOL    MW4 7708   3.478   6.101   2.492 -0.0891  0.4438 -0.3439
 1986SOL     OW 7709   1.864   3.732   3.601  0.2471  0.1303 -0.0385
 1986SOL    HW2 7710   1.796   3.666   3.590 -0.4511  1.0791 -1.7499
 1986SOL    HW3 7711   1.897   3.748   3.513  1.8603  0.5700  0.6108
 1986SOL    MW4 7712   1.860   3.725   3.588  0.4014 -0.0572  0.9423
 1987SOL     OW 7713   6.283   0.840   5.502  0.6612  0.0511 -0.4801
 1987SOL    HW2 7714   6.308   0.906   5.437 -0.1503  2.1878  1.2542
 1987SOL    HW3 7715   6.191   0.859   5.521  0.2170 -2.0328 -0.4078
 1987SOL    MW4 7716   6.274   0.852   5.496  0.0753 -0.3989  0.1455
 1988SOL     OW 7717   3.449   0.325   2.432  0.5365 -0.0271  0.2985
 1988SOL    HW2 7718   3.470   0.284   2.516 -2.0376 -0.2901  0.8994
 1988SOL    HW3 7719   3.495   0.409   2.434 -0.4633  0.5633  2.6162
 1988SOL    MW4 7720   3.458   0.331   2.444  0.0898  0.0412  0.4931
 1989SOL     OW 7721   1.208   4.760   3.327 -0.6420  0.2953 -0.7121
 1989SOL    HW2 7722   1.179   4.762   3.418 -0.9958 -0.7690 -0.7966
 1989SOL    HW3 7723   1.141   4.710   3.281  0.9569 -1.6498 -1.0339
 1989SOL    MW4 7724   1.196   4.754   3.333  0.0918  0.4823  0.5990
 1990SOL     OW 7725   0.354   1.327   5.861  0.2585  0.1678 -0.1395
 1990SOL    HW2 7726   0.412   1.403   5.853  1.9091 -0.8604  1.3714
 1990SOL    HW3 7727   0.412   1.252   5.848 -0.9350 -0.8895  0.4957
 1990SOL    MW4 7728   0.369   1.328   5.858 -0.1532 -0.8506 -0.1948
 1991SOL     OW 7729   2.708   3.316   3.418 -0.2010  0.1455 -0.6578
 1991SOL    HW2 7730   2.696   3.253   3.489 -0.0431 -0.3156 -1.0323
 1991SOL    HW3 7731   2.792   3.293   3.379  1.3628  2.4714  1.0675
 1991SOL    MW4 7732   2.717   3.305   3.422  0.1456  0.7903  0.8628
 1992SOL     OW 7733   4.756   6.332   2.619  0.2578 -0.3600 -0.2828
 1992SOL    HW2 7734   4.685   6.269   2.609 -1.5035  0.8353  3.0755
 1992SOL    HW3 7735   4.805   6.301   2.696  0.6766  1.1655  0.0974
 1992SOL    MW4 7736   4.753   6.320   2.628 -0.0899  0.4884  1.0630
 1993SOL     OW 7737   1.211   5.130   3.536 -0.7182  0.0225 -0.8907
 1993SOL    HW2 7738   1.254   5.214   3.546 -0.6281  0.0653 -1.6050
 1993SOL    HW3 7739   1.275   5.066   3.569 -0.2563  0.1222 -1.5632
 1993SOL    MW4 7740   1.225   5.132   3.542  0.3081  0.0076  0.6287
 1994SOL     OW 7741   2.481   3.400   6.205  0.0865  0.8307 -0.2993
 1994SOL    HW2 7742   2.461   3.335   6.138 -0.7304  1.0172 -0.2482
 1994SOL    HW3 7743   2.569   3.430   6.185  0.6256 -0.5559 -0.1117
 1994SOL    MW4 7744   2.490   3.395   6.194 -0.3063  0.2940  0.4389
 1995SOL     OW 7745   0.183   4.243   2.102  0.2827  0.1997 -0.2830
 1995SOL    HW2 7746   0.180   4.307   2.031  1.4180 -1.2762 -1.7639
 1995SOL    HW3 7747   0.269   4.202   2.093 -0.2359 -1.2317  0.8692
 1995SOL    MW4 7748   0.194   4.246   2.092 -0.1162  0.8251 -0.5054
 1996SOL     OW 7749   1.264   3.392   3.664 -0.2868 -0.6893  0.0319
 1996SOL    HW2 7750   1.177   3.352   3.660 -0.8904  0.6125 -0.2242
 1996SOL    HW3 7751   1.255   3.474   3.616  0.1732  1.0886  2.7667
 1996SOL    MW4 7752   1.252   3.398   3.657  0.2436 -0.0575 -0.1027
 1997SOL     OW 7753   2.648   1.813   4.815  0.1718 -0.0443  0.0187
 1997SOL    HW2 7754   2.683   1.760   4.887 -1.1637 -0.0912  0.6712
 1997SOL    HW3 7755   2.725   1.853   4.775  0.9113  0.7670  2.0923
 1997SOL    MW4 7756   2.663   1.811   4.820 -0.5395  0.2825  0.9882
 1998SOL     OW 7757   3.580   3.224   3.078 -0.0341  0.2438 -0.1087
 1998SOL    HW2 7758   3.633   3.222   3.158 -1.4022  0.6920  0.8499
 1998SOL    HW3 7759   3.608   3.305   3.034 -1.8527  2.0827  1.8466
 1998SOL    MW4 7760   3.591   3.235   3.083  0.8979 -0.4854 -0.0884
 1999SOL     OW 7761   0.423   3.128   1.800 -0.3256 -0.0357  0.1829
 1999SOL    HW2 7762   0.409   3.089   1.887  2.1580  0.2274  0.7581
 1999SOL    HW3 7763   0.513   3.159   1.801 -1.2147  3.0019 -1.3511
 1999SOL    MW4 7764   0.433   3.127   1.812 -0.0061 -0.1314 -0.0590
 2000SOL     OW 7765   1.421   2.797   5.245 -0.5527  0.0215 -0.0311
 2000SOL    HW2 7766   1.502   2.846   5.254 -0.7003  0.3758 -0.5686
 2000SOL    HW3 7767   1.439   2.731   5.178 -0.8804  0.4983 -0.6055
 2000SOL    MW4 7768   1.434   2.795   5.237 -0.0733  0.2445 -0.1481
 2001SOL     OW 7769   0.035   4.100   1.530  0.3159  0.1277 -0.9145
 2001SOL    HW2 7770   0.047   4.191   1.503 -2.8902  0.8206 -0.3743
 2001SOL    HW3 7771   0.031   4.105   1.626  2.6196 -1.0356 -0.6790
 2001SOL    MW4 7772   0.036   4.113   1.539 -0.2016  0.3579  0.4152
 2002SOL     OW 7773   3.124   3.813   5.028  0.1672  0.3630  0.5775
 2002SOL    HW2 7774   3.066   3.814   5.104 -1.1283 -1.6172 -0.2818
 2002SOL    HW3 7775   3.210   3.789   5.063 -0.3927 -0.4280  1.4584
 2002SOL    MW4 7776   3.128   3.810   5.042 -0.1143 -0.5704  0.0807
 2003SOL     OW 7777   3.025   5.232   5.636 -0.7383 -0.1263 -0.2739
 2003SOL    HW2 7778   3.096   5.198   5.581 -1.7308 -2.7443 -0.1038
 2003SOL    HW3 7779   3.068   5.287   5.701  0.7521  0.8263 -1.9726
 2003SOL    MW4 7780   3.040   5.235   5.637  0.0343  0.2167  0.3129
 2004SOL     OW 7781   4.784   5.486   0.618 -0.1719 -0.6051  0.0368
 2004SOL    HW2 7782   4.842   5.556   0.647  0.9424 -0.9385 -1.2989
 2004SOL    HW3 7783   4.842   5.413   0.598 -1.1588 -1.3291 -0.3002
 2004SOL    MW4 7784   4.799   5.486   0.619 -0.1546 -0.2036  0.4541
 2005SOL     OW 7785   2.765   2.187   3.161  0.1258 -0.7863  0.2698
 2005SOL    HW2 7786   2.764   2.126   3.235  1.8624 -2.4553 -1.0101
 2005SOL    HW3 7787   2.857   2.198   3.140 -0.1439  2.0143  0.1436
 2005SOL    MW4 7788   2.777   2.181   3.168  0.3910 -0.2924  0.5225
 2006SOL     OW 7789   3.500   5.719   1.765 -0.2509 -0.1460 -0.6805
 2006SOL    HW2 7790   3.492   5.642   1.709 -0.7081  0.1087 -0.9629
 2006SOL    HW3 7791   3.501   5.683   1.854 -0.8565 -0.4488 -0.7938
 2006SOL    MW4 7792   3.499   5.704   1.770  0.2889  0.1433  0.2823
 2007SOL     OW 7793   6.437   4.276   1.268  0.2136  0.1971 -0.0867
 2007SOL    HW2 7794   6.397   4.362   1.283 -1.2718 -0.2461 -1.2482
 2007SOL    HW3 7795   6.509   4.293   1.207  0.7291  0.7785  0.6743
 2007SOL    MW4 7796   6.441   4.290   1.262 -0.3000  0.1061 -0.4394
 2008SOL     OW 7797   1.282   4.179   5.812 -0.5098  0.1721 -0.5635
 2008SOL    HW2 7798   1.262   4.085   5.809  1.0971 -0.2652  0.8132
 2008SOL    HW3 7799   1.336   4.194   5.735  0.7419 -0.4744  0.1472
 2008SOL    MW4 7800   1.287   4.168   5.802 -0.5047 -0.0137 -0.6331
 2009SOL     OW 7801   4.224   5.112   1.976 -0.1958  0.0580 -0.4305
 2009SOL    HW2 7802   4.138   5.109   1.935  0.1472  0.0953 -1.1666
 2009SOL    HW3 7803   4.255   5.201   1.962  1.0110 -0.5977 -2.4243
 2009SOL    MW4 7804   4.217   5.123   1.968  0.0189 -0.0686  0.1360
 2010SOL     OW 7805   5.447   2.919   1.150  0.2778  0.1457  0.0240
 2010SOL    HW2 7806   5.404   2.889   1.230 -0.5398 -0.2939 -0.5667
 2010SOL    HW3 7807   5.533   2.876   1.152 -0.3184 -1.0920 -0.0858
 2010SOL    MW4 7808   5.453   2.909   1.161  0.0658 -0.1185  0.3629
 2011SOL     OW 7809   3.310   0.841   5.465 -0.7204 -0.2651  0.2275
 2011SOL    HW2 7810   3.388   0.894   5.450 -0.1358 -0.7692  1.3560
 2011SOL    HW3 7811   3.313   0.775   5.396 -0.2601 -0.1506  0.1345
 2011SOL    MW4 7812   3.320   0.839   5.454  0.1790  0.7177  0.8776
 2012SOL     OW 7813   5.420   1.907   3.628  0.1561 -0.2720  0.7892
 2012SOL    HW2 7814   5.353   1.840   3.617 -2.5669  2.1757  1.4043
 2012SOL    HW3 7815   5.459   1.916   3.541  0.2328 -2.1927  0.5748
 2012SOL    MW4 7816   5.416   1.899   3.615  0.2500 -0.1061  0.1783
 2013SOL     OW 7817   2.848   3.826   1.360 -0.2720  0.0238 -0.1980
 2013SOL    HW2 7818   2.787   3.777   1.415 -1.2995 -1.4036 -2.4676
 2013SOL    HW3 7819   2.835   3.917   1.385 -1.3725 -0.4759  1.2121
 2013SOL    MW4 7820   2.838   3.831   1.371  0.0468  0.0683  0.1862
 2014SOL     OW 7821   0.616   5.797   6.288 -0.6718  0.0411  0.1877
 2014SOL    HW2 7822   0.561   5.732   6.244  0.4250 -0.9184  0.1589
 2014SOL    HW3 7823   0.603   5.878   6.238 -0.4894 -0.6861 -1.0875
 2014SOL    MW4 7824   0.607   5.799   6.276  0.0966  0.2599  0.2363
 2015SOL     OW 7825   1.842   5.647   4.624 -0.4926 -0.1233 -0.1908
 2015SOL    HW2 7826   1.821   5.598   4.545 -0.3391  1.8228 -1.4888
 2015SOL    HW3 7827   1.930   5.680   4.610  0.0622 -0.8226  1.3842
 2015SOL    MW4 7828   1.850   5.645   4.612  0.5664 -0.7752 -0.3192
 2016SOL     OW 7829   1.545   3.589   4.464  0.0320 -0.2041 -0.2436
 2016SOL    HW2 7830   1.635   3.574   4.436 -0.0787 -0.6612 -0.3591
 2016SOL    HW3 7831   1.534   3.532   4.540  0.5785  1.5925  1.2652
 2016SOL    MW4 7832   1.556   3.579   4.470  0.2390  0.1954  0.2588
 2017SOL     OW 7833   1.337   1.162   0.413 -0.7881 -0.0491  0.1787
 2017SOL    HW2 7834   1.271   1.206   0.359 -2.2737 -3.0702 -0.7586
 2017SOL    HW3 7835   1.383   1.104   0.351  0.3681 -0.5598  1.4563
 2017SOL    MW4 7836   1.334   1.160   0.397 -0.2356  0.0368 -0.3350
 2018SOL     OW 7837   5.336   4.476   5.788 -1.0000  0.6014 -0.4795
 2018SOL    HW2 7838   5.422   4.451   5.753 -0.2856  2.0453  0.1946
 2018SOL    HW3 7839   5.304   4.542   5.727 -0.7945  1.4066  0.2604
 2018SOL    MW4 7840   5.343   4.481   5.775 -0.1007 -0.1502  0.4706
 2019SOL     OW 7841   1.334   3.356   5.375  0.4714  0.2906  0.2107
 2019SOL    HW2 7842   1.331   3.319   5.287 -0.2767 -0.7859  0.6795
 2019SOL    HW3 7843   1.402   3.305   5.420 -1.3129 -1.3586  1.1918
 2019SOL    MW4 7844   1.343   3.344   5.369  0.2615 -0.1528 -0.3023
 2020SOL     OW 7845   6.205   2.636   0.451  0.7492  0.2824 -0.5565
 2020SOL    HW2 7846   6.160   2.627   0.367  0.9763 -0.5060 -0.6076
 2020SOL    HW3 7847   6.221   2.730   0.460 -0.7315  0.5639 -0.6232
 2020SOL    MW4 7848   6.201   2.647   0.441  0.3946  0.6282 -0.0153
 2021SOL     OW 7849   1.604   6.153   4.504  0.0614 -0.0188  0.5246
 2021SOL    HW2 7850   1.518   6.133   4.468  0.9428 -1.9660 -0.6393
 2021SOL    HW3 7851   1.633   6.071   4.544  2.0351  0.0830 -0.5638
 2021SOL    MW4 7852   1.596   6.140   4.504  0.4291  0.1308 -0.6466
 2022SOL     OW 7853   0.290   3.219   4.253  0.6809  0.0286  0.0540
 2022SOL    HW2 7854   0.306   3.310   4.227  1.0915 -0.0491  0.0245
 2022SOL    HW3 7855   0.271   3.174   4.171  1.5759 -0.1339 -0.0736
 2022SOL    MW4 7856   0.290   3.225   4.239 -0.7018  0.5794 -0.2855
 2023SOL     OW 7857   6.025   2.550   0.232 -0.0822 -0.3284 -0.7868
 2023SOL    HW2 7858   6.008   2.456   0.242  1.4063 -0.4449  1.6430
 2023SOL    HW3 7859   6.091   2.555   0.163  2.7296 -1.5662  1.5853
 2023SOL    MW4 7860   6.031   2.538   0.224  0.5491  0.4061 -0.0598
 2024SOL     OW 7861   4.624   5.421   5.282 -0.1013 -0.0411  0.0644
 2024SOL    HW2 7862   4.550   5.371   5.318 -1.2471  2.1992  1.0315
 2024SOL    HW3 7863   4.702   5.379   5.319 -0.8055 -2.4328 -0.9347
 2024SOL    MW4 7864   4.624   5.408   5.291 -0.0462  0.0475 -0.3800
 2025SOL     OW 7865   5.115   2.691   1.680  0.0383 -0.1228 -0.2858
 2025SOL    HW2 7866   5.028   2.724   1.702  1.1125  1.9339  1.2964
 2025SOL    HW3 7867   5.175   2.756   1.718  2.2598 -1.2369 -1.6849
 2025SOL    MW4 7868   5.111   2.704   1.688 -0.1345 -0.1263  0.0453
 2026SOL     OW 7869   2.766   3.162   2.431  0.6946  0.0365 -0.6909
 2026SOL    HW2 7870   2.806   3.233   2.381 -1.7375  1.1103 -1.2443
 2026SOL    HW3 7871   2.719   3.110   2.366 -0.8847  0.3093  0.1804
 2026SOL    MW4 7872   2.765   3.164   2.416 -0.0618  0.5471  0.3663
 2027SOL     OW 7873   2.652   0.752   4.747 -0.2267 -0.0413 -0.3213
 2027SOL    HW2 7874   2.619   0.824   4.693 -0.1806 -0.6441 -1.1790
 2027SOL    HW3 7875   2.623   0.673   4.701  2.5019 -0.6350 -1.2212
 2027SOL    MW4 7876   2.644   0.751   4.734 -0.6439 -0.3338  0.5671
 2028SOL     OW 7877   3.541   1.615   6.226  0.4399 -0.1391  0.4537
 2028SOL    HW2 7878   3.589   1.656   6.298  0.0845  1.5806 -0.2205
 2028SOL    HW3 7879   3.455   1.595   6.262  0.5300 -0.0328  0.7271
 2028SOL    MW4 7880   3.536   1.618   6.240  0.9321  0.2769 -0.1364
 2029SOL     OW 7881   5.553   1.214   3.837  0.3823 -0.4248 -0.0063
 2029SOL    HW2 7882   5.616   1.142   3.841 -1.0686 -2.0804 -3.2028
 2029SOL    HW3 7883   5.567   1.253   3.751 -1.1784  0.8768  0.2788
 2029SOL    MW4 7884   5.563   1.210   3.826 -0.1920 -0.1601  0.2538
 2030SOL     OW 7885   4.699   0.325   1.153  0.4179  0.3013  0.1126
 2030SOL    HW2 7886   4.789   0.312   1.184  0.6113 -0.7439 -0.8200
 2030SOL    HW3 7887   4.665   0.395   1.209  0.9013 -1.1049  2.3310
 2030SOL    MW4 7888   4.707   0.333   1.165  0.1086 -0.7866  0.1968
 2031SOL     OW 7889   4.920   3.047   1.197 -0.6586  0.1942  0.6233
 2031SOL    HW2 7890   4.844   2.990   1.203 -0.1247 -0.5142  0.8478
 2031SOL    HW3 7891   4.901   3.120   1.256 -0.4854 -0.7995  1.9573
 2031SOL    MW4 7892   4.908   3.049   1.206 -0.1570  0.4149 -0.2884
 2032SOL     OW 7893   0.733   0.611   6.385  0.1810 -0.2493 -0.1586
 2032SOL    HW2 7894   0.730   0.641   6.476  2.5024 -1.4115  0.3946
 2032SOL    HW3 7895   0.766   0.686   6.336 -0.0726  0.0614  0.1392
 2032SOL    MW4 7896   0.737   0.625   6.391 -0.2730 -0.4032 -0.2535
 2033SOL     OW 7897   4.289   1.019   0.185 -0.6015 -0.6505 -0.1797
 2033SOL    HW2 7898   4.300   0.957   0.257 -0.9446 -1.5181 -0.8505
 2033SOL    HW3 7899   4.341   0.983   0.114 -1.3221 -0.5186 -0.7899
 2033SOL    MW4 7900   4.297   1.006   0.185  0.2440  0.1599  0.0306
 2034SOL     OW 7901   1.819   1.964   1.471 -0.6959  0.0165 -0.2832
 2034SOL    HW2 7902   1.792   1.939   1.560  0.9942 -1.4290 -0.1326
 2034SOL    HW3 7903   1.839   1.881   1.428  2.5274  0.8653 -0.6634
 2034SOL    MW4 7904   1.818   1.950   1.477 -0.3887  0.2778 -0.1083
 2035SOL     OW 7905   5.500   1.758   2.325 -0.3630  0.4771  0.0121
 2035SOL    HW2 7906   5.592   1.754   2.299 -0.0934  2.3620  0.4804
 2035SOL    HW3 7907   5.459   1.814   2.259 -1.8234 -2.3584 -1.6927
 2035SOL    MW4 7908   5.507   1.765   2.313 -0.1799  0.6349  0.1336
 2036SOL     OW 7909   0.948   0.285   0.152  0.2745  0.1946 -0.3374
 2036SOL    HW2 7910   0.995   0.201   0.155 -0.6994 -0.4546 -2.0118
 2036SOL    HW3 7911   0.948   0.315   0.242  1.3040 -1.2371  0.1864
 2036SOL    MW4 7912   0.954   0.278   0.164 -0.3502  0.2610  0.2447
 2037SOL     OW 7913   4.887   4.988   1.067 -0.2942  0.2081 -0.2513
 2037SOL    HW2 7914   4.851   4.939   1.140 -0.5093  1.1806  0.3092
 2037SOL    HW3 7915   4.815   5.044   1.037 -0.1270  0.0234 -1.0277
 2037SOL    MW4 7916   4.872   4.989   1.073 -0.3858 -0.0165 -0.2300
 2038SOL     OW 7917   5.281   0.829   6.029 -0.1356 -0.0597 -0.1463
 2038SOL    HW2 7918   5.369   0.861   6.009 -0.0532 -0.9669 -1.3606
 2038SOL    HW3 7919   5.265   0.857   6.119  0.8422  1.3142 -0.3706
 2038SOL    MW4 7920   5.291   0.837   6.038 -0.4931  0.5668  0.6699
 2039SOL     OW 7921   6.289   0.044   2.492 -0.4267  0.2025 -0.0329
 2039SOL    HW2 7922   6.282   0.039   2.397  0.6177 -0.5146 -0.0994
 2039SOL    HW3 7923   6.307  -0.047   2.519 -1.6206  0.2400  0.9372
 2039SOL    MW4 7924   6.291   0.031   2.483 -0.7905  0.4734  0.3140
 2040SOL     OW 7925   4.722   4.869   1.266 -0.3579 -0.6627  0.0548
 2040SOL    HW2 7926   4.676   4.915   1.336  0.2212 -1.0776  0.7303
 2040SOL    HW3 7927   4.784   4.812   1.312  0.9744  0.0254 -0.8258
 2040SOL    MW4 7928   4.724   4.867   1.282  0.4522  0.3271 -0.8583
 2041SOL     OW 7929   4.253   1.415   1.844  0.6404 -0.3013 -0.0614
 2041SOL    HW2 7930   4.247   1.476   1.917  1.7620  0.4377 -0.5476
 2041SOL    HW3 7931   4.176   1.359   1.852  0.1698  0.4740  1.0361
 2041SOL    MW4 7932   4.242   1.416   1.855  0.3205  0.6027  0.2637
 2042SOL     OW 7933   1.265   3.317   3.180  0.3305 -0.0204  0.5431
 2042SOL    HW2 7934   1.285   3.226   3.205  2.0442  0.4526  1.0298
 2042SOL    HW3 7935   1.283   3.320   3.086 -0.1862 -0.2954  0.4323
 2042SOL    MW4 7936   1.270   3.305   3.171 -0.2612 -0.0434  0.4986
 2043SOL     OW 7937   3.136   5.204   4.501 -0.4415 -0.2147  0.5382
 2043SOL    HW2 7938   3.219   5.169   4.469 -1.8197 -4.4458  0.8360
 2043SOL    HW3 7939   3.089   5.232   4.423  1.1649  2.3771  0.3795
 2043SOL    MW4 7940   3.141   5.203   4.487  0.0423  0.0551 -0.0383
 2044SOL     OW 7941   5.285   4.312   0.684 -0.6963 -0.2088  0.6897
 2044SOL    HW2 7942   5.296   4.321   0.778  1.5489  1.0128  0.3772
 2044SOL    HW3 7943   5.311   4.222   0.665  0.6195  0.0639  1.0737
 2044SOL    MW4 7944   5.290   4.301   0.694 -0.2076  0.3924  0.3662
 2045SOL     OW 7945   0.952   0.670   1.424 -0.4358  0.2163  0.4600
 2045SOL    HW2 7946   0.973   0.618   1.346  0.1422 -0.0229  0.7730
 2045SOL    HW3 7947   0.880   0.727   1.396 -0.7884 -0.4512 -0.0063
 2045SOL    MW4 7948   0.945   0.671   1.410 -0.2331  0.4163 -0.9035
 2046SOL     OW 7949   6.245   2.645   3.776  0.1703  0.8839 -0.5498
 2046SOL    HW2 7950   6.251   2.641   3.872 -0.2013 -2.3715 -0.5217
 2046SOL    HW3 7951   6.272   2.734   3.754  5.2260  0.4557  2.2594
 2046SOL    MW4 7952   6.250   2.656   3.786  1.1197  0.2231  0.6333
 2047SOL     OW 7953   4.145   5.066   5.480 -0.0134 -0.1135  0.0392
 2047SOL    HW2 7954   4.187   4.982   5.498  1.1658  0.4566  0.0515
 2047SOL    HW3 7955   4.211   5.116   5.431 -0.0393  1.4250  1.4796
 2047SOL    MW4 7956   4.159   5.062   5.476 -0.6233 -0.6702  0.1670
 2048SOL     OW 7957   5.370   5.215   1.006 -0.0602 -0.7450  0.1080
 2048SOL    HW2 7958   5.298   5.270   1.037  1.2860  0.9945  0.3189
 2048SOL    HW3 7959   5.447   5.272   1.009  0.9474 -1.8567 -2.2628
 2048SOL    MW4 7960   5.371   5.230   1.011 -0.2972  0.4528 -0.3548
 2049SOL     OW 7961   0.118   6.157   4.007  0.0922 -0.2779  0.3684
 2049SOL    HW2 7962   0.095   6.064   4.007  0.2834 -0.3566  2.3065
 2049SOL    HW3 7963   0.043   6.200   4.048 -0.4476  0.5987 -1.4082
 2049SOL    MW4 7964   0.105   6.150   4.012 -0.3286 -0.2427  0.5824
 2050SOL     OW 7965   4.063   1.869   6.310 -0.1554 -0.1566  0.0988
 2050SOL    HW2 7966   4.054   1.918   6.228  1.1060  0.6834  0.4398
 2050SOL    HW3 7967   4.154   1.836   6.308 -0.5707 -1.3965  0.4834
 2050SOL    MW4 7968   4.074   1.871   6.299  0.4583 -0.5448  0.1315
 2051SOL     OW 7969   2.941   1.737   6.249 -0.2980 -0.6106  0.6924
 2051SOL    HW2 7970   2.990   1.664   6.211  0.4423 -0.9103  2.1380
 2051SOL    HW3 7971   3.001   1.811   6.244 -0.7311 -0.2989  0.0056
 2051SOL    MW4 7972   2.956   1.737   6.244  0.3816  0.0370 -0.0582
 2052SOL     OW 7973   0.759   5.387   1.328  0.1457  0.0691 -0.4825
 2052SOL    HW2 7974   0.839   5.413   1.374 -0.7127  0.3567  0.9298
 2052SOL    HW3 7975   0.782   5.389   1.236  1.6395  0.5750 -0.1281
 2052SOL    MW4 7976   0.772   5.390   1.322 -0.0477  0.2472 -0.1837
 2053SOL     OW 7977   2.164   2.509   4.838 -0.3967  0.4219 -0.0881
 2053SOL    HW2 7978   2.231   2.472   4.895  0.4495  0.4316 -1.0439
 2053SOL    HW3 7979   2.185   2.603   4.835 -0.3505  0.3981 -0.5247
 2053SOL    MW4 7980   2.176   2.517   4.845 -0.5969  0.0544  0.2031
 2054SOL     OW 7981   5.131   1.139   1.237  0.0263  0.2054  0.3940
 2054SOL    HW2 7982   5.091   1.061   1.275  1.1764 -1.4705 -1.5905
 2054SOL    HW3 7983   5.180   1.106   1.162  1.2249  2.7687 -0.0562
 2054SOL    MW4 7984   5.132   1.124   1.232 -0.3621 -0.1587 -0.0819
 2055SOL     OW 7985   1.484   3.066   4.190 -0.0374  0.3956  0.5594
 2055SOL    HW2 7986   1.420   3.007   4.150  1.3709  0.0638 -1.3498
 2055SOL    HW3 7987   1.459   3.070   4.282 -2.0661 -0.6575  0.1150
 2055SOL    MW4 7988   1.472   3.059   4.197  0.1622  0.2602 -0.1344
 2056SOL     OW 7989   1.011   3.177   5.215 -0.0806  0.0771  0.4215
 2056SOL    HW2 7990   0.972   3.167   5.128  0.4667 -0.6207  0.2534
 2056SOL    HW3 7991   0.987   3.266   5.242  0.2996  0.5389 -0.7175
 2056SOL    MW4 7992   1.003   3.188   5.207 -0.1484  0.1840  0.3256
 2057SOL     OW 7993   4.117   5.533   1.975  0.2568 -0.4718 -0.5701
 2057SOL    HW2 7994   4.207   5.501   1.964  0.4589  0.2807 -1.2259
 2057SOL    HW3 7995   4.104   5.592   1.901 -0.7622 -0.5293 -0.4392
 2057SOL    MW4 7996   4.127   5.537   1.964  0.1975 -0.5934  0.2849
 2058SOL     OW 7997   3.865   3.020   4.854 -0.4305 -0.1733 -0.2760
 2058SOL    HW2 7998   3.960   3.019   4.865 -0.3005 -0.3266 -1.3026
 2058SOL    HW3 7999   3.830   3.007   4.942  0.5039 -0.7472  0.0196
 2058SOL    MW4 8000   3.873   3.018   4.867 -0.2846 -0.1231 -0.2350
 2059SOL     OW 8001   3.261   5.161   5.927 -0.5957 -0.0297 -0.4336
 2059SOL    HW2 8002   3.267   5.083   5.982 -0.3681  0.5523  0.3863
 2059SOL    HW3 8003   3.170   5.189   5.935 -0.0781  1.3170  1.4718
 2059SOL    MW4 8004   3.250   5.154   5.936 -0.2583 -0.0852 -0.6008
 2060SOL     OW 8005   5.390   3.809   4.873  0.7056 -0.1209 -0.5763
 2060SOL    HW2 8006   5.380   3.714   4.872 -0.3970 -0.0628  0.8848
 2060SOL    HW3 8007   5.481   3.823   4.900  0.9592 -0.7444 -1.0737
 2060SOL    MW4 8008   5.401   3.798   4.877 -0.2229 -0.7200 -0.3280
 2061SOL     OW 8009   0.263   3.783   3.783  0.1529  0.1511 -0.0839
 2061SOL    HW2 8010   0.244   3.689   3.772 -2.7419  0.4824  1.0173
 2061SOL    HW3 8011   0.274   3.793   3.878  1.2016  0.8257 -0.2705
 2061SOL    MW4 8012   0.262   3.772   3.794  0.4987 -0.2014  0.2146
 2062SOL     OW 8013   2.036   2.145   0.863 -0.0652 -0.3981  0.1446
 2062SOL    HW2 8014   2.059   2.202   0.936  0.7793 -0.6755  0.1054
 2062SOL    HW3 8015   2.002   2.204   0.796 -0.0493 -0.0496  0.4406
 2062SOL    MW4 8016   2.035   2.160   0.864 -0.0788  0.1255 -0.0122
 2063SOL     OW 8017   3.977   1.623   5.451 -0.4579 -0.4681  0.1671
 2063SOL    HW2 8018   4.017   1.709   5.463  0.4046 -0.5666 -1.6781
 2063SOL    HW3 8019   3.915   1.615   5.524 -0.6737  1.7518  0.2972
 2063SOL    MW4 8020   3.974   1.633   5.462  0.6085 -0.6864 -0.3925
 2064SOL     OW 8021   3.703   5.482   4.932  0.7847  0.2999  0.4851
 2064SOL    HW2 8022   3.755   5.545   4.982  0.1993  1.1732  0.0116
 2064SOL    HW3 8023   3.621   5.527   4.914  0.5302 -0.4356 -0.2614
 2064SOL    MW4 8024   3.699   5.496   4.936  0.2954  0.3565 -0.0043
 2065SOL     OW 8025   3.348   0.914   5.143  0.1266  0.1361  0.4161
 2065SOL    HW2 8026   3.399   0.984   5.184  0.3849 -0.0052  0.3394
 2065SOL    HW3 8027   3.358   0.929   5.049 -0.2755  0.3238  0.3992
 2065SOL    MW4 8028   3.356   0.925   5.136 -0.4529 -0.3808  0.2470
 2066SOL     OW 8029   5.028   4.817   5.667 -0.3034  0.7029  0.2530
 2066SOL    HW2 8030   4.962   4.870   5.622 -0.0334  1.1013  0.3140
 2066SOL    HW3 8031   4.982   4.778   5.741 -0.2505  1.7737  0.8766
 2066SOL    MW4 8032   5.013   4.819   5.671 -0.0760 -0.0906 -0.8062
 2067SOL     OW 8033   1.566   4.561   4.755  0.2819  0.0223  0.0867
 2067SOL    HW2 8034   1.646   4.601   4.721 -0.7810  0.7836 -1.6626
 2067SOL    HW3 8035   1.517   4.634   4.793 -0.4104 -0.0984 -0.5606
 2067SOL    MW4 8036   1.570   4.576   4.755 -0.0689  0.0858 -0.6051
 2068SOL     OW 8037   2.972   0.106   6.253 -0.2957 -0.3269 -0.0738
 2068SOL    HW2 8038   2.877   0.104   6.269 -0.2008  0.1028  0.6044
 2068SOL    HW3 8039   3.005   0.168   6.318  0.5248 -0.9165  0.0843
 2068SOL    MW4 8040   2.964   0.114   6.264 -0.3603  0.3804 -0.5842
 2069SOL     OW 8041   3.816   1.822   2.194  0.1206 -0.1073  0.2680
 2069SOL    HW2 8042   3.817   1.828   2.099 -0.6267  0.6365  0.2957
 2069SOL    HW3 8043   3.825   1.728   2.212 -2.4222 -0.5873 -0.6189
 2069SOL    MW4 8044   3.818   1.810   2.184 -0.0929 -0.6440  0.2631
 2070SOL     OW 8045   3.393   3.530   1.415  0.0101  0.3931  1.0368
 2070SOL    HW2 8046   3.298   3.531   1.422  0.0422  2.1565  1.9086
 2070SOL    HW3 8047   3.424   3.515   1.505  0.5326  1.3496  1.0302
 2070SOL    MW4 8048   3.385   3.528   1.428  0.0323  0.1267  0.4502
 2071SOL     OW 8049   3.285   2.885   4.421  0.2986 -0.3615 -0.2013
 2071SOL    HW2 8050   3.349   2.954   4.408  0.8467 -0.7357  0.4484
 2071SOL    HW3 8051   3.292   2.863   4.514 -0.8596 -0.3254 -0.0839
 2071SOL    MW4 8052   3.294   2.891   4.432 -0.1875  0.4473  0.3419
 2072SOL     OW 8053   0.676   3.824   0.621 -0.0514 -0.0156  0.6377
 2072SOL    HW2 8054   0.757   3.806   0.573  0.7869 -1.5300  2.4532
 2072SOL    HW3 8055   0.700   3.895   0.681 -0.2131 -0.1004  0.8036
 2072SOL    MW4 8056   0.690   3.831   0.623 -0.5965  0.0965 -0.2694
 2073SOL     OW 8057   2.305   2.435   2.216  0.0965 -0.4486  0.3900
 2073SOL    HW2 8058   2.222   2.455   2.259 -0.0545 -0.2056 -0.0004
 2073SOL    HW3 8059   2.371   2.449   2.283  0.1116  2.4127 -0.0791
 2073SOL    MW4 8060   2.302   2.440   2.230 -0.3537 -0.0963 -0.0443
 2074SOL     OW 8061   5.015   2.265   4.390 -0.6446  0.1979  0.1847
 2074SOL    HW2 8062   4.989   2.244   4.480 -0.6699 -0.3660  0.0492
 2074SOL    HW3 8063   4.936   2.300   4.350 -0.6755  0.3036  0.3353
 2074SOL    MW4 8064   5.001   2.267   4.397  0.0833 -0.3993  0.3056
 2075SOL     OW 8065   3.044   2.462   2.135 -0.6208  0.0800  0.3604
 2075SOL    HW2 8066   3.130   2.496   2.112  0.0006 -0.9251  1.1017
 2075SOL    HW3 8067   2.984   2.504   2.074  0.7177 -1.3247 -2.0886
 2075SOL    MW4 8068   3.047   2.472   2.124 -0.1258  0.1541  0.3721
 2076SOL     OW 8069   2.383   3.619   1.478  0.1296 -0.6213 -0.1486
 2076SOL    HW2 8070   2.298   3.623   1.433 -0.6802 -0.6239  1.3367
 2076SOL    HW3 8071   2.408   3.710   1.488  0.3022 -0.6196 -0.5701
 2076SOL    MW4 8072   2.375   3.631   1.473 -0.3958  0.4084  0.0564
 2077SOL     OW 8073   6.227   3.637   1.560  0.4928  0.2230  0.7358
 2077SOL    HW2 8074   6.250   3.694   1.486  0.3131  2.9577  2.6398
 2077SOL    HW3 8075   6.172   3.570   1.521 -1.1121  2.5613 -1.4069
 2077SOL    MW4 8076   6.223   3.636   1.545  0.0860 -0.0957  1.1047
 2078SOL     OW 8077   0.342   6.423   2.818 -0.5913 -0.3836  0.4328
 2078SOL    HW2 8078   0.419   6.384   2.860 -1.3687 -0.6520  1.6481
 2078SOL    HW3 8079   0.276   6.354   2.821 -1.3386  0.3407  0.7316
 2078SOL    MW4 8080   0.344   6.408   2.824  0.0855  0.5959 -0.6232
 2079SOL     OW 8081   5.650   6.128   5.746  0.3641 -0.2643 -0.2970
 2079SOL    HW2 8082   5.588   6.196   5.774 -0.0109 -0.6578 -0.1446
 2079SOL    HW3 8083   5.594   6.057   5.714  0.6690 -1.2108  1.1762
 2079SOL    MW4 8084   5.634   6.127   5.746  0.1723  0.0686 -0.3945
 2080SOL     OW 8085   3.071   2.880   0.920  0.3647 -0.0734  0.5402
 2080SOL    HW2 8086   3.137   2.811   0.910 -0.5487 -1.1039  1.2960
 2080SOL    HW3 8087   2.989   2.832   0.932 -0.5139  1.1769 -0.2692
 2080SOL    MW4 8088   3.069   2.865   0.920  0.6310 -0.3191 -0.1142
 2081SOL     OW 8089   2.389   0.409   1.535 -0.2802  0.0552 -0.0706
 2081SOL    HW2 8090   2.396   0.376   1.446  1.0633  0.3555 -0.0946
 2081SOL    HW3 8091   2.335   0.344   1.581  1.1447 -1.4618 -0.4571
 2081SOL    MW4 8092   2.383   0.396   1.530 -0.7298 -0.1770  0.1302
 2082SOL     OW 8093   0.467   3.811   2.197 -0.0483  0.0675  0.1360
 2082SOL    HW2 8094   0.400   3.742   2.192 -0.3381  0.2644  1.1497
 2082SOL    HW3 8095   0.505   3.802   2.284  0.9356  0.2593 -0.2623
 2082SOL    MW4 8096   0.463   3.801   2.208 -0.3324 -0.5712  0.1480
 2083SOL     OW 8097   1.281   6.105   6.393 -0.5202 -0.0215  0.1909
 2083SOL    HW2 8098   1.274   6.167   6.320 -0.4231  1.2999  1.2629
 2083SOL    HW3 8099   1.289   6.160   6.470  0.1377 -1.3934  1.1423
 2083SOL    MW4 8100   1.281   6.121   6.393 -0.1158 -0.0306  0.1287
 2084SOL     OW 8101   2.028   1.560   3.513  0.0643  0.0254 -0.2551
 2084SOL    HW2 8102   2.113   1.518   3.530 -0.4299 -0.8187  0.1801
 2084SOL    HW3 8103   2.037   1.597   3.425  1.3774  1.2105  0.3292
 2084SOL    MW4 8104   2.041   1.559   3.504  0.3852 -0.2435  0.2992
 2085SOL     OW 8105   2.633   4.601   6.045  0.2322 -0.8471  0.0035
 2085SOL    HW2 8106   2.550   4.599   5.997  0.1439 -0.0782  0.1111
 2085SOL    HW3 8107   2.624   4.676   6.105  1.3555 -0.1833 -0.6274
 2085SOL    MW4 8108   2.621   4.611   6.047 -0.1319 -0.0300  0.3064
 2086SOL     OW 8109   0.546   0.351   2.861 -0.0597  0.4790  0.0574
 2086SOL    HW2 8110   0.631   0.328   2.898  0.5165  1.6051 -0.5087
 2086SOL    HW3 8111   0.539   0.299   2.781  0.6343  1.2382 -0.5122
 2086SOL    MW4 8112   0.556   0.341   2.856  0.1701 -0.3519 -0.2186
 2087SOL     OW 8113   3.031   6.121   4.230 -0.3924 -0.5065  0.2919
 2087SOL    HW2 8114   2.976   6.048   4.201  0.1128 -1.0938  0.7998
 2087SOL    HW3 8115   3.116   6.105   4.189 -0.2019 -0.3500  0.6264
 2087SOL    MW4 8116   3.035   6.109   4.220  0.0145  0.6396 -0.4177
 2088SOL     OW 8117   2.019   2.099   1.614 -0.1169  0.1040 -0.0151
 2088SOL    HW2 8118   1.949   2.062   1.561 -0.1885 -1.4157  1.0638
 2088SOL    HW3 8119   2.096   2.099   1.557 -0.5812  0.1018 -0.6445
 2088SOL    MW4 8120   2.020   2.094   1.600  0.0424  0.3488  0.8125
 2089SOL     OW 8121   3.534   1.227   6.396 -0.1941 -0.1377  0.4052
 2089SOL    HW2 8122   3.614   1.256   6.439  0.8054 -1.5559 -0.3749
 2089SOL    HW3 8123   3.565   1.182   6.317 -1.7567 -0.8037  0.1301
 2089SOL    MW4 8124   3.549   1.225   6.391 -0.1800 -0.2997  0.7537
 2090SOL     OW 8125   0.281   2.068   2.042 -0.4046  0.0550 -0.4022
 2090SOL    HW2 8126   0.356   2.009   2.027  0.5965  1.5091 -1.3095
 2090SOL    HW3 8127   0.206   2.009   2.051  0.3473 -1.3358 -2.5757
 2090SOL    MW4 8128   0.281   2.052   2.041 -0.3630 -0.0998 -0.0427
 2091SOL     OW 8129   5.964   1.839   1.154 -0.2812  0.6756  0.3873
 2091SOL    HW2 8130   6.029   1.860   1.221  2.2347 -1.5088 -1.1770
 2091SOL    HW3 8131   5.936   1.924   1.119  1.6061  1.7002  1.2584
 2091SOL    MW4 8132   5.969   1.853   1.158 -0.1063 -0.9401 -0.1716
 2092SOL     OW 8133   0.289   3.978   1.472 -0.7623 -0.1775  0.3314
 2092SOL    HW2 8134   0.219   4.038   1.446  2.0919  2.1724 -2.7509
 2092SOL    HW3 8135   0.313   3.932   1.392  2.1588  0.2430  0.8457
 2092SOL    MW4 8136   0.283   3.980   1.458 -0.4179 -0.1061  0.1237
 2093SOL     OW 8137   0.401   1.029   6.044 -0.3332  0.3664 -0.2952
 2093SOL    HW2 8138   0.437   1.038   5.956  1.9879 -0.3017  0.5262
 2093SOL    HW3 8139   0.307   1.013   6.030 -0.0359  0.3786 -2.6199
 2093SOL    MW4 8140   0.393   1.028   6.031  0.4457 -0.0215 -0.1000
 2094SOL     OW 8141   1.770   3.331   1.348  0.6915 -0.9296  0.3183
 2094SOL    HW2 8142   1.775   3.237   1.328  0.6508 -1.0775  0.9616
 2094SOL    HW3 8143   1.693   3.339   1.404 -0.3002 -0.2408 -1.1046
 2094SOL    MW4 8144   1.761   3.320   1.353 -0.3157  0.5981 -0.1514
 2095SOL     OW 8145   6.144   3.715   1.883  0.1986 -0.4302 -0.9805
 2095SOL    HW2 8146   6.187   3.757   1.809  1.8375  0.5282  0.4497
 2095SOL    HW3 8147   6.085   3.782   1.918  0.3004 -0.4751 -0.7171
 2095SOL    MW4 8148   6.142   3.729   1.878 -0.0734  0.3216  0.4231
 2096SOL     OW 8149   4.747   5.772   1.915  0.0983  0.2516 -0.3912
 2096SOL    HW2 8150   4.838   5.798   1.897  0.7897 -2.0465 -0.5483
 2096SOL    HW3 8151   4.753   5.721   1.996 -1.3147  1.2743  0.3969
 2096SOL    MW4 8152   4.760   5.769   1.923  0.7384  1.0237  0.3080
 2097SOL     OW 8153   0.132   0.894   0.324  0.1584  0.2229  0.1931
 2097SOL    HW2 8154   0.203   0.872   0.384  1.4015 -0.6724 -1.5173
 2097SOL    HW3 8155   0.065   0.827   0.340 -0.0407  0.6865  1.3624
 2097SOL    MW4 8156   0.132   0.882   0.334 -0.1654  0.3714  0.3821
 2098SOL     OW 8157   4.467   3.299   0.425  0.1523  0.0619 -0.7142
 2098SOL    HW2 8158   4.459   3.377   0.370  0.5334  0.4124 -0.2766
 2098SOL    HW3 8159   4.486   3.228   0.363  1.5533  0.6142 -0.9680
 2098SOL    MW4 8160   4.469   3.300   0.409  0.2183 -0.1061 -0.2800
 2099SOL     OW 8161   5.698   2.746   6.408  0.1516 -0.5943 -0.0277
 2099SOL    HW2 8162   5.680   2.825   6.460 -0.0317 -0.7673  0.1780
 2099SOL    HW3 8163   5.705   2.676   6.473  2.5014 -0.4119 -0.0005
 2099SOL    MW4 8164   5.696   2.747   6.424 -0.0347 -0.1406  0.2965
 2100SOL     OW 8165   5.957   2.538   4.470 -0.3287 -0.4315  0.2106
 2100SOL    HW2 8166   5.869   2.572   4.486  0.3611  0.7855  1.7465
 2100SOL    HW3 8167   5.966   2.466   4.532 -0.1622 -0.3895  0.2362
 2100SOL    MW4 8168   5.946   2.533   4.480  0.5068 -0.3158  0.3320
 2101SOL     OW 8169   1.610   5.130   3.670  0.1990  0.6443  0.2124
 2101SOL    HW2 8170   1.604   5.222   3.695 -1.1498  0.1508  1.9736
 2101SOL    HW3 8171   1.683   5.096   3.723  0.7647  0.6897 -0.5134
 2101SOL    MW4 8172   1.619   5.137   3.681 -0.2276 -0.2438  0.8531
 2102SOL     OW 8173   2.586   4.162   2.039  0.2372  0.1153 -0.1569
 2102SOL    HW2 8174   2.586   4.158   2.135  0.7700  1.4053 -0.0790
 2102SOL    HW3 8175   2.678   4.156   2.015  0.2897  1.6180 -0.4571
 2102SOL    MW4 8176   2.598   4.161   2.049  0.3250  0.1158 -0.1141
 2103SOL     OW 8177   0.631   1.240   3.294 -0.5938 -0.2438  0.3783
 2103SOL    HW2 8178   0.676   1.283   3.366  2.6913 -1.4382 -0.7793
 2103SOL    HW3 8179   0.627   1.306   3.225  0.5767 -0.4610  0.0780
 2103SOL    MW4 8180   0.636   1.254   3.294 -0.2974  0.0026  0.0036
 2104SOL     OW 8181   2.807   3.417   1.293  0.0434  0.4161  0.2184
 2104SOL    HW2 8182   2.733   3.475   1.309 -1.3835 -1.0777 -0.6402
 2104SOL    HW3 8183   2.866   3.468   1.238 -1.2015  1.0632 -0.5691
 2104SOL    MW4 8184   2.805   3.431   1.288 -0.1682  0.5382 -0.4228
 2105SOL     OW 8185   5.959   6.053   5.250 -0.3119  0.4860  0.3720
 2105SOL    HW2 8186   5.970   6.079   5.341  2.5372  0.5157  0.1126
 2105SOL    HW3 8187   6.043   6.072   5.209 -1.5006  0.4737 -2.2918
 2105SOL    MW4 8188   5.972   6.059   5.256  0.0180  0.6569  0.1648
 2106SOL     OW 8189   4.113   0.233   2.983  0.3950 -0.0198 -0.5954
 2106SOL    HW2 8190   4.112   0.308   2.924 -3.6398 -0.1850 -1.0031
 2106SOL    HW3 8191   4.161   0.165   2.935  0.7664  1.1162 -1.8880
 2106SOL    MW4 8192   4.119   0.234   2.969  0.3606  0.7262  0.1688
 2107SOL     OW 8193   2.900   2.071   0.012 -0.2215 -0.2837 -0.2853
 2107SOL    HW2 8194   2.876   1.979   0.028  1.5122 -0.6470  0.5032
 2107SOL    HW3 8195   2.973   2.065  -0.050  0.9003  0.4485  0.9251
 2107SOL    MW4 8196   2.907   2.058   0.006 -0.0653 -0.4585 -0.4724
 2108SOL     OW 8197   4.512   2.028   0.626 -0.0636  0.3948  0.0126
 2108SOL    HW2 8198   4.530   2.114   0.588  0.9862  0.5635  0.8580
 2108SOL    HW3 8199   4.584   2.013   0.688  0.5835 -1.7036 -1.1332
 2108SOL    MW4 8200   4.524   2.037   0.629  0.1270  0.4409  0.3283
 2109SOL     OW 8201   3.740   4.134   4.649 -0.1791 -0.2065 -0.4331
 2109SOL    HW2 8202   3.717   4.104   4.736  0.6121  0.2890 -0.0432
 2109SOL    HW3 8203   3.663   4.115   4.596 -1.3580  1.1016  0.7416
 2109SOL    MW4 8204   3.727   4.128   4.653  0.0324  0.4611  0.5463
 2110SOL     OW 8205   3.746   4.647   0.114 -0.2884 -0.0770  0.1382
 2110SOL    HW2 8206   3.822   4.625   0.168 -0.2882  0.3505  0.3145
 2110SOL    HW3 8207   3.772   4.622   0.025  0.1318  0.2384  0.1695
 2110SOL    MW4 8208   3.760   4.640   0.109 -0.0429 -0.3783 -0.1268
 2111SOL     OW 8209   4.855   3.782   4.074 -0.9569  0.1890 -0.3226
 2111SOL    HW2 8210   4.887   3.729   4.147 -0.3576  0.2744 -0.5128
 2111SOL    HW3 8211   4.829   3.719   4.007  2.2672  0.0401 -1.6472
 2111SOL    MW4 8212   4.856   3.767   4.075  0.2107 -0.1380  0.0825
 2112SOL     OW 8213   0.299  -0.002   4.373  0.7922 -0.2606 -0.2344
 2112SOL    HW2 8214   0.339   0.042   4.299 -0.1186 -1.6769 -1.6294
 2112SOL    HW3 8215   0.205   0.019   4.366  0.8806  0.9295  1.5005
 2112SOL    MW4 8216   0.292   0.006   4.362  0.4718  0.0019  0.2730
 2113SOL     OW 8217   6.056   0.108   2.634 -0.4467 -0.0320  0.1800
 2113SOL    HW2 8218   6.063   0.194   2.675 -0.5676  0.1505 -0.1821
 2113SOL    HW3 8219   6.147   0.083   2.615 -0.3892 -0.1250  0.5710
 2113SOL    MW4 8220   6.069   0.116   2.637  0.3942 -0.0326 -0.0468
 2114SOL     OW 8221   1.240   4.444   3.851  0.0454 -0.0155 -0.3449
 2114SOL    HW2 8222   1.177   4.373   3.837  0.8931 -1.4884  2.4565
 2114SOL    HW3 8223   1.187   4.523   3.851 -1.4207 -0.9493 -0.5188
 2114SOL    MW4 8224   1.225   4.445   3.849 -0.1501 -0.0927 -0.3259
 2115SOL     OW 8225   5.932   2.363   3.834 -0.0498 -0.4431  0.2320
 2115SOL    HW2 8226   5.939   2.403   3.920 -0.4292 -1.4228  0.7278
 2115SOL    HW3 8227   5.907   2.273   3.851  1.4863 -1.1226 -0.8211
 2115SOL    MW4 8228   5.930   2.356   3.847  0.2654 -0.3369 -0.1370
 2116SOL     OW 8229   3.967   1.928   3.676  0.1259 -0.0155 -0.2525
 2116SOL    HW2 8230   3.920   1.975   3.745  2.1344  1.6080  0.0934
 2116SOL    HW3 8231   4.025   1.993   3.638  0.0601 -1.2377 -2.5925
 2116SOL    MW4 8232   3.968   1.943   3.680 -0.3253 -0.8895 -0.0112
 2117SOL     OW 8233   5.059   2.991   0.148  0.1342  0.5090 -0.4280
 2117SOL    HW2 8234   5.024   2.911   0.188 -0.3468  1.1617  0.4922
 2117SOL    HW3 8235   4.988   3.055   0.156 -0.1443  0.5587 -2.7468
 2117SOL    MW4 8236   5.045   2.989   0.154  0.3164 -0.3221 -0.2567
 2118SOL     OW 8237   1.902   6.429   6.368 -0.5210 -0.5028  0.3072
 2118SOL    HW2 8238   1.887   6.361   6.302  0.0350  0.2242 -0.5923
 2118SOL    HW3 8239   1.824   6.484   6.365 -0.6821 -0.7172  0.5619
 2118SOL    MW4 8240   1.890   6.427   6.359 -0.3098  0.5285 -0.5882
 2119SOL     OW 8241   2.553   6.102   4.033 -0.2956 -0.1223  0.0998
 2119SOL    HW2 8242   2.521   6.025   3.985 -2.0762  0.1851  0.6835
 2119SOL    HW3 8243   2.598   6.065   4.109 -0.8908 -0.6116  0.2283
 2119SOL    MW4 8244   2.554   6.087   4.037  0.2543  0.4747 -0.7848
 2120SOL     OW 8245   4.476   0.746   3.303  0.2125  0.2911 -0.3007
 2120SOL    HW2 8246   4.457   0.749   3.210 -0.8150 -1.1835 -0.1689
 2120SOL    HW3 8247   4.397   0.708   3.343 -0.1880  2.7233  1.4311
 2120SOL    MW4 8248   4.463   0.741   3.296 -0.0325  0.4878 -0.4295
 2121SOL     OW 8249   5.085   2.292   5.306 -0.0304  0.2829 -0.1900
 2121SOL    HW2 8250   5.138   2.277   5.228  0.5942  2.4670 -0.2529
 2121SOL    HW3 8251   4.995   2.288   5.275  0.0234 -2.6447 -0.2346
 2121SOL    MW4 8252   5.080   2.290   5.292  0.7284 -0.4341 -0.4309
 2122SOL     OW 8253   3.460   5.187   2.870  0.4974 -0.4309  0.4704
 2122SOL    HW2 8254   3.414   5.111   2.833  0.4348 -0.3689  0.4207
 2122SOL    HW3 8255   3.442   5.182   2.964 -0.5369  0.2176  0.3166
 2122SOL    MW4 8256   3.452   5.176   2.877  0.2282 -0.6249 -0.1494
 2123SOL     OW 8257   5.946   1.192   0.846 -0.0641 -0.5458  0.0892
 2123SOL    HW2 8258   5.959   1.120   0.908  1.5316 -1.1038 -0.8410
 2123SOL    HW3 8259   6.017   1.253   0.864 -0.0951 -0.2934 -0.6041
 2123SOL    MW4 8260   5.957   1.190   0.856  0.0965  0.1799  0.5151
 2124SOL     OW 8261   5.910   1.882   5.328  0.0082 -0.4704  0.3163
 2124SOL    HW2 8262   6.003   1.871   5.350  0.3163 -2.0968 -1.5370
 2124SOL    HW3 8263   5.895   1.821   5.255 -2.2269  0.6599 -0.2554
 2124SOL    MW4 8264   5.921   1.873   5.321 -0.0624  0.0316  0.2783
 2125SOL     OW 8265   3.383   3.367   0.572  0.1796  0.1323  0.1463
 2125SOL    HW2 8266   3.368   3.308   0.646  1.2862 -0.2160  0.1285
 2125SOL    HW3 8267   3.457   3.421   0.599  1.2472 -0.6583 -1.0379
 2125SOL    MW4 8268   3.391   3.366   0.585 -0.2488  0.5430 -0.0838
 2126SOL     OW 8269   5.908   4.721   6.161 -0.2477 -0.3816  0.4627
 2126SOL    HW2 8270   5.980   4.665   6.133 -0.3518 -0.2433 -0.0906
 2126SOL    HW3 8271   5.882   4.768   6.082  1.9830  2.8987  1.4332
 2126SOL    MW4 8272   5.914   4.720   6.147 -0.0127  0.3893  0.5997
 2127SOL     OW 8273   0.113   4.751   0.292  0.4118  0.2820  0.5750
 2127SOL    HW2 8274   0.174   4.709   0.354  0.3584  0.4811  0.7653
 2127SOL    HW3 8275   0.043   4.785   0.348 -0.7824 -1.4334  0.2291
 2127SOL    MW4 8276   0.112   4.750   0.308 -0.1866 -0.1098 -0.4677
 2128SOL     OW 8277   5.466   1.629   4.759  0.0121 -0.5448  0.3770
 2128SOL    HW2 8278   5.453   1.672   4.674  2.0006 -2.7218 -1.1265
 2128SOL    HW3 8279   5.514   1.694   4.811  0.3976  0.1525 -0.8099
 2128SOL    MW4 8280   5.470   1.644   4.755 -0.5492 -0.2612 -0.4753
 2129SOL     OW 8281   4.908   3.558   1.333  0.3319  0.3702  0.3768
 2129SOL    HW2 8282   4.847   3.560   1.406 -1.5225  0.7069 -1.0904
 2129SOL    HW3 8283   4.914   3.649   1.303 -3.0471 -0.2599 -2.9676
 2129SOL    MW4 8284   4.901   3.570   1.338 -0.5727  0.4698 -0.5420
 2130SOL     OW 8285   3.023   1.758   4.370 -0.0971 -0.0603  0.4140
 2130SOL    HW2 8286   2.952   1.698   4.392  0.0736 -0.1624  0.6920
 2130SOL    HW3 8287   3.059   1.785   4.455  1.4150 -1.4745  0.2739
 2130SOL    MW4 8288   3.018   1.754   4.384 -0.8709  0.4283  0.5814
 2131SOL     OW 8289   4.431   4.059   0.291 -0.3146  0.2682 -0.1145
 2131SOL    HW2 8290   4.337   4.061   0.272 -0.1000  0.5069 -1.1882
 2131SOL    HW3 8291   4.453   3.966   0.291 -0.5071  0.2213 -0.0857
 2131SOL    MW4 8292   4.421   4.047   0.289 -0.5500  0.3064  0.6304
 2132SOL     OW 8293   1.419   4.875   1.210 -0.1789  0.0111  0.0834
 2132SOL    HW2 8294   1.402   4.813   1.140  2.7088  0.3561 -1.0693
 2132SOL    HW3 8295   1.472   4.826   1.273 -0.6101  0.4179  0.7746
 2132SOL    MW4 8296   1.424   4.860   1.209  0.4433 -0.0544  0.3157
 2133SOL     OW 8297   3.568   3.675   4.030 -0.3983  0.1002 -0.0276
 2133SOL    HW2 8298   3.504   3.650   3.963 -1.0695 -0.8098  0.9121
 2133SOL    HW3 8299   3.543   3.623   4.107  2.3882 -1.4817 -0.0675
 2133SOL    MW4 8300   3.556   3.665   4.031  0.1195 -0.1697  0.0310
 2134SOL     OW 8301   3.142   2.658   1.296  0.0634 -0.7559 -0.0128
 2134SOL    HW2 8302   3.049   2.648   1.273  0.5388  0.5557 -2.9342
 2134SOL    HW3 8303   3.182   2.575   1.272  0.0420 -0.4180 -1.2860
 2134SOL    MW4 8304   3.135   2.646   1.290 -0.3035  0.1008 -0.3960
 2135SOL     OW 8305   5.478   4.214   1.242  0.0582  0.0388  0.2737
 2135SOL    HW2 8306   5.541   4.193   1.311  0.5494 -0.0680 -0.1994
 2135SOL    HW3 8307   5.431   4.290   1.275  0.0924 -0.1829  0.8477
 2135SOL    MW4 8308   5.480   4.221   1.255  0.7521 -0.1544 -0.1489
 2136SOL     OW 8309   4.987   3.977   0.571 -0.1075 -0.1827  0.1920
 2136SOL    HW2 8310   4.996   4.059   0.619  0.2367 -0.0142 -0.1522
 2136SOL    HW3 8311   4.893   3.959   0.572  0.0246 -0.9666  2.2096
 2136SOL    MW4 8312   4.976   3.985   0.577 -0.1191 -0.8668  0.1318
 2137SOL     OW 8313   1.992   2.334   0.644  0.0226  0.0689  0.0908
 2137SOL    HW2 8314   2.083   2.356   0.625  0.3499 -0.9494  0.4283
 2137SOL    HW3 8315   1.948   2.419   0.654  1.0847  0.5568  0.6949
 2137SOL    MW4 8316   1.998   2.348   0.643 -0.3972 -0.2460  0.1650
 2138SOL     OW 8317   0.402   3.169   5.511  0.5686  0.8000  0.2815
 2138SOL    HW2 8318   0.376   3.089   5.557  1.3254  1.5799  2.1804
 2138SOL    HW3 8319   0.384   3.239   5.574  2.3872  1.8549 -0.2980
 2138SOL    MW4 8320   0.396   3.168   5.526  0.8258 -0.0693 -0.4839
 2139SOL     OW 8321   2.057   2.657   3.439  0.4695 -0.0807  0.0098
 2139SOL    HW2 8322   2.013   2.607   3.508  0.3695 -0.4724 -0.3336
 2139SOL    HW3 8323   2.098   2.590   3.383  0.6285  0.2363 -0.2556
 2139SOL    MW4 8324   2.057   2.642   3.441 -0.2618  0.5378  0.5783
 2140SOL     OW 8325   4.402   3.515   1.197  0.5115 -0.5333  0.6086
 2140SOL    HW2 8326   4.312   3.499   1.170  0.6834 -1.0898  0.3611
 2140SOL    HW3 8327   4.439   3.570   1.128  1.0173 -2.1296 -0.4512
 2140SOL    MW4 8328   4.395   3.520   1.185  0.3483 -0.7425 -0.2757
 2141SOL     OW 8329   3.497   4.325   4.964  0.2924  0.0963  0.3690
 2141SOL    HW2 8330   3.464   4.383   5.033 -0.5196 -0.5423  0.5396
 2141SOL    HW3 8331   3.493   4.377   4.884  1.3091  0.8715  0.8026
 2141SOL    MW4 8332   3.492   4.339   4.963  0.0861  0.2869  0.1480
 2142SOL     OW 8333   5.114   3.428   0.650 -0.3093 -0.0848  0.1483
 2142SOL    HW2 8334   5.093   3.478   0.728  0.9416 -1.2253  1.2691
 2142SOL    HW3 8335   5.075   3.342   0.665 -0.1982 -0.2688 -0.5675
 2142SOL    MW4 8336   5.106   3.423   0.662  0.8535 -0.3079  0.4500
 2143SOL     OW 8337   1.758   0.567   3.771 -0.2623  0.5716  0.1199
 2143SOL    HW2 8338   1.705   0.642   3.742 -1.6338 -0.4041 -0.0323
 2143SOL    HW3 8339   1.814   0.602   3.840 -0.6242  1.8033 -0.1789
 2143SOL    MW4 8340   1.758   0.581   3.776  0.2927  0.5467 -0.2128
 2144SOL     OW 8341   4.163   4.011   1.174  0.9253 -0.2367 -0.2740
 2144SOL    HW2 8342   4.099   4.069   1.131  0.9046 -0.0717 -0.0214
 2144SOL    HW3 8343   4.162   4.038   1.265 -1.8700 -3.0544  0.7264
 2144SOL    MW4 8344   4.154   4.022   1.180 -0.0748  0.8436  0.3526
 2145SOL     OW 8345   1.308   5.127   5.400 -0.1966 -0.5186 -0.3431
 2145SOL    HW2 8346   1.350   5.193   5.345  1.1760 -0.7408  0.3906
 2145SOL    HW3 8347   1.247   5.082   5.341  0.1679  0.2042 -1.3010
 2145SOL    MW4 8348   1.306   5.130   5.385  0.1394  0.2775  0.0056
 2146SOL     OW 8349   2.520   0.177   3.349 -0.0632 -0.2040  0.3445
 2146SOL    HW2 8350   2.464   0.214   3.417 -2.2542  0.6075 -1.7402
 2146SOL    HW3 8351   2.558   0.253   3.304  0.8159 -0.6982  0.2126
 2146SOL    MW4 8352   2.518   0.192   3.352  0.2165  0.4702  0.0586
 2147SOL     OW 8353   5.402   3.853   3.948 -0.1196 -0.0310  0.3255
 2147SOL    HW2 8354   5.354   3.928   3.911  0.0942  0.6496  1.3660
 2147SOL    HW3 8355   5.333   3.792   3.975 -0.3758  0.5113  0.9292
 2147SOL    MW4 8356   5.386   3.855   3.947 -0.1001  0.2488  0.2906
 2148SOL     OW 8357   1.230   1.981   4.847  0.8335 -0.1882 -0.2053
 2148SOL    HW2 8358   1.238   1.887   4.829 -0.3818 -0.7568  1.8314
 2148SOL    HW3 8359   1.226   1.987   4.943  3.5102  2.2259 -0.1145
 2148SOL    MW4 8360   1.230   1.969   4.858 -0.2083 -0.2662 -0.9031
 2149SOL     OW 8361   0.830   0.036   0.653  0.4435  0.0513  0.4810
 2149SOL    HW2 8362   0.812   0.130   0.657  0.4440  0.0451  0.6186
 2149SOL    HW3 8363   0.744  -0.005   0.655  0.1781  0.1468 -2.9306
 2149SOL    MW4 8364   0.817   0.043   0.654  0.2052  0.2754  0.0105
 2150SOL     OW 8365   3.310   3.295   4.983 -0.2374 -0.0132 -0.3703
 2150SOL    HW2 8366   3.304   3.202   4.960 -0.6969 -0.1846  0.4256
 2150SOL    HW3 8367   3.223   3.330   4.964  0.1870  0.4643 -1.5202
 2150SOL    MW4 8368   3.297   3.288   4.977  0.6858 -0.4568  0.5064
 2151SOL     OW 8369   1.075   5.293   5.482 -0.7716 -0.6383 -0.3413
 2151SOL    HW2 8370   1.156   5.252   5.452 -0.2830 -0.6219  0.9070
 2151SOL    HW3 8371   1.078   5.382   5.444  0.1552 -0.3865  0.2856
 2151SOL    MW4 8372   1.086   5.300   5.473  0.3829 -0.0443 -0.0446
 2152SOL     OW 8373   1.848   5.364   3.244  0.2096 -0.5994 -0.8250
 2152SOL    HW2 8374   1.831   5.276   3.276 -0.2419 -0.2550 -0.0771
 2152SOL    HW3 8375   1.802   5.421   3.306  1.2017  0.2027 -0.7966
 2152SOL    MW4 8376   1.840   5.360   3.257 -0.1747 -0.4244  0.0064
 2153SOL     OW 8377   1.684   5.494   4.791 -0.8326 -0.4562 -0.0157
 2153SOL    HW2 8378   1.595   5.508   4.759 -0.9221 -2.4538 -0.7711
 2153SOL    HW3 8379   1.739   5.542   4.729 -1.2978 -0.4213 -0.4091
 2153SOL    MW4 8380   1.680   5.503   4.778 -0.1564  0.3406  0.4825
 2154SOL     OW 8381   4.563   1.660   5.684  0.2859 -0.1260 -0.1052
 2154SOL    HW2 8382   4.576   1.669   5.589  0.3479 -0.4289 -0.1261
 2154SOL    HW3 8383   4.627   1.720   5.723  1.0658 -0.8744 -0.2267
 2154SOL    MW4 8384   4.573   1.669   5.677 -0.0858  0.2353 -0.1330
 2155SOL     OW 8385   4.758   5.160   3.890  0.1398 -0.5542 -0.1725
 2155SOL    HW2 8386   4.710   5.235   3.857  1.4685 -0.1545 -1.3086
 2155SOL    HW3 8387   4.847   5.193   3.905  0.7968 -1.9024 -0.8690
 2155SOL    MW4 8388   4.764   5.174   3.887 -0.4659  0.0260  0.4044
 2156SOL     OW 8389   0.561   0.335   5.836 -0.3270 -0.6870  0.1998
 2156SOL    HW2 8390   0.466   0.349   5.830  0.0650  2.2617 -0.5225
 2156SOL    HW3 8391   0.576   0.312   5.928 -1.3748  2.9603  1.4323
 2156SOL    MW4 8392   0.550   0.334   5.847  0.3323 -0.2477 -0.0121
 2157SOL     OW 8393   5.374   4.052   0.660 -0.1484  0.1961 -0.6401
 2157SOL    HW2 8394   5.409   4.047   0.749 -1.2149  2.6387 -0.0091
 2157SOL    HW3 8395   5.449   4.078   0.606 -0.0070  1.1712 -0.0050
 2157SOL    MW4 8396   5.388   4.055   0.665 -0.0565  0.5897 -0.6354
 2158SOL     OW 8397   3.604   3.372   4.905 -0.1652 -0.0844  0.1236
 2158SOL    HW2 8398   3.620   3.332   4.990  0.5254 -0.7738 -0.3222
 2158SOL    HW3 8399   3.511   3.356   4.888 -0.1247 -0.6228  0.4043
 2158SOL    MW4 8400   3.594   3.365   4.914 -0.0810  0.2171 -0.3328
 2159SOL     OW 8401   3.913   5.081   6.040 -0.1366  0.3477  0.0637
 2159SOL    HW2 8402   3.828   5.095   5.997 -1.3202 -2.4424  1.2586
 2159SOL    HW3 8403   3.970   5.048   5.971 -0.9319 -0.5777 -0.1706
 2159SOL    MW4 8404   3.909   5.079   6.025  0.0341  0.6943  0.4147
 2160SOL     OW 8405   4.424   2.521   1.190 -0.1637 -0.2139 -0.6438
 2160SOL    HW2 8406   4.419   2.426   1.200  2.5247 -0.3216  0.2504
 2160SOL    HW3 8407   4.514   2.539   1.163 -0.7178  2.0759 -1.2538
 2160SOL    MW4 8408   4.435   2.511   1.188 -0.1121 -0.0177  0.0551
 2161SOL     OW 8409   5.035   2.314   5.571  0.1791  0.5201  0.1631
 2161SOL    HW2 8410   5.033   2.279   5.482 -1.7210  1.1524 -0.0782
 2161SOL    HW3 8411   5.105   2.380   5.570 -0.6934  1.4519 -1.2306
 2161SOL    MW4 8412   5.044   2.318   5.559  0.2803  0.4269 -0.1124
 2162SOL     OW 8413   2.355   6.385   3.301  0.1360  0.0694  0.4394
 2162SOL    HW2 8414   2.306   6.382   3.383 -2.2568  2.2130 -0.7922
 2162SOL    HW3 8415   2.383   6.476   3.293 -2.2593  0.7152 -2.4146
 2162SOL    MW4 8416   2.352   6.396   3.311 -0.5661  0.0320  0.7081
 2163SOL     OW 8417   4.821   4.130   3.354  0.2759  0.2540 -0.7449
 2163SOL    HW2 8418   4.884   4.132   3.426  0.2100  0.7469 -0.6996
 2163SOL    HW3 8419   4.756   4.195   3.376 -0.4274 -0.4642 -0.6471
 2163SOL    MW4 8420   4.821   4.139   3.366 -0.0953  0.2407 -0.3241
 2164SOL     OW 8421   5.413   5.752   3.485 -0.0949  0.4357  0.4859
 2164SOL    HW2 8422   5.508   5.760   3.482 -0.2096  1.7349 -1.3268
 2164SOL    HW3 8423   5.386   5.753   3.393 -1.7243 -2.3200  0.8108
 2164SOL    MW4 8424   5.422   5.753   3.473  0.6951  0.6319 -0.1085
 2165SOL     OW 8425   6.033   2.146   1.406 -0.0118  0.2839 -0.5146
 2165SOL    HW2 8426   6.062   2.237   1.405 -0.5082  0.4435 -0.9531
 2165SOL    HW3 8427   6.104   2.098   1.362 -0.1134  0.5810 -1.0167
 2165SOL    MW4 8428   6.046   2.151   1.400  0.2142 -0.2909 -0.7671
 2166SOL     OW 8429   2.272   4.398   1.830 -0.4647  0.5444  0.1960
 2166SOL    HW2 8430   2.338   4.330   1.814  0.5654  1.9686 -2.1164
 2166SOL    HW3 8431   2.196   4.349   1.863  0.6623 -1.5674 -0.1202
 2166SOL    MW4 8432   2.270   4.382   1.832  0.0393  0.6064 -0.3181
 2167SOL     OW 8433   2.210   4.680   0.818  0.4220 -0.0956 -0.0504
 2167SOL    HW2 8434   2.274   4.737   0.777  1.5311 -1.1252  0.1993
 2167SOL    HW3 8435   2.127   4.701   0.774  0.7967  1.6268 -0.0038
 2167SOL    MW4 8436   2.207   4.690   0.807 -0.0209  0.4613  0.5255
 2168SOL     OW 8437   3.505   6.246   0.649 -0.4244 -0.0134 -0.1231
 2168SOL    HW2 8438   3.519   6.331   0.607  1.3478 -0.5214 -0.6185
 2168SOL    HW3 8439   3.546   6.255   0.736  1.1207 -0.7975 -0.7322
 2168SOL    MW4 8440   3.512   6.258   0.655 -0.0093  0.3278 -0.0448
 2169SOL     OW 8441   3.284   1.151   4.354 -0.0664  0.0570 -0.9740
 2169SOL    HW2 8442   3.233   1.084   4.401  0.4406 -1.2276 -2.1808
 2169SOL    HW3 8443   3.343   1.187   4.420 -2.0769  1.1827  0.3293
 2169SOL    MW4 8444   3.285   1.147   4.369 -0.0033 -0.2492 -0.0575
 2170SOL     OW 8445   1.088   2.134   6.032 -0.1272  0.8970 -0.1071
 2170SOL    HW2 8446   1.067   2.141   6.125 -1.1517 -2.1085  0.0031
 2170SOL    HW3 8447   1.180   2.160   6.025  0.4551 -0.3834  2.0491
 2170SOL    MW4 8448   1.097   2.138   6.043  0.0642 -0.3441 -0.0738
 2171SOL     OW 8449   2.322   3.116   4.760  0.1170 -0.0744 -0.3662
 2171SOL    HW2 8450   2.275   3.032   4.756  0.9218 -0.5881  0.6381
 2171SOL    HW3 8451   2.312   3.145   4.851  1.5291 -0.0788 -0.1946
 2171SOL    MW4 8452   2.314   3.108   4.771 -0.2814 -0.0755  0.4246
 2172SOL     OW 8453   3.874   4.436   3.646 -0.0275 -0.6223  0.0468
 2172SOL    HW2 8454   3.916   4.491   3.580 -0.2252  0.3421  0.6939
 2172SOL    HW3 8455   3.941   4.423   3.713 -0.6251  0.7224  0.9648
 2172SOL    MW4 8456   3.888   4.442   3.646 -0.7133  0.0700 -0.7439
 2173SOL     OW 8457   5.290   3.400   2.417 -0.0096  0.1023 -0.0442
 2173SOL    HW2 8458   5.369   3.454   2.418 -0.7466  1.2360  0.5198
 2173SOL    HW3 8459   5.296   3.349   2.336  1.4844 -0.1544  0.2029
 2173SOL    MW4 8460   5.301   3.401   2.406  0.0162  0.4290  0.8929
 2174SOL     OW 8461   2.084   4.593   0.287 -0.1322  0.2300 -0.4723
 2174SOL    HW2 8462   2.168   4.557   0.316 -0.4123 -0.1157 -0.0847
 2174SOL    HW3 8463   2.096   4.688   0.293  0.4383  0.2027 -1.0135
 2174SOL    MW4 8464   2.097   4.601   0.292 -0.3854  0.0881 -0.2176
 2175SOL     OW 8465   3.368   4.002   2.482  0.5772 -0.1915  0.2777
 2175SOL    HW2 8466   3.306   3.938   2.450  0.9173 -0.1394 -0.4944
 2175SOL    HW3 8467   3.324   4.087   2.472 -0.4793 -0.3818  2.7065
 2175SOL    MW4 8468   3.354   4.005   2.477  0.3836 -0.0152  0.3870
 2176SOL     OW 8469   0.534   2.787   4.880  0.7872  0.0826  0.6993
 2176SOL    HW2 8470   0.472   2.822   4.816 -0.5701 -1.4182  1.1013
 2176SOL    HW3 8471   0.611   2.843   4.873 -0.0942  1.1821 -0.8043
 2176SOL    MW4 8472   0.536   2.799   4.871 -0.1469  0.0291 -0.0682
 2177SOL     OW 8473   1.266   2.260   5.422 -0.4317  0.4029 -0.1100
 2177SOL    HW2 8474   1.282   2.252   5.328  1.1924  0.1761  0.1506
 2177SOL    HW3 8475   1.311   2.341   5.447  1.3640 -0.8159  0.8590
 2177SOL    MW4 8476   1.274   2.269   5.413 -0.3689  0.0161  0.3226
 2178SOL     OW 8477   4.616   2.956   6.423 -0.4477 -0.0727 -0.3481
 2178SOL    HW2 8478   4.543   2.949   6.484  0.6827  0.0244  1.0703
 2178SOL    HW3 8479   4.591   3.027   6.364 -0.8522  0.9965  1.0572
 2178SOL    MW4 8480   4.603   2.964   6.423 -0.2018 -0.1706  0.1964
 2179SOL     OW 8481   2.617   5.927   0.176 -0.2279 -0.0787  0.2537
 2179SOL    HW2 8482   2.540   5.884   0.138 -1.0305  1.7221 -0.2376
 2179SOL    HW3 8483   2.674   5.944   0.102 -0.2900  0.4475  0.3252
 2179SOL    MW4 8484   2.614   5.923   0.162 -0.5961 -0.2253 -0.5142
 2180SOL     OW 8485   4.635   3.544   2.163 -0.4780 -0.1133  0.2545
 2180SOL    HW2 8486   4.571   3.472   2.162 -2.1734  1.2901 -1.3317
 2180SOL    HW3 8487   4.599   3.608   2.101  1.5591  1.5905  0.7216
 2180SOL    MW4 8488   4.622   3.543   2.155  0.2356  0.7079 -0.2202
 2181SOL     OW 8489   3.268   4.058   5.877 -0.1356  0.3171 -0.6942
 2181SOL    HW2 8490   3.179   4.085   5.855 -1.8263 -2.0886  2.4343
 2181SOL    HW3 8491   3.308   4.038   5.792 -3.2990 -0.5272 -2.1465
 2181SOL    MW4 8492   3.262   4.059   5.863  0.0756  0.1488  0.0390
 2182SOL     OW 8493   2.950   2.511   2.387 -0.4621  0.2741  0.0319
 2182SOL    HW2 8494   2.996   2.507   2.304 -0.5956  0.5482 -0.0561
 2182SOL    HW3 8495   2.975   2.596   2.425  1.3751 -0.7648  1.3074
 2182SOL    MW4 8496   2.959   2.522   2.381 -0.4369 -0.2857  0.2826
 2183SOL     OW 8497   1.072   1.893   2.205 -0.4798 -0.1187 -0.2729
 2183SOL    HW2 8498   1.139   1.909   2.138 -0.4714 -0.7607 -0.4263
 2183SOL    HW3 8499   1.120   1.852   2.277 -0.7047 -0.5836 -0.3852
 2183SOL    MW4 8500   1.087   1.890   2.206  0.0609  0.2960  0.4252
 2184SOL     OW 8501   2.563   2.163   2.063 -0.5379 -0.9547  0.5630
 2184SOL    HW2 8502   2.576   2.252   2.094 -2.0666 -0.8567  1.0142
 2184SOL    HW3 8503   2.626   2.111   2.112  1.0866 -0.0047 -0.4542
 2184SOL    MW4 8504   2.573   2.168   2.073  0.0983  1.0494 -0.1042
 2185SOL     OW 8505   4.080   1.816   4.292 -0.2611  0.5976  0.0293
 2185SOL    HW2 8506   4.058   1.864   4.213  1.0120  1.0186 -0.0843
 2185SOL    HW3 8507   4.017   1.743   4.294 -2.2096  2.1943  0.1959
 2185SOL    MW4 8508   4.069   1.813   4.282  0.1281 -0.4508  0.4598
 2186SOL     OW 8509   2.437   2.714   5.712 -0.4934  0.3888 -0.6073
 2186SOL    HW2 8510   2.494   2.788   5.732 -3.3156  1.9886  2.7679
 2186SOL    HW3 8511   2.410   2.729   5.621  0.8545  2.1531 -0.7790
 2186SOL    MW4 8512   2.441   2.726   5.703 -0.6869  0.0201  0.4642
 2187SOL     OW 8513   0.981   0.443   6.370  0.2016  0.0880 -0.5009
 2187SOL    HW2 8514   0.984   0.386   6.447  0.1249  0.7440 -0.0078
 2187SOL    HW3 8515   0.902   0.495   6.381  0.3988  0.4634 -0.8227
 2187SOL    MW4 8516   0.971   0.442   6.382  0.0454 -0.3534 -0.4628
 2188SOL     OW 8517   2.689   3.790   5.008  0.1201 -0.3259  0.3503
 2188SOL    HW2 8518   2.673   3.883   4.989  3.0820  0.1829 -0.0748
 2188SOL    HW3 8519   2.647   3.743   4.936  0.5608  0.8274 -0.6834
 2188SOL    MW4 8520   2.681   3.796   4.996 -0.1512 -0.0726  0.1070
 2189SOL     OW 8521   4.050   3.683   3.261 -0.0891 -0.0531  0.1756
 2189SOL    HW2 8522   4.064   3.719   3.173 -0.6112  2.5341  1.0826
 2189SOL    HW3 8523   4.132   3.698   3.307 -0.3950  0.1629  0.6492
 2189SOL    MW4 8524   4.062   3.690   3.255  0.1280  0.1253 -0.0302
 2190SOL     OW 8525   2.666   4.752   5.271 -0.5239 -0.0305  0.5369
 2190SOL    HW2 8526   2.726   4.823   5.293  0.7702 -0.5758 -1.0474
 2190SOL    HW3 8527   2.697   4.677   5.323  0.1874 -0.3127 -0.2831
 2190SOL    MW4 8528   2.678   4.751   5.281 -0.0237 -0.1342  0.2538
 2191SOL     OW 8529   2.776   2.828   5.411 -0.6513  0.2370  0.1889
 2191SOL    HW2 8530   2.835   2.834   5.336 -0.3714  0.4428  0.4230
 2191SOL    HW3 8531   2.826   2.864   5.484 -1.4412  1.4175  0.1723
 2191SOL    MW4 8532   2.790   2.834   5.411 -0.6494  0.0841 -0.5057
 2192SOL     OW 8533   6.195   3.813   2.900 -0.2527 -0.6836  0.7631
 2192SOL    HW2 8534   6.204   3.766   2.817 -3.9603  0.0509 -0.2789
 2192SOL    HW3 8535   6.103   3.840   2.901  0.0277  0.6258  4.4814
 2192SOL    MW4 8536   6.184   3.810   2.889 -0.0414 -0.0344  0.3835
 2193SOL     OW 8537   4.107   3.016   2.659 -0.2137  0.1335 -0.1468
 2193SOL    HW2 8538   4.066   2.940   2.616 -0.8938  1.5882 -2.2483
 2193SOL    HW3 8539   4.197   2.987   2.676 -0.1143 -0.8233 -1.9404
 2193SOL    MW4 8540   4.113   3.002   2.655  0.6655  0.4205  0.1988
 2194SOL     OW 8541   1.218   5.667   4.324  0.1365  0.4095 -0.4396
 2194SOL    HW2 8542   1.200   5.752   4.284 -0.8101  0.1362 -0.6053
 2194SOL    HW3 8543   1.202   5.681   4.418  2.5375  1.1008 -0.0686
 2194SOL    MW4 8544   1.214   5.680   4.331  0.4549  0.6822  0.0426
 2195SOL     OW 8545   6.165   5.545   5.683 -0.0858 -0.3440  0.4391
 2195SOL    HW2 8546   6.117   5.566   5.764  0.3594 -2.0664  1.2029
 2195SOL    HW3 8547   6.213   5.625   5.662  0.8019 -0.2167  2.6375
 2195SOL    MW4 8548   6.165   5.558   5.691 -0.1576  0.5137 -0.3592
 2196SOL     OW 8549   2.210   3.881   5.674  0.1594  0.5078  0.4605
 2196SOL    HW2 8550   2.245   3.851   5.758 -0.9419  0.1822  0.8206
 2196SOL    HW3 8551   2.116   3.887   5.688 -0.2560 -1.1345 -1.2444
 2196SOL    MW4 8552   2.202   3.878   5.687 -0.3898 -0.3795  0.3877
 2197SOL     OW 8553   1.567   4.147   1.471  1.0561 -0.1539  0.1227
 2197SOL    HW2 8554   1.636   4.085   1.446  1.7703 -0.6984  3.0223
 2197SOL    HW3 8555   1.614   4.225   1.499  0.3281  0.4325 -0.2697
 2197SOL    MW4 8556   1.583   4.149   1.472 -0.0676 -0.5416  0.2969
 2198SOL     OW 8557   5.032   2.367   2.941  0.2394 -0.1236  0.1661
 2198SOL    HW2 8558   5.099   2.334   2.881  1.7882  2.5407  0.2826
 2198SOL    HW3 8559   4.950   2.362   2.891  1.5244  2.4578 -2.5489
 2198SOL    MW4 8560   5.030   2.362   2.927 -0.3485 -0.3860  0.0975
 2199SOL     OW 8561   5.292   2.478   0.100 -0.5175  0.1921 -0.1295
 2199SOL    HW2 8562   5.348   2.518   0.034  1.4264 -0.1211  1.2504
 2199SOL    HW3 8563   5.236   2.549   0.131 -2.4057  0.0978 -2.8830
 2199SOL    MW4 8564   5.292   2.492   0.095 -0.5327 -0.3662  0.7109
 2200SOL     OW 8565   1.072   0.935   2.180  0.0914  0.3267  0.5911
 2200SOL    HW2 8566   1.075   1.022   2.219 -0.2196  0.4403  0.3647
 2200SOL    HW3 8567   1.126   0.942   2.101  0.1755  0.2763  0.6435
 2200SOL    MW4 8568   1.080   0.947   2.175  0.2919  0.2245 -0.2687
 2201SOL     OW 8569   0.464   1.364   5.300 -0.3705  1.1665 -0.2402
 2201SOL    HW2 8570   0.479   1.308   5.224  1.3167  0.1732  0.7624
 2201SOL    HW3 8571   0.545   1.414   5.309 -0.1078  0.4764  1.5226
 2201SOL    MW4 8572   0.477   1.363   5.291  0.1670  0.5758  0.0672
 2202SOL     OW 8573   3.951   0.029   5.039 -0.5366 -0.2936 -0.1879
 2202SOL    HW2 8574   3.924   0.085   5.112 -0.0150  1.4227 -1.2542
 2202SOL    HW3 8575   3.870  -0.008   5.005 -1.2631  2.0876 -1.2153
 2202SOL    MW4 8576   3.937   0.032   5.044 -0.7348 -0.3053  1.2833
 2203SOL     OW 8577   5.411   0.432   4.261 -0.0709  0.5898 -0.3778
 2203SOL    HW2 8578   5.337   0.423   4.321 -1.4272  0.8554 -1.9394
 2203SOL    HW3 8579   5.463   0.353   4.275 -1.0304  0.0491  0.2551
 2203SOL    MW4 8580   5.408   0.421   4.271  0.2775 -0.2028 -0.0873
 2204SOL     OW 8581   3.642   1.492   5.427  0.1589 -0.2308 -0.3633
 2204SOL    HW2 8582   3.658   1.434   5.353  1.4990 -0.4965  0.0996
 2204SOL    HW3 8583   3.708   1.467   5.492  0.1021  1.1216  0.2571
 2204SOL    MW4 8584   3.653   1.481   5.426  0.2125 -0.3451 -0.1135
 2205SOL     OW 8585   0.025   2.319   3.928 -0.0294 -0.5488  0.0239
 2205SOL    HW2 8586   0.018   2.349   4.018 -0.9616  1.3111 -0.6036
 2205SOL    HW3 8587  -0.065   2.320   3.895  0.3729 -0.4704 -1.1172
 2205SOL    MW4 8588   0.012   2.323   3.935  0.0094 -0.4434 -0.6898
 2206SOL     OW 8589   1.495   5.875   0.204  0.6743 -0.1486  0.8148
 2206SOL    HW2 8590   1.552   5.930   0.150 -0.0271  0.4487  0.6702
 2206SOL    HW3 8591   1.538   5.871   0.289  2.3840 -1.9985 -0.0428
 2206SOL    MW4 8592   1.508   5.882   0.208  0.0599  0.0389  0.1781
 2207SOL     OW 8593   3.991   6.369   1.219  0.5501  0.3409 -0.6575
 2207SOL    HW2 8594   4.013   6.361   1.126 -1.3996 -1.2000 -1.0416
 2207SOL    HW3 8595   4.076   6.376   1.263  1.6659 -1.4759 -2.3504
 2207SOL    MW4 8596   4.005   6.369   1.212 -0.2651  0.0143  0.3506
 2208SOL     OW 8597   2.021   1.516   5.635 -0.1399  0.0878 -0.2284
 2208SOL    HW2 8598   2.066   1.452   5.691 -0.2819 -0.8060 -1.0972
 2208SOL    HW3 8599   1.984   1.463   5.564  2.5107  1.4469 -2.8549
 2208SOL    MW4 8600   2.022   1.500   5.633 -0.2384  0.3848  0.2984
 2209SOL     OW 8601   3.362   0.510   5.498  0.3786 -0.5599  0.3247
 2209SOL    HW2 8602   3.337   0.418   5.486 -0.4474 -0.1794 -1.1604
 2209SOL    HW3 8603   3.324   0.534   5.583  1.3176 -1.7822  1.1393
 2209SOL    MW4 8604   3.354   0.501   5.508 -0.4520  0.2549 -0.0160
 2210SOL     OW 8605   3.193   3.096   1.038 -0.5888 -0.2160  0.1941
 2210SOL    HW2 8606   3.165   3.015   0.994  0.4388 -0.1982 -0.5206
 2210SOL    HW3 8607   3.199   3.072   1.131 -0.2793 -0.9667 -0.0144
 2210SOL    MW4 8608   3.190   3.082   1.045  0.3508  0.0840  0.1560
 2211SOL     OW 8609   3.112   1.819   2.531 -0.5133  0.1083 -0.2981
 2211SOL    HW2 8610   3.066   1.897   2.563  0.1722  1.2807 -2.0512
 2211SOL    HW3 8611   3.199   1.850   2.508 -0.6798 -0.8212 -2.4237
 2211SOL    MW4 8612   3.117   1.834   2.532 -0.3041 -0.0990  0.2134
 2212SOL     OW 8613   2.017   0.572   4.912 -0.0584 -0.3326 -0.3315
 2212SOL    HW2 8614   2.052   0.529   4.834  1.8360  1.8272 -0.7777
 2212SOL    HW3 8615   1.997   0.661   4.884 -0.6394  0.0988  1.3352
 2212SOL    MW4 8616   2.019   0.578   4.898  0.4384 -0.5958 -0.2062
 2213SOL     OW 8617   0.217   2.466   1.982 -0.1254  0.5681 -0.4079
 2213SOL    HW2 8618   0.189   2.378   1.957 -2.2403  0.6701  1.2846
 2213SOL    HW3 8619   0.310   2.457   2.001 -0.4302 -1.4843  0.3324
 2213SOL    MW4 8620   0.225   2.453   1.981  0.1999 -0.2710 -0.1844
 2214SOL     OW 8621   4.084   5.306   3.473  0.9160  0.3648 -0.0875
 2214SOL    HW2 8622   4.127   5.344   3.397 -1.5738  0.8544 -1.3798
 2214SOL    HW3 8623   4.053   5.382   3.523  1.1584  0.0427  0.5563
 2214SOL    MW4 8624   4.085   5.321   3.470  0.5643  0.4142 -0.0641
 2215SOL     OW 8625   0.978   6.240   3.176  0.1508  0.3408 -0.0014
 2215SOL    HW2 8626   0.938   6.322   3.205 -0.9258  0.0441 -0.6124
 2215SOL    HW3 8627   0.917   6.172   3.203  1.0767 -0.2981  0.5789
 2215SOL    MW4 8628   0.965   6.242   3.184  0.1970 -0.3485  0.8113
 2216SOL     OW 8629   3.880   6.322   3.429  0.2625  0.0578  0.1704
 2216SOL    HW2 8630   3.792   6.354   3.451 -0.1057 -1.4667  1.1049
 2216SOL    HW3 8631   3.919   6.393   3.378 -1.0720  1.2759  0.7402
 2216SOL    MW4 8632   3.873   6.336   3.426  0.0145  0.0352 -0.4999
 2217SOL     OW 8633   0.572   6.111   1.046 -0.0281 -0.2127 -0.2593
 2217SOL    HW2 8634   0.589   6.139   0.956  1.2498 -2.0873 -0.6493
 2217SOL    HW3 8635   0.541   6.021   1.038  1.4657 -0.8931  1.2493
 2217SOL    MW4 8636   0.570   6.103   1.033  0.3425  0.4814  0.0372
 2218SOL     OW 8637   3.152   3.324   4.643  0.2963  0.0557  0.2017
 2218SOL    HW2 8638   3.124   3.354   4.556  1.0927  1.2555  0.3388
 2218SOL    HW3 8639   3.148   3.402   4.698 -1.0244 -0.8720  1.4873
 2218SOL    MW4 8640   3.147   3.338   4.639 -0.1749 -0.0781 -0.6206
 2219SOL     OW 8641   3.673   1.502   0.319  0.2845 -0.8213 -0.2691
 2219SOL    HW2 8642   3.663   1.562   0.246 -0.0821  0.4111  0.7583
 2219SOL    HW3 8643   3.735   1.546   0.378  0.3386 -1.6411  0.3021
 2219SOL    MW4 8644   3.680   1.516   0.317  0.2284 -0.1735 -0.0319
 2220SOL     OW 8645   0.760   3.443   3.351 -0.5268  0.3706 -0.1269
 2220SOL    HW2 8646   0.741   3.395   3.431  0.3157 -0.3514 -0.3479
 2220SOL    HW3 8647   0.849   3.417   3.328 -1.1596 -0.3931 -1.9392
 2220SOL    MW4 8648   0.769   3.433   3.358 -0.4233 -0.1878 -0.6067
 2221SOL     OW 8649   0.979   3.782   2.535  0.1482  0.0624  0.1816
 2221SOL    HW2 8650   0.892   3.808   2.567  0.2298  1.5867 -0.7533
 2221SOL    HW3 8651   0.963   3.749   2.447  0.4622 -0.1067  0.1877
 2221SOL    MW4 8652   0.965   3.781   2.528 -0.0073 -0.5841  0.4770
 2222SOL     OW 8653   0.538   5.453   2.754  0.1418  0.6434  0.5376
 2222SOL    HW2 8654   0.609   5.439   2.691 -0.7470  0.9202 -0.5503
 2222SOL    HW3 8655   0.461   5.472   2.700 -0.2484  2.8298  1.7478
 2222SOL    MW4 8656   0.537   5.453   2.738 -0.2710 -0.0779  0.6158
 2223SOL     OW 8657   2.527   2.062   3.707  0.1130  0.3627 -0.6543
 2223SOL    HW2 8658   2.515   2.027   3.796 -0.7575  3.4055  0.5370
 2223SOL    HW3 8659   2.620   2.046   3.688  0.3361 -0.2872  0.8338
 2223SOL    MW4 8660   2.538   2.055   3.716 -0.5040  0.0769 -0.2769
 2224SOL     OW 8661   0.300   1.609   4.535 -0.2562  0.2409  0.3625
 2224SOL    HW2 8662   0.314   1.654   4.618  2.7520 -0.6177  0.4600
 2224SOL    HW3 8663   0.304   1.516   4.558 -1.5536 -0.0435 -0.4813
 2224SOL    MW4 8664   0.303   1.602   4.549 -0.0248 -0.0254  0.3796
 2225SOL     OW 8665   5.893   5.427   2.298  0.1240  0.1816 -0.2757
 2225SOL    HW2 8666   5.977   5.446   2.255  0.0182 -2.0971 -1.6700
 2225SOL    HW3 8667   5.902   5.464   2.386  2.4335  0.3562 -0.5179
 2225SOL    MW4 8668   5.905   5.434   2.304  0.1966  0.2650  0.1074
 2226SOL     OW 8669   2.111   3.518   4.260  0.5224  0.1557  0.5113
 2226SOL    HW2 8670   2.020   3.503   4.281  0.9959 -0.0037  2.6002
 2226SOL    HW3 8671   2.136   3.444   4.205 -1.2774  1.6086 -2.5909
 2226SOL    MW4 8672   2.103   3.507   4.255  0.3531  0.4938 -0.8927
 2227SOL     OW 8673   0.838   1.858   2.069  0.1984 -0.5139  0.5656
 2227SOL    HW2 8674   0.915   1.882   2.120  0.7408 -0.6192 -0.1794
 2227SOL    HW3 8675   0.850   1.903   1.985 -0.4849 -0.6393  0.3933
 2227SOL    MW4 8676   0.850   1.867   2.065  0.0153 -0.8905  0.0259
 2228SOL     OW 8677   0.779   0.577   3.916  0.0834  0.0645 -0.2642
 2228SOL    HW2 8678   0.743   0.498   3.875 -0.9608 -0.5054  1.6395
 2228SOL    HW3 8679   0.720   0.647   3.890 -0.7305 -0.3419  0.4422
 2228SOL    MW4 8680   0.767   0.576   3.907 -0.8292 -0.0192  0.2061
 2229SOL     OW 8681   1.104   4.510   2.913 -0.5535  0.0088  0.1858
 2229SOL    HW2 8682   1.072   4.495   2.824 -2.2258  2.5690  0.2547
 2229SOL    HW3 8683   1.193   4.474   2.913 -1.0849 -1.4754 -2.0066
 2229SOL    MW4 8684   1.112   4.503   2.901 -0.2664 -0.3264  0.2673
 2230SOL     OW 8685   2.961   2.870   5.207 -0.8132 -0.2293  0.0222
 2230SOL    HW2 8686   2.956   2.800   5.141 -0.9445 -0.5686  0.3863
 2230SOL    HW3 8687   2.908   2.941   5.171 -0.0240 -0.0064 -0.7263
 2230SOL    MW4 8688   2.953   2.870   5.194 -0.2879 -0.3246  0.1890
 2231SOL     OW 8689   3.321   2.471   3.294 -0.4975 -0.1507 -0.2803
 2231SOL    HW2 8690   3.344   2.501   3.382  2.0434 -0.2555 -0.8349
 2231SOL    HW3 8691   3.276   2.545   3.255 -0.2725  0.4676  0.6006
 2231SOL    MW4 8692   3.318   2.485   3.300 -0.1560  0.2581  0.5223
 2232SOL     OW 8693   3.105   3.407   6.010  0.3446 -0.1047  0.2480
 2232SOL    HW2 8694   3.068   3.423   5.923 -1.0364  0.8457  0.9590
 2232SOL    HW3 8695   3.178   3.348   5.995  1.6002  1.8175 -1.8411
 2232SOL    MW4 8696   3.109   3.402   5.997  1.3125  0.6963  0.5693
 2233SOL     OW 8697   3.599   2.044   2.369 -0.3987  0.1727  0.6102
 2233SOL    HW2 8698   3.661   2.009   2.434 -0.3031  0.1924  0.5304
 2233SOL    HW3 8699   3.654   2.065   2.293  0.0061  2.9634  1.5748
 2233SOL    MW4 8700   3.615   2.042   2.368  0.4066  0.0603  0.1993
 2234SOL     OW 8701   2.903   1.145   4.428 -0.1382  0.2793 -0.4081
 2234SOL    HW2 8702   2.861   1.078   4.374 -0.6527 -0.2091  0.5824
 2234SOL    HW3 8703   2.936   1.098   4.504  1.5457  0.7797 -0.7894
 2234SOL    MW4 8704   2.902   1.130   4.431 -0.1360  0.1695  0.2613
 2235SOL     OW 8705   2.573   5.746   0.659  0.0261 -0.5725 -0.0685
 2235SOL    HW2 8706   2.608   5.673   0.708 -0.0245 -1.2133 -0.9597
 2235SOL    HW3 8707   2.478   5.732   0.660 -0.4025  1.5518  2.9724
 2235SOL    MW4 8708   2.565   5.735   0.665 -0.5674  0.5361  0.0332
 2236SOL     OW 8709   6.319   2.245   2.717  0.6523  0.5085 -0.3576
 2236SOL    HW2 8710   6.308   2.172   2.656 -1.2744  0.5324 -0.1276
 2236SOL    HW3 8711   6.249   2.232   2.781  0.7439  2.1441  0.1094
 2236SOL    MW4 8712   6.308   2.234   2.717  0.2581  0.1640  0.0878
 2237SOL     OW 8713   2.520   1.217   4.185  0.4526 -0.1168 -0.4781
 2237SOL    HW2 8714   2.569   1.278   4.241 -1.3630  0.4503  0.5779
 2237SOL    HW3 8715   2.500   1.268   4.106 -1.2177  0.7780  0.4758
 2237SOL    MW4 8716   2.524   1.232   4.182  0.3373 -0.2056 -0.1652
 2238SOL     OW 8717   0.489   0.900   2.142 -0.3422 -0.0556 -0.2167
 2238SOL    HW2 8718   0.483   0.941   2.055 -0.3376  1.1537  0.3347
 2238SOL    HW3 8719   0.399   0.902   2.175 -0.4264 -0.9484 -0.3761
 2238SOL    MW4 8720   0.476   0.906   2.135 -0.2612  0.1033 -0.6074
 2239SOL     OW 8721   4.173   5.854   2.040  0.1678  0.4366  0.3197
 2239SOL    HW2 8722   4.225   5.782   2.005 -0.1679  0.0448  0.6197
 2239SOL    HW3 8723   4.172   5.919   1.970  0.4089  0.1179  0.0166
 2239SOL    MW4 8724   4.180   5.853   2.026  0.2362  0.3012  0.3187
 2240SOL     OW 8725   5.247   1.646   3.643  0.3859  0.1239 -0.7478
 2240SOL    HW2 8726   5.290   1.561   3.657  0.5430 -0.0531 -2.1407
 2240SOL    HW3 8727   5.208   1.667   3.728 -0.5475 -1.8344 -0.6311
 2240SOL    MW4 8728   5.248   1.638   3.656  0.5218  0.1329  0.0987
 2241SOL     OW 8729   2.182   1.888   0.554  0.0197  0.6186  0.0648
 2241SOL    HW2 8730   2.269   1.855   0.530 -0.1155 -0.9229  1.4823
 2241SOL    HW3 8731   2.132   1.885   0.473 -0.3790 -4.2099  0.1957
 2241SOL    MW4 8732   2.187   1.883   0.540 -0.4687  0.1086  0.2304
 2242SOL     OW 8733   2.217   2.683   0.828 -0.1230  1.0234  0.2086
 2242SOL    HW2 8734   2.305   2.717   0.814 -0.0832  0.6790 -0.4132
 2242SOL    HW3 8735   2.213   2.604   0.774 -1.0071  1.3668 -0.2453
 2242SOL    MW4 8736   2.228   2.677   0.819 -0.0109 -0.1598 -0.2608
 2243SOL     OW 8737   6.299   4.698   0.119  0.0834  0.0715 -0.2178
 2243SOL    HW2 8738   6.235   4.767   0.136  1.0995  0.9645  0.1151
 2243SOL    HW3 8739   6.382   4.736   0.147  0.7237 -1.1492 -0.4156
 2243SOL    MW4 8740   6.302   4.712   0.125  0.6161  0.6664  0.5291
 2244SOL     OW 8741   1.156   4.126   1.751 -0.3850 -0.0945  0.0137
 2244SOL    HW2 8742   1.115   4.048   1.788  1.9594 -0.6915  1.5774
 2244SOL    HW3 8743   1.109   4.199   1.791 -1.5615 -0.6856 -0.2443
 2244SOL    MW4 8744   1.145   4.125   1.761 -0.2432  0.0569  0.2789
 2245SOL     OW 8745   3.919   3.464   0.185 -0.0938 -0.5333 -0.1581
 2245SOL    HW2 8746   3.892   3.374   0.169  0.8060 -0.9931  0.7465
 2245SOL    HW3 8747   3.956   3.462   0.274  1.4322  0.3561 -0.7336
 2245SOL    MW4 8748   3.921   3.452   0.195 -0.2763  0.9634 -0.1006
 2246SOL     OW 8749   5.889   4.144   2.067 -0.3607 -1.0155  0.3608
 2246SOL    HW2 8750   5.917   4.139   2.159  2.3091 -0.2384 -0.3255
 2246SOL    HW3 8751   5.825   4.216   2.066  0.4794 -0.2127  1.4279
 2246SOL    MW4 8752   5.884   4.153   2.079 -0.4896 -0.0290  0.1654
 2247SOL     OW 8753   0.250   3.455   5.345 -0.2511  0.1100 -0.3080
 2247SOL    HW2 8754   0.218   3.413   5.425  1.9457 -0.4815  0.3324
 2247SOL    HW3 8755   0.275   3.382   5.288  2.4471  0.4529  0.3256
 2247SOL    MW4 8756   0.249   3.440   5.348 -0.8690 -0.2897 -0.1051
 2248SOL     OW 8757   5.180   1.482   0.025 -0.4496  0.1969 -0.5057
 2248SOL    HW2 8758   5.179   1.578   0.024  0.3792  0.2251  0.2604
 2248SOL    HW3 8759   5.097   1.458   0.065  0.0638  0.6620  0.9420
 2248SOL    MW4 8760   5.169   1.492   0.030 -0.5053  0.0628 -0.3647
 2249SOL     OW 8761   3.604   5.721   5.481 -0.2753 -0.0234 -0.4719
 2249SOL    HW2 8762   3.560   5.651   5.530  0.0756 -0.5300 -0.8708
 2249SOL    HW3 8763   3.571   5.714   5.392 -0.3346  0.4050 -0.4882
 2249SOL    MW4 8764   3.594   5.711   5.476  0.0914 -0.2738 -0.2906
 2250SOL     OW 8765   5.030   4.442   3.825  0.4538 -0.1357 -0.1850
 2250SOL    HW2 8766   4.946   4.486   3.831  1.6941  2.3892 -0.0460
 2250SOL    HW3 8767   5.043   4.428   3.731  0.6052  1.0850 -0.3672
 2250SOL    MW4 8768   5.021   4.446   3.813 -0.1244  0.1492  0.1863
 2251SOL     OW 8769   0.713   3.297   6.428  0.1187  0.3922 -0.0918
 2251SOL    HW2 8770   0.730   3.203   6.434  0.4320  0.3938 -0.8819
 2251SOL    HW3 8771   0.685   3.312   6.338 -2.9947  0.6028  0.7778
 2251SOL    MW4 8772   0.712   3.287   6.417  0.0949  0.6732 -0.2577
 2252SOL     OW 8773   4.354   0.535   6.004  0.0876 -0.9912 -0.3642
 2252SOL    HW2 8774   4.341   0.614   5.953  0.7509 -0.3110  0.4868
 2252SOL    HW3 8775   4.271   0.487   5.996 -0.5316  0.0660 -0.4216
 2252SOL    MW4 8776   4.341   0.539   5.996  0.8373  0.0700 -0.6746
 2253SOL     OW 8777   5.380   4.660   2.028 -0.2154 -0.7848  0.0421
 2253SOL    HW2 8778   5.338   4.672   2.113  0.6802 -1.2062  0.5495
 2253SOL    HW3 8779   5.456   4.718   2.030 -1.5023  1.0900 -1.4335
 2253SOL    MW4 8780   5.384   4.669   2.039  0.0744  0.1419 -0.1604
 2254SOL     OW 8781   0.433   2.545   5.695  0.0921  0.3081  0.0195
 2254SOL    HW2 8782   0.345   2.508   5.708 -0.0327  1.0348  1.4504
 2254SOL    HW3 8783   0.461   2.571   5.783  0.6387  2.5688 -0.7628
 2254SOL    MW4 8784   0.425   2.543   5.708 -0.0865  0.3712  0.4979
 2255SOL     OW 8785   0.699   4.306   0.116 -0.7859  0.1253  0.0108
 2255SOL    HW2 8786   0.643   4.242   0.160  1.0236 -0.7025  1.2190
 2255SOL    HW3 8787   0.644   4.384   0.108 -1.8773 -0.3830  1.8834
 2255SOL    MW4 8788   0.685   4.308   0.121 -0.1817  0.1156  0.7886
 2256SOL     OW 8789   4.281   3.809   5.788  0.2098  0.0777  0.1047
 2256SOL    HW2 8790   4.307   3.717   5.779  0.7320 -0.1678  3.1092
 2256SOL    HW3 8791   4.307   3.849   5.705  1.5149 -2.1374 -0.6467
 2256SOL    MW4 8792   4.288   3.802   5.776  0.2397  0.0815 -0.0049
 2257SOL     OW 8793   5.626   0.928   3.299  0.2123 -0.0607 -0.2868
 2257SOL    HW2 8794   5.621   0.907   3.206  0.2966 -1.3961 -0.0137
 2257SOL    HW3 8795   5.719   0.921   3.321  0.2094  0.3700 -0.1291
 2257SOL    MW4 8796   5.637   0.924   3.290 -0.0832  0.4222  0.4418
 2258SOL     OW 8797   2.223   5.198   5.687 -0.1845 -0.2723  0.4493
 2258SOL    HW2 8798   2.133   5.165   5.688 -0.2457 -0.7181 -3.8751
 2258SOL    HW3 8799   2.277   5.123   5.710 -0.7707 -1.0292 -0.5832
 2258SOL    MW4 8800   2.218   5.184   5.690  0.0730 -0.7046 -0.5745
 2259SOL     OW 8801   2.401   6.039   5.894  0.3282  0.0993  0.0027
 2259SOL    HW2 8802   2.448   5.968   5.937 -0.3121 -0.2926  0.0680
 2259SOL    HW3 8803   2.467   6.108   5.882  0.8851 -0.3927  0.1898
 2259SOL    MW4 8804   2.416   6.039   5.898 -0.1616  0.5056 -0.3397
 2260SOL     OW 8805   1.802   0.371   0.446 -0.0955 -0.0562  0.0331
 2260SOL    HW2 8806   1.825   0.397   0.536 -0.5834  1.3149 -0.2097
 2260SOL    HW3 8807   1.732   0.431   0.422  2.6445  2.4271 -2.6742
 2260SOL    MW4 8808   1.796   0.383   0.455  0.3315 -1.2596 -0.4931
 2261SOL     OW 8809   3.676   0.673   3.041 -0.1507  0.2159 -0.0154
 2261SOL    HW2 8810   3.733   0.610   3.085  0.3930 -0.4441 -1.6039
 2261SOL    HW3 8811   3.592   0.663   3.086 -0.3064 -2.2302 -0.6926
 2261SOL    MW4 8812   3.672   0.664   3.053 -0.0252 -0.7604  0.1409
 2262SOL     OW 8813   0.453   2.143   3.402  0.5867 -0.5141 -0.8263
 2262SOL    HW2 8814   0.449   2.068   3.343  0.6187 -0.6020 -0.7167
 2262SOL    HW3 8815   0.485   2.215   3.348 -2.4026  0.2591 -1.8001
 2262SOL    MW4 8816   0.457   2.143   3.387  0.1665  0.4802  0.1806
 2263SOL     OW 8817   3.568   2.997   4.824  0.3370 -0.2919  0.1691
 2263SOL    HW2 8818   3.640   2.971   4.767 -1.0595  0.1288 -1.9374
 2263SOL    HW3 8819   3.546   3.086   4.795 -2.7603 -1.3832 -1.2981
 2263SOL    MW4 8820   3.574   3.006   4.813  0.4156 -0.4288  0.0545
 2264SOL     OW 8821   1.034   0.618   3.254 -0.1871 -0.6337  0.4575
 2264SOL    HW2 8822   1.076   0.593   3.171 -0.3977 -1.3077  0.5497
 2264SOL    HW3 8823   0.974   0.546   3.274 -0.7631 -0.0850  0.7694
 2264SOL    MW4 8824   1.031   0.605   3.246 -0.5873 -0.2094  0.0852
 2265SOL     OW 8825   4.439   4.035   6.155 -0.5628  0.3871  0.7580
 2265SOL    HW2 8826   4.481   4.019   6.070  0.3570  0.6883  1.1349
 2265SOL    HW3 8827   4.468   4.123   6.179  0.2034 -0.1586  1.9433
 2265SOL    MW4 8828   4.448   4.045   6.147  0.6943  0.6649  0.7514
 2266SOL     OW 8829   6.122   2.293   4.924 -0.0951 -0.2922  0.4181
 2266SOL    HW2 8830   6.044   2.248   4.957  0.7897 -1.5826  0.8595
 2266SOL    HW3 8831   6.131   2.370   4.980  0.6253 -1.7455  2.4070
 2266SOL    MW4 8832   6.113   2.297   4.936 -0.1457  0.5033 -0.3046
 2267SOL     OW 8833   4.198   0.514   4.034 -0.3687  0.3009  0.7045
 2267SOL    HW2 8834   4.275   0.527   3.978 -0.9929 -0.1793 -0.2954
 2267SOL    HW3 8835   4.214   0.429   4.076 -0.8377 -0.3341 -0.3516
 2267SOL    MW4 8836   4.211   0.504   4.032  0.4521  0.1750 -0.1332
 2268SOL     OW 8837   2.771   1.579   2.894  0.8119  0.2362 -0.5666
 2268SOL    HW2 8838   2.676   1.583   2.903  0.5065 -1.6981 -2.1792
 2268SOL    HW3 8839   2.793   1.648   2.832  0.5338  0.8963  0.0521
 2268SOL    MW4 8840   2.761   1.589   2.887  0.3551  0.6846 -0.1317
 2269SOL     OW 8841   3.318   0.177   1.530  0.5419 -0.1824 -0.0038
 2269SOL    HW2 8842   3.317   0.105   1.593 -0.2102 -0.9372 -0.8252
 2269SOL    HW3 8843   3.405   0.174   1.491  0.2648 -1.1918 -0.5903
 2269SOL    MW4 8844   3.329   0.167   1.533 -0.2386 -0.1796 -0.2318
 2270SOL     OW 8845   1.062   1.055   5.140 -0.0042  0.4177 -0.0952
 2270SOL    HW2 8846   1.093   1.035   5.229 -2.2845  0.4574  0.7781
 2270SOL    HW3 8847   1.061   1.150   5.136  0.4093  0.4156 -0.2921
 2270SOL    MW4 8848   1.066   1.065   5.151 -0.0243 -0.8535 -0.1068
 2271SOL     OW 8849   2.898   0.955   3.438 -0.1555  0.8604  0.2762
 2271SOL    HW2 8850   2.979   1.004   3.428 -0.7226  1.5828 -0.9730
 2271SOL    HW3 8851   2.925   0.863   3.434  0.5238  1.0908 -0.8684
 2271SOL    MW4 8852   2.912   0.949   3.436  0.3796 -0.0297  0.3667
 2272SOL     OW 8853   3.152   6.122   3.433  0.3922  0.1408  0.8158
 2272SOL    HW2 8854   3.127   6.100   3.522 -0.7275 -3.0771 -0.1530
 2272SOL    HW3 8855   3.235   6.076   3.419  1.0441  1.3914  0.4543
 2272SOL    MW4 8856   3.160   6.113   3.443 -0.2288 -0.0817 -0.1639
 2273SOL     OW 8857   6.127   1.785   3.734  0.3371 -0.1010  0.2973
 2273SOL    HW2 8858   6.167   1.726   3.670 -1.0464 -0.4291 -0.2906
 2273SOL    HW3 8859   6.160   1.754   3.819 -0.4906 -1.8507  0.0196
 2273SOL    MW4 8860   6.137   1.774   3.737  0.2013 -0.4330 -0.8651
 2274SOL     OW 8861   5.883   1.873   4.919 -0.8344 -0.0137 -0.3822
 2274SOL    HW2 8862   5.913   1.805   4.979 -2.2129  0.4372  0.8569
 2274SOL    HW3 8863   5.880   1.829   4.834  1.6070 -0.5252 -0.2718
 2274SOL    MW4 8864   5.887   1.858   4.915  0.3514  0.8109  0.1535
 2275SOL     OW 8865   5.551   2.551   1.914  0.4058 -0.2106 -0.6549
 2275SOL    HW2 8866   5.544   2.528   2.007 -0.3382  1.5307 -0.2508
 2275SOL    HW3 8867   5.643   2.535   1.893  0.6874 -0.2282  0.4849
 2275SOL    MW4 8868   5.562   2.546   1.924 -0.1965  0.7019 -0.4984
 2276SOL     OW 8869   1.299   1.813   5.890  0.2724  0.0899 -0.2608
 2276SOL    HW2 8870   1.337   1.733   5.926  0.3470 -0.4719 -1.5141
 2276SOL    HW3 8871   1.374   1.872   5.879  0.5630 -0.4114 -1.1703
 2276SOL    MW4 8872   1.314   1.810   5.893 -0.1837  0.1036  0.0210
 2277SOL     OW 8873   1.211   5.667   2.366  0.2469  0.1036 -0.3198
 2277SOL    HW2 8874   1.305   5.647   2.373  0.3300  0.3746 -0.6761
 2277SOL    HW3 8875   1.172   5.588   2.329  0.3572  0.0549 -0.3314
 2277SOL    MW4 8876   1.218   5.654   2.362 -0.8023 -0.9028  0.5182
 2278SOL     OW 8877   3.602   0.939   4.444 -0.0460  0.4520  0.3986
 2278SOL    HW2 8878   3.578   0.983   4.526 -3.0070  0.3355 -0.3161
 2278SOL    HW3 8879   3.529   0.879   4.426  1.8978 -1.7144 -0.8570
 2278SOL    MW4 8880   3.589   0.937   4.453 -0.3715 -0.1459 -0.1701
 2279SOL     OW 8881   3.214   0.383   4.417  0.2148  0.4241  0.5159
 2279SOL    HW2 8882   3.252   0.299   4.391 -1.7786 -0.8453  1.4208
 2279SOL    HW3 8883   3.242   0.444   4.349 -1.2806 -1.7991 -2.3370
 2279SOL    MW4 8884   3.222   0.380   4.405 -0.1153 -0.1493 -0.1770
 2280SOL     OW 8885   4.885   3.972   6.340 -0.1591  0.2588 -0.1903
 2280SOL    HW2 8886   4.963   4.000   6.388 -0.7820  0.3233  0.8129
 2280SOL    HW3 8887   4.844   4.054   6.311 -0.2667  0.2614 -0.0348
 2280SOL    MW4 8888   4.890   3.987   6.343 -0.3548 -0.3595  0.1144
 2281SOL     OW 8889   5.359   3.934   0.240 -0.5305  0.3831  0.1300
 2281SOL    HW2 8890   5.354   4.006   0.302  0.9019  1.0752 -0.5083
 2281SOL    HW3 8891   5.317   3.968   0.161 -0.2141  0.3904 -0.0388
 2281SOL    MW4 8892   5.353   3.948   0.238 -0.0125 -0.0114  0.0438
 2282SOL     OW 8893   5.286   1.157   6.222 -0.9013 -0.4360 -0.0802
 2282SOL    HW2 8894   5.293   1.253   6.226 -0.1294 -0.5340  1.2747
 2282SOL    HW3 8895   5.195   1.139   6.246 -1.0340 -0.0457 -0.2792
 2282SOL    MW4 8896   5.275   1.168   6.226 -0.4605 -0.0481 -0.3548
 2283SOL     OW 8897   3.332   4.913   3.459  0.7559  0.6115  0.3229
 2283SOL    HW2 8898   3.241   4.888   3.441  0.5400  0.9389  0.9174
 2283SOL    HW3 8899   3.332   5.009   3.451  1.3461  0.5363 -0.9373
 2283SOL    MW4 8900   3.320   4.923   3.455  0.2376 -0.6087  0.0652
 2284SOL     OW 8901   5.070   1.451   4.641 -0.5581  0.0068 -0.6501
 2284SOL    HW2 8902   5.149   1.419   4.684 -0.9420  0.5775  0.5144
 2284SOL    HW3 8903   5.077   1.418   4.551  1.2664  0.5162 -0.7320
 2284SOL    MW4 8904   5.081   1.442   4.635 -0.7079  0.1361 -0.0545
 2285SOL     OW 8905   2.952   5.210   6.390 -0.1258 -0.0797  0.3145
 2285SOL    HW2 8906   2.987   5.285   6.437 -0.6265 -0.0359  0.6311
 2285SOL    HW3 8907   2.934   5.145   6.459  0.6910 -0.6512  0.0014
 2285SOL    MW4 8908   2.954   5.211   6.406  0.5058  0.2217 -0.0769
 2286SOL     OW 8909   0.219   2.988   0.579  0.6999 -0.4606 -0.6123
 2286SOL    HW2 8910   0.168   3.064   0.606  0.3878 -0.3703 -1.4114
 2286SOL    HW3 8911   0.310   3.019   0.578  1.0916 -1.1812  2.7930
 2286SOL    MW4 8912   0.225   3.002   0.582  0.1957 -0.4112 -0.0501
 2287SOL     OW 8913   0.679   2.376   0.469  0.5573  0.4081  0.0357
 2287SOL    HW2 8914   0.601   2.416   0.507 -1.1635 -1.9708 -0.7866
 2287SOL    HW3 8915   0.724   2.335   0.543  0.9860  1.6102  0.4752
 2287SOL    MW4 8916   0.675   2.376   0.483 -0.0878  1.2338  0.2570
 2288SOL     OW 8917   4.720   1.932   1.839  0.0406 -0.0355  0.3120
 2288SOL    HW2 8918   4.775   1.858   1.863  1.1387  0.6574 -0.0302
 2288SOL    HW3 8919   4.756   2.006   1.886 -1.4567  0.1847  1.1780
 2288SOL    MW4 8920   4.732   1.932   1.848 -0.1531 -0.3683 -0.5438
 2289SOL     OW 8921   1.966   3.540   0.175 -0.1771 -0.7064 -0.3409
 2289SOL    HW2 8922   1.942   3.517   0.265  0.6894 -0.7157 -0.0984
 2289SOL    HW3 8923   1.941   3.632   0.166  0.6119 -0.4179  0.2446
 2289SOL    MW4 8924   1.960   3.549   0.186 -0.0355 -0.0057  0.0060
 2290SOL     OW 8925   1.386   0.051   5.990 -0.9098  0.0178 -0.4265
 2290SOL    HW2 8926   1.359   0.019   5.904  1.0092 -2.2891 -0.2663
 2290SOL    HW3 8927   1.348  -0.011   6.052  1.5312 -1.1890  0.0021
 2290SOL    MW4 8928   1.377   0.039   5.987 -0.5244 -0.6163 -0.0632
 2291SOL     OW 8929   4.726   6.185   0.147  0.1502  0.0043  0.3992
 2291SOL    HW2 8930   4.717   6.279   0.136  0.8975  0.1700  1.1332
 2291SOL    HW3 8931   4.692   6.168   0.235  0.7734 -0.2986  0.5820
 2291SOL    MW4 8932   4.720   6.195   0.157 -0.2244 -0.3113 -0.0639
 2292SOL     OW 8933   4.480   0.310   4.111  0.2609 -0.3580 -0.6852
 2292SOL    HW2 8934   4.555   0.252   4.099  1.8599  1.2359  0.9251
 2292SOL    HW3 8935   4.489   0.376   4.043  0.4995 -0.0111 -0.3224
 2292SOL    MW4 8936   4.491   0.311   4.101 -0.8832 -0.1646  0.1218
 2293SOL     OW 8937   0.246   3.229   3.528 -0.0622  0.2917 -0.4978
 2293SOL    HW2 8938   0.155   3.246   3.550 -0.1954  0.1270 -0.9145
 2293SOL    HW3 8939   0.246   3.143   3.487  0.6217 -0.7955  1.6327
 2293SOL    MW4 8940   0.234   3.220   3.526  0.3366  0.4169  0.1465
 2294SOL     OW 8941   1.832   3.146   6.430 -0.6101 -0.0474 -0.3507
 2294SOL    HW2 8942   1.899   3.079   6.436 -0.2728  0.4057  1.5889
 2294SOL    HW3 8943   1.840   3.196   6.511 -4.0382 -0.6872  0.5830
 2294SOL    MW4 8944   1.842   3.144   6.441  0.2430  0.1829 -0.7686
 2295SOL     OW 8945   2.842   2.754   1.244  0.7392  0.3358  0.1655
 2295SOL    HW2 8946   2.833   2.716   1.331 -0.4769  1.2344  0.4548
 2295SOL    HW3 8947   2.876   2.842   1.259 -1.8639  1.4662 -0.0071
 2295SOL    MW4 8948   2.845   2.760   1.257 -0.0346 -0.1611 -0.5220
 2296SOL     OW 8949   0.626   1.598   0.071 -0.4598  0.0492  0.1903
 2296SOL    HW2 8950   0.659   1.572  -0.015  1.1999 -0.6271  0.9726
 2296SOL    HW3 8951   0.643   1.692   0.075  2.7074 -0.4391  1.0044
 2296SOL    MW4 8952   0.633   1.607   0.060  0.4058 -0.0201 -0.6669
 2297SOL     OW 8953   4.577   5.392   2.102 -0.3177  0.6380  0.2766
 2297SOL    HW2 8954   4.619   5.473   2.130 -0.2654  1.7285 -2.5343
 2297SOL    HW3 8955   4.648   5.336   2.073 -0.5110  0.7735 -0.4864
 2297SOL    MW4 8956   4.592   5.396   2.102 -0.0386  0.0548 -0.9954
 2298SOL     OW 8957   2.410   5.081   4.046  0.1886 -0.6011 -0.2096
 2298SOL    HW2 8958   2.361   5.015   4.095 -0.8791  0.4002  0.1221
 2298SOL    HW3 8959   2.348   5.113   3.980  1.1087 -0.8252 -1.2268
 2298SOL    MW4 8960   2.395   5.076   4.044  0.5889  0.1159 -0.2682
 2299SOL     OW 8961   2.699   1.408   5.551  0.2646  0.0721  0.5639
 2299SOL    HW2 8962   2.683   1.426   5.459  0.7697 -1.0340  0.2379
 2299SOL    HW3 8963   2.731   1.318   5.553 -1.0528 -0.4092  1.9647
 2299SOL    MW4 8964   2.701   1.399   5.539 -0.1309  0.3488 -0.2889
 2300SOL     OW 8965   3.240   2.940   1.290  0.1546 -0.2683  0.1230
 2300SOL    HW2 8966   3.225   2.852   1.258 -1.1748 -0.1362  0.3519
 2300SOL    HW3 8967   3.335   2.945   1.302  0.7853 -0.3719 -3.5934
 2300SOL    MW4 8968   3.251   2.929   1.287  0.5140  0.0108  0.2068
 2301SOL     OW 8969   5.441   0.513   2.762 -0.8264 -0.1477 -0.2968
 2301SOL    HW2 8970   5.523   0.472   2.735 -0.9648 -1.3520  1.0213
 2301SOL    HW3 8971   5.467   0.581   2.824 -0.7603  0.2966 -0.7986
 2301SOL    MW4 8972   5.455   0.517   2.767 -0.8155  0.2991 -0.1514
 2302SOL     OW 8973   4.225   5.949   0.526  0.0274  0.3254 -0.3702
 2302SOL    HW2 8974   4.297   5.922   0.583  1.0925 -1.3049 -2.3434
 2302SOL    HW3 8975   4.155   5.886   0.545  0.1677  0.1417 -0.4610
 2302SOL    MW4 8976   4.225   5.937   0.536 -0.1749 -0.3081 -0.3894
 2303SOL     OW 8977   3.578   6.350   5.705 -0.6056 -0.0658 -0.2018
 2303SOL    HW2 8978   3.496   6.300   5.698 -0.1749 -0.6142 -1.8601
 2303SOL    HW3 8979   3.582   6.399   5.622 -0.1472  1.3876  0.6471
 2303SOL    MW4 8980   3.567   6.350   5.693  0.1689 -0.3024  0.0461
 2304SOL     OW 8981   5.279   5.427   5.133 -0.4169  0.2631 -0.1931
 2304SOL    HW2 8982   5.314   5.492   5.073  0.3310 -1.3745 -1.6421
 2304SOL    HW3 8983   5.204   5.390   5.086 -1.1602  0.4342  0.8355
 2304SOL    MW4 8984   5.274   5.430   5.119  0.1978 -0.6353 -0.0205
 2305SOL     OW 8985   5.175   2.095   3.344 -0.2621  0.1850  0.2871
 2305SOL    HW2 8986   5.196   2.008   3.379  2.6077  0.6177 -0.1158
 2305SOL    HW3 8987   5.158   2.081   3.251 -0.3083 -0.0133  0.3259
 2305SOL    MW4 8988   5.176   2.082   3.337 -0.1207  0.0481  0.1921
 2306SOL     OW 8989   0.541   1.997   5.470 -0.8325  0.2190  0.0738
 2306SOL    HW2 8990   0.552   2.089   5.495  0.1395 -0.2313  1.4053
 2306SOL    HW3 8991   0.628   1.969   5.443 -0.6225 -0.8828  1.7548
 2306SOL    MW4 8992   0.554   2.006   5.470  0.3880  0.4457 -0.1847
 2307SOL     OW 8993   2.296   4.398   2.346  0.3398 -0.0596  0.0601
 2307SOL    HW2 8994   2.266   4.339   2.277  0.6232 -0.9809  0.6987
 2307SOL    HW3 8995   2.351   4.461   2.301 -3.0349  2.1985 -1.3031
 2307SOL    MW4 8996   2.299   4.398   2.331 -0.0516  1.0110  0.8574
 2308SOL     OW 8997   3.454   2.189   3.634 -0.3846  0.3601 -0.6707
 2308SOL    HW2 8998   3.466   2.126   3.705 -0.3664 -0.9347 -1.7734
 2308SOL    HW3 8999   3.359   2.199   3.625 -0.4308 -0.4707 -1.2689
 2308SOL    MW4 9000   3.443   2.182   3.642  0.0838 -0.0744  0.0073
 2309SOL     OW 9001   2.813   1.769   3.484 -0.1977 -0.0221  0.4601
 2309SOL    HW2 9002   2.802   1.854   3.528 -0.2459 -0.6442  1.6833
 2309SOL    HW3 9003   2.806   1.705   3.554 -0.1971 -1.0514 -0.4613
 2309SOL    MW4 9004   2.810   1.772   3.499 -1.0588  0.4435  0.0707
 2310SOL     OW 9005   1.995   2.525   2.765 -0.5274 -0.3123  0.5139
 2310SOL    HW2 9006   2.085   2.515   2.732 -1.2216  0.1967 -1.7608
 2310SOL    HW3 9007   1.941   2.479   2.700 -2.1147  1.8044  0.2240
 2310SOL    MW4 9008   2.000   2.518   2.752 -0.3749 -0.2715  0.0146
 2311SOL     OW 9009   6.444   5.584   0.786  0.4152  0.2254  0.0691
 2311SOL    HW2 9010   6.491   5.501   0.779  0.6047  0.4116 -1.2138
 2311SOL    HW3 9011   6.392   5.576   0.865  1.5483 -0.5361  0.7589
 2311SOL    MW4 9012   6.443   5.572   0.795  0.2989  0.4277 -0.0525
 2312SOL     OW 9013   3.684   4.694   2.931  0.1154  0.3801 -0.3833
 2312SOL    HW2 9014   3.718   4.664   3.015  0.4425  1.7872  0.0127
 2312SOL    HW3 9015   3.733   4.643   2.866  0.6164  0.0385  0.2461
 2312SOL    MW4 9016   3.695   4.683   2.933 -0.2768 -0.3522 -0.5752
 2313SOL     OW 9017   0.557   3.510   5.465 -0.1823  0.3143 -0.5316
 2313SOL    HW2 9018   0.479   3.472   5.424  0.1841  0.1895 -1.1177
 2313SOL    HW3 9019   0.583   3.582   5.407 -1.6372  2.3985  1.2197
 2313SOL    MW4 9020   0.550   3.515   5.452 -0.5970  0.5275  0.4582
 2314SOL     OW 9021   6.215   1.905   6.110  0.1368  0.4350  0.3070
 2314SOL    HW2 9022   6.305   1.903   6.143  0.3012  1.5407 -0.0427
 2314SOL    HW3 9023   6.225   1.907   6.014 -0.1587  2.9159  0.2738
 2314SOL    MW4 9024   6.229   1.905   6.101 -0.5743  0.6649  0.2732
 2315SOL     OW 9025   0.237   5.917   2.786  0.4846 -0.3887  0.1893
 2315SOL    HW2 9026   0.157   5.870   2.764  0.9049 -1.1584  0.2576
 2315SOL    HW3 9027   0.302   5.884   2.724  0.6606  0.5241 -0.1323
 2315SOL    MW4 9028   0.235   5.907   2.775 -0.0105 -0.5068 -0.1604
 2316SOL     OW 9029   3.433   2.264   6.127 -0.3233 -0.2336 -0.1899
 2316SOL    HW2 9030   3.382   2.217   6.061 -0.2260  0.7066 -0.9467
 2316SOL    HW3 9031   3.521   2.227   6.119 -0.5309 -0.8116  0.1025
 2316SOL    MW4 9032   3.438   2.253   6.117  0.1318  0.5351  0.3743
 2317SOL     OW 9033   1.390   2.766   0.186 -0.7604 -0.1348 -0.5285
 2317SOL    HW2 9034   1.437   2.766   0.270 -2.3566  2.7159  0.5085
 2317SOL    HW3 9035   1.382   2.674   0.162  2.0956 -0.8983  1.0519
 2317SOL    MW4 9036   1.395   2.754   0.194 -0.2840 -0.3091 -0.4797
 2318SOL     OW 9037   0.921   5.243   3.381 -0.1570 -0.6221 -0.0433
 2318SOL    HW2 9038   0.958   5.163   3.344  0.8551 -0.3270  0.3010
 2318SOL    HW3 9039   0.889   5.292   3.305  1.9868  0.0206 -0.6050
 2318SOL    MW4 9040   0.922   5.239   3.366  0.5171  0.0225  0.3834
 2319SOL     OW 9041   3.757   0.877   3.635  0.0460  0.1594 -0.2908
 2319SOL    HW2 9042   3.770   0.784   3.619 -0.0968 -0.0626  0.7816
 2319SOL    HW3 9043   3.832   0.920   3.594  0.1786 -0.4344 -0.6829
 2319SOL    MW4 9044   3.768   0.871   3.627  0.1570  0.3933 -0.9164
 2320SOL     OW 9045   4.531   1.339   1.352 -0.5136 -0.0924 -0.0087
 2320SOL    HW2 9046   4.554   1.345   1.444  0.8080  1.6705 -0.4216
 2320SOL    HW3 9047   4.535   1.245   1.333  1.2315 -0.3155  1.2313
 2320SOL    MW4 9048   4.534   1.327   1.362 -0.1029  1.3462 -0.0995
 2321SOL     OW 9049   2.883   2.514   5.465  0.3528  0.3766 -0.2592
 2321SOL    HW2 9050   2.818   2.482   5.403 -0.9680  0.3638  1.0771
 2321SOL    HW3 9051   2.905   2.601   5.433 -0.1564  0.2996 -0.8490
 2321SOL    MW4 9052   2.877   2.521   5.452 -0.3858 -0.0219  0.9757
 2322SOL     OW 9053   4.497   1.259   2.903 -0.6175  0.4693  0.4189
 2322SOL    HW2 9054   4.452   1.219   2.829 -0.0715 -0.9438  0.8133
 2322SOL    HW3 9055   4.435   1.252   2.976 -0.4408  0.1299  0.5396
 2322SOL    MW4 9056   4.483   1.253   2.903 -0.0718  0.5656  0.2408
 2323SOL     OW 9057   0.026   5.984   0.090 -0.3758 -0.0993 -0.4994
 2323SOL    HW2 9058  -0.035   5.925   0.136  0.6895 -1.7821 -1.1548
 2323SOL    HW3 9059   0.024   6.064   0.141 -2.1131 -0.5834  0.2752
 2323SOL    MW4 9060   0.018   5.986   0.103  0.6403 -0.1211 -0.3100
 2324SOL     OW 9061   4.365   5.324   3.606 -0.6757  0.1737 -0.3726
 2324SOL    HW2 9062   4.408   5.242   3.581  0.1551  0.3170  0.5236
 2324SOL    HW3 9063   4.394   5.387   3.541  1.6187  0.5912  0.9640
 2324SOL    MW4 9064   4.374   5.321   3.594  0.4811  0.3412  0.3620
 2325SOL     OW 9065   4.255   2.118   5.993  0.0499 -0.6716 -1.1611
 2325SOL    HW2 9066   4.203   2.137   5.914 -0.8573 -0.0661 -0.4365
 2325SOL    HW3 9067   4.309   2.042   5.968  1.2145  0.6758 -2.9931
 2325SOL    MW4 9068   4.255   2.110   5.979 -0.6641 -0.0931  0.1537
 2326SOL     OW 9069   0.087   1.707   4.864  0.2415 -0.2659 -0.2723
 2326SOL    HW2 9070   0.172   1.727   4.825  0.7412  2.4642  1.9443
 2326SOL    HW3 9071   0.025   1.762   4.818 -0.0250 -0.8032 -0.5688
 2326SOL    MW4 9072   0.090   1.717   4.853  0.3469  0.2550 -0.4033
 2327SOL     OW 9073   1.461   1.880   5.059 -0.1275  0.4123 -0.0726
 2327SOL    HW2 9074   1.415   1.900   5.141  1.5076  0.5541  0.8560
 2327SOL    HW3 9075   1.505   1.796   5.076 -0.3804  0.0600 -1.0895
 2327SOL    MW4 9076   1.461   1.871   5.072 -0.2988 -0.3188  0.1557
 2328SOL     OW 9077   1.752   0.092   5.213  0.4493 -0.1383 -0.2220
 2328SOL    HW2 9078   1.764   0.134   5.128 -0.0736  1.2560  0.3705
 2328SOL    HW3 9079   1.794   0.151   5.276  1.2775 -1.3873  0.4633
 2328SOL    MW4 9080   1.759   0.105   5.210  0.6395 -0.4834 -0.3113
 2329SOL     OW 9081   2.363   5.948   4.872  0.0016 -0.3102 -0.1124
 2329SOL    HW2 9082   2.443   5.897   4.885  0.0787  0.2869  2.1474
 2329SOL    HW3 9083   2.296   5.900   4.921 -0.1541  1.1527  1.1685
 2329SOL    MW4 9084   2.365   5.935   4.880 -0.3567 -0.6585  0.2510
 2330SOL     OW 9085   2.680   0.091   2.169  0.2816  0.3958  0.2263
 2330SOL    HW2 9086   2.759   0.056   2.209  0.7512  0.4207 -0.6576
 2330SOL    HW3 9087   2.635   0.014   2.134  0.5337  0.4961 -0.3386
 2330SOL    MW4 9088   2.684   0.076   2.169 -1.0535  0.2304 -0.4058
 2331SOL     OW 9089   5.973   3.592   5.250 -0.6828  0.0141  0.2708
 2331SOL    HW2 9090   5.902   3.628   5.198 -0.4088 -0.0506 -0.1522
 2331SOL    HW3 9091   5.948   3.609   5.341 -1.0665  0.3043  0.1098
 2331SOL    MW4 9092   5.960   3.599   5.255  0.5014 -0.0234 -0.5888
 2332SOL     OW 9093   3.625   0.775   2.052  0.7679  0.2639  0.2080
 2332SOL    HW2 9094   3.540   0.812   2.079 -1.4353 -1.8897 -2.9886
 2332SOL    HW3 9095   3.618   0.682   2.074  2.5602  0.1284  0.3170
 2332SOL    MW4 9096   3.613   0.767   2.059 -0.5355  0.0809 -0.1252
 2333SOL     OW 9097   3.012   5.240   1.653  0.2602  0.4067  0.2506
 2333SOL    HW2 9098   3.040   5.193   1.574  0.9372 -0.4344  0.9658
 2333SOL    HW3 9099   2.946   5.302   1.622 -2.1939 -2.3408 -0.5029
 2333SOL    MW4 9100   3.007   5.242   1.638 -0.9847  0.1071  0.3410
 2334SOL     OW 9101   3.301   5.827   3.632  0.3339 -0.1549 -0.5091
 2334SOL    HW2 9102   3.340   5.864   3.553 -0.7852  1.5727 -0.3201
 2334SOL    HW3 9103   3.375   5.810   3.690  1.0637 -0.2934 -1.4650
 2334SOL    MW4 9104   3.316   5.830   3.629  0.1061  0.6273 -0.5867
 2335SOL     OW 9105   6.358   0.080   1.422  0.5604  0.1615  0.0023
 2335SOL    HW2 9106   6.371   0.070   1.516  0.2134 -2.3583 -0.1325
 2335SOL    HW3 9107   6.292   0.148   1.414  0.5207  0.3514  1.5855
 2335SOL    MW4 9108   6.351   0.088   1.433  0.4780  0.2686  0.3892
 2336SOL     OW 9109   2.645   1.086   4.846 -0.0835 -0.3869 -0.7573
 2336SOL    HW2 9110   2.574   1.031   4.813  1.1334 -0.2257 -4.0854
 2336SOL    HW3 9111   2.690   1.032   4.910 -2.5633 -0.8107  0.7911
 2336SOL    MW4 9112   2.641   1.072   4.850 -0.4237  0.1350  0.0419
 2337SOL     OW 9113   3.765   3.519   1.021 -0.3641  0.5155  0.3572
 2337SOL    HW2 9114   3.753   3.442   0.966 -0.3707  0.8137 -0.0571
 2337SOL    HW3 9115   3.680   3.531   1.063  0.1241 -0.7876  1.8530
 2337SOL    MW4 9116   3.752   3.510   1.019  0.1089  0.0951 -0.1119
 2338SOL     OW 9117   5.060   3.069   5.074 -0.5223  0.1925  0.2973
 2338SOL    HW2 9118   5.095   3.151   5.108 -1.4849 -0.0568  2.0066
 2338SOL    HW3 9119   5.098   3.001   5.129 -1.6429 -0.2816  0.5241
 2338SOL    MW4 9120   5.069   3.071   5.086 -0.2037 -0.5162  0.3274
 2339SOL     OW 9121   3.544   1.969   4.505  0.6494 -0.6242  0.2433
 2339SOL    HW2 9122   3.527   2.061   4.489  0.0495 -0.8144 -0.2263
 2339SOL    HW3 9123   3.543   1.960   4.601 -0.9363 -0.4494  0.2565
 2339SOL    MW4 9124   3.542   1.980   4.516  0.2108 -0.4617 -0.2115
 2340SOL     OW 9125   5.188   6.205   5.169  0.2529 -0.3469 -0.3891
 2340SOL    HW2 9126   5.270   6.157   5.160  0.0606 -0.3130 -3.2611
 2340SOL    HW3 9127   5.130   6.145   5.217  1.7175 -0.5965  1.1720
 2340SOL    MW4 9128   5.191   6.191   5.174  0.1903  0.1130 -0.2129
 2341SOL     OW 9129   1.623   0.343   4.382 -0.0451 -0.3385  0.3086
 2341SOL    HW2 9130   1.627   0.256   4.420  1.9095  0.0665  1.1635
 2341SOL    HW3 9131   1.689   0.342   4.313  3.0938  1.5220  2.9464
 2341SOL    MW4 9132   1.632   0.332   4.378  0.2151  0.0136 -0.5679
 2342SOL     OW 9133   1.157   4.404   3.373 -0.0016  0.7189  0.0898
 2342SOL    HW2 9134   1.126   4.448   3.294 -2.4397  0.2127  0.6875
 2342SOL    HW3 9135   1.241   4.447   3.393 -0.7572  2.8932 -1.1134
 2342SOL    MW4 9136   1.164   4.416   3.365  0.9056 -0.1422 -0.3717
 2343SOL     OW 9137   2.487   5.760   3.361 -0.5294 -0.0938 -0.0014
 2343SOL    HW2 9138   2.459   5.672   3.335  1.7755 -0.8104 -0.2129
 2343SOL    HW3 9139   2.573   5.771   3.321 -0.1680  1.7264  1.1605
 2343SOL    MW4 9140   2.494   5.750   3.352 -0.0747  0.2918  0.3956
 2344SOL     OW 9141   0.934   1.571   2.300 -0.4296 -0.3839  0.5454
 2344SOL    HW2 9142   1.019   1.533   2.282 -0.2385  0.3459 -0.1922
 2344SOL    HW3 9143   0.952   1.647   2.355 -0.7341 -0.9304  1.4158
 2344SOL    MW4 9144   0.947   1.576   2.305  0.5388 -0.6265 -0.4809
 2345SOL     OW 9145   4.924   0.638   1.196  0.2973  0.5421 -0.1986
 2345SOL    HW2 9146   4.971   0.618   1.115  0.7310  1.6201 -0.2264
 2345SOL    HW3 9147   4.976   0.596   1.265  0.9736  1.1959 -0.2964
 2345SOL    MW4 9148   4.937   0.630   1.195  0.0057 -0.1700 -0.1097
 2346SOL     OW 9149   2.299   0.708   4.905 -0.7117 -0.1022  0.6015
 2346SOL    HW2 9150   2.312   0.614   4.919 -1.9627 -0.2369  0.9762
 2346SOL    HW3 9151   2.217   0.715   4.856  0.0391  0.7488 -0.5905
 2346SOL    MW4 9152   2.290   0.697   4.901  0.1954  0.1649  0.7098
 2347SOL     OW 9153   1.423   5.347   1.136 -0.1960 -0.0794 -0.1340
 2347SOL    HW2 9154   1.410   5.253   1.140 -2.8947  0.1390 -1.5521
 2347SOL    HW3 9155   1.387   5.373   1.051  0.8762  2.1907  0.0115
 2347SOL    MW4 9156   1.417   5.338   1.125 -0.4708  0.3139 -0.0673
 2348SOL     OW 9157   4.312   5.492   2.319  0.4922 -0.0829  0.1208
 2348SOL    HW2 9158   4.391   5.505   2.267  0.8577 -0.8580  0.4683
 2348SOL    HW3 9159   4.338   5.429   2.387 -0.5721 -0.7932 -0.1109
 2348SOL    MW4 9160   4.326   5.486   2.321 -0.0003  0.0806 -0.6716
 2349SOL     OW 9161   2.292   1.112   3.686 -0.2887  0.1176 -0.2487
 2349SOL    HW2 9162   2.271   1.077   3.773 -0.0857  2.9836  1.0758
 2349SOL    HW3 9163   2.384   1.137   3.693 -0.7116  1.8730 -0.7101
 2349SOL    MW4 9164   2.301   1.110   3.699 -0.2271 -0.1616 -0.5955
 2350SOL     OW 9165   4.460   4.174   4.490  0.3730  0.1972 -0.5546
 2350SOL    HW2 9166   4.539   4.198   4.443 -0.1152 -0.3849 -1.6945
 2350SOL    HW3 9167   4.460   4.231   4.568  0.9174  1.5497 -1.5136
 2350SOL    MW4 9168   4.471   4.185   4.494  0.6540 -0.2590 -0.1029
 2351SOL     OW 9169   2.175   4.042   6.142  0.7367  0.2948 -0.3223
 2351SOL    HW2 9170   2.157   4.020   6.233  0.3029  0.5372 -0.3485
 2351SOL    HW3 9171   2.093   4.027   6.096  1.0228 -0.0637 -0.7217
 2351SOL    MW4 9172   2.162   4.037   6.148  0.3857  0.2466  0.2910
 2352SOL     OW 9173   6.460   6.042   4.473  0.0901  0.3804  0.1564
 2352SOL    HW2 9174   6.550   6.064   4.450  0.5200 -0.5745  0.8416
 2352SOL    HW3 9175   6.465   6.008   4.562 -0.8549 -0.2539 -0.0123
 2352SOL    MW4 9176   6.472   6.040   4.482  0.4650 -0.4862 -0.0435
 2353SOL     OW 9177   2.791   0.246   3.878  0.5062 -0.2157 -0.0026
 2353SOL    HW2 9178   2.746   0.260   3.795  1.8441  1.5427 -0.4875
 2353SOL    HW3 9179   2.820   0.155   3.875  1.1415  0.0025 -1.8060
 2353SOL    MW4 9180   2.789   0.236   3.867 -0.1660 -0.4021  0.3448
 2354SOL     OW 9181   2.653   2.725   2.868 -0.0293  0.1305  0.3932
 2354SOL    HW2 9182   2.602   2.644   2.868 -0.6679  0.5140 -0.5470
 2354SOL    HW3 9183   2.598   2.787   2.820  1.3928  0.5045 -0.8147
 2354SOL    MW4 9184   2.639   2.722   2.861 -0.3536  0.3563  0.4691
 2355SOL     OW 9185   2.968   3.728   6.114  0.2386  0.3899  0.6410
 2355SOL    HW2 9186   3.058   3.740   6.084  0.0737  0.6665  0.2542
 2355SOL    HW3 9187   2.968   3.757   6.205  0.4981  0.5690  0.5831
 2355SOL    MW4 9188   2.980   3.733   6.122 -0.4995 -0.8404  0.1760
 2356SOL     OW 9189   0.168   5.362   0.848  0.2348 -0.2625  0.1558
 2356SOL    HW2 9190   0.232   5.423   0.885 -0.8098  0.4460  0.8476
 2356SOL    HW3 9191   0.103   5.349   0.918 -0.0989 -1.3985 -0.3307
 2356SOL    MW4 9192   0.168   5.368   0.863  0.0093  0.0666  0.1519
 2357SOL     OW 9193   4.855   1.195   0.062  0.4201  0.5984 -0.1044
 2357SOL    HW2 9194   4.872   1.135   0.134  0.5144 -1.2694 -1.5898
 2357SOL    HW3 9195   4.878   1.282   0.096  1.3069 -0.3285  1.7902
 2357SOL    MW4 9196   4.860   1.199   0.076 -0.0484  0.1121  0.1075
 2358SOL     OW 9197   6.135   5.330   2.996  0.2271 -0.9389 -0.2484
 2358SOL    HW2 9198   6.195   5.255   3.005 -0.3493 -1.4108 -0.2879
 2358SOL    HW3 9199   6.166   5.393   3.060  1.2376 -0.8593 -0.7846
 2358SOL    MW4 9200   6.147   5.328   3.005  0.5496  0.2667  0.2710
 2359SOL     OW 9201   5.098   5.784   3.600 -0.2899  0.4015 -0.5663
 2359SOL    HW2 9202   5.114   5.701   3.555 -0.8142 -1.0613  1.8016
 2359SOL    HW3 9203   5.003   5.793   3.603 -0.2391  1.1217 -0.8341
 2359SOL    MW4 9204   5.088   5.775   3.594 -0.2416  0.0986  0.0664
 2360SOL     OW 9205   0.185   6.428   1.795  0.3246  0.0615 -0.1213
 2360SOL    HW2 9206   0.106   6.479   1.774  0.5369  0.2529 -0.4574
 2360SOL    HW3 9207   0.235   6.427   1.714  1.2804  1.0349  0.4348
 2360SOL    MW4 9208   0.181   6.435   1.782 -0.0145  0.1991 -0.3450
 2361SOL     OW 9209   3.488   4.535   1.375 -0.6648 -0.3412 -0.2912
 2361SOL    HW2 9210   3.568   4.552   1.325 -0.9150 -0.1549 -0.6294
 2361SOL    HW3 9211   3.417   4.550   1.313 -1.1478  2.8872  0.8692
 2361SOL    MW4 9212   3.489   4.539   1.361  0.0710  0.4575 -0.4639
 2362SOL     OW 9213   0.452   2.712   2.142  0.4368  0.9937 -0.3428
 2362SOL    HW2 9214   0.370   2.729   2.189  0.7980  1.2537  0.2083
 2362SOL    HW3 9215   0.504   2.791   2.156  1.2530  0.3614  0.3329
 2362SOL    MW4 9216   0.448   2.725   2.150 -0.9738  0.1484 -0.2857
 2363SOL     OW 9217   6.240   3.780   1.286 -0.8738 -0.5813 -0.8112
 2363SOL    HW2 9218   6.225   3.869   1.319 -1.5099 -0.9654 -0.0165
 2363SOL    HW3 9219   6.153   3.744   1.273 -0.6303 -1.3594 -0.3575
 2363SOL    MW4 9220   6.227   3.787   1.289  0.0034  0.0894  0.0649
 2364SOL     OW 9221   6.205   0.048   0.622 -0.1968  0.1593  0.1151
 2364SOL    HW2 9222   6.151   0.112   0.668 -0.9127 -0.1329 -0.3108
 2364SOL    HW3 9223   6.198   0.072   0.530 -0.5909 -0.6088 -0.0639
 2364SOL    MW4 9224   6.197   0.059   0.616 -1.0285 -0.1110  0.2431
 2365SOL     OW 9225   3.971   5.778   0.119 -0.4455  0.0113 -0.7072
 2365SOL    HW2 9226   4.003   5.688   0.105 -0.3871 -0.0121 -0.4328
 2365SOL    HW3 9227   3.877   5.773   0.102 -0.7713 -0.4983  1.0015
 2365SOL    MW4 9228   3.963   5.765   0.115 -0.0970  0.2473 -0.2215
 2366SOL     OW 9229   0.466   1.063   4.541  0.5315 -0.3175 -0.1733
 2366SOL    HW2 9230   0.465   1.076   4.636  0.9770 -0.4788 -0.1473
 2366SOL    HW3 9231   0.554   1.087   4.514  0.1610  0.5497 -0.6644
 2366SOL    MW4 9232   0.477   1.068   4.550 -0.3680  0.1095 -0.5490
 2367SOL     OW 9233   5.690   2.787   2.827 -0.1201  0.0015  0.2843
 2367SOL    HW2 9234   5.599   2.758   2.841  0.1108 -1.5134 -0.9591
 2367SOL    HW3 9235   5.742   2.707   2.838  1.0208  0.7607  0.5403
 2367SOL    MW4 9236   5.684   2.772   2.830  0.6634 -0.0344 -0.2845
 2368SOL     OW 9237   0.951   2.573   1.169  0.4063 -0.3327 -0.6774
 2368SOL    HW2 9238   0.965   2.607   1.257 -0.3420 -2.9898  0.5724
 2368SOL    HW3 9239   0.859   2.594   1.149  0.1453 -0.9953 -0.1960
 2368SOL    MW4 9240   0.940   2.580   1.178  0.0179  0.6888  0.1758
 2369SOL     OW 9241   6.245   5.085   5.236  0.0633  0.4330  0.3072
 2369SOL    HW2 9242   6.222   5.176   5.258 -1.7550  0.4684 -1.3946
 2369SOL    HW3 9243   6.339   5.087   5.218  0.0895  1.9489  0.4782
 2369SOL    MW4 9244   6.254   5.097   5.237  0.3346  0.0592  0.1087
 2370SOL     OW 9245   1.683   2.870   4.550 -0.0158  0.4515 -0.3138
 2370SOL    HW2 9246   1.691   2.804   4.482 -2.1965  0.8176 -1.0020
 2370SOL    HW3 9247   1.769   2.913   4.553  1.3391 -2.0636 -0.1319
 2370SOL    MW4 9248   1.696   2.867   4.542  0.2384  0.4389 -0.1586
 2371SOL     OW 9249   3.312   2.598   4.744  0.6439  0.1751 -0.0860
 2371SOL    HW2 9250   3.319   2.691   4.725 -0.7296  0.3199 -0.0143
 2371SOL    HW3 9251   3.254   2.564   4.675  0.6348 -0.4928  0.2471
 2371SOL    MW4 9252   3.305   2.606   4.732 -0.1977  0.5470 -0.1454
 2372SOL     OW 9253   2.219   0.794   0.473  0.5225  0.4431  0.5176
 2372SOL    HW2 9254   2.265   0.822   0.553 -0.8767  0.2239  1.4226
 2372SOL    HW3 9255   2.206   0.875   0.424  0.6154  0.7099  0.9250
 2372SOL    MW4 9256   2.224   0.808   0.477 -0.0688 -0.1152 -0.4739
 2373SOL     OW 9257   0.710   2.543   2.321  0.3199 -0.2230 -0.1976
 2373SOL    HW2 9258   0.745   2.566   2.235 -0.8482  0.2923 -0.5499
 2373SOL    HW3 9259   0.627   2.499   2.302 -1.3066  2.2410  0.6912
 2373SOL    MW4 9260   0.704   2.540   2.307  0.1726 -0.2067 -0.1329
 2374SOL     OW 9261   5.315   3.341   0.280 -0.1224  0.0086  0.2132
 2374SOL    HW2 9262   5.315   3.403   0.353  0.7520  0.8993 -0.5123
 2374SOL    HW3 9263   5.398   3.358   0.234 -0.4417 -0.8477 -0.7185
 2374SOL    MW4 9264   5.326   3.351   0.283  0.2987  0.4264 -0.0399
 2375SOL     OW 9265   6.452   1.197   0.347  0.2568  0.6183 -0.2365
 2375SOL    HW2 9266   6.514   1.126   0.364  1.9103  2.1603  0.5430
 2375SOL    HW3 9267   6.375   1.174   0.399  0.9954 -0.2849  0.5098
 2375SOL    MW4 9268   6.450   1.184   0.357  0.5043  0.1794 -0.5965
 2376SOL     OW 9269   4.619   3.284   5.255 -0.2501 -0.6370  0.1662
 2376SOL    HW2 9270   4.709   3.311   5.233 -0.1321 -0.3855  0.9428
 2376SOL    HW3 9271   4.618   3.279   5.350 -1.3617  0.3999  0.2296
 2376SOL    MW4 9272   4.631   3.287   5.265  0.1133  0.0865  0.3371
 2377SOL     OW 9273   5.005   1.738   6.106 -0.2086  0.6784  0.0584
 2377SOL    HW2 9274   4.985   1.827   6.076 -1.1124  0.8867  1.1794
 2377SOL    HW3 9275   4.932   1.685   6.075  0.2372  0.3584 -0.4517
 2377SOL    MW4 9276   4.992   1.743   6.098 -0.1182  0.2190 -0.2558
 2378SOL     OW 9277   0.593   6.430   3.611  0.5276  0.0917  0.3063
 2378SOL    HW2 9278   0.556   6.386   3.534  1.4803  0.2891 -0.2800
 2378SOL    HW3 9279   0.539   6.508   3.622 -0.8015 -0.8690  0.9964
 2378SOL    MW4 9280   0.581   6.434   3.602 -0.3860 -0.5555 -0.0421
 2379SOL     OW 9281   0.640   6.128   1.339  0.2571  0.2967 -0.5072
 2379SOL    HW2 9282   0.735   6.130   1.351  0.7192  1.4049 -3.4067
 2379SOL    HW3 9283   0.628   6.126   1.244 -2.6597 -2.3742 -0.2502
 2379SOL    MW4 9284   0.651   6.128   1.328 -0.0237  0.3377 -0.6046
 2380SOL     OW 9285   4.336   4.581   2.554  0.0662 -0.6248  0.2848
 2380SOL    HW2 9286   4.255   4.535   2.576  0.2734 -0.6681  1.0167
 2380SOL    HW3 9287   4.329   4.602   2.461 -0.8835 -0.4141  0.4030
 2380SOL    MW4 9288   4.325   4.578   2.545 -0.4215  0.2935 -0.2159
 2381SOL     OW 9289   2.918   0.350   1.934 -0.3060  0.4739 -0.6330
 2381SOL    HW2 9290   2.963   0.402   2.000  0.2225 -1.9042  1.0290
 2381SOL    HW3 9291   2.954   0.379   1.850  1.0674  1.6619  0.3371
 2381SOL    MW4 9292   2.929   0.361   1.932 -0.5236  0.4640  0.5425
 2382SOL     OW 9293   0.758   6.154   5.651 -0.1122  0.3371 -0.0151
 2382SOL    HW2 9294   0.820   6.222   5.624 -0.4619  0.9374  0.6703
 2382SOL    HW3 9295   0.814   6.081   5.679  0.3398  1.2820  1.6610
 2382SOL    MW4 9296   0.774   6.153   5.651 -0.2191 -0.2076 -0.6579
 2383SOL     OW 9297   6.190   5.890   6.133 -0.0181  0.0313 -0.1392
 2383SOL    HW2 9298   6.265   5.933   6.175 -1.0808  1.2755  0.5552
 2383SOL    HW3 9299   6.140   5.855   6.206 -0.4546 -0.2247 -0.5594
 2383SOL    MW4 9300   6.193   5.891   6.148 -0.2034 -0.1691 -0.1770
 2384SOL     OW 9301   3.866   5.583   3.150  0.5636  0.2123 -0.1421
 2384SOL    HW2 9302   3.946   5.596   3.099  0.4897  0.2617 -0.2476
 2384SOL    HW3 9303   3.877   5.498   3.192 -0.4835 -1.0907 -2.3360
 2384SOL    MW4 9304   3.878   5.573   3.149  0.6241  0.7085 -0.4056
 2385SOL     OW 9305   0.088   4.400   3.566  0.2018 -0.3095 -0.0202
 2385SOL    HW2 9306   0.163   4.414   3.509  1.0228 -0.7586  0.9107
 2385SOL    HW3 9307   0.016   4.445   3.523  1.5396  2.3015  0.2704
 2385SOL    MW4 9308   0.088   4.408   3.553 -0.7806 -0.0737  0.8134
 2386SOL     OW 9309   3.460   5.861   4.366 -0.3456  0.0859  0.3037
 2386SOL    HW2 9310   3.497   5.803   4.434 -0.9002 -1.6928 -0.8434
 2386SOL    HW3 9311   3.368   5.837   4.362 -0.4484  0.6094 -0.6467
 2386SOL    MW4 9312   3.453   5.850   4.375  0.0327 -0.4973 -0.2332
 2387SOL     OW 9313   6.166   3.913   4.493 -0.5345 -0.9299  0.2915
 2387SOL    HW2 9314   6.222   3.872   4.559 -0.2020 -0.5973  0.2244
 2387SOL    HW3 9315   6.220   3.984   4.457 -0.3155 -1.7201 -1.0384
 2387SOL    MW4 9316   6.181   3.917   4.497  0.2387 -0.4146 -0.0767
 2388SOL     OW 9317   2.983   2.279   0.313  0.4120 -0.3836  0.0236
 2388SOL    HW2 9318   2.943   2.350   0.263  0.1107  0.5475  1.5072
 2388SOL    HW3 9319   2.910   2.224   0.341  0.4532 -0.2421  0.4144
 2388SOL    MW4 9320   2.968   2.281   0.310  0.0485 -0.0165 -0.2981
 2389SOL     OW 9321   2.175   3.353   3.135  0.3158  1.0420 -0.2559
 2389SOL    HW2 9322   2.091   3.395   3.118 -0.3621 -0.2374 -0.1404
 2389SOL    HW3 9323   2.238   3.405   3.085 -0.9530  0.1614 -2.9514
 2389SOL    MW4 9324   2.173   3.366   3.126 -0.3221 -0.8551 -0.0136
 2390SOL     OW 9325   5.106   4.291   4.258  0.5275 -0.7553 -0.0711
 2390SOL    HW2 9326   5.148   4.208   4.234  1.1055 -0.6526  0.5522
 2390SOL    HW3 9327   5.067   4.322   4.177  1.8036 -0.7809 -0.7244
 2390SOL    MW4 9328   5.107   4.284   4.244 -0.5157 -0.7853 -0.1320
 2391SOL     OW 9329   0.063   5.218   6.211 -0.1659  1.0261  0.0584
 2391SOL    HW2 9330   0.010   5.199   6.288 -0.3590  1.0518 -0.0660
 2391SOL    HW3 9331  -0.000   5.223   6.139  0.2608 -2.0852 -0.6927
 2391SOL    MW4 9332   0.048   5.216   6.212 -0.2774 -0.1055 -0.1498
 2392SOL     OW 9333   2.040   6.156   0.341 -0.1499  0.1598 -0.4314
 2392SOL    HW2 9334   1.973   6.185   0.403 -0.0466  3.1638 -1.5670
 2392SOL    HW3 9335   1.999   6.166   0.255  0.9165 -0.3750 -1.0215
 2392SOL    MW4 9336   2.026   6.161   0.338 -0.0740 -0.5480  0.1274
 2393SOL     OW 9337   3.431   3.208   4.672 -0.1086  0.0768 -0.2242
 2393SOL    HW2 9338   3.461   3.293   4.639 -0.3019  0.0466 -0.4799
 2393SOL    HW3 9339   3.341   3.223   4.700  0.0546  0.1001  0.2905
 2393SOL    MW4 9340   3.423   3.221   4.671  0.0957 -0.3746  0.3725
 2394SOL     OW 9341   0.168   2.434   5.673 -0.3572 -0.3310 -0.4055
 2394SOL    HW2 9342   0.099   2.445   5.609 -1.7093 -0.3358  1.0015
 2394SOL    HW3 9343   0.178   2.339   5.682 -0.2206 -0.3305 -0.5467
 2394SOL    MW4 9344   0.161   2.423   5.666 -0.0019 -0.5015  0.7801
 2395SOL     OW 9345   0.894   2.744   2.430 -0.3080  0.3820 -0.0487
 2395SOL    HW2 9346   0.974   2.692   2.425  0.4434  1.4212  0.6800
 2395SOL    HW3 9347   0.823   2.682   2.413  0.5043 -1.0187  1.4531
 2395SOL    MW4 9348   0.895   2.729   2.427  0.1392  0.1280 -0.7824
 2396SOL     OW 9349   1.917   0.912   3.247 -0.2937 -0.0252  0.9623
 2396SOL    HW2 9350   1.905   0.823   3.282  0.8007 -0.2751  0.7619
 2396SOL    HW3 9351   2.011   0.927   3.256 -0.3247  0.7295  0.0572
 2396SOL    MW4 9352   1.928   0.902   3.253 -0.4367 -0.2199  0.2418
 2397SOL     OW 9353   5.583   5.056   4.673  0.6793  0.5191  0.0252
 2397SOL    HW2 9354   5.645   5.129   4.663  0.5390  0.4230 -2.0231
 2397SOL    HW3 9355   5.638   4.980   4.692  1.0024  0.7957  0.2091
 2397SOL    MW4 9356   5.599   5.056   4.674  0.4198 -0.2035 -0.1457
 2398SOL     OW 9357   4.585   4.428   2.865 -0.2146 -0.0198 -0.2187
 2398SOL    HW2 9358   4.515   4.363   2.871 -0.6956  0.5756  1.3661
 2398SOL    HW3 9359   4.618   4.436   2.955  2.7514 -1.1429 -1.0912
 2398SOL    MW4 9360   4.580   4.421   2.878  0.2985 -0.2302  0.1739
 2399SOL     OW 9361   3.427   0.642   3.196  0.3960  0.4254  0.5444
 2399SOL    HW2 9362   3.351   0.584   3.195  0.3774  0.4349 -1.5960
 2399SOL    HW3 9363   3.440   0.663   3.289 -0.9761 -1.1705  1.1388
 2399SOL    MW4 9364   3.419   0.637   3.208 -0.3374  0.6425  0.2731
 2400SOL     OW 9365   0.861   0.572   2.011  0.0900 -0.5620 -0.0893
 2400SOL    HW2 9366   0.832   0.658   1.980  1.1331  0.4400  1.5467
 2400SOL    HW3 9367   0.807   0.510   1.962 -0.3936  0.9848 -1.6528
 2400SOL    MW4 9368   0.850   0.575   2.000  0.0273 -0.5718  0.2358
 2401SOL     OW 9369   6.067   4.421   3.512  0.2896  0.3789 -0.7543
 2401SOL    HW2 9370   6.089   4.349   3.571 -0.2805  1.1893  0.4934
 2401SOL    HW3 9371   5.984   4.454   3.546  0.5205  1.5879 -1.3313
 2401SOL    MW4 9372   6.059   4.416   3.524  0.0094  0.1106  0.2925
 2402SOL     OW 9373   5.540   0.929   3.632  0.3523 -0.0613  0.2858
 2402SOL    HW2 9374   5.520   0.992   3.562  0.0530 -1.6637 -1.1500
 2402SOL    HW3 9375   5.458   0.884   3.648  0.6202 -0.2657  1.1003
 2402SOL    MW4 9376   5.527   0.932   3.625  0.2158 -0.1122 -0.2122
 2403SOL     OW 9377   0.362   0.890   1.761  0.2816  0.6131  0.1177
 2403SOL    HW2 9378   0.270   0.868   1.749  0.2395  0.6923  0.3012
 2403SOL    HW3 9379   0.388   0.931   1.678  0.8448 -1.7601 -0.9880
 2403SOL    MW4 9380   0.354   0.892   1.748  0.3368  0.3043  0.6657
 2404SOL     OW 9381   4.439   3.279   5.026  0.3811 -0.0978  0.8076
 2404SOL    HW2 9382   4.486   3.279   4.943  1.0544 -1.3925  1.1643
 2404SOL    HW3 9383   4.508   3.276   5.093 -0.1556  0.7189  1.4192
 2404SOL    MW4 9384   4.454   3.279   5.024  0.2340  0.0870  0.2827
 2405SOL     OW 9385   4.902   2.251   2.547 -0.0201  0.1014  0.2729
 2405SOL    HW2 9386   4.902   2.183   2.480  1.3878 -0.4418  0.7972
 2405SOL    HW3 9387   4.901   2.204   2.630  3.8611  0.5080  0.7232
 2405SOL    MW4 9388   4.902   2.236   2.549  0.3883  0.1145  0.4559
 2406SOL     OW 9389   3.241   2.672   2.138 -0.0958 -0.2627 -0.1730
 2406SOL    HW2 9390   3.238   2.728   2.061  0.2613  0.0282  0.0212
 2406SOL    HW3 9391   3.169   2.702   2.193 -0.1587 -0.2665 -0.2541
 2406SOL    MW4 9392   3.231   2.683   2.135 -0.2514  0.1134 -0.5336
 2407SOL     OW 9393   2.975   0.584   4.202  0.1791  0.2832  0.5061
 2407SOL    HW2 9394   2.970   0.541   4.287 -0.0677  1.4730  1.1173
 2407SOL    HW3 9395   3.042   0.651   4.213 -0.4868  1.0445  0.0498
 2407SOL    MW4 9396   2.983   0.587   4.215  0.2164 -0.3659 -0.2247
 2408SOL     OW 9397   0.391   5.126   1.522 -0.4451  0.4220 -1.0224
 2408SOL    HW2 9398   0.434   5.069   1.585 -1.1438  0.8881 -0.1005
 2408SOL    HW3 9399   0.298   5.123   1.545 -0.6453  1.0136 -1.6932
 2408SOL    MW4 9400   0.384   5.118   1.533  0.8675  0.2616  0.0794
 2409SOL     OW 9401   2.707   5.228   2.051 -0.3330 -0.2337 -0.4028
 2409SOL    HW2 9402   2.723   5.175   1.973 -4.3945 -0.2021 -1.5196
 2409SOL    HW3 9403   2.785   5.282   2.060  0.9950 -1.3856 -3.4778
 2409SOL    MW4 9404   2.719   5.228   2.042  0.3767  0.8362 -0.1000
 2410SOL     OW 9405   5.965   1.130   5.356  0.2427 -0.3529 -0.0501
 2410SOL    HW2 9406   5.876   1.120   5.321  0.5052 -0.2098 -0.7790
 2410SOL    HW3 9407   6.007   1.191   5.295  0.4906  0.4947  0.9420
 2410SOL    MW4 9408   5.958   1.137   5.343 -0.1285 -0.1997  0.3875
 2411SOL     OW 9409   2.343   1.176   4.947 -0.5464  0.0436 -0.1764
 2411SOL    HW2 9410   2.324   1.270   4.948  0.2077  0.1981  0.0425
 2411SOL    HW3 9411   2.394   1.162   4.867 -0.4642 -0.1368 -0.0937
 2411SOL    MW4 9412   2.347   1.186   4.937  0.0300  0.0340 -0.0183
 2412SOL     OW 9413   3.322   5.511   3.569  0.3011  0.1159 -0.0663
 2412SOL    HW2 9414   3.406   5.528   3.611  0.5059  1.4353 -0.9591
 2412SOL    HW3 9415   3.311   5.416   3.574  0.9028  0.1090  1.8082
 2412SOL    MW4 9416   3.331   5.501   3.575  0.0304 -0.0809  0.3142
 2413SOL     OW 9417   0.464   1.235   4.997 -0.1785 -0.1343 -0.0794
 2413SOL    HW2 9418   0.439   1.313   4.947 -0.7280  0.9437  1.7844
 2413SOL    HW3 9419   0.382   1.205   5.038 -0.2479 -2.4943 -1.7309
 2413SOL    MW4 9420   0.450   1.241   4.996  0.6554  0.3086  0.3888
 2414SOL     OW 9421   6.031   4.228   4.894  0.2041 -0.3928  0.0318
 2414SOL    HW2 9422   5.986   4.144   4.883 -0.4926 -0.0956  0.5231
 2414SOL    HW3 9423   6.123   4.205   4.905  0.5439 -0.9163 -2.9983
 2414SOL    MW4 9424   6.037   4.214   4.894 -0.2390 -0.8198  0.2185
 2415SOL     OW 9425   5.472   4.946   5.157 -0.4701 -0.4446  0.7462
 2415SOL    HW2 9426   5.448   4.891   5.082 -0.4111 -1.2144  1.2776
 2415SOL    HW3 9427   5.452   4.892   5.234  0.6958 -0.1726  1.2600
 2415SOL    MW4 9428   5.466   4.931   5.157 -0.7233 -0.6030 -0.1813
 2416SOL     OW 9429   5.541   5.553   6.314 -0.2480 -0.2713  0.5861
 2416SOL    HW2 9430   5.525   5.493   6.387  1.5904 -0.0986  1.1945
 2416SOL    HW3 9431   5.581   5.630   6.356 -0.9272  0.6367 -0.3908
 2416SOL    MW4 9432   5.544   5.555   6.329  0.2231 -0.6673  0.1821
 2417SOL     OW 9433   0.541   1.888   3.515  0.7613  0.6987 -0.1148
 2417SOL    HW2 9434   0.485   1.860   3.442  2.3439 -0.4895 -0.9458
 2417SOL    HW3 9435   0.592   1.810   3.537  0.5601  1.1359  2.0716
 2417SOL    MW4 9436   0.541   1.874   3.508  0.7987 -0.2762  0.3786
 2418SOL     OW 9437   1.039   0.767   5.491  0.2789 -0.2831 -0.0644
 2418SOL    HW2 9438   1.034   0.701   5.422 -0.1529 -1.7126  1.2734
 2418SOL    HW3 9439   1.043   0.716   5.572  0.9015  1.3385  0.9722
 2418SOL    MW4 9440   1.039   0.751   5.493  0.0283  0.0189  0.2363
 2419SOL     OW 9441   6.342   0.565   5.439  0.4202 -0.3473 -0.1424
 2419SOL    HW2 9442   6.329   0.659   5.448  0.7445 -0.3882  0.9934
 2419SOL    HW3 9443   6.430   0.556   5.404  0.9450 -0.2295  1.0833
 2419SOL    MW4 9444   6.352   0.576   5.436  0.8396 -0.3452  0.2089
 2420SOL     OW 9445   4.420   2.604   1.828 -0.7228  0.1867 -0.2553
 2420SOL    HW2 9446   4.329   2.632   1.818 -0.5141  1.1945  0.4841
 2420SOL    HW3 9447   4.416   2.534   1.893 -1.0156 -0.1010 -0.5753
 2420SOL    MW4 9448   4.407   2.598   1.835  0.4937 -0.3573  0.3061
 2421SOL     OW 9449   0.326   3.633   2.603 -0.2846  0.1782  0.0815
 2421SOL    HW2 9450   0.243   3.664   2.639 -0.7775  0.2480 -1.0859
 2421SOL    HW3 9451   0.364   3.580   2.674 -0.6395  1.2978  1.1404
 2421SOL    MW4 9452   0.320   3.630   2.617 -0.0099 -0.5859  0.2230
 2422SOL     OW 9453   0.684   1.487   2.424  0.1065  0.1040  0.0593
 2422SOL    HW2 9454   0.615   1.531   2.374 -0.0913 -1.2200 -0.8975
 2422SOL    HW3 9455   0.765   1.514   2.381 -0.1103 -1.6958 -1.6123
 2422SOL    MW4 9456   0.685   1.497   2.411  0.5557 -0.3417  0.0771
 2423SOL     OW 9457   2.721   1.754   2.157  0.2017 -0.0554 -0.4003
 2423SOL    HW2 9458   2.759   1.841   2.149 -2.6249  1.2482 -0.7230
 2423SOL    HW3 9459   2.662   1.746   2.082 -0.5144 -1.7562  0.2842
 2423SOL    MW4 9460   2.718   1.764   2.146 -0.4807  0.3385  0.3895
 2424SOL     OW 9461   3.403   4.209   0.277  0.0946 -0.0099 -0.2276
 2424SOL    HW2 9462   3.384   4.257   0.357 -3.1632  0.8869 -1.3816
 2424SOL    HW3 9463   3.453   4.270   0.224  0.2320  0.2676  0.2156
 2424SOL    MW4 9464   3.407   4.223   0.280 -0.2256 -0.3826  0.0033
 2425SOL     OW 9465   4.061   4.351   5.441  0.1482  0.3245  0.1137
 2425SOL    HW2 9466   4.008   4.394   5.372  0.6714  2.2130  0.8130
 2425SOL    HW3 9467   3.996   4.306   5.496 -0.4759  0.4435 -0.5049
 2425SOL    MW4 9468   4.045   4.351   5.439  0.0385  0.1063  0.0448
 2426SOL     OW 9469   2.729   1.351   4.844 -0.1377  0.2563  0.4144
 2426SOL    HW2 9470   2.670   1.286   4.881 -1.8047  0.5475 -1.5172
 2426SOL    HW3 9471   2.769   1.393   4.919 -2.7820  0.3657  1.8822
 2426SOL    MW4 9472   2.726   1.348   4.859  0.0664  0.0917  0.4506
 2427SOL     OW 9473   5.580   0.675   0.796  0.0186  0.0430 -0.2542
 2427SOL    HW2 9474   5.622   0.760   0.810  0.3817 -0.0233 -0.9199
 2427SOL    HW3 9475   5.650   0.611   0.809 -0.5550 -0.2521  1.6287
 2427SOL    MW4 9476   5.595   0.678   0.800  0.2112  0.0503  0.3453
 2428SOL     OW 9477   1.180   5.571   5.468  0.2652 -0.3974 -0.2556
 2428SOL    HW2 9478   1.272   5.586   5.446  1.3680 -4.7176  0.5158
 2428SOL    HW3 9479   1.131   5.618   5.400  3.0118  1.1711 -1.3160
 2428SOL    MW4 9480   1.185   5.579   5.456 -0.1722 -0.5035 -0.1926
 2429SOL     OW 9481   0.690   5.782   1.874 -0.0522  0.4113  0.3001
 2429SOL    HW2 9482   0.678   5.695   1.911 -1.8591  0.4836  0.0018
 2429SOL    HW3 9483   0.615   5.833   1.907 -2.1038  0.3649 -3.5916
 2429SOL    MW4 9484   0.678   5.777   1.883 -0.2883  0.5278 -1.0359
 2430SOL     OW 9485   4.360   4.906   4.203  0.1981  0.5216 -0.3327
 2430SOL    HW2 9486   4.380   4.813   4.188 -0.7881  0.2424 -0.0071
 2430SOL    HW3 9487   4.410   4.952   4.137  0.9109 -0.2277 -0.3351
 2430SOL    MW4 9488   4.369   4.900   4.193  0.0219  0.6686  0.6528
 2431SOL     OW 9489   2.049   1.341   0.692 -0.0992 -0.3597 -0.0082
 2431SOL    HW2 9490   2.037   1.310   0.602 -0.0482  0.7657 -0.4155
 2431SOL    HW3 9491   2.144   1.352   0.701 -0.1245 -0.2318  0.1027
 2431SOL    MW4 9492   2.060   1.338   0.682  0.2118  0.5589  0.3840
 2432SOL     OW 9493   3.196   4.801   5.034  0.5361  0.4976  0.3492
 2432SOL    HW2 9494   3.234   4.716   5.012 -1.3155 -0.4003  0.4858
 2432SOL    HW3 9495   3.169   4.837   4.949  0.4887  0.5480  0.3859
 2432SOL    MW4 9496   3.198   4.795   5.020  1.2527  0.0406 -0.2201
 2433SOL     OW 9497   1.349   1.333   2.309  0.0852  0.0019  0.0145
 2433SOL    HW2 9498   1.315   1.293   2.389 -0.3269 -1.4983 -0.8730
 2433SOL    HW3 9499   1.377   1.259   2.256  0.8568  1.0074 -1.0148
 2433SOL    MW4 9500   1.348   1.318   2.313  0.5475 -0.1173  0.1153
 2434SOL     OW 9501   6.352   5.580   2.910 -0.4937  0.3422  0.2462
 2434SOL    HW2 9502   6.399   5.502   2.884  1.0531  1.4129 -0.3214
 2434SOL    HW3 9503   6.293   5.551   2.980  1.0652 -1.0550  1.0415
 2434SOL    MW4 9504   6.351   5.566   2.916  0.1698 -0.4604 -0.6480
 2435SOL     OW 9505   0.832   5.560   0.234  0.2167 -0.0150 -0.4819
 2435SOL    HW2 9506   0.736   5.563   0.243  0.0709 -2.2227 -0.5914
 2435SOL    HW3 9507   0.861   5.648   0.257 -1.7317  0.3027  1.1144
 2435SOL    MW4 9508   0.823   5.572   0.238  0.5325  0.2820  0.0534
 2436SOL     OW 9509   2.907   3.111   5.780  0.1857  0.9749  0.1674
 2436SOL    HW2 9510   2.937   3.049   5.713 -1.5060  0.8721 -0.5249
 2436SOL    HW3 9511   2.857   3.057   5.841 -0.9269  1.5577 -0.2052
 2436SOL    MW4 9512   2.905   3.096   5.779  0.1394 -1.2392 -0.1523
 2437SOL     OW 9513   5.978   2.163   5.867 -0.4559 -0.3637 -0.3230
 2437SOL    HW2 9514   6.063   2.139   5.829 -0.1121  1.4059 -0.7298
 2437SOL    HW3 9515   5.927   2.197   5.794 -0.3483  1.5971  0.4568
 2437SOL    MW4 9516   5.983   2.164   5.853  0.0831 -0.5602 -0.4262
 2438SOL     OW 9517   4.036   2.477   1.844 -0.1695  0.1800  0.5913
 2438SOL    HW2 9518   4.086   2.408   1.800 -0.3119  0.2115  0.3763
 2438SOL    HW3 9519   3.947   2.467   1.810  0.2313  1.8427 -1.1637
 2438SOL    MW4 9520   4.031   2.467   1.834 -0.2216  0.7536  0.2340
 2439SOL     OW 9521   4.464   1.798   1.892 -0.1344  0.1769  0.1127
 2439SOL    HW2 9522   4.467   1.748   1.973  0.0903 -1.2970 -0.7656
 2439SOL    HW3 9523   4.549   1.842   1.888  0.1198 -0.2799  0.3642
 2439SOL    MW4 9524   4.476   1.797   1.902  0.5553  0.2712  0.5494
 2440SOL     OW 9525   1.253   4.220   4.582  0.0429  0.2994 -0.5924
 2440SOL    HW2 9526   1.280   4.186   4.667 -0.0883  0.0786 -0.6397
 2440SOL    HW3 9527   1.158   4.232   4.590 -0.1779 -0.9270 -1.1230
 2440SOL    MW4 9528   1.244   4.217   4.594 -0.2206 -0.2730 -0.1581
 2441SOL     OW 9529   4.609   1.271   1.634 -0.1105 -0.2842  0.2858
 2441SOL    HW2 9530   4.630   1.355   1.674  0.4174 -0.4113  0.2789
 2441SOL    HW3 9531   4.694   1.231   1.615 -0.3494 -0.3414 -0.7271
 2441SOL    MW4 9532   4.623   1.276   1.637 -0.2093  0.3320 -0.3255
 2442SOL     OW 9533   0.904   2.085   2.624  0.3054 -0.1158  0.5069
 2442SOL    HW2 9534   0.897   2.067   2.718 -1.0418  2.2609  0.9589
 2442SOL    HW3 9535   0.965   2.158   2.619 -1.1652  1.1399 -0.1884
 2442SOL    MW4 9536   0.911   2.092   2.636  0.1233 -0.4430 -0.3339
 2443SOL     OW 9537   6.139   0.454   4.688 -0.0136  0.2033  0.1723
 2443SOL    HW2 9538   6.112   0.532   4.640 -0.7323  0.6813  1.3115
 2443SOL    HW3 9539   6.071   0.442   4.755  0.7560 -0.6517  0.8291
 2443SOL    MW4 9540   6.127   0.463   4.691 -0.3582  0.2430 -0.8993
 2444SOL     OW 9541   2.026   2.135   4.349 -0.0151  0.0302 -0.0948
 2444SOL    HW2 9542   2.014   2.224   4.382  1.5168  0.6528 -1.0696
 2444SOL    HW3 9543   2.084   2.146   4.274  1.8699 -1.9872  0.9574
 2444SOL    MW4 9544   2.032   2.148   4.343  0.2683 -0.1508 -0.3791
 2445SOL     OW 9545   6.150   0.753   3.193  0.5150 -0.0217  0.3020
 2445SOL    HW2 9546   6.156   0.666   3.231  1.8384 -0.5866 -1.1066
 2445SOL    HW3 9547   6.141   0.812   3.268  0.2628 -1.3043  1.2989
 2445SOL    MW4 9548   6.149   0.750   3.208  0.1731  0.2212  0.4368
 2446SOL     OW 9549   6.302   2.555   1.175  0.3413 -0.3528  0.3511
 2446SOL    HW2 9550   6.264   2.629   1.129 -0.2318 -0.8885 -0.0591
 2446SOL    HW3 9551   6.393   2.552   1.144  1.0474  1.5261  2.0773
 2446SOL    MW4 9552   6.309   2.564   1.165 -0.1696 -0.1524 -0.6530
 2447SOL     OW 9553   1.381   4.370   1.762 -0.1411  0.7907  0.1357
 2447SOL    HW2 9554   1.370   4.291   1.816 -0.2680  1.2333  0.7736
 2447SOL    HW3 9555   1.475   4.390   1.769 -0.2759  1.2342  0.7579
 2447SOL    MW4 9556   1.392   4.362   1.770  0.1855  0.3461 -0.2765
 2448SOL     OW 9557   1.654   1.433   1.338  0.6824 -0.0316  0.7814
 2448SOL    HW2 9558   1.654   1.340   1.314 -0.5022  0.7076 -2.6268
 2448SOL    HW3 9559   1.572   1.446   1.386  0.8666 -0.7040  1.3011
 2448SOL    MW4 9560   1.643   1.422   1.341 -0.6411  0.2061  0.2656
 2449SOL     OW 9561   5.386   0.693   4.484  0.6617 -0.3334 -0.0799
 2449SOL    HW2 9562   5.383   0.778   4.528 -0.2216  0.8680 -2.2962
 2449SOL    HW3 9563   5.446   0.707   4.410 -1.3716 -0.8245 -1.9210
 2449SOL    MW4 9564   5.393   0.706   4.480  0.0076 -0.3628  0.2084
 2450SOL     OW 9565   1.578   4.640   2.074  0.4595  0.4487  0.2148
 2450SOL    HW2 9566   1.641   4.666   2.006  0.6786  0.0947  0.2773
 2450SOL    HW3 9567   1.497   4.621   2.026  0.2244  1.4801  0.1964
 2450SOL    MW4 9568   1.576   4.641   2.059 -0.1720  0.1352  0.0437
 2451SOL     OW 9569   5.665   5.884   5.041  0.3510  0.1179 -0.9744
 2451SOL    HW2 9570   5.707   5.839   5.114  0.0264  0.6181 -0.4769
 2451SOL    HW3 9571   5.711   5.967   5.033  0.3872  0.0667 -1.3491
 2451SOL    MW4 9572   5.677   5.889   5.049 -0.7999  0.4232 -0.0384
 2452SOL     OW 9573   6.434   5.909   3.324  0.5515  0.3262 -0.2854
 2452SOL    HW2 9574   6.339   5.898   3.326  0.2896  0.7296 -3.7428
 2452SOL    HW3 9575   6.466   5.834   3.274  2.0530  0.3579  0.5673
 2452SOL    MW4 9576   6.426   5.898   3.317  0.2197 -0.2655  0.0483
 2453SOL     OW 9577   5.098   6.000   2.263  0.1090  0.0873  0.4838
 2453SOL    HW2 9578   5.182   5.960   2.240 -0.0954 -0.5576  0.8430
 2453SOL    HW3 9579   5.051   6.007   2.179  0.7206  0.9574  0.1937
 2453SOL    MW4 9580   5.103   5.996   2.249 -0.0354  0.0848  0.4288
 2454SOL     OW 9581   0.880   5.623   5.694 -0.3249  0.3606  0.5979
 2454SOL    HW2 9582   0.812   5.618   5.761 -0.6418 -1.9365  0.1783
 2454SOL    HW3 9583   0.948   5.562   5.724 -0.3123 -0.4363 -0.9866
 2454SOL    MW4 9584   0.880   5.615   5.707 -0.2003  0.2181 -0.0658
 2455SOL     OW 9585   0.038   4.314   4.777 -0.0781  0.5992  0.3902
 2455SOL    HW2 9586   0.044   4.228   4.735  3.0247  0.1331  1.5408
 2455SOL    HW3 9587  -0.021   4.364   4.721 -0.1013 -1.5374 -1.6362
 2455SOL    MW4 9588   0.031   4.309   4.764  0.0253  0.2672 -0.4589
 2456SOL     OW 9589   1.733   2.948   6.179 -0.5554 -0.1341 -0.0439
 2456SOL    HW2 9590   1.691   2.927   6.262 -0.5569  0.0233 -0.0058
 2456SOL    HW3 9591   1.680   3.019   6.142  0.9300  1.6213  1.0239
 2456SOL    MW4 9592   1.720   2.954   6.185 -0.5177 -0.2142  0.0992
 2457SOL     OW 9593   1.880   0.055   4.526 -0.2935 -0.3958 -0.6157
 2457SOL    HW2 9594   1.904  -0.037   4.540  0.3977 -0.0388  0.6832
 2457SOL    HW3 9595   1.784   0.055   4.524 -0.2920 -1.1748 -0.8481
 2457SOL    MW4 9596   1.870   0.043   4.528  0.5363 -0.1139 -0.4392
 2458SOL     OW 9597   4.601   1.375   1.976 -0.3733 -0.0804  0.3734
 2458SOL    HW2 9598   4.667   1.387   1.908 -0.4327 -0.0246  0.3250
 2458SOL    HW3 9599   4.572   1.464   1.997 -0.5294 -0.1123  0.2967
 2458SOL    MW4 9600   4.606   1.388   1.970  0.7168 -0.6142  0.3058
 2459SOL     OW 9601   3.030   4.564   0.974  0.4281 -1.1499  0.4218
 2459SOL    HW2 9602   3.116   4.587   0.940  0.1146 -0.7986 -0.1603
 2459SOL    HW3 9603   3.022   4.614   1.056 -0.1115  0.6353 -0.6629
 2459SOL    MW4 9604   3.040   4.574   0.981 -0.1908  0.1023  0.0688
 2460SOL     OW 9605   6.368   5.363   5.684 -0.2320  0.0805 -0.2623
 2460SOL    HW2 9606   6.406   5.355   5.771 -1.6810  0.0368  0.3898
 2460SOL    HW3 9607   6.291   5.418   5.696  0.8892  2.1729 -1.9593
 2460SOL    MW4 9608   6.363   5.369   5.697  0.3972  0.5423 -0.7808
 2461SOL     OW 9609   0.058   3.115   0.876  0.4226  0.2328 -0.3513
 2461SOL    HW2 9610   0.048   3.136   0.968  1.0579 -0.2269 -0.1705
 2461SOL    HW3 9611   0.153   3.108   0.863  0.3021 -0.6038 -0.8346
 2461SOL    MW4 9612   0.070   3.117   0.886 -0.9854  0.1379 -0.2663
 2462SOL     OW 9613   4.157   1.692   1.964 -0.1712  0.0230 -0.2863
 2462SOL    HW2 9614   4.184   1.775   1.926 -0.3440 -0.9961 -2.8620
 2462SOL    HW3 9615   4.093   1.657   1.902 -0.5574 -1.7778  1.0343
 2462SOL    MW4 9616   4.152   1.698   1.951  0.3473  0.0119  0.2961
 2463SOL     OW 9617   3.207   0.434   2.624  0.4944 -0.4925  0.2456
 2463SOL    HW2 9618   3.149   0.510   2.623 -0.1294 -0.9657 -0.0449
 2463SOL    HW3 9619   3.149   0.359   2.611  0.9137 -1.1559  1.8456
 2463SOL    MW4 9620   3.192   0.434   2.623 -0.3335 -0.1816  0.7184
 2464SOL     OW 9621   2.771   1.832   1.517 -0.2149  0.2525  0.2542
 2464SOL    HW2 9622   2.741   1.783   1.594 -0.5145 -1.3103 -0.8198
 2464SOL    HW3 9623   2.691   1.870   1.480 -0.0202  1.3499  0.9137
 2464SOL    MW4 9624   2.756   1.831   1.523  0.5285  0.0134 -0.6472
 2465SOL     OW 9625   1.014   1.712   0.907  0.3290 -0.0151 -0.0788
 2465SOL    HW2 9626   1.010   1.807   0.919 -1.0864  0.0122 -0.6043
 2465SOL    HW3 9627   0.961   1.676   0.978 -0.9446 -0.2799 -1.1291
 2465SOL    MW4 9628   1.007   1.720   0.918  0.9222 -0.0126 -0.0743
 2466SOL     OW 9629   2.948   0.388   6.029 -0.4569 -0.1426  0.3156
 2466SOL    HW2 9630   2.883   0.445   6.070  1.5465  1.2582  1.7248
 2466SOL    HW3 9631   2.927   0.300   6.061 -0.5511  0.5481  2.2776
 2466SOL    MW4 9632   2.936   0.384   6.038  0.2755  0.0484 -0.4870
 2467SOL     OW 9633   2.464   1.589   2.387 -0.0993 -0.4773  0.6261
 2467SOL    HW2 9634   2.409   1.660   2.354  1.0533  0.9268  1.6162
 2467SOL    HW3 9635   2.459   1.521   2.320 -0.5304  0.8976 -0.7739
 2467SOL    MW4 9636   2.456   1.589   2.374  0.8298  0.4485  0.5641
 2468SOL     OW 9637   0.973   3.866   0.917  0.2314 -0.8722 -0.3535
 2468SOL    HW2 9638   0.999   3.774   0.915  0.1120 -0.9231  0.1943
 2468SOL    HW3 9639   1.048   3.914   0.882  0.3924 -1.1563 -0.3949
 2468SOL    MW4 9640   0.986   3.860   0.912  0.5386 -0.7286 -0.5701
 2469SOL     OW 9641   6.036   0.204   0.783  0.0365 -0.0360  0.5110
 2469SOL    HW2 9642   6.088   0.270   0.829 -1.2390 -0.9047  3.4498
 2469SOL    HW3 9643   5.981   0.255   0.723  1.1254  1.2700  0.5711
 2469SOL    MW4 9644   6.036   0.220   0.782  0.2404 -0.5612 -0.5249
 2470SOL     OW 9645   1.852   6.226   0.565 -0.0257 -0.6329 -0.1473
 2470SOL    HW2 9646   1.850   6.312   0.606 -0.8915 -0.9912  0.5922
 2470SOL    HW3 9647   1.904   6.172   0.624  0.5036 -0.6224 -0.6025
 2470SOL    MW4 9648   1.859   6.230   0.578 -0.2136 -0.0330 -0.1855
 2471SOL     OW 9649   0.130   5.695   0.412 -0.1278  0.0629  0.0624
 2471SOL    HW2 9650   0.147   5.748   0.490 -2.3838 -0.3042  0.9010
 2471SOL    HW3 9651   0.172   5.743   0.341  0.7643  1.1836  1.2923
 2471SOL    MW4 9652   0.137   5.709   0.413  0.4837 -0.0210  0.2401
 2472SOL     OW 9653   4.769   2.799   1.190 -0.2361 -0.4479 -0.3938
 2472SOL    HW2 9654   4.739   2.797   1.281 -0.5409 -0.5146 -0.4928
 2472SOL    HW3 9655   4.859   2.768   1.194  0.1336  0.6524  0.0271
 2472SOL    MW4 9656   4.777   2.794   1.203  0.2497  0.6282 -0.2577
 2473SOL     OW 9657   1.834   3.560   4.414 -0.2793  0.9697  0.1866
 2473SOL    HW2 9658   1.816   3.648   4.380 -0.7107  0.9085  0.2610
 2473SOL    HW3 9659   1.880   3.576   4.496 -2.9915  1.1999  1.7691
 2473SOL    MW4 9660   1.838   3.574   4.420 -0.0534  0.2909  0.3674
 2474SOL     OW 9661   0.667   1.873   3.058  0.4983 -0.2870 -0.3753
 2474SOL    HW2 9662   0.691   1.964   3.077 -0.4658 -0.1045  0.0373
 2474SOL    HW3 9663   0.614   1.878   2.979 -1.1442 -0.2429  0.6862
 2474SOL    MW4 9664   0.664   1.886   3.050 -0.1103  0.1962  0.2902
 2475SOL     OW 9665   6.009   0.490   0.272 -0.4064  0.4508  0.1606
 2475SOL    HW2 9666   5.942   0.517   0.209  0.3748  2.3343  0.0691
 2475SOL    HW3 9667   5.999   0.552   0.345  0.2193 -0.2381  0.8455
 2475SOL    MW4 9668   5.999   0.502   0.273  0.0392  0.5586  0.1145
 2476SOL     OW 9669   6.028   2.039   3.403 -0.1071  0.7781  0.1264
 2476SOL    HW2 9670   5.970   2.078   3.339 -0.5392 -1.1155 -0.7040
 2476SOL    HW3 9671   6.058   1.958   3.362  1.1533  0.4792  1.5434
 2476SOL    MW4 9672   6.025   2.034   3.389 -0.3909  0.0841 -0.1857
 2477SOL     OW 9673   5.341   4.135   3.895 -0.1556  0.7174  0.4845
 2477SOL    HW2 9674   5.389   4.218   3.897 -0.9373  1.1830  1.8922
 2477SOL    HW3 9675   5.324   4.118   3.802  4.0213 -0.3068 -0.2783
 2477SOL    MW4 9676   5.345   4.144   3.883  0.4021  0.1826  0.2761
 2478SOL     OW 9677   3.175   2.982   1.565  0.4117 -0.3762  0.4343
 2478SOL    HW2 9678   3.196   2.893   1.593 -1.5778 -0.7796  0.7882
 2478SOL    HW3 9679   3.177   2.978   1.470  0.0204 -0.8873  0.4433
 2478SOL    MW4 9680   3.178   2.970   1.556 -0.3024  0.7229  0.0044
 2479SOL     OW 9681   0.265   4.590   1.672  0.0518  0.0952  0.0043
 2479SOL    HW2 9682   0.230   4.671   1.634  0.8211  0.2102 -0.4937
 2479SOL    HW3 9683   0.360   4.603   1.670  0.1370 -0.1079  1.5339
 2479SOL    MW4 9684   0.273   4.603   1.667 -0.2117  0.3637 -0.4358
 2480SOL     OW 9685   6.158   4.855   2.110 -0.2060 -0.0129  0.3630
 2480SOL    HW2 9686   6.154   4.950   2.117  0.3849 -0.0014  0.6522
 2480SOL    HW3 9687   6.078   4.824   2.153 -0.6782  0.3646 -0.2290
 2480SOL    MW4 9688   6.147   4.863   2.117 -0.6869  0.4932 -0.4837
 2481SOL     OW 9689   2.298   0.662   1.889  0.0819 -0.4541 -0.4821
 2481SOL    HW2 9690   2.319   0.674   1.982  3.1440 -1.9526 -0.8350
 2481SOL    HW3 9691   2.277   0.569   1.881 -1.7118 -0.0307 -1.0989
 2481SOL    MW4 9692   2.298   0.652   1.900  0.7419 -0.5256 -0.1011
 2482SOL     OW 9693   0.643   5.097   2.144  0.1212 -0.3069 -0.2588
 2482SOL    HW2 9694   0.716   5.036   2.154  0.1735 -0.2958 -0.5497
 2482SOL    HW3 9695   0.652   5.129   2.054  0.2979  0.3840 -0.0005
 2482SOL    MW4 9696   0.654   5.093   2.133 -0.2240 -0.3012 -0.0866
 2483SOL     OW 9697   6.401   5.475   2.303 -0.1891  0.6780  0.3029
 2483SOL    HW2 9698   6.420   5.565   2.278 -1.1996  1.4231  2.0262
 2483SOL    HW3 9699   6.384   5.479   2.397 -0.1957 -1.3324  0.4339
 2483SOL    MW4 9700   6.401   5.487   2.312  0.3906  0.3194 -0.0292
 2484SOL     OW 9701   5.446   1.470   0.114  0.2568 -0.2655 -0.2643
 2484SOL    HW2 9702   5.441   1.520   0.195  1.1544 -2.2596  1.0900
 2484SOL    HW3 9703   5.355   1.461   0.086 -0.0720  0.3779  0.5518
 2484SOL    MW4 9704   5.433   1.475   0.121  0.0210  0.7575 -0.0773
 2485SOL     OW 9705   3.692   1.809   0.964  0.1790 -0.3940 -0.5776
 2485SOL    HW2 9706   3.697   1.722   1.004 -0.4456 -0.9051 -1.5585
 2485SOL    HW3 9707   3.599   1.823   0.948  0.3836 -0.0698 -1.5346
 2485SOL    MW4 9708   3.680   1.799   0.967 -0.2736 -0.1062 -0.0992
 2486SOL     OW 9709   2.843   3.304   6.066 -0.1403  0.7125  0.2589
 2486SOL    HW2 9710   2.925   3.343   6.035  0.8690  0.0763  2.0329
 2486SOL    HW3 9711   2.789   3.379   6.092  0.3291  1.0814  0.1712
 2486SOL    MW4 9712   2.847   3.319   6.065  0.1211 -0.4557  0.0624
 2487SOL     OW 9713   4.343   1.633   0.287  0.0957  0.3860 -0.0766
 2487SOL    HW2 9714   4.373   1.724   0.288 -0.9900  0.7611  1.1198
 2487SOL    HW3 9715   4.383   1.594   0.364 -0.2272  0.1211 -0.0421
 2487SOL    MW4 9716   4.352   1.640   0.297  0.6225  0.5961 -0.0159
 2488SOL     OW 9717   0.714   5.723   4.850 -0.6825 -0.2074 -0.4390
 2488SOL    HW2 9718   0.747   5.773   4.925  0.1053  0.4492 -1.2136
 2488SOL    HW3 9719   0.621   5.749   4.844 -0.3633  0.9498 -0.6471
 2488SOL    MW4 9720   0.706   5.733   4.859 -0.6245 -0.1882 -0.1936
 2489SOL     OW 9721   4.489   0.410   2.795 -0.6638 -0.3021  0.0616
 2489SOL    HW2 9722   4.562   0.401   2.734 -1.6030  1.1280 -1.3419
 2489SOL    HW3 9723   4.530   0.426   2.880  0.6621  0.2758 -0.6657
 2489SOL    MW4 9724   4.504   0.411   2.798 -0.1127 -0.6110 -0.4262
 2490SOL     OW 9725   1.567   2.130   5.019  0.0209 -0.0325 -0.6432
 2490SOL    HW2 9726   1.661   2.120   5.005 -0.1321 -2.1355 -0.5316
 2490SOL    HW3 9727   1.536   2.041   5.035 -1.6443  0.8628  1.5360
 2490SOL    MW4 9728   1.575   2.117   5.019  0.2304  0.4611 -0.3374
 2491SOL     OW 9729   1.106   1.351   0.418  0.5073 -0.0382  0.2502
 2491SOL    HW2 9730   1.042   1.374   0.351  1.6519 -0.1347 -0.9148
 2491SOL    HW3 9731   1.153   1.432   0.436  1.3830 -0.3790 -0.3953
 2491SOL    MW4 9732   1.104   1.365   0.411  0.9023 -0.0613 -0.1952
 2492SOL     OW 9733   5.363   3.712   3.430  0.3403 -0.2137 -0.3215
 2492SOL    HW2 9734   5.396   3.752   3.350 -0.9063 -0.7678 -1.1382
 2492SOL    HW3 9735   5.299   3.775   3.463  0.5487 -0.1796  0.0207
 2492SOL    MW4 9736   5.359   3.726   3.424 -0.1978  0.1967  0.5668
 2493SOL     OW 9737   2.916   5.181   5.127 -0.1004 -0.4156  0.1071
 2493SOL    HW2 9738   2.955   5.148   5.046  0.0796  1.7501 -0.7692
 2493SOL    HW3 9739   2.950   5.124   5.196  1.5251 -0.9746 -1.0992
 2493SOL    MW4 9740   2.926   5.169   5.125  0.8249  0.2837 -0.7700
 2494SOL     OW 9741   3.660   0.196   0.290  0.6573  0.2040 -0.3871
 2494SOL    HW2 9742   3.748   0.225   0.316  0.9512 -1.3689  0.5056
 2494SOL    HW3 9743   3.606   0.214   0.367  0.1903  1.0575 -0.8922
 2494SOL    MW4 9744   3.665   0.202   0.304 -0.4088  0.4299 -0.9714
 2495SOL     OW 9745   2.407   0.333   6.048  0.8165  0.1609 -0.2654
 2495SOL    HW2 9746   2.339   0.346   5.982  1.5027  1.0208 -0.8296
 2495SOL    HW3 9747   2.362   0.343   6.132 -0.0711 -0.9754 -0.5979
 2495SOL    MW4 9748   2.392   0.336   6.051  1.0019 -0.4388 -0.5545
 2496SOL     OW 9749   1.638   0.573   1.407  0.2179 -0.6081  0.5239
 2496SOL    HW2 9750   1.725   0.549   1.377  0.9725 -0.7567  2.6582
 2496SOL    HW3 9751   1.640   0.668   1.417  0.3857 -0.6711  1.1904
 2496SOL    MW4 9752   1.650   0.582   1.405 -0.2440  0.4756  0.0844
 2497SOL     OW 9753   3.625   0.083   1.785  0.0408  0.0297  0.3669
 2497SOL    HW2 9754   3.683   0.033   1.843  0.3492  1.0640  0.9634
 2497SOL    HW3 9755   3.641   0.174   1.807 -1.1639  0.3707 -0.1069
 2497SOL    MW4 9756   3.635   0.088   1.795  0.4005  0.8423 -0.7250
 2498SOL     OW 9757   4.125   2.408   0.701  0.4330  0.8326  0.4698
 2498SOL    HW2 9758   4.095   2.322   0.672 -0.3611  1.0316  0.6679
 2498SOL    HW3 9759   4.165   2.447   0.624 -0.9557  1.0468 -0.1726
 2498SOL    MW4 9760   4.126   2.402   0.687  0.2650 -0.3980 -0.6611
 2499SOL     OW 9761   2.406   2.235   2.882 -0.3399 -0.3717 -0.1083
 2499SOL    HW2 9762   2.367   2.315   2.847 -1.0925 -0.6763  0.0233
 2499SOL    HW3 9763   2.394   2.170   2.813 -1.0360 -0.7411  0.3502
 2499SOL    MW4 9764   2.399   2.237   2.868 -0.0568 -0.3076 -0.0783
 2500SOL     OW 9765   0.899   0.623   0.353 -0.3319  0.2150  0.9436
 2500SOL    HW2 9766   0.857   0.672   0.423 -1.5021 -0.8555  1.0159
 2500SOL    HW3 9767   0.895   0.531   0.381  0.7120 -0.0666  0.2545
 2500SOL    MW4 9768   0.893   0.617   0.366  0.4406 -0.7630 -0.0573
 2501SOL     OW 9769   3.766   1.929   0.239  0.1755 -0.4559 -0.3745
 2501SOL    HW2 9770   3.796   1.993   0.303 -0.5940  0.8000 -1.2307
 2501SOL    HW3 9771   3.844   1.903   0.191  0.5244 -0.3493  0.1295
 2501SOL    MW4 9772   3.780   1.934   0.241 -0.0409 -0.0829  0.0630
 2502SOL     OW 9773   6.205   6.170   5.125 -0.1532  0.2494  0.3157
 2502SOL    HW2 9774   6.191   6.194   5.033 -0.1442 -1.6973 -0.2418
 2502SOL    HW3 9775   6.184   6.249   5.174  2.6461  2.2895 -1.4924
 2502SOL    MW4 9776   6.200   6.183   5.119  0.0337 -0.5805  0.7364
 2503SOL     OW 9777   0.911   2.389   3.310  0.3237  1.2254  0.1550
 2503SOL    HW2 9778   0.939   2.413   3.398  0.9840  1.3054 -0.0672
 2503SOL    HW3 9779   0.816   2.392   3.313  0.3466  1.4524  0.8034
 2503SOL    MW4 9780   0.902   2.393   3.322  0.3256  0.2698 -0.0684
 2504SOL     OW 9781   6.219   5.397   3.661 -0.0278  0.1414 -0.8263
 2504SOL    HW2 9782   6.148   5.381   3.599 -1.8931  2.1038  0.6429
 2504SOL    HW3 9783   6.177   5.442   3.734  2.3605 -0.5816  1.1421
 2504SOL    MW4 9784   6.204   5.401   3.663 -0.1164  0.0374  0.0693
 2505SOL     OW 9785   3.634   0.015   4.010  0.4068  0.2764 -0.5778
 2505SOL    HW2 9786   3.710   0.030   3.955  2.2766  1.9333  2.2056
 2505SOL    HW3 9787   3.588   0.099   4.012 -1.0928 -0.4879 -1.5952
 2505SOL    MW4 9788   3.638   0.028   4.003 -0.2574 -0.0711  0.3636
 2506SOL     OW 9789   2.172   1.354   2.274  0.1185 -0.5371  0.0454
 2506SOL    HW2 9790   2.153   1.276   2.223 -1.8245 -0.7968  1.0834
 2506SOL    HW3 9791   2.087   1.384   2.306  1.1008  0.3450  2.0453
 2506SOL    MW4 9792   2.159   1.348   2.271 -0.2854 -0.1767  0.1165
 2507SOL     OW 9793   4.304   5.672   4.262 -0.3418 -0.5162  0.4529
 2507SOL    HW2 9794   4.229   5.702   4.312 -0.6459  2.4872 -1.5451
 2507SOL    HW3 9795   4.272   5.663   4.172  1.0182 -2.2288  0.0613
 2507SOL    MW4 9796   4.290   5.674   4.257  0.4160  0.1792  0.3297
 2508SOL     OW 9797   0.096   0.568   3.614  0.2193 -0.3921 -0.0691
 2508SOL    HW2 9798   0.013   0.577   3.568  0.6707  0.7997 -0.6939
 2508SOL    HW3 9799   0.086   0.621   3.693  1.1315  1.6778 -1.2626
 2508SOL    MW4 9800   0.084   0.576   3.619  0.3872 -0.3820 -0.0731
 2509SOL     OW 9801   5.863   0.038   2.867  0.1697  0.0193 -0.1406
 2509SOL    HW2 9802   5.867  -0.053   2.898 -0.9780 -0.8819 -2.3932
 2509SOL    HW3 9803   5.942   0.049   2.815 -0.9193 -0.6013 -2.0031
 2509SOL    MW4 9804   5.874   0.027   2.865 -0.2968 -0.3028 -0.0906
 2510SOL     OW 9805   6.370   0.362   1.189 -0.4414  0.3637  0.0562
 2510SOL    HW2 9806   6.326   0.437   1.149 -0.5082 -0.0249 -0.6163
 2510SOL    HW3 9807   6.300   0.304   1.216 -0.3860  0.4807  0.4502
 2510SOL    MW4 9808   6.355   0.365   1.187  0.2680  0.0549  0.3200
 2511SOL     OW 9809   2.021   1.162   3.626 -0.3054  0.2137  0.2162
 2511SOL    HW2 9810   2.113   1.186   3.632 -0.1478 -0.4643  0.6483
 2511SOL    HW3 9811   2.002   1.162   3.532  0.1760  0.1931  0.1163
 2511SOL    MW4 9812   2.030   1.165   3.614 -0.2592  0.4077 -0.6184
 2512SOL     OW 9813   1.586   2.784   4.792 -0.1429  0.1762  0.2747
 2512SOL    HW2 9814   1.600   2.823   4.706  0.0167 -1.0952 -0.2965
 2512SOL    HW3 9815   1.602   2.690   4.779 -3.1202 -0.5160  0.9798
 2512SOL    MW4 9816   1.590   2.776   4.779  0.0121 -0.2119 -0.3553
 2513SOL     OW 9817   0.661   4.505   3.221  0.0057 -0.3819 -0.2819
 2513SOL    HW2 9818   0.696   4.502   3.310 -0.4897  0.6185 -0.0417
 2513SOL    HW3 9819   0.625   4.417   3.206 -1.9393  0.0647  1.3602
 2513SOL    MW4 9820   0.661   4.493   3.230  0.6416 -0.1329  0.0327
 2514SOL     OW 9821   6.215   0.200   6.187  0.4633  0.0798  0.4272
 2514SOL    HW2 9822   6.293   0.152   6.159  1.5708  0.7845  2.1129
 2514SOL    HW3 9823   6.247   0.289   6.205 -1.4958  1.5586 -2.5317
 2514SOL    MW4 9824   6.230   0.206   6.186 -0.6487 -0.7322 -0.2181
 2515SOL     OW 9825   3.948   3.392   5.511  0.1315  0.0315 -0.2045
 2515SOL    HW2 9826   3.974   3.466   5.456  0.3022 -0.0404 -0.2214
 2515SOL    HW3 9827   3.982   3.414   5.597 -0.4516  0.3166 -0.0413
 2515SOL    MW4 9828   3.956   3.405   5.515  0.0819  0.4308 -0.1801
 2516SOL     OW 9829   5.143   2.882   0.882  0.2082 -0.2055  0.2982
 2516SOL    HW2 9830   5.219   2.872   0.824 -0.5371  1.7120 -1.0915
 2516SOL    HW3 9831   5.168   2.952   0.942  0.2189 -0.8378  1.0459
 2516SOL    MW4 9832   5.157   2.890   0.882  0.7489 -0.4391 -0.5130
 2517SOL     OW 9833   0.196   6.188   2.877 -0.3120 -0.1264 -0.3061
 2517SOL    HW2 9834   0.193   6.112   2.818  2.8191 -0.2213 -0.5233
 2517SOL    HW3 9835   0.247   6.157   2.953  0.7305  1.6077 -0.2470
 2517SOL    MW4 9836   0.203   6.174   2.879 -0.3756 -0.3734  0.2253
 2518SOL     OW 9837   3.235   0.810   4.864  0.0879 -0.2324  0.4915
 2518SOL    HW2 9838   3.173   0.747   4.900  0.1411 -0.0284  0.9418
 2518SOL    HW3 9839   3.308   0.757   4.833 -0.1885 -0.4508  0.2099
 2518SOL    MW4 9840   3.237   0.795   4.865 -0.2106  0.6330 -0.4158
 2519SOL     OW 9841   2.904   6.212   3.155  0.0781 -0.3514 -0.0961
 2519SOL    HW2 9842   2.952   6.129   3.150  2.9089  1.2177 -2.3250
 2519SOL    HW3 9843   2.865   6.222   3.068  1.3718  1.4543 -0.5185
 2519SOL    MW4 9844   2.905   6.202   3.143 -0.1488 -0.6466  0.2263
 2520SOL     OW 9845   2.092   1.479   4.934  0.0487 -0.3856 -0.0328
 2520SOL    HW2 9846   2.074   1.530   4.855 -1.3874  4.5705  3.0574
 2520SOL    HW3 9847   2.187   1.484   4.945  0.1805 -0.4981 -0.9772
 2520SOL    MW4 9848   2.102   1.486   4.925  0.5599 -0.2820  0.6900
 2521SOL     OW 9849   3.675   3.166   3.568  0.5950 -0.0640 -0.0670
 2521SOL    HW2 9850   3.586   3.176   3.602  1.4069 -0.5552  2.4288
 2521SOL    HW3 9851   3.676   3.219   3.488 -1.3388  1.6776  0.9526
 2521SOL    MW4 9852   3.663   3.174   3.562  0.2583 -1.2971 -0.5988
 2522SOL     OW 9853   3.939   2.695   6.408  0.3464 -0.7050 -0.3995
 2522SOL    HW2 9854   3.925   2.627   6.474  1.5627 -0.5700  0.0351
 2522SOL    HW3 9855   3.854   2.706   6.365  0.3059 -3.0960 -1.0639
 2522SOL    MW4 9856   3.926   2.687   6.411 -0.3182 -0.1644 -0.2762
 2523SOL     OW 9857   5.307   4.412   1.335 -0.0314  0.5277 -0.1944
 2523SOL    HW2 9858   5.353   4.496   1.340 -0.0414  0.5061  0.3243
 2523SOL    HW3 9859   5.268   4.401   1.422  2.4633 -1.4210  0.7984
 2523SOL    MW4 9860   5.308   4.422   1.348  0.6418  0.1400  0.0252
 2524SOL     OW 9861   2.381   5.232   4.298  0.1292  0.2469  0.2160
 2524SOL    HW2 9862   2.387   5.138   4.313 -1.2812 -0.0703 -0.8820
 2524SOL    HW3 9863   2.323   5.264   4.367 -2.9709 -0.5038 -1.8295
 2524SOL    MW4 9864   2.374   5.224   4.309  0.6365 -0.2213  0.1172
 2525SOL     OW 9865   4.232   5.507   2.751  0.2446  0.2183  0.3978
 2525SOL    HW2 9866   4.323   5.528   2.733  0.0073 -0.1515 -1.4053
 2525SOL    HW3 9867   4.230   5.411   2.759  0.1727  0.3001  1.5083
 2525SOL    MW4 9868   4.244   5.497   2.750  0.2961  0.1741  0.2901
 2526SOL     OW 9869   3.602   5.221   4.048 -0.0969  0.1203  0.2652
 2526SOL    HW2 9870   3.626   5.197   3.959  1.8493 -0.8157  0.9728
 2526SOL    HW3 9871   3.510   5.248   4.043 -1.3837 -3.8466 -1.3448
 2526SOL    MW4 9872   3.593   5.221   4.036 -0.0422 -0.3517 -0.3368
 2527SOL     OW 9873   2.070   2.330   1.331 -0.2484 -0.1589 -0.0541
 2527SOL    HW2 9874   1.979   2.301   1.321 -0.1904 -0.0970 -0.8229
 2527SOL    HW3 9875   2.065   2.425   1.324 -0.2201 -0.0857  0.7503
 2527SOL    MW4 9876   2.057   2.339   1.329 -0.5517  0.1463 -0.3423
 2528SOL     OW 9877   2.883   4.539   4.439 -0.1857  0.1200 -0.1452
 2528SOL    HW2 9878   2.868   4.551   4.533 -1.7858  0.9866 -0.4757
 2528SOL    HW3 9879   2.966   4.585   4.422  0.0201  0.1242  0.8032
 2528SOL    MW4 9880   2.892   4.547   4.449  0.2421 -0.7785  0.5155
 2529SOL     OW 9881   3.286   4.105   0.648  0.1603  0.4171  0.5738
 2529SOL    HW2 9882   3.358   4.127   0.706  0.0316  3.4502 -0.2378
 2529SOL    HW3 9883   3.314   4.025   0.603  1.2133 -0.7148  3.0916
 2529SOL    MW4 9884   3.299   4.097   0.650  0.5329 -0.3788 -0.3364
 2530SOL     OW 9885   4.469   2.731   6.368  0.2124  0.1222  0.3128
 2530SOL    HW2 9886   4.381   2.737   6.406 -0.3295  0.4564 -0.9486
 2530SOL    HW3 9887   4.515   2.808   6.401 -1.5531  2.7528 -2.8452
 2530SOL    MW4 9888   4.464   2.742   6.377  0.1698  0.0501  0.0244
 2531SOL     OW 9889   1.678   1.878   1.092  0.2427  0.1714  0.5902
 2531SOL    HW2 9890   1.711   1.967   1.092  0.4382  0.1616 -1.7543
 2531SOL    HW3 9891   1.584   1.887   1.078  0.3595  0.0030 -0.3336
 2531SOL    MW4 9892   1.670   1.891   1.090  0.7092  0.2159  0.4610
 2532SOL     OW 9893   5.207   3.841   5.841  0.4492  0.6866  0.1403
 2532SOL    HW2 9894   5.264   3.767   5.822 -1.1995 -0.2102 -1.7722
 2532SOL    HW3 9895   5.124   3.801   5.868 -0.8949  1.7120 -2.1841
 2532SOL    MW4 9896   5.203   3.826   5.842 -0.1558 -0.1410  0.5250
 2533SOL     OW 9897   2.509   4.100   1.322  0.0512  0.2367 -0.4008
 2533SOL    HW2 9898   2.422   4.140   1.329  1.1349  2.5057  1.4003
 2533SOL    HW3 9899   2.545   4.135   1.241 -0.5258 -0.3626 -0.9257
 2533SOL    MW4 9900   2.502   4.110   1.313  0.2926  0.1563 -0.2937
 2534SOL     OW 9901   5.800   0.304   0.359 -0.5879 -0.0134 -0.1010
 2534SOL    HW2 9902   5.774   0.216   0.330  2.4668 -1.3684  0.8639
 2534SOL    HW3 9903   5.872   0.328   0.300 -1.2201  1.7751 -0.1900
 2534SOL    MW4 9904   5.806   0.295   0.347 -0.1298  0.4151 -0.3219
 2535SOL     OW 9905   0.207   5.925   2.309 -0.2565 -0.2733  0.3093
 2535SOL    HW2 9906   0.296   5.890   2.305  1.0022  2.6619  0.5958
 2535SOL    HW3 9907   0.203   5.972   2.392 -1.0060  2.1592 -1.0049
 2535SOL    MW4 9908   0.218   5.926   2.320  0.0084  0.4148  0.3335
 2536SOL     OW 9909   4.433   3.164   2.559  0.1105  0.2684  0.3503
 2536SOL    HW2 9910   4.523   3.173   2.529  0.1774  0.5900  0.6492
 2536SOL    HW3 9911   4.404   3.080   2.523  0.0291  0.8629 -1.0426
 2536SOL    MW4 9912   4.441   3.154   2.550  0.0506  0.3687  0.3957
 2537SOL     OW 9913   2.754   5.750   3.625 -0.4534  0.4527 -0.0424
 2537SOL    HW2 9914   2.674   5.793   3.596 -2.0676 -1.2554  1.6056
 2537SOL    HW3 9915   2.750   5.663   3.585  0.1560  0.0758  0.6930
 2537SOL    MW4 9916   2.743   5.744   3.616  0.5234  0.3963 -0.0103
 2538SOL     OW 9917   3.690   2.617   5.974 -0.7346  0.3979  0.6291
 2538SOL    HW2 9918   3.704   2.712   5.973 -1.2598  0.5224 -1.8476
 2538SOL    HW3 9919   3.601   2.606   6.008 -0.5899  0.7801  1.1353
 2538SOL    MW4 9920   3.680   2.628   5.978 -0.2055  0.3080  0.2857
 2539SOL     OW 9921   3.179   5.798   4.343  0.6105 -0.2699 -0.6577
 2539SOL    HW2 9922   3.136   5.713   4.328 -0.8605  0.4974 -0.9956
 2539SOL    HW3 9923   3.151   5.823   4.431  0.3306  0.2573 -0.8952
 2539SOL    MW4 9924   3.170   5.790   4.353 -0.0472  0.3860  0.1169
 2540SOL     OW 9925   1.364   4.479   4.571  0.3749 -0.3921 -0.2254
 2540SOL    HW2 9926   1.318   4.398   4.595 -0.3210  0.2748  0.7520
 2540SOL    HW3 9927   1.434   4.487   4.635  0.0512  0.1044  0.0699
 2540SOL    MW4 9928   1.367   4.469   4.582  0.0620  0.0676  0.3280
 2541SOL     OW 9929   5.649   5.264   5.848 -0.5320  0.3079 -0.0224
 2541SOL    HW2 9930   5.588   5.192   5.839  1.1282 -1.2347  0.4495
 2541SOL    HW3 9931   5.621   5.328   5.783 -1.9375 -0.8358 -0.5901
 2541SOL    MW4 9932   5.637   5.263   5.838 -0.4725  0.0627  1.0350
 2542SOL     OW 9933   0.750   3.120   0.828 -0.1187  0.8342 -0.0630
 2542SOL    HW2 9934   0.753   3.033   0.869  0.1799  0.7677 -0.2264
 2542SOL    HW3 9935   0.839   3.136   0.799 -0.2132  1.1193 -0.1966
 2542SOL    MW4 9936   0.762   3.111   0.829 -0.3302  0.2947 -0.9116
 2543SOL     OW 9937   0.455   5.365   0.417  0.2077 -0.5135  0.1569
 2543SOL    HW2 9938   0.486   5.314   0.492 -0.7541 -1.0290  0.2107
 2543SOL    HW3 9939   0.477   5.312   0.341  0.4935 -0.3443  0.1208
 2543SOL    MW4 9940   0.462   5.352   0.417  0.7640  0.9778 -0.3085
 2544SOL     OW 9941   5.451   5.143   2.612 -0.0393  0.5087 -0.1555
 2544SOL    HW2 9942   5.492   5.129   2.526 -1.0118  1.4753 -0.8163
 2544SOL    HW3 9943   5.521   5.181   2.666  0.9156 -1.1784 -0.1276
 2544SOL    MW4 9944   5.466   5.146   2.607 -0.0589  0.5968 -0.1181
 2545SOL     OW 9945   4.657   4.560   3.690  0.1506  0.6800 -0.4275
 2545SOL    HW2 9946   4.725   4.607   3.738  0.0710 -1.0045  1.5302
 2545SOL    HW3 9947   4.575   4.596   3.723  0.0989 -0.3298  0.6444
 2545SOL    MW4 9948   4.655   4.571   3.701  0.3609  0.1571  0.5306
 2546SOL     OW 9949   5.107   3.982   1.112 -0.2396  0.0627  0.0579
 2546SOL    HW2 9950   5.126   3.940   1.029  0.1578  1.6233 -0.6768
 2546SOL    HW3 9951   5.185   3.968   1.165  0.5663  1.2239 -0.7703
 2546SOL    MW4 9952   5.119   3.975   1.108  0.8164  0.4181  0.3886
 2547SOL     OW 9953   2.406   4.378   3.080 -0.0758 -0.0761  0.0307
 2547SOL    HW2 9954   2.486   4.378   3.027 -0.1445 -0.0224 -0.0747
 2547SOL    HW3 9955   2.357   4.303   3.049 -0.0111 -0.1807  0.1807
 2547SOL    MW4 9956   2.410   4.368   3.069 -0.1903 -0.0746 -0.3951
 2548SOL     OW 9957   2.174   3.952   4.076 -0.6264  0.7249 -0.0061
 2548SOL    HW2 9958   2.177   4.014   4.003 -0.5322 -0.6586 -1.2291
 2548SOL    HW3 9959   2.265   3.944   4.105 -0.6664  1.2856  0.2904
 2548SOL    MW4 9960   2.187   3.959   4.070  0.0635 -0.2381 -0.2686
 2549SOL     OW 9961   1.118   2.107   4.381 -0.5182 -0.2144  0.1074
 2549SOL    HW2 9962   1.149   2.019   4.363  0.8829  0.3285 -0.2549
 2549SOL    HW3 9963   1.155   2.129   4.466  1.4919  1.0062 -1.0013
 2549SOL    MW4 9964   1.127   2.099   4.390  0.2806 -0.4110  0.2610
 2550SOL     OW 9965   0.597   4.406   1.525 -0.0212 -0.0828 -0.1609
 2550SOL    HW2 9966   0.591   4.337   1.592  0.1160  0.9157  0.9047
 2550SOL    HW3 9967   0.677   4.384   1.477  0.3836 -0.3088  0.5917
 2550SOL    MW4 9968   0.607   4.394   1.528  0.0816 -0.9035 -0.0034
 2551SOL     OW 9969   1.599   2.295   5.599 -0.1545  0.1326 -0.3840
 2551SOL    HW2 9970   1.655   2.271   5.672 -0.5254 -1.2232 -0.5249
 2551SOL    HW3 9971   1.551   2.372   5.630  1.8083  1.3903 -0.2957
 2551SOL    MW4 9972   1.600   2.302   5.612 -0.2263  0.5519 -0.1881
 2552SOL     OW 9973   5.732   5.817   3.525  0.2211 -0.3563 -0.7611
 2552SOL    HW2 9974   5.771   5.752   3.467  1.6048  0.6661 -1.0284
 2552SOL    HW3 9975   5.741   5.900   3.478  1.1818  0.4644  0.7921
 2552SOL    MW4 9976   5.738   5.819   3.511  0.0172 -0.2641 -0.5965
 2553SOL     OW 9977   5.889   5.216   3.721  0.0559 -0.2429  0.3099
 2553SOL    HW2 9978   5.807   5.265   3.731  0.1005 -0.3633  1.3532
 2553SOL    HW3 9979   5.861   5.126   3.705 -0.0171 -0.0872 -0.4694
 2553SOL    MW4 9980   5.874   5.210   3.720 -0.1608 -0.2265  0.7829
 2554SOL     OW 9981   0.855   4.522   6.146  0.1794  0.4652 -0.4818
 2554SOL    HW2 9982   0.783   4.460   6.133 -0.5946  1.6744 -2.3257
 2554SOL    HW3 9983   0.844   4.553   6.236 -0.1622 -1.0980  0.0551
 2554SOL    MW4 9984   0.844   4.518   6.156  0.1196  0.2483 -0.1063
 2555SOL     OW 9985   1.268   5.295   2.143  0.0397  0.3124  0.0962
 2555SOL    HW2 9986   1.351   5.284   2.190  0.4993 -0.7353 -0.9166
 2555SOL    HW3 9987   1.294   5.315   2.053 -0.8075  0.0305 -0.2159
 2555SOL    MW4 9988   1.283   5.296   2.137 -0.0314 -0.8259  0.2429
 2556SOL     OW 9989   3.792   1.329   0.053 -0.1058 -0.2968 -0.3133
 2556SOL    HW2 9990   3.839   1.397   0.005  1.5001 -0.7322  0.5713
 2556SOL    HW3 9991   3.839   1.321   0.136 -0.9825 -1.6525  0.0877
 2556SOL    MW4 9992   3.804   1.337   0.057 -0.4048  0.0776 -0.0745
 2557SOL     OW 9993   3.232   2.183   4.639 -0.2397 -0.0569  0.1455
 2557SOL    HW2 9994   3.144   2.209   4.668 -0.9685  1.1523 -2.7801
 2557SOL    HW3 9995   3.285   2.186   4.719 -2.5666  0.3664  1.8016
 2557SOL    MW4 9996   3.227   2.187   4.654 -0.2987 -0.6021  0.1987
 2558SOL     OW 9997   5.533   2.128   5.779  0.0333  0.2560  0.0482
 2558SOL    HW2 9998   5.528   2.110   5.873 -0.1683  1.3649  0.2538
 2558SOL    HW3 9999   5.486   2.210   5.767  2.9412  1.9603 -0.5296
 2558SOL    MW410000   5.526   2.136   5.789 -0.8908  0.6073  0.0502
 2559SOL     OW10001   2.123   4.674   4.565 -0.4200  0.2188  0.3774
 2559SOL    HW210002   2.155   4.697   4.477 -2.7305  1.4516 -0.2291
 2559SOL    HW310003   2.059   4.604   4.550 -1.6233  1.1661  0.8972
 2559SOL    MW410004   2.119   4.668   4.551  0.3202  0.7143  0.5359
 2560SOL     OW10005   0.404   5.202   0.880 -0.6062  0.2845  0.3551
 2560SOL    HW210006   0.326   5.248   0.847 -0.6352  0.2285  0.3442
 2560SOL    HW310007   0.378   5.110   0.881 -0.4303  0.2282  0.0349
 2560SOL    MW410008   0.390   5.196   0.875 -0.2247 -0.1784 -0.1710
 2561SOL     OW10009   4.884   1.276   5.064 -0.3984  0.3127  0.3139
 2561SOL    HW210010   4.907   1.350   5.121  0.7599 -0.8755  1.4571
 2561SOL    HW310011   4.791   1.260   5.083  0.0865 -0.4050  2.3590
 2561SOL    MW410012   4.875   1.284   5.074  0.3400  0.0477 -0.3706
 2562SOL     OW10013   1.006   5.009   3.229  0.1904 -0.0141  0.4310
 2562SOL    HW210014   0.984   5.011   3.136 -0.0558 -1.7636  0.4117
 2562SOL    HW310015   1.101   4.994   3.231  0.0515 -1.0270  0.4131
 2562SOL    MW410016   1.016   5.007   3.217  0.2016  0.2723 -0.6650
 2563SOL     OW10017   3.821   0.417   5.103 -0.6689  0.2820  0.1778
 2563SOL    HW210018   3.777   0.372   5.031  0.1876  0.9995 -0.8315
 2563SOL    HW310019   3.755   0.423   5.172 -0.5644 -3.3169  0.7689
 2563SOL    MW410020   3.806   0.412   5.103 -0.3137 -0.0750  0.5028
 2564SOL     OW10021   5.724   2.325   5.411 -0.5007 -0.0936 -0.5865
 2564SOL    HW210022   5.765   2.322   5.497 -0.9726 -0.0452 -0.3556
 2564SOL    HW310023   5.754   2.245   5.367 -0.7327 -0.4190 -0.1544
 2564SOL    MW410024   5.734   2.314   5.416 -0.6068  0.2733 -0.3234
 2565SOL     OW10025   5.630   1.351   6.212 -0.0950  0.4822 -0.5423
 2565SOL    HW210026   5.699   1.336   6.277  1.1350  0.6727 -1.7587
 2565SOL    HW310027   5.595   1.438   6.234 -0.4061  0.1095  0.4747
 2565SOL    MW410028   5.634   1.361   6.224  0.2263 -0.0008 -0.5470
 2566SOL     OW10029   4.845   5.249   2.149 -0.0141  0.7412  0.0366
 2566SOL    HW210030   4.862   5.193   2.074  0.4721 -0.1195  0.7667
 2566SOL    HW310031   4.837   5.189   2.223  0.8050  1.6396  0.8914
 2566SOL    MW410032   4.846   5.234   2.149 -0.0207 -0.1401  0.4766
 2567SOL     OW10033   4.994   2.540   5.265  0.2741 -0.6432 -0.6627
 2567SOL    HW210034   5.028   2.459   5.302  0.3344 -0.5580 -0.5298
 2567SOL    HW310035   5.067   2.575   5.214 -0.0326 -1.1124 -1.4357
 2567SOL    MW410036   5.008   2.534   5.263 -0.0460 -0.1495  0.3903
 2568SOL     OW10037   2.209   1.236   5.427 -0.5016  0.1727 -0.0679
 2568SOL    HW210038   2.150   1.304   5.393 -1.1882  0.7135  2.0252
 2568SOL    HW310039   2.179   1.155   5.386  0.2421  1.0499 -2.5115
 2568SOL    MW410040   2.197   1.234   5.417  0.7366  0.0863  0.6769
 2569SOL     OW10041   2.476   1.546   2.902  0.5607 -0.5425  0.2603
 2569SOL    HW210042   2.446   1.628   2.863  0.5548 -0.7957 -0.2778
 2569SOL    HW310043   2.476   1.563   2.996  0.9199  0.2016  0.1411
 2569SOL    MW410044   2.472   1.559   2.909 -0.3270  0.0728  0.3672
 2570SOL     OW10045   0.957   5.973   4.883  0.1501 -0.5601 -0.2382
 2570SOL    HW210046   0.944   5.954   4.790 -1.4644 -0.4828 -0.0430
 2570SOL    HW310047   0.900   6.047   4.902  0.7064 -0.3606  0.7576
 2570SOL    MW410048   0.948   5.980   4.874 -0.0505  0.5916  0.4906
 2571SOL     OW10049   2.459   3.459   0.095 -0.4389  0.5269 -0.4185
 2571SOL    HW210050   2.378   3.508   0.082 -1.3970 -0.9691 -0.3592
 2571SOL    HW310051   2.520   3.523   0.130 -2.3898  1.1441  2.1396
 2571SOL    MW410052   2.456   3.474   0.098  0.4932  0.0690 -0.2080
 2572SOL     OW10053   3.052   0.466   1.729 -0.0576  0.1356 -0.2445
 2572SOL    HW210054   3.146   0.450   1.720  0.2053  1.7809 -0.7726
 2572SOL    HW310055   3.046   0.554   1.765 -1.4043 -0.6167  1.5618
 2572SOL    MW410056   3.063   0.475   1.733  0.0020 -0.7125 -0.5777
 2573SOL     OW10057   2.940   1.256   5.884 -0.3538  0.2469  0.3251
 2573SOL    HW210058   2.877   1.327   5.899 -1.2391 -0.2329 -0.8988
 2573SOL    HW310059   2.982   1.280   5.801  0.9237  0.4345  1.0141
 2573SOL    MW410060   2.937   1.269   5.875  0.2297 -0.4523 -0.1358
 2574SOL     OW10061   0.764   2.257   4.688 -0.1365  0.5695  0.1679
 2574SOL    HW210062   0.770   2.288   4.778  0.4347  0.2613  0.2465
 2574SOL    HW310063   0.777   2.162   4.695  0.6624  0.6334 -0.3005
 2574SOL    MW410064   0.767   2.249   4.701 -0.0140  0.3350 -0.1482
 2575SOL     OW10065   3.432   1.366   1.846  0.5281 -0.2310 -0.5201
 2575SOL    HW210066   3.432   1.454   1.884  2.3478 -0.5157  0.2438
 2575SOL    HW310067   3.371   1.316   1.900 -0.2709  0.4630 -0.7625
 2575SOL    MW410068   3.424   1.371   1.858 -0.1895 -0.2900  0.1459
 2576SOL     OW10069   2.720   0.093   2.603  0.1027 -0.0816  0.7712
 2576SOL    HW210070   2.693   0.003   2.588 -1.2750  0.4584 -0.1855
 2576SOL    HW310071   2.675   0.119   2.683 -0.7110  0.2086  0.2317
 2576SOL    MW410072   2.710   0.085   2.611 -0.2986  0.0320 -0.3127
 2577SOL     OW10073   4.289   4.079   4.060 -0.3376  0.3755  0.0341
 2577SOL    HW210074   4.371   4.031   4.052 -1.1964 -1.4703  1.4805
 2577SOL    HW310075   4.234   4.046   3.989 -0.3177  0.5463 -0.0612
 2577SOL    MW410076   4.292   4.069   4.050 -0.4878 -0.6095 -0.0076
 2578SOL     OW10077   0.069   4.997   4.014 -0.4701 -0.2337 -0.2048
 2578SOL    HW210078   0.001   5.049   3.971  0.8427  1.5040 -0.2926
 2578SOL    HW310079   0.029   4.969   4.097 -0.9046  1.8949  0.3659
 2578SOL    MW410080   0.055   5.000   4.020 -0.5390 -0.0413  0.2774
 2579SOL     OW10081   2.929   0.390   4.413  0.3264  0.3813 -0.3451
 2579SOL    HW210082   3.024   0.377   4.419  0.0989 -1.4302 -0.2268
 2579SOL    HW310083   2.891   0.313   4.456 -1.2060  1.4005  0.1946
 2579SOL    MW410084   2.937   0.378   4.419  0.1981  0.2834  0.3963
 2580SOL     OW10085   1.316   2.848   1.813  0.2489 -0.0938  0.6192
 2580SOL    HW210086   1.325   2.802   1.729 -1.4932  0.9487 -0.1963
 2580SOL    HW310087   1.396   2.899   1.821 -0.0885  0.7821 -1.0923
 2580SOL    MW410088   1.328   2.849   1.803  0.3452 -0.3995  0.1476
 2581SOL     OW10089   4.337   3.529   5.022 -0.5864 -0.1684 -1.0313
 2581SOL    HW210090   4.413   3.568   4.977  1.3890 -0.0998  2.0694
 2581SOL    HW310091   4.364   3.438   5.038  0.1159  0.5078  2.3697
 2581SOL    MW410092   4.351   3.522   5.018 -0.5538  0.0698  0.0253
 2582SOL     OW10093   5.094   3.863   0.841  0.8517  0.4284  0.0065
 2582SOL    HW210094   5.168   3.812   0.808  1.6009  1.1759  0.4939
 2582SOL    HW310095   5.075   3.925   0.771 -1.3647 -1.7198 -1.4683
 2582SOL    MW410096   5.101   3.865   0.828  0.1424  0.2812 -0.2752
 2583SOL     OW10097   4.678   3.036   0.397 -0.4210 -0.0245  0.0605
 2583SOL    HW210098   4.719   3.118   0.424 -2.1115  0.1669  2.2649
 2583SOL    HW310099   4.739   2.968   0.426 -0.3421  0.3599  0.8222
 2583SOL    MW410100   4.691   3.038   0.404 -0.4149  0.8876  0.6559
 2584SOL     OW10101   0.931   2.584   6.085 -0.3589 -0.0200  0.1750
 2584SOL    HW210102   0.984   2.608   6.161  1.2902  1.5215 -1.3327
 2584SOL    HW310103   0.909   2.667   6.044 -1.3977 -0.7901 -0.8979
 2584SOL    MW410104   0.935   2.598   6.089 -0.1877  0.2571 -0.5309
 2585SOL     OW10105   3.618   1.332   3.883  0.3559 -0.0782  0.6893
 2585SOL    HW210106   3.531   1.292   3.874  0.1519  0.6402 -0.9673
 2585SOL    HW310107   3.679   1.259   3.869  0.0467 -0.5885  1.8665
 2585SOL    MW410108   3.615   1.317   3.880 -0.2747 -0.4712  0.2960
 2586SOL     OW10109   3.940   5.323   2.024 -0.0066 -0.1532  0.4385
 2586SOL    HW210110   3.962   5.324   2.117 -1.3459  0.6973  0.7795
 2586SOL    HW310111   4.007   5.376   1.982  0.9561 -1.0436  0.8207
 2586SOL    MW410112   3.952   5.330   2.031 -0.1571 -0.2927  0.4336
 2587SOL     OW10113   1.152   0.078   0.171 -0.1488  0.5697  0.1680
 2587SOL    HW210114   1.184   0.124   0.093 -0.7209  0.1236 -0.3382
 2587SOL    HW310115   1.081   0.022   0.138  1.2943 -1.5856  0.5325
 2587SOL    MW410116   1.147   0.076   0.156 -0.2224 -0.5559  0.4090
 2588SOL     OW10117   4.059   5.096   1.499 -0.4494 -0.5889  0.0031
 2588SOL    HW210118   4.142   5.136   1.471 -0.2010 -1.5897 -0.7432
 2588SOL    HW310119   4.020   5.161   1.558  0.8002 -0.0504  0.2652
 2588SOL    MW410120   4.065   5.110   1.503  0.6922  0.7977  0.1050
 2589SOL     OW10121   6.185   4.458   1.229  0.4046 -0.3411 -0.2020
 2589SOL    HW210122   6.106   4.475   1.281 -0.6424  1.4707 -2.2690
 2589SOL    HW310123   6.238   4.537   1.240  1.3287 -0.9801  0.0544
 2589SOL    MW410124   6.181   4.471   1.238  0.0473  0.1135 -0.1798
 2590SOL     OW10125   2.262   3.189   6.360  0.3288  0.0491  0.1148
 2590SOL    HW210126   2.255   3.220   6.269  2.0898  2.2748  0.6536
 2590SOL    HW310127   2.197   3.241   6.408 -0.5283 -1.0545  0.2018
 2590SOL    MW410128   2.252   3.200   6.354  0.4723  0.0814  0.2455
 2591SOL     OW10129   5.277   4.684   2.290 -0.8625 -0.1539  0.3020
 2591SOL    HW210130   5.313   4.739   2.360  0.2900  0.5154 -0.7640
 2591SOL    HW310131   5.262   4.599   2.331 -2.2221  0.7863  1.8730
 2591SOL    MW410132   5.280   4.680   2.305  0.0959  0.1029  0.1432
 2592SOL     OW10133   5.250   6.127   3.081  0.2627  0.9589 -0.3563
 2592SOL    HW210134   5.236   6.064   3.010 -0.4553  2.0948 -1.2601
 2592SOL    HW310135   5.307   6.194   3.042 -1.1054  2.2185 -0.2693
 2592SOL    MW410136   5.256   6.127   3.066  0.5072  0.4161 -0.9188
 2593SOL     OW10137   1.322   3.321   6.236 -0.2134 -0.9905  0.1100
 2593SOL    HW210138   1.249   3.375   6.267  0.3443  0.7066 -1.3805
 2593SOL    HW310139   1.315   3.324   6.141  0.9601 -1.9942 -0.0214
 2593SOL    MW410140   1.311   3.329   6.227 -0.6328 -0.4623  0.0091
 2594SOL     OW10141   4.288   0.089   5.921  0.3191 -0.2607 -0.0356
 2594SOL    HW210142   4.214   0.049   5.966 -0.8390  1.8835  0.0839
 2594SOL    HW310143   4.334   0.138   5.990  0.7082 -0.0042 -0.4748
 2594SOL    MW410144   4.284   0.090   5.936 -0.2748 -0.2188  0.0046
 2595SOL     OW10145   1.276   2.953   2.667  0.3464  0.3976  0.1727
 2595SOL    HW210146   1.323   2.995   2.739 -1.6108  1.7953  0.7095
 2595SOL    HW310147   1.280   2.859   2.688 -0.6571  0.8053  2.4628
 2595SOL    MW410148   1.282   2.946   2.679  0.1349 -0.1286  0.1293
 2596SOL     OW10149   5.166   3.224   6.061  0.2869 -0.5707  0.6571
 2596SOL    HW210150   5.197   3.314   6.070  0.7517 -0.7533  0.9455
 2596SOL    HW310151   5.081   3.232   6.018  0.5395 -0.0272  0.2428
 2596SOL    MW410152   5.159   3.237   6.057  0.3684 -0.2684  0.2203
 2597SOL     OW10153   3.519   1.822   4.791  0.1236 -0.6657  0.3301
 2597SOL    HW210154   3.562   1.744   4.756  1.2972  0.4204 -0.7567
 2597SOL    HW310155   3.588   1.872   4.834 -0.7154 -0.4584  1.4927
 2597SOL    MW410156   3.534   1.818   4.792  0.1225 -0.3793  0.2714
 2598SOL     OW10157   4.488   4.698   2.776  0.0466  0.3694  0.1244
 2598SOL    HW210158   4.535   4.660   2.850  1.5115  0.1443 -0.8774
 2598SOL    HW310159   4.449   4.624   2.730  0.1362  0.3930  0.0096
 2598SOL    MW410160   4.489   4.684   2.780 -0.0004 -0.0728  0.0843
 2599SOL     OW10161   6.183   0.777   0.113  0.5737 -0.0501 -0.6216
 2599SOL    HW210162   6.102   0.734   0.086  0.4481 -0.0800 -0.2068
 2599SOL    HW310163   6.246   0.705   0.122 -0.0139 -0.3673  1.4858
 2599SOL    MW410164   6.181   0.762   0.111  0.4206 -0.2458 -0.6987
 2600SOL     OW10165   3.640   2.866   3.788 -0.3058 -0.2063  0.3002
 2600SOL    HW210166   3.666   2.774   3.795  1.9530  0.4020  0.7317
 2600SOL    HW310167   3.635   2.882   3.694  1.5327 -0.2364  0.1659
 2600SOL    MW410168   3.643   2.856   3.777 -0.0339  0.3802  0.2004
 2601SOL     OW10169   6.288   2.657   4.060  0.2491  0.2681 -0.1706
 2601SOL    HW210170   6.213   2.647   4.118 -0.9323 -0.4948 -1.7634
 2601SOL    HW310171   6.303   2.752   4.056 -1.6960  0.5867 -1.0643
 2601SOL    MW410172   6.280   2.669   4.067 -0.3258  0.4392 -0.0498
 2602SOL     OW10173   2.090   1.381   1.418 -0.7619 -0.0184  0.0536
 2602SOL    HW210174   2.166   1.418   1.465  0.4731 -2.0523 -0.2394
 2602SOL    HW310175   2.014   1.419   1.462  0.3814 -0.3245  2.4500
 2602SOL    MW410176   2.090   1.391   1.430  1.0049 -0.1010 -0.0293
 2603SOL     OW10177   0.898   6.295   4.655 -0.0665  0.6473  0.2277
 2603SOL    HW210178   0.951   6.375   4.649 -0.4574  0.8074 -2.1270
 2603SOL    HW310179   0.814   6.320   4.616  0.2870 -1.2635 -1.9418
 2603SOL    MW410180   0.894   6.309   4.649  0.3142  0.2990 -0.7512
 2604SOL     OW10181   5.907   3.128   4.639 -0.3533 -0.2226  0.3900
 2604SOL    HW210182   5.959   3.155   4.563  0.8383 -0.0078  1.2561
 2604SOL    HW310183   5.948   3.174   4.713 -1.7184 -0.1439  1.1142
 2604SOL    MW410184   5.920   3.138   4.639  0.1011 -0.2112 -0.4311
 2605SOL     OW10185   2.706   3.709   1.597  0.1905 -0.3447  0.0131
 2605SOL    HW210186   2.734   3.742   1.682 -3.8043 -2.0507  2.2777
 2605SOL    HW310187   2.649   3.777   1.562 -0.2038 -0.7129 -0.0706
 2605SOL    MW410188   2.702   3.722   1.603  0.7535 -0.2699  0.2413
 2606SOL     OW10189   1.058   1.356   1.510  0.3415  0.2158  0.7714
 2606SOL    HW210190   1.060   1.391   1.420  1.4401  2.3961  1.5623
 2606SOL    HW310191   1.120   1.284   1.509  1.3822  1.0809  0.0648
 2606SOL    MW410192   1.066   1.351   1.498 -0.0301  0.3260  0.0773
 2607SOL     OW10193   2.770   4.255   3.990 -0.7727 -0.3533  0.2491
 2607SOL    HW210194   2.742   4.261   3.899 -0.9581 -1.1460  0.2461
 2607SOL    HW310195   2.814   4.338   4.008  0.0013 -0.5130 -0.8154
 2607SOL    MW410196   2.772   4.266   3.981 -0.3137 -0.0029  0.1139
 2608SOL     OW10197   1.123   2.924   0.426 -0.3220 -0.0012 -0.2696
 2608SOL    HW210198   1.217   2.937   0.443 -0.2068  1.5453 -1.7465
 2608SOL    HW310199   1.119   2.843   0.375 -0.0850 -1.3961  1.8265
 2608SOL    MW410200   1.135   2.915   0.421  0.4054 -0.2178  0.1368
 2609SOL     OW10201   6.152   3.389   2.885  0.1231 -0.1825  0.0522
 2609SOL    HW210202   6.104   3.413   2.806 -0.1768  0.5554  0.4462
 2609SOL    HW310203   6.243   3.410   2.865 -0.1231  1.3682  0.3810
 2609SOL    MW410204   6.158   3.395   2.872  0.0191 -0.3219  0.5262
 2610SOL     OW10205   6.233   4.729   5.735  0.2854 -0.4088 -0.0858
 2610SOL    HW210206   6.177   4.795   5.775  0.2858 -1.0100  0.9331
 2610SOL    HW310207   6.320   4.747   5.770  0.7488  0.4424 -1.5620
 2610SOL    MW410208   6.237   4.740   5.745 -0.2164  0.6381 -0.2775
 2611SOL     OW10209   1.687   5.829   4.226 -0.2380 -0.0537  0.3730
 2611SOL    HW210210   1.628   5.758   4.252 -0.7559  0.9408  2.0677
 2611SOL    HW310211   1.630   5.905   4.216  0.6366  0.7981  1.4904
 2611SOL    MW410212   1.672   5.830   4.228 -0.5436 -0.0622  0.0039
 2612SOL     OW10213   3.269   5.103   1.181 -0.2541 -0.0232  0.6386
 2612SOL    HW210214   3.324   5.034   1.218  1.3459 -1.1632 -3.3396
 2612SOL    HW310215   3.205   5.057   1.127 -0.3588  1.5022 -0.6319
 2612SOL    MW410216   3.268   5.088   1.179  0.0490  0.5131  0.0317
 2613SOL     OW10217   5.235   1.330   1.405  0.1698 -0.0902 -0.0292
 2613SOL    HW210218   5.196   1.261   1.352 -0.8390  1.2971 -1.1581
 2613SOL    HW310219   5.183   1.331   1.485 -0.6389  0.1869 -0.5454
 2613SOL    MW410220   5.223   1.321   1.409 -0.3179  0.3459 -0.1821
 2614SOL     OW10221   3.268   6.006   1.589  0.4222 -0.0437 -0.1668
 2614SOL    HW210222   3.225   6.091   1.577  0.8717 -0.0135 -1.9091
 2614SOL    HW310223   3.356   6.027   1.620 -0.0553  0.0045  1.2262
 2614SOL    MW410224   3.274   6.020   1.591  0.1323  0.3197  0.6129
 2615SOL     OW10225   4.630   4.108   2.916  0.3846 -0.1232 -0.2954
 2615SOL    HW210226   4.543   4.148   2.906  1.6410  3.2670  0.8093
 2615SOL    HW310227   4.665   4.104   2.827 -0.7672 -1.3476 -0.7287
 2615SOL    MW410228   4.623   4.113   2.903  0.0094  0.3088 -0.0055
 2616SOL     OW10229   3.615   6.280   6.107 -0.6008  0.0707 -0.2239
 2616SOL    HW210230   3.552   6.211   6.127 -0.7715  0.5549  0.9678
 2616SOL    HW310231   3.561   6.358   6.090 -0.3668  0.1712 -0.5237
 2616SOL    MW410232   3.599   6.281   6.107  0.4405  0.6705 -0.5969
 2617SOL     OW10233   2.312   3.288   3.381  0.2357 -0.0700  0.0563
 2617SOL    HW210234   2.249   3.323   3.317  2.0498  0.9516 -1.2517
 2617SOL    HW310235   2.320   3.196   3.358 -0.0326  0.0156 -0.4034
 2617SOL    MW410236   2.305   3.281   3.369 -0.5444  0.1534 -0.3767
 2618SOL     OW10237   1.457   5.964   2.007  0.0189  0.0995  0.3680
 2618SOL    HW210238   1.384   5.934   1.954 -0.0190  1.2728 -0.2673
 2618SOL    HW310239   1.492   6.040   1.960  0.2909  0.8690  1.7553
 2618SOL    MW410240   1.452   5.970   1.994  0.8077 -0.6094  0.3191
 2619SOL     OW10241   5.759   1.536   0.036 -0.2197  0.2503  0.6856
 2619SOL    HW210242   5.842   1.582   0.049  1.0830 -1.4402 -1.1973
 2619SOL    HW310243   5.762   1.462   0.097  0.0552 -0.3069 -0.0000
 2619SOL    MW410244   5.770   1.533   0.046 -0.3078  0.8951  1.3397
 2620SOL     OW10245   2.190   2.292   5.293 -0.1787 -0.1025 -0.7008
 2620SOL    HW210246   2.215   2.200   5.292  0.0317 -0.0431 -1.0073
 2620SOL    HW310247   2.101   2.293   5.258 -1.0987 -0.4418  1.4583
 2620SOL    MW410248   2.181   2.280   5.288 -0.8797  0.0566  0.3795
 2621SOL     OW10249   1.948   3.349   1.108  0.0884  0.0095 -0.0357
 2621SOL    HW210250   2.020   3.388   1.157 -0.5574  1.6506 -0.3124
 2621SOL    HW310251   1.870   3.371   1.159 -0.4109  0.1567 -0.8491
 2621SOL    MW410252   1.947   3.357   1.121  0.5501 -0.3484  0.6621
 2622SOL     OW10253   2.353   3.833   4.790  0.4119 -0.0819  0.3074
 2622SOL    HW210254   2.416   3.765   4.814  0.4785 -0.5021 -0.9746
 2622SOL    HW310255   2.282   3.823   4.853 -0.3342 -2.4369 -0.8181
 2622SOL    MW410256   2.352   3.823   4.801 -0.2172 -0.2465 -0.4179
 2623SOL     OW10257   2.300   3.502   2.171 -0.0819 -0.4217  0.1888
 2623SOL    HW210258   2.223   3.450   2.149 -0.2247 -0.3900  0.6078
 2623SOL    HW310259   2.336   3.529   2.086  1.3714 -3.1531 -0.1625
 2623SOL    MW410260   2.295   3.499   2.157  0.5566  0.4247  0.6398
 2624SOL     OW10261   3.580   3.442   2.072 -0.2054  0.2740 -0.7096
 2624SOL    HW210262   3.489   3.412   2.077 -0.0270 -0.0786  1.0458
 2624SOL    HW310263   3.631   3.362   2.058  0.1222 -0.1497  2.2618
 2624SOL    MW410264   3.575   3.427   2.071  0.2039  0.1365 -0.4485
 2625SOL     OW10265   3.150   1.271   6.373 -0.2480  0.1566 -0.3309
 2625SOL    HW210266   3.069   1.240   6.333 -0.5220  1.8947 -1.2312
 2625SOL    HW310267   3.213   1.276   6.301 -0.3065  1.8620 -0.3153
 2625SOL    MW410268   3.148   1.268   6.358  0.0527  0.2381  0.1185
 2626SOL     OW10269   4.117   2.142   0.619  0.2318 -0.2405 -0.7561
 2626SOL    HW210270   4.155   2.177   0.539 -0.1043  1.3278 -0.2570
 2626SOL    HW310271   4.191   2.103   0.666  0.7101  0.2840 -1.0732
 2626SOL    MW410272   4.131   2.141   0.615  0.2604  0.0654  0.0889
 2627SOL     OW10273   4.699   4.486   1.242 -0.0219 -0.6706  0.2810
 2627SOL    HW210274   4.681   4.538   1.164  1.8460 -0.1968  0.1370
 2627SOL    HW310275   4.644   4.525   1.310 -1.1214 -0.6388 -0.5975
 2627SOL    MW410276   4.689   4.498   1.241 -0.2035  0.0642  0.0724
 2628SOL     OW10277   2.552   2.333   0.305 -0.4072  0.6812  0.6590
 2628SOL    HW210278   2.582   2.420   0.332 -1.1255  1.4081 -0.7866
 2628SOL    HW310279   2.576   2.327   0.212 -0.0926 -0.8054  0.8120
 2628SOL    MW410280   2.559   2.344   0.296 -0.1696 -0.0784 -0.7648
 2629SOL     OW10281   1.717   2.101   4.637 -0.3452 -0.8223  0.0334
 2629SOL    HW210282   1.717   2.086   4.542 -0.1401  1.9729 -0.4788
 2629SOL    HW310283   1.631   2.137   4.656  1.5226  4.7905 -0.3922
 2629SOL    MW410284   1.706   2.104   4.627  0.1269 -0.1940 -0.6590
 2630SOL     OW10285   5.855   2.431   2.352 -0.1285  0.2703 -0.0488
 2630SOL    HW210286   5.812   2.352   2.385 -1.8405  0.1683 -2.2393
 2630SOL    HW310287   5.906   2.464   2.426  1.4355 -3.3512  0.6770
 2630SOL    MW410288   5.856   2.425   2.366 -0.2385 -0.5740  0.3527
 2631SOL     OW10289   0.482   2.449   4.410  0.2993  0.2127 -0.0942
 2631SOL    HW210290   0.532   2.517   4.365  1.6717 -0.5952  0.1536
 2631SOL    HW310291   0.505   2.460   4.503  2.7240 -2.1991 -0.2744
 2631SOL    MW410292   0.492   2.459   4.416  0.1710  0.0451 -0.3290
 2632SOL     OW10293   4.429   5.776   3.820  0.0885 -0.0318 -0.0375
 2632SOL    HW210294   4.351   5.805   3.772  1.3401  1.6941 -1.1515
 2632SOL    HW310295   4.489   5.748   3.751  1.0436  0.1965  0.6998
 2632SOL    MW410296   4.426   5.776   3.804  0.2701  0.0433  0.2114
 2633SOL     OW10297   5.695   2.054   0.348 -0.1361 -0.2879 -0.2376
 2633SOL    HW210298   5.772   2.112   0.350  0.4987 -1.0814 -0.8478
 2633SOL    HW310299   5.622   2.112   0.326  0.4294  0.3423 -0.4854
 2633SOL    MW410300   5.696   2.070   0.345  1.0331 -0.0944 -0.2126
 2634SOL     OW10301   2.295   0.465   3.074 -0.0785 -0.1014 -0.0188
 2634SOL    HW210302   2.229   0.533   3.067 -0.8809 -0.9660 -1.4342
 2634SOL    HW310303   2.251   0.394   3.121  0.2207 -0.2339  0.0629
 2634SOL    MW410304   2.281   0.464   3.079  0.1548 -0.0656 -0.1902
 2635SOL     OW10305   2.478   2.110   0.044  0.7464 -0.1857  0.1487
 2635SOL    HW210306   2.488   2.016   0.026 -0.9398 -0.0618 -1.6940
 2635SOL    HW310307   2.417   2.114   0.118  2.1700 -0.5334  1.3943
 2635SOL    MW410308   2.471   2.098   0.051  0.2878  0.0684 -0.3248
 2636SOL     OW10309   2.646   2.442   4.821  0.2471 -0.6232 -0.1075
 2636SOL    HW210310   2.638   2.519   4.764  0.7179 -0.2860  0.2706
 2636SOL    HW310311   2.725   2.459   4.872  0.8895 -1.8025 -0.6808
 2636SOL    MW410312   2.655   2.455   4.820  0.1682 -0.8090 -0.1760
 2637SOL     OW10313   1.496   2.274   3.419 -0.2780  0.0404 -0.1285
 2637SOL    HW210314   1.521   2.187   3.450  0.1127  0.1327 -0.1818
 2637SOL    HW310315   1.427   2.302   3.479  1.2069  0.6692  1.3832
 2637SOL    MW410316   1.490   2.267   3.431  0.6559 -0.2350  0.5797
 2638SOL     OW10317   3.145   3.532   5.543 -0.1849 -0.2483 -0.3549
 2638SOL    HW210318   3.225   3.584   5.553  0.4791 -1.1708 -0.7198
 2638SOL    HW310319   3.078   3.595   5.518 -1.1453  1.7081  5.6289
 2638SOL    MW410320   3.147   3.547   5.541  0.0407  0.1193  0.5006
 2639SOL     OW10321   2.415   2.716   2.190  0.1377 -0.0943  0.2273
 2639SOL    HW210322   2.414   2.726   2.095 -1.0498  0.1934  0.2614
 2639SOL    HW310323   2.376   2.631   2.207  0.5764 -0.2566  0.4568
 2639SOL    MW410324   2.410   2.706   2.180  0.5463 -0.0678 -0.5653
 2640SOL     OW10325   1.187   2.603   0.562 -0.3677  0.2223  0.0418
 2640SOL    HW210326   1.114   2.569   0.612  0.9863  0.5733  2.3888
 2640SOL    HW310327   1.258   2.540   0.575 -0.2572 -0.3095 -2.4772
 2640SOL    MW410328   1.187   2.590   0.570  0.3860 -0.6089  0.1153
 2641SOL     OW10329   1.045   3.511   2.546 -0.0731  0.6787  0.4759
 2641SOL    HW210330   1.048   3.605   2.561 -0.5133  0.9853 -1.2526
 2641SOL    HW310331   1.108   3.495   2.476 -0.4082 -0.2357  0.3587
 2641SOL    MW410332   1.054   3.521   2.539  0.6046  0.0271  0.0297
 2642SOL     OW10333   4.238   5.874   2.381 -0.2608  0.1241  0.9021
 2642SOL    HW210334   4.165   5.817   2.357 -0.2889  0.5632 -0.1192
 2642SOL    HW310335   4.197   5.954   2.414 -0.3072  0.7440 -0.5344
 2642SOL    MW410336   4.223   5.877   2.382  0.0195  0.2779  0.0558
 2643SOL     OW10337   4.133   1.852   5.515  0.3217  0.3566 -0.3095
 2643SOL    HW210338   4.192   1.835   5.443 -0.4620 -1.4715 -0.5652
 2643SOL    HW310339   4.184   1.833   5.594  0.1540 -1.0673 -0.5221
 2643SOL    MW410340   4.147   1.848   5.516 -0.2000 -0.2369 -0.1283
 2644SOL     OW10341   0.871   6.045   4.352  0.2809  0.5780 -0.0301
 2644SOL    HW210342   0.921   5.985   4.296 -0.6117 -1.1218  0.9179
 2644SOL    HW310343   0.924   6.125   4.354  1.1789  0.1004 -1.8994
 2644SOL    MW410344   0.885   6.048   4.345 -0.4193 -0.1724  0.4087
 2645SOL     OW10345   3.505   5.597   2.771 -0.1568  0.7228 -0.0883
 2645SOL    HW210346   3.559   5.564   2.844 -0.2614  0.0818 -0.2986
 2645SOL    HW310347   3.544   5.682   2.749  0.8250  0.2305 -0.2929
 2645SOL    MW410348   3.517   5.604   2.778 -0.4341  0.6100  0.0062
 2646SOL     OW10349   4.619   4.026   5.637  1.1146  0.6187  0.5873
 2646SOL    HW210350   4.635   4.120   5.627  2.9284  0.3735  0.7912
 2646SOL    HW310351   4.577   4.000   5.555  0.7465  1.5783  0.4624
 2646SOL    MW410352   4.616   4.035   5.625  0.2135 -0.2954  0.5833
 2647SOL     OW10353   2.658   0.403   4.212  0.2289 -0.2340 -0.7264
 2647SOL    HW210354   2.614   0.326   4.175  0.8619 -0.3506 -1.2443
 2647SOL    HW310355   2.739   0.368   4.249  0.2322  0.0947 -0.4181
 2647SOL    MW410356   2.663   0.388   4.212 -0.2868  0.0607 -0.2248
 2648SOL     OW10357   4.008   6.086   1.788  0.4235 -0.0476  0.7068
 2648SOL    HW210358   4.034   6.149   1.721 -1.6949  0.3473  0.1835
 2648SOL    HW310359   4.055   6.115   1.867  2.5100 -0.1913 -0.4177
 2648SOL    MW410360   4.018   6.098   1.790  0.7323 -0.2976  0.8985
 2649SOL     OW10361   2.853   4.990   1.495 -0.4534  0.3655  0.2985
 2649SOL    HW210362   2.911   4.997   1.419  0.9877  0.4832  1.3650
 2649SOL    HW310363   2.912   4.974   1.569 -1.8762 -0.5123  1.2909
 2649SOL    MW410364   2.869   4.989   1.495 -0.2299 -0.1261 -0.1085
 2650SOL     OW10365   1.591   1.904   5.890 -0.3748  0.3486  0.1813
 2650SOL    HW210366   1.550   1.924   5.806  0.1291 -0.9735 -0.4065
 2650SOL    HW310367   1.678   1.872   5.867 -0.0482  0.4367  1.2484
 2650SOL    MW410368   1.597   1.902   5.876  0.2583 -0.0724 -0.4824
 2651SOL     OW10369   5.033   0.834   3.557  0.2473  0.2000  0.2371
 2651SOL    HW210370   5.053   0.874   3.642 -0.5125  1.7078 -0.2516
 2651SOL    HW310371   5.050   0.903   3.493 -0.3561 -0.5129 -0.7274
 2651SOL    MW410372   5.038   0.848   3.560 -0.6708  0.0890  0.0487
 2652SOL     OW10373   1.637   6.338   4.730  0.4409  0.4294 -0.3041
 2652SOL    HW210374   1.624   6.406   4.664  1.8876  1.3429  0.3145
 2652SOL    HW310375   1.625   6.256   4.682 -0.6458  1.0867 -1.2084
 2652SOL    MW410376   1.633   6.336   4.715 -0.1096 -0.2380  0.0701
 2653SOL     OW10377   1.848   5.790   3.994  0.5867 -0.5015 -0.0193
 2653SOL    HW210378   1.788   5.803   4.067  0.3813  1.8880 -0.5234
 2653SOL    HW310379   1.840   5.697   3.972 -1.6264 -0.6266  1.0423
 2653SOL    MW410380   1.839   5.779   4.001 -0.2774 -0.0741 -0.3261
 2654SOL     OW10381   4.807   5.003   4.484 -0.1317  0.1882  0.6209
 2654SOL    HW210382   4.718   5.033   4.502 -0.5662 -0.4334 -0.4367
 2654SOL    HW310383   4.806   4.976   4.393  0.9390 -0.5774  0.8111
 2654SOL    MW410384   4.795   5.004   4.475 -0.4247  0.3983 -0.0750
 2655SOL     OW10385   5.669   2.867   5.055  0.3591  0.4460  0.8496
 2655SOL    HW210386   5.670   2.823   4.970  0.4937  0.7080  0.7116
 2655SOL    HW310387   5.755   2.910   5.060  0.1947  0.7669  0.9391
 2655SOL    MW410388   5.680   2.867   5.044 -0.2564 -0.1220  0.6735
 2656SOL     OW10389   4.592   0.596   5.135  0.0066  0.4978 -0.2109
 2656SOL    HW210390   4.565   0.531   5.069  2.9114 -0.2436 -0.8086
 2656SOL    HW310391   4.570   0.556   5.219 -2.0689  0.6583 -0.6134
 2656SOL    MW410392   4.585   0.582   5.137  0.5368  0.1238  0.5647
 2657SOL     OW10393   2.406   3.684   0.914 -0.1443 -0.6603 -0.4585
 2657SOL    HW210394   2.453   3.695   0.832 -0.6084 -0.0266 -0.6457
 2657SOL    HW310395   2.319   3.653   0.889 -0.2854 -0.4733 -0.2062
 2657SOL    MW410396   2.401   3.681   0.900  0.1664 -0.0238 -0.0755
 2658SOL     OW10397   4.339   4.906   3.408  0.1010  0.1429 -0.2285
 2658SOL    HW210398   4.358   4.952   3.326 -0.1173 -0.7799 -0.8127
 2658SOL    HW310399   4.250   4.931   3.430  1.0739  2.6904  1.3123
 2658SOL    MW410400   4.330   4.915   3.400 -0.3290  0.2081  0.5200
 2659SOL     OW10401   1.977   1.742   3.756 -0.3308  0.0608 -0.2542
 2659SOL    HW210402   2.036   1.816   3.740  0.6871 -0.6097  0.2378
 2659SOL    HW310403   1.987   1.686   3.679 -0.6912  0.1723 -0.3836
 2659SOL    MW410404   1.986   1.744   3.744  0.3234 -0.8956  0.1809
 2660SOL     OW10405   0.139   0.278   1.377 -0.4158 -0.3245 -0.5369
 2660SOL    HW210406   0.089   0.202   1.409 -0.3219 -0.0033  0.4127
 2660SOL    HW310407   0.076   0.327   1.324 -0.8932 -0.3465 -0.0089
 2660SOL    MW410408   0.124   0.274   1.374  0.3655 -0.4858 -0.0336
 2661SOL     OW10409   6.182   0.586   5.124 -0.5916  0.0138 -0.2924
 2661SOL    HW210410   6.190   0.648   5.052 -0.6948  0.7726  0.3412
 2661SOL    HW310411   6.249   0.520   5.106  0.5646  1.1184 -0.1689
 2661SOL    MW410412   6.192   0.585   5.112 -0.9142  0.0036 -0.2190
 2662SOL     OW10413   6.013   5.853   1.431  0.0017  0.3557  0.3953
 2662SOL    HW210414   5.928   5.874   1.470  0.8110  2.1879  1.3061
 2662SOL    HW310415   6.029   5.924   1.368  0.3584 -0.6010 -0.6373
 2662SOL    MW410416   6.004   5.865   1.428 -0.6595 -0.2381 -0.4346
 2663SOL     OW10417   5.877   1.514   4.289  1.0708 -0.1344  0.0762
 2663SOL    HW210418   5.871   1.570   4.212 -1.7039  0.2723  0.4765
 2663SOL    HW310419   5.786   1.502   4.317  1.5822 -4.0716  0.5915
 2663SOL    MW410420   5.864   1.520   4.283  0.1722  0.6164 -0.0503
 2664SOL     OW10421   0.738   4.637   0.267 -0.1422  0.0462 -0.1250
 2664SOL    HW210422   0.711   4.559   0.317  0.6248  0.4261  0.9083
 2664SOL    HW310423   0.676   4.641   0.195 -0.4777 -1.2728  0.0627
 2664SOL    MW410424   0.726   4.627   0.264  0.0974  0.3345  0.3693
 2665SOL     OW10425   4.526   2.726   4.381 -0.0958 -0.4092  0.1969
 2665SOL    HW210426   4.496   2.665   4.313  0.2659 -2.2583  1.6197
 2665SOL    HW310427   4.502   2.683   4.463 -0.1974  1.6014  1.2681
 2665SOL    MW410428   4.519   2.712   4.383  0.2370 -0.3476 -0.5709
 2666SOL     OW10429   0.650   0.276   0.101 -0.5107  0.1234  0.0783
 2666SOL    HW210430   0.577   0.247   0.155  0.3466  0.2424  1.3632
 2666SOL    HW310431   0.668   0.365   0.131  0.7457 -0.2387  0.4538
 2666SOL    MW410432   0.643   0.284   0.112 -0.1307 -0.0910  0.2023
 2667SOL     OW10433   5.389   6.048   3.580  0.5954  0.3163 -0.1957
 2667SOL    HW210434   5.465   6.028   3.635 -0.7476  0.9732  2.0484
 2667SOL    HW310435   5.347   5.964   3.565  0.3797  0.2524  0.7413
 2667SOL    MW410436   5.394   6.034   3.585 -0.4079  1.0798 -0.0514
 2668SOL     OW10437   6.297   6.097   5.434  0.0186  0.1461 -0.5259
 2668SOL    HW210438   6.211   6.100   5.476  0.2325  0.6847 -0.1152
 2668SOL    HW310439   6.293   6.021   5.376 -0.7330  0.1657 -0.5108
 2668SOL    MW410440   6.285   6.088   5.432 -0.9202  0.4441 -0.0852
 2669SOL     OW10441   5.870   0.839   1.450 -0.2142 -0.1727 -0.0263
 2669SOL    HW210442   5.876   0.833   1.355 -1.3285 -0.1861 -0.1060
 2669SOL    HW310443   5.784   0.877   1.466 -0.5100 -1.2206  1.0105
 2669SOL    MW410444   5.860   0.843   1.440 -0.1409 -0.5121 -0.4899
 2670SOL     OW10445   5.858   4.420   4.725  0.1671 -0.1486  0.0848
 2670SOL    HW210446   5.918   4.414   4.651  0.1980 -0.7912  0.1565
 2670SOL    HW310447   5.885   4.349   4.784 -0.9709 -0.7835 -0.1217
 2670SOL    MW410448   5.870   4.409   4.723  0.3819 -0.1487  0.3562
 2671SOL     OW10449   0.780   0.876   2.626 -0.0898 -0.5560 -0.3734
 2671SOL    HW210450   0.711   0.913   2.570 -2.9893 -1.9575  1.9929
 2671SOL    HW310451   0.799   0.947   2.689  2.1309  0.5007 -2.1009
 2671SOL    MW410452   0.773   0.890   2.627  0.3666 -0.2489 -0.2522
 2672SOL     OW10453   3.553   3.522   3.538  0.7073  0.0391  0.5673
 2672SOL    HW210454   3.530   3.547   3.449  0.4418  0.1235  0.6613
 2672SOL    HW310455   3.648   3.509   3.535  0.4507 -2.0471 -0.2514
 2672SOL    MW410456   3.563   3.523   3.526  0.2793  0.2410 -0.2010
 2673SOL     OW10457   0.116   1.182   4.291 -0.0447  0.1602 -0.2239
 2673SOL    HW210458   0.077   1.265   4.317  0.5145  0.3048  0.1795
 2673SOL    HW310459   0.152   1.199   4.204  1.1266  0.7064  0.3487
 2673SOL    MW410460   0.116   1.195   4.283  0.3414 -0.2539  0.0787
 2674SOL     OW10461   4.952   2.459   0.859  0.5981  0.5654  0.0316
 2674SOL    HW210462   4.904   2.402   0.799 -0.3190  0.8184  0.4963
 2674SOL    HW310463   5.034   2.478   0.814  0.1934  0.2470 -0.8667
 2674SOL    MW410464   4.957   2.454   0.845 -0.3555  0.8611  0.0747
 2675SOL     OW10465   1.892   5.461   5.893  0.4516 -0.0135  0.1009
 2675SOL    HW210466   1.809   5.430   5.928 -0.2169 -0.0478 -1.4184
 2675SOL    HW310467   1.872   5.548   5.857  1.0947  0.0317 -0.1705
 2675SOL    MW410468   1.879   5.469   5.893 -0.0538 -0.2960  0.0683
 2676SOL     OW10469   2.581   5.353   3.268 -0.1564 -0.0844  0.1385
 2676SOL    HW210470   2.612   5.331   3.180  1.7840  1.7269  0.2892
 2676SOL    HW310471   2.583   5.270   3.316 -0.7445 -1.0001 -1.3445
 2676SOL    MW410472   2.585   5.339   3.263 -0.3683  0.3021  0.0620
 2677SOL     OW10473   2.584   4.607   1.598 -0.3346  0.3466 -0.0574
 2677SOL    HW210474   2.518   4.556   1.551 -0.7608 -1.0092  1.8953
 2677SOL    HW310475   2.534   4.664   1.656  0.2031  1.3150 -0.5019
 2677SOL    MW410476   2.569   4.608   1.599 -0.2891  0.0426  0.0097
 2678SOL     OW10477   5.716   0.408   0.078  0.4101 -0.0830  0.0065
 2678SOL    HW210478   5.685   0.393   0.167  1.2612  1.1178  0.5454
 2678SOL    HW310479   5.679   0.493   0.054 -2.0938 -1.5553 -1.8988
 2678SOL    MW410480   5.707   0.417   0.086 -0.4382  0.0876 -0.2175
 2679SOL     OW10481   1.016   1.206   5.582  0.7354  0.1542  0.6962
 2679SOL    HW210482   1.081   1.274   5.563  0.9847 -0.2381  0.1025
 2679SOL    HW310483   0.969   1.238   5.659  1.2707  0.6988  0.8040
 2679SOL    MW410484   1.019   1.219   5.589 -0.1089  0.2186  0.5718
 2680SOL     OW10485   1.934   1.859   6.431 -0.1560 -0.2857 -0.7258
 2680SOL    HW210486   1.927   1.770   6.395  0.3115 -0.5144 -0.2505
 2680SOL    HW310487   1.884   1.856   6.512 -0.5226  0.0139 -0.9371
 2680SOL    MW410488   1.927   1.847   6.437  0.0744 -0.6715  0.4881
 2681SOL     OW10489   5.289   6.081   6.149  0.0709  0.2071  0.9324
 2681SOL    HW210490   5.381   6.073   6.125  0.3275  2.3201  1.0054
 2681SOL    HW310491   5.259   6.158   6.102 -1.5366 -0.1586  1.3067
 2681SOL    MW410492   5.297   6.090   6.140  0.0439 -0.2379  0.7039
 2682SOL     OW10493   3.314   0.771   6.371 -0.1441  0.0592 -0.4122
 2682SOL    HW210494   3.241   0.834   6.369 -0.1943  0.0028 -0.3709
 2682SOL    HW310495   3.279   0.697   6.421 -0.9127 -1.0544 -2.5170
 2682SOL    MW410496   3.300   0.770   6.378  0.1620  0.1266 -0.3861
 2683SOL     OW10497   1.526   6.054   4.177 -0.2958  0.0832  0.3235
 2683SOL    HW210498   1.574   6.132   4.206  0.5331 -0.5783  0.7845
 2683SOL    HW310499   1.480   6.082   4.098  2.0203  0.4110 -1.0222
 2683SOL    MW410500   1.526   6.068   4.170 -0.5719 -0.2675  0.4619
 2684SOL     OW10501   5.666   4.105   1.413 -0.3792  0.4083 -0.0080
 2684SOL    HW210502   5.656   4.012   1.395 -0.5890  0.6557 -1.2578
 2684SOL    HW310503   5.628   4.117   1.500 -1.0019 -0.5614 -0.1341
 2684SOL    MW410504   5.659   4.094   1.422 -0.0079 -0.3606 -0.0815
 2685SOL     OW10505   1.709   3.817   4.009  0.3465  0.1224 -0.5347
 2685SOL    HW210506   1.719   3.833   4.102 -1.0022 -0.7279 -0.2092
 2685SOL    HW310507   1.788   3.768   3.984  0.0457 -0.9445  0.5017
 2685SOL    MW410508   1.720   3.813   4.018  0.4165  0.4790  0.5018
 2686SOL     OW10509   4.601   3.060   2.254 -0.0317  0.3512 -0.4491
 2686SOL    HW210510   4.676   3.054   2.195  1.3675 -0.2299  1.2782
 2686SOL    HW310511   4.537   3.112   2.207  0.7599 -0.6131 -2.7000
 2686SOL    MW410512   4.603   3.066   2.240 -0.2553  0.1372 -0.7426
 2687SOL     OW10513   6.055   6.262   4.893 -0.8095  0.1516  0.2050
 2687SOL    HW210514   6.020   6.350   4.875  0.8800  1.0826  1.2923
 2687SOL    HW310515   6.076   6.228   4.806  1.6732  2.2159 -0.1244
 2687SOL    MW410516   6.053   6.269   4.879 -0.2903  1.1075 -0.1757
 2688SOL     OW10517   3.707   4.569   5.172 -0.4129 -0.3178 -0.0272
 2688SOL    HW210518   3.630   4.522   5.203  0.5424 -1.2222  1.0496
 2688SOL    HW310519   3.676   4.617   5.095 -2.0240 -0.7070  0.3413
 2688SOL    MW410520   3.693   4.569   5.166  0.5202 -0.1171 -0.2286
 2689SOL     OW10521   6.288   5.907   5.218  0.0765  0.1504  0.1018
 2689SOL    HW210522   6.226   5.918   5.146  0.8666  1.4222 -0.4310
 2689SOL    HW310523   6.371   5.886   5.176  0.8914  2.3022  0.4617
 2689SOL    MW410524   6.291   5.906   5.203  0.5328  0.0940 -0.2994
 2690SOL     OW10525   3.029   1.503   6.099  0.4167 -0.1287  0.3151
 2690SOL    HW210526   3.079   1.512   6.018  0.2839  0.5922  0.3081
 2690SOL    HW310527   2.946   1.464   6.072  0.8551 -1.0472  0.2846
 2690SOL    MW410528   3.025   1.499   6.085 -0.2749  0.2032 -0.3833
 2691SOL     OW10529   5.926   3.955   4.867  0.2006 -0.2925  0.0072
 2691SOL    HW210530   5.905   4.008   4.790 -2.7263 -1.1488  0.0714
 2691SOL    HW310531   5.956   3.872   4.830  1.0496  0.0729 -0.1466
 2691SOL    MW410532   5.927   3.951   4.852  0.5194 -0.0959 -0.2629
 2692SOL     OW10533   1.360   3.119   1.012  0.9806 -0.0647 -0.1697
 2692SOL    HW210534   1.353   3.108   0.918  0.5155  1.1287 -0.2844
 2692SOL    HW310535   1.292   3.061   1.048  0.0130  0.7332 -0.6555
 2692SOL    MW410536   1.350   3.110   1.005 -0.0279 -0.1393  0.6909
 2693SOL     OW10537   2.657   5.995   4.294 -0.1969  0.2245  0.1691
 2693SOL    HW210538   2.716   5.930   4.332  1.1375  1.6707  0.6542
 2693SOL    HW310539   2.571   5.952   4.295  0.6522 -1.5617  0.3492
 2693SOL    MW410540   2.653   5.981   4.299 -0.0626 -0.0277 -1.0319
 2694SOL     OW10541   0.539   3.125   5.287 -0.5728  0.3551  0.3397
 2694SOL    HW210542   0.517   3.130   5.380  1.1617 -0.1014  0.8016
 2694SOL    HW310543   0.634   3.115   5.285 -0.6240 -0.1325 -1.4743
 2694SOL    MW410544   0.548   3.124   5.299 -0.1872 -0.1895  0.1202
 2695SOL     OW10545   5.567   2.012   3.416  0.3344  0.1598 -0.0058
 2695SOL    HW210546   5.611   1.958   3.350  1.4141  0.5082  0.4066
 2695SOL    HW310547   5.635   2.031   3.481 -0.2460  1.3187  0.2889
 2695SOL    MW410548   5.581   2.007   3.416  0.0042 -0.2214 -0.4134
 2696SOL     OW10549   2.334   3.217   1.715  0.0393 -0.3124 -0.7162
 2696SOL    HW210550   2.290   3.299   1.692  1.2023  0.7203  0.5378
 2696SOL    HW310551   2.360   3.179   1.631 -0.7277  0.4748 -1.3311
 2696SOL    MW410552   2.332   3.223   1.701  0.5965  0.1094 -0.7595
 2697SOL     OW10553   0.625   3.290   2.709  0.4636 -0.6996  0.3518
 2697SOL    HW210554   0.681   3.359   2.674 -0.5751 -1.5985 -3.6101
 2697SOL    HW310555   0.548   3.335   2.744  1.1014  0.2518  0.5514
 2697SOL    MW410556   0.622   3.305   2.709  0.0653  0.0420  0.1309
 2698SOL     OW10557   2.186   3.713   6.094  0.5294 -0.0360  0.8080
 2698SOL    HW210558   2.151   3.671   6.173  0.6923 -1.9447 -0.0761
 2698SOL    HW310559   2.109   3.734   6.042  0.3513  2.0994  1.8106
 2698SOL    MW410560   2.171   3.710   6.097 -0.3224 -0.4209 -0.2252
 2699SOL     OW10561   1.523   3.675   1.389 -0.2130 -0.9521  0.6997
 2699SOL    HW210562   1.584   3.674   1.462  0.0871 -0.4058  0.4633
 2699SOL    HW310563   1.519   3.584   1.360  0.6787 -0.9559  0.5573
 2699SOL    MW410564   1.530   3.663   1.395 -0.3333  0.7735  0.8199
 2700SOL     OW10565   5.178   1.234   4.976  0.2059 -0.4310 -0.5343
 2700SOL    HW210566   5.220   1.320   4.965  0.1998 -0.1880  1.0779
 2700SOL    HW310567   5.104   1.251   5.034 -1.0177 -1.2022 -1.7908
 2700SOL    MW410568   5.173   1.248   4.982  0.3008  0.0303 -0.0810
 2701SOL     OW10569   0.638   3.619   2.059 -0.4668  0.7208 -0.3302
 2701SOL    HW210570   0.569   3.672   2.099 -1.3955  0.1671 -1.1563
 2701SOL    HW310571   0.672   3.566   2.131 -0.7730  1.1441  0.1306
 2701SOL    MW410572   0.633   3.619   2.074 -0.0418 -0.3729  0.2841
 2702SOL     OW10573   3.160   0.401   0.772  0.4085 -0.0498 -0.1284
 2702SOL    HW210574   3.213   0.462   0.823 -2.3949  1.5173  1.0860
 2702SOL    HW310575   3.095   0.367   0.833 -0.7488 -1.0090 -1.8031
 2702SOL    MW410576   3.158   0.405   0.787 -0.3197 -0.5859  0.1855
 2703SOL     OW10577   3.032   4.373   6.353 -0.0354  0.0368 -0.5965
 2703SOL    HW210578   3.107   4.429   6.369 -1.2616  1.1281  1.7647
 2703SOL    HW310579   3.059   4.286   6.383  0.6508  0.1637 -0.8452
 2703SOL    MW410580   3.045   4.369   6.359  0.2503 -0.0487 -0.3161
 2704SOL     OW10581   1.679   2.654   5.840 -0.0329  0.9666 -0.0454
 2704SOL    HW210582   1.691   2.590   5.769 -0.0121 -0.9010  1.5696
 2704SOL    HW310583   1.768   2.672   5.871 -0.2183 -1.2908  2.0406
 2704SOL    MW410584   1.692   2.648   5.835  0.1793  0.2406  0.2830
 2705SOL     OW10585   1.464   3.637   4.016  0.0530 -0.1904  0.6329
 2705SOL    HW210586   1.550   3.675   4.001  0.7419 -1.4739  1.1944
 2705SOL    HW310587   1.481   3.544   4.031 -1.4471 -0.4976  0.6004
 2705SOL    MW410588   1.477   3.630   4.016  0.9537  0.3313  0.2506
 2706SOL     OW10589   0.073   2.831   1.495  0.1140 -0.4489 -0.5203
 2706SOL    HW210590   0.127   2.909   1.506 -1.1936  0.1551  2.6025
 2706SOL    HW310591  -0.001   2.861   1.442 -0.4963  0.5367  0.8444
 2706SOL    MW410592   0.070   2.845   1.489 -0.1277 -0.3398 -0.0378
 2707SOL     OW10593   5.780   3.714   2.814 -0.4611  0.5010 -0.3687
 2707SOL    HW210594   5.685   3.710   2.807 -0.7179 -0.4724  2.5014
 2707SOL    HW310595   5.809   3.623   2.805  0.2013  0.7718 -1.0704
 2707SOL    MW410596   5.772   3.702   2.812  0.4695  0.4693 -0.1935
 2708SOL     OW10597   3.119   0.109   4.570 -0.3570  0.2449 -0.4744
 2708SOL    HW210598   3.172   0.186   4.592  0.0840 -0.6892  2.0295
 2708SOL    HW310599   3.177   0.056   4.515 -0.4935  1.4392 -1.8194
 2708SOL    MW410600   3.134   0.112   4.566  0.1342  0.2754 -0.0061
 2709SOL     OW10601   5.465   3.803   4.421  0.2235 -0.2678  0.4333
 2709SOL    HW210602   5.457   3.845   4.335  1.2121 -0.0857  0.4245
 2709SOL    HW310603   5.415   3.722   4.412  1.8812 -1.2100 -0.9623
 2709SOL    MW410604   5.457   3.798   4.408 -0.3762  0.8862 -0.2170
 2710SOL     OW10605   4.580   5.489   2.928 -0.3759  0.1708  0.0357
 2710SOL    HW210606   4.650   5.549   2.954 -0.8729  0.7794 -0.0113
 2710SOL    HW310607   4.590   5.481   2.833 -1.9388  2.3141 -0.3634
 2710SOL    MW410608   4.591   5.496   2.919 -0.5347 -0.1723  0.0979
 2711SOL     OW10609   0.997   4.301   4.588  0.2883  0.2623  0.2908
 2711SOL    HW210610   0.981   4.245   4.664 -1.3262 -0.8142 -0.7861
 2711SOL    HW310611   0.910   4.316   4.551  1.0468  0.7126 -1.3733
 2711SOL    MW410612   0.983   4.296   4.593  0.5008 -0.4661  0.3492
 2712SOL     OW10613   5.877   4.514   0.060  0.3874 -0.1136 -0.1484
 2712SOL    HW210614   5.964   4.522   0.019  0.7512  0.6082  0.7426
 2712SOL    HW310615   5.890   4.453   0.133  0.0030 -0.4706 -0.3719
 2712SOL    MW410616   5.890   4.507   0.064  0.1731 -0.2130 -0.0796
 2713SOL     OW10617   2.258   4.190   2.944 -0.2787 -0.4362  0.1811
 2713SOL    HW210618   2.305   4.170   2.863 -0.4393 -0.5718  0.1190
 2713SOL    HW310619   2.168   4.206   2.915  0.0438  1.4242  0.0880
 2713SOL    MW410620   2.252   4.189   2.929 -0.1018 -0.1978  0.3179
 2714SOL     OW10621   4.287   3.302   3.345 -0.4264 -0.3591 -0.3210
 2714SOL    HW210622   4.376   3.282   3.371 -0.8526 -1.9687 -0.0419
 2714SOL    HW310623   4.232   3.270   3.416 -1.2671  0.3062 -0.6406
 2714SOL    MW410624   4.291   3.295   3.357  0.0363 -0.2367  0.5948
 2715SOL     OW10625   5.939   6.222   3.998 -0.7827  0.3135  0.1852
 2715SOL    HW210626   5.979   6.165   4.064 -1.0475  0.5341  0.5399
 2715SOL    HW310627   5.952   6.176   3.915 -2.4600 -1.0940  0.6400
 2715SOL    MW410628   5.946   6.208   3.996  0.5258  0.6809 -0.0684
 2716SOL     OW10629   4.535   0.512   5.414  0.7377  0.2101 -0.3140
 2716SOL    HW210630   4.452   0.465   5.411  0.6248  0.4542 -1.1567
 2716SOL    HW310631   4.601   0.444   5.425  0.4525 -0.0072  0.0592
 2716SOL    MW410632   4.533   0.497   5.415 -0.4657  0.4207 -0.4106
 2717SOL     OW10633   5.125   1.420   5.952  0.2220 -0.2273 -0.2993
 2717SOL    HW210634   5.140   1.327   5.932 -0.4308 -0.2141 -0.9022
 2717SOL    HW310635   5.183   1.438   6.026  0.4576 -1.0807 -0.2596
 2717SOL    MW410636   5.135   1.410   5.959 -0.5544  0.1510  0.3092
 2718SOL     OW10637   4.502   4.830   6.011  0.1837 -0.1479 -0.8067
 2718SOL    HW210638   4.538   4.918   6.000  1.0519 -0.5815 -1.5460
 2718SOL    HW310639   4.457   4.833   6.095 -4.4335  2.5503 -3.0055
 2718SOL    MW410640   4.501   4.842   6.021  0.1431 -0.4363 -0.0367
 2719SOL     OW10641   2.331   0.082   0.404 -0.1221 -0.3376 -0.2914
 2719SOL    HW210642   2.387   0.124   0.339 -0.8417  0.9025 -0.1423
 2719SOL    HW310643   2.343  -0.012   0.389  1.6676 -0.1148 -0.5262
 2719SOL    MW410644   2.340   0.075   0.394  0.1666 -0.1384  0.1117
 2720SOL     OW10645   4.133   5.726   1.427  0.1521  0.4208  1.0377
 2720SOL    HW210646   4.119   5.787   1.354 -0.9960 -0.2430  0.6876
 2720SOL    HW310647   4.052   5.676   1.433  0.7482 -0.4843  1.8861
 2720SOL    MW410648   4.121   5.727   1.418  0.0561  0.2578 -0.6997
 2721SOL     OW10649   4.961   4.286   2.558  0.4423 -0.0045  0.1890
 2721SOL    HW210650   5.027   4.281   2.627 -0.3542  1.4102  1.0960
 2721SOL    HW310651   4.908   4.362   2.581 -0.0462  0.3000 -1.8302
 2721SOL    MW410652   4.963   4.295   2.570  0.5847 -0.2733 -0.0212
 2722SOL     OW10653   6.418   2.548   4.909 -0.1469  1.0270 -0.1178
 2722SOL    HW210654   6.366   2.549   4.990 -2.2452  0.9003 -1.3701
 2722SOL    HW310655   6.424   2.456   4.886 -1.0826  1.1685 -0.9865
 2722SOL    MW410656   6.412   2.536   4.917  0.1842  0.2645 -0.0926
 2723SOL     OW10657   0.842   4.540   0.711  0.7487 -0.6216  0.4935
 2723SOL    HW210658   0.850   4.535   0.616 -2.6877  2.0894 -0.1113
 2723SOL    HW310659   0.889   4.619   0.735  0.1150 -0.3310  0.7885
 2723SOL    MW410660   0.850   4.549   0.702  0.4442  0.3800  0.4092
 2724SOL     OW10661   6.206   4.712   0.627  0.5527 -0.1273  0.0206
 2724SOL    HW210662   6.246   4.792   0.661  0.7283 -0.0601 -0.3399
 2724SOL    HW310663   6.263   4.641   0.656  0.3840 -0.1243  0.3601
 2724SOL    MW410664   6.219   4.713   0.635  0.2734 -0.5150  0.0368
 2725SOL     OW10665   5.328   5.439   3.863  0.1233  0.3781 -0.1495
 2725SOL    HW210666   5.281   5.415   3.942 -1.3399  2.3401 -0.3561
 2725SOL    HW310667   5.264   5.486   3.810  1.4470  0.3161 -1.9026
 2725SOL    MW410668   5.314   5.442   3.866 -0.3084 -0.4923 -0.5636
 2726SOL     OW10669   1.101   0.608   1.890  0.2101 -0.1221  0.0884
 2726SOL    HW210670   1.088   0.690   1.841 -1.3499  1.5050  2.9117
 2726SOL    HW310671   1.013   0.586   1.922  0.9518 -1.7338  1.1442
 2726SOL    MW410672   1.087   0.616   1.888  0.0043 -0.2328 -0.0131
 2727SOL     OW10673   2.790   3.128   2.998  0.3694 -0.1642 -0.6544
 2727SOL    HW210674   2.833   3.213   3.005  0.5413 -0.2153 -1.0556
 2727SOL    HW310675   2.700   3.143   3.026  1.0767 -0.4368  2.0773
 2727SOL    MW410676   2.784   3.141   3.003  0.7177  0.4185 -0.1927
 2728SOL     OW10677   1.456   0.784   4.779 -0.4335 -0.3535 -0.2137
 2728SOL    HW210678   1.402   0.823   4.711 -2.0033 -0.3467  0.9851
 2728SOL    HW310679   1.527   0.846   4.793 -0.0458 -0.3995 -1.8715
 2728SOL    MW410680   1.458   0.797   4.772 -1.0900 -1.0187 -0.0444
 2729SOL     OW10681   5.992   5.889   1.028  0.0411 -0.1033  0.0181
 2729SOL    HW210682   5.980   5.966   1.084  1.1303 -1.6208  2.5010
 2729SOL    HW310683   6.087   5.887   1.011 -0.3429  0.8068 -2.7629
 2729SOL    MW410684   6.003   5.899   1.033 -0.2745 -0.2078 -0.9035
 2730SOL     OW10685   0.458   6.116   5.828 -0.5923 -0.3816 -0.1297
 2730SOL    HW210686   0.550   6.119   5.853 -0.7786 -0.8462  0.6381
 2730SOL    HW310687   0.432   6.025   5.843 -0.4627 -0.9902 -2.9860
 2730SOL    MW410688   0.466   6.104   5.833  0.2076 -0.5232 -0.1698
 2731SOL     OW10689   1.846   5.526   3.917  0.3567 -0.1007  0.3597
 2731SOL    HW210690   1.903   5.478   3.857  0.6908  0.2170  0.4230
 2731SOL    HW310691   1.828   5.465   3.988  1.8102  0.2768  1.0881
 2731SOL    MW410692   1.851   5.512   3.918  0.0899  0.6509 -0.5981
 2732SOL     OW10693   5.182   3.639   2.493  0.1890  0.3046 -0.2759
 2732SOL    HW210694   5.090   3.653   2.514  0.4935  0.3614  1.1243
 2732SOL    HW310695   5.189   3.546   2.474  0.0889 -0.0046  1.1071
 2732SOL    MW410696   5.171   3.629   2.493 -0.1709 -0.1510 -0.2729
 2733SOL     OW10697   2.808   4.733   3.401 -0.5711 -0.2269 -0.1370
 2733SOL    HW210698   2.778   4.716   3.490 -1.6588  0.1482 -0.4069
 2733SOL    HW310699   2.729   4.725   3.347  0.1132 -0.6824 -1.1031
 2733SOL    MW410700   2.794   4.730   3.406  0.5614  0.3052 -0.1053
 2734SOL     OW10701   3.120   6.404   3.383  0.1084  1.1392  0.1023
 2734SOL    HW210702   3.123   6.402   3.288  1.0388  0.2731  0.1329
 2734SOL    HW310703   3.151   6.317   3.410 -0.6731  1.1713  1.1816
 2734SOL    MW410704   3.125   6.392   3.374 -0.8457  0.2692  0.2061
 2735SOL     OW10705   2.932   3.207   3.292 -0.2578 -0.3033 -0.0893
 2735SOL    HW210706   3.015   3.233   3.332 -0.2741  0.7685 -0.6971
 2735SOL    HW310707   2.946   3.221   3.198 -1.1540  0.0075 -0.1892
 2735SOL    MW410708   2.945   3.212   3.285  0.2053 -0.1266  0.3837
 2736SOL     OW10709   4.839   3.514   5.797  0.1288 -0.0298 -0.1727
 2736SOL    HW210710   4.861   3.556   5.713 -1.0899 -0.6049 -0.8143
 2736SOL    HW310711   4.781   3.576   5.841  1.8548  0.8854  0.9026
 2736SOL    MW410712   4.834   3.528   5.791  0.0975  0.4108 -0.1030
 2737SOL     OW10713   1.089   5.537   4.121  0.1664  0.3010  0.3604
 2737SOL    HW210714   1.138   5.573   4.195 -0.2174 -1.5887  1.6097
 2737SOL    HW310715   1.150   5.539   4.048  1.0884  0.7462  1.1270
 2737SOL    MW410716   1.103   5.542   4.121 -0.4870 -0.3325  0.2137
 2738SOL     OW10717   4.767   5.197   1.454  0.2376  0.0578  0.3300
 2738SOL    HW210718   4.832   5.212   1.386  0.8789 -0.4104  0.8269
 2738SOL    HW310719   4.798   5.120   1.500 -0.8918 -0.4319  0.3206
 2738SOL    MW410720   4.780   5.189   1.451  0.4707  0.7185  0.3027
 2739SOL     OW10721   4.492   5.464   4.331  0.1921  0.5699  0.1617
 2739SOL    HW210722   4.437   5.540   4.312 -0.0696  0.4059  0.2524
 2739SOL    HW310723   4.534   5.484   4.414  2.3438  1.8549 -1.1592
 2739SOL    MW410724   4.490   5.477   4.339 -0.7050 -0.2845 -0.0423
 2740SOL     OW10725   5.801   0.067   5.876 -0.6897  0.1225  0.1122
 2740SOL    HW210726   5.824  -0.011   5.825  0.0669  1.3541 -1.5242
 2740SOL    HW310727   5.872   0.077   5.939  0.0763  0.3978 -0.7745
 2740SOL    MW410728   5.813   0.058   5.877  0.3081 -0.2962  0.3763
 2741SOL     OW10729   2.044   3.069   2.453 -0.6662  0.2976  0.1898
 2741SOL    HW210730   2.081   3.076   2.365 -1.2771 -0.5890 -0.1592
 2741SOL    HW310731   2.063   2.979   2.480 -1.0024  0.3814  0.7159
 2741SOL    MW410732   2.051   3.058   2.445  0.0802 -0.9091  0.3558
 2742SOL     OW10733   0.038   0.044   4.307 -0.5714  0.0350 -0.2866
 2742SOL    HW210734  -0.024  -0.027   4.325  0.1560 -0.5293  0.0526
 2742SOL    HW310735  -0.013   0.124   4.320 -1.3183 -0.4191 -0.3504
 2742SOL    MW410736   0.023   0.045   4.311 -0.6213 -0.2880  0.1546
 2743SOL     OW10737   6.364   1.692   5.756 -0.4555  0.5972  0.2066
 2743SOL    HW210738   6.300   1.763   5.754 -2.0198 -0.7606 -0.4558
 2743SOL    HW310739   6.348   1.647   5.838  0.6825  1.0893  0.7301
 2743SOL    MW410740   6.354   1.696   5.766 -0.3525 -0.8348 -0.2752
 2744SOL     OW10741   0.894   5.992   2.502  0.0691  0.3065 -0.0445
 2744SOL    HW210742   0.906   6.012   2.594  1.9975 -1.1659  0.1021
 2744SOL    HW310743   0.901   6.076   2.457  2.7613  0.7142  0.9082
 2744SOL    MW410744   0.897   6.005   2.508  0.0110  0.1478 -0.0161
 2745SOL     OW10745   3.747   0.761   0.517  0.2737  0.2379 -0.8013
 2745SOL    HW210746   3.733   0.833   0.455 -1.6880 -0.2652 -1.0045
 2745SOL    HW310747   3.804   0.701   0.470 -0.2888  0.3867 -1.7150
 2745SOL    MW410748   3.752   0.763   0.502  0.3988  0.3957 -0.1141
 2746SOL     OW10749   5.521   2.862   6.171 -0.3817  0.2103 -0.3935
 2746SOL    HW210750   5.577   2.818   6.235 -0.4732 -0.2762 -0.6374
 2746SOL    HW310751   5.546   2.954   6.176  0.7590 -0.0556 -0.8026
 2746SOL    MW410752   5.532   2.868   6.180  0.4482  0.1136 -0.0989
 2747SOL     OW10753   2.623   0.829   6.297  0.0307  0.4444 -0.1313
 2747SOL    HW210754   2.630   0.807   6.390  1.5097 -0.2863 -0.3926
 2747SOL    HW310755   2.542   0.788   6.268 -0.5595  0.8683  0.8791
 2747SOL    MW410756   2.614   0.821   6.306  0.3167  0.1741  0.3229
 2748SOL     OW10757   5.539   1.198   1.019  0.9800 -0.3610  0.3547
 2748SOL    HW210758   5.584   1.214   0.936 -0.0177  2.1874  0.2125
 2748SOL    HW310759   5.454   1.240   1.008 -0.2309 -2.3042  1.7575
 2748SOL    MW410760   5.534   1.205   1.006  0.2322  0.1678  0.2619
 2749SOL     OW10761   0.761   3.482   2.272  1.0499  0.1010  0.1528
 2749SOL    HW210762   0.684   3.472   2.328  0.9086 -1.0710 -0.2230
 2749SOL    HW310763   0.798   3.394   2.265  1.4255  0.3274 -1.0625
 2749SOL    MW410764   0.755   3.469   2.278  0.2142 -0.2060 -0.0648
 2750SOL     OW10765   4.197   1.348   5.128  0.2573  0.0109 -0.1328
 2750SOL    HW210766   4.194   1.380   5.038 -0.7150  0.6645  0.1236
 2750SOL    HW310767   4.150   1.265   5.125 -0.3125  0.3301 -0.1135
 2750SOL    MW410768   4.191   1.341   5.116  0.5390  0.3885 -0.3178
 2751SOL     OW10769   5.569   4.783   0.882  0.3240  0.0107 -0.1253
 2751SOL    HW210770   5.587   4.836   0.805  0.4213  1.7412  1.0275
 2751SOL    HW310771   5.480   4.809   0.909  1.3180  1.6010  1.9260
 2751SOL    MW410772   5.559   4.793   0.875  0.3080 -0.0512  0.1063
 2752SOL     OW10773   4.790   2.416   2.802  0.6597  0.2254 -0.3152
 2752SOL    HW210774   4.770   2.423   2.708 -0.1269  1.7543 -0.0653
 2752SOL    HW310775   4.739   2.340   2.831  3.4593 -2.3759 -1.7050
 2752SOL    MW410776   4.780   2.407   2.793 -0.1419 -0.2423  0.1623
 2753SOL     OW10777   3.322   5.639   5.828  0.5561  0.0618  0.6373
 2753SOL    HW210778   3.405   5.597   5.849  0.2474 -1.4360 -0.8868
 2753SOL    HW310779   3.346   5.727   5.798  1.9587 -1.1490 -2.2407
 2753SOL    MW410780   3.336   5.645   5.827 -0.3136  0.0019 -0.6856
 2754SOL     OW10781   2.150   5.866   1.289  0.1939 -0.4573  0.2336
 2754SOL    HW210782   2.082   5.888   1.225  0.2272  1.5298  0.8116
 2754SOL    HW310783   2.101   5.847   1.369  0.2084 -1.8861 -0.0717
 2754SOL    MW410784   2.135   5.867   1.291 -0.7525 -0.8629  0.1204
 2755SOL     OW10785   0.033   5.338   4.133  0.8132  0.6574 -0.5690
 2755SOL    HW210786   0.119   5.299   4.117  1.8872  2.3251  0.8060
 2755SOL    HW310787   0.018   5.394   4.057  0.9817  0.4346 -0.7695
 2755SOL    MW410788   0.043   5.340   4.121 -0.1700 -0.4335  0.3728
 2756SOL     OW10789   0.773   5.365   1.058  0.3170 -0.3653  0.5109
 2756SOL    HW210790   0.847   5.323   1.015  0.0071 -0.6762  0.2728
 2756SOL    HW310791   0.707   5.296   1.064 -0.0009 -0.0560  0.6007
 2756SOL    MW410792   0.774   5.350   1.053 -0.7573 -0.0426 -0.2924
 2757SOL     OW10793   3.989   4.964   6.291  0.3836 -0.0036 -0.1903
 2757SOL    HW210794   4.002   5.034   6.355  2.3610  0.7777 -1.3425
 2757SOL    HW310795   3.948   5.008   6.216 -0.6671 -0.6244  0.0066
 2757SOL    MW410796   3.986   4.979   6.289  0.3798  0.0203 -0.0120
 2758SOL     OW10797   0.309   3.589   2.155  0.1965 -0.2567  1.5214
 2758SOL    HW210798   0.231   3.609   2.104  1.4790 -0.4870 -0.6722
 2758SOL    HW310799   0.339   3.504   2.122  1.1403 -0.3838  2.6203
 2758SOL    MW410800   0.303   3.580   2.144 -0.3508  0.1913  0.5843
 2759SOL     OW10801   2.945   3.559   3.439 -0.2905 -0.3214  0.1774
 2759SOL    HW210802   3.028   3.594   3.473  1.1066 -0.7278 -2.5119
 2759SOL    HW310803   2.880   3.627   3.459  1.4138  1.7149 -0.7797
 2759SOL    MW410804   2.948   3.573   3.446 -0.3621  0.1180  0.2670
 2760SOL     OW10805   6.045   5.502   1.754  0.3723  0.7080  1.2014
 2760SOL    HW210806   6.054   5.408   1.772  1.9549  0.3349 -1.0305
 2760SOL    HW310807   6.003   5.505   1.668  0.8521  2.0351  1.0008
 2760SOL    MW410808   6.040   5.490   1.745 -0.5872  0.4037  0.4423
 2761SOL     OW10809   4.445   2.801   4.775  0.2121 -0.2251  0.0886
 2761SOL    HW210810   4.518   2.771   4.829  0.5234  0.6187  0.1537
 2761SOL    HW310811   4.427   2.728   4.715 -0.0193 -1.1017  1.2017
 2761SOL    MW410812   4.452   2.788   4.774  0.1339  0.1918 -0.1726
 2762SOL     OW10813   2.088   0.299   0.738 -0.2322  0.6885  0.4738
 2762SOL    HW210814   2.092   0.230   0.672  0.4795  2.5404 -1.5241
 2762SOL    HW310815   1.995   0.307   0.759 -0.3319 -0.7830  0.6956
 2762SOL    MW410816   2.076   0.291   0.732 -0.3929 -0.3995  0.3377
 2763SOL     OW10817   4.679   2.555   1.098  0.1901 -0.2312  0.5383
 2763SOL    HW210818   4.720   2.637   1.123  2.2907 -1.2264  0.6201
 2763SOL    HW310819   4.661   2.564   1.004 -0.8754  0.7858  0.8204
 2763SOL    MW410820   4.682   2.567   1.089  0.3997 -0.6187 -0.7705
 2764SOL     OW10821   2.192   0.622   4.503  0.0853 -0.5090  0.3126
 2764SOL    HW210822   2.176   0.567   4.579  1.4506 -0.7932  0.4210
 2764SOL    HW310823   2.226   0.561   4.436 -0.8612 -0.2255 -0.4435
 2764SOL    MW410824   2.195   0.607   4.504 -0.5306 -0.3897  0.0505
 2765SOL     OW10825   0.153   3.164   2.845 -0.0336 -0.2631 -0.3807
 2765SOL    HW210826   0.211   3.091   2.867  0.7158  0.6116  0.6652
 2765SOL    HW310827   0.170   3.229   2.913 -1.4449  0.4738 -0.6872
 2765SOL    MW410828   0.163   3.163   2.857 -0.1199  0.0074  0.3429
 2766SOL     OW10829   0.837   5.589   3.936  0.0554 -0.1107  0.3920
 2766SOL    HW210830   0.908   5.581   4.000  0.4105 -0.5852 -0.0547
 2766SOL    HW310831   0.880   5.578   3.851 -0.6291 -0.9903  0.1425
 2766SOL    MW410832   0.852   5.586   3.933  0.4064  0.1445  0.3631
 2767SOL     OW10833   6.316   1.222   2.384 -0.4390  0.4276  0.1299
 2767SOL    HW210834   6.375   1.296   2.368  0.3290  0.3931  2.5275
 2767SOL    HW310835   6.355   1.150   2.334 -0.9108  1.4361 -1.8224
 2767SOL    MW410836   6.329   1.222   2.375 -0.5243 -0.2771  0.6407
 2768SOL     OW10837   5.558   4.912   3.584 -0.4136  0.2154 -0.2656
 2768SOL    HW210838   5.482   4.969   3.596 -0.8855 -0.3841 -0.3739
 2768SOL    HW310839   5.522   4.824   3.582  0.1431 -0.0063 -1.6052
 2768SOL    MW410840   5.544   4.908   3.586 -0.0893 -0.0660 -0.0594
 2769SOL     OW10841   1.434   1.042   5.062  0.1748 -0.2228 -0.0591
 2769SOL    HW210842   1.521   1.006   5.046  0.6815  0.4328  1.0688
 2769SOL    HW310843   1.413   1.016   5.152 -0.8972 -0.5675 -0.3975
 2769SOL    MW410844   1.442   1.034   5.072 -0.2745  0.0751  0.1195
 2770SOL     OW10845   4.081   2.506   5.981  0.2627  0.5637 -0.8139
 2770SOL    HW210846   4.107   2.543   6.065 -0.0406 -0.6745 -0.1512
 2770SOL    HW310847   4.091   2.578   5.919 -0.4084  1.7923  0.4367
 2770SOL    MW410848   4.086   2.521   5.984  0.8333  0.4573  0.0934
 2771SOL     OW10849   0.677   0.079   5.684  0.0862 -0.0084 -0.5730
 2771SOL    HW210850   0.601   0.025   5.661 -0.0858  0.0954 -0.2415
 2771SOL    HW310851   0.642   0.149   5.739  0.4848 -0.1973 -0.0680
 2771SOL    MW410852   0.662   0.081   5.688 -0.2823 -0.7483 -0.0217
 2772SOL     OW10853   1.970   5.757   2.463 -0.8383  0.5688 -0.3617
 2772SOL    HW210854   1.946   5.817   2.533 -1.8677 -1.0677  0.7518
 2772SOL    HW310855   1.912   5.780   2.391 -0.3389  1.7232 -0.4189
 2772SOL    MW410856   1.959   5.768   2.463  0.1782  0.4373  0.3625
 2773SOL     OW10857   5.686   4.305   5.096  0.0785  0.0177 -0.5510
 2773SOL    HW210858   5.766   4.258   5.120  0.7290  1.1188 -0.4884
 2773SOL    HW310859   5.648   4.253   5.025  0.1206 -1.2432  0.3092
 2773SOL    MW410860   5.691   4.292   5.090 -0.8513  0.1621  0.2501
 2774SOL     OW10861   2.137   5.917   0.658 -0.1402  0.3770 -0.6232
 2774SOL    HW210862   2.207   5.873   0.707 -0.6296  0.5410  0.2270
 2774SOL    HW310863   2.081   5.845   0.628 -0.9153  0.3770  0.7304
 2774SOL    MW410864   2.139   5.901   0.660 -0.7639 -0.9509 -0.1360
 2775SOL     OW10865   4.075   1.322   4.351  0.5804 -0.6411  0.0545
 2775SOL    HW210866   4.144   1.275   4.304  2.0408  0.8579  0.5798
 2775SOL    HW310867   4.037   1.380   4.285 -1.3473 -2.5612 -0.6411
 2775SOL    MW410868   4.079   1.323   4.336  0.5388  0.2030  0.3928
 2776SOL     OW10869   4.683   6.425   0.803  0.0328 -0.7261 -0.4545
 2776SOL    HW210870   4.610   6.367   0.783 -1.4384  0.7074  0.5074
 2776SOL    HW310871   4.654   6.476   0.879  1.1780  1.3488 -1.3154
 2776SOL    MW410872   4.670   6.424   0.810 -0.1296 -0.3060 -0.1882
 2777SOL     OW10873   0.162   4.621   2.641 -0.6430  0.0174  0.5460
 2777SOL    HW210874   0.246   4.652   2.607 -0.4319  0.1690  1.1981
 2777SOL    HW310875   0.178   4.529   2.662 -0.6670  0.0210  0.5788
 2777SOL    MW410876   0.175   4.613   2.639  0.4517 -0.2292 -0.2728
 2778SOL     OW10877   6.329   2.111   3.221  0.5282 -0.1752 -0.1738
 2778SOL    HW210878   6.312   2.138   3.311  2.0059  2.3573 -0.5506
 2778SOL    HW310879   6.389   2.037   3.229  2.0922  1.1145  1.0159
 2778SOL    MW410880   6.335   2.105   3.234 -0.0711  0.1485 -0.3101
 2779SOL     OW10881   1.061   1.392   3.298 -0.8181  0.3950  0.2400
 2779SOL    HW210882   1.110   1.448   3.239  0.3371 -0.8864 -0.0769
 2779SOL    HW310883   1.000   1.345   3.241 -2.0312  1.5581  0.5527
 2779SOL    MW410884   1.060   1.393   3.283 -0.3430  0.0845 -0.1850
 2780SOL     OW10885   3.923   1.794   5.925  0.0578  0.6054 -0.2090
 2780SOL    HW210886   4.015   1.797   5.953  0.0844  0.6189 -0.2948
 2780SOL    HW310887   3.874   1.772   6.004  0.0936  0.9959 -0.0731
 2780SOL    MW410888   3.929   1.791   5.939  0.1833 -0.6730  0.4243
 2781SOL     OW10889   5.934   3.888   5.135  0.3236 -0.1582  0.1153
 2781SOL    HW210890   5.955   3.900   5.042 -1.1405  0.1924 -0.2116
 2781SOL    HW310891   6.018   3.875   5.178  1.1330  0.8164 -1.1054
 2781SOL    MW410892   5.948   3.888   5.128 -0.0120  0.4209 -0.4790
 2782SOL     OW10893   2.929   1.415   4.638 -0.3644  0.3345  0.0538
 2782SOL    HW210894   2.866   1.395   4.708  1.3132 -0.5107  1.3860
 2782SOL    HW310895   3.013   1.426   4.682  0.7212  0.0461 -1.8028
 2782SOL    MW410896   2.932   1.414   4.653 -0.5285 -0.3913 -0.6408
 2783SOL     OW10897   5.408   6.296   0.065  0.1099 -0.0080  0.5246
 2783SOL    HW210898   5.478   6.232   0.078  0.7911  0.7781  0.8403
 2783SOL    HW310899   5.334   6.245   0.032  1.0798 -0.7475 -0.5993
 2783SOL    MW410900   5.408   6.281   0.062  0.9642  0.0182 -0.1963
 2784SOL     OW10901   2.428   5.244   0.765  0.2112 -0.1927  0.3501
 2784SOL    HW210902   2.424   5.246   0.860  0.2370 -1.9512  0.4287
 2784SOL    HW310903   2.344   5.280   0.737 -0.7357 -1.7171  1.1150
 2784SOL    MW410904   2.416   5.249   0.774 -0.1142 -0.1126 -0.3314
 2785SOL     OW10905   5.642   5.783   2.095  0.4031 -0.1586 -0.3726
 2785SOL    HW210906   5.731   5.812   2.115 -0.0294 -0.9159  3.1741
 2785SOL    HW310907   5.586   5.852   2.129 -0.4427 -2.2050  2.7321
 2785SOL    MW410908   5.647   5.796   2.102  0.1998  0.1857  0.2762
 2786SOL     OW10909   1.402   4.268   5.574  0.3013  0.0590  0.7180
 2786SOL    HW210910   1.328   4.323   5.549  2.7321  2.5760 -1.7492
 2786SOL    HW310911   1.385   4.184   5.532 -1.9689 -0.1098  1.8192
 2786SOL    MW410912   1.390   4.264   5.565  0.1252  0.1701  0.2870
 2787SOL     OW10913   2.735   5.315   1.309 -0.0950 -0.0720 -0.6684
 2787SOL    HW210914   2.647   5.279   1.305  0.4241 -1.3117 -1.6054
 2787SOL    HW310915   2.738   5.379   1.237 -0.6247  0.9628  0.2050
 2787SOL    MW410916   2.724   5.319   1.299  0.3111 -0.3281 -0.1071
 2788SOL     OW10917   0.364   6.084   0.687  0.4119 -0.0345  0.3337
 2788SOL    HW210918   0.447   6.082   0.639  0.3686  2.3680 -0.0006
 2788SOL    HW310919   0.386   6.130   0.769 -0.7005  1.4287 -0.1384
 2788SOL    MW410920   0.378   6.090   0.692 -0.1253 -0.4490  0.2156
 2789SOL     OW10921   4.757   3.107   3.820  0.0460 -0.3099  0.0965
 2789SOL    HW210922   4.767   3.162   3.742 -2.7517  2.1155  1.2410
 2789SOL    HW310923   4.745   3.019   3.785  1.7351  0.2075 -2.0211
 2789SOL    MW410924   4.757   3.103   3.805  0.4595 -0.1451  0.2026
 2790SOL     OW10925   4.143   6.236   1.976 -0.2376  0.0421 -0.1174
 2790SOL    HW210926   4.147   6.322   2.017 -2.9054 -0.3923  1.3005
 2790SOL    HW310927   4.234   6.204   1.979  0.5096  2.0694  0.9316
 2790SOL    MW410928   4.156   6.243   1.982  0.5285  0.5063  0.5970
 2791SOL     OW10929   6.014   1.111   0.526  0.2496 -0.2469 -0.3508
 2791SOL    HW210930   6.040   1.202   0.545  2.4692 -1.1211  1.2685
 2791SOL    HW310931   6.005   1.108   0.431  0.1852  1.6424 -0.4459
 2791SOL    MW410932   6.016   1.123   0.516  0.2784 -0.4057  0.4244
 2792SOL     OW10933   5.411   3.771   1.083 -0.1810  0.1647  0.9013
 2792SOL    HW210934   5.365   3.808   1.159 -0.8271 -0.3909  0.7925
 2792SOL    HW310935   5.445   3.847   1.036 -1.5164  0.6339  0.6612
 2792SOL    MW410936   5.409   3.786   1.087 -0.1320 -0.3198 -0.3910
 2793SOL     OW10937   5.422   2.179   3.711  0.1013 -0.4491  0.4364
 2793SOL    HW210938   5.435   2.095   3.666 -2.0201 -0.3699 -0.4309
 2793SOL    HW310939   5.485   2.238   3.670 -1.2258 -0.5883 -1.9276
 2793SOL    MW410940   5.432   2.176   3.700 -0.3735 -0.0702 -0.3358
 2794SOL     OW10941   2.286   4.990   0.734 -0.0714  0.1953  0.7343
 2794SOL    HW210942   2.236   4.979   0.653  0.5931 -0.4927  0.3936
 2794SOL    HW310943   2.323   5.078   0.727  1.6316 -0.5490 -0.7261
 2794SOL    MW410944   2.285   5.000   0.722 -0.0412 -0.1511 -0.8553
 2795SOL     OW10945   3.292   0.074   3.961  0.2846  0.1520  0.0497
 2795SOL    HW210946   3.248   0.027   4.032  1.5732  0.0178  0.7864
 2795SOL    HW310947   3.282   0.167   3.984 -1.0127  0.2102 -0.6551
 2795SOL    MW410948   3.285   0.080   3.974  0.4096 -0.4129 -0.0518
 2796SOL     OW10949   1.770   3.938   5.429 -0.7794 -0.2558  0.1546
 2796SOL    HW210950   1.789   3.866   5.369 -3.0014 -0.9259  0.1664
 2796SOL    HW310951   1.768   4.016   5.372  4.6794  0.5509  0.5394
 2796SOL    MW410952   1.772   3.939   5.413  0.1258 -0.6211 -0.3003
 2797SOL     OW10953   0.237   2.187   3.786  0.5401 -0.1124 -0.2553
 2797SOL    HW210954   0.160   2.242   3.796  0.7911  0.4190 -1.1854
 2797SOL    HW310955   0.244   2.171   3.692  1.7388  0.1269 -0.2312
 2797SOL    MW410956   0.228   2.192   3.775 -0.1222 -0.2491  0.3122
 2798SOL     OW10957   1.877   1.587   0.512 -0.5553  0.4196 -0.0979
 2798SOL    HW210958   1.891   1.619   0.423 -0.5515 -0.3781 -0.3957
 2798SOL    HW310959   1.965   1.583   0.550  0.0307 -2.9950 -1.4088
 2798SOL    MW410960   1.890   1.591   0.505  0.0206 -0.2268  0.1110
 2799SOL     OW10961   2.374   0.055   3.776 -0.2892 -0.5455  0.3011
 2799SOL    HW210962   2.359   0.103   3.858  0.2118  1.3778 -0.6588
 2799SOL    HW310963   2.451   0.001   3.793  0.1815  0.2932  0.9182
 2799SOL    MW410964   2.382   0.054   3.789  0.0731 -0.1949 -0.1723
 2800SOL     OW10965   5.178   0.901   0.118  0.2575 -0.0598  0.0051
 2800SOL    HW210966   5.109   0.839   0.142 -0.4702 -0.0584 -1.9356
 2800SOL    HW310967   5.256   0.867   0.162 -0.5341 -1.2426  0.5514
 2800SOL    MW410968   5.179   0.888   0.127  0.1399  0.1562  0.4540
 2801SOL     OW10969   5.561   6.372   1.964  0.5338  0.5500 -0.3512
 2801SOL    HW210970   5.533   6.283   1.943  0.9977  0.0937  0.8413
 2801SOL    HW310971   5.650   6.361   1.996 -0.2452  1.0854  2.1994
 2801SOL    MW410972   5.569   6.359   1.966 -0.3457 -0.5495 -0.4612
 2802SOL     OW10973   1.630   4.522   1.760  0.4706  0.2946  0.1490
 2802SOL    HW210974   1.715   4.523   1.805  0.1133  0.0153  0.8567
 2802SOL    HW310975   1.615   4.613   1.735  1.7268  0.1023 -1.4754
 2802SOL    MW410976   1.640   4.534   1.763  0.0985  0.0788 -0.3774
 2803SOL     OW10977   0.133   3.894   2.963 -0.4655 -0.1183 -0.0137
 2803SOL    HW210978   0.098   3.982   2.979 -0.4425 -0.0560 -0.3057
 2803SOL    HW310979   0.167   3.867   3.048 -0.2428  0.2577  0.0207
 2803SOL    MW410980   0.133   3.902   2.977  0.2305  0.0567  0.1323
 2804SOL     OW10981   2.042   5.067   4.144 -0.1562  0.0095  0.0253
 2804SOL    HW210982   2.121   5.014   4.159 -0.2395 -0.4425 -1.0683
 2804SOL    HW310983   2.001   5.028   4.068 -0.9463  0.8339  0.0128
 2804SOL    MW410984   2.047   5.055   4.136 -0.2123  0.1223 -0.7216
 2805SOL     OW10985   6.063   4.848   5.108 -0.2382  0.3048 -0.0610
 2805SOL    HW210986   6.151   4.884   5.111 -0.5501  1.0212  1.0192
 2805SOL    HW310987   6.049   4.811   5.195 -0.8097 -0.3059 -0.3974
 2805SOL    MW410988   6.072   4.848   5.120 -0.0294 -0.1217  0.5854
 2806SOL     OW10989   5.030   3.007   5.510  0.7338 -0.4398 -0.4607
 2806SOL    HW210990   5.055   3.058   5.587 -2.1110 -0.4009  0.5921
 2806SOL    HW310991   4.972   3.065   5.461 -1.5300 -2.0436  0.0947
 2806SOL    MW410992   5.025   3.021   5.514  0.4667 -0.5230 -0.1143
 2807SOL     OW10993   6.035   5.223   0.969  0.1772 -0.0590 -0.6756
 2807SOL    HW210994   6.024   5.193   0.878 -1.6440 -0.3255 -0.4069
 2807SOL    HW310995   5.951   5.205   1.010  0.3415  1.7927  0.5771
 2807SOL    MW410996   6.023   5.217   0.962 -0.1804 -0.2417  0.0400
 2808SOL     OW10997   1.536   4.708   2.573 -0.5623  0.2487 -0.0081
 2808SOL    HW210998   1.611   4.660   2.538 -0.6051  1.1566 -1.4388
 2808SOL    HW310999   1.524   4.673   2.662  0.1212 -1.5151 -0.5617
 2808SOL    MW411000   1.544   4.697   2.580 -0.1571 -0.0262 -0.2529
 2809SOL     OW11001   3.820   3.364   0.622  0.1084  0.1684  0.1061
 2809SOL    HW211002   3.781   3.437   0.670 -1.1702  0.0290 -0.6701
 2809SOL    HW311003   3.869   3.314   0.688 -1.4417  0.0880  1.2386
 2809SOL    MW411004   3.821   3.367   0.637  0.1103 -0.0600 -0.6078
 2810SOL     OW11005   0.635   1.509   1.837  0.0115 -0.7784  0.6667
 2810SOL    HW211006   0.568   1.577   1.842  0.1603 -0.6222  0.5278
 2810SOL    HW311007   0.666   1.499   1.927 -0.4961 -1.1519  0.8085
 2810SOL    MW411008   0.630   1.516   1.849  0.3440  0.1852 -0.3659
 2811SOL     OW11009   1.822   2.300   3.165 -0.6015  0.6236 -0.1150
 2811SOL    HW211010   1.893   2.289   3.101 -0.7751  0.7023 -0.3217
 2811SOL    HW311011   1.773   2.218   3.161 -1.9947  1.4719 -1.7772
 2811SOL    MW411012   1.825   2.288   3.156 -0.1281  0.2366 -0.0983
 2812SOL     OW11013   3.008   4.097   6.422 -0.2723  0.0721 -0.2093
 2812SOL    HW211014   3.063   4.082   6.499 -2.2892 -1.0275  1.1076
 2812SOL    HW311015   2.981   4.010   6.394 -2.5267  0.5720  0.1632
 2812SOL    MW411016   3.011   4.084   6.429 -0.0836  0.2641 -0.1564
 2813SOL     OW11017   2.306   4.596   1.092  0.8859 -0.3213  0.5243
 2813SOL    HW211018   2.373   4.654   1.129  1.3736 -0.4371 -0.1484
 2813SOL    HW311019   2.250   4.655   1.041 -1.6276  0.3557  3.7933
 2813SOL    MW411020   2.308   4.611   1.090  0.5926 -0.1272 -0.5960
 2814SOL     OW11021   0.288   3.294   0.076  0.0504  0.0728  0.4388
 2814SOL    HW211022   0.200   3.322   0.100  0.2969  1.3606 -0.0282
 2814SOL    HW311023   0.277   3.210   0.033 -0.7547 -0.6151  1.9345
 2814SOL    MW411024   0.275   3.287   0.074 -0.2778  0.2039 -0.2178
 2815SOL     OW11025   1.078   5.035   5.256 -0.0627 -0.1745 -0.3208
 2815SOL    HW211026   1.091   5.023   5.162  1.6832  1.1240 -0.3072
 2815SOL    HW311027   1.006   5.097   5.263  0.4678  0.5167 -0.8625
 2815SOL    MW411028   1.071   5.042   5.244 -0.0607  0.0118 -0.1139
 2816SOL     OW11029   3.883   3.046   1.046 -0.3445 -0.4279  0.2224
 2816SOL    HW211030   3.850   3.027   1.134  1.3241 -0.1215  0.9483
 2816SOL    HW311031   3.875   2.962   1.000  1.8384 -1.5582  1.7200
 2816SOL    MW411032   3.877   3.032   1.052  0.4783 -0.5071 -0.2457
 2817SOL     OW11033   0.912   1.220   3.139 -0.5314  0.2201 -0.8760
 2817SOL    HW211034   0.882   1.139   3.181 -0.5034  0.2487 -0.8011
 2817SOL    HW311035   0.834   1.275   3.133 -0.2454  0.8556  0.5793
 2817SOL    MW411036   0.898   1.217   3.144  0.2571 -0.4322  0.3841
 2818SOL     OW11037   6.380   5.295   1.005  0.0207 -0.4632  0.0638
 2818SOL    HW211038   6.325   5.312   1.081 -0.4897 -0.6279 -0.2613
 2818SOL    HW311039   6.318   5.279   0.934  0.4773 -2.5473  0.0914
 2818SOL    MW411040   6.364   5.295   1.005  0.2465  0.3153 -0.0151
 2819SOL     OW11041   5.957   0.666   0.526  0.1783 -0.2085 -0.5690
 2819SOL    HW211042   5.864   0.671   0.502 -0.1476 -2.5131 -0.0039
 2819SOL    HW311043   5.969   0.736   0.590 -1.4559 -0.5272  0.1395
 2819SOL    MW411044   5.946   0.676   0.531 -0.3712 -0.5528  0.1298
 2820SOL     OW11045   2.868   5.495   4.856  0.2877  0.0590 -0.2839
 2820SOL    HW211046   2.923   5.418   4.842 -1.2400 -0.8296 -1.8337
 2820SOL    HW311047   2.785   5.459   4.887 -1.1630  0.8046 -3.0385
 2820SOL    MW411048   2.864   5.480   4.858 -0.1263  0.1753 -0.1835
 2821SOL     OW11049   3.902   4.569   2.775 -0.4810 -0.0465  0.2001
 2821SOL    HW211050   3.958   4.545   2.701 -1.2103  1.1165 -0.7767
 2821SOL    HW311051   3.917   4.500   2.840  0.4153 -0.9387 -0.9024
 2821SOL    MW411052   3.911   4.556   2.774 -0.2522 -0.2671 -0.1667
 2822SOL     OW11053   5.893   1.155   1.189 -0.3807  0.2658  0.2993
 2822SOL    HW211054   5.812   1.105   1.188 -1.2232  1.3983  2.5804
 2822SOL    HW311055   5.867   1.242   1.156 -0.4783  0.9993  2.1428
 2822SOL    MW411056   5.879   1.160   1.185 -0.0692 -0.0220 -0.5096
 2823SOL     OW11057   6.431   2.245   0.318 -0.5505 -0.4106 -0.7596
 2823SOL    HW211058   6.387   2.293   0.248 -1.7352 -1.4048 -0.7250
 2823SOL    HW311059   6.444   2.310   0.387 -0.4812  0.2825 -1.4169
 2823SOL    MW411060   6.427   2.260   0.318 -0.1520 -0.1657 -0.0136
 2824SOL     OW11061   4.591   1.850   6.411 -0.1369  0.0064  0.7751
 2824SOL    HW211062   4.530   1.861   6.484  0.4563  1.2035  1.1224
 2824SOL    HW311063   4.592   1.755   6.394 -1.6027 -0.0944  1.1569
 2824SOL    MW411064   4.583   1.839   6.418 -0.1540 -0.0150  0.3559
 2825SOL     OW11065   3.138   5.546   0.444 -0.1627  0.3790  0.0971
 2825SOL    HW211066   3.193   5.596   0.384  0.6269  0.2685  0.7225
 2825SOL    HW311067   3.076   5.501   0.386  0.7407  0.0787 -0.6645
 2825SOL    MW411068   3.137   5.547   0.428  0.1550 -0.0916  0.3294
 2826SOL     OW11069   5.283   6.365   0.697 -0.4437  0.4214  0.5792
 2826SOL    HW211070   5.231   6.445   0.683 -0.2276  0.3796 -0.5230
 2826SOL    HW311071   5.217   6.296   0.705 -0.5823  0.4239 -0.4402
 2826SOL    MW411072   5.267   6.367   0.697  1.2360 -0.1374  0.1543
 2827SOL     OW11073   1.734   6.112   3.134  0.4463  0.2509  0.1916
 2827SOL    HW211074   1.688   6.181   3.086  0.7808 -0.0859 -0.6313
 2827SOL    HW311075   1.776   6.157   3.207 -3.1091  0.2595  2.4569
 2827SOL    MW411076   1.733   6.127   3.137  0.4530  0.0430  0.3268
 2828SOL     OW11077   0.194   1.632   2.968 -0.0888  0.0157  0.0888
 2828SOL    HW211078   0.238   1.634   2.883  0.8058  1.1202  0.5550
 2828SOL    HW311079   0.116   1.579   2.953  0.5964 -0.6839 -1.1533
 2828SOL    MW411080   0.189   1.625   2.954 -0.0018 -0.7845  0.4017
 2829SOL     OW11081   3.520   0.602   1.461 -0.2275 -0.3789  0.5400
 2829SOL    HW211082   3.426   0.608   1.446 -0.0525 -0.5282 -0.6892
 2829SOL    HW311083   3.550   0.536   1.400  0.7706  0.1043  0.4918
 2829SOL    MW411084   3.511   0.594   1.451  0.6527  0.3694  0.8347
 2830SOL     OW11085   3.771   5.317   0.427  0.1703 -0.0699  0.2299
 2830SOL    HW211086   3.742   5.260   0.499 -1.5452  1.4769  0.8475
 2830SOL    HW311087   3.690   5.344   0.384  0.8607  2.0751  0.1453
 2830SOL    MW411088   3.756   5.313   0.431  0.5796  0.9615  0.0398
 2831SOL     OW11089   4.723   2.577   0.530 -0.4579  0.0124  0.0631
 2831SOL    HW211090   4.652   2.588   0.467 -1.6459  1.7199  1.6020
 2831SOL    HW311091   4.772   2.659   0.525  0.6663 -0.6363 -0.0386
 2831SOL    MW411092   4.720   2.589   0.521  0.0009 -0.0523 -0.4160
 2832SOL     OW11093   5.220   5.831   5.037  0.1141  0.0987  0.0201
 2832SOL    HW211094   5.276   5.833   5.115 -0.1391 -2.9205  0.4103
 2832SOL    HW311095   5.135   5.802   5.070 -0.6359  0.9827 -1.0962
 2832SOL    MW411096   5.216   5.828   5.052  0.0809 -0.6289  0.0436
 2833SOL     OW11097   2.790   4.099   1.414 -0.3464  0.4470  0.3905
 2833SOL    HW211098   2.843   4.142   1.346 -1.4893 -0.0418 -0.8698
 2833SOL    HW311099   2.700   4.113   1.386 -0.7911 -2.1685  0.2652
 2833SOL    MW411100   2.785   4.106   1.401  0.4371  0.0895 -0.2881
 2834SOL     OW11101   3.672   4.478   0.411 -0.0155 -0.4841  0.3317
 2834SOL    HW211102   3.646   4.569   0.425 -0.9004 -0.4521 -1.3375
 2834SOL    HW311103   3.657   4.462   0.318 -0.7525 -2.6132  0.7584
 2834SOL    MW411104   3.667   4.488   0.401 -0.3378 -0.2022 -0.1065
 2835SOL     OW11105   3.022   1.806   5.720  0.2316 -0.1600 -0.0567
 2835SOL    HW211106   3.105   1.758   5.718 -0.1922 -0.9161 -0.1964
 2835SOL    HW311107   2.976   1.778   5.641 -0.8395 -1.0396  0.8344
 2835SOL    MW411108   3.027   1.796   5.709 -0.4628  0.1656 -0.3560
 2836SOL     OW11109   6.191   5.582   0.670 -0.2063 -0.0497 -0.2697
 2836SOL    HW211110   6.266   5.612   0.722 -1.3907  0.7061  1.0740
 2836SOL    HW311111   6.169   5.496   0.706 -0.7603  0.2880  0.2240
 2836SOL    MW411112   6.198   5.575   0.682 -0.5162 -0.0653  0.3961
 2837SOL     OW11113   0.640   4.149   1.065 -0.0978 -0.3869 -0.1204
 2837SOL    HW211114   0.691   4.148   1.146 -2.4235  0.8906  1.4995
 2837SOL    HW311115   0.663   4.231   1.023 -0.9560  0.3274  0.7548
 2837SOL    MW411116   0.650   4.159   1.070 -0.0514  0.5685  0.1498
 2838SOL     OW11117   1.850   0.770   2.168  0.1443  0.2107 -0.2064
 2838SOL    HW211118   1.849   0.674   2.168 -0.4059  0.0965 -3.6654
 2838SOL    HW311119   1.767   0.795   2.208  0.4106 -0.7286  0.9758
 2838SOL    MW411120   1.839   0.761   2.173 -0.5099 -0.1126  0.7428
 2839SOL     OW11121   3.047   3.921   2.062 -0.2550  0.1174  0.6828
 2839SOL    HW211122   3.110   3.976   2.109 -0.8646  0.6470  0.8904
 2839SOL    HW311123   2.988   3.983   2.019 -1.3035 -0.3588  1.3813
 2839SOL    MW411124   3.048   3.937   2.063 -0.0426 -0.3382 -0.6653
 2840SOL     OW11125   5.039   5.018   0.421  0.2394  0.3547 -0.0776
 2840SOL    HW211126   4.974   4.992   0.357  1.2610 -1.0487 -0.6027
 2840SOL    HW311127   5.109   5.058   0.370  0.0802  1.3087  0.4191
 2840SOL    MW411128   5.040   5.020   0.406  0.5023  0.6580 -0.0868
 2841SOL     OW11129   4.422   5.348   4.015 -0.6075 -0.1056 -0.0569
 2841SOL    HW211130   4.412   5.416   4.082  0.1273 -0.6684  0.6602
 2841SOL    HW311131   4.344   5.294   4.023 -0.9574  0.3643 -0.2877
 2841SOL    MW411132   4.411   5.350   4.025  1.2173 -0.2782  0.8992
 2842SOL     OW11133   6.360   2.227   1.396  0.7333 -0.2116 -0.0995
 2842SOL    HW211134   6.348   2.213   1.490 -0.9028 -0.3024 -0.3025
 2842SOL    HW311135   6.426   2.296   1.391 -0.0237  0.6457  1.1519
 2842SOL    MW411136   6.367   2.234   1.408  0.1489  0.0213  0.0486
 2843SOL     OW11137   5.393   2.334   5.294 -0.2943  0.2728  0.1308
 2843SOL    HW211138   5.419   2.389   5.220 -0.1697  1.1063  0.7837
 2843SOL    HW311139   5.457   2.354   5.362 -0.1116 -0.8536  0.3126
 2843SOL    MW411140   5.405   2.344   5.293 -0.6196 -0.2242 -0.3018
 2844SOL     OW11141   5.910   0.421   2.779 -0.5092 -0.4734  0.0226
 2844SOL    HW211142   5.905   0.378   2.864  1.5644  0.7679  0.8413
 2844SOL    HW311143   5.916   0.514   2.799 -3.0731  0.1458 -1.6511
 2844SOL    MW411144   5.910   0.427   2.793  0.1925  0.1330  0.1161
 2845SOL     OW11145   2.782   0.774   4.072  0.2406  0.5735 -0.1838
 2845SOL    HW211146   2.855   0.719   4.098 -0.2605 -0.0487 -0.0618
 2845SOL    HW311147   2.796   0.791   3.979  1.5174  2.0025  0.2368
 2845SOL    MW411148   2.793   0.769   4.063 -0.2082 -0.1498  0.3046
 2846SOL     OW11149   3.533   3.804   1.560 -0.1731  0.0248  0.1771
 2846SOL    HW211150   3.445   3.834   1.538 -0.4945 -1.5120 -0.8151
 2846SOL    HW311151   3.523   3.709   1.569  0.7819  0.1291  3.1052
 2846SOL    MW411152   3.520   3.795   1.558 -0.4462  0.2812  0.9299
 2847SOL     OW11153   1.878   3.218   3.367  0.2989 -0.5041 -0.2230
 2847SOL    HW211154   1.790   3.179   3.367  0.4683 -1.0815  2.3292
 2847SOL    HW311155   1.922   3.177   3.441  1.8051  1.7821  0.2434
 2847SOL    MW411156   1.872   3.208   3.377 -0.4607  0.7683 -0.1060
 2848SOL     OW11157   0.977   3.036   3.623 -0.3394  0.5100 -0.0469
 2848SOL    HW211158   1.035   2.961   3.612  0.2997  0.8593  0.7225
 2848SOL    HW311159   0.980   3.054   3.717 -2.3794  0.0333  0.1429
 2848SOL    MW411160   0.985   3.029   3.634  0.8986 -0.6003 -0.7097
 2849SOL     OW11161   5.841   2.855   4.646  0.1841 -0.3176 -0.4457
 2849SOL    HW211162   5.915   2.807   4.684  1.0637  1.5416  0.3411
 2849SOL    HW311163   5.872   2.946   4.642 -1.9827  0.4770 -0.3091
 2849SOL    MW411164   5.855   2.861   4.651  0.0634  0.1662 -0.0774
 2850SOL     OW11165   5.170   0.886   3.826  0.1281 -0.1579 -0.4065
 2850SOL    HW211166   5.148   0.830   3.901  1.7076  0.0651  0.2613
 2850SOL    HW311167   5.247   0.845   3.787  0.5407  0.8303 -0.6651
 2850SOL    MW411168   5.177   0.874   3.831  0.0653 -0.3182  0.2371
 2851SOL     OW11169   1.669   4.517   0.872  0.4050  0.3192 -0.0673
 2851SOL    HW211170   1.663   4.609   0.898  1.5517  0.3372  0.1899
 2851SOL    HW311171   1.763   4.499   0.869  0.1922 -0.9683  0.3290
 2851SOL    MW411172   1.681   4.526   0.875 -0.2249  0.4024 -0.2270
 2852SOL     OW11173   5.079   0.111   0.649  0.4910 -0.2900  0.0579
 2852SOL    HW211174   5.007   0.049   0.642  1.5733 -1.4455 -2.0436
 2852SOL    HW311175   5.042   0.186   0.695 -1.8102 -1.1615 -0.2331
 2852SOL    MW411176   5.065   0.113   0.654 -0.3862  0.6145 -0.0846
 2853SOL     OW11177   0.775   1.209   2.369 -0.2902  0.0491  0.0229
 2853SOL    HW211178   0.724   1.129   2.384  0.7768 -0.4782  0.9884
 2853SOL    HW311179   0.715   1.280   2.390 -0.8775 -0.5230  0.3334
 2853SOL    MW411180   0.760   1.208   2.374  0.1859 -0.2093  0.6189
 2854SOL     OW11181   1.052   0.019   2.977  0.1050  0.4072 -0.3458
 2854SOL    HW211182   1.056   0.009   2.882  1.2192 -1.4758 -0.1422
 2854SOL    HW311183   1.044  -0.070   3.010 -0.8293  1.0694  1.3269
 2854SOL    MW411184   1.051   0.006   2.969  0.5558  0.6827  0.8367
 2855SOL     OW11185   4.463   3.330   2.166  0.0969 -0.4511  0.5228
 2855SOL    HW211186   4.383   3.366   2.204  1.4675  3.1640  0.4226
 2855SOL    HW311187   4.446   3.328   2.072  0.4424  1.5275  0.3710
 2855SOL    MW411188   4.450   3.334   2.159  0.2927 -0.3603 -0.0829
 2856SOL     OW11189   0.041   0.374   0.943 -0.3288 -0.4188  0.0988
 2856SOL    HW211190   0.136   0.363   0.947 -0.0804  1.4935  0.5828
 2856SOL    HW311191   0.009   0.333   1.023 -0.0005 -1.6168 -0.3597
 2856SOL    MW411192   0.049   0.367   0.954  0.3406 -0.1376  0.3414
 2857SOL     OW11193   5.788   2.772   0.423  0.7127  0.3029  0.7120
 2857SOL    HW211194   5.831   2.849   0.386 -0.3504  1.6749  2.2068
 2857SOL    HW311195   5.819   2.767   0.513 -0.6303  0.0932  1.1915
 2857SOL    MW411196   5.797   2.781   0.430  0.0164  0.1489 -0.3136
 2858SOL     OW11197   4.724   3.239   6.078 -0.2226 -0.0020  0.6337
 2858SOL    HW211198   4.781   3.253   6.002 -1.2336 -0.9933 -0.3405
 2858SOL    HW311199   4.658   3.308   6.073 -1.3329 -1.0943 -0.4338
 2858SOL    MW411200   4.723   3.250   6.068  0.6688 -0.4027  0.1069
 2859SOL     OW11201   5.668   4.726   3.852  0.2026 -0.4310  0.1292
 2859SOL    HW211202   5.614   4.663   3.804 -1.5056  2.0716 -1.4570
 2859SOL    HW311203   5.737   4.751   3.791 -0.1027  0.4453  0.1411
 2859SOL    MW411204   5.670   4.721   3.838  0.3601  0.3771 -0.5719
 2860SOL     OW11205   1.545   5.734   4.915 -0.0349 -0.2198  0.6930
 2860SOL    HW211206   1.580   5.660   4.966 -2.0177 -1.7886 -0.0789
 2860SOL    HW311207   1.482   5.694   4.856 -0.1478  1.9661 -0.7645
 2860SOL    MW411208   1.541   5.719   4.914  0.5127  0.4456 -0.1801
 2861SOL     OW11209   2.106   2.311   6.278 -0.3544 -0.4947  0.3412
 2861SOL    HW211210   2.186   2.271   6.243 -0.4567 -0.6807  0.3198
 2861SOL    HW311211   2.066   2.354   6.202  0.4690  0.8530  0.6302
 2861SOL    MW411212   2.111   2.312   6.264  0.2072  0.1425  0.3491
 2862SOL     OW11213   3.278   0.618   2.419 -0.4920  0.3904 -0.0403
 2862SOL    HW211214   3.188   0.649   2.429 -0.4006  0.2174  1.4269
 2862SOL    HW311215   3.279   0.533   2.462  0.0990 -0.1683 -1.1020
 2862SOL    MW411216   3.266   0.611   2.426 -0.2446 -0.3708 -0.6966
 2863SOL     OW11217   4.202   3.716   4.109  0.0858  0.1504  0.5540
 2863SOL    HW211218   4.269   3.764   4.158  1.4354 -0.0394 -1.0151
 2863SOL    HW311219   4.181   3.641   4.165  3.6780 -1.6677 -0.2052
 2863SOL    MW411220   4.208   3.713   4.123  0.6582 -0.0950  0.2557
 2864SOL     OW11221   4.033   6.133   4.364 -0.4464 -0.2298  0.3737
 2864SOL    HW211222   3.976   6.130   4.287  0.3454 -0.2706 -0.2095
 2864SOL    HW311223   4.089   6.209   4.350 -2.1058  1.4615  2.2012
 2864SOL    MW411224   4.033   6.143   4.352 -0.1997  0.0522 -0.4049
 2865SOL     OW11225   3.857   0.919   2.592 -0.2031 -0.0592  0.2487
 2865SOL    HW211226   3.836   0.955   2.506  1.7475 -0.2190 -0.3555
 2865SOL    HW311227   3.775   0.882   2.623 -1.2020  0.9174 -1.0839
 2865SOL    MW411228   3.843   0.919   2.584 -0.2215 -0.3905  0.4761
 2866SOL     OW11229   1.616   1.052   3.983 -0.3667 -0.4153 -0.4566
 2866SOL    HW211230   1.627   1.060   4.077 -1.5782 -0.6537 -0.2716
 2866SOL    HW311231   1.665   1.126   3.946 -0.2273 -0.0814  0.3785
 2866SOL    MW411232   1.624   1.063   3.990 -0.0035  0.4933  0.0875
 2867SOL     OW11233   0.063   3.082   2.416  0.0131 -0.1208  0.0758
 2867SOL    HW211234   0.018   3.158   2.453  0.7813  0.6833 -0.5926
 2867SOL    HW311235   0.034   3.009   2.469 -0.6022  0.6712  0.8601
 2867SOL    MW411236   0.054   3.083   2.427  0.2505  0.5051 -0.2262
 2868SOL     OW11237   6.342   4.359   1.568  0.2141 -0.2918  0.1421
 2868SOL    HW211238   6.326   4.319   1.654  2.2074 -2.0902 -0.2561
 2868SOL    HW311239   6.317   4.451   1.580 -2.2416 -1.0584  1.8024
 2868SOL    MW411240   6.336   4.366   1.581 -0.4939 -0.2110 -0.5125
 2869SOL     OW11241   4.659   3.451   4.271 -0.0601  0.2081 -0.0119
 2869SOL    HW211242   4.591   3.426   4.209 -0.0115  1.4882 -0.6223
 2869SOL    HW311243   4.653   3.386   4.341 -2.0738  0.4313  0.0749
 2869SOL    MW411244   4.649   3.439   4.272  0.7644 -0.0153 -0.1830
 2870SOL     OW11245   0.843   1.596   1.110 -0.3211 -0.1327  0.4782
 2870SOL    HW211246   0.779   1.633   1.170  0.3276  0.0548  1.0639
 2870SOL    HW311247   0.800   1.518   1.074 -1.2174  0.4910  0.1740
 2870SOL    MW411248   0.829   1.591   1.113 -0.7354 -0.1052  0.1005
 2871SOL     OW11249   0.635   4.788   2.892 -0.7176 -0.0215 -0.2091
 2871SOL    HW211250   0.614   4.810   2.801  1.3976  0.4101 -0.6329
 2871SOL    HW311251   0.581   4.711   2.911 -2.5911  0.9731 -1.1902
 2871SOL    MW411252   0.625   4.781   2.882  0.4416 -0.1624 -0.9102
 2872SOL     OW11253   4.769   2.102   1.053 -0.1486  0.3147  0.0946
 2872SOL    HW211254   4.760   2.150   1.135  0.6614  0.2782  0.2046
 2872SOL    HW311255   4.808   2.018   1.077 -2.6241 -0.9432  0.0750
 2872SOL    MW411256   4.773   2.097   1.067  0.3555 -0.1504 -0.0546
 2873SOL     OW11257   4.041   0.263   1.799  0.2616 -0.7249  0.1451
 2873SOL    HW211258   4.119   0.241   1.850  0.1792  0.3597  0.7790
 2873SOL    HW311259   3.968   0.229   1.851  0.1548  0.6668  0.9759
 2873SOL    MW411260   4.042   0.256   1.812  0.6049 -0.0314 -0.1242
 2874SOL     OW11261   0.192   1.693   6.132  0.4160 -0.2596  0.2586
 2874SOL    HW211262   0.256   1.704   6.202  0.5946 -1.6197  0.3253
 2874SOL    HW311263   0.121   1.754   6.155  1.0869  0.3147  0.8659
 2874SOL    MW411264   0.191   1.703   6.144  0.5637  0.2208 -0.1367
 2875SOL     OW11265   1.498   0.501   2.328 -0.2312 -0.3440  0.0382
 2875SOL    HW211266   1.443   0.424   2.312  1.0450 -0.9092 -1.9171
 2875SOL    HW311267   1.460   0.570   2.273 -0.2124 -0.1325  0.2878
 2875SOL    MW411268   1.485   0.500   2.319  0.2710  0.4742  0.4120
 2876SOL     OW11269   3.502   2.176   1.903 -0.3139  0.2426 -0.0218
 2876SOL    HW211270   3.538   2.128   1.977 -0.7242 -1.1983 -0.7065
 2876SOL    HW311271   3.497   2.111   1.833 -0.8788  1.3092 -1.0052
 2876SOL    MW411272   3.506   2.161   1.903 -0.1430  0.2091  0.0971
 2877SOL     OW11273   1.918   4.432   3.202  0.4197 -0.5252 -0.1491
 2877SOL    HW211274   1.901   4.399   3.114 -0.4986  0.3057 -0.3043
 2877SOL    HW311275   1.946   4.356   3.252 -0.5657 -1.3134 -0.7709
 2877SOL    MW411276   1.920   4.418   3.197  0.2473  0.4475 -0.4114
 2878SOL     OW11277   0.787   2.398   4.955  0.3713 -0.3574 -0.5019
 2878SOL    HW211278   0.829   2.478   4.923  1.4002 -0.5039  0.4280
 2878SOL    HW311279   0.703   2.427   4.989  1.7690  0.8216  2.2350
 2878SOL    MW411280   0.782   2.412   4.955  0.0618  0.4393  0.2081
 2879SOL     OW11281   1.018   6.398   1.221 -0.3840 -0.3189  0.2641
 2879SOL    HW211282   0.958   6.339   1.176  0.3779  1.3191 -3.2178
 2879SOL    HW311283   1.102   6.387   1.176  0.6323  1.0528  1.6967
 2879SOL    MW411284   1.021   6.389   1.209 -0.5496 -0.1159  0.1326
 2880SOL     OW11285   0.609   3.801   3.588 -0.0097  0.6513 -0.3871
 2880SOL    HW211286   0.593   3.895   3.585  3.5949  1.5103  1.4430
 2880SOL    HW311287   0.703   3.791   3.577 -0.1446 -2.7033  0.1234
 2880SOL    MW411288   0.619   3.812   3.586  0.0998  0.1346 -0.6725
 2881SOL     OW11289   4.807   3.105   0.140  0.4721 -0.1507  0.4664
 2881SOL    HW211290   4.773   3.105   0.230 -1.4512 -0.9212 -0.2095
 2881SOL    HW311291   4.748   3.046   0.092  0.2650  1.7241 -1.7291
 2881SOL    MW411292   4.795   3.097   0.146  0.1975  0.0494 -0.7999
 2882SOL     OW11293   1.881  -0.005   0.978  0.0694 -0.4001 -0.8046
 2882SOL    HW211294   1.972   0.025   0.984 -0.7774  2.6730 -1.5159
 2882SOL    HW311295   1.855   0.015   0.888 -1.1351 -1.9670 -0.8492
 2882SOL    MW411296   1.890   0.002   0.967 -0.2672 -0.0243 -0.5383
 2883SOL     OW11297   2.660   2.830   0.273 -0.1961 -0.6007  0.2639
 2883SOL    HW211298   2.733   2.868   0.321 -0.0255 -0.4616 -0.1078
 2883SOL    HW311299   2.643   2.747   0.318  0.8122 -1.0957 -0.2365
 2883SOL    MW411300   2.667   2.824   0.285  0.1169 -0.2961 -0.0348
 2884SOL     OW11301   5.303   0.518   2.501 -0.2413 -0.2603  0.4224
 2884SOL    HW211302   5.356   0.463   2.445 -0.0002 -0.2097  0.5984
 2884SOL    HW311303   5.355   0.529   2.581 -0.6010 -0.3775  0.6791
 2884SOL    MW411304   5.317   0.512   2.504  0.7225  0.3782 -0.4149
 2885SOL     OW11305   6.166   3.496   5.740  0.3751 -0.1492 -0.4895
 2885SOL    HW211306   6.238   3.546   5.701  0.3846 -0.2510 -0.6040
 2885SOL    HW311307   6.177   3.508   5.834 -1.3075  2.4366 -0.5306
 2885SOL    MW411308   6.177   3.504   5.747 -0.1824  0.4771  0.0534
 2886SOL     OW11309   4.651   5.983   1.125  0.3368 -0.4706  0.2301
 2886SOL    HW211310   4.662   6.051   1.191 -1.2810  0.6335 -0.5628
 2886SOL    HW311311   4.724   5.996   1.064 -1.9279  3.2317 -2.0759
 2886SOL    MW411312   4.662   5.994   1.126 -0.3033  0.9186  0.6187
 2887SOL     OW11313   6.140   3.415   4.607 -0.4399  0.6048  0.3951
 2887SOL    HW211314   6.154   3.411   4.513  0.9913 -0.1330  0.6083
 2887SOL    HW311315   6.206   3.475   4.640 -1.4235  1.4684  0.8651
 2887SOL    MW411316   6.150   3.422   4.599  0.3155 -0.1317  0.3025
 2888SOL     OW11317   2.208   0.938   1.011 -0.6259 -0.3144 -0.0371
 2888SOL    HW211318   2.215   1.030   1.039 -0.7479 -0.4037  0.2903
 2888SOL    HW311319   2.161   0.895   1.083 -1.2438 -0.4776 -0.5353
 2888SOL    MW411320   2.202   0.945   1.024 -0.1338 -0.4130  0.2182
 2889SOL     OW11321   3.958   2.100   4.167 -0.9143 -0.0869  0.0695
 2889SOL    HW211322   3.919   2.187   4.159  2.6851  1.7463  0.4465
 2889SOL    HW311323   4.009   2.088   4.087  1.3880 -0.2553  1.4739
 2889SOL    MW411324   3.960   2.110   4.156 -0.3039  0.9467 -0.1178
 2890SOL     OW11325   3.472   2.481   6.381 -0.0184  0.3388 -0.5073
 2890SOL    HW211326   3.376   2.477   6.382  0.0064 -1.4795 -1.7086
 2890SOL    HW311327   3.500   2.394   6.409  1.2457  0.0533 -2.4852
 2890SOL    MW411328   3.463   2.469   6.385  0.1410  0.1034 -0.1515
 2891SOL     OW11329   3.310   3.222   5.617 -0.1299 -0.1281  0.2278
 2891SOL    HW211330   3.265   3.304   5.601 -3.7615 -1.9597  0.0551
 2891SOL    HW311331   3.299   3.206   5.711 -0.6514 -1.0346  0.0221
 2891SOL    MW411332   3.303   3.231   5.627  0.3819 -0.1130 -0.4293
 2892SOL     OW11333   4.077   0.224   5.732 -0.0038 -0.3111  0.0070
 2892SOL    HW211334   3.999   0.168   5.732 -0.0965 -0.1827 -0.3060
 2892SOL    HW311335   4.129   0.193   5.806 -1.0945  0.6288  1.2075
 2892SOL    MW411336   4.073   0.212   5.742  0.4943 -0.0716 -0.6284
 2893SOL     OW11337   3.065   4.596   2.021  0.0565  0.8215 -0.2949
 2893SOL    HW211338   3.089   4.596   2.114  1.4503  1.6474 -0.6164
 2893SOL    HW311339   2.987   4.651   2.017  1.2517  2.6497  0.1463
 2893SOL    MW411340   3.058   4.603   2.033  0.7315  0.2762 -0.1361
 2894SOL     OW11341   3.132   1.540   2.451 -0.9404  0.1563 -0.5787
 2894SOL    HW211342   3.094   1.623   2.479 -0.9752  0.0110 -0.1956
 2894SOL    HW311343   3.056   1.484   2.434 -0.9104  0.0878 -0.4860
 2894SOL    MW411344   3.117   1.543   2.452 -0.2427 -0.2135  0.3040
 2895SOL     OW11345   5.465   0.499   4.740 -0.3540 -0.3930 -0.5592
 2895SOL    HW211346   5.384   0.483   4.690  0.6675 -3.8630 -1.3334
 2895SOL    HW311347   5.524   0.540   4.677 -0.7693  0.1223 -0.6220
 2895SOL    MW411348   5.462   0.502   4.725 -0.3459  0.5019  0.0808
 2896SOL     OW11349   3.790   4.296   3.175 -0.4045 -0.1242  0.3548
 2896SOL    HW211350   3.701   4.293   3.139 -0.1982 -0.3255 -0.1493
 2896SOL    HW311351   3.825   4.208   3.161  0.7004  0.5604 -1.6122
 2896SOL    MW411352   3.783   4.284   3.169 -0.7075  0.0508 -0.2507
 2897SOL     OW11353   2.701   2.110   1.256 -0.3805 -0.4450  0.4486
 2897SOL    HW211354   2.621   2.069   1.225 -1.0511  0.4830  0.9147
 2897SOL    HW311355   2.754   2.123   1.177 -0.5266 -1.3938  0.1899
 2897SOL    MW411356   2.698   2.106   1.241 -0.2642  0.3772  0.3475
 2898SOL     OW11357   4.951   4.301   4.493 -0.2392 -0.1149 -0.0044
 2898SOL    HW211358   4.979   4.390   4.514  1.3355 -0.7115  0.5723
 2898SOL    HW311359   5.000   4.278   4.413  0.4445 -0.9267  0.6234
 2898SOL    MW411360   4.961   4.309   4.485  0.6360 -0.1495  0.0994
 2899SOL     OW11361   0.035   3.513   3.220 -0.5769 -0.0015 -0.1656
 2899SOL    HW211362   0.030   3.513   3.316  0.9982 -1.0352 -0.0562
 2899SOL    HW311363  -0.013   3.591   3.194 -0.4357  0.6840  1.5045
 2899SOL    MW411364   0.028   3.523   3.229  0.1239  0.0645 -0.3508
 2900SOL     OW11365   2.449   1.641   3.174  0.3652 -0.0150  0.2070
 2900SOL    HW211366   2.441   1.732   3.201  0.5339 -0.3986  1.6100
 2900SOL    HW311367   2.387   1.593   3.230  0.1033 -0.7414 -0.6684
 2900SOL    MW411368   2.440   1.646   3.185  0.2560 -0.4297 -0.4992
 2901SOL     OW11369   5.042   2.278   0.499  0.0615 -0.3407 -0.1490
 2901SOL    HW211370   5.093   2.241   0.570  0.8725  0.4521 -0.2937
 2901SOL    HW311371   4.958   2.301   0.539  1.0760  1.6606  1.0376
 2901SOL    MW411372   5.038   2.276   0.513  0.0227  0.0778 -0.1373
 2902SOL     OW11373   5.037   4.964   1.344 -0.2073 -0.3946 -0.1354
 2902SOL    HW211374   5.104   4.897   1.354 -0.7908 -0.7523  1.7889
 2902SOL    HW311375   4.990   4.964   1.428  0.5383  3.2399  0.4443
 2902SOL    MW411376   5.039   4.955   1.356 -0.4655  0.6330  0.6908
 2903SOL     OW11377   3.686   0.844   5.659  0.1275  0.3660 -0.5070
 2903SOL    HW211378   3.713   0.771   5.714  0.3830 -0.6057 -1.8789
 2903SOL    HW311379   3.619   0.807   5.601 -1.1109  1.6912  0.0004
 2903SOL    MW411380   3.681   0.830   5.658  0.6580  0.0833  0.2142
 2904SOL     OW11381   2.506   3.024   0.139  0.4276 -0.4818 -0.3424
 2904SOL    HW211382   2.443   2.958   0.110 -0.3802  0.1211 -0.0055
 2904SOL    HW311383   2.576   2.974   0.180 -0.2587 -1.1317  0.0638
 2904SOL    MW411384   2.507   3.009   0.141 -0.2443  0.8258 -0.2227
 2905SOL     OW11385   0.906   3.739   1.255  0.1098  0.1652 -0.5274
 2905SOL    HW211386   0.952   3.767   1.334  1.5274  0.5314 -1.4323
 2905SOL    HW311387   0.939   3.651   1.237  0.4847  0.4285 -1.1847
 2905SOL    MW411388   0.916   3.731   1.263  0.2932 -0.0966  0.2426
 2906SOL     OW11389   1.075   5.456   2.238  0.3110 -0.7025 -0.1484
 2906SOL    HW211390   1.032   5.500   2.165 -0.9999 -2.3053 -0.3887
 2906SOL    HW311391   1.150   5.412   2.199  0.7112 -0.0094 -0.1783
 2906SOL    MW411392   1.079   5.456   2.223  0.5182  0.0163  0.4830
 2907SOL     OW11393   5.158   5.826   6.406  0.4589  0.3773  0.0053
 2907SOL    HW211394   5.209   5.763   6.355 -0.2278  1.2750 -1.9189
 2907SOL    HW311395   5.118   5.883   6.340 -0.0307  1.9893  1.6020
 2907SOL    MW411396   5.160   5.825   6.390  0.6589 -0.1985  0.1091
 2908SOL     OW11397   4.603   5.011   4.752  0.1462  0.4886 -0.3892
 2908SOL    HW211398   4.555   4.930   4.732  1.0945 -0.0742 -0.4701
 2908SOL    HW311399   4.574   5.073   4.685  2.1781 -0.9290 -2.7849
 2908SOL    MW411400   4.593   5.008   4.741  0.0838 -0.0202  0.6909
 2909SOL     OW11401   5.675   2.378   0.512 -0.1793 -0.5805 -0.0351
 2909SOL    HW211402   5.608   2.398   0.448 -0.5512  4.9135  1.5369
 2909SOL    HW311403   5.642   2.415   0.594  3.3074 -0.5447  1.5461
 2909SOL    MW411404   5.662   2.386   0.514  0.4769  0.1486  0.2888
 2910SOL     OW11405   0.458   2.298   2.788 -0.2966 -0.3728  0.2673
 2910SOL    HW211406   0.479   2.209   2.816  0.5783 -0.6955 -1.3090
 2910SOL    HW311407   0.381   2.289   2.733 -0.3614 -0.1145  0.3114
 2910SOL    MW411408   0.451   2.285   2.784 -0.2026 -0.4033  0.0015
 2911SOL     OW11409   6.374   5.667   1.643  0.3061  0.3488  0.5352
 2911SOL    HW211410   6.453   5.714   1.616  0.9956 -0.6724  0.7657
 2911SOL    HW311411   6.308   5.736   1.653  0.8967  1.1172 -0.5802
 2911SOL    MW411412   6.376   5.683   1.641  0.0818  0.3618 -0.2586
 2912SOL     OW11413   5.519   0.259   4.880  0.0579  0.4412 -0.7763
 2912SOL    HW211414   5.595   0.220   4.838 -0.0780  0.3689 -0.9529
 2912SOL    HW311415   5.507   0.343   4.835  0.3386  0.6825 -0.4100
 2912SOL    MW411416   5.527   0.265   4.869 -0.8895  0.2575 -0.7152
 2913SOL     OW11417   6.199   6.277   0.277  0.0719 -0.0379 -0.2858
 2913SOL    HW211418   6.176   6.276   0.184  0.5747 -1.1278 -0.4242
 2913SOL    HW311419   6.282   6.229   0.281 -0.5282 -1.0349  0.8568
 2913SOL    MW411420   6.207   6.270   0.265 -0.3062 -0.2671 -0.6017
 2914SOL     OW11421   4.350   5.903   1.152  0.0172 -0.1121  0.1210
 2914SOL    HW211422   4.436   5.933   1.123  0.1915 -1.0339 -0.3226
 2914SOL    HW311423   4.348   5.810   1.132 -0.7448 -0.2915  0.9615
 2914SOL    MW411424   4.361   5.895   1.146  0.3000  0.4316  0.8034
 2915SOL     OW11425   6.269   2.961   3.194  0.7011  0.5115  0.2087
 2915SOL    HW211426   6.286   3.024   3.264 -0.1592  0.2289  0.6914
 2915SOL    HW311427   6.310   2.999   3.117  2.2314  0.5223  0.9920
 2915SOL    MW411428   6.276   2.975   3.193  0.2648  0.6417 -0.2998
 2916SOL     OW11429   0.035   6.124   5.097 -0.4357  0.2689 -0.0460
 2916SOL    HW211430  -0.052   6.140   5.134 -1.4557 -2.3241 -1.0734
 2916SOL    HW311431   0.026   6.147   5.005 -0.2030 -0.4824 -0.2627
 2916SOL    MW411432   0.023   6.129   5.090  0.3433  0.4074 -0.7147
 2917SOL     OW11433   0.702   5.804   2.213 -0.0199  0.5872 -1.0843
 2917SOL    HW211434   0.791   5.798   2.249  0.4823  0.6784 -2.2409
 2917SOL    HW311435   0.689   5.897   2.196 -1.0324  0.8079  0.6711
 2917SOL    MW411436   0.712   5.816   2.215 -0.5961 -0.1264 -0.3113
 2918SOL     OW11437   6.132   2.930   5.399  0.1252  0.0731  0.3108
 2918SOL    HW211438   6.147   3.021   5.424  1.2591 -0.2034  0.7254
 2918SOL    HW311439   6.137   2.930   5.303  0.1989  0.4355  0.3157
 2918SOL    MW411440   6.135   2.942   5.390  0.2182 -0.2212 -0.4921
 2919SOL     OW11441   6.329   0.792   1.538  0.0896 -0.2565 -0.0699
 2919SOL    HW211442   6.320   0.701   1.569  3.5351 -0.9994 -0.9149
 2919SOL    HW311443   6.354   0.841   1.616  3.0990 -1.0624 -0.4121
 2919SOL    MW411444   6.331   0.786   1.553  0.4543 -0.7275 -0.1175
 2920SOL     OW11445   5.779   2.528   4.954 -0.0948 -0.1874  0.5586
 2920SOL    HW211446   5.853   2.536   4.894 -0.2273  0.6937  0.4935
 2920SOL    HW311447   5.799   2.590   5.025 -1.4942  1.2760 -0.2494
 2920SOL    MW411448   5.792   2.538   4.956 -0.3197 -0.0940 -0.1031
 2921SOL     OW11449   6.174   1.927   1.326  0.4132 -0.3557 -0.2452
 2921SOL    HW211450   6.265   1.900   1.313  1.0545  0.8943  1.2745
 2921SOL    HW311451   6.154   1.901   1.416  0.7451  3.0678  0.9657
 2921SOL    MW411452   6.183   1.920   1.336 -0.1545  0.3222 -0.0877
 2922SOL     OW11453   4.704   2.953   6.145 -0.0441  0.0589  0.0992
 2922SOL    HW211454   4.739   2.869   6.116 -0.0436 -0.5662  1.8198
 2922SOL    HW311455   4.779   3.012   6.143  0.2455 -0.3037  0.0596
 2922SOL    MW411456   4.719   2.950   6.141  0.1781 -0.0454  0.1473
 2923SOL     OW11457   4.816   4.079   1.970  0.3410  0.5079 -0.1302
 2923SOL    HW211458   4.739   4.042   1.926 -0.1967  0.5844  0.7180
 2923SOL    HW311459   4.859   4.132   1.903  0.0980 -0.1706 -0.8397
 2923SOL    MW411460   4.811   4.081   1.955 -0.6096  0.2102  0.4942
 2924SOL     OW11461   6.194   1.313   3.519 -0.0278 -0.0265 -0.3030
 2924SOL    HW211462   6.279   1.309   3.475  0.4601 -2.3196  0.6825
 2924SOL    HW311463   6.215   1.311   3.612 -1.1119  2.9367  0.0981
 2924SOL    MW411464   6.208   1.312   3.525 -0.3356 -0.0455 -0.7145
 2925SOL     OW11465   0.688   6.307   3.854  0.5539  0.2168  0.8033
 2925SOL    HW211466   0.651   6.222   3.879 -0.2188  0.7340  1.4411
 2925SOL    HW311467   0.684   6.307   3.758  3.1786 -1.6080  0.5807
 2925SOL    MW411468   0.683   6.296   3.844 -0.1017  0.1881  0.6354
 2926SOL     OW11469   3.926   5.875   6.232 -0.0906 -0.5524 -0.2157
 2926SOL    HW211470   3.997   5.867   6.296  0.0089 -0.0573 -0.2615
 2926SOL    HW311471   3.903   5.967   6.233  0.0099 -0.5115 -1.0019
 2926SOL    MW411472   3.932   5.886   6.241 -0.4033  0.4727  0.8056
 2927SOL     OW11473   3.500   4.425   5.298 -0.4232  0.0891  0.0646
 2927SOL    HW211474   3.477   4.435   5.390  0.7476 -2.7792  0.7640
 2927SOL    HW311475   3.418   4.399   5.255 -0.6921  0.2063  0.5046
 2927SOL    MW411476   3.486   4.423   5.304  0.0591 -0.4581 -0.0940
 2928SOL     OW11477   1.245   0.368   4.987  0.1182  0.3448 -0.2524
 2928SOL    HW211478   1.245   0.335   5.077  1.0205  0.7555 -0.0930
 2928SOL    HW311479   1.289   0.453   4.993  1.5688 -0.2943 -1.3053
 2928SOL    MW411480   1.251   0.375   5.000  0.3210 -0.0200 -0.6486
 2929SOL     OW11481   5.784   6.059   2.861 -0.2296  0.2035 -0.3583
 2929SOL    HW211482   5.755   6.027   2.776  1.2482 -1.1126 -0.4164
 2929SOL    HW311483   5.880   6.060   2.855 -0.1390  3.0069  0.2858
 2929SOL    MW411484   5.793   6.055   2.849  0.5232  0.0487  0.0201
 2930SOL     OW11485   5.113   2.826   0.424  0.0445  0.4604  0.5058
 2930SOL    HW211486   5.108   2.807   0.330 -0.1313  0.7310  0.4580
 2930SOL    HW311487   5.153   2.749   0.462 -1.8520 -0.5787  0.5007
 2930SOL    MW411488   5.118   2.814   0.416  0.5888 -0.1025 -0.2104
 2931SOL     OW11489   2.957   4.554   1.468  0.5161 -0.1841 -0.1107
 2931SOL    HW211490   3.020   4.528   1.535 -0.2337  2.1250  1.6153
 2931SOL    HW311491   2.894   4.481   1.466  0.5008 -0.2859  1.8092
 2931SOL    MW411492   2.957   4.541   1.477  0.0901  0.7070  0.4273
 2932SOL     OW11493   2.176   0.230   1.685  0.5526  0.3225  0.7226
 2932SOL    HW211494   2.088   0.237   1.650  0.8577 -0.5815 -0.2938
 2932SOL    HW311495   2.168   0.168   1.758  0.5747 -0.9188 -0.2977
 2932SOL    MW411496   2.164   0.223   1.690 -0.7177 -0.2440 -0.4343
 2933SOL     OW11497   5.367   5.640   1.072 -0.3823  0.3381 -0.1101
 2933SOL    HW211498   5.408   5.725   1.087 -1.0146  0.3026  2.3553
 2933SOL    HW311499   5.273   5.657   1.082 -0.4878 -0.6934  0.9605
 2933SOL    MW411500   5.360   5.653   1.075  0.6665  0.2117  0.3194
 2934SOL     OW11501   0.881   4.439   3.806 -0.4427 -0.4809 -0.1442
 2934SOL    HW211502   0.911   4.465   3.719 -1.3150  0.6074 -0.1304
 2934SOL    HW311503   0.789   4.415   3.793 -0.1207 -2.0377  0.1628
 2934SOL    MW411504   0.873   4.439   3.792  0.0892  0.5553  0.0855
 2935SOL     OW11505   6.204   0.415   0.850 -0.1928 -0.0125 -0.2624
 2935SOL    HW211506   6.197   0.475   0.776 -0.4777  0.6546  0.2950
 2935SOL    HW311507   6.298   0.411   0.869 -0.1003 -0.3336 -0.7711
 2935SOL    MW411508   6.215   0.422   0.843 -0.4698  0.2824 -0.3656
 2936SOL     OW11509   0.658   1.625   6.129 -0.1160 -0.3527 -0.2028
 2936SOL    HW211510   0.709   1.665   6.058  0.0412 -0.6870 -0.2790
 2936SOL    HW311511   0.707   1.546   6.151 -1.7740 -1.9262 -1.8129
 2936SOL    MW411512   0.671   1.620   6.122 -0.1461  0.2047  0.5229
 2937SOL     OW11513   1.124   0.117   4.362 -0.0697 -0.6446  0.2368
 2937SOL    HW211514   1.089   0.040   4.317  0.6354 -0.4763 -0.6341
 2937SOL    HW311515   1.085   0.114   4.449  0.3603 -2.2988  0.4038
 2937SOL    MW411516   1.114   0.106   4.367  0.6754  0.3017  0.2875
 2938SOL     OW11517   3.899   5.537   4.309 -0.2743  0.5309  0.6502
 2938SOL    HW211518   3.942   5.458   4.342 -2.0702 -0.2757  1.1516
 2938SOL    HW311519   3.885   5.519   4.216 -1.0383  0.0810  0.8478
 2938SOL    MW411520   3.903   5.525   4.301  0.4560  0.0194 -0.0573
 2939SOL     OW11521   3.752   1.808   4.271 -0.0774 -0.3761  0.3012
 2939SOL    HW211522   3.794   1.722   4.279  0.9905  0.1071  0.0390
 2939SOL    HW311523   3.669   1.798   4.318  1.4961 -0.5897  3.2416
 2939SOL    MW411524   3.746   1.795   4.278  0.5851 -0.0622  0.4325
 2940SOL     OW11525   3.710   0.253   5.633  0.7891  0.0036 -0.5862
 2940SOL    HW211526   3.770   0.324   5.614  1.0374  0.3051  1.1007
 2940SOL    HW311527   3.642   0.293   5.687 -1.3691 -0.1741 -3.0109
 2940SOL    MW411528   3.709   0.267   5.638 -0.1300  0.4012  0.5896
 2941SOL     OW11529   6.090   2.542   6.354 -0.0579 -0.3618 -0.0671
 2941SOL    HW211530   6.144   2.469   6.322 -0.0478  0.0074 -0.9084
 2941SOL    HW311531   6.014   2.543   6.297 -1.1844 -1.1175  1.3448
 2941SOL    MW411532   6.087   2.532   6.343  0.5497 -0.0561 -0.7761
 2942SOL     OW11533   3.185   4.428   5.886 -0.4598  0.4312 -0.1830
 2942SOL    HW211534   3.131   4.400   5.960  2.0461 -0.6532  1.3851
 2942SOL    HW311535   3.178   4.357   5.823 -0.7845  0.2564  0.0483
 2942SOL    MW411536   3.177   4.415   5.887 -0.0952  0.3071  0.2481
 2943SOL     OW11537   3.043   2.250   0.795 -0.0149  0.1118  0.6867
 2943SOL    HW211538   2.950   2.260   0.812  0.2674  0.1547  2.3663
 2943SOL    HW311539   3.048   2.193   0.718 -1.4201  0.5428  0.2649
 2943SOL    MW411540   3.032   2.244   0.787  0.2642 -0.6008 -0.1503
 2944SOL     OW11541   4.932   1.307   6.099 -0.1672  0.6402  0.0406
 2944SOL    HW211542   4.882   1.262   6.030  1.3636 -1.5954  0.3013
 2944SOL    HW311543   4.983   1.374   6.053 -0.9285  0.7606 -0.6455
 2944SOL    MW411544   4.932   1.310   6.084 -0.7301  0.4161 -0.2513
 2945SOL     OW11545   1.026   4.967   4.961 -0.2782  0.3729  0.5574
 2945SOL    HW211546   1.025   4.873   4.979 -0.4301  0.0333 -1.0916
 2945SOL    HW311547   0.940   4.997   4.989 -1.1890 -0.4690 -1.2214
 2945SOL    MW411548   1.015   4.958   4.967  0.1002 -0.0373 -0.2343
 2946SOL     OW11549   2.611   1.405   4.395 -0.1724  0.3380 -0.4702
 2946SOL    HW211550   2.631   1.331   4.452 -1.0636 -0.4539 -1.1542
 2946SOL    HW311551   2.691   1.459   4.396  1.2361 -1.6246 -1.4831
 2946SOL    MW411552   2.624   1.403   4.403 -0.2895  0.1081 -0.0040
 2947SOL     OW11553   4.306   0.093   3.876  0.0935 -0.3286 -0.0175
 2947SOL    HW211554   4.279   0.140   3.954 -1.8709 -1.0526 -0.1921
 2947SOL    HW311555   4.335   0.008   3.908 -0.4274 -0.5159 -0.0230
 2947SOL    MW411556   4.306   0.088   3.890 -0.3699  0.4008 -0.5222
 2948SOL     OW11557   4.879   3.263   1.347 -0.0543  0.5662 -0.1200
 2948SOL    HW211558   4.883   3.358   1.340 -1.5492  0.5083 -3.4713
 2948SOL    HW311559   4.787   3.244   1.369 -0.5328 -0.0879 -2.3897
 2948SOL    MW411560   4.867   3.273   1.349  0.6128 -0.5346 -0.6512
 2949SOL     OW11561   3.916   1.551   3.907 -0.3350  0.4710 -0.1719
 2949SOL    HW211562   3.904   1.638   3.944 -3.0908 -0.2084  0.8202
 2949SOL    HW311563   3.833   1.532   3.863 -0.1083 -1.9117  0.2727
 2949SOL    MW411564   3.903   1.560   3.906  0.8537  0.0963  0.2413
 2950SOL     OW11565   3.165   3.673   0.493  0.1982  0.2429 -0.1232
 2950SOL    HW211566   3.208   3.636   0.570  1.0085  0.1003 -0.6393
 2950SOL    HW311567   3.087   3.715   0.528  1.4845  1.7843  1.0333
 2950SOL    MW411568   3.160   3.673   0.508  0.0351  0.0864  0.5779
 2951SOL     OW11569   1.234   4.534   2.387 -0.3998 -0.1096  0.3708
 2951SOL    HW211570   1.209   4.615   2.432 -1.3575 -0.3815  0.3548
 2951SOL    HW311571   1.314   4.505   2.432 -0.1151  0.7690  0.4550
 2951SOL    MW411572   1.241   4.541   2.399 -0.3402  0.5571  0.2138
 2952SOL     OW11573   6.033   0.159   4.958  0.5084  0.0320  0.1776
 2952SOL    HW211574   6.110   0.146   5.013  0.5088  0.5672  0.3057
 2952SOL    HW311575   6.064   0.145   4.869  0.2012 -2.2928  0.3787
 2952SOL    MW411576   6.047   0.155   4.953  0.2936  0.3576  0.1103
 2953SOL     OW11577   2.493   6.231   4.859  0.3107 -0.1144 -0.1405
 2953SOL    HW211578   2.585   6.225   4.886  0.5701  0.7774 -0.7716
 2953SOL    HW311579   2.458   6.144   4.874  1.3849 -0.5928 -0.3015
 2953SOL    MW411580   2.500   6.219   4.865  0.0371  0.3688  0.2740
 2954SOL     OW11581   2.075   3.067   5.473 -0.2372 -0.2993  0.2697
 2954SOL    HW211582   2.077   3.080   5.567 -1.6491 -1.3294  0.4690
 2954SOL    HW311583   2.146   3.123   5.440  0.1045  0.2894  1.8912
 2954SOL    MW411584   2.084   3.076   5.481  0.2007 -0.0396  1.1954
 2955SOL     OW11585   2.272   3.504   1.715 -0.0976  0.3840 -0.3286
 2955SOL    HW211586   2.303   3.553   1.639  1.1794  1.0981  0.6018
 2955SOL    HW311587   2.322   3.540   1.788 -1.6573  0.1046  0.9495
 2955SOL    MW411588   2.282   3.515   1.715  0.7306  0.9064 -0.7824
 2956SOL     OW11589   1.614   6.089   0.078  0.1705  0.0764 -0.2329
 2956SOL    HW211590   1.593   6.169   0.126  1.7592  1.2892 -1.4527
 2956SOL    HW311591   1.586   6.106  -0.012  2.2312  0.1018 -0.9397
 2956SOL    MW411592   1.608   6.102   0.073  0.2673 -0.7751 -0.0512
 2957SOL     OW11593   0.070   1.352   6.288  0.3252  0.0097  0.2876
 2957SOL    HW211594   0.145   1.385   6.239  1.5166 -1.7243  0.8277
 2957SOL    HW311595   0.064   1.409   6.365  1.6833 -0.3466  0.6854
 2957SOL    MW411596   0.079   1.364   6.292  0.0219  0.0123 -0.4105
 2958SOL     OW11597   5.613   1.051   0.171  0.0262  0.3931  0.4347
 2958SOL    HW211598   5.609   1.133   0.123 -1.7917  0.4336  0.5994
 2958SOL    HW311599   5.533   1.049   0.223  0.2228 -1.2969  0.7381
 2958SOL    MW411600   5.602   1.061   0.172 -0.1481  0.1757 -0.0576
 2959SOL     OW11601   0.075   4.773   5.802 -0.0229 -0.5964  0.5132
 2959SOL    HW211602   0.126   4.762   5.721  0.8825 -2.6631  1.3053
 2959SOL    HW311603   0.094   4.863   5.829  1.8185 -0.7225 -0.1830
 2959SOL    MW411604   0.084   4.784   5.795  0.0833 -0.0748 -0.8980
 2960SOL     OW11605   2.381   6.265   5.548 -0.5382  0.0950 -0.5523
 2960SOL    HW211606   2.441   6.287   5.476  0.5355 -0.7331  0.0501
 2960SOL    HW311607   2.345   6.180   5.523 -0.3956 -0.0513 -0.2703
 2960SOL    MW411608   2.384   6.256   5.535  0.0898  0.2144  0.1431
 2961SOL     OW11609   6.197   3.204   0.116 -0.4309 -0.0445 -0.1297
 2961SOL    HW211610   6.242   3.245   0.190 -2.0146  0.7420  0.4301
 2961SOL    HW311611   6.259   3.137   0.086  1.5006  1.5680  0.0023
 2961SOL    MW411612   6.211   3.200   0.122  0.4099  0.1989  0.2163
 2962SOL     OW11613   6.444   4.272   6.263  0.5768  0.4338  0.1671
 2962SOL    HW211614   6.416   4.282   6.171 -1.4458  0.9406  0.7733
 2962SOL    HW311615   6.511   4.338   6.275 -0.0722  1.2681 -0.6147
 2962SOL    MW411616   6.449   4.282   6.252  0.2478 -0.0110 -0.0353
 2963SOL     OW11617   3.689   6.412   2.733 -0.1854 -0.5353 -0.5178
 2963SOL    HW211618   3.684   6.410   2.638 -0.1147  1.1701 -0.5740
 2963SOL    HW311619   3.742   6.488   2.754 -1.7584  0.2500  0.9253
 2963SOL    MW411620   3.695   6.422   2.723  0.2341 -0.3602 -0.2201
 2964SOL     OW11621   4.028   3.453   0.458  0.8528 -0.0786  0.5955
 2964SOL    HW211622   4.085   3.404   0.517  1.4967  2.0519  1.8270
 2964SOL    HW311623   3.944   3.459   0.504  0.5796 -0.4855  0.1732
 2964SOL    MW411624   4.024   3.447   0.472  0.1841  0.1513 -0.1096
 2965SOL     OW11625   2.205   5.251   0.375 -0.0289  0.2197  0.6224
 2965SOL    HW211626   2.112   5.257   0.354  0.0315 -0.6959  0.0470
 2965SOL    HW311627   2.241   5.337   0.352 -0.5981  0.3423  0.1736
 2965SOL    MW411628   2.198   5.263   0.370  0.5814  0.0957 -0.2720
 2966SOL     OW11629   5.748   4.548   2.369  0.7444 -0.3650 -0.7684
 2966SOL    HW211630   5.673   4.585   2.414  0.3630 -0.9683 -0.8970
 2966SOL    HW311631   5.779   4.478   2.426  1.3413  0.0115 -0.6174
 2966SOL    MW411632   5.742   4.543   2.382  0.0016  0.3303  0.2802
 2967SOL     OW11633   5.510   5.529   0.593 -1.0046  0.0898 -0.1793
 2967SOL    HW211634   5.547   5.596   0.535 -2.0390  0.6778 -0.1922
 2967SOL    HW311635   5.583   5.503   0.649 -0.1759  0.0558 -1.2324
 2967SOL    MW411636   5.524   5.534   0.593 -0.1471  0.2479 -0.4906
 2968SOL     OW11637   3.601   2.467   0.768  0.1304 -0.2676  0.0085
 2968SOL    HW211638   3.526   2.439   0.717 -0.5825  0.0577  0.8504
 2968SOL    HW311639   3.639   2.386   0.802 -0.4594 -0.3742  0.4227
 2968SOL    MW411640   3.596   2.453   0.766 -0.2261  0.0214 -0.1375
 2969SOL     OW11641   5.157   0.109   1.395  0.0407 -0.3087  0.0440
 2969SOL    HW211642   5.164   0.090   1.489 -0.4206  0.6323  0.2800
 2969SOL    HW311643   5.243   0.088   1.359  0.5389  0.2984  0.8583
 2969SOL    MW411644   5.169   0.104   1.403  0.1578 -0.3794 -0.2812
 2970SOL     OW11645   5.766   4.573   0.870 -0.2023 -0.7663  0.3971
 2970SOL    HW211646   5.703   4.644   0.868  0.9559  0.3126  0.9157
 2970SOL    HW311647   5.809   4.576   0.784 -1.0417 -1.6878 -0.0664
 2970SOL    MW411648   5.764   4.583   0.859 -0.3416  0.1697 -0.1441
 2971SOL     OW11649   3.418   1.532   4.426  0.4765 -0.4190  0.1681
 2971SOL    HW211650   3.330   1.510   4.396 -0.7113 -0.6357  3.4289
 2971SOL    HW311651   3.461   1.447   4.438  0.5697 -0.3715  0.1708
 2971SOL    MW411652   3.412   1.518   4.423  0.0969 -0.4964 -0.2622
 2972SOL     OW11653   4.157   5.600   3.094 -0.3123 -0.4284  0.2180
 2972SOL    HW211654   4.158   5.582   3.188  0.6121 -1.8036 -0.0267
 2972SOL    HW311655   4.238   5.647   3.077 -0.6400  0.1227  0.1518
 2972SOL    MW411656   4.168   5.604   3.104 -0.2269 -0.5051  0.0745
 2973SOL     OW11657   0.197   0.625   3.159 -0.7803  0.7219 -0.2948
 2973SOL    HW211658   0.145   0.558   3.115 -2.2634  0.8450  1.1579
 2973SOL    HW311659   0.263   0.575   3.207 -1.2822  0.3422  0.0198
 2973SOL    MW411660   0.199   0.610   3.160 -1.0480  0.0044  0.7489
 2974SOL     OW11661   0.092   0.026   3.785 -0.0800  0.3243 -0.0388
 2974SOL    HW211662   0.152  -0.048   3.771 -0.1387  0.3852 -0.6264
 2974SOL    HW311663   0.006  -0.015   3.794  0.3347 -0.0820  3.9734
 2974SOL    MW411664   0.089   0.010   3.785  0.2887  0.3174  0.0886
 2975SOL     OW11665   1.866   5.129   6.387 -0.1302 -0.0680 -0.0083
 2975SOL    HW211666   1.884   5.221   6.366  0.4280 -0.0971  0.3212
 2975SOL    HW311667   1.771   5.121   6.381 -0.1260  0.3551 -0.7464
 2975SOL    MW411668   1.856   5.140   6.383  0.0727 -0.4442 -0.4355
 2976SOL     OW11669   4.217   3.309   0.608 -0.2386 -0.5368 -0.3927
 2976SOL    HW211670   4.238   3.385   0.663 -0.4195 -1.0358  0.3876
 2976SOL    HW311671   4.300   3.283   0.570 -0.0329 -0.4430 -0.0126
 2976SOL    MW411672   4.231   3.316   0.610 -0.3823 -0.2664 -0.2008
 2977SOL     OW11673   6.271   2.631   0.122 -0.2344  0.1480 -0.4602
 2977SOL    HW211674   6.245   2.658   0.033  0.3617  2.1398 -0.0843
 2977SOL    HW311675   6.364   2.656   0.128 -0.5001  0.8977  1.0126
 2977SOL    MW411676   6.280   2.638   0.111  0.2708 -0.2124  0.0169
 2978SOL     OW11677   5.735   2.421   3.249  0.3421  0.2371  0.2979
 2978SOL    HW211678   5.798   2.490   3.268  1.4650 -0.7364  0.2189
 2978SOL    HW311679   5.701   2.443   3.162  3.0034 -0.9161 -1.1490
 2978SOL    MW411680   5.739   2.433   3.240  0.0574  0.2718 -0.1717
 2979SOL     OW11681   4.417   3.841   1.398 -0.0625 -0.3302  0.2898
 2979SOL    HW211682   4.506   3.857   1.431  0.4246 -0.7768 -0.7474
 2979SOL    HW311683   4.424   3.856   1.304 -0.7103 -1.8417 -0.0328
 2979SOL    MW411684   4.430   3.845   1.390 -0.1427  0.1098 -0.4426
 2980SOL     OW11685   1.787   4.399   6.295 -0.3917 -0.2368  0.7724
 2980SOL    HW211686   1.813   4.444   6.375  0.5259  1.3000 -0.3362
 2980SOL    HW311687   1.694   4.418   6.285 -0.7600 -1.2639  1.9463
 2980SOL    MW411688   1.778   4.407   6.304  0.9385 -0.2264 -0.1691
 2981SOL     OW11689   5.366   3.003   3.126  0.2382 -0.0714 -0.1946
 2981SOL    HW211690   5.422   2.945   3.177  0.3341 -0.0617 -0.2881
 2981SOL    HW311691   5.414   3.085   3.122 -0.0226  0.1009  0.1701
 2981SOL    MW411692   5.380   3.006   3.132 -0.2724 -0.3788 -0.0074
 2982SOL     OW11693   2.763   5.442   1.047 -0.0356 -0.1375 -0.6669
 2982SOL    HW211694   2.803   5.529   1.048  1.1338 -0.6567  0.8152
 2982SOL    HW311695   2.811   5.395   0.979  1.0414 -0.3555  0.2133
 2982SOL    MW411696   2.775   5.448   1.038  0.6269  0.1711  0.5580
 2983SOL     OW11697   2.656   0.477   1.971  0.2619 -0.0930  0.1170
 2983SOL    HW211698   2.717   0.406   1.992 -3.0421 -3.5275 -0.7068
 2983SOL    HW311699   2.638   0.466   1.878 -2.6587 -0.3525  0.6051
 2983SOL    MW411700   2.662   0.466   1.962  0.1351 -0.0125  0.3598
 2984SOL     OW11701   5.197   2.930   5.295  0.0833 -0.0221  0.6143
 2984SOL    HW211702   5.280   2.969   5.322  0.1028  0.8787 -0.6361
 2984SOL    HW311703   5.133   2.967   5.356  0.5600 -0.6103  1.4942
 2984SOL    MW411704   5.200   2.940   5.307  0.0238 -0.2129  0.3762
 2985SOL     OW11705   4.040   0.794   3.144  0.0614 -0.2695 -0.1373
 2985SOL    HW211706   3.965   0.839   3.183  0.4420  0.5971 -0.3729
 2985SOL    HW311707   4.116   0.837   3.183  0.4467  0.4497 -1.6006
 2985SOL    MW411708   4.040   0.806   3.154  0.5479  0.0025  0.4174
 2986SOL     OW11709   3.302   2.666   6.122  0.3480 -0.1934 -0.2227
 2986SOL    HW211710   3.351   2.598   6.077 -0.8183 -1.1527 -0.0815
 2986SOL    HW311711   3.365   2.739   6.131  1.2710 -0.8153 -1.3616
 2986SOL    MW411712   3.317   2.667   6.118 -0.8269  0.8057 -0.5859
 2987SOL     OW11713   0.232   1.027   3.727  0.1372 -0.5193  0.1945
 2987SOL    HW211714   0.153   1.079   3.742  1.1234  0.7306  1.2069
 2987SOL    HW311715   0.211   0.974   3.650 -1.8628 -0.5973  0.7505
 2987SOL    MW411716   0.219   1.027   3.719 -0.0905  0.3362 -0.1502
 2988SOL     OW11717   4.434   1.345   0.404  0.0103  0.4896 -0.0839
 2988SOL    HW211718   4.365   1.342   0.338 -0.7885  0.9980  0.7069
 2988SOL    HW311719   4.515   1.350   0.354 -0.3865 -1.7639 -1.0795
 2988SOL    MW411720   4.436   1.345   0.389 -0.0263  0.2727 -0.3038
 2989SOL     OW11721   0.873   3.164   4.224  0.3152  0.0952  0.5044
 2989SOL    HW211722   0.889   3.074   4.253 -1.2583 -0.1332  0.7721
 2989SOL    HW311723   0.797   3.158   4.166  0.1495  1.2513  0.5644
 2989SOL    MW411724   0.865   3.151   4.220  0.2212 -0.3994  0.0457
 2990SOL     OW11725   5.435   5.478   3.550  0.0745 -0.3149  0.3195
 2990SOL    HW211726   5.508   5.471   3.611  0.2631 -0.4817  0.0798
 2990SOL    HW311727   5.417   5.572   3.545 -0.5652 -0.3740  1.3448
 2990SOL    MW411728   5.443   5.490   3.557 -0.0491  0.4574 -0.4857
 2991SOL     OW11729   3.220   0.455   3.251  0.4158  0.2686 -0.2704
 2991SOL    HW211730   3.157   0.512   3.297  1.6628  2.1510 -0.7675
 2991SOL    HW311731   3.211   0.370   3.293 -0.7442  1.1124  1.2884
 2991SOL    MW411732   3.210   0.451   3.262 -0.6112 -0.1392  0.1825
 2992SOL     OW11733   2.103   3.518   4.610 -0.0485 -0.5035 -0.1609
 2992SOL    HW211734   2.190   3.519   4.569  0.2301  0.7180  0.4210
 2992SOL    HW311735   2.116   3.473   4.694 -0.2505 -1.3947 -0.5869
 2992SOL    MW411736   2.116   3.512   4.616 -0.5125  0.3044  0.4605
 2993SOL     OW11737   2.715   5.974   6.290  0.1913 -0.2392 -0.4635
 2993SOL    HW211738   2.705   5.884   6.323  1.3381 -0.2702 -0.1330
 2993SOL    HW311739   2.780   5.965   6.220  1.1699  0.4707  0.3171
 2993SOL    MW411740   2.722   5.961   6.285  0.4582  0.2168  0.3441
 2994SOL     OW11741   4.378   6.104   1.989  0.3068  0.0619 -0.4056
 2994SOL    HW211742   4.371   6.051   2.068  1.6421 -1.2926 -1.1543
 2994SOL    HW311743   4.436   6.055   1.932  2.0755  2.5724 -0.9509
 2994SOL    MW411744   4.384   6.091   1.992 -0.1044 -0.1975  0.7349
 2995SOL     OW11745   4.774   0.670   2.292 -0.0377 -0.0408  1.1090
 2995SOL    HW211746   4.679   0.673   2.305 -0.2973 -0.7436 -0.3786
 2995SOL    HW311747   4.807   0.744   2.343 -1.4830  0.7426  0.9877
 2995SOL    MW411748   4.766   0.680   2.300  0.4113  0.5197 -0.1105
 2996SOL     OW11749   5.253   4.903   6.076  0.6589  0.0952  0.2426
 2996SOL    HW211750   5.193   4.943   6.012  1.8275 -0.1268 -1.0404
 2996SOL    HW311751   5.258   4.811   6.049  1.8130  0.1858  0.1333
 2996SOL    MW411752   5.246   4.896   6.064  0.5355  0.2737 -0.0449
 2997SOL     OW11753   2.066   3.257   4.449 -0.2962  0.2628  0.1327
 2997SOL    HW211754   2.039   3.341   4.484 -0.9767  1.2470 -2.5605
 2997SOL    HW311755   2.160   3.252   4.471 -0.0917  2.0068 -0.1797
 2997SOL    MW411756   2.075   3.267   4.457  0.1691  0.1791 -0.1007
 2998SOL     OW11757   1.947   2.061   5.505 -0.3375 -0.0085  0.2607
 2998SOL    HW211758   1.971   2.001   5.434  1.5129  0.4442  0.4373
 2998SOL    HW311759   2.029   2.107   5.526 -1.5189  2.0063  0.6814
 2998SOL    MW411760   1.961   2.059   5.499  0.0885  0.1291  0.0916
 2999SOL     OW11761   1.730   1.437   2.591 -0.2256 -0.1181  0.3015
 2999SOL    HW211762   1.684   1.364   2.631  0.1138  0.5411  1.9862
 2999SOL    HW311763   1.818   1.434   2.629  0.7752 -0.5707 -1.8633
 2999SOL    MW411764   1.736   1.427   2.601  0.1442  0.2421 -0.5780
 3000SOL     OW11765   3.907   1.585   4.291 -0.6692 -0.2091 -0.3259
 3000SOL    HW211766   3.893   1.577   4.385  0.2393  2.5888  0.1463
 3000SOL    HW311767   3.843   1.525   4.251 -0.2200 -2.4303  2.0287
 3000SOL    MW411768   3.897   1.576   4.298 -0.0836 -0.3525 -0.3356
 3001SOL     OW11769   3.623   0.695   3.954 -0.1075 -0.2075 -0.6554
 3001SOL    HW211770   3.531   0.718   3.964  0.4388  1.9981 -0.1934
 3001SOL    HW311771   3.638   0.625   4.017 -1.4061 -0.4747 -0.6216
 3001SOL    MW411772   3.613   0.688   3.963  0.4672  0.8708  0.5187
 3002SOL     OW11773   3.886   0.034   3.794 -0.1916  0.4632 -0.3117
 3002SOL    HW211774   3.965  -0.013   3.768 -1.8175 -1.6312 -1.9633
 3002SOL    HW311775   3.917   0.116   3.831  2.8879 -1.6820  2.4414
 3002SOL    MW411776   3.900   0.038   3.795  0.7076  0.2567  0.1505
 3003SOL     OW11777   2.132   2.087   4.959  0.1277  0.1074 -0.2149
 3003SOL    HW211778   2.146   2.130   4.874 -5.0905  0.5335 -1.2021
 3003SOL    HW311779   2.141   1.993   4.940  2.3391  0.2739 -0.2801
 3003SOL    MW411780   2.135   2.080   4.945 -0.5198  0.4725 -0.4646
 3004SOL     OW11781   3.776   0.712   1.523 -0.2247 -0.0053 -0.2257
 3004SOL    HW211782   3.690   0.701   1.482 -0.9986 -2.6467  1.8567
 3004SOL    HW311783   3.756   0.745   1.611  1.2345  2.9455 -0.8466
 3004SOL    MW411784   3.762   0.715   1.529 -0.4802 -0.0867  0.2947
 3005SOL     OW11785   5.480   2.662   4.217 -0.0756  0.6556 -0.7026
 3005SOL    HW211786   5.417   2.624   4.279  0.2376  0.1467 -0.6885
 3005SOL    HW311787   5.442   2.747   4.194 -0.3291  0.7374 -0.0201
 3005SOL    MW411788   5.467   2.668   4.223  0.8368  0.1405 -0.4638
 3006SOL     OW11789   6.206   2.996   4.837 -0.1719  0.4796  0.4170
 3006SOL    HW211790   6.299   3.001   4.812 -0.1371 -1.0706  0.1128
 3006SOL    HW311791   6.171   3.083   4.818  0.4412  0.1650 -2.7252
 3006SOL    MW411792   6.214   3.008   4.831  0.1319  0.0863  0.8757
 3007SOL     OW11793   1.549   0.981   3.453 -0.1639 -0.3351  0.6818
 3007SOL    HW211794   1.617   1.024   3.504 -0.5836  3.7980 -1.8335
 3007SOL    HW311795   1.468   1.001   3.501 -0.3153  1.6252 -0.2791
 3007SOL    MW411796   1.547   0.989   3.466 -0.5256  0.6770  0.4970
 3008SOL     OW11797   4.507   1.453   5.886  0.2033  0.2515  0.2365
 3008SOL    HW211798   4.594   1.436   5.921  0.4569 -2.2787 -1.3891
 3008SOL    HW311799   4.517   1.530   5.830  1.8834 -1.0882 -1.4044
 3008SOL    MW411800   4.520   1.461   5.883 -0.1334  0.5372 -0.2991
 3009SOL     OW11801   5.573   5.710   1.812 -0.4231  0.7487 -0.0809
 3009SOL    HW211802   5.652   5.740   1.858  0.9342 -1.0387 -1.1331
 3009SOL    HW311803   5.598   5.626   1.775 -2.6017  0.5212 -1.1437
 3009SOL    MW411804   5.587   5.703   1.813  0.0408 -0.6789  0.3325
 3010SOL     OW11805   2.033   0.264   2.143  0.5103  1.0280 -0.0937
 3010SOL    HW211806   2.030   0.226   2.231  0.3010  0.8105 -0.1947
 3010SOL    HW311807   2.031   0.358   2.158 -0.5438  0.9870  0.1024
 3010SOL    MW411808   2.033   0.271   2.156 -0.2331  0.1276  0.0052
 3011SOL     OW11809   2.618   2.586   0.437  0.3652  0.1197  0.8626
 3011SOL    HW211810   2.709   2.583   0.468  0.2025 -2.6367  1.3554
 3011SOL    HW311811   2.566   2.595   0.517  0.1455  0.8107  0.6520
 3011SOL    MW411812   2.623   2.587   0.452 -0.3576  0.0066  0.6752
 3012SOL     OW11813   5.426   6.280   3.421 -0.2677  0.1177  0.0512
 3012SOL    HW211814   5.398   6.207   3.477 -0.7680 -0.1203 -0.4919
 3012SOL    HW311815   5.475   6.238   3.350 -0.6889  0.2954 -0.3475
 3012SOL    MW411816   5.429   6.265   3.419  0.1030  0.2000 -0.3269
 3013SOL     OW11817   3.534   4.855   5.599 -0.3296 -0.1926 -0.0974
 3013SOL    HW211818   3.490   4.928   5.643 -0.4692 -1.2358  1.5840
 3013SOL    HW311819   3.464   4.809   5.552 -1.1679 -1.7663  2.4547
 3013SOL    MW411820   3.519   4.858   5.598 -0.4216  0.0834 -0.0215
 3014SOL     OW11821   1.052   1.952   0.556 -0.2082 -0.0694  0.2279
 3014SOL    HW211822   1.030   2.010   0.483 -0.9912 -0.0876  0.4430
 3014SOL    HW311823   1.049   1.864   0.518 -0.6317 -0.0799  0.2834
 3014SOL    MW411824   1.049   1.948   0.541 -0.0696 -0.4496 -0.0201
 3015SOL     OW11825   3.039   0.121   0.204 -0.2460  0.2780 -0.1751
 3015SOL    HW211826   2.956   0.151   0.167  0.0251  0.2614 -0.8250
 3015SOL    HW311827   3.036   0.146   0.296 -0.6516  0.9542 -0.3718
 3015SOL    MW411828   3.028   0.128   0.211  0.5686  0.1179 -0.2067
 3016SOL     OW11829   4.274   2.407   4.749  0.0238  0.6153  0.2857
 3016SOL    HW211830   4.298   2.371   4.835 -1.4985 -2.9619 -0.6023
 3016SOL    HW311831   4.198   2.462   4.767 -0.4779 -0.3487  1.2438
 3016SOL    MW411832   4.267   2.409   4.763 -0.0842 -0.6903 -0.0458
 3017SOL     OW11833   1.727   1.071   3.654 -0.4051 -0.7195  0.6188
 3017SOL    HW211834   1.715   0.982   3.685  2.6129 -1.9935 -1.3644
 3017SOL    HW311835   1.822   1.081   3.646 -0.6118  2.7315  0.8124
 3017SOL    MW411836   1.738   1.061   3.657 -0.0111  0.0151 -0.3206
 3018SOL     OW11837   2.209   2.877   4.451  0.1901 -0.5853  0.4686
 3018SOL    HW211838   2.156   2.923   4.386 -1.0415 -1.0503  1.1309
 3018SOL    HW311839   2.291   2.928   4.454 -1.4021  2.1627  1.7834
 3018SOL    MW411840   2.213   2.890   4.443  0.1395  0.6711 -0.3116
 3019SOL     OW11841   4.615   4.070   3.797  0.4170 -0.2979  0.7310
 3019SOL    HW211842   4.612   4.031   3.884  0.5536 -0.7757  0.5274
 3019SOL    HW311843   4.547   4.023   3.748  0.4274 -0.1211  0.5474
 3019SOL    MW411844   4.606   4.058   3.802 -0.1279  0.6703  0.3043
 3020SOL     OW11845   1.383   2.287   5.162  0.2592  0.5656 -0.2289
 3020SOL    HW211846   1.349   2.355   5.104 -0.6327 -0.0396 -0.4262
 3020SOL    HW311847   1.451   2.243   5.111  0.4580  0.9376 -0.2928
 3020SOL    MW411848   1.388   2.290   5.148  0.5564  0.1187 -0.3605
 3021SOL     OW11849   0.166   2.659   6.313  0.5156 -0.2457  0.6138
 3021SOL    HW211850   0.091   2.677   6.256  0.4196  2.1810  1.4180
 3021SOL    HW311851   0.137   2.684   6.400  1.7164 -0.9401  1.2424
 3021SOL    MW411852   0.152   2.664   6.317  0.7123  0.0080 -0.2141
 3022SOL     OW11853   5.278   0.443   5.274  0.0705 -0.2754  0.1818
 3022SOL    HW211854   5.274   0.352   5.303 -0.4164 -1.1403 -2.3475
 3022SOL    HW311855   5.187   0.472   5.274  0.1781  0.0785  0.5014
 3022SOL    MW411856   5.266   0.435   5.278 -0.5801 -0.0590  0.3524
 3023SOL     OW11857   4.106   3.973   2.852 -0.1207  0.1574 -0.3057
 3023SOL    HW211858   4.031   4.016   2.811 -1.2886 -1.0669  0.4496
 3023SOL    HW311859   4.111   4.011   2.940 -0.5198 -0.4756  0.0029
 3023SOL    MW411860   4.097   3.983   2.858 -0.5585 -0.0612 -0.2273
 3024SOL     OW11861   5.685   3.834   1.344  0.1531 -0.2601 -0.7460
 3024SOL    HW211862   5.707   3.887   1.268 -0.1420  0.0277 -0.6345
 3024SOL    HW311863   5.658   3.750   1.308 -0.3935  0.0137 -0.9871
 3024SOL    MW411864   5.684   3.830   1.329  0.2163  0.1770  0.3152
 3025SOL     OW11865   6.248   3.555   2.242 -0.3400 -0.1777 -0.1334
 3025SOL    HW211866   6.323   3.516   2.286 -0.5603 -0.2947  0.1438
 3025SOL    HW311867   6.263   3.538   2.149 -0.2479 -0.6017 -0.0446
 3025SOL    MW411868   6.260   3.548   2.236  0.0165 -0.3514 -0.0806
 3026SOL     OW11869   0.804   1.569   4.961 -0.3028 -0.1472 -0.1165
 3026SOL    HW211870   0.749   1.522   4.899 -0.4302  0.8941 -0.8250
 3026SOL    HW311871   0.743   1.618   5.015 -0.1691 -0.7155  0.5629
 3026SOL    MW411872   0.789   1.570   4.960  0.2201 -0.3813 -0.3028
 3027SOL     OW11873   5.855   3.518   1.169 -0.0679  0.7782  0.7297
 3027SOL    HW211874   5.896   3.518   1.256  0.8813  0.3800  0.3016
 3027SOL    HW311875   5.767   3.551   1.184 -0.1909 -0.0589  1.9683
 3027SOL    MW411876   5.849   3.522   1.182  0.2179 -0.0029 -0.0386
 3028SOL     OW11877   3.273   4.527   1.182  0.1853 -0.1643  0.3407
 3028SOL    HW211878   3.240   4.448   1.139  0.5296  0.3854 -0.9979
 3028SOL    HW311879   3.338   4.562   1.121  0.7866  0.6021  1.3793
 3028SOL    MW411880   3.278   4.521   1.168 -0.4431  0.1026  0.0884
 3029SOL     OW11881   5.169   0.218   0.419 -0.4987  0.8632 -0.2697
 3029SOL    HW211882   5.160   0.138   0.368  1.8014  0.1543  0.3290
 3029SOL    HW311883   5.126   0.198   0.502  1.2421 -0.2945  0.3918
 3029SOL    MW411884   5.162   0.205   0.423  0.4592 -0.1969 -0.0045
 3030SOL     OW11885   3.224   5.994   2.320  0.5582 -0.1359 -0.2208
 3030SOL    HW211886   3.244   6.057   2.251  0.0711 -0.3334 -0.5461
 3030SOL    HW311887   3.146   5.947   2.289  0.0240  0.1186  0.6794
 3030SOL    MW411888   3.216   5.996   2.307 -0.7038 -0.2625 -0.0110
 3031SOL     OW11889   0.739   2.996   4.860 -0.2938  0.0489 -0.3365
 3031SOL    HW211890   0.822   3.035   4.884  0.4804 -0.3636 -2.1622
 3031SOL    HW311891   0.738   2.999   4.764  0.2290 -5.0392 -0.7701
 3031SOL    MW411892   0.750   3.002   4.850 -0.1299 -0.0752  0.3870
 3032SOL     OW11893   6.189   3.004   2.065  0.3509 -0.4497  0.3303
 3032SOL    HW211894   6.216   3.062   2.136 -2.1127  1.4715 -0.1485
 3032SOL    HW311895   6.253   3.021   1.995 -1.9925  4.6228 -1.1208
 3032SOL    MW411896   6.201   3.014   2.065 -0.5655 -0.2207 -0.1971
 3033SOL     OW11897   4.526   2.959   5.153  0.0513  0.3513 -0.0621
 3033SOL    HW211898   4.543   3.053   5.156  1.4848  0.0884  1.2745
 3033SOL    HW311899   4.443   2.948   5.200  0.2161  0.8837  0.3622
 3033SOL    MW411900   4.517   2.970   5.160 -0.4048 -0.1934 -0.1347
 3034SOL     OW11901   0.319   1.616   0.327 -0.3010 -0.4649  0.1894
 3034SOL    HW211902   0.270   1.547   0.372 -0.8336 -1.1592 -1.3788
 3034SOL    HW311903   0.361   1.571   0.254  0.1503  0.6979 -0.2840
 3034SOL    MW411904   0.318   1.601   0.323 -0.2560  0.5358 -0.5241
 3035SOL     OW11905   4.233   6.361   4.400  0.5654 -0.4615  0.5278
 3035SOL    HW211906   4.294   6.349   4.327  0.7975  0.3541  0.5765
 3035SOL    HW311907   4.288   6.352   4.478  0.1444 -2.3526  0.6671
 3035SOL    MW411908   4.249   6.358   4.400 -0.0833 -0.0909 -0.3992
 3036SOL     OW11909   5.010   1.815   3.185 -0.1139 -0.1535  0.0819
 3036SOL    HW211910   4.953   1.884   3.219  1.2934 -0.0834  2.5300
 3036SOL    HW311911   4.993   1.740   3.242  0.5393 -0.8654 -0.6419
 3036SOL    MW411912   5.000   1.814   3.197 -0.0001 -0.0517  0.2709
 3037SOL     OW11913   5.190   1.764   0.047  0.0394 -0.7422  0.0766
 3037SOL    HW211914   5.244   1.766   0.126 -0.2599  1.0890  0.2835
 3037SOL    HW311915   5.245   1.805  -0.020  0.2404 -2.1609 -0.6483
 3037SOL    MW411916   5.204   1.770   0.049  0.5599  0.0867 -0.2750
 3038SOL     OW11917   5.556   0.832   0.581 -0.0196  0.0683  0.5023
 3038SOL    HW211918   5.572   0.781   0.660  1.2779 -0.0928  0.1657
 3038SOL    HW311919   5.624   0.900   0.582  0.3521 -0.2522 -0.7147
 3038SOL    MW411920   5.567   0.835   0.592 -0.4069  0.5686  0.3098
 3039SOL     OW11921   0.471   4.799   1.999  0.2034  0.4170 -0.9228
 3039SOL    HW211922   0.525   4.772   2.074 -2.3495  0.1501  0.9525
 3039SOL    HW311923   0.412   4.725   1.984 -0.5408  1.1997 -2.0339
 3039SOL    MW411924   0.470   4.786   2.007 -0.0281 -0.2816 -0.3231
 3040SOL     OW11925   0.749   2.898   3.603  0.2944 -0.5967 -0.6725
 3040SOL    HW211926   0.829   2.949   3.616 -0.0935 -0.5409  2.2383
 3040SOL    HW311927   0.773   2.809   3.628 -0.8906 -0.2286  2.2320
 3040SOL    MW411928   0.762   2.893   3.608  0.1248 -0.4894  0.1306
 3041SOL     OW11929   4.730   4.392   3.490  0.4050 -0.0048  0.2336
 3041SOL    HW211930   4.705   4.462   3.551  1.7264 -0.5214  1.4466
 3041SOL    HW311931   4.810   4.425   3.448  0.2539 -0.2169 -0.2227
 3041SOL    MW411932   4.737   4.406   3.493 -0.7833  0.6219 -0.3236
 3042SOL     OW11933   0.500   6.379   1.381  0.3283  0.2039  0.2907
 3042SOL    HW211934   0.554   6.300   1.372  0.1477  0.0852  0.2369
 3042SOL    HW311935   0.426   6.364   1.321 -1.4609 -1.0529  2.6311
 3042SOL    MW411936   0.497   6.367   1.372 -0.1860  0.8695  0.5161
 3043SOL     OW11937   2.789   4.791   0.174 -0.3091  0.0719  0.2234
 3043SOL    HW211938   2.696   4.776   0.189 -0.0600 -0.8044  1.0140
 3043SOL    HW311939   2.830   4.706   0.192  0.5682  0.2545 -0.8174
 3043SOL    MW411940   2.782   4.778   0.179 -0.1402  0.3105  0.6308
 3044SOL     OW11941   4.406   1.291   5.519 -0.1103  0.2180 -0.1549
 3044SOL    HW211942   4.480   1.313   5.463  0.1952 -0.8713 -0.1959
 3044SOL    HW311943   4.353   1.371   5.520  0.9133  0.9236 -0.3414
 3044SOL    MW411944   4.408   1.304   5.512  0.0264 -0.1651  0.6386
 3045SOL     OW11945   4.526   5.961   4.174 -0.2337  0.5905  0.3097
 3045SOL    HW211946   4.517   5.983   4.082 -0.8971  1.4909  0.5685
 3045SOL    HW311947   4.444   5.991   4.214  0.0256  0.1892  1.1858
 3045SOL    MW411948   4.514   5.968   4.167  0.0311 -0.6587 -0.1803
 3046SOL     OW11949   5.892   5.810   2.214  0.4692 -0.2269 -0.1537
 3046SOL    HW211950   5.878   5.901   2.239  2.0292  0.5127 -1.7262
 3046SOL    HW311951   5.960   5.778   2.274  0.6800 -0.0097 -0.2755
 3046SOL    MW411952   5.899   5.817   2.225 -0.5452 -0.4897 -0.0779
 3047SOL     OW11953   2.110   6.106   5.875  0.1602  0.4488 -0.3001
 3047SOL    HW211954   2.055   6.036   5.909 -1.1917  0.9370 -1.4045
 3047SOL    HW311955   2.196   6.066   5.865 -0.0935 -0.4743  0.9794
 3047SOL    MW411956   2.114   6.091   5.878 -0.2100 -0.6796 -0.0708
 3048SOL     OW11957   0.937   4.549   1.662  0.3410  0.7479  0.0060
 3048SOL    HW211958   1.026   4.542   1.630  1.2888  0.6100  2.4422
 3048SOL    HW311959   0.889   4.594   1.592  2.8336  2.8536 -0.4871
 3048SOL    MW411960   0.942   4.554   1.649  0.4481 -0.3504 -0.4105
 3049SOL     OW11961   3.423   1.449   4.106 -0.2257 -0.6060 -0.1303
 3049SOL    HW211962   3.422   1.475   4.198 -0.7507  0.9285 -0.5251
 3049SOL    HW311963   3.437   1.354   4.107 -0.0192 -0.5812  1.5098
 3049SOL    MW411964   3.424   1.440   4.119 -0.4677 -0.1056 -0.2503
 3050SOL     OW11965   6.382   2.873   5.220 -0.1740  0.1035 -0.4859
 3050SOL    HW211966   6.303   2.876   5.167 -0.3564 -1.8691 -0.4119
 3050SOL    HW311967   6.454   2.886   5.158 -0.5143  1.1925 -0.6626
 3050SOL    MW411968   6.381   2.875   5.205  0.6853  0.4763 -0.2589
 3051SOL     OW11969   2.385   1.420   2.674 -0.1550 -0.0690  0.0601
 3051SOL    HW211970   2.352   1.502   2.638  2.2495  0.1439 -1.9688
 3051SOL    HW311971   2.430   1.445   2.755 -1.9431  0.0997  1.0494
 3051SOL    MW411972   2.387   1.434   2.680  0.0995  0.0232 -0.0080
 3052SOL     OW11973   6.188   0.984   3.341 -0.1173  0.3307 -0.1480
 3052SOL    HW211974   6.262   0.955   3.395 -0.9918 -0.7975  0.4840
 3052SOL    HW311975   6.128   1.026   3.402 -0.7840 -0.3026 -0.3586
 3052SOL    MW411976   6.190   0.986   3.356  0.6130  0.4751  0.3426
 3053SOL     OW11977   0.954   1.864   5.546 -0.1403  0.1190 -0.5040
 3053SOL    HW211978   0.933   1.953   5.574 -2.0809  0.3057 -2.2898
 3053SOL    HW311979   1.050   1.862   5.540  0.0122  1.6467  0.8585
 3053SOL    MW411980   0.964   1.875   5.549  0.1386 -0.3187  0.1650
 3054SOL     OW11981   5.317   1.097   1.787 -0.5482  0.2603 -0.1375
 3054SOL    HW211982   5.388   1.036   1.807 -1.5988 -0.3066  2.2017
 3054SOL    HW311983   5.361   1.180   1.771  0.7781 -0.6192 -1.2959
 3054SOL    MW411984   5.332   1.100   1.788 -0.9959  0.2898  0.3959
 3055SOL     OW11985   0.954   5.805   2.322  0.1602 -0.3978 -0.2619
 3055SOL    HW211986   0.953   5.875   2.388 -0.5225 -1.9835  1.5176
 3055SOL    HW311987   1.039   5.762   2.335  0.2610 -0.3870 -0.8442
 3055SOL    MW411988   0.965   5.809   2.333  0.1168  0.1131 -0.3978
 3056SOL     OW11989   4.038   4.959   1.263  0.4176 -0.8733 -0.2224
 3056SOL    HW211990   4.009   4.869   1.279 -0.1942 -0.6417  0.0208
 3056SOL    HW311991   4.042   4.999   1.350 -1.3012 -0.0935 -0.4530
 3056SOL    MW411992   4.035   4.952   1.277 -0.3914 -0.3244  0.2755
 3057SOL     OW11993   4.416   3.445   3.651  0.3134  0.5097  0.1049
 3057SOL    HW211994   4.463   3.529   3.657  1.1083  0.0955 -0.2018
 3057SOL    HW311995   4.373   3.448   3.565  0.3769  0.5852  0.0750
 3057SOL    MW411996   4.417   3.457   3.640  0.1916 -0.3885 -0.5038
 3058SOL     OW11997   5.382   2.560   6.019  0.5850 -0.1636  0.2644
 3058SOL    HW211998   5.441   2.486   6.005  0.1538 -0.6686  1.0121
 3058SOL    HW311999   5.427   2.634   5.979  1.6588 -0.5663  0.6735
 3058SOL    MW412000   5.396   2.560   6.012  0.5850  0.0660  0.4866
 3059SOL     OW12001   0.536   1.422   4.305  0.2037  0.5885  0.1771
 3059SOL    HW212002   0.539   1.512   4.337 -0.6574  0.3041  1.1272
 3059SOL    HW312003   0.462   1.383   4.352 -1.0248  0.0738 -2.0619
 3059SOL    MW412004   0.526   1.429   4.315  0.0926 -0.0453  0.1301
 3060SOL     OW12005   6.172   3.872   3.386 -0.1355  0.1852  0.0315
 3060SOL    HW212006   6.101   3.935   3.395 -0.6087 -0.0163 -1.9251
 3060SOL    HW312007   6.133   3.796   3.343  0.5730 -1.2366  1.7454
 3060SOL    MW412008   6.158   3.870   3.382  0.2222  0.8042 -0.0103
 3061SOL     OW12009   1.493   1.351   0.162 -0.0169  0.1463  0.8946
 3061SOL    HW212010   1.470   1.262   0.191 -0.0482 -0.5617 -1.1064
 3061SOL    HW312011   1.485   1.347   0.067  0.9290  2.0495  0.6972
 3061SOL    MW412012   1.489   1.339   0.153 -0.1679 -0.5273  0.6952
 3062SOL     OW12013   4.287   0.394   1.529  0.3974  0.1977 -0.3451
 3062SOL    HW212014   4.215   0.384   1.590  0.0419 -0.7308 -0.9001
 3062SOL    HW312015   4.302   0.489   1.525 -0.5701  0.3744  0.0211
 3062SOL    MW412016   4.280   0.405   1.536  0.0858 -0.2711 -0.0760
 3063SOL     OW12017   3.356   5.577   3.283 -0.1773 -0.4062  0.2533
 3063SOL    HW212018   3.359   5.559   3.377 -1.0984  1.0287  0.5919
 3063SOL    HW312019   3.422   5.519   3.245  3.2245  1.8193  2.2583
 3063SOL    MW412020   3.365   5.567   3.290 -0.2825  0.1794  0.2690
 3064SOL     OW12021   6.362   0.076   1.703 -0.4621 -0.0848 -0.3718
 3064SOL    HW212022   6.317  -0.001   1.737  0.7023 -0.6482 -0.0536
 3064SOL    HW312023   6.292   0.138   1.683 -1.2682 -0.0292  2.2533
 3064SOL    MW412024   6.347   0.074   1.704  0.6944 -0.3062 -1.3527
 3065SOL     OW12025   1.995   4.678   3.278  0.1378 -0.3603 -0.6324
 3065SOL    HW212026   1.936   4.740   3.233  1.0592 -0.7926 -2.5654
 3065SOL    HW312027   1.958   4.592   3.259  0.1637 -0.5280  0.0561
 3065SOL    MW412028   1.982   4.675   3.269  0.1715 -0.0872  0.2939
 3066SOL     OW12029   6.310   4.628   4.056  0.3529  0.1774  0.1865
 3066SOL    HW212030   6.297   4.661   3.967  2.8294 -0.6829 -0.5794
 3066SOL    HW312031   6.357   4.545   4.045 -1.1806 -1.0847  2.2534
 3066SOL    MW412032   6.315   4.621   4.043 -0.7083  0.1977 -0.2379
 3067SOL     OW12033   5.880   2.365   3.552  0.2126  0.3480 -0.2033
 3067SOL    HW212034   5.883   2.398   3.641 -1.0830 -0.1121  0.0367
 3067SOL    HW312035   5.875   2.270   3.561 -0.0277  0.3000 -0.7560
 3067SOL    MW412036   5.880   2.357   3.565 -0.5178 -0.6938  0.1328
 3068SOL     OW12037   3.811   0.895   0.154  0.1354 -0.5611 -0.1037
 3068SOL    HW212038   3.866   0.955   0.104 -0.0589 -0.9850 -0.8523
 3068SOL    HW312039   3.722   0.922   0.135  0.0555 -0.8489 -0.1433
 3068SOL    MW412040   3.807   0.906   0.145 -0.4026  0.5843  0.6326
 3069SOL     OW12041   0.124   1.980   4.972 -0.4485 -0.1986  0.2075
 3069SOL    HW212042   0.133   1.959   4.879 -3.8479 -1.3569 -0.0058
 3069SOL    HW312043   0.153   1.901   5.017  0.5682  0.1231  0.1516
 3069SOL    MW412044   0.129   1.967   4.965  0.3770 -0.2871 -0.2057
 3070SOL     OW12045   3.327   5.335   3.997 -0.5862  0.1871 -0.3275
 3070SOL    HW212046   3.285   5.266   3.945  2.1430 -0.4508 -1.9165
 3070SOL    HW312047   3.313   5.415   3.946 -0.6945  0.1362 -0.3777
 3070SOL    MW412048   3.320   5.336   3.983 -0.8493  0.6045  0.2540
 3071SOL     OW12049   4.892   5.696   2.671  0.2684 -0.2090 -0.3523
 3071SOL    HW212050   4.850   5.715   2.587 -0.9351 -0.7614  0.0975
 3071SOL    HW312051   4.884   5.601   2.682 -0.6387 -0.0189  0.8956
 3071SOL    MW412052   4.885   5.686   2.661 -0.0893  0.1391  0.6004
 3072SOL     OW12053   1.209   2.194   4.651 -0.0752  0.3700  0.2306
 3072SOL    HW212054   1.204   2.115   4.705 -0.1499  0.8738  0.9782
 3072SOL    HW312055   1.140   2.251   4.686 -0.9063  0.2619 -1.1468
 3072SOL    MW412056   1.199   2.191   4.663  0.4233  0.3068 -0.2663
 3073SOL     OW12057   6.174   1.163   5.142 -0.3094  0.2404 -0.1003
 3073SOL    HW212058   6.217   1.202   5.217  0.7444  0.4352 -0.7807
 3073SOL    HW312059   6.179   1.069   5.157  1.2055  0.2164 -0.5962
 3073SOL    MW412060   6.180   1.156   5.154 -0.2337  0.3520  0.0501
 3074SOL     OW12061   4.572   3.324   1.392  0.1323 -0.3230 -0.1159
 3074SOL    HW212062   4.489   3.301   1.435  0.4987 -2.7695 -0.5609
 3074SOL    HW312063   4.546   3.378   1.317 -1.2599 -2.1752 -1.0603
 3074SOL    MW412064   4.558   3.328   1.388  0.2025 -0.3435  0.2050
 3075SOL     OW12065   0.754   0.044   1.681 -0.2912 -0.0706 -0.3287
 3075SOL    HW212066   0.750  -0.036   1.733 -0.9512  0.1063 -0.0959
 3075SOL    HW312067   0.834   0.035   1.629  0.2387 -0.3632  0.5235
 3075SOL    MW412068   0.764   0.032   1.681 -0.3368  0.7099  0.0902
 3076SOL     OW12069   3.109   4.501   2.669  0.1404  0.5649  0.3022
 3076SOL    HW212070   3.203   4.500   2.650  0.1544  0.1737  0.3890
 3076SOL    HW312071   3.069   4.543   2.593  0.1161 -1.5987 -0.9602
 3076SOL    MW412072   3.116   4.507   2.656 -0.0957  0.0434  0.6702
 3077SOL     OW12073   4.605   2.211   4.878  0.0819 -0.2276 -0.3601
 3077SOL    HW212074   4.579   2.152   4.808  0.3428 -0.1637 -0.5132
 3077SOL    HW312075   4.526   2.223   4.930  0.3572 -1.8590  0.5095
 3077SOL    MW412076   4.591   2.205   4.876 -0.4307  0.3705  0.5801
 3078SOL     OW12077   3.420   3.572   2.775  0.0230  0.0060  0.3888
 3078SOL    HW212078   3.351   3.578   2.840  0.1532 -0.5403  0.5866
 3078SOL    HW312079   3.431   3.661   2.742 -0.2099  0.2402  0.9406
 3078SOL    MW412080   3.412   3.584   2.779  0.2279  0.3108 -0.3962
 3079SOL     OW12081   2.072   5.796   4.529  0.0991 -0.3968  0.0106
 3079SOL    HW212082   2.093   5.730   4.464  0.7231  0.7583 -1.0117
 3079SOL    HW312083   2.029   5.866   4.479  0.5985  0.5161  0.8273
 3079SOL    MW412084   2.069   5.797   4.514  0.2478  0.2090  0.0218
 3080SOL     OW12085   2.536   5.820   2.846 -0.1034 -0.0054  0.2335
 3080SOL    HW212086   2.564   5.776   2.765  0.9057 -1.0401  1.1054
 3080SOL    HW312087   2.450   5.784   2.865  0.0014 -0.3587  0.0426
 3080SOL    MW412088   2.528   5.810   2.838  0.0869 -0.2585 -0.1301
 3081SOL     OW12089   2.427   5.577   6.356  0.4907 -0.7976  0.2425
 3081SOL    HW212090   2.402   5.603   6.268  1.5316  2.0977  0.6883
 3081SOL    HW312091   2.506   5.524   6.344  0.1760 -1.0975 -0.5714
 3081SOL    MW412092   2.434   5.573   6.343 -0.4365  0.4762 -0.2766
 3082SOL     OW12093   4.408   3.198   5.550  0.0758 -0.0583 -0.2554
 3082SOL    HW212094   4.487   3.240   5.583  0.0479 -0.3032  0.1223
 3082SOL    HW312095   4.428   3.105   5.547 -1.0145 -0.4527  2.2637
 3082SOL    MW412096   4.421   3.191   5.554 -0.4522  0.1699 -0.5650
 3083SOL     OW12097   5.883   1.854   3.624  0.2763  0.3121  0.2123
 3083SOL    HW212098   5.976   1.846   3.645  0.8921  2.9339 -1.0605
 3083SOL    HW312099   5.869   1.792   3.553  0.9561 -0.3023  0.5986
 3083SOL    MW412100   5.893   1.845   3.618 -0.1442 -0.4778  0.0769
 3084SOL     OW12101   3.025   2.072   2.609 -0.4143 -0.6031  0.1705
 3084SOL    HW212102   3.031   2.165   2.587 -0.9127 -0.5679  0.1804
 3084SOL    HW312103   2.963   2.068   2.681 -1.1228 -1.0403 -0.4474
 3084SOL    MW412104   3.018   2.083   2.615 -0.3741  0.1811  0.3392
 3085SOL     OW12105   2.426   1.214   0.118 -0.1432 -0.2835  0.0193
 3085SOL    HW212106   2.484   1.197   0.044 -0.4321 -1.2105 -0.0018
 3085SOL    HW312107   2.483   1.252   0.185  0.2619 -0.1388 -0.4031
 3085SOL    MW412108   2.441   1.217   0.117  0.5707  0.3785  0.0217
 3086SOL     OW12109   1.899   5.027   2.137  0.2643  0.4973  0.5618
 3086SOL    HW212110   1.870   4.958   2.196  0.1785  0.8100  0.8897
 3086SOL    HW312111   1.900   5.106   2.191 -0.4525  0.9196 -0.0115
 3086SOL    MW412112   1.895   5.028   2.152  0.1440 -0.0682  0.0099
 3087SOL     OW12113   1.725   4.771   5.238  0.4312  0.2727 -0.4139
 3087SOL    HW212114   1.723   4.698   5.300 -0.4777  0.2989 -0.3959
 3087SOL    HW312115   1.650   4.755   5.180 -1.0759  2.2492  0.8433
 3087SOL    MW412116   1.715   4.759   5.239 -0.4353  0.7002 -0.7376
 3088SOL     OW12117   0.305   5.336   6.321  0.0623 -0.1626  0.2754
 3088SOL    HW212118   0.378   5.286   6.286  0.8967 -0.2658  2.0611
 3088SOL    HW312119   0.227   5.285   6.297  0.7847 -1.5548  0.7905
 3088SOL    MW412120   0.304   5.323   6.313 -0.6958 -0.1905  0.0926
 3089SOL     OW12121   2.608   3.997   5.545 -0.4020 -0.1336  0.0451
 3089SOL    HW212122   2.512   3.999   5.542 -0.4079  1.4711  0.3249
 3089SOL    HW312123   2.628   3.992   5.639 -0.1965 -0.4447 -0.0119
 3089SOL    MW412124   2.598   3.996   5.557  0.3785  0.4599 -0.4084
 3090SOL     OW12125   2.775   2.036   2.193 -0.3693  0.4511 -0.4713
 3090SOL    HW212126   2.772   2.066   2.284  0.6604 -0.5414 -0.1014
 3090SOL    HW312127   2.847   2.085   2.154  0.1422 -0.1978 -0.3509
 3090SOL    MW412128   2.784   2.047   2.200 -0.2692 -0.5542  0.1220
 3091SOL     OW12129   6.391   1.212   4.948  0.6824 -0.3995  0.5553
 3091SOL    HW212130   6.345   1.288   4.914  0.5807 -0.3257  0.8522
 3091SOL    HW312131   6.347   1.193   5.031  0.5945 -0.8856  0.3992
 3091SOL    MW412132   6.379   1.219   4.955 -0.4850 -0.4269  0.4637
 3092SOL     OW12133   5.969   0.063   6.097 -0.4530 -0.9228 -0.1739
 3092SOL    HW212134   6.041   0.124   6.112  0.1856 -1.4176 -1.1528
 3092SOL    HW312135   5.915   0.071   6.176  0.2768 -0.0183  0.2634
 3092SOL    MW412136   5.971   0.072   6.110 -0.0436 -0.2494  0.1772
 3093SOL     OW12137   3.712   2.197   6.132  0.2651  0.2591  0.0346
 3093SOL    HW212138   3.755   2.280   6.151 -0.5018  0.6904 -0.0589
 3093SOL    HW312139   3.765   2.158   6.062  0.6375  0.6572  0.0901
 3093SOL    MW412140   3.725   2.203   6.125 -0.1765 -0.0005  0.1698
 3094SOL     OW12141   4.717   2.356   1.801  0.2354 -0.7081 -0.5054
 3094SOL    HW212142   4.728   2.404   1.718  0.3653 -0.8048 -0.5455
 3094SOL    HW312143   4.639   2.394   1.841 -0.5945 -1.5335 -1.2786
 3094SOL    MW412144   4.708   2.368   1.795  0.3900  0.1840  0.0109
 3095SOL     OW12145   2.491   5.328   2.593 -1.0750  0.7103  0.3374
 3095SOL    HW212146   2.446   5.353   2.673  0.4795 -1.3921  2.0037
 3095SOL    HW312147   2.501   5.233   2.600 -0.4088  0.5406 -2.1023
 3095SOL    MW412148   2.487   5.319   2.605  0.0922  0.4150 -0.2660
 3096SOL     OW12149   1.278   1.764   2.386  0.4415  0.6408  0.4291
 3096SOL    HW212150   1.313   1.849   2.414  3.0399 -0.3262  0.3601
 3096SOL    HW312151   1.234   1.730   2.464  0.3266  1.5504  0.7775
 3096SOL    MW412152   1.276   1.771   2.400 -0.0930  0.1910  0.2977
 3097SOL     OW12153   1.361   2.755   1.553 -0.3512 -0.0780 -0.0694
 3097SOL    HW212154   1.420   2.680   1.557  0.2660  0.3239 -1.3563
 3097SOL    HW312155   1.411   2.824   1.512 -1.0322  0.9603  0.7832
 3097SOL    MW412156   1.375   2.754   1.548  0.1612  0.0135 -0.0002
 3098SOL     OW12157   4.727   0.800   3.512  0.1006  0.4226 -0.1916
 3098SOL    HW212158   4.716   0.816   3.419  1.1087  3.3143  0.0765
 3098SOL    HW312159   4.820   0.810   3.528  0.6297 -3.7536  0.6645
 3098SOL    MW412160   4.738   0.803   3.502  0.2942 -0.0974  0.2626
 3099SOL     OW12161   1.126   2.020   3.618  0.2873  0.4518  0.7010
 3099SOL    HW212162   1.093   1.985   3.701 -0.0942  0.6359  0.6306
 3099SOL    HW312163   1.084   1.965   3.551 -0.0276  0.8095  0.6033
 3099SOL    MW412164   1.116   2.008   3.620  0.2403 -0.3423 -0.1683
 3100SOL     OW12165   6.053   0.267   4.496  0.6387 -0.3485  0.3255
 3100SOL    HW212166   5.958   0.268   4.496  0.5654  1.9973 -1.3916
 3100SOL    HW312167   6.078   0.333   4.561  1.1333 -1.0527  0.8775
 3100SOL    MW412168   6.044   0.276   4.504  0.3174 -0.0137  0.2932
 3101SOL     OW12169   3.911   4.182   2.804 -0.4032  0.8224  0.5095
 3101SOL    HW212170   3.921   4.264   2.853 -1.7598  1.4605 -0.2193
 3101SOL    HW312171   3.842   4.201   2.740 -1.6190 -1.2567  1.1288
 3101SOL    MW412172   3.903   4.195   2.802 -0.3741  0.2187 -0.4119
 3102SOL     OW12173   5.192   1.825   5.671  0.1830 -0.2025  0.3017
 3102SOL    HW212174   5.287   1.820   5.677  0.1363 -0.4331  0.9433
 3102SOL    HW312175   5.175   1.872   5.589  0.8507  0.2050  0.3941
 3102SOL    MW412176   5.202   1.831   5.661 -0.1454 -0.6080  0.5257
 3103SOL     OW12177   4.284   4.364   4.917  0.1594  0.5465  0.0524
 3103SOL    HW212178   4.326   4.345   5.001  0.6942 -1.3074 -0.5978
 3103SOL    HW312179   4.356   4.372   4.855 -0.2983  0.6042 -0.4833
 3103SOL    MW412180   4.299   4.363   4.920 -0.3388 -0.1901  0.7862
 3104SOL     OW12181   2.603   6.181   2.962 -0.8179  0.0318 -0.1893
 3104SOL    HW212182   2.605   6.273   2.989 -0.3452  0.3743 -1.3205
 3104SOL    HW312183   2.601   6.132   3.044  0.3758  1.0211  0.4767
 3104SOL    MW412184   2.603   6.187   2.976 -0.2362  0.1095 -0.5741
 3105SOL     OW12185   1.655   1.756   0.604 -0.2533  0.4101  0.4072
 3105SOL    HW212186   1.629   1.738   0.694  0.1939 -0.8263  0.3072
 3105SOL    HW312187   1.731   1.700   0.588 -1.3937 -0.7890 -1.2745
 3105SOL    MW412188   1.661   1.746   0.614  0.4559  0.4981 -0.4038
 3106SOL     OW12189   2.847   0.600   2.335 -0.3339  0.0776  0.0960
 3106SOL    HW212190   2.790   0.630   2.263 -1.0555 -2.1998 -0.3613
 3106SOL    HW312191   2.788   0.552   2.393  0.7880 -0.5958  0.6919
 3106SOL    MW412192   2.832   0.598   2.333  0.0119  0.3399  0.3938
 3107SOL     OW12193   4.269   2.091   0.076  0.5527  0.4866 -0.2662
 3107SOL    HW212194   4.343   2.125   0.126 -0.0254  0.1398  0.8514
 3107SOL    HW312195   4.201   2.075   0.141 -0.6609  1.1828 -1.3316
 3107SOL    MW412196   4.270   2.093   0.091  0.0901 -0.0725 -0.2430
 3108SOL     OW12197   6.060   1.186   4.575  0.1858 -0.0906  0.0457
 3108SOL    HW212198   6.100   1.143   4.651 -1.2397 -2.2084 -0.3203
 3108SOL    HW312199   5.973   1.212   4.605  0.0046  0.0243 -0.5645
 3108SOL    MW412200   6.054   1.184   4.589 -0.4165 -0.0456  0.3241
 3109SOL     OW12201   0.103   6.164   0.895 -0.2521 -0.7065  0.1557
 3109SOL    HW212202   0.060   6.197   0.816 -0.8155  1.4193  1.2731
 3109SOL    HW312203   0.190   6.203   0.894 -1.3293  2.0757  2.0939
 3109SOL    MW412204   0.109   6.174   0.884 -0.1570 -0.1295  0.0656
 3110SOL     OW12205   4.311   2.523   3.069  0.7724  0.5318 -0.5994
 3110SOL    HW212206   4.346   2.451   3.017  1.3353  0.3223  0.0512
 3110SOL    HW312207   4.326   2.601   3.015 -0.3668  0.1042 -1.5558
 3110SOL    MW412208   4.318   2.524   3.055 -0.1814 -0.0492 -0.2727
 3111SOL     OW12209   4.000   5.196   4.655  0.2415 -0.5898  0.3169
 3111SOL    HW212210   3.942   5.131   4.695 -0.1208 -0.7498 -0.4382
 3111SOL    HW312211   3.966   5.280   4.685  0.2229 -0.7207  0.6669
 3111SOL    MW412212   3.988   5.198   4.664  0.3190  0.0404  0.4193
 3112SOL     OW12213   1.412   0.217   1.521  0.2335  0.7483 -0.3811
 3112SOL    HW212214   1.479   0.277   1.554  2.0232 -0.7961 -1.0472
 3112SOL    HW312215   1.449   0.179   1.442 -0.8656 -1.1446 -0.0717
 3112SOL    MW412216   1.425   0.220   1.515 -0.4362 -0.0958 -0.0548
 3113SOL     OW12217   3.427   5.115   2.516 -0.3189  0.2048 -0.3419
 3113SOL    HW212218   3.471   5.195   2.545 -1.6518  1.0528 -0.5456
 3113SOL    HW312219   3.487   5.045   2.539  1.2520  1.3174 -0.8733
 3113SOL    MW412220   3.440   5.117   2.523 -0.5547 -0.1765  0.6268
 3114SOL     OW12221   4.352   4.247   2.875  0.4569  0.1658 -0.3003
 3114SOL    HW212222   4.341   4.200   2.792 -2.6138  0.4513 -0.1753
 3114SOL    HW312223   4.297   4.324   2.866  0.7602  0.6767  1.7021
 3114SOL    MW412224   4.343   4.251   2.863  0.3462 -0.6489 -0.3281
 3115SOL     OW12225   0.901   3.173   1.964 -0.3692  0.2693  0.0421
 3115SOL    HW212226   0.900   3.086   2.005  2.7402  0.5209  0.9162
 3115SOL    HW312227   0.936   3.157   1.876 -0.3978  0.5517 -0.0196
 3115SOL    MW412228   0.906   3.159   1.958 -0.1829  0.3797  0.4585
 3116SOL     OW12229   3.484   2.396   1.415 -0.4157 -0.1068  0.2876
 3116SOL    HW212230   3.497   2.491   1.407  0.0518 -0.1484  0.4977
 3116SOL    HW312231   3.445   2.384   1.501 -0.3432 -0.1150  0.3196
 3116SOL    MW412232   3.481   2.407   1.425 -0.3744  0.0206  0.5450
 3117SOL     OW12233   3.918   1.296   1.152  0.4914  0.0217  0.4310
 3117SOL    HW212234   3.974   1.351   1.207  0.4505  0.3679  0.1275
 3117SOL    HW312235   3.845   1.352   1.128  1.3789  0.4654 -1.4518
 3117SOL    MW412236   3.916   1.310   1.156 -0.5405  0.3601 -0.3265
 3118SOL     OW12237   1.970   0.864   3.704 -0.1636 -0.3240  0.6676
 3118SOL    HW212238   2.018   0.942   3.678 -1.9140  0.2253 -1.1998
 3118SOL    HW312239   1.937   0.884   3.792  1.8786 -0.2383  1.4679
 3118SOL    MW412240   1.972   0.877   3.712 -0.3691  0.2754 -0.4464
 3119SOL     OW12241   3.091   0.653   3.796 -0.1842  0.0922  0.1010
 3119SOL    HW212242   3.112   0.635   3.705 -4.0855  1.1938 -1.1776
 3119SOL    HW312243   3.058   0.570   3.830  1.6884 -0.4404  0.7509
 3119SOL    MW412244   3.090   0.640   3.789  0.1341  0.0964 -0.4419
 3120SOL     OW12245   6.115   0.703   3.503 -0.1698  0.3942  0.0489
 3120SOL    HW212246   6.123   0.659   3.587  0.1911  0.8818  0.2793
 3120SOL    HW312247   6.186   0.667   3.450 -1.3141 -1.0284 -0.5791
 3120SOL    MW412248   6.125   0.693   3.507 -0.2605 -0.4207 -0.1899
 3121SOL     OW12249   4.571   5.676   4.069 -0.0287 -0.1238  0.9100
 3121SOL    HW212250   4.532   5.711   4.149  0.6358  1.1857  0.6834
 3121SOL    HW312251   4.592   5.753   4.017 -0.2940 -0.9599 -0.4601
 3121SOL    MW412252   4.569   5.691   4.073 -0.2725 -0.2604  0.2335
 3122SOL     OW12253   2.361   3.175   5.024  0.1870 -0.1333  0.2774
 3122SOL    HW212254   2.296   3.187   5.093 -0.2312 -1.5153  0.1487
 3122SOL    HW312255   2.412   3.098   5.051  0.9210  0.1447 -0.2729
 3122SOL    MW412256   2.359   3.166   5.037 -0.3423 -0.3314  0.8955
 3123SOL     OW12257   3.197   2.690   0.445  0.1875 -0.2116 -0.0701
 3123SOL    HW212258   3.175   2.673   0.536  2.1102 -1.9155  0.1424
 3123SOL    HW312259   3.245   2.613   0.417  0.7269  0.8127 -2.1644
 3123SOL    MW412260   3.201   2.678   0.453  0.3808 -0.0641  0.8652
 3124SOL     OW12261   6.175   0.437   1.904  0.1030  0.1515 -0.7887
 3124SOL    HW212262   6.227   0.359   1.922 -0.7449 -1.0394 -3.0983
 3124SOL    HW312263   6.097   0.405   1.859 -1.5751  2.1082  0.4940
 3124SOL    MW412264   6.171   0.423   1.901  0.5319  0.6570 -0.0178
 3125SOL     OW12265   4.364   6.222   6.188 -0.0921  0.1684  0.4184
 3125SOL    HW212266   4.294   6.232   6.123  0.4396  0.7342 -0.0745
 3125SOL    HW312267   4.324   6.250   6.270 -0.3652  0.7627  0.0886
 3125SOL    MW412268   4.349   6.227   6.190  0.5640  0.0316  0.2248
 3126SOL     OW12269   1.641   2.499   0.123 -0.2879  0.2462  0.2644
 3126SOL    HW212270   1.647   2.487   0.028  0.3079  2.1706  0.0164
 3126SOL    HW312271   1.713   2.446   0.158 -0.2003 -0.0849 -0.3898
 3126SOL    MW412272   1.651   2.490   0.115  0.5490  0.5846 -0.0514
 3127SOL     OW12273   1.162   5.467   4.799  0.5709  0.5014 -0.2859
 3127SOL    HW212274   1.201   5.380   4.815  3.4738  1.8060  0.4528
 3127SOL    HW312275   1.093   5.475   4.864 -0.4735 -1.6186 -1.0370
 3127SOL    MW412276   1.158   5.456   4.809 -0.2443 -0.3389  0.0448
 3128SOL     OW12277   1.580   5.625   3.165  1.0254  0.0248 -0.4636
 3128SOL    HW212278   1.563   5.572   3.087  2.0263 -0.5019 -0.3401
 3128SOL    HW312279   1.565   5.715   3.135  1.2230 -0.1827 -1.2235
 3128SOL    MW412280   1.576   5.630   3.150  0.1915  0.7340 -0.4529
 3129SOL     OW12281   2.453   2.032   1.111  0.0502  0.3319 -0.2809
 3129SOL    HW212282   2.423   2.104   1.054  0.1099  0.0918 -0.6173
 3129SOL    HW312283   2.373   1.997   1.150 -0.0354  0.1950 -0.5787
 3129SOL    MW412284   2.439   2.037   1.109  0.1836 -0.6111  0.0597
 3130SOL     OW12285   3.758   0.370   4.045 -0.8101 -0.2634 -0.0879
 3130SOL    HW212286   3.810   0.376   3.965 -0.2476 -0.2071  0.2797
 3130SOL    HW312287   3.816   0.402   4.114 -1.3074 -0.2718  0.3367
 3130SOL    MW412288   3.772   0.375   4.044  0.1239 -0.1080  1.1406
 3131SOL     OW12289   6.380   4.926   4.478 -0.5039  0.5539  0.0820
 3131SOL    HW212290   6.328   5.003   4.453 -0.3247  0.3593 -0.9589
 3131SOL    HW312291   6.388   4.876   4.397  3.4930  1.8346 -0.5320
 3131SOL    MW412292   6.374   4.930   4.464 -1.1617 -0.0389 -0.3744
 3132SOL     OW12293   3.236   3.218   2.896  0.8015 -0.1929  0.2490
 3132SOL    HW212294   3.250   3.221   2.801 -0.2810 -2.0481 -0.0241
 3132SOL    HW312295   3.256   3.127   2.920  0.4588  0.0924  1.6863
 3132SOL    MW412296   3.241   3.206   2.887 -0.3525  0.2777  0.6795
 3133SOL     OW12297   1.225   1.722   4.542 -0.0967 -0.5402 -0.6393
 3133SOL    HW212298   1.267   1.739   4.627  0.9663  0.9540 -1.4198
 3133SOL    HW312299   1.131   1.718   4.563 -0.1450  2.6097  0.2849
 3133SOL    MW412300   1.218   1.724   4.556  0.3446  0.4429  0.2060
 3134SOL     OW12301   1.492   1.068   6.350  0.1551  0.6789 -0.0822
 3134SOL    HW212302   1.495   1.163   6.337 -0.7718  0.6886 -0.2609
 3134SOL    HW312303   1.584   1.042   6.353  0.4198  1.5069 -0.5852
 3134SOL    MW412304   1.505   1.077   6.349  0.5555  0.1246  0.0771
 3135SOL     OW12305   2.423   4.453   3.803  0.4879 -0.1101 -0.2192
 3135SOL    HW212306   2.498   4.498   3.843 -0.3771 -0.1878  1.6001
 3135SOL    HW312307   2.425   4.365   3.841  0.0018 -0.3976 -0.8548
 3135SOL    MW412308   2.433   4.447   3.814  0.0193 -0.3617  0.8230
 3136SOL     OW12309   1.968   6.425   2.211 -0.0430  0.6913  0.3514
 3136SOL    HW212310   1.921   6.364   2.268  1.2815  0.7084  1.5116
 3136SOL    HW312311   1.922   6.419   2.127 -1.3473 -0.1784  1.0889
 3136SOL    MW412312   1.955   6.416   2.208  0.2800 -0.3244  0.1071
 3137SOL     OW12313   5.949   2.741   1.855  0.2603  0.5608 -0.0728
 3137SOL    HW212314   6.025   2.681   1.859 -1.7233 -2.1285  0.3006
 3137SOL    HW312315   5.931   2.751   1.762  0.0275 -0.2464 -0.1203
 3137SOL    MW412316   5.957   2.734   1.843  0.2625  0.2759  0.1194
 3138SOL     OW12317   0.056   1.641   5.470 -0.0736 -0.1559 -0.0330
 3138SOL    HW212318   0.012   1.676   5.547 -0.3136 -0.7125  0.0809
 3138SOL    HW312319   0.141   1.610   5.502 -1.2342 -2.9636  0.5845
 3138SOL    MW412320   0.062   1.642   5.484 -0.3190  0.1762  0.1302
 3139SOL     OW12321   4.948   3.632   0.428 -0.2307 -0.7669  0.2062
 3139SOL    HW212322   4.982   3.706   0.379 -2.1997  0.5208  0.6668
 3139SOL    HW312323   5.022   3.572   0.436  0.6203 -0.2339 -2.7624
 3139SOL    MW412324   4.962   3.634   0.423 -0.2682 -0.2305 -0.1339
 3140SOL     OW12325   4.562   3.572   4.634  0.1202  0.7552  0.1237
 3140SOL    HW212326   4.606   3.622   4.566  1.5330 -0.4454  0.0910
 3140SOL    HW312327   4.502   3.514   4.587  4.5708 -3.7103 -0.8566
 3140SOL    MW412328   4.560   3.571   4.619  0.3093 -0.3352 -0.5375
 3141SOL     OW12329   4.923   5.724   5.038  0.1290  0.2803  0.1293
 3141SOL    HW212330   4.915   5.819   5.027 -0.7607  0.0791 -1.1654
 3141SOL    HW312331   4.892   5.708   5.127 -2.1632  0.9561 -0.4727
 3141SOL    MW412332   4.918   5.735   5.048  0.1035 -0.2795  0.7576
 3142SOL     OW12333   4.181   6.224   3.194  0.1682 -0.1177  0.1344
 3142SOL    HW212334   4.145   6.160   3.132  3.1381 -0.5840 -1.2816
 3142SOL    HW312335   4.208   6.298   3.139 -1.4806  1.6219  1.5199
 3142SOL    MW412336   4.180   6.226   3.178 -0.0087  0.2466 -0.1394
 3143SOL     OW12337   3.524   4.581   4.160 -0.3802 -0.0626  0.6939
 3143SOL    HW212338   3.492   4.490   4.161 -1.0256  0.1608  0.9112
 3143SOL    HW312339   3.619   4.573   4.159 -0.4337 -0.7484 -0.1192
 3143SOL    MW412340   3.532   4.568   4.160 -0.5050  0.0699 -0.1361
 3144SOL     OW12341   5.466   5.570   2.047 -0.0714  0.4591  0.3235
 3144SOL    HW212342   5.503   5.539   1.964  0.2871  1.0115  0.2726
 3144SOL    HW312343   5.492   5.662   2.052 -1.6532  0.9406  0.1695
 3144SOL    MW412344   5.474   5.578   2.037 -0.1154  0.0908 -0.4139
 3145SOL     OW12345   5.948   4.019   1.267  0.4739  0.1837  0.0572
 3145SOL    HW212346   5.996   3.955   1.214  0.5471  0.0847  0.2417
 3145SOL    HW312347   5.989   4.103   1.246  1.0795  0.0356  0.6009
 3145SOL    MW412348   5.960   4.021   1.257 -0.8396  0.5955 -0.0537
 3146SOL     OW12349   1.011   0.627   5.235  0.3720  0.2942  0.1187
 3146SOL    HW212350   1.044   0.671   5.156  0.0732 -0.4922 -0.4537
 3146SOL    HW312351   1.078   0.561   5.255  0.3278  0.3297  0.3831
 3146SOL    MW412352   1.024   0.624   5.227  0.1917 -0.0608  0.2364
 3147SOL     OW12353   2.617   1.689   5.515 -0.1386 -0.3747 -0.2062
 3147SOL    HW212354   2.590   1.740   5.591 -2.6021 -0.6534 -0.7813
 3147SOL    HW312355   2.610   1.598   5.543 -2.4439 -0.5433 -1.0428
 3147SOL    MW412356   2.612   1.684   5.529  0.2486  0.1922  0.1842
 3148SOL     OW12357   2.310   1.647   6.344 -0.2305 -0.5028 -0.1511
 3148SOL    HW212358   2.268   1.573   6.389  1.6450  0.0170  2.7444
 3148SOL    HW312359   2.387   1.610   6.302  0.3544 -0.3510  0.7547
 3148SOL    MW412360   2.315   1.633   6.345 -0.7804  0.0912  0.5186
 3149SOL     OW12361   3.163   2.199   4.997  0.4770 -0.5526 -0.2873
 3149SOL    HW212362   3.073   2.215   4.971  0.9241 -0.1853 -1.6994
 3149SOL    HW312363   3.206   2.285   4.989  0.1734  0.2294  4.0373
 3149SOL    MW412364   3.157   2.213   4.993  0.3079 -0.7561 -0.0805
 3150SOL     OW12365   6.347   5.997   2.674  0.3685  0.3285 -0.4505
 3150SOL    HW212366   6.348   6.072   2.615  0.7149 -0.2141 -1.1428
 3150SOL    HW312367   6.256   5.968   2.674  0.6134 -0.4751 -1.7570
 3150SOL    MW412368   6.335   6.003   2.666  0.3224 -0.2699 -0.2750
 3151SOL     OW12369   2.890   4.839   2.532 -0.1632 -0.4879 -0.1516
 3151SOL    HW212370   2.889   4.929   2.499 -1.9431 -0.2214  0.5085
 3151SOL    HW312371   2.893   4.849   2.627 -0.8207 -1.0974 -0.0577
 3151SOL    MW412372   2.890   4.852   2.540  0.2181 -0.0196 -0.8385
 3152SOL     OW12373   2.581   0.507   5.933  0.1326 -0.5366 -0.5502
 3152SOL    HW212374   2.519   0.445   5.971 -0.1716  0.2816  0.3346
 3152SOL    HW312375   2.606   0.468   5.850 -1.0440 -1.2203 -0.6089
 3152SOL    MW412376   2.576   0.494   5.927 -0.1630  0.1518  0.0911
 3153SOL     OW12377   5.907   2.643   3.324  0.4123 -0.0778  0.2848
 3153SOL    HW212378   5.956   2.713   3.280 -1.2380  0.8021 -0.2409
 3153SOL    HW312379   5.974   2.589   3.366  1.7246  2.0163  1.0174
 3153SOL    MW412380   5.922   2.645   3.324  0.0957  0.3247  0.5957
 3154SOL     OW12381   2.359   5.643   2.159 -0.6318 -0.4789 -0.0630
 3154SOL    HW212382   2.366   5.703   2.233 -0.7738 -1.3318  0.6565
 3154SOL    HW312383   2.417   5.571   2.180  2.3698  0.9801 -2.5659
 3154SOL    MW412384   2.367   5.641   2.172 -0.1744  0.5916 -0.2603
 3155SOL     OW12385   1.669   3.013   3.295  0.1038 -0.1785 -0.5904
 3155SOL    HW212386   1.724   2.947   3.338 -0.4436 -0.8706 -0.9293
 3155SOL    HW312387   1.580   2.983   3.311 -0.1776  0.8600 -0.1677
 3155SOL    MW412388   1.665   3.000   3.303 -0.0327  0.1591 -0.1548
 3156SOL     OW12389   1.293   0.278   0.319 -0.4390  0.0132 -0.8863
 3156SOL    HW212390   1.237   0.220   0.267 -1.4275 -0.1796  0.3397
 3156SOL    HW312391   1.305   0.232   0.402  1.0254  0.3518 -0.8893
 3156SOL    MW412392   1.287   0.265   0.323 -0.2913 -0.0517 -0.5033
 3157SOL     OW12393   5.095   1.135   2.748  0.0440  0.4486  0.3588
 3157SOL    HW212394   5.105   1.042   2.731 -2.5180  0.3272 -1.0106
 3157SOL    HW312395   5.006   1.144   2.781 -0.6314  2.6034 -1.7456
 3157SOL    MW412396   5.085   1.124   2.750  0.2228 -0.2218 -0.2794
 3158SOL     OW12397   4.081   1.217   3.292  0.6118 -0.3199  0.0191
 3158SOL    HW212398   4.076   1.312   3.282 -0.0254 -0.1689  1.4705
 3158SOL    HW312399   4.034   1.182   3.216 -1.7307  0.6175  0.9283
 3158SOL    MW412400   4.074   1.225   3.281 -0.1417 -0.3121  0.6102
 3159SOL     OW12401   4.230   2.378   6.346 -0.2520 -0.0897  0.1676
 3159SOL    HW212402   4.304   2.337   6.302  0.0838 -1.1422  1.6319
 3159SOL    HW312403   4.163   2.310   6.348 -0.4372  0.0998  0.8158
 3159SOL    MW412404   4.231   2.363   6.341  0.2686 -0.4915 -0.0555
 3160SOL     OW12405   5.865   4.930   4.081 -0.0193 -0.1494 -0.6282
 3160SOL    HW212406   5.815   4.987   4.023  0.1496 -0.9924 -1.6511
 3160SOL    HW312407   5.831   4.948   4.168 -0.6127  0.8213 -1.0388
 3160SOL    MW412408   5.854   4.940   4.085 -0.5679 -0.1951 -0.2017
 3161SOL     OW12409   0.420   1.663   3.945  0.2652  0.3666  0.0083
 3161SOL    HW212410   0.505   1.693   3.978  0.6813 -0.8731  0.0940
 3161SOL    HW312411   0.400   1.722   3.872  1.1956  0.6600 -0.0156
 3161SOL    MW412412   0.428   1.675   3.940 -0.7624 -0.1098  0.2148
 3162SOL     OW12413   3.700   2.805   1.986  0.2399  0.0877 -0.1153
 3162SOL    HW212414   3.760   2.747   2.033 -0.4716 -1.5130 -1.1043
 3162SOL    HW312415   3.757   2.856   1.927  1.0829  1.7877  2.0417
 3162SOL    MW412416   3.716   2.804   1.984 -0.0720  0.0370 -0.7702
 3163SOL     OW12417   4.188   6.408   6.318 -0.2326  0.4915  0.0398
 3163SOL    HW212418   4.122   6.458   6.366 -0.7689 -0.9674  0.8893
 3163SOL    HW312419   4.176   6.434   6.227 -0.9012  1.4255  0.3716
 3163SOL    MW412420   4.178   6.418   6.313 -0.0039  0.4189 -0.3698
 3164SOL     OW12421   6.161   2.540   1.825 -0.4554  0.0537  0.1194
 3164SOL    HW212422   6.251   2.570   1.836 -1.1940  1.4625  3.6721
 3164SOL    HW312423   6.169   2.445   1.812  1.5056  0.0446  1.0107
 3164SOL    MW412424   6.174   2.531   1.825 -0.4697  0.0791  0.4044
 3165SOL     OW12425   0.865   2.113   5.628  0.1207 -0.6386  0.2389
 3165SOL    HW212426   0.899   2.175   5.564 -0.1361 -0.8938 -0.1562
 3165SOL    HW312427   0.895   2.145   5.712 -1.3317  0.9196  0.2067
 3165SOL    MW412428   0.873   2.125   5.630 -1.0841  0.5635  0.3020
 3166SOL     OW12429   3.657   0.279   4.375  0.1819  0.2338 -0.0335
 3166SOL    HW212430   3.579   0.249   4.328  0.2512 -0.3199  0.1893
 3166SOL    HW312431   3.692   0.199   4.415  0.5395  0.5763  0.3414
 3166SOL    MW412432   3.651   0.264   4.374 -0.2353  0.0530 -0.1375
 3167SOL     OW12433   1.600   2.104   5.379 -0.5546  0.0515 -0.0405
 3167SOL    HW212434   1.626   2.186   5.422  3.4131 -2.2877  2.6959
 3167SOL    HW312435   1.636   2.111   5.291  2.8226  0.1679  1.1837
 3167SOL    MW412436   1.608   2.116   5.373 -0.2129 -0.1058 -0.6019
 3168SOL     OW12437   2.152   1.981   6.126  0.2151  0.5199  0.5094
 3168SOL    HW212438   2.205   2.035   6.185  0.1751  0.6907  0.3919
 3168SOL    HW312439   2.065   1.979   6.167  0.1365  0.7948  0.3650
 3168SOL    MW412440   2.147   1.988   6.139 -0.4307  0.0272  0.0822
 3169SOL     OW12441   3.334   3.256   5.898  0.0380  0.1916  0.5027
 3169SOL    HW212442   3.296   3.184   5.949  0.6775 -0.9714 -0.6043
 3169SOL    HW312443   3.389   3.302   5.961 -0.4858 -0.1892  1.2700
 3169SOL    MW412444   3.336   3.252   5.913  0.5365  0.3597 -0.3009
 3170SOL     OW12445   0.528   5.814   0.122 -0.8466 -0.1539 -0.2895
 3170SOL    HW212446   0.577   5.824   0.040 -1.3184  0.2083 -0.5364
 3170SOL    HW312447   0.516   5.719   0.131  0.7823 -0.3354  0.3215
 3170SOL    MW412448   0.533   5.803   0.112 -0.0061  0.0909  0.5185
 3171SOL     OW12449   3.571   5.337   5.686  0.0311  0.3745 -0.3280
 3171SOL    HW212450   3.568   5.380   5.772 -0.2838  1.0850 -0.6841
 3171SOL    HW312451   3.521   5.395   5.629  1.0822  0.4198 -1.2253
 3171SOL    MW412452   3.564   5.351   5.690  0.4183 -0.5463 -0.2422
 3172SOL     OW12453   0.169   5.058   2.104  0.1209 -0.3333  0.1196
 3172SOL    HW212454   0.103   4.993   2.126 -0.8067  0.7909  0.7387
 3172SOL    HW312455   0.248   5.029   2.148 -0.3568 -0.8993  0.6017
 3172SOL    MW412456   0.171   5.046   2.113 -0.4987  0.5679  0.7960
 3173SOL     OW12457   3.379   5.235   2.164 -0.6467  0.0348 -0.4759
 3173SOL    HW212458   3.399   5.227   2.071 -0.6537  0.8666 -0.5596
 3173SOL    HW312459   3.311   5.302   2.169 -2.1001 -1.3908 -0.0285
 3173SOL    MW412460   3.373   5.243   2.153 -0.4085 -0.4669  0.0871
 3174SOL     OW12461   5.507   1.730   3.005  0.0145  0.8919  0.0377
 3174SOL    HW212462   5.551   1.645   3.004 -1.8825 -0.1268 -0.1853
 3174SOL    HW312463   5.511   1.758   3.096  0.8882  0.7260  0.0646
 3174SOL    MW412464   5.514   1.723   3.017  0.2501  0.1512  0.2386
 3175SOL     OW12465   2.489   1.982   3.960  0.2314  0.4013  0.0399
 3175SOL    HW212466   2.403   2.019   3.940  0.5268  0.6793 -0.7395
 3175SOL    HW312467   2.471   1.913   4.023 -0.5902  0.3098 -0.2862
 3175SOL    MW412468   2.475   1.978   3.966 -0.3564  0.1361  0.0361
 3176SOL     OW12469   5.758   0.028   3.265  0.5128  0.2713 -0.3146
 3176SOL    HW212470   5.708   0.014   3.184  0.5232  0.2023 -0.3093
 3176SOL    HW312471   5.846  -0.004   3.245 -0.2012 -2.6391  0.6508
 3176SOL    MW412472   5.763   0.022   3.251 -0.2432 -0.4683 -0.0755
 3177SOL     OW12473   1.027   2.351   5.083  0.2620  0.1839 -0.0793
 3177SOL    HW212474   1.018   2.317   5.173 -0.5025 -0.6558 -0.4586
 3177SOL    HW312475   0.940   2.383   5.061  0.5632  0.8211 -0.3677
 3177SOL    MW412476   1.014   2.350   5.092 -0.2872 -0.3265 -0.2174
 3178SOL     OW12477   1.686   1.277   1.776 -0.1266 -0.0689 -0.1569
 3178SOL    HW212478   1.769   1.322   1.762  0.1425 -1.2755 -3.2405
 3178SOL    HW312479   1.675   1.222   1.699 -4.3289  0.8050 -0.4399
 3178SOL    MW412480   1.695   1.275   1.764  0.3734 -0.2026 -0.0320
 3179SOL     OW12481   3.012   4.568   5.152 -1.1544 -0.1559  0.6999
 3179SOL    HW212482   3.000   4.476   5.130  1.4708 -0.8663  1.8500
 3179SOL    HW312483   3.049   4.607   5.073 -3.4908  0.3187 -0.2551
 3179SOL    MW412484   3.015   4.561   5.139  0.6255 -0.5615 -0.3790
 3180SOL     OW12485   5.873   3.439   4.710 -0.4609 -0.2496  0.0283
 3180SOL    HW212486   5.807   3.474   4.651 -0.4887 -2.0486 -1.0547
 3180SOL    HW312487   5.954   3.441   4.660 -0.1639 -0.3036  0.4993
 3180SOL    MW412488   5.875   3.444   4.696 -0.0952 -1.1954  0.3553
 3181SOL     OW12489   5.033   2.170   0.914 -0.5528  0.2684 -0.1217
 3181SOL    HW212490   5.071   2.230   0.978 -0.4775 -0.1443  0.2248
 3181SOL    HW312491   4.998   2.098   0.966  0.6079 -0.6849 -0.6049
 3181SOL    MW412492   5.034   2.168   0.929  0.5318 -0.3504  0.0381
 3182SOL     OW12493   2.198   4.815   5.558  0.1244 -0.6772 -0.6442
 3182SOL    HW212494   2.102   4.820   5.555  0.1020 -0.5681  0.2196
 3182SOL    HW312495   2.227   4.889   5.505 -0.2568 -1.2826 -1.7570
 3182SOL    MW412496   2.189   4.825   5.550 -0.0652  0.0032 -0.1074
 3183SOL     OW12497   0.373   1.484   4.911  0.3723  0.4065  0.1550
 3183SOL    HW212498   0.307   1.463   4.844  2.4905  0.3685 -2.0448
 3183SOL    HW312499   0.321   1.506   4.989 -2.2091 -0.2862 -1.2420
 3183SOL    MW412500   0.357   1.484   4.913  0.1894 -0.0073  0.5930
 3184SOL     OW12501   3.817   3.730   0.425 -0.7773 -0.2616 -0.0339
 3184SOL    HW212502   3.841   3.799   0.363 -0.3737 -2.3263 -2.3659
 3184SOL    HW312503   3.900   3.704   0.465 -1.0727  1.2518  1.6811
 3184SOL    MW412504   3.831   3.736   0.422  0.4099 -0.1000  0.1530
 3185SOL     OW12505   1.522   4.011   2.741 -0.0239  0.0605  0.4698
 3185SOL    HW212506   1.463   4.080   2.712  0.0698 -0.1004 -0.1268
 3185SOL    HW312507   1.582   3.998   2.667  0.3302 -0.2448  0.8057
 3185SOL    MW412508   1.522   4.018   2.727 -0.1472 -0.4234  0.4914
 3186SOL     OW12509   4.662   1.869   6.046  0.0277  0.1213  0.0172
 3186SOL    HW212510   4.726   1.923   6.092 -0.8182 -0.2762  1.7594
 3186SOL    HW312511   4.713   1.823   5.979  1.2381  1.0396  0.2736
 3186SOL    MW412512   4.677   1.870   6.043  0.1474 -0.1732 -0.1629
 3187SOL     OW12513   3.744   6.187   4.942 -0.1593  0.6543  0.1007
 3187SOL    HW212514   3.801   6.171   4.867 -2.4545 -0.1558 -1.5829
 3187SOL    HW312515   3.803   6.189   5.017  2.2056  1.1353 -1.6445
 3187SOL    MW412516   3.759   6.185   4.942  0.1792 -0.1086  0.0459
 3188SOL     OW12517   2.547   4.995   3.707  0.4178  0.5443 -0.2099
 3188SOL    HW212518   2.584   5.017   3.622 -0.6075 -2.0342 -1.4387
 3188SOL    HW312519   2.528   4.901   3.702  0.7478  0.1616  3.0481
 3188SOL    MW412520   2.549   4.986   3.695 -0.3896  0.2378 -0.0052
 3189SOL     OW12521   1.913   3.063   5.254  0.1627  0.9159  0.5417
 3189SOL    HW212522   1.960   3.089   5.334 -0.8408  2.0338  0.7984
 3189SOL    HW312523   1.980   3.026   5.197  1.0616  0.9888  1.5262
 3189SOL    MW412524   1.928   3.061   5.257  0.7482 -0.5009 -0.6101
 3190SOL     OW12525   3.278   4.256   1.091  0.1949  0.5188 -0.0412
 3190SOL    HW212526   3.243   4.216   1.171 -0.3882 -0.3448 -0.7018
 3190SOL    HW312527   3.205   4.251   1.029  0.7274  0.9290 -0.7035
 3190SOL    MW412528   3.263   4.250   1.094 -1.2110  0.2694 -0.8010
 3191SOL     OW12529   2.085   5.669   5.317  0.0742 -0.1187  0.6071
 3191SOL    HW212530   2.085   5.593   5.258 -0.7375 -1.4385  2.2435
 3191SOL    HW312531   2.153   5.650   5.381 -1.1285 -0.1653  1.8928
 3191SOL    MW412532   2.094   5.657   5.317 -0.3926 -0.1007  0.2214
 3192SOL     OW12533   0.519   4.108   1.583 -0.1630  0.5921 -0.0878
 3192SOL    HW212534   0.444   4.064   1.542  0.4933 -0.0014 -0.6802
 3192SOL    HW312535   0.574   4.036   1.616  0.1006  1.0241  0.4281
 3192SOL    MW412536   0.516   4.093   1.582 -0.1391 -0.4547  0.0840
 3193SOL     OW12537   4.137   0.805   3.712  0.2405  0.0293  0.5631
 3193SOL    HW212538   4.104   0.891   3.684  0.2844 -0.2097 -0.2553
 3193SOL    HW312539   4.227   0.821   3.740  0.9392 -0.0405 -1.4349
 3193SOL    MW412540   4.144   0.818   3.712  0.7810  0.6485  0.4592
 3194SOL     OW12541   0.475   1.455   1.152 -0.6122  0.1667 -0.2458
 3194SOL    HW212542   0.486   1.462   1.247 -1.0019  0.0549 -0.1939
 3194SOL    HW312543   0.553   1.407   1.123 -0.4077  0.3486 -0.0051
 3194SOL    MW412544   0.487   1.449   1.160 -0.0634  0.5228  0.4830
 3195SOL     OW12545   1.177   3.363   4.621 -0.0890  0.7390  0.0382
 3195SOL    HW212546   1.253   3.415   4.645 -0.0616  0.9809 -0.5354
 3195SOL    HW312547   1.176   3.365   4.525 -0.6526  0.5046  0.0324
 3195SOL    MW412548   1.187   3.370   4.611 -0.0142  0.2213  0.5792
 3196SOL     OW12549   1.779   2.989   2.318  0.0887 -0.5553  0.2803
 3196SOL    HW212550   1.773   2.896   2.301  1.7173 -0.5576 -0.4874
 3196SOL    HW312551   1.850   2.998   2.383  0.0747  0.1527  0.2151
 3196SOL    MW412552   1.788   2.978   2.325  0.0353  0.1537  0.8140
 3197SOL     OW12553   3.594   3.695   2.208 -0.0369  0.0318 -0.1581
 3197SOL    HW212554   3.639   3.693   2.292 -0.2548 -0.6468 -0.0468
 3197SOL    HW312555   3.607   3.607   2.172 -1.3684 -0.2306 -0.0686
 3197SOL    MW412556   3.601   3.683   2.214  0.3202 -0.3821 -0.0481
 3198SOL     OW12557   1.092   5.487   0.869  0.2759 -0.0892 -0.0436
 3198SOL    HW212558   1.069   5.529   0.786  1.1994 -0.0605 -0.2861
 3198SOL    HW312559   1.184   5.465   0.860  0.2855 -0.4206  0.8392
 3198SOL    MW412560   1.101   5.490   0.856  0.1033 -0.2788 -0.2337
 3199SOL     OW12561   2.051   3.048   4.262  0.1389  0.5647  0.0722
 3199SOL    HW212562   2.037   3.109   4.335 -0.0750 -1.2677  1.6456
 3199SOL    HW312563   1.966   3.042   4.219 -0.2141  0.2861  0.7986
 3199SOL    MW412564   2.038   3.055   4.266  0.0041 -0.4796  0.0106
 3200SOL     OW12565   1.322   2.862   4.045 -0.3141 -0.3754 -0.1833
 3200SOL    HW212566   1.267   2.823   3.977 -1.7031  0.6689  0.2936
 3200SOL    HW312567   1.279   2.839   4.127 -1.4539  2.3897  0.1120
 3200SOL    MW412568   1.309   2.854   4.046  0.0279 -0.1302  0.1356
 3201SOL     OW12569   2.386   0.588   0.339  0.3829 -0.2899 -0.2441
 3201SOL    HW212570   2.351   0.505   0.372  1.1451 -0.5322 -0.0300
 3201SOL    HW312571   2.321   0.653   0.365  0.9923 -0.4435  1.8872
 3201SOL    MW412572   2.373   0.585   0.347  0.0767 -0.2516 -0.4929
 3202SOL     OW12573   0.756   3.206   1.140 -0.3371 -0.3877  0.1657
 3202SOL    HW212574   0.721   3.137   1.196  0.7157 -1.3503 -0.3268
 3202SOL    HW312575   0.722   3.187   1.053  0.1212 -0.4151 -0.0118
 3202SOL    MW412576   0.747   3.195   1.136 -0.1065  0.0880  0.1435
 3203SOL     OW12577   3.878   2.020   0.962  0.3295 -0.0761  0.5460
 3203SOL    HW212578   3.955   1.973   0.931 -0.2417  0.0923 -1.2502
 3203SOL    HW312579   3.813   1.951   0.977  0.1228 -0.0444 -0.1609
 3203SOL    MW412580   3.879   2.004   0.960  0.4063 -0.1080 -0.2016
 3204SOL     OW12581   3.537   3.997   1.770 -0.8839 -0.3048  0.3236
 3204SOL    HW212582   3.537   3.933   1.698  1.0389 -0.7867  0.6903
 3204SOL    HW312583   3.460   3.974   1.823 -0.3366 -2.2411  0.3480
 3204SOL    MW412584   3.527   3.985   1.768 -0.0052  0.2909  0.2488
 3205SOL     OW12585   5.542   3.437   1.919 -0.7140 -0.0730 -0.2661
 3205SOL    HW212586   5.479   3.504   1.892  0.6628  1.9961  1.3715
 3205SOL    HW312587   5.496   3.354   1.903 -3.0571  1.2662 -1.0277
 3205SOL    MW412588   5.527   3.435   1.914  0.1528  0.1496  0.5111
 3206SOL     OW12589   0.572   3.384   5.062  0.2515 -0.3719  0.0221
 3206SOL    HW212590   0.522   3.463   5.038  0.4958 -0.2747 -0.1664
 3206SOL    HW312591   0.525   3.312   5.020 -0.2377 -0.3858  0.5652
 3206SOL    MW412592   0.559   3.385   5.054 -0.1533  0.6038  0.4562
 3207SOL     OW12593   2.826   1.799   2.671  0.1418 -0.0102 -1.0731
 3207SOL    HW212594   2.797   1.882   2.709  1.2534  0.7058 -1.7449
 3207SOL    HW312595   2.764   1.781   2.601 -0.8236 -0.3941 -0.1518
 3207SOL    MW412596   2.814   1.807   2.667  0.5337 -0.0544  0.4800
 3208SOL     OW12597   0.399   4.276   5.391  0.1266 -0.3069  0.0673
 3208SOL    HW212598   0.385   4.304   5.300 -0.3959  1.2381  0.5768
 3208SOL    HW312599   0.363   4.348   5.443  0.1915 -1.2787  1.5065
 3208SOL    MW412600   0.392   4.289   5.386 -0.5033 -0.1188  0.0752
 3209SOL     OW12601   6.005   4.246   3.004 -0.3004 -0.1908 -0.3179
 3209SOL    HW212602   5.921   4.290   3.017 -1.5881 -2.6146  0.2281
 3209SOL    HW312603   5.982   4.153   2.999  2.2947 -0.8587 -0.9528
 3209SOL    MW412604   5.991   4.240   3.005 -0.2166  0.1594  0.1277
 3210SOL     OW12605   1.242   6.126   1.700 -0.0558  0.0932 -0.3877
 3210SOL    HW212606   1.193   6.168   1.771  0.2808 -0.1437 -0.0134
 3210SOL    HW312607   1.207   6.037   1.696 -1.8888  0.8256 -2.2263
 3210SOL    MW412608   1.231   6.120   1.709 -0.0230  0.6094  0.3205
 3211SOL     OW12609   0.507   5.206   4.232 -0.0862  0.0367 -0.0317
 3211SOL    HW212610   0.593   5.245   4.219  0.2043  0.1024  1.7886
 3211SOL    HW312611   0.521   5.142   4.302 -2.0712  2.3489  2.7421
 3211SOL    MW412612   0.520   5.203   4.240 -0.4603 -0.8648 -0.1073
 3212SOL     OW12613   0.682   1.896   1.804 -0.1855 -0.0396 -0.3685
 3212SOL    HW212614   0.751   1.848   1.758  4.6780  1.2387  4.4547
 3212SOL    HW312615   0.705   1.988   1.795 -1.6612  0.5113  0.9169
 3212SOL    MW412616   0.694   1.902   1.797 -0.1831 -0.1773 -0.1654
 3213SOL     OW12617   1.880   6.213   1.147  0.4210  0.3693  0.0433
 3213SOL    HW212618   1.943   6.248   1.210  0.3754 -0.0140  0.3053
 3213SOL    HW312619   1.886   6.272   1.072  1.6144 -0.0826 -0.2337
 3213SOL    MW412620   1.889   6.225   1.145 -0.2143  0.0823 -0.6071
 3214SOL     OW12621   0.195   6.304   2.208 -0.2298 -0.3472 -0.2216
 3214SOL    HW212622   0.108   6.265   2.199  0.0060 -1.0746  0.5325
 3214SOL    HW312623   0.191   6.385   2.157 -0.9092 -1.0693 -1.3452
 3214SOL    MW412624   0.183   6.310   2.200 -0.3785 -0.6401  0.6515
 3215SOL     OW12625   5.607   3.577   1.267  0.1571  0.7043 -0.2874
 3215SOL    HW212626   5.622   3.513   1.337  0.1386  0.4083 -0.5510
 3215SOL    HW312627   5.516   3.564   1.242  0.2430  0.6172 -0.5566
 3215SOL    MW412628   5.597   3.567   1.273  0.2248 -0.3363  0.0646
 3216SOL     OW12629   6.065   1.339   2.153 -0.6841 -0.5027 -0.0912
 3216SOL    HW212630   5.981   1.377   2.130 -0.2343  0.5635 -0.0205
 3216SOL    HW312631   6.095   1.389   2.229 -1.0121 -2.3529  1.3240
 3216SOL    MW412632   6.058   1.350   2.160 -0.1817  0.3261  0.2339
 3217SOL     OW12633   2.972   0.299   0.952 -0.0497 -0.2706 -0.7109
 3217SOL    HW212634   2.944   0.378   0.999  0.1877  0.0469 -1.1008
 3217SOL    HW312635   3.043   0.264   1.006  0.6336  0.4279 -1.1346
 3217SOL    MW412636   2.978   0.305   0.966 -0.2129  0.1877  0.3072
 3218SOL     OW12637   4.734   1.944   4.389  0.0208 -0.2093 -0.2463
 3218SOL    HW212638   4.758   1.870   4.444  2.3586  0.9591  0.3907
 3218SOL    HW312639   4.805   1.951   4.325  0.7328  2.4112  0.7063
 3218SOL    MW412640   4.746   1.935   4.388  0.3649 -0.2968 -0.1065
 3219SOL     OW12641   0.223   5.847   5.689 -0.7762  0.0648  0.5821
 3219SOL    HW212642   0.187   5.910   5.627 -0.7816 -0.9632 -0.4953
 3219SOL    HW312643   0.261   5.779   5.635 -0.3408 -0.6291  1.7164
 3219SOL    MW412644   0.223   5.846   5.674 -0.3745 -0.4755 -0.3977
 3220SOL     OW12645   0.709   3.900   1.370 -0.0068  0.0111 -0.4782
 3220SOL    HW212646   0.767   3.839   1.326  0.2716 -0.2666  0.2580
 3220SOL    HW312647   0.755   3.984   1.366 -0.0954  0.0410 -0.9239
 3220SOL    MW412648   0.723   3.903   1.364  0.4692 -0.6227 -0.6677
 3221SOL     OW12649   5.059   6.024   1.217  0.4201  0.1501 -0.0769
 3221SOL    HW212650   5.135   6.058   1.170 -0.0480  1.2731 -0.0424
 3221SOL    HW312651   5.018   6.101   1.257  1.1998 -0.7811  2.8329
 3221SOL    MW412652   5.063   6.038   1.216 -0.1975  0.2442  0.2401
 3222SOL     OW12653   5.463   3.956   4.643 -0.6129 -0.1125 -0.0618
 3222SOL    HW212654   5.468   3.909   4.560 -1.0335 -0.5695  0.1681
 3222SOL    HW312655   5.423   3.894   4.704 -2.2337  0.9064 -0.0427
 3222SOL    MW412656   5.458   3.942   4.640  0.7450  0.3576  0.1331
 3223SOL     OW12657   0.473   6.045   3.787 -0.3803  0.5289 -0.0446
 3223SOL    HW212658   0.386   6.007   3.802  0.1005 -0.9549 -0.8932
 3223SOL    HW312659   0.526   6.015   3.860  0.3730 -1.7041 -1.4283
 3223SOL    MW412660   0.468   6.036   3.799 -0.7858  0.9446 -0.2101
 3224SOL     OW12661   1.448   0.446   0.174 -0.3496  0.5885  0.3797
 3224SOL    HW212662   1.494   0.491   0.245  0.4455 -0.3367  0.4685
 3224SOL    HW312663   1.424   0.361   0.211  1.4195 -0.5302 -0.8702
 3224SOL    MW412664   1.451   0.441   0.188 -0.6648 -0.2750 -0.5343
 3225SOL     OW12665   4.222   4.508   0.056  0.5585 -0.1008  0.0192
 3225SOL    HW212666   4.308   4.525   0.095 -0.0359  0.5044  1.1386
 3225SOL    HW312667   4.196   4.592   0.018  1.5554 -0.9153 -2.6805
 3225SOL    MW412668   4.230   4.521   0.056  0.1115  0.0328  0.4596
 3226SOL     OW12669   4.641   3.721   4.395 -0.1233 -0.1725 -0.0627
 3226SOL    HW212670   4.712   3.784   4.384 -0.1182  0.0745  1.2990
 3226SOL    HW312671   4.674   3.640   4.355  0.0529  0.5375 -1.3969
 3226SOL    MW412672   4.654   3.718   4.388  0.5532  0.2665  0.3331
 3227SOL     OW12673   1.354   0.261   2.271  0.0320  0.6029 -0.1909
 3227SOL    HW212674   1.326   0.262   2.180 -1.1493 -0.9358  0.1039
 3227SOL    HW312675   1.336   0.171   2.300 -1.2881  1.5011  2.0290
 3227SOL    MW412676   1.348   0.249   2.263 -0.4330 -0.5453 -0.3095
 3228SOL     OW12677   0.277   4.017   1.856 -0.2466 -0.0520 -0.1590
 3228SOL    HW212678   0.304   3.947   1.797  0.8695 -0.4363  0.7742
 3228SOL    HW312679   0.259   4.091   1.798 -0.6745 -0.8628 -1.0895
 3228SOL    MW412680   0.278   4.018   1.840  0.5349 -0.7310 -0.5562
 3229SOL     OW12681   6.210   6.293   1.358  0.0343 -0.0241 -0.1417
 3229SOL    HW212682   6.254   6.374   1.384 -2.5271  1.9142 -1.3973
 3229SOL    HW312683   6.257   6.224   1.405  2.3179  2.1570  1.0084
 3229SOL    MW412684   6.222   6.294   1.368 -0.0426  0.1168  0.1421
 3230SOL     OW12685   0.840   0.341   1.307 -0.0231  0.9443 -0.0655
 3230SOL    HW212686   0.764   0.284   1.313  1.4449 -0.9998  0.9868
 3230SOL    HW312687   0.879   0.339   1.394  0.4488  3.0926 -0.1689
 3230SOL    MW412688   0.836   0.333   1.319 -0.4340 -0.2120  0.4844
 3231SOL     OW12689   0.369   1.810   0.035  0.5058  0.9599  0.9322
 3231SOL    HW212690   0.315   1.733   0.048  0.1182  1.2614  1.1121
 3231SOL    HW312691   0.307   1.883   0.029  0.8982  1.3301  1.3127
 3231SOL    MW412692   0.354   1.810   0.036  0.3863  0.5594 -0.5409
 3232SOL     OW12693   3.436   1.793   2.661 -0.0230  0.0766 -0.4865
 3232SOL    HW212694   3.371   1.860   2.684 -1.5819 -1.7178  0.6061
 3232SOL    HW312695   3.440   1.796   2.565 -0.9279  0.9494 -0.5175
 3232SOL    MW412696   3.428   1.803   2.651 -1.2802  0.4951 -0.4837
 3233SOL     OW12697   4.257   0.957   4.534  0.6200  0.0085 -0.0839
 3233SOL    HW212698   4.212   0.874   4.514  1.9458 -1.0030  0.9301
 3233SOL    HW312699   4.346   0.943   4.504  0.8976  1.0242  0.2457
 3233SOL    MW412700   4.263   0.944   4.527 -0.5000 -0.9102  0.6190
 3234SOL     OW12701   4.765   4.518   6.207 -0.3803  0.2146 -0.4618
 3234SOL    HW212702   4.699   4.556   6.265 -1.0913 -0.9779 -0.4409
 3234SOL    HW312703   4.726   4.521   6.120 -0.5148 -0.5468 -0.4408
 3234SOL    MW412704   4.751   4.523   6.203 -0.1174 -0.1889 -0.0222
 3235SOL     OW12705   2.296   6.035   6.394  0.2327  0.0959 -0.6060
 3235SOL    HW212706   2.322   6.108   6.451 -2.0376  0.6187 -0.1357
 3235SOL    HW312707   2.239   6.075   6.328 -0.7174 -1.1746 -0.5941
 3235SOL    MW412708   2.292   6.050   6.393  0.5156 -0.1911 -0.1946
 3236SOL     OW12709   5.592   1.953   2.560 -0.4622 -0.0093  0.1323
 3236SOL    HW212710   5.501   1.981   2.574 -0.8045 -0.9507 -0.1583
 3236SOL    HW312711   5.587   1.884   2.495  0.6648  1.1818 -1.2950
 3236SOL    MW412712   5.579   1.948   2.554  1.0860  0.2794  1.0547
 3237SOL     OW12713   1.624   1.494   1.065  0.0887  0.2439 -0.0046
 3237SOL    HW212714   1.595   1.405   1.045 -1.7029  0.5012  1.1512
 3237SOL    HW312715   1.659   1.488   1.154 -1.2722  0.8982  0.6021
 3237SOL    MW412716   1.625   1.481   1.074 -0.3270  0.2184  0.6091
 3238SOL     OW12717   5.506   3.725   6.437 -0.4042  0.6376 -0.3772
 3238SOL    HW212718   5.489   3.693   6.525 -1.1660 -0.3436 -0.8704
 3238SOL    HW312719   5.421   3.720   6.392 -0.5879  3.2713 -0.5309
 3238SOL    MW412720   5.492   3.720   6.442 -0.2996  0.0276  0.1431
 3239SOL     OW12721   3.447   5.108   4.446  0.5089  0.2436  0.2063
 3239SOL    HW212722   3.522   5.050   4.433  1.2306  0.8867  1.3230
 3239SOL    HW312723   3.476   5.193   4.412 -1.3837 -0.4539 -3.7238
 3239SOL    MW412724   3.461   5.112   4.439 -0.1574  0.1391 -0.5734
 3240SOL     OW12725   4.580   2.055   3.524  0.1126  0.0510 -0.6547
 3240SOL    HW212726   4.559   2.097   3.441 -0.4875 -1.4646 -1.3127
 3240SOL    HW312727   4.621   2.124   3.577  1.2999  0.8452 -2.5089
 3240SOL    MW412728   4.583   2.069   3.520 -0.0667  0.3073 -0.4581
 3241SOL     OW12729   3.758   2.364   2.022  0.1653 -0.1760  0.1128
 3241SOL    HW212730   3.728   2.388   2.110 -1.2489 -1.3244 -0.0288
 3241SOL    HW312731   3.689   2.397   1.964  0.1797 -1.0499 -0.4075
 3241SOL    MW412732   3.745   2.372   2.026  0.4859 -0.2139 -0.2889
 3242SOL     OW12733   4.844   2.015   1.358  0.5235  0.1707  0.1556
 3242SOL    HW212734   4.866   2.018   1.451 -0.1547  0.5846  0.3070
 3242SOL    HW312735   4.927   2.031   1.313  0.9360 -0.4305  0.6748
 3242SOL    MW412736   4.858   2.017   1.365  0.2248  0.6307  0.1004
 3243SOL     OW12737   3.165   1.060   1.823 -0.1334  0.6950 -0.9839
 3243SOL    HW212738   3.166   1.115   1.902 -1.7220  2.6994 -2.2412
 3243SOL    HW312739   3.159   0.970   1.856  1.3915  1.3126  1.1677
 3243SOL    MW412740   3.164   1.055   1.838  0.0031  0.2222 -0.0707
 3244SOL     OW12741   1.062   1.771   2.949 -0.0604  0.0778 -0.3049
 3244SOL    HW212742   1.005   1.721   3.008  0.8545 -0.5062  0.1069
 3244SOL    HW312743   1.060   1.721   2.867 -0.7752  0.5036 -0.5523
 3244SOL    MW412744   1.054   1.757   2.946  0.0037 -0.0672  0.5978
 3245SOL     OW12745   1.350   4.134   1.947  0.4918 -0.0454 -0.1939
 3245SOL    HW212746   1.325   4.082   1.871 -0.4018  2.2730 -1.5846
 3245SOL    HW312747   1.445   4.131   1.949  0.4961 -0.6179 -1.0495
 3245SOL    MW412748   1.359   4.127   1.937  0.2210  0.2416  0.1864
 3246SOL     OW12749   3.667   1.864   6.355  0.0354  0.4559  0.9187
 3246SOL    HW212750   3.666   1.820   6.441  0.5420  0.9801  1.2026
 3246SOL    HW312751   3.717   1.944   6.370  2.0232 -0.4680 -0.3416
 3246SOL    MW412752   3.674   1.868   6.368  0.5973 -0.1350  0.0160
 3247SOL     OW12753   0.569   0.120   4.824 -0.1509  0.0300 -0.1945
 3247SOL    HW212754   0.478   0.140   4.802 -0.2699  1.3624  1.3399
 3247SOL    HW312755   0.604   0.202   4.858  0.6302 -1.2582  2.3744
 3247SOL    MW412756   0.562   0.133   4.826 -0.2583 -0.3135 -0.3732
 3248SOL     OW12757   6.345   2.273   6.000 -0.2361 -0.5916  0.6904
 3248SOL    HW212758   6.375   2.360   5.974  1.1895 -1.1701  0.3036
 3248SOL    HW312759   6.308   2.235   5.920 -0.3816 -0.5452  0.7343
 3248SOL    MW412760   6.344   2.279   5.986 -0.4301  0.1558 -0.5762
 3249SOL     OW12761   3.715   6.130   3.972  0.0983 -0.6291  0.3893
 3249SOL    HW212762   3.771   6.183   4.029  0.1905 -0.9768  0.6311
 3249SOL    HW312763   3.709   6.046   4.017 -1.6268 -0.2199  0.9828
 3249SOL    MW412764   3.722   6.126   3.986  0.0603  0.3688 -0.0430
 3250SOL     OW12765   0.234   0.078   0.873 -0.1437  0.0449 -0.2098
 3250SOL    HW212766   0.188   0.069   0.956 -0.7500  0.3203 -0.5139
 3250SOL    HW312767   0.166   0.099   0.809  0.5087  1.3965 -0.5055
 3250SOL    MW412768   0.219   0.079   0.876 -0.4654  0.3458 -0.6607
 3251SOL     OW12769   5.548   0.963   6.347 -0.2933 -0.1550 -0.1205
 3251SOL    HW212770   5.566   1.004   6.432 -1.1793 -0.3814  0.1818
 3251SOL    HW312771   5.486   1.022   6.305 -0.9792 -0.7797 -0.0018
 3251SOL    MW412772   5.542   0.976   6.353  0.0860 -0.1804 -0.6392
 3252SOL     OW12773   4.498   0.710   2.327 -1.0627 -0.4696 -0.0278
 3252SOL    HW212774   4.403   0.702   2.320 -1.0493 -0.3362 -0.4068
 3252SOL    HW312775   4.524   0.756   2.247 -0.5105 -1.9190 -0.7326
 3252SOL    MW412776   4.489   0.715   2.315  0.3103 -0.1374 -0.3006
 3253SOL     OW12777   2.750   2.599   0.733 -0.9802 -0.0181 -0.7786
 3253SOL    HW212778   2.822   2.621   0.673 -0.9113 -0.3466 -0.8195
 3253SOL    HW312779   2.761   2.659   0.806  0.8614 -1.6869  0.4193
 3253SOL    MW412780   2.761   2.610   0.735 -0.1865 -0.5411 -0.4555
 3254SOL     OW12781   6.028   3.957   0.783  0.2284 -0.7065  0.0096
 3254SOL    HW212782   6.120   3.973   0.761 -0.0845 -0.4102 -1.1130
 3254SOL    HW312783   5.991   3.915   0.705 -1.0921  1.0625 -0.3709
 3254SOL    MW412784   6.035   3.953   0.770  0.3033  0.2674 -0.3074
 3255SOL     OW12785   3.857   5.708   4.986 -0.1498  0.0822  0.1947
 3255SOL    HW212786   3.899   5.749   4.910  1.6158  0.5810  1.4025
 3255SOL    HW312787   3.838   5.781   5.045 -2.8878 -0.0899 -0.3025
 3255SOL    MW412788   3.860   5.723   4.984  0.1253  0.1665  0.0048
 3256SOL     OW12789   4.805   0.729   1.885 -0.2478 -0.0211  0.0586
 3256SOL    HW212790   4.835   0.820   1.886  2.2754 -0.7394 -1.3661
 3256SOL    HW312791   4.838   0.691   1.967 -1.2547  0.2920  0.6275
 3256SOL    MW412792   4.813   0.736   1.896 -0.2628 -0.5665 -0.4290
 3257SOL     OW12793   5.238   0.381   1.351 -0.9948  0.2115  0.4205
 3257SOL    HW212794   5.196   0.304   1.390 -1.5498  0.4130  0.2284
 3257SOL    HW312795   5.289   0.346   1.278 -1.6121  0.0718  0.0469
 3257SOL    MW412796   5.239   0.366   1.347 -0.0759 -0.4327  0.6967
 3258SOL     OW12797   1.021   0.778   4.995 -0.3255  0.8117 -0.5496
 3258SOL    HW212798   1.003   0.865   5.028 -3.4141  0.2268 -0.3853
 3258SOL    HW312799   0.962   0.768   4.921 -1.2455 -1.6628  0.4134
 3258SOL    MW412800   1.011   0.788   4.990  0.2401  0.3276  0.0133
 3259SOL     OW12801   2.470   2.157   3.143 -0.2864  0.2380 -0.2454
 3259SOL    HW212802   2.565   2.155   3.153 -0.2563  1.5223 -0.1225
 3259SOL    HW312803   2.456   2.164   3.049 -0.3646 -2.8658 -0.5581
 3259SOL    MW412804   2.481   2.158   3.132 -0.5339 -0.4447 -0.2305
 3260SOL     OW12805   5.244   3.240   1.588  0.4455  0.1129  0.3167
 3260SOL    HW212806   5.334   3.212   1.573  0.4031 -1.4967  2.5652
 3260SOL    HW312807   5.242   3.331   1.557  2.2093 -0.4894 -1.7785
 3260SOL    MW412808   5.255   3.249   1.582 -0.2735 -0.1115 -0.7974
 3261SOL     OW12809   2.184   4.573   3.697  0.1230 -0.1811 -0.3923
 3261SOL    HW212810   2.263   4.539   3.739  0.1301  0.0669 -0.2022
 3261SOL    HW312811   2.181   4.665   3.723 -0.8482 -0.4581  0.5667
 3261SOL    MW412812   2.194   4.581   3.706  0.7154 -0.3264  0.4328
 3262SOL     OW12813   0.280   5.250   1.223 -0.2921 -0.1675 -0.0590
 3262SOL    HW212814   0.245   5.280   1.306  1.3791  1.1687  0.2081
 3262SOL    HW312815   0.332   5.323   1.190  0.7500 -1.3906 -1.2793
 3262SOL    MW412816   0.282   5.263   1.230  0.3399  0.0023 -0.3342
 3263SOL     OW12817   1.595   6.211   2.180  0.2469 -0.4229  0.1028
 3263SOL    HW212818   1.678   6.193   2.224  1.5614 -0.3708 -2.2033
 3263SOL    HW312819   1.619   6.261   2.102 -1.9734 -0.3089 -0.5837
 3263SOL    MW412820   1.609   6.215   2.175 -0.1479  0.5598 -0.6270
 3264SOL     OW12821   3.083   6.033   0.889  0.4323  0.4874  0.2481
 3264SOL    HW212822   3.151   6.081   0.841 -0.4086  1.3994 -0.0618
 3264SOL    HW312823   3.038   5.981   0.823  0.3050  0.5057  0.3199
 3264SOL    MW412824   3.086   6.033   0.874 -0.2092 -0.2726 -0.3450
 3265SOL     OW12825   0.988   6.333   4.232 -0.2099  0.1728  0.1309
 3265SOL    HW212826   0.900   6.348   4.268 -0.2522  1.4997 -0.4835
 3265SOL    HW312827   0.974   6.321   4.138  0.3977  2.3063 -0.2989
 3265SOL    MW412828   0.974   6.333   4.225 -0.0490 -0.8328 -0.8637
 3266SOL     OW12829   5.960   2.154   1.995 -0.2309  0.5413 -0.0039
 3266SOL    HW212830   5.923   2.078   2.040  0.2933  0.6206  0.5711
 3266SOL    HW312831   5.941   2.228   2.053  0.6115  0.6167  0.1885
 3266SOL    MW412832   5.952   2.153   2.009 -0.4261  0.5465 -0.6449
 3267SOL     OW12833   4.830   4.608   4.377 -0.1378 -0.0210 -1.0950
 3267SOL    HW212834   4.795   4.526   4.409  0.1657  0.2250 -0.1089
 3267SOL    HW312835   4.805   4.673   4.443 -0.6572  0.7383 -2.0152
 3267SOL    MW412836   4.822   4.606   4.390  0.5786  0.0395 -0.0574
 3268SOL     OW12837   0.806   2.275   1.503 -0.0250 -0.1824  0.1800
 3268SOL    HW212838   0.762   2.190   1.503  0.6008 -0.5140  0.5307
 3268SOL    HW312839   0.835   2.287   1.413 -3.0074  1.2171 -0.7080
 3268SOL    MW412840   0.804   2.265   1.491 -0.2496  0.1858 -0.8514
 3269SOL     OW12841   3.338   1.951   5.548  0.1780  0.0226 -0.7337
 3269SOL    HW212842   3.424   1.920   5.521  1.1345  0.0508  1.9250
 3269SOL    HW312843   3.356   2.031   5.598 -1.1492 -0.9749  1.4804
 3269SOL    MW412844   3.352   1.958   5.551  1.5881 -0.0580  0.4106
 3270SOL     OW12845   5.805   4.810   1.839  0.3222  0.4090  0.2710
 3270SOL    HW212846   5.865   4.839   1.769  0.0892  0.8220  0.2397
 3270SOL    HW312847   5.721   4.798   1.795  0.4409 -0.4276  0.2651
 3270SOL    MW412848   5.802   4.812   1.824 -0.1909  0.0812 -0.2919
 3271SOL     OW12849   5.130   3.385   0.063 -0.3277 -0.3157 -0.7014
 3271SOL    HW212850   5.182   3.351  -0.011 -0.8343 -2.6629 -0.0735
 3271SOL    HW312851   5.190   3.382   0.137 -1.0068 -2.0519 -0.1857
 3271SOL    MW412852   5.145   3.380   0.063 -0.3365  0.6818  0.0831
 3272SOL     OW12853   2.588   5.694   3.959 -0.6149  0.3175 -0.4214
 3272SOL    HW212854   2.672   5.689   3.913 -1.1162 -1.8179 -1.2402
 3272SOL    HW312855   2.604   5.651   4.043 -0.4690  1.5471  0.2111
 3272SOL    MW412856   2.601   5.688   3.964  0.4378  0.1943 -0.5092
 3273SOL     OW12857   6.210   4.940   1.449 -0.1311  0.3028 -0.0375
 3273SOL    HW212858   6.121   4.948   1.416  0.0471  0.5368 -0.4749
 3273SOL    HW312859   6.258   5.010   1.404  0.7740 -1.1937 -1.5168
 3273SOL    MW412860   6.205   4.950   1.439 -0.5162 -0.0297  0.3425
 3274SOL     OW12861   2.382   5.910   4.301 -0.5207 -0.3543 -0.2640
 3274SOL    HW212862   2.318   5.973   4.269  0.5730 -0.0244 -1.9673
 3274SOL    HW312863   2.363   5.901   4.394 -1.6745  1.3246 -0.2930
 3274SOL    MW412864   2.371   5.917   4.309 -0.0500 -0.5361 -0.1942
 3275SOL     OW12865   5.125   5.508   5.348  0.1857  0.2922  0.0223
 3275SOL    HW212866   5.181   5.507   5.426  0.2321 -0.3991 -0.0108
 3275SOL    HW312867   5.179   5.470   5.279  0.0543  0.6619 -0.2899
 3275SOL    MW412868   5.140   5.503   5.349  0.3308 -0.1103  0.7459
 3276SOL     OW12869   5.551   0.154   5.606 -0.7290 -0.0916 -0.0688
 3276SOL    HW212870   5.484   0.223   5.603 -0.4580  0.1978  0.4474
 3276SOL    HW312871   5.585   0.150   5.517 -0.7087  0.4838 -0.0889
 3276SOL    MW412872   5.546   0.163   5.594  0.1403 -0.0025  0.1138
 3277SOL     OW12873   0.419   4.953   6.257 -0.4458  0.3429 -0.5063
 3277SOL    HW212874   0.422   4.949   6.353 -1.8784  0.8856 -0.4225
 3277SOL    HW312875   0.471   5.031   6.235  1.3663 -0.7484 -0.3152
 3277SOL    MW412876   0.426   4.963   6.267  0.0125 -0.2527 -0.2786
 3278SOL     OW12877   2.069   0.641   3.065 -0.4340  0.3683  0.4502
 3278SOL    HW212878   1.987   0.594   3.053 -0.5609  0.9528 -1.3106
 3278SOL    HW312879   2.055   0.696   3.142 -0.1154 -2.7069  2.8891
 3278SOL    MW412880   2.056   0.642   3.073 -0.2103  0.1082  0.1711
 3279SOL     OW12881   2.353   0.403   0.776 -0.4531  0.0324  0.0852
 3279SOL    HW212882   2.418   0.347   0.733 -1.0116  0.2464 -1.0689
 3279SOL    HW312883   2.269   0.365   0.752 -0.7994  0.6231  0.3502
 3279SOL    MW412884   2.351   0.391   0.767 -0.3554 -0.0538 -0.4335
 3280SOL     OW12885   5.735   4.957   5.224  0.5139 -0.3395  0.1053
 3280SOL    HW212886   5.769   4.994   5.142  0.8214 -1.2272 -0.1826
 3280SOL    HW312887   5.641   4.950   5.209  0.5851 -0.6113 -0.2211
 3280SOL    MW412888   5.727   4.961   5.211  0.5951 -0.0758  0.9822
 3281SOL     OW12889   0.857   4.623   1.165  0.5502 -0.2307  0.7499
 3281SOL    HW212890   0.843   4.609   1.259  1.4679  0.8976  1.0768
 3281SOL    HW312891   0.937   4.675   1.160  1.4697 -1.6868 -0.7540
 3281SOL    MW412892   0.865   4.628   1.177  0.2412 -0.4235 -0.0178
 3282SOL     OW12893   6.382   6.250   0.662  0.0765 -0.0771 -0.1165
 3282SOL    HW212894   6.329   6.174   0.682  0.2934  0.2669  2.0659
 3282SOL    HW312895   6.323   6.325   0.672  0.6290  0.2257  1.1254
 3282SOL    MW412896   6.368   6.250   0.666  0.4183  0.8021 -0.2823
 3283SOL     OW12897   0.328   0.954   3.120 -0.0403 -0.2145  0.3835
 3283SOL    HW212898   0.398   0.923   3.062  0.2065 -1.9506  1.5268
 3283SOL    HW312899   0.249   0.911   3.088  0.0573 -0.9981  1.1697
 3283SOL    MW412900   0.327   0.944   3.108 -0.6565 -0.2907 -0.3694
 3284SOL     OW12901   3.494   5.708   4.619 -0.4152 -0.1734 -0.3664
 3284SOL    HW212902   3.423   5.644   4.617 -1.6657  1.1875 -1.3979
 3284SOL    HW312903   3.457   5.782   4.667  1.4963 -0.7006  2.1149
 3284SOL    MW412904   3.480   5.709   4.625  0.3927 -0.1143  0.0274
 3285SOL     OW12905   2.068   2.905   1.980 -0.0470 -0.3002  0.6587
 3285SOL    HW212906   2.089   2.987   1.936 -1.7416  1.0573  2.2399
 3285SOL    HW312907   2.113   2.912   2.065 -1.9276  0.0176  1.6727
 3285SOL    MW412908   2.077   2.917   1.986 -0.4020  0.1809 -0.2596
 3286SOL     OW12909   6.243   0.534   1.657  0.5533 -0.2828 -0.3995
 3286SOL    HW212910   6.329   0.493   1.655 -1.0938 -4.2319 -0.0460
 3286SOL    HW312911   6.208   0.512   1.744 -1.7220 -1.0994 -1.4301
 3286SOL    MW412912   6.250   0.525   1.668  0.0471 -0.1037  0.2806
 3287SOL     OW12913   2.032   1.650   3.264 -0.2937  0.1428  0.4614
 3287SOL    HW212914   2.061   1.740   3.279 -0.2286  0.0711  0.7812
 3287SOL    HW312915   2.096   1.614   3.202  0.7127 -0.2138  1.6413
 3287SOL    MW412916   2.045   1.657   3.258  0.4514  0.2613 -0.2862
 3288SOL     OW12917   5.224   2.211   0.722 -0.2846 -0.4109  0.3392
 3288SOL    HW212918   5.229   2.307   0.728  1.0259 -0.3341 -1.4428
 3288SOL    HW312919   5.161   2.187   0.790 -1.9906  1.8647 -0.2999
 3288SOL    MW412920   5.216   2.221   0.732  0.3557 -0.2975 -0.0877
 3289SOL     OW12921   5.375   0.326   1.749  0.1278  0.0880  0.1883
 3289SOL    HW212922   5.302   0.381   1.778 -0.7024 -0.9534  0.1393
 3289SOL    HW312923   5.381   0.258   1.816 -0.1077 -0.8549 -0.7381
 3289SOL    MW412924   5.366   0.325   1.762 -0.0840 -0.5198 -0.2368
 3290SOL     OW12925   1.730   3.602   5.784  0.0976 -0.7758 -1.0897
 3290SOL    HW212926   1.650   3.634   5.742  1.4349  0.8729 -2.5635
 3290SOL    HW312927   1.783   3.567   5.712  1.6046  0.2149 -0.5176
 3290SOL    MW412928   1.726   3.602   5.769  0.0929  0.1697  0.0119
 3291SOL     OW12929   3.884   2.810   5.124  0.3533  0.7683 -0.1009
 3291SOL    HW212930   3.888   2.904   5.143 -0.8014  0.8610 -0.2448
 3291SOL    HW312931   3.920   2.768   5.202 -0.2757  1.2933  0.4887
 3291SOL    MW412932   3.889   2.817   5.137  0.1211  0.0871  0.0002
 3292SOL     OW12933   0.228   0.025   0.536  0.4788  0.6397 -0.7792
 3292SOL    HW212934   0.171   0.082   0.587  0.0049 -0.9166  0.4923
 3292SOL    HW312935   0.194  -0.063   0.550  3.2408 -0.4024  0.2136
 3292SOL    MW412936   0.216   0.021   0.545  0.5257 -0.1844 -0.3235
 3293SOL     OW12937   2.081   3.513   6.266 -0.8035 -0.3394  0.3991
 3293SOL    HW212938   2.143   3.535   6.336 -0.6731 -0.6544  0.3856
 3293SOL    HW312939   1.999   3.555   6.293 -0.0165  2.1672 -0.7839
 3293SOL    MW412940   2.078   3.521   6.279  0.3159  0.6360  0.4512
 3294SOL     OW12941   6.201   1.387   1.913  0.6735  0.4898 -0.2608
 3294SOL    HW212942   6.175   1.356   2.000  1.9220 -1.4192 -0.5048
 3294SOL    HW312943   6.221   1.480   1.926 -0.2696  0.5166  1.2220
 3294SOL    MW412944   6.200   1.395   1.926 -0.1682  0.2713 -0.1480
 3295SOL     OW12945   3.869   4.092   5.905  0.0563  0.5260 -0.0619
 3295SOL    HW212946   3.844   4.000   5.906  0.2524  0.4692 -0.4806
 3295SOL    HW312947   3.820   4.130   5.978  1.7588 -0.3644  1.6436
 3295SOL    MW412948   3.859   4.085   5.915 -0.0706  0.2404  0.0288
 3296SOL     OW12949   5.632   3.573   3.785 -0.4017  0.1994 -0.0732
 3296SOL    HW212950   5.659   3.647   3.731 -0.4110  0.0980 -0.2158
 3296SOL    HW312951   5.647   3.603   3.875 -1.0362  0.6238 -0.1029
 3296SOL    MW412952   5.638   3.587   3.790  0.2259 -1.0236 -0.0001
 3297SOL     OW12953   4.468   5.530   5.680 -0.4078 -0.4780  0.0365
 3297SOL    HW212954   4.513   5.597   5.629  1.2543 -1.4021  0.2179
 3297SOL    HW312955   4.377   5.558   5.681  0.2632  1.9155  0.3255
 3297SOL    MW412956   4.462   5.543   5.673 -0.2368  0.2707 -0.3597
 3298SOL     OW12957   0.865   1.323   5.810  0.0498  0.5769 -0.1833
 3298SOL    HW212958   0.860   1.262   5.884  2.5071 -1.8394 -1.8044
 3298SOL    HW312959   0.899   1.404   5.848 -2.1875  0.6708  1.8486
 3298SOL    MW412960   0.869   1.325   5.825  0.2523  0.1515  0.2163
 3299SOL     OW12961   1.308   3.877   5.823  0.6926  0.2813 -0.2715
 3299SOL    HW212962   1.226   3.848   5.784 -0.1214 -1.2950  2.3932
 3299SOL    HW312963   1.371   3.809   5.800  0.7389  0.4136 -0.5424
 3299SOL    MW412964   1.306   3.865   5.815 -0.4266  0.1043 -0.1578
 3300SOL     OW12965   2.214   3.177   1.425 -0.5381  0.0310 -0.2894
 3300SOL    HW212966   2.163   3.258   1.433  0.1979  0.3567  1.6006
 3300SOL    HW312967   2.305   3.207   1.426 -0.1215 -0.8796  3.4256
 3300SOL    MW412968   2.219   3.192   1.426  0.5310 -0.3479  0.0646
 3301SOL     OW12969   2.966   1.047   1.376 -0.6052  0.0743  0.1184
 3301SOL    HW212970   2.870   1.047   1.366 -0.6831 -2.3342  0.2306
 3301SOL    HW312971   2.982   1.101   1.453 -1.7886  1.0679 -0.2762
 3301SOL    MW412972   2.955   1.054   1.385  0.1241  0.1586 -0.0587
 3302SOL     OW12973   1.346   3.093   6.400 -0.1233  0.0348 -0.5071
 3302SOL    HW212974   1.321   3.004   6.375  1.1402 -0.9324  1.4305
 3302SOL    HW312975   1.327   3.146   6.322 -1.6046 -1.7647 -1.4625
 3302SOL    MW412976   1.340   3.089   6.387  0.0586  0.1812 -0.4754
 3303SOL     OW12977   2.287   1.715   2.139 -0.3382 -0.4550 -0.2890
 3303SOL    HW212978   2.194   1.725   2.121 -0.3234 -2.1801 -1.4867
 3303SOL    HW312979   2.320   1.805   2.144 -2.3274  0.2562  1.8587
 3303SOL    MW412980   2.279   1.728   2.137  0.2142 -0.1670  0.6086
 3304SOL     OW12981   2.778   4.418   2.267 -0.8236  0.4590 -0.2922
 3304SOL    HW212982   2.802   4.469   2.344 -0.9962  0.4728 -0.2476
 3304SOL    HW312983   2.700   4.370   2.293 -0.2883 -0.3365 -0.1099
 3304SOL    MW412984   2.771   4.418   2.280  0.1313  0.1703  0.1494
 3305SOL     OW12985   2.317   1.675   0.250 -0.0749  0.0496 -0.3388
 3305SOL    HW212986   2.293   1.738   0.182 -1.0890 -1.9592 -1.9865
 3305SOL    HW312987   2.409   1.654   0.233  0.3271  1.1993  0.3499
 3305SOL    MW412988   2.326   1.680   0.239  0.3294 -0.1613  0.5972
 3306SOL     OW12989   1.779   0.360   4.148  1.0497  0.4383  0.0009
 3306SOL    HW212990   1.739   0.368   4.061 -0.4972 -0.0182  0.6528
 3306SOL    HW312991   1.872   0.380   4.132  0.9536 -0.3602 -1.8783
 3306SOL    MW412992   1.786   0.364   4.134 -0.1927  0.0126 -0.1899
 3307SOL     OW12993   6.436   3.859   0.511  0.2440 -0.2579  0.0415
 3307SOL    HW212994   6.377   3.841   0.438 -2.2165  0.2746  1.7694
 3307SOL    HW312995   6.505   3.915   0.473 -1.7030  1.1726 -1.6193
 3307SOL    MW412996   6.437   3.864   0.496 -0.4888  0.4461 -0.0808
 3308SOL     OW12997   5.263   5.706   3.226 -0.0519 -0.3643 -0.4472
 3308SOL    HW212998   5.308   5.639   3.175  1.6222  0.2106  0.2248
 3308SOL    HW312999   5.314   5.785   3.212 -1.9520  0.8052 -1.1845
 3308SOL    MW413000   5.275   5.708   3.217  0.2403  0.3660 -0.0600
 3309SOL     OW13001   5.672   0.541   4.567  0.2545  0.0365 -0.3855
 3309SOL    HW213002   5.635   0.582   4.489  0.9961  1.8927  0.2036
 3309SOL    HW313003   5.764   0.568   4.568  0.3193 -0.1485  0.9933
 3309SOL    MW413004   5.679   0.550   4.557  0.7576  0.3384 -0.3010
 3310SOL     OW13005   0.574   0.606   4.680  0.1358  0.4199 -0.3173
 3310SOL    HW213006   0.504   0.667   4.657 -0.5096 -0.5265 -0.9246
 3310SOL    HW313007   0.546   0.522   4.643  0.4740 -0.5064  1.4216
 3310SOL    MW413008   0.561   0.603   4.672  0.4630  1.3447 -0.5694
 3311SOL     OW13009   0.144   0.857   4.596 -0.2511  0.5528  0.2089
 3311SOL    HW213010   0.152   0.909   4.675  1.6765  1.3384 -0.4456
 3311SOL    HW313011   0.234   0.845   4.565 -0.8569 -0.7189 -1.2372
 3311SOL    MW413012   0.157   0.862   4.602  0.0323 -0.0141  0.0220
 3312SOL     OW13013   2.833   0.486   1.082  0.4179  0.0337  0.0416
 3312SOL    HW213014   2.787   0.437   1.150  0.7216 -1.3361 -0.7099
 3312SOL    HW313015   2.873   0.560   1.128 -1.8834  0.8620  0.8416
 3312SOL    MW413016   2.832   0.489   1.097  0.4898 -0.7614 -0.3818
 3313SOL     OW13017   3.086   1.014   5.397 -0.7492  0.0921  0.2260
 3313SOL    HW213018   3.115   1.064   5.321 -0.7082  0.3095  0.3862
 3313SOL    HW313019   3.143   0.936   5.397 -1.2492 -0.2892 -0.4055
 3313SOL    MW413020   3.097   1.010   5.387  0.4551 -0.5541  0.2331
 3314SOL     OW13021   4.013   0.401   0.066 -0.1394 -0.1609 -0.4900
 3314SOL    HW213022   4.018   0.460  -0.009 -2.1120  0.8681  0.1030
 3314SOL    HW313023   4.008   0.314   0.028  0.2771  0.2367 -1.4908
 3314SOL    MW413024   4.013   0.398   0.051  0.2043  0.2077  0.2055
 3315SOL     OW13025   1.915   3.674   3.883 -0.1389 -0.1274  0.2870
 3315SOL    HW213026   1.881   3.586   3.897 -0.2750 -0.0489  0.4544
 3315SOL    HW313027   1.923   3.683   3.788 -0.0140 -0.3615  0.2753
 3315SOL    MW413028   1.911   3.664   3.873  0.1675  0.2653  0.1960
 3316SOL     OW13029   5.321   1.270   3.134 -0.2848 -0.3442 -0.0256
 3316SOL    HW213030   5.415   1.277   3.147 -0.5014  0.5628  1.2484
 3316SOL    HW313031   5.297   1.187   3.176 -0.1026 -0.3967 -0.0272
 3316SOL    MW413032   5.330   1.260   3.141  0.5611 -0.2605  0.0468
 3317SOL     OW13033   5.937   0.272   3.015  0.6043  0.1504 -0.0107
 3317SOL    HW213034   5.922   0.184   2.982  2.4611 -0.7412  1.3119
 3317SOL    HW313035   5.967   0.260   3.105  0.1753  2.1839  0.4670
 3317SOL    MW413036   5.939   0.259   3.022 -0.2005 -0.0757  0.2863
 3318SOL     OW13037   1.352   1.868   3.597 -0.4027  0.2320 -0.1026
 3318SOL    HW213038   1.404   1.918   3.535 -2.5625  1.0264 -1.3717
 3318SOL    HW313039   1.276   1.923   3.614  0.1486  0.1362  3.4506
 3318SOL    MW413040   1.349   1.882   3.591 -0.0118  0.5452 -0.0594
 3319SOL     OW13041   1.492   0.144   4.980  0.4917  0.0863 -0.1328
 3319SOL    HW213042   1.445   0.191   5.049  0.3295  0.0113 -0.1914
 3319SOL    HW313043   1.461   0.054   4.986 -0.6925  0.3712 -1.2784
 3319SOL    MW413044   1.482   0.138   4.990  0.6798  0.2596 -0.1127
 3320SOL     OW13045   2.200   0.482   3.926 -0.1191  0.1080  0.0077
 3320SOL    HW213046   2.245   0.397   3.930  0.5984  0.3479 -1.6645
 3320SOL    HW313047   2.247   0.537   3.988  0.4784 -0.2841 -0.0843
 3320SOL    MW413048   2.212   0.478   3.934  0.2909 -0.1527  0.1052
 3321SOL     OW13049   4.577   5.477   4.585  0.3251  0.4672 -0.5814
 3321SOL    HW213050   4.671   5.475   4.602 -0.1262  0.3261  2.4538
 3321SOL    HW313051   4.548   5.563   4.615 -0.6091  0.2815 -0.9082
 3321SOL    MW413052   4.585   5.488   4.591 -0.2338  0.1366 -0.4762
 3322SOL     OW13053   2.034   4.795   1.780  0.2931 -0.1721  0.0143
 3322SOL    HW213054   2.103   4.738   1.747  0.9289 -0.2740  1.4291
 3322SOL    HW313055   2.075   4.842   1.853 -0.1288  2.2721 -1.2085
 3322SOL    MW413056   2.049   4.794   1.786 -0.2519  0.1249  0.2986
 3323SOL     OW13057   6.016   5.344   3.489 -0.3328  0.1945 -0.4434
 3323SOL    HW213058   5.964   5.299   3.423 -0.4251 -1.2834  0.5931
 3323SOL    HW313059   5.982   5.313   3.572  0.0633  1.6956  0.3214
 3323SOL    MW413060   6.005   5.334   3.491 -0.5269 -0.4772  0.0088
 3324SOL     OW13061   0.369   3.856   6.016 -0.0296 -0.1332 -0.1922
 3324SOL    HW213062   0.346   3.785   6.076  0.9922 -0.1813  0.1729
 3324SOL    HW313063   0.317   3.930   6.046 -1.0990 -0.7111 -0.5661
 3324SOL    MW413064   0.359   3.856   6.028  0.1701  0.4359  0.6501
 3325SOL     OW13065   0.475   4.665   5.646  0.2751 -0.2419  0.0704
 3325SOL    HW213066   0.453   4.575   5.624 -3.6686  0.6646 -0.4596
 3325SOL    HW313067   0.486   4.665   5.741  1.0093 -1.3254  0.0112
 3325SOL    MW413068   0.474   4.653   5.656  0.5121  0.1634 -0.0959
 3326SOL     OW13069   0.999   0.323   0.684  0.1299  0.1742 -0.1739
 3326SOL    HW213070   0.914   0.316   0.729 -0.9330 -1.8843 -2.3252
 3326SOL    HW313071   1.052   0.253   0.722 -0.2565 -0.5962 -1.0259
 3326SOL    MW413072   0.995   0.313   0.695 -0.1272 -0.0925 -0.0679
 3327SOL     OW13073   1.053   3.634   2.043  0.5328 -0.3125 -0.1203
 3327SOL    HW213074   1.099   3.551   2.058 -0.6112 -0.9328  0.0587
 3327SOL    HW313075   1.012   3.654   2.128  3.4482  2.1963  0.9006
 3327SOL    MW413076   1.053   3.626   2.057 -0.3724  0.3047  0.3581
 3328SOL     OW13077   4.692   0.127   4.124  0.1267  0.1139 -0.2256
 3328SOL    HW213078   4.716   0.135   4.216  2.1665  0.6060 -0.7485
 3328SOL    HW313079   4.685   0.033   4.110 -2.4663  0.0443  0.8959
 3328SOL    MW413080   4.694   0.116   4.134 -0.1271  0.5226  0.4469
 3329SOL     OW13081   5.269   5.535   4.645  0.2173  0.0530 -0.6750
 3329SOL    HW213082   5.186   5.581   4.635  0.1796  0.3158  0.6591
 3329SOL    HW313083   5.310   5.575   4.721  0.4067 -1.7680  0.2438
 3329SOL    MW413084   5.264   5.546   4.653 -0.1561 -0.2143 -0.3187
 3330SOL     OW13085   5.442   5.429   0.111 -0.3462 -0.6081  0.1218
 3330SOL    HW213086   5.372   5.495   0.110 -0.7346 -1.0115 -1.0045
 3330SOL    HW313087   5.458   5.413   0.204 -0.6807  0.6040  0.4172
 3330SOL    MW413088   5.435   5.436   0.123 -0.0904 -0.0529  0.0935
 3331SOL     OW13089   2.590   6.274   2.513 -0.5183 -0.0167  0.5451
 3331SOL    HW213090   2.625   6.189   2.537 -0.7237 -1.0132 -2.2450
 3331SOL    HW313091   2.502   6.277   2.552 -0.6483 -1.2606  0.3757
 3331SOL    MW413092   2.583   6.264   2.521 -0.4886 -0.0364 -0.5163
 3332SOL     OW13093   1.617   0.779   0.128  0.4118 -0.0397 -0.4054
 3332SOL    HW213094   1.653   0.847   0.070 -0.4010  0.3899 -0.4190
 3332SOL    HW313095   1.693   0.727   0.154  1.4531  2.2073  1.4161
 3332SOL    MW413096   1.632   0.781   0.123  0.3396  0.1656 -0.0079
 3333SOL     OW13097   1.870   5.125   1.506 -0.6008 -0.1840  0.2137
 3333SOL    HW213098   1.859   5.030   1.502 -2.2636 -0.0298  0.4571
 3333SOL    HW313099   1.835   5.157   1.423 -0.6672  0.2619  0.4108
 3333SOL    MW413100   1.864   5.117   1.495 -0.3568  0.1756 -0.4955
 3334SOL     OW13101   1.424   1.387   1.726 -0.1645 -0.2199  0.5916
 3334SOL    HW213102   1.516   1.367   1.744 -0.3441  0.5153  2.5051
 3334SOL    HW313103   1.396   1.441   1.800 -2.2595 -0.7557  0.2520
 3334SOL    MW413104   1.432   1.391   1.738 -0.2183  0.0352  0.0038
 3335SOL     OW13105   4.497   2.285   0.528  0.0368  0.3643  0.2205
 3335SOL    HW213106   4.523   2.348   0.594  1.6380 -0.9895  0.9608
 3335SOL    HW313107   4.551   2.306   0.451  1.0545 -0.4586  0.6849
 3335SOL    MW413108   4.507   2.296   0.526  0.1967  0.2467 -0.5311
 3336SOL     OW13109   5.984   4.724   0.405  0.0167  0.1782  0.1738
 3336SOL    HW213110   6.046   4.653   0.386  1.5838  1.9599 -1.8481
 3336SOL    HW313111   5.917   4.716   0.337  0.7967  1.2256 -0.7567
 3336SOL    MW413112   5.984   4.714   0.394  0.4252  0.1423  0.5552
 3337SOL     OW13113   1.710   1.947   5.575  0.3192 -0.3137  0.8154
 3337SOL    HW213114   1.661   1.989   5.505 -1.5119 -2.5724  0.6347
 3337SOL    HW313115   1.795   1.991   5.574 -1.0910  2.6713  0.0891
 3337SOL    MW413116   1.715   1.959   5.566 -0.2359  0.0719  0.2214
 3338SOL     OW13117   6.263   5.839   0.217 -0.2588 -0.1050  0.1797
 3338SOL    HW213118   6.169   5.856   0.204 -0.2772 -1.6805 -2.2298
 3338SOL    HW313119   6.266   5.777   0.290 -1.3003 -1.6923 -1.0610
 3338SOL    MW413120   6.251   5.833   0.225 -0.0812 -0.2568 -0.1247
 3339SOL     OW13121   3.522   0.367   3.140 -0.3411  0.2541 -0.3254
 3339SOL    HW213122   3.466   0.415   3.078 -1.1127 -0.4532 -0.1934
 3339SOL    HW313123   3.490   0.393   3.226 -1.3936 -1.1863 -0.2530
 3339SOL    MW413124   3.510   0.377   3.143  0.2245 -1.1053 -0.4233
 3340SOL     OW13125   3.864   2.098   5.893 -0.1922  0.3177  0.2409
 3340SOL    HW213126   3.867   2.005   5.869 -1.1679  0.5135 -0.7041
 3340SOL    HW313127   3.947   2.134   5.862 -1.2795  0.5060 -2.8001
 3340SOL    MW413128   3.875   2.091   5.886 -0.4620 -0.9328 -0.3150
 3341SOL     OW13129   0.209   3.531   0.845 -0.6162 -0.7277  0.0080
 3341SOL    HW213130   0.220   3.623   0.868 -0.4971 -0.8057  0.2633
 3341SOL    HW313131   0.114   3.517   0.850 -0.7861 -0.2764 -1.3652
 3341SOL    MW413132   0.198   3.542   0.848 -0.4491  0.2050 -0.1700
 3342SOL     OW13133   6.382   0.724   0.412  0.0913 -0.1478  0.0146
 3342SOL    HW213134   6.304   0.778   0.408  0.5463  0.6973  1.6384
 3342SOL    HW313135   6.352   0.640   0.447 -0.4818 -0.7560 -1.7971
 3342SOL    MW413136   6.368   0.720   0.416 -0.2244 -0.2410  0.0028
 3343SOL     OW13137   5.955   4.297   0.224 -0.4610  0.1065 -0.6893
 3343SOL    HW213138   5.972   4.249   0.144 -1.0548  0.7103 -1.1895
 3343SOL    HW313139   5.999   4.247   0.293 -0.2019 -0.5729 -1.3472
 3343SOL    MW413140   5.963   4.284   0.223 -0.2239  0.4333 -0.3957
 3344SOL     OW13141   0.402   5.741   2.624 -0.7009 -0.0595 -0.6520
 3344SOL    HW213142   0.495   5.728   2.643 -0.9464  0.3660  0.9834
 3344SOL    HW313143   0.365   5.653   2.622 -0.2119 -0.2553 -1.6929
 3344SOL    MW413144   0.409   5.728   2.626  0.2249 -0.1487  0.2776
 3345SOL     OW13145   1.678   4.996   0.411 -0.1955  0.0379 -0.3425
 3345SOL    HW213146   1.608   5.061   0.418 -0.7651 -0.7269  1.6153
 3345SOL    HW313147   1.637   4.920   0.370 -0.0497  0.1900 -0.7776
 3345SOL    MW413148   1.663   4.995   0.407  0.2975 -0.3357  0.2842
 3346SOL     OW13149   4.386   4.942   3.136  0.1533  0.0176 -0.2503
 3346SOL    HW213150   4.458   4.985   3.089  0.9890 -2.0556 -0.9933
 3346SOL    HW313151   4.342   4.889   3.069 -0.9830 -0.1084  0.5638
 3346SOL    MW413152   4.390   4.940   3.121 -0.6937  0.2441 -0.3286
 3347SOL     OW13153   2.245   1.565   1.587  0.6002  0.3531 -0.3222
 3347SOL    HW213154   2.335   1.598   1.589  0.5096  0.6179 -0.5228
 3347SOL    HW313155   2.195   1.636   1.546  0.1938  0.4632  0.3562
 3347SOL    MW413156   2.251   1.579   1.582  0.2175  0.4293 -0.4164
 3348SOL     OW13157   4.812   0.528   5.720 -0.1919  0.5573  0.0785
 3348SOL    HW213158   4.821   0.585   5.796 -0.0982  1.5695 -0.6773
 3348SOL    HW313159   4.811   0.587   5.645 -1.4937 -0.3279 -0.6501
 3348SOL    MW413160   4.813   0.543   5.720 -0.0698 -0.0144  0.1336
 3349SOL     OW13161   2.690   4.781   2.297 -0.1590  0.3268 -0.0364
 3349SOL    HW213162   2.671   4.874   2.302  0.9067  0.5276  3.5369
 3349SOL    HW313163   2.758   4.767   2.364  2.1234 -2.5077 -2.6350
 3349SOL    MW413164   2.697   4.791   2.307 -0.9408 -0.2373  0.0926
 3350SOL     OW13165   1.886   4.577   1.889 -0.0836 -0.0501 -0.2073
 3350SOL    HW213166   1.880   4.586   1.984 -1.0347  2.1039 -0.4098
 3350SOL    HW313167   1.926   4.659   1.859 -0.3563 -0.4268 -1.7073
 3350SOL    MW413168   1.890   4.589   1.897 -0.7263 -0.2833  0.2966
 3351SOL     OW13169   1.692   0.943   4.941  0.1012  0.3621  0.2408
 3351SOL    HW213170   1.762   0.892   4.900  0.1043  0.6304 -0.0964
 3351SOL    HW313171   1.683   1.020   4.884  0.4506  0.9913  1.0068
 3351SOL    MW413172   1.700   0.947   4.928 -0.7529 -0.2805  0.2733
 3352SOL     OW13173   2.866   6.009   6.038  0.2348 -0.1610 -0.5354
 3352SOL    HW213174   2.962   6.012   6.045  0.3784 -0.6566 -2.0055
 3352SOL    HW313175   2.839   6.101   6.038  0.8668  0.0420 -1.8160
 3352SOL    MW413176   2.875   6.021   6.039  0.2716 -0.2890 -0.4560
 3353SOL     OW13177   3.327   1.098   1.606 -0.0545  0.7189  0.3930
 3353SOL    HW213178   3.296   1.086   1.696  1.1336  0.3075  0.7716
 3353SOL    HW313179   3.409   1.049   1.603  1.1574  2.6730 -0.2105
 3353SOL    MW413180   3.334   1.090   1.618  0.5212  0.3591 -0.1769
 3354SOL     OW13181   4.791   4.479   2.673  0.2765 -0.4371 -0.4963
 3354SOL    HW213182   4.780   4.555   2.616 -0.9159 -0.7028 -0.6516
 3354SOL    HW313183   4.712   4.478   2.726  0.9385 -0.7531  0.5075
 3354SOL    MW413184   4.779   4.489   2.672  0.1473 -0.3880  0.1917
 3355SOL     OW13185   0.225   0.686   5.105 -0.8956 -0.1873 -0.8697
 3355SOL    HW213186   0.161   0.723   5.044  0.5839  0.0183 -2.3754
 3355SOL    HW313187   0.283   0.635   5.050  1.0322  0.7097  0.2217
 3355SOL    MW413188   0.224   0.684   5.090 -0.0997  0.0635 -0.9965
 3356SOL     OW13189   4.392   3.397   4.512  0.7456 -0.1748 -0.0884
 3356SOL    HW213190   4.336   3.365   4.440 -0.2503 -2.0200  1.4218
 3356SOL    HW313191   4.475   3.351   4.500  0.6163 -0.4039 -0.1142
 3356SOL    MW413192   4.395   3.387   4.501 -0.3344 -0.2488 -0.0098
 3357SOL     OW13193   0.765   0.204   2.155 -0.3534 -0.5554 -0.0172
 3357SOL    HW213194   0.830   0.174   2.092 -0.8233 -2.1655  0.2231
 3357SOL    HW313195   0.816   0.238   2.229  0.2617 -2.2054  0.3635
 3357SOL    MW413196   0.780   0.205   2.157  0.2130 -0.6079 -0.3186
 3358SOL     OW13197   5.933   2.410   2.087 -0.9633  0.0738  0.1051
 3358SOL    HW213198   5.900   2.437   2.173  0.7651 -1.6350  1.3954
 3358SOL    HW313199   6.028   2.422   2.093 -0.9182  1.9012 -2.3769
 3358SOL    MW413200   5.941   2.415   2.099 -0.4319  0.3132  0.5149
 3359SOL     OW13201   1.018   1.923   3.870  0.0499  0.3313 -0.2473
 3359SOL    HW213202   0.963   1.996   3.898 -0.1535  0.5170 -1.0864
 3359SOL    HW313203   1.041   1.878   3.951 -1.1402  0.3804  0.1430
 3359SOL    MW413204   1.014   1.927   3.884  0.3639  0.1386  0.5708
 3360SOL     OW13205   5.208   2.629   3.606  0.0096  0.1813 -0.5622
 3360SOL    HW213206   5.167   2.706   3.646  0.7841 -0.3500  1.3882
 3360SOL    HW313207   5.135   2.570   3.586 -0.3356 -0.3273  1.9114
 3360SOL    MW413208   5.193   2.631   3.609 -0.1010  0.0718 -0.6592
 3361SOL     OW13209   6.369   3.276   2.583  0.4691 -0.0605  0.0547
 3361SOL    HW213210   6.385   3.308   2.672  3.4007  1.8006 -1.0062
 3361SOL    HW313211   6.274   3.287   2.570  0.1192  0.4941  2.5823
 3361SOL    MW413212   6.358   3.282   2.593 -0.2913  0.1016  0.4568
 3362SOL     OW13213   2.050   4.221   5.708  0.1298  0.1625 -0.0264
 3362SOL    HW213214   2.100   4.248   5.632  0.6031 -1.9331 -0.5450
 3362SOL    HW313215   1.963   4.260   5.696  0.2798  0.0933 -1.5026
 3362SOL    MW413216   2.045   4.229   5.697  0.2100  0.0833  0.0016
 3363SOL     OW13217   0.983   2.295   5.477 -0.0347 -0.0591 -0.7387
 3363SOL    HW213218   1.077   2.282   5.481 -0.1414 -0.6536  0.3050
 3363SOL    HW313219   0.971   2.375   5.426  1.1138  0.8591  0.3741
 3363SOL    MW413220   0.994   2.304   5.471  0.3656 -0.0868 -0.0104
 3364SOL     OW13221   3.660   6.351   0.414 -0.1067  0.5686  0.8399
 3364SOL    HW213222   3.718   6.321   0.344  1.1608 -0.0272  2.0807
 3364SOL    HW313223   3.651   6.445   0.399  1.8999  0.8382  1.0604
 3364SOL    MW413224   3.667   6.359   0.403 -0.1417 -0.3939 -1.1081
 3365SOL     OW13225   1.967   5.156   0.761  0.1128  0.3121  0.4725
 3365SOL    HW213226   1.894   5.100   0.736  0.6984  0.3364 -1.4621
 3365SOL    HW313227   1.977   5.142   0.855 -1.5035 -0.7080  0.5362
 3365SOL    MW413228   1.959   5.147   0.770  0.5110  0.3310  0.3242
 3366SOL     OW13229   3.566   1.950   2.075 -0.2092  0.3020  0.3850
 3366SOL    HW213230   3.606   1.955   1.988 -0.6563 -1.4032  0.0479
 3366SOL    HW313231   3.626   1.893   2.125 -0.3689  0.6288  0.9538
 3366SOL    MW413232   3.579   1.943   2.070  0.3394  0.1703 -0.2547
 3367SOL     OW13233   1.579   2.809   6.392  0.5027 -0.6508  0.1912
 3367SOL    HW213234   1.586   2.714   6.379 -1.4487 -0.7490 -0.3439
 3367SOL    HW313235   1.522   2.818   6.468  0.2452  0.1077 -0.0875
 3367SOL    MW413236   1.573   2.798   6.401  0.1092 -0.1816  0.3788
 3368SOL     OW13237   4.347   5.746   6.081  0.6451  0.0505 -0.5233
 3368SOL    HW213238   4.368   5.823   6.134 -2.1961 -0.1171  1.0758
 3368SOL    HW313239   4.262   5.767   6.042 -0.2406 -2.2423  0.0220
 3368SOL    MW413240   4.338   5.759   6.083  0.2478  0.3705  0.2550
 3369SOL     OW13241   2.273   1.661   0.918  0.0597 -0.4743  0.0286
 3369SOL    HW213242   2.228   1.627   0.841  2.4995 -3.2142 -0.3999
 3369SOL    HW313243   2.348   1.709   0.883 -0.0604  0.2560  0.7298
 3369SOL    MW413244   2.277   1.663   0.904 -0.3903 -0.1862  0.2590
 3370SOL     OW13245   4.219   3.261   4.337 -0.3420  0.2824 -0.0897
 3370SOL    HW213246   4.217   3.184   4.280 -1.0412  0.1187  0.1389
 3370SOL    HW313247   4.159   3.239   4.409  2.7878 -0.8047  2.4567
 3370SOL    MW413248   4.211   3.248   4.339 -0.4111  0.4291  0.7962
 3371SOL     OW13249   4.393   3.826   4.276  0.2092  0.0021  0.4180
 3371SOL    HW213250   4.355   3.886   4.340  1.0700 -0.1908  1.1435
 3371SOL    HW313251   4.460   3.778   4.326 -0.0084 -1.0829 -0.3074
 3371SOL    MW413252   4.397   3.828   4.291  0.4271 -0.2357  0.0770
 3372SOL     OW13253   3.023   4.568   4.782 -0.1012 -0.1667  0.5955
 3372SOL    HW213254   2.943   4.520   4.805 -0.6169 -1.2761 -2.8387
 3372SOL    HW313255   3.090   4.500   4.775  0.7341  0.5157  1.6598
 3372SOL    MW413256   3.021   4.553   4.784  0.5714 -0.7242  0.7611
 3373SOL     OW13257   2.334   5.658   2.992 -0.0360  0.0126 -0.1195
 3373SOL    HW213258   2.345   5.617   3.078  1.8065 -0.2421 -0.4264
 3373SOL    HW313259   2.243   5.687   2.990 -1.2305 -3.2726  0.4746
 3373SOL    MW413260   2.324   5.656   3.003 -0.2938 -0.1909 -0.2080
 3374SOL     OW13261   2.616   3.163   5.988  0.4732  0.1794  0.0268
 3374SOL    HW213262   2.702   3.200   6.010  1.8825 -1.8642 -1.6102
 3374SOL    HW313263   2.591   3.207   5.907  0.6471 -0.1803 -0.2262
 3374SOL    MW413264   2.624   3.173   5.981  0.6672 -0.7616 -0.2573
 3375SOL     OW13265   5.540   4.519   2.871 -0.6370  0.1129  0.2158
 3375SOL    HW213266   5.588   4.563   2.941 -1.1406  0.6455  0.2267
 3375SOL    HW313267   5.460   4.488   2.912 -1.6802  1.7906 -0.4446
 3375SOL    MW413268   5.536   4.521   2.885 -0.2611  0.7294  0.0067
 3376SOL     OW13269   0.550   3.217   6.059  0.0623 -0.0910  0.5494
 3376SOL    HW213270   0.622   3.160   6.083 -1.2343 -1.1722  2.0366
 3376SOL    HW313271   0.569   3.300   6.104  1.4121  0.3972 -0.7970
 3376SOL    MW413272   0.562   3.221   6.068 -0.1566 -0.0478  0.4501
 3377SOL     OW13273   4.789   0.035   3.816  0.3125 -0.6371 -0.3957
 3377SOL    HW213274   4.822   0.095   3.749 -0.3976 -0.5771 -0.6923
 3377SOL    HW313275   4.706   0.003   3.782 -1.5123  1.5255  1.6234
 3377SOL    MW413276   4.783   0.039   3.803 -0.3163 -0.0158 -0.2223
 3378SOL     OW13277   3.026   3.652   2.044 -0.3629 -0.1300  0.3221
 3378SOL    HW213278   3.039   3.621   1.954 -0.0656  0.2303  0.2373
 3378SOL    HW313279   3.048   3.745   2.041  0.6102 -0.3261  0.9805
 3378SOL    MW413280   3.030   3.660   2.032 -0.0188 -0.2658  0.5002
 3379SOL     OW13281   6.231   5.339   1.231  0.4581 -0.2100 -0.1967
 3379SOL    HW213282   6.136   5.346   1.227  0.4383 -0.5218 -0.3157
 3379SOL    HW313283   6.261   5.424   1.263  0.1577 -0.0160 -0.4349
 3379SOL    MW413284   6.223   5.351   1.235 -0.1566 -0.5071  0.4519
 3380SOL     OW13285   1.423   2.628   2.235  0.0193  0.0822  0.4010
 3380SOL    HW213286   1.463   2.542   2.247 -0.6933 -0.3884 -0.5019
 3380SOL    HW313287   1.384   2.648   2.321 -0.3016 -0.7616  0.4615
 3380SOL    MW413288   1.423   2.619   2.248  0.0197 -0.3964  0.1570
 3381SOL     OW13289   3.047   5.162   1.368  0.3717 -0.8913  0.1732
 3381SOL    HW213290   3.111   5.114   1.316  1.7822 -1.0110  1.9352
 3381SOL    HW313291   3.040   5.247   1.324  0.3925 -1.4882 -1.0326
 3381SOL    MW413292   3.055   5.167   1.355  0.0362 -0.0007  0.0416
 3382SOL     OW13293   0.402   2.234   2.234 -0.1409 -0.4010 -0.1544
 3382SOL    HW213294   0.354   2.174   2.177 -0.9036 -0.8435  0.9289
 3382SOL    HW313295   0.413   2.186   2.316  1.3649  0.0380 -0.0602
 3382SOL    MW413296   0.397   2.220   2.237 -0.3160  0.4740  0.0215
 3383SOL     OW13297   5.092   6.427   5.561 -0.1583 -0.6846  0.3945
 3383SOL    HW213298   5.075   6.492   5.630 -0.0169 -2.7639  2.5121
 3383SOL    HW313299   5.005   6.401   5.531 -0.3503 -1.7529  1.7995
 3383SOL    MW413300   5.078   6.432   5.566  0.5512  0.3835  0.1211
 3384SOL     OW13301   1.753   0.976   6.420  0.3592 -0.1118 -0.0438
 3384SOL    HW213302   1.820   0.975   6.488  0.7583  0.5849 -0.4192
 3384SOL    HW313303   1.796   0.936   6.344  0.2662  0.1070 -0.2112
 3384SOL    MW413304   1.767   0.970   6.419  0.1124  0.8673  0.1530
 3385SOL     OW13305   3.284   2.840   2.402  0.4821  0.1522  0.3788
 3385SOL    HW213306   3.219   2.789   2.449  1.5948 -1.7977 -0.0914
 3385SOL    HW313307   3.335   2.883   2.472 -0.3315  0.4700  0.7881
 3385SOL    MW413308   3.282   2.839   2.418  0.0218  0.3804 -0.1563
 3386SOL     OW13309   4.154   5.042   3.851  0.0147 -0.0979 -0.2003
 3386SOL    HW213310   4.105   5.021   3.930 -0.2807 -2.0893 -0.8770
 3386SOL    HW313311   4.246   5.033   3.876 -0.0080  0.8627  0.3044
 3386SOL    MW413312   4.159   5.038   3.865 -0.1877  0.3099 -0.2786
 3387SOL     OW13313   5.273   0.630   0.436 -0.0042 -0.4714  0.0454
 3387SOL    HW213314   5.325   0.552   0.414 -0.2296 -0.8297  0.7364
 3387SOL    HW313315   5.315   0.664   0.515 -0.5138 -0.4760  0.3221
 3387SOL    MW413316   5.286   0.624   0.444  0.5641  0.0964  0.1987
 3388SOL     OW13317   3.995   5.610   0.988  0.1569  0.2296 -0.3212
 3388SOL    HW213318   4.082   5.623   1.025  0.8569 -1.2875 -1.3533
 3388SOL    HW313319   3.982   5.687   0.931  0.9412  0.3388 -0.3694
 3388SOL    MW413320   4.005   5.622   0.985  0.1429  0.0875 -0.2077
 3389SOL     OW13321   5.546   5.860   4.612  0.0550  0.3388 -0.2720
 3389SOL    HW213322   5.634   5.829   4.635 -0.3693 -1.7860 -1.2494
 3389SOL    HW313323   5.498   5.859   4.694  0.3760 -0.6143 -0.0799
 3389SOL    MW413324   5.551   5.856   4.626 -0.6540  0.1481  0.0995
 3390SOL     OW13325   1.029   4.874   0.260 -0.0642 -0.4321  0.2093
 3390SOL    HW213326   0.975   4.852   0.336 -1.8920 -1.5210 -1.3163
 3390SOL    HW313327   0.976   4.936   0.210  0.3455 -1.0391 -1.0121
 3390SOL    MW413328   1.015   4.879   0.264 -0.0425  0.1664 -0.6755
 3391SOL     OW13329   4.072   5.719   4.427 -0.2704  0.0139 -0.4032
 3391SOL    HW213330   4.003   5.664   4.391 -0.5203  1.5392 -2.3982
 3391SOL    HW313331   4.028   5.780   4.486 -0.4014 -0.0546 -0.4322
 3391SOL    MW413332   4.057   5.720   4.430 -0.5331 -0.8646  0.4159
 3392SOL     OW13333   2.329   3.896   5.262 -0.3783  0.1353  0.1353
 3392SOL    HW213334   2.343   3.941   5.345 -1.2983 -1.0556  0.9681
 3392SOL    HW313335   2.401   3.833   5.256 -1.7501 -1.6711  1.4073
 3392SOL    MW413336   2.341   3.894   5.272  0.0156 -0.4136 -0.7260
 3393SOL     OW13337   3.655   5.767   6.259 -0.7173 -0.5611 -0.2788
 3393SOL    HW213338   3.632   5.807   6.343  0.0245 -2.5872  0.9560
 3393SOL    HW313339   3.739   5.807   6.236 -0.0698 -1.2310  0.8427
 3393SOL    MW413340   3.663   5.778   6.267  0.1114 -0.1259 -0.5400
 3394SOL     OW13341   0.877   3.926   0.261  0.1142  0.3577 -0.1915
 3394SOL    HW213342   0.785   3.902   0.258  0.1812  0.0833 -0.0512
 3394SOL    HW313343   0.912   3.897   0.177  0.0894  0.3907 -0.2131
 3394SOL    MW413344   0.870   3.919   0.249  0.1971 -0.3724 -0.2319
 3395SOL     OW13345   5.967   3.922   2.926 -0.2489 -0.4386  0.5724
 3395SOL    HW213346   5.931   3.889   3.008  1.6261 -1.0350  1.1892
 3395SOL    HW313347   5.912   3.882   2.858 -0.8878 -1.1288  1.4787
 3395SOL    MW413348   5.955   3.912   2.928  0.2876 -0.2281  0.0471
 3396SOL     OW13349   4.647   4.955   6.317 -0.6604 -0.5776  0.0966
 3396SOL    HW213350   4.717   4.995   6.265 -0.1597  1.0111  1.8610
 3396SOL    HW313351   4.566   4.988   6.278 -0.3541 -0.4630 -0.4565
 3396SOL    MW413352   4.645   4.965   6.305 -0.5059 -0.4873 -0.0293
 3397SOL     OW13353   2.931   1.900   4.956  0.4031  0.0246 -0.0447
 3397SOL    HW213354   2.888   1.816   4.970 -0.6741  0.5965  0.2469
 3397SOL    HW313355   3.023   1.879   4.946  0.0444 -1.2675 -0.8141
 3397SOL    MW413356   2.937   1.886   4.957 -0.4989 -0.2362 -0.1654
 3398SOL     OW13357   6.149   4.199   4.189  0.1617  0.4287  0.1599
 3398SOL    HW213358   6.087   4.139   4.230 -0.6420  1.4420  0.4805
 3398SOL    HW313359   6.218   4.209   4.254  0.4987 -0.4330 -0.0535
 3398SOL    MW413360   6.150   4.192   4.203 -0.3554  0.0919  0.4645
 3399SOL     OW13361   1.073   3.466   1.276 -0.1527 -0.5200  0.0988
 3399SOL    HW213362   1.136   3.512   1.220 -0.9317 -0.9250 -1.1482
 3399SOL    HW313363   1.042   3.393   1.222  0.0206 -1.6989  1.5317
 3399SOL    MW413364   1.078   3.462   1.262 -0.2598  0.1124  0.6309
 3400SOL     OW13365   1.736   1.856   3.831  0.3329 -0.0129  0.1701
 3400SOL    HW213366   1.728   1.950   3.812 -1.2619 -0.1246  0.1047
 3400SOL    HW313367   1.824   1.833   3.803  1.0988  1.6551  1.0548
 3400SOL    MW413368   1.746   1.865   3.825 -0.3538 -0.7584  0.3119
 3401SOL     OW13369   0.066   1.527   5.066  0.3400  0.1673  0.0767
 3401SOL    HW213370   0.146   1.545   5.115  1.0154  1.2296 -1.3417
 3401SOL    HW313371   0.082   1.564   4.979 -0.6557 -1.9367 -1.1000
 3401SOL    MW413372   0.079   1.534   5.061  0.6553  0.5038 -0.2277
 3402SOL     OW13373   4.043   2.275   3.356  0.6758 -0.4838  0.3615
 3402SOL    HW213374   4.018   2.223   3.280  1.8821 -1.3189  0.5087
 3402SOL    HW313375   3.962   2.318   3.383  0.4023  0.6016 -1.9322
 3402SOL    MW413376   4.029   2.274   3.350 -0.2007  0.1757  0.4178
 3403SOL     OW13377   0.963   0.306   1.561  0.5223  0.0649  0.1056
 3403SOL    HW213378   1.032   0.340   1.619  2.0150 -1.1469 -0.8786
 3403SOL    HW313379   0.979   0.211   1.559 -0.7479 -0.1486 -0.7123
 3403SOL    MW413380   0.974   0.298   1.569 -0.1972  0.1377  0.0594
 3404SOL     OW13381   2.308   6.239   0.369  0.0489  0.1712 -0.5396
 3404SOL    HW213382   2.218   6.217   0.346  0.0462  0.7469 -1.0975
 3404SOL    HW313383   2.340   6.162   0.416 -0.7449 -0.0217 -0.2929
 3404SOL    MW413384   2.301   6.226   0.372  0.8086  0.3468  0.4873
 3405SOL     OW13385   1.549   6.021   2.534 -0.6113 -0.1303  0.5286
 3405SOL    HW213386   1.497   5.988   2.461  0.3358  0.6700 -0.5558
 3405SOL    HW313387   1.496   6.004   2.611 -3.5708  2.6066 -0.6754
 3405SOL    MW413388   1.535   6.015   2.534 -0.1341 -0.3764  0.3191
 3406SOL     OW13389   3.320   6.367   6.248 -0.2720 -0.4172 -0.4515
 3406SOL    HW213390   3.317   6.373   6.153 -1.7833  0.0929 -0.3913
 3406SOL    HW313391   3.239   6.323   6.272  0.2415 -0.8193  0.5853
 3406SOL    MW413392   3.309   6.362   6.239  0.3989 -0.0269 -0.5832
 3407SOL     OW13393   5.283   6.046   5.613 -0.4758  0.8118 -0.3912
 3407SOL    HW213394   5.306   6.116   5.674 -1.8389  2.2787 -1.4876
 3407SOL    HW313395   5.277   6.089   5.528 -3.1875 -0.2004 -0.8160
 3407SOL    MW413396   5.285   6.061   5.610 -0.1401  0.4240 -0.8238
 3408SOL     OW13397   5.364   0.294   1.083  0.3056  0.0483  0.0155
 3408SOL    HW213398   5.365   0.199   1.079  1.3982  0.0016  0.7629
 3408SOL    HW313399   5.432   0.322   1.022  1.3550  0.2326  1.2032
 3408SOL    MW413400   5.373   0.285   1.075 -0.1911 -0.0570 -0.0043
 3409SOL     OW13401   0.872   2.656   5.754  0.1945  0.0314  0.8003
 3409SOL    HW213402   0.922   2.574   5.756  0.8657  0.3556 -1.1015
 3409SOL    HW313403   0.886   2.691   5.667  0.7760  2.7343  1.8800
 3409SOL    MW413404   0.880   2.650   5.743  0.8142  0.2086  0.2218
 3410SOL     OW13405   4.874   1.946   4.146 -0.3859  0.5968  0.4152
 3410SOL    HW213406   4.952   2.000   4.140 -0.6541  0.8406 -1.9277
 3410SOL    HW313407   4.862   1.911   4.057 -2.6341  0.1468  0.8273
 3410SOL    MW413408   4.883   1.948   4.133  0.2679 -0.2097 -0.1995
 3411SOL     OW13409   6.176   4.476   6.423 -0.3858  0.3708 -0.1114
 3411SOL    HW213410   6.216   4.555   6.459  0.8091 -0.4544  0.4562
 3411SOL    HW313411   6.232   4.452   6.349 -0.1230 -0.4943  0.3495
 3411SOL    MW413412   6.188   4.483   6.418 -0.1860  0.0202 -0.2527
 3412SOL     OW13413   0.576   5.986   5.193 -0.4368 -0.0108 -0.5135
 3412SOL    HW213414   0.651   6.041   5.217  0.4561 -0.9004 -1.1861
 3412SOL    HW313415   0.604   5.897   5.215 -0.0699 -0.7473 -3.5030
 3412SOL    MW413416   0.590   5.981   5.199 -0.3005 -0.2220 -0.0254
 3413SOL     OW13417   4.483   0.676   4.336  0.0049 -0.7855  0.6133
 3413SOL    HW213418   4.402   0.696   4.290 -0.4611 -1.8533  0.9566
 3413SOL    HW313419   4.456   0.635   4.417  0.8211  0.8794  1.8003
 3413SOL    MW413420   4.469   0.673   4.340 -0.5423 -0.2978  0.1332
 3414SOL     OW13421   1.671   2.827   5.596  0.1591  0.2833  0.2063
 3414SOL    HW213422   1.649   2.757   5.658 -0.1258 -0.3122 -0.5498
 3414SOL    HW313423   1.736   2.881   5.642  0.0812 -0.2457  0.9506
 3414SOL    MW413424   1.677   2.825   5.610  0.1965 -0.1255  0.1262
 3415SOL     OW13425   4.758   1.193   5.916 -0.3107  0.2534 -0.0026
 3415SOL    HW213426   4.809   1.125   5.872  0.8870 -0.1457  1.9123
 3415SOL    HW313427   4.713   1.148   5.988  1.5960  1.6295  2.1836
 3415SOL    MW413428   4.759   1.178   5.920 -0.2911 -0.4778  0.3747
 3416SOL     OW13429   0.352   4.378   5.111  0.3335  0.5237 -0.0503
 3416SOL    HW213430   0.269   4.420   5.087 -0.8934 -0.6076  1.8726
 3416SOL    HW313431   0.418   4.446   5.099 -0.9846  1.7019 -0.9125
 3416SOL    MW413432   0.349   4.392   5.106  0.5539 -0.5576  0.6011
 3417SOL     OW13433   3.761   6.183   1.201  0.0796 -0.4711 -0.1215
 3417SOL    HW213434   3.844   6.228   1.215  0.1441 -1.0755  1.6020
 3417SOL    HW313435   3.785   6.099   1.163  0.5203 -1.6345  2.5352
 3417SOL    MW413436   3.775   6.178   1.198 -0.8640  0.0924 -0.1105
 3418SOL     OW13437   1.849   2.958   0.351 -0.3414  0.5081  1.0554
 3418SOL    HW213438   1.847   2.912   0.435 -2.2213 -1.8804 -0.1538
 3418SOL    HW313439   1.786   2.910   0.296  0.6062  2.1194 -1.6414
 3418SOL    MW413440   1.841   2.945   0.355  0.7283 -0.3934  0.5922
 3419SOL     OW13441   3.000   4.852   4.035  0.1161  0.3546 -1.0895
 3419SOL    HW213442   2.969   4.765   4.060  1.1328  0.3254  0.2140
 3419SOL    HW313443   3.002   4.851   3.940 -0.1278 -0.9542 -1.0975
 3419SOL    MW413444   2.996   4.840   4.026 -0.4114  0.1419 -0.3349
 3420SOL     OW13445   1.429   1.896   1.005 -0.0931 -0.4178 -0.1584
 3420SOL    HW213446   1.413   1.988   0.983  3.9099  0.5781  0.2306
 3420SOL    HW313447   1.362   1.874   1.069 -0.7457  2.4702  0.2773
 3420SOL    MW413448   1.418   1.905   1.011  0.3345 -0.0543  0.2985
 3421SOL     OW13449   4.540   2.118   0.147 -0.3435  1.2103 -0.7803
 3421SOL    HW213450   4.569   2.196   0.196  1.5572 -0.1901  0.4572
 3421SOL    HW313451   4.581   2.128   0.062  0.4387  1.2752 -0.4090
 3421SOL    MW413452   4.550   2.130   0.143  0.0307 -0.4538 -0.1769
 3422SOL     OW13453   0.609   3.144   2.205  0.2429 -0.1202  0.1984
 3422SOL    HW213454   0.576   3.221   2.251  1.2128 -0.8637  2.2711
 3422SOL    HW313455   0.703   3.157   2.200  0.4550 -1.2463  0.8003
 3422SOL    MW413456   0.617   3.156   2.210 -0.2764  0.3277  0.2124
 3423SOL     OW13457   5.832   2.269   2.950 -0.0484 -0.4831  0.1726
 3423SOL    HW213458   5.825   2.227   3.036  1.1200  3.1122  2.2086
 3423SOL    HW313459   5.927   2.272   2.933 -0.0711  1.3465  0.1886
 3423SOL    MW413460   5.844   2.264   2.959 -0.0478 -0.2884 -0.1604
 3424SOL     OW13461   2.204   5.833   2.338  0.0705 -0.0812 -0.3110
 3424SOL    HW213462   2.125   5.804   2.384  0.9470  1.0847  2.1120
 3424SOL    HW313463   2.175   5.907   2.285 -0.7560 -0.6490 -0.6633
 3424SOL    MW413464   2.189   5.839   2.337 -0.2099 -0.4439 -0.0971
 3425SOL     OW13465   0.415   3.213   3.750  0.2599 -0.2951  0.3732
 3425SOL    HW213466   0.356   3.185   3.819 -0.9834 -0.6783 -0.8035
 3425SOL    HW313467   0.361   3.214   3.671  1.7344 -0.2847 -0.6786
 3425SOL    MW413468   0.400   3.210   3.749  0.1018  0.3602 -0.2544
 3426SOL     OW13469   3.181   6.423   0.610  0.1881  0.1255  0.4987
 3426SOL    HW213470   3.101   6.464   0.576 -0.3330 -0.5652  0.8699
 3426SOL    HW313471   3.243   6.495   0.618 -0.6816  0.8333  1.0484
 3426SOL    MW413472   3.178   6.438   0.607 -0.7381 -0.0111 -0.2753
 3427SOL     OW13473   4.634   2.100   6.312  0.1838 -0.5861  0.1414
 3427SOL    HW213474   4.725   2.116   6.285 -0.3692  0.0772 -1.4130
 3427SOL    HW313475   4.632   2.006   6.332  1.2059 -0.6111  0.2185
 3427SOL    MW413476   4.646   2.090   6.311 -0.2046  0.3806  0.3681
 3428SOL     OW13477   4.423   2.245   6.191 -0.0767  0.4873  0.2181
 3428SOL    HW213478   4.379   2.191   6.125 -0.3853  0.5398  0.3817
 3428SOL    HW313479   4.479   2.183   6.239 -1.4719  0.0314  1.3232
 3428SOL    MW413480   4.425   2.230   6.189 -0.0341  0.1967  0.0291
 3429SOL     OW13481   1.295   1.889   0.237  0.1681 -0.0590  0.0176
 3429SOL    HW213482   1.218   1.912   0.183  0.0963 -1.1948 -0.3903
 3429SOL    HW313483   1.360   1.955   0.215 -1.0401  1.6118  1.2074
 3429SOL    MW413484   1.293   1.901   0.227  0.0439 -0.3859  0.4838
 3430SOL     OW13485   1.002   4.292   3.093  0.5615  0.2733 -0.0391
 3430SOL    HW213486   1.029   4.382   3.076 -0.3401  0.4474 -0.5809
 3430SOL    HW313487   1.021   4.246   3.011 -1.7705  0.6445 -0.8602
 3430SOL    MW413488   1.008   4.298   3.080  0.5913  0.9798 -0.3033
 3431SOL     OW13489   2.016   1.688   2.100  0.1151  0.7998 -0.1666
 3431SOL    HW213490   1.988   1.599   2.076  0.0986  0.4011  1.2454
 3431SOL    HW313491   1.942   1.725   2.147  1.2315  0.3779  2.0562
 3431SOL    MW413492   2.003   1.681   2.103  0.1654  0.3306  0.4835
 3432SOL     OW13493   1.702   6.065   5.698  0.1174 -0.1696  0.7157
 3432SOL    HW213494   1.734   6.018   5.621  1.1582 -1.5084  1.9091
 3432SOL    HW313495   1.611   6.038   5.707 -0.3154  0.7803 -0.5937
 3432SOL    MW413496   1.694   6.055   5.689 -0.1250  0.4352  0.2064
 3433SOL     OW13497   0.033   0.509   2.840 -0.4571  0.0696 -0.0596
 3433SOL    HW213498   0.119   0.524   2.800 -0.6185  1.4607  0.0741
 3433SOL    HW313499  -0.027   0.501   2.766 -0.1577 -1.4290 -0.1681
 3433SOL    MW413500   0.036   0.510   2.825 -0.1864  0.1823  0.0915
 3434SOL     OW13501   5.268   6.080   1.071 -0.4714  0.4555 -0.3442
 3434SOL    HW213502   5.320   5.999   1.077  0.4305  0.9486 -1.2027
 3434SOL    HW313503   5.324   6.140   1.021 -2.0582  0.8698 -1.7027
 3434SOL    MW413504   5.283   6.077   1.065 -0.1429 -0.0717  0.4996
 3435SOL     OW13505   0.164   4.926   6.163  0.0224  0.1332 -0.1605
 3435SOL    HW213506   0.105   4.941   6.236  1.0797 -0.7173  0.8987
 3435SOL    HW313507   0.251   4.942   6.198  0.7154 -2.2876 -0.6341
 3435SOL    MW413508   0.167   4.930   6.177 -0.4143 -0.5662 -0.7704
 3436SOL     OW13509   3.664   0.225   2.307 -0.4497  0.3624 -0.1293
 3436SOL    HW213510   3.590   0.280   2.335 -0.0914  0.8863 -0.1783
 3436SOL    HW313511   3.741   0.279   2.326 -0.2008  1.0928 -2.8455
 3436SOL    MW413512   3.664   0.240   2.313 -0.1866 -0.5241 -0.5142
 3437SOL     OW13513   1.514   5.227   2.219 -0.3463 -0.4356 -0.0696
 3437SOL    HW213514   1.547   5.267   2.299  0.1297  0.7977 -0.8506
 3437SOL    HW313515   1.565   5.147   2.209 -0.4897 -0.6589  0.9006
 3437SOL    MW413516   1.525   5.222   2.228 -0.4100 -0.3774  0.4608
 3438SOL     OW13517   1.957   3.728   5.913 -0.0218 -0.4418  0.5598
 3438SOL    HW213518   1.957   3.816   5.876  0.5506 -0.2394  1.0155
 3438SOL    HW313519   1.877   3.687   5.879 -0.6314  0.4705  0.8601
 3438SOL    MW413520   1.947   3.734   5.904 -0.1302  0.0384 -0.3731
 3439SOL     OW13521   1.467   1.291   4.339  0.1255 -0.0234 -0.5010
 3439SOL    HW213522   1.395   1.231   4.359  0.9979 -1.1187 -0.5510
 3439SOL    HW313523   1.427   1.377   4.339 -1.2582 -0.6443 -0.8897
 3439SOL    MW413524   1.452   1.294   4.342  0.1490 -0.3515  0.6198
 3440SOL     OW13525   3.718   3.716   3.004 -0.2570  0.0066 -0.3321
 3440SOL    HW213526   3.722   3.622   2.988  0.5046 -0.0922  0.3543
 3440SOL    HW313527   3.810   3.742   3.014 -0.5290  0.4093  1.6256
 3440SOL    MW413528   3.731   3.707   3.003  0.5125  0.0928  0.1969
 3441SOL     OW13529   2.841   1.568   3.159  0.4275 -0.2310  0.1168
 3441SOL    HW213530   2.823   1.576   3.065  0.1863 -0.7782  0.1157
 3441SOL    HW313531   2.757   1.585   3.201  0.6064  0.3532  0.2571
 3441SOL    MW413532   2.828   1.572   3.152 -0.4430  0.3421  0.3393
 3442SOL     OW13533   4.838   4.985   5.548  0.3757  0.3554  0.4544
 3442SOL    HW213534   4.754   4.974   5.593  1.7928  1.7640  3.6697
 3442SOL    HW313535   4.814   5.023   5.463 -2.4185 -2.5501 -0.3048
 3442SOL    MW413536   4.824   4.988   5.542 -0.2273  0.2326 -0.0552
 3443SOL     OW13537   5.692   3.905   5.284 -0.1817  0.7008 -0.2027
 3443SOL    HW213538   5.765   3.882   5.228  0.2741  1.2142  0.1700
 3443SOL    HW313539   5.719   3.987   5.327  0.0785 -0.3599  1.8142
 3443SOL    MW413540   5.705   3.913   5.283  0.0168  0.3669  0.1851
 3444SOL     OW13541   0.151   4.479   4.955 -0.2336  0.5183 -0.5600
 3444SOL    HW213542   0.112   4.428   4.884 -1.7135 -0.9102  1.1502
 3444SOL    HW313543   0.133   4.570   4.932 -2.4875  0.0173 -1.1041
 3444SOL    MW413544   0.143   4.484   4.943 -0.0102  0.4234 -0.0355
 3445SOL     OW13545   4.004   5.294   4.379 -0.2241 -0.5731 -0.3144
 3445SOL    HW213546   3.957   5.227   4.329 -0.7525 -1.3899  1.2272
 3445SOL    HW313547   3.978   5.280   4.470  0.6285  0.9413  0.2066
 3445SOL    MW413548   3.995   5.284   4.384 -0.3025 -0.1194  0.3390
 3446SOL     OW13549   3.030   5.796   2.271 -0.6494  0.2799 -0.4559
 3446SOL    HW213550   3.097   5.752   2.324 -2.4386 -0.8153  1.0356
 3446SOL    HW313551   3.036   5.754   2.185  0.3196 -0.0326 -0.2503
 3446SOL    MW413552   3.040   5.785   2.267  0.2584  0.1711 -0.0461
 3447SOL     OW13553   4.815   0.906   0.200 -0.2417  0.0727 -0.2688
 3447SOL    HW213554   4.804   0.954   0.282  2.4686  0.0166  0.2097
 3447SOL    HW313555   4.863   0.827   0.224 -2.3249 -1.6669 -1.4564
 3447SOL    MW413556   4.820   0.902   0.214 -0.8093  0.0699 -0.1771
 3448SOL     OW13557   3.822   1.364   3.140 -0.0289  0.2729  0.0941
 3448SOL    HW213558   3.846   1.359   3.233  0.5690  0.2967 -0.0501
 3448SOL    HW313559   3.866   1.442   3.108  2.1766 -1.2312 -0.8442
 3448SOL    MW413560   3.831   1.373   3.148 -0.2903 -0.5537 -0.2661
 3449SOL     OW13561   4.920   2.292   5.808  0.0596  0.5523  0.0126
 3449SOL    HW213562   4.882   2.373   5.843 -1.7950 -0.9157  1.5915
 3449SOL    HW313563   4.941   2.313   5.717 -2.8525  2.0794 -0.4278
 3449SOL    MW413564   4.918   2.306   5.801 -0.1694 -0.2955  0.6631
 3450SOL     OW13565   4.686   2.841   4.961 -0.2147 -0.1628  0.1266
 3450SOL    HW213566   4.744   2.917   4.957  0.2812 -0.1895  3.6396
 3450SOL    HW313567   4.626   2.860   5.033  0.2475 -3.2047  1.5076
 3450SOL    MW413568   4.686   2.853   4.970 -0.2777 -0.1012  0.8131
 3451SOL     OW13569   3.585   3.944   6.104 -0.2032  0.2724 -0.5779
 3451SOL    HW213570   3.578   3.893   6.184  0.4838  1.6127  0.3646
 3451SOL    HW313571   3.611   3.880   6.037 -1.5156 -0.9894  0.0861
 3451SOL    MW413572   3.588   3.929   6.106  0.4023 -0.0358  0.0542
 3452SOL     OW13573   2.418   4.780   1.748  0.0433  0.5267 -0.4751
 3452SOL    HW213574   2.390   4.732   1.826 -0.5439  0.1556 -0.9141
 3452SOL    HW313575   2.494   4.830   1.778 -0.1097  0.3079  0.3100
 3452SOL    MW413576   2.425   4.780   1.762  0.7937 -0.0886  0.0848
 3453SOL     OW13577   2.928   5.612   0.652 -0.8619  0.0567 -0.4332
 3453SOL    HW213578   2.955   5.595   0.562 -0.7969 -1.7672 -0.1041
 3453SOL    HW313579   2.864   5.543   0.672 -0.7918  0.3596  0.9548
 3453SOL    MW413580   2.923   5.600   0.643 -0.0176  0.2433 -0.4201
 3454SOL     OW13581   5.240   4.423   2.370 -0.0717 -0.6435  0.1549
 3454SOL    HW213582   5.316   4.390   2.419  0.1940  0.0355  0.2162
 3454SOL    HW313583   5.164   4.394   2.420  0.2090  0.6889  1.4270
 3454SOL    MW413584   5.240   4.415   2.383 -0.5263  0.2105 -0.5894
 3455SOL     OW13585   4.506   5.306   3.111  0.6207  0.0653 -0.0436
 3455SOL    HW213586   4.527   5.228   3.059  1.0895 -0.1018  0.3867
 3455SOL    HW313587   4.531   5.380   3.056  0.5637 -0.0949 -0.2871
 3455SOL    MW413588   4.512   5.305   3.097 -0.2685 -0.0959  0.0385
 3456SOL     OW13589   0.164   1.618   3.341 -0.6952  0.1442  0.0458
 3456SOL    HW213590   0.183   1.617   3.435 -3.1468 -1.8420  0.6335
 3456SOL    HW313591   0.090   1.678   3.332 -1.0491 -0.3600 -0.4658
 3456SOL    MW413592   0.157   1.626   3.352 -0.1801 -0.6570 -0.2253
 3457SOL     OW13593   3.148   4.329   4.819  0.0381  0.7183  0.5730
 3457SOL    HW213594   3.175   4.249   4.864 -0.4716 -0.0617 -0.4519
 3457SOL    HW313595   3.180   4.318   4.729 -0.0000  1.6827  0.4391
 3457SOL    MW413596   3.156   4.317   4.813  0.3626 -0.3064  0.4822
 3458SOL     OW13597   2.771   0.600   3.637  0.1584  0.1787 -0.2201
 3458SOL    HW213598   2.775   0.505   3.636 -0.2212  0.1249 -2.6655
 3458SOL    HW313599   2.725   0.623   3.556  0.5128  2.4482  0.1570
 3458SOL    MW413600   2.765   0.591   3.626 -0.9607 -0.1193  0.9232
 3459SOL     OW13601   3.689   2.351   3.797  0.1889  0.0053  0.5413
 3459SOL    HW213602   3.594   2.363   3.804 -0.0226 -1.7688  1.1632
 3459SOL    HW313603   3.702   2.319   3.708  0.1424 -0.1886  0.6031
 3459SOL    MW413604   3.678   2.348   3.786  0.0405  0.5588  0.0164
 3460SOL     OW13605   1.073   1.282   4.728  0.0908  0.6207  0.1683
 3460SOL    HW213606   1.095   1.201   4.774  2.8545 -0.0075 -2.0479
 3460SOL    HW313607   0.978   1.276   4.713  0.2873 -2.4172 -0.3436
 3460SOL    MW413608   1.063   1.271   4.732 -0.1675 -0.1338 -0.4733
 3461SOL     OW13609   5.635   6.127   2.332 -0.0317  0.0323 -0.2411
 3461SOL    HW213610   5.722   6.117   2.370 -1.2261  0.7662  2.9974
 3461SOL    HW313611   5.625   6.222   2.321  0.0744 -0.1340 -2.0103
 3461SOL    MW413612   5.645   6.138   2.335 -0.1840 -0.3063  0.1411
 3462SOL     OW13613   1.404   4.366   0.383  0.9557  0.3195 -0.1112
 3462SOL    HW213614   1.374   4.363   0.292 -1.4534  1.8735  0.5338
 3462SOL    HW313615   1.395   4.276   0.414  1.2572 -0.1169 -1.2357
 3462SOL    MW413616   1.399   4.354   0.375 -0.1302 -0.2725  0.4113
 3463SOL     OW13617   3.155   4.644   2.903  0.0119 -0.5068 -0.0503
 3463SOL    HW213618   3.247   4.620   2.913 -0.4287 -1.7523  1.1413
 3463SOL    HW313619   3.125   4.595   2.826  0.0303 -1.0534  0.2892
 3463SOL    MW413620   3.163   4.635   2.894 -0.1780 -0.9662  0.0155
 3464SOL     OW13621   2.818   2.197   3.445 -0.2392  0.2709 -0.6117
 3464SOL    HW213622   2.740   2.246   3.421 -0.7715  0.6121  1.6696
 3464SOL    HW313623   2.889   2.261   3.440 -0.8295  1.1958  1.6991
 3464SOL    MW413624   2.817   2.212   3.441 -0.0237 -0.0483  0.0353
 3465SOL     OW13625   4.733   2.122   4.616 -0.4691 -0.2907 -0.0231
 3465SOL    HW213626   4.642   2.093   4.625 -1.4523  1.8728 -1.9489
 3465SOL    HW313627   4.754   2.105   4.524 -0.0156  1.9198 -0.3779
 3465SOL    MW413628   4.724   2.116   4.605 -0.3945  0.3527 -0.6968
 3466SOL     OW13629   5.260   6.084   3.917 -0.5296 -0.5522 -0.5769
 3466SOL    HW213630   5.295   6.002   3.883  0.3598 -0.4760  0.1300
 3466SOL    HW313631   5.241   6.136   3.838  0.7419 -0.6833 -0.9901
 3466SOL    MW413632   5.262   6.080   3.902  0.2062  0.3362 -0.1494
 3467SOL     OW13633   0.058   1.106   0.756 -0.4848  0.2389 -0.1022
 3467SOL    HW213634   0.077   1.199   0.767  0.6397  0.1010 -0.8252
 3467SOL    HW313635   0.078   1.068   0.842 -2.1302  0.8214  0.5865
 3467SOL    MW413636   0.063   1.114   0.769  0.9205 -0.3877  0.0909
 3468SOL     OW13637   0.796   1.919   5.317  0.6823 -0.1025  0.7053
 3468SOL    HW213638   0.833   1.887   5.399 -0.2625 -1.5096  0.6014
 3468SOL    HW313639   0.771   1.841   5.268  1.6283  0.6772 -1.1504
 3468SOL    MW413640   0.797   1.905   5.321 -0.2042  0.4482 -0.1495
 3469SOL     OW13641   5.568   5.461   5.652  0.0471 -0.2629 -0.3220
 3469SOL    HW213642   5.608   5.547   5.656  2.0588 -1.1514  0.1436
 3469SOL    HW313643   5.610   5.418   5.577 -1.4170 -0.6334 -0.9656
 3469SOL    MW413644   5.579   5.466   5.643 -0.2757  0.1194 -0.5298
 3470SOL     OW13645   4.832   6.374   1.652  0.1793 -0.8757  0.7570
 3470SOL    HW213646   4.750   6.407   1.617  1.0288  0.8453  0.3121
 3470SOL    HW313647   4.845   6.423   1.733  1.7179  0.3415 -0.1725
 3470SOL    MW413648   4.823   6.385   1.658 -0.4940  0.5005  0.0751
 3471SOL     OW13649   4.477   1.554   2.802 -0.0254 -0.3767  0.2728
 3471SOL    HW213650   4.426   1.635   2.807  0.2099 -0.0751 -1.5664
 3471SOL    HW313651   4.551   1.569   2.861  1.1705  1.6628 -1.5650
 3471SOL    MW413652   4.480   1.567   2.811 -0.0180 -0.1127  0.1398
 3472SOL     OW13653   0.929   5.915   4.598  0.2453 -0.4926 -0.6876
 3472SOL    HW213654   0.883   5.831   4.596  0.0417 -0.3785 -1.0433
 3472SOL    HW313655   0.897   5.960   4.520 -0.6513  0.4481  0.1936
 3472SOL    MW413656   0.918   5.910   4.587  0.2444 -0.0668  0.2824
 3473SOL     OW13657   0.302   0.643   1.582  0.0115  0.3028  0.8325
 3473SOL    HW213658   0.353   0.590   1.521  0.3403  2.0571 -0.5065
 3473SOL    HW313659   0.362   0.661   1.655 -0.0003 -0.8351  1.1384
 3473SOL    MW413660   0.317   0.638   1.584 -0.6482  0.2487 -0.4901
 3474SOL     OW13661   3.397   2.118   0.347  0.3204 -0.7110 -0.1664
 3474SOL    HW213662   3.472   2.175   0.331  1.2669 -2.0762 -0.8510
 3474SOL    HW313663   3.332   2.145   0.282  0.2881  0.3149  0.2665
 3474SOL    MW413664   3.398   2.129   0.337 -0.1867  0.1948  0.2057
 3475SOL     OW13665   6.395   1.183   1.710  0.3754 -0.3208  0.0957
 3475SOL    HW213666   6.343   1.168   1.631  1.2004 -0.8889 -0.3587
 3475SOL    HW313667   6.472   1.231   1.678 -0.0643  0.8965  0.8235
 3475SOL    MW413668   6.398   1.187   1.695  0.2661  0.5639  0.0610
 3476SOL     OW13669   6.276   1.419   4.112  0.3956 -0.0858  0.2787
 3476SOL    HW213670   6.342   1.445   4.176  0.1081 -1.9944  1.4445
 3476SOL    HW313671   6.194   1.414   4.162 -0.1741 -0.0012 -0.6218
 3476SOL    MW413672   6.274   1.422   4.127 -0.2296 -0.0118  0.6207
 3477SOL     OW13673   0.458   1.800   6.215  0.4319  0.2962  0.3611
 3477SOL    HW213674   0.433   1.794   6.307 -0.1689  0.2209  0.2000
 3477SOL    HW313675   0.523   1.730   6.203  0.5607  0.3480  0.7392
 3477SOL    MW413676   0.463   1.790   6.226  0.4753 -0.5706  0.9474
 3478SOL     OW13677   6.021   4.109   6.374 -0.5498  0.3228 -0.0583
 3478SOL    HW213678   6.009   4.017   6.399  0.7389 -0.0170 -0.6045
 3478SOL    HW313679   5.932   4.141   6.360 -1.0366 -0.7871  0.3354
 3478SOL    MW413680   6.007   4.101   6.375  0.3133 -0.1818 -0.1586
 3479SOL     OW13681   6.195   4.923   3.578  0.5163  0.6872 -0.5582
 3479SOL    HW213682   6.101   4.932   3.598  0.4148  0.6009 -0.9791
 3479SOL    HW313683   6.237   4.995   3.626  0.4331 -0.2283  0.9345
 3479SOL    MW413684   6.188   4.934   3.587 -0.1817  0.1923  0.4950
 3480SOL     OW13685   4.895   6.010   0.990  0.7371  0.6088 -0.3779
 3480SOL    HW213686   4.891   6.098   0.951  1.1427  0.9238  0.2669
 3480SOL    HW313687   4.943   6.023   1.072  1.1713 -0.3025 -0.4859
 3480SOL    MW413688   4.901   6.023   0.996 -0.3949  0.0875  0.0193
 3481SOL     OW13689   3.330   1.477   1.600 -0.1970 -0.3904 -0.0849
 3481SOL    HW213690   3.320   1.398   1.546 -0.7689 -0.1499 -0.3358
 3481SOL    HW313691   3.383   1.449   1.675  1.2349 -0.5778 -1.1149
 3481SOL    MW413692   3.336   1.463   1.603 -0.2341 -0.2067 -0.3225
 3482SOL     OW13693   2.191   4.248   0.282  0.2427 -0.2474 -0.4251
 3482SOL    HW213694   2.215   4.330   0.326  0.1066  0.5373 -1.7441
 3482SOL    HW313695   2.254   4.241   0.209 -0.2577 -0.8975 -0.8060
 3482SOL    MW413696   2.203   4.258   0.278 -0.0702 -0.1980 -0.3766
 3483SOL     OW13697   3.285   3.156   3.959  0.0108  0.6868  0.4470
 3483SOL    HW213698   3.338   3.149   3.880 -1.0822 -0.0704 -0.2461
 3483SOL    HW313699   3.223   3.226   3.941 -0.5400  0.2085  0.4452
 3483SOL    MW413700   3.284   3.164   3.947 -0.2437 -0.5317  0.1539
 3484SOL     OW13701   4.114   2.220   1.766  0.1779 -0.2313 -0.3595
 3484SOL    HW213702   4.135   2.225   1.673  0.4915  1.1569 -0.2407
 3484SOL    HW313703   4.023   2.190   1.769 -0.1447  0.5992 -1.1681
 3484SOL    MW413704   4.105   2.217   1.754 -0.1564 -0.3850 -0.6884
 3485SOL     OW13705   0.646   0.260   3.378 -0.4380  0.1176 -0.2763
 3485SOL    HW213706   0.585   0.334   3.376 -0.3027  0.2429  0.2575
 3485SOL    HW313707   0.615   0.206   3.450 -0.6072 -0.4128 -0.7390
 3485SOL    MW413708   0.634   0.263   3.387 -0.2757  0.4763 -0.1658
 3486SOL     OW13709   4.133   5.372   5.045 -0.5738  0.2520 -0.5124
 3486SOL    HW213710   4.183   5.421   4.979 -0.1270  0.0280 -0.3454
 3486SOL    HW313711   4.158   5.412   5.129  1.2873 -1.4646 -0.1701
 3486SOL    MW413712   4.143   5.384   5.048 -0.8163  0.6739 -0.4174
 3487SOL     OW13713   3.452   4.677   1.037 -0.2315  0.1920 -0.1054
 3487SOL    HW213714   3.403   4.740   1.089  0.9655  0.5718  0.5979
 3487SOL    HW313715   3.518   4.729   0.992  1.4405 -0.6405  1.2839
 3487SOL    MW413716   3.454   4.692   1.038 -0.6728 -0.0763  0.6238
 3488SOL     OW13717   1.943   3.035   3.189 -0.0623 -0.5614 -0.1297
 3488SOL    HW213718   1.929   3.083   3.107  1.3734  0.2758  0.0745
 3488SOL    HW313719   1.923   3.098   3.258  0.4017 -0.7100  0.1484
 3488SOL    MW413720   1.939   3.050   3.187  0.0745 -0.1509  0.0116
 3489SOL     OW13721   2.763   3.926   6.063  0.3373 -0.7518  0.2826
 3489SOL    HW213722   2.843   3.881   6.036  0.5584 -0.5585  0.5952
 3489SOL    HW313723   2.744   3.891   6.150 -0.3541 -1.3564 -0.1048
 3489SOL    MW413724   2.771   3.915   6.071 -0.1738  0.3994 -0.0451
 3490SOL     OW13725   3.727   4.558   3.842  0.9906  0.7040  0.5822
 3490SOL    HW213726   3.774   4.514   3.771 -0.7483 -1.1508  0.4845
 3490SOL    HW313727   3.785   4.553   3.917  0.9461 -1.7007  0.5231
 3490SOL    MW413728   3.741   4.552   3.842  0.4059 -0.2185  0.7268
 3491SOL     OW13729   4.712   4.733   0.492 -0.0933 -0.5165 -0.0927
 3491SOL    HW213730   4.673   4.710   0.576 -1.9716  2.0481 -0.1701
 3491SOL    HW313731   4.771   4.659   0.473  0.8734 -0.9524  3.6765
 3491SOL    MW413732   4.715   4.720   0.500 -0.5653  0.1101 -0.0412
 3492SOL     OW13733   3.679   5.966   4.572  0.3661 -0.4640 -0.2236
 3492SOL    HW213734   3.627   5.947   4.649 -0.0303 -0.0895 -0.3932
 3492SOL    HW313735   3.707   5.880   4.540 -1.1205 -0.7648 -0.7977
 3492SOL    MW413736   3.676   5.952   4.578 -0.2697  0.3900  0.0237
 3493SOL     OW13737   2.244   5.214   6.294 -0.1249  0.5640  0.9154
 3493SOL    HW213738   2.201   5.270   6.230  1.3020  1.4396  0.6831
 3493SOL    HW313739   2.266   5.272   6.367 -0.8072 -0.2123  1.7582
 3493SOL    MW413740   2.241   5.229   6.295 -0.0623 -0.0594  0.4361
 3494SOL     OW13741   3.469   2.904   0.017  0.1123  0.1173  0.0208
 3494SOL    HW213742   3.498   2.984   0.062  2.1116 -1.1947  1.2064
 3494SOL    HW313743   3.390   2.878   0.064 -0.0793  0.9290  0.1693
 3494SOL    MW413744   3.463   2.911   0.030 -0.8680  0.1356 -0.1329
 3495SOL     OW13745   1.932   5.112   0.394 -0.3152 -0.2212  0.1625
 3495SOL    HW213746   1.905   5.196   0.433  0.3511  0.0566  0.0324
 3495SOL    HW313747   1.850   5.070   0.369 -0.6052  1.1302 -1.3235
 3495SOL    MW413748   1.917   5.118   0.396 -0.0766  0.1749  0.2850
 3496SOL     OW13749   3.381   1.875   2.410  0.8434  0.8008  0.5693
 3496SOL    HW213750   3.455   1.931   2.387  0.1760  1.4037 -0.1611
 3496SOL    HW313751   3.372   1.815   2.336  0.8000  0.5192  0.8030
 3496SOL    MW413752   3.389   1.875   2.397  0.1111  0.6468 -0.0900
 3497SOL     OW13753   1.686   4.032   0.925 -0.2198  0.1559  0.6106
 3497SOL    HW213754   1.631   4.021   0.848  1.2088  2.1499 -0.8119
 3497SOL    HW313755   1.631   4.079   0.987 -1.3044 -1.2409  0.7456
 3497SOL    MW413756   1.672   4.037   0.923  0.3326 -0.0724  0.5098
 3498SOL     OW13757   3.369   6.375   2.504  0.6797  0.6263 -0.2184
 3498SOL    HW213758   3.298   6.348   2.562  2.1473  0.6968  1.7241
 3498SOL    HW313759   3.329   6.380   2.418 -1.2553 -1.0115  0.5044
 3498SOL    MW413760   3.355   6.372   2.501 -0.1774  0.0655  0.5633
 3499SOL     OW13761   6.240   3.519   5.203 -0.0766  0.1625  0.5363
 3499SOL    HW213762   6.218   3.457   5.134  0.5820  1.9015 -1.3543
 3499SOL    HW313763   6.157   3.563   5.224 -0.0958  0.3843  0.0212
 3499SOL    MW413764   6.226   3.517   5.197 -0.0369 -0.2342 -0.4031
 3500SOL     OW13765   3.712   1.961   4.923  0.0060 -0.4297 -0.0067
 3500SOL    HW213766   3.782   1.905   4.957  0.5365  0.7356  0.9019
 3500SOL    HW313767   3.757   2.043   4.898 -1.0036  0.3070  0.5244
 3500SOL    MW413768   3.727   1.965   4.924 -0.0540  0.0789 -0.2532
 3501SOL     OW13769   2.683   5.550   4.253 -0.1621  0.5814 -0.2169
 3501SOL    HW213770   2.604   5.591   4.287  0.4029  1.1359  0.4670
 3501SOL    HW313771   2.667   5.456   4.262 -0.6986  0.6905  0.0129
 3501SOL    MW413772   2.670   5.543   4.258 -0.2107  0.1923 -0.2035
 3502SOL     OW13773   6.074   3.001   1.152  0.1458  0.7122  0.0985
 3502SOL    HW213774   6.064   3.044   1.237  0.0006  3.0159 -1.0000
 3502SOL    HW313775   6.002   3.036   1.099 -0.4620 -1.5480 -0.6733
 3502SOL    MW413776   6.063   3.012   1.156 -0.3743  0.5248 -0.3631
 3503SOL     OW13777   0.899   3.762   0.472  0.1858  0.3236 -0.1318
 3503SOL    HW213778   0.896   3.819   0.395 -0.7765  1.0372  0.4021
 3503SOL    HW313779   0.865   3.678   0.441 -3.4593  1.4958  0.1534
 3503SOL    MW413780   0.894   3.759   0.457 -0.9018  0.0783 -0.2101
 3504SOL     OW13781   5.787   3.268   3.291  0.1074 -0.0472  0.1633
 3504SOL    HW213782   5.751   3.265   3.203 -0.4008 -0.9046  0.3890
 3504SOL    HW313783   5.754   3.351   3.327 -0.2671 -0.0347 -0.2056
 3504SOL    MW413784   5.778   3.279   3.284  0.2081 -0.9712  0.3310
 3505SOL     OW13785   3.884   2.639   2.111 -0.2747  0.1568  0.6759
 3505SOL    HW213786   3.888   2.554   2.068  0.4792  0.4737  0.0970
 3505SOL    HW313787   3.907   2.620   2.203  1.8738 -0.0250  0.1638
 3505SOL    MW413788   3.888   2.625   2.118  0.6641  0.0851 -0.2405
 3506SOL     OW13789   4.790   0.761   4.347 -0.3096 -0.0834 -0.1511
 3506SOL    HW213790   4.718   0.701   4.363 -0.4195  0.0659 -0.0856
 3506SOL    HW313791   4.847   0.751   4.424 -0.1479 -0.3616 -0.3056
 3506SOL    MW413792   4.788   0.752   4.359 -0.4072 -0.0676  0.5107
 3507SOL     OW13793   0.605   6.010   4.471  0.1519  0.2757 -0.4514
 3507SOL    HW213794   0.696   6.027   4.446  0.2772  2.5943  1.2604
 3507SOL    HW313795   0.600   6.037   4.563 -2.4020  0.8762 -0.7031
 3507SOL    MW413796   0.617   6.016   4.480 -0.3478 -0.0426 -0.5480
 3508SOL     OW13797   6.439   4.243   0.787 -0.3053 -0.3225  0.0141
 3508SOL    HW213798   6.511   4.237   0.849  0.2865 -1.2376 -0.7197
 3508SOL    HW313799   6.362   4.262   0.840  0.3927  0.2195  0.8636
 3508SOL    MW413800   6.439   4.245   0.802 -0.2073  0.6511 -0.0398
 3509SOL     OW13801   6.324   2.947   4.044 -0.0786  0.0427  0.2716
 3509SOL    HW213802   6.232   2.967   4.025  0.1151  0.7563  0.0635
 3509SOL    HW313803   6.373   2.994   3.977  0.3863 -1.8471 -0.8104
 3509SOL    MW413804   6.318   2.955   4.033 -0.5647 -0.0081  0.0185
 3510SOL     OW13805   2.604   2.407   3.392 -0.3012  0.4552 -0.5414
 3510SOL    HW213806   2.550   2.362   3.456  0.0773 -1.3348 -1.4149
 3510SOL    HW313807   2.550   2.480   3.362 -1.4692 -0.1650 -0.0173
 3510SOL    MW413808   2.590   2.411   3.396  0.4801  0.5190 -0.3869
 3511SOL     OW13809   4.224   3.417   4.773  0.0682 -0.3507  0.1100
 3511SOL    HW213810   4.238   3.483   4.705 -0.3625 -0.5565 -0.1816
 3511SOL    HW313811   4.270   3.452   4.849  0.2000  0.0849 -0.1625
 3511SOL    MW413812   4.232   3.430   4.774 -0.0040 -0.1125  0.1331
 3512SOL     OW13813   5.743   3.585   2.199 -0.0592 -0.0893 -0.2486
 3512SOL    HW213814   5.711   3.646   2.133 -0.3814 -0.0058 -0.0151
 3512SOL    HW313815   5.782   3.514   2.148  2.4018  1.3440 -0.5519
 3512SOL    MW413816   5.744   3.584   2.184  0.3956  0.3024 -0.5412
 3513SOL     OW13817   3.695   5.198   2.723 -0.2289  0.4508  0.2079
 3513SOL    HW213818   3.724   5.283   2.690 -2.3181  0.3570 -2.1352
 3513SOL    HW313819   3.610   5.216   2.764 -0.6911 -0.4775 -0.3077
 3513SOL    MW413820   3.687   5.212   2.724  0.0369  0.5119  0.0438
 3514SOL     OW13821   2.960   2.879   5.617 -0.4307 -0.1031  0.2818
 3514SOL    HW213822   3.032   2.875   5.554 -1.2197  0.7795 -0.7175
 3514SOL    HW313823   2.967   2.798   5.667 -0.2750 -1.2433 -1.5101
 3514SOL    MW413824   2.970   2.868   5.616  0.1339 -0.5248  0.9342
 3515SOL     OW13825   1.949   3.942   5.728 -0.4900 -0.0611  0.5409
 3515SOL    HW213826   1.985   4.026   5.701  0.5095 -0.0984  1.6746
 3515SOL    HW313827   1.875   3.927   5.668  0.6852  0.5515 -1.1398
 3515SOL    MW413828   1.944   3.951   5.716  0.0558  0.8133  0.5126
 3516SOL     OW13829   5.556   6.143   4.280 -1.0389 -0.1860  0.1306
 3516SOL    HW213830   5.489   6.190   4.232 -0.2931  0.5572 -0.2031
 3516SOL    HW313831   5.629   6.204   4.287  0.1951 -1.4634 -0.8315
 3516SOL    MW413832   5.557   6.157   4.275 -0.1321  0.1685 -0.3080
 3517SOL     OW13833   4.785   1.472   1.756 -0.5310  0.3306 -0.1976
 3517SOL    HW213834   4.811   1.487   1.665  3.7555  0.1734  0.8211
 3517SOL    HW313835   4.791   1.558   1.798  0.2642 -0.0441  0.4877
 3517SOL    MW413836   4.789   1.485   1.750  0.5102 -0.4171  0.0101
 3518SOL     OW13837   0.107   1.224   2.784  0.0506 -0.3451 -0.0660
 3518SOL    HW213838   0.032   1.193   2.734  0.2954 -0.3527 -0.4287
 3518SOL    HW313839   0.087   1.200   2.875 -0.5904  0.0491 -0.0986
 3518SOL    MW413840   0.094   1.217   2.790  0.2324 -0.2230 -0.6034
 3519SOL     OW13841   3.569   3.956   4.087 -0.6425  0.1282  0.0282
 3519SOL    HW213842   3.657   3.992   4.077 -0.2299 -0.9511 -0.4002
 3519SOL    HW313843   3.578   3.864   4.062 -1.5286 -0.4474  1.7202
 3519SOL    MW413844   3.581   3.948   4.082  0.3297  0.1239  0.2650
 3520SOL     OW13845   0.569   1.901   4.837  0.0703  0.2484 -0.0902
 3520SOL    HW213846   0.647   1.940   4.797  0.4356  0.6289  0.9703
 3520SOL    HW313847   0.542   1.964   4.903  0.6778 -1.2899  1.6998
 3520SOL    MW413848   0.575   1.915   4.840 -0.5797  0.5080 -0.7486
 3521SOL     OW13849   4.596   0.886   2.123 -1.2445  0.1046 -0.5388
 3521SOL    HW213850   4.643   0.946   2.065 -0.7853 -0.2592 -0.5473
 3521SOL    HW313851   4.546   0.943   2.182  0.5523  0.5469  0.6154
 3521SOL    MW413852   4.595   0.901   2.123  0.2350 -0.1452  0.1430
 3522SOL     OW13853   5.280   4.124   3.573  0.2508  0.0709 -0.3644
 3522SOL    HW213854   5.239   4.037   3.567  0.9816 -0.3934  1.0096
 3522SOL    HW313855   5.302   4.146   3.483  0.0082 -1.1539 -0.7463
 3522SOL    MW413856   5.277   4.115   3.561  0.4917 -0.2551  0.0212
 3523SOL     OW13857   4.160   0.166   4.910  0.1198  0.4839 -0.1420
 3523SOL    HW213858   4.192   0.178   4.999 -0.1725  2.3970 -0.2469
 3523SOL    HW313859   4.081   0.112   4.919  0.9044 -0.5812  0.5668
 3523SOL    MW413860   4.153   0.160   4.923  0.7714  0.1375 -0.2303
 3524SOL     OW13861   1.977   4.807   0.703  0.5007 -0.5547  0.0004
 3524SOL    HW213862   1.903   4.862   0.678  1.2528 -0.0647 -1.2387
 3524SOL    HW313863   1.965   4.726   0.655  0.0072 -1.0548  0.9382
 3524SOL    MW413864   1.966   4.804   0.693 -0.3054  0.0026  0.1201
 3525SOL     OW13865   0.864   4.669   4.853 -0.3461  0.1905  0.0461
 3525SOL    HW213866   0.901   4.658   4.766 -0.7024  0.8754 -0.1968
 3525SOL    HW313867   0.835   4.581   4.879 -0.5969  0.0578 -0.6811
 3525SOL    MW413868   0.865   4.656   4.845 -0.5590  0.0544  0.0727
 3526SOL     OW13869   5.884   0.415   4.071  0.4651 -0.4308  0.1865
 3526SOL    HW213870   5.898   0.466   4.151 -0.3092 -0.4778  0.3630
 3526SOL    HW313871   5.857   0.480   4.006  0.9594 -0.4123 -0.0069
 3526SOL    MW413872   5.882   0.430   4.073 -0.5191 -0.5449 -0.1737
 3527SOL     OW13873   4.375   0.168   5.647  0.5204 -0.2605  0.2397
 3527SOL    HW213874   4.302   0.230   5.645  0.9142  0.2161  0.2498
 3527SOL    HW313875   4.402   0.166   5.739 -0.0812 -1.1576  0.3969
 3527SOL    MW413876   4.369   0.176   5.659  0.8236  0.0852 -0.0860
 3528SOL     OW13877   2.783   5.087   1.816 -0.2598  0.2365  0.1606
 3528SOL    HW213878   2.752   5.143   1.745  0.3976 -0.9618 -1.1251
 3528SOL    HW313879   2.865   5.050   1.784  0.4062  0.1705  1.8340
 3528SOL    MW413880   2.790   5.089   1.803 -0.5155  0.1015  0.3911
 3529SOL     OW13881   2.299   3.837   0.165 -0.3109  0.3438  0.1438
 3529SOL    HW213882   2.263   3.883   0.090 -0.6750 -0.1597  0.0098
 3529SOL    HW313883   2.388   3.871   0.174 -0.7142  1.3902  0.3091
 3529SOL    MW413884   2.306   3.848   0.157 -0.3615 -0.7429  0.2386
 3530SOL     OW13885   2.995   5.749   4.829 -0.8192  0.0029 -0.6555
 3530SOL    HW213886   2.956   5.662   4.835 -0.9296  0.0893 -0.0093
 3530SOL    HW313887   2.921   5.809   4.842 -0.7538  0.1958 -1.1435
 3530SOL    MW413888   2.980   5.745   4.832 -0.0805  0.3048  0.1159
 3531SOL     OW13889   2.738   3.799   1.842 -1.0235  0.3665  0.5263
 3531SOL    HW213890   2.708   3.826   1.928  0.4663 -1.9168  1.8738
 3531SOL    HW313891   2.819   3.847   1.828 -0.9385  0.2733  0.6971
 3531SOL    MW413892   2.745   3.809   1.851  0.8222  0.4347  0.7289
 3532SOL     OW13893   0.207   3.374   3.026 -0.2356  0.2777  0.0557
 3532SOL    HW213894   0.261   3.323   3.085  0.9236 -1.3021 -2.2122
 3532SOL    HW313895   0.162   3.437   3.082  1.9166 -0.1155  2.3733
 3532SOL    MW413896   0.208   3.376   3.041 -0.0718  0.0782  0.3089
 3533SOL     OW13897   1.635   3.496   2.336  0.2362 -0.0579  0.3755
 3533SOL    HW213898   1.596   3.578   2.365 -0.6796 -0.3476 -0.0077
 3533SOL    HW313899   1.561   3.440   2.314  0.8632 -0.7366 -0.0711
 3533SOL    MW413900   1.620   3.499   2.337  0.2126 -0.5459  0.1160
 3534SOL     OW13901   1.306   2.505   1.973 -0.1395  0.2748 -0.2060
 3534SOL    HW213902   1.396   2.518   1.941  0.0708  0.6601  0.5176
 3534SOL    HW313903   1.251   2.531   1.900  0.3406 -0.2037 -0.7495
 3534SOL    MW413904   1.311   2.510   1.959  0.3000  0.2227  0.0670
 3535SOL     OW13905   1.449   4.056   4.439  0.1100 -0.3891 -0.1409
 3535SOL    HW213906   1.383   4.114   4.478  0.5836  0.5151 -0.6496
 3535SOL    HW313907   1.427   4.054   4.346 -0.8666 -2.3428  0.0877
 3535SOL    MW413908   1.438   4.064   4.432 -0.7308  0.2185  0.2657
 3536SOL     OW13909   5.817   0.657   3.958 -0.0805  0.4229 -0.4155
 3536SOL    HW213910   5.731   0.664   3.918 -0.3848 -0.9226 -0.0551
 3536SOL    HW313911   5.820   0.728   4.021 -1.0235  0.3523 -0.2754
 3536SOL    MW413912   5.806   0.667   3.961  0.1503 -0.2482  0.6098
 3537SOL     OW13913   0.610   4.489   2.522 -0.3140 -0.2066  0.6015
 3537SOL    HW213914   0.634   4.458   2.435  0.3566 -0.6462  0.9327
 3537SOL    HW313915   0.689   4.532   2.555 -1.0538  1.3845  0.3776
 3537SOL    MW413916   0.623   4.491   2.515 -0.4732  0.0005 -0.1856
 3538SOL     OW13917   2.686   0.326   3.622  0.3268  0.0116  0.2695
 3538SOL    HW213918   2.743   0.303   3.548 -0.6872 -2.4218  0.1499
 3538SOL    HW313919   2.597   0.309   3.590 -0.4008  1.9238  1.0838
 3538SOL    MW413920   2.682   0.321   3.608 -0.3431 -0.0140 -0.4093
 3539SOL     OW13921   0.768   0.752   0.558 -0.2804 -0.6188 -0.4553
 3539SOL    HW213922   0.722   0.823   0.513  0.5940 -0.9351 -1.9342
 3539SOL    HW313923   0.842   0.794   0.601 -0.6717 -0.4209  0.0305
 3539SOL    MW413924   0.772   0.767   0.558 -0.0053  0.0579  0.1679
 3540SOL     OW13925   5.735   3.618   0.214 -0.2303 -0.1114  0.2097
 3540SOL    HW213926   5.711   3.711   0.216 -0.7666 -0.2442  0.2867
 3540SOL    HW313927   5.719   3.588   0.304  0.8746 -0.0606  0.4422
 3540SOL    MW413928   5.730   3.627   0.226  0.2752  0.6176 -0.4178
 3541SOL     OW13929   0.383   2.906   4.010 -0.4086 -0.1490 -0.1511
 3541SOL    HW213930   0.367   2.863   4.095 -0.8515  0.3258  0.0098
 3541SOL    HW313931   0.467   2.871   3.981 -0.2379 -0.2945  0.5042
 3541SOL    MW413932   0.392   2.896   4.018 -0.0573 -0.2043  0.0305
 3542SOL     OW13933   1.186   1.969   1.774 -0.6604  0.1538 -0.0669
 3542SOL    HW213934   1.222   1.972   1.863 -1.5552 -0.7964  0.3500
 3542SOL    HW313935   1.190   1.877   1.750 -1.3961  0.2549 -0.6000
 3542SOL    MW413936   1.191   1.957   1.783  0.3216  0.4291 -0.2006
 3543SOL     OW13937   1.631   2.392   1.288 -0.0397 -0.1435 -0.0936
 3543SOL    HW213938   1.688   2.319   1.310 -1.1199 -1.1321 -0.4522
 3543SOL    HW313939   1.636   2.398   1.192  0.7793  0.8945 -0.0052
 3543SOL    MW413940   1.639   2.383   1.278  0.1621  0.6777 -0.3015
 3544SOL     OW13941   5.372   4.153   2.049  0.2306 -0.0886  0.0465
 3544SOL    HW213942   5.286   4.164   2.089  0.3436  0.3820  0.1664
 3544SOL    HW313943   5.433   4.189   2.114  0.3635  1.4160 -0.8469
 3544SOL    MW413944   5.369   4.159   2.063 -0.4839 -0.3058 -0.0511
 3545SOL     OW13945   4.021   3.303   3.511  0.2493  0.4386 -0.6523
 3545SOL    HW213946   3.981   3.217   3.517  1.2800 -0.0165 -0.1552
 3545SOL    HW313947   4.062   3.317   3.596 -0.6994  1.8329 -0.3865
 3545SOL    MW413948   4.021   3.294   3.523  0.1564 -0.7692  0.6836
 3546SOL     OW13949   5.124   3.177   5.699 -0.7157 -0.0837 -0.3314
 3546SOL    HW213950   5.075   3.216   5.771 -0.1852  0.3028 -0.1698
 3546SOL    HW313951   5.199   3.236   5.687  0.7951 -1.7093  0.7240
 3546SOL    MW413952   5.128   3.190   5.707  1.0563  0.2211 -0.4812
 3547SOL     OW13953   3.323   0.821   1.961 -0.3090  0.1829 -0.4276
 3547SOL    HW213954   3.388   0.778   1.905  0.0627  1.3758 -0.9541
 3547SOL    HW313955   3.281   0.750   2.008  1.1103 -0.6631 -0.3750
 3547SOL    MW413956   3.326   0.806   1.960 -0.1311  0.3001 -0.5883
 3548SOL     OW13957   2.775   3.075   4.531  0.4055  0.0288  0.0245
 3548SOL    HW213958   2.867   3.094   4.549  0.1080  1.1843  0.4288
 3548SOL    HW313959   2.775   3.032   4.446  1.3885 -0.7861  0.4162
 3548SOL    MW413960   2.787   3.072   4.522 -0.3254  0.0635 -0.1506
 3549SOL     OW13961   2.760   1.058   4.159 -0.2620  0.0707  0.0677
 3549SOL    HW213962   2.746   0.985   4.098 -0.8667  0.8806 -0.7909
 3549SOL    HW313963   2.674   1.100   4.166 -0.2641 -0.1286  1.6659
 3549SOL    MW413964   2.747   1.054   4.152  0.4716  0.1443  0.5657
 3550SOL     OW13965   3.781   1.014   0.408  0.2835  0.1399  0.1217
 3550SOL    HW213966   3.846   1.000   0.477 -0.4383  0.2770  0.8575
 3550SOL    HW313967   3.822   0.981   0.329 -0.2075 -3.5752  1.2297
 3550SOL    MW413968   3.795   1.008   0.407 -0.9053 -0.0092  0.8670
 3551SOL     OW13969   2.550   6.081   1.338  0.2032 -0.2430  0.5340
 3551SOL    HW213970   2.456   6.095   1.325  0.2100  1.9951  2.2098
 3551SOL    HW313971   2.556   6.029   1.418  0.3819  0.6843  1.1375
 3551SOL    MW413972   2.539   6.076   1.347 -0.3018  0.1122  0.0461
 3552SOL     OW13973   3.652   4.054   3.739 -0.0566 -0.0245  0.0301
 3552SOL    HW213974   3.571   4.017   3.705  0.6001  0.5413 -2.3172
 3552SOL    HW313975   3.623   4.123   3.800 -1.2606 -1.8712  1.6534
 3552SOL    MW413976   3.637   4.058   3.743  0.3923  0.3253 -0.3730
 3553SOL     OW13977   2.145   2.399   1.971 -0.0463 -0.4122  0.2969
 3553SOL    HW213978   2.225   2.407   2.023  0.3817  0.2805 -0.4474
 3553SOL    HW313979   2.088   2.467   2.004 -0.5467 -1.2367  1.1791
 3553SOL    MW413980   2.148   2.409   1.982  0.7401 -0.4099  0.9731
 3554SOL     OW13981   0.547   2.887   5.856  0.2158  0.3606  0.0679
 3554SOL    HW213982   0.485   2.898   5.784  2.0903  1.0037 -1.5587
 3554SOL    HW313983   0.633   2.903   5.816  1.3838  0.3073  2.3701
 3554SOL    MW413984   0.550   2.891   5.841 -0.5700  0.2505  0.0749
 3555SOL     OW13985   0.569   5.541   3.019  0.4598 -0.1767  0.0683
 3555SOL    HW213986   0.588   5.507   2.931  1.2544  0.5267 -0.0433
 3555SOL    HW313987   0.481   5.577   3.012 -0.3474 -2.0146  0.1439
 3555SOL    MW413988   0.560   5.541   3.006 -0.3174  0.0701 -0.3726
 3556SOL     OW13989   3.855   3.815   4.312 -0.6737  0.2823 -0.0445
 3556SOL    HW213990   3.765   3.782   4.322 -0.3025 -0.7420  0.0179
 3556SOL    HW313991   3.910   3.742   4.339  0.1872  0.8063 -0.3667
 3556SOL    MW413992   3.850   3.801   4.317 -0.1196 -0.3951  0.0107
 3557SOL     OW13993   4.852   4.775   0.785 -0.6069  0.2485 -0.6522
 3557SOL    HW213994   4.919   4.844   0.786 -1.5827  1.2628 -2.0123
 3557SOL    HW313995   4.902   4.694   0.784  0.6162  0.9699 -1.3795
 3557SOL    MW413996   4.867   4.774   0.785 -0.1262  0.2968  0.3125
 3558SOL     OW13997   6.242   3.766   0.319 -0.2678 -0.8177  0.1337
 3558SOL    HW213998   6.225   3.673   0.336 -0.7004 -0.2994  3.3506
 3558SOL    HW313999   6.155   3.806   0.319  0.0076 -0.2067  0.6317
 3558SOL    MW414000   6.228   3.759   0.322 -0.1829 -0.4791 -0.3304
 3559SOL     OW14001   0.583   1.188   1.430 -0.5334 -0.0219 -0.1188
 3559SOL    HW214002   0.515   1.139   1.476 -0.3924  0.7609  0.9502
 3559SOL    HW314003   0.555   1.279   1.435 -0.1368  0.1547 -0.9518
 3559SOL    MW414004   0.570   1.193   1.437 -0.6755  0.4748  0.1428
 3560SOL     OW14005   5.439   2.216   6.201 -0.1564  0.1906 -0.3907
 3560SOL    HW214006   5.348   2.236   6.181  0.0542 -0.3090 -2.0043
 3560SOL    HW314007   5.441   2.201   6.296 -1.0550  3.6862  0.2983
 3560SOL    MW414008   5.428   2.216   6.211 -0.2165  1.2990 -0.0932
 3561SOL     OW14009   2.220   2.469   4.135  0.6648  0.0878  0.3448
 3561SOL    HW214010   2.284   2.510   4.077  1.2060 -1.0836  0.0784
 3561SOL    HW314011   2.223   2.522   4.215  1.0797  0.7580 -0.1006
 3561SOL    MW414012   2.229   2.482   4.138  0.0684  0.1684 -0.8840
 3562SOL     OW14013   5.848   4.758   5.891  0.3105 -0.6627 -0.2724
 3562SOL    HW214014   5.866   4.688   5.828  0.9414  1.6494 -2.8995
 3562SOL    HW314015   5.753   4.764   5.893  0.1772 -2.4918  1.1581
 3562SOL    MW414016   5.838   4.750   5.883 -0.1621 -0.0784  0.4451
 3563SOL     OW14017   5.540   1.483   2.618  0.3456  0.0113 -0.2174
 3563SOL    HW214018   5.445   1.473   2.625  0.3885  0.3468  0.8937
 3563SOL    HW314019   5.562   1.554   2.678  1.2461  0.2629 -0.8232
 3563SOL    MW414020   5.531   1.491   2.626  0.0602 -0.5669 -0.3046
 3564SOL     OW14021   5.327   3.533   2.172 -0.2023 -0.1670 -0.5182
 3564SOL    HW214022   5.417   3.501   2.159  0.2710  0.4742  0.8825
 3564SOL    HW314023   5.326   3.560   2.264 -1.6351  0.5012 -0.7193
 3564SOL    MW414024   5.339   3.532   2.183  0.2168  0.3021  0.0411
 3565SOL     OW14025   2.584   4.718   3.246  0.1912  0.1366  0.0271
 3565SOL    HW214026   2.533   4.788   3.205 -0.0081  0.8673  1.4681
 3565SOL    HW314027   2.523   4.676   3.307  0.7033 -0.4001  0.1807
 3565SOL    MW414028   2.570   4.722   3.249  1.0920  0.5305 -0.0339
 3566SOL     OW14029   5.522   1.239   0.005  0.2240 -0.4304 -0.0609
 3566SOL    HW214030   5.500   1.329   0.030 -1.2395 -0.6427 -0.5527
 3566SOL    HW314031   5.568   1.248  -0.079  0.3110 -0.1380  0.0163
 3566SOL    MW414032   5.525   1.252  -0.002  0.7270 -0.4524 -0.1485
 3567SOL     OW14033   2.227   2.511   6.045 -0.2211  0.7055  0.1066
 3567SOL    HW214034   2.191   2.568   5.977 -3.2595 -0.5056  0.5072
 3567SOL    HW314035   2.214   2.559   6.126  0.0338  0.6819  0.1617
 3567SOL    MW414036   2.220   2.525   6.046 -0.1686 -0.1991  0.8904
 3568SOL     OW14037   1.925   5.906   6.430  0.2554 -0.6447  0.2917
 3568SOL    HW214038   1.914   5.999   6.411  0.0213 -0.1698  2.4546
 3568SOL    HW314039   2.002   5.880   6.380  0.4438  0.7699 -0.2055
 3568SOL    MW414040   1.934   5.915   6.421 -0.4073  0.5383 -0.3396
 3569SOL     OW14041   3.341   0.044   1.828 -0.2201 -0.3049 -0.1125
 3569SOL    HW214042   3.429   0.054   1.793 -0.5395 -0.8316 -1.1141
 3569SOL    HW314043   3.334  -0.050   1.848  0.0887  0.0487  1.7689
 3569SOL    MW414044   3.351   0.033   1.826  0.2831  0.6043 -0.4303
 3570SOL     OW14045   6.444   4.131   2.993  0.6163 -0.0856  0.3045
 3570SOL    HW214046   6.407   4.117   3.080  0.1689 -2.9440 -0.2653
 3570SOL    HW314047   6.370   4.125   2.933  1.0036  1.2894 -0.3576
 3570SOL    MW414048   6.430   4.129   2.996  0.0517  0.5156  0.4812
 3571SOL     OW14049   2.885   6.335   4.150  0.8617  0.3672  0.4468
 3571SOL    HW214050   2.834   6.353   4.229  0.7529  1.5118  0.1307
 3571SOL    HW314051   2.948   6.269   4.178 -0.2819 -0.5188  1.0434
 3571SOL    MW414052   2.887   6.329   4.164  0.2426 -0.0615  0.3218
 3572SOL     OW14053   2.413   4.858   3.077 -0.1395  0.2576 -0.4514
 3572SOL    HW214054   2.409   4.954   3.075 -0.8007  0.2312 -2.4167
 3572SOL    HW314055   2.322   4.830   3.085  0.0904 -0.2270  0.6614
 3572SOL    MW414056   2.400   4.867   3.077 -0.0500 -0.0206 -0.4954
 3573SOL     OW14057   4.098   0.884   2.174 -0.4299 -0.1195 -0.1032
 3573SOL    HW214058   4.011   0.909   2.202 -0.3389  1.5668 -1.1881
 3573SOL    HW314059   4.084   0.825   2.101 -0.6792  0.6359 -0.6738
 3573SOL    MW414060   4.085   0.880   2.168  0.5615  0.3117 -0.3772
 3574SOL     OW14061   1.345   0.698   5.566 -0.0318  0.0669  0.1844
 3574SOL    HW214062   1.325   0.619   5.617 -4.0213 -0.1635 -1.4127
 3574SOL    HW314063   1.322   0.675   5.476  0.3532  2.5641 -0.6263
 3574SOL    MW414064   1.340   0.685   5.561 -0.2981  0.2125  0.6099
 3575SOL     OW14065   4.309   1.423   1.220  1.0762 -0.4501 -0.0173
 3575SOL    HW214066   4.236   1.439   1.280 -0.0872 -1.6468 -1.0367
 3575SOL    HW314067   4.382   1.400   1.277  0.5309  0.2553  1.0077
 3575SOL    MW414068   4.309   1.422   1.235  0.4354  0.5654 -0.0352
 3576SOL     OW14069   6.279   3.861   2.324  0.5129  0.1929 -0.3857
 3576SOL    HW214070   6.325   3.923   2.268  1.0119 -0.6001 -0.8844
 3576SOL    HW314071   6.264   3.785   2.268 -0.0251 -0.1611  0.2290
 3576SOL    MW414072   6.283   3.859   2.309  0.2638 -0.1887  0.3183
 3577SOL     OW14073   2.143   1.171   1.163 -0.3147  0.1883  0.4602
 3577SOL    HW214074   2.054   1.204   1.155  0.2364  1.7239  0.3297
 3577SOL    HW314075   2.142   1.116   1.241 -1.0425  1.3748  1.3244
 3577SOL    MW414076   2.131   1.168   1.172 -0.0104  0.2670 -0.7690
 3578SOL     OW14077   6.026   2.962   0.676  0.0334  0.3717  0.0891
 3578SOL    HW214078   6.100   2.944   0.733  0.0789 -1.1474 -0.4034
 3578SOL    HW314079   6.056   3.033   0.619  0.1461  1.5918  1.6109
 3578SOL    MW414080   6.040   2.969   0.676  0.0969  0.3448 -0.8436
 3579SOL     OW14081   5.523   3.103   3.591  0.1117  0.3780 -0.4901
 3579SOL    HW214082   5.551   3.160   3.664  2.0749  0.4323 -1.2075
 3579SOL    HW314083   5.503   3.164   3.520 -0.8408  0.2826 -0.3094
 3579SOL    MW414084   5.524   3.119   3.591  0.2910 -0.2235 -0.5963
 3580SOL     OW14085   5.537   0.861   4.033 -0.5979 -0.5891 -0.8111
 3580SOL    HW214086   5.504   0.786   3.984  0.6157 -1.6787 -0.0420
 3580SOL    HW314087   5.612   0.892   3.982 -0.2587 -0.7781 -0.4348
 3580SOL    MW414088   5.543   0.855   4.020  0.2069  0.2514  0.9187
 3581SOL     OW14089   1.867   5.086   3.341  0.2167 -0.3604  0.3551
 3581SOL    HW214090   1.957   5.064   3.317  0.1848  0.0834 -0.2055
 3581SOL    HW314091   1.875   5.144   3.417  0.4692  0.6202 -0.4013
 3581SOL    MW414092   1.880   5.091   3.348 -0.0054 -0.2319 -0.2506
 3582SOL     OW14093   0.251   5.816   0.199  0.8205  0.4199  0.1820
 3582SOL    HW214094   0.202   5.898   0.188  2.1106  1.4178  1.4988
 3582SOL    HW314095   0.333   5.831   0.152  0.6178 -0.5658 -0.5163
 3582SOL    MW414096   0.255   5.829   0.191  0.3457 -0.6788 -0.2207
 3583SOL     OW14097   3.833   2.507   1.100 -0.4556  0.0374  0.0053
 3583SOL    HW214098   3.748   2.478   1.134 -0.9296  1.3781  0.0447
 3583SOL    HW314099   3.858   2.441   1.035 -1.3996 -0.5099  0.1890
 3583SOL    MW414100   3.825   2.495   1.096  0.1975  0.5216  0.0114
 3584SOL     OW14101   6.433   2.525   5.891  0.2540 -0.6072 -0.2630
 3584SOL    HW214102   6.506   2.507   5.831  0.4131  0.3585 -0.3786
 3584SOL    HW314103   6.381   2.592   5.846  1.0044  0.9888  1.1457
 3584SOL    MW414104   6.436   2.532   5.877  0.8544 -0.0343 -0.3312
 3585SOL     OW14105   3.312   6.404   4.845  0.5868  0.0656 -0.2778
 3585SOL    HW214106   3.339   6.379   4.934 -1.8828  0.0261  0.5481
 3585SOL    HW314107   3.375   6.361   4.788  0.4717 -2.5410  1.3534
 3585SOL    MW414108   3.324   6.395   4.849  0.2454  0.0194  0.2923
 3586SOL     OW14109   5.773   5.129   0.994  0.0764  0.3960  0.0820
 3586SOL    HW214110   5.709   5.146   0.925 -1.1927 -1.9485  0.5785
 3586SOL    HW314111   5.733   5.166   1.073  0.3389  0.8001  0.0298
 3586SOL    MW414112   5.759   5.136   0.995 -0.3853 -0.3477  0.2854
 3587SOL     OW14113   5.246   0.863   5.494 -0.1920  0.0595  0.1012
 3587SOL    HW214114   5.288   0.873   5.580 -1.6540 -0.3383  0.8851
 3587SOL    HW314115   5.213   0.773   5.494 -1.5479  0.5437 -0.2606
 3587SOL    MW414116   5.247   0.852   5.505 -0.5023 -0.4624 -0.4761
 3588SOL     OW14117   0.101   0.924   1.746  0.0819  0.3945 -0.3980
 3588SOL    HW214118   0.088   0.891   1.834  2.2631 -0.1670 -0.2195
 3588SOL    HW314119   0.061   1.011   1.746 -1.2773 -0.2118  0.6537
 3588SOL    MW414120   0.094   0.931   1.757  0.4390  0.1291 -0.1054
 3589SOL     OW14121   1.460   0.955   1.513  0.1403  0.8157  0.0380
 3589SOL    HW214122   1.524   0.943   1.583  0.5731  2.4830 -0.0176
 3589SOL    HW314123   1.395   1.015   1.550  0.0272  1.1901 -0.7468
 3589SOL    MW414124   1.460   0.961   1.527  0.3693  0.2872 -0.4462
 3590SOL     OW14125   1.334   2.643   6.150  0.1287  0.1682  0.0042
 3590SOL    HW214126   1.310   2.586   6.077  0.5764  0.7648 -0.6233
 3590SOL    HW314127   1.399   2.703   6.113  1.0427 -0.0949  1.1251
 3590SOL    MW414128   1.339   2.644   6.135 -0.3377 -0.2951 -0.5848
 3591SOL     OW14129   4.810   0.968   5.153  0.1514 -0.5690  0.5057
 3591SOL    HW214130   4.865   1.037   5.117  0.9426 -0.7787  1.2983
 3591SOL    HW314131   4.793   0.995   5.244 -2.3809  0.3003 -0.1149
 3591SOL    MW414132   4.815   0.981   5.160  0.1343 -0.8486 -0.3148
 3592SOL     OW14133   4.882   6.268   0.885 -0.6751  0.1011  0.3612
 3592SOL    HW214134   4.802   6.313   0.859  0.2124  1.5427  0.0050
 3592SOL    HW314135   4.936   6.336   0.926  0.0427 -1.0153  1.3281
 3592SOL    MW414136   4.879   6.283   0.887 -0.3096 -0.2417  0.4593
 3593SOL     OW14137   3.890   3.771   3.579  0.2216 -0.2573  0.2241
 3593SOL    HW214138   3.985   3.779   3.590  0.1150 -0.6260  1.7471
 3593SOL    HW314139   3.874   3.677   3.578 -0.0597 -0.2106 -0.9494
 3593SOL    MW414140   3.901   3.760   3.581  0.3525 -0.2045 -0.0669
 3594SOL     OW14141   5.021   1.081   6.267 -0.0334  0.3290 -0.4878
 3594SOL    HW214142   4.953   1.082   6.334  0.5263 -0.8973  0.1320
 3594SOL    HW314143   5.002   1.157   6.211 -0.0419  1.8801  1.5138
 3594SOL    MW414144   5.010   1.091   6.268 -0.1139 -0.6847  0.5306
 3595SOL     OW14145   6.054   4.499   1.679  0.2252  0.2937  0.2151
 3595SOL    HW214146   6.128   4.502   1.740  0.8321 -1.3269 -0.3597
 3595SOL    HW314147   5.976   4.510   1.734  0.8102  0.0769  1.1099
 3595SOL    MW414148   6.054   4.501   1.694 -0.9451 -0.0799 -0.1892
 3596SOL     OW14149   6.130   3.523   0.325  0.5349 -0.1203  0.0326
 3596SOL    HW214150   6.058   3.505   0.385  0.4881  0.4265  0.1493
 3596SOL    HW314151   6.086   3.557   0.246  0.7590  2.5824  0.9813
 3596SOL    MW414152   6.114   3.525   0.322 -0.0663  0.0702  0.2363
 3597SOL     OW14153   3.179   2.457   2.889 -0.3390  0.0788 -0.1050
 3597SOL    HW214154   3.137   2.522   2.945 -0.6846  1.3793 -1.8072
 3597SOL    HW314155   3.252   2.424   2.942 -1.0266  0.7782  1.3380
 3597SOL    MW414156   3.183   2.461   2.904  0.3245 -0.5432 -0.0159
 3598SOL     OW14157   4.353   0.601   6.289  0.4654  0.0994 -0.6103
 3598SOL    HW214158   4.338   0.510   6.315  0.7395  0.0733 -0.5463
 3598SOL    HW314159   4.359   0.599   6.194 -1.7071  0.3516 -0.8168
 3598SOL    MW414160   4.352   0.589   6.280  0.0771 -0.3295  0.3960
 3599SOL     OW14161   5.380   2.645   0.981 -0.1639  0.0154  0.0757
 3599SOL    HW214162   5.386   2.734   0.948  0.3042 -0.1193 -0.2158
 3599SOL    HW314163   5.342   2.654   1.069  0.2414  0.5389  0.2022
 3599SOL    MW414164   5.376   2.658   0.988 -0.2596 -0.5632 -0.1319
 3600SOL     OW14165   0.428   5.203   0.152  0.0950 -0.1410  0.0124
 3600SOL    HW214166   0.417   5.263   0.078  0.2412  2.7015  2.1124
 3600SOL    HW314167   0.338   5.177   0.174 -0.0741  0.2469 -0.2014
 3600SOL    MW414168   0.415   5.208   0.145 -0.0533 -0.7234  0.2570
 3601SOL     OW14169   3.289   5.159   4.860 -0.2002  0.4377  0.1633
 3601SOL    HW214170   3.201   5.175   4.827  0.2939 -1.4539 -2.4405
 3601SOL    HW314171   3.342   5.229   4.821 -0.1691  0.1435 -0.3327
 3601SOL    MW414172   3.284   5.170   4.851  0.2692 -0.3268  0.2232
 3602SOL     OW14173   6.253   4.094   2.803 -0.2617  0.2181 -0.3027
 3602SOL    HW214174   6.233   4.011   2.847 -0.0023  0.3910  0.1379
 3602SOL    HW314175   6.300   4.068   2.724  1.2699  0.0285  0.6453
 3602SOL    MW414176   6.256   4.079   2.798 -0.4010  0.4131 -0.4325
 3603SOL     OW14177   5.051   1.388   4.383  0.1524 -0.3899 -0.0102
 3603SOL    HW214178   5.003   1.469   4.369 -0.0415 -0.4226  0.4385
 3603SOL    HW314179   5.122   1.390   4.318 -0.0394 -0.0153 -0.2103
 3603SOL    MW414180   5.054   1.399   4.373  0.4323  0.2541 -0.0439
 3604SOL     OW14181   1.212   3.519   4.914 -0.0389  0.1821 -0.3226
 3604SOL    HW214182   1.139   3.575   4.889 -0.6342 -0.8060 -0.8440
 3604SOL    HW314183   1.173   3.433   4.928  0.4721  0.2967  2.6187
 3604SOL    MW414184   1.197   3.515   4.913  1.0870 -0.0387  0.0710
 3605SOL     OW14185   1.805   2.127   1.032 -0.4835 -0.3240  0.4885
 3605SOL    HW214186   1.732   2.183   1.007  0.0565  0.6621  1.0760
 3605SOL    HW314187   1.853   2.112   0.951  0.9734  2.4339  0.7337
 3605SOL    MW414188   1.802   2.132   1.018 -0.2449  0.0050  0.4054
 3606SOL     OW14189   2.862   3.079   1.438  0.2446  0.2008  0.4690
 3606SOL    HW214190   2.837   3.161   1.481 -3.9688 -1.1794  1.0079
 3606SOL    HW314191   2.889   3.021   1.509  1.9763  0.5887  0.1977
 3606SOL    MW414192   2.862   3.082   1.453 -0.1221 -0.6584  0.6732
 3607SOL     OW14193   0.049   1.370   5.912 -0.7067 -0.5448  0.1660
 3607SOL    HW214194   0.064   1.328   5.827  1.3257  0.3280  0.0369
 3607SOL    HW314195   0.136   1.374   5.952 -1.5423 -0.3926  2.0355
 3607SOL    MW414196   0.063   1.365   5.906  0.0988  0.0330 -0.1806
 3608SOL     OW14197   2.525   0.112   1.421  0.0144 -0.2507 -0.1567
 3608SOL    HW214198   2.534   0.134   1.513 -1.3200 -0.4799  0.0504
 3608SOL    HW314199   2.431   0.097   1.409  0.1480 -0.0857 -1.5827
 3608SOL    MW414200   2.513   0.113   1.431 -0.1428  0.4428  0.2350
 3609SOL     OW14201   3.615   2.559   4.692 -0.0152  0.5618 -0.4165
 3609SOL    HW214202   3.528   2.576   4.729  0.1120 -0.4767  0.4179
 3609SOL    HW314203   3.607   2.581   4.600 -0.6934  2.0681 -0.0344
 3609SOL    MW414204   3.603   2.565   4.685 -0.0950 -0.5204 -0.3405
 3610SOL     OW14205   3.155   2.080   3.334 -0.4591 -0.4668 -0.1606
 3610SOL    HW214206   3.088   2.019   3.303  0.1211 -0.8541 -0.7020
 3610SOL    HW314207   3.236   2.047   3.295 -0.1979  0.9576 -0.8971
 3610SOL    MW414208   3.157   2.067   3.325 -0.0767 -0.0170  0.2719
 3611SOL     OW14209   1.468   4.167   6.422 -0.6453  0.1030 -0.3313
 3611SOL    HW214210   1.462   4.178   6.327 -1.8538  2.1180 -0.0888
 3611SOL    HW314211   1.562   4.176   6.442 -0.3129 -0.9206 -1.3641
 3611SOL    MW414212   1.480   4.170   6.412  0.3456 -0.0146  0.0350
 3612SOL     OW14213   4.424   5.957   6.250  0.0851 -0.4510 -0.5210
 3612SOL    HW214214   4.512   5.961   6.288 -1.1671 -0.2868  2.6962
 3612SOL    HW314215   4.404   6.048   6.225  0.3460 -0.2390  0.0238
 3612SOL    MW414216   4.433   5.970   6.252  0.0905  0.5026 -0.7989
 3613SOL     OW14217   3.198   2.267   4.359 -0.8442  0.0190  0.9914
 3613SOL    HW214218   3.164   2.179   4.371  1.6438 -1.2298 -0.3562
 3613SOL    HW314219   3.276   2.256   4.304  0.0251  2.9659  1.4334
 3613SOL    MW414220   3.204   2.254   4.354 -0.1629 -0.5867  0.3958
 3614SOL     OW14221   4.722   2.445   2.527  0.2306  0.1613 -0.1215
 3614SOL    HW214222   4.767   2.362   2.513  0.2977  0.5853 -2.9261
 3614SOL    HW314223   4.787   2.512   2.504 -0.9255  0.8525 -1.5554
 3614SOL    MW414224   4.737   2.443   2.522  0.4260  0.1083 -0.4552
 3615SOL     OW14225   4.084   4.955   4.123  0.3022 -0.0666  0.1464
 3615SOL    HW214226   4.172   4.955   4.162 -0.4410  1.8629  1.9865
 3615SOL    HW314227   4.054   4.865   4.134  0.7132  0.0415  2.8471
 3615SOL    MW414228   4.092   4.943   4.129 -0.5052 -0.0252  0.1511
 3616SOL     OW14229   5.921   4.954   3.623  0.3950  0.0249  0.8835
 3616SOL    HW214230   5.913   4.862   3.648  0.5540 -0.3486 -0.3883
 3616SOL    HW314231   5.869   4.961   3.542  3.0355  0.2706 -0.8967
 3616SOL    MW414232   5.913   4.943   3.616 -0.0743 -0.2479  0.0869
 3617SOL     OW14233   0.587   6.375   0.396  0.2043 -0.2972 -0.0029
 3617SOL    HW214234   0.633   6.389   0.313 -1.2313 -1.7811 -1.0875
 3617SOL    HW314235   0.600   6.282   0.416 -0.0716 -0.1201  1.0685
 3617SOL    MW414236   0.595   6.365   0.388  0.2972  0.5757 -0.3509
 3618SOL     OW14237   4.667   1.392   3.651 -0.5703  0.0837 -0.6598
 3618SOL    HW214238   4.724   1.426   3.719 -0.5413 -1.1986 -0.0068
 3618SOL    HW314239   4.579   1.404   3.685 -0.5200 -1.6557  0.1952
 3618SOL    MW414240   4.663   1.398   3.664  0.4130  0.3265 -0.9974
 3619SOL     OW14241   4.669   5.723   6.181 -0.1687 -0.1800  0.2718
 3619SOL    HW214242   4.613   5.686   6.112 -0.4445  0.7649 -0.0289
 3619SOL    HW314243   4.719   5.792   6.136 -0.0818  0.1944  0.9377
 3619SOL    MW414244   4.668   5.728   6.166 -0.1970 -0.2439  0.9471
 3620SOL     OW14245   0.176   6.122   2.571 -0.0860  0.4358 -0.2310
 3620SOL    HW214246   0.211   6.206   2.541 -1.2091  1.4746  1.2064
 3620SOL    HW314247   0.250   6.079   2.613 -0.0145  1.7514  1.0587
 3620SOL    MW414248   0.190   6.128   2.573  0.1079  0.0605 -0.0393
 3621SOL     OW14249   5.528   2.185   1.194  0.4903 -0.5610 -0.2692
 3621SOL    HW214250   5.621   2.172   1.214  0.8117  1.9101  0.2217
 3621SOL    HW314251   5.486   2.194   1.279 -0.4066 -2.5207 -0.4602
 3621SOL    MW414252   5.535   2.184   1.208  0.1493 -0.1345 -0.2408
 3622SOL     OW14253   5.263   4.625   6.034 -0.2919 -0.4864 -0.0609
 3622SOL    HW214254   5.278   4.578   5.952 -2.6418 -0.7737 -0.3943
 3622SOL    HW314255   5.182   4.587   6.069  0.5950 -0.3084  2.3767
 3622SOL    MW414256   5.254   4.614   6.028 -0.0459 -0.0021  0.4183
 3623SOL     OW14257   1.739   0.229   2.165  0.4863 -0.1174  0.2124
 3623SOL    HW214258   1.832   0.231   2.146  1.1308  0.1313  2.9849
 3623SOL    HW314259   1.733   0.198   2.256 -2.1332 -0.2429  0.0912
 3623SOL    MW414260   1.750   0.225   2.175  0.3499  0.0912 -0.0234
 3624SOL     OW14261   0.419   0.628   2.853 -0.9736 -0.0910  0.3413
 3624SOL    HW214262   0.380   0.575   2.784  1.1295 -0.5330 -0.5834
 3624SOL    HW314263   0.466   0.565   2.908 -0.0483  0.5813  0.3492
 3624SOL    MW414264   0.420   0.613   2.852 -0.0980 -0.0113 -0.0016
 3625SOL     OW14265   0.989   1.892   3.407 -0.0223 -0.5100  0.5084
 3625SOL    HW214266   0.917   1.952   3.387  0.1022 -0.0984  1.2371
 3625SOL    HW314267   0.950   1.805   3.400 -0.0582 -0.3943 -1.1430
 3625SOL    MW414268   0.975   1.889   3.404 -0.5975 -0.4792 -0.3381
 3626SOL     OW14269   5.295   5.823   3.824  0.0167  0.0815 -0.6321
 3626SOL    HW214270   5.378   5.780   3.806 -0.5894 -1.4797  0.1912
 3626SOL    HW314271   5.236   5.792   3.755 -0.2233  0.2069 -0.4855
 3626SOL    MW414272   5.298   5.813   3.813  0.0898 -0.6704 -0.7260
 3627SOL     OW14273   1.955   0.618   3.940  0.1607  0.2012 -0.1575
 3627SOL    HW214274   1.958   0.643   4.033 -1.3126  0.7963 -0.2346
 3627SOL    HW314275   2.032   0.563   3.927  1.7180  2.0277  0.8468
 3627SOL    MW414276   1.965   0.614   3.951 -0.3998 -0.0539 -0.1123
 3628SOL     OW14277   6.283   3.380   1.708  0.3046 -0.0041 -0.0535
 3628SOL    HW214278   6.272   3.472   1.683 -1.4128  0.9455  3.4856
 3628SOL    HW314279   6.290   3.381   1.803 -1.1567 -3.6207  0.2885
 3628SOL    MW414280   6.282   3.392   1.717  0.6285  0.1678 -0.0307
 3629SOL     OW14281   3.633   1.113   0.883 -0.7251  0.1107  0.7891
 3629SOL    HW214282   3.601   1.037   0.834  0.1334  0.4821 -0.3808
 3629SOL    HW314283   3.614   1.092   0.975 -0.1769 -1.6918  0.5300
 3629SOL    MW414284   3.626   1.100   0.889  0.2771 -0.3293  0.3279
 3630SOL     OW14285   0.976   4.368   1.197  0.0810 -0.3664 -0.1916
 3630SOL    HW214286   0.926   4.441   1.161  0.9405 -0.3141 -1.3666
 3630SOL    HW314287   0.913   4.296   1.202 -0.4320  0.0646 -0.3845
 3630SOL    MW414288   0.961   4.368   1.193 -0.7200 -0.2285 -0.5383
 3631SOL     OW14289   0.692   4.808   5.035  0.4115  0.0538 -0.5412
 3631SOL    HW214290   0.655   4.895   5.017  0.0701 -0.0246 -0.2193
 3631SOL    HW314291   0.725   4.779   4.950 -1.2673 -0.3547 -1.1038
 3631SOL    MW414292   0.691   4.816   5.021 -0.0306 -0.7899 -0.1617
 3632SOL     OW14293   1.820   0.476   1.844  0.0171 -0.3018  0.3983
 3632SOL    HW214294   1.805   0.446   1.754 -2.8514  1.0110  0.3234
 3632SOL    HW314295   1.826   0.571   1.836 -0.7711 -0.1392  1.6413
 3632SOL    MW414296   1.819   0.484   1.831  0.1971  0.4482  0.5607
 3633SOL     OW14297   4.559   4.809   2.326  0.0730 -0.1359 -0.3908
 3633SOL    HW214298   4.606   4.807   2.243 -0.2147  0.3228 -0.5654
 3633SOL    HW314299   4.486   4.748   2.314 -0.5710  0.6973 -0.8447
 3633SOL    MW414300   4.556   4.801   2.314  0.4265  0.2610 -0.1458
 3634SOL     OW14301   0.720   1.641   1.410 -0.0029  0.2934 -0.3083
 3634SOL    HW214302   0.663   1.699   1.460 -1.1808 -0.9500 -0.1537
 3634SOL    HW314303   0.797   1.630   1.465 -0.4460  0.4637  0.3604
 3634SOL    MW414304   0.723   1.648   1.424 -0.1337  0.2308  0.3509
 3635SOL     OW14305   5.263   1.144   3.764 -0.1761  0.0027  0.3184
 3635SOL    HW214306   5.341   1.142   3.819  0.5813 -1.7389 -0.7229
 3635SOL    HW314307   5.239   1.052   3.754 -1.4505  0.4088 -0.6547
 3635SOL    MW414308   5.270   1.131   3.770 -0.3493 -0.0550 -0.0436
 3636SOL     OW14309   1.179   0.471   1.666  0.2489 -0.1021  0.2088
 3636SOL    HW214310   1.146   0.508   1.747 -0.9410  1.1762 -0.7952
 3636SOL    HW314311   1.254   0.418   1.692  0.6198  1.2064  1.9949
 3636SOL    MW414312   1.184   0.469   1.680 -0.1814  0.3952 -0.5250
 3637SOL     OW14313   3.535   2.635   1.300  0.6707 -0.3932 -0.0800
 3637SOL    HW214314   3.529   2.729   1.317  1.6028 -0.4307  0.5422
 3637SOL    HW314315   3.515   2.626   1.207  1.1884  0.4938 -0.2927
 3637SOL    MW414316   3.531   2.646   1.290 -0.5817  0.2275 -0.0395
 3638SOL     OW14317   0.479   0.247   3.638 -0.5406 -0.5384  0.2275
 3638SOL    HW214318   0.534   0.293   3.702  1.2575  0.6740 -2.0193
 3638SOL    HW314319   0.391   0.282   3.654  0.2700  1.5732  0.5003
 3638SOL    MW414320   0.474   0.258   3.649 -0.5796  0.8273  1.0891
 3639SOL     OW14321   1.790   3.303   4.250  0.6522 -0.4277  0.0783
 3639SOL    HW214322   1.795   3.365   4.323  0.2817 -0.2429 -0.0500
 3639SOL    HW314323   1.717   3.335   4.196  0.0630 -1.3094  0.3295
 3639SOL    MW414324   1.781   3.316   4.253  0.4152 -0.0982 -0.2621
 3640SOL     OW14325   2.457   5.644   5.202  0.3960 -0.0332  0.5217
 3640SOL    HW214326   2.450   5.738   5.215  0.7081 -0.0780  1.0652
 3640SOL    HW314327   2.463   5.608   5.291  1.8483 -0.4292  0.2937
 3640SOL    MW414328   2.457   5.651   5.215  0.1472 -0.6624 -0.4042
 3641SOL     OW14329   3.412   4.650   1.616  0.3555  0.2707  0.0107
 3641SOL    HW214330   3.453   4.625   1.533 -0.6410 -2.1746  0.1879
 3641SOL    HW314331   3.401   4.745   1.609  3.0774  0.5799 -1.3366
 3641SOL    MW414332   3.415   4.659   1.604  0.2925 -0.6002 -0.2590
 3642SOL     OW14333   2.858   2.316   6.292 -0.0055  0.2363 -0.2379
 3642SOL    HW214334   2.845   2.243   6.352 -1.1086 -0.0623 -0.8088
 3642SOL    HW314335   2.918   2.283   6.226 -0.8156 -0.3112 -0.7199
 3642SOL    MW414336   2.864   2.302   6.292  0.2662  0.2306  0.5435
 3643SOL     OW14337   0.759   6.063   0.026 -0.2810  0.2848 -0.3119
 3643SOL    HW214338   0.777   6.130  -0.041  0.2296  2.2270  1.6381
 3643SOL    HW314339   0.684   6.097   0.074 -2.3776 -2.3804 -1.4357
 3643SOL    MW414340   0.751   6.077   0.023 -0.6543  0.3787  0.2994
 3644SOL     OW14341   2.228   2.106   3.898 -0.2736  0.6160 -0.3703
 3644SOL    HW214342   2.225   2.148   3.984  1.6671 -1.0104  0.5797
 3644SOL    HW314343   2.221   2.178   3.836 -0.7575  1.9320  1.1326
 3644SOL    MW414344   2.226   2.121   3.901  0.1833  0.1004 -0.4549
 3645SOL     OW14345   1.828   0.099   5.886  0.0401  0.2804 -0.0892
 3645SOL    HW214346   1.830   0.143   5.801 -0.2953  2.0377  0.7595
 3645SOL    HW314347   1.909   0.128   5.930  0.0750 -0.3838  0.2953
 3645SOL    MW414348   1.839   0.109   5.881  0.1483 -0.7760  0.2427
 3646SOL     OW14349   4.338   1.504   0.968  0.7551 -0.4626  0.5343
 3646SOL    HW214350   4.332   1.477   1.060  0.5177  1.3421  1.0982
 3646SOL    HW314351   4.251   1.538   0.948  1.1139  0.1516 -0.0133
 3646SOL    MW414352   4.325   1.505   0.978  0.2414  0.1444  0.2434
 3647SOL     OW14353   0.809   3.269   2.933  0.1260 -0.2570 -0.1269
 3647SOL    HW214354   0.867   3.195   2.952  0.0190  0.1317  1.9378
 3647SOL    HW314355   0.750   3.236   2.865  2.1041 -0.9733 -1.5847
 3647SOL    MW414356   0.809   3.255   2.927  0.3000 -0.0625  0.3423
 3648SOL     OW14357   2.053   2.780   5.550 -0.6642 -0.1355  0.0608
 3648SOL    HW214358   2.044   2.874   5.539 -0.2402 -0.0545  0.4038
 3648SOL    HW314359   2.141   2.760   5.520  0.2100 -0.0318  2.3640
 3648SOL    MW414360   2.063   2.790   5.545  0.6073 -0.2580  0.0631
 3649SOL     OW14361   1.687   2.930   5.322  0.2090 -0.2607  0.2541
 3649SOL    HW214362   1.716   2.872   5.393 -0.3325 -0.0700  0.6419
 3649SOL    HW314363   1.760   2.989   5.307 -0.3587  0.9600  1.9958
 3649SOL    MW414364   1.700   2.930   5.330 -0.2184 -0.0267 -0.2119
 3650SOL     OW14365   5.168   1.343   3.942  0.1630  0.4725  0.1094
 3650SOL    HW214366   5.248   1.371   3.985  0.2926  0.3903 -0.0751
 3650SOL    HW314367   5.198   1.285   3.872 -0.1455 -0.8761  1.0629
 3650SOL    MW414368   5.182   1.339   3.938  0.6375 -0.4662  0.3680
 3651SOL     OW14369   2.059   3.910   0.954  0.1646  0.2000  0.6541
 3651SOL    HW214370   2.044   4.005   0.958 -1.9597 -0.0074 -0.7062
 3651SOL    HW314371   1.972   3.872   0.948  1.0214 -1.6817 -1.4264
 3651SOL    MW414372   2.046   3.918   0.953  0.0444 -0.0432 -0.0045
 3652SOL     OW14373   2.562   5.370   4.939  0.0203  0.1781  0.0853
 3652SOL    HW214374   2.572   5.333   5.027 -1.5988  0.8788  0.5986
 3652SOL    HW314375   2.475   5.409   4.940  0.8920  2.2771 -1.0777
 3652SOL    MW414376   2.552   5.370   4.951  0.3826  0.0067 -0.2662
 3653SOL     OW14377   5.691   6.173   1.592  0.2893  0.1329 -0.0354
 3653SOL    HW214378   5.716   6.129   1.674  0.6117 -0.5594 -0.4956
 3653SOL    HW314379   5.661   6.260   1.620 -0.0151 -0.2417  0.8626
 3653SOL    MW414380   5.690   6.178   1.607  0.1663 -0.0406  0.1741
 3654SOL     OW14381   0.118   1.879   4.258  0.2217 -0.6289 -0.1808
 3654SOL    HW214382   0.053   1.843   4.198  0.4032 -0.5345 -0.4356
 3654SOL    HW314383   0.074   1.953   4.300 -0.2162 -1.2419  0.4764
 3654SOL    MW414384   0.103   1.884   4.256  0.8398 -0.2258  0.9206
 3655SOL     OW14385   4.305   2.017   5.057  0.2930  0.2433 -0.0300
 3655SOL    HW214386   4.359   1.967   5.118 -2.1620 -3.3516 -0.5205
 3655SOL    HW314387   4.311   1.969   4.974 -1.2740  1.4571 -0.9115
 3655SOL    MW414388   4.313   2.004   5.054  0.3250  0.0635  0.2831
 3656SOL     OW14389   2.833   2.374   4.240 -0.1465 -0.4033 -0.4812
 3656SOL    HW214390   2.923   2.375   4.207  0.4909 -1.6223  1.0907
 3656SOL    HW314391   2.830   2.299   4.300 -2.5975 -1.1883 -1.4673
 3656SOL    MW414392   2.845   2.364   4.243 -0.1071 -0.0746 -0.0721
 3657SOL     OW14393   0.968   4.788   0.786  0.2036 -0.3343 -1.0555
 3657SOL    HW214394   0.919   4.837   0.852  0.9989 -0.2003 -0.5511
 3657SOL    HW314395   0.949   4.833   0.704 -1.0308 -0.6804 -0.9676
 3657SOL    MW414396   0.959   4.801   0.784  0.5098  0.4955  0.0336
 3658SOL     OW14397   2.800   1.661   1.744  0.7853 -0.3230 -0.7673
 3658SOL    HW214398   2.863   1.606   1.697  0.6137 -1.7980  0.6556
 3658SOL    HW314399   2.733   1.600   1.775  0.5018  0.6968  0.7390
 3658SOL    MW414400   2.799   1.645   1.742 -0.6559 -0.1934  0.0926
 3659SOL     OW14401   3.278   6.015   4.147 -0.0492  0.0612  0.0208
 3659SOL    HW214402   3.254   5.934   4.102  1.0047 -0.6600  0.7131
 3659SOL    HW314403   3.276   5.992   4.240  0.0348  0.9051  0.2413
 3659SOL    MW414404   3.275   6.001   4.153  0.0718  0.0624  0.1941
 3660SOL     OW14405   3.837   3.086   4.122  0.3275  0.1507  0.3454
 3660SOL    HW214406   3.748   3.059   4.101  0.1904  0.8664 -0.0164
 3660SOL    HW314407   3.847   3.171   4.080  1.3338 -0.1173  0.0196
 3660SOL    MW414408   3.826   3.094   4.114  0.6108 -0.0544  0.1342
 3661SOL     OW14409   5.736   1.515   4.746 -0.0252 -0.4535  0.1455
 3661SOL    HW214410   5.758   1.482   4.833  1.6673 -1.2600 -0.5402
 3661SOL    HW314411   5.640   1.508   4.741 -0.1673 -0.2754  1.9603
 3661SOL    MW414412   5.726   1.509   4.757  0.0082  0.3475 -0.2662
 3662SOL     OW14413   2.801   3.297   5.345  0.0510  0.1593  0.0075
 3662SOL    HW214414   2.890   3.322   5.319  0.4201 -0.5310  0.5775
 3662SOL    HW314415   2.800   3.310   5.440 -0.2112 -0.5903  0.1067
 3662SOL    MW414416   2.812   3.302   5.354 -0.2978 -0.1171 -0.0402
 3663SOL     OW14417   3.187   3.676   3.533  0.4508  0.3494 -0.0151
 3663SOL    HW214418   3.202   3.760   3.489 -1.2239  1.3006  1.0986
 3663SOL    HW314419   3.173   3.700   3.625 -1.1011 -1.0206  0.1490
 3663SOL    MW414420   3.187   3.690   3.539 -0.2495 -0.2852  0.0325
 3664SOL     OW14421   3.347   0.206   4.701 -0.1864  0.6574 -0.5755
 3664SOL    HW214422   3.325   0.122   4.742 -1.9374  0.1149 -2.4231
 3664SOL    HW314423   3.433   0.228   4.736 -0.0277 -1.5051  0.5897
 3664SOL    MW414424   3.355   0.198   4.711 -0.1971  0.6008  0.0957
 3665SOL     OW14425   4.810   5.011   4.199  0.5436 -0.5513 -0.3274
 3665SOL    HW214426   4.903   4.999   4.180  0.4688  0.6097 -1.5887
 3665SOL    HW314427   4.769   4.930   4.169  0.8089  0.1004 -2.6373
 3665SOL    MW414428   4.817   4.999   4.192  0.1821  0.4551 -0.2822
 3666SOL     OW14429   4.287   0.403   5.354 -0.4455  0.1731  0.9255
 3666SOL    HW214430   4.321   0.327   5.306 -0.4095  0.5805  0.3041
 3666SOL    HW314431   4.225   0.444   5.294 -1.4118 -0.0728  1.7337
 3666SOL    MW414432   4.284   0.398   5.340 -0.0955 -0.4425 -0.1500
 3667SOL     OW14433   6.363   4.678   4.619 -0.0695 -0.1328  0.1836
 3667SOL    HW214434   6.411   4.707   4.697 -1.0891  0.1210  0.7312
 3667SOL    HW314435   6.358   4.757   4.564  0.3698 -0.2287  0.0045
 3667SOL    MW414436   6.369   4.692   4.622  1.1118  0.4101 -0.0143
 3668SOL     OW14437   1.655   3.079   3.020 -0.0501  0.3327  0.2393
 3668SOL    HW214438   1.716   3.153   3.014  0.9611 -0.4446  0.6335
 3668SOL    HW314439   1.662   3.050   3.110 -0.1177 -0.5141 -0.0230
 3668SOL    MW414440   1.664   3.085   3.031 -0.2669  0.6423 -0.1724
 3669SOL     OW14441   6.253   4.380   2.896  0.4750 -0.8020 -0.6682
 3669SOL    HW214442   6.285   4.404   2.983 -0.6959 -0.9940 -0.1690
 3669SOL    HW314443   6.256   4.285   2.894  0.7515 -0.7892 -0.9409
 3669SOL    MW414444   6.258   4.371   2.907  0.0374  0.2780 -0.2703
 3670SOL     OW14445   2.322   6.322   6.184 -0.2356  0.1605 -0.4359
 3670SOL    HW214446   2.393   6.260   6.200  1.3201  1.6806 -1.1584
 3670SOL    HW314447   2.363   6.393   6.134 -1.4611  2.7356  1.9757
 3670SOL    MW414448   2.337   6.323   6.180 -0.1756  0.1363 -0.1880
 3671SOL     OW14449   6.042   1.522   3.584  0.1109  0.2908 -0.5029
 3671SOL    HW214450   6.114   1.463   3.560 -0.3487 -0.6705  0.3780
 3671SOL    HW314451   6.036   1.513   3.679 -2.1541 -0.8385 -0.6937
 3671SOL    MW414452   6.051   1.513   3.594  0.0758  0.1174  0.4207
 3672SOL     OW14453   4.053   6.032   1.153  0.6189 -0.0318  0.2671
 3672SOL    HW214454   4.000   5.975   1.098 -0.3944  2.0918 -1.1081
 3672SOL    HW314455   4.134   6.047   1.103  0.4662  0.4690  0.1578
 3672SOL    MW414456   4.057   6.027   1.140  0.3290  0.1155  0.3421
 3673SOL     OW14457   3.429   5.291   0.057  0.2151 -0.4602 -0.2146
 3673SOL    HW214458   3.453   5.227   0.123  2.7289 -0.9831 -1.4975
 3673SOL    HW314459   3.409   5.240  -0.021  1.3499  0.2450 -0.9967
 3673SOL    MW414460   3.430   5.276   0.055  0.8077  0.3973 -0.4977
 3674SOL     OW14461   1.139   0.973   0.460 -0.4520  0.0762 -0.3230
 3674SOL    HW214462   1.139   0.906   0.392 -0.0241 -1.4398  1.1054
 3674SOL    HW314463   1.206   1.036   0.431  0.6193 -1.1892 -0.7266
 3674SOL    MW414464   1.148   0.973   0.448  0.5265  0.1350 -0.2220
 3675SOL     OW14465   1.713   5.761   0.796 -0.3138  0.2803  0.4872
 3675SOL    HW214466   1.724   5.669   0.820  0.2470  0.1991 -0.0541
 3675SOL    HW314467   1.705   5.807   0.879 -0.2627 -0.2204  0.7706
 3675SOL    MW414468   1.714   5.755   0.810  0.1085 -0.4889  0.4174
 3676SOL     OW14469   1.118   5.134   0.584  0.1264 -0.2163  0.5684
 3676SOL    HW214470   1.136   5.219   0.544  1.1381 -0.6004  0.1752
 3676SOL    HW314471   1.176   5.073   0.538 -1.4924 -1.3646 -0.0442
 3676SOL    MW414472   1.128   5.137   0.573 -0.1113 -0.2989 -0.4361
 3677SOL     OW14473   5.238   2.753   1.976  0.1961 -0.3999  0.5251
 3677SOL    HW214474   5.314   2.788   1.929 -1.4372  0.6559 -1.4585
 3677SOL    HW314475   5.257   2.770   2.069  1.6242  1.3612 -0.0445
 3677SOL    MW414476   5.251   2.760   1.982  0.0880  0.0737  0.1603
 3678SOL     OW14477   1.843   2.673   5.383 -0.3095 -0.0874 -0.2622
 3678SOL    HW214478   1.921   2.703   5.430 -0.3373 -0.0961 -0.2102
 3678SOL    HW314479   1.790   2.631   5.450 -0.6635  0.4999 -0.1654
 3678SOL    MW414480   1.846   2.671   5.398  0.4444 -0.5060  0.2486
 3679SOL     OW14481   2.812   3.713   2.226  0.0448 -0.4894  0.1459
 3679SOL    HW214482   2.893   3.691   2.180 -0.9570 -2.1703 -0.9255
 3679SOL    HW314483   2.754   3.748   2.158  0.0831  1.4308  1.0363
 3679SOL    MW414484   2.815   3.714   2.211  0.6023 -0.0676 -0.0472
 3680SOL     OW14485   5.037   0.568   5.196 -0.2892 -0.2392 -0.0704
 3680SOL    HW214486   5.019   0.658   5.224 -0.9943 -1.0934  2.4420
 3680SOL    HW314487   4.956   0.538   5.155 -0.2204  0.0844 -0.4519
 3680SOL    MW414488   5.024   0.576   5.195  0.0645  0.0992 -0.1734
 3681SOL     OW14489   2.715   2.677   2.218 -0.2094  0.2751  0.2081
 3681SOL    HW214490   2.754   2.672   2.130  1.4724  0.6988  0.8849
 3681SOL    HW314491   2.646   2.611   2.217 -0.0654  0.1088 -1.3642
 3681SOL    MW414492   2.711   2.668   2.206  0.8379  0.1903 -0.7634
 3682SOL     OW14493   1.151   0.895   1.293 -0.1664 -0.0682 -0.0083
 3682SOL    HW214494   1.232   0.913   1.245 -0.0917 -0.9238 -0.2172
 3682SOL    HW314495   1.179   0.844   1.369 -0.2511  1.4678  1.1227
 3682SOL    MW414496   1.166   0.891   1.297  0.1500 -0.1354 -0.3964
 3683SOL     OW14497   5.398   6.312   2.929  0.7975  0.3639  0.2459
 3683SOL    HW214498   5.421   6.255   2.856 -0.8927 -1.7306  1.2076
 3683SOL    HW314499   5.479   6.358   2.951  1.7894 -0.3234 -1.7487
 3683SOL    MW414500   5.411   6.310   2.922 -0.3846  0.1278  0.0988
 3684SOL     OW14501   1.394   2.138   0.895  0.0633  0.6181 -0.4363
 3684SOL    HW214502   1.429   2.128   0.806 -1.6993  1.6078 -1.2975
 3684SOL    HW314503   1.300   2.151   0.882  0.1845  4.7438  1.1986
 3684SOL    MW414504   1.386   2.139   0.881 -0.6552 -0.7761 -0.1984
 3685SOL     OW14505   0.318   2.529   0.292  0.4663  1.2352 -0.2090
 3685SOL    HW214506   0.360   2.585   0.226  2.8639 -0.5379 -0.3355
 3685SOL    HW314507   0.355   2.559   0.375  1.5020  0.1708 -0.2463
 3685SOL    MW414508   0.329   2.540   0.294 -1.0930 -0.0185  0.0484
 3686SOL     OW14509   1.902   1.213   3.382 -0.3569  0.1025  0.3858
 3686SOL    HW214510   1.880   1.133   3.334  0.4450 -1.0599  1.8592
 3686SOL    HW314511   1.971   1.255   3.330 -0.8544 -0.0906 -0.4482
 3686SOL    MW414512   1.908   1.208   3.369 -0.3001  0.1506 -0.0638
 3687SOL     OW14513   1.278   0.221   2.826  0.0123  0.6342 -0.1481
 3687SOL    HW214514   1.331   0.300   2.815  0.4912  0.2917 -0.3499
 3687SOL    HW314515   1.188   0.250   2.813  0.1408  1.2403  0.2957
 3687SOL    MW414516   1.273   0.235   2.823 -0.6329 -0.1701 -0.0632
 3688SOL     OW14517   4.813   4.726   2.477 -0.1667 -0.1745  0.9392
 3688SOL    HW214518   4.889   4.780   2.453 -0.1395 -0.7910 -0.4656
 3688SOL    HW314519   4.740   4.788   2.483  0.2572  0.2924  1.3610
 3688SOL    MW414520   4.814   4.741   2.475  0.4232 -0.2165  0.0760
 3689SOL     OW14521   2.620   2.966   0.958  0.0246 -0.6311 -0.2561
 3689SOL    HW214522   2.635   3.045   1.009  0.6146 -1.6430  1.2407
 3689SOL    HW314523   2.562   2.992   0.887 -2.1739  0.5420  1.8534
 3689SOL    MW414524   2.614   2.980   0.955  0.0517 -0.6162 -0.4178
 3690SOL     OW14525   3.999   1.540   0.954 -0.0098  0.1162  0.4727
 3690SOL    HW214526   3.946   1.565   0.878  1.4214  1.9472  0.0122
 3690SOL    HW314527   4.030   1.452   0.934 -0.8839 -0.0196 -0.3519
 3690SOL    MW414528   3.996   1.532   0.941  0.0878 -0.1068  0.0695
 3691SOL     OW14529   0.270   1.856   1.552  0.0991 -0.3949  0.0208
 3691SOL    HW214530   0.214   1.842   1.628  1.4798 -0.2013  1.1136
 3691SOL    HW314531   0.220   1.917   1.497 -0.4202  0.4237  1.3456
 3691SOL    MW414532   0.256   1.862   1.555 -0.0446  0.0718  0.0709
 3692SOL     OW14533   5.145   5.013   5.110  0.0681 -0.2499 -0.0330
 3692SOL    HW214534   5.111   5.101   5.127 -0.2222 -0.2203 -0.7070
 3692SOL    HW314535   5.112   4.960   5.182 -1.5726 -0.2513 -0.7228
 3692SOL    MW414536   5.136   5.017   5.122  0.6796 -0.3698 -0.9062
 3693SOL     OW14537   3.874   3.985   6.429 -0.4781 -0.7562 -0.3435
 3693SOL    HW214538   3.919   3.969   6.346  2.5073  1.2104  0.7340
 3693SOL    HW314539   3.906   3.916   6.488  0.9629  0.3935  0.3015
 3693SOL    MW414540   3.884   3.974   6.426 -0.6263 -0.1727 -0.7734
 3694SOL     OW14541   3.029   0.193   0.467  0.2423 -0.0863 -0.5361
 3694SOL    HW214542   2.949   0.168   0.512  0.1992  0.2767 -0.4108
 3694SOL    HW314543   3.035   0.288   0.478  0.9878 -0.1809 -0.0560
 3694SOL    MW414544   3.019   0.202   0.474 -0.6637  0.1668  0.8223
 3695SOL     OW14545   3.198   3.960   0.208 -0.1148  0.1828 -0.0121
 3695SOL    HW214546   3.116   3.917   0.183 -0.0307  0.5897 -0.9982
 3695SOL    HW314547   3.171   4.050   0.231 -0.4342 -0.5542  2.9227
 3695SOL    MW414548   3.183   3.967   0.208  0.0869  0.1494  0.0257
 3696SOL     OW14549   2.521   1.052   5.141  0.6635 -0.3582 -0.2533
 3696SOL    HW214550   2.466   1.081   5.068  1.1976  0.8538 -0.1999
 3696SOL    HW314551   2.609   1.045   5.104  0.8380 -0.2796  0.1427
 3696SOL    MW414552   2.525   1.055   5.126 -0.3715  0.4633 -0.0261
 3697SOL     OW14553   6.098   3.940   5.732 -0.3722 -0.4024  0.4506
 3697SOL    HW214554   6.187   3.924   5.764  0.7184 -0.6740 -2.3757
 3697SOL    HW314555   6.043   3.879   5.780  1.3158 -1.6893  0.8353
 3697SOL    MW414556   6.103   3.930   5.742 -0.1099 -0.6022 -0.0895
 3698SOL     OW14557   5.739   3.489   3.006 -0.3007  0.2410 -0.2159
 3698SOL    HW214558   5.691   3.451   2.932  0.5770 -0.8188 -0.2696
 3698SOL    HW314559   5.672   3.529   3.061 -1.1275 -0.3242 -0.7913
 3698SOL    MW414560   5.724   3.489   3.003  0.3564 -0.3745 -0.3773
 3699SOL     OW14561   4.233   0.654   2.281 -0.1873  0.0074 -0.7478
 3699SOL    HW214562   4.256   0.602   2.204  0.1595  0.9644 -1.3079
 3699SOL    HW314563   4.157   0.705   2.252 -0.9561 -0.6774  0.0176
 3699SOL    MW414564   4.226   0.654   2.267  0.4394  0.1510 -0.1693
 3700SOL     OW14565   3.031   5.393   1.218  0.2678  0.2276  0.3125
 3700SOL    HW214566   2.956   5.446   1.192  0.5546  0.5958  0.2206
 3700SOL    HW314567   3.077   5.374   1.136  0.1758 -0.1547  0.3456
 3700SOL    MW414568   3.027   5.397   1.204  0.2577 -0.1970  0.9071
 3701SOL     OW14569   5.718   4.049   1.075  0.4911 -0.7080 -0.0943
 3701SOL    HW214570   5.803   4.040   1.118 -0.1571 -0.8363  1.2082
 3701SOL    HW314571   5.699   4.143   1.076  0.7030 -0.6582 -0.5661
 3701SOL    MW414572   5.726   4.060   1.081 -0.3334 -0.0585  0.8085
 3702SOL     OW14573   4.898   6.023   2.992 -0.1173  0.4845  0.4441
 3702SOL    HW214574   4.884   6.116   3.013  1.2923  1.4284 -2.3255
 3702SOL    HW314575   4.935   5.986   3.073  0.1791  2.5551  1.3224
 3702SOL    MW414576   4.901   6.030   3.006 -0.3033 -0.4288 -0.1335
 3703SOL     OW14577   0.768   1.364   6.209 -0.9995 -0.7251  0.5077
 3703SOL    HW214578   0.743   1.325   6.293  0.1266 -1.4246  0.5290
 3703SOL    HW314579   0.759   1.292   6.146  0.5220 -0.8868  0.4471
 3703SOL    MW414580   0.763   1.349   6.212  0.1039  0.2209  0.1168
 3704SOL     OW14581   4.194   5.869   6.351  0.5190 -0.1775 -0.0574
 3704SOL    HW214582   4.182   5.823   6.434 -1.4517  1.5033  0.7059
 3704SOL    HW314583   4.288   5.883   6.344  1.0918 -3.4024  0.0940
 3704SOL    MW414584   4.205   5.865   6.361  0.3420  0.8925 -0.1900
 3705SOL     OW14585   5.649   2.250   2.548 -0.2207  0.0695  0.1989
 3705SOL    HW214586   5.633   2.290   2.633  2.8283  1.1679  0.3508
 3705SOL    HW314587   5.644   2.156   2.565 -0.5540  0.2806  1.3816
 3705SOL    MW414588   5.646   2.243   2.561 -0.2426 -0.1284 -0.0967
 3706SOL     OW14589   0.371   4.305   6.277  0.3939  0.0679 -0.1258
 3706SOL    HW214590   0.320   4.238   6.233 -1.7493  0.8684  0.9557
 3706SOL    HW314591   0.386   4.372   6.211  3.0507 -1.5812 -1.3782
 3706SOL    MW414592   0.366   4.305   6.263 -0.1576  0.8377  0.1701
 3707SOL     OW14593   0.315   5.489   2.575 -0.4082 -1.0296  0.6601
 3707SOL    HW214594   0.315   5.457   2.485 -0.4223 -0.1177  0.3278
 3707SOL    HW314595   0.228   5.467   2.608 -1.7071  1.6587 -0.6843
 3707SOL    MW414596   0.303   5.482   2.567 -0.2365  0.6679 -0.1962
 3708SOL     OW14597   1.177   2.654   4.977  0.1032  0.3109  0.2998
 3708SOL    HW214598   1.233   2.576   4.971  0.2778  0.2932  1.7479
 3708SOL    HW314599   1.229   2.724   4.938  0.5709  0.0019  0.3550
 3708SOL    MW414600   1.191   2.653   4.971  0.4652 -0.2808  0.2138
 3709SOL     OW14601   4.079   2.269   5.815  0.8527 -0.7811  0.3623
 3709SOL    HW214602   4.087   2.345   5.873 -0.8295 -0.0211 -0.3418
 3709SOL    HW314603   4.153   2.277   5.754  0.9496  0.0367  0.5818
 3709SOL    MW414604   4.090   2.280   5.814 -0.6223 -0.0968  0.3087
 3710SOL     OW14605   1.940   3.461   3.027  0.4727 -0.1367  0.3313
 3710SOL    HW214606   1.917   3.544   2.987  1.5152 -0.0376 -0.0764
 3710SOL    HW314607   1.949   3.400   2.954  0.7861 -0.3458  0.5396
 3710SOL    MW414608   1.938   3.464   3.012 -0.2607 -0.3182  0.4285
 3711SOL     OW14609   2.743   1.553   0.977 -0.2965 -0.2541  0.2204
 3711SOL    HW214610   2.696   1.635   0.990  1.1436  0.4248  1.4199
 3711SOL    HW314611   2.777   1.531   1.064  1.6279 -0.6744 -0.5960
 3711SOL    MW414612   2.741   1.561   0.991  0.1293 -0.5401 -0.3460
 3712SOL     OW14613   0.340   3.347   3.304  0.2014 -0.4367  0.3907
 3712SOL    HW214614   0.313   3.439   3.313  0.8999 -0.2582  0.7412
 3712SOL    HW314615   0.316   3.307   3.388  0.9200 -0.3016  0.6647
 3712SOL    MW414616   0.333   3.354   3.316  0.1041  0.3404  0.4538
 3713SOL     OW14617   4.886   5.132   6.208 -0.5482  0.0652 -0.3440
 3713SOL    HW214618   4.960   5.073   6.219  1.7324  2.2858 -2.4139
 3713SOL    HW314619   4.872   5.171   6.294  0.6133 -0.4909  0.1068
 3713SOL    MW414620   4.894   5.129   6.220  0.4216  0.4288  0.2853
 3714SOL     OW14621   3.111   2.996   0.681 -0.1617  0.2243  0.4206
 3714SOL    HW214622   3.023   3.010   0.648 -0.3199 -1.8101 -0.1589
 3714SOL    HW314623   3.099   2.954   0.766  0.2359  0.0162  0.3809
 3714SOL    MW414624   3.098   2.992   0.688  0.2431 -0.5264 -0.4012
 3715SOL     OW14625   1.015   0.047   2.368 -0.2924  0.4461  0.0323
 3715SOL    HW214626   1.090  -0.011   2.364 -1.1633 -0.6879 -0.4354
 3715SOL    HW314627   1.042   0.117   2.428  1.3379  0.4014 -0.6025
 3715SOL    MW414628   1.028   0.049   2.376  0.7361 -0.3429  0.0053
 3716SOL     OW14629   4.268   4.569   0.919 -0.3487 -0.0141  0.1605
 3716SOL    HW214630   4.296   4.523   0.998 -0.4523 -1.4934 -0.6115
 3716SOL    HW314631   4.242   4.498   0.859 -0.1883  1.0510 -1.2193
 3716SOL    MW414632   4.269   4.553   0.921  0.1766 -0.3994 -0.0757
 3717SOL     OW14633   4.479   3.538   0.279 -0.5151  0.2245 -0.5143
 3717SOL    HW214634   4.396   3.568   0.242 -1.1576 -1.9397 -1.0069
 3717SOL    HW314635   4.520   3.488   0.207  1.4593  1.6353 -0.4348
 3717SOL    MW414636   4.473   3.535   0.264 -0.0804  0.4415  0.0329
 3718SOL     OW14637   1.599   2.318   1.019 -0.3394 -0.1577  0.3138
 3718SOL    HW214638   1.509   2.305   0.990 -0.4916  0.7586  0.3379
 3718SOL    HW314639   1.629   2.395   0.971 -0.4317  1.1010  2.1446
 3718SOL    MW414640   1.591   2.326   1.009 -0.3389  0.5005  0.1208
 3719SOL     OW14641   5.499   5.612   3.971 -0.4746 -0.5888  0.0699
 3719SOL    HW214642   5.548   5.660   3.904 -0.7149 -1.2279 -0.5703
 3719SOL    HW314643   5.437   5.559   3.922 -2.0194  0.4036  0.8720
 3719SOL    MW414644   5.497   5.612   3.956 -0.0845  0.8588 -0.2904
 3720SOL     OW14645   1.525   3.848   1.164 -0.0648  0.4972  0.0774
 3720SOL    HW214646   1.565   3.795   1.232  0.4431  0.3513 -0.3307
 3720SOL    HW314647   1.433   3.857   1.191  0.3641  1.3589  1.3276
 3720SOL    MW414648   1.518   3.842   1.176 -0.1313 -0.2403 -0.5643
 3721SOL     OW14649   1.745   2.171   2.243  0.2149 -0.5966  0.5009
 3721SOL    HW214650   1.748   2.195   2.150  1.2597  0.0981  0.6977
 3721SOL    HW314651   1.738   2.076   2.243 -0.1824 -0.5823 -0.2846
 3721SOL    MW414652   1.744   2.162   2.231  0.7796  0.1440  0.4494
 3722SOL     OW14653   0.584   0.295   6.104  0.3640 -0.2380  0.4472
 3722SOL    HW214654   0.556   0.382   6.132  1.3766 -0.0496  0.9125
 3722SOL    HW314655   0.621   0.255   6.183 -0.4167 -1.2245  0.3173
 3722SOL    MW414656   0.586   0.302   6.118 -0.7810  1.4370  0.7754
 3723SOL     OW14657   6.343   3.858   5.868  0.1574 -0.2286  0.1777
 3723SOL    HW214658   6.414   3.820   5.816 -0.3449 -0.8199 -0.0856
 3723SOL    HW314659   6.308   3.785   5.919 -0.9804 -0.2015 -0.5245
 3723SOL    MW414660   6.347   3.844   5.868  0.0640 -0.6130  0.2723
 3724SOL     OW14661   3.425   1.586   2.011  0.2641 -0.0506  0.2848
 3724SOL    HW214662   3.414   1.677   1.986  0.9540  0.4164  1.5658
 3724SOL    HW314663   3.386   1.581   2.099  2.8913 -0.2190  1.5495
 3724SOL    MW414664   3.418   1.597   2.020 -0.5707 -0.8093  0.2865
 3725SOL     OW14665   3.152   4.522   1.692 -0.0829  0.4827  0.1272
 3725SOL    HW214666   3.156   4.475   1.775 -1.1621  2.1133  1.1529
 3725SOL    HW314667   3.243   4.547   1.674  0.0094  1.1856  1.4851
 3725SOL    MW414668   3.165   4.519   1.700 -0.0071  0.3312  0.3528
 3726SOL     OW14669   4.683   3.922   0.550 -0.4206 -0.8619  0.4042
 3726SOL    HW214670   4.715   3.836   0.578 -1.9458 -0.7931  2.5781
 3726SOL    HW314671   4.640   3.906   0.467  3.0292 -1.3537 -1.4836
 3726SOL    MW414672   4.682   3.909   0.543 -0.3616  0.8966 -0.2040
 3727SOL     OW14673   1.086   2.599   1.794 -0.0818 -0.4881  0.6153
 3727SOL    HW214674   1.094   2.551   1.711  0.2613 -0.2756  0.5242
 3727SOL    HW314675   1.011   2.559   1.837  0.8728 -1.8807  1.0532
 3727SOL    MW414676   1.077   2.587   1.788 -0.4067  0.0086  0.3231
 3728SOL     OW14677   2.524   3.071   3.893  0.1735  0.4823  0.7756
 3728SOL    HW214678   2.574   3.101   3.817 -1.6883  2.2027  0.1325
 3728SOL    HW314679   2.457   3.014   3.855  0.5746 -0.4343  1.4153
 3728SOL    MW414680   2.521   3.067   3.878 -0.0355 -0.0627 -0.5898
 3729SOL     OW14681   0.536   4.762   3.251 -0.2267 -0.1473  0.6168
 3729SOL    HW214682   0.552   4.669   3.234 -1.2366  0.0699 -1.8946
 3729SOL    HW314683   0.623   4.802   3.249  0.0869 -0.8255  0.2949
 3729SOL    MW414684   0.549   4.755   3.249 -0.2387  0.4673  0.4747
 3730SOL     OW14685   4.127   1.871   0.874  0.4258  0.4176 -0.0732
 3730SOL    HW214686   4.210   1.918   0.866  0.9628 -0.4693  0.1827
 3730SOL    HW314687   4.132   1.825   0.958 -0.0584 -0.1348 -0.3326
 3730SOL    MW414688   4.138   1.871   0.884  0.2010  0.1285 -0.5219
 3731SOL     OW14689   3.149   5.001   5.224 -0.4235  0.2006  0.2311
 3731SOL    HW214690   3.218   5.067   5.218 -0.2953  0.0289 -0.2266
 3731SOL    HW314691   3.171   4.937   5.157 -0.4055 -0.4482  0.8385
 3731SOL    MW414692   3.161   5.001   5.215  0.1861  0.3400  0.3883
 3732SOL     OW14693   4.130   3.138   4.782 -0.0483 -0.1144 -0.7687
 3732SOL    HW214694   4.169   3.224   4.792 -0.1875 -0.1925  0.7503
 3732SOL    HW314695   4.107   3.132   4.689 -0.6413  1.7413 -0.7764
 3732SOL    MW414696   4.132   3.149   4.771  0.1267  0.1249  0.6795
 3733SOL     OW14697   2.016   1.388   0.149  0.5631  0.6625 -0.0663
 3733SOL    HW214698   1.997   1.441   0.071 -0.8204  0.6104  0.2079
 3733SOL    HW314699   1.950   1.320   0.148  0.4091  0.7735  1.2544
 3733SOL    MW414700   2.005   1.386   0.139  0.2760  0.3573  0.3262
 3734SOL     OW14701   1.479   2.072   0.146 -0.8032  0.2536 -0.6963
 3734SOL    HW214702   1.506   2.155   0.186 -0.8599 -0.1071  0.1086
 3734SOL    HW314703   1.560   2.034   0.113  0.1330 -1.5774  3.0894
 3734SOL    MW414704   1.494   2.078   0.147  0.1853 -0.1583  0.1683
 3735SOL     OW14705   1.435   3.651   6.433 -0.3248 -0.8231 -0.2673
 3735SOL    HW214706   1.478   3.718   6.485 -0.9432 -0.9873  0.4649
 3735SOL    HW314707   1.468   3.568   6.468  0.6119 -0.9237 -1.3160
 3735SOL    MW414708   1.445   3.649   6.444  0.0980 -0.2321 -0.3849
 3736SOL     OW14709   4.908   1.559   3.768 -0.6304  0.0322  0.2933
 3736SOL    HW214710   4.950   1.491   3.715 -1.8506 -0.5155 -0.0114
 3736SOL    HW314711   4.974   1.582   3.834  0.7642  0.4288 -1.1830
 3736SOL    MW414712   4.922   1.553   3.770 -0.3106  0.4438  0.2526
 3737SOL     OW14713   1.363   3.337   2.923  0.2658 -0.6087 -0.0459
 3737SOL    HW214714   1.290   3.330   2.862 -0.2580 -0.7402  0.5891
 3737SOL    HW314715   1.391   3.246   2.937  0.8028 -0.5337 -0.5766
 3737SOL    MW414716   1.357   3.324   2.916  0.0228  0.2013 -0.1633
 3738SOL     OW14717   5.769   2.118   3.580  0.5085  0.1120  0.3021
 3738SOL    HW214718   5.741   2.111   3.671  1.0313 -1.3263  0.3768
 3738SOL    HW314719   5.828   2.044   3.567 -2.8355 -2.3956 -2.4055
 3738SOL    MW414720   5.773   2.107   3.590  0.0041  0.1949  0.0129
 3739SOL     OW14721   2.124   3.613   0.929  0.0548 -0.5195 -0.5660
 3739SOL    HW214722   2.116   3.699   0.970  1.3867 -1.0843  1.0237
 3739SOL    HW314723   2.035   3.591   0.901 -0.5351  0.8249  0.1800
 3739SOL    MW414724   2.111   3.621   0.931  0.1918  0.2872 -0.0996
 3740SOL     OW14725   4.104   0.620   5.557 -0.5423  0.0579 -0.1076
 3740SOL    HW214726   4.092   0.700   5.507 -1.9868 -0.1390 -0.1112
 3740SOL    HW314727   4.199   0.605   5.556 -0.2692  1.6379 -0.2783
 3740SOL    MW414728   4.115   0.629   5.551  0.4698  0.0661  0.2397
 3741SOL     OW14729   2.786   4.983   5.953 -0.1136 -0.1332  0.0064
 3741SOL    HW214730   2.795   4.890   5.935  2.3554 -0.0048  0.2239
 3741SOL    HW314731   2.795   4.991   6.048 -2.5809  0.1812  0.2898
 3741SOL    MW414732   2.788   4.972   5.963  0.4761 -0.1141  0.3084
 3742SOL     OW14733   1.913   2.213   2.676 -0.3720 -0.4056  0.3339
 3742SOL    HW214734   1.984   2.149   2.685  1.0667  1.2209  1.1359
 3742SOL    HW314735   1.835   2.167   2.707  0.8172 -1.4107  2.0032
 3742SOL    MW414736   1.912   2.198   2.681 -0.0153 -0.0315  0.2963
 3743SOL     OW14737   2.395   3.914   1.068 -0.2049  0.1555  0.4304
 3743SOL    HW214738   2.478   3.909   1.117 -0.2216  0.6858  0.5255
 3743SOL    HW314739   2.400   3.843   1.004  0.4798  0.4009  0.2021
 3743SOL    MW414740   2.407   3.904   1.066 -0.3138 -0.3852 -0.0029
 3744SOL     OW14741   4.681   3.345   3.625 -0.0331 -0.1056  0.0289
 3744SOL    HW214742   4.608   3.403   3.648  0.6037  0.3221  1.0420
 3744SOL    HW314743   4.759   3.401   3.632  0.5985 -1.0955  1.0598
 3744SOL    MW414744   4.682   3.360   3.629 -0.1397 -0.5893 -0.9544
 3745SOL     OW14745   1.791   5.663   0.313  0.4954 -0.2916 -0.0733
 3745SOL    HW214746   1.855   5.735   0.316 -0.9485  1.0173  2.5758
 3745SOL    HW314747   1.833   5.596   0.260  3.2141  1.2928 -0.1049
 3745SOL    MW414748   1.805   5.664   0.306 -0.2410  0.0457  0.3182
 3746SOL     OW14749   2.461   5.470   2.357  0.1510  0.0480  0.7357
 3746SOL    HW214750   2.456   5.412   2.433 -0.9129 -2.4614 -1.0752
 3746SOL    HW314751   2.554   5.473   2.335  0.2381 -1.0096  0.8953
 3746SOL    MW414752   2.472   5.463   2.364 -0.1587  0.4198 -0.1428
 3747SOL     OW14753   6.326   2.554   3.523 -0.2934 -0.3869 -0.4799
 3747SOL    HW214754   6.311   2.599   3.606 -0.2390  0.3148 -0.8447
 3747SOL    HW314755   6.367   2.620   3.466 -1.5824 -0.4176 -1.5105
 3747SOL    MW414756   6.330   2.569   3.526  0.2584  0.8077  0.3215
 3748SOL     OW14757   5.185   5.310   3.478 -0.1639 -0.8522  0.6565
 3748SOL    HW214758   5.132   5.240   3.440  0.4064 -0.3002 -1.2511
 3748SOL    HW314759   5.266   5.310   3.428  0.7148 -0.1848  2.0194
 3748SOL    MW414760   5.188   5.301   3.467  0.0747 -0.4352 -0.2310
 3749SOL     OW14761   4.199   1.868   3.277 -0.1297 -0.2579  0.2319
 3749SOL    HW214762   4.118   1.849   3.230  0.2474  0.7871 -0.9058
 3749SOL    HW314763   4.181   1.844   3.367 -0.5582 -3.2830 -0.5734
 3749SOL    MW414764   4.186   1.863   3.283  0.1781 -0.2211  0.5755
 3750SOL     OW14765   3.029   4.946   4.454 -0.2595 -0.1303 -0.0769
 3750SOL    HW214766   3.064   5.029   4.486  0.7658 -0.3356 -0.6505
 3750SOL    HW314767   2.940   4.944   4.488 -0.2949  1.1897 -0.0286
 3750SOL    MW414768   3.022   4.956   4.463  0.1204  0.2385 -0.0793
 3751SOL     OW14769   6.350   0.880   4.124 -0.4345  0.1975 -0.1013
 3751SOL    HW214770   6.420   0.835   4.172 -2.7672 -2.4032  1.2057
 3751SOL    HW314771   6.316   0.944   4.187 -0.1746  0.4191 -0.1868
 3751SOL    MW414772   6.355   0.883   4.139 -0.4393 -0.2021  0.6778
 3752SOL     OW14773   2.603   5.323   3.703  0.2524 -0.4732 -0.0643
 3752SOL    HW214774   2.529   5.376   3.676  1.0187  1.2224  0.9879
 3752SOL    HW314775   2.624   5.354   3.791  0.7725 -2.5261  0.6119
 3752SOL    MW414776   2.596   5.334   3.711 -0.7126  0.1473 -1.0541
 3753SOL     OW14777   5.386   3.392   0.877  1.1062 -0.5674 -0.3137
 3753SOL    HW214778   5.434   3.378   0.795  0.7371 -0.0760 -0.6208
 3753SOL    HW314779   5.320   3.322   0.878  0.9636 -0.4401 -0.5536
 3753SOL    MW414780   5.383   3.381   0.866  0.3187 -0.3121  0.0873
 3754SOL     OW14781   2.696   6.259   5.042 -0.6072 -0.2204 -0.1858
 3754SOL    HW214782   2.689   6.176   5.089  1.8006  0.0808  0.8482
 3754SOL    HW314783   2.788   6.283   5.048 -0.5324  0.8556 -3.4089
 3754SOL    MW414784   2.707   6.251   5.049 -0.2079  0.0371  0.2789
 3755SOL     OW14785   1.841   3.650   6.327  0.4598  0.5607  0.1296
 3755SOL    HW214786   1.820   3.636   6.235  1.6333  1.4529 -0.3047
 3755SOL    HW314787   1.809   3.572   6.371 -0.0295  0.0724 -1.0540
 3755SOL    MW414788   1.834   3.638   6.320 -0.5783  0.3750 -0.1455
 3756SOL     OW14789   3.336   0.729   3.964 -0.0301  0.2991  0.4953
 3756SOL    HW214790   3.265   0.698   3.908 -2.0404  1.2454  2.3771
 3756SOL    HW314791   3.355   0.817   3.933 -1.7184  1.1456  1.7073
 3756SOL    MW414792   3.329   0.736   3.953  0.0813  0.4970 -0.0350
 3757SOL     OW14793   3.052   4.841   4.770  0.7019 -0.2603  0.5757
 3757SOL    HW214794   3.092   4.883   4.694 -0.8580  0.2740  0.0210
 3757SOL    HW314795   3.040   4.750   4.744 -1.5292  0.3053 -0.5805
 3757SOL    MW414796   3.056   4.835   4.757 -0.0516  0.0233  0.1575
 3758SOL     OW14797   6.076   2.389   5.986  0.1054  0.2284  0.2196
 3758SOL    HW214798   6.050   2.321   5.924  0.3860  0.2099  0.1240
 3758SOL    HW314799   6.168   2.405   5.968  0.6054 -0.8806  1.6766
 3758SOL    MW414800   6.084   2.382   5.975  0.2630  0.5349  0.7237
 3759SOL     OW14801   5.037   4.245   1.201  0.2452  0.2457 -0.1450
 3759SOL    HW214802   5.115   4.294   1.226  0.6270  0.5380 -1.7604
 3759SOL    HW314803   5.071   4.163   1.164 -0.2042  0.3222 -0.7489
 3759SOL    MW414804   5.052   4.240   1.199  0.2970 -0.4058  0.1068
 3760SOL     OW14805   5.085   5.261   0.768  0.2684 -0.5423  0.3134
 3760SOL    HW214806   5.153   5.327   0.752  0.5987 -0.6799  1.0676
 3760SOL    HW314807   5.024   5.271   0.695  0.8793 -0.1318 -0.1591
 3760SOL    MW414808   5.086   5.271   0.756 -0.1751  0.0480 -0.1451
 3761SOL     OW14809   2.795   3.854   4.255 -0.6984  0.4058  0.0758
 3761SOL    HW214810   2.734   3.894   4.316 -0.6205 -1.1246  1.2117
 3761SOL    HW314811   2.760   3.875   4.168 -2.4131  0.2310  0.6824
 3761SOL    MW414812   2.783   3.862   4.251 -0.1619 -0.3240  0.0225
 3762SOL     OW14813   0.774   5.716   3.075  0.0627  0.0736  0.2352
 3762SOL    HW214814   0.691   5.679   3.047 -0.2372  1.3602 -0.6746
 3762SOL    HW314815   0.839   5.678   3.017 -0.1304  0.3551 -0.1679
 3762SOL    MW414816   0.771   5.706   3.064  0.6712  0.1230  0.4482
 3763SOL     OW14817   0.271   3.851   5.258  0.1058 -0.5368 -0.2774
 3763SOL    HW214818   0.218   3.778   5.287  1.2393 -1.1058  0.4180
 3763SOL    HW314819   0.315   3.882   5.337 -0.1068  0.7078 -0.6162
 3763SOL    MW414820   0.270   3.846   5.272 -0.0331  0.7961  0.1037
 3764SOL     OW14821   0.164   4.192   5.900  0.1440 -0.1897 -0.6361
 3764SOL    HW214822   0.156   4.130   5.828 -1.0367  0.7516 -1.3601
 3764SOL    HW314823   0.112   4.268   5.872  0.9246  0.8226  0.5386
 3764SOL    MW414824   0.156   4.194   5.887  0.9445  0.4340  0.5135
 3765SOL     OW14825   1.595   0.691   4.072 -0.4000 -0.0290 -0.0919
 3765SOL    HW214826   1.690   0.702   4.067 -0.4009 -0.2450 -0.7623
 3765SOL    HW314827   1.566   0.753   4.139  0.0058  1.3827 -1.1853
 3765SOL    MW414828   1.603   0.701   4.080  0.4360  0.2926 -0.5110
 3766SOL     OW14829   0.722   2.379   6.077  0.4274  0.4722  0.2585
 3766SOL    HW214830   0.776   2.455   6.095 -0.0621  0.9283 -0.1566
 3766SOL    HW314831   0.633   2.414   6.069  0.1807 -0.1564  0.1738
 3766SOL    MW414832   0.717   2.393   6.078 -0.1575 -0.5078  0.0075
 3767SOL     OW14833   2.703   3.200   4.062 -0.0100  0.2899  0.0507
 3767SOL    HW214834   2.676   3.290   4.078  0.6720  0.6039 -0.5292
 3767SOL    HW314835   2.627   3.159   4.020  0.1730  0.9968 -1.0147
 3767SOL    MW414836   2.689   3.206   4.058 -0.3636 -0.0543  0.6378
 3768SOL     OW14837   4.140   2.619   6.239  0.1762 -0.3108  0.0171
 3768SOL    HW214838   4.180   2.545   6.283 -1.1272 -0.6474  0.6917
 3768SOL    HW314839   4.066   2.644   6.295 -0.5335  0.2962 -1.1295
 3768SOL    MW414840   4.135   2.613   6.252 -0.3595 -0.5229 -0.3838
 3769SOL     OW14841   6.331   0.236   1.949 -0.1528 -0.3899 -0.0026
 3769SOL    HW214842   6.361   0.190   1.870 -0.0655 -1.6018  0.7035
 3769SOL    HW314843   6.409   0.278   1.983 -0.5442  1.7459 -1.5472
 3769SOL    MW414844   6.345   0.235   1.943  0.0846 -0.2908  0.9993
 3770SOL     OW14845   2.881   5.367   6.160 -1.0003 -0.3389  0.0500
 3770SOL    HW214846   2.929   5.326   6.232 -0.3283 -0.3172 -0.3788
 3770SOL    HW314847   2.892   5.306   6.087  0.0637  0.6069 -0.6149
 3770SOL    MW414848   2.889   5.353   6.160 -0.0538  0.4630 -0.9722
 3771SOL     OW14849   2.549   0.551   3.953  0.3727  0.5626  0.3956
 3771SOL    HW214850   2.577   0.634   3.913 -2.6164  2.0896  1.2213
 3771SOL    HW314851   2.586   0.553   4.041  0.8657  0.6821  0.1900
 3771SOL    MW414852   2.558   0.562   3.959  0.6483  0.3952  0.1372
 3772SOL     OW14853   6.219   5.358   2.710  0.3097  0.3718  0.0220
 3772SOL    HW214854   6.192   5.267   2.699  2.1185 -0.0942 -1.0130
 3772SOL    HW314855   6.227   5.369   2.805  3.4612 -1.7252  0.1772
 3772SOL    MW414856   6.217   5.347   2.721 -0.5247  0.4468  0.6979
 3773SOL     OW14857   1.007   3.157   0.740  0.0115  0.3398  0.3880
 3773SOL    HW214858   1.000   3.217   0.666 -0.6235  0.2718  0.3822
 3773SOL    HW314859   1.082   3.102   0.720  0.3218  0.8356  0.1777
 3773SOL    MW414860   1.016   3.158   0.728  0.1398  0.4320  0.4306
 3774SOL     OW14861   5.145   4.326   1.549 -0.6107  0.4445  0.4579
 3774SOL    HW214862   5.062   4.279   1.540 -0.2272 -0.1222 -0.2242
 3774SOL    HW314863   5.177   4.300   1.635 -0.8810  0.2403  0.5000
 3774SOL    MW414864   5.138   4.317   1.559  0.2823  0.1959  0.2593
 3775SOL     OW14865   3.850   4.736   5.495 -0.0850 -0.2889 -0.2785
 3775SOL    HW214866   3.855   4.777   5.581  1.5131 -0.8315 -0.0905
 3775SOL    HW314867   3.767   4.689   5.496 -1.5795  2.1624 -0.1858
 3775SOL    MW414868   3.840   4.736   5.506 -0.0962 -0.0994  0.3849
 3776SOL     OW14869   6.254   3.722   2.635 -0.8360 -0.9018 -0.2555
 3776SOL    HW214870   6.198   3.646   2.622 -0.3170 -0.8051 -4.2727
 3776SOL    HW314871   6.233   3.780   2.561  1.3977  1.1540  0.5956
 3776SOL    MW414872   6.244   3.720   2.623  0.0965  0.0235  0.5582
 3777SOL     OW14873   3.699   0.940   3.164  0.5359  0.1319  0.3672
 3777SOL    HW214874   3.748   1.006   3.116 -0.7448  1.0044  0.1921
 3777SOL    HW314875   3.687   0.869   3.101  0.3317  0.5381 -0.0614
 3777SOL    MW414876   3.704   0.940   3.149 -0.0642 -0.6105 -0.5753
 3778SOL     OW14877   6.076   5.871   2.677 -0.7815  0.0901  0.4709
 3778SOL    HW214878   5.991   5.882   2.635 -0.8359 -1.3097  0.1745
 3778SOL    HW314879   6.085   5.777   2.690  0.8653  0.1691  0.1821
 3778SOL    MW414880   6.066   5.860   2.673  0.7807 -0.2029 -0.5998
 3779SOL     OW14881   1.100   3.700   0.626  0.1808 -0.0725 -0.3919
 3779SOL    HW214882   1.024   3.718   0.570 -0.4465 -2.2410 -0.3556
 3779SOL    HW314883   1.061   3.674   0.710  1.0100  0.0793  0.0464
 3779SOL    MW414884   1.085   3.699   0.630  0.0448  0.1289 -0.0304
 3780SOL     OW14885   5.407   0.789   0.243  0.6536 -0.2786 -0.0100
 3780SOL    HW214886   5.359   0.736   0.307  0.9291  0.1160  0.5290
 3780SOL    HW314887   5.451   0.725   0.187  0.5039 -0.6245  0.2611
 3780SOL    MW414888   5.406   0.773   0.244 -0.5985  0.6974 -0.5350
 3781SOL     OW14889   2.061   0.107   1.916  0.2431  0.1432  0.2221
 3781SOL    HW214890   2.046   0.150   2.000 -4.7958 -0.0147 -0.2532
 3781SOL    HW314891   2.057   0.013   1.936  2.7345 -0.0251  0.1723
 3781SOL    MW414892   2.058   0.100   1.930 -0.4807 -0.0429 -0.2422
 3782SOL     OW14893   1.635   2.267   4.204 -0.5246  0.0326  0.3823
 3782SOL    HW214894   1.603   2.179   4.226 -0.6056  0.0056  0.1573
 3782SOL    HW314895   1.700   2.252   4.135  0.7483 -0.0118  1.5594
 3782SOL    MW414896   1.639   2.253   4.198  0.2983  0.4466 -0.5802
 3783SOL     OW14897   4.070   5.886   4.730 -0.4218  0.2920  0.9476
 3783SOL    HW214898   4.140   5.930   4.778 -0.4411  2.5077 -0.8425
 3783SOL    HW314899   4.089   5.793   4.737  2.0405  0.7812  1.4739
 3783SOL    MW414900   4.081   5.880   4.737  0.4325  0.3379 -0.0734
 3784SOL     OW14901   1.395   1.338   2.622 -0.4104  0.0872 -0.4455
 3784SOL    HW214902   1.447   1.347   2.701  0.8048  0.1349 -1.2209
 3784SOL    HW314903   1.374   1.245   2.617  1.4305 -0.3290 -1.2044
 3784SOL    MW414904   1.399   1.327   2.632  0.3469 -0.3564 -0.7732
 3785SOL     OW14905   2.997   1.860   3.283  0.6703  0.0342 -0.1016
 3785SOL    HW214906   2.915   1.844   3.330  0.7436 -0.5296 -0.1532
 3785SOL    HW314907   3.050   1.783   3.302  1.1882  0.3952 -0.0774
 3785SOL    MW414908   2.993   1.848   3.292  0.3364 -0.4072  0.2380
 3786SOL     OW14909   0.608   0.963   0.485  0.4523 -0.0661 -0.3467
 3786SOL    HW214910   0.622   1.028   0.416  0.3525 -0.3938 -0.6801
 3786SOL    HW314911   0.631   1.008   0.566  0.1385  0.4598 -0.5523
 3786SOL    MW414912   0.613   0.977   0.486  0.3908  0.1203 -0.1310
 3787SOL     OW14913   4.544   0.796   4.739 -0.2486  0.0813 -0.1530
 3787SOL    HW214914   4.625   0.749   4.720  1.4594  3.4904 -2.1738
 3787SOL    HW314915   4.565   0.853   4.812 -1.2814  0.0271  0.2088
 3787SOL    MW414916   4.557   0.797   4.746 -0.4264 -0.2939 -0.0134
 3788SOL     OW14917   1.977   5.123   5.714  0.2446 -0.3887 -0.0065
 3788SOL    HW214918   1.992   5.121   5.808 -1.0666 -0.0146  0.2454
 3788SOL    HW314919   1.935   5.039   5.694 -1.2357  0.2925  0.1107
 3788SOL    MW414920   1.973   5.112   5.724  0.0253 -0.1798 -0.2684
 3789SOL     OW14921   1.439   1.762   0.031 -0.0850 -0.3959  0.2740
 3789SOL    HW214922   1.380   1.793   0.100  0.1621  0.1157  0.2569
 3789SOL    HW314923   1.482   1.841  -0.001 -1.5109 -0.3382 -1.7232
 3789SOL    MW414924   1.437   1.777   0.036  0.3051  0.2756 -0.0481
 3790SOL     OW14925   2.587   0.987   3.927  0.2341  0.3583  0.4244
 3790SOL    HW214926   2.500   1.006   3.963  0.4773 -1.1540  1.8804
 3790SOL    HW314927   2.573   0.911   3.871  0.2942  1.3401 -1.0114
 3790SOL    MW414928   2.574   0.980   3.924  0.4322 -0.0580  0.0479
 3791SOL     OW14929   5.407   5.285   3.284  0.2639  0.5856  0.5720
 3791SOL    HW214930   5.356   5.219   3.237 -0.7300  1.3802  0.4999
 3791SOL    HW314931   5.488   5.294   3.233  0.1614 -0.1641  0.2701
 3791SOL    MW414932   5.411   5.278   3.271 -0.3205 -0.1298 -0.3795
 3792SOL     OW14933   1.824   1.685   4.430  0.0618  0.0934  0.0663
 3792SOL    HW214934   1.743   1.705   4.383  0.9900 -0.5492 -1.9091
 3792SOL    HW314935   1.840   1.763   4.483 -1.2075  0.7171 -0.4048
 3792SOL    MW414936   1.815   1.698   4.431  0.1070  0.0634  0.3838
 3793SOL     OW14937   3.494   1.745   3.106  0.5301  0.3744  0.0470
 3793SOL    HW214938   3.518   1.653   3.109  0.7781  0.3160 -2.1625
 3793SOL    HW314939   3.402   1.745   3.077  0.4277  0.8160  0.3544
 3793SOL    MW414940   3.485   1.733   3.103  0.0330  1.1519 -0.0835
 3794SOL     OW14941   4.034   1.290   2.267 -0.0649 -0.2335  0.5537
 3794SOL    HW214942   4.090   1.231   2.318 -0.3266 -1.6404 -0.7136
 3794SOL    HW314943   4.078   1.375   2.271  2.5147 -1.4161 -0.8819
 3794SOL    MW414944   4.047   1.293   2.275  0.2063 -0.5957  0.6455
 3795SOL     OW14945   6.250   0.878   1.293 -0.1258 -0.3162 -0.2323
 3795SOL    HW214946   6.285   0.854   1.379 -1.1387  0.6565  0.4886
 3795SOL    HW314947   6.190   0.951   1.312  0.0128  0.2343 -1.8391
 3795SOL    MW414948   6.246   0.884   1.307  0.3320 -0.0351 -0.3254
 3796SOL     OW14949   1.753   5.505   2.780  0.2732  0.2898 -0.1044
 3796SOL    HW214950   1.736   5.578   2.721  1.8281  1.1570  0.4810
 3796SOL    HW314951   1.677   5.503   2.838 -0.4839  0.4756 -1.0532
 3796SOL    MW414952   1.741   5.514   2.780 -0.1597 -0.2471 -0.0246
 3797SOL     OW14953   1.510   4.876   5.765 -0.5453 -0.8559  0.4470
 3797SOL    HW214954   1.560   4.815   5.711 -1.8668 -1.1785 -0.4754
 3797SOL    HW314955   1.418   4.858   5.743 -0.9716  2.5481 -1.0948
 3797SOL    MW414956   1.504   4.866   5.755  0.1242  0.0167  0.6904
 3798SOL     OW14957   4.382   1.985   4.079  0.7152  0.5279 -0.0847
 3798SOL    HW214958   4.415   1.956   4.164 -0.1433 -0.1179  0.0374
 3798SOL    HW314959   4.447   1.954   4.016  0.4811 -0.5033  0.1701
 3798SOL    MW414960   4.395   1.977   4.082 -0.6797  0.7710  0.1325
 3799SOL     OW14961   0.644   5.390   3.870  0.2074 -0.2522  0.0039
 3799SOL    HW214962   0.568   5.439   3.902  0.6658 -0.9162  2.3074
 3799SOL    HW314963   0.719   5.434   3.910  0.8803 -0.8028 -0.6305
 3799SOL    MW414964   0.644   5.403   3.879 -0.4775  0.1095 -0.0146
 3800SOL     OW14965   2.396   2.408   2.471 -0.6734  0.7631 -0.1158
 3800SOL    HW214966   2.359   2.322   2.451 -0.9762  1.1212 -1.1723
 3800SOL    HW314967   2.490   2.398   2.455 -0.5121  0.2638  1.0945
 3800SOL    MW414968   2.403   2.395   2.466  0.3790  0.3968  0.0602
 3801SOL     OW14969   0.940   5.802   0.308  0.5156  0.7751 -0.0697
 3801SOL    HW214970   0.976   5.796   0.220 -0.3018  0.4670 -0.3890
 3801SOL    HW314971   1.007   5.763   0.364  0.1536 -0.9970 -0.8058
 3801SOL    MW414972   0.954   5.796   0.304  0.2684 -0.7319 -0.0505
 3802SOL     OW14973   2.473   3.233   1.443  0.3605  0.9121  0.0341
 3802SOL    HW214974   2.514   3.147   1.431  0.6815  1.1492 -0.6183
 3802SOL    HW314975   2.537   3.283   1.493  0.3297  0.8881  0.0978
 3802SOL    MW414976   2.487   3.228   1.448  0.0155 -0.2606 -0.6499
 3803SOL     OW14977   4.441   3.819   6.358  0.2602 -0.3702 -0.3042
 3803SOL    HW214978   4.530   3.824   6.394  0.7259 -1.0413 -1.3160
 3803SOL    HW314979   4.441   3.881   6.286  0.1501 -0.9249 -0.7895
 3803SOL    MW414980   4.453   3.828   6.353  0.0542 -0.3068 -0.0865
 3804SOL     OW14981   2.258   0.842   5.577  0.4166 -0.9412 -0.6525
 3804SOL    HW214982   2.204   0.813   5.504 -0.5591  1.0628 -0.7940
 3804SOL    HW314983   2.344   0.804   5.560 -0.2480 -1.9422 -1.8941
 3804SOL    MW414984   2.263   0.833   5.566  0.0712 -0.4859 -0.7037
 3805SOL     OW14985   3.818   5.602   1.720 -0.1122 -0.6697  0.2930
 3805SOL    HW214986   3.819   5.589   1.815 -0.8393  2.0986  0.7788
 3805SOL    HW314987   3.726   5.603   1.697 -0.2245  2.6910  0.3575
 3805SOL    MW414988   3.806   5.601   1.730 -0.6697 -0.0553 -0.0289
 3806SOL     OW14989   3.911   2.230   0.175 -0.4718 -0.2429 -0.0949
 3806SOL    HW214990   3.910   2.325   0.164  1.2791 -0.1894 -0.0909
 3806SOL    HW314991   3.894   2.196   0.088  0.6500  0.1041 -0.4646
 3806SOL    MW414992   3.909   2.238   0.162  0.0329  0.2386  0.0807
 3807SOL     OW14993   5.317   3.984   1.282  0.5313  0.0929  0.1281
 3807SOL    HW214994   5.307   3.965   1.376  0.2900  2.0818  0.5558
 3807SOL    HW314995   5.360   4.070   1.280  1.4110 -0.3639 -1.6085
 3807SOL    MW414996   5.321   3.993   1.294  0.3353  0.2901  0.0503
 3808SOL     OW14997   1.353   2.660   3.441  0.1158 -0.1747 -0.2710
 3808SOL    HW214998   1.391   2.743   3.411  0.8798 -0.2373  0.4852
 3808SOL    HW314999   1.336   2.611   3.360  1.2429  0.0357 -0.6539
 3808SOL    MW415000   1.356   2.665   3.426 -0.4683  0.2351  0.0122
 3809SOL     OW15001   3.281   6.129   3.077  0.1220 -0.0619  0.0241
 3809SOL    HW215002   3.360   6.131   3.024  0.0528  0.3921 -0.0629
 3809SOL    HW315003   3.276   6.039   3.110 -0.4603 -0.6910 -1.6747
 3809SOL    MW415004   3.291   6.117   3.075 -0.4657  0.1518  0.2977
 3810SOL     OW15005   3.860   2.147   1.444 -0.3199 -0.8081  0.3970
 3810SOL    HW215006   3.878   2.078   1.380 -0.9610 -1.4666  0.9003
 3810SOL    HW315007   3.946   2.181   1.468 -0.0481 -0.8262 -0.5052
 3810SOL    MW415008   3.874   2.142   1.438  0.3501  0.0090  0.7936
 3811SOL     OW15009   0.303   1.307   3.843 -0.3128  0.1282 -0.5229
 3811SOL    HW215010   0.390   1.346   3.828 -1.4736  2.4442 -1.8538
 3811SOL    HW315011   0.298   1.297   3.938  0.4109  2.6509 -0.1233
 3811SOL    MW415012   0.314   1.311   3.854  0.6403  0.4703 -0.4278
 3812SOL     OW15013   0.084   0.358   3.095 -0.2993  0.1366 -0.1934
 3812SOL    HW215014   0.056   0.396   3.012 -0.0142  1.4518  0.2835
 3812SOL    HW315015   0.165   0.311   3.074 -0.4494  0.1115 -0.7306
 3812SOL    MW415016   0.091   0.357   3.081 -0.5604  0.1052  0.0118
 3813SOL     OW15017   0.765   2.801   4.424 -0.2651 -0.3707 -0.1573
 3813SOL    HW215018   0.812   2.745   4.486  0.4338  0.9503  0.5444
 3813SOL    HW315019   0.697   2.744   4.387  0.3601 -1.6467  0.5839
 3813SOL    MW415020   0.763   2.786   4.427  0.7174  0.6260 -0.0772
 3814SOL     OW15021   0.228   2.533   5.288 -0.0663 -0.5014 -0.5045
 3814SOL    HW215022   0.134   2.523   5.306  0.1825 -1.1390  0.4965
 3814SOL    HW315023   0.231   2.577   5.203 -1.2722  0.6249  0.0080
 3814SOL    MW415024   0.216   2.537   5.279  0.6068  0.5218 -0.3509
 3815SOL     OW15025   6.075   1.219   6.123  0.3700  0.8028 -0.0205
 3815SOL    HW215026   6.067   1.232   6.029 -0.5178 -1.5818 -0.3358
 3815SOL    HW315027   6.169   1.210   6.139  0.4411 -0.2857 -0.9456
 3815SOL    MW415028   6.086   1.219   6.113 -0.5465  0.6373  1.0013
 3816SOL     OW15029   5.903   2.142   5.002 -0.2375  0.1359  0.5509
 3816SOL    HW215030   5.895   2.047   4.987  0.8585 -0.1815  1.8051
 3816SOL    HW315031   5.827   2.179   4.957  0.1950 -1.1601 -1.4026
 3816SOL    MW415032   5.892   2.134   4.994 -0.0404  0.4464 -0.1974
 3817SOL     OW15033   4.591   5.068   5.377  0.6946 -0.0876 -0.7769
 3817SOL    HW215034   4.563   5.131   5.443  0.1468 -1.4488  0.3601
 3817SOL    HW315035   4.546   5.096   5.297  1.3383  1.5660 -0.6035
 3817SOL    MW415036   4.581   5.080   5.375  0.2750  0.6226 -0.3145
 3818SOL     OW15037   4.371   5.566   6.312  0.0778  0.0464 -0.1565
 3818SOL    HW215038   4.454   5.596   6.350 -0.1722 -0.0214  0.4569
 3818SOL    HW315039   4.343   5.638   6.256  0.0897  0.4677  0.3631
 3818SOL    MW415040   4.378   5.579   6.310 -0.2186  0.0250  0.2862
 3819SOL     OW15041   2.303   0.232   3.990 -0.0242 -0.0560  0.2009
 3819SOL    HW215042   2.272   0.184   4.067  3.0617 -1.5879  0.6425
 3819SOL    HW315043   2.398   0.237   4.002  0.5979 -0.4028 -3.5495
 3819SOL    MW415044   2.312   0.227   4.002  0.4928 -0.1133  0.4619
 3820SOL     OW15045   3.703   1.419   4.217 -0.3394  0.8669 -0.0482
 3820SOL    HW215046   3.726   1.328   4.200 -1.4045  0.5892 -0.0301
 3820SOL    HW315047   3.622   1.434   4.168 -1.8609  0.8950  2.3158
 3820SOL    MW415048   3.695   1.409   4.209 -0.3610  0.5241  0.2176
 3821SOL     OW15049   4.834   2.770   6.344 -0.0314 -0.1535  0.1225
 3821SOL    HW215050   4.899   2.841   6.346 -0.8074  0.5738  0.1919
 3821SOL    HW315051   4.753   2.812   6.373 -0.5602 -1.0215 -0.0868
 3821SOL    MW415052   4.832   2.785   6.348 -0.0710  0.4990  0.0882
 3822SOL     OW15053   5.765   3.991   2.715 -0.2067  0.3223 -0.0878
 3822SOL    HW215054   5.728   4.008   2.802 -1.4348  1.4808 -0.7863
 3822SOL    HW315055   5.695   3.945   2.668  0.9893 -1.6157 -0.0390
 3822SOL    MW415056   5.751   3.987   2.720  0.3252  0.2062  0.1004
 3823SOL     OW15057   2.099   4.944   4.424  0.4956  0.1123  0.5994
 3823SOL    HW215058   2.147   4.939   4.506  0.7603 -1.5412  0.3812
 3823SOL    HW315059   2.153   4.897   4.361 -1.0224 -1.1917  0.1806
 3823SOL    MW415060   2.112   4.937   4.426  0.9980 -0.1786  0.0471
 3824SOL     OW15061   0.036   5.499   4.666  0.1164 -0.8181  0.9051
 3824SOL    HW215062   0.039   5.466   4.576  1.2501  0.0209  0.6021
 3824SOL    HW315063  -0.038   5.455   4.706 -1.2791 -0.1800 -0.8461
 3824SOL    MW415064   0.027   5.489   4.659  0.3197  0.0346 -0.0689
 3825SOL     OW15065   5.724   2.210   0.715 -0.5944 -0.2033 -0.3858
 3825SOL    HW215066   5.645   2.212   0.768 -0.2042  2.9378  0.2987
 3825SOL    HW315067   5.697   2.247   0.631  0.5736  4.2645  0.9115
 3825SOL    MW415068   5.710   2.215   0.711  0.1068  0.0599 -0.3578
 3826SOL     OW15069   0.593   5.418   4.785 -0.1653 -0.1374 -0.4215
 3826SOL    HW215070   0.523   5.368   4.826 -1.8138  0.7300 -2.0634
 3826SOL    HW315071   0.612   5.371   4.704 -0.5555  0.9414 -1.1604
 3826SOL    MW415072   0.586   5.405   4.779 -0.3043 -0.0819  0.2640
 3827SOL     OW15073   3.324   3.959   3.935  0.0531  0.0042 -0.1246
 3827SOL    HW215074   3.388   3.949   4.006 -1.8501  1.2848  1.9005
 3827SOL    HW315075   3.282   4.043   3.952 -3.0194 -1.3012 -0.6255
 3827SOL    MW415076   3.327   3.969   3.946 -0.0215 -0.1931  0.0938
 3828SOL     OW15077   3.869   5.755   1.183 -0.2773  0.5129 -0.1050
 3828SOL    HW215078   3.923   5.702   1.124  0.2505  2.4501 -1.4656
 3828SOL    HW315079   3.817   5.810   1.125 -1.2111  1.1009  1.2445
 3828SOL    MW415080   3.869   5.755   1.167  0.2638  1.0424 -0.6361
 3829SOL     OW15081   2.857   2.596   1.466 -0.2490 -0.3154 -0.0658
 3829SOL    HW215082   2.938   2.606   1.516  0.3513 -3.0488 -0.3442
 3829SOL    HW315083   2.878   2.531   1.399 -2.1367  0.4218 -1.4575
 3829SOL    MW415084   2.871   2.589   1.464 -0.0620 -0.4510 -0.4541
 3830SOL     OW15085   5.850   6.316   5.606 -0.0377 -0.1165  0.0095
 3830SOL    HW215086   5.826   6.370   5.531 -0.4657 -0.7927 -0.3483
 3830SOL    HW315087   5.775   6.258   5.619 -0.1501  0.2570  1.2225
 3830SOL    MW415088   5.837   6.316   5.598  0.4918  0.2772  0.0476
 3831SOL     OW15089   4.781   2.068   5.033  0.2238 -0.3688 -0.4538
 3831SOL    HW215090   4.715   2.112   4.979 -0.0359 -0.1667  0.0214
 3831SOL    HW315091   4.822   2.005   4.974 -0.0234 -0.1193 -0.8997
 3831SOL    MW415092   4.778   2.066   5.018 -0.1401  0.4272 -0.0439
 3832SOL     OW15093   6.089   1.473   5.154  0.1776  0.2947 -0.0737
 3832SOL    HW215094   6.046   1.413   5.092  0.6980 -1.1456  0.9002
 3832SOL    HW315095   6.152   1.521   5.101 -1.4530  1.2842 -1.2205
 3832SOL    MW415096   6.091   1.471   5.139  0.2642 -0.3367  0.3321
 3833SOL     OW15097   4.324   4.719   0.400 -0.1200  0.7695  0.0887
 3833SOL    HW215098   4.287   4.645   0.448  0.5197 -0.1670 -0.7844
 3833SOL    HW315099   4.397   4.680   0.351  0.5396  2.0937 -0.0076
 3833SOL    MW415100   4.329   4.704   0.400 -0.3050 -0.3419 -0.0862
 3834SOL     OW15101   5.161   2.215   5.024 -0.3071  0.3797 -0.1876
 3834SOL    HW215102   5.136   2.145   4.963 -1.1007 -0.4153  0.9986
 3834SOL    HW315103   5.128   2.295   4.984 -1.7364 -0.2516 -0.3306
 3834SOL    MW415104   5.154   2.216   5.011 -0.8206 -0.3547 -0.3387
 3835SOL     OW15105   2.309   2.756   5.463 -0.4211  0.2419 -0.1813
 3835SOL    HW215106   2.298   2.687   5.398 -0.5320  0.7939 -0.7584
 3835SOL    HW315107   2.375   2.814   5.425  1.7430 -0.9647  1.5084
 3835SOL    MW415108   2.316   2.754   5.449 -0.2377  0.4232  0.1790
 3836SOL     OW15109   3.119   6.248   2.150  0.3341  0.8621 -0.0611
 3836SOL    HW215110   3.193   6.308   2.152  1.3709 -0.2794 -2.0369
 3836SOL    HW315111   3.050   6.296   2.103  0.1669  1.4954  0.7949
 3836SOL    MW415112   3.119   6.262   2.144  0.4264  0.2639  0.1217
 3837SOL     OW15113   5.533   3.653   5.949  0.5704  0.6979  0.5978
 3837SOL    HW215114   5.572   3.626   6.032  2.3640 -1.3479 -0.7858
 3837SOL    HW315115   5.591   3.616   5.883 -1.9383  0.3936 -1.6035
 3837SOL    MW415116   5.546   3.645   5.951  0.2690 -0.1354 -0.1036
 3838SOL     OW15117   3.040   2.218   3.091 -0.0349  0.2744  0.5703
 3838SOL    HW215118   3.087   2.252   3.166  1.8590 -2.0585  0.5588
 3838SOL    HW315119   3.097   2.150   3.056 -0.5973  1.5296 -3.2760
 3838SOL    MW415120   3.054   2.213   3.096  0.1930 -0.5706  0.2381
 3839SOL     OW15121   2.398   4.695   4.973  0.6043  0.0994 -0.7966
 3839SOL    HW215122   2.358   4.624   4.922  1.6901 -0.1654 -1.3144
 3839SOL    HW315123   2.358   4.775   4.940 -0.9366 -0.2781  0.0698
 3839SOL    MW415124   2.387   4.696   4.962  0.8362 -0.2890 -0.0241
 3840SOL     OW15125   4.271   3.555   0.733  0.0608  0.1910  0.3275
 3840SOL    HW215126   4.208   3.622   0.709  0.4631  0.9389  1.2944
 3840SOL    HW315127   4.352   3.580   0.688 -0.0008 -0.0957  0.0526
 3840SOL    MW415128   4.273   3.567   0.724 -0.3100 -0.0908 -0.0076
 3841SOL     OW15129   2.785   3.471   0.846  0.0441  0.0932  0.5044
 3841SOL    HW215130   2.843   3.508   0.912  1.9769 -1.6317 -0.1154
 3841SOL    HW315131   2.813   3.512   0.764  0.3097 -0.6473  0.2200
 3841SOL    MW415132   2.796   3.481   0.844  0.3898 -1.1663  0.4093
 3842SOL     OW15133   3.079   5.375   0.153 -0.0249 -0.2519  0.0123
 3842SOL    HW215134   3.111   5.319   0.223  1.4548 -0.2068 -0.5941
 3842SOL    HW315135   3.154   5.385   0.094 -1.3456 -0.6208 -1.8011
 3842SOL    MW415136   3.093   5.369   0.154 -0.2217  0.4658  0.9718
 3843SOL     OW15137   1.537   1.245   3.214  0.0291 -0.2201 -0.1683
 3843SOL    HW215138   1.577   1.291   3.140  3.5264 -1.8883  0.4570
 3843SOL    HW315139   1.597   1.261   3.287 -1.4647 -1.4462  1.4017
 3843SOL    MW415140   1.550   1.253   3.214 -0.2734 -0.2005  0.1228
 3844SOL     OW15141   6.263   5.925   4.737  0.2857  0.4671  0.1689
 3844SOL    HW215142   6.281   5.849   4.683 -2.3419  0.9197 -1.5605
 3844SOL    HW315143   6.238   5.889   4.822 -1.0926 -0.6900 -0.6791
 3844SOL    MW415144   6.262   5.910   4.741 -0.4593 -0.2551 -0.1988
 3845SOL     OW15145   3.559   3.640   0.668 -0.3685 -0.7847 -0.2077
 3845SOL    HW215146   3.468   3.649   0.696 -0.3076  0.8503 -0.4632
 3845SOL    HW315147   3.576   3.718   0.615  0.7108 -1.8575 -1.4988
 3845SOL    MW415148   3.549   3.651   0.665 -0.0751 -0.0101 -0.4602
 3846SOL     OW15149   6.277   4.153   3.937  0.4376 -0.2720  0.3320
 3846SOL    HW215150   6.219   4.159   4.013  0.8622  0.4041  0.6052
 3846SOL    HW315151   6.218   4.157   3.862 -0.3082 -3.6192  0.5491
 3846SOL    MW415152   6.261   4.154   3.937  0.4505  0.5204 -1.0887
 3847SOL     OW15153   4.527   4.597   1.458 -0.7467 -0.2593  0.5697
 3847SOL    HW215154   4.469   4.549   1.518 -2.3817  1.4463  0.4530
 3847SOL    HW315155   4.557   4.672   1.510  1.0955 -0.9011  0.4910
 3847SOL    MW415156   4.523   4.601   1.473 -0.1433  0.3564 -0.9513
 3848SOL     OW15157   4.014   1.130   3.863  0.0662  0.2126  0.3570
 3848SOL    HW215158   4.037   1.212   3.906  1.3477  0.9671 -1.6009
 3848SOL    HW315159   4.055   1.136   3.776  0.6547 -2.7242  0.3061
 3848SOL    MW415160   4.023   1.142   3.857 -0.2010  0.4161  0.1764
 3849SOL     OW15161   5.657   3.837   4.944 -0.6361 -0.5840  0.2750
 3849SOL    HW215162   5.684   3.768   5.004  0.7884  0.1676  0.5452
 3849SOL    HW315163   5.737   3.887   4.928 -1.4148  0.3855 -0.7297
 3849SOL    MW415164   5.671   3.835   4.950  0.2135 -0.1751  0.7747
 3850SOL     OW15165   3.585   5.831   5.805 -0.4836 -0.1527 -0.6254
 3850SOL    HW215166   3.656   5.881   5.846 -0.4052 -1.1271  0.4578
 3850SOL    HW315167   3.629   5.760   5.759 -0.6752  0.0464 -1.1200
 3850SOL    MW415168   3.600   5.829   5.805 -0.3025 -0.1336  0.1706
 3851SOL     OW15169   5.480   4.081   5.473  0.2956  0.0120 -0.3206
 3851SOL    HW215170   5.458   4.019   5.403  0.8515 -0.2502 -0.2675
 3851SOL    HW315171   5.396   4.113   5.504  0.0491  1.8322 -2.6337
 3851SOL    MW415172   5.466   4.077   5.468 -0.4365 -0.6454 -0.1245
 3852SOL     OW15173   4.121   6.163   6.026  0.1895  0.2923 -0.1202
 3852SOL    HW215174   4.120   6.128   5.937  1.1263 -0.0371 -0.0096
 3852SOL    HW315175   4.050   6.117   6.071  0.5604 -0.5051 -0.3372
 3852SOL    MW415176   4.111   6.153   6.020 -0.5355 -0.0891 -0.0428
 3853SOL     OW15177   1.686   0.139   6.343 -0.2092  0.0938 -0.2769
 3853SOL    HW215178   1.693   0.222   6.390 -0.1057  0.2240 -0.5168
 3853SOL    HW315179   1.685   0.164   6.250  0.2679 -0.1968 -0.3654
 3853SOL    MW415180   1.687   0.153   6.337 -0.4285 -0.1866 -0.2655
 3854SOL     OW15181   4.403   1.011   3.374 -0.3645  0.0357  0.0583
 3854SOL    HW215182   4.486   1.030   3.419 -0.6507  0.1810  0.5323
 3854SOL    HW315183   4.417   0.926   3.333  0.4238  0.5691 -0.8360
 3854SOL    MW415184   4.416   1.002   3.375 -0.1918 -0.1447 -0.1689
 3855SOL     OW15185   2.848   0.156   4.525 -0.4306  0.0416 -0.4535
 3855SOL    HW215186   2.803   0.117   4.600  0.4131 -1.9390 -0.9134
 3855SOL    HW315187   2.939   0.128   4.536 -0.0124  0.9652 -1.4500
 3855SOL    MW415188   2.854   0.147   4.537  0.5719  0.3844  0.2298
 3856SOL     OW15189   2.330   1.345   0.693  0.5270 -0.0206 -0.1310
 3856SOL    HW215190   2.340   1.271   0.634  2.4390 -1.1644  1.4919
 3856SOL    HW315191   2.389   1.412   0.657 -0.2616  0.2851 -0.9002
 3856SOL    MW415192   2.340   1.344   0.681  0.1807  0.4667  0.0631
 3857SOL     OW15193   1.314   4.659   1.057 -0.1426 -0.6857  0.5880
 3857SOL    HW215194   1.270   4.574   1.063 -1.4842 -0.0372  0.4651
 3857SOL    HW315195   1.306   4.684   0.965 -1.5514  0.4340  0.9687
 3857SOL    MW415196   1.307   4.651   1.046 -0.5633 -0.1332  0.9190
 3858SOL     OW15197   3.834   1.731   4.983 -0.2912 -0.2781  0.4640
 3858SOL    HW215198   3.836   1.638   4.959 -0.8402 -0.1791  0.0327
 3858SOL    HW315199   3.820   1.730   5.078  1.1746 -0.6511  0.6942
 3858SOL    MW415200   3.832   1.719   4.993 -0.5520  0.2693 -0.1568
 3859SOL     OW15201   2.458   1.228   0.944 -0.3393  0.3455  0.5944
 3859SOL    HW215202   2.549   1.229   0.915  0.1233 -0.7361  1.8912
 3859SOL    HW315203   2.409   1.269   0.872  1.0019 -0.2156 -0.6894
 3859SOL    MW415204   2.463   1.233   0.931  0.0724  0.2364  0.0861
 3860SOL     OW15205   2.068   5.558   0.745  0.4040 -0.3014  0.2431
 3860SOL    HW215206   2.100   5.471   0.721  0.5661 -0.1400 -0.1343
 3860SOL    HW315207   2.054   5.553   0.840 -0.4517 -1.0145  0.0945
 3860SOL    MW415208   2.070   5.546   0.754  0.2323 -0.0283  0.8158
 3861SOL     OW15209   4.516   3.013   4.618 -0.2513  0.3672 -0.1640
 3861SOL    HW215210   4.490   2.939   4.672  0.3960  1.5207  1.8197
 3861SOL    HW315211   4.500   2.984   4.528 -1.1849 -1.6900  0.6116
 3861SOL    MW415212   4.511   2.999   4.613  0.0299  0.2068  0.1745
 3862SOL     OW15213   4.457   5.288   2.499 -0.0608  0.8942 -0.4572
 3862SOL    HW215214   4.484   5.223   2.434 -0.2744 -1.7903  1.9359
 3862SOL    HW315215   4.436   5.237   2.577 -1.3936  3.7937  1.2628
 3862SOL    MW415216   4.458   5.273   2.501 -0.4942  0.2979  0.3558
 3863SOL     OW15217   4.504   2.218   4.406  0.2302  0.1197  0.2020
 3863SOL    HW215218   4.497   2.122   4.404 -1.9892  0.2234 -1.2741
 3863SOL    HW315219   4.416   2.247   4.431  0.6605  1.7724 -0.1109
 3863SOL    MW415220   4.491   2.209   4.409  0.1756 -0.2564 -0.2824
 3864SOL     OW15221   1.674   1.293   3.826  0.1156  0.4511  0.1473
 3864SOL    HW215222   1.739   1.357   3.796  0.3754 -0.3799 -1.1325
 3864SOL    HW315223   1.677   1.223   3.761 -3.0494  1.0028 -0.7729
 3864SOL    MW415224   1.683   1.292   3.814  0.1102  0.2129 -0.0093
 3865SOL     OW15225   0.994   5.942   3.914  0.3532 -0.2264  0.2471
 3865SOL    HW215226   0.912   5.915   3.872  0.8602  0.3148 -1.1709
 3865SOL    HW315227   0.980   6.033   3.938 -0.2298 -0.7629  2.1001
 3865SOL    MW415228   0.981   5.950   3.911  0.2013  0.0471  0.8661
 3866SOL     OW15229   2.200   2.749   1.755 -0.7196 -0.4610  0.1831
 3866SOL    HW215230   2.134   2.813   1.781 -1.0026 -0.3155 -0.8152
 3866SOL    HW315231   2.151   2.685   1.703 -0.1551 -0.5946 -0.1888
 3866SOL    MW415232   2.185   2.749   1.751  0.3068  0.1175 -0.4243
 3867SOL     OW15233   5.795   1.005   1.921 -0.6363 -0.3983 -0.0499
 3867SOL    HW215234   5.717   0.964   1.884 -0.2092 -0.6520 -0.6778
 3867SOL    HW315235   5.864   0.939   1.913  0.7802  1.2671 -3.5706
 3867SOL    MW415236   5.794   0.991   1.915 -0.3409  0.3326 -0.0840
 3868SOL     OW15237   3.465   3.085   4.408 -0.2980 -0.2524  0.4319
 3868SOL    HW215238   3.474   3.138   4.487 -0.2255 -0.6400  0.6826
 3868SOL    HW315239   3.446   3.149   4.339 -2.8929 -0.0944  1.1672
 3868SOL    MW415240   3.464   3.100   4.409  0.5419 -0.0656 -0.0473
 3869SOL     OW15241   2.394   5.093   1.727  0.1458  0.9955 -0.1875
 3869SOL    HW215242   2.327   5.044   1.679  1.1610  1.0380 -1.7154
 3869SOL    HW315243   2.347   5.167   1.765 -1.0559 -0.1117  0.5748
 3869SOL    MW415244   2.379   5.096   1.726 -0.2011 -0.5156 -0.6021
 3870SOL     OW15245   5.140   5.632   1.821  0.0098  0.0977  0.7680
 3870SOL    HW215246   5.185   5.701   1.771  1.0907 -0.3562  1.0830
 3870SOL    HW315247   5.157   5.653   1.912 -0.6700  0.0809  0.8961
 3870SOL    MW415248   5.149   5.644   1.826  0.0092  0.4681 -0.0890
 3871SOL     OW15249   4.825   5.965   5.317 -0.3046 -0.3130 -0.4753
 3871SOL    HW215250   4.840   5.906   5.391  1.3885  0.6103 -0.0321
 3871SOL    HW315251   4.742   5.936   5.280 -0.2561 -2.0047  0.6323
 3871SOL    MW415252   4.816   5.954   5.322 -0.3266 -0.7217  0.3839
 3872SOL     OW15253   5.336   5.618   1.431 -1.0994 -0.2771 -0.3090
 3872SOL    HW215254   5.242   5.633   1.422 -0.7419  0.6263 -3.5867
 3872SOL    HW315255   5.356   5.547   1.370  0.5252  0.3496 -0.5706
 3872SOL    MW415256   5.326   5.610   1.422  0.5005  0.0864  1.0123
 3873SOL     OW15257   0.781   3.032   4.584  0.0864  0.2442  0.1650
 3873SOL    HW215258   0.776   2.967   4.514 -0.3468  0.7373 -0.2686
 3873SOL    HW315259   0.873   3.059   4.584 -0.2957  1.7732 -1.6553
 3873SOL    MW415260   0.793   3.027   4.575  0.1355  0.0149 -0.1020
 3874SOL     OW15261   5.225   2.015   3.883  0.4520 -0.0893 -0.3833
 3874SOL    HW215262   5.173   2.033   3.805 -1.2186  1.7517  1.0380
 3874SOL    HW315263   5.292   2.084   3.884  0.4865 -0.1246 -0.2024
 3874SOL    MW415264   5.227   2.027   3.873 -0.6559  0.6049  0.2210
 3875SOL     OW15265   2.731   3.244   6.435 -0.1448 -0.2768  0.2238
 3875SOL    HW215266   2.788   3.194   6.377  0.1613  0.8592 -0.5030
 3875SOL    HW315267   2.761   3.224   6.523  2.7306  1.7498 -0.1699
 3875SOL    MW415268   2.742   3.235   6.439  0.1591  0.2572  0.0248
 3876SOL     OW15269   0.164   0.741   4.209  0.2024  0.0456  0.0533
 3876SOL    HW215270   0.198   0.652   4.219  0.5601  0.1632 -0.1047
 3876SOL    HW315271   0.238   0.798   4.232  0.1516  0.3026 -0.4123
 3876SOL    MW415272   0.178   0.737   4.214 -0.2268 -0.0117 -0.2532
 3877SOL     OW15273   0.957   5.718   1.753 -0.2557 -0.5847 -0.2658
 3877SOL    HW215274   0.975   5.642   1.808 -2.0401 -2.1191 -1.6904
 3877SOL    HW315275   0.866   5.707   1.725  0.0110  1.1039 -2.0190
 3877SOL    MW415276   0.947   5.706   1.756  0.2917 -0.4300 -0.5320
 3878SOL     OW15277   4.272   0.276   1.260 -0.1371  0.2542 -0.3683
 3878SOL    HW215278   4.320   0.323   1.191  0.0634 -0.8743 -1.0267
 3878SOL    HW315279   4.299   0.319   1.341  0.8236  0.6135 -0.8585
 3878SOL    MW415280   4.282   0.288   1.261 -0.1510 -0.4942  0.7334
 3879SOL     OW15281   0.898   0.819   1.123  0.1127 -1.2671  0.2629
 3879SOL    HW215282   0.980   0.774   1.144  0.1103 -1.6926 -0.5945
 3879SOL    HW315283   0.894   0.891   1.185  2.1412 -0.0174 -0.9116
 3879SOL    MW415284   0.909   0.823   1.134 -0.3010 -0.5252  0.0662
 3880SOL     OW15285   6.250   1.188   1.034 -0.0615 -0.2705 -0.0336
 3880SOL    HW215286   6.268   1.132   0.958  0.5664 -0.1627  0.0255
 3880SOL    HW315287   6.308   1.154   1.102  1.7331  1.5798 -0.5399
 3880SOL    MW415288   6.260   1.176   1.033 -0.1388 -0.5095  0.1667
 3881SOL     OW15289   3.409   5.821   3.122 -0.2354  0.0919  0.6510
 3881SOL    HW215290   3.500   5.820   3.091  0.7328 -0.0859  3.2061
 3881SOL    HW315291   3.393   5.732   3.153 -1.0518  0.3043  0.8581
 3881SOL    MW415292   3.419   5.810   3.122  0.3950 -0.0158  0.5192
 3882SOL     OW15293   2.432   3.712   6.251 -0.0918  0.0207  0.2257
 3882SOL    HW215294   2.367   3.761   6.201  0.9865  1.1074 -0.1563
 3882SOL    HW315295   2.401   3.621   6.248 -0.9077  0.3129 -1.0238
 3882SOL    MW415296   2.419   3.706   6.244  0.2852 -0.1369  0.7363
 3883SOL     OW15297   4.851   0.251   2.489 -0.2013  0.2559 -0.1419
 3883SOL    HW215298   4.862   0.215   2.401 -1.5596 -0.3426 -0.0932
 3883SOL    HW315299   4.940   0.256   2.524  0.4001  0.9019 -1.6821
 3883SOL    MW415300   4.864   0.247   2.482  0.0349 -0.3064 -0.8790
 3884SOL     OW15301   1.413   2.926   3.357  0.1492 -0.2597 -0.4438
 3884SOL    HW215302   1.372   2.995   3.409  0.6073  0.0145 -0.4381
 3884SOL    HW315303   1.370   2.930   3.272  0.1628  0.0251 -0.4375
 3884SOL    MW415304   1.402   2.935   3.353 -0.4733 -0.3608 -0.1065
 3885SOL     OW15305   2.462   2.709   6.041  0.5824 -1.2546  0.2083
 3885SOL    HW215306   2.433   2.624   6.008  0.1522 -1.0061 -0.0776
 3885SOL    HW315307   2.534   2.734   5.983  0.9455 -1.5833  0.5157
 3885SOL    MW415308   2.468   2.701   6.029 -0.8447  0.6195 -0.5351
 3886SOL     OW15309   5.461   0.324   2.373 -0.5434  0.8534  0.1548
 3886SOL    HW215310   5.411   0.242   2.371 -1.4676  1.4129 -0.1244
 3886SOL    HW315311   5.546   0.299   2.409 -1.3495  0.0534  1.6041
 3886SOL    MW415312   5.466   0.310   2.377  0.5503  0.2475 -0.6670
 3887SOL     OW15313   2.079   3.983   3.358  0.5027 -0.0092 -0.0254
 3887SOL    HW215314   2.173   3.996   3.346  0.5526 -0.9222 -0.6803
 3887SOL    HW315315   2.046   4.070   3.382  1.5321  0.2792  0.3924
 3887SOL    MW415316   2.087   3.996   3.360 -0.8541  0.1192  0.1283
 3888SOL     OW15317   3.880   6.086   4.713  0.6196 -0.1535 -0.2966
 3888SOL    HW215318   3.817   6.078   4.642  0.2772  0.2657 -0.0458
 3888SOL    HW315319   3.932   6.006   4.708 -0.7200 -1.0955  0.2591
 3888SOL    MW415320   3.878   6.074   4.703  0.0225  0.2169 -0.0172
 3889SOL     OW15321   4.730   4.426   1.621 -0.6855 -0.5612  0.0439
 3889SOL    HW215322   4.663   4.373   1.665 -0.9022 -1.3280 -1.1358
 3889SOL    HW315323   4.769   4.366   1.557  0.2539  0.2449 -0.1643
 3889SOL    MW415324   4.726   4.411   1.618  0.5094 -0.2430  1.0134
 3890SOL     OW15325   2.039   2.323   2.989  0.0782  0.1017  0.3669
 3890SOL    HW215326   2.020   2.379   2.914 -1.3787  0.6438  1.1058
 3890SOL    HW315327   2.101   2.259   2.955  0.1781  0.8974 -1.0489
 3890SOL    MW415328   2.044   2.322   2.974  0.2606 -0.3503 -0.1164
 3891SOL     OW15329   5.954   2.355   1.643 -0.2096  0.9817  0.0459
 3891SOL    HW215330   5.916   2.391   1.723 -1.0436  0.7002 -0.2123
 3891SOL    HW315331   6.020   2.292   1.674 -0.0837  1.3348  0.5006
 3891SOL    MW415332   5.958   2.351   1.658 -0.2291  0.2130 -0.6027
 3892SOL     OW15333   5.918   3.984   1.755 -0.4754  0.2910 -0.0485
 3892SOL    HW215334   5.954   4.072   1.760 -1.3850  0.6184  1.9283
 3892SOL    HW315335   5.938   3.946   1.841 -1.7008 -0.7740 -0.2106
 3892SOL    MW415336   5.926   3.990   1.767  0.0430  0.3336 -0.2096
 3893SOL     OW15337   1.751   1.444   4.900 -0.6903  0.1411 -0.1453
 3893SOL    HW215338   1.684   1.376   4.902 -1.1793  0.5568 -1.2560
 3893SOL    HW315339   1.802   1.426   4.821 -0.5736  0.8186 -0.2335
 3893SOL    MW415340   1.749   1.433   4.890 -0.6254 -0.2619 -0.1275
 3894SOL     OW15341   4.120   2.577   2.752 -0.0134  0.8274  0.5296
 3894SOL    HW215342   4.078   2.536   2.828 -0.5600 -1.2234 -0.7743
 3894SOL    HW315343   4.181   2.510   2.720  0.2799  1.6825 -0.7603
 3894SOL    MW415344   4.122   2.563   2.757  0.3205 -0.3204  0.8160
 3895SOL     OW15345   6.183   2.010   2.325  0.1724 -0.0970  0.4464
 3895SOL    HW215346   6.197   2.105   2.332 -0.7058  0.1502 -0.8209
 3895SOL    HW315347   6.092   1.998   2.354  0.8714 -0.8339  2.4863
 3895SOL    MW415348   6.173   2.021   2.330  0.2553 -0.1026 -0.0970
 3896SOL     OW15349   4.879   5.702   3.357  0.3111  0.0907  0.1929
 3896SOL    HW215350   4.797   5.652   3.348  0.7583 -0.6314  0.0302
 3896SOL    HW315351   4.947   5.635   3.358  0.8705  0.6601  0.7830
 3896SOL    MW415352   4.877   5.686   3.356 -0.7101  0.7120  0.2153
 3897SOL     OW15353   3.850   2.916   0.308  0.0789  0.5542  0.1412
 3897SOL    HW215354   3.824   3.000   0.345 -0.5301  0.1016  0.7694
 3897SOL    HW315355   3.771   2.862   0.313  0.5907 -0.2086  0.1931
 3897SOL    MW415356   3.836   2.920   0.313 -0.3328  0.2439 -0.4535
 3898SOL     OW15357   0.612   3.867   3.117 -0.1101 -0.4389 -0.4761
 3898SOL    HW215358   0.601   3.794   3.179 -0.6879  0.0792  0.0409
 3898SOL    HW315359   0.704   3.890   3.123 -0.6949  1.6999  2.6265
 3898SOL    MW415360   0.622   3.860   3.126  0.3824  0.8886  0.9608
 3899SOL     OW15361   3.001   1.693   2.077  0.6201 -0.5957  0.5824
 3899SOL    HW215362   2.910   1.713   2.098  0.0905  0.2192 -2.1213
 3899SOL    HW315363   3.002   1.598   2.064  0.4182 -0.7492  1.5765
 3899SOL    MW415364   2.990   1.683   2.078  0.3187  0.7772  0.2551
 3900SOL     OW15365   2.764   5.799   3.279 -0.5769  0.1521 -0.1519
 3900SOL    HW215366   2.847   5.847   3.278 -0.2414 -0.4235 -0.9565
 3900SOL    HW315367   2.762   5.754   3.195  0.7687 -4.1093  1.8221
 3900SOL    MW415368   2.775   5.800   3.268  0.1709  0.1082 -0.4719
 3901SOL     OW15369   1.486   5.889   5.357 -0.7165 -0.0624  0.1001
 3901SOL    HW215370   1.506   5.796   5.357 -3.9007 -0.8972  1.4528
 3901SOL    HW315371   1.466   5.909   5.265 -2.5110 -1.4496  0.1189
 3901SOL    MW415372   1.486   5.879   5.345  0.1228 -0.1086  0.1489
 3902SOL     OW15373   6.355   4.459   5.214  0.2052  0.3738  0.5377
 3902SOL    HW215374   6.422   4.397   5.185  0.5023 -0.3664  2.6191
 3902SOL    HW315375   6.275   4.408   5.219  0.4757  0.0665  2.3709
 3902SOL    MW415376   6.353   4.444   5.211 -0.0436 -0.5773 -0.0201
 3903SOL     OW15377   3.961   3.997   4.508 -0.3995  0.0809 -0.1774
 3903SOL    HW215378   3.897   4.012   4.578 -0.3798  0.3306 -0.2155
 3903SOL    HW315379   3.917   3.936   4.449  0.3624 -1.8795  1.1461
 3903SOL    MW415380   3.947   3.991   4.509 -0.0030  0.1352 -0.2059
 3904SOL     OW15381   1.267   4.445   0.664 -1.0350  0.0652 -0.9159
 3904SOL    HW215382   1.253   4.453   0.570  0.2444 -0.4581 -1.1796
 3904SOL    HW315383   1.354   4.404   0.671  0.0302  2.3867  0.5031
 3904SOL    MW415384   1.277   4.441   0.652 -0.6234 -0.3357 -0.2304
 3905SOL     OW15385   4.920   3.018   3.535  0.0917 -0.2024 -0.4422
 3905SOL    HW215386   4.961   2.960   3.599  1.6042 -0.5474 -1.6680
 3905SOL    HW315387   4.962   3.102   3.547  0.1428 -0.1825 -0.7437
 3905SOL    MW415388   4.931   3.021   3.545 -0.3555  0.2261  0.0772
 3906SOL     OW15389   3.215   1.945   1.750 -0.5800 -0.4934  0.2774
 3906SOL    HW215390   3.126   1.926   1.781 -1.3265  0.6020 -1.0991
 3906SOL    HW315391   3.223   1.895   1.668 -0.5076  0.6119 -0.4060
 3906SOL    MW415392   3.204   1.936   1.743 -0.4629  0.3358 -0.7148
 3907SOL     OW15393   4.687   2.309   3.185 -0.4627  0.0820  0.4902
 3907SOL    HW215394   4.760   2.269   3.231 -0.9730 -0.1663  1.0990
 3907SOL    HW315395   4.681   2.398   3.221  0.8752  0.8596 -1.0932
 3907SOL    MW415396   4.696   2.316   3.196  0.1352 -0.4163  0.0263
 3908SOL     OW15397   5.045   2.426   4.903  0.2304 -0.9831  0.1590
 3908SOL    HW215398   5.084   2.510   4.879 -0.5985 -0.4962  0.4679
 3908SOL    HW315399   4.956   2.448   4.933  0.2749 -1.8743  1.0191
 3908SOL    MW415400   5.038   2.440   4.904  0.1360  0.4669 -0.0701
 3909SOL     OW15401   5.039   4.598   1.556 -0.2153 -0.7365  0.3415
 3909SOL    HW215402   5.059   4.509   1.587 -1.9242 -1.8974 -1.6134
 3909SOL    HW315403   4.969   4.628   1.614 -0.0596 -0.8970  0.6197
 3909SOL    MW415404   5.033   4.590   1.568 -0.0717  0.3776  0.2479
 3910SOL     OW15405   0.573   4.250   3.160  0.0293  0.6119 -0.1788
 3910SOL    HW215406   0.545   4.225   3.072 -1.3383  1.9351 -0.1672
 3910SOL    HW315407   0.498   4.232   3.216  0.4477  0.9247  0.5063
 3910SOL    MW415408   0.560   4.244   3.156  0.2215  0.3212 -0.2908
 3911SOL     OW15409   1.490   0.832   3.231  0.0912 -0.0452  0.0793
 3911SOL    HW215410   1.532   0.876   3.305  2.6388 -0.3117 -1.0983
 3911SOL    HW315411   1.508   0.739   3.246  0.9990 -0.0713 -1.0291
 3911SOL    MW415412   1.498   0.825   3.243  0.7399 -0.5298 -0.0035
 3912SOL     OW15413   2.822   6.182   4.660  0.1287 -0.5817 -0.3866
 3912SOL    HW215414   2.905   6.187   4.613 -0.7782 -0.3465 -2.0102
 3912SOL    HW315415   2.755   6.188   4.592 -1.2329 -0.3656  0.9279
 3912SOL    MW415416   2.824   6.184   4.645 -0.6072 -0.5768  0.0804
 3913SOL     OW15417   5.302   5.446   5.572  0.2021  0.3804  0.4309
 3913SOL    HW215418   5.392   5.461   5.598  0.3417 -0.4883  0.4610
 3913SOL    HW315419   5.304   5.365   5.521 -0.7720 -0.5043  1.7167
 3913SOL    MW415420   5.314   5.438   5.569  0.3889  0.0919  0.0199
 3914SOL     OW15421   3.675   4.987   5.344 -0.3347 -0.2431  0.5897
 3914SOL    HW215422   3.661   4.945   5.429 -0.5534 -1.1997  0.0972
 3914SOL    HW315423   3.622   4.935   5.283  0.2607  0.0870 -0.2225
 3914SOL    MW415424   3.666   4.974   5.347 -0.2730 -0.6236 -0.1293
 3915SOL     OW15425   1.778   4.994   0.672 -0.1727 -0.1500 -0.1195
 3915SOL    HW215426   1.727   4.966   0.749  2.4371 -1.8195  1.1649
 3915SOL    HW315427   1.713   5.006   0.603 -2.4184 -0.7253  1.7609
 3915SOL    MW415428   1.762   4.992   0.673  0.8308 -0.1992  0.1503
 3916SOL     OW15429   1.160   5.745   0.431  0.0087  0.4120  0.2661
 3916SOL    HW215430   1.194   5.813   0.374 -0.5031  1.9975  1.7656
 3916SOL    HW315431   1.229   5.732   0.496  0.1904 -0.6880 -0.1149
 3916SOL    MW415432   1.174   5.752   0.432 -0.0207  0.3510  0.2428
 3917SOL     OW15433   2.660   5.461   1.710 -0.0702  0.2116 -0.5164
 3917SOL    HW215434   2.657   5.371   1.676  0.8545 -0.2227  0.4769
 3917SOL    HW315435   2.667   5.516   1.633 -2.5115 -0.4111 -1.2819
 3917SOL    MW415436   2.660   5.456   1.696 -0.1808  0.0576  0.2183
 3918SOL     OW15437   1.555   2.028   3.477 -0.1307 -0.5190 -0.2085
 3918SOL    HW215438   1.526   2.021   3.386  1.0955 -0.4666 -0.6286
 3918SOL    HW315439   1.639   1.980   3.478  0.4154  0.4328  0.6252
 3918SOL    MW415440   1.562   2.021   3.465  0.2102  0.1834  0.0489
 3919SOL     OW15441   5.205   5.621   6.209 -0.0115 -0.4121  0.2621
 3919SOL    HW215442   5.179   5.682   6.140 -0.2335 -1.5584 -0.7206
 3919SOL    HW315443   5.276   5.569   6.169 -0.1071 -1.0588  0.9139
 3919SOL    MW415444   5.211   5.622   6.194  0.4237 -0.2093  0.0520
 3920SOL     OW15445   2.177   3.438   5.947  0.3413 -0.1182 -0.4593
 3920SOL    HW215446   2.173   3.504   6.017 -0.9300 -0.5046 -0.1536
 3920SOL    HW315447   2.249   3.468   5.891  0.7109  0.7609  0.4463
 3920SOL    MW415448   2.186   3.451   5.949 -0.0875 -0.0653  0.0351
 3921SOL     OW15449   4.419   3.664   0.949  0.1488  0.1880 -0.3460
 3921SOL    HW215450   4.503   3.638   0.911  0.4194  0.4390  0.0737
 3921SOL    HW315451   4.354   3.626   0.890  0.5609  1.2600 -1.5657
 3921SOL    MW415452   4.422   3.656   0.936  0.0621  0.5908  0.0867
 3922SOL     OW15453   1.576   0.549   0.377  0.3025 -0.5276 -0.4149
 3922SOL    HW215454   1.636   0.623   0.370  0.3884 -0.4316  0.9982
 3922SOL    HW315455   1.493   0.587   0.405 -0.1754 -0.7758 -1.4264
 3922SOL    MW415456   1.573   0.564   0.380 -1.1169  0.1726 -0.2649
 3923SOL     OW15457   0.307   0.266   2.353  0.5725  0.1881  0.2075
 3923SOL    HW215458   0.294   0.253   2.260 -1.0613 -2.8576  0.7541
 3923SOL    HW315459   0.221   0.252   2.393  1.1586  1.6349  2.2108
 3923SOL    MW415460   0.294   0.263   2.346 -0.2345  0.2567 -0.2193
 3924SOL     OW15461   1.943   4.464   4.535  0.1146  0.2859  0.3940
 3924SOL    HW215462   1.885   4.447   4.460 -0.5168  0.2983  0.8750
 3924SOL    HW315463   1.948   4.379   4.580  1.2687  0.0239 -0.1870
 3924SOL    MW415464   1.936   4.450   4.531  0.0404 -0.0175  0.4462
 3925SOL     OW15465   4.308   6.193   1.026  0.2530 -0.3225  0.0194
 3925SOL    HW215466   4.366   6.233   1.090  0.0786  1.7579 -1.0386
 3925SOL    HW315467   4.350   6.210   0.941  0.1869 -2.4762 -0.5010
 3925SOL    MW415468   4.321   6.200   1.023  0.0209 -0.1815  0.4409
 3926SOL     OW15469   6.407   2.259   4.897  0.1612  0.1055 -0.0455
 3926SOL    HW215470   6.313   2.264   4.912 -0.0652 -0.5689 -1.1054
 3926SOL    HW315471   6.442   2.218   4.976 -0.1056  2.3968  1.3524
 3926SOL    MW415472   6.400   2.255   4.909  0.5090  0.6057 -0.1911
 3927SOL     OW15473   1.921   3.584   4.985 -0.4591  0.8177 -0.1829
 3927SOL    HW215474   1.885   3.515   5.040 -1.2687  1.1410 -0.3013
 3927SOL    HW315475   1.845   3.631   4.952 -0.0055  0.6519 -1.5527
 3927SOL    MW415476   1.906   3.581   4.988  0.5435  0.0792  0.5410
 3928SOL     OW15477   5.058   3.041   2.595  0.0731  0.4016  0.0801
 3928SOL    HW215478   5.122   3.109   2.615  2.8156 -2.2208  1.0474
 3928SOL    HW315479   5.059   3.034   2.499  0.3396  1.1581  0.0252
 3928SOL    MW415480   5.066   3.049   2.585  0.7341 -0.0142  0.5004
 3929SOL     OW15481   4.631   4.571   5.972 -0.2311  0.4699 -0.1035
 3929SOL    HW215482   4.608   4.664   5.978 -0.0333  0.5863 -0.9686
 3929SOL    HW315483   4.604   4.545   5.884  2.7778  0.5994 -1.1937
 3929SOL    MW415484   4.625   4.580   5.961 -0.1110 -0.2158 -0.2614
 3930SOL     OW15485   3.303   3.687   0.781 -0.1753  0.6838 -0.4199
 3930SOL    HW215486   3.337   3.615   0.834 -1.1461  0.0818 -0.5981
 3930SOL    HW315487   3.232   3.724   0.833 -2.5874 -1.2484 -2.0789
 3930SOL    MW415488   3.298   3.682   0.795  0.1368  0.2765 -0.4850
 3931SOL     OW15489   4.168   4.614   4.946 -0.2982  0.5077  0.6116
 3931SOL    HW215490   4.079   4.605   4.912  0.5154  0.7803 -1.7308
 3931SOL    HW315491   4.211   4.531   4.925  0.8222  1.4383 -0.9524
 3931SOL    MW415492   4.162   4.602   4.939  0.0643  0.2732  0.2378
 3932SOL     OW15493   2.587   5.859   6.027 -0.0730 -0.3809  0.2728
 3932SOL    HW215494   2.640   5.930   6.066 -0.2668 -0.1962  0.2016
 3932SOL    HW315495   2.627   5.779   6.060  0.6381 -0.2592 -0.2604
 3932SOL    MW415496   2.600   5.858   6.036 -0.8807  0.0862 -0.2198
 3933SOL     OW15497   3.479   5.419   2.547  0.3038  0.2840 -0.0592
 3933SOL    HW215498   3.502   5.449   2.634  1.1802 -0.5069 -0.0116
 3933SOL    HW315499   3.388   5.446   2.536  0.5474  1.4501  0.6246
 3933SOL    MW415500   3.470   5.427   2.557 -0.5150  0.2732 -0.5631
 3934SOL     OW15501   4.510   4.202   5.899  0.7326 -0.6937 -0.0239
 3934SOL    HW215502   4.546   4.236   5.980 -0.4855 -0.4560  0.4474
 3934SOL    HW315503   4.557   4.249   5.830 -0.4240  1.5647  0.5975
 3934SOL    MW415504   4.521   4.213   5.900 -0.2781  0.0793 -0.5208
 3935SOL     OW15505   4.756   0.307   1.711  0.0077 -0.4203 -0.2087
 3935SOL    HW215506   4.767   0.355   1.793  2.3581 -0.4581 -0.4556
 3935SOL    HW315507   4.662   0.285   1.708 -0.3900  0.8642  1.7181
 3935SOL    MW415508   4.745   0.310   1.721 -0.1792 -0.0830 -0.0805
 3936SOL     OW15509   6.260   3.216   6.256 -0.1040 -0.1342  0.1721
 3936SOL    HW215510   6.228   3.239   6.343 -0.4528 -1.1346  0.3214
 3936SOL    HW315511   6.199   3.148   6.225 -0.6720  1.0006 -1.3293
 3936SOL    MW415512   6.248   3.210   6.263  0.1350  0.0008  0.1326
 3937SOL     OW15513   3.184   0.567   3.564  0.1625  0.2543  0.0762
 3937SOL    HW215514   3.206   0.477   3.586  1.0809 -0.1057 -2.1230
 3937SOL    HW315515   3.261   0.600   3.518 -0.5521  1.8565 -0.0386
 3937SOL    MW415516   3.197   0.560   3.561 -0.0490 -0.3296 -0.1354
 3938SOL     OW15517   6.422   5.542   5.973  0.2032  0.0155 -0.2377
 3938SOL    HW215518   6.430   5.624   5.923  1.2942 -0.0042 -0.1151
 3938SOL    HW315519   6.403   5.571   6.062 -2.2495  0.0418 -0.6828
 3938SOL    MW415520   6.420   5.557   5.978 -0.1935 -0.2642  0.4167
 3939SOL     OW15521   4.571   3.816   0.287 -0.0958  0.6888  0.3045
 3939SOL    HW215522   4.607   3.824   0.198 -1.1530  1.2089 -0.0917
 3939SOL    HW315523   4.536   3.727   0.290  0.6944  0.3796  0.4950
 3939SOL    MW415524   4.571   3.805   0.275  0.0990 -0.1731 -0.1786
 3940SOL     OW15525   1.355   5.422   5.063 -0.4116  0.2624  0.6410
 3940SOL    HW215526   1.270   5.466   5.054 -1.3190 -1.0560  2.2707
 3940SOL    HW315527   1.338   5.331   5.038  1.2934  0.5553 -2.0572
 3940SOL    MW415528   1.341   5.416   5.058 -0.1437  0.8885 -0.7249
 3941SOL     OW15529   5.997   2.105   0.399 -0.4637 -0.4963 -0.4256
 3941SOL    HW215530   6.042   2.110   0.483 -1.3016  0.8070 -0.0266
 3941SOL    HW315531   6.025   2.021   0.362  1.2444 -0.3347  0.3748
 3941SOL    MW415532   6.007   2.095   0.405  0.0025 -0.3991  0.3608
 3942SOL     OW15533   0.714   1.441   3.093  0.2507  0.1233 -0.1760
 3942SOL    HW215534   0.638   1.491   3.124 -0.7471 -1.7971  0.6878
 3942SOL    HW315535   0.698   1.429   2.999  1.3171  2.6611 -0.7744
 3942SOL    MW415536   0.702   1.446   3.085  0.2772  0.6775 -0.1755
 3943SOL     OW15537   6.185   5.861   1.691  0.4178 -0.0157  0.8999
 3943SOL    HW215538   6.114   5.852   1.628 -1.0558 -3.2632  2.7946
 3943SOL    HW315539   6.143   5.898   1.769  1.1437 -0.5137  1.5411
 3943SOL    MW415540   6.170   5.865   1.693  0.5788  0.2274  0.4862
 3944SOL     OW15541   4.805   1.828   3.769 -0.0084  0.1180 -0.5689
 3944SOL    HW215542   4.830   1.738   3.749 -1.2935 -0.3733 -0.1228
 3944SOL    HW315543   4.883   1.881   3.749  2.2101 -1.5117  2.9838
 3944SOL    MW415544   4.818   1.823   3.763 -0.2919 -0.3315  0.1034
 3945SOL     OW15545   6.292   1.185   0.113  0.4015 -0.3615  0.4598
 3945SOL    HW215546   6.348   1.180   0.191  2.7110  0.8364 -1.0274
 3945SOL    HW315547   6.256   1.273   0.116  1.2603  0.0266 -0.2917
 3945SOL    MW415548   6.295   1.196   0.124 -0.1046 -0.9423 -0.0052
 3946SOL     OW15549   1.776   1.985   4.383 -0.2303 -0.0155 -0.5557
 3946SOL    HW215550   1.691   1.989   4.340 -0.3403 -0.2142 -0.3612
 3946SOL    HW315551   1.840   2.000   4.313 -0.3621 -1.1604 -0.9505
 3946SOL    MW415552   1.773   1.987   4.368  0.0582  0.2962 -0.3591
 3947SOL     OW15553   0.872   3.174   1.455 -0.2261  0.0261 -0.3695
 3947SOL    HW215554   0.884   3.182   1.360  0.9671  2.1135 -0.0865
 3947SOL    HW315555   0.836   3.258   1.482 -1.2032 -0.7817  0.9798
 3947SOL    MW415556   0.869   3.186   1.446  0.0156 -0.0258  0.0097
 3948SOL     OW15557   4.915   6.383   6.420  0.1633 -0.5597  0.0334
 3948SOL    HW215558   4.879   6.426   6.498  0.9167 -0.9941  0.6233
 3948SOL    HW315559   4.962   6.453   6.375  2.9463 -1.0677  1.9226
 3948SOL    MW415560   4.916   6.398   6.424  0.0358 -0.3541 -0.4875
 3949SOL     OW15561   4.477   4.633   0.694 -0.1078 -0.2409 -0.1037
 3949SOL    HW215562   4.432   4.593   0.769 -2.5448 -1.8314 -2.2422
 3949SOL    HW315563   4.474   4.567   0.626  1.6391  1.3034 -1.7993
 3949SOL    MW415564   4.471   4.619   0.695  0.1462 -0.5569 -0.0704
 3950SOL     OW15565   3.708   4.545   2.054  0.1748 -0.1086 -0.0199
 3950SOL    HW215566   3.740   4.632   2.079  0.2349 -0.6785  2.0457
 3950SOL    HW315567   3.627   4.562   2.005 -0.5443  1.1043  1.5087
 3950SOL    MW415568   3.701   4.559   2.051  0.2750  0.4508  0.1322
 3951SOL     OW15569   1.926   3.825   0.212 -0.1398  0.1519  0.1790
 3951SOL    HW215570   1.938   3.919   0.196  0.7784  0.1703  0.8754
 3951SOL    HW315571   1.941   3.814   0.306  2.2047 -1.0096 -0.2472
 3951SOL    MW415572   1.930   3.836   0.222  0.0586  0.0166  0.9197
 3952SOL     OW15573   5.838   4.531   1.876 -0.0235  0.0195 -0.3404
 3952SOL    HW215574   5.830   4.626   1.877 -0.0526  0.0106  0.3039
 3952SOL    HW315575   5.749   4.499   1.890  0.1847 -0.0893  0.8493
 3952SOL    MW415576   5.825   4.539   1.878 -0.0173  0.0631 -0.1074
 3953SOL     OW15577   0.705   3.497   3.066 -0.9826 -0.2092 -0.4146
 3953SOL    HW215578   0.720   3.480   3.159 -0.5157 -0.1125 -0.4710
 3953SOL    HW315579   0.751   3.426   3.021 -1.5036 -0.4576 -0.5654
 3953SOL    MW415580   0.713   3.485   3.073 -0.1907 -0.4311 -0.3131
 3954SOL     OW15581   2.366   1.092   3.203  0.1927  0.1092 -0.0678
 3954SOL    HW215582   2.310   1.156   3.247 -0.2658 -0.5839  0.3614
 3954SOL    HW315583   2.344   1.100   3.110  0.5830  1.0061 -0.0960
 3954SOL    MW415584   2.356   1.102   3.196  0.2065  0.0175  0.1173
 3955SOL     OW15585   0.812   4.839   4.063  0.0081 -0.0772  0.5578
 3955SOL    HW215586   0.751   4.886   4.121  0.2100  1.0958 -0.1335
 3955SOL    HW315587   0.863   4.783   4.121 -0.8696 -0.1190  1.3046
 3955SOL    MW415588   0.811   4.838   4.078  0.5513  0.0266 -0.0811
 3956SOL     OW15589   4.065   4.390   1.171 -0.1148  0.0124  0.4027
 3956SOL    HW215590   4.017   4.470   1.150  0.8441  0.7695  1.0093
 3956SOL    HW315591   4.035   4.327   1.106 -1.4564  0.6294  0.3818
 3956SOL    MW415592   4.054   4.393   1.160 -0.4136  0.1928  0.0029
 3957SOL     OW15593   4.906   0.127   3.337  0.4660  0.0180  0.1691
 3957SOL    HW215594   4.956   0.122   3.255  1.0855 -2.2289  0.5975
 3957SOL    HW315595   4.815   0.124   3.310  0.4659  3.5675 -0.6012
 3957SOL    MW415596   4.901   0.126   3.323  0.3697 -0.1634 -0.3139
 3958SOL     OW15597   3.429   5.787   2.425 -0.0798  0.1993 -0.1785
 3958SOL    HW215598   3.365   5.769   2.494 -1.1216  0.2374 -1.0998
 3958SOL    HW315599   3.420   5.881   2.409  0.3019  0.2269 -0.2232
 3958SOL    MW415600   3.419   5.797   2.432  0.3367  0.0750 -0.5238
 3959SOL     OW15601   1.396   1.090   2.181  0.9591 -0.1488 -0.2272
 3959SOL    HW215602   1.333   1.023   2.154 -0.9126  0.9150  1.2496
 3959SOL    HW315603   1.447   1.108   2.102 -0.7128 -0.9217 -1.5457
 3959SOL    MW415604   1.395   1.083   2.167 -0.0558 -0.3734  0.5466
 3960SOL     OW15605   5.397   5.969   2.273  0.1626 -0.0334  0.4459
 3960SOL    HW215606   5.475   6.023   2.288 -0.7259  1.0936  1.2513
 3960SOL    HW315607   5.389   5.917   2.353  0.3879 -0.5519  0.1342
 3960SOL    MW415608   5.407   5.970   2.286  0.7261 -0.5454 -0.4537
 3961SOL     OW15609   0.486   4.174   2.911 -0.5918  0.6935  0.0023
 3961SOL    HW215610   0.456   4.084   2.893 -1.0968  0.8281  0.1453
 3961SOL    HW315611   0.532   4.201   2.831 -0.4192  0.3012 -0.0340
 3961SOL    MW415612   0.488   4.165   2.898 -0.2691  0.7344  0.6008
 3962SOL     OW15613   5.394   2.837   4.661  0.0064  0.0241 -0.4574
 3962SOL    HW215614   5.477   2.808   4.697  0.6108  1.1380 -0.9136
 3962SOL    HW315615   5.349   2.880   4.733 -0.4461 -1.0800 -0.0563
 3962SOL    MW415616   5.399   2.839   4.675 -0.2479 -0.5997  0.3533
 3963SOL     OW15617   0.433   1.181   6.272  0.0521 -0.0166 -0.4449
 3963SOL    HW215618   0.395   1.268   6.265 -1.5321 -0.7407 -1.1763
 3963SOL    HW315619   0.428   1.144   6.183 -0.2774 -1.2332  0.0507
 3963SOL    MW415620   0.427   1.187   6.259 -0.0022  0.0113 -0.2746
 3964SOL     OW15621   3.557   6.344   1.555 -0.5517 -0.1045  0.4869
 3964SOL    HW215622   3.582   6.396   1.632 -0.4849 -0.9136  1.0378
 3964SOL    HW315623   3.589   6.256   1.576  1.6345  0.1085 -1.4962
 3964SOL    MW415624   3.565   6.339   1.568 -0.2536 -0.1670  0.1282
 3965SOL     OW15625   2.004   6.165   3.317  0.3039 -0.5817  0.3104
 3965SOL    HW215626   2.065   6.096   3.344 -0.3344 -1.6621 -0.8788
 3965SOL    HW315627   2.057   6.227   3.268  1.0508  0.2700  2.0853
 3965SOL    MW415628   2.019   6.164   3.314  0.4572  0.5642 -0.0617
 3966SOL     OW15629   0.766   1.422   5.213 -0.4551  0.4187  0.0889
 3966SOL    HW215630   0.813   1.491   5.261 -0.1548 -0.2782  0.8068
 3966SOL    HW315631   0.763   1.454   5.123  1.5410  0.4338 -0.0219
 3966SOL    MW415632   0.772   1.436   5.208 -0.0205  0.6094 -0.1839
 3967SOL     OW15633   1.627   3.532   3.306  0.1820  0.1364 -0.2619
 3967SOL    HW215634   1.722   3.538   3.304  0.5041 -2.5945  1.4539
 3967SOL    HW315635   1.602   3.564   3.392 -0.4322  0.4011 -0.5310
 3967SOL    MW415636   1.636   3.537   3.317 -0.0405 -0.2271 -0.3974
 3968SOL     OW15637   5.332   3.522   4.296 -0.3603  0.3109  0.0448
 3968SOL    HW215638   5.319   3.434   4.331 -1.5050  0.8906  1.1251
 3968SOL    HW315639   5.428   3.531   4.290 -0.2048 -0.6406  0.8234
 3968SOL    MW415640   5.343   3.511   4.300  0.0980  0.4521 -0.1027
 3969SOL     OW15641   2.229   5.707   1.555  0.4155 -0.1300 -0.6021
 3969SOL    HW215642   2.295   5.655   1.600 -0.3176 -1.1314 -0.6464
 3969SOL    HW315643   2.147   5.685   1.598  0.2255  1.9928  0.2402
 3969SOL    MW415644   2.227   5.698   1.567  0.4318 -0.0293  0.3010
 3970SOL     OW15645   6.228   0.617   1.175  0.5472 -0.1118 -0.3152
 3970SOL    HW215646   6.233   0.687   1.240  0.2692 -0.0951 -0.3103
 3970SOL    HW315647   6.293   0.641   1.108  0.2396  0.3089 -0.4634
 3970SOL    MW415648   6.238   0.629   1.174  0.2553  0.0526 -0.0720
 3971SOL     OW15649   5.086   2.690   0.185 -0.0177 -0.3252  0.4629
 3971SOL    HW215650   5.007   2.638   0.170  1.5267 -2.4221 -1.0994
 3971SOL    HW315651   5.107   2.728   0.100  1.3960 -1.0151  0.4582
 3971SOL    MW415652   5.078   2.688   0.172  0.7194  0.9533  0.1851
 3972SOL     OW15653   0.860   2.923   1.790 -0.4720 -0.4884  0.3068
 3972SOL    HW215654   0.949   2.944   1.763 -1.5337  2.6324 -1.3398
 3972SOL    HW315655   0.846   2.833   1.761  1.9188 -0.8664  0.1413
 3972SOL    MW415656   0.870   2.914   1.783 -0.2499 -0.4120  0.0234
 3973SOL     OW15657   1.475   3.439   1.746  0.2372 -0.1485  0.4872
 3973SOL    HW215658   1.497   3.439   1.839 -1.2505  0.8590  0.8850
 3973SOL    HW315659   1.420   3.517   1.734  0.1168 -0.4390 -1.1661
 3973SOL    MW415660   1.471   3.450   1.757  0.0608 -0.0209  0.1025
 3974SOL     OW15661   2.085   4.387   2.518  0.1210 -0.0066 -0.1728
 3974SOL    HW215662   2.063   4.472   2.556  0.0808  0.0631 -0.3543
 3974SOL    HW315663   2.159   4.404   2.460  1.0081 -0.3250  0.8213
 3974SOL    MW415664   2.092   4.400   2.515  0.5448 -0.0938  0.3432
 3975SOL     OW15665   4.504   3.601   3.921  0.5250 -0.0472 -0.3339
 3975SOL    HW215666   4.472   3.537   3.985  2.1985  0.7400  1.3726
 3975SOL    HW315667   4.593   3.573   3.901  1.2665  1.6576  0.3870
 3975SOL    MW415668   4.512   3.589   3.927  0.7839 -0.0595 -0.1231
 3976SOL     OW15669   3.611   5.129   3.479 -0.3394  0.1110  0.2960
 3976SOL    HW215670   3.686   5.187   3.467  0.6370 -0.9002  1.2970
 3976SOL    HW315671   3.565   5.131   3.395  1.2685  0.0974 -0.6091
 3976SOL    MW415672   3.615   5.137   3.466  0.5827 -0.0686  0.3264
 3977SOL     OW15673   6.406   0.415   5.706  0.2322 -1.0189 -0.4302
 3977SOL    HW215674   6.399   0.465   5.625 -1.3094 -1.0658 -0.3510
 3977SOL    HW315675   6.496   0.429   5.735  0.2468  0.5773 -1.1307
 3977SOL    MW415676   6.417   0.423   5.699  0.0006  0.4485 -0.0731
 3978SOL     OW15677   5.103   5.373   1.470 -0.0366  0.9527 -0.5666
 3978SOL    HW215678   5.033   5.365   1.405 -1.0504  0.3532  0.5479
 3978SOL    HW315679   5.170   5.310   1.442 -1.1003 -0.3575 -0.2970
 3978SOL    MW415680   5.103   5.364   1.458  0.3752  0.9286  0.2634
 3979SOL     OW15681   1.862   2.938   5.786 -0.1254 -0.1282 -0.4475
 3979SOL    HW215682   1.947   2.962   5.751  0.4230  0.5161  1.2396
 3979SOL    HW315683   1.880   2.865   5.846 -0.6433  0.4771  0.4623
 3979SOL    MW415684   1.875   2.931   5.789 -0.3250 -0.4960 -0.0901
 3980SOL     OW15685   4.972   4.568   4.859 -0.2806 -0.0906  0.0667
 3980SOL    HW215686   4.940   4.654   4.885  1.8682  0.3295  1.6679
 3980SOL    HW315687   4.912   4.506   4.901 -1.2335  0.6264 -0.2210
 3980SOL    MW415688   4.960   4.571   4.868 -0.3671 -0.2550  0.3944
 3981SOL     OW15689   4.381   3.269   1.049  0.0502  0.5841  0.1495
 3981SOL    HW215690   4.450   3.235   0.993 -0.3033 -0.5632  0.3917
 3981SOL    HW315691   4.425   3.332   1.106  1.0457 -0.5750  0.7173
 3981SOL    MW415692   4.396   3.273   1.049 -0.0470 -0.2368 -0.2895
 3982SOL     OW15693   3.487   5.822   3.837  0.2623 -0.0608 -0.1905
 3982SOL    HW215694   3.505   5.736   3.875  0.3377  0.2085  0.3984
 3982SOL    HW315695   3.420   5.859   3.894  1.0309  0.7192  0.2117
 3982SOL    MW415696   3.481   5.815   3.849 -0.3977  0.0442 -0.0312
 3983SOL     OW15697   5.677   0.409   2.633  0.4137  0.2740 -0.0627
 3983SOL    HW215698   5.682   0.315   2.614 -1.3228 -0.2067  1.5740
 3983SOL    HW315699   5.748   0.424   2.695  2.1264  0.5650 -1.9991
 3983SOL    MW415700   5.687   0.399   2.639  0.2790  0.1816 -0.2449
 3984SOL     OW15701   4.429   0.285   0.836  0.2767 -0.0611  0.3730
 3984SOL    HW215702   4.393   0.364   0.877  1.0469  0.0511  0.8532
 3984SOL    HW315703   4.483   0.317   0.764  2.0732 -0.0016  1.6779
 3984SOL    MW415704   4.431   0.300   0.832 -0.3494 -0.7086 -0.3606
 3985SOL     OW15705   0.415   0.621   1.118 -0.0728 -0.3257  0.5393
 3985SOL    HW215706   0.438   0.579   1.201  0.2919 -0.5900  0.3086
 3985SOL    HW315707   0.476   0.694   1.110  2.1794 -2.2196 -1.0504
 3985SOL    MW415708   0.426   0.625   1.128  0.3817 -0.0292  0.0192
 3986SOL     OW15709   4.647   0.499   3.309 -0.3559  0.6253 -0.2604
 3986SOL    HW215710   4.669   0.474   3.398  1.1409  0.8213 -0.5491
 3986SOL    HW315711   4.594   0.577   3.318 -1.2409 -0.0474  0.4875
 3986SOL    MW415712   4.643   0.506   3.322 -0.3767 -0.1479  0.4881
 3987SOL     OW15713   5.951   2.732   5.073 -0.3775  0.3445  0.7104
 3987SOL    HW215714   5.992   2.732   4.987 -1.2231  0.2399  0.2985
 3987SOL    HW315715   5.973   2.647   5.111  0.2466  0.5111  0.7222
 3987SOL    MW415716   5.959   2.721   5.067  0.0769  0.4513  0.3231
 3988SOL     OW15717   4.907   5.255   4.400  0.5252 -0.5302 -0.2625
 3988SOL    HW215718   4.911   5.164   4.429 -0.1665 -0.3996  0.2959
 3988SOL    HW315719   4.820   5.263   4.360 -0.5363  0.5226  2.0610
 3988SOL    MW415720   4.896   5.244   4.399  0.1437  0.4783 -0.4968
 3989SOL     OW15721   4.186   5.912   3.417  0.0726  0.2605 -0.2469
 3989SOL    HW215722   4.248   5.928   3.346 -0.4552  2.2372 -0.3276
 3989SOL    HW315723   4.105   5.952   3.388 -0.7444 -0.6993  0.6287
 3989SOL    MW415724   4.184   5.920   3.404 -0.2344  0.2126 -0.0516
 3990SOL     OW15725   4.135   4.887   5.836 -0.2441 -0.2722 -0.1270
 3990SOL    HW215726   4.043   4.865   5.823 -0.4123  1.1885 -1.8420
 3990SOL    HW315727   4.176   4.873   5.751  0.6951  0.9030  0.0908
 3990SOL    MW415728   4.128   4.882   5.823 -0.9007 -0.8901  0.0209
 3991SOL     OW15729   5.665   4.218   0.227  0.1806  0.3530 -0.2001
 3991SOL    HW215730   5.674   4.124   0.214 -0.8586  0.0508  1.1095
 3991SOL    HW315731   5.754   4.252   0.218  0.6167 -0.7891 -0.3248
 3991SOL    MW415732   5.678   4.210   0.224 -0.6520  0.1511  0.3658
 3992SOL     OW15733   6.255   3.222   0.810  0.5580  0.0409  0.0665
 3992SOL    HW215734   6.224   3.209   0.900  1.0168 -1.0464  0.0793
 3992SOL    HW315735   6.345   3.188   0.811 -0.1457 -2.0434 -1.3041
 3992SOL    MW415736   6.263   3.216   0.822  0.5619 -0.3021  0.2635
 3993SOL     OW15737   3.193   5.671   5.012 -0.4952  0.1454 -0.6816
 3993SOL    HW215738   3.123   5.686   4.948 -1.1359 -0.8571 -0.2266
 3993SOL    HW315739   3.158   5.605   5.072  1.0622 -0.8359 -0.7947
 3993SOL    MW415740   3.179   5.664   5.012  0.1318 -0.3125  0.2295
 3994SOL     OW15741   0.377   0.337   1.237  0.0341 -0.6139  0.3844
 3994SOL    HW215742   0.298   0.302   1.279 -0.6505  1.0091  0.4980
 3994SOL    HW315743   0.357   0.336   1.143  0.5581 -1.7761  0.2625
 3994SOL    MW415744   0.364   0.332   1.230 -0.4791  0.3567 -0.2283
 3995SOL     OW15745   4.635   3.979   1.567  0.2687  0.1341  0.7284
 3995SOL    HW215746   4.623   3.976   1.662  0.2724  2.9533  0.9096
 3995SOL    HW315747   4.579   4.051   1.538 -0.0408 -0.9012 -1.4978
 3995SOL    MW415748   4.626   3.988   1.575 -0.7482 -0.4654  0.0691
 3996SOL     OW15749   1.458   2.238   4.767  0.1120 -0.7694 -0.2213
 3996SOL    HW215750   1.463   2.165   4.829 -0.9248 -1.1683 -0.5815
 3996SOL    HW315751   1.369   2.233   4.731 -0.3379  1.3113  0.5080
 3996SOL    MW415752   1.447   2.228   4.770  0.0742 -0.0122 -0.2194
 3997SOL     OW15753   2.956   5.878   0.705 -0.8588 -0.4865  0.2336
 3997SOL    HW215754   2.871   5.918   0.687 -0.4472  0.3814  0.1586
 3997SOL    HW315755   2.942   5.785   0.689 -0.8703 -0.0026 -3.4791
 3997SOL    MW415756   2.943   5.871   0.700 -0.1363  0.2195  0.1609
 3998SOL     OW15757   5.926   2.787   5.720 -0.1866  0.3242 -0.4422
 3998SOL    HW215758   5.902   2.696   5.737 -0.7015  0.1869 -1.8057
 3998SOL    HW315759   5.918   2.798   5.625 -1.6627  2.1893 -0.1834
 3998SOL    MW415760   5.922   2.777   5.710  0.2599  0.2564  0.4458
 3999SOL     OW15761   0.404   0.213   2.664 -0.3176  0.2282 -0.3018
 3999SOL    HW215762   0.409   0.202   2.569 -0.3148  0.6126 -0.3475
 3999SOL    HW315763   0.371   0.129   2.696 -0.3375  0.1039 -0.6433
 3999SOL    MW415764   0.400   0.200   2.655 -0.6057  0.0265 -0.6750
 4000SOL     OW15765   1.749   5.288   0.171  0.1631 -0.4631 -0.2086
 4000SOL    HW215766   1.759   5.215   0.110  0.3098 -1.2984  0.7854
 4000SOL    HW315767   1.689   5.348   0.128 -1.5954 -2.1182 -0.2152
 4000SOL    MW415768   1.743   5.286   0.158  0.2371  0.4166 -0.1724
 4001SOL     OW15769   5.548   2.743   5.909  0.4092  0.4250 -0.1532
 4001SOL    HW215770   5.479   2.788   5.861 -0.1024  0.5839  0.7155
 4001SOL    HW315771   5.536   2.770   6.000  0.4224 -1.0471  0.3106
 4001SOL    MW415772   5.537   2.752   5.915  0.2408  0.6715  0.2621
 4002SOL     OW15773   3.490   0.700   5.948  0.1279  0.2361 -0.5031
 4002SOL    HW215774   3.495   0.795   5.940 -0.6119  0.4406  1.0764
 4002SOL    HW315775   3.544   0.680   6.025  0.2744 -0.6246 -0.8229
 4002SOL    MW415776   3.498   0.710   5.957 -0.0669 -0.4179 -0.0143
 4003SOL     OW15777   4.889   3.483   0.176 -0.0435 -0.3689 -0.4630
 4003SOL    HW215778   4.969   3.431   0.185  0.2892 -0.0163 -1.2240
 4003SOL    HW315779   4.893   3.546   0.247  0.9433  0.3832 -1.1506
 4003SOL    MW415780   4.900   3.484   0.186  0.0377 -0.4326  0.4815
 4004SOL     OW15781   4.176   5.226   4.128  0.1382  0.1595  0.4638
 4004SOL    HW215782   4.133   5.142   4.146  1.1519 -0.4042  0.2920
 4004SOL    HW315783   4.176   5.271   4.213 -1.1789  0.3681  0.3781
 4004SOL    MW415784   4.170   5.221   4.142  0.0874 -1.0159 -0.4067
 4005SOL     OW15785   5.525   1.823   3.880 -0.2257 -0.1415 -0.0090
 4005SOL    HW215786   5.615   1.854   3.881 -0.6270  1.0798  0.1103
 4005SOL    HW315787   5.492   1.846   3.793 -0.3670 -0.7692 -0.1268
 4005SOL    MW415788   5.533   1.830   3.869  0.4650  0.0650 -0.0032
 4006SOL     OW15789   6.173   1.707   4.849 -0.6484  0.5112 -0.2545
 4006SOL    HW215790   6.096   1.688   4.794 -0.2192 -1.3249 -0.2652
 4006SOL    HW315791   6.223   1.771   4.798 -1.1878  0.2317 -1.1625
 4006SOL    MW415792   6.169   1.713   4.835  0.4829  0.1291 -0.0725
 4007SOL     OW15793   1.739   5.169   5.580  0.2526 -0.3782  0.3801
 4007SOL    HW215794   1.814   5.166   5.640 -0.6018  0.9540  1.5859
 4007SOL    HW315795   1.761   5.106   5.511  1.4878 -1.6437  1.8391
 4007SOL    MW415796   1.752   5.160   5.579 -0.9173  0.5890  0.0967
 4008SOL     OW15797   1.328   2.133   1.370 -0.0677 -0.2651 -0.6100
 4008SOL    HW215798   1.355   2.224   1.369 -0.7781 -0.0421 -0.0407
 4008SOL    HW315799   1.251   2.131   1.427 -0.2218 -1.1687 -0.8337
 4008SOL    MW415800   1.321   2.145   1.377  0.5744  0.0820  0.4874
 4009SOL     OW15801   2.184   2.404   4.582 -0.4510  0.2450 -0.1084
 4009SOL    HW215802   2.173   2.490   4.540 -1.5299  0.2194  0.0740
 4009SOL    HW315803   2.172   2.422   4.675 -0.4830 -0.0762 -0.0503
 4009SOL    MW415804   2.181   2.418   4.589  0.7599 -0.0802 -0.2752
 4010SOL     OW15805   0.141   1.046   4.798 -0.2715  0.0028  0.0202
 4010SOL    HW215806   0.097   1.130   4.814 -0.0245 -0.2414  2.4135
 4010SOL    HW315807   0.234   1.065   4.809 -0.2162 -0.5858  0.6229
 4010SOL    MW415808   0.148   1.060   4.802  0.1618  0.4531  0.1476
 4011SOL     OW15809   5.211   5.724   2.071  0.4696 -0.3536 -0.3010
 4011SOL    HW215810   5.183   5.685   2.154  1.2765 -0.3536 -0.0241
 4011SOL    HW315811   5.288   5.674   2.046  0.0120 -0.6028 -1.2515
 4011SOL    MW415812   5.218   5.712   2.079  0.3889 -0.0598  0.2123
 4012SOL     OW15813   4.733   4.830   5.116 -0.4617 -0.5593 -0.1327
 4012SOL    HW215814   4.665   4.892   5.144 -0.0113 -0.8103  1.6971
 4012SOL    HW315815   4.725   4.757   5.178  0.0401 -1.6239 -1.2782
 4012SOL    MW415816   4.723   4.829   5.128  0.1826 -0.5120 -0.0615
 4013SOL     OW15817   4.735   5.749   3.085 -0.2230 -0.3469  0.0621
 4013SOL    HW215818   4.751   5.790   2.999 -0.9412 -0.5030 -0.1543
 4013SOL    HW315819   4.819   5.712   3.110  0.1991  0.4112 -0.1975
 4013SOL    MW415820   4.748   5.750   3.077  0.7699  0.0053  0.0690
 4014SOL     OW15821   0.336   3.283   1.569  0.4208 -0.5042  0.0532
 4014SOL    HW215822   0.275   3.355   1.587 -0.7537 -1.0009 -1.6932
 4014SOL    HW315823   0.375   3.263   1.654  1.0114  2.3560  0.5723
 4014SOL    MW415824   0.333   3.290   1.582 -0.7641  0.0590  0.7954
 4015SOL     OW15825   4.626   2.063   2.300 -0.1782 -0.2722 -0.0205
 4015SOL    HW215826   4.659   2.056   2.390 -0.7658  0.2330  0.2459
 4015SOL    HW315827   4.646   2.152   2.274  1.6260 -0.9467 -1.0811
 4015SOL    MW415828   4.633   2.074   2.309  1.1769 -0.2363 -0.1447
 4016SOL     OW15829   3.236   0.300   5.360  0.0765 -0.3188 -0.2317
 4016SOL    HW215830   3.296   0.295   5.286 -0.2084  0.1631 -0.5020
 4016SOL    HW315831   3.152   0.322   5.321 -0.1382 -0.3538  0.2068
 4016SOL    MW415832   3.233   0.302   5.345 -0.8177  0.1450 -0.0218
 4017SOL     OW15833   4.549   5.070   2.947  0.2179  0.1922  0.0540
 4017SOL    HW215834   4.505   5.109   2.871 -1.1420 -2.1804 -0.4778
 4017SOL    HW315835   4.643   5.077   2.926 -0.1214 -1.0026 -2.2506
 4017SOL    MW415836   4.556   5.076   2.934 -0.5754  0.3651  0.3824
 4018SOL     OW15837   3.186   4.865   1.488 -0.0411 -0.2924  0.1271
 4018SOL    HW215838   3.098   4.840   1.458 -0.8072  1.4977  0.7686
 4018SOL    HW315839   3.180   4.865   1.583  0.9666 -1.1192  0.2108
 4018SOL    MW415840   3.173   4.861   1.496  0.1436 -0.0247  0.3103
 4019SOL     OW15841   2.890   1.908   2.974  0.3495 -0.1163  0.1862
 4019SOL    HW215842   2.936   1.851   2.912  0.1744  1.6363 -1.6431
 4019SOL    HW315843   2.911   1.871   3.060  1.6489 -1.8842 -0.8169
 4019SOL    MW415844   2.898   1.895   2.977 -0.1377  0.1030  0.6749
 4020SOL     OW15845   1.795   0.483   4.575  0.0269 -0.3808  0.8557
 4020SOL    HW215846   1.746   0.425   4.517 -0.5393 -0.4121  1.3549
 4020SOL    HW315847   1.729   0.519   4.635  0.2509  1.2235  0.1950
 4020SOL    MW415848   1.780   0.480   4.575 -0.9071 -0.2488  0.2733
 4021SOL     OW15849   2.143   1.479   1.844 -0.3206 -0.0169 -0.6175
 4021SOL    HW215850   2.092   1.556   1.865  0.9847  0.5159  0.7660
 4021SOL    HW315851   2.178   1.496   1.756  0.9102  1.5229  0.1346
 4021SOL    MW415852   2.141   1.491   1.835  0.0465  0.3516 -0.1787
 4022SOL     OW15853   2.883   2.156   4.953  0.3149 -0.2430 -0.0468
 4022SOL    HW215854   2.893   2.061   4.943  0.9770 -0.0196 -2.0252
 4022SOL    HW315855   2.789   2.170   4.962  0.0642 -0.9927 -1.2899
 4022SOL    MW415856   2.872   2.145   4.953  0.0698 -0.4486  0.1830
 4023SOL     OW15857   3.899   2.467   5.263 -0.1654 -0.3451 -0.6454
 4023SOL    HW215858   3.825   2.516   5.226 -0.2394  0.0120 -0.0392
 4023SOL    HW315859   3.860   2.411   5.330 -0.0096 -0.8724 -0.9834
 4023SOL    MW415860   3.884   2.466   5.267 -0.0361  0.2300 -0.7551
 4024SOL     OW15861   4.695   5.638   2.162 -0.3105  0.3486 -0.2044
 4024SOL    HW215862   4.703   5.702   2.232  0.2053  0.3905 -0.2930
 4024SOL    HW315863   4.778   5.590   2.164 -1.1902 -1.2202  0.7217
 4024SOL    MW415864   4.707   5.640   2.171  0.2074 -0.0548 -0.6745
 4025SOL     OW15865   2.288   0.840   3.567  0.4030  0.4445 -0.2708
 4025SOL    HW215866   2.259   0.888   3.645  0.0122 -0.4110  0.1246
 4025SOL    HW315867   2.291   0.748   3.595  0.1991  0.1201 -1.2825
 4025SOL    MW415868   2.285   0.834   3.581  0.2022  0.0116 -0.0660
 4026SOL     OW15869   3.380   3.679   4.731 -0.4088  0.0450 -0.3736
 4026SOL    HW215870   3.303   3.644   4.776 -0.1734  1.1617  0.9900
 4026SOL    HW315871   3.359   3.771   4.716  0.1338  0.0434 -1.2066
 4026SOL    MW415872   3.367   3.687   4.735  0.2551 -0.0920 -0.0421
 4027SOL     OW15873   1.595   1.710   3.223  0.5202  0.4008 -0.3215
 4027SOL    HW215874   1.609   1.682   3.313 -1.4551  1.1078  0.2735
 4027SOL    HW315875   1.682   1.722   3.187  1.3666  0.8479  1.7398
 4027SOL    MW415876   1.608   1.708   3.230 -0.5564  0.0962  0.1185
 4028SOL     OW15877   4.903   0.988   1.889 -0.2194 -0.3417  0.3985
 4028SOL    HW215878   4.860   1.047   1.952 -0.1340 -0.8076  0.9055
 4028SOL    HW315879   4.995   0.989   1.914  0.0973  0.7562 -0.7729
 4028SOL    MW415880   4.909   0.996   1.901  0.2362 -0.4632  0.3507
 4029SOL     OW15881   5.032   0.987   4.902 -0.7437  0.2497  0.1487
 4029SOL    HW215882   5.091   1.062   4.908 -0.5668  0.0518  0.9852
 4029SOL    HW315883   4.960   1.017   4.845 -0.7450  1.0980  0.5864
 4029SOL    MW415884   5.030   1.001   4.895 -0.3396 -0.1632  0.3397
 4030SOL     OW15885   4.564   4.351   0.910 -0.3256  0.2071 -0.0799
 4030SOL    HW215886   4.632   4.328   0.973  0.5087  2.2588 -0.1604
 4030SOL    HW315887   4.514   4.420   0.952 -0.8775  0.3687 -0.9658
 4030SOL    MW415888   4.566   4.357   0.924  0.1104 -0.0548  0.2880
 4031SOL     OW15889   3.613   3.211   2.341 -0.2801  0.2051  0.4365
 4031SOL    HW215890   3.658   3.295   2.350  1.1623 -0.5475  0.4216
 4031SOL    HW315891   3.614   3.174   2.429 -0.1359 -0.1914  0.2676
 4031SOL    MW415892   3.619   3.217   2.354  0.1789 -0.1409 -0.4051
 4032SOL     OW15893   0.707   0.178   4.202  0.0649  0.1420 -0.1984
 4032SOL    HW215894   0.674   0.155   4.115  0.8142  0.2967 -0.5306
 4032SOL    HW315895   0.790   0.223   4.186  0.2165  0.1745  0.5980
 4032SOL    MW415896   0.714   0.181   4.189  0.2551 -0.0755  0.4471
 4033SOL     OW15897   0.384   1.811   0.522  0.7434 -0.3298 -0.2941
 4033SOL    HW215898   0.349   1.897   0.503  1.8381 -0.0831 -1.3082
 4033SOL    HW315899   0.359   1.757   0.446 -0.4172 -1.0778  0.5819
 4033SOL    MW415900   0.376   1.815   0.509 -0.1699 -0.2211 -0.3654
 4034SOL     OW15901   3.815   3.699   0.804 -0.0877  0.2511  1.1184
 4034SOL    HW215902   3.725   3.695   0.770  0.4272 -0.6852 -0.2273
 4034SOL    HW315903   3.812   3.646   0.884 -0.5672 -0.5097  0.6183
 4034SOL    MW415904   3.802   3.691   0.810 -0.2579 -0.6088 -0.2494
 4035SOL     OW15905   3.156   0.864   5.695  0.0362  0.7697 -0.4880
 4035SOL    HW215906   3.206   0.860   5.614 -0.7532 -0.6790 -0.9518
 4035SOL    HW315907   3.064   0.864   5.666 -0.2528  0.1873  0.3869
 4035SOL    MW415908   3.150   0.863   5.681  0.1353 -0.2802  0.3243
 4036SOL     OW15909   3.555   1.553   3.356  0.1917 -0.4119 -0.2728
 4036SOL    HW215910   3.517   1.496   3.423  1.4556 -0.7365  0.1924
 4036SOL    HW315911   3.564   1.497   3.279  3.5668 -1.6185  0.8422
 4036SOL    MW415912   3.551   1.538   3.354  0.0769  0.4316  0.1502
 4037SOL     OW15913   4.166   1.044   1.491  0.3057 -0.6039 -0.7168
 4037SOL    HW215914   4.117   1.122   1.519 -0.5341 -1.2514 -0.3215
 4037SOL    HW315915   4.173   0.992   1.571 -1.4975 -2.1625 -1.5033
 4037SOL    MW415916   4.160   1.048   1.505 -0.0347 -0.0905 -0.5046
 4038SOL     OW15917   1.679   5.411   6.108 -0.0587 -0.2791 -0.2466
 4038SOL    HW215918   1.625   5.490   6.110  0.6025  0.1816  0.0094
 4038SOL    HW315919   1.618   5.340   6.087 -0.6316  0.3243 -0.6778
 4038SOL    MW415920   1.664   5.412   6.105 -0.5575 -0.0000 -0.8478
 4039SOL     OW15921   4.571   3.139   0.849  0.2685  0.5831 -0.4061
 4039SOL    HW215922   4.529   3.109   0.769  0.5775 -0.2466 -0.2625
 4039SOL    HW315923   4.627   3.066   0.876 -0.2668  0.6233  0.8810
 4039SOL    MW415924   4.573   3.126   0.842 -0.3830  0.5090  0.5114
 4040SOL     OW15925   3.540   5.876   2.033  0.3948 -0.1740 -0.0822
 4040SOL    HW215926   3.603   5.895   1.963  0.3527  0.2235 -0.0139
 4040SOL    HW315927   3.456   5.868   1.988  0.4886 -0.6756 -0.1700
 4040SOL    MW415928   3.538   5.877   2.018 -0.0833  0.2658 -0.0357
 4041SOL     OW15929   0.782   0.856   5.573  0.1010  0.3397 -0.3135
 4041SOL    HW215930   0.871   0.838   5.542  0.7990  3.3150 -0.3606
 4041SOL    HW315931   0.734   0.883   5.495 -0.6300 -0.4578 -0.1508
 4041SOL    MW415932   0.788   0.857   5.559  0.8322 -0.4140 -0.3150
 4042SOL     OW15933   2.113   0.577   5.653  0.1331  0.2772  0.1363
 4042SOL    HW215934   2.108   0.642   5.582 -1.6372 -0.6722 -0.6732
 4042SOL    HW315935   2.045   0.604   5.715  0.9883  0.5137  1.0050
 4042SOL    MW415936   2.103   0.589   5.652 -1.1529 -0.8283 -0.3327
 4043SOL     OW15937   4.466   0.038   6.388 -0.0467  0.8377 -0.0403
 4043SOL    HW215938   4.489   0.060   6.297  0.3469 -0.7411 -0.3541
 4043SOL    HW315939   4.378   0.000   6.382  0.8771 -1.4671 -0.1637
 4043SOL    MW415940   4.457   0.036   6.375  0.0038 -0.3175 -0.0092
 4044SOL     OW15941   4.630   5.741   1.290 -0.1036 -0.1700  0.1815
 4044SOL    HW215942   4.622   5.661   1.238 -1.4210  0.1655 -0.1685
 4044SOL    HW315943   4.636   5.811   1.225 -2.4123  0.3176  0.4359
 4044SOL    MW415944   4.630   5.740   1.275  0.1204 -0.0298 -0.3346
 4045SOL     OW15945   3.520   6.021   5.009  0.4646 -0.4906 -0.4480
 4045SOL    HW215946   3.518   6.017   5.105  1.8233 -1.0985 -0.4316
 4045SOL    HW315947   3.601   6.068   4.989 -0.6458  1.1639 -1.2883
 4045SOL    MW415948   3.530   6.027   5.019  0.1390 -0.4174  0.3931
 4046SOL     OW15949   1.025   2.970   2.339  0.5111 -0.1015  0.4329
 4046SOL    HW215950   0.962   2.985   2.269 -1.3246  0.4371  2.0864
 4046SOL    HW315951   0.982   2.905   2.396  0.8351  1.1944  2.2597
 4046SOL    MW415952   1.011   2.964   2.337  0.1480  0.2653 -0.2225
 4047SOL     OW15953   3.789   5.361   3.646 -0.2076  0.1932 -0.3268
 4047SOL    HW215954   3.858   5.423   3.623  0.8761 -1.3234 -1.4057
 4047SOL    HW315955   3.808   5.335   3.736  0.0863  0.4509 -0.3149
 4047SOL    MW415956   3.800   5.366   3.655  0.1689 -0.7341  0.4219
 4048SOL     OW15957   5.252   1.172   0.097  0.3514  0.0689  0.7769
 4048SOL    HW215958   5.233   1.078   0.088  1.8621 -0.1495 -0.5969
 4048SOL    HW315959   5.332   1.185   0.046  0.0396  2.1688  0.7535
 4048SOL    MW415960   5.260   1.161   0.089 -0.2792  0.2808  0.2736
 4049SOL     OW15961   2.950   4.748   6.268  0.0446  0.2167 -0.3703
 4049SOL    HW215962   2.885   4.679   6.283 -0.0834  0.5902  0.8670
 4049SOL    HW315963   3.007   4.712   6.200 -0.6350 -0.6786 -0.4916
 4049SOL    MW415964   2.949   4.734   6.261  0.1884  0.3137  0.2911
 4050SOL     OW15965   3.029   0.476   2.153 -0.3284  0.4760  0.1212
 4050SOL    HW215966   2.965   0.501   2.219  0.1776  1.0910  0.3867
 4050SOL    HW315967   3.082   0.409   2.195  0.8373  1.7986  0.8374
 4050SOL    MW415968   3.027   0.470   2.167  0.5025 -0.0846 -0.5572
 4051SOL     OW15969   4.817   2.759   5.702  0.1973 -0.0113  0.6519
 4051SOL    HW215970   4.815   2.684   5.761 -4.3492 -0.3090  0.4679
 4051SOL    HW315971   4.793   2.724   5.616  0.0282  1.3628  0.1032
 4051SOL    MW415972   4.814   2.745   5.698  0.2725  0.2697  0.3824
 4052SOL     OW15973   2.588   2.875   3.471 -0.6279 -0.5085 -0.5881
 4052SOL    HW215974   2.591   2.811   3.542 -0.1334  0.0599 -0.0873
 4052SOL    HW315975   2.680   2.896   3.453 -0.8022  0.9516  0.0782
 4052SOL    MW415976   2.600   2.869   3.478  0.5836  0.1359 -0.6427
 4053SOL     OW15977   5.266   4.699   1.715 -0.0577 -0.0486 -0.0467
 4053SOL    HW215978   5.210   4.697   1.637 -0.4201  0.6720  0.1844
 4053SOL    HW315979   5.234   4.628   1.770 -0.0196 -0.3437 -0.4026
 4053SOL    MW415980   5.255   4.690   1.712  0.9434  0.0494 -0.3120
 4054SOL     OW15981   5.480   0.740   1.633  0.1463 -0.1573 -0.3114
 4054SOL    HW215982   5.540   0.695   1.574  1.2799  1.4921 -0.5061
 4054SOL    HW315983   5.393   0.707   1.610  0.8732 -1.8566 -0.7185
 4054SOL    MW415984   5.476   0.730   1.622 -0.4336 -0.1569 -0.3319
 4055SOL     OW15985   6.384   2.788   2.130  0.5188 -0.8078 -0.5073
 4055SOL    HW215986   6.456   2.817   2.186  0.6634 -0.3148 -0.9382
 4055SOL    HW315987   6.325   2.864   2.126 -1.4488 -2.0204  2.0301
 4055SOL    MW415988   6.385   2.802   2.137 -0.1254  0.0761 -0.2709
 4056SOL     OW15989   2.724   1.290   0.926  1.0285 -0.4754  0.2951
 4056SOL    HW215990   2.790   1.264   0.991 -0.0347 -0.1511  1.5480
 4056SOL    HW315991   2.720   1.385   0.934  1.1901 -0.3831 -0.5845
 4056SOL    MW415992   2.732   1.299   0.936  0.3549 -0.3125 -0.1493
 4057SOL     OW15993   3.490   2.824   2.912  0.2741  0.5332 -0.3771
 4057SOL    HW215994   3.417   2.874   2.950  0.8866  1.6232 -0.5844
 4057SOL    HW315995   3.567   2.879   2.926  1.3082 -1.1593  0.9613
 4057SOL    MW415996   3.490   2.838   2.919  0.1522  0.5538 -0.3764
 4058SOL     OW15997   4.853   1.547   5.502 -0.4462 -0.1587 -0.4384
 4058SOL    HW215998   4.890   1.574   5.586 -0.4938 -2.7175  0.4896
 4058SOL    HW315999   4.787   1.614   5.483  2.1322  2.6134 -0.4359
 4058SOL    MW416000   4.849   1.560   5.511 -0.4617 -0.1634 -0.0912
 4059SOL     OW16001   5.821   6.281   3.638 -0.0733  0.2543  0.2286
 4059SOL    HW216002   5.759   6.348   3.612  1.3987  1.0663 -1.4146
 4059SOL    HW316003   5.771   6.222   3.695 -1.9489  1.5740  0.0265
 4059SOL    MW416004   5.806   6.282   3.642 -0.1673  0.1739  0.1781
 4060SOL     OW16005   5.158   3.563   1.772  0.4526 -0.2870  0.7115
 4060SOL    HW216006   5.245   3.601   1.789  0.9152 -1.2338  0.5149
 4060SOL    HW316007   5.144   3.502   1.843  0.5795 -1.1939 -0.0269
 4060SOL    MW416008   5.168   3.560   1.783 -0.2851  0.2850 -0.2410
 4061SOL     OW16009   1.146   5.255   2.517  0.6640 -0.2644  0.4644
 4061SOL    HW216010   1.215   5.190   2.532  1.6017  0.6811  0.4017
 4061SOL    HW316011   1.185   5.317   2.454 -0.7142 -0.4045 -0.5541
 4061SOL    MW416012   1.161   5.255   2.511  0.2392 -0.2440 -0.3014
 4062SOL     OW16013   0.553   5.282   5.973  0.1642 -0.0077  0.8093
 4062SOL    HW216014   0.561   5.243   5.886 -1.2882 -0.8514  1.0278
 4062SOL    HW316015   0.600   5.366   5.966 -1.6262  0.9141 -1.3913
 4062SOL    MW416016   0.560   5.288   5.960 -0.4752  0.3912 -0.7142
 4063SOL     OW16017   4.318   6.154   1.610  0.1728 -0.0278 -0.0606
 4063SOL    HW216018   4.316   6.131   1.517  1.0402  1.9620 -0.6134
 4063SOL    HW316019   4.247   6.217   1.621  0.5976  0.3647  0.4517
 4063SOL    MW416020   4.308   6.159   1.599  0.1332  0.1121 -0.3812
 4064SOL     OW16021   4.594   0.817   6.007 -0.2813  0.0710 -0.0955
 4064SOL    HW216022   4.655   0.875   6.052 -0.3715 -1.1075  1.6687
 4064SOL    HW316023   4.621   0.819   5.915  0.3966  1.9883  0.1016
 4064SOL    MW416024   4.605   0.825   6.001 -0.2339  0.0393  0.2819
 4065SOL     OW16025   4.034   2.998   6.108 -0.2034 -0.2723  0.5498
 4065SOL    HW216026   4.127   2.999   6.129 -0.0018  0.1341 -0.3176
 4065SOL    HW316027   4.029   3.032   6.018 -1.3534  1.5842  1.2577
 4065SOL    MW416028   4.046   3.003   6.099 -0.2687 -0.0396 -0.4863
 4066SOL     OW16029   3.741   0.522   3.762 -0.4233 -0.3835  0.0719
 4066SOL    HW216030   3.830   0.550   3.783 -0.2571 -0.9815  0.1772
 4066SOL    HW316031   3.686   0.567   3.825 -0.5865  2.6467 -1.9883
 4066SOL    MW416032   3.746   0.531   3.773  0.3340 -0.6718  0.2451
 4067SOL     OW16033   6.201   5.000   3.919  0.9252 -0.1894  0.1971
 4067SOL    HW216034   6.216   4.906   3.907 -0.5568 -0.3452 -0.6932
 4067SOL    HW316035   6.176   5.009   4.011  0.5960 -0.7434  0.1645
 4067SOL    MW416036   6.200   4.989   3.930 -0.1274 -0.0518 -0.3048
 4068SOL     OW16037   6.073   5.025   5.473  0.0515  0.2104 -0.4795
 4068SOL    HW216038   6.132   4.999   5.402  0.6931 -1.3685  0.5811
 4068SOL    HW316039   6.126   5.020   5.552 -0.8838  1.0859  0.2349
 4068SOL    MW416040   6.088   5.021   5.474 -1.3007 -0.2226  0.0465
 4069SOL     OW16041   0.608   0.858   1.057  0.1717  0.1480 -0.3183
 4069SOL    HW216042   0.697   0.826   1.074  0.6341  0.6980 -1.5971
 4069SOL    HW316043   0.587   0.824   0.970 -0.9057 -0.0162 -0.0049
 4069SOL    MW416044   0.617   0.849   1.048 -0.2231 -0.4163 -0.6734
 4070SOL     OW16045   2.505   1.628   1.577 -0.0287 -0.4550 -0.2522
 4070SOL    HW216046   2.580   1.571   1.562  1.1536  0.5627  1.3876
 4070SOL    HW316047   2.540   1.717   1.565 -0.8276  0.0533  1.0085
 4070SOL    MW416048   2.520   1.632   1.574 -0.3213  0.0969  0.5103
 4071SOL     OW16049   3.979   2.822   4.112  0.5045 -0.4106 -0.2115
 4071SOL    HW216050   3.925   2.791   4.184 -0.9766 -1.7494 -1.7883
 4071SOL    HW316051   3.938   2.903   4.083  1.9320  0.9024  1.2799
 4071SOL    MW416052   3.966   2.828   4.117  0.0556  0.3031 -0.0207
 4072SOL     OW16053   0.441   5.727   1.273 -0.1996 -0.2188  0.3883
 4072SOL    HW216054   0.444   5.771   1.358  0.3985 -3.6485  2.3299
 4072SOL    HW316055   0.533   5.721   1.246 -0.1039 -1.5817  0.9470
 4072SOL    MW416056   0.454   5.732   1.281  0.0196  0.2549 -0.0026
 4073SOL     OW16057   6.248   5.753   3.911 -0.3275  0.3358  0.5211
 4073SOL    HW216058   6.193   5.785   3.982 -0.1958  0.4728  0.5607
 4073SOL    HW316059   6.187   5.705   3.854 -0.5884  0.9293  0.2902
 4073SOL    MW416060   6.233   5.751   3.913  0.2503  0.1166 -0.2241
 4074SOL     OW16061   1.549   4.647   5.599  0.1700 -0.3151 -0.1391
 4074SOL    HW216062   1.467   4.652   5.548 -0.5586 -0.5358  0.9788
 4074SOL    HW316063   1.533   4.578   5.662  1.2895 -0.4446  0.0134
 4074SOL    MW416064   1.536   4.639   5.600  0.4192 -0.6998 -0.1261
 4075SOL     OW16065   4.662   0.871   5.745  0.0730 -0.0151  0.3879
 4075SOL    HW216066   4.649   0.966   5.737 -0.8456 -0.1501  0.1200
 4075SOL    HW316067   4.616   0.834   5.670  2.3023 -0.5620 -0.7783
 4075SOL    MW416068   4.654   0.879   5.734  0.7661  0.2089 -0.4068
 4076SOL     OW16069   5.472   3.884   3.241 -0.2235  0.2530  0.3072
 4076SOL    HW216070   5.561   3.916   3.255 -0.1347 -0.0808  0.5141
 4076SOL    HW316071   5.448   3.915   3.154  1.1258 -1.9935 -0.9674
 4076SOL    MW416072   5.480   3.892   3.231 -0.4506  0.1779 -0.1164
 4077SOL     OW16073   3.657   5.110   0.612  0.1680  0.1307  0.0503
 4077SOL    HW216074   3.716   5.065   0.673 -0.0453  0.3314  0.4088
 4077SOL    HW316075   3.580   5.054   0.608 -0.3982  0.7894  1.0491
 4077SOL    MW416076   3.654   5.097   0.620 -0.6523 -0.2842 -0.2411
 4078SOL     OW16077   1.797   4.652   5.503 -0.3988  0.6277  0.0036
 4078SOL    HW216078   1.821   4.559   5.498 -1.4454  0.4088 -1.5176
 4078SOL    HW316079   1.702   4.652   5.514 -0.3483  1.5386  0.5520
 4078SOL    MW416080   1.788   4.640   5.504  0.6717 -0.1185  0.0689
 4079SOL     OW16081   2.670   5.774   0.942  0.4030 -0.5537  0.5050
 4079SOL    HW216082   2.680   5.864   0.974  0.2672  0.9481 -3.2231
 4079SOL    HW316083   2.576   5.757   0.950 -0.1046  0.9040 -1.5282
 4079SOL    MW416084   2.659   5.784   0.947  0.0331  0.3894  0.1743
 4080SOL     OW16085   2.738   3.763   2.779  0.1327  0.0743  0.8187
 4080SOL    HW216086   2.821   3.753   2.733 -0.8442 -1.4583 -0.7312
 4080SOL    HW316087   2.756   3.829   2.846  2.0907  1.1437 -0.6371
 4080SOL    MW416088   2.751   3.770   2.782 -0.1700 -0.1071 -0.3345
 4081SOL     OW16089   5.966   4.848   1.601 -0.3376  0.2064  0.6563
 4081SOL    HW216090   6.058   4.854   1.625 -0.2225  0.4164  0.1580
 4081SOL    HW316091   5.960   4.769   1.547 -0.4658  0.1532  0.7467
 4081SOL    MW416092   5.977   4.838   1.597  0.4535  0.2281 -0.0590
 4082SOL     OW16093   3.152   5.209   0.365 -0.1363 -0.4774 -0.3469
 4082SOL    HW216094   3.098   5.214   0.444 -1.1156  1.5004 -1.0923
 4082SOL    HW316095   3.227   5.266   0.383 -1.5926  2.0032 -1.6876
 4082SOL    MW416096   3.155   5.217   0.378  0.4953 -0.0375 -0.1747
 4083SOL     OW16097   0.671   5.117   3.828 -0.3780  0.4647 -0.2698
 4083SOL    HW216098   0.611   5.056   3.869 -0.1721  2.1099  2.7808
 4083SOL    HW316099   0.649   5.202   3.866  2.3759  1.5152 -0.7284
 4083SOL    MW416100   0.660   5.120   3.838  0.2135  0.1070 -0.2224
 4084SOL     OW16101   3.380   2.187   5.699  0.0439  0.1165 -0.0115
 4084SOL    HW216102   3.340   2.274   5.686  1.5671  0.4261 -4.5253
 4084SOL    HW316103   3.473   2.205   5.711  0.1593 -0.8813  0.6894
 4084SOL    MW416104   3.387   2.201   5.698  0.2438 -0.5123  0.2239
 4085SOL     OW16105   4.615   3.375   5.555 -0.6180  0.2705  0.2550
 4085SOL    HW216106   4.619   3.468   5.533 -1.4827 -0.1664 -2.1179
 4085SOL    HW316107   4.705   3.344   5.547 -0.5138  0.6735 -0.1387
 4085SOL    MW416108   4.627   3.383   5.551  0.4263  0.1056 -0.3625
 4086SOL     OW16109   2.018   6.254   1.877 -0.0314 -0.0596 -0.3519
 4086SOL    HW216110   1.998   6.214   1.792  0.3173 -1.2239  0.0842
 4086SOL    HW316111   2.049   6.181   1.931  0.5291  0.7983  0.5315
 4086SOL    MW416112   2.020   6.239   1.873 -0.3890  0.3361  0.1577
 4087SOL     OW16113   1.942   5.191   4.424 -0.0650 -0.7580  0.4836
 4087SOL    HW216114   1.973   5.109   4.387 -0.1880 -0.4034 -0.4494
 4087SOL    HW316115   1.885   5.227   4.356 -1.2240 -0.6233  1.4959
 4087SOL    MW416116   1.938   5.185   4.410  0.1555  0.1873  0.1830
 4088SOL     OW16117   0.627   6.413   2.951  0.2917 -0.2825 -0.5380
 4088SOL    HW216118   0.614   6.500   2.988 -1.8565 -0.9038  0.3569
 4088SOL    HW316119   0.700   6.422   2.890  1.4688  1.6426  1.0897
 4088SOL    MW416120   0.635   6.425   2.947  0.8157  0.0768  0.7277
 4089SOL     OW16121   0.237   1.903   3.057  0.0244 -1.0164  0.7099
 4089SOL    HW216122   0.232   1.819   3.011 -1.7263 -0.7880  0.3825
 4089SOL    HW316123   0.245   1.968   2.987  0.9843 -0.8738  0.9413
 4089SOL    MW416124   0.237   1.901   3.042  0.7245 -0.1474 -0.2694
 4090SOL     OW16125   1.083   2.412   4.792  0.1735 -0.1667  0.6363
 4090SOL    HW216126   1.103   2.408   4.886  1.9248 -1.7459  0.2488
 4090SOL    HW316127   1.131   2.489   4.761  3.0267 -1.9064  0.3793
 4090SOL    MW416128   1.092   2.422   4.800 -0.0622  0.4394  0.6725
 4091SOL     OW16129   0.945   4.081   4.775  0.0199  0.0687  0.4528
 4091SOL    HW216130   0.984   4.080   4.862  1.0401 -1.5496  0.0157
 4091SOL    HW316131   0.886   4.005   4.773 -1.6237  1.2716  0.3894
 4091SOL    MW416132   0.942   4.071   4.786  0.1367 -0.1710 -0.4146
 4092SOL     OW16133   2.398   6.089   2.172 -0.0218 -0.0646 -0.0360
 4092SOL    HW216134   2.317   6.137   2.188  0.0048 -0.2701  0.7552
 4092SOL    HW316135   2.387   6.050   2.085 -0.9970 -0.5321  0.2879
 4092SOL    MW416136   2.386   6.090   2.162 -0.3746  0.6113  0.5557
 4093SOL     OW16137   5.486   1.849   1.202  0.4847 -0.5024 -0.2462
 4093SOL    HW216138   5.479   1.914   1.132  2.0349 -0.2304 -0.1830
 4093SOL    HW316139   5.472   1.765   1.158 -0.1842 -0.2322 -0.5691
 4093SOL    MW416140   5.483   1.846   1.187 -0.2013 -0.3282 -0.0982
 4094SOL     OW16141   1.584   4.406   3.656  0.0256  0.8905 -0.4112
 4094SOL    HW216142   1.628   4.486   3.685  2.0994 -0.3557  0.0993
 4094SOL    HW316143   1.630   4.335   3.701 -1.2929 -0.6492 -1.3610
 4094SOL    MW416144   1.596   4.407   3.665  0.2443  0.0006  0.2676
 4095SOL     OW16145   4.356   5.352   1.953  0.1538 -0.3018  0.1082
 4095SOL    HW216146   4.427   5.357   2.017  0.6111 -3.1060 -0.0476
 4095SOL    HW316147   4.400   5.336   1.869 -0.5729 -2.2538  0.0354
 4095SOL    MW416148   4.371   5.350   1.950 -0.1198 -0.1085  0.2562
 4096SOL     OW16149   1.584   1.688   4.300 -0.3721  0.1869 -0.2208
 4096SOL    HW216150   1.629   1.655   4.222 -0.3946  0.3447 -0.3018
 4096SOL    HW316151   1.529   1.760   4.267 -0.1309  0.4725 -0.0085
 4096SOL    MW416152   1.582   1.693   4.285 -0.5038  0.5428 -0.1230
 4097SOL     OW16153   6.312   2.903   1.341  0.0984 -0.1809 -0.1734
 4097SOL    HW216154   6.229   2.856   1.331 -0.3732  0.3441  1.0332
 4097SOL    HW316155   6.359   2.887   1.259 -2.2096  1.5054 -1.9763
 4097SOL    MW416156   6.307   2.895   1.329  0.2665  0.1994 -0.5666
 4098SOL     OW16157   3.144   1.515   1.344 -0.0475  1.0136  0.2475
 4098SOL    HW216158   3.187   1.434   1.372 -3.3778 -0.6853  1.0082
 4098SOL    HW316159   3.211   1.563   1.295  2.4288 -1.6182  0.8104
 4098SOL    MW416160   3.158   1.511   1.341 -0.0648  0.8500  1.2061
 4099SOL     OW16161   5.810   5.056   6.093 -1.1861 -0.3020  0.2994
 4099SOL    HW216162   5.729   5.004   6.088 -1.0888 -0.4932  0.7152
 4099SOL    HW316163   5.782   5.139   6.132 -1.2152 -0.2970  0.2685
 4099SOL    MW416164   5.795   5.060   6.097 -0.7405 -0.1069  0.0688
 4100SOL     OW16165   0.425   0.523   3.871 -0.2517 -0.9899 -0.3034
 4100SOL    HW216166   0.406   0.604   3.824  0.3938 -2.2741 -3.0241
 4100SOL    HW316167   0.342   0.498   3.911 -0.5099  0.8476  0.3656
 4100SOL    MW416168   0.411   0.530   3.870 -0.4173 -0.1005  0.5210
 4101SOL     OW16169   1.488   2.417   4.003  0.0437 -0.1111  0.1488
 4101SOL    HW216170   1.464   2.341   3.951 -2.3965 -0.6081  1.8400
 4101SOL    HW316171   1.526   2.379   4.083 -2.2146  0.2753  1.5014
 4101SOL    MW416172   1.490   2.402   4.007 -0.1733  0.3163  0.0471
 4102SOL     OW16173   6.154   5.450   4.110 -0.0508 -0.0661  0.4507
 4102SOL    HW216174   6.096   5.375   4.101 -0.5525  0.1138  1.9268
 4102SOL    HW316175   6.242   5.412   4.112 -0.1917 -0.4629 -0.3337
 4102SOL    MW416176   6.158   5.435   4.109  0.0226 -0.4290  0.2867
 4103SOL     OW16177   0.156   5.444   3.707  0.4471 -0.4240 -0.1539
 4103SOL    HW216178   0.087   5.464   3.770  1.8402 -1.0628  1.6325
 4103SOL    HW316179   0.108   5.421   3.627 -1.3452  1.7707  0.1773
 4103SOL    MW416180   0.140   5.444   3.705 -0.0217 -0.8520  0.7689
 4104SOL     OW16181   3.046   5.818   1.600 -0.4676 -0.3578  0.6764
 4104SOL    HW216182   2.967   5.873   1.592  0.4049  0.9350  0.6387
 4104SOL    HW316183   3.119   5.879   1.585  0.5067 -1.8162 -0.9258
 4104SOL    MW416184   3.045   5.833   1.597  0.3976  0.4011 -0.7017
 4105SOL     OW16185   3.427   4.961   2.261  0.3986 -0.3595  0.3445
 4105SOL    HW216186   3.426   5.032   2.326  1.3839  0.5264 -0.5605
 4105SOL    HW316187   3.406   4.882   2.311  1.0106  0.3095  1.7134
 4105SOL    MW416188   3.424   4.960   2.276  0.6575 -0.3636 -0.9125
 4106SOL     OW16189   3.068   2.294   6.011  0.1203 -0.2182  0.4833
 4106SOL    HW216190   3.131   2.224   5.998 -1.5568 -1.5100 -1.1250
 4106SOL    HW316191   3.073   2.346   5.931 -0.0313  0.3893  0.8585
 4106SOL    MW416192   3.077   2.292   5.999 -0.4761  0.6847 -0.1247
 4107SOL     OW16193   5.584   3.337   5.529  0.9443 -0.3017 -0.3355
 4107SOL    HW216194   5.506   3.310   5.578  1.1007  0.2182  0.2162
 4107SOL    HW316195   5.653   3.278   5.561  0.9920 -0.1195 -0.0943
 4107SOL    MW416196   5.583   3.325   5.540  0.2046 -0.1640  0.5628
 4108SOL     OW16197   4.579   1.905   2.959 -0.5678 -0.1608 -0.2957
 4108SOL    HW216198   4.621   1.819   2.957  0.4703  0.3103  0.3187
 4108SOL    HW316199   4.538   1.909   3.045  0.5565  0.4779  0.2283
 4108SOL    MW416200   4.579   1.894   2.970 -0.0097 -0.3807  0.1388
 4109SOL     OW16201   2.839   2.555   1.951 -0.2981 -0.1626  0.1834
 4109SOL    HW216202   2.849   2.480   1.893  0.2458  0.3123 -0.3494
 4109SOL    HW316203   2.892   2.624   1.911 -0.8169  0.5191  0.6481
 4109SOL    MW416204   2.847   2.554   1.938 -0.1556  0.0895 -0.1706
 4110SOL     OW16205   3.840   2.470   6.171 -0.1672  0.0820 -0.2284
 4110SOL    HW216206   3.910   2.472   6.106 -0.7979 -1.7716 -0.9952
 4110SOL    HW316207   3.770   2.522   6.133  0.9882  2.7282  0.9198
 4110SOL    MW416208   3.840   2.477   6.158  0.0374 -0.0372 -0.1091
 4111SOL     OW16209   3.309   4.688   4.553 -0.2945  0.2704  0.1665
 4111SOL    HW216210   3.230   4.695   4.500  1.0776  0.3993 -2.0117
 4111SOL    HW316211   3.321   4.775   4.590 -0.6699  0.5128 -0.2679
 4111SOL    MW416212   3.300   4.701   4.551  0.5112  0.1566  0.2064
 4112SOL     OW16213   1.616   2.440   2.784  0.7819  0.2626 -0.0950
 4112SOL    HW216214   1.681   2.476   2.724 -0.3650  2.8759  0.0822
 4112SOL    HW316215   1.579   2.517   2.828 -2.6105 -1.0541 -0.3783
 4112SOL    MW416216   1.620   2.455   2.782  0.0857  0.2531  0.7189
 4113SOL     OW16217   3.170   5.126   2.620  0.4167 -0.1183  0.0786
 4113SOL    HW216218   3.155   5.213   2.657  0.1384 -0.2264  0.2264
 4113SOL    HW316219   3.257   5.130   2.581  0.8618 -0.1042  1.0493
 4113SOL    MW416220   3.180   5.138   2.619  0.5404 -0.0967 -0.6106
 4114SOL     OW16221   0.989   4.043   3.630  0.3069  0.3469 -0.4926
 4114SOL    HW216222   1.031   4.099   3.696 -0.6618  1.0970 -0.4899
 4114SOL    HW316223   0.912   4.093   3.602  0.2215 -0.3501 -1.5580
 4114SOL    MW416224   0.985   4.057   3.635 -0.8584  0.0165 -0.0434
 4115SOL     OW16225   3.361   5.996   2.724 -0.5620  0.1472 -0.0514
 4115SOL    HW216226   3.412   6.074   2.749 -0.0476 -0.3394  0.4365
 4115SOL    HW316227   3.427   5.930   2.705 -0.9935 -0.8025  1.5700
 4115SOL    MW416228   3.377   5.998   2.725  0.0389 -0.3761  0.2367
 4116SOL     OW16229   0.826   2.643   4.649 -0.2566 -0.0213  0.1172
 4116SOL    HW216230   0.854   2.672   4.736  1.6415 -0.2317 -0.3765
 4116SOL    HW316231   0.906   2.609   4.609 -1.0543  0.2648 -1.7947
 4116SOL    MW416232   0.840   2.642   4.655  0.2053 -0.1183 -0.3324
 4117SOL     OW16233   3.243   1.963   2.733  0.0137  0.0372 -0.0499
 4117SOL    HW216234   3.170   2.005   2.686 -2.2180 -3.2521  0.1447
 4117SOL    HW316235   3.240   2.001   2.821 -1.1534  0.3370 -0.2036
 4117SOL    MW416236   3.233   1.974   2.738 -0.4822 -0.0163  0.1668
 4118SOL     OW16237   6.191   4.206   3.650  0.4871  0.5501  0.4901
 4118SOL    HW216238   6.281   4.233   3.671  0.8240  1.2543 -1.6298
 4118SOL    HW316239   6.200   4.152   3.572 -0.8810 -0.0655  0.7315
 4118SOL    MW416240   6.204   4.202   3.642 -0.6938 -0.7594 -0.2429
 4119SOL     OW16241   6.350   1.893   4.764  0.4263 -0.6096  0.4194
 4119SOL    HW216242   6.296   1.950   4.710 -0.6920 -0.2811  1.8102
 4119SOL    HW316243   6.356   1.939   4.848  2.1219 -1.0870  0.5867
 4119SOL    MW416244   6.343   1.906   4.768  0.2144  0.4477  0.1685
 4120SOL     OW16245   2.395   4.667   5.264  0.0405 -0.1817  0.4392
 4120SOL    HW216246   2.394   4.665   5.169 -0.4027 -1.5502  0.4450
 4120SOL    HW316247   2.481   4.703   5.287 -0.3152  1.3064 -0.4520
 4120SOL    MW416248   2.406   4.671   5.255  0.5772  0.1179 -0.0759
 4121SOL     OW16249   1.837   0.435   5.917 -0.5900  0.0666  0.7037
 4121SOL    HW216250   1.848   0.467   6.007  0.7320  2.0872 -0.1033
 4121SOL    HW316251   1.742   0.434   5.904 -0.7599  1.1592  1.6735
 4121SOL    MW416252   1.826   0.439   5.928 -0.3800  0.2726  0.0722
 4122SOL     OW16253   0.398   5.221   4.838  0.0432  0.1787 -0.0891
 4122SOL    HW216254   0.390   5.184   4.750 -1.7766  1.1593 -0.3853
 4122SOL    HW316255   0.308   5.236   4.866  0.5612 -0.2413  2.0324
 4122SOL    MW416256   0.385   5.218   4.830 -0.0908 -0.3493 -0.7906
 4123SOL     OW16257   2.785   0.852   2.604  0.0724 -0.0633  0.8307
 4123SOL    HW216258   2.759   0.774   2.555  0.0320  0.5237 -0.1134
 4123SOL    HW316259   2.753   0.836   2.692 -2.9473  0.2678 -0.0779
 4123SOL    MW416260   2.777   0.840   2.609  0.7307 -0.1552 -0.7772
 4124SOL     OW16261   3.313   1.232   4.941  0.1094  0.1071 -0.2601
 4124SOL    HW216262   3.284   1.184   4.863  0.1253 -1.1587  0.4807
 4124SOL    HW316263   3.395   1.274   4.915  1.2990 -2.1087 -0.3299
 4124SOL    MW416264   3.320   1.231   4.927 -0.5282 -0.4172 -0.0172
 4125SOL     OW16265   2.222   0.125   5.216  0.6440 -0.0345  0.0456
 4125SOL    HW216266   2.192   0.169   5.137  0.2350  0.9550  0.7341
 4125SOL    HW316267   2.160   0.052   5.227  1.7417 -1.2727 -1.4811
 4125SOL    MW416268   2.210   0.121   5.207  0.1411  0.3020 -0.1303
 4126SOL     OW16269   2.587   3.441   1.647  0.3205  0.0368 -0.0481
 4126SOL    HW216270   2.600   3.467   1.738 -0.2462  0.3068 -0.0391
 4126SOL    HW316271   2.523   3.503   1.613 -1.7201 -1.7751  0.2099
 4126SOL    MW416272   2.580   3.452   1.655 -0.1196 -0.5866 -0.2937
 4127SOL     OW16273   1.917   4.525   3.594  0.0889 -0.8252  0.0717
 4127SOL    HW216274   1.998   4.566   3.626  0.4999 -0.2885 -1.5799
 4127SOL    HW316275   1.927   4.432   3.615  0.4101 -0.5374  1.3084
 4127SOL    MW416276   1.929   4.518   3.601 -0.1955 -0.3489 -0.5799
 4128SOL     OW16277   4.550   0.027   4.533  0.1124  0.1726  0.4620
 4128SOL    HW216278   4.482   0.076   4.580  0.3154 -0.0915  1.0368
 4128SOL    HW316279   4.602  -0.015   4.602  1.6205  1.3465  0.1061
 4128SOL    MW416280   4.548   0.028   4.548  0.3906  0.2697  0.1831
 4129SOL     OW16281   0.694   6.223   5.909  0.4998 -0.6828  0.4110
 4129SOL    HW216282   0.646   6.306   5.920  1.2554 -0.3683  1.5943
 4129SOL    HW316283   0.726   6.225   5.819 -0.3866 -0.1864  0.0915
 4129SOL    MW416284   0.692   6.235   5.899 -0.4626  0.8143  1.1091
 4130SOL     OW16285   5.316   5.158   1.619  0.1360 -0.1009 -0.1756
 4130SOL    HW216286   5.395   5.134   1.668 -1.0048 -2.1924  0.7788
 4130SOL    HW316287   5.288   5.241   1.657  0.7839 -0.3471  0.8639
 4130SOL    MW416288   5.322   5.166   1.630  0.1620 -0.0617  0.7654
 4131SOL     OW16289   3.685   4.440   3.426 -0.4736  0.1062  0.6712
 4131SOL    HW216290   3.722   4.402   3.506 -1.5954  0.2647  1.2754
 4131SOL    HW316291   3.734   4.398   3.356 -0.0117 -0.6338  1.4116
 4131SOL    MW416292   3.697   4.430   3.428  0.1201  0.0386 -0.2190
 4132SOL     OW16293   6.455   1.199   3.043 -0.2432 -0.2395 -0.1640
 4132SOL    HW216294   6.503   1.147   3.107  0.8553 -4.5377 -3.9948
 4132SOL    HW316295   6.364   1.171   3.052 -0.0497 -1.0333 -0.5926
 4132SOL    MW416296   6.449   1.189   3.053 -0.5277 -0.6758 -0.0341
 4133SOL     OW16297   6.271   1.649   1.924 -0.5831  0.2277  0.6111
 4133SOL    HW216298   6.255   1.721   1.864 -2.4351  0.6446  1.5356
 4133SOL    HW316299   6.312   1.689   2.001 -1.5614  0.3225  1.1020
 4133SOL    MW416300   6.274   1.664   1.926  0.1903  0.0155 -0.3689
 4134SOL     OW16301   4.804   5.314   5.015  0.5233  0.1099  0.4596
 4134SOL    HW216302   4.710   5.298   5.005  0.2007  2.3660 -1.0984
 4134SOL    HW316303   4.846   5.255   4.952 -0.0422  0.5751 -0.3670
 4134SOL    MW416304   4.797   5.304   5.005  0.1758  0.0350 -0.2033
 4135SOL     OW16305   5.066   1.400   3.606 -0.3962 -0.2702 -0.3920
 4135SOL    HW216306   5.051   1.474   3.546 -1.0539 -0.0921 -0.0250
 4135SOL    HW316307   5.153   1.417   3.643 -0.2721 -0.0189 -0.7860
 4135SOL    MW416308   5.075   1.412   3.603 -0.5646  0.8366 -0.6441
 4136SOL     OW16309   1.232   2.850   6.313  0.3964  0.2336  0.1433
 4136SOL    HW216310   1.256   2.786   6.247 -2.3074 -0.6063 -0.1426
 4136SOL    HW316311   1.180   2.915   6.266  0.0623  0.6784  1.0962
 4136SOL    MW416312   1.228   2.850   6.298 -0.3381  0.6021  0.0205
 4137SOL     OW16313   3.953   2.004   5.397 -0.2187  0.6012  0.1264
 4137SOL    HW216314   4.019   1.951   5.441  0.5262  1.3627 -0.0366
 4137SOL    HW316315   4.004   2.070   5.349 -1.0750  0.7922 -0.5425
 4137SOL    MW416316   3.968   2.006   5.396  0.3371 -0.4081 -0.0866
 4138SOL     OW16317   1.578   6.312   2.962 -0.8668 -0.1682 -0.2259
 4138SOL    HW216318   1.599   6.316   2.869 -2.1687  0.4505 -0.5149
 4138SOL    HW316319   1.490   6.349   2.969  0.4080  2.9873  1.6660
 4138SOL    MW416320   1.569   6.317   2.951  0.1146  0.2322  0.4280
 4139SOL     OW16321   4.576   6.039   3.204  0.6167 -0.0583 -0.1523
 4139SOL    HW216322   4.636   5.989   3.149  0.1057  0.5229 -1.2762
 4139SOL    HW316323   4.547   6.111   3.148  1.4133  1.5820  1.4234
 4139SOL    MW416324   4.580   6.042   3.189 -0.2702  0.0667  0.0996
 4140SOL     OW16325   1.449   0.765   5.958  0.0214 -0.0912 -0.8298
 4140SOL    HW216326   1.496   0.684   5.939  0.6999  0.4062 -1.2720
 4140SOL    HW316327   1.397   0.744   6.036  2.8403  0.0320  1.2554
 4140SOL    MW416328   1.448   0.751   5.966  0.4524  0.0711  0.1991
 4141SOL     OW16329   1.558   4.881   2.185 -0.7567 -0.3135 -0.4059
 4141SOL    HW216330   1.549   4.792   2.152 -2.6617 -0.5563  0.6021
 4141SOL    HW316331   1.496   4.886   2.258  0.6426  1.2958  0.7525
 4141SOL    MW416332   1.548   4.870   2.190  0.0265 -0.0596 -0.1628
 4142SOL     OW16333   5.763   0.328   2.009  0.2842 -0.0432  0.3699
 4142SOL    HW216334   5.670   0.309   2.021  0.0116  0.4292 -0.8977
 4142SOL    HW316335   5.781   0.396   2.074 -0.9799  1.9475 -1.2390
 4142SOL    MW416336   5.753   0.334   2.019 -0.4271  0.8989  0.2448
 4143SOL     OW16337   5.571   5.787   0.798  0.1000 -0.4377  0.6062
 4143SOL    HW216338   5.663   5.813   0.799  0.0552 -0.2256 -0.0116
 4143SOL    HW316339   5.569   5.708   0.745  0.0152 -0.8310  1.1861
 4143SOL    MW416340   5.583   5.780   0.791 -0.0876  0.6307  0.0344
 4144SOL     OW16341   1.857   3.743   5.231 -0.0588 -0.2302 -0.1170
 4144SOL    HW216342   1.882   3.768   5.142 -0.7530 -0.3069 -0.3431
 4144SOL    HW316343   1.924   3.681   5.258  0.2567 -0.0711 -0.5226
 4144SOL    MW416344   1.869   3.738   5.223 -0.0634  0.2220 -0.0479
 4145SOL     OW16345   5.599   5.426   1.759  0.0175  0.4342 -0.7791
 4145SOL    HW216346   5.507   5.403   1.772  0.3408  0.0635  1.0855
 4145SOL    HW316347   5.648   5.360   1.808  1.2523  1.0989 -1.0708
 4145SOL    MW416348   5.594   5.414   1.767  0.1844  0.4467 -0.4404
 4146SOL     OW16349   5.188   5.958   0.216 -0.1840 -0.5283  0.8781
 4146SOL    HW216350   5.267   5.992   0.259 -0.3705  0.8483  0.2239
 4146SOL    HW316351   5.219   5.932   0.129 -0.6910  1.7477 -0.0794
 4146SOL    MW416352   5.203   5.959   0.210  0.4170  0.2467  0.6972
 4147SOL     OW16353   0.558   1.166   0.236 -0.0042  0.0258 -0.4656
 4147SOL    HW216354   0.604   1.147   0.154 -1.1476  0.6576 -1.2782
 4147SOL    HW316355   0.475   1.119   0.228 -0.2070  0.2466  0.2614
 4147SOL    MW416356   0.553   1.157   0.224  0.0617  0.4690 -0.3531
 4148SOL     OW16357   5.325   6.385   6.216  0.0458  0.2133  0.0754
 4148SOL    HW216358   5.307   6.321   6.285  0.7240  0.1047  0.1576
 4148SOL    HW316359   5.356   6.462   6.263 -1.8496  1.0485  0.0721
 4148SOL    MW416360   5.327   6.386   6.231 -0.2567 -0.0866  0.3784
 4149SOL     OW16361   4.531   5.557   5.952 -0.3268  0.4082 -0.6604
 4149SOL    HW216362   4.452   5.605   5.975 -0.1101  0.2300  0.5504
 4149SOL    HW316363   4.529   5.549   5.857 -1.5474  0.7605 -0.6687
 4149SOL    MW416364   4.521   5.563   5.943 -0.0065  0.0049 -0.0439
 4150SOL     OW16365   0.389   2.959   3.115  0.2877 -0.2240  0.1188
 4150SOL    HW216366   0.443   2.905   3.173 -0.1506  0.8787  1.6056
 4150SOL    HW316367   0.441   3.037   3.100 -0.1104  0.0189  0.0041
 4150SOL    MW416368   0.403   2.962   3.120 -0.0022  0.3754 -0.0115
 4151SOL     OW16369   0.810   1.777   5.950  0.4606  0.2432  0.2482
 4151SOL    HW216370   0.883   1.821   5.995  0.9672 -1.1528  0.8575
 4151SOL    HW316371   0.847   1.749   5.867  0.1471  0.9287 -0.1269
 4151SOL    MW416372   0.825   1.780   5.945 -0.3278 -0.7755  0.4025
 4152SOL     OW16373   5.679   2.666   4.472 -0.1837 -0.3707  0.1450
 4152SOL    HW216374   5.721   2.725   4.534  1.0413 -0.4714 -0.5704
 4152SOL    HW316375   5.641   2.724   4.406  2.9799 -0.3234 -1.8322
 4152SOL    MW416376   5.679   2.681   4.472 -0.0580  0.3993 -0.4188
 4153SOL     OW16377   2.709   3.971   4.019 -0.3085 -0.9334 -0.1904
 4153SOL    HW216378   2.673   3.921   3.946 -0.8101 -0.4351 -0.2830
 4153SOL    HW316379   2.717   4.060   3.986 -1.2551 -0.5377  0.5937
 4153SOL    MW416380   2.706   3.976   4.005  0.3536 -0.5995 -0.0084
 4154SOL     OW16381   5.391   6.265   4.066 -0.1602  0.6890 -0.4735
 4154SOL    HW216382   5.344   6.195   4.020 -2.1143  0.9448  1.0032
 4154SOL    HW316383   5.327   6.335   4.073  0.9155  1.6062  0.4185
 4154SOL    MW416384   5.377   6.265   4.061 -0.6835  0.0804  0.7556
 4155SOL     OW16385   0.227   4.400   0.557 -0.3592  0.6807 -0.2963
 4155SOL    HW216386   0.294   4.421   0.622  0.4165 -1.6546 -0.2494
 4155SOL    HW316387   0.144   4.412   0.604  0.1385  0.4618  0.6746
 4155SOL    MW416388   0.225   4.404   0.572 -0.5002  0.0985  0.0951
 4156SOL     OW16389   1.448   4.991   1.584 -0.2075  0.3325 -0.0069
 4156SOL    HW216390   1.430   4.926   1.651  4.9559 -0.4010  1.1269
 4156SOL    HW316391   1.502   4.945   1.520  1.0849  2.7261 -0.7827
 4156SOL    MW416392   1.453   4.976   1.584 -0.2436 -0.1891 -0.1696
 4157SOL     OW16393   2.780   5.213   4.494  0.2062  0.5039  0.2692
 4157SOL    HW216394   2.782   5.214   4.399 -3.1794 -0.9064  0.0512
 4157SOL    HW316395   2.774   5.121   4.518  1.0548  0.8218  1.9037
 4157SOL    MW416396   2.780   5.201   4.485 -1.1137  0.7458  0.4870
 4158SOL     OW16397   1.029   3.895   1.881 -0.5394 -0.4525  0.3738
 4158SOL    HW216398   0.968   3.823   1.872 -0.0026 -0.8988  0.2405
 4158SOL    HW316399   1.081   3.874   1.959  0.2952 -0.7308 -0.2433
 4158SOL    MW416400   1.028   3.883   1.890 -0.4147 -0.0431 -0.0642
 4159SOL     OW16401   2.839   0.843   3.081  0.4825  0.3509 -0.7499
 4159SOL    HW216402   2.787   0.806   3.009  0.0854  1.2840 -0.9478
 4159SOL    HW316403   2.784   0.833   3.158  0.1379  1.0283 -0.9012
 4159SOL    MW416404   2.825   0.837   3.082 -0.4667  0.2419 -0.3502
 4160SOL     OW16405   2.858   6.026   1.613  0.5878  0.0143 -0.1240
 4160SOL    HW216406   2.833   6.118   1.603  1.1031  0.3574  1.4514
 4160SOL    HW316407   2.866   6.013   1.707  3.9797 -0.7131 -0.4060
 4160SOL    MW416408   2.855   6.036   1.624 -0.0149  0.5137 -0.5778
 4161SOL     OW16409   4.779   5.261   2.636 -0.3291 -0.0543  0.2948
 4161SOL    HW216410   4.728   5.249   2.556 -0.8720  0.5137  0.5431
 4161SOL    HW316411   4.853   5.316   2.609  0.4196 -1.2337 -0.1582
 4161SOL    MW416412   4.782   5.267   2.622 -0.3162  0.4279 -0.4818
 4162SOL     OW16413   1.657   2.523   4.739 -0.1242 -0.9252 -0.1291
 4162SOL    HW216414   1.717   2.511   4.666  0.2303  0.3715 -0.0742
 4162SOL    HW316415   1.589   2.457   4.725  1.1407 -2.2197 -0.3441
 4162SOL    MW416416   1.656   2.513   4.728  0.2694 -0.1807 -0.6174
 4163SOL     OW16417   0.369   0.009   5.397  0.0467 -0.3079 -0.1355
 4163SOL    HW216418   0.407  -0.051   5.461 -0.3066  0.7887  1.1689
 4163SOL    HW316419   0.299  -0.041   5.355  0.8269 -1.3111 -0.2679
 4163SOL    MW416420   0.365  -0.005   5.400  0.8731  0.0166 -1.4015
 4164SOL     OW16421   2.274   4.131   5.116  0.4313 -0.4804 -0.5585
 4164SOL    HW216422   2.227   4.122   5.033 -0.8653 -1.3490  0.2420
 4164SOL    HW316423   2.291   4.041   5.144 -0.8645 -0.2775  1.0491
 4164SOL    MW416424   2.270   4.118   5.109 -0.6243 -0.1784 -0.4827
 4165SOL     OW16425   6.133   4.291   5.269  0.1297  0.0794  0.0351
 4165SOL    HW216426   6.049   4.256   5.238 -0.8215  2.0642  0.2246
 4165SOL    HW316427   6.191   4.215   5.273 -1.2143 -1.0968 -1.5675
 4165SOL    MW416428   6.130   4.276   5.265 -0.1351  0.3333  0.2867
 4166SOL     OW16429   1.553   2.997   1.530 -0.6381 -0.4566 -0.2156
 4166SOL    HW216430   1.637   2.979   1.572 -0.2820  0.6020 -0.4340
 4166SOL    HW316431   1.558   3.090   1.506 -1.5786 -0.5699 -0.8967
 4166SOL    MW416432   1.564   3.007   1.532 -0.2160  0.0317 -0.1824
 4167SOL     OW16433   1.452   4.760   0.555  0.7883 -0.4184  0.1712
 4167SOL    HW216434   1.453   4.763   0.651  0.4851 -2.7927  0.3024
 4167SOL    HW316435   1.395   4.833   0.530 -2.5103 -2.1334  2.0333
 4167SOL    MW416436   1.444   4.770   0.564 -0.4401 -0.3436 -0.1238
 4168SOL     OW16437   4.638   2.359   2.300  0.4232 -0.6341  0.9260
 4168SOL    HW216438   4.663   2.393   2.385  0.9612  2.1909 -0.2686
 4168SOL    HW316439   4.543   2.370   2.296  0.6838  1.8040  0.2005
 4168SOL    MW416440   4.629   2.365   2.310  0.0151 -0.1302 -0.1902
 4169SOL     OW16441   6.065   2.097   0.657 -0.5477 -0.0269  0.3713
 4169SOL    HW216442   6.042   2.020   0.708 -0.7465  0.1331  0.5278
 4169SOL    HW316443   6.018   2.169   0.700  0.3073  0.3247  0.7502
 4169SOL    MW416444   6.056   2.097   0.669 -0.1323 -0.0809 -0.1458
 4170SOL     OW16445   6.259   4.040   1.357 -0.1070  0.0828  0.2368
 4170SOL    HW216446   6.187   4.094   1.387 -1.5140 -0.7185 -1.4808
 4170SOL    HW316447   6.337   4.079   1.396 -1.4219  1.1042  1.9790
 4170SOL    MW416448   6.260   4.052   1.366  0.5248  0.1349  0.5013
 4171SOL     OW16449   5.155   2.714   4.907  0.1104  0.6189  0.6787
 4171SOL    HW216450   5.086   2.760   4.860  0.6078 -0.2365 -0.9340
 4171SOL    HW316451   5.232   2.770   4.897 -0.0287  0.9680  1.4423
 4171SOL    MW416452   5.156   2.728   4.900 -0.3002  0.0947 -0.2401
 4172SOL     OW16453   2.675   5.826   5.357 -0.0620  0.3353  0.0158
 4172SOL    HW216454   2.708   5.805   5.444  2.0224  1.1335 -0.5166
 4172SOL    HW316455   2.698   5.750   5.304  1.9375  1.2633 -0.5621
 4172SOL    MW416456   2.683   5.813   5.362  0.3122  0.1667  0.1885
 4173SOL     OW16457   3.460   3.260   1.333  0.1393  0.0657 -0.1190
 4173SOL    HW216458   3.417   3.201   1.396  1.6523 -0.1032  0.8210
 4173SOL    HW316459   3.431   3.348   1.359  1.2239  0.0500  1.2582
 4173SOL    MW416460   3.451   3.264   1.345 -0.0794  0.1017 -0.7488
 4174SOL     OW16461   4.613   2.173   1.398  0.0932  0.4601 -0.0444
 4174SOL    HW216462   4.615   2.196   1.491  0.2627  0.6485 -0.0944
 4174SOL    HW316463   4.678   2.103   1.390 -0.1788  0.1966  0.0445
 4174SOL    MW416464   4.622   2.167   1.410  0.1070 -0.3514 -0.1186
 4175SOL     OW16465   1.266   0.672   4.991  0.2720  0.5950 -0.2164
 4175SOL    HW216466   1.174   0.697   4.977 -0.8244 -1.9433  1.7246
 4175SOL    HW316467   1.309   0.692   4.908 -2.1172  1.4291 -1.3477
 4175SOL    MW416468   1.259   0.678   4.979  0.0616 -0.3341  0.1496
 4176SOL     OW16469   6.203   0.516   4.200  0.3891 -0.2845  0.1138
 4176SOL    HW216470   6.171   0.581   4.138 -1.8016 -0.5336  0.8939
 4176SOL    HW316471   6.251   0.567   4.265  0.7601  0.2506 -0.5719
 4176SOL    MW416472   6.205   0.532   4.200 -0.1039  0.6762  0.0685
 4177SOL     OW16473   3.370   2.891   5.910 -0.0233 -0.4391 -0.3947
 4177SOL    HW216474   3.430   2.887   5.984 -0.6571  0.4736  0.1859
 4177SOL    HW316475   3.391   2.814   5.858  3.4790  1.1478 -1.6322
 4177SOL    MW416476   3.381   2.881   5.913 -0.3150  0.0523 -0.3247
 4178SOL     OW16477   0.585   0.126   3.960 -0.6650  0.2019 -0.3062
 4178SOL    HW216478   0.602   0.034   3.936 -1.6628 -0.5845  1.7531
 4178SOL    HW316479   0.496   0.125   3.995 -0.3780  1.8064  0.5286
 4178SOL    MW416480   0.575   0.114   3.961  0.0201  0.1659  0.4389
 4179SOL     OW16481   0.114   5.345   1.870 -0.5409  0.1189 -0.8929
 4179SOL    HW216482   0.115   5.438   1.894  0.3576 -0.1059  0.0103
 4179SOL    HW316483   0.047   5.306   1.926 -1.6160  0.3667 -1.9558
 4179SOL    MW416484   0.105   5.352   1.881 -0.1396 -0.6473 -0.1325
 4180SOL     OW16485   4.735   4.490   4.673  0.1711  0.1167  0.1410
 4180SOL    HW216486   4.757   4.580   4.649  0.2451 -0.4411 -2.0979
 4180SOL    HW316487   4.803   4.465   4.736 -1.0266  2.2363  2.4321
 4180SOL    MW416488   4.747   4.498   4.678 -0.2685 -0.4550  0.5184
 4181SOL     OW16489   4.453   5.426   0.430 -0.3095  0.1902 -0.6219
 4181SOL    HW216490   4.437   5.462   0.343 -0.1483  0.5427 -0.5075
 4181SOL    HW316491   4.515   5.354   0.417  0.4489  0.8498 -0.6836
 4181SOL    MW416492   4.459   5.421   0.417 -0.5695  0.5422  0.1274
 4182SOL     OW16493   2.365   1.892   3.541  0.2135 -0.3814 -0.0762
 4182SOL    HW216494   2.420   1.814   3.528  0.3676 -0.3045  0.1018
 4182SOL    HW316495   2.413   1.944   3.606  1.8127  1.4444 -2.5147
 4182SOL    MW416496   2.379   1.889   3.548  0.3180  0.0576 -0.2809
 4183SOL     OW16497   0.164   5.083   3.648 -0.3503 -0.3189 -0.1549
 4183SOL    HW216498   0.226   5.130   3.704 -0.5593 -1.2058  0.8311
 4183SOL    HW316499   0.081   5.130   3.660 -0.0623  0.4282 -0.9276
 4183SOL    MW416500   0.161   5.096   3.657  0.0925 -0.1659  0.6097
 4184SOL     OW16501   4.534   4.596   5.709  0.2017  0.2747 -0.3982
 4184SOL    HW216502   4.441   4.596   5.730  0.4213 -1.0709  0.6988
 4184SOL    HW316503   4.557   4.689   5.700 -1.3676  0.6063 -1.3727
 4184SOL    MW416504   4.525   4.608   5.711  0.2684  0.0664  0.0804
 4185SOL     OW16505   5.214   4.937   2.096  0.0283 -0.0889 -0.0422
 4185SOL    HW216506   5.304   4.962   2.119  0.0561 -0.9324  0.8201
 4185SOL    HW316507   5.167   4.937   2.180 -0.4704 -0.8637 -0.3141
 4185SOL    MW416508   5.220   4.940   2.110 -0.1605 -0.1767 -0.1518
 4186SOL     OW16509   5.548   2.149   3.069  0.3852  0.2292 -0.4314
 4186SOL    HW216510   5.483   2.112   3.009 -0.3642  0.1776  0.3968
 4186SOL    HW316511   5.499   2.169   3.148  1.1516  1.2753 -0.2012
 4186SOL    MW416512   5.533   2.147   3.071 -0.1789  0.3664  0.1969
 4187SOL     OW16513   5.163   2.417   5.866  0.2830  0.9675  0.1418
 4187SOL    HW216514   5.153   2.507   5.897 -0.1690  0.7382  0.6808
 4187SOL    HW316515   5.077   2.393   5.832  0.3871  0.7193  0.0471
 4187SOL    MW416516   5.150   2.426   5.866 -0.2322  0.3361 -0.8061
 4188SOL     OW16517   3.600   0.819   2.657 -0.3141  0.1585 -0.0788
 4188SOL    HW216518   3.539   0.877   2.702 -1.9791  0.8480 -2.9837
 4188SOL    HW316519   3.571   0.730   2.680  1.2796  0.3118  3.1154
 4188SOL    MW416520   3.588   0.815   2.666 -1.4274 -0.3273  0.0800
 4189SOL     OW16521   1.934   5.758   0.598  0.4142 -0.0026 -1.0375
 4189SOL    HW216522   1.848   5.767   0.639 -0.3774 -1.0265 -2.3654
 4189SOL    HW316523   1.974   5.682   0.641  2.0750  2.3214  1.8241
 4189SOL    MW416524   1.928   5.749   0.609 -0.1881  0.1188  0.0078
 4190SOL     OW16525   4.020   1.840   0.148 -0.6530  0.0497 -0.0953
 4190SOL    HW216526   4.041   1.857   0.057 -1.4238 -2.6545 -0.8779
 4190SOL    HW316527   4.095   1.872   0.197  0.7555 -0.3783 -1.8731
 4190SOL    MW416528   4.032   1.847   0.143 -0.1059  0.6204  0.3474
 4191SOL     OW16529   2.816   2.759   0.963  0.8178  0.2073  0.0151
 4191SOL    HW216530   2.824   2.749   1.058 -0.2542 -1.4099 -0.0237
 4191SOL    HW316531   2.751   2.829   0.953 -0.2767 -0.6924  0.5297
 4191SOL    MW416532   2.808   2.767   0.974  0.1750  0.1443 -0.3308
 4192SOL     OW16533   5.289   5.230   0.504  0.2659 -0.1778  0.6425
 4192SOL    HW216534   5.363   5.278   0.469 -0.6184  0.7559  0.0071
 4192SOL    HW316535   5.320   5.196   0.588  2.1000 -1.6028 -0.5235
 4192SOL    MW416536   5.303   5.232   0.510 -0.1797  0.1939 -0.9231
 4193SOL     OW16537   5.964   0.654   2.941 -0.3640  0.1761  0.1548
 4193SOL    HW216538   5.995   0.646   3.031 -0.1516  1.0340  0.1646
 4193SOL    HW316539   5.970   0.747   2.921 -1.6882  0.1842 -0.3003
 4193SOL    MW416540   5.969   0.665   2.950 -0.1896  0.5296 -0.3644
 4194SOL     OW16541   4.841   3.098   2.072 -0.3126 -0.2369 -0.1911
 4194SOL    HW216542   4.911   3.072   2.011 -0.6670 -2.0152  0.1133
 4194SOL    HW316543   4.886   3.152   2.137  0.5448 -0.3570 -0.6585
 4194SOL    MW416544   4.856   3.102   2.072 -0.7936 -0.3061  0.3347
 4195SOL     OW16545   5.362   3.935   2.973  0.0844  0.3620 -0.2126
 4195SOL    HW216546   5.285   3.991   2.963  0.3402  1.0463  1.3377
 4195SOL    HW316547   5.426   3.973   2.913  0.1272  1.5457  0.5367
 4195SOL    MW416548   5.360   3.947   2.964  0.1952  0.7933  0.6513
 4196SOL     OW16549   0.788   2.091   0.325 -0.3764  0.5322 -0.3479
 4196SOL    HW216550   0.700   2.128   0.313  0.1026  2.6403  1.8758
 4196SOL    HW316551   0.815   2.121   0.412  1.5027 -2.3383  0.1943
 4196SOL    MW416552   0.780   2.100   0.335  0.1697 -0.2835 -0.0657
 4197SOL     OW16553   5.650   0.713   3.517  0.8202 -0.0083 -0.6870
 4197SOL    HW216554   5.589   0.683   3.450  0.0628 -0.3087  0.1059
 4197SOL    HW316555   5.604   0.785   3.561  0.7682 -0.6258  0.3090
 4197SOL    MW416556   5.636   0.718   3.514 -0.1444  0.4445 -0.4814
 4198SOL     OW16557   5.422   3.666   0.246  0.7242 -0.2485 -0.7742
 4198SOL    HW216558   5.337   3.635   0.275  0.0443  1.3483 -0.9495
 4198SOL    HW316559   5.419   3.761   0.258  2.5629 -0.1716 -0.5752
 4198SOL    MW416560   5.410   3.674   0.251 -0.1715  0.3513  0.1874
 4199SOL     OW16561   3.882   6.234   0.603 -0.6094  0.3208 -0.2650
 4199SOL    HW216562   3.790   6.224   0.578 -1.3630  1.4835  1.8398
 4199SOL    HW316563   3.886   6.204   0.693  0.6129  2.2773  0.3964
 4199SOL    MW416564   3.870   6.229   0.611  0.0796 -0.2239  0.1494
 4200SOL     OW16565   4.772   3.068   5.711  0.3937 -0.8695 -0.0699
 4200SOL    HW216566   4.706   3.039   5.774  0.4519 -0.0980  0.3572
 4200SOL    HW316567   4.798   2.988   5.665 -1.0742 -1.1459 -0.4885
 4200SOL    MW416568   4.767   3.053   5.713 -0.0569 -0.3914  0.2045
 4201SOL     OW16569   4.029   1.246   4.900 -0.2152 -0.6766  0.5715
 4201SOL    HW216570   4.005   1.180   4.836 -0.9562 -0.0999  0.2443
 4201SOL    HW316571   4.007   1.207   4.985  0.4160 -1.2904  0.4556
 4201SOL    MW416572   4.023   1.232   4.903  0.2820  0.3949  0.4851
 4202SOL     OW16573   3.700   5.946   3.445  0.3383  0.1862 -0.6147
 4202SOL    HW216574   3.702   5.961   3.540  0.3066  2.5572 -0.9489
 4202SOL    HW316575   3.780   5.987   3.412 -1.0428  1.9912 -1.9122
 4202SOL    MW416576   3.711   5.953   3.453  1.2476  0.2506  0.2615
 4203SOL     OW16577   5.458   0.846   5.309  0.0268  0.4850 -0.7851
 4203SOL    HW216578   5.366   0.848   5.336 -0.1577  0.1087 -1.3635
 4203SOL    HW316579   5.505   0.889   5.381 -0.3383 -1.2598  0.5619
 4203SOL    MW416580   5.452   0.852   5.322  0.1477  0.1597 -0.2577
 4204SOL     OW16581   4.253   6.044   1.362 -0.2132  0.2096  0.4409
 4204SOL    HW216582   4.173   6.061   1.312  0.2343  1.7656  0.2129
 4204SOL    HW316583   4.303   5.984   1.307  0.3454  2.0131 -1.1199
 4204SOL    MW416584   4.249   6.038   1.348  0.4197  0.1008  0.1634
 4205SOL     OW16585   4.389   6.262   3.870  0.3124 -0.1384 -0.7217
 4205SOL    HW216586   4.304   6.218   3.876 -0.8713  1.9994 -1.0392
 4205SOL    HW316587   4.452   6.191   3.881 -1.4283 -1.3962  2.7355
 4205SOL    MW416588   4.386   6.247   3.872 -0.5229 -0.4315  0.4106
 4206SOL     OW16589   5.615   0.980   1.411 -0.1049  0.3674  0.3956
 4206SOL    HW216590   5.594   1.068   1.442  2.0784  1.1004 -0.0088
 4206SOL    HW316591   5.533   0.931   1.420 -1.3114  2.3479  0.8841
 4206SOL    MW416592   5.601   0.985   1.416  0.1033  0.2726 -0.3071
 4207SOL     OW16593   2.826   3.458   4.489 -0.4473 -0.0102  0.4954
 4207SOL    HW216594   2.779   3.456   4.406  0.0750  0.7134  0.1711
 4207SOL    HW316595   2.844   3.551   4.504  1.0088 -0.2758  0.5177
 4207SOL    MW416596   2.822   3.470   4.480  0.5133 -0.0960 -0.6120
 4208SOL     OW16597   0.351   4.715   5.273 -0.4124  0.0242 -0.1797
 4208SOL    HW216598   0.388   4.643   5.221 -3.1213 -0.9160 -1.0180
 4208SOL    HW316599   0.268   4.680   5.305 -1.9387  2.8047 -0.7825
 4208SOL    MW416600   0.345   4.701   5.270 -0.7213 -0.5031  0.1921
 4209SOL     OW16601   2.067   5.638   3.353  0.0963 -0.5571  0.0084
 4209SOL    HW216602   1.995   5.628   3.291 -1.0814  2.5978  0.6890
 4209SOL    HW316603   2.123   5.706   3.315  0.4662 -0.0365  1.4053
 4209SOL    MW416604   2.065   5.646   3.340  0.5524 -0.3495 -0.3873
 4210SOL     OW16605   2.109   3.091   5.739 -0.2887  0.4387  0.2048
 4210SOL    HW216606   2.171   3.041   5.793  0.4731  0.9409 -0.1903
 4210SOL    HW316607   2.061   3.145   5.802  1.9086  2.4630  0.2723
 4210SOL    MW416608   2.111   3.091   5.754 -0.2017  0.1260  0.4499
 4211SOL     OW16609   4.024   3.306   6.024 -0.5990  0.1353  0.1009
 4211SOL    HW216610   4.027   3.351   6.108 -0.4478 -0.4996  0.4439
 4211SOL    HW316611   3.932   3.285   6.011 -0.9819  2.2318 -0.9945
 4211SOL    MW416612   4.012   3.309   6.034 -0.2417  0.0961 -0.0708
 4212SOL     OW16613   1.366   3.598   2.586  0.0140  0.1975  0.1913
 4212SOL    HW216614   1.425   3.557   2.649  1.4914  1.6273 -0.1827
 4212SOL    HW316615   1.309   3.653   2.640 -0.3039 -0.3997  0.4710
 4212SOL    MW416616   1.367   3.600   2.602  0.6439  0.2221  0.2612
 4213SOL     OW16617   3.153   3.451   2.220 -0.1967  0.2676  0.0512
 4213SOL    HW216618   3.187   3.502   2.293  0.0058 -0.3848  0.4273
 4213SOL    HW316619   3.107   3.514   2.165  2.3363  1.3729 -0.9536
 4213SOL    MW416620   3.151   3.466   2.223  0.4849 -0.1942  0.3536
 4214SOL     OW16621   0.728   4.164   6.328  0.0582 -0.3428  0.8042
 4214SOL    HW216622   0.697   4.210   6.251 -0.3320 -0.3938  0.9273
 4214SOL    HW316623   0.722   4.229   6.399 -3.0648 -1.2975  1.5521
 4214SOL    MW416624   0.723   4.179   6.328 -0.3336  0.4909  0.1159
 4215SOL     OW16625   5.035   0.372   0.750  0.3232  0.4781 -0.6051
 4215SOL    HW216626   4.988   0.446   0.713  0.3824  0.6081 -0.4216
 4215SOL    HW316627   5.128   0.394   0.737  0.4865  1.8604  2.0819
 4215SOL    MW416628   5.041   0.385   0.744 -0.1808  0.1048  0.0845
 4216SOL     OW16629   2.585   3.974   5.829  0.6596  0.0445  0.1906
 4216SOL    HW216630   2.501   3.951   5.868 -0.0336  0.3514 -1.0710
 4216SOL    HW316631   2.649   3.955   5.897 -0.4339 -0.1259  1.2039
 4216SOL    MW416632   2.582   3.969   5.843  0.3650 -0.4918  0.2570
 4217SOL     OW16633   0.422   4.249   5.836 -0.3697  0.4767  0.0908
 4217SOL    HW216634   0.467   4.172   5.869 -0.5444  0.1669 -0.3930
 4217SOL    HW316635   0.329   4.231   5.851 -0.3888  0.7854  0.3781
 4217SOL    MW416636   0.416   4.237   5.842 -0.3965  0.0989  0.1227
 4218SOL     OW16637   1.854   2.286   6.404 -0.6693  0.2194 -0.4518
 4218SOL    HW216638   1.930   2.251   6.357 -1.1491 -0.4295 -0.7616
 4218SOL    HW316639   1.889   2.360   6.454  0.1264  0.0530 -0.7424
 4218SOL    MW416640   1.869   2.291   6.405 -1.0816 -0.5633  0.0714
 4219SOL     OW16641   6.415   4.871   2.160  0.1285  0.1248  0.0419
 4219SOL    HW216642   6.419   4.814   2.237  0.3082 -1.6769 -1.2470
 4219SOL    HW316643   6.324   4.867   2.132  0.3865 -0.4934 -0.7348
 4219SOL    MW416644   6.404   4.863   2.167  0.0365  0.1026  0.3679
 4220SOL     OW16645   5.830   0.026   5.072 -0.5016 -0.2000  0.2064
 4220SOL    HW216646   5.751   0.053   5.026 -0.0191  1.7925  0.4184
 4220SOL    HW316647   5.900   0.076   5.029  0.4902 -1.1677  0.6611
 4220SOL    MW416648   5.829   0.036   5.060  0.6216  0.0701  0.0843
 4221SOL     OW16649   0.576   2.940   2.399  0.0946  0.1897  0.6838
 4221SOL    HW216650   0.670   2.944   2.417  0.0820 -0.2073  0.8617
 4221SOL    HW316651   0.562   3.005   2.330  0.9706 -1.5698 -1.2704
 4221SOL    MW416652   0.587   2.949   2.393 -0.1046  0.3373  0.7678
 4222SOL     OW16653   5.700   2.670   2.389  0.2194  0.2178  0.3069
 4222SOL    HW216654   5.750   2.588   2.395 -0.3073 -0.1087  0.3302
 4222SOL    HW316655   5.636   2.664   2.459  1.3804  1.5120  1.5532
 4222SOL    MW416656   5.698   2.658   2.399 -0.5562  0.0045  0.7873
 4223SOL     OW16657   1.161   0.470   2.413  0.0718  0.8770  0.5200
 4223SOL    HW216658   1.088   0.498   2.358 -0.3424 -0.9937  0.0437
 4223SOL    HW316659   1.229   0.443   2.351 -0.0264 -0.3137  0.9039
 4223SOL    MW416660   1.160   0.470   2.398 -0.1555  0.0762 -0.3949
 4224SOL     OW16661   1.126   3.800   6.225 -0.5639  0.1162 -0.6856
 4224SOL    HW216662   1.035   3.830   6.224 -0.4358  0.9184  2.3547
 4224SOL    HW316663   1.122   3.712   6.188 -2.2360  0.8323 -2.4059
 4224SOL    MW416664   1.113   3.793   6.220  0.2639 -0.2896  0.2046
 4225SOL     OW16665   4.826   2.213   0.702  0.4704  0.4154 -0.0388
 4225SOL    HW216666   4.864   2.175   0.782  1.4277  1.9686  0.2804
 4225SOL    HW316667   4.814   2.138   0.644  0.9696 -0.5738  1.0735
 4225SOL    MW416668   4.830   2.198   0.705  0.0580 -0.8137  0.1815
 4226SOL     OW16669   4.088   3.414   5.760 -0.1129  0.7968  0.4504
 4226SOL    HW216670   4.086   3.364   5.841 -0.5411  0.9544  0.5387
 4226SOL    HW316671   4.179   3.442   5.751  0.7901 -2.2591 -1.0112
 4226SOL    MW416672   4.100   3.411   5.770  0.1184 -0.3052  0.0200
 4227SOL     OW16673   6.264   3.214   1.129  0.2275  0.1661  0.0374
 4227SOL    HW216674   6.350   3.224   1.170  0.9558  0.3495 -1.4758
 4227SOL    HW316675   6.247   3.120   1.133  0.5784  0.1067  0.1823
 4227SOL    MW416676   6.273   3.203   1.135 -0.0450 -0.3764 -0.2231
 4228SOL     OW16677   4.391   3.153   3.053  0.5207  0.8251  0.8151
 4228SOL    HW216678   4.301   3.169   3.078  0.7716  1.1623  1.5262
 4228SOL    HW316679   4.423   3.087   3.115  0.7120  0.5639  0.4509
 4228SOL    MW416680   4.384   3.146   3.064  0.2054  1.1307  0.4648
 4229SOL     OW16681   2.517   3.499   4.567  0.3984  0.2317 -0.5342
 4229SOL    HW216682   2.596   3.486   4.515  0.4090  1.2301 -0.7819
 4229SOL    HW316683   2.460   3.552   4.512  0.2423  0.9479  0.2888
 4229SOL    MW416684   2.520   3.504   4.553  0.3350  0.0814  0.8371
 4230SOL     OW16685   0.197   6.223   5.310 -0.0221  0.0634  0.7640
 4230SOL    HW216686   0.147   6.205   5.230  1.9124 -0.3915 -0.4161
 4230SOL    HW316687   0.135   6.268   5.367 -2.0799 -1.4429 -0.1540
 4230SOL    MW416688   0.182   6.226   5.307  0.4011 -0.6629 -0.1776
 4231SOL     OW16689   3.644   2.683   6.353 -0.7641 -0.4713  0.5837
 4231SOL    HW216690   3.589   2.605   6.361 -0.0830 -0.9437  0.7193
 4231SOL    HW316691   3.600   2.749   6.407 -0.5452 -1.2232  1.7073
 4231SOL    MW416692   3.631   2.682   6.361  0.1071  0.2020  0.2049
 4232SOL     OW16693   3.005   3.394   3.657  0.1183  0.1854 -0.0975
 4232SOL    HW216694   3.032   3.318   3.605 -0.1722  0.8891 -1.3247
 4232SOL    HW316695   2.969   3.455   3.592 -0.7349  0.8866  1.0156
 4232SOL    MW416696   3.004   3.392   3.641  0.0428  0.1916  0.4272
 4233SOL     OW16697   5.577   3.143   6.147 -0.8725 -0.1419 -0.3258
 4233SOL    HW216698   5.614   3.179   6.227  0.1144 -4.2544  1.2990
 4233SOL    HW316699   5.652   3.133   6.089 -0.2150 -3.2968  0.8812
 4233SOL    MW416700   5.592   3.146   6.150 -0.2095  0.4205 -0.6933
 4234SOL     OW16701   5.663   3.538   5.716 -0.0847  0.4796  0.6596
 4234SOL    HW216702   5.626   3.483   5.646  0.6267  1.4490 -0.5116
 4234SOL    HW316703   5.745   3.495   5.740 -0.7456 -0.3299  1.5363
 4234SOL    MW416704   5.669   3.525   5.710  0.3911  0.3274 -0.4168
 4235SOL     OW16705   3.307   1.700   5.672 -0.4346  0.3021 -0.3062
 4235SOL    HW216706   3.322   1.776   5.616  0.9836 -0.5309 -1.1091
 4235SOL    HW316707   3.326   1.625   5.616  0.3123 -0.5851  1.0872
 4235SOL    MW416708   3.311   1.700   5.658  0.0640  0.0117 -0.1947
 4236SOL     OW16709   3.088   3.205   1.333 -0.5208 -0.2920 -0.0785
 4236SOL    HW216710   3.021   3.173   1.393  0.4815  0.1205  1.3122
 4236SOL    HW316711   3.081   3.301   1.339  0.3908 -0.2361  0.3537
 4236SOL    MW416712   3.078   3.214   1.342 -0.2339 -0.4699 -0.0154
 4237SOL     OW16713   2.335   4.487   0.371  0.3302  0.3574  0.0588
 4237SOL    HW216714   2.374   4.498   0.458 -0.3737  2.0951  0.1815
 4237SOL    HW316715   2.388   4.542   0.314 -1.6696  2.5501  0.1790
 4237SOL    MW416716   2.348   4.495   0.375  0.1720  0.4862  0.0162
 4238SOL     OW16717   1.024   0.568   5.722 -0.0452 -0.5234 -0.3353
 4238SOL    HW216718   0.957   0.501   5.734  0.5728 -1.2559 -0.8739
 4238SOL    HW316719   1.006   0.633   5.790 -1.8806 -0.2232 -1.0509
 4238SOL    MW416720   1.013   0.568   5.732 -0.2123  0.4155  0.3227
 4239SOL     OW16721   0.658   5.795   0.372 -0.1164  0.2339  0.3114
 4239SOL    HW216722   0.608   5.797   0.290 -0.6582  2.5749  0.6464
 4239SOL    HW316723   0.748   5.814   0.346  0.2771 -1.7911 -0.0151
 4239SOL    MW416724   0.663   5.798   0.358 -0.1391  0.7469  0.0158
 4240SOL     OW16725   5.883   4.483   1.111  0.3804  0.2173 -0.3016
 4240SOL    HW216726   5.914   4.394   1.091  1.0202  0.7132 -1.6034
 4240SOL    HW316727   5.884   4.528   1.027  0.9774  1.7341  0.4844
 4240SOL    MW416728   5.887   4.477   1.098  0.2096 -0.3115 -0.2690
 4241SOL     OW16729   5.088   0.390   2.611 -0.4543  0.4197 -0.2506
 4241SOL    HW216730   5.134   0.310   2.635 -1.8190 -0.1202  0.6620
 4241SOL    HW316731   5.152   0.440   2.559  0.7417 -0.8001  0.0027
 4241SOL    MW416732   5.102   0.386   2.607 -0.0451 -0.0111  0.0810
 4242SOL     OW16733   4.507   3.181   6.255  0.5483  0.4371 -0.0419
 4242SOL    HW216734   4.577   3.183   6.191 -1.3271  0.1878 -2.2419
 4242SOL    HW316735   4.472   3.270   6.256 -0.2408  0.1448 -0.3673
 4242SOL    MW416736   4.511   3.193   6.247  0.4540  0.4276  0.8240
 4243SOL     OW16737   0.435   5.576   3.944 -0.3682  0.0341  0.7790
 4243SOL    HW216738   0.510   5.631   3.968  1.1998 -1.0596 -1.1932
 4243SOL    HW316739   0.407   5.611   3.859 -1.4527 -0.2048  1.0327
 4243SOL    MW416740   0.441   5.588   3.936 -0.2118  0.1894 -0.4996
 4244SOL     OW16741   2.398   0.569   5.302  0.2450  0.6044 -0.1338
 4244SOL    HW216742   2.447   0.625   5.362  1.5431 -0.2062 -0.3859
 4244SOL    HW316743   2.311   0.561   5.341  1.0666  0.0269  1.7154
 4244SOL    MW416744   2.393   0.575   5.315 -0.9877 -0.4581 -0.0257
 4245SOL     OW16745   5.547   3.263   4.794 -0.2430  0.1620  0.4823
 4245SOL    HW216746   5.594   3.219   4.723 -1.4815  0.5833 -0.6317
 4245SOL    HW316747   5.532   3.195   4.859  1.1103 -0.1829  0.4809
 4245SOL    MW416748   5.551   3.248   4.793  0.2708  0.3201  0.6441
 4246SOL     OW16749   0.885   4.490   2.688  0.1412 -0.1404  0.0348
 4246SOL    HW216750   0.910   4.574   2.726 -0.3365  0.0512 -0.0757
 4246SOL    HW316751   0.847   4.440   2.760 -0.1591 -0.0221 -0.0392
 4246SOL    MW416752   0.884   4.494   2.702  0.4559  0.0203 -0.5907
 4247SOL     OW16753   5.095   4.562   6.408  0.0453 -0.4657  0.1775
 4247SOL    HW216754   5.170   4.569   6.467 -0.4627 -1.0635  0.9148
 4247SOL    HW316755   5.021   4.593   6.459 -0.1004  0.9579 -0.8293
 4247SOL    MW416756   5.095   4.567   6.422  0.3143  0.0260 -0.0782
 4248SOL     OW16757   0.916   5.920   5.758  1.0405 -0.6450 -0.2073
 4248SOL    HW216758   0.888   5.831   5.737  2.4743 -0.9308 -1.0981
 4248SOL    HW316759   0.975   5.944   5.687  0.0828  1.3423 -0.4037
 4248SOL    MW416760   0.920   5.911   5.746 -0.8797 -0.3654  0.3943
 4249SOL     OW16761   5.774   0.815   5.297  0.4748  0.0838 -0.1173
 4249SOL    HW216762   5.809   0.759   5.366 -0.3140  1.6935  1.6689
 4249SOL    HW316763   5.740   0.754   5.232 -0.0818 -1.5232  1.5940
 4249SOL    MW416764   5.774   0.799   5.297  0.5449  0.2171  0.4115
 4250SOL     OW16765   1.950   0.802   5.549 -0.2054 -0.0082  0.0724
 4250SOL    HW216766   1.899   0.882   5.563 -1.7142 -0.6815 -1.1957
 4250SOL    HW316767   1.924   0.745   5.621  0.2899  0.3658  0.5502
 4250SOL    MW416768   1.940   0.805   5.560  0.6417 -0.5705  0.3094
 4251SOL     OW16769   4.353   0.834   5.828  0.6754 -0.5101 -0.2781
 4251SOL    HW216770   4.416   0.872   5.889 -0.4259 -1.6140  1.6287
 4251SOL    HW316771   4.406   0.781   5.769  1.5393 -2.0348  1.7447
 4251SOL    MW416772   4.368   0.832   5.828  0.0438 -0.0660 -0.3787
 4252SOL     OW16773   3.599   1.235   0.403  0.7157 -0.1886  0.2481
 4252SOL    HW216774   3.651   1.306   0.366  1.3236 -0.3810  0.7037
 4252SOL    HW316775   3.662   1.164   0.416  0.1849 -0.6890  0.1220
 4252SOL    MW416776   3.614   1.235   0.400  0.2779 -0.0278  0.7920
 4253SOL     OW16777   0.876   2.297   1.238  0.0475 -0.4976  0.4302
 4253SOL    HW216778   0.817   2.266   1.170  0.9877 -1.7605  0.1316
 4253SOL    HW316779   0.873   2.392   1.232 -2.2509 -0.4885  0.7178
 4253SOL    MW416780   0.868   2.305   1.228  0.2575  0.0389  0.1377
 4254SOL     OW16781   0.607   5.064   3.004 -0.5861  0.2943 -0.1064
 4254SOL    HW216782   0.628   4.974   2.980 -1.2684  0.2199 -0.4432
 4254SOL    HW316783   0.534   5.056   3.066 -0.0024  0.5696  0.6309
 4254SOL    MW416784   0.600   5.051   3.009 -0.5631 -0.4087  0.1144
 4255SOL     OW16785   3.650   1.179   1.782 -0.0754 -0.2420 -0.0683
 4255SOL    HW216786   3.687   1.162   1.869  0.2860  0.1407 -0.1451
 4255SOL    HW316787   3.578   1.240   1.798 -0.0601 -0.2348 -0.0273
 4255SOL    MW416788   3.646   1.185   1.796 -0.0132 -0.0209 -0.2923
 4256SOL     OW16789   5.657   5.384   4.067 -0.5163 -0.2975  0.1803
 4256SOL    HW216790   5.694   5.409   4.152  0.3856  0.2190 -0.3505
 4256SOL    HW316791   5.605   5.460   4.040 -0.1090 -0.1275 -0.1226
 4256SOL    MW416792   5.655   5.397   4.075 -0.5259 -0.3616 -0.1166
 4257SOL     OW16793   5.369   3.498   3.615  0.2196 -0.2023  0.1385
 4257SOL    HW216794   5.379   3.571   3.554  1.3845 -0.4592 -0.0152
 4257SOL    HW316795   5.437   3.514   3.681 -1.3445  0.3574  1.7035
 4257SOL    MW416796   5.380   3.510   3.615 -0.1963  0.2997 -0.4775
 4258SOL     OW16797   5.669   0.601   5.115  0.1588 -0.0441 -0.7128
 4258SOL    HW216798   5.600   0.634   5.056  0.9624  0.0371 -1.6264
 4258SOL    HW316799   5.625   0.536   5.169 -0.9502  0.9322 -0.3824
 4258SOL    MW416800   5.654   0.597   5.114  0.0889 -0.1152  0.2928
 4259SOL     OW16801   2.302   5.679   5.831  0.0858 -0.2975 -0.4652
 4259SOL    HW216802   2.214   5.702   5.799  0.9098  1.8529 -1.3578
 4259SOL    HW316803   2.301   5.584   5.836 -2.0171 -0.3781 -1.2860
 4259SOL    MW416804   2.290   5.670   5.827  0.1089 -0.6318  0.1154
 4260SOL     OW16805   2.222   3.575   0.077  0.5912 -0.3089 -0.0156
 4260SOL    HW216806   2.263   3.646   0.127  1.2770 -0.5151 -0.2679
 4260SOL    HW316807   2.134   3.568   0.113  1.3391 -1.0521  1.8095
 4260SOL    MW416808   2.216   3.584   0.088 -0.2080 -0.2669  0.4267
 4261SOL     OW16809   2.747   6.210   2.281 -0.4165  0.1979  0.2914
 4261SOL    HW216810   2.680   6.223   2.214  0.2610  0.0725 -0.4227
 4261SOL    HW316811   2.704   6.234   2.363 -0.6174  2.5432 -0.4299
 4261SOL    MW416812   2.732   6.215   2.283  0.3487 -0.3117  0.0121
 4262SOL     OW16813   0.315   2.311   4.939  0.0367  0.1420  0.0067
 4262SOL    HW216814   0.238   2.298   4.995  0.7761  0.6429  1.1790
 4262SOL    HW316815   0.368   2.233   4.953  0.1779  0.2227 -0.0806
 4262SOL    MW416816   0.312   2.299   4.949 -0.2605  0.5427  0.7465
 4263SOL     OW16817   2.645   2.745   6.301  0.1675  0.5202  0.1231
 4263SOL    HW216818   2.564   2.714   6.342  0.4229 -0.2863  0.0423
 4263SOL    HW316819   2.665   2.679   6.235  1.0507  0.5379  0.3544
 4263SOL    MW416820   2.637   2.732   6.298  0.2083 -0.1438  0.1720
 4264SOL     OW16821   0.862   1.546   1.650  0.0248 -0.3981 -0.0542
 4264SOL    HW216822   0.794   1.547   1.716  1.1094  0.9760  1.1180
 4264SOL    HW316823   0.936   1.502   1.692  1.1682  1.6308  0.1923
 4264SOL    MW416824   0.863   1.541   1.664  0.1263  0.4792 -0.1398
 4265SOL     OW16825   0.923   3.704   2.280  0.6870 -0.0888 -0.1921
 4265SOL    HW216826   0.876   3.624   2.304  2.0064 -0.5438  1.0410
 4265SOL    HW316827   0.855   3.771   2.271 -0.2718 -0.9409  0.5464
 4265SOL    MW416828   0.908   3.702   2.282  0.6710  0.3138 -0.8034
 4266SOL     OW16829   0.144   3.711   5.720  0.0129  0.1871 -0.2864
 4266SOL    HW216830   0.100   3.667   5.647  0.5260 -0.6669 -0.0811
 4266SOL    HW316831   0.238   3.703   5.700  0.1234  1.0387 -0.1593
 4266SOL    MW416832   0.151   3.704   5.708  0.1215 -0.1479  0.7937
 4267SOL     OW16833   5.711   0.471   3.092 -0.2168 -0.3213  0.2473
 4267SOL    HW216834   5.800   0.440   3.074 -0.0919  0.9112 -1.4260
 4267SOL    HW316835   5.655   0.395   3.074  0.3104 -0.4070 -1.1243
 4267SOL    MW416836   5.715   0.457   3.087 -0.9125 -0.6245 -0.4244
 4268SOL     OW16837   6.204   1.071   3.067 -0.0737 -0.6537 -0.3187
 4268SOL    HW216838   6.193   1.061   3.162 -0.5233 -2.9295 -0.5460
 4268SOL    HW316839   6.254   0.994   3.041 -0.3148 -0.2743 -1.9890
 4268SOL    MW416840   6.209   1.059   3.076 -0.1334 -0.2207  0.2257
 4269SOL     OW16841   5.619   4.814   2.052 -0.4515 -0.0186  0.6426
 4269SOL    HW216842   5.656   4.816   2.140  0.5336  0.2101  0.2382
 4269SOL    HW316843   5.693   4.793   1.995 -0.8395  0.8908 -0.2349
 4269SOL    MW416844   5.634   4.812   2.056 -0.3334 -0.0505  0.3825
 4270SOL     OW16845   0.100   3.673   5.365 -0.1742  0.2841  0.2687
 4270SOL    HW216846   0.055   3.686   5.282  0.6318  0.7867 -0.0992
 4270SOL    HW316847   0.155   3.596   5.351  1.0736  1.2314 -0.1576
 4270SOL    MW416848   0.101   3.664   5.352 -0.2127  0.2750 -0.3058
 4271SOL     OW16849   0.046   0.069   1.113  0.0979  0.5345 -0.2963
 4271SOL    HW216850  -0.012   0.017   1.057 -0.2530 -0.8519  1.2350
 4271SOL    HW316851  -0.008   0.088   1.190  1.0807  0.8814  0.3147
 4271SOL    MW416852   0.031   0.064   1.116  0.5506  0.1763  0.4328
 4272SOL     OW16853   5.131   4.478   0.501  0.1912  0.2579 -0.5469
 4272SOL    HW216854   5.183   4.417   0.553 -0.4709  1.3091  1.4721
 4272SOL    HW316855   5.163   4.467   0.411  1.8642 -1.1574  0.1642
 4272SOL    MW416856   5.142   4.468   0.496  0.7176  0.3742 -0.0228
 4273SOL     OW16857   0.702   5.057   1.146  0.9029 -0.2895 -0.3898
 4273SOL    HW216858   0.613   5.021   1.144  0.8013 -0.0959  0.3417
 4273SOL    HW316859   0.722   5.065   1.239  0.9479  1.4705 -0.5214
 4273SOL    MW416860   0.693   5.053   1.158  0.1105  0.2367  0.5381
 4274SOL     OW16861   6.229   2.059   6.395 -0.3493 -0.7482 -0.9006
 4274SOL    HW216862   6.217   2.018   6.310 -1.1762 -0.7633 -0.7829
 4274SOL    HW316863   6.263   1.989   6.451 -0.2688 -0.8624 -1.0914
 4274SOL    MW416864   6.232   2.044   6.391 -0.1540 -0.1789  0.5403
 4275SOL     OW16865   4.548   3.886   4.022  0.7038 -0.0628  0.8034
 4275SOL    HW216866   4.497   3.844   4.091  0.2780  0.4330  0.7990
 4275SOL    HW316867   4.572   3.815   3.963  0.1565 -0.3271  0.8960
 4275SOL    MW416868   4.544   3.871   4.023  0.4703  0.0760 -0.2770
 4276SOL     OW16869   4.364   5.698   4.556 -0.2265  0.1210  0.1561
 4276SOL    HW216870   4.285   5.664   4.599  0.4987  0.3973  1.7848
 4276SOL    HW316871   4.335   5.722   4.468 -1.2896 -2.5181 -0.3171
 4276SOL    MW416872   4.350   5.697   4.550  0.2768 -0.7026  0.1715
 4277SOL     OW16873   4.207   5.146   1.088 -0.3379  0.1504 -0.0210
 4277SOL    HW216874   4.129   5.182   1.044  0.2517  1.4575 -0.0438
 4277SOL    HW316875   4.174   5.071   1.137 -1.5011  0.2891 -0.5525
 4277SOL    MW416876   4.192   5.141   1.089 -0.2700 -0.7568 -0.4023
 4278SOL     OW16877   3.946   6.279   2.402 -0.5732 -0.1472 -0.1399
 4278SOL    HW216878   4.014   6.337   2.368 -0.7172 -0.9021 -1.8050
 4278SOL    HW316879   3.993   6.209   2.446 -0.2607 -0.5401 -1.0781
 4278SOL    MW416880   3.961   6.277   2.403  0.3488  0.1517 -0.3085
 4279SOL     OW16881   5.939   3.158   4.074  0.2438  0.3462 -0.7633
 4279SOL    HW216882   5.924   3.238   4.023  1.4886  0.8197 -0.4163
 4279SOL    HW316883   5.995   3.104   4.018  0.0349  0.0323 -0.6755
 4279SOL    MW416884   5.944   3.161   4.060  0.5751  0.0972 -0.4501
 4280SOL     OW16885   2.553   3.214   3.070  0.2625 -0.0016  0.0974
 4280SOL    HW216886   2.478   3.154   3.075  0.3897 -0.1431  0.3105
 4280SOL    HW316887   2.530   3.284   3.131  0.6150 -0.3940  0.6890
 4280SOL    MW416888   2.540   3.215   3.079 -0.3933  0.4632 -0.4307
 4281SOL     OW16889   4.231   3.163   5.169 -0.1219  0.0683  0.2998
 4281SOL    HW216890   4.158   3.225   5.166  0.4510  0.7755  0.5278
 4281SOL    HW316891   4.299   3.205   5.117  0.1165 -0.5943  0.0714
 4281SOL    MW416892   4.230   3.177   5.162 -0.1369 -0.4371  0.3210
 4282SOL     OW16893   4.115   0.481   2.835  0.6358 -0.5852 -0.0989
 4282SOL    HW216894   4.194   0.520   2.798  0.0649  1.9236  1.1156
 4282SOL    HW316895   4.043   0.527   2.791 -0.1273 -1.2444  0.4297
 4282SOL    MW416896   4.116   0.492   2.824 -0.1695  0.4678 -0.2906
 4283SOL     OW16897   0.907   2.876   0.604 -0.1855 -0.0144 -0.4962
 4283SOL    HW216898   0.984   2.912   0.560 -0.7159 -0.4396 -1.8462
 4283SOL    HW316899   0.832   2.915   0.558 -0.7929  0.3801  0.7792
 4283SOL    MW416900   0.907   2.886   0.592  0.2518 -0.6557  0.0405
 4284SOL     OW16901   1.474   3.674   5.686  0.2717  0.2906 -0.1332
 4284SOL    HW216902   1.454   3.585   5.716 -0.9513  0.5464 -0.1577
 4284SOL    HW316903   1.445   3.675   5.595  1.6803  0.2798 -0.6134
 4284SOL    MW416904   1.468   3.662   5.678  0.4223  0.0950  0.1119
 4285SOL     OW16905   3.196   5.474   2.505 -0.2722  0.0012  0.1781
 4285SOL    HW216906   3.187   5.470   2.410  2.6159 -0.0999 -0.1722
 4285SOL    HW316907   3.201   5.567   2.525 -2.7364  0.1172  0.5207
 4285SOL    MW416908   3.195   5.485   2.496 -0.0810  1.1341  0.4786
 4286SOL     OW16909   1.389   3.432   5.767  0.0544  0.3619  0.8669
 4286SOL    HW216910   1.356   3.346   5.742  2.1953 -1.1032  2.7529
 4286SOL    HW316911   1.344   3.453   5.848 -2.1004  2.1473 -0.6649
 4286SOL    MW416912   1.379   3.424   5.774  0.3815 -0.4475  0.3155
 4287SOL     OW16913   5.355   0.004   4.366  0.1111 -0.4089 -0.3570
 4287SOL    HW216914   5.308   0.074   4.411  0.2551  0.6113 -1.7256
 4287SOL    HW316915   5.433  -0.010   4.419  1.2271  2.0657 -1.2144
 4287SOL    MW416916   5.359   0.012   4.379 -0.1790 -0.2611  0.3689
 4288SOL     OW16917   2.296   4.932   5.322 -0.5080  0.9386 -0.0354
 4288SOL    HW216918   2.328   4.843   5.307 -0.3855  0.9591  0.1075
 4288SOL    HW316919   2.375   4.984   5.337 -0.5539  1.1404 -0.4768
 4288SOL    MW416920   2.310   4.927   5.322  0.4929  0.3741 -0.0711
 4289SOL     OW16921   3.155   2.172   1.047  0.4014  0.6380  0.3712
 4289SOL    HW216922   3.187   2.090   1.085 -2.2230  0.1311  1.7090
 4289SOL    HW316923   3.157   2.158   0.953  1.7537 -0.2210  0.5010
 4289SOL    MW416924   3.160   2.160   1.040  0.1742 -0.0355  0.0225
 4290SOL     OW16925   5.965   4.078   3.386 -0.1467 -0.1729 -0.0373
 4290SOL    HW216926   5.920   4.112   3.463 -2.0820  1.8642 -1.9409
 4290SOL    HW316927   6.014   4.152   3.352  0.1512 -0.8459 -1.1145
 4290SOL    MW416928   5.965   4.092   3.392 -0.1069  0.4909 -0.2685
 4291SOL     OW16929   4.158   5.599   4.732 -0.0749 -0.1972 -0.7631
 4291SOL    HW216930   4.074   5.555   4.737 -0.6467  0.4239 -3.4111
 4291SOL    HW316931   4.190   5.601   4.822 -3.9205  1.5601  0.7847
 4291SOL    MW416932   4.151   5.594   4.744 -0.0950  0.0075 -0.4320
 4292SOL     OW16933   1.472   0.286   4.736  0.7091 -0.3258  0.6610
 4292SOL    HW216934   1.533   0.359   4.744  0.5020  0.0193 -0.6525
 4292SOL    HW316935   1.472   0.245   4.822  0.9542  1.1204  1.3755
 4292SOL    MW416936   1.480   0.290   4.748  0.3422  0.4700 -0.4357
 4293SOL     OW16937   1.976   3.759   4.634 -0.0430 -0.0262 -0.8673
 4293SOL    HW216938   1.962   3.784   4.726 -0.8471  0.8871 -1.2154
 4293SOL    HW316939   2.039   3.687   4.638 -0.7855 -0.6615  0.4752
 4293SOL    MW416940   1.982   3.753   4.647 -0.2459  0.3655  0.2206
 4294SOL     OW16941   4.940   1.886   5.223 -0.2821  0.0428 -0.2369
 4294SOL    HW216942   4.915   1.968   5.181  0.4171 -0.6625 -2.1388
 4294SOL    HW316943   4.877   1.822   5.190 -0.1044 -0.4151  0.2964
 4294SOL    MW416944   4.929   1.888   5.213  0.1638  0.1615  0.6274
 4295SOL     OW16945   0.720   6.080   0.763  0.0282  0.2145 -0.2082
 4295SOL    HW216946   0.722   6.174   0.781  1.4774  0.3211 -0.8031
 4295SOL    HW316947   0.702   6.073   0.670  4.3820  0.1406 -1.2250
 4295SOL    MW416948   0.718   6.091   0.753  0.1465  0.0145  0.3129
 4296SOL     OW16949   1.007   0.752   3.545  0.4208 -0.0007  0.1190
 4296SOL    HW216950   1.092   0.748   3.501  0.0867 -2.2085 -0.4181
 4296SOL    HW316951   1.027   0.739   3.638  0.6667 -0.8271 -0.0427
 4296SOL    MW416952   1.021   0.750   3.552 -0.6408  0.0368  0.4627
 4297SOL     OW16953   6.022   2.857   3.180  0.4229  0.3437  0.4319
 4297SOL    HW216954   5.973   2.932   3.149  0.8674  0.9419  1.1416
 4297SOL    HW316955   6.111   2.890   3.194  0.3757 -0.0188  1.7743
 4297SOL    MW416956   6.028   2.871   3.178  0.4322 -0.1740  0.1730
 4298SOL     OW16957   5.895   0.384   4.861 -0.5618 -0.4364 -0.2750
 4298SOL    HW216958   5.932   0.327   4.928 -0.7086 -0.4140 -0.1750
 4298SOL    HW316959   5.887   0.469   4.903  1.2589  0.1153 -0.9275
 4298SOL    MW416960   5.899   0.388   4.875 -0.4707  0.1729 -0.0694
 4299SOL     OW16961   1.428   0.067   4.299  0.5457  0.2212  0.5090
 4299SOL    HW216962   1.491  -0.002   4.276 -0.0053 -0.5578  1.2305
 4299SOL    HW316963   1.343   0.023   4.295  0.0150  1.3329 -0.7141
 4299SOL    MW416964   1.425   0.052   4.296  0.1406 -0.5558  0.3239
 4300SOL     OW16965   4.876   1.269   0.626  0.1902  0.5188 -0.4546
 4300SOL    HW216966   4.786   1.239   0.640 -0.2898  1.5791 -1.1211
 4300SOL    HW316967   4.908   1.289   0.714 -0.5362  0.9426 -0.2701
 4300SOL    MW416968   4.868   1.268   0.639 -0.0970 -0.5218 -0.5129
 4301SOL     OW16969   5.165   1.266   5.320 -0.1361 -0.5413  0.1356
 4301SOL    HW216970   5.174   1.172   5.302 -0.4974 -0.4240 -0.6913
 4301SOL    HW316971   5.246   1.304   5.285  0.2114 -0.5922  0.8689
 4301SOL    MW416972   5.177   1.259   5.313 -0.4691 -0.0097 -0.2748
 4302SOL     OW16973   0.772   3.450   0.762 -0.2705  0.2458  0.0629
 4302SOL    HW216974   0.836   3.437   0.692 -0.6145  0.0546 -0.2185
 4302SOL    HW316975   0.744   3.361   0.785 -1.6249  0.3742 -0.9315
 4302SOL    MW416976   0.777   3.436   0.756 -0.3708 -0.2764  0.1289
 4303SOL     OW16977   0.932   5.324   0.394  0.2392 -0.0337 -0.0697
 4303SOL    HW216978   0.871   5.250   0.391  1.0050 -0.6558 -0.7639
 4303SOL    HW316979   0.890   5.390   0.338  0.4881 -0.7054 -1.0893
 4303SOL    MW416980   0.918   5.323   0.386  0.6276  0.1721  0.6062
 4304SOL     OW16981   1.904   0.041   0.325  0.3451  0.3914  0.0639
 4304SOL    HW216982   1.907  -0.039   0.273 -0.4983  0.1328  0.3983
 4304SOL    HW316983   1.812   0.068   0.322  0.1026 -0.0611  2.0481
 4304SOL    MW416984   1.892   0.034   0.318 -0.2926 -0.0738  0.1099
 4305SOL     OW16985   3.984   3.778   2.589 -0.0241  0.0387 -0.5782
 4305SOL    HW216986   3.994   3.684   2.605 -1.5137 -0.0023  0.3470
 4305SOL    HW316987   4.070   3.807   2.560  0.9465 -1.2898  0.8101
 4305SOL    MW416988   3.997   3.769   2.588  0.3628  0.4835 -0.4071
 4306SOL     OW16989   0.386   0.179   4.599  0.4486 -0.3386 -0.0473
 4306SOL    HW216990   0.377   0.096   4.552  0.7829 -0.8640  0.8145
 4306SOL    HW316991   0.298   0.197   4.633  0.6910 -1.0965  1.0178
 4306SOL    MW416992   0.373   0.171   4.597  0.1057  0.5894  0.2284
 4307SOL     OW16993   2.802   1.161   3.175  0.1082  0.2694 -0.1406
 4307SOL    HW216994   2.826   1.216   3.249  1.7861 -0.0512 -0.4197
 4307SOL    HW316995   2.730   1.208   3.133  1.4254  2.2452 -0.3203
 4307SOL    MW416996   2.795   1.174   3.179 -0.2083  0.2505 -0.1967
 4308SOL     OW16997   5.151   6.429   2.898 -0.1921 -0.2645 -0.5952
 4308SOL    HW216998   5.150   6.472   2.813 -1.6699 -0.8662 -0.9030
 4308SOL    HW316999   5.240   6.395   2.906 -0.0279 -0.1926 -1.8831
 4308SOL    MW417000   5.162   6.430   2.888 -0.6775 -0.0180 -0.2790
 4309SOL     OW17001   5.578   1.606   0.892  0.5021  0.3714 -0.1589
 4309SOL    HW217002   5.515   1.610   0.964 -0.4177 -1.0963 -0.8383
 4309SOL    HW317003   5.537   1.657   0.822  0.1597 -0.3925 -0.5232
 4309SOL    MW417004   5.564   1.614   0.893 -0.1627  0.3451  0.0018
 4310SOL     OW17005   2.672   5.441   6.353 -0.1536 -0.0688 -0.3884
 4310SOL    HW217006   2.643   5.371   6.412 -0.0838  1.8825  2.1494
 4310SOL    HW317007   2.740   5.401   6.300  1.3109 -1.5068  2.3560
 4310SOL    MW417008   2.677   5.427   6.354 -0.2159  0.2328  0.1758
 4311SOL     OW17009   1.397   5.580   4.734  0.5687 -0.1818  0.0058
 4311SOL    HW217010   1.357   5.653   4.687  1.8540  0.3332 -0.3460
 4311SOL    HW317011   1.324   5.525   4.761 -0.2829  0.0808 -1.6605
 4311SOL    MW417012   1.382   5.582   4.731  0.3295  0.5987 -0.1407
 4312SOL     OW17013   1.926   5.305   5.214  0.2101  0.1535  0.6515
 4312SOL    HW217014   1.888   5.358   5.284 -0.6799  0.7532 -0.2581
 4312SOL    HW317015   1.989   5.248   5.258  0.7951  1.5762  1.7491
 4312SOL    MW417016   1.929   5.305   5.229  0.3807 -0.3294  0.4462
 4313SOL     OW17017   2.857   5.526   1.470  0.0889 -0.1162  0.1843
 4313SOL    HW217018   2.844   5.460   1.402 -0.2326  0.5145 -0.3765
 4313SOL    HW317019   2.934   5.574   1.442  0.8120 -0.7555  1.0127
 4313SOL    MW417020   2.865   5.524   1.457  0.4595 -0.5639 -0.0005
 4314SOL     OW17021   3.742   4.682   1.615  0.5555 -0.0210 -0.0632
 4314SOL    HW217022   3.765   4.742   1.686 -1.3126 -1.6571  2.0678
 4314SOL    HW317023   3.669   4.724   1.571  1.3991  0.7705 -0.7435
 4314SOL    MW417024   3.735   4.696   1.619 -0.0867 -0.0487  0.8542
 4315SOL     OW17025   2.309   2.878   3.828  0.1021  0.0035  0.2405
 4315SOL    HW217026   2.246   2.932   3.877 -0.4077  0.4347 -0.8397
 4315SOL    HW317027   2.279   2.885   3.737  0.6103 -1.3263 -0.0464
 4315SOL    MW417028   2.296   2.886   3.822  0.1668  0.6135  0.3059
 4316SOL     OW17029   1.588   2.886   0.774 -0.1715  0.8469 -0.9715
 4316SOL    HW217030   1.618   2.878   0.865  2.6581 -2.6600 -1.9847
 4316SOL    HW317031   1.519   2.820   0.767 -1.1446  1.8562 -1.1817
 4316SOL    MW417032   1.583   2.876   0.785  0.3006  0.5676 -0.5789
 4317SOL     OW17033   4.355   6.392   3.059 -0.3042  0.2180 -0.3306
 4317SOL    HW217034   4.436   6.343   3.054 -0.0001  0.5740  0.8501
 4317SOL    HW317035   4.375   6.477   3.018 -0.0073  0.3872  0.1573
 4317SOL    MW417036   4.368   6.397   3.053 -0.1672  0.2632  0.1302
 4318SOL     OW17037   1.986   3.060   3.584 -0.3315  0.2398  0.4272
 4318SOL    HW217038   2.067   3.018   3.554  0.6103  3.3176 -1.8342
 4318SOL    HW317039   1.986   3.047   3.678  1.5340 -1.8656  0.2392
 4318SOL    MW417040   1.997   3.053   3.592 -0.1328 -0.1037 -0.1401
 4319SOL     OW17041   3.033   5.987   1.152 -0.1834 -0.3095  0.2739
 4319SOL    HW217042   3.106   5.976   1.214 -0.3327  2.4848  1.0789
 4319SOL    HW317043   3.076   5.992   1.067  0.0636 -3.7116  0.0705
 4319SOL    MW417044   3.049   5.986   1.149 -0.8168 -0.3714  0.2207
 4320SOL     OW17045   0.396   2.702   1.124 -0.2479 -0.8306  0.7477
 4320SOL    HW217046   0.344   2.641   1.071 -1.2590  1.9274 -1.7098
 4320SOL    HW317047   0.355   2.700   1.210 -0.3544 -3.3920  0.7182
 4320SOL    MW417048   0.384   2.694   1.128 -0.3321 -0.1999 -0.1914
 4321SOL     OW17049   6.366   3.893   4.894 -0.1027  0.2975 -0.5241
 4321SOL    HW217050   6.327   3.838   4.827 -1.5225  0.8748 -0.1943
 4321SOL    HW317051   6.362   3.841   4.974 -3.9143  1.7270  0.4056
 4321SOL    MW417052   6.361   3.879   4.896  0.3105 -0.8140 -0.1129
 4322SOL     OW17053   1.294   3.290   5.101  0.8068 -0.5253 -0.3583
 4322SOL    HW217054   1.271   3.197   5.100  0.8322 -0.5484  0.5509
 4322SOL    HW317055   1.364   3.298   5.037  0.8113 -1.1319 -0.4358
 4322SOL    MW417056   1.300   3.279   5.093  0.2544 -0.0446 -0.0406
 4323SOL     OW17057   6.367   1.191   6.101  0.4990 -0.2894 -0.1306
 4323SOL    HW217058   6.398   1.220   6.016  0.3438 -0.4550 -0.2450
 4323SOL    HW317059   6.417   1.242   6.164  0.3726  0.0781 -0.3268
 4323SOL    MW417060   6.378   1.201   6.098 -0.1419 -0.1006 -0.7882
 4324SOL     OW17061   6.195   5.078   6.405 -0.3544 -0.4630  0.0694
 4324SOL    HW217062   6.113   5.033   6.422 -0.3309 -0.3234  0.5556
 4324SOL    HW317063   6.184   5.165   6.444 -0.1131 -0.3164 -0.1818
 4324SOL    MW417064   6.183   5.083   6.412  0.0397  0.2177  0.4900
 4325SOL     OW17065   4.684   0.347   6.421  0.1856  0.5632  0.6822
 4325SOL    HW217066   4.608   0.383   6.465 -0.7766 -0.6638  0.1010
 4325SOL    HW317067   4.730   0.298   6.489 -0.8938 -0.7122  0.5366
 4325SOL    MW417068   4.680   0.345   6.436  0.0061  0.6267  0.7024
 4326SOL     OW17069   0.875   2.819   5.518 -0.5027  0.2440 -0.2480
 4326SOL    HW217070   0.902   2.897   5.469  1.0565 -0.2833 -0.3022
 4326SOL    HW317071   0.805   2.781   5.465 -0.0506  0.6452 -1.1639
 4326SOL    MW417072   0.869   2.824   5.504 -0.3130  0.4128 -0.8117
 4327SOL     OW17073   1.065   1.834   6.039 -0.3831  0.1030 -0.1621
 4327SOL    HW217074   1.061   1.930   6.037  1.8488  0.2551 -0.9984
 4327SOL    HW317075   1.136   1.813   5.979  1.7375 -1.8428  2.7496
 4327SOL    MW417076   1.074   1.844   6.031  0.1675 -0.0377  0.2785
 4328SOL     OW17077   4.752   2.800   2.640  0.0173  0.3871 -0.0600
 4328SOL    HW217078   4.733   2.806   2.734 -0.5115 -3.3509  0.2427
 4328SOL    HW317079   4.846   2.784   2.635  0.1033  0.9181 -0.2215
 4328SOL    MW417080   4.762   2.799   2.652 -1.0340 -0.2978  0.6510
 4329SOL     OW17081   4.369   2.296   5.000 -0.1091  0.4237 -0.2392
 4329SOL    HW217082   4.341   2.218   5.048  0.6389 -0.7392 -1.5959
 4329SOL    HW317083   4.363   2.367   5.064 -1.5692 -0.5810  0.8278
 4329SOL    MW417084   4.364   2.295   5.015  0.5383  0.5825 -0.4408
 4330SOL     OW17085   0.223   1.774   2.475 -0.2100  0.3766  0.2891
 4330SOL    HW217086   0.129   1.754   2.471 -0.2041 -0.0260  1.6091
 4330SOL    HW317087   0.228   1.869   2.464 -0.9831  0.7061  2.2602
 4330SOL    MW417088   0.211   1.784   2.473 -0.3060 -0.2180  0.0444
 4331SOL     OW17089   5.505   1.740   0.629 -0.0901 -0.3419 -0.3382
 4331SOL    HW217090   5.512   1.695   0.545 -1.9296 -0.8894 -0.2399
 4331SOL    HW317091   5.446   1.814   0.611 -0.1439 -0.2100  0.3607
 4331SOL    MW417092   5.498   1.744   0.616 -0.1734 -0.2340 -0.2360
 4332SOL     OW17093   4.460   5.655   3.163  0.2157 -0.2453  0.2593
 4332SOL    HW217094   4.547   5.673   3.127 -1.8921  0.0584 -5.8223
 4332SOL    HW317095   4.418   5.740   3.169 -0.4150 -0.5829  0.7734
 4332SOL    MW417096   4.466   5.668   3.159 -0.5351 -0.2731 -0.7414
 4333SOL     OW17097   5.413   2.379   5.738  0.2292 -0.4384  0.5103
 4333SOL    HW217098   5.355   2.409   5.668 -0.4598  0.3228  1.3865
 4333SOL    HW317099   5.355   2.366   5.813  0.8846 -1.6674  0.8306
 4333SOL    MW417100   5.397   2.381   5.739 -0.0044  0.8922 -0.1122
 4334SOL     OW17101   2.341   1.561   5.893  0.7317  0.1349 -0.7088
 4334SOL    HW217102   2.411   1.496   5.904  1.5124  1.2612  1.5465
 4334SOL    HW317103   2.268   1.511   5.855  1.1846 -2.1649  1.2275
 4334SOL    MW417104   2.341   1.546   5.889  0.0546  0.2068 -0.1574
 4335SOL     OW17105   1.997   4.631   2.637  0.2120  0.3170 -0.4833
 4335SOL    HW217106   1.955   4.641   2.723 -0.4299  0.1436 -0.7697
 4335SOL    HW317107   2.055   4.706   2.630 -0.7363  1.0679 -0.4608
 4335SOL    MW417108   1.999   4.642   2.648 -0.2392 -0.2629 -0.1758
 4336SOL     OW17109   0.488   1.513   2.663  0.0743  0.2110 -0.1156
 4336SOL    HW217110   0.540   1.480   2.736 -0.6862 -1.2338 -0.2042
 4336SOL    HW317111   0.547   1.507   2.587  2.0343  4.6348  0.6965
 4336SOL    MW417112   0.503   1.508   2.663 -0.3077 -0.1137  0.0346
 4337SOL     OW17113   2.590   5.753   4.820  0.5226  0.6951 -0.1366
 4337SOL    HW217114   2.661   5.812   4.845  0.8447  1.1411 -1.9657
 4337SOL    HW317115   2.625   5.703   4.746 -0.3044 -0.6740  0.3671
 4337SOL    MW417116   2.604   5.755   4.814 -0.1650  0.0003 -0.4196
 4338SOL     OW17117   5.675   4.306   0.898  0.3042  0.1925  0.1263
 4338SOL    HW217118   5.744   4.260   0.850  1.5112  0.1964  1.7650
 4338SOL    HW317119   5.715   4.390   0.922 -0.6194  0.5950  0.2952
 4338SOL    MW417120   5.689   4.311   0.895 -0.3832  0.1623 -0.6105
 4339SOL     OW17121   4.219   1.495   2.954  0.2302 -0.1020 -0.1866
 4339SOL    HW217122   4.314   1.487   2.942  0.5458  0.0086  1.8962
 4339SOL    HW317123   4.187   1.529   2.870  2.0492  0.1126 -0.8400
 4339SOL    MW417124   4.228   1.498   2.941  0.5341  0.5367  0.0557
 4340SOL     OW17125   4.621   4.874   5.723  0.0019  0.0067 -0.1760
 4340SOL    HW217126   4.546   4.931   5.733  0.0092 -0.3580  2.7459
 4340SOL    HW317127   4.679   4.897   5.796  2.6255  0.0646 -2.1271
 4340SOL    MW417128   4.619   4.885   5.734 -0.5144  0.0239 -0.1398
 4341SOL     OW17129   0.622   1.263   1.726  0.7588  0.0289 -0.1926
 4341SOL    HW217130   0.700   1.246   1.673  1.9174  1.3024  1.0326
 4341SOL    HW317131   0.629   1.355   1.750 -1.9233  0.6288 -1.2580
 4341SOL    MW417132   0.633   1.273   1.722  0.1154  0.1316 -0.2457
 4342SOL     OW17133   2.611   2.640   4.570 -0.0573  0.1155 -0.2941
 4342SOL    HW217134   2.631   2.597   4.487  1.3613  1.8320 -0.9206
 4342SOL    HW317135   2.691   2.689   4.591 -1.3093  1.8434  0.7023
 4342SOL    MW417136   2.624   2.641   4.562 -0.5231  0.1832  0.4508
 4343SOL     OW17137   0.713   0.279   5.504  0.1242  0.4774  0.3178
 4343SOL    HW217138   0.628   0.322   5.505 -0.1862 -0.0963 -0.6939
 4343SOL    HW317139   0.701   0.200   5.557  0.0233  0.3880  0.1609
 4343SOL    MW417140   0.700   0.274   5.511 -0.8511  0.0742 -0.4977
 4344SOL     OW17141   6.423   6.348   5.447  0.2397 -0.4302  0.5043
 4344SOL    HW217142   6.376   6.410   5.392  2.1486 -1.5572 -2.6826
 4344SOL    HW317143   6.364   6.274   5.457 -0.0005 -0.3759 -0.4433
 4344SOL    MW417144   6.409   6.346   5.441 -0.5686  0.3798  0.0340
 4345SOL     OW17145   0.059   1.388   0.743  0.3246 -0.1915  0.4191
 4345SOL    HW217146   0.113   1.432   0.809  0.1695  0.3870  0.1645
 4345SOL    HW317147   0.093   1.420   0.660 -0.1748 -0.1040  0.2473
 4345SOL    MW417148   0.071   1.398   0.741  1.0753  0.2249  0.0594
 4346SOL     OW17149   5.016   3.439   1.117  0.4191 -0.0269 -0.1232
 4346SOL    HW217150   4.978   3.485   1.192 -0.1351  0.5566 -0.7511
 4346SOL    HW317151   4.996   3.495   1.042  0.7976 -0.7028 -0.7381
 4346SOL    MW417152   5.008   3.453   1.117 -0.3014  0.3998  0.0901
 4347SOL     OW17153   3.604   5.611   1.496  0.7379 -0.3330 -0.2135
 4347SOL    HW217154   3.525   5.662   1.484 -0.3968 -1.9469  0.1313
 4347SOL    HW317155   3.579   5.521   1.478  1.6791 -1.3450  2.7614
 4347SOL    MW417156   3.591   5.606   1.492  0.0697 -0.4623 -0.5915
 4348SOL     OW17157   2.192   2.658   6.295 -0.3821  0.5977 -0.0516
 4348SOL    HW217158   2.150   2.668   6.380  0.0704  1.5772  0.0751
 4348SOL    HW317159   2.256   2.730   6.291  0.6174 -0.2933 -0.6165
 4348SOL    MW417160   2.195   2.669   6.305 -0.7734  0.4169 -0.5667
 4349SOL     OW17161   2.346   2.625   3.945  0.0941  0.4307 -0.5237
 4349SOL    HW217162   2.384   2.555   3.892  1.6651  0.8591 -0.0199
 4349SOL    HW317163   2.320   2.692   3.881  0.6423  0.3204 -0.8749
 4349SOL    MW417164   2.348   2.625   3.930 -0.3910  0.5970  0.0814
 4350SOL     OW17165   1.626   1.636   5.092  0.0541  0.1419 -0.3768
 4350SOL    HW217166   1.676   1.566   5.052 -0.2374 -0.7097  0.7025
 4350SOL    HW317167   1.686   1.711   5.093  1.1145 -0.6898  0.3782
 4350SOL    MW417168   1.640   1.637   5.087 -0.3082 -0.0379 -0.1788
 4351SOL     OW17169   5.757   3.623   0.747 -0.4496  0.7202 -0.8470
 4351SOL    HW217170   5.814   3.558   0.787  0.2435  0.7211 -1.7902
 4351SOL    HW317171   5.700   3.653   0.818 -2.0045 -2.1584 -0.7118
 4351SOL    MW417172   5.757   3.618   0.761 -0.1020 -0.5374  0.3611
 4352SOL     OW17173   1.268   2.025   3.961  0.2431 -0.7828  0.6199
 4352SOL    HW217174   1.190   1.998   3.913  0.1924  0.4852 -0.0657
 4352SOL    HW317175   1.306   1.944   3.993 -1.5028 -1.3971  1.2137
 4352SOL    MW417176   1.263   2.011   3.959 -0.0830 -0.0844 -0.4281
 4353SOL     OW17177   5.559   3.509   5.321  0.3195  0.7181 -0.1777
 4353SOL    HW217178   5.564   3.446   5.393 -0.2707  0.1276 -0.6388
 4353SOL    HW317179   5.528   3.457   5.247 -1.3736  1.7752 -0.2753
 4353SOL    MW417180   5.555   3.494   5.321  0.4653 -0.3332 -0.0817
 4354SOL     OW17181   2.823   3.631   0.642 -0.5114 -0.3037  0.7894
 4354SOL    HW217182   2.740   3.670   0.667 -0.2082  1.0646 -0.2282
 4354SOL    HW317183   2.879   3.705   0.619  1.0401 -1.1715  1.5312
 4354SOL    MW417184   2.820   3.646   0.642  0.7425 -0.1155 -0.1436
 4355SOL     OW17185   2.249   4.176   0.710 -0.0111 -0.6356  0.1026
 4355SOL    HW217186   2.230   4.270   0.703  1.8974 -0.2352 -0.1562
 4355SOL    HW317187   2.191   4.135   0.646 -2.2591  0.1188  1.5248
 4355SOL    MW417188   2.238   4.183   0.701  0.0710 -0.4785 -0.3436
 4356SOL     OW17189   4.912   4.641   1.303 -0.2626 -0.1000 -0.7821
 4356SOL    HW217190   4.940   4.620   1.392  0.4104 -0.8140 -1.1518
 4356SOL    HW317191   4.846   4.574   1.282 -1.2186  0.7054 -0.4458
 4356SOL    MW417192   4.907   4.629   1.312 -0.3118  0.2284 -0.3664
 4357SOL     OW17193   3.533   1.082   4.660  0.7028 -0.2536 -0.1732
 4357SOL    HW217194   3.438   1.092   4.667  0.3816 -2.0318 -1.4593
 4357SOL    HW317195   3.556   1.027   4.735  0.7487  0.2500  0.1893
 4357SOL    MW417196   3.523   1.076   4.671 -0.4220 -0.0386 -0.4579
 4358SOL     OW17197   5.245   4.900   3.603  0.0359  0.1855  0.5656
 4358SOL    HW217198   5.255   4.900   3.507 -0.5296 -0.0498  0.5008
 4358SOL    HW317199   5.275   4.813   3.629 -2.2235 -0.7197  0.3143
 4358SOL    MW417200   5.251   4.888   3.593 -0.0995 -0.3405  0.2941
 4359SOL     OW17201   2.220   1.647   5.298 -0.9976  1.0909  0.2791
 4359SOL    HW217202   2.226   1.684   5.386  0.3590  0.5358  0.4486
 4359SOL    HW317203   2.146   1.586   5.303  1.6291 -2.2871  2.4023
 4359SOL    MW417204   2.211   1.644   5.310 -0.1089 -0.4301 -0.1455
 4360SOL     OW17205   5.130   1.502   2.397 -0.4981 -0.1320  0.3597
 4360SOL    HW217206   5.098   1.412   2.393 -0.9050 -0.0234  0.9550
 4360SOL    HW317207   5.065   1.548   2.451 -0.9637  0.8073 -0.9471
 4360SOL    MW417208   5.117   1.496   2.404  0.2139 -0.2712  0.1308
 4361SOL     OW17209   0.233   1.216   5.144  0.1365 -0.0305 -0.2674
 4361SOL    HW217210   0.227   1.249   5.234  1.1513  0.5816 -0.4101
 4361SOL    HW317211   0.168   1.267   5.095 -1.7179 -1.5847  0.4213
 4361SOL    MW417212   0.223   1.227   5.150  0.6247 -0.4355 -0.8872
 4362SOL     OW17213   5.416   5.502   6.087  0.2415 -0.2567  0.5278
 4362SOL    HW217214   5.421   5.408   6.072  1.2989 -0.1470  0.1194
 4362SOL    HW317215   5.465   5.516   6.168  2.3433  0.2066 -0.7230
 4362SOL    MW417216   5.423   5.491   6.096 -0.0230  0.3557  0.6275
 4363SOL     OW17217   3.506   3.471   5.394  0.1706 -0.7446 -0.3663
 4363SOL    HW217218   3.537   3.383   5.415  1.4942 -1.4893 -4.5958
 4363SOL    HW317219   3.429   3.457   5.340 -1.5069  0.8960  1.4421
 4363SOL    MW417220   3.500   3.458   5.390  0.1597  0.6354  0.3952
 4364SOL     OW17221   3.519   4.757   3.799  0.3458 -0.2204 -0.0404
 4364SOL    HW217222   3.563   4.674   3.818 -1.4431 -1.1090  0.3764
 4364SOL    HW317223   3.577   4.801   3.736  1.9891 -1.1615  0.7535
 4364SOL    MW417224   3.532   4.752   3.793  1.1956  0.1778 -0.2607
 4365SOL     OW17225   5.700   3.943   2.283 -0.3105 -0.0726  0.6307
 4365SOL    HW217226   5.692   3.887   2.206 -0.6272  1.5952 -0.5936
 4365SOL    HW317227   5.794   3.956   2.293 -0.2838 -0.0153  0.3186
 4365SOL    MW417228   5.711   3.937   2.274 -0.7343 -0.0627 -0.1759
 4366SOL     OW17229   4.374   4.593   2.258 -0.7564 -0.2073 -0.0608
 4366SOL    HW217230   4.441   4.594   2.190 -0.4413 -1.0846  0.2203
 4366SOL    HW317231   4.291   4.597   2.210 -0.5308  1.7521 -0.3803
 4366SOL    MW417232   4.372   4.594   2.243  0.6193  0.5941 -0.2059
 4367SOL     OW17233   3.444   3.866   0.162 -0.1379 -0.0715 -0.2173
 4367SOL    HW217234   3.422   3.785   0.209  0.1585 -0.0690 -0.0763
 4367SOL    HW317235   3.359   3.904   0.140 -0.3001  0.3136  0.9730
 4367SOL    MW417236   3.430   3.860   0.166  0.2167 -0.0549 -0.3030
 4368SOL     OW17237   5.639   3.706   4.041 -0.0757 -0.3522 -0.1150
 4368SOL    HW217238   5.549   3.731   4.021 -0.2398 -1.6855 -1.2067
 4368SOL    HW317239   5.691   3.783   4.020 -0.6167 -0.6303 -2.7348
 4368SOL    MW417240   5.634   3.720   4.036 -0.5379 -0.4077  0.0963
 4369SOL     OW17241   4.945   5.547   3.086 -0.7562  0.0580  0.1585
 4369SOL    HW217242   5.006   5.589   3.026 -1.1284  1.4303  0.6854
 4369SOL    HW317243   4.978   5.458   3.097  0.7075  0.5447 -0.1545
 4369SOL    MW417244   4.957   5.541   3.080  0.1059 -0.3514 -1.0430
 4370SOL     OW17245   1.765   1.310   6.405 -0.1673  0.1882  0.5411
 4370SOL    HW217246   1.714   1.391   6.412  2.9151  2.5638 -1.5697
 4370SOL    HW317247   1.737   1.270   6.323  0.3694  0.7474  0.0795
 4370SOL    MW417248   1.755   1.315   6.395  0.1968  0.0877 -0.2293
 4371SOL     OW17249   3.275   2.123   5.961 -0.2527  0.2167  0.1930
 4371SOL    HW217250   3.284   2.032   5.990  3.4527  0.2532 -0.3319
 4371SOL    HW317251   3.311   2.123   5.872  0.8819  2.3837  0.5948
 4371SOL    MW417252   3.281   2.111   5.953 -0.0058 -0.1798  0.4850
 4372SOL     OW17253   2.147   0.430   4.710  0.5831 -0.0117 -0.1358
 4372SOL    HW217254   2.221   0.393   4.758  0.8301 -0.3095 -0.7474
 4372SOL    HW317255   2.081   0.361   4.712  0.3909  0.1778  0.2328
 4372SOL    MW417256   2.148   0.416   4.717 -0.3265 -0.3366  0.1307
 4373SOL     OW17257   0.152   0.534   6.044 -0.0145  0.0775  0.3446
 4373SOL    HW217258   0.188   0.586   6.115 -0.3363  0.0075  0.5593
 4373SOL    HW317259   0.154   0.444   6.077  2.2973 -0.3407 -0.7152
 4373SOL    MW417260   0.157   0.529   6.058 -0.0716 -0.5490  0.2437
 4374SOL     OW17261   5.962   6.042   4.209  0.0423 -0.2258  0.4393
 4374SOL    HW217262   6.043   5.997   4.186  1.5727  1.8103  1.5477
 4374SOL    HW317263   5.946   6.018   4.300  0.3109  0.6056  0.7199
 4374SOL    MW417264   5.971   6.033   4.218 -0.0473 -0.4826  0.2716
 4375SOL     OW17265   2.506   0.642   0.698  0.2345 -0.1669  0.0918
 4375SOL    HW217266   2.476   0.552   0.689 -0.2648 -0.3651  2.7567
 4375SOL    HW317267   2.596   0.634   0.730  0.1052  0.2375  0.5814
 4375SOL    MW417268   2.514   0.629   0.701  0.4165  0.4007 -0.7489
 4376SOL     OW17269   2.224   3.135   2.934  0.1355  0.2120 -0.3466
 4376SOL    HW217270   2.300   3.153   2.880  1.1092 -0.3667  0.7677
 4376SOL    HW317271   2.224   3.205   3.000 -1.0890  0.9706 -1.1215
 4376SOL    MW417272   2.234   3.147   2.936  0.4494  0.3861 -0.4965
 4377SOL     OW17273   0.835   0.924   4.217 -0.0419  0.3724 -0.5898
 4377SOL    HW217274   0.769   0.958   4.277  2.1783  1.0638  1.6214
 4377SOL    HW317275   0.825   0.829   4.222  1.5149  0.2505  2.8349
 4377SOL    MW417276   0.825   0.916   4.225 -0.1710  0.1976  0.0263
 4378SOL     OW17277   5.114   2.017   4.841  0.3990  0.6459 -0.7895
 4378SOL    HW217278   5.146   1.930   4.862 -0.6278  0.8036  1.8353
 4378SOL    HW317279   5.163   2.043   4.763  2.8753 -1.0732  0.0880
 4378SOL    MW417280   5.124   2.009   4.833  0.4464  0.0152  0.1108
 4379SOL     OW17281   0.223   5.701   4.059 -0.7807  0.6390  0.1692
 4379SOL    HW217282   0.301   5.663   4.019 -1.0390  0.5296 -0.2336
 4379SOL    HW317283   0.229   5.675   4.151  0.3445  1.7578  0.4388
 4379SOL    MW417284   0.234   5.693   4.066 -0.6784 -0.2640  0.1504
 4380SOL     OW17285   1.188   2.782   4.266 -0.0273  0.1792  0.2007
 4380SOL    HW217286   1.200   2.818   4.354  0.0751  0.7016 -0.0246
 4380SOL    HW317287   1.233   2.698   4.268  1.2314  0.8365  0.2232
 4380SOL    MW417288   1.195   2.776   4.278 -0.2643  0.1363 -0.1498
 4381SOL     OW17289   1.182   3.576   0.118 -0.0682 -0.3838 -0.4472
 4381SOL    HW217290   1.276   3.596   0.120  0.0497 -1.0037  1.7304
 4381SOL    HW317291   1.141   3.661   0.099  0.9016 -0.2317 -2.1604
 4381SOL    MW417292   1.189   3.590   0.116  0.3338  0.2176  0.0079
 4382SOL     OW17293   0.319   1.561   5.620  0.2691  0.0320  0.2702
 4382SOL    HW217294   0.295   1.469   5.606  0.7689 -0.1986  0.8989
 4382SOL    HW317295   0.331   1.568   5.714 -0.8553  1.0194  0.3567
 4382SOL    MW417296   0.318   1.550   5.630 -0.1294  0.3265 -0.0363
 4383SOL     OW17297   3.382   1.485   5.511  0.0884 -0.2748 -0.3269
 4383SOL    HW217298   3.476   1.487   5.495  0.3264 -1.6093  0.7482
 4383SOL    HW317299   3.365   1.397   5.545 -1.6989 -0.3817 -1.3484
 4383SOL    MW417300   3.392   1.474   5.513  0.4419 -0.5007 -0.4385
 4384SOL     OW17301   1.248   5.971   5.956  0.4271  0.0872  0.1159
 4384SOL    HW217302   1.177   5.908   5.964 -0.5755  1.3042  1.1878
 4384SOL    HW317303   1.313   5.941   6.019  0.5273 -0.5528 -0.2727
 4384SOL    MW417304   1.248   5.958   5.965  0.1818  0.5007 -0.1490
 4385SOL     OW17305   0.036   1.228   5.646 -0.4867  0.0811 -0.5644
 4385SOL    HW217306   0.029   1.139   5.679  0.2443  0.3900  0.4826
 4385SOL    HW317307   0.127   1.236   5.617 -0.0635  0.9747  0.9072
 4385SOL    MW417308   0.047   1.218   5.647  0.2026 -0.3179  0.3862
 4386SOL     OW17309   6.276   5.315   6.039  0.5093  0.3249 -0.3144
 4386SOL    HW217310   6.315   5.400   6.017 -1.0307  1.3693  0.7795
 4386SOL    HW317311   6.197   5.310   5.986 -0.0939  0.1974  0.5632
 4386SOL    MW417312   6.271   5.326   6.029 -0.0685 -0.2114 -0.9202
 4387SOL     OW17313   5.748   5.806   6.018  0.7820  0.1578  0.0154
 4387SOL    HW217314   5.692   5.784   5.943  0.3291  2.1912 -0.3176
 4387SOL    HW317315   5.786   5.891   5.994  0.0026  1.2517  2.4185
 4387SOL    MW417316   5.746   5.814   6.005  0.2017  0.1615 -0.0595
 4388SOL     OW17317   0.555   4.033   4.674 -0.1605  0.3479 -0.1390
 4388SOL    HW217318   0.517   3.990   4.750 -1.0906  1.6509  0.1705
 4388SOL    HW317319   0.639   3.989   4.661 -0.2314 -0.2732  1.2997
 4388SOL    MW417320   0.561   4.022   4.683 -0.0055 -0.5140  0.5281
 4389SOL     OW17321   3.808   1.161   4.196 -0.1360 -0.4016 -0.1153
 4389SOL    HW217322   3.764   1.097   4.140  0.1832 -0.9841  0.2868
 4389SOL    HW317323   3.899   1.131   4.200 -0.1072 -0.2525  0.5451
 4389SOL    MW417324   3.814   1.148   4.189  0.5523  0.7070  0.4270
 4390SOL     OW17325   2.544   4.247   2.313 -0.0661  0.4733  0.0527
 4390SOL    HW217326   2.552   4.193   2.392 -0.3239 -0.7390 -0.7213
 4390SOL    HW317327   2.454   4.278   2.314 -1.0257 -1.9980 -1.2405
 4390SOL    MW417328   2.533   4.244   2.324  0.1421 -0.4268 -0.7705
 4391SOL     OW17329   3.133   3.008   6.325  0.2362  0.1636  0.0666
 4391SOL    HW217330   3.124   2.920   6.364 -0.9634 -0.5893 -1.7818
 4391SOL    HW317331   3.045   3.031   6.297  0.6573  1.6940 -0.0822
 4391SOL    MW417332   3.120   2.999   6.327  0.2082  0.5830 -0.3273
 4392SOL     OW17333   5.895   4.898   0.615  0.1803  0.0762 -0.3649
 4392SOL    HW217334   5.932   4.839   0.549  0.1124  0.7491 -1.0263
 4392SOL    HW317335   5.801   4.886   0.609  0.1560  0.3791 -0.6328
 4392SOL    MW417336   5.888   4.889   0.606  0.0406 -0.8420  0.2023
 4393SOL     OW17337   3.494   5.151   0.281 -0.1752 -0.3400 -0.4696
 4393SOL    HW217338   3.418   5.096   0.300  0.0098 -0.1884  0.7401
 4393SOL    HW317339   3.502   5.208   0.357  0.7686  0.0829 -0.8757
 4393SOL    MW417340   3.485   5.151   0.293  0.1153 -0.5883  0.2681
 4394SOL     OW17341   3.369   5.937   3.387  0.8210 -0.1358  0.2741
 4394SOL    HW217342   3.450   5.987   3.394  1.1713 -0.1249 -2.4751
 4394SOL    HW317343   3.375   5.895   3.301 -1.4834 -1.2346  0.5856
 4394SOL    MW417344   3.380   5.938   3.376  0.1317 -0.6051  0.0974
 4395SOL     OW17345   5.098   0.620   5.521 -0.0903 -0.5133  0.4792
 4395SOL    HW217346   5.035   0.679   5.481 -0.4973 -0.7580  0.7537
 4395SOL    HW317347   5.074   0.618   5.614 -1.4153 -2.7024  0.1589
 4395SOL    MW417348   5.086   0.627   5.528  0.3287  0.3266 -0.2527
 4396SOL     OW17349   5.539   4.807   4.079  0.2117  0.0590 -0.3674
 4396SOL    HW217350   5.468   4.867   4.055 -0.0895 -0.2957 -0.3737
 4396SOL    HW317351   5.585   4.790   3.997  0.8266  0.9598 -0.2136
 4396SOL    MW417352   5.536   4.813   4.065  0.4397 -0.1763 -0.0003
 4397SOL     OW17353   2.415   2.745   1.923  0.1160  0.1040 -0.0445
 4397SOL    HW217354   2.462   2.667   1.893  0.0030 -0.7933  1.9568
 4397SOL    HW317355   2.340   2.752   1.864 -0.2759 -1.7572  0.1762
 4397SOL    MW417356   2.412   2.736   1.911  0.1638  0.3810  0.3323
 4398SOL     OW17357   0.385   0.136   4.147 -0.2438  0.3999  0.5942
 4398SOL    HW217358   0.385   0.226   4.179 -0.3845  0.7060 -0.2295
 4398SOL    HW317359   0.293   0.119   4.124 -0.2931 -0.1037  1.1386
 4398SOL    MW417360   0.373   0.145   4.148  0.0128  0.6619  0.0710
 4399SOL     OW17361   0.455   6.230   5.157 -0.4623 -0.3840  0.6650
 4399SOL    HW217362   0.485   6.140   5.160  1.0478  0.0983  1.3615
 4399SOL    HW317363   0.367   6.227   5.193 -0.5825 -1.6199  0.3156
 4399SOL    MW417364   0.448   6.218   5.162 -0.0424 -0.7678  0.1537
 4400SOL     OW17365   2.617   3.659   5.482 -0.4969  0.3340 -0.4779
 4400SOL    HW217366   2.525   3.672   5.502 -0.7275  0.8152 -1.7589
 4400SOL    HW317367   2.664   3.687   5.561 -1.4620 -0.7111  0.5042
 4400SOL    MW417368   2.611   3.664   5.495 -0.7157 -0.3938 -0.3729
 4401SOL     OW17369   3.431   1.153   2.554 -0.2486  0.2436 -0.3400
 4401SOL    HW217370   3.351   1.160   2.605 -0.4023 -0.2939 -0.5029
 4401SOL    HW317371   3.425   1.068   2.510  0.6869 -0.0857  0.1263
 4401SOL    MW417372   3.420   1.143   2.554  0.2443 -0.3609  0.2544
 4402SOL     OW17373   1.266   2.997   3.107 -0.3162  0.0445 -0.1451
 4402SOL    HW217374   1.174   3.015   3.089 -0.1367  0.9687 -0.1887
 4402SOL    HW317375   1.277   2.904   3.086 -0.6836  0.4600 -2.5191
 4402SOL    MW417376   1.255   2.987   3.102  0.0174 -0.4230  0.0076
 4403SOL     OW17377   2.835   4.276   4.988  0.1216 -0.5478  0.2287
 4403SOL    HW217378   2.889   4.248   4.914 -0.4284 -0.6887 -0.1274
 4403SOL    HW317379   2.786   4.198   5.013  0.4517 -0.5565  0.8828
 4403SOL    MW417380   2.836   4.262   4.981  0.0863 -0.3093  0.0217
 4404SOL     OW17381   5.757   4.630   5.388 -0.2752 -0.0680 -0.3211
 4404SOL    HW217382   5.748   4.540   5.418  2.1035 -0.8441 -1.7240
 4404SOL    HW317383   5.851   4.644   5.378 -0.4712  2.9502  0.8636
 4404SOL    MW417384   5.768   4.620   5.391  0.6473  0.0137 -0.2742
 4405SOL     OW17385   6.134   0.851   0.377  0.4800 -0.7190  0.3308
 4405SOL    HW217386   6.051   0.809   0.398 -0.1025  0.4536  0.4985
 4405SOL    HW317387   6.147   0.835   0.283  0.5584 -1.7100  0.4989
 4405SOL    MW417388   6.125   0.844   0.367  0.7199 -0.1847 -0.0187
 4406SOL     OW17389   0.267   4.551   0.995  0.2502 -0.2340 -0.4439
 4406SOL    HW217390   0.309   4.573   0.912 -0.1533  1.0226 -0.3255
 4406SOL    HW317391   0.325   4.588   1.062  0.5632 -1.2198 -0.1478
 4406SOL    MW417392   0.280   4.559   0.993  0.8152 -0.1031 -0.2969
 4407SOL     OW17393   2.827   5.045   3.355 -0.1681 -0.5420 -0.1771
 4407SOL    HW217394   2.838   4.956   3.389  0.3198  0.4856  2.6491
 4407SOL    HW317395   2.754   5.081   3.406  1.4935  1.5622  0.8495
 4407SOL    MW417396   2.819   5.038   3.367 -0.4143 -0.7141  0.0307
 4408SOL     OW17397   5.171   4.033   4.181 -0.2064  0.1070 -0.8887
 4408SOL    HW217398   5.146   3.983   4.103  0.8494 -0.0431 -1.1495
 4408SOL    HW317399   5.265   4.046   4.171  0.0393 -0.3688  0.6344
 4408SOL    MW417400   5.180   4.028   4.169  0.2750  0.2539  0.3747
 4409SOL     OW17401   0.413   4.520   6.089  0.0796 -0.0550 -0.0096
 4409SOL    HW217402   0.342   4.580   6.065  1.1995  0.5420 -2.0781
 4409SOL    HW317403   0.458   4.564   6.161  0.2692  1.1345 -0.8298
 4409SOL    MW417404   0.410   4.534   6.096  0.0904  0.1951 -0.6517
 4410SOL     OW17405   6.021   1.411   3.263 -0.2884 -0.3530  0.0702
 4410SOL    HW217406   5.961   1.336   3.267  0.2074 -0.7266  0.8182
 4410SOL    HW317407   6.043   1.429   3.355  0.9688 -0.4193 -0.1938
 4410SOL    MW417408   6.016   1.403   3.276 -0.2677  0.2292 -0.5411
 4411SOL     OW17409   4.060   5.508   0.617  0.0365  0.0189  0.0611
 4411SOL    HW217410   3.986   5.562   0.645  1.3722  1.0850  1.7393
 4411SOL    HW317411   4.023   5.448   0.552 -2.4520  0.0134  1.3538
 4411SOL    MW417412   4.045   5.507   0.612  0.8637 -0.0716 -0.1167
 4412SOL     OW17413   4.844   5.548   1.062 -0.1721 -0.3516  0.2769
 4412SOL    HW217414   4.759   5.530   1.103  0.3402 -1.9661  0.7465
 4412SOL    HW317415   4.866   5.466   1.018  0.3404  0.6285 -1.3466
 4412SOL    MW417416   4.836   5.534   1.062 -0.8868  0.1948 -0.5606
 4413SOL     OW17417   4.687   1.365   5.355 -0.5021  0.0786  0.3413
 4413SOL    HW217418   4.722   1.277   5.372 -0.4532  0.0100 -0.1043
 4413SOL    HW317419   4.727   1.420   5.423  1.4825  0.2458 -0.8871
 4413SOL    MW417420   4.697   1.361   5.366 -0.6807 -0.7925 -0.0186
 4414SOL     OW17421   3.942   4.247   1.402  0.0639 -0.0486  0.1397
 4414SOL    HW217422   3.854   4.222   1.371  0.2525  0.4524 -0.8254
 4414SOL    HW317423   3.982   4.291   1.328  0.4600  1.4099  1.1825
 4414SOL    MW417424   3.936   4.249   1.388  0.9918  0.2220  0.3911
 4415SOL     OW17425   2.319   4.197   2.650 -0.0619  0.1165 -0.0228
 4415SOL    HW217426   2.272   4.165   2.573  0.7836  0.5859 -0.7559
 4415SOL    HW317427   2.334   4.290   2.632  1.8526 -0.1875 -0.2172
 4415SOL    MW417428   2.315   4.205   2.637 -0.9369  0.4509  0.3048
 4416SOL     OW17429   5.818   5.972   0.407  0.0181  0.5959 -0.0469
 4416SOL    HW217430   5.772   6.055   0.390  0.0272  0.4219 -0.9338
 4416SOL    HW317431   5.909   5.998   0.420  0.2542  0.6105 -1.5900
 4416SOL    MW417432   5.824   5.986   0.407  0.0506  0.9408 -0.4777
 4417SOL     OW17433   1.636   4.100   4.739  0.0200 -0.9752  0.0952
 4417SOL    HW217434   1.608   4.018   4.699 -0.5302 -0.3432 -0.8748
 4417SOL    HW317435   1.708   4.130   4.684 -0.6391 -0.1764 -0.3683
 4417SOL    MW417436   1.642   4.093   4.727 -0.2462  0.1070 -0.3794
 4418SOL     OW17437   2.510   2.163   1.789  0.4132 -0.3479 -0.1098
 4418SOL    HW217438   2.514   2.184   1.883  0.2492 -0.0967 -0.1573
 4418SOL    HW317439   2.599   2.135   1.767  0.4412 -0.4459  0.1312
 4418SOL    MW417440   2.523   2.162   1.799  0.3484  0.2853  0.6011
 4419SOL     OW17441   0.760   0.831   6.187  0.2775 -0.3231  0.6222
 4419SOL    HW217442   0.673   0.833   6.226  0.6261 -2.1292  1.6385
 4419SOL    HW317443   0.746   0.801   6.097 -0.2454  0.6274  0.3778
 4419SOL    MW417444   0.747   0.827   6.180  0.5303 -0.1208  0.6897
 4420SOL     OW17445   4.311   6.328   5.632 -0.3015 -0.1579  0.0788
 4420SOL    HW217446   4.336   6.421   5.627 -0.3380 -0.1947 -1.1799
 4420SOL    HW317447   4.377   6.283   5.579 -1.3599 -0.5979 -0.9116
 4420SOL    MW417448   4.323   6.335   5.624 -0.3412 -0.4655 -0.1855
 4421SOL     OW17449   3.765   2.345   4.092  0.1476 -0.3635 -0.9804
 4421SOL    HW217450   3.833   2.412   4.097  0.0801 -0.3717  0.1382
 4421SOL    HW317451   3.746   2.338   3.998  2.1243 -0.7969 -1.3861
 4421SOL    MW417452   3.771   2.353   4.080 -0.0459 -0.2914 -0.3139
 4422SOL     OW17453   2.982   3.450   5.758 -0.5084  0.6287  0.1880
 4422SOL    HW217454   3.042   3.468   5.686 -1.8025  0.4076 -0.9767
 4422SOL    HW317455   2.963   3.356   5.750 -0.9088  0.6683  0.6349
 4422SOL    MW417456   2.988   3.440   5.748 -0.4728  0.0745  0.5737
 4423SOL     OW17457   1.394   6.414   2.022 -0.2697  0.2428  0.5522
 4423SOL    HW217458   1.437   6.486   1.978  0.8466 -0.1182  1.0144
 4423SOL    HW317459   1.300   6.429   2.008  0.0021 -0.4897 -2.9334
 4423SOL    MW417460   1.387   6.425   2.014 -0.1136  0.1640  0.3888
 4424SOL     OW17461   2.502   4.160   0.614 -0.3228  0.3454 -0.2961
 4424SOL    HW217462   2.555   4.151   0.694  0.7112  0.3580 -0.9634
 4424SOL    HW317463   2.413   4.176   0.646  0.2761  1.5472  0.8648
 4424SOL    MW417464   2.497   4.161   0.629  0.7811  0.4582 -0.2215
 4425SOL     OW17465   0.884   6.414   5.210 -0.4333  0.3355 -0.0921
 4425SOL    HW217466   0.887   6.505   5.239  0.1096  0.9936 -2.1169
 4425SOL    HW317467   0.801   6.407   5.162 -0.2967 -0.1440 -0.2621
 4425SOL    MW417468   0.873   6.425   5.208 -0.1057  0.0556 -0.0808
 4426SOL     OW17469   2.068   2.110   2.007 -0.3773 -0.2260 -0.2347
 4426SOL    HW217470   2.122   2.068   1.940  0.1545 -1.2658  0.8036
 4426SOL    HW317471   2.065   2.202   1.982  1.5997 -0.1949 -0.5121
 4426SOL    MW417472   2.074   2.116   1.995  0.9039 -0.0715 -0.0714
 4427SOL     OW17473   3.612   5.274   6.198  0.0020  0.5385 -1.0371
 4427SOL    HW217474   3.610   5.185   6.232 -1.2131  1.3382  1.1676
 4427SOL    HW317475   3.675   5.320   6.254 -1.4697  1.7206 -0.2951
 4427SOL    MW417476   3.620   5.268   6.210 -0.4987 -0.3315 -0.2662
 4428SOL     OW17477   1.551   3.275   3.357 -0.1279 -0.3726 -0.0776
 4428SOL    HW217478   1.585   3.357   3.320 -2.2810  0.7572  0.2311
 4428SOL    HW317479   1.571   3.209   3.291 -2.3293  1.2629 -2.6609
 4428SOL    MW417480   1.558   3.277   3.343  0.2625  0.0787  0.0049
 4429SOL     OW17481   5.744   1.045   0.533 -0.5738  0.1914 -0.2729
 4429SOL    HW217482   5.836   1.063   0.553 -0.2853 -2.0680  0.7246
 4429SOL    HW317483   5.716   1.119   0.480  1.6004  1.3139  0.0390
 4429SOL    MW417484   5.752   1.057   0.529 -0.3416  0.3235 -0.6120
 4430SOL     OW17485   3.400   0.529   4.576 -1.0839  0.1088  0.1393
 4430SOL    HW217486   3.394   0.612   4.529 -1.1388  0.3618  0.5866
 4430SOL    HW317487   3.402   0.463   4.508  0.7329  0.5570 -0.3075
 4430SOL    MW417488   3.399   0.531   4.561 -0.1832 -0.1660 -0.0528
 4431SOL     OW17489   4.332   3.826   5.488  0.1759 -0.0747  0.3904
 4431SOL    HW217490   4.322   3.758   5.421 -0.2214 -0.0851  0.4585
 4431SOL    HW317491   4.393   3.889   5.449 -0.5872  0.2719 -0.2631
 4431SOL    MW417492   4.339   3.825   5.474 -0.2054 -0.3306 -0.0487
 4432SOL     OW17493   2.832   2.188   4.473  0.0051 -0.0914 -0.3032
 4432SOL    HW217494   2.903   2.218   4.531 -0.9015  1.0032  0.2909
 4432SOL    HW317495   2.752   2.202   4.524 -0.8451  1.0962 -1.8607
 4432SOL    MW417496   2.831   2.194   4.487  0.2369  0.2044  0.4580
 4433SOL     OW17497   2.517   6.216   1.787 -0.4316 -0.3747  0.1246
 4433SOL    HW217498   2.597   6.266   1.775 -1.0744  0.2316 -2.1090
 4433SOL    HW317499   2.447   6.280   1.780 -1.2127 -1.3138 -1.1591
 4433SOL    MW417500   2.518   6.231   1.785  0.2040 -0.0284 -0.2158
 4434SOL     OW17501   0.605   2.852   5.151 -0.2241 -0.4412 -0.4139
 4434SOL    HW217502   0.570   2.826   5.066 -0.9520  0.3451 -0.3660
 4434SOL    HW317503   0.533   2.899   5.193 -0.5329 -2.3395  1.3640
 4434SOL    MW417504   0.591   2.855   5.146  0.0308 -0.4957  0.4823
 4435SOL     OW17505   5.621   5.617   4.915 -0.1647  0.2078 -0.1658
 4435SOL    HW217506   5.606   5.545   4.975 -0.3735  0.0648 -0.3888
 4435SOL    HW317507   5.643   5.691   4.971 -0.1747  0.0281  0.0750
 4435SOL    MW417508   5.622   5.618   4.930 -0.1465 -0.5128  0.0482
 4436SOL     OW17509   3.296   2.898   4.098  0.6923 -1.0496 -0.0994
 4436SOL    HW217510   3.205   2.874   4.117  1.0958 -2.5571  0.0727
 4436SOL    HW317511   3.292   2.991   4.077 -0.8746 -1.0582  0.0100
 4436SOL    MW417512   3.284   2.907   4.098 -0.4888  0.3636 -0.2638
 4437SOL     OW17513   3.938   5.577   3.535 -0.0990  0.2015 -0.2581
 4437SOL    HW217514   3.860   5.596   3.484 -0.5279  0.1729  0.3729
 4437SOL    HW317515   3.940   5.644   3.603  0.4952  0.2748 -0.3377
 4437SOL    MW417516   3.928   5.588   3.537 -0.4436 -0.5969 -0.4242
 4438SOL     OW17517   5.613   1.582   4.052 -0.2797  0.3739  0.0840
 4438SOL    HW217518   5.586   1.646   3.986 -0.3396 -1.3842 -1.7044
 4438SOL    HW317519   5.537   1.524   4.062  1.2252 -2.2639 -2.0599
 4438SOL    MW417520   5.599   1.583   4.044  0.4962 -0.0419 -0.3402
 4439SOL     OW17521   0.486   4.461   1.998  0.1908 -0.0515 -0.2594
 4439SOL    HW217522   0.498   4.367   1.980  0.7828 -0.4774  2.0447
 4439SOL    HW317523   0.391   4.474   1.996  0.1253 -0.5684 -1.0887
 4439SOL    MW417524   0.475   4.450   1.995  0.2692 -0.0867 -0.4036
 4440SOL     OW17525   4.124   1.585   2.227 -0.2221  0.0981  0.5025
 4440SOL    HW217526   4.208   1.596   2.271  1.0110 -3.6088 -0.5238
 4440SOL    HW317527   4.136   1.626   2.141  1.3584 -1.9222 -0.3453
 4440SOL    MW417528   4.137   1.592   2.221 -0.1255  0.0418  0.3615
 4441SOL     OW17529   1.662   4.618   0.464  0.1214  0.8365 -0.3024
 4441SOL    HW217530   1.583   4.651   0.507 -1.4689 -1.3528 -1.3258
 4441SOL    HW317531   1.662   4.659   0.378 -0.8260 -0.3029 -0.8804
 4441SOL    MW417532   1.651   4.628   0.458 -0.0041  0.4526  0.6853
 4442SOL     OW17533   4.422   0.451   4.963  0.5755  0.3375 -0.3849
 4442SOL    HW217534   4.354   0.406   5.014 -0.2583 -1.2890 -2.7898
 4442SOL    HW317535   4.380   0.531   4.932  0.9878  1.1768  1.0917
 4442SOL    MW417536   4.408   0.456   4.966 -0.1361 -0.1628 -0.1458
 4443SOL     OW17537   2.176   4.357   1.120 -0.7289  0.2536 -0.1426
 4443SOL    HW217538   2.217   4.299   1.056  0.5728 -0.9916  1.7301
 4443SOL    HW317539   2.226   4.439   1.113 -1.1150  0.4182 -1.2192
 4443SOL    MW417540   2.188   4.360   1.110 -0.0187  0.0627 -0.3980
 4444SOL     OW17541   3.079   1.044   4.046  0.3801 -0.2784 -0.8263
 4444SOL    HW217542   3.071   1.120   4.104  0.2894 -0.3589 -0.7323
 4444SOL    HW317543   3.021   1.064   3.973 -0.1060 -0.5178 -0.5164
 4444SOL    MW417544   3.070   1.056   4.044  0.5249 -0.3798 -0.2955
 4445SOL     OW17545   5.999   4.610   1.413 -0.2179 -0.1697  0.7840
 4445SOL    HW217546   6.011   4.558   1.493 -1.0251  0.5463  1.3986
 4445SOL    HW317547   5.904   4.619   1.405 -0.2039 -1.1444 -0.8858
 4445SOL    MW417548   5.988   4.604   1.423  0.3136  0.2166 -0.4757
 4446SOL     OW17549   0.432   1.104   1.937  0.2069  0.1831  0.0107
 4446SOL    HW217550   0.386   1.047   1.876  1.5485  0.6168 -1.4965
 4446SOL    HW317551   0.503   1.143   1.884  1.0963  0.9968  1.7200
 4446SOL    MW417552   0.435   1.102   1.922 -0.5366 -0.1209 -0.2577
 4447SOL     OW17553   1.013   1.340   5.071  0.7511 -0.2786  0.0015
 4447SOL    HW217554   1.083   1.399   5.047 -1.1790  1.4602 -1.7810
 4447SOL    HW317555   0.944   1.397   5.105 -0.2082 -1.8006  0.7246
 4447SOL    MW417556   1.013   1.355   5.073 -0.1520 -0.2906 -0.1274
 4448SOL     OW17557   0.448   6.226   3.379 -0.1510  0.1373  0.2342
 4448SOL    HW217558   0.503   6.159   3.419 -1.4776 -0.9018  0.4108
 4448SOL    HW317559   0.509   6.287   3.338  1.1081 -0.9900  0.3748
 4448SOL    MW417560   0.463   6.226   3.379 -0.2027  0.1639 -0.0769
 4449SOL     OW17561   6.053   0.876   5.180 -0.3182  0.1894  1.0250
 4449SOL    HW217562   6.103   0.816   5.235 -1.2014 -1.1113  0.4544
 4449SOL    HW317563   5.961   0.861   5.205 -0.7241 -0.2759 -0.6057
 4449SOL    MW417564   6.047   0.866   5.191  0.0454  0.5602  0.4396
 4450SOL     OW17565   4.986   4.501   6.014  0.2338  0.9504 -0.0108
 4450SOL    HW217566   4.926   4.499   6.089 -0.6705  1.4707 -0.7024
 4450SOL    HW317567   5.004   4.409   5.995 -0.8532  0.7637 -0.1816
 4450SOL    MW417568   4.981   4.488   6.021 -0.0094 -0.3444  0.2103
 4451SOL     OW17569   5.693   4.838   1.163  0.2802 -0.3678 -0.8282
 4451SOL    HW217570   5.606   4.864   1.193  0.0546 -1.8910 -0.0420
 4451SOL    HW317571   5.681   4.813   1.071  0.0287  0.0858 -0.9176
 4451SOL    MW417572   5.680   4.838   1.155 -0.3641 -0.0416 -0.2937
 4452SOL     OW17573   0.380   2.058   4.384  0.2019 -0.1530  0.4594
 4452SOL    HW217574   0.386   1.964   4.370 -0.5117 -0.1961  0.4269
 4452SOL    HW317575   0.318   2.089   4.318 -0.4675  0.1652  1.2306
 4452SOL    MW417576   0.373   2.050   4.373 -0.2479 -0.3267 -0.2740
 4453SOL     OW17577   0.621   2.376   3.368  0.5047 -0.2478 -0.2082
 4453SOL    HW217578   0.555   2.445   3.378  0.5471 -0.2202 -0.1229
 4453SOL    HW317579   0.622   2.331   3.452  0.8034 -0.0619 -0.1099
 4453SOL    MW417580   0.612   2.379   3.380  0.3872 -0.7760 -0.2766
 4454SOL     OW17581   6.273   5.302   0.740  0.1592  0.2298  0.6912
 4454SOL    HW217582   6.255   5.208   0.745  0.9045  0.1498  3.4323
 4454SOL    HW317583   6.350   5.309   0.683 -0.1913 -0.7402  0.0745
 4454SOL    MW417584   6.280   5.291   0.733 -0.1822  0.4191  0.3160
 4455SOL     OW17585   2.400   4.192   0.082 -0.4240 -0.2423  0.2246
 4455SOL    HW217586   2.454   4.270   0.089 -0.5709 -0.0723 -0.4577
 4455SOL    HW317587   2.430   4.149   0.002 -1.2209 -0.1938 -0.1154
 4455SOL    MW417588   2.411   4.197   0.072  0.4207  0.6397 -0.0936
 4456SOL     OW17589   4.319   0.485   1.042  0.0514  0.6672 -0.2554
 4456SOL    HW217590   4.245   0.533   1.005  0.0881 -0.3233 -1.6770
 4456SOL    HW317591   4.396   0.536   1.017 -0.0599  1.1449  0.3402
 4456SOL    MW417592   4.319   0.498   1.034  0.0541  0.1306 -0.5763
 4457SOL     OW17593   5.847   4.905   4.750 -0.4548  0.6994  0.0476
 4457SOL    HW217594   5.816   4.816   4.767  0.4789  0.5525  1.0657
 4457SOL    HW317595   5.875   4.904   4.658 -2.2245  0.4974 -0.5244
 4457SOL    MW417596   5.847   4.893   4.740  0.8091 -0.4572 -0.4125
 4458SOL     OW17597   4.821   0.500   5.008  0.0784 -0.3795  0.2592
 4458SOL    HW217598   4.792   0.411   4.992 -1.9478  0.5566 -1.8926
 4458SOL    HW317599   4.750   0.541   5.057 -0.4984  0.8385 -1.4833
 4458SOL    MW417600   4.808   0.494   5.012  0.1401 -0.0735  0.6614
 4459SOL     OW17601   6.316   6.016   1.194 -0.4701 -1.1045  0.2609
 4459SOL    HW217602   6.279   5.983   1.113 -0.7980 -0.2104  0.0310
 4459SOL    HW317603   6.365   5.942   1.231 -0.5952 -1.6127 -0.5771
 4459SOL    MW417604   6.318   6.002   1.188  0.2498 -0.6827  0.1261
 4460SOL     OW17605   4.292   2.991   6.240 -0.4056 -0.0896 -0.4096
 4460SOL    HW217606   4.366   3.045   6.212 -0.2404 -0.0632  0.0610
 4460SOL    HW317607   4.295   2.914   6.183 -0.1078 -0.0114 -0.5006
 4460SOL    MW417608   4.302   2.988   6.229  0.1659 -0.3708  0.0091
 4461SOL     OW17609   3.513   3.829   5.333 -0.1022  0.3690 -0.3389
 4461SOL    HW217610   3.599   3.870   5.345  0.3357 -0.6287  0.0630
 4461SOL    HW317611   3.519   3.747   5.381 -0.9663 -0.1598 -1.1029
 4461SOL    MW417612   3.525   3.824   5.341  0.1089  0.1430 -0.8161
 4462SOL     OW17613   6.297   1.651   2.678 -0.6888  0.3229 -0.4492
 4462SOL    HW217614   6.337   1.591   2.742  0.9246 -0.6929 -2.3082
 4462SOL    HW317615   6.220   1.605   2.645 -0.3914 -0.0115 -0.6746
 4462SOL    MW417616   6.292   1.637   2.682  0.4139  0.7127  0.1625
 4463SOL     OW17617   6.359   0.435   2.580 -0.0040 -0.2251  0.0038
 4463SOL    HW217618   6.370   0.511   2.523  1.1927 -0.0001  0.4998
 4463SOL    HW317619   6.265   0.426   2.589 -0.2578 -0.3725 -2.1297
 4463SOL    MW417620   6.348   0.444   2.573 -0.1054 -0.4325 -0.8917
 4464SOL     OW17621   4.013   4.450   4.651 -0.2272 -0.5779  0.4591
 4464SOL    HW217622   3.994   4.402   4.570 -0.2698 -1.4527  0.9711
 4464SOL    HW317623   3.928   4.484   4.679 -0.3847 -1.1183  0.6526
 4464SOL    MW417624   3.999   4.448   4.644  0.3209  0.5744 -0.0310
 4465SOL     OW17625   2.933   5.411   2.068  0.0407  1.2689  0.0217
 4465SOL    HW217626   2.935   5.501   2.035 -2.2549  0.2852 -3.3525
 4465SOL    HW317627   2.999   5.365   2.016 -0.5283  0.5227 -0.0492
 4465SOL    MW417628   2.942   5.417   2.057  0.0913  0.0863  0.0625
 4466SOL     OW17629   0.108   0.989   6.080  0.0182 -0.5152  0.0999
 4466SOL    HW217630   0.078   0.921   6.020 -1.0510  0.0073  0.0241
 4466SOL    HW317631   0.038   1.054   6.081  1.3603  1.0063 -0.4681
 4466SOL    MW417632   0.095   0.989   6.072 -0.0897  0.3481  0.0325
 4467SOL     OW17633   5.120   1.579   4.148  0.4033  0.3471  0.1724
 4467SOL    HW217634   5.106   1.645   4.216  0.6337 -1.0802  1.6686
 4467SOL    HW317635   5.034   1.540   4.133  0.6561 -0.5292  0.9359
 4467SOL    MW417636   5.107   1.583   4.155 -0.0963  0.0118  0.1088
 4468SOL     OW17637   5.194   4.442   3.230  0.5466 -0.0297 -0.1097
 4468SOL    HW217638   5.103   4.418   3.247  0.2228 -0.1950 -1.9079
 4468SOL    HW317639   5.210   4.517   3.289 -0.4748 -0.4975  0.8084
 4468SOL    MW417640   5.184   4.449   3.240  0.5338  0.4913 -0.4177
 4469SOL     OW17641   6.017   6.124   3.238 -0.2057  0.4390 -0.3112
 4469SOL    HW217642   5.955   6.172   3.184  0.3919  0.1837 -1.2384
 4469SOL    HW317643   6.006   6.033   3.213  0.2445  0.3454 -0.1770
 4469SOL    MW417644   6.008   6.118   3.228 -0.3289  0.3010  0.4328
 4470SOL     OW17645   1.279   4.746   2.867 -0.0700 -0.4872  0.0703
 4470SOL    HW217646   1.342   4.726   2.937 -0.7509 -0.4716  0.6995
 4470SOL    HW317647   1.229   4.665   2.856  0.2656 -0.6067 -0.6599
 4470SOL    MW417648   1.281   4.732   2.875  0.4601  0.0821 -0.0303
 4471SOL     OW17649   4.903   1.484   0.099 -0.2186  0.1204 -0.0593
 4471SOL    HW217650   4.896   1.491   0.194  1.0434  0.3213  0.0363
 4471SOL    HW317651   4.877   1.570   0.067  1.0011  0.6151  0.2239
 4471SOL    MW417652   4.899   1.496   0.107  0.1806 -0.6793  0.0075
 4472SOL     OW17653   3.334   3.761   2.143 -0.4875  0.5006 -0.5201
 4472SOL    HW217654   3.269   3.778   2.211 -2.0863 -0.7855 -1.6500
 4472SOL    HW317655   3.416   3.752   2.190 -0.7453  3.7732  0.8368
 4472SOL    MW417656   3.336   3.762   2.158  0.0099 -0.4733  0.1798
 4473SOL     OW17657   1.177   0.282   3.507  0.4942  0.3446 -0.6547
 4473SOL    HW217658   1.091   0.258   3.543  0.6335 -0.2911 -0.7408
 4473SOL    HW317659   1.204   0.357   3.559  0.1008  0.2508 -0.3074
 4473SOL    MW417660   1.169   0.289   3.519 -0.4577 -0.1780 -1.0995
 4474SOL     OW17661   5.904   5.545   1.500  0.2490 -0.4028 -0.3376
 4474SOL    HW217662   5.932   5.630   1.466 -1.6651  0.1983 -0.5658
 4474SOL    HW317663   5.809   5.553   1.507  0.1900 -1.9377  1.3079
 4474SOL    MW417664   5.895   5.557   1.496  0.0198  0.3099  0.5798
 4475SOL     OW17665   3.072   5.862   4.599  0.5616  0.1503  1.0380
 4475SOL    HW217666   3.029   5.810   4.667  2.0111 -0.2171  1.7198
 4475SOL    HW317667   3.080   5.949   4.637 -2.2515  1.0926 -0.2680
 4475SOL    MW417668   3.067   5.866   4.613  0.4273 -0.2970 -0.2987
 4476SOL     OW17669   2.392   1.119   0.541 -0.1006 -0.2432 -0.0808
 4476SOL    HW217670   2.466   1.101   0.484  0.1438 -0.2449  0.2328
 4476SOL    HW317671   2.382   1.040   0.594 -0.6630 -0.4508 -0.4817
 4476SOL    MW417672   2.400   1.106   0.541  0.3548 -0.0909  0.2621
 4477SOL     OW17673   2.175   1.807   3.058  0.0626 -0.9417  0.8604
 4477SOL    HW217674   2.225   1.831   3.135  0.1531 -1.5304  0.9884
 4477SOL    HW317675   2.241   1.785   2.992  0.0521  1.4156 -0.0379
 4477SOL    MW417676   2.190   1.807   3.059  0.2704  0.4280  0.5385
 4478SOL     OW17677   3.751   0.722   4.360 -0.1881  0.5877 -0.3537
 4478SOL    HW217678   3.708   0.797   4.401  1.4683  0.7343  1.2390
 4478SOL    HW317679   3.779   0.753   4.274 -0.7074  1.3638 -0.2462
 4478SOL    MW417680   3.749   0.736   4.354 -0.2210 -1.2250 -0.3519
 4479SOL     OW17681   4.255   3.954   4.496  0.3897 -0.0598  0.0620
 4479SOL    HW217682   4.290   4.043   4.498 -1.2609  0.6234  0.1210
 4479SOL    HW317683   4.160   3.965   4.506 -0.0971 -1.6698 -2.0112
 4479SOL    MW417684   4.247   3.967   4.498  0.3390 -0.0998 -0.5263
 4480SOL     OW17685   1.478   6.219   1.828 -0.1714 -0.2093 -0.0901
 4480SOL    HW217686   1.458   6.287   1.892  0.8593  1.4076 -1.4018
 4480SOL    HW317687   1.393   6.189   1.797 -0.6498  1.2566 -0.2549
 4480SOL    MW417688   1.464   6.224   1.832 -0.0250 -0.2064  0.1053
 4481SOL     OW17689   1.657   0.804   0.747 -0.4641 -0.1181  0.3944
 4481SOL    HW217690   1.602   0.858   0.690  0.1362  0.4888  0.3886
 4481SOL    HW317691   1.641   0.715   0.717 -1.2942  0.0657  0.2576
 4481SOL    MW417692   1.647   0.799   0.736  0.0749 -0.7499  0.1320
 4482SOL     OW17693   4.787   5.789   3.920 -0.5937  0.6659  0.3483
 4482SOL    HW217694   4.773   5.864   3.862 -0.0791 -1.1400 -2.3046
 4482SOL    HW317695   4.787   5.714   3.862 -0.1279 -1.3440  2.7746
 4482SOL    MW417696   4.785   5.789   3.905  0.3923 -0.1059  0.2894
 4483SOL     OW17697   4.448   5.929   2.187 -0.1347  0.3014 -0.1739
 4483SOL    HW217698   4.434   5.853   2.131  0.1185  0.6905 -0.7722
 4483SOL    HW317699   4.382   5.920   2.256  0.2921 -0.7731  0.1018
 4483SOL    MW417700   4.437   5.918   2.189 -0.0664 -0.8907  0.2190
 4484SOL     OW17701   4.188   3.450   2.230 -0.1342  0.6376  0.1217
 4484SOL    HW217702   4.148   3.381   2.179 -0.6004  2.3319 -1.9394
 4484SOL    HW317703   4.192   3.415   2.319 -1.5417 -1.4907 -0.5801
 4484SOL    MW417704   4.183   3.437   2.235  0.5621 -0.2676  0.4358
 4485SOL     OW17705   1.104   4.793   2.417  0.4093  0.3389  0.2000
 4485SOL    HW217706   1.074   4.797   2.325  0.9138 -0.2180  0.0068
 4485SOL    HW317707   1.023   4.800   2.468  0.0007 -0.4477 -0.3099
 4485SOL    MW417708   1.089   4.795   2.411 -0.1300 -0.4524  0.1848
 4486SOL     OW17709   1.736   1.651   3.490  0.5205 -0.0343 -0.6638
 4486SOL    HW217710   1.717   1.558   3.474  0.2672  0.1066 -1.1949
 4486SOL    HW317711   1.690   1.671   3.571  0.5303 -0.3604 -0.5757
 4486SOL    MW417712   1.728   1.641   3.499 -0.6010  0.0127 -0.2444
 4487SOL     OW17713   5.809   0.547   3.667 -0.2803 -0.6360 -0.2533
 4487SOL    HW217714   5.750   0.603   3.616  0.2608  0.2691  0.1006
 4487SOL    HW317715   5.876   0.519   3.604  0.3133  0.3737 -0.0891
 4487SOL    MW417716   5.810   0.550   3.652  0.7189  0.3417  0.3786
 4488SOL     OW17717   6.251   3.375   6.017  0.2420 -0.0037 -0.2447
 4488SOL    HW217718   6.272   3.338   6.103  0.5016 -2.0694 -1.1193
 4488SOL    HW317719   6.327   3.426   5.992  0.3085  0.3111  0.6028
 4488SOL    MW417720   6.264   3.377   6.025  0.3754  0.2053 -0.5128
 4489SOL     OW17721   4.338   5.786   2.906  0.3989  0.4322  0.0619
 4489SOL    HW217722   4.243   5.786   2.894  0.2677 -0.0696  0.9959
 4489SOL    HW317723   4.366   5.698   2.881  0.1730 -0.4973  2.7269
 4489SOL    MW417724   4.329   5.774   2.901 -0.7093  0.2526 -0.1294
 4490SOL     OW17725   2.641   0.056   5.395 -0.4418 -0.1719  0.9213
 4490SOL    HW217726   2.584  -0.018   5.377 -1.8370  1.1065 -0.1048
 4490SOL    HW317727   2.583   0.131   5.402  1.1015  1.2568 -0.5304
 4490SOL    MW417728   2.626   0.056   5.394  0.3913  0.3243  0.0923
 4491SOL     OW17729   4.311   1.533   6.087 -0.4051 -0.2087 -0.5516
 4491SOL    HW217730   4.370   1.490   6.025 -1.2143 -0.7548 -0.9657
 4491SOL    HW317731   4.326   1.487   6.170 -0.8112 -0.8730 -0.8434
 4491SOL    MW417732   4.321   1.521   6.090  0.5493  0.3521  0.1557
 4492SOL     OW17733   5.613   2.561   5.711  0.1659 -0.3311  0.2919
 4492SOL    HW217734   5.592   2.620   5.784 -1.5050  0.3980 -0.7320
 4492SOL    HW317735   5.551   2.489   5.719  0.6120 -0.7399  0.1293
 4492SOL    MW417736   5.602   2.559   5.721  0.3502 -0.0257 -0.3088
 4493SOL     OW17737   2.426   5.492   4.557 -0.3882 -0.2938  0.6724
 4493SOL    HW217738   2.515   5.529   4.554  0.0514 -1.3520 -0.1331
 4493SOL    HW317739   2.437   5.402   4.527 -1.9223 -0.0759 -0.6600
 4493SOL    MW417740   2.439   5.485   4.552 -0.4764 -0.2698 -0.1505
 4494SOL     OW17741   5.742   5.849   1.456 -0.3699  0.7782  0.1234
 4494SOL    HW217742   5.745   5.824   1.364 -0.8270 -2.4566  0.8680
 4494SOL    HW317743   5.659   5.896   1.465 -0.4349  0.9248 -1.0517
 4494SOL    MW417744   5.731   5.852   1.445 -0.2532 -1.0503  0.1481
 4495SOL     OW17745   3.139   5.124   0.723 -0.1747 -0.0616  0.1946
 4495SOL    HW217746   3.060   5.159   0.682  0.2428 -0.1435 -0.7261
 4495SOL    HW317747   3.126   5.029   0.723  1.2345 -0.3999 -3.0078
 4495SOL    MW417748   3.127   5.116   0.717  0.2378  0.4327 -0.8013
 4496SOL     OW17749   0.663   6.026   3.980  0.2041  0.5405 -0.5900
 4496SOL    HW217750   0.645   5.933   3.996  2.7508 -0.4955 -2.9339
 4496SOL    HW317751   0.680   6.062   4.067  0.3536 -1.4863  0.2833
 4496SOL    MW417752   0.663   6.019   3.994  0.2512  0.1761 -0.1553
 4497SOL     OW17753   0.918   0.344   0.427  0.1425  0.0688 -0.2275
 4497SOL    HW217754   0.965   0.347   0.510 -0.0667  2.9855 -0.0911
 4497SOL    HW317755   0.845   0.284   0.443  1.3246 -1.1386  0.9401
 4497SOL    MW417756   0.915   0.337   0.440  0.0517  0.4677 -0.2800
 4498SOL     OW17757   3.841   5.828   4.072 -0.1476  0.0712 -0.3233
 4498SOL    HW217758   3.774   5.856   4.134 -0.1606  0.2435 -0.4167
 4498SOL    HW317759   3.881   5.751   4.113 -0.1285  0.2096 -0.0817
 4498SOL    MW417760   3.838   5.821   4.086  0.0187  0.4657 -0.1113
 4499SOL     OW17761   2.222   2.890   3.569 -0.0151  0.2351 -0.1956
 4499SOL    HW217762   2.203   2.806   3.528  1.5185  0.4777 -1.4841
 4499SOL    HW317763   2.272   2.939   3.504  2.7255  0.5603  1.9420
 4499SOL    MW417764   2.226   2.886   3.555 -0.3361 -0.3654 -0.0693
 4500SOL     OW17765   3.938   2.729   3.089  0.6566  0.5700 -0.2070
 4500SOL    HW217766   3.940   2.732   3.185 -0.8808  0.6918 -0.1555
 4500SOL    HW317767   4.026   2.756   3.063  0.8342  1.4219  1.1511
 4500SOL    MW417768   3.950   2.733   3.099 -0.2767 -0.0412  0.3252
 4501SOL     OW17769   1.298   0.709   4.535  0.0143 -0.3518  0.2168
 4501SOL    HW217770   1.218   0.733   4.489 -0.5949 -2.1438  0.2480
 4501SOL    HW317771   1.288   0.615   4.552  1.5753 -0.3536  1.3189
 4501SOL    MW417772   1.286   0.700   4.531  0.2131 -0.2390 -0.2301
 4502SOL     OW17773   6.454   2.496   0.465  0.1607  0.4280  0.0001
 4502SOL    HW217774   6.369   2.540   0.455  0.6493  1.4158  0.1585
 4502SOL    HW317775   6.518   2.567   0.470  0.7472 -0.1988  2.5789
 4502SOL    MW417776   6.451   2.511   0.464 -0.1350 -1.0187  0.4952
 4503SOL     OW17777   1.350   0.643   0.540 -0.2130 -0.2747 -0.0536
 4503SOL    HW217778   1.288   0.629   0.611 -0.3684 -0.7812 -0.2825
 4503SOL    HW317779   1.295   0.652   0.462  0.0135 -1.5463 -0.3863
 4503SOL    MW417780   1.335   0.642   0.539 -0.2197 -0.3588  0.1690
 4504SOL     OW17781   5.312  -0.004   1.096  0.1635  0.6540 -0.6920
 4504SOL    HW217782   5.374  -0.040   1.032  1.4694  1.5747  0.0104
 4504SOL    HW317783   5.328  -0.054   1.176  0.5512  1.3982 -0.2931
 4504SOL    MW417784   5.322  -0.016   1.098 -0.3234  0.1796  0.2597
 4505SOL     OW17785   5.735   1.728   5.695  0.0036 -0.1801  0.3782
 4505SOL    HW217786   5.740   1.704   5.603 -2.0890  0.0549  0.1533
 4505SOL    HW317787   5.747   1.645   5.742 -0.3580 -0.5537 -0.1720
 4505SOL    MW417788   5.737   1.714   5.689  0.4269 -0.4253  0.2669
 4506SOL     OW17789   3.965   3.001   3.300  0.2472 -0.1656 -0.1646
 4506SOL    HW217790   3.929   2.914   3.316  1.7618 -0.7049  0.4138
 4506SOL    HW317791   4.039   3.009   3.360 -0.0976  1.6805  0.0687
 4506SOL    MW417792   3.970   2.990   3.310 -0.4836 -0.7630 -0.1993
 4507SOL     OW17793   5.573   4.195   2.263 -0.0712 -0.2824  0.2458
 4507SOL    HW217794   5.593   4.101   2.266 -2.1731 -0.7930  0.1471
 4507SOL    HW317795   5.512   4.209   2.336 -0.9684  0.6613 -0.6367
 4507SOL    MW417796   5.567   4.184   2.273  0.2925  0.4311  0.6470
 4508SOL     OW17797   3.744   6.016   0.406  0.4832 -0.2559 -0.6903
 4508SOL    HW217798   3.734   5.941   0.346  1.6448 -1.7842  0.9209
 4508SOL    HW317799   3.796   6.079   0.356  0.8232 -1.1967 -1.5693
 4508SOL    MW417800   3.750   6.014   0.391 -0.3109  0.2297 -0.2269
 4509SOL     OW17801   4.903   3.228   0.987  0.2890  0.4789  0.2606
 4509SOL    HW217802   4.909   3.153   1.046  0.0204  0.0456 -0.2566
 4509SOL    HW317803   4.948   3.298   1.034 -0.0539  0.1880  1.0520
 4509SOL    MW417804   4.910   3.227   1.001 -0.2259 -0.2523  0.1222
 4510SOL     OW17805   3.692   3.005   2.953  0.1090 -0.0271  0.0055
 4510SOL    HW217806   3.773   3.023   2.904  0.5668  0.3487  0.8727
 4510SOL    HW317807   3.651   3.090   2.964  0.5603  0.0573  1.1872
 4510SOL    MW417808   3.698   3.019   2.948 -0.0375 -0.0572  0.2057
 4511SOL     OW17809   1.432   5.893   1.232  0.6947  0.3180  0.4426
 4511SOL    HW217810   1.350   5.843   1.228  1.4083 -0.8937  0.4975
 4511SOL    HW317811   1.446   5.908   1.326  2.1861 -2.3739  0.7426
 4511SOL    MW417812   1.423   5.889   1.244  0.3613 -0.2654  0.2032
 4512SOL     OW17813   6.021   5.295   5.410  0.8450 -0.2388  0.2448
 4512SOL    HW217814   6.030   5.205   5.439  3.7668 -0.5923 -1.3858
 4512SOL    HW317815   6.103   5.338   5.436 -0.3788  1.9338  0.8179
 4512SOL    MW417816   6.033   5.289   5.417 -0.4027 -0.2273  0.3361
 4513SOL     OW17817   4.077   3.079   1.643  0.2287  0.0917 -0.2426
 4513SOL    HW217818   4.041   3.004   1.690  0.1085 -0.9143 -1.8667
 4513SOL    HW317819   4.008   3.145   1.648  0.2818  0.0761  1.0821
 4513SOL    MW417820   4.063   3.078   1.650  0.3665 -0.0427 -0.2399
 4514SOL     OW17821   0.997   4.333   1.829  0.3540 -0.4586 -0.1793
 4514SOL    HW217822   0.940   4.394   1.783  0.8343 -0.1725 -0.4033
 4514SOL    HW317823   0.996   4.363   1.920 -0.8119 -1.1874  0.0779
 4514SOL    MW417824   0.989   4.345   1.835 -0.2273  0.5192 -0.4598
 4515SOL     OW17825   4.442   4.154   0.578 -0.6845  0.0106 -0.1179
 4515SOL    HW217826   4.394   4.123   0.502 -3.1841  0.9311  0.9609
 4515SOL    HW317827   4.433   4.083   0.642 -1.3597  0.5247  0.3688
 4515SOL    MW417828   4.435   4.140   0.577 -0.1613  0.3681  0.0182
 4516SOL     OW17829   3.669   5.866   3.043  0.2550 -0.2016  0.1145
 4516SOL    HW217830   3.731   5.796   3.060  0.3960  0.0635  0.7462
 4516SOL    HW317831   3.714   5.946   3.072 -0.4572 -0.0350  0.8257
 4516SOL    MW417832   3.683   5.867   3.049 -0.1270 -0.1710 -0.2937
 4517SOL     OW17833   4.327   0.635   1.862 -0.6539  0.2307  0.1388
 4517SOL    HW217834   4.359   0.709   1.810  0.5819 -0.1381  0.3583
 4517SOL    HW317835   4.284   0.578   1.799  0.7285 -0.1545 -0.4827
 4517SOL    MW417836   4.326   0.637   1.847 -0.2511  0.0438  0.0492
 4518SOL     OW17837   5.044   2.679   4.397 -0.0919 -0.1609  0.2788
 4518SOL    HW217838   5.124   2.629   4.411 -0.4191 -1.0973 -0.9779
 4518SOL    HW317839   4.975   2.613   4.394 -0.5959  0.3859 -0.9909
 4518SOL    MW417840   5.045   2.664   4.398  0.0793  0.0134  0.1560
 4519SOL     OW17841   0.630   0.627   5.646 -0.7321  0.5317  0.1376
 4519SOL    HW217842   0.705   0.581   5.683 -2.1372 -1.3674  0.8156
 4519SOL    HW317843   0.668   0.698   5.594  1.6676 -2.0249 -1.9271
 4519SOL    MW417844   0.645   0.630   5.644 -0.2535  0.2891  0.1720
 4520SOL     OW17845   4.204   6.185   2.813 -0.1542  0.5376 -0.1941
 4520SOL    HW217846   4.277   6.243   2.835  1.4079 -0.9809 -1.1112
 4520SOL    HW317847   4.126   6.240   2.822  0.8654  1.6906  2.8160
 4520SOL    MW417848   4.203   6.200   2.817  0.1445  0.0007  0.2527
 4521SOL     OW17849   2.115   4.846   3.685 -0.5712 -0.0255 -0.0017
 4521SOL    HW217850   2.117   4.829   3.590  0.5630 -2.0178  0.3385
 4521SOL    HW317851   2.187   4.908   3.699  0.6017 -1.3034 -0.1997
 4521SOL    MW417852   2.124   4.852   3.674 -0.3653  0.3229  0.4597
 4522SOL     OW17853   2.797   2.740   4.115 -0.2195 -0.3841  0.9099
 4522SOL    HW217854   2.747   2.809   4.158  1.9389  1.7959  0.2009
 4522SOL    HW317855   2.860   2.711   4.181  0.4054  0.0257  0.5071
 4522SOL    MW417856   2.799   2.745   4.129 -0.0326 -0.1833  0.2205
 4523SOL     OW17857   0.353   2.853   6.260  0.1289  0.0638 -0.0754
 4523SOL    HW217858   0.288   2.785   6.273  0.5349 -0.3067  0.0384
 4523SOL    HW317859   0.415   2.815   6.198  0.2731  0.3927 -0.1381
 4523SOL    MW417860   0.353   2.839   6.253 -0.1906 -0.4689  0.3375
 4524SOL     OW17861   4.797   5.905   3.519  0.0799  0.5950 -0.4477
 4524SOL    HW217862   4.860   5.958   3.470 -0.3564  1.5440 -0.0205
 4524SOL    HW317863   4.780   5.829   3.463  0.7411  0.8936 -1.0697
 4524SOL    MW417864   4.803   5.902   3.505 -0.2343  0.4893 -0.6776
 4525SOL     OW17865   5.894   3.329   3.821  0.4193  0.6011  0.0294
 4525SOL    HW217866   5.834   3.403   3.813 -1.4942 -0.9647 -1.4051
 4525SOL    HW317867   5.981   3.367   3.816 -0.4750  2.8361  0.4823
 4525SOL    MW417868   5.897   3.344   3.819 -0.0123  0.9949  0.0609
 4526SOL     OW17869   4.170   2.802   2.136 -0.0986  0.2153  0.2777
 4526SOL    HW217870   4.101   2.793   2.202 -2.8358  2.9974 -1.8968
 4526SOL    HW317871   4.216   2.882   2.160 -0.0296  0.3361 -0.2484
 4526SOL    MW417872   4.167   2.811   2.148 -0.1748 -0.0868  0.7115
 4527SOL     OW17873   2.763   5.711   6.421 -0.5118  0.0685 -0.4089
 4527SOL    HW217874   2.840   5.719   6.476 -0.9530 -0.0159  0.2352
 4527SOL    HW317875   2.770   5.625   6.380 -1.6718 -1.2268  1.8850
 4527SOL    MW417876   2.774   5.701   6.423 -0.4743  0.0177  0.2501
 4528SOL     OW17877   6.399   1.679   2.413  0.0840  0.0027  0.6066
 4528SOL    HW217878   6.425   1.587   2.403 -2.2241 -0.6693  0.1939
 4528SOL    HW317879   6.374   1.688   2.505 -0.3636  0.0260  0.4832
 4528SOL    MW417880   6.399   1.668   2.424  0.3137  0.0283  0.1382
 4529SOL     OW17881   1.331   0.327   6.003  0.4353  0.1851  0.1154
 4529SOL    HW217882   1.375   0.247   5.976  0.9305  0.1758  0.9265
 4529SOL    HW317883   1.238   0.305   6.000  0.6105 -0.9968  2.0296
 4529SOL    MW417884   1.325   0.314   5.999  0.0835 -1.0350 -0.4149
 4530SOL     OW17885   5.999   3.592   0.093 -0.1090 -0.8341  0.2132
 4530SOL    HW217886   5.911   3.595   0.130 -0.5391 -1.1581 -0.7563
 4530SOL    HW317887   6.010   3.501   0.065  1.6681 -1.6233  2.9646
 4530SOL    MW417888   5.989   3.580   0.094 -0.0598 -0.0233 -0.2916
 4531SOL     OW17889   2.015   5.088   2.545  0.0787  0.0529  0.5050
 4531SOL    HW217890   2.087   5.053   2.597  0.0782 -4.3160 -1.8949
 4531SOL    HW317891   1.938   5.037   2.573 -0.4488 -0.5450 -1.7868
 4531SOL    MW417892   2.014   5.076   2.555 -0.3837  0.0431  0.3395
 4532SOL     OW17893   2.061   6.104   3.014 -0.4444 -0.1844 -0.0770
 4532SOL    HW217894   1.968   6.102   2.989 -0.3593  1.6775 -0.6562
 4532SOL    HW317895   2.073   6.188   3.058  1.2153  0.1298 -1.0440
 4532SOL    MW417896   2.050   6.115   3.016  0.1621 -0.1618 -0.3900
 4533SOL     OW17897   4.689   4.961   3.336 -0.2275 -0.1843  0.6721
 4533SOL    HW217898   4.653   4.875   3.357 -1.4192  0.3022  0.7346
 4533SOL    HW317899   4.713   4.955   3.243  0.2268 -0.7459  0.8180
 4533SOL    MW417900   4.687   4.949   3.326 -0.5489  0.1407  0.6264
 4534SOL     OW17901   5.490   1.844   5.174 -0.0050  0.1220 -0.8960
 4534SOL    HW217902   5.418   1.904   5.197  1.8778  2.1165  0.1058
 4534SOL    HW317903   5.548   1.845   5.250  2.1350  0.2358 -2.4356
 4534SOL    MW417904   5.488   1.852   5.187  0.3698  0.0563  0.1209
 4535SOL     OW17905   2.626   4.315   5.421 -0.2917  0.0629 -0.4729
 4535SOL    HW217906   2.633   4.220   5.427 -0.4198 -0.0062 -1.3149
 4535SOL    HW317907   2.562   4.330   5.351  1.8261  0.7620 -2.3579
 4535SOL    MW417908   2.618   4.305   5.412 -0.1218 -0.5288  0.1686
 4536SOL     OW17909   3.528   0.501   2.112  0.6715 -0.0635 -0.5883
 4536SOL    HW217910   3.444   0.547   2.110  0.1586 -0.9844 -0.8057
 4536SOL    HW317911   3.550   0.494   2.204 -0.6458 -1.8283 -0.3516
 4536SOL    MW417912   3.520   0.506   2.124  0.7791  0.5267  0.4299
 4537SOL     OW17913   2.118   1.039   5.231  0.4751 -0.7043  0.0735
 4537SOL    HW217914   2.033   1.027   5.189  1.1798  0.1244 -1.6463
 4537SOL    HW317915   2.174   0.971   5.194  0.4863 -1.5427  1.5339
 4537SOL    MW417916   2.114   1.029   5.221  0.4276  0.1609  0.2478
 4538SOL     OW17917   4.016   2.528   3.690 -0.1021 -0.3677 -0.0419
 4538SOL    HW217918   4.009   2.568   3.776 -1.0383  0.3519 -0.4374
 4538SOL    HW317919   4.100   2.558   3.656 -0.0599 -0.0591  0.3297
 4538SOL    MW417920   4.026   2.537   3.696 -0.5128 -0.2028  0.3551
 4539SOL     OW17921   0.658   2.998   0.568 -0.0688  0.2257 -0.6701
 4539SOL    HW217922   0.685   3.040   0.650 -1.5315  0.4378 -0.2640
 4539SOL    HW317923   0.590   3.057   0.533 -0.6417 -0.7110 -1.1665
 4539SOL    MW417924   0.652   3.011   0.574  0.4223  0.0722  0.2365
 4540SOL     OW17925   3.643   0.110   3.168 -0.4777 -0.7310  0.0073
 4540SOL    HW217926   3.604   0.194   3.144 -1.1666 -0.5327  1.6600
 4540SOL    HW317927   3.575   0.046   3.150 -0.3062 -0.8199 -0.3337
 4540SOL    MW417928   3.629   0.113   3.163 -0.3893 -0.1045 -0.4391
 4541SOL     OW17929   3.099   4.528   3.523  0.3603 -0.1143 -0.3197
 4541SOL    HW217930   3.175   4.579   3.551  0.1916  1.0600 -1.8942
 4541SOL    HW317931   3.133   4.469   3.455  0.1720 -0.7522  0.1296
 4541SOL    MW417932   3.114   4.527   3.518  0.0261 -0.3181  0.3869
 4542SOL     OW17933   4.413   3.005   2.796  0.1444  0.4406  0.6231
 4542SOL    HW217934   4.442   3.069   2.732 -0.0274  0.7729  0.8758
 4542SOL    HW317935   4.404   3.054   2.878 -0.4589  0.2018  0.7078
 4542SOL    MW417936   4.416   3.020   2.798 -0.8578  0.5249  0.0611
 4543SOL     OW17937   6.093   5.590   2.661  0.1083  0.8019  0.7955
 4543SOL    HW217938   6.148   5.516   2.688  1.5845  2.0594  1.4401
 4543SOL    HW317939   6.005   5.554   2.652  0.3452 -0.5784  3.2599
 4543SOL    MW417940   6.089   5.576   2.663 -0.3771 -0.2690  0.0187
 4544SOL     OW17941   4.918   2.487   0.063  0.2599  0.3481 -0.0702
 4544SOL    HW217942   4.827   2.488   0.035 -0.5562  0.0395  2.3792
 4544SOL    HW317943   4.925   2.411   0.121  2.2155  0.0912 -0.5756
 4544SOL    MW417944   4.907   2.477   0.067 -0.3182 -0.5772 -0.6800
 4545SOL     OW17945   3.174   4.134   2.867 -0.3257  0.1800  0.1860
 4545SOL    HW217946   3.143   4.177   2.946 -0.2182  0.8233 -0.1193
 4545SOL    HW317947   3.166   4.040   2.886 -0.1683  0.3279  1.0062
 4545SOL    MW417948   3.169   4.127   2.880 -0.8390 -0.5850 -0.6509
 4546SOL     OW17949   3.710   1.078   6.052  0.4489 -0.8228  0.2886
 4546SOL    HW217950   3.717   1.000   6.107 -2.8802 -1.7436 -0.3570
 4546SOL    HW317951   3.731   1.151   6.110 -0.2336 -1.9458  2.0109
 4546SOL    MW417952   3.714   1.077   6.067 -0.2698  0.8163 -0.0875
 4547SOL     OW17953   0.844   1.166   6.020 -0.2123  0.0949  0.1768
 4547SOL    HW217954   0.927   1.147   6.065 -1.2913 -1.4341  1.6674
 4547SOL    HW317955   0.818   1.081   5.982 -0.9532  0.6232 -0.5279
 4547SOL    MW417956   0.852   1.152   6.021  0.5661 -0.5731  0.2619
 4548SOL     OW17957   0.077   5.078   1.096  0.5817 -0.0208 -0.5447
 4548SOL    HW217958   0.029   5.139   1.041  0.4822 -0.1262 -0.5750
 4548SOL    HW317959   0.143   5.133   1.141 -0.0411  0.2576  0.0521
 4548SOL    MW417960   0.080   5.094   1.095  0.6179 -0.7175  0.5840
 4549SOL     OW17961   3.428   4.320   3.640  0.2536 -0.4392  0.3096
 4549SOL    HW217962   3.369   4.249   3.613 -1.2440  0.0875  2.0207
 4549SOL    HW317963   3.383   4.400   3.613  0.6285 -0.0544  0.8119
 4549SOL    MW417964   3.414   4.321   3.633  0.7267  0.4484 -0.4111
 4550SOL     OW17965   2.418   2.554   6.430 -0.4114  0.3378 -0.1080
 4550SOL    HW217966   2.351   2.570   6.364 -1.4121 -0.2326  0.7350
 4550SOL    HW317967   2.396   2.613   6.502 -0.8196 -0.7681  0.7123
 4550SOL    MW417968   2.407   2.564   6.431  0.3760 -0.1773  0.3868
 4551SOL     OW17969   1.689   2.823   1.043  0.5640 -0.4254  0.0316
 4551SOL    HW217970   1.639   2.836   1.124  1.2253 -0.0337  0.3834
 4551SOL    HW317971   1.732   2.907   1.028  1.0194 -0.7195 -0.3270
 4551SOL    MW417972   1.688   2.836   1.052  0.1389 -0.5354 -0.4721
 4552SOL     OW17973   1.805   1.877   2.892  1.1699 -0.4230  0.0463
 4552SOL    HW217974   1.756   1.944   2.940  1.6011  1.8431 -2.3982
 4552SOL    HW317975   1.831   1.813   2.958  0.4190  1.6450  2.4876
 4552SOL    MW417976   1.802   1.878   2.907 -0.1373  0.4601  0.2367
 4553SOL     OW17977   1.349   2.481   0.130 -0.1577 -0.2064 -0.0076
 4553SOL    HW217978   1.321   2.453   0.043  1.7603  1.2920 -1.1715
 4553SOL    HW317979   1.436   2.444   0.142 -0.3243 -0.2670  1.2269
 4553SOL    MW417980   1.357   2.473   0.120 -0.0645 -0.1034 -0.7378
 4554SOL     OW17981   1.537   3.482   2.767 -0.4014 -0.3186  0.0313
 4554SOL    HW217982   1.498   3.426   2.835  1.6971  0.2881  1.8680
 4554SOL    HW317983   1.557   3.564   2.813 -0.9430  0.9724 -1.9381
 4554SOL    MW417984   1.534   3.485   2.782 -0.0068  0.8599  0.7513
 4555SOL     OW17985   2.975   5.744   0.188  0.1494 -0.0631 -0.3240
 4555SOL    HW217986   2.910   5.699   0.241 -0.7940  0.8351 -0.6905
 4555SOL    HW317987   3.023   5.799   0.250  1.7883 -2.0279  0.2521
 4555SOL    MW417988   2.973   5.745   0.203  0.6578 -0.2145  0.6928
 4556SOL     OW17989   4.995   0.554   2.810 -0.6469  0.5477 -0.6030
 4556SOL    HW217990   4.920   0.516   2.855  0.1136 -2.0111 -1.3046
 4556SOL    HW317991   5.009   0.496   2.735  0.9233  2.0200 -1.5168
 4556SOL    MW417992   4.987   0.541   2.806 -0.4900  0.3603  0.7647
 4557SOL     OW17993   1.420   5.696   0.987  0.0074  0.2103  0.0566
 4557SOL    HW217994   1.328   5.697   1.014 -0.3180  0.9608 -1.0333
 4557SOL    HW317995   1.468   5.724   1.066 -0.7903  0.8579  0.3251
 4557SOL    MW417996   1.414   5.700   1.001 -0.1746  0.2873 -0.1506
 4558SOL     OW17997   3.043   1.993   6.207  0.2206  0.0371  0.2646
 4558SOL    HW217998   3.116   2.053   6.223 -1.0785  2.1033 -1.0734
 4558SOL    HW317999   3.067   1.947   6.127 -0.7544  2.2188 -1.3661
 4558SOL    MW418000   3.055   1.995   6.199  0.0519 -0.0106 -0.1769
 4559SOL     OW18001   3.162   4.156   1.335  0.5049  0.7386 -0.0871
 4559SOL    HW218002   3.090   4.212   1.305 -0.1023  0.1191  0.1782
 4559SOL    HW318003   3.136   4.129   1.423  0.1239 -1.0471 -0.7106
 4559SOL    MW418004   3.149   4.160   1.343  0.4986 -0.0693  0.3422
 4560SOL     OW18005   4.101   0.149   4.337 -0.5634 -0.0996 -0.0434
 4560SOL    HW218006   4.008   0.139   4.318 -1.1593  0.3798  2.3864
 4560SOL    HW318007   4.132   0.061   4.355 -0.1236 -0.4796 -2.2585
 4560SOL    MW418008   4.093   0.136   4.337  0.6471  0.6328 -0.0444
 4561SOL     OW18009   5.792   1.848   3.909 -0.2462 -0.5667 -0.2249
 4561SOL    HW218010   5.829   1.831   3.822  2.8599  0.4349  0.7669
 4561SOL    HW318011   5.828   1.779   3.964 -0.0815  0.2760  0.7474
 4561SOL    MW418012   5.802   1.837   3.905  0.2001  0.0367  0.6449
 4562SOL     OW18013   0.915   4.911   4.417  0.1480  0.6106 -0.2847
 4562SOL    HW218014   0.916   4.821   4.384 -1.1101  0.2628  0.5223
 4562SOL    HW318015   0.954   4.906   4.504  2.9136  1.4239 -1.3548
 4562SOL    MW418016   0.920   4.899   4.424 -0.0926 -0.6682 -0.1001
 4563SOL     OW18017   2.036   1.750   4.237  0.3736  0.3631  0.0481
 4563SOL    HW218018   1.983   1.808   4.182  0.0235 -0.1893 -0.1998
 4563SOL    HW318019   1.975   1.714   4.301  0.4792 -0.1407 -0.1296
 4563SOL    MW418020   2.021   1.753   4.238 -0.2549  0.2604 -0.1512
 4564SOL     OW18021   3.918   3.756   1.340  0.3640  0.3145  0.9109
 4564SOL    HW218022   3.992   3.707   1.306 -0.0858 -0.5024  1.0678
 4564SOL    HW318023   3.869   3.692   1.392 -1.5203  0.2770 -0.7787
 4564SOL    MW418024   3.921   3.741   1.343 -0.3865 -0.3683 -0.5147
 4565SOL     OW18025   4.362   1.764   1.619 -0.0601  0.0595  0.1968
 4565SOL    HW218026   4.334   1.673   1.604  1.1191 -0.3579  0.4396
 4565SOL    HW318027   4.399   1.763   1.707 -0.6038  0.9233  0.4404
 4565SOL    MW418028   4.363   1.752   1.629  0.3908  0.2835  0.2560
 4566SOL     OW18029   1.385   6.210   0.707  0.1114 -0.4956 -0.7609
 4566SOL    HW218030   1.435   6.235   0.785 -0.2016 -0.3291 -0.6128
 4566SOL    HW318031   1.452   6.191   0.641  0.4492 -2.5631  0.1122
 4566SOL    MW418032   1.401   6.211   0.709 -0.2290 -0.3111  0.3242
 4567SOL     OW18033   0.205   0.958   0.964 -0.0139 -0.2292 -0.3344
 4567SOL    HW218034   0.255   1.039   0.958  0.8350 -0.7908 -1.1053
 4567SOL    HW318035   0.157   0.965   1.046  0.8038  0.6296  0.0808
 4567SOL    MW418036   0.205   0.969   0.974  0.4951  0.1934  0.5352
 4568SOL     OW18037   4.558   3.743   2.788 -0.5709  0.0308 -0.2152
 4568SOL    HW218038   4.567   3.805   2.716  0.2888 -1.9493 -1.9497
 4568SOL    HW318039   4.558   3.657   2.745  0.4762 -1.2788  2.1868
 4568SOL    MW418040   4.559   3.740   2.773  0.2818  0.2222  0.1605
 4569SOL     OW18041   4.581   0.384   4.361 -0.0813 -0.3970 -0.0959
 4569SOL    HW218042   4.527   0.352   4.289 -1.5142  1.1484  0.2320
 4569SOL    HW318043   4.519   0.420   4.424  1.3192  1.5221  0.2715
 4569SOL    MW418044   4.566   0.384   4.360  0.5286  0.4543  0.2424
 4570SOL     OW18045   1.725   1.151   1.513  0.1819  0.5643 -0.1487
 4570SOL    HW218046   1.717   1.176   1.421 -0.1959  0.2623 -0.2017
 4570SOL    HW318047   1.779   1.072   1.512 -0.5286  0.0783 -0.1875
 4570SOL    MW418048   1.731   1.144   1.501 -0.5857 -0.5294 -0.2675
 4571SOL     OW18049   1.138   4.076   0.836 -0.0924  0.6923 -0.1993
 4571SOL    HW218050   1.092   4.156   0.807 -0.9203  0.5745  0.7348
 4571SOL    HW318051   1.227   4.106   0.856 -0.6871  1.6220  1.1936
 4571SOL    MW418052   1.144   4.091   0.835  0.0722 -0.4998 -0.0328
 4572SOL     OW18053   1.225   4.380   1.376 -0.1468  0.6842 -0.5468
 4572SOL    HW218054   1.147   4.384   1.320  1.1048 -0.1707 -2.4638
 4572SOL    HW318055   1.223   4.292   1.412  0.1388  0.5200 -0.9277
 4572SOL    MW418056   1.214   4.369   1.373 -0.1463 -0.5142  0.0197
 4573SOL     OW18057   4.086   6.410   5.491 -0.2043  0.0343 -0.4439
 4573SOL    HW218058   4.161   6.372   5.538 -1.6661 -3.5988 -0.7298
 4573SOL    HW318059   4.023   6.430   5.561 -0.8260 -1.6288 -0.4785
 4573SOL    MW418060   4.088   6.408   5.507  0.5245  0.1854 -0.3880
 4574SOL     OW18061   3.775   2.922   0.041  0.1125  0.0198  0.1037
 4574SOL    HW218062   3.787   2.943   0.134 -1.6041  1.3631  0.0787
 4574SOL    HW318063   3.846   2.863   0.020  0.1196 -0.9074  2.4728
 4574SOL    MW418064   3.786   2.917   0.051  0.3141 -0.1277 -0.9928
 4575SOL     OW18065   2.627   4.072   5.033  0.0474  0.0810  0.5099
 4575SOL    HW218066   2.606   4.081   4.941 -0.6542  0.5017  0.7092
 4575SOL    HW318067   2.573   4.138   5.078  0.9129  0.3832  1.1468
 4575SOL    MW418068   2.617   4.082   5.027  0.7949  0.6067 -0.3812
 4576SOL     OW18069   2.355   4.024   3.326  0.2879 -0.0954  0.6129
 4576SOL    HW218070   2.386   3.998   3.239 -0.6040 -0.6794  0.4606
 4576SOL    HW318071   2.406   3.970   3.387 -0.1125 -0.7395  0.3824
 4576SOL    MW418072   2.366   4.013   3.323  0.6609 -0.5346  0.1528
 4577SOL     OW18073   4.853   4.515   2.256 -0.1030  0.6733  0.0433
 4577SOL    HW218074   4.835   4.580   2.324 -0.3652  0.7148 -0.0686
 4577SOL    HW318075   4.928   4.551   2.208 -0.1626  0.8290  0.0657
 4577SOL    MW418076   4.861   4.528   2.259 -0.3517  0.3903 -0.2482
 4578SOL     OW18077   0.823   5.838   0.890 -0.3092 -0.1225  0.0967
 4578SOL    HW218078   0.780   5.907   0.840 -1.5883 -1.1057 -0.2324
 4578SOL    HW318079   0.767   5.761   0.877  1.2580 -1.3196  0.1510
 4578SOL    MW418080   0.810   5.837   0.882 -0.4423 -0.3739 -0.0410
 4579SOL     OW18081   4.547   0.410   4.722 -0.1378  0.3280  0.5221
 4579SOL    HW218082   4.535   0.319   4.697  0.0658 -0.2971  2.5099
 4579SOL    HW318083   4.502   0.418   4.806  1.3975  1.5768  1.2834
 4579SOL    MW418084   4.540   0.399   4.730 -0.3590  0.2944 -0.4662
 4580SOL     OW18085   2.549   5.071   2.648 -0.5634  0.3542 -0.0769
 4580SOL    HW218086   2.540   4.994   2.705 -0.9273  0.6054  0.2146
 4580SOL    HW318087   2.640   5.098   2.658 -0.7967  0.8228  0.9687
 4580SOL    MW418088   2.559   5.065   2.657 -0.2613  0.1096 -0.7089
 4581SOL     OW18089   0.652   0.276   0.490 -0.1024 -0.2673 -0.1354
 4581SOL    HW218090   0.649   0.280   0.586 -1.5589  0.1783 -0.1754
 4581SOL    HW318091   0.598   0.349   0.461 -0.3931 -0.9140 -1.2965
 4581SOL    MW418092   0.645   0.286   0.499 -0.0522  0.0189  0.1100
 4582SOL     OW18093   3.100   0.071   4.194  0.6262 -0.4237  0.0996
 4582SOL    HW218094   3.071   0.107   4.278 -2.3615  4.1333 -2.4765
 4582SOL    HW318095   3.031   0.010   4.169 -1.0957  1.7902 -0.9302
 4582SOL    MW418096   3.087   0.068   4.202 -0.4854 -0.0746  0.1814
 4583SOL     OW18097   2.480   1.263   5.337 -0.4103 -0.0005  0.1322
 4583SOL    HW218098   2.479   1.184   5.283 -1.3596  0.6661 -0.8701
 4583SOL    HW318099   2.391   1.270   5.371 -0.5613  1.0342 -0.4173
 4583SOL    MW418100   2.468   1.254   5.334  0.4365  0.3057 -0.1799
 4584SOL     OW18101   1.605   3.751   2.900 -0.4859 -0.2801 -0.1130
 4584SOL    HW218102   1.541   3.800   2.847 -0.5468 -0.7289 -0.4620
 4584SOL    HW318103   1.557   3.725   2.979 -1.0953 -1.5981 -0.8781
 4584SOL    MW418104   1.590   3.754   2.903  0.0139  0.3778  0.2491
 4585SOL     OW18105   3.795   2.238   4.479  0.5600  0.3186  0.1349
 4585SOL    HW218106   3.835   2.151   4.491  2.0580  0.9428 -0.0758
 4585SOL    HW318107   3.703   2.224   4.499  1.0106 -1.0199  1.5895
 4585SOL    MW418108   3.788   2.224   4.483  0.0406 -0.4222 -0.5774
 4586SOL     OW18109   4.898   5.152   0.062 -0.5804  0.2399 -0.5801
 4586SOL    HW218110   4.858   5.068   0.085 -0.6676  0.9601  2.2177
 4586SOL    HW318111   4.991   5.141   0.083 -0.6200  0.8826 -0.0415
 4586SOL    MW418112   4.905   5.139   0.067 -0.0746  0.1642 -0.1465
 4587SOL     OW18113   2.192   0.875   3.282  0.7129  0.3881  0.3117
 4587SOL    HW218114   2.260   0.939   3.261 -0.1657  1.7096  1.3299
 4587SOL    HW318115   2.212   0.847   3.371  0.5961 -0.1510  0.1770
 4587SOL    MW418116   2.204   0.880   3.291 -0.1457 -0.1511 -0.2454
 4588SOL     OW18117   3.365   0.281   1.981  0.0485  0.3447  0.1856
 4588SOL    HW218118   3.443   0.295   2.035 -0.4085 -1.1305  1.2860
 4588SOL    HW318119   3.378   0.195   1.942 -1.8551 -0.8792  1.9886
 4588SOL    MW418120   3.377   0.272   1.983 -0.5238  0.1180  0.2815
 4589SOL     OW18121   2.048   5.740   5.722  0.9728  0.1548 -0.4157
 4589SOL    HW218122   2.088   5.667   5.675 -0.7817 -0.9544 -0.2530
 4589SOL    HW318123   1.994   5.783   5.657 -0.2838 -0.4783  0.1851
 4589SOL    MW418124   2.046   5.736   5.708  0.2611  0.2425 -0.1260
 4590SOL     OW18125   2.262   1.929   1.287  0.0989  0.1975  0.6289
 4590SOL    HW218126   2.258   1.997   1.354  2.1061 -0.4342  1.4586
 4590SOL    HW318127   2.234   1.849   1.332 -1.7574  0.3143 -0.2111
 4590SOL    MW418128   2.258   1.927   1.302 -0.2701 -0.0258 -0.3529
 4591SOL     OW18129   1.613   1.200   0.571  0.2489  0.2030  0.3925
 4591SOL    HW218130   1.621   1.232   0.661 -1.4633 -0.9507  1.0104
 4591SOL    HW318131   1.520   1.179   0.562  1.0405 -3.8323 -0.1797
 4591SOL    MW418132   1.602   1.201   0.582  0.2396  0.1272 -0.2770
 4592SOL     OW18133   3.379   5.375   6.061 -0.1534 -0.6917 -0.4708
 4592SOL    HW218134   3.347   5.309   5.999  0.5792 -2.1231  0.6150
 4592SOL    HW318135   3.447   5.330   6.111 -0.7348  0.4052  1.3936
 4592SOL    MW418136   3.384   5.360   6.059  0.3035  0.3378 -0.1487
 4593SOL     OW18137   2.157   0.076   5.721  0.3853 -0.1746  0.1888
 4593SOL    HW218138   2.179   0.061   5.813 -1.2303 -0.9512  0.4692
 4593SOL    HW318139   2.083   0.136   5.723 -0.0521 -0.6730 -0.5870
 4593SOL    MW418140   2.150   0.082   5.733  0.3599 -0.5486  0.6961
 4594SOL     OW18141   6.001   6.057   1.259  0.4859 -0.0344  0.3069
 4594SOL    HW218142   6.080   6.110   1.260  0.0122  0.6885  1.3153
 4594SOL    HW318143   5.930   6.120   1.272 -0.1562 -0.8164  0.6746
 4594SOL    MW418144   6.002   6.072   1.261  0.3525 -0.2229 -0.3032
 4595SOL     OW18145   4.038   5.388   0.372  0.4995 -0.0180 -0.2417
 4595SOL    HW218146   4.056   5.455   0.306  2.0964 -0.1489  0.0207
 4595SOL    HW318147   3.947   5.365   0.358  0.0152  1.9210 -0.6020
 4595SOL    MW418148   4.029   5.394   0.361 -0.3735 -0.3693  0.3796
 4596SOL     OW18149   6.040   5.235   1.841 -0.6739 -0.2826 -0.1896
 4596SOL    HW218150   6.082   5.216   1.757 -0.4254  2.4883 -0.7968
 4596SOL    HW318151   6.104   5.206   1.907 -0.2370 -1.1441 -0.9741
 4596SOL    MW418152   6.054   5.228   1.839  0.1351  0.0582 -0.6872
 4597SOL     OW18153   5.059   2.936   6.253 -0.2833 -0.7637 -0.1385
 4597SOL    HW218154   5.029   3.025   6.271  2.0257  0.0273  0.0925
 4597SOL    HW318155   5.007   2.908   6.178 -1.0721  0.7627 -0.1988
 4597SOL    MW418156   5.048   2.944   6.245  0.3129  0.6787  0.0326
 4598SOL     OW18157   2.016   1.884   5.268  0.3492  0.2322 -0.0922
 4598SOL    HW218158   2.055   1.823   5.330 -0.5447  2.2032  2.6263
 4598SOL    HW318159   1.937   1.840   5.238 -0.3940  0.0321  1.9627
 4598SOL    MW418160   2.011   1.870   5.272  0.2339  0.3645  0.2018
 4599SOL     OW18161   2.070   5.314   6.082 -1.1893  0.5646 -0.1311
 4599SOL    HW218162   2.049   5.224   6.060  0.8664 -0.4241  1.6088
 4599SOL    HW318163   2.028   5.366   6.014 -0.8521 -1.7944 -2.2788
 4599SOL    MW418164   2.061   5.309   6.070 -0.3371  0.8850 -0.3053
 4600SOL     OW18165   4.039   4.842   2.798 -0.4870  0.2115 -0.9670
 4600SOL    HW218166   3.969   4.776   2.793 -1.0051  0.6707 -0.0162
 4600SOL    HW318167   3.992   4.925   2.809  0.2171  0.4042  0.8427
 4600SOL    MW418168   4.023   4.844   2.799 -0.0898 -0.5593 -0.7293
 4601SOL     OW18169   5.562   0.200   4.311 -0.2167  0.3438 -0.2237
 4601SOL    HW218170   5.602   0.188   4.225 -1.0428 -0.8253 -0.4639
 4601SOL    HW318171   5.479   0.153   4.306  0.7796 -1.9409  1.9749
 4601SOL    MW418172   5.556   0.192   4.299  0.0269 -0.1267  0.3996
 4602SOL     OW18173   1.002   6.153   0.193  0.0497 -0.6677  0.2346
 4602SOL    HW218174   1.094   6.131   0.179 -0.0045 -1.6936  1.3967
 4602SOL    HW318175   0.954   6.082   0.153 -0.2549 -0.1511 -0.3377
 4602SOL    MW418176   1.008   6.141   0.186  0.3391 -0.1152 -0.9556
 4603SOL     OW18177   0.356   0.498   4.926 -0.0225 -0.3975  0.5087
 4603SOL    HW218178   0.330   0.407   4.936  1.6726 -0.9611  0.2317
 4603SOL    HW318179   0.310   0.529   4.848 -2.4025 -0.2640  1.8921
 4603SOL    MW418180   0.347   0.490   4.917  0.3978 -0.3247  0.6402
 4604SOL     OW18181   3.187   3.803   2.391 -0.2973 -0.2105 -0.3311
 4604SOL    HW218182   3.194   3.712   2.420  0.8159 -0.4645 -1.3474
 4604SOL    HW318183   3.103   3.833   2.427 -0.0600 -1.2124  1.1427
 4604SOL    MW418184   3.177   3.795   2.400 -0.1237 -0.0395 -0.5930
 4605SOL     OW18185   0.333   4.687   3.705  0.2104 -0.3271  0.2057
 4605SOL    HW218186   0.361   4.730   3.624  0.7108 -0.8822  0.0687
 4605SOL    HW318187   0.239   4.704   3.710  0.0375 -0.8139 -0.8477
 4605SOL    MW418188   0.324   4.695   3.695  0.1160 -0.5115  0.3040
 4606SOL     OW18189   4.857   1.092   0.415 -0.2075  0.0383 -0.2585
 4606SOL    HW218190   4.937   1.042   0.402  0.3963  0.9519 -0.0998
 4606SOL    HW318191   4.874   1.144   0.494 -1.2021 -0.2395  0.1619
 4606SOL    MW418192   4.870   1.092   0.424  0.2683  0.1827 -0.4481
 4607SOL     OW18193   3.748   2.205   5.456  0.2780 -0.3256 -0.1208
 4607SOL    HW218194   3.668   2.202   5.403  0.1288 -0.2747  0.1014
 4607SOL    HW318195   3.797   2.127   5.430  0.6211  0.1602 -0.9897
 4607SOL    MW418196   3.744   2.194   5.446 -0.6900 -0.6508  0.0975
 4608SOL     OW18197   1.576   5.810   1.749 -0.2187  0.4205 -0.5167
 4608SOL    HW218198   1.527   5.757   1.811 -1.8108  1.2626 -0.9841
 4608SOL    HW318199   1.571   5.899   1.784 -0.4909  0.7873 -1.4530
 4608SOL    MW418200   1.569   5.815   1.762 -1.0691 -0.4538  0.2958
 4609SOL     OW18201   2.382   1.260   6.146 -0.2405  0.7240  0.4425
 4609SOL    HW218202   2.351   1.175   6.114 -0.1095  0.3195  1.3507
 4609SOL    HW318203   2.303   1.312   6.156 -0.6064 -0.0661  2.0590
 4609SOL    MW418204   2.368   1.255   6.143 -0.4509 -0.3191  0.4096
 4610SOL     OW18205   2.382   5.995   1.928  0.3888 -0.3421  0.2120
 4610SOL    HW218206   2.413   5.904   1.922 -0.7344 -0.6566 -2.8433
 4610SOL    HW318207   2.431   6.041   1.861 -1.4373  0.4843 -0.6252
 4610SOL    MW418208   2.392   5.989   1.918 -0.6930  0.1753  0.3081
 4611SOL     OW18209   0.148   5.403   1.413  0.0624  0.2762 -0.4605
 4611SOL    HW218210   0.104   5.463   1.352 -0.0344 -0.0041 -0.6674
 4611SOL    HW318211   0.092   5.402   1.491 -0.6205 -0.5255 -0.9388
 4611SOL    MW418212   0.135   5.411   1.415  0.5424 -0.2981  0.1572
 4612SOL     OW18213   0.755   2.161   1.778 -0.7245  0.4026 -0.2719
 4612SOL    HW218214   0.778   2.193   1.691 -1.8443 -1.3914 -1.2925
 4612SOL    HW318215   0.838   2.155   1.824 -0.1749  1.9661 -0.9823
 4612SOL    MW418216   0.769   2.164   1.772  0.4103 -0.2684 -0.4318
 4613SOL     OW18217   3.974   4.849   0.966  0.1298 -0.5580 -0.0288
 4613SOL    HW218218   3.953   4.913   1.034  1.3133 -2.1964  2.0165
 4613SOL    HW318219   4.069   4.857   0.954  0.3383 -2.0014  0.4080
 4613SOL    MW418220   3.984   4.858   0.973 -0.2501 -0.7905 -0.1287
 4614SOL     OW18221   3.544   0.066   2.116  0.5815 -0.3975 -0.1788
 4614SOL    HW218222   3.601   0.126   2.165  0.5504 -0.5259  0.0135
 4614SOL    HW318223   3.576  -0.021   2.139  1.3503 -0.4449 -1.3224
 4614SOL    MW418224   3.556   0.063   2.125  0.2713 -0.2130 -0.1065
 4615SOL     OW18225   6.211   2.046   3.644  0.5764  0.1162  0.3668
 4615SOL    HW218226   6.224   2.140   3.640 -2.0914  0.5339 -0.6781
 4615SOL    HW318227   6.143   2.028   3.579  0.6583 -2.4746  0.8578
 4615SOL    MW418228   6.203   2.056   3.635 -0.1378 -0.0850  0.2139
 4616SOL     OW18229   3.108   5.643   1.809 -0.2595  0.0350 -0.1038
 4616SOL    HW218230   3.178   5.588   1.773  1.1372  0.9414  1.1365
 4616SOL    HW318231   3.085   5.702   1.738  0.9793  0.4110 -0.2130
 4616SOL    MW418232   3.114   5.643   1.795 -1.2139  0.1066 -0.5516
 4617SOL     OW18233   6.075   1.820   1.574  0.2104  1.0621  0.0506
 4617SOL    HW218234   6.007   1.886   1.564 -1.7100 -0.4860  1.9442
 4617SOL    HW318235   6.134   1.856   1.640  0.0653  1.5305 -0.0746
 4617SOL    MW418236   6.074   1.833   1.581  0.4731  0.0426 -0.3194
 4618SOL     OW18237   3.388   2.049   5.121  0.1668 -0.5712 -0.2966
 4618SOL    HW218238   3.324   2.053   5.192  0.3915 -0.4710 -0.0994
 4618SOL    HW318239   3.345   2.091   5.047 -0.0063 -0.5279 -0.1708
 4618SOL    MW418240   3.374   2.055   5.121 -0.0554  0.5538  0.0365
 4619SOL     OW18241   1.050   6.025   5.539  0.2360  0.5796  0.4490
 4619SOL    HW218242   1.053   6.114   5.503 -0.7627  0.0673 -1.0320
 4619SOL    HW318243   1.138   5.991   5.526  0.0467  0.5964 -1.1755
 4619SOL    MW418244   1.062   6.032   5.532  0.6979 -0.5069  0.2505
 4620SOL     OW18245   0.894   2.662   4.938  0.3250  0.6864  0.4611
 4620SOL    HW218246   0.986   2.640   4.929 -0.1873 -1.0802 -1.0076
 4620SOL    HW318247   0.890   2.719   5.015  2.7795  1.9197 -0.2514
 4620SOL    MW418248   0.905   2.667   4.947 -0.4572  0.3204  0.3567
 4621SOL     OW18249   3.461   2.930   2.620 -0.0435  0.1739 -0.0738
 4621SOL    HW218250   3.553   2.942   2.598  0.3598  1.0840  1.8461
 4621SOL    HW318251   3.461   2.871   2.695 -1.0071  0.3050  0.0518
 4621SOL    MW418252   3.473   2.924   2.627 -0.7756  0.2748  0.0111
 4622SOL     OW18253   4.137   6.207   0.486  0.7082  0.0448 -0.2195
 4622SOL    HW218254   4.061   6.233   0.539  2.0252 -0.8362  2.2588
 4622SOL    HW318255   4.152   6.115   0.510  0.6937 -0.7729 -3.0676
 4622SOL    MW418256   4.129   6.198   0.496 -0.0009 -0.4301 -0.2707
 4623SOL     OW18257   5.955   0.593   4.286 -0.2283  0.3184  0.1286
 4623SOL    HW218258   5.953   0.676   4.238  0.2432 -0.2963 -0.9962
 4623SOL    HW318259   6.039   0.554   4.262 -1.2998 -1.4121 -0.9954
 4623SOL    MW418260   5.966   0.599   4.276 -0.2557  0.0650 -0.2357
 4624SOL     OW18261   0.837   4.263   0.561  0.8417 -0.1849  0.6049
 4624SOL    HW218262   0.790   4.191   0.603  0.4361 -1.4002 -1.7551
 4624SOL    HW318263   0.919   4.223   0.531  0.8911  0.4891 -0.1770
 4624SOL    MW418264   0.842   4.248   0.562  0.1466 -0.2544 -0.1384
 4625SOL     OW18265   1.672   1.107   4.277 -0.7136 -0.0232  0.0145
 4625SOL    HW218266   1.653   1.200   4.285  0.0679  0.1965 -0.5662
 4625SOL    HW318267   1.764   1.099   4.302  0.1796 -0.1412 -2.9187
 4625SOL    MW418268   1.682   1.118   4.282  0.2066 -0.1417  0.5885
 4626SOL     OW18269   1.672   0.871   1.338  0.1703 -0.1265  0.0761
 4626SOL    HW218270   1.602   0.926   1.373  0.1404 -0.1627  0.0731
 4626SOL    HW318271   1.751   0.898   1.386  0.2325  0.1909 -0.1987
 4626SOL    MW418272   1.674   0.881   1.349 -0.4069  0.0712 -0.1131
 4627SOL     OW18273   1.039   1.198   1.065 -0.4388 -0.2910 -0.3638
 4627SOL    HW218274   1.036   1.114   1.018 -0.7382  0.1808 -1.2146
 4627SOL    HW318275   1.090   1.255   1.008 -1.1454  0.4118 -0.3123
 4627SOL    MW418276   1.045   1.194   1.051  0.2596  0.2978  0.7452
 4628SOL     OW18277   0.511   1.911   2.051 -0.2194  0.3650  0.3319
 4628SOL    HW218278   0.546   1.922   2.139  1.1309  0.6540 -0.2000
 4628SOL    HW318279   0.589   1.911   1.995 -0.9304 -1.1301 -0.7407
 4628SOL    MW418280   0.526   1.912   2.055 -0.4374 -0.1740 -0.5661
 4629SOL     OW18281   2.868   4.576   2.479 -0.7236 -0.0354 -0.4328
 4629SOL    HW218282   2.865   4.669   2.500 -0.6098  0.2871 -1.7496
 4629SOL    HW318283   2.810   4.535   2.542 -2.5209  1.2083 -1.1997
 4629SOL    MW418284   2.860   4.583   2.490  0.2501 -0.2088 -0.7975
 4630SOL     OW18285   3.347   1.231   5.622  0.2298 -0.3726  0.4590
 4630SOL    HW218286   3.374   1.186   5.702  0.6510  0.7329  0.9614
 4630SOL    HW318287   3.251   1.228   5.624  0.2166  0.3231  1.4130
 4630SOL    MW418288   3.338   1.225   5.633  0.2469 -0.6110  0.4305
 4631SOL     OW18289   0.984   5.102   3.952 -0.1314 -0.0228 -0.4212
 4631SOL    HW218290   0.942   5.018   3.936  1.8887 -1.3094  0.5694
 4631SOL    HW318291   1.061   5.081   4.005  0.9764  2.3438 -0.9261
 4631SOL    MW418292   0.989   5.088   3.957 -0.0242 -0.2871 -0.0359
 4632SOL     OW18293   4.125   2.277   0.349  0.1577 -0.1192 -0.0359
 4632SOL    HW218294   4.097   2.353   0.401  0.7944  1.3138 -1.6798
 4632SOL    HW318295   4.045   2.248   0.305 -0.3754 -1.3109  1.6172
 4632SOL    MW418296   4.110   2.283   0.350  0.3118  0.2384  0.2152
 4633SOL     OW18297   5.016   4.196   3.569  0.3154  0.5424  0.0242
 4633SOL    HW218298   5.028   4.288   3.543  1.2001  0.3728 -0.2063
 4633SOL    HW318299   5.105   4.161   3.571 -0.0111 -0.2755  0.2510
 4633SOL    MW418300   5.030   4.204   3.566 -0.0542  0.5881  0.3377
 4634SOL     OW18301   4.897   1.132   3.638  0.0655  0.0374 -0.3506
 4634SOL    HW218302   4.936   1.217   3.619 -1.6818  1.0745  0.4652
 4634SOL    HW318303   4.914   1.118   3.731  0.4821 -0.5903 -0.5180
 4634SOL    MW418304   4.904   1.141   3.647 -0.0780  0.5005  0.2547
 4635SOL     OW18305   1.968   0.542   1.568 -0.9072  0.5749  0.2534
 4635SOL    HW218306   1.950   0.449   1.575 -1.7792  0.5320 -1.8928
 4635SOL    HW318307   1.924   0.570   1.487  1.2668  2.3620 -0.4277
 4635SOL    MW418308   1.960   0.534   1.558  0.6971 -0.3640 -0.1093
 4636SOL     OW18309   1.917   4.868   5.629 -0.2088  0.1714  0.4444
 4636SOL    HW218310   1.956   4.825   5.705  1.5365  1.1663  0.1654
 4636SOL    HW318311   1.865   4.799   5.587  0.6546 -1.0284  1.2653
 4636SOL    MW418312   1.916   4.853   5.633 -0.1124 -0.3623  0.3047
 4637SOL     OW18313   5.959   2.528   0.608  0.1715 -1.1745 -0.4323
 4637SOL    HW218314   5.898   2.483   0.551  0.4848 -1.7343 -0.3378
 4637SOL    HW318315   6.030   2.556   0.550  0.0345 -0.9024 -0.4709
 4637SOL    MW418316   5.961   2.526   0.593  0.1645 -0.2971  0.2775
 4638SOL     OW18317   2.474   2.969   4.420  0.1860  0.0223  0.6388
 4638SOL    HW218318   2.462   2.958   4.325 -0.8567  2.0985  0.4759
 4638SOL    HW318319   2.569   2.973   4.431  0.3930  3.4742 -0.9264
 4638SOL    MW418320   2.485   2.968   4.409 -0.6970  0.1660  0.6169
 4639SOL     OW18321   3.854   6.090   3.083  0.3845 -0.6579 -0.8789
 4639SOL    HW218322   3.921   6.061   3.021  0.7576 -0.8715 -0.3825
 4639SOL    HW318323   3.852   6.185   3.074  0.4652 -0.6854 -1.1862
 4639SOL    MW418324   3.862   6.099   3.074 -0.4682 -0.1636  0.4992
 4640SOL     OW18325   4.415   3.907   1.138  0.3026  0.3153  0.3465
 4640SOL    HW218326   4.327   3.934   1.164  0.8313  1.6286  0.8325
 4640SOL    HW318327   4.402   3.823   1.094 -1.2616  0.7721 -0.1210
 4640SOL    MW418328   4.401   3.899   1.136 -0.0830  0.2709  0.1613
 4641SOL     OW18329   0.875   1.599   3.388 -0.0728 -0.2346  0.4344
 4641SOL    HW218330   0.940   1.531   3.374 -0.0802 -0.0282 -0.6670
 4641SOL    HW318331   0.853   1.631   3.300 -2.5134 -1.0738  0.6719
 4641SOL    MW418332   0.881   1.594   3.375 -0.3500 -0.2481  0.2364
 4642SOL     OW18333   0.280   3.444   4.600  0.5110 -0.4094  0.4097
 4642SOL    HW218334   0.308   3.521   4.649 -0.3805 -0.3289  0.7985
 4642SOL    HW318335   0.312   3.370   4.651 -1.5204 -0.3602  1.8450
 4642SOL    MW418336   0.288   3.444   4.613 -0.2767 -0.0170 -0.0151
 4643SOL     OW18337   4.137   3.973   1.680 -0.2050  0.6262 -0.9088
 4643SOL    HW218338   4.196   3.973   1.755 -2.1915 -0.9712  0.7741
 4643SOL    HW318339   4.065   4.030   1.707 -1.0070 -0.0778 -1.5434
 4643SOL    MW418340   4.135   3.981   1.694 -1.0259 -0.5313  0.0073
 4644SOL     OW18341   6.020   1.428   6.307  0.6409 -0.5206 -0.0356
 4644SOL    HW218342   6.040   1.379   6.227  0.3129  0.0626 -0.4863
 4644SOL    HW318343   5.987   1.512   6.275  0.6221 -0.2375  0.7194
 4644SOL    MW418344   6.018   1.433   6.292 -0.2754 -0.4980  0.4628
 4645SOL     OW18345   5.317   4.187   0.378 -0.0479  0.4576  0.2807
 4645SOL    HW218346   5.398   4.212   0.423 -0.2891  0.5665  0.6616
 4645SOL    HW318347   5.286   4.269   0.339  0.3824  0.2789 -0.4460
 4645SOL    MW418348   5.323   4.201   0.379  0.0598  0.5496 -0.0527
 4646SOL     OW18349   4.765   0.619   4.743  0.5531 -0.3461 -0.5728
 4646SOL    HW218350   4.715   0.543   4.712 -0.6629 -0.2139  0.9460
 4646SOL    HW318351   4.791   0.597   4.832  1.3356  0.4960 -0.5742
 4646SOL    MW418352   4.762   0.606   4.751 -0.4365  0.7036  0.1526
 4647SOL     OW18353   1.533   4.508   2.804 -0.3084  0.2877  0.1043
 4647SOL    HW218354   1.498   4.476   2.888 -3.4419 -0.6855 -1.4079
 4647SOL    HW318355   1.624   4.480   2.804 -0.9782 -2.3248  1.9878
 4647SOL    MW418356   1.540   4.500   2.815  0.1419  0.4117 -0.8962
 4648SOL     OW18357   5.053   5.002   5.930  0.2108 -0.3366  0.5195
 4648SOL    HW218358   5.048   5.059   5.853  0.3978 -1.4774 -0.3677
 4648SOL    HW318359   4.967   4.961   5.936  0.0930 -0.0148  1.1236
 4648SOL    MW418360   5.041   5.004   5.920  0.2852  0.4625 -0.2533
 4649SOL     OW18361   1.900   0.250   1.624 -0.2134  0.0128  0.4422
 4649SOL    HW218362   1.842   0.199   1.680  1.1890 -0.3736  1.6361
 4649SOL    HW318363   1.895   0.208   1.539 -1.8421  0.1542  0.4361
 4649SOL    MW418364   1.892   0.238   1.620  1.0438 -0.0197 -0.0678
 4650SOL     OW18365   4.659   4.674   6.432  0.7892  0.4847 -0.5719
 4650SOL    HW218366   4.643   4.765   6.407  0.4622  0.7180  0.4433
 4650SOL    HW318367   4.736   4.679   6.489 -0.8321  0.5254  1.7528
 4650SOL    MW418368   4.667   4.687   6.436 -0.0628  0.0245  0.1702
 4651SOL     OW18369   4.963   4.047   2.983 -0.1626  0.3997  0.4915
 4651SOL    HW218370   4.932   3.965   2.944  3.4090  0.1269 -2.2194
 4651SOL    HW318371   4.885   4.102   2.988 -1.9305 -1.7329 -1.4752
 4651SOL    MW418372   4.948   4.043   2.979  0.3965 -0.2072 -0.3608
 4652SOL     OW18373   4.044   4.781   0.295  0.0135  0.0271 -0.3512
 4652SOL    HW218374   3.991   4.755   0.371 -0.2670 -2.0620 -1.1888
 4652SOL    HW318375   4.134   4.780   0.328 -0.1892  0.2501  0.2287
 4652SOL    MW418376   4.049   4.778   0.309  0.1660  0.4676  0.6896
 4653SOL     OW18377   4.967   2.987   1.576 -0.2599  0.7657 -0.0011
 4653SOL    HW218378   5.025   3.055   1.542 -0.3325 -0.2586 -2.3962
 4653SOL    HW318379   4.879   3.025   1.573 -0.2812  0.6527 -1.1968
 4653SOL    MW418380   4.963   3.001   1.571 -0.2645 -0.5952 -0.0419
 4654SOL     OW18381   2.672   5.077   2.292  0.2018 -0.3100 -0.2091
 4654SOL    HW218382   2.760   5.087   2.328  0.3497 -2.4927  0.1653
 4654SOL    HW318383   2.675   5.123   2.208  2.6534 -2.6119 -1.5644
 4654SOL    MW418384   2.684   5.084   2.285  0.0190 -0.6456  0.2942
 4655SOL     OW18385   6.291   5.854   0.959 -0.1107 -0.8422  0.0030
 4655SOL    HW218386   6.275   5.907   0.881 -0.4369 -1.2767 -0.2362
 4655SOL    HW318387   6.385   5.862   0.975 -0.2525  0.2463  0.3049
 4655SOL    MW418388   6.301   5.862   0.951  0.3506  0.4261 -0.1824
 4656SOL     OW18389   2.691   0.642   3.337 -0.3998 -0.3388  0.9125
 4656SOL    HW218390   2.650   0.719   3.375  0.3296  1.0997 -1.0662
 4656SOL    HW318391   2.784   0.661   3.336 -0.3588 -0.3908 -1.2482
 4656SOL    MW418392   2.698   0.654   3.342  0.1804 -0.3717 -0.5626
 4657SOL     OW18393   2.319   4.965   4.922  0.1361 -0.6061  0.7123
 4657SOL    HW218394   2.264   4.972   4.844  2.4648  0.1826 -0.9748
 4657SOL    HW318395   2.404   5.001   4.896  1.5851 -1.9581  3.0786
 4657SOL    MW418396   2.323   4.971   4.909  0.0708  0.6260  0.2654
 4658SOL     OW18397   1.639   4.357   2.178  0.2911  0.1555 -0.5660
 4658SOL    HW218398   1.625   4.451   2.180 -0.5760  0.0269 -0.0879
 4658SOL    HW318399   1.720   4.344   2.226 -1.6944  0.3343  3.1636
 4658SOL    MW418400   1.648   4.368   2.184 -0.0517  0.4822 -0.5042
 4659SOL     OW18401   1.466   2.604   1.196 -0.5777 -0.2335  0.2342
 4659SOL    HW218402   1.502   2.687   1.227  0.8005  0.0559 -1.9040
 4659SOL    HW318403   1.497   2.539   1.259  1.8136  0.3646 -0.2169
 4659SOL    MW418404   1.475   2.606   1.208 -0.2105 -0.3963 -0.4523
 4660SOL     OW18405   6.421   6.076   5.908  0.2806 -0.0616  0.1608
 4660SOL    HW218406   6.511   6.109   5.917  0.6117 -0.1129 -2.3503
 4660SOL    HW318407   6.377   6.142   5.854 -0.2409 -1.5780 -1.3393
 4660SOL    MW418408   6.427   6.089   5.902  0.2408 -0.5746  0.1675
 4661SOL     OW18409   1.022   2.626   3.132  0.2583 -0.6140 -0.1338
 4661SOL    HW218410   1.008   2.708   3.180 -0.4817  0.2315 -1.7137
 4661SOL    HW318411   0.980   2.559   3.187 -0.2243  0.2540  0.5842
 4661SOL    MW418412   1.014   2.628   3.146 -0.0956 -0.4692 -0.4705
 4662SOL     OW18413   0.689   6.032   2.737 -0.3614 -0.5552  0.3427
 4662SOL    HW218414   0.676   6.086   2.815  4.2126  0.8331  0.4532
 4662SOL    HW318415   0.619   6.057   2.678 -0.3970  3.0936  1.6818
 4662SOL    MW418416   0.678   6.042   2.740 -0.1346  0.0733 -0.3130
 4663SOL     OW18417   0.468   4.934   0.083 -0.0703  0.8275  0.5418
 4663SOL    HW218418   0.484   5.026   0.106 -1.5764  0.7772  1.9841
 4663SOL    HW318419   0.524   4.885   0.144  1.4340  0.7465 -0.8312
 4663SOL    MW418420   0.478   4.940   0.094 -0.2444  0.3683  0.2545
 4664SOL     OW18421   0.798   0.425   5.734 -0.0147  0.4571 -0.3018
 4664SOL    HW218422   0.720   0.401   5.784 -0.5525  1.0825 -0.8253
 4664SOL    HW318423   0.789   0.379   5.651 -0.3312  1.3089 -0.7499
 4664SOL    MW418424   0.787   0.416   5.729 -0.0339  0.3271  0.1362
 4665SOL     OW18425   4.696   6.316   4.014 -0.3768 -0.2560  0.1003
 4665SOL    HW218426   4.740   6.371   3.949  1.8018 -1.7433  0.1907
 4665SOL    HW318427   4.767   6.264   4.053 -1.8587 -0.6124  2.4864
 4665SOL    MW418428   4.711   6.316   4.010  0.1346  0.0401  0.3020
 4666SOL     OW18429   3.355   4.842   1.262 -0.0927  0.3305 -0.0053
 4666SOL    HW218430   3.442   4.860   1.296  0.2232  0.2026 -0.7300
 4666SOL    HW318431   3.298   4.843   1.339  0.6484 -0.2377  0.5593
 4666SOL    MW418432   3.359   4.845   1.277 -0.3911 -0.1462 -0.1072
 4667SOL     OW18433   1.857   6.210   6.197  0.4708  0.0771 -0.5058
 4667SOL    HW218434   1.939   6.162   6.205  0.3516  0.0434  0.8088
 4667SOL    HW318435   1.835   6.205   6.104  1.7297 -0.2765 -0.8061
 4667SOL    MW418436   1.865   6.203   6.186 -0.2698 -0.3696 -0.7805
 4668SOL     OW18437   1.141   2.817   1.406  0.2007 -0.2607 -0.3193
 4668SOL    HW218438   1.125   2.908   1.430  2.4513  0.5132 -1.4561
 4668SOL    HW318439   1.215   2.791   1.461  0.0696 -1.1483 -0.5509
 4668SOL    MW418440   1.149   2.825   1.417  0.7147  0.5751 -0.1384
 4669SOL     OW18441   0.379   5.428   4.387 -0.1814 -0.5411  0.1957
 4669SOL    HW218442   0.423   5.374   4.320 -0.7969  0.3713 -0.9762
 4669SOL    HW318443   0.451   5.469   4.435  0.2820 -0.4289 -0.5641
 4669SOL    MW418444   0.395   5.426   4.384 -0.2554 -0.0515  1.1596
 4670SOL     OW18445   1.467   4.629   1.482 -0.3698  0.1766  0.9440
 4670SOL    HW218446   1.381   4.606   1.517  0.3670 -1.2831  1.9610
 4670SOL    HW318447   1.482   4.564   1.413 -0.6759  1.3432 -0.2399
 4670SOL    MW418448   1.458   4.617   1.478 -0.2739 -0.0270 -1.1763
 4671SOL     OW18449   0.373   6.247   0.910 -0.1232  0.1515 -0.1237
 4671SOL    HW218450   0.408   6.209   0.992  1.7675  0.3749 -0.7702
 4671SOL    HW318451   0.373   6.341   0.925 -1.5205  0.1094  0.2449
 4671SOL    MW418452   0.378   6.254   0.923 -0.1915 -0.2990 -0.1319
 4672SOL     OW18453   5.335   2.024   2.606 -0.4853 -0.5332 -0.2377
 4672SOL    HW218454   5.308   1.932   2.600  0.1340 -0.7194 -0.2906
 4672SOL    HW318455   5.326   2.058   2.517  2.2069 -1.4088 -0.9397
 4672SOL    MW418456   5.331   2.016   2.594 -0.4775  0.4848 -0.2403
 4673SOL     OW18457   5.110   3.666   3.727  0.3547 -0.6885  0.4765
 4673SOL    HW218458   5.181   3.604   3.739  1.4083  0.2191 -0.7623
 4673SOL    HW318459   5.114   3.723   3.804  1.4849 -0.1658  0.0458
 4673SOL    MW418460   5.120   3.666   3.739 -0.0786 -0.0065 -0.0933
 4674SOL     OW18461   4.196   2.521   5.412 -0.0428 -0.3825  0.3583
 4674SOL    HW218462   4.146   2.481   5.482  0.1493 -1.1214  0.0787
 4674SOL    HW318463   4.243   2.593   5.454 -0.7885 -0.1245  0.7567
 4674SOL    MW418464   4.196   2.525   5.427 -0.7542 -0.0938  0.2498
 4675SOL     OW18465   4.008   4.263   4.412 -0.2351  0.7313 -0.0739
 4675SOL    HW218466   4.097   4.254   4.378 -0.8783  0.7032 -1.8589
 4675SOL    HW318467   3.987   4.176   4.447 -0.1078  0.2746 -1.0965
 4675SOL    MW418468   4.017   4.250   4.412  0.7775  0.0791 -0.4757
 4676SOL     OW18469   4.245   0.677   1.272  0.1415  0.3010  0.5106
 4676SOL    HW218470   4.272   0.600   1.222  0.1405 -0.8407  2.1804
 4676SOL    HW318471   4.178   0.718   1.218  1.0004 -0.1630 -0.9735
 4676SOL    MW418472   4.240   0.672   1.258 -0.2695 -0.3419 -0.0782
 4677SOL     OW18473   5.646   1.908   1.426  0.7097 -0.5589 -0.4789
 4677SOL    HW218474   5.574   1.899   1.489  0.4650  0.2293 -0.6364
 4677SOL    HW318475   5.602   1.907   1.341  0.7597  0.9236 -0.5522
 4677SOL    MW418476   5.630   1.907   1.423  0.2750  0.2107  0.1808
 4678SOL     OW18477   5.180   2.272   6.112 -0.7296  0.1219 -0.0692
 4678SOL    HW218478   5.159   2.314   6.028  1.7158  1.0528 -0.3077
 4678SOL    HW318479   5.126   2.194   6.114 -0.4405 -0.2593 -2.8142
 4678SOL    MW418480   5.170   2.268   6.101 -0.0943 -0.4708  0.1831
 4679SOL     OW18481   0.318   4.202   2.541 -0.1029  0.0021 -0.2368
 4679SOL    HW218482   0.244   4.142   2.553 -0.7364  0.6143 -0.9900
 4679SOL    HW318483   0.284   4.270   2.482  0.8246  0.7114  0.0354
 4679SOL    MW418484   0.303   4.203   2.535  0.5963  1.0614  0.3920
 4680SOL     OW18485   1.129   5.045   0.969 -0.2743 -0.2136 -0.0627
 4680SOL    HW218486   1.065   5.100   0.924  0.6619  1.4021  0.4995
 4680SOL    HW318487   1.086   4.960   0.978 -0.7043 -0.5512 -3.6041
 4680SOL    MW418488   1.115   5.041   0.964 -0.0539  0.3145  0.3268
 4681SOL     OW18489   1.823   3.973   0.525 -0.0160  0.3727 -0.2745
 4681SOL    HW218490   1.915   3.998   0.527  0.2180 -0.4618 -0.2281
 4681SOL    HW318491   1.776   4.050   0.558  0.9130 -0.2765  2.9106
 4681SOL    MW418492   1.829   3.986   0.530  0.4660  0.1491  0.2901
 4682SOL     OW18493   0.944   4.190   5.992 -0.4033  0.6528 -0.0400
 4682SOL    HW218494   0.981   4.253   5.931  0.7695 -1.4634 -1.6756
 4682SOL    HW318495   1.019   4.139   6.022 -1.2350  0.3511  1.6587
 4682SOL    MW418496   0.958   4.191   5.988 -0.2411 -0.7953 -0.0686
 4683SOL     OW18497   1.220   4.978   6.398  0.5542 -0.2420  0.2929
 4683SOL    HW218498   1.286   5.002   6.334  1.7170 -1.7982  0.8410
 4683SOL    HW318499   1.255   5.010   6.482 -0.3799  0.7178  0.3407
 4683SOL    MW418500   1.233   4.985   6.401  0.0669  0.6447  0.3349
 4684SOL     OW18501   0.964   2.434   2.040 -0.1114  0.0310 -0.0395
 4684SOL    HW218502   0.901   2.505   2.052  0.6254  0.4704  1.5363
 4684SOL    HW318503   0.937   2.367   2.102 -0.6489 -0.9923 -1.3358
 4684SOL    MW418504   0.952   2.435   2.050 -0.2717  0.3368 -0.2898
 4685SOL     OW18505   0.046   3.570   0.561 -1.0933  0.8681 -0.4896
 4685SOL    HW218506   0.045   3.661   0.592  1.7243  0.0569  2.6518
 4685SOL    HW318507   0.117   3.568   0.496 -0.3854  0.7645  0.2649
 4685SOL    MW418508   0.055   3.582   0.556  0.2110  0.2942  0.2676
 4686SOL     OW18509   3.183   2.502   6.326 -0.1215  0.5813 -0.0987
 4686SOL    HW218510   3.213   2.547   6.248 -0.5297 -0.2267 -0.7324
 4686SOL    HW318511   3.094   2.473   6.306 -0.0975  0.0447  0.5152
 4686SOL    MW418512   3.176   2.504   6.313  0.6016  0.6372 -0.7027
 4687SOL     OW18513   5.957   4.599   5.045  0.0815  0.0970  0.2484
 4687SOL    HW218514   5.862   4.597   5.057  0.1087  0.4015  0.5159
 4687SOL    HW318515   5.983   4.687   5.071  0.4632 -0.0522  0.3791
 4687SOL    MW418516   5.948   4.610   5.050  0.1549 -0.0223 -0.0653
 4688SOL     OW18517   4.463   3.548   3.282  0.0067  0.4700  0.0936
 4688SOL    HW218518   4.556   3.526   3.278  0.0284  0.0079  1.9601
 4688SOL    HW318519   4.419   3.471   3.247  0.3038  0.1254  0.4564
 4688SOL    MW418520   4.470   3.535   3.277  0.2318  0.0891  0.0277
 4689SOL     OW18521   0.503   2.311   1.829 -0.1590 -0.2194 -0.6222
 4689SOL    HW218522   0.585   2.264   1.812 -0.9095 -1.7005 -0.3479
 4689SOL    HW318523   0.517   2.353   1.914  0.6798  0.4036 -1.0600
 4689SOL    MW418524   0.515   2.310   1.838  0.1060 -0.2647 -0.0487
 4690SOL     OW18525   4.972   4.843   5.281  0.2628  0.5033  0.0879
 4690SOL    HW218526   4.910   4.835   5.209  1.5845 -0.3867 -0.9929
 4690SOL    HW318527   4.945   4.777   5.345  1.6855 -1.9002 -1.6452
 4690SOL    MW418528   4.961   4.833   5.280 -0.4323  0.4775  0.0316
 4691SOL     OW18529   0.040   4.039   4.683 -0.7202 -0.1919  0.0876
 4691SOL    HW218530  -0.003   3.990   4.753 -0.4756 -0.8771 -0.2320
 4691SOL    HW318531   0.130   4.007   4.682 -0.2589  1.0280  0.5594
 4691SOL    MW418532   0.046   4.028   4.692  0.3301 -0.1908  0.0654
 4692SOL     OW18533   3.195   5.418   2.235 -1.0856  0.0820  0.0059
 4692SOL    HW218534   3.250   5.492   2.210  0.3090 -0.8061  0.3185
 4692SOL    HW318535   3.106   5.447   2.217 -0.5010  1.4449 -0.8512
 4692SOL    MW418536   3.191   5.432   2.230  0.6764 -0.5566 -0.0708
 4693SOL     OW18537   5.955   4.146   2.353 -0.0912 -0.2464  0.3552
 4693SOL    HW218538   6.017   4.090   2.400  0.0567  0.0396  0.5064
 4693SOL    HW318539   6.001   4.230   2.345 -0.5319  0.0237  0.6314
 4693SOL    MW418540   5.969   4.150   2.358  0.2529  0.6521  0.2013
 4694SOL     OW18541   1.996   4.240   3.422  0.4172 -0.5801  0.0070
 4694SOL    HW218542   1.914   4.288   3.434  0.4034 -0.9159  1.3968
 4694SOL    HW318543   2.064   4.307   3.431  0.4047 -0.7805  2.1013
 4694SOL    MW418544   1.994   4.255   3.424  0.0795  0.0209 -0.0219
 4695SOL     OW18545   2.884   5.343   3.608 -0.0490  0.1220 -0.3134
 4695SOL    HW218546   2.899   5.392   3.527 -0.4088  0.9595  0.1113
 4695SOL    HW318547   2.789   5.350   3.622  0.3417  2.6734  1.7878
 4695SOL    MW418548   2.873   5.350   3.599 -0.2794 -0.4214  0.0065
 4696SOL     OW18549   2.452   2.272   3.567 -0.0879 -0.2143 -0.0456
 4696SOL    HW218550   2.432   2.330   3.640  1.2196  1.6365 -1.0614
 4696SOL    HW318551   2.480   2.190   3.607 -0.8283  0.2493  1.4700
 4696SOL    MW418552   2.453   2.269   3.582  0.9573  0.1128  0.4281
 4697SOL     OW18553   5.546   4.976   4.330 -0.0060  0.3416 -0.2359
 4697SOL    HW218554   5.535   4.908   4.263  1.0635 -0.8268  0.7212
 4697SOL    HW318555   5.509   5.055   4.290 -2.9301 -1.1261 -0.7558
 4697SOL    MW418556   5.540   4.977   4.316  0.3711  0.0329 -0.4943
 4698SOL     OW18557   2.590   0.001   3.105  0.3181  0.2286 -0.4311
 4698SOL    HW218558   2.663   0.051   3.142  0.1031  0.0148  0.3152
 4698SOL    HW318559   2.554  -0.047   3.180 -1.9189  1.9406 -0.3245
 4698SOL    MW418560   2.595   0.001   3.120 -0.1221 -0.6964  0.1197
 4699SOL     OW18561   4.525   0.676   0.980 -0.3836 -0.1773  0.8500
 4699SOL    HW218562   4.557   0.732   1.051 -1.1698 -0.7670  1.6895
 4699SOL    HW318563   4.464   0.731   0.931 -0.2089  0.0821  0.9221
 4699SOL    MW418564   4.521   0.691   0.983  0.8201  0.4001 -0.5543
 4700SOL     OW18565   1.713   2.715   2.358 -0.2627  0.0241 -0.6728
 4700SOL    HW218566   1.623   2.727   2.390  0.1311 -1.6060  1.2420
 4700SOL    HW318567   1.702   2.684   2.268 -1.7333 -1.8633  0.0841
 4700SOL    MW418568   1.700   2.712   2.350  0.7006  0.0937 -0.7143
 4701SOL     OW18569   4.780   5.939   4.308 -0.3788 -0.6027  0.1266
 4701SOL    HW218570   4.798   6.024   4.347  1.7106 -0.0938 -1.7173
 4701SOL    HW318571   4.702   5.952   4.255 -1.7788 -0.6683  2.0697
 4701SOL    MW418572   4.772   5.952   4.306  1.1239 -0.5395 -0.4112
 4702SOL     OW18573   4.563   5.692   0.041  0.4370 -0.4422 -0.1932
 4702SOL    HW218574   4.606   5.732  -0.034  3.2705  0.4839  1.7491
 4702SOL    HW318575   4.634   5.651   0.091 -1.2900 -1.0277  1.9943
 4702SOL    MW418576   4.578   5.692   0.038  0.4898  0.7667  0.1758
 4703SOL     OW18577   1.785   4.942   4.834  0.1797 -0.1207 -0.2076
 4703SOL    HW218578   1.862   4.928   4.890 -0.9749  1.6461  2.0167
 4703SOL    HW318579   1.821   4.975   4.752  1.8628  2.5429  1.4066
 4703SOL    MW418580   1.800   4.945   4.831  0.1424  0.2567  0.0993
 4704SOL     OW18581   4.099   0.377   3.598  0.1837  0.5024 -0.3232
 4704SOL    HW218582   4.180   0.428   3.600  0.2944  0.3806  2.4772
 4704SOL    HW318583   4.126   0.287   3.615 -0.3815  0.0772 -1.5128
 4704SOL    MW418584   4.113   0.372   3.600 -0.2727 -0.4679  0.1336
 4705SOL     OW18585   0.049   4.996   5.530  0.1147  0.7674  0.5425
 4705SOL    HW218586   0.089   5.046   5.459  1.0748  0.2686  0.7174
 4705SOL    HW318587   0.120   4.979   5.591 -0.6892  1.1809  1.6428
 4705SOL    MW418588   0.063   5.001   5.529  0.0095  0.4954 -0.0535
 4706SOL     OW18589   3.848   0.400   2.444  0.0845 -0.4759  0.0059
 4706SOL    HW218590   3.929   0.351   2.458 -0.2336 -1.2970 -0.8721
 4706SOL    HW318591   3.876   0.489   2.423  0.7404 -0.6539  0.1174
 4706SOL    MW418592   3.862   0.405   2.443  0.2314 -0.8241  0.3162
 4707SOL     OW18593   2.291   2.351   1.707  0.7170  0.6738  0.2389
 4707SOL    HW218594   2.225   2.347   1.776 -0.5720  0.1884 -0.9720
 4707SOL    HW318595   2.347   2.275   1.723 -0.2836 -0.1202  0.0851
 4707SOL    MW418596   2.290   2.341   1.718  0.1538 -0.1114  0.3564
 4708SOL     OW18597   1.189   3.503   2.297  0.0498 -0.0451  0.9422
 4708SOL    HW218598   1.282   3.492   2.317  0.4974 -0.5359 -1.1544
 4708SOL    HW318599   1.167   3.427   2.243 -1.4977  0.2557  1.0921
 4708SOL    MW418600   1.198   3.492   2.293 -0.2933  0.1210  0.0578
 4709SOL     OW18601   1.898   1.928   4.090  0.2260 -0.2957 -0.1133
 4709SOL    HW218602   1.836   1.917   4.019  1.6968 -1.6685 -1.2868
 4709SOL    HW318603   1.912   2.022   4.096  0.0758 -0.1414 -1.6849
 4709SOL    MW418604   1.892   1.939   4.081  0.6140 -0.0765  0.2880
 4710SOL     OW18605   2.400   3.926   0.525 -0.1531 -0.2237 -0.1999
 4710SOL    HW218606   2.419   4.014   0.559 -1.3047  0.2524 -0.7427
 4710SOL    HW318607   2.333   3.892   0.584 -1.1428  0.0553 -1.1256
 4710SOL    MW418608   2.394   3.933   0.537  0.2127 -0.3107  0.3091
 4711SOL     OW18609   1.422   2.491   4.478  0.2626 -0.3087 -0.0782
 4711SOL    HW218610   1.492   2.528   4.424  0.1499 -0.2976 -0.2178
 4711SOL    HW318611   1.357   2.460   4.415 -0.2065  0.3727  0.0633
 4711SOL    MW418612   1.423   2.492   4.463 -0.8648 -0.1670 -0.3298
 4712SOL     OW18613   1.682   5.972   4.906  0.1470 -0.0611 -0.4601
 4712SOL    HW218614   1.760   6.002   4.952  0.1113 -1.4627  0.5618
 4712SOL    HW318615   1.664   5.885   4.942 -1.6310  0.0419 -0.9875
 4712SOL    MW418616   1.690   5.965   4.917  0.3103  0.0280  0.2612
 4713SOL     OW18617   5.819   6.321   4.714  0.3118  0.2528 -0.0581
 4713SOL    HW218618   5.784   6.273   4.639 -0.4426 -0.0476  0.4700
 4713SOL    HW318619   5.758   6.394   4.726 -0.7382 -0.8209  1.4645
 4713SOL    MW418620   5.807   6.324   4.706  0.1428 -0.8846 -0.4638
 4714SOL     OW18621   3.595   5.370   2.292 -0.3908 -0.3614 -0.1680
 4714SOL    HW218622   3.528   5.311   2.257 -0.9665  0.4370 -0.4222
 4714SOL    HW318623   3.554   5.409   2.370  0.0825 -0.4739  0.1446
 4714SOL    MW418624   3.581   5.367   2.298 -0.3165  0.5743 -0.0221
 4715SOL     OW18625   5.850   3.080   0.984  0.2293 -0.2958 -0.7523
 4715SOL    HW218626   5.867   3.146   0.916 -1.5335 -1.2462 -2.2167
 4715SOL    HW318627   5.823   3.130   1.060  0.2923  0.7392 -1.3863
 4715SOL    MW418628   5.849   3.095   0.985  0.3837  0.1506 -0.5486
 4716SOL     OW18629   3.337   0.772   2.916  0.0390  0.1733 -0.3948
 4716SOL    HW218630   3.301   0.723   2.989 -1.7371  0.4792 -1.0077
 4716SOL    HW318631   3.366   0.706   2.853  0.0387 -0.0810 -0.1247
 4716SOL    MW418632   3.336   0.757   2.917  0.2226 -0.1471  0.0296
 4717SOL     OW18633   1.290   1.072   4.432  0.0478  0.5443  0.3265
 4717SOL    HW218634   1.224   1.084   4.364 -0.4541 -1.1857  0.4624
 4717SOL    HW318635   1.255   1.001   4.487  2.3270 -0.9332 -0.0088
 4717SOL    MW418636   1.277   1.064   4.431 -0.0802  0.1560 -0.4693
 4718SOL     OW18637   6.309   2.052   5.485 -0.2000  0.1987  0.2570
 4718SOL    HW218638   6.270   1.982   5.434 -0.8020  0.2092  0.6938
 4718SOL    HW318639   6.399   2.058   5.452  0.0905 -1.2620  0.7224
 4718SOL    MW418640   6.316   2.044   5.474 -0.5048  0.1991  0.0779
 4719SOL     OW18641   2.250   2.029   5.213  0.4675  0.1313 -0.2642
 4719SOL    HW218642   2.222   2.068   5.130  0.7330 -0.5276 -0.6731
 4719SOL    HW318643   2.186   1.960   5.230  0.1014  0.6234  0.3644
 4719SOL    MW418644   2.238   2.025   5.204 -0.9020  0.1147 -0.3050
 4720SOL     OW18645   0.218   4.979   0.192 -0.4198 -0.3534  0.0472
 4720SOL    HW218646   0.191   4.893   0.224 -0.1725  0.0279  1.2964
 4720SOL    HW318647   0.305   4.964   0.154 -0.4503 -0.6813  0.1049
 4720SOL    MW418648   0.226   4.965   0.191  0.1873  0.3848 -0.3860
 4721SOL     OW18649   1.839   2.776   3.121  0.7792 -0.1858  0.0741
 4721SOL    HW218650   1.878   2.767   3.034  2.9224  0.1729  0.9446
 4721SOL    HW318651   1.857   2.866   3.146 -1.8786  0.4529  0.0165
 4721SOL    MW418652   1.846   2.786   3.113  0.3350  0.4458  0.0526
 4722SOL     OW18653   6.306   4.015   0.726 -0.5750 -0.7756 -0.2784
 4722SOL    HW218654   6.353   4.098   0.732  0.6890 -1.4759 -0.1843
 4722SOL    HW318655   6.328   3.981   0.639 -2.4022 -0.2660 -0.9798
 4722SOL    MW418656   6.315   4.021   0.715 -0.7325 -0.3538 -0.1301
 4723SOL     OW18657   2.096   4.964   4.755  0.3128 -0.0287 -0.0096
 4723SOL    HW218658   2.056   4.887   4.715  2.0315 -0.0445 -1.8521
 4723SOL    HW318659   2.034   5.035   4.738  0.5455 -0.2369 -1.9407
 4723SOL    MW418660   2.082   4.963   4.748  0.7786 -0.1366 -0.2243
 4724SOL     OW18661   1.759   2.247   5.829 -0.2308 -0.1408 -0.0610
 4724SOL    HW218662   1.852   2.239   5.808  0.3792  1.4361  1.7173
 4724SOL    HW318663   1.743   2.179   5.894  0.0194  0.4053  0.5808
 4724SOL    MW418664   1.769   2.237   5.835 -0.4546 -0.2910 -0.0860
 4725SOL     OW18665   5.599   6.201   3.220 -0.2098 -0.5835 -0.4632
 4725SOL    HW218666   5.664   6.188   3.288 -1.2272 -0.0421  0.6594
 4725SOL    HW318667   5.597   6.119   3.171  2.9843  0.1552 -2.0900
 4725SOL    MW418668   5.607   6.188   3.222  0.1843  0.2407  0.4113
 4726SOL     OW18669   0.023   3.422   2.377  0.1383  0.0115 -0.0035
 4726SOL    HW218670  -0.004   3.379   2.458  2.4985 -2.7015 -0.5070
 4726SOL    HW318671   0.117   3.438   2.389  0.2417  0.8013 -1.6935
 4726SOL    MW418672   0.032   3.418   2.390  0.2813 -0.3346  0.2002
 4727SOL     OW18673   3.046   1.275   0.302 -0.3437  0.7962  0.0962
 4727SOL    HW218674   3.093   1.205   0.348  0.3165  1.0548 -0.1635
 4727SOL    HW318675   3.007   1.232   0.226 -1.7305  0.2966  1.0500
 4727SOL    MW418676   3.047   1.260   0.298  0.6088  0.4096  0.6855
 4728SOL     OW18677   5.018   4.160   0.824  0.0879 -0.2227 -0.2408
 4728SOL    HW218678   5.035   4.253   0.808 -0.6875 -0.4284 -2.7085
 4728SOL    HW318679   4.934   4.159   0.869  0.5113  0.2907  0.5827
 4728SOL    MW418680   5.009   4.172   0.828  0.5043 -0.2812 -0.1286
 4729SOL     OW18681   1.019   3.986   1.179 -0.5977  0.1849 -0.2643
 4729SOL    HW218682   0.984   3.897   1.188 -0.2929 -0.0420 -1.1986
 4729SOL    HW318683   1.064   3.985   1.094  0.5646  0.8466  0.3239
 4729SOL    MW418684   1.020   3.974   1.169 -0.0174  0.2449  0.4694
 4730SOL     OW18685   2.998   5.214   4.765 -0.3227 -0.1604  0.2112
 4730SOL    HW218686   3.030   5.222   4.675  0.3473 -1.1544  0.3461
 4730SOL    HW318687   2.935   5.141   4.762 -0.7463  0.1876  0.4386
 4730SOL    MW418688   2.994   5.205   4.753  0.4976  0.0321 -0.1812
 4731SOL     OW18689   0.636   2.287   5.556 -0.1848  0.2706 -0.7187
 4731SOL    HW218690   0.699   2.234   5.605  0.3351  0.6429 -0.9746
 4731SOL    HW318691   0.636   2.371   5.602  1.8220  1.3336 -2.4859
 4731SOL    MW418692   0.644   2.291   5.569  0.3724  0.6573 -0.5718
 4732SOL     OW18693   1.512   5.295   5.775  0.2867  0.4943  0.0646
 4732SOL    HW218694   1.585   5.261   5.723  0.6257  0.3800  0.6012
 4732SOL    HW318695   1.436   5.244   5.746  0.3238  0.9342 -0.8254
 4732SOL    MW418696   1.511   5.284   5.764  0.1350  0.2967  0.4089
 4733SOL     OW18697   0.468   3.612   1.533  0.2764 -0.3136 -0.4051
 4733SOL    HW218698   0.422   3.664   1.599  3.5191  1.2097  0.9106
 4733SOL    HW318699   0.484   3.674   1.461  2.1388 -0.0571  0.1651
 4733SOL    MW418700   0.464   3.627   1.532  0.0192 -0.0553 -0.0211
 4734SOL     OW18701   0.308   3.006   3.375  0.3011 -0.0815 -0.0975
 4734SOL    HW218702   0.397   2.970   3.381  0.3187 -0.3656 -1.7167
 4734SOL    HW318703   0.290   3.010   3.281  0.2371  3.9212 -0.0929
 4734SOL    MW418704   0.318   3.002   3.363  0.2206 -0.1282  0.0458
 4735SOL     OW18705   5.312   3.146   0.630  0.7594 -0.2940 -0.2730
 4735SOL    HW218706   5.301   3.113   0.540 -0.2601 -0.6243 -0.0391
 4735SOL    HW318707   5.283   3.074   0.685 -1.1954  0.8443  0.2650
 4735SOL    MW418708   5.307   3.132   0.625  0.3033 -0.3531 -0.3292
 4736SOL     OW18709   4.073   4.121   3.480  0.0665 -0.2702 -0.0267
 4736SOL    HW218710   4.085   4.108   3.573 -0.9053 -0.9199  0.0242
 4736SOL    HW318711   3.978   4.135   3.470  0.4607  2.6041 -0.5881
 4736SOL    MW418712   4.062   4.121   3.491  0.0851  0.3820  0.0583
 4737SOL     OW18713   1.807   1.544   5.813  0.0994  0.3195  0.1654
 4737SOL    HW218714   1.876   1.498   5.764  1.4593 -0.1289  2.3241
 4737SOL    HW318715   1.761   1.475   5.860 -1.6389  0.6646 -0.9423
 4737SOL    MW418716   1.810   1.529   5.813  0.3310 -0.0929  0.4695
 4738SOL     OW18717   1.847   0.785   6.223 -0.5970 -0.2922 -0.1306
 4738SOL    HW218718   1.862   0.695   6.253  0.1563  0.6412  2.5312
 4738SOL    HW318719   1.914   0.800   6.157 -0.5489 -1.5726 -0.3977
 4738SOL    MW418720   1.858   0.775   6.218 -0.2826  0.2419  0.0030
 4739SOL     OW18721   0.396   0.451   0.738 -0.5548 -0.0516 -0.4279
 4739SOL    HW218722   0.370   0.543   0.742  0.9592  0.4006 -0.2267
 4739SOL    HW318723   0.451   0.444   0.660 -0.4882 -0.7275 -0.3308
 4739SOL    MW418724   0.400   0.462   0.728 -0.1906 -0.1433  0.9710
 4740SOL     OW18725   6.282   5.653   5.334 -0.0228 -0.1785 -0.2996
 4740SOL    HW218726   6.281   5.676   5.426 -2.2433 -1.3945  0.0544
 4740SOL    HW318727   6.263   5.735   5.288 -0.4063  0.1432  0.4225
 4740SOL    MW418728   6.279   5.667   5.340  0.2975 -0.3357 -0.2732
 4741SOL     OW18729   2.542   3.566   1.259 -0.1668  0.0057 -0.4272
 4741SOL    HW218730   2.489   3.589   1.334 -0.7670  1.2481 -1.1931
 4741SOL    HW318731   2.497   3.491   1.219 -0.6217  0.2219 -0.3260
 4741SOL    MW418732   2.529   3.559   1.263 -0.8582  0.0821  0.3656
 4742SOL     OW18733   6.456   0.620   2.394  0.5981  0.2677 -0.1528
 4742SOL    HW218734   6.547   0.603   2.370  0.0308 -1.6928 -1.1031
 4742SOL    HW318735   6.458   0.706   2.435  2.7525  0.6201 -0.8651
 4742SOL    MW418736   6.468   0.629   2.396  0.0034  0.8427 -0.0830
 4743SOL     OW18737   0.418   3.646   5.644 -0.1024 -0.4753  0.4927
 4743SOL    HW218738   0.472   3.606   5.576 -0.8978  1.2313 -1.2494
 4743SOL    HW318739   0.458   3.618   5.726  0.7561 -2.8270 -0.6309
 4743SOL    MW418740   0.431   3.637   5.646  0.2654 -0.2323  0.2016
 4744SOL     OW18741   2.566   4.296   0.360  0.0331  0.1482  0.2070
 4744SOL    HW218742   2.555   4.268   0.451 -0.4069 -0.8075 -0.1391
 4744SOL    HW318743   2.496   4.360   0.346 -0.8744 -0.8475  0.0849
 4744SOL    MW418744   2.556   4.301   0.370 -0.2476 -0.7328  0.3592
 4745SOL     OW18745   0.919   5.509   3.688 -0.4881  0.0034 -0.0788
 4745SOL    HW218746   0.957   5.427   3.719 -1.6793 -0.2343  0.8342
 4745SOL    HW318747   0.840   5.482   3.639 -1.2634  0.6140  0.7995
 4745SOL    MW418748   0.913   5.495   3.685  0.0692  0.2121  0.0396
 4746SOL     OW18749   1.258   5.680   1.347  0.2360 -0.3131 -0.3946
 4746SOL    HW218750   1.189   5.743   1.368 -0.3832 -0.8223 -0.8851
 4746SOL    HW318751   1.212   5.601   1.320  0.9914 -1.1900  0.7632
 4746SOL    MW418752   1.243   5.678   1.346  0.1802  0.0621  0.2144
 4747SOL     OW18753   0.985   3.584   0.874  0.1721  0.2183  0.1173
 4747SOL    HW218754   1.032   3.501   0.885  0.1053 -0.0301 -1.2057
 4747SOL    HW318755   0.895   3.558   0.858  0.3577  0.4512 -1.4882
 4747SOL    MW418756   0.980   3.569   0.873  0.0367 -0.0689  0.0396
 4748SOL     OW18757   2.327   3.674   3.609 -0.2402  0.1657 -0.5339
 4748SOL    HW218758   2.263   3.679   3.538 -0.2773  2.0749 -0.4209
 4748SOL    HW318759   2.275   3.691   3.688  0.5287  3.5449 -0.5779
 4748SOL    MW418760   2.312   3.677   3.610  0.3546 -0.1723 -0.0586
 4749SOL     OW18761   4.047   0.018   0.689  0.2068 -0.3662  0.4544
 4749SOL    HW218762   4.015   0.104   0.717  1.4584 -0.3085  1.8563
 4749SOL    HW318763   3.984  -0.011   0.623 -0.7638  1.2108  0.6358
 4749SOL    MW418764   4.034   0.026   0.684 -0.4491 -0.6159  0.1714
 4750SOL     OW18765   1.255   2.249   0.536 -0.2078  0.1762  0.3021
 4750SOL    HW218766   1.258   2.262   0.441 -0.5970 -0.5272  0.1874
 4750SOL    HW318767   1.294   2.163   0.550 -1.2013 -0.2335  0.6664
 4750SOL    MW418768   1.261   2.239   0.525  0.4709 -0.0915 -0.4311
 4751SOL     OW18769   0.326   4.001   4.542 -0.2838  0.6479 -0.3563
 4751SOL    HW218770   0.412   4.029   4.572 -1.4406  3.2954  0.7752
 4751SOL    HW318771   0.344   3.929   4.481  2.5296 -0.7717  1.9232
 4751SOL    MW418772   0.340   3.995   4.538 -0.4962 -0.2430  0.0141
 4752SOL     OW18773   0.716   0.284   0.763  0.0046  0.1044 -0.0514
 4752SOL    HW218774   0.686   0.366   0.803 -1.5544 -0.9002  0.9449
 4752SOL    HW318775   0.711   0.220   0.834 -0.0862 -1.1353 -1.1534
 4752SOL    MW418776   0.711   0.286   0.778 -0.2131 -0.4186 -0.1748
 4753SOL     OW18777   2.688   1.399   2.616  0.2930  0.1704  0.8801
 4753SOL    HW218778   2.593   1.405   2.611  0.3059 -0.4763 -0.9513
 4753SOL    HW318779   2.712   1.454   2.691 -1.7091 -1.9311  3.2284
 4753SOL    MW418780   2.678   1.407   2.625 -0.1417 -0.1001 -0.3640
 4754SOL     OW18781   2.903   6.223   2.591 -0.0362  0.0050 -0.1239
 4754SOL    HW218782   2.916   6.283   2.517  0.9125 -0.1759 -0.1143
 4754SOL    HW318783   2.989   6.184   2.606  0.5929  2.2880  3.0455
 4754SOL    MW418784   2.916   6.226   2.583  0.3153 -0.7688 -0.1768
 4755SOL     OW18785   4.403   4.055   0.863 -0.1685 -0.2893 -0.2620
 4755SOL    HW218786   4.380   4.009   0.943 -1.6368 -1.1506 -1.1350
 4755SOL    HW318787   4.493   4.028   0.844 -0.1854 -0.9194  0.5121
 4755SOL    MW418788   4.412   4.046   0.871 -0.3816  0.4665 -0.6061
 4756SOL     OW18789   5.560   4.941   6.171 -0.3315 -0.4710  0.2713
 4756SOL    HW218790   5.582   4.850   6.152 -0.3880 -0.3452 -0.4148
 4756SOL    HW318791   5.464   4.944   6.167 -0.3059 -0.2615 -0.3007
 4756SOL    MW418792   5.550   4.930   6.168  0.1322  0.3219  0.1813
 4757SOL     OW18793   1.260   2.890   4.574  0.5826 -0.7383  0.3604
 4757SOL    HW218794   1.201   2.961   4.598  1.3649 -0.4652  1.5719
 4757SOL    HW318795   1.343   2.934   4.553  0.9493 -1.2604  0.6909
 4757SOL    MW418796   1.263   2.905   4.574 -0.0951  0.1626 -0.1291
 4758SOL     OW18797   0.754   3.360   5.260  0.6091  0.0710 -0.1392
 4758SOL    HW218798   0.711   3.359   5.346  0.5203 -1.4118 -0.1822
 4758SOL    HW318799   0.682   3.351   5.197  0.7792 -0.0613 -0.3153
 4758SOL    MW418800   0.739   3.359   5.263 -0.3905  0.2089  0.2576
 4759SOL     OW18801   2.704   3.837   0.927 -0.3773  0.4603 -0.2600
 4759SOL    HW218802   2.658   3.827   1.010  0.4694  2.6499  0.5374
 4759SOL    HW318803   2.661   3.775   0.868 -0.1316 -2.1773  2.1179
 4759SOL    MW418804   2.692   3.827   0.930  0.1333  0.3271 -0.1909
 4760SOL     OW18805   4.048   2.548   4.809  0.1817  0.1850  0.0056
 4760SOL    HW218806   4.000   2.630   4.822  0.8812  0.3290  2.0798
 4760SOL    HW318807   3.984   2.489   4.771 -0.7890  1.2405 -0.0757
 4760SOL    MW418808   4.033   2.551   4.806  0.8326  0.2556 -0.2767
 4761SOL     OW18809   2.040   5.376   4.130  0.6364  0.6114  0.2458
 4761SOL    HW218810   2.074   5.296   4.169  1.8912  0.1831 -1.6197
 4761SOL    HW318811   1.951   5.353   4.102 -0.2030  0.8552  2.4582
 4761SOL    MW418812   2.033   5.363   4.132  0.4492  0.2226  0.5756
 4762SOL     OW18813   5.377   2.403   4.687 -0.7325  0.0776 -0.4123
 4762SOL    HW218814   5.342   2.320   4.654 -0.6530 -0.7804  1.5365
 4762SOL    HW318815   5.399   2.385   4.778  2.7249  1.2233 -0.8948
 4762SOL    MW418816   5.375   2.389   4.695  0.1115 -0.3346  0.2506
 4763SOL     OW18817   4.575   6.114   2.350  1.1182 -0.4265  0.2325
 4763SOL    HW218818   4.662   6.120   2.311  1.5586 -1.1505  1.0494
 4763SOL    HW318819   4.528   6.051   2.295  0.5191  1.2238 -1.2104
 4763SOL    MW418820   4.580   6.106   2.338 -0.0342  0.2556 -0.1235
 4764SOL     OW18821   4.615   1.143   5.654  0.4389 -0.2372 -0.3318
 4764SOL    HW218822   4.528   1.181   5.640  0.2657 -0.4618  0.1193
 4764SOL    HW318823   4.650   1.189   5.730  0.4280 -0.6358 -0.0844
 4764SOL    MW418824   4.608   1.154   5.662 -0.3656  0.3709  0.1148
 4765SOL     OW18825   0.483   6.308   5.617  0.4363  0.2852  0.1204
 4765SOL    HW218826   0.540   6.231   5.620  0.0340 -0.0053  0.2731
 4765SOL    HW318827   0.409   6.286   5.673  1.6507  1.8808  2.5168
 4765SOL    MW418828   0.481   6.295   5.625 -0.1166 -0.3087  0.0044
 4766SOL     OW18829   5.722   4.016   4.341  0.6347  0.3788 -0.0497
 4766SOL    HW218830   5.711   3.968   4.424 -0.3715 -0.5659 -0.6976
 4766SOL    HW318831   5.815   4.035   4.337  0.8906 -0.5745  0.7634
 4766SOL    MW418832   5.732   4.012   4.352  0.4737 -0.6176  0.3568
 4767SOL     OW18833   3.074   1.146   5.664 -0.1975 -0.4653  0.5000
 4767SOL    HW218834   3.112   1.095   5.736  0.6348 -1.5685 -0.6805
 4767SOL    HW318835   3.060   1.082   5.595 -1.9257  0.3917  0.0044
 4767SOL    MW418836   3.077   1.131   5.665 -0.3330 -0.1537  0.3572
 4768SOL     OW18837   6.037   0.383   3.497 -0.2883  0.1875 -0.2350
 4768SOL    HW218838   6.103   0.396   3.564 -1.8141 -0.8994  1.5838
 4768SOL    HW318839   6.049   0.293   3.467 -0.1406  0.4017 -0.8461
 4768SOL    MW418840   6.047   0.373   3.502  0.8160  0.3760  0.1490
 4769SOL     OW18841   0.243   6.243   3.764  0.6858  0.3356 -0.0281
 4769SOL    HW218842   0.339   6.236   3.761  0.5828 -1.3410 -0.4544
 4769SOL    HW318843   0.220   6.202   3.847  0.1772 -2.2261 -1.3461
 4769SOL    MW418844   0.253   6.237   3.775 -0.1808 -0.5607  0.1262
 4770SOL     OW18845   3.306   2.178   1.570 -0.9208 -0.8188  0.6260
 4770SOL    HW218846   3.265   2.122   1.636  2.7298 -1.2476  2.7671
 4770SOL    HW318847   3.353   2.118   1.512 -0.4089 -0.1931  0.3787
 4770SOL    MW418848   3.306   2.163   1.571 -0.1421 -0.2368 -0.5354
 4771SOL     OW18849   2.008   6.189   1.599  0.2159  0.0126 -0.3458
 4771SOL    HW218850   2.100   6.204   1.577  0.7224 -0.0173  1.5744
 4771SOL    HW318851   1.988   6.103   1.563  0.5223  0.5757 -1.9357
 4771SOL    MW418852   2.017   6.180   1.592 -0.2560  0.0915 -0.6016
 4772SOL     OW18853   6.040   0.013   3.135 -0.4963  0.0198 -0.0291
 4772SOL    HW218854   6.129   0.008   3.170 -0.5253 -1.9096 -0.1206
 4772SOL    HW318855   6.043  -0.038   3.054 -1.8202 -0.6187  0.2962
 4772SOL    MW418856   6.052   0.005   3.129  0.4934  0.0039 -0.7698
 4773SOL     OW18857   2.243   3.549   5.102 -0.2378  0.0643 -1.1651
 4773SOL    HW218858   2.186   3.485   5.059 -1.5813  0.4652 -0.0383
 4773SOL    HW318859   2.331   3.515   5.088 -0.7892 -0.9872 -2.2880
 4773SOL    MW418860   2.247   3.536   5.094 -0.1919 -0.3827  0.3195
 4774SOL     OW18861   2.929   6.046   5.055  0.0935 -0.3816 -0.2010
 4774SOL    HW218862   3.019   6.014   5.055 -0.2296 -1.4005  0.9314
 4774SOL    HW318863   2.936   6.141   5.045  1.3500 -0.3424  0.8018
 4774SOL    MW418864   2.942   6.054   5.054  0.6039  0.0029  0.2800
 4775SOL     OW18865   1.565   0.202   1.954 -0.2892 -0.1799 -0.4082
 4775SOL    HW218866   1.509   0.277   1.936  0.0987  0.6367  1.4966
 4775SOL    HW318867   1.609   0.224   2.036 -0.3003 -2.5826  0.3351
 4775SOL    MW418868   1.564   0.215   1.963  0.0166  0.3474 -0.2437
 4776SOL     OW18869   4.931   3.498   3.585 -0.9437 -0.9276  0.4039
 4776SOL    HW218870   4.971   3.413   3.604  1.2163 -0.4879 -1.5969
 4776SOL    HW318871   4.971   3.558   3.647 -0.3307 -0.9368  0.0347
 4776SOL    MW418872   4.942   3.495   3.596  0.4327 -0.1311  0.1106
 4777SOL     OW18873   3.550   4.282   3.881  0.0534  0.1840  0.3021
 4777SOL    HW218874   3.616   4.351   3.883  0.3320 -0.0829  0.3907
 4777SOL    HW318875   3.496   4.303   3.804  1.9806 -1.1639 -1.5575
 4777SOL    MW418876   3.551   4.294   3.871 -0.5239 -0.0233 -0.4903
 4778SOL     OW18877   5.930   4.655   4.015 -0.1348 -0.2458 -0.3507
 4778SOL    HW218878   5.894   4.743   4.028 -1.6412 -0.7215 -1.0861
 4778SOL    HW318879   5.866   4.596   4.055  1.3524 -0.9928  1.0453
 4778SOL    MW418880   5.917   4.659   4.022  0.2770  0.7835  0.3587
 4779SOL     OW18881   1.138   5.860   3.240  0.1930 -0.4957  0.0253
 4779SOL    HW218882   1.081   5.919   3.191  0.1130  0.9180  1.7086
 4779SOL    HW318883   1.085   5.782   3.256  0.0507 -0.7715 -1.6038
 4779SOL    MW418884   1.124   5.857   3.236 -0.4330 -0.0243  0.4536
 4780SOL     OW18885   1.911   6.104   4.049 -0.1906 -0.2969 -0.9933
 4780SOL    HW218886   1.926   6.009   4.051  0.3382 -0.2182  0.8707
 4780SOL    HW318887   1.828   6.114   4.003 -1.6658 -1.9300  1.0837
 4780SOL    MW418888   1.902   6.093   4.043  0.3808  0.0634 -0.2985
 4781SOL     OW18889   5.485   0.617   3.900 -0.1954 -0.4939  0.1174
 4781SOL    HW218890   5.523   0.539   3.860 -1.3814 -1.1730  0.2764
 4781SOL    HW318891   5.414   0.584   3.955  0.7944  0.4866  2.1026
 4781SOL    MW418892   5.481   0.602   3.902 -0.1808  0.7131  0.5281
 4782SOL     OW18893   4.976   4.835   1.985 -0.5185 -0.2390 -0.5090
 4782SOL    HW218894   4.977   4.796   1.897  2.0839 -0.4737 -0.4464
 4782SOL    HW318895   5.058   4.883   1.991 -1.4014  1.1824  1.2365
 4782SOL    MW418896   4.987   4.836   1.974  0.1788  0.1045 -0.0933
 4783SOL     OW18897   2.654   1.436   1.842 -0.3929 -0.5828  0.1262
 4783SOL    HW218898   2.579   1.377   1.836 -0.6227 -0.5673  2.2593
 4783SOL    HW318899   2.621   1.512   1.891  0.0304  1.1676 -2.1342
 4783SOL    MW418900   2.640   1.438   1.847 -0.3835  0.2179 -0.0872
 4784SOL     OW18901   1.869   4.840   1.512 -0.4276 -0.0226 -0.2998
 4784SOL    HW218902   1.921   4.794   1.446 -0.7066  0.2317 -0.7003
 4784SOL    HW318903   1.904   4.809   1.596  0.3978  0.1804 -0.5624
 4784SOL    MW418904   1.881   4.830   1.514  0.3665  0.6192 -0.0652
 4785SOL     OW18905   3.466   3.866   3.007 -0.1787  0.1624  0.0446
 4785SOL    HW218906   3.545   3.812   3.014 -0.7281 -0.7948 -0.7869
 4785SOL    HW318907   3.443   3.887   3.097  0.8719  0.2293  0.3088
 4785SOL    MW418908   3.473   3.862   3.020 -0.5601 -0.5689 -0.1968
 4786SOL     OW18909   5.086   0.171   5.787  0.1667 -0.3613  0.1315
 4786SOL    HW218910   5.062   0.173   5.880 -0.2845  0.4298  0.0024
 4786SOL    HW318911   5.173   0.211   5.784 -0.9752  2.3277 -0.0995
 4786SOL    MW418912   5.095   0.176   5.799  0.2489  0.1631 -0.4252
 4787SOL     OW18913   3.758   0.982   5.262 -0.3026 -0.4999  0.6573
 4787SOL    HW218914   3.717   0.896   5.257 -1.7596  0.1912  0.3531
 4787SOL    HW318915   3.732   1.016   5.348 -0.5745  0.0578  0.3523
 4787SOL    MW418916   3.749   0.975   5.273 -0.3963  0.5515 -0.3681
 4788SOL     OW18917   3.795   3.429   2.317 -0.6023 -0.7152 -0.5817
 4788SOL    HW218918   3.813   3.471   2.233  0.1560  0.4082  0.1193
 4788SOL    HW318919   3.766   3.500   2.374  0.2352 -1.2190  0.5075
 4788SOL    MW418920   3.793   3.444   2.313 -0.3015  0.3118 -0.1012
 4789SOL     OW18921   5.079   2.775   3.188  0.1793  0.4795  0.0730
 4789SOL    HW218922   5.155   2.808   3.235 -0.2898 -0.7352  1.7841
 4789SOL    HW318923   5.085   2.680   3.197 -0.8524  0.3065 -0.8686
 4789SOL    MW418924   5.089   2.767   3.195  0.0429  0.0571 -0.1208
 4790SOL     OW18925   5.606   3.219   3.846  0.2567 -0.0716 -0.0665
 4790SOL    HW218926   5.553   3.241   3.923  0.3801  0.5776 -0.1627
 4790SOL    HW318927   5.691   3.257   3.864 -0.2749  1.8616 -1.3941
 4790SOL    MW418928   5.610   3.227   3.859 -0.4047 -0.0348 -0.2476
 4791SOL     OW18929   0.962   5.518   1.473 -0.4538  0.3385 -0.0276
 4791SOL    HW218930   0.971   5.545   1.564  1.3799 -1.0908  0.2690
 4791SOL    HW318931   1.052   5.502   1.444 -0.9112  1.5913 -2.3808
 4791SOL    MW418932   0.975   5.519   1.481  0.1917  0.3467  0.0760
 4792SOL     OW18933   4.453   4.649   3.197  0.1432  0.1005  0.0504
 4792SOL    HW218934   4.503   4.679   3.273  0.5250  1.1761 -0.6036
 4792SOL    HW318935   4.416   4.728   3.159 -0.7236 -0.5079 -0.4284
 4792SOL    MW418936   4.455   4.663   3.202  0.0261  0.2607 -0.3153
 4793SOL     OW18937   5.472   0.722   2.098 -0.6964  0.4137 -0.5074
 4793SOL    HW218938   5.491   0.649   2.039  0.2502 -1.3697  1.8197
 4793SOL    HW318939   5.376   0.727   2.101 -0.7591  0.1515 -1.6752
 4793SOL    MW418940   5.462   0.713   2.091 -0.2051 -0.1129  0.0962
 4794SOL     OW18941   5.798   5.712   5.725 -0.3450  0.7970  0.0379
 4794SOL    HW218942   5.818   5.629   5.681 -0.4381  2.0275 -2.4974
 4794SOL    HW318943   5.841   5.704   5.811 -1.7630 -2.5000  0.6281
 4794SOL    MW418944   5.807   5.700   5.731  0.2636  0.1425  0.4854
 4795SOL     OW18945   2.683   0.036   3.512  0.3189 -0.1294 -0.1257
 4795SOL    HW218946   2.761   0.092   3.515  1.6439 -1.8849  0.0714
 4795SOL    HW318947   2.622   0.084   3.456  0.7193  2.2533  1.3340
 4795SOL    MW418948   2.685   0.050   3.505  0.0814  0.6832 -0.0804
 4796SOL     OW18949   4.042   0.717   1.967 -0.3404 -0.0375 -0.0426
 4796SOL    HW218950   3.961   0.666   1.962 -2.1768  2.6714 -0.0403
 4796SOL    HW318951   4.081   0.709   1.880 -1.5018 -0.0740 -0.5766
 4796SOL    MW418952   4.036   0.709   1.955 -0.6898  0.4582  0.5289
 4797SOL     OW18953   2.550   1.853   5.752  0.0112  0.3493  0.2603
 4797SOL    HW218954   2.465   1.847   5.796 -0.5674  0.2316 -0.8298
 4797SOL    HW318955   2.549   1.938   5.709  0.1187  0.0377 -0.3751
 4797SOL    MW418956   2.538   1.863   5.752  0.3206  0.2684 -0.0704
 4798SOL     OW18957   4.143   2.030   3.939  0.1309 -0.8312 -0.6669
 4798SOL    HW218958   4.130   1.963   3.872  0.5709 -2.0030  0.3739
 4798SOL    HW318959   4.226   2.007   3.981  0.2138  0.2795 -0.1721
 4798SOL    MW418960   4.152   2.018   3.936 -0.8912  0.0246 -0.3386
 4799SOL     OW18961   6.152   2.261   1.801  0.3926  0.1854 -0.0688
 4799SOL    HW218962   6.119   2.201   1.868  0.0902  1.9152  1.4294
 4799SOL    HW318963   6.222   2.213   1.758 -0.8632 -1.7896 -0.0071
 4799SOL    MW418964   6.157   2.247   1.804  0.0372  0.2570 -0.2972
 4800SOL     OW18965   6.056   1.052   1.395 -0.0289 -0.1180  0.3306
 4800SOL    HW218966   6.007   0.974   1.419 -0.6192  0.3230  0.5761
 4800SOL    HW318967   6.000   1.097   1.331 -0.5588  1.0474  1.5717
 4800SOL    MW418968   6.042   1.048   1.389 -0.4307 -0.2405 -0.3734
 4801SOL     OW18969   0.469   5.848   2.384 -0.3479 -0.3277 -0.7653
 4801SOL    HW218970   0.536   5.800   2.335 -1.8551 -0.7262 -2.5536
 4801SOL    HW318971   0.457   5.796   2.464  2.4395  0.5458  0.3574
 4801SOL    MW418972   0.477   5.835   2.388  0.1824  0.4871  0.0151
 4802SOL     OW18973   5.754   0.879   0.833  0.2006  0.4198  0.0544
 4802SOL    HW218974   5.831   0.889   0.775  0.1399 -2.6909 -0.7405
 4802SOL    HW318975   5.792   0.859   0.919  0.2571  3.9518  1.0317
 4802SOL    MW418976   5.769   0.878   0.837  0.2269  0.6136  0.6137
 4803SOL     OW18977   5.059   5.557   5.696 -0.9147 -0.1639  0.3441
 4803SOL    HW218978   5.026   5.498   5.764  2.3267 -0.6208  1.7172
 4803SOL    HW318979   5.139   5.514   5.665 -1.7442  0.5292 -3.1503
 4803SOL    MW418980   5.066   5.544   5.701 -0.2679  0.8110 -0.4833
 4804SOL     OW18981   5.384   3.904   5.258 -0.1288  0.4437  0.1447
 4804SOL    HW218982   5.354   3.856   5.180 -0.8050 -0.0650  0.7107
 4804SOL    HW318983   5.480   3.907   5.247 -0.1030 -0.6558 -0.1392
 4804SOL    MW418984   5.393   3.898   5.246  0.0381 -0.5081  0.2524
 4805SOL     OW18985   2.344   2.741   2.802  0.6583 -0.5647 -0.1180
 4805SOL    HW218986   2.298   2.821   2.779  1.1193 -0.4069 -0.4994
 4805SOL    HW318987   2.330   2.732   2.896 -0.8374 -0.9589 -0.3473
 4805SOL    MW418988   2.336   2.750   2.811 -0.7222  0.3327 -0.0334
 4806SOL     OW18989   0.613   0.712   5.138 -0.1787 -0.1435  0.4400
 4806SOL    HW218990   0.535   0.658   5.151 -1.5152  1.6235 -0.0001
 4806SOL    HW318991   0.685   0.648   5.137 -1.3256 -1.6642  2.9438
 4806SOL    MW418992   0.612   0.696   5.140  0.0125 -0.6671  0.0725
 4807SOL     OW18993   1.235   6.321   1.067  0.8328 -1.4590  0.6143
 4807SOL    HW218994   1.284   6.371   1.003  0.4842 -0.6739  0.9548
 4807SOL    HW318995   1.290   6.243   1.083  2.8091  0.1376  2.1846
 4807SOL    MW418996   1.249   6.317   1.061  0.4148  0.2034  0.2029
 4808SOL     OW18997   1.609   5.721   6.369 -0.2081  0.4670  0.1410
 4808SOL    HW218998   1.595   5.632   6.402  0.8227 -0.3047 -1.3839
 4808SOL    HW318999   1.694   5.746   6.404 -0.2273  0.6173  0.0805
 4808SOL    MW419000   1.618   5.712   6.378  0.3361  0.4286 -0.3477
 4809SOL     OW19001   5.516   2.039   1.851  0.1105 -0.5149  0.2811
 4809SOL    HW219002   5.610   2.057   1.843  0.1610 -1.1332 -0.6086
 4809SOL    HW319003   5.473   2.118   1.818  0.3316 -1.8689 -3.7163
 4809SOL    MW419004   5.523   2.052   1.846  0.3348  0.1873  0.1157
 4810SOL     OW19005   1.034   3.188   1.156 -0.3138 -0.0693  0.0626
 4810SOL    HW219006   0.941   3.188   1.132  0.0440 -0.2743 -1.4501
 4810SOL    HW319007   1.059   3.096   1.154  0.4239  0.1214 -1.8049
 4810SOL    MW419008   1.025   3.176   1.152  0.2393  0.3090  0.1620
 4811SOL     OW19009   2.718   5.697   0.359 -0.4749  0.4457 -0.7236
 4811SOL    HW219010   2.674   5.771   0.318 -0.1395  0.6539 -0.7088
 4811SOL    HW319011   2.712   5.714   0.453 -1.4267 -0.1354 -0.6596
 4811SOL    MW419012   2.711   5.709   0.366 -0.3563  0.6909  0.1163
 4812SOL     OW19013   6.345   2.773   5.493 -0.2438 -0.1343 -0.2269
 4812SOL    HW219014   6.350   2.808   5.404  1.6675  1.2367  0.3610
 4812SOL    HW319015   6.258   2.799   5.524 -0.4715  0.4195 -1.2715
 4812SOL    MW419016   6.334   2.781   5.485  0.3635  0.4662  0.4057
 4813SOL     OW19017   3.793   5.654   0.685  0.0329 -0.0260  0.3480
 4813SOL    HW219018   3.745   5.731   0.715  0.7233 -0.0080  1.4671
 4813SOL    HW319019   3.727   5.600   0.642 -0.7427  0.5484  0.7889
 4813SOL    MW419020   3.778   5.657   0.683  0.5294  0.3135  0.7028
 4814SOL     OW19021   1.451   1.444   5.215  0.4043  0.3964  0.0006
 4814SOL    HW219022   1.468   1.362   5.168 -1.2331  0.1973 -0.3042
 4814SOL    HW319023   1.508   1.508   5.172  0.2849 -0.1707 -1.0440
 4814SOL    MW419024   1.461   1.441   5.203  0.0198 -0.1656 -0.4349
 4815SOL     OW19025   6.257   2.489   2.569 -0.3468 -0.4368  0.5097
 4815SOL    HW219026   6.173   2.535   2.567  0.3665  0.9136  0.5187
 4815SOL    HW319027   6.243   2.417   2.631 -1.0299  0.7354  1.7719
 4815SOL    MW419028   6.244   2.485   2.577  0.2487 -0.4006  0.5713
 4816SOL     OW19029   0.894   4.921   3.626  0.2495 -0.1826  0.6859
 4816SOL    HW219030   0.977   4.876   3.639  0.0719 -0.7910 -0.2647
 4816SOL    HW319031   0.827   4.853   3.632 -0.0415 -0.0220 -0.4511
 4816SOL    MW419032   0.896   4.906   3.629  0.0102 -0.4513  0.4044
 4817SOL     OW19033   2.889   0.169   2.891 -0.0562  0.3159  0.2933
 4817SOL    HW219034   2.969   0.219   2.906 -0.8028  1.8085 -0.4015
 4817SOL    HW319035   2.855   0.203   2.808  0.6657 -3.1414 -1.6380
 4817SOL    MW419036   2.895   0.180   2.882  0.0249 -0.0922 -0.3440
 4818SOL     OW19037   0.524   3.349   0.246 -0.1760  0.0025 -0.4284
 4818SOL    HW219038   0.448   3.315   0.197 -0.4798 -1.4320  0.9703
 4818SOL    HW319039   0.599   3.301   0.210  0.0074  0.9362 -1.3441
 4818SOL    MW419040   0.524   3.338   0.235 -0.2711  0.2114  0.7453
 4819SOL     OW19041   6.200   6.241   5.813  0.0882  0.2598  0.0125
 4819SOL    HW219042   6.178   6.258   5.722 -0.5314 -1.3972 -0.1910
 4819SOL    HW319043   6.166   6.153   5.830 -0.5784  0.8472  2.0916
 4819SOL    MW419044   6.192   6.231   5.804  0.7095 -0.2733 -0.3721
 4820SOL     OW19045   5.141   0.275   4.065  0.1683 -0.2521 -0.2824
 4820SOL    HW219046   5.197   0.353   4.057  0.1417 -0.3740 -1.9272
 4820SOL    HW319047   5.052   0.309   4.062  0.0830 -0.0557  2.3685
 4820SOL    MW419048   5.137   0.290   4.063  0.1262 -0.2130 -0.4425
 4821SOL     OW19049   0.346   2.530   4.763 -0.0999 -0.1547  0.0795
 4821SOL    HW219050   0.440   2.519   4.747  0.0229  0.2380  0.5195
 4821SOL    HW319051   0.320   2.450   4.808  0.2122  0.1226  0.7578
 4821SOL    MW419052   0.355   2.518   4.767 -0.1952 -0.1554  0.1126
 4822SOL     OW19053   2.522   3.404   0.981  0.0344 -0.5216 -0.1079
 4822SOL    HW219054   2.616   3.423   0.970 -0.2775 -0.2563 -3.0686
 4822SOL    HW319055   2.481   3.491   0.984 -0.0434 -0.5643  3.2025
 4822SOL    MW419056   2.529   3.418   0.980  0.3143 -0.1672 -0.1614
 4823SOL     OW19057   5.760   0.811   0.194 -0.4213 -0.3028 -0.1807
 4823SOL    HW219058   5.711   0.891   0.172 -0.7387 -0.5944 -0.5398
 4823SOL    HW319059   5.745   0.799   0.288  1.8762  1.5915  0.5326
 4823SOL    MW419060   5.752   0.820   0.204 -0.1391 -0.7699  0.6294
 4824SOL     OW19061   3.650   4.098   5.524 -0.0041  0.9499 -0.0479
 4824SOL    HW219062   3.722   4.156   5.550 -0.2784  1.8653 -1.2285
 4824SOL    HW319063   3.676   4.066   5.438  0.4166 -1.2067  0.8283
 4824SOL    MW419064   3.663   4.102   5.516 -0.0316 -0.1728 -0.0844
 4825SOL     OW19065   4.078   0.802   5.294  0.3816 -0.2010  0.3784
 4825SOL    HW219066   4.019   0.849   5.234  1.1730  0.1307 -0.1541
 4825SOL    HW319067   4.060   0.840   5.380  1.0560  1.1343 -0.0515
 4825SOL    MW419068   4.068   0.813   5.297 -0.4686  0.1113  0.2730
 4826SOL     OW19069   5.676   1.418   2.168 -0.5682  0.4279  0.2526
 4826SOL    HW219070   5.723   1.448   2.089 -1.4229  0.6717 -0.1794
 4826SOL    HW319071   5.584   1.427   2.145 -0.8402  1.3021  1.5856
 4826SOL    MW419072   5.670   1.423   2.154  0.1531 -0.1468  0.1805
 4827SOL     OW19073   0.230   0.120   3.358  0.0593 -0.3098 -0.1749
 4827SOL    HW219074   0.215   0.208   3.324 -0.4609  0.2864  1.4742
 4827SOL    HW319075   0.150   0.100   3.406  0.5802 -1.2686  0.3105
 4827SOL    MW419076   0.217   0.129   3.360 -0.3945 -0.1995  0.4573
 4828SOL     OW19077   5.263   2.083   1.641  0.4059 -0.3510 -0.6994
 4828SOL    HW219078   5.292   1.992   1.633  0.0432 -0.6632  1.1318
 4828SOL    HW319079   5.332   2.134   1.598  2.7571 -1.2217  1.6944
 4828SOL    MW419080   5.276   2.078   1.635  0.3255 -0.1155 -0.0843
 4829SOL     OW19081   2.823   4.318   0.248 -0.2714 -0.6499 -0.5520
 4829SOL    HW219082   2.751   4.319   0.311  0.0478 -0.5317 -0.1901
 4829SOL    HW319083   2.784   4.282   0.168 -1.1658  0.9492 -0.8725
 4829SOL    MW419084   2.808   4.313   0.246 -0.4890 -0.2339  0.3222
 4830SOL     OW19085   6.097   2.900   5.911 -0.5705  0.3517  0.4490
 4830SOL    HW219086   6.021   2.867   5.863  0.0376 -0.6658  0.1609
 4830SOL    HW319087   6.108   2.989   5.878 -0.3943 -0.2004 -1.0457
 4830SOL    MW419088   6.088   2.908   5.900  0.9174 -0.1067  0.3464
 4831SOL     OW19089   0.915   5.173   2.396 -0.3597  0.5582 -0.2612
 4831SOL    HW219090   1.004   5.194   2.424 -0.0244 -0.5076 -0.4501
 4831SOL    HW319091   0.865   5.166   2.478 -0.1143  0.5406 -0.1129
 4831SOL    MW419092   0.920   5.175   2.411  0.7035 -0.4911  0.2827
 4832SOL     OW19093   3.847   3.807   1.695 -0.5313 -0.4854  0.5416
 4832SOL    HW219094   3.806   3.804   1.781  0.9170 -0.1518  1.2681
 4832SOL    HW319095   3.811   3.886   1.654 -1.7476 -1.0126  0.5355
 4832SOL    MW419096   3.837   3.817   1.701  0.4588  0.4813 -0.0064
 4833SOL     OW19097   2.206   4.413   3.467  0.5234 -0.0518 -0.1649
 4833SOL    HW219098   2.279   4.355   3.489  0.0424 -0.5478  0.1324
 4833SOL    HW319099   2.194   4.467   3.545  0.3474 -0.2126 -0.0787
 4833SOL    MW419100   2.214   4.413   3.480  0.0376 -0.2708 -0.2151
 4834SOL     OW19101   5.946   0.038   1.441 -0.1229  0.4504 -0.0454
 4834SOL    HW219102   5.876   0.058   1.379  1.0608 -2.0953 -2.4172
 4834SOL    HW319103   6.016   0.100   1.419 -0.9454  1.8741  1.1925
 4834SOL    MW419104   5.946   0.049   1.430 -0.3034  0.2134  0.0919
 4835SOL     OW19105   6.295   6.279   4.064 -0.4899  0.0544 -0.3526
 4835SOL    HW219106   6.295   6.295   3.969 -0.1641  2.0005 -0.0717
 4835SOL    HW319107   6.234   6.345   4.098 -1.7875 -1.6035  0.6827
 4835SOL    MW419108   6.287   6.290   4.056  0.3888 -0.6397 -0.5998
 4836SOL     OW19109   0.517   5.210   6.230 -0.0896 -0.7355 -0.1863
 4836SOL    HW219110   0.559   5.209   6.144  0.6651 -0.9490  0.1741
 4836SOL    HW319111   0.584   5.243   6.289 -1.3952  1.8495 -0.0387
 4836SOL    MW419112   0.532   5.214   6.226  0.1750 -0.1230 -0.1872
 4837SOL     OW19113   1.875   6.191   0.127 -0.1751  0.5002 -0.1359
 4837SOL    HW219114   1.796   6.138   0.115 -0.8980  1.2013  1.2779
 4837SOL    HW319115   1.877   6.248   0.050  0.9448 -1.8975 -2.0023
 4837SOL    MW419116   1.864   6.192   0.115  0.3176  0.2707  0.2191
 4838SOL     OW19117   0.386   5.103   4.578  0.5737  0.0732 -0.1973
 4838SOL    HW219118   0.456   5.065   4.525 -1.3541  0.3788 -3.2272
 4838SOL    HW319119   0.326   5.031   4.593  0.7810  0.1539  1.0831
 4838SOL    MW419120   0.388   5.089   4.573  0.6191  0.0450  0.6436
 4839SOL     OW19121   1.670   3.772   2.099  0.5911 -0.3846  0.3989
 4839SOL    HW219122   1.759   3.739   2.087  0.8931  0.8828 -1.0262
 4839SOL    HW319123   1.681   3.849   2.156  1.1322  2.6055 -3.3572
 4839SOL    MW419124   1.683   3.778   2.105 -0.0861 -0.7901  1.0468
 4840SOL     OW19125   1.072   6.121   0.882  0.4145 -0.3783  0.3503
 4840SOL    HW219126   1.050   6.198   0.830  1.3604  0.3926  1.0637
 4840SOL    HW319127   1.145   6.148   0.937 -0.8628 -0.9864  2.4851
 4840SOL    MW419128   1.078   6.135   0.882  0.2787 -0.7867  0.7566
 4841SOL     OW19129   1.044   1.510   4.135 -0.2323 -0.0476 -0.2347
 4841SOL    HW219130   0.991   1.456   4.194 -0.4369 -0.4435 -0.7651
 4841SOL    HW319131   1.104   1.448   4.093 -0.0038  0.2473 -0.3480
 4841SOL    MW419132   1.045   1.494   4.137 -0.1464  0.1144  0.4695
 4842SOL     OW19133   0.285   3.466   4.966 -0.0015  0.0315 -0.3784
 4842SOL    HW219134   0.298   3.433   4.876  0.1036 -1.6028  0.1951
 4842SOL    HW319135   0.277   3.387   5.019 -1.5946  0.9688  0.8599
 4842SOL    MW419136   0.286   3.451   4.961 -0.4519  0.5293 -0.2113
 4843SOL     OW19137   2.097   4.197   2.166  0.1646 -0.2469 -0.3955
 4843SOL    HW219138   2.018   4.196   2.220  1.5733 -0.3739  1.8340
 4843SOL    HW319139   2.111   4.106   2.142  1.0328 -0.6770  1.5298
 4843SOL    MW419140   2.088   4.185   2.170 -0.2201  0.5162 -0.3434
 4844SOL     OW19141   3.309   5.904   0.593  0.4044 -0.1621  0.6573
 4844SOL    HW219142   3.337   5.991   0.564 -0.8865  0.6108  1.6239
 4844SOL    HW319143   3.241   5.879   0.531  0.8201 -0.5204  0.3421
 4844SOL    MW419144   3.304   5.912   0.581 -0.4245 -0.2658  0.0929
 4845SOL     OW19145   3.935   3.151   6.373  0.3900 -0.4638  0.2887
 4845SOL    HW219146   3.883   3.074   6.396  0.4430 -0.4411  0.4847
 4845SOL    HW319147   3.953   3.141   6.280  1.2341 -1.1865  0.5213
 4845SOL    MW419148   3.930   3.139   6.364 -0.0817 -0.0044  0.3931
 4846SOL     OW19149   1.146   5.772   5.236 -0.3181  0.9027  0.6877
 4846SOL    HW219150   1.131   5.858   5.195  0.8946  0.8993  0.1600
 4846SOL    HW319151   1.235   5.749   5.208 -0.8070 -0.7566  0.4198
 4846SOL    MW419152   1.156   5.780   5.227 -0.1495  0.3382  0.6059
 4847SOL     OW19153   3.588   1.017   1.138  0.1677  0.1135  0.1468
 4847SOL    HW219154   3.596   1.043   1.230 -0.1753 -0.3338  0.3031
 4847SOL    HW319155   3.614   0.925   1.137  2.4788  0.7077 -0.5792
 4847SOL    MW419156   3.593   1.008   1.150  0.6184 -0.0823  0.4633
 4848SOL     OW19157   4.501   0.689   0.532  0.3327 -0.1635 -0.2110
 4848SOL    HW219158   4.524   0.767   0.582  1.0543 -1.2688  1.2750
 4848SOL    HW319159   4.567   0.685   0.463  0.6468  0.2217  0.0609
 4848SOL    MW419160   4.513   0.699   0.529 -0.4677 -0.0044  0.8156
 4849SOL     OW19161   2.533   0.727   5.511 -0.1212  0.2592 -0.4385
 4849SOL    HW219162   2.582   0.660   5.559 -0.2671  1.2866  1.2088
 4849SOL    HW319163   2.587   0.744   5.433  0.4722 -0.9533 -0.3252
 4849SOL    MW419164   2.547   0.721   5.507 -0.0230  0.0176 -0.3128
 4850SOL     OW19165   4.578   0.604   1.975  0.3394  0.5228 -0.0142
 4850SOL    HW219166   4.488   0.623   1.947  0.0327 -1.0647 -0.2013
 4850SOL    HW319167   4.622   0.689   1.973 -1.8737  1.9480  2.9006
 4850SOL    MW419168   4.572   0.618   1.971  0.2241  0.3117 -0.2229
 4851SOL     OW19169   0.961   0.306   4.220  0.0625 -0.1426 -0.6417
 4851SOL    HW219170   1.028   0.263   4.274 -0.3998 -0.6234 -0.4372
 4851SOL    HW319171   0.979   0.274   4.131 -0.4356 -0.9863 -0.4532
 4851SOL    MW419172   0.972   0.296   4.215  0.3758  0.3562  0.1011
 4852SOL     OW19173   4.439   5.102   5.769  0.6406 -0.2583 -0.2409
 4852SOL    HW219174   4.354   5.126   5.807 -0.0972 -1.6808 -0.9078
 4852SOL    HW319175   4.454   5.167   5.701 -1.1942 -1.3957 -1.8536
 4852SOL    MW419176   4.429   5.114   5.765 -0.0571  0.8255  0.9041
 4853SOL     OW19177   0.625   6.418   4.570 -0.4198 -0.3939 -0.6103
 4853SOL    HW219178   0.543   6.370   4.563 -0.6764 -0.5077  2.0991
 4853SOL    HW319179   0.608   6.484   4.637  1.0727  1.0533 -1.5698
 4853SOL    MW419180   0.612   6.421   4.578  0.0516  0.3378  0.3089
 4854SOL     OW19181   3.452   2.619   2.568  0.2290  0.3757 -0.2154
 4854SOL    HW219182   3.430   2.651   2.480  2.2949 -0.9513 -1.3060
 4854SOL    HW319183   3.405   2.536   2.576 -1.8531  1.5747  0.9715
 4854SOL    MW419184   3.443   2.613   2.557 -0.0854 -0.1680  0.3621
 4855SOL     OW19185   1.024   3.458   3.238  0.1429  0.0958 -0.0954
 4855SOL    HW219186   1.013   3.494   3.150  0.6658  0.8879  0.1598
 4855SOL    HW319187   1.092   3.392   3.228  0.3767  0.3590 -0.2335
 4855SOL    MW419188   1.031   3.454   3.225  0.1286 -0.0861 -0.3118
 4856SOL     OW19189   3.579   4.871   4.058 -0.1860 -0.0940 -0.1202
 4856SOL    HW219190   3.569   4.804   3.990  0.0594 -0.5379  0.2707
 4856SOL    HW319191   3.655   4.921   4.031 -0.5500  0.2262 -0.5741
 4856SOL    MW419192   3.587   4.869   4.046 -0.5909  0.0800 -0.8272
 4857SOL     OW19193   4.552   5.101   2.328  0.7236  0.9222  0.2140
 4857SOL    HW219194   4.596   5.016   2.326 -1.1454 -0.1588  1.8604
 4857SOL    HW319195   4.462   5.083   2.300 -0.2091  1.9671  2.2978
 4857SOL    MW419196   4.546   5.087   2.324  0.4176  0.4843  0.2163
 4858SOL     OW19197   3.212   2.053   2.248 -0.5717 -0.5968  0.6445
 4858SOL    HW219198   3.218   1.978   2.189 -0.5762 -0.6932  0.7646
 4858SOL    HW319199   3.261   2.026   2.326  0.7560  0.1192  0.0862
 4858SOL    MW419200   3.219   2.040   2.251 -0.2719  0.6412  0.6743
 4859SOL     OW19201   4.831   2.172   3.674  0.6107  0.3044 -0.1669
 4859SOL    HW219202   4.891   2.246   3.667  1.6112 -0.4420  0.2630
 4859SOL    HW319203   4.806   2.170   3.767 -0.7735  1.1124 -0.4865
 4859SOL    MW419204   4.835   2.181   3.685 -0.2637  0.1796 -0.3953
 4860SOL     OW19205   0.957   1.692   0.477 -0.5268 -1.3255 -0.3195
 4860SOL    HW219206   0.984   1.633   0.548  1.0120  0.9324  1.0880
 4860SOL    HW319207   0.864   1.708   0.494  0.0578  0.1432  2.0704
 4860SOL    MW419208   0.948   1.686   0.489 -0.0935 -0.0873 -0.4616
 4861SOL     OW19209   5.795   4.981   2.261 -0.1871 -0.1703 -0.2049
 4861SOL    HW219210   5.800   5.013   2.171  2.0866  1.0727  0.2734
 4861SOL    HW319211   5.837   4.895   2.258 -0.6356 -0.3841 -0.4208
 4861SOL    MW419212   5.801   4.974   2.249  0.2984 -0.8786  0.8868
 4862SOL     OW19213   3.663   2.234   5.729 -0.5403  0.1900  0.0857
 4862SOL    HW219214   3.681   2.233   5.635 -0.0917  2.0924  0.1051
 4862SOL    HW319215   3.728   2.176   5.767 -1.5491 -1.6595 -0.8532
 4862SOL    MW419216   3.674   2.226   5.721 -0.5054  0.4791 -0.3693
 4863SOL     OW19217   4.585   4.697   3.443 -0.3441  0.8770 -0.0867
 4863SOL    HW219218   4.678   4.677   3.446 -0.3560  0.9344  2.0898
 4863SOL    HW319219   4.564   4.728   3.531 -2.3318  1.2933 -0.6524
 4863SOL    MW419220   4.594   4.699   3.455  0.1796  0.1815  0.3463
 4864SOL     OW19221   4.337   0.201   5.136 -0.0624 -0.5065 -0.4630
 4864SOL    HW219222   4.299   0.129   5.186 -0.0672  0.4258  0.9129
 4864SOL    HW319223   4.418   0.165   5.101 -0.2190 -1.2813 -0.0551
 4864SOL    MW419224   4.342   0.187   5.138 -0.4740  0.3759  0.0868
 4865SOL     OW19225   3.418   2.872   0.477  0.2754  0.5003  0.1937
 4865SOL    HW219226   3.438   2.873   0.571  1.8032 -1.1732 -0.0641
 4865SOL    HW319227   3.334   2.826   0.472 -1.3860  3.2411  0.9040
 4865SOL    MW419228   3.409   2.866   0.489 -0.2513  0.4036 -0.0620
 4866SOL     OW19229   2.966   0.747   6.163  0.0070 -0.2240 -0.2841
 4866SOL    HW219230   3.050   0.705   6.141 -0.0041  0.3027 -1.3938
 4866SOL    HW319231   2.903   0.675   6.165  0.5988 -0.7449  1.3522
 4866SOL    MW419232   2.969   0.732   6.160 -0.4015  0.4638  0.3161
 4867SOL     OW19233   5.994   1.111   3.477 -0.0266 -0.4420 -0.1428
 4867SOL    HW219234   6.050   1.187   3.493 -0.7746  0.2049 -0.5655
 4867SOL    HW319235   5.935   1.138   3.407 -2.2739 -0.3535  1.6861
 4867SOL    MW419236   5.994   1.125   3.470  0.1797  0.1344 -0.9036
 4868SOL     OW19237   0.175   4.275   1.006 -0.0135  0.3154 -0.4744
 4868SOL    HW219238   0.248   4.221   1.037 -0.8861 -0.2603  0.6469
 4868SOL    HW319239   0.212   4.363   1.000  0.9280 -0.0653 -0.4669
 4868SOL    MW419240   0.189   4.279   1.010 -0.2765  0.4208 -0.2411
 4869SOL     OW19241   3.913   3.885   2.347  0.2244  0.0201  0.0441
 4869SOL    HW219242   3.974   3.830   2.298  0.3450  0.8212 -0.7333
 4869SOL    HW319243   3.905   3.842   2.432  0.4877 -1.0717 -0.4588
 4869SOL    MW419244   3.920   3.872   2.352  0.4648  0.2869  0.3057
 4870SOL     OW19245   4.267   1.283   0.189 -0.3557 -0.1126 -0.2502
 4870SOL    HW219246   4.278   1.301   0.096 -0.4155  1.1644 -0.0337
 4870SOL    HW319247   4.293   1.191   0.200 -0.0856 -0.1909 -1.4723
 4870SOL    MW419248   4.272   1.273   0.178 -0.1021  0.4761  0.0128
 4871SOL     OW19249   0.684   5.807   3.308 -0.2363 -0.5185  0.1812
 4871SOL    HW219250   0.727   5.772   3.230 -0.5338 -1.6728  0.5185
 4871SOL    HW319251   0.729   5.890   3.324  0.4388 -0.6910 -0.6907
 4871SOL    MW419252   0.696   5.814   3.300  0.1677 -0.3754 -0.2822
 4872SOL     OW19253   4.121   6.014   5.413  0.1857 -0.6474  0.0646
 4872SOL    HW219254   4.086   5.926   5.397 -1.5757 -0.3374  1.8102
 4872SOL    HW319255   4.046   6.072   5.404  1.1649  0.6046 -0.3067
 4872SOL    MW419256   4.106   6.010   5.410 -0.2418 -0.0244  0.0636
 4873SOL     OW19257   3.867   4.744   3.489 -0.1154  0.5977  0.6904
 4873SOL    HW219258   3.917   4.785   3.419 -2.8030  0.0962 -1.7313
 4873SOL    HW319259   3.835   4.662   3.451 -1.3285  0.0735  2.6693
 4873SOL    MW419260   3.869   4.738   3.475 -0.5203 -0.1285  0.0922
 4874SOL     OW19261   6.304   5.765   5.596  0.1240  0.2408  0.1992
 4874SOL    HW219262   6.222   5.812   5.612  0.1509  0.6341 -0.7220
 4874SOL    HW319263   6.345   5.758   5.682 -1.7838 -1.7454  1.0709
 4874SOL    MW419264   6.298   5.770   5.609  0.2845  0.0772  0.1374
 4875SOL     OW19265   1.038   4.555   3.554 -0.1636 -0.1218 -0.1514
 4875SOL    HW219266   1.094   4.501   3.499 -0.0600  0.3669 -0.5292
 4875SOL    HW319267   1.098   4.611   3.602 -0.3125  0.2126 -0.3519
 4875SOL    MW419268   1.053   4.555   3.553  0.2458  0.1506  0.1311
 4876SOL     OW19269   0.610   0.173   1.247  0.1486  0.0413 -0.4469
 4876SOL    HW219270   0.533   0.225   1.225  0.6393 -0.0334 -2.4964
 4876SOL    HW319271   0.579   0.110   1.312 -0.3874  3.0455  2.5179
 4876SOL    MW419272   0.596   0.171   1.253 -0.3312  0.1093 -0.0366
 4877SOL     OW19273   3.563   1.906   1.784  0.3000 -0.0593 -0.2316
 4877SOL    HW219274   3.508   1.834   1.755  0.6471  0.0150 -1.1109
 4877SOL    HW319275   3.652   1.871   1.781  0.3251 -0.2079  1.2646
 4877SOL    MW419276   3.567   1.892   1.780  0.4216  0.4911 -0.7250
 4878SOL     OW19277   0.801   5.674   4.577  0.1889  0.2388 -0.2542
 4878SOL    HW219278   0.886   5.630   4.582  1.1345  2.0055 -0.1768
 4878SOL    HW319279   0.773   5.683   4.668 -0.1773 -0.4895 -0.2880
 4878SOL    MW419280   0.809   5.669   4.590  0.2773 -0.0357 -0.1671
 4879SOL     OW19281   2.813   0.401   2.664  0.3976  0.5023 -0.2557
 4879SOL    HW219282   2.827   0.466   2.734 -0.9336 -0.2944  0.8053
 4879SOL    HW319283   2.758   0.446   2.600  1.1475  1.0580 -0.5169
 4879SOL    MW419284   2.807   0.416   2.665 -0.1722  0.1049 -0.5613
 4880SOL     OW19285   0.131   1.844   5.224 -0.6486 -0.4731  0.6222
 4880SOL    HW219286   0.107   1.913   5.285  1.2303  0.7515  0.0598
 4880SOL    HW319287   0.103   1.763   5.267 -2.4020  0.5630  1.5464
 4880SOL    MW419288   0.124   1.842   5.237  0.5485 -0.0118 -0.1688
 4881SOL     OW19289   3.112   0.181   5.015 -0.4592 -0.5425 -0.0431
 4881SOL    HW219290   3.119   0.245   4.944  0.8135 -0.4977  0.0857
 4881SOL    HW319291   3.203   0.162   5.039 -0.8403 -1.4672  0.7637
 4881SOL    MW419292   3.125   0.187   5.009 -0.3312  0.7803 -0.1573
 4882SOL     OW19293   5.109   2.501   2.122 -0.9420 -0.0543  0.6214
 4882SOL    HW219294   5.103   2.507   2.026  1.0017 -1.1545  0.3912
 4882SOL    HW319295   5.039   2.441   2.146 -0.9726 -0.3620 -0.1954
 4882SOL    MW419296   5.099   2.494   2.112  0.6393  0.5533 -0.1354
 4883SOL     OW19297   0.675   4.691   3.871  0.5043  0.0802 -0.2941
 4883SOL    HW219298   0.652   4.605   3.906  0.6382  1.1932  2.7987
 4883SOL    HW319299   0.721   4.735   3.943 -0.8356  3.2716 -1.2302
 4883SOL    MW419300   0.678   4.685   3.885 -0.0454  0.0693  0.3413
 4884SOL     OW19301   4.361   6.379   0.229  0.0546  0.4282  0.1669
 4884SOL    HW219302   4.384   6.334   0.311  0.0087 -1.6503 -0.8812
 4884SOL    HW319303   4.421   6.453   0.224  2.2040 -1.1900  0.6126
 4884SOL    MW419304   4.372   6.382   0.239 -0.3532  0.1421 -0.4521
 4885SOL     OW19305   5.103   0.850   5.142  0.1832  0.2772 -0.0253
 4885SOL    HW219306   5.183   0.899   5.161  1.3546 -1.1069 -1.2362
 4885SOL    HW319307   5.067   0.892   5.063 -0.5524  1.1633  0.7536
 4885SOL    MW419308   5.109   0.862   5.134 -0.0883  1.1925  0.0791
 4886SOL     OW19309   1.252   0.699   6.152 -0.1723  0.2701  0.4513
 4886SOL    HW219310   1.293   0.708   6.238 -0.8067  0.3972  0.7473
 4886SOL    HW319311   1.220   0.609   6.150  0.5847 -0.0010  0.0038
 4886SOL    MW419312   1.253   0.689   6.163 -0.1032 -0.8142 -0.6583
 4887SOL     OW19313   3.074   4.859   0.809 -0.3508  0.4363 -0.5055
 4887SOL    HW219314   2.984   4.850   0.777 -0.3283 -1.1489 -0.2210
 4887SOL    HW319315   3.111   4.771   0.800  0.5407  0.5952  1.1988
 4887SOL    MW419316   3.067   4.846   0.804  0.2453 -0.3312  0.2926
 4888SOL     OW19317   2.806   5.946   4.832 -0.1601  0.2859  0.4508
 4888SOL    HW219318   2.834   5.991   4.912 -1.0056  1.0087  0.3541
 4888SOL    HW319319   2.811   6.013   4.764  0.4078 -0.2843 -0.0878
 4888SOL    MW419320   2.810   5.961   4.834 -0.0734 -0.3940 -0.6422
 4889SOL     OW19321   6.230   0.056  -0.001 -0.0028  0.2271  0.0030
 4889SOL    HW219322   6.221   0.099  -0.086 -0.0920 -1.0084 -0.6406
 4889SOL    HW319323   6.305   0.099   0.040 -0.1040  0.9932 -0.6076
 4889SOL    MW419324   6.239   0.067  -0.007  0.6689 -0.1845  0.2322
 4890SOL     OW19325   4.375   5.619   0.244 -0.6414 -0.2514  0.5740
 4890SOL    HW219326   4.326   5.701   0.256  1.5013  1.3306 -0.6482
 4890SOL    HW319327   4.421   5.632   0.162  1.3033 -1.8932  1.3425
 4890SOL    MW419328   4.374   5.632   0.235 -0.3648  0.0364 -0.0429
 4891SOL     OW19329   0.820   5.411   0.650  0.5458  0.1443 -0.6134
 4891SOL    HW219330   0.866   5.494   0.641  0.3870  0.1449 -1.6313
 4891SOL    HW319331   0.869   5.350   0.595  0.3115 -0.2805 -0.3574
 4891SOL    MW419332   0.832   5.414   0.641 -0.4173  0.1183  0.0526
 4892SOL     OW19333   6.221   4.723   3.812 -0.0895  0.1812 -0.2016
 4892SOL    HW219334   6.240   4.759   3.726 -0.8140  1.7364  0.2480
 4892SOL    HW319335   6.140   4.673   3.800 -0.1763  0.3771 -0.4392
 4892SOL    MW419336   6.213   4.721   3.799 -0.4383 -0.0868 -0.1948
 4893SOL     OW19337   0.768   0.382   2.543 -0.1291 -0.0794 -0.2437
 4893SOL    HW219338   0.731   0.460   2.585  0.8016  0.4206 -0.3194
 4893SOL    HW319339   0.692   0.337   2.505 -0.8207  0.1870  0.7572
 4893SOL    MW419340   0.753   0.386   2.544 -0.0493  0.4289  0.1498
 4894SOL     OW19341   5.671   2.438   4.210 -0.4927 -0.1986 -0.2732
 4894SOL    HW219342   5.632   2.520   4.181 -3.4570 -1.9311 -1.6470
 4894SOL    HW319343   5.635   2.424   4.298 -1.6345 -0.9559 -0.8440
 4894SOL    MW419344   5.661   2.447   4.218 -0.3866 -0.1525 -0.0374
 4895SOL     OW19345   6.392   5.253   2.092  0.1015 -0.8093 -0.0913
 4895SOL    HW219346   6.402   5.303   2.173  2.2943 -0.3944 -0.5530
 4895SOL    HW319347   6.459   5.185   2.096  1.3796  0.2031 -2.2018
 4895SOL    MW419348   6.402   5.251   2.103 -0.1676 -0.2235  0.3029
 4896SOL     OW19349   4.358   2.225   5.365 -0.1627  0.3446 -0.4932
 4896SOL    HW219350   4.280   2.216   5.311  1.0087 -0.2152 -2.1918
 4896SOL    HW319351   4.422   2.164   5.325  2.2215  3.1344 -1.3056
 4896SOL    MW419352   4.356   2.216   5.352 -0.5479 -0.5122  0.3424
 4897SOL     OW19353   0.253   2.902   2.882  0.2003  0.4528  0.0159
 4897SOL    HW219354   0.320   2.902   2.951  0.2934  2.2245 -0.0185
 4897SOL    HW319355   0.175   2.864   2.924  1.3759 -2.4484 -0.1874
 4897SOL    MW419356   0.251   2.897   2.897  0.0977  0.4894 -1.2696
 4898SOL     OW19357   3.339   0.556   0.902 -0.0066  0.2492  0.2006
 4898SOL    HW219358   3.383   0.480   0.941  0.4632  0.0823 -0.6220
 4898SOL    HW319359   3.299   0.601   0.976  0.0198 -0.5999  0.7451
 4898SOL    MW419360   3.340   0.552   0.917  0.0686 -0.2822 -0.6875
 4899SOL     OW19361   0.342   5.661   3.701 -0.0107 -0.7791  0.1163
 4899SOL    HW219362   0.354   5.686   3.609 -2.6051  2.1375  0.4096
 4899SOL    HW319363   0.283   5.586   3.698 -0.5636 -0.3208 -0.5899
 4899SOL    MW419364   0.336   5.655   3.688 -0.2070 -0.7583 -0.1017
 4900SOL     OW19365   5.006   5.649   4.633  0.2724  0.2080  0.8109
 4900SOL    HW219366   5.002   5.607   4.547  2.2144 -0.8687  1.1785
 4900SOL    HW319367   4.917   5.679   4.650 -1.1366 -3.1837  0.2205
 4900SOL    MW419368   4.994   5.647   4.624  0.5846  0.3627 -0.0410
 4901SOL     OW19369   1.138   3.496   3.938  0.6645 -0.3081 -0.7518
 4901SOL    HW219370   1.205   3.428   3.931  1.6257  0.2266  2.0442
 4901SOL    HW319371   1.187   3.578   3.932  0.2020  0.0896  0.6412
 4901SOL    MW419372   1.154   3.498   3.936  0.5209 -0.6759  0.5650
 4902SOL     OW19373   4.128   3.875   6.030 -0.3439 -0.1173 -0.2178
 4902SOL    HW219374   4.142   3.964   6.062 -1.2750 -0.6394  1.7509
 4902SOL    HW319375   4.156   3.878   5.938  1.4272  1.7124  0.3121
 4902SOL    MW419376   4.134   3.887   6.022  0.0870  0.3182  0.3467
 4903SOL     OW19377   6.282   1.087   1.959  0.7188  0.0775 -0.1929
 4903SOL    HW219378   6.319   1.159   1.908  1.3217 -0.9886 -1.3272
 4903SOL    HW319379   6.256   1.022   1.893 -2.2137  0.2853  0.6189
 4903SOL    MW419380   6.283   1.088   1.943 -0.0383 -0.2274 -0.6174
 4904SOL     OW19381   1.438   2.198   3.818 -0.4432 -0.0561 -0.2041
 4904SOL    HW219382   1.371   2.141   3.856 -0.3762  0.9009  1.4416
 4904SOL    HW319383   1.391   2.255   3.758 -0.5654 -1.5522 -1.6191
 4904SOL    MW419384   1.423   2.198   3.815  0.6274  0.3706  0.1355
 4905SOL     OW19385   3.873   1.549   4.604 -0.0252  0.2784  0.4175
 4905SOL    HW219386   3.959   1.586   4.624  0.8251 -1.7995  0.8929
 4905SOL    HW319387   3.851   1.497   4.682 -0.4031 -1.4620 -0.7878
 4905SOL    MW419388   3.881   1.547   4.617 -0.5245 -0.1540  0.2029
 4906SOL     OW19389   1.332   1.542   4.375 -0.2234  0.0633 -0.1881
 4906SOL    HW219390   1.415   1.583   4.350 -0.1456  0.4516  0.6499
 4906SOL    HW319391   1.296   1.600   4.443 -2.2783  1.1095 -2.0437
 4906SOL    MW419392   1.338   1.555   4.381 -0.0433  0.6867 -0.2764
 4907SOL     OW19393   2.109   1.983   3.636  0.2539  0.3702  0.0347
 4907SOL    HW219394   2.156   2.062   3.661  0.2338 -0.2134  2.0814
 4907SOL    HW319395   2.177   1.924   3.602  0.5338  0.6036  0.1936
 4907SOL    MW419396   2.124   1.985   3.635  0.8058  0.5588  0.0295
 4908SOL     OW19397   6.254   0.838   2.646 -0.4428 -0.0210  0.0624
 4908SOL    HW219398   6.194   0.799   2.582  2.1085 -1.8662 -1.4087
 4908SOL    HW319399   6.334   0.856   2.596  1.3853 -0.7490  2.5380
 4908SOL    MW419400   6.257   0.835   2.631 -0.3723  0.5828 -0.2432
 4909SOL     OW19401   2.008   3.934   2.535 -0.0474  0.0045 -0.3278
 4909SOL    HW219402   2.022   3.917   2.628 -0.7995  1.7682  0.1541
 4909SOL    HW319403   2.006   3.847   2.495  0.1578 -0.8011  1.3157
 4909SOL    MW419404   2.009   3.921   2.542  0.2227 -0.2968  0.1473
 4910SOL     OW19405   3.807   1.165   2.347  0.7879  0.2902  0.1400
 4910SOL    HW219406   3.887   1.211   2.321 -0.2501  1.6260 -0.7990
 4910SOL    HW319407   3.761   1.227   2.403  0.1090 -0.2050  0.1358
 4910SOL    MW419408   3.811   1.179   2.351  0.4424 -0.2320  0.4597
 4911SOL     OW19409   3.459   3.837   2.689  0.0699  0.8117 -0.1104
 4911SOL    HW219410   3.444   3.890   2.611  2.6944 -1.8937 -2.7129
 4911SOL    HW319411   3.554   3.839   2.702 -0.1835  0.2520  2.4008
 4911SOL    MW419412   3.469   3.844   2.681 -0.5941  0.3436  0.2936
 4912SOL     OW19413   4.683   3.416   1.031  0.2510 -0.3670 -0.3205
 4912SOL    HW219414   4.720   3.479   1.092 -1.1834  0.1979  0.0152
 4912SOL    HW319415   4.751   3.350   1.020  1.6144  0.9617 -0.2942
 4912SOL    MW419416   4.697   3.416   1.037  0.0764  0.1764  0.5711
 4913SOL     OW19417   3.735   3.814   2.727 -0.0360  0.0720 -0.4122
 4913SOL    HW219418   3.825   3.825   2.696 -0.0765 -1.1053 -0.9753
 4913SOL    HW319419   3.743   3.765   2.809 -0.1236  0.6004 -0.0830
 4913SOL    MW419420   3.748   3.809   2.734  0.0856 -0.0651  0.4917
 4914SOL     OW19421   3.953   0.368   4.669 -0.3814  0.0796  0.0516
 4914SOL    HW219422   3.905   0.414   4.600 -0.6586  1.5918  1.2042
 4914SOL    HW319423   4.008   0.435   4.709  0.9513 -1.1122  0.3013
 4914SOL    MW419424   3.954   0.383   4.665 -0.3767  0.9223 -0.2631
 4915SOL     OW19425   5.943   5.235   3.173 -0.3075 -0.4139 -0.4876
 4915SOL    HW219426   5.989   5.282   3.104 -0.7942 -0.4088 -0.8158
 4915SOL    HW319427   5.890   5.170   3.127  1.5205 -2.3746  0.0117
 4915SOL    MW419428   5.942   5.233   3.158  0.2020  0.6102  0.5686
 4916SOL     OW19429   3.494   2.189   1.081 -0.0945  0.1779 -0.3251
 4916SOL    HW219430   3.407   2.220   1.106  0.0646 -1.2776  2.3211
 4916SOL    HW319431   3.553   2.225   1.147  1.0166 -0.5198 -0.9015
 4916SOL    MW419432   3.490   2.198   1.093  0.0385 -0.0245 -0.0851
 4917SOL     OW19433   6.166   4.493   0.301  0.5053  0.4554 -0.0983
 4917SOL    HW219434   6.247   4.451   0.330 -0.3726 -1.4548 -0.2592
 4917SOL    HW319435   6.125   4.428   0.243 -2.0332  0.5635  1.4349
 4917SOL    MW419436   6.172   4.479   0.297 -0.2192  0.8607  0.0317
 4918SOL     OW19437   2.622   1.714   4.543  0.3316 -0.3004 -0.1697
 4918SOL    HW219438   2.643   1.775   4.472  1.1593 -0.5249 -0.1265
 4918SOL    HW319439   2.635   1.765   4.623 -0.8616  0.0316 -0.1780
 4918SOL    MW419440   2.627   1.729   4.544 -0.3014 -0.2491  0.0758
 4919SOL     OW19441   5.694   1.555   1.682  0.3838  0.5564  0.0342
 4919SOL    HW219442   5.781   1.551   1.722  0.9814 -1.1964 -1.3416
 4919SOL    HW319443   5.654   1.633   1.721  0.9305 -0.8549  3.9459
 4919SOL    MW419444   5.700   1.565   1.693 -0.9555 -0.8389  0.0075
 4920SOL     OW19445   6.267   5.351   4.820  0.1635  0.0830  0.5562
 4920SOL    HW219446   6.237   5.262   4.803 -0.7597  0.5884 -0.6494
 4920SOL    HW319447   6.198   5.390   4.874 -0.1956  0.5080 -0.1870
 4920SOL    MW419448   6.254   5.344   4.825  0.4505  0.1714 -0.0277
 4921SOL     OW19449   1.238   2.623   4.639 -0.3113 -0.0181 -0.7700
 4921SOL    HW219450   1.315   2.569   4.619  0.5719  0.5437  0.9296
 4921SOL    HW319451   1.263   2.711   4.610 -0.7391 -0.0418 -1.2057
 4921SOL    MW419452   1.252   2.627   4.633  0.4366 -0.2257  0.4150
 4922SOL     OW19453   1.177   6.364   0.447 -0.2718 -0.2006 -0.5512
 4922SOL    HW219454   1.182   6.269   0.451  0.0298 -0.1589  0.4327
 4922SOL    HW319455   1.226   6.387   0.368  1.0076 -0.7911  0.0372
 4922SOL    MW419456   1.184   6.355   0.437  0.1454  0.0461  0.1137
 4923SOL     OW19457   5.733   0.232   5.360  0.3551  0.5934  0.4634
 4923SOL    HW219458   5.663   0.246   5.296 -1.0684 -2.0151  1.2884
 4923SOL    HW319459   5.770   0.147   5.337  0.7010  0.2080  2.2816
 4923SOL    MW419460   5.729   0.222   5.349 -0.2376  0.1309  0.2498
 4924SOL     OW19461   0.540   1.131   1.161 -0.2188 -0.5203 -0.0250
 4924SOL    HW219462   0.564   1.039   1.148  2.2265  0.0124  0.1637
 4924SOL    HW319463   0.542   1.144   1.255  1.4536  0.1332 -0.1068
 4924SOL    MW419464   0.544   1.121   1.172  0.3426  0.4330 -0.4420
 4925SOL     OW19465   2.702   3.181   3.682  0.3841  0.2657 -0.2451
 4925SOL    HW219466   2.721   3.265   3.723 -0.3929 -0.1918  1.1119
 4925SOL    HW319467   2.783   3.131   3.690  0.7960  0.8070 -0.9081
 4925SOL    MW419468   2.715   3.186   3.689 -0.0622  0.3948 -0.5132
 4926SOL     OW19469   4.700   2.470   4.048  0.0697 -0.0065 -0.3102
 4926SOL    HW219470   4.736   2.386   4.022 -0.8547 -1.1353  1.8290
 4926SOL    HW319471   4.688   2.463   4.143 -1.4277  1.9871 -0.2847
 4926SOL    MW419472   4.704   2.458   4.057  0.1793  0.0602  0.0323
 4927SOL     OW19473   0.785   3.599   4.342  0.0500 -0.1727 -0.6772
 4927SOL    HW219474   0.847   3.596   4.269 -0.5700 -0.6919 -1.2011
 4927SOL    HW319475   0.800   3.517   4.390  0.2761  0.0461 -0.3709
 4927SOL    MW419476   0.795   3.588   4.339 -0.4984  0.0744  0.0031
 4928SOL     OW19477   5.477   5.949   6.428 -0.1607  0.4795  0.2326
 4928SOL    HW219478   5.527   6.022   6.466 -1.5118  2.2076 -1.1466
 4928SOL    HW319479   5.485   5.961   6.334 -4.1766  1.7133 -0.1260
 4928SOL    MW419480   5.485   5.960   6.421 -0.4518 -0.1180  0.1384
 4929SOL     OW19481   4.027   3.718   2.965  0.2952 -0.1271  0.5037
 4929SOL    HW219482   4.068   3.799   2.935  0.3708  0.2991  1.7047
 4929SOL    HW319483   4.096   3.652   2.957  1.0336  0.4391  1.8403
 4929SOL    MW419484   4.041   3.720   2.960 -0.7885  0.1406  0.0744
 4930SOL     OW19485   1.793   2.930   4.915 -0.1176 -0.7732 -0.2841
 4930SOL    HW219486   1.728   2.878   4.869 -0.2525 -1.4987  0.7014
 4930SOL    HW319487   1.849   2.866   4.959  0.3110 -0.1165  0.1589
 4930SOL    MW419488   1.792   2.915   4.915  0.0149  0.3804  0.1276
 4931SOL     OW19489   1.729   2.137   3.778  0.3861 -0.4945  0.2589
 4931SOL    HW219490   1.774   2.176   3.703  0.5957  0.3479  0.8055
 4931SOL    HW319491   1.636   2.150   3.760  0.4188 -0.6469 -0.0344
 4931SOL    MW419492   1.723   2.144   3.766  0.0974 -0.2263  0.6860
 4932SOL     OW19493   0.033   3.245   4.344 -0.0600 -0.5236  0.5798
 4932SOL    HW219494   0.127   3.239   4.330 -0.1144 -4.0262  0.9838
 4932SOL    HW319495   0.024   3.271   4.435  0.4620  0.2701  0.4207
 4932SOL    MW419496   0.044   3.248   4.354 -0.6565 -0.3696 -0.3620
 4933SOL     OW19497   3.644   5.502   2.992 -0.2935 -0.5231  0.5715
 4933SOL    HW219498   3.734   5.514   3.024  0.8128 -2.3842 -1.5336
 4933SOL    HW319499   3.599   5.457   3.064  0.3884  0.5737  1.7227
 4933SOL    MW419500   3.650   5.497   3.006 -1.2136 -0.3993  0.0863
 4934SOL     OW19501   4.470   6.193   2.598 -0.0278  0.2068  0.4258
 4934SOL    HW219502   4.484   6.152   2.513 -0.0380  0.2308  0.4125
 4934SOL    HW319503   4.433   6.124   2.652 -0.3182  0.2754  0.3213
 4934SOL    MW419504   4.467   6.179   2.594  0.0168 -0.3569  0.6466
 4935SOL     OW19505   4.921   1.968   1.608  0.4931 -0.1375  0.0278
 4935SOL    HW219506   4.863   1.952   1.682 -1.9922  0.0298 -1.7279
 4935SOL    HW319507   4.958   2.054   1.625 -0.7949  0.3233  0.6399
 4935SOL    MW419508   4.918   1.977   1.620 -0.0638  0.4031  0.5800
 4936SOL     OW19509   4.329   1.687   4.110 -0.4983 -0.8159 -0.7135
 4936SOL    HW219510   4.263   1.736   4.159  1.4036  0.2694  0.8740
 4936SOL    HW319511   4.328   1.726   4.023 -2.1443 -1.0368 -0.8214
 4936SOL    MW419512   4.320   1.698   4.105  0.0079  0.0679  0.5899
 4937SOL     OW19513   3.201   1.086   2.367 -0.1115 -0.4620  0.2487
 4937SOL    HW219514   3.229   1.178   2.373  1.1808 -0.9264  3.2928
 4937SOL    HW319515   3.147   1.073   2.445 -1.6960 -1.9295 -1.0145
 4937SOL    MW419516   3.198   1.097   2.378  0.4789 -0.2880  0.0795
 4938SOL     OW19517   4.756   1.114   4.405  0.0754  0.0774  0.1137
 4938SOL    HW219518   4.810   1.114   4.326 -0.8313 -0.0262 -0.5284
 4938SOL    HW319519   4.699   1.038   4.395 -2.1750  1.7356 -0.6608
 4938SOL    MW419520   4.755   1.104   4.393 -0.1520  0.0405  0.3029
 4939SOL     OW19521   4.825   0.460   1.479  0.1613 -0.3521  0.2991
 4939SOL    HW219522   4.803   0.412   1.560 -1.1107  0.3306  0.3829
 4939SOL    HW319523   4.889   0.403   1.435 -0.8301 -1.8478  0.6928
 4939SOL    MW419524   4.831   0.446   1.484 -1.4173  0.1230  0.1150
 4940SOL     OW19525   4.742   5.580   1.683 -0.2925 -0.1297 -0.3854
 4940SOL    HW219526   4.745   5.620   1.770 -0.2974  1.1061 -0.9377
 4940SOL    HW319527   4.810   5.512   1.685 -3.2030 -3.3636  2.0841
 4940SOL    MW419528   4.751   5.576   1.695  0.5853  0.0441  0.1886
 4941SOL     OW19529   5.846   2.162   3.200 -0.1151 -0.5190 -0.2322
 4941SOL    HW219530   5.769   2.107   3.215  0.3009 -0.7470  1.2359
 4941SOL    HW319531   5.816   2.250   3.222 -0.2251 -0.4671 -0.5955
 4941SOL    MW419532   5.831   2.166   3.205 -0.4588  0.6080  0.2440
 4942SOL     OW19533   5.767   3.023   3.437  0.2993 -0.1874 -0.1392
 4942SOL    HW219534   5.759   3.041   3.531  0.6542 -2.1719  0.3148
 4942SOL    HW319535   5.767   3.110   3.396  0.3530  0.7318  1.6948
 4942SOL    MW419536   5.766   3.037   3.444 -0.5482  0.2071  0.7285
 4943SOL     OW19537   3.659   1.152   2.917 -0.5829  0.1054  0.0532
 4943SOL    HW219538   3.582   1.107   2.883 -0.3627  1.2626 -2.0933
 4943SOL    HW319539   3.652   1.241   2.885  1.2663  0.4441  0.4549
 4943SOL    MW419540   3.648   1.157   2.908 -0.0042  0.2192  0.2250
 4944SOL     OW19541   3.692   3.277   0.901  0.0116 -0.0860 -0.5705
 4944SOL    HW219542   3.710   3.213   0.831 -0.4016 -0.0617 -0.7073
 4944SOL    HW319543   3.613   3.243   0.944 -0.9208  0.9266 -1.3956
 4944SOL    MW419544   3.684   3.264   0.897 -0.0940  0.6782  0.5080
 4945SOL     OW19545   2.668   6.094   5.558  0.9134 -0.3152  0.4151
 4945SOL    HW219546   2.714   6.096   5.474  0.1199  0.2971 -0.0117
 4945SOL    HW319547   2.669   6.001   5.583  1.6806 -0.4210  0.0382
 4945SOL    MW419548   2.674   6.082   5.550  0.2149  0.7288  0.2290
 4946SOL     OW19549   6.190   2.450   2.095  0.0727 -0.5714 -0.1125
 4946SOL    HW219550   6.186   2.489   2.007 -2.3144  0.3503  0.3156
 4946SOL    HW319551   6.181   2.525   2.154  1.4204 -1.2130  0.9361
 4946SOL    MW419552   6.188   2.465   2.091 -0.1757  0.2759  0.2010
 4947SOL     OW19553   5.083   4.935   4.143 -0.1484 -0.1961  0.4043
 4947SOL    HW219554   5.064   4.954   4.051 -2.9578 -1.9410  0.5008
 4947SOL    HW319555   5.091   4.840   4.147  0.5253 -0.1091  1.8906
 4947SOL    MW419556   5.081   4.925   4.131 -0.3113  0.3602  0.0765
 4948SOL     OW19557   1.007   4.608   4.614 -0.5251 -0.3340  0.1001
 4948SOL    HW219558   0.985   4.630   4.524  1.4972  2.2355  0.1355
 4948SOL    HW319559   1.045   4.520   4.609 -1.6263 -0.7576 -1.3087
 4948SOL    MW419560   1.009   4.599   4.602  0.1123  0.1067  0.0594
 4949SOL     OW19561   4.596   0.512   1.333  0.1924  0.4406  0.4443
 4949SOL    HW219562   4.613   0.602   1.304 -0.9980  1.0946  1.6727
 4949SOL    HW319563   4.675   0.487   1.380  1.1748  0.2325 -1.2372
 4949SOL    MW419564   4.608   0.521   1.336  0.0117 -0.1918  0.2409
 4950SOL     OW19565   4.382   2.135   2.606  0.3276 -0.2834 -0.2390
 4950SOL    HW219566   4.334   2.218   2.608  1.1431  0.1973  0.0606
 4950SOL    HW319567   4.370   2.103   2.516 -1.3228 -0.6592  0.0878
 4950SOL    MW419568   4.374   2.142   2.594 -0.1417 -0.4876 -1.0316
 4951SOL     OW19569   5.487   5.168   4.144  0.0780 -0.3703  0.1223
 4951SOL    HW219570   5.543   5.240   4.115  1.4403 -1.0103  1.0579
 4951SOL    HW319571   5.432   5.149   4.068  1.7320 -0.2890 -1.1619
 4951SOL    MW419572   5.487   5.175   4.130 -0.0459  0.7134  0.0218
 4952SOL     OW19573   3.649   4.164   5.250 -0.2883 -0.5784 -0.6538
 4952SOL    HW219574   3.621   4.248   5.288  0.3448 -1.6170  2.4234
 4952SOL    HW319575   3.736   4.181   5.215  0.6730 -0.2615  1.6747
 4952SOL    MW419576   3.657   4.177   5.250  0.1808  0.1249 -0.1835
 4953SOL     OW19577   1.829   0.499   2.113  0.1564 -0.0450  0.0590
 4953SOL    HW219578   1.769   0.429   2.137 -0.9408  0.6553 -0.5502
 4953SOL    HW319579   1.833   0.496   2.017  1.2057 -0.1677  0.0994
 4953SOL    MW419580   1.821   0.490   2.103 -0.6027 -0.3464 -0.6569
 4954SOL     OW19581   1.632   2.652   4.355  0.4921 -0.0092  0.2479
 4954SOL    HW219582   1.719   2.617   4.374 -0.0628 -1.6739 -0.0404
 4954SOL    HW319583   1.637   2.681   4.264  0.5630 -0.8039 -0.0150
 4954SOL    MW419584   1.644   2.651   4.346 -0.4541  0.1077 -0.3061
 4955SOL     OW19585   1.918   5.985   5.036 -0.2836 -0.0438  0.3850
 4955SOL    HW219586   1.989   6.033   5.078  2.5350 -1.4671 -2.2978
 4955SOL    HW319587   1.871   5.943   5.108  1.2484  1.3650  2.3199
 4955SOL    MW419588   1.921   5.986   5.051 -0.3189 -0.1117 -0.3081
 4956SOL     OW19589   0.829   0.995   3.276 -0.4524  0.4091  0.1523
 4956SOL    HW219590   0.862   0.995   3.366  0.2752  1.3748 -0.0945
 4956SOL    HW319591   0.738   1.023   3.284 -0.5712 -0.1144  0.6431
 4956SOL    MW419592   0.821   0.999   3.289 -0.1680 -0.1752 -0.3406
 4957SOL     OW19593   3.083   4.656   6.011 -0.5996  0.5040 -0.2459
 4957SOL    HW219594   3.129   4.733   5.977  0.2486  0.7171  1.2798
 4957SOL    HW319595   3.103   4.587   5.949 -3.8888  2.0746 -3.4312
 4957SOL    MW419596   3.092   4.657   5.999  0.4263  0.1880 -0.2187
 4958SOL     OW19597   2.574   6.253   5.779  0.3112 -0.2246 -0.7826
 4958SOL    HW219598   2.602   6.191   5.711 -2.0075 -2.9664  0.5264
 4958SOL    HW319599   2.516   6.314   5.734 -0.3394 -1.3515 -1.5303
 4958SOL    MW419600   2.570   6.253   5.764  0.5876 -0.6591 -0.5893
 4959SOL     OW19601   0.634   5.010   5.480  0.1090 -0.0704  0.2552
 4959SOL    HW219602   0.726   5.024   5.457  0.4550 -0.1329  1.5254
 4959SOL    HW319603   0.615   4.921   5.451  0.7379 -0.4060  0.8649
 4959SOL    MW419604   0.644   5.000   5.473  0.0789  0.2517  0.2034
 4960SOL     OW19605   2.087   1.897   5.787  0.0632 -0.3533  0.1073
 4960SOL    HW219606   2.043   1.980   5.806 -3.1507 -1.9941  0.4703
 4960SOL    HW319607   2.163   1.897   5.845  0.1027  2.2468  0.1977
 4960SOL    MW419608   2.091   1.908   5.797 -0.0431  0.2619  1.2555
 4961SOL     OW19609   6.370   3.464   0.904  0.3069 -0.3591 -0.2904
 4961SOL    HW219610   6.332   3.497   0.985  0.2357  0.5389 -0.6846
 4961SOL    HW319611   6.334   3.375   0.895 -0.7940  0.0433 -0.0524
 4961SOL    MW419612   6.360   3.456   0.913  0.2040 -0.3745 -0.4280
 4962SOL     OW19613   2.126   0.270   5.011 -0.3096  0.5863  0.2837
 4962SOL    HW219614   2.131   0.218   4.930  0.0531  0.6657  0.2519
 4962SOL    HW319615   2.161   0.356   4.987 -0.2109  0.6138  0.5189
 4962SOL    MW419616   2.131   0.274   4.997 -0.4824  0.6642  0.1569
 4963SOL     OW19617   0.468   0.355   1.684  0.4171  0.2095  0.1620
 4963SOL    HW219618   0.456   0.407   1.604 -2.3299  0.4389  0.6436
 4963SOL    HW319619   0.456   0.265   1.655 -1.9791  0.3721  0.4559
 4963SOL    MW419620   0.465   0.350   1.669 -0.2361 -0.3762  0.0640
 4964SOL     OW19621   6.406   1.252   4.608 -0.6093  0.2606 -0.0167
 4964SOL    HW219622   6.399   1.157   4.611  0.4496  0.1435 -0.6646
 4964SOL    HW319623   6.339   1.279   4.545 -2.8873  0.2368  2.2541
 4964SOL    MW419624   6.396   1.243   4.600 -0.6201  0.3474  0.1356
 4965SOL     OW19625   4.054   4.903   4.963  0.7608  0.2638 -0.2715
 4965SOL    HW219626   4.048   4.810   4.942  2.0209  0.1804 -0.3444
 4965SOL    HW319627   3.974   4.941   4.927 -0.1629 -0.9007  0.4599
 4965SOL    MW419628   4.043   4.896   4.955 -0.1495  0.1491 -0.0890
 4966SOL     OW19629   2.939   3.831   6.381 -0.5138 -0.6812 -0.6399
 4966SOL    HW219630   2.843   3.828   6.384 -0.4740 -1.1585  1.1726
 4966SOL    HW319631   2.967   3.752   6.426  0.7208  0.5700  0.8885
 4966SOL    MW419632   2.930   3.820   6.387 -0.1249  0.3804  0.1749
 4967SOL     OW19633   4.926   3.611   2.231  0.5391 -0.4175  0.6268
 4967SOL    HW219634   4.837   3.586   2.206 -0.1151  0.7636  1.6727
 4967SOL    HW319635   4.982   3.562   2.171 -0.8497  0.2196 -1.2809
 4967SOL    MW419636   4.921   3.601   2.220  0.2494 -0.3625  0.7927
 4968SOL     OW19637   5.519   3.107   2.641 -0.3437  0.0061  0.1324
 4968SOL    HW219638   5.588   3.168   2.668 -0.5703 -0.3080  1.4866
 4968SOL    HW319639   5.534   3.094   2.548  1.2605  0.1643  0.3418
 4968SOL    MW419640   5.530   3.113   2.632 -0.4451 -0.3866 -0.7877
 4969SOL     OW19641   6.054   6.317   4.331  0.1755  0.4141 -0.5272
 4969SOL    HW219642   6.011   6.239   4.296 -0.7352 -0.4261  2.2510
 4969SOL    HW319643   6.127   6.284   4.383  0.2633  1.4785  0.0653
 4969SOL    MW419644   6.058   6.303   4.333 -0.0375 -0.4840  0.1442
 4970SOL     OW19645   4.342   3.554   5.707 -0.1795 -0.2911  0.0522
 4970SOL    HW219646   4.411   3.491   5.729 -0.8723 -0.3132  2.4744
 4970SOL    HW319647   4.317   3.532   5.617  1.2053 -1.9497  0.0173
 4970SOL    MW419648   4.348   3.543   5.698 -0.8597 -0.2171  0.2511
 4971SOL     OW19649   5.483   5.906   1.062  0.1983  0.1052  0.1639
 4971SOL    HW219650   5.568   5.903   1.105  0.1848 -0.4560  0.1563
 4971SOL    HW319651   5.503   5.912   0.969  0.2273  0.5742  0.1980
 4971SOL    MW419652   5.497   5.906   1.056 -0.6340 -0.5278  0.4474
 4972SOL     OW19653   0.399   4.085   0.692 -0.3257  0.0105  0.4867
 4972SOL    HW219654   0.309   4.117   0.688 -0.6154 -0.6681  1.1715
 4972SOL    HW319655   0.410   4.034   0.612 -0.3923  0.5057  0.1650
 4972SOL    MW419656   0.388   4.082   0.681  0.2512 -0.4976  0.5869
 4973SOL     OW19657   1.946   4.346   6.054  0.0100 -0.1196  0.5575
 4973SOL    HW219658   1.945   4.251   6.042  0.3776  0.1569 -2.1985
 4973SOL    HW319659   1.924   4.358   6.146 -2.7044 -2.7839  0.4249
 4973SOL    MW419660   1.943   4.335   6.065 -0.1449  0.0085 -0.1022
 4974SOL     OW19661   1.099   1.779   4.100  0.2653  0.5901 -0.4629
 4974SOL    HW219662   1.022   1.809   4.149  1.0300  0.0407  1.1592
 4974SOL    HW319663   1.083   1.686   4.085  0.3989  0.5853 -0.5752
 4974SOL    MW419664   1.087   1.770   4.105  0.0010 -0.3521  0.3606
 4975SOL     OW19665   5.713   1.986   2.859  0.5542  0.5519 -0.4231
 4975SOL    HW219666   5.733   2.080   2.861  1.8281  0.3040 -0.6406
 4975SOL    HW319667   5.738   1.954   2.946 -0.3074  0.4828 -0.1903
 4975SOL    MW419668   5.719   1.994   2.870  0.1976 -0.3867 -0.0580
 4976SOL     OW19669   0.608   4.596   1.045 -0.4129 -0.6012  0.4538
 4976SOL    HW219670   0.689   4.604   1.097  1.3513 -0.5575 -2.1060
 4976SOL    HW319671   0.612   4.669   0.984 -1.5937 -1.5099 -0.7553
 4976SOL    MW419672   0.619   4.606   1.044  0.1600 -0.5924  0.3374
 4977SOL     OW19673   2.789   4.541   6.382 -0.6361  0.5986 -0.8637
 4977SOL    HW219674   2.765   4.472   6.320 -0.1145  1.1078 -1.6346
 4977SOL    HW319675   2.868   4.508   6.425 -0.2560  0.8167 -1.3961
 4977SOL    MW419676   2.796   4.527   6.380  0.1338  0.0979  0.2817
 4978SOL     OW19677   4.862   0.397   4.275 -0.2529 -0.3461  0.4552
 4978SOL    HW219678   4.771   0.414   4.303  0.5340  1.9786  1.9439
 4978SOL    HW319679   4.853   0.344   4.196 -2.9141 -0.1940  0.5410
 4978SOL    MW419680   4.849   0.393   4.269  0.0908  0.4208  0.2819
 4979SOL     OW19681   1.265   0.750   1.521 -0.1002 -0.0453  0.4352
 4979SOL    HW219682   1.341   0.803   1.498  1.5029 -1.3581  2.4032
 4979SOL    HW319683   1.275   0.669   1.472 -0.6760  0.0763  0.1014
 4979SOL    MW419684   1.276   0.746   1.512  0.3591 -0.0302  0.3707
 4980SOL     OW19685   5.180   5.672   4.108  0.2901 -1.0395  0.5201
 4980SOL    HW219686   5.242   5.703   4.042  0.2195  0.4620  1.1169
 4980SOL    HW319687   5.113   5.740   4.112  0.2123 -1.1592  2.0091
 4980SOL    MW419688   5.179   5.685   4.100  0.1950  0.1326  0.0629
 4981SOL     OW19689   4.145   5.638   3.358 -0.0126  0.2847 -0.9089
 4981SOL    HW219690   4.171   5.730   3.359 -0.0557  0.2944 -0.3093
 4981SOL    HW319691   4.067   5.634   3.412 -0.5619  0.0474 -1.7045
 4981SOL    MW419692   4.138   5.649   3.365  0.2140  0.2016 -0.8940
 4982SOL     OW19693   5.706   6.365   2.668 -0.1884  0.2560  0.3630
 4982SOL    HW219694   5.743   6.397   2.751 -1.0831  1.2162  0.4197
 4982SOL    HW319695   5.782   6.338   2.617  0.3394 -1.1225  1.7918
 4982SOL    MW419696   5.721   6.366   2.672 -0.3967 -0.0558 -0.1882
 4983SOL     OW19697   5.592   0.394   3.781  0.4228 -0.5579  0.0379
 4983SOL    HW219698   5.597   0.338   3.859 -0.6109  0.8168  1.1407
 4983SOL    HW319699   5.675   0.441   3.779 -0.3830  1.0701  1.6836
 4983SOL    MW419700   5.603   0.393   3.791 -0.6366 -0.2509 -0.0439
 4984SOL     OW19701   4.162   2.302   0.965 -0.3605 -0.2801  0.4083
 4984SOL    HW219702   4.157   2.360   0.889  1.5801  1.7163  1.6421
 4984SOL    HW319703   4.187   2.217   0.929 -3.7672 -0.6122 -1.5242
 4984SOL    MW419704   4.165   2.299   0.950  0.3207 -0.0398  0.0093
 4985SOL     OW19705   2.977   3.889   5.815  0.0894 -0.1788  0.6476
 4985SOL    HW219706   3.048   3.858   5.872  0.2722 -0.2539  0.3768
 4985SOL    HW319707   2.960   3.978   5.845  0.9701  0.1936  0.0684
 4985SOL    MW419708   2.984   3.897   5.827 -0.2757 -0.3810 -0.8543
 4986SOL     OW19709   2.050   4.683   1.369 -0.4758 -0.2241  1.1704
 4986SOL    HW219710   2.045   4.613   1.435  1.0073 -1.7702 -0.2566
 4986SOL    HW319711   2.034   4.639   1.286 -0.1497  1.2796  0.2780
 4986SOL    MW419712   2.047   4.668   1.367 -0.1861  0.3136  0.4318
 4987SOL     OW19713   3.900   5.845   2.105  0.2891 -0.2479 -0.3700
 4987SOL    HW219714   3.862   5.850   2.017  0.5133  1.1024 -0.4053
 4987SOL    HW319715   3.994   5.849   2.091  0.3682 -0.9581 -0.1097
 4987SOL    MW419716   3.907   5.846   2.091 -0.1153 -0.3136  0.6969
 4988SOL     OW19717   5.523   0.308   0.873  0.2538 -0.2648 -0.1172
 4988SOL    HW219718   5.542   0.232   0.817  0.0021 -1.6246  1.5520
 4988SOL    HW319719   5.603   0.360   0.872  0.8517 -1.1743 -0.3575
 4988SOL    MW419720   5.536   0.305   0.865 -0.2309  0.0983  0.1603
 4989SOL     OW19721   2.435   4.497   2.621  0.0999  0.4180 -0.4997
 4989SOL    HW219722   2.381   4.545   2.559 -0.6996 -0.5969 -0.6062
 4989SOL    HW319723   2.421   4.541   2.705 -0.8107  0.2247 -0.5467
 4989SOL    MW419724   2.426   4.509   2.624 -0.3870  0.0719 -0.5358
 4990SOL     OW19725   4.945   5.235   1.246  0.3929 -0.0662  0.1535
 4990SOL    HW219726   4.897   5.244   1.163  0.4857  0.4969  0.1517
 4990SOL    HW319727   4.966   5.142   1.252 -1.0131 -0.4026  0.3395
 4990SOL    MW419728   4.941   5.224   1.236  0.1861 -0.0334 -0.3767
 4991SOL     OW19729   3.222   1.767   6.425 -0.8184 -0.2625 -0.8919
 4991SOL    HW219730   3.157   1.771   6.495  1.5263 -2.7507  1.7097
 4991SOL    HW319731   3.206   1.683   6.382  0.1311 -0.5270 -0.7545
 4991SOL    MW419732   3.211   1.756   6.429  0.0874  0.0913 -0.7579
 4992SOL     OW19733   4.398   1.105   1.939  0.0784 -0.1426  0.1705
 4992SOL    HW219734   4.314   1.103   1.985 -0.6456 -2.0736 -1.0924
 4992SOL    HW319735   4.409   1.197   1.913 -1.3967  0.2387  0.7890
 4992SOL    MW419736   4.388   1.117   1.942 -0.3193 -0.0052  0.1590
 4993SOL     OW19737   1.198   2.837   3.619 -0.9026  0.7152 -0.3745
 4993SOL    HW219738   1.271   2.889   3.652  0.1434 -1.4369  0.8996
 4993SOL    HW319739   1.239   2.758   3.583 -2.6101 -0.9640  1.2017
 4993SOL    MW419740   1.213   2.833   3.618 -0.2012  0.5462 -0.4853
 4994SOL     OW19741   5.700   5.200   1.248 -0.7447  0.1399  0.4853
 4994SOL    HW219742   5.773   5.229   1.303  0.8732  1.2954 -2.0824
 4994SOL    HW319743   5.650   5.140   1.304  2.2108 -0.8068  2.3276
 4994SOL    MW419744   5.703   5.196   1.263  0.4891  0.8611  0.1204
 4995SOL     OW19745   6.119   0.212   1.254 -0.5204 -0.2228 -0.0509
 4995SOL    HW219746   6.082   0.295   1.281  0.2154  0.0376  0.1774
 4995SOL    HW319747   6.056   0.176   1.191 -1.4307 -0.0626  0.7588
 4995SOL    MW419748   6.106   0.218   1.249  0.5009  0.1826 -0.3153
 4996SOL     OW19749   6.137   5.412   6.257  0.2323 -0.0118 -0.3641
 4996SOL    HW219750   6.179   5.360   6.188  0.1291 -1.5903  0.7256
 4996SOL    HW319751   6.207   5.470   6.288  0.7776 -0.5140 -0.6209
 4996SOL    MW419752   6.152   5.413   6.252  0.0462  0.2768  0.8450
 4997SOL     OW19753   0.539   0.668   1.726 -0.0753 -0.6300  0.4175
 4997SOL    HW219754   0.572   0.750   1.764 -1.9800 -0.5478  2.0911
 4997SOL    HW319755   0.618   0.620   1.700  1.0964  1.6350 -0.4462
 4997SOL    MW419756   0.554   0.672   1.728  0.6034 -0.6781  0.5033
 4998SOL     OW19757   3.811   5.923   5.158  0.0604 -0.1455  0.0072
 4998SOL    HW219758   3.856   6.006   5.143  1.0077 -0.6821 -0.1819
 4998SOL    HW319759   3.763   5.936   5.240  1.2807  0.1667  0.7009
 4998SOL    MW419760   3.811   5.935   5.167 -0.2374  0.2436 -0.6980
 4999SOL     OW19761   1.391   0.699   6.429  0.0658  0.0086 -0.4866
 4999SOL    HW219762   1.452   0.733   6.495  0.4897  0.0343 -0.8891
 4999SOL    HW319763   1.323   0.655   6.480  0.3633  0.0745 -0.0283
 4999SOL    MW419764   1.390   0.697   6.445 -0.4525 -0.2022 -0.0742
 5000SOL     OW19765   0.407   5.447   2.035  0.0154 -0.7694  0.8835
 5000SOL    HW219766   0.436   5.362   2.003 -0.4010 -1.5417  2.4497
 5000SOL    HW319767   0.488   5.491   2.062  0.1938 -0.8344  0.4579
 5000SOL    MW419768   0.421   5.442   2.034 -0.1473  0.3759  0.2597
 5001SOL     OW19769   2.600   6.028   3.193 -0.6620 -0.3001 -0.6024
 5001SOL    HW219770   2.661   5.960   3.222 -1.8850 -1.6708 -1.1266
 5001SOL    HW319771   2.609   6.098   3.258 -0.6888 -1.7412  1.0198
 5001SOL    MW419772   2.609   6.028   3.205  0.4788 -0.4709  0.1320
 5002SOL     OW19773   6.063   0.076   4.706  0.6475  0.1263 -0.2660
 5002SOL    HW219774   6.068   0.145   4.640  0.6610  0.7760  0.3998
 5002SOL    HW319775   5.982   0.030   4.686  1.1080 -0.2832 -1.2951
 5002SOL    MW419776   6.053   0.079   4.694 -0.5966 -0.0602  0.2526
 5003SOL     OW19777   4.722   4.807   3.082 -0.7197  0.5599  0.1656
 5003SOL    HW219778   4.812   4.790   3.111 -0.6972 -1.1330 -0.7621
 5003SOL    HW319779   4.731   4.849   2.997 -0.7683 -0.8516 -0.5674
 5003SOL    MW419780   4.735   4.810   3.075  0.0808  0.7879  0.2414
 5004SOL     OW19781   1.919   3.398   0.828 -0.2169 -0.3351 -0.5586
 5004SOL    HW219782   1.932   3.375   0.920 -1.4041 -0.7385 -0.4757
 5004SOL    HW319783   1.973   3.336   0.779  0.4658 -0.0824 -0.1478
 5004SOL    MW419784   1.928   3.387   0.834 -0.3107 -0.3805 -1.0028
 5005SOL     OW19785   3.771   1.341   6.178  0.1326  0.6365 -0.3636
 5005SOL    HW219786   3.840   1.390   6.222 -1.2438  2.2657  0.0732
 5005SOL    HW319787   3.709   1.407   6.148 -1.8361 -0.7947  0.2994
 5005SOL    MW419788   3.772   1.356   6.180  0.5672 -0.1823 -0.2930
 5006SOL     OW19789   5.940   4.363   5.491 -0.0305 -0.1958  0.2145
 5006SOL    HW219790   5.870   4.298   5.481  1.0346 -1.1871 -1.0559
 5006SOL    HW319791   5.989   4.359   5.409  0.4959  1.7281  0.3874
 5006SOL    MW419792   5.937   4.354   5.479 -0.1769  0.4324  0.1096
 5007SOL     OW19793   0.134   3.229   1.172 -0.3392 -0.1072  0.0769
 5007SOL    HW219794   0.223   3.238   1.138 -0.4253  2.9212  0.3381
 5007SOL    HW319795   0.115   3.314   1.212 -4.1491  0.2334 -1.9878
 5007SOL    MW419796   0.143   3.242   1.173  0.8366 -0.1770  0.0627
 5008SOL     OW19797   5.917   0.607   5.015 -0.7180  0.1194  0.0287
 5008SOL    HW219798   5.824   0.596   5.036 -0.2384 -2.1619  1.2258
 5008SOL    HW319799   5.963   0.585   5.096  0.9409 -0.1560 -0.9390
 5008SOL    MW419800   5.911   0.603   5.028 -0.1478  0.0965 -0.9556
 5009SOL     OW19801   2.270   0.471   4.290 -0.1322 -0.0701 -0.2342
 5009SOL    HW219802   2.205   0.414   4.250  1.2288 -0.9505 -1.2541
 5009SOL    HW319803   2.290   0.536   4.223  0.3160 -0.0323 -0.0684
 5009SOL    MW419804   2.264   0.472   4.276 -0.0937  0.3037 -0.2515
 5010SOL     OW19805   6.366   1.653   0.968  0.3983 -0.4240  0.2148
 5010SOL    HW219806   6.301   1.582   0.964 -0.6826  0.6216 -1.9739
 5010SOL    HW319807   6.446   1.613   0.934 -0.2656 -0.5922 -1.2465
 5010SOL    MW419808   6.368   1.638   0.963 -0.2786 -0.3096  0.3162
 5011SOL     OW19809   3.681   5.433   4.559 -0.4653 -0.2453  0.5272
 5011SOL    HW219810   3.647   5.399   4.476  1.0165 -1.4482  0.3611
 5011SOL    HW319811   3.624   5.394   4.625  0.5349 -2.2848  0.2627
 5011SOL    MW419812   3.669   5.423   4.556 -0.2769 -0.0713 -0.2138
 5012SOL     OW19813   2.949   6.261   0.899  0.2528 -0.1020  0.2656
 5012SOL    HW219814   2.990   6.175   0.908  0.6099 -0.0559 -0.7980
 5012SOL    HW319815   3.012   6.321   0.940 -0.0198 -0.3424  1.0537
 5012SOL    MW419816   2.963   6.258   0.905 -0.5022 -0.0945  0.0586
 5013SOL     OW19817   2.241   5.629   3.820  0.3074  0.2632  0.5215
 5013SOL    HW219818   2.212   5.649   3.909 -0.4377  0.7940  0.1651
 5013SOL    HW319819   2.214   5.705   3.768 -0.4668 -0.6284 -0.4102
 5013SOL    MW419820   2.234   5.642   3.825 -0.1655 -0.0689 -0.1888
 5014SOL     OW19821   6.456   4.634   0.897  0.2874 -0.0405  0.2809
 5014SOL    HW219822   6.377   4.626   0.951  0.2999 -0.5321  0.2318
 5014SOL    HW319823   6.525   4.593   0.949  0.4611  0.1709  0.2187
 5014SOL    MW419824   6.454   4.627   0.911 -0.1459 -0.0918 -0.2859
 5015SOL     OW19825   4.478   6.309   1.211  0.1272  0.6568  0.0941
 5015SOL    HW219826   4.548   6.254   1.245 -1.0631  0.3804  2.2380
 5015SOL    HW319827   4.523   6.386   1.176  1.5294  0.2793  1.0009
 5015SOL    MW419828   4.493   6.312   1.211  0.3538  0.3767 -0.0198
 5016SOL     OW19829   2.099   1.845   1.025 -0.1565  0.1729 -0.5765
 5016SOL    HW219830   2.127   1.885   1.108 -1.7865 -3.2867  1.9022
 5016SOL    HW319831   2.160   1.773   1.012 -0.5767  0.0256 -1.8113
 5016SOL    MW419832   2.111   1.841   1.034  0.1584 -0.6658  0.2263
 5017SOL     OW19833   4.128   3.575   1.093  0.4964 -0.5676  0.0445
 5017SOL    HW219834   4.104   3.653   1.043  1.1827 -0.5977 -0.3365
 5017SOL    HW319835   4.056   3.514   1.077  1.6618 -1.3721 -2.6691
 5017SOL    MW419836   4.115   3.577   1.084 -0.0411 -0.0241  0.0735
 5018SOL     OW19837   5.003   0.687   0.172  0.0483 -0.3716  0.3896
 5018SOL    HW219838   4.982   0.610   0.226 -1.5570 -1.2967 -1.4425
 5018SOL    HW319839   5.032   0.651   0.089  0.6747  1.0348 -0.0286
 5018SOL    MW419840   5.004   0.672   0.168  0.0940 -0.2547  0.7698
 5019SOL     OW19841   0.901   5.983   1.964  0.0568  0.2038 -0.0520
 5019SOL    HW219842   0.854   5.911   1.922 -0.7039  0.9301 -0.4793
 5019SOL    HW319843   0.851   6.002   2.043 -0.5455  1.1661 -0.6517
 5019SOL    MW419844   0.888   5.976   1.969  0.3027 -0.4654  0.0082
 5020SOL     OW19845   0.220   0.884   2.253 -0.6461 -0.0145 -0.0552
 5020SOL    HW219846   0.239   0.791   2.262 -0.5215 -0.1111 -1.1262
 5020SOL    HW319847   0.148   0.888   2.189 -0.9305  0.5991  0.2887
 5020SOL    MW419848   0.213   0.872   2.246  0.4034 -0.2577 -0.3119
 5021SOL     OW19849   1.450   6.048   2.954 -0.3486 -0.5825  0.2662
 5021SOL    HW219850   1.367   6.069   2.996  1.3263  1.2063  2.9552
 5021SOL    HW319851   1.499   6.130   2.954  2.0794 -1.9250  0.3933
 5021SOL    MW419852   1.445   6.061   2.959 -1.0500  0.8641 -0.1666
 5022SOL     OW19853   5.107   3.438   5.404  0.3340  0.2834  0.0400
 5022SOL    HW219854   5.107   3.388   5.485  1.9082  1.5613  0.8999
 5022SOL    HW319855   5.020   3.478   5.400 -0.6209 -1.7023 -0.1977
 5022SOL    MW419856   5.096   3.436   5.414 -0.1621  0.1333  0.7531
 5023SOL     OW19857   2.574   6.013   2.593 -0.0997 -0.1233  0.4442
 5023SOL    HW219858   2.555   5.948   2.525  1.3356  1.0173 -1.1270
 5023SOL    HW319859   2.655   5.982   2.633  1.0852  1.0929 -0.9168
 5023SOL    MW419860   2.582   6.000   2.589  0.1934 -0.2706 -0.4144
 5024SOL     OW19861   3.832   1.562   2.244 -1.1298  0.5399 -0.0883
 5024SOL    HW219862   3.793   1.511   2.173 -0.5387  1.4028 -1.0573
 5024SOL    HW319863   3.926   1.545   2.237 -1.1020  0.2409  0.8190
 5024SOL    MW419864   3.839   1.553   2.234 -0.1047  0.5526  0.5066
 5025SOL     OW19865   4.551   6.363   3.689 -0.3058 -0.1245 -0.4164
 5025SOL    HW219866   4.484   6.323   3.744  0.8023 -1.3036  0.1121
 5025SOL    HW319867   4.566   6.299   3.620  0.2452  0.1610 -0.5614
 5025SOL    MW419868   4.544   6.349   3.687  0.0429 -0.2711  0.2477
 5026SOL     OW19869   5.069   0.892   1.378 -0.7214  0.3775 -0.2094
 5026SOL    HW219870   5.090   0.907   1.470 -2.5995 -0.4698  0.4011
 5026SOL    HW319871   4.974   0.877   1.377 -0.4748 -1.5149 -2.0310
 5026SOL    MW419872   5.059   0.892   1.390 -0.0937  0.0016 -0.1609
 5027SOL     OW19873   3.832   4.621   3.171  0.2824  0.8187  0.3819
 5027SOL    HW219874   3.866   4.545   3.218  0.5448 -0.7796 -2.1624
 5027SOL    HW319875   3.910   4.672   3.147  0.6106 -0.4599 -1.5564
 5027SOL    MW419876   3.847   4.618   3.174 -0.1593  0.1793  0.7319
 5028SOL     OW19877   2.803   4.257   4.497  0.1718 -0.1624  0.0982
 5028SOL    HW219878   2.877   4.229   4.444 -0.6611  0.7159 -1.5763
 5028SOL    HW319879   2.816   4.350   4.510 -0.5364 -0.0372 -0.0533
 5028SOL    MW419880   2.815   4.265   4.492  0.6748 -0.2757  0.1500
 5029SOL     OW19881   0.237   1.589   4.130  0.0029  0.8130  0.1964
 5029SOL    HW219882   0.177   1.546   4.069 -1.5339  1.5976  1.1083
 5029SOL    HW319883   0.305   1.626   4.074  0.1178 -0.7741 -0.8015
 5029SOL    MW419884   0.238   1.588   4.115  0.0191  0.6656 -0.1561
 5030SOL     OW19885   5.058   4.466   3.534  0.4444 -0.7452  0.5554
 5030SOL    HW219886   4.989   4.526   3.505  0.8417  0.1922  1.4816
 5030SOL    HW319887   5.140   4.511   3.513  0.9002 -2.6042 -2.1807
 5030SOL    MW419888   5.060   4.480   3.527  0.1742 -0.2365 -0.4561
 5031SOL     OW19889   4.522   4.796   5.442 -0.2709  0.1523  0.1862
 5031SOL    HW219890   4.495   4.738   5.370  0.3887 -0.0205  0.0774
 5031SOL    HW319891   4.533   4.881   5.400  0.8804 -0.1166 -0.0788
 5031SOL    MW419892   4.520   4.800   5.427 -0.3857 -0.1945 -0.6504
 5032SOL     OW19893   1.561   6.137   6.241  0.0198 -0.0566 -0.1382
 5032SOL    HW219894   1.527   6.058   6.198 -0.6404 -0.4092  0.9924
 5032SOL    HW319895   1.651   6.144   6.210 -0.5694 -0.0322 -1.9310
 5032SOL    MW419896   1.568   6.127   6.231 -0.5785  0.0944  0.1682
 5033SOL     OW19897   4.277   2.741   5.570  0.5222 -0.1552 -0.3178
 5033SOL    HW219898   4.202   2.792   5.541  0.4153  0.1405  0.4299
 5033SOL    HW319899   4.352   2.801   5.560  0.5697 -0.2456 -0.5065
 5033SOL    MW419900   4.277   2.756   5.565 -0.1671  0.1069 -0.3134
 5034SOL     OW19901   5.272   1.462   6.191  0.4873 -0.2027 -0.9448
 5034SOL    HW219902   5.329   1.538   6.204  1.8034 -1.2707 -0.2673
 5034SOL    HW319903   5.207   1.469   6.260  0.6211  0.2944 -0.8621
 5034SOL    MW419904   5.271   1.473   6.202 -0.1463  0.2374 -0.0231
 5035SOL     OW19905   0.844   2.833   0.078  0.1406 -0.4429  0.1931
 5035SOL    HW219906   0.823   2.755   0.027  1.3776 -1.1492  0.7329
 5035SOL    HW319907   0.916   2.806   0.135  0.8390  1.1946  0.1301
 5035SOL    MW419908   0.851   2.819   0.079  0.0718  0.1435  0.2568
 5036SOL     OW19909   1.871   3.727   2.954 -0.0176 -0.0729 -0.8385
 5036SOL    HW219910   1.778   3.724   2.928  0.3305  0.8947 -2.2784
 5036SOL    HW319911   1.918   3.747   2.873  1.2828  1.4152  0.2348
 5036SOL    MW419912   1.865   3.729   2.940 -0.2415  0.1401 -0.0193
 5037SOL     OW19913   0.712   5.042   4.702 -0.0100  0.1791  0.7796
 5037SOL    HW219914   0.807   5.039   4.713  0.2883  1.1614 -1.0599
 5037SOL    HW319915   0.681   4.956   4.732  1.5187 -0.3958  0.7939
 5037SOL    MW419916   0.720   5.030   4.707 -0.0429 -0.9279  0.8600
 5038SOL     OW19917   5.344   3.056   0.093  0.3505  0.5131 -0.2332
 5038SOL    HW219918   5.273   2.992   0.085  1.2514 -0.3167 -2.6386
 5038SOL    HW319919   5.322   3.122   0.027  1.8779  0.1068 -1.1911
 5038SOL    MW419920   5.331   3.056   0.083 -0.1786 -0.9701 -0.1006
 5039SOL     OW19921   1.416   2.504   5.782  0.8498 -0.0373  0.4130
 5039SOL    HW219922   1.404   2.421   5.829 -0.6108  0.5750  1.1951
 5039SOL    HW319923   1.340   2.557   5.807 -0.5464  0.0429 -3.3459
 5039SOL    MW419924   1.404   2.500   5.792  0.0457 -0.7603  0.0906
 5040SOL     OW19925   4.997   2.662   1.044  0.1841 -0.2609 -0.0979
 5040SOL    HW219926   4.976   2.593   0.981 -0.1496  0.7238 -1.1204
 5040SOL    HW319927   5.032   2.733   0.990  0.3708  0.4280  0.8985
 5040SOL    MW419928   4.999   2.663   1.028  0.0727  0.1090  0.8417
 5041SOL     OW19929   3.948   5.827   2.895  0.0776 -0.6036 -0.5032
 5041SOL    HW219930   3.970   5.858   2.807 -0.9972  1.1914 -0.1855
 5041SOL    HW319931   3.954   5.732   2.889  0.5134 -0.4933 -2.3759
 5041SOL    MW419932   3.952   5.819   2.883 -0.9538  0.2041 -0.1849
 5042SOL     OW19933   3.681   1.391   2.733 -0.2775  0.2916 -0.3157
 5042SOL    HW219934   3.601   1.444   2.738 -1.3963 -1.1000 -2.1816
 5042SOL    HW319935   3.752   1.454   2.749 -1.6379  1.9737 -0.5310
 5042SOL    MW419936   3.680   1.406   2.735 -0.4806  0.2005  0.0725
 5043SOL     OW19937   0.257   0.488   4.244  0.5597  0.1758  0.5420
 5043SOL    HW219938   0.351   0.472   4.242  0.2201 -2.0882 -0.8443
 5043SOL    HW319939   0.232   0.473   4.335  1.3587 -0.4528  0.6657
 5043SOL    MW419940   0.266   0.484   4.256  0.4105  0.4831 -0.6391
 5044SOL     OW19941   6.348   0.181   5.365 -0.2005  0.5364 -0.6225
 5044SOL    HW219942   6.258   0.201   5.390  0.3138  2.6202 -0.3015
 5044SOL    HW319943   6.395   0.175   5.447  0.3066  1.3569 -0.8405
 5044SOL    MW419944   6.342   0.183   5.379 -0.4207  0.0587 -0.3266
 5045SOL     OW19945   0.781   2.943   5.728 -0.4802  0.1794  0.2182
 5045SOL    HW219946   0.811   2.890   5.654 -0.3131  0.3033  0.1948
 5045SOL    HW319947   0.786   3.033   5.697 -3.9637  0.1200 -0.9228
 5045SOL    MW419948   0.786   2.948   5.714 -0.2595 -0.1116  0.0975
 5046SOL     OW19949   4.313   6.275   3.425  0.5316  0.0890  0.0244
 5046SOL    HW219950   4.262   6.253   3.347  1.3382 -0.4270 -0.3723
 5046SOL    HW319951   4.350   6.361   3.406  0.3460  0.1710  0.0337
 5046SOL    MW419952   4.311   6.284   3.412 -0.2731  0.4338 -0.5270
 5047SOL     OW19953   3.621   4.163   0.778  0.6046  0.2366  0.1556
 5047SOL    HW219954   3.679   4.093   0.746 -0.4164 -1.1954  1.3162
 5047SOL    HW319955   3.567   4.121   0.845 -0.3910  2.0370  0.5456
 5047SOL    MW419956   3.622   4.148   0.783 -0.5901 -0.3252 -0.3870
 5048SOL     OW19957   1.035   4.123   0.385 -0.2427 -0.1042 -0.5484
 5048SOL    HW219958   1.006   4.203   0.340 -1.2051  0.8895  1.6775
 5048SOL    HW319959   0.975   4.055   0.353 -1.0991  0.6335 -0.5792
 5048SOL    MW419960   1.023   4.125   0.375 -0.9295  0.0838 -0.1450
 5049SOL     OW19961   6.201   0.381   3.727  0.5313  0.0451  0.1290
 5049SOL    HW219962   6.259   0.418   3.794 -2.3158  1.5873  1.9987
 5049SOL    HW319963   6.161   0.305   3.770 -0.0414  0.0024 -0.4666
 5049SOL    MW419964   6.203   0.376   3.742 -0.6686 -0.3447  0.6409
 5050SOL     OW19965   4.761   0.478   3.795  0.0403 -0.3054 -0.1069
 5050SOL    HW219966   4.761   0.467   3.700  0.8847  1.7779 -0.4013
 5050SOL    HW319967   4.825   0.547   3.811  0.1680 -0.8411  2.0269
 5050SOL    MW419968   4.770   0.486   3.785  0.1490  0.4937  0.5265
 5051SOL     OW19969   0.226   2.148   2.926  0.0122  0.2086  0.7746
 5051SOL    HW219970   0.219   2.195   2.843  0.5292 -1.1334 -0.0535
 5051SOL    HW319971   0.161   2.189   2.983 -0.4960  1.0023 -0.3562
 5051SOL    MW419972   0.217   2.160   2.923 -0.2181 -0.0478  0.9044
 5052SOL     OW19973   5.697   5.306   4.716  0.5398  0.2608  0.2509
 5052SOL    HW219974   5.792   5.306   4.702  0.6277  0.0592  0.8251
 5052SOL    HW319975   5.687   5.328   4.808  0.0646 -0.7355  0.4473
 5052SOL    MW419976   5.708   5.309   4.726 -0.4394  0.3608 -0.2025
 5053SOL     OW19977   2.170   2.327   3.738  0.0802 -0.4195 -0.1971
 5053SOL    HW219978   2.207   2.393   3.797 -0.9900 -0.7050  0.8179
 5053SOL    HW319979   2.087   2.365   3.709  0.2196 -0.6334 -0.8952
 5053SOL    MW419980   2.164   2.341   3.742 -0.5906  0.1215  0.0887
 5054SOL     OW19981   0.298   0.471   2.665 -0.3087  0.0042 -0.3430
 5054SOL    HW219982   0.323   0.382   2.689 -1.7033  0.1210  1.8463
 5054SOL    HW319983   0.343   0.487   2.582  1.7630 -1.9100  0.3097
 5054SOL    MW419984   0.307   0.461   2.657  0.2198 -0.7634 -0.5128
 5055SOL     OW19985   2.237   1.019   6.071  0.3732 -0.2110 -0.1967
 5055SOL    HW219986   2.314   0.971   6.039  0.1272 -1.0236  0.3985
 5055SOL    HW319987   2.218   0.979   6.156 -1.1425 -0.4928 -0.6538
 5055SOL    MW419988   2.245   1.008   6.078  0.0138 -0.0139  0.1101
 5056SOL     OW19989   4.373   3.160   3.784  0.2089  0.1790  0.1884
 5056SOL    HW219990   4.366   3.233   3.723  1.3274 -0.2011 -0.4172
 5056SOL    HW319991   4.358   3.199   3.870  2.9863  1.6123  0.1321
 5056SOL    MW419992   4.370   3.174   3.788 -0.2338 -0.9969 -0.4213
 5057SOL     OW19993   2.277   6.165   4.071 -1.2827  0.2672 -0.0528
 5057SOL    HW219994   2.227   6.084   4.058 -0.5799  0.0544 -1.7296
 5057SOL    HW319995   2.366   6.143   4.041 -1.1347  1.7065 -0.7763
 5057SOL    MW419996   2.282   6.151   4.065 -0.4120  0.5810 -0.3834
 5058SOL     OW19997   0.461   1.635   2.310  0.4238  0.3867  0.1477
 5058SOL    HW219998   0.424   1.590   2.234 -0.4091  3.0706 -1.1854
 5058SOL    HW319999   0.385   1.676   2.353  1.0457 -0.0075  1.6997
 5058SOL    MW420000   0.446   1.634   2.306  0.2985  0.1085  0.2973
 5059SOL     OW20001   4.015   4.170   0.987  0.3911  0.4166  0.2570
 5059SOL    HW220002   4.042   4.206   0.903  0.3899  2.1985  0.9647
 5059SOL    HW320003   3.942   4.112   0.966 -0.0476  1.3393 -0.9182
 5059SOL    MW420004   4.009   4.167   0.973 -0.4244 -0.1511  0.3540
 5060SOL     OW20005   2.727   6.019   1.122  0.3181  0.3009  0.0466
 5060SOL    HW220006   2.670   6.022   1.199 -0.3405 -0.8712 -0.3554
 5060SOL    HW320007   2.812   5.989   1.156 -0.5548 -2.4021  0.0733
 5060SOL    MW420008   2.731   6.015   1.137  0.3313 -0.5105 -0.2877
 5061SOL     OW20009   5.484   2.254   0.928  0.3655 -0.2538 -0.2287
 5061SOL    HW220010   5.391   2.274   0.935  0.9155  2.9609 -0.3393
 5061SOL    HW320011   5.514   2.249   1.018  0.4861  1.3858 -0.1407
 5061SOL    MW420012   5.476   2.256   0.941 -0.6798 -0.9161  0.1491
 5062SOL     OW20013   3.124   3.129   1.797 -0.1173  0.1692 -0.1027
 5062SOL    HW220014   3.193   3.195   1.791  0.2154  0.4151  3.9613
 5062SOL    HW320015   3.122   3.088   1.710  3.1404  2.0836 -1.2304
 5062SOL    MW420016   3.133   3.132   1.785 -0.5252 -0.4224 -0.0220
 5063SOL     OW20017   4.225   2.620   0.951 -0.3869  0.3935 -0.8525
 5063SOL    HW220018   4.251   2.565   1.025  2.1344 -0.5633 -2.3452
 5063SOL    HW320019   4.130   2.605   0.943 -0.7265  0.4439  2.0277
 5063SOL    MW420020   4.216   2.611   0.960 -0.1642  0.1203  0.3113
 5064SOL     OW20021   0.957   2.423   3.590 -0.3892 -0.7162 -0.0765
 5064SOL    HW220022   0.891   2.355   3.603  0.1130 -0.8668  2.1185
 5064SOL    HW320023   1.005   2.426   3.673  1.1366  0.6975 -0.9476
 5064SOL    MW420024   0.954   2.414   3.602 -0.6288 -0.1454  0.2535
 5065SOL     OW20025   3.985   0.986   0.603  0.2857 -0.4162 -0.2405
 5065SOL    HW220026   4.021   1.075   0.609 -0.0810 -0.1445 -1.6670
 5065SOL    HW320027   3.940   0.973   0.686  2.6894 -0.3508  1.1758
 5065SOL    MW420028   3.984   0.996   0.615 -0.2897 -0.5239  0.4227
 5066SOL     OW20029   1.420   5.884   0.799 -0.4199  0.1855  0.3578
 5066SOL    HW220030   1.496   5.935   0.826 -0.7462  0.2342  1.2243
 5066SOL    HW320031   1.406   5.823   0.872 -0.8486 -0.2233 -0.0625
 5066SOL    MW420032   1.429   5.882   0.813 -0.3585 -0.1542 -0.3365
 5067SOL     OW20033   4.742   6.142   5.571 -0.5329 -0.3766  0.4135
 5067SOL    HW220034   4.752   6.050   5.547  1.4806  0.1189 -0.9183
 5067SOL    HW320035   4.760   6.145   5.665 -0.1275 -1.2842  0.3741
 5067SOL    MW420036   4.746   6.131   5.580 -0.0050  0.0782  0.1244
 5068SOL     OW20037   0.550   4.854   4.174  0.7182  0.0186 -0.2933
 5068SOL    HW220038   0.535   4.760   4.173 -2.0558  0.3286  1.3838
 5068SOL    HW320039   0.512   4.885   4.092  0.0163 -0.1499 -0.0366
 5068SOL    MW420040   0.543   4.846   4.163  0.0490  0.0165  0.3783
 5069SOL     OW20041   2.046   1.915   0.318 -0.0919  0.1765 -0.0500
 5069SOL    HW220042   2.016   1.826   0.302  1.1713 -0.4047  0.6852
 5069SOL    HW320043   1.966   1.964   0.335 -0.8191 -0.7766 -0.5949
 5069SOL    MW420044   2.031   1.910   0.318  0.0004  0.4173 -0.0624
 5070SOL     OW20045   5.841   5.730   4.066  0.0342 -0.5295  0.3712
 5070SOL    HW220046   5.791   5.800   4.025  1.5353 -1.4161 -3.3593
 5070SOL    HW320047   5.929   5.767   4.080  0.1714 -0.9507  0.6571
 5070SOL    MW420048   5.846   5.744   4.063 -0.2544  1.0133 -0.0913
 5071SOL     OW20049   0.683   2.602   3.092  0.6871 -0.3425  0.2208
 5071SOL    HW220050   0.676   2.693   3.063  1.8066 -0.4993 -0.5929
 5071SOL    HW320051   0.729   2.608   3.176 -0.4184 -0.0724  0.8245
 5071SOL    MW420052   0.688   2.615   3.099  0.4231 -0.0086 -0.2904
 5072SOL     OW20053   3.031   1.617   0.546  0.8379  0.2628 -0.3554
 5072SOL    HW220054   2.966   1.669   0.593 -3.3490 -0.5663 -4.4878
 5072SOL    HW320055   3.074   1.680   0.488 -0.2785  0.0286 -1.4662
 5072SOL    MW420056   3.028   1.632   0.545 -0.1489 -0.3411  0.4873
 5073SOL     OW20057   3.906   2.443   4.313  0.1232  0.3311 -0.3070
 5073SOL    HW220058   3.876   2.361   4.353 -0.1183 -0.0802 -1.3133
 5073SOL    HW320059   4.001   2.440   4.321  0.1165 -0.0556 -0.3656
 5073SOL    MW420060   3.914   2.432   4.319 -0.4991 -0.5394 -0.3531
 5074SOL     OW20061   6.377   4.340   2.399 -0.2627 -0.1385 -0.4200
 5074SOL    HW220062   6.370   4.380   2.486 -0.2244 -0.2421 -0.3687
 5074SOL    HW320063   6.455   4.379   2.361 -0.7850  0.5922 -0.7683
 5074SOL    MW420064   6.386   4.350   2.406 -0.4388 -0.2305 -0.1176
 5075SOL     OW20065   1.985   5.745   2.014 -0.3752  1.2860 -0.1325
 5075SOL    HW220066   2.032   5.681   1.960 -1.1114  1.8788 -1.5160
 5075SOL    HW320067   1.928   5.692   2.069  0.1861  0.6769 -0.1197
 5075SOL    MW420068   1.984   5.730   2.014 -0.1696  0.2975  0.3255
 5076SOL     OW20069   2.452   0.373   1.274 -0.1391 -0.5292  0.6815
 5076SOL    HW220070   2.544   0.359   1.293 -0.3332 -0.6102  1.5794
 5076SOL    HW320071   2.423   0.292   1.232  0.1030 -0.6559  0.7619
 5076SOL    MW420072   2.460   0.361   1.271  0.6727 -0.3325  0.2780
 5077SOL     OW20073   3.233   5.803   3.966 -1.0780 -0.3215  0.7223
 5077SOL    HW220074   3.231   5.714   3.929  0.9561  0.0522 -0.4374
 5077SOL    HW320075   3.157   5.846   3.928 -0.2075 -0.5843 -1.4675
 5077SOL    MW420076   3.223   5.797   3.956  0.3934  0.1924 -0.0022
 5078SOL     OW20077   1.010   3.712   4.826  0.4239 -0.2073  0.0428
 5078SOL    HW220078   1.039   3.778   4.889  2.1168 -0.0901 -0.8050
 5078SOL    HW320079   0.958   3.762   4.763  0.4460  0.0504  0.2258
 5078SOL    MW420080   1.007   3.728   4.826  0.4208  0.5759 -0.6225
 5079SOL     OW20081   4.610   1.248   2.612 -0.1245 -0.2329  0.0645
 5079SOL    HW220082   4.539   1.307   2.636 -1.2465 -1.4697 -0.1168
 5079SOL    HW320083   4.663   1.297   2.549 -2.1875 -0.1417 -1.6710
 5079SOL    MW420084   4.608   1.262   2.607  0.2928  0.3999 -0.8367
 5080SOL     OW20085   0.689   2.700   1.194  0.0737  0.2348  0.6186
 5080SOL    HW220086   0.602   2.672   1.165 -0.3463  1.9239  0.1219
 5080SOL    HW320087   0.688   2.689   1.289  0.0063 -1.5309  0.4383
 5080SOL    MW420088   0.678   2.695   1.202  0.3594  0.0331 -0.2934
 5081SOL     OW20089   3.248   2.416   1.265 -0.3156  0.4243  0.6612
 5081SOL    HW220090   3.198   2.344   1.303  0.3182 -0.2487  0.2387
 5081SOL    HW320091   3.329   2.419   1.317 -0.8964  1.7070  1.5488
 5081SOL    MW420092   3.252   2.407   1.277 -0.3867  0.4544  1.0679
 5082SOL     OW20093   4.084   4.754   4.457  0.3664  0.7189  0.2474
 5082SOL    HW220094   4.142   4.830   4.457 -0.0125  1.0079 -0.0133
 5082SOL    HW320095   4.131   4.689   4.510  0.0528  1.6110  1.6784
 5082SOL    MW420096   4.098   4.755   4.464 -0.0082  0.0192 -0.4974
 5083SOL     OW20097   3.877   4.432   0.840  0.0308 -0.2841 -0.3939
 5083SOL    HW220098   3.889   4.390   0.755  2.0585 -1.2097  0.2779
 5083SOL    HW320099   3.834   4.365   0.893  2.4397 -1.3109  0.4124
 5083SOL    MW420100   3.873   4.417   0.836  0.5874 -0.6114  0.2874
 5084SOL     OW20101   0.870   6.199   1.087 -0.7895  0.6010  0.1884
 5084SOL    HW220102   0.786   6.215   1.043 -0.2247  0.9260 -0.7995
 5084SOL    HW320103   0.924   6.155   1.021 -0.3220 -0.0251  0.9597
 5084SOL    MW420104   0.866   6.195   1.073 -0.5920 -0.0193  0.1684
 5085SOL     OW20105   1.847   5.923   2.675  0.0882 -0.3864 -0.6376
 5085SOL    HW220106   1.871   5.910   2.766 -1.7203  3.2591  0.5608
 5085SOL    HW320107   1.775   5.861   2.659 -0.0416 -0.5860  0.6427
 5085SOL    MW420108   1.840   5.913   2.685 -0.4692 -0.1226 -0.5466
 5086SOL     OW20109   4.140   3.399   3.143  0.7732  0.4613 -0.0808
 5086SOL    HW220110   4.204   3.375   3.209  1.1074  0.7997 -0.2744
 5086SOL    HW320111   4.071   3.445   3.191  0.4308 -0.3327  0.1976
 5086SOL    MW420112   4.139   3.402   3.158  0.0669  0.4020  0.0046
 5087SOL     OW20113   4.201   2.944   3.740  0.6583  0.0934 -0.0563
 5087SOL    HW220114   4.260   3.018   3.752  1.6165 -0.4113 -1.3913
 5087SOL    HW320115   4.113   2.981   3.748  1.1063  1.5016 -1.3459
 5087SOL    MW420116   4.197   2.958   3.743  0.2388  0.2427 -0.3203
 5088SOL     OW20117   5.837   1.186   3.254 -0.6191 -0.1070 -0.2415
 5088SOL    HW220118   5.751   1.217   3.226  0.8490  2.7034 -2.1139
 5088SOL    HW320119   5.850   1.103   3.208 -1.9253 -0.0674 -0.6973
 5088SOL    MW420120   5.828   1.179   3.245  0.2570  0.0307  0.2038
 5089SOL     OW20121   3.139   2.354   5.561  0.5847 -0.3510  0.1317
 5089SOL    HW220122   3.062   2.388   5.516 -0.6876  0.8900  3.0129
 5089SOL    HW320123   3.120   2.262   5.575  0.6180 -0.5480 -1.0139
 5089SOL    MW420124   3.126   2.347   5.557 -0.1968 -0.0584  0.3481
 5090SOL     OW20125   1.125   3.042   1.778  0.5881 -0.8682  0.0357
 5090SOL    HW220126   1.187   2.970   1.787  1.3542 -0.2489 -0.0965
 5090SOL    HW320127   1.178   3.121   1.793 -0.4747 -0.3703  1.4835
 5090SOL    MW420128   1.140   3.043   1.782  0.1480  0.2353 -0.3856
 5091SOL     OW20129   2.001   0.213   6.221 -0.3139 -0.2386  0.0166
 5091SOL    HW220130   2.055   0.246   6.293 -1.9128  0.8453  0.7813
 5091SOL    HW320131   1.974   0.126   6.250 -1.4742  0.4353  1.0859
 5091SOL    MW420132   2.005   0.206   6.235 -0.0576 -0.1975  0.0221
 5092SOL     OW20133   4.948   1.299   0.893 -0.0257 -0.0470  0.2134
 5092SOL    HW220134   4.888   1.244   0.943  0.2491  0.9690  1.7174
 5092SOL    HW320135   5.021   1.316   0.953 -0.6002  2.8375  0.2176
 5092SOL    MW420136   4.950   1.294   0.908 -0.6366 -0.3954 -0.9732
 5093SOL     OW20137   0.113   5.021   5.906 -0.6945  0.2479  0.1100
 5093SOL    HW220138   0.019   5.033   5.919 -0.4307  1.4713  1.1888
 5093SOL    HW320139   0.148   5.003   5.993  0.2304  1.2400 -0.0161
 5093SOL    MW420140   0.106   5.020   5.919  0.2055  0.4315  0.0503
 5094SOL     OW20141   3.197   0.305   2.309  0.1008 -0.2614  0.3896
 5094SOL    HW220142   3.134   0.295   2.381  1.3863 -1.3938  1.4357
 5094SOL    HW320143   3.282   0.288   2.350  0.7660 -2.5786 -1.6712
 5094SOL    MW420144   3.200   0.301   2.324  0.0490 -0.1193  0.3321
 5095SOL     OW20145   2.798   4.833   0.749  0.2385  0.0770  0.0261
 5095SOL    HW220146   2.775   4.811   0.839  2.4490 -0.6274  0.4946
 5095SOL    HW320147   2.771   4.924   0.738 -0.3676  0.0676  1.2851
 5095SOL    MW420148   2.791   4.842   0.759  0.6017  0.0015  0.1660
 5096SOL     OW20149   3.792   3.751   2.003  0.4487 -0.2539  0.0174
 5096SOL    HW220150   3.718   3.730   2.059  1.0101 -1.2394  0.4093
 5096SOL    HW320151   3.791   3.847   1.997 -0.1721 -0.1889  0.9320
 5096SOL    MW420152   3.782   3.761   2.009 -0.5922 -0.4521  0.1683
 5097SOL     OW20153   6.183   0.128   0.330 -0.1187 -0.3005  0.4895
 5097SOL    HW220154   6.171   0.044   0.287 -0.9131 -0.0186  0.1631
 5097SOL    HW320155   6.204   0.189   0.260  0.3230 -0.1886  0.7106
 5097SOL    MW420156   6.185   0.125   0.315 -0.2489 -0.0017  0.1342
 5098SOL     OW20157   5.756   3.138   0.586  0.5436  0.1790 -0.3495
 5098SOL    HW220158   5.840   3.171   0.617  0.7719 -0.8732  0.2196
 5098SOL    HW320159   5.737   3.063   0.643 -0.2251 -0.2995 -1.2020
 5098SOL    MW420160   5.764   3.132   0.597 -0.0404  0.1667  0.5961
 5099SOL     OW20161   6.395   4.056   2.136  0.5036  0.5478  0.7668
 5099SOL    HW220162   6.381   4.047   2.042 -0.3078 -0.6330  0.9779
 5099SOL    HW320163   6.462   4.123   2.144 -0.4380  1.7059 -0.5892
 5099SOL    MW420164   6.402   4.064   2.125  0.1093  0.7456  0.1034
 5100SOL     OW20165   0.107   0.224   4.673  0.2068  0.2976  0.1080
 5100SOL    HW220166   0.045   0.269   4.729 -0.7981 -0.1595 -0.6065
 5100SOL    HW320167   0.063   0.142   4.649  0.3283  0.7410 -1.8274
 5100SOL    MW420168   0.093   0.219   4.677  0.3118 -0.3859  1.0732
 5101SOL     OW20169   0.790   1.124   2.758  0.3204  0.2362 -0.1684
 5101SOL    HW220170   0.852   1.192   2.732 -0.5360  1.5035  0.9200
 5101SOL    HW320171   0.826   1.090   2.840  0.8602 -0.8111 -0.8216
 5101SOL    MW420172   0.803   1.128   2.766 -0.1159  0.3279 -0.5357
 5102SOL     OW20173   3.741   0.022   4.493 -0.6259  0.0420 -0.2429
 5102SOL    HW220174   3.827  -0.010   4.517 -1.1457 -1.4160 -0.2257
 5102SOL    HW320175   3.690   0.018   4.573 -0.4842  1.8222 -0.0177
 5102SOL    MW420176   3.745   0.017   4.506 -0.9753  0.1083 -0.1468
 5103SOL     OW20177   3.213   6.354   2.787  0.0677  0.0898  0.1943
 5103SOL    HW220178   3.129   6.331   2.826  0.0777 -0.1111  0.1013
 5103SOL    HW320179   3.221   6.448   2.801  1.4730 -0.3911  3.4045
 5103SOL    MW420180   3.203   6.363   2.794 -0.7962 -0.7006  0.3111
 5104SOL     OW20181   4.384   0.931   3.724 -0.2739 -0.2187  0.6200
 5104SOL    HW220182   4.425   0.853   3.687  0.6636  0.4094  0.2772
 5104SOL    HW320183   4.410   0.930   3.816 -1.5514 -1.1081  1.0016
 5104SOL    MW420184   4.393   0.921   3.731 -0.2876 -0.1423  0.2714
 5105SOL     OW20185   6.083   5.857   0.542  0.8566  0.1248  0.7218
 5105SOL    HW220186   6.117   5.802   0.472  0.1610  1.0513 -0.3843
 5105SOL    HW320187   6.098   5.947   0.512 -3.0561  0.6549 -0.2236
 5105SOL    MW420188   6.089   5.862   0.529 -0.1910  0.6486  0.3153
 5106SOL     OW20189   3.699   5.958   5.418 -0.4158 -0.0521 -0.8878
 5106SOL    HW220190   3.659   5.889   5.472  0.0988 -0.2520 -0.7564
 5106SOL    HW320191   3.750   6.010   5.481  0.6841 -0.6461 -1.2654
 5106SOL    MW420192   3.700   5.956   5.434  0.5724  0.2970  0.0530
 5107SOL     OW20193   5.936   1.593   1.307  0.2252  0.7779  0.4389
 5107SOL    HW220194   5.949   1.662   1.243 -0.1431  0.5288  0.0897
 5107SOL    HW320195   5.852   1.614   1.348 -0.1675  0.2352 -0.0652
 5107SOL    MW420196   5.926   1.605   1.304  0.0682 -0.1029  0.0254
 5108SOL     OW20197   6.309   4.518   3.392 -0.0993  0.1082 -0.1480
 5108SOL    HW220198   6.235   4.497   3.448 -0.9820 -0.0815 -1.3349
 5108SOL    HW320199   6.292   4.608   3.363 -0.7978 -0.5001 -1.7572
 5108SOL    MW420200   6.297   4.527   3.395 -0.0949  0.4322  0.6503
 5109SOL     OW20201   2.470   0.144   4.790  0.2928 -0.5540 -0.4440
 5109SOL    HW220202   2.550   0.108   4.753  0.3387  1.1667 -2.1864
 5109SOL    HW320203   2.410   0.152   4.715 -0.5101  0.7646  0.2957
 5109SOL    MW420204   2.472   0.140   4.775  0.1491 -0.0047  0.1474
 5110SOL     OW20205   2.978   5.328   4.265  0.3283  0.8406 -0.1672
 5110SOL    HW220206   2.891   5.317   4.227 -0.2724  1.1623  1.0724
 5110SOL    HW320207   3.030   5.257   4.227 -0.4340  0.7033 -0.9963
 5110SOL    MW420208   2.973   5.317   4.255 -0.1221  0.1381  0.0065
 5111SOL     OW20209   3.763   3.036   0.743  0.2540 -0.3576 -0.3881
 5111SOL    HW220210   3.849   3.055   0.779 -0.0137  0.8706 -0.3413
 5111SOL    HW320211   3.767   3.068   0.653 -0.3642  0.3586 -0.1708
 5111SOL    MW420212   3.775   3.043   0.736  0.4072 -0.5916 -0.1681
 5112SOL     OW20213   2.903   1.050   2.897 -0.1348 -0.6669 -0.0915
 5112SOL    HW220214   2.853   1.028   2.976 -0.7479  2.4093  0.4891
 5112SOL    HW320215   2.836   1.077   2.834  0.5883  2.9229  0.4890
 5112SOL    MW420216   2.887   1.050   2.899 -0.2954  1.0864 -0.1583
 5113SOL     OW20217   6.086   0.505   5.377 -0.0265  0.3639  0.0699
 5113SOL    HW220218   6.171   0.518   5.418  0.2187  1.7166 -0.7929
 5113SOL    HW320219   6.100   0.531   5.286 -1.3520  0.5509 -0.0928
 5113SOL    MW420220   6.099   0.510   5.370 -0.4809 -0.0285  0.7639
 5114SOL     OW20221   1.692   4.340   3.406  0.3410 -0.2072 -0.6118
 5114SOL    HW220222   1.664   4.249   3.390  3.6738 -1.5280  0.2131
 5114SOL    HW320223   1.652   4.362   3.490  0.3189 -1.3106 -0.3080
 5114SOL    MW420224   1.683   4.331   3.415 -0.2213 -0.4261  0.2063
 5115SOL     OW20225   0.822   6.236   2.395  0.0883 -0.0046 -0.4315
 5115SOL    HW220226   0.779   6.239   2.480  0.0854 -0.3185 -0.4231
 5115SOL    HW320227   0.879   6.313   2.394 -0.6957  0.5891 -0.5620
 5115SOL    MW420228   0.824   6.247   2.406 -0.3216  0.3599 -0.6318
 5116SOL     OW20229   3.206   0.152   5.795 -0.2694  0.0408 -0.6613
 5116SOL    HW220230   3.217   0.238   5.837  0.0544 -0.2147 -0.2045
 5116SOL    HW320231   3.132   0.112   5.842  0.5062 -0.5074  0.1337
 5116SOL    MW420232   3.198   0.158   5.807 -0.0270  0.4832 -0.1713
 5117SOL     OW20233   6.028   6.085   5.515  0.0676 -0.0241  0.1005
 5117SOL    HW220234   6.016   6.008   5.570 -1.0941 -0.7154 -1.0723
 5117SOL    HW320235   5.972   6.152   5.555 -2.4247 -1.1258 -1.3000
 5117SOL    MW420236   6.019   6.084   5.528  0.1925 -0.6240 -0.1131
 5118SOL     OW20237   1.278   3.769   2.290 -0.4460 -0.1884 -0.3300
 5118SOL    HW220238   1.249   3.821   2.366  0.3242 -2.1324  1.3749
 5118SOL    HW320239   1.211   3.701   2.281 -0.8653  0.3827 -1.8454
 5118SOL    MW420240   1.265   3.767   2.299 -0.4424 -0.5286  0.0959
 5119SOL     OW20241   2.164   5.941   3.888 -0.2949  0.2716 -0.5702
 5119SOL    HW220242   2.257   5.924   3.899 -0.4401  0.1033  0.5173
 5119SOL    HW320243   2.121   5.859   3.913 -0.7005 -0.1240 -2.3930
 5119SOL    MW420244   2.170   5.928   3.893 -0.4019 -0.0522  0.3845
 5120SOL     OW20245   4.036   0.592   1.472 -0.4495 -0.1937 -0.2990
 5120SOL    HW220246   4.073   0.597   1.384  3.0946  1.4559  1.0979
 5120SOL    HW320247   3.955   0.643   1.468 -1.1150 -1.3227 -2.8422
 5120SOL    MW420248   4.030   0.599   1.460  0.0271  0.3305 -0.0112
 5121SOL     OW20249   2.534   4.464   0.084 -0.5868 -0.1382  0.7738
 5121SOL    HW220250   2.628   4.455   0.072 -0.6250 -1.5845  1.3360
 5121SOL    HW320251   2.521   4.556   0.109  0.6393  0.1195  0.5101
 5121SOL    MW420252   2.545   4.475   0.086  0.1560 -0.3904 -0.1639
 5122SOL     OW20253   5.149   1.931   5.417 -0.1232 -0.4722 -0.4799
 5122SOL    HW220254   5.206   1.986   5.364  1.3702 -3.9760 -2.8778
 5122SOL    HW320255   5.075   1.911   5.360  0.0870 -2.0222 -0.2482
 5122SOL    MW420256   5.147   1.936   5.403 -0.4162  0.4489  0.0488
 5123SOL     OW20257   1.296   5.888   5.566 -0.4000 -0.0769 -0.5258
 5123SOL    HW220258   1.261   5.802   5.589  1.5000 -1.0207 -1.0083
 5123SOL    HW320259   1.346   5.874   5.486 -0.0069  1.4711 -0.5907
 5123SOL    MW420260   1.298   5.875   5.558  0.1500  0.3292  0.1012
 5124SOL     OW20261   5.888   1.856   3.022  0.1416 -0.3685  0.1853
 5124SOL    HW220262   5.944   1.787   2.986  0.6933  1.4589 -2.8379
 5124SOL    HW320263   5.949   1.924   3.050 -0.4341  0.3711 -0.2966
 5124SOL    MW420264   5.904   1.856   3.021  0.0772 -0.2400 -0.1271
 5125SOL     OW20265   1.148   0.264   5.598  0.6611 -0.0759  0.0664
 5125SOL    HW220266   1.155   0.337   5.660  0.1190  0.1875 -0.1741
 5125SOL    HW320267   1.086   0.203   5.638  0.2960  0.1036 -0.2187
 5125SOL    MW420268   1.141   0.266   5.611  0.1175  0.5511 -0.3812
 5126SOL     OW20269   1.427   3.452   1.163  0.1417  0.4582  0.3855
 5126SOL    HW220270   1.519   3.466   1.140  0.3567  0.6865  1.3695
 5126SOL    HW320271   1.418   3.356   1.167 -0.1344  0.3542 -1.5012
 5126SOL    MW420272   1.438   3.441   1.160  0.1937 -0.0308 -0.1045
 5127SOL     OW20273   6.137   1.422   0.128 -0.1590  0.3845  0.3070
 5127SOL    HW220274   6.104   1.489   0.187  1.9605  1.2088  0.6496
 5127SOL    HW320275   6.107   1.449   0.041  0.2702  1.5367  0.4979
 5127SOL    MW420276   6.129   1.434   0.124 -0.0186 -0.1697 -0.1780
 5128SOL     OW20277   1.263   5.789   4.580  0.4844  0.1044  0.4732
 5128SOL    HW220278   1.226   5.866   4.623  0.9664 -0.4504  1.9521
 5128SOL    HW320279   1.324   5.824   4.516 -1.8754  1.0273 -1.4190
 5128SOL    MW420280   1.266   5.804   4.577 -0.8728 -0.3854  0.3042
 5129SOL     OW20281   6.457   4.712   3.071  0.8738 -0.3280  0.5610
 5129SOL    HW220282   6.406   4.777   3.120 -0.2187 -0.6658 -0.1154
 5129SOL    HW320283   6.511   4.764   3.012  0.2976 -0.0146  0.3030
 5129SOL    MW420284   6.458   4.728   3.070 -0.1728  0.1192 -0.3376
 5130SOL     OW20285   1.231   0.009   3.289 -0.2026  0.1240  0.2206
 5130SOL    HW220286   1.252   0.102   3.276  0.8166  0.0060  0.8768
 5130SOL    HW320287   1.271  -0.012   3.374 -0.1267 -1.0067 -0.0874
 5130SOL    MW420288   1.239   0.019   3.299  0.0942  0.1168  0.1155
 5131SOL     OW20289   5.191   1.305   5.589 -1.1118 -0.1319 -0.0178
 5131SOL    HW220290   5.175   1.288   5.497  0.6111 -1.1087 -0.1884
 5131SOL    HW320291   5.229   1.393   5.591 -1.1943 -0.0907 -0.2357
 5131SOL    MW420292   5.194   1.315   5.577 -0.0119 -0.1054  0.2518
 5132SOL     OW20293   3.851   2.402   4.699 -0.3408 -0.3419  0.3224
 5132SOL    HW220294   3.846   2.353   4.618 -0.4438  0.1292  0.0405
 5132SOL    HW320295   3.778   2.464   4.695  1.7667  2.2321 -0.9355
 5132SOL    MW420296   3.841   2.404   4.688 -0.1253 -0.2635 -0.0541
 5133SOL     OW20297   6.401   3.284   1.429  0.5956 -0.2654  0.2205
 5133SOL    HW220298   6.353   3.309   1.508 -0.9511  1.3074 -1.1519
 5133SOL    HW320299   6.463   3.355   1.414  3.0503 -1.9535  1.5879
 5133SOL    MW420300   6.403   3.297   1.437  0.4706 -0.3508  0.0646
 5134SOL     OW20301   4.251   1.797   5.288  0.0733  0.3647  0.0946
 5134SOL    HW220302   4.318   1.729   5.281  1.8847  2.1789 -2.4182
 5134SOL    HW320303   4.206   1.795   5.203 -0.3874  1.6924  0.2814
 5134SOL    MW420304   4.254   1.788   5.276  0.1603 -0.2658  0.6466
 5135SOL     OW20305   3.059   3.165   0.230  0.1815  0.1595 -0.4040
 5135SOL    HW220306   3.089   3.080   0.198  0.3667  0.4040 -0.9016
 5135SOL    HW320307   3.076   3.225   0.157 -0.1774  0.5763 -0.1506
 5135SOL    MW420308   3.065   3.162   0.216 -0.3454  0.9176 -0.0811
 5136SOL     OW20309   5.761   4.372   3.081  0.7310 -0.4108  0.3475
 5136SOL    HW220310   5.681   4.338   3.121  1.0496 -1.1219  0.4087
 5136SOL    HW320311   5.745   4.465   3.070  1.0209  0.0712  3.1551
 5136SOL    MW420312   5.748   4.380   3.085  0.3273  0.2623  0.0795
 5137SOL     OW20313   3.771   4.800   2.383 -0.0818 -0.1384 -0.0276
 5137SOL    HW220314   3.813   4.717   2.405  0.8033  0.3894  0.3344
 5137SOL    HW320315   3.703   4.812   2.450 -0.4781 -0.7511 -0.3134
 5137SOL    MW420316   3.767   4.791   2.395  0.1659  0.1469 -0.1487
 5138SOL     OW20317   5.819   1.109   4.844  0.0728  0.0708 -0.0395
 5138SOL    HW220318   5.738   1.094   4.893 -0.2512 -0.0859 -0.6075
 5138SOL    HW320319   5.869   1.169   4.898 -1.1852  1.5893 -0.4593
 5138SOL    MW420320   5.815   1.115   4.857  0.1957 -0.2657 -0.0071
 5139SOL     OW20321   6.138   0.741   4.055  0.0996 -0.4717 -0.3430
 5139SOL    HW220322   6.207   0.806   4.067  1.7988 -2.3821  1.0331
 5139SOL    HW320323   6.114   0.747   3.962 -0.8942  3.0341  0.0296
 5139SOL    MW420324   6.144   0.750   4.044 -0.7640 -0.2915 -0.1523
 5140SOL     OW20325   3.843   1.706   0.473  0.3514 -0.1528  0.4404
 5140SOL    HW220326   3.924   1.684   0.426  0.6104 -0.6588  1.1108
 5140SOL    HW320327   3.808   1.781   0.425 -0.1647 -1.5348 -1.4800
 5140SOL    MW420328   3.849   1.713   0.460 -0.1595  0.5721  0.1621
 5141SOL     OW20329   4.633   1.748   1.069 -0.0109  0.3154 -0.0347
 5141SOL    HW220330   4.547   1.782   1.047  0.4762  1.5531 -0.0804
 5141SOL    HW320331   4.661   1.699   0.992 -0.6324 -0.0410 -0.0400
 5141SOL    MW420332   4.626   1.746   1.056  0.1667  0.2158  0.2333
 5142SOL     OW20333   3.477   0.914   3.638 -0.0759 -0.1256 -0.3470
 5142SOL    HW220334   3.569   0.899   3.655  0.3399  1.8028 -0.5876
 5142SOL    HW320335   3.440   0.941   3.722 -0.5709 -1.4797 -0.1174
 5142SOL    MW420336   3.484   0.916   3.651 -0.0942 -0.2234  0.5248
 5143SOL     OW20337   5.617   4.867   0.616  0.3296 -0.6372  0.0572
 5143SOL    HW220338   5.558   4.922   0.564  3.1261  0.9084 -1.7393
 5143SOL    HW320339   5.608   4.780   0.579  1.4687  0.2302 -2.4970
 5143SOL    MW420340   5.608   4.863   0.604 -0.0823  0.7214 -0.6348
 5144SOL     OW20341   1.632   2.786   2.054  0.1037  0.3896 -0.4373
 5144SOL    HW220342   1.554   2.752   2.097 -0.3837  0.3310 -1.3412
 5144SOL    HW320343   1.615   2.880   2.044 -0.3722  0.1840 -1.6837
 5144SOL    MW420344   1.620   2.794   2.058 -0.6667 -0.1154 -0.5064
 5145SOL     OW20345   2.360   0.680   2.872 -0.2709 -0.3363  0.5764
 5145SOL    HW220346   2.359   0.603   2.928  1.6892 -0.9757 -0.1685
 5145SOL    HW320347   2.373   0.646   2.783 -1.1249  0.7650  0.0048
 5145SOL    MW420348   2.362   0.666   2.868 -0.3741  0.0174  0.2953
 5146SOL     OW20349   2.775   2.138   2.456 -0.2868  0.7956  0.1018
 5146SOL    HW220350   2.763   2.233   2.451  0.8489  0.8904 -2.5024
 5146SOL    HW320351   2.860   2.126   2.497 -0.6497  0.8462  0.8947
 5146SOL    MW420352   2.784   2.149   2.461 -0.1125  0.2141 -0.5952
 5147SOL     OW20353   2.031   5.581   0.032 -0.7375  0.0242  0.0776
 5147SOL    HW220354   2.007   5.547   0.118 -1.1419  3.0556  1.2908
 5147SOL    HW320355   1.974   5.533  -0.029 -0.7108 -1.9204  1.4730
 5147SOL    MW420356   2.020   5.570   0.035  0.1311 -0.1596 -0.1170
 5148SOL     OW20357   5.745   1.065   2.303  0.2465  0.0582  0.2778
 5148SOL    HW220358   5.821   1.091   2.251  0.2577 -1.1061 -0.3180
 5148SOL    HW320359   5.715   1.147   2.343  1.5123  0.6173  0.1440
 5148SOL    MW420360   5.751   1.080   2.301  0.6386  0.4848  0.1502
 5149SOL     OW20361   0.992   5.560   1.989 -0.0323 -0.2705 -0.2002
 5149SOL    HW220362   0.906   5.598   2.007  0.3487  1.4006 -1.6921
 5149SOL    HW320363   0.973   5.477   1.946 -0.8840 -0.5776  0.7283
 5149SOL    MW420364   0.978   5.554   1.986  0.1231 -0.1404  0.2159
 5150SOL     OW20365   2.398   1.685   5.086 -0.3824 -0.9426  0.1708
 5150SOL    HW220366   2.341   1.675   5.162 -0.5888  1.8412  0.4613
 5150SOL    HW320367   2.342   1.722   5.018  0.8438  1.1276  0.2218
 5150SOL    MW420368   2.383   1.689   5.087 -0.3015  0.0915 -0.1210
 5151SOL     OW20369   6.275   1.701   3.502 -0.5172  0.9634 -0.5087
 5151SOL    HW220370   6.348   1.755   3.531 -0.2640  0.9825 -1.1798
 5151SOL    HW320371   6.299   1.612   3.527 -0.1774  0.9455 -0.8928
 5151SOL    MW420372   6.288   1.696   3.509  0.2378  0.3218 -0.0695
 5152SOL     OW20373   2.721   0.346   1.330 -0.1293 -0.5412 -0.5411
 5152SOL    HW220374   2.758   0.259   1.343 -0.9277 -0.6785  1.0776
 5152SOL    HW320375   2.742   0.394   1.410 -3.5001 -0.7109  0.6455
 5152SOL    MW420376   2.728   0.341   1.342 -0.2054 -0.0740  0.3688
 5153SOL     OW20377   6.132   4.558   6.092 -0.4062  0.1156  1.0757
 5153SOL    HW220378   6.130   4.467   6.124  1.6747 -0.7730 -1.0393
 5153SOL    HW320379   6.139   4.550   5.997  0.0347  2.5033  0.8451
 5153SOL    MW420380   6.133   4.545   6.084  0.0931  0.3742 -0.3061
 5154SOL     OW20381   5.921   3.403   0.456 -0.3992  0.5869  0.7362
 5154SOL    HW220382   5.846   3.446   0.498  0.3298  1.8335  0.8201
 5154SOL    HW320383   5.958   3.348   0.526 -2.9055 -2.4375 -0.0975
 5154SOL    MW420384   5.916   3.402   0.471 -0.3823  0.3616 -0.9451
 5155SOL     OW20385   0.296   3.649   3.330  0.5374 -0.2968 -0.2497
 5155SOL    HW220386   0.386   3.634   3.299  1.1823  0.3429  1.2261
 5155SOL    HW320387   0.302   3.644   3.425 -0.8263  0.6924 -0.0826
 5155SOL    MW420388   0.309   3.646   3.339 -0.1983 -0.1857  0.3721
 5156SOL     OW20389   0.829   0.558   1.642 -0.5024  0.1264 -0.5130
 5156SOL    HW220390   0.871   0.618   1.580  0.4816  1.9273  1.7368
 5156SOL    HW320391   0.858   0.471   1.615  2.5357  1.0866 -0.7277
 5156SOL    MW420392   0.838   0.555   1.630  0.2530 -0.0111 -0.1253
 5157SOL     OW20393   3.605   5.475   5.914 -0.7494 -0.5537 -0.1218
 5157SOL    HW220394   3.694   5.471   5.948 -0.6866 -0.5323 -0.2852
 5157SOL    HW320395   3.553   5.427   5.979 -0.7661  0.2061  0.4421
 5157SOL    MW420396   3.610   5.468   5.927  0.0996  0.5601  0.0547
 5158SOL     OW20397   6.328   2.000   2.564 -0.1785  0.3320 -0.6198
 5158SOL    HW220398   6.276   1.953   2.630  0.9091 -0.6530 -0.4302
 5158SOL    HW320399   6.268   2.011   2.490 -1.4810  1.6290  0.5647
 5158SOL    MW420400   6.313   1.995   2.563  0.1069 -0.4008 -0.3895
 5159SOL     OW20401   1.014   3.301   3.545 -0.4199 -0.4592 -0.7778
 5159SOL    HW220402   0.996   3.210   3.567 -0.8589 -1.0676 -3.3166
 5159SOL    HW320403   0.943   3.350   3.587  0.7122 -1.0023  1.9809
 5159SOL    MW420404   1.002   3.295   3.554  0.0369 -0.1923 -0.0942
 5160SOL     OW20405   6.086   6.139   4.650 -0.3487 -0.0010 -0.0077
 5160SOL    HW220406   6.026   6.091   4.593 -0.6037  1.1939 -0.8020
 5160SOL    HW320407   6.167   6.088   4.650 -0.0010  0.4328 -2.2749
 5160SOL    MW420408   6.089   6.126   4.642 -0.1494  0.1841 -0.3091
 5161SOL     OW20409   2.592   5.640   1.457  0.0173 -0.2622  0.1967
 5161SOL    HW220410   2.686   5.625   1.446  0.0198  0.8658 -1.7662
 5161SOL    HW320411   2.586   5.727   1.495 -0.2420 -0.1647 -0.0705
 5161SOL    MW420412   2.604   5.649   1.461 -0.1328  0.3514  0.2422
 5162SOL     OW20413   6.275   3.793   0.053 -0.6166  0.3366 -0.1866
 5162SOL    HW220414   6.270   3.757   0.142  0.0512 -1.2651 -0.7549
 5162SOL    HW320415   6.309   3.881   0.065 -1.5639  0.5516  1.2212
 5162SOL    MW420416   6.279   3.800   0.066 -0.2253  0.1112 -0.6400
 5163SOL     OW20417   5.903   2.613   1.558  0.0494  0.2153  0.6855
 5163SOL    HW220418   5.924   2.520   1.564  0.9352  0.3709  0.1654
 5163SOL    HW320419   5.958   2.646   1.487 -0.9980  0.9332  0.1814
 5163SOL    MW420420   5.913   2.605   1.550  0.5585  0.0040 -0.1344
 5164SOL     OW20421   2.886   3.656   5.431  0.6905  0.0525 -0.2951
 5164SOL    HW220422   2.901   3.684   5.341  3.1784 -0.9231 -0.2381
 5164SOL    HW320423   2.799   3.615   5.429  1.0393 -0.6797 -2.4093
 5164SOL    MW420424   2.876   3.655   5.419  0.3948  0.4833  0.4375
 5165SOL     OW20425   3.326   0.353   3.688 -0.4206 -0.0403  0.0079
 5165SOL    HW220426   3.285   0.268   3.671  1.6657 -1.6910  2.4183
 5165SOL    HW320427   3.419   0.337   3.675  0.0094  1.9166  0.4483
 5165SOL    MW420428   3.333   0.339   3.684  0.6823 -0.4625 -0.2936
 5166SOL     OW20429   3.050   1.735   3.728  0.0189  0.2956 -0.3244
 5166SOL    HW220430   3.094   1.661   3.686  0.0285  0.3064 -0.3334
 5166SOL    HW320431   2.992   1.694   3.793  0.3125  0.2950 -0.0586
 5166SOL    MW420432   3.048   1.720   3.731  0.1065 -0.0880  0.0130
 5167SOL     OW20433   0.653   2.703   1.462  0.4511 -0.4501 -0.1783
 5167SOL    HW220434   0.646   2.615   1.497 -0.5356  0.4257  2.0265
 5167SOL    HW320435   0.604   2.757   1.524  1.9452  1.8119 -0.8572
 5167SOL    MW420436   0.646   2.699   1.474  0.6578  0.0144  0.1766
 5168SOL     OW20437   3.155   3.493   2.901  0.0814  0.2763  0.0153
 5168SOL    HW220438   3.182   3.401   2.906 -1.2315 -0.1470 -0.2693
 5168SOL    HW320439   3.088   3.502   2.968  0.5640  1.1799  0.3939
 5168SOL    MW420440   3.150   3.482   2.910 -0.2040 -0.0960  0.2238
 5169SOL     OW20441   3.951   1.010   1.843  0.2810  0.2661 -0.0202
 5169SOL    HW220442   4.017   0.960   1.797 -0.8454  0.5469 -2.0432
 5169SOL    HW320443   3.997   1.045   1.920  1.9908 -0.9295 -0.4383
 5169SOL    MW420444   3.966   1.008   1.847 -0.4390 -0.3454 -0.1176
 5170SOL     OW20445   4.086   5.678   1.751 -0.0289  0.4185  0.0213
 5170SOL    HW220446   4.105   5.771   1.736 -0.5148  0.5359  0.1159
 5170SOL    HW320447   4.006   5.662   1.702  0.6147 -0.2191 -0.8603
 5170SOL    MW420448   4.078   5.688   1.742 -0.6875  0.6880  0.0076
 5171SOL     OW20449   6.362   1.690   1.560 -0.3251  0.0238  0.0355
 5171SOL    HW220450   6.389   1.717   1.472  2.2080  0.3631  0.8342
 5171SOL    HW320451   6.302   1.617   1.545 -0.8986  0.8499 -1.9904
 5171SOL    MW420452   6.358   1.684   1.546 -0.2035  0.4396  0.1277
 5172SOL     OW20453   6.337   4.080   2.516  0.3038  0.0619 -0.1282
 5172SOL    HW220454   6.300   4.021   2.450  2.5700 -0.7415 -0.7820
 5172SOL    HW320455   6.360   4.159   2.468 -0.8540  0.7087  0.3477
 5172SOL    MW420456   6.335   4.082   2.501 -0.6754  0.1915  0.7572
 5173SOL     OW20457   1.931   4.414   5.436  0.2338 -0.4386  0.1743
 5173SOL    HW220458   1.950   4.342   5.376  1.7705 -0.4562  0.6287
 5173SOL    HW320459   2.008   4.470   5.431 -0.6587  0.8444  0.3221
 5173SOL    MW420460   1.944   4.412   5.428  0.1331  0.3958 -1.1053
 5174SOL     OW20461   2.607   5.115   0.975 -0.2604 -0.3901 -0.0763
 5174SOL    HW220462   2.673   5.090   1.040 -2.1486 -2.2327  1.2864
 5174SOL    HW320463   2.532   5.059   0.995 -2.1214  1.3380 -1.7774
 5174SOL    MW420464   2.606   5.104   0.986  0.0456  0.1312  0.9203
 5175SOL     OW20465   6.401   2.825   4.566  0.0722  0.7681 -0.4794
 5175SOL    HW220466   6.375   2.838   4.475  1.2102  2.2794 -0.6222
 5175SOL    HW320467   6.469   2.759   4.562 -0.0141  0.6913 -0.7069
 5175SOL    MW420468   6.406   2.818   4.553  0.4038 -0.1438 -0.2737
 5176SOL     OW20469   1.590   4.808   1.829 -0.4150 -0.2677  0.3620
 5176SOL    HW220470   1.515   4.868   1.831  1.1012  1.8707 -1.7467
 5176SOL    HW320471   1.664   4.861   1.855  0.7844 -1.6616 -0.0652
 5176SOL    MW420472   1.590   4.823   1.833 -0.4671 -0.3056  0.5582
 5177SOL     OW20473   5.614   2.413   3.614  0.0867  0.1756 -0.0202
 5177SOL    HW220474   5.611   2.498   3.569 -1.0408 -0.4411 -1.1895
 5177SOL    HW320475   5.692   2.370   3.579 -0.0729  0.2119 -0.4262
 5177SOL    MW420476   5.624   2.419   3.603 -0.6392  0.6653 -0.2348
 5178SOL     OW20477   3.785   1.442   1.772  0.1896 -0.4404 -0.0368
 5178SOL    HW220478   3.761   1.448   1.865 -1.1938 -1.7781 -0.2581
 5178SOL    HW320479   3.753   1.356   1.745  1.7111 -0.6186 -1.4592
 5178SOL    MW420480   3.778   1.431   1.781  0.1823  0.0657 -0.3278
 5179SOL     OW20481   2.929   4.278   1.227 -0.0195 -0.1609 -0.0593
 5179SOL    HW220482   2.847   4.326   1.214 -0.1562 -0.7236 -1.4860
 5179SOL    HW320483   2.960   4.260   1.138  1.1290 -0.8430  0.4590
 5179SOL    MW420484   2.922   4.282   1.213 -0.2842  0.3032 -0.5853
 5180SOL     OW20485   1.064   0.486   6.098  0.0993  0.2922  0.3502
 5180SOL    HW220486   1.044   0.472   6.191 -1.5221  1.0477  0.1399
 5180SOL    HW320487   1.070   0.398   6.061  2.6061 -0.1123  1.4811
 5180SOL    MW420488   1.062   0.473   6.106 -0.5335 -0.0043 -0.2345
 5181SOL     OW20489   1.618   0.525   4.799  0.2819  0.2092  0.4963
 5181SOL    HW220490   1.622   0.498   4.890  1.3136 -0.0646  0.3846
 5181SOL    HW320491   1.559   0.600   4.799 -0.1240 -0.1002  1.3045
 5181SOL    MW420492   1.611   0.532   4.811  0.5620  0.0500 -0.0895
 5182SOL     OW20493   0.303   4.809   4.332  0.0134 -0.5487 -0.5743
 5182SOL    HW220494   0.314   4.718   4.361 -1.4050 -1.2115 -1.9677
 5182SOL    HW320495   0.388   4.832   4.293 -0.1749 -1.9667 -1.9211
 5182SOL    MW420496   0.316   4.800   4.330 -0.3492  0.1960 -0.6638
 5183SOL     OW20497   0.933   2.876   2.058 -0.3388  0.2947 -0.4822
 5183SOL    HW220498   0.910   2.877   1.965  0.3429 -1.2815 -0.6921
 5183SOL    HW320499   1.023   2.846   2.061 -0.8102 -1.1445  0.7479
 5183SOL    MW420500   0.942   2.872   2.046  0.5506  0.1439 -0.2967
 5184SOL     OW20501   5.049   3.059   3.859 -0.1605 -0.2194  0.2979
 5184SOL    HW220502   4.961   3.092   3.842  0.1781  0.5006 -0.0922
 5184SOL    HW320503   5.046   3.027   3.949 -0.2816  1.6406  0.9889
 5184SOL    MW420504   5.037   3.059   3.868 -0.1631  0.4110  0.6402
 5185SOL     OW20505   3.317   0.402   1.723  0.2590 -0.1116  0.2513
 5185SOL    HW220506   3.341   0.331   1.664  0.4117 -0.8518  1.1953
 5185SOL    HW320507   3.327   0.366   1.811  1.9779  1.5782  0.8158
 5185SOL    MW420508   3.322   0.388   1.727  0.0711  0.3906 -0.2677
 5186SOL     OW20509   3.744   1.076   3.819  0.0682  0.7361  0.2863
 5186SOL    HW220510   3.741   1.003   3.757  0.1147  1.6582 -0.8331
 5186SOL    HW320511   3.836   1.084   3.844  0.0214  0.2488  0.6349
 5186SOL    MW420512   3.755   1.067   3.815 -0.8589 -0.4085 -0.7934
 5187SOL     OW20513   1.076   2.446   1.573  0.0515 -0.6452  0.3191
 5187SOL    HW220514   1.011   2.505   1.536  0.4536 -0.8998 -0.8760
 5187SOL    HW320515   1.038   2.359   1.564 -0.1774 -0.6459  1.2625
 5187SOL    MW420516   1.063   2.442   1.567  0.2169  0.4293 -0.2930
 5188SOL     OW20517   0.187   2.659   4.579 -0.0971  0.2511  0.5278
 5188SOL    HW220518   0.146   2.579   4.546  1.6631 -0.0347 -1.1319
 5188SOL    HW320519   0.254   2.629   4.640  1.9704  0.2396 -1.6292
 5188SOL    MW420520   0.190   2.645   4.582 -0.0576  0.0592  0.1151
 5189SOL     OW20521   3.975   4.952   5.284 -0.3348 -0.1187 -0.1747
 5189SOL    HW220522   3.920   4.884   5.323  0.5598 -2.2239 -2.2847
 5189SOL    HW320523   4.032   4.981   5.356 -2.0681 -0.1273  1.2611
 5189SOL    MW420524   3.976   4.947   5.299 -0.4097  0.5294  0.3536
 5190SOL     OW20525   1.986   0.146   4.293 -0.0616 -0.0336  0.4950
 5190SOL    HW220526   1.952   0.105   4.373  0.9715  0.4507  1.2168
 5190SOL    HW320527   2.075   0.112   4.286 -0.3610 -0.5873 -0.8402
 5190SOL    MW420528   1.994   0.136   4.303  0.5027 -0.3855  0.1247
 5191SOL     OW20529   3.835   5.332   3.314 -0.5074 -0.4777 -0.1408
 5191SOL    HW220530   3.847   5.246   3.355 -1.6266  0.1353  1.6000
 5191SOL    HW320531   3.862   5.395   3.381 -0.8398  0.5519 -0.9403
 5191SOL    MW420532   3.840   5.329   3.328 -0.4153  0.0983  0.5396
 5192SOL     OW20533   2.767   6.275   5.986  0.3174  0.5149  0.7015
 5192SOL    HW220534   2.712   6.265   5.909  2.7555 -0.5693 -1.0499
 5192SOL    HW320535   2.837   6.334   5.957  2.7254 -1.9358  1.1218
 5192SOL    MW420536   2.769   6.281   5.972 -0.0565  0.2486 -0.1083
 5193SOL     OW20537   3.068   0.367   6.319 -0.0529  0.4021 -0.0451
 5193SOL    HW220538   3.155   0.334   6.296  0.1703  1.3035 -0.5195
 5193SOL    HW320539   3.027   0.387   6.235  0.2131  2.3089  0.2406
 5193SOL    MW420540   3.074   0.365   6.305  0.1189  0.1183  0.7847
 5194SOL     OW20541   6.110   5.741   4.147 -0.8342  0.4482 -0.1668
 5194SOL    HW220542   6.174   5.781   4.206 -1.1083  1.8482 -0.7697
 5194SOL    HW320543   6.115   5.647   4.166  1.5822  0.4696 -0.3929
 5194SOL    MW420544   6.119   5.734   4.158 -0.9226  0.4016 -0.2313
 5195SOL     OW20545   3.965   4.498   5.239 -0.4784  0.0633  0.3968
 5195SOL    HW220546   3.885   4.540   5.208 -0.0111  0.9225  0.3272
 5195SOL    HW320547   4.030   4.568   5.241  0.4506 -0.7520 -0.1861
 5195SOL    MW420548   3.963   4.513   5.235 -0.2136 -0.1833 -0.1607
 5196SOL     OW20549   3.931   1.990   4.477 -0.3546 -0.2283 -0.1155
 5196SOL    HW220550   3.980   1.985   4.395 -2.4817  1.9546 -1.6869
 5196SOL    HW320551   3.859   1.927   4.465 -1.2028  0.7573 -0.3967
 5196SOL    MW420552   3.928   1.981   4.464  0.0896  0.3379  0.1548
 5197SOL     OW20553   0.889   1.003   3.573 -0.2463 -0.9381 -0.2029
 5197SOL    HW220554   0.949   0.929   3.566  0.1202 -0.8736  1.7115
 5197SOL    HW320555   0.944   1.080   3.567 -0.2820 -0.8630  0.3855
 5197SOL    MW420556   0.904   1.003   3.571 -0.1754  0.0674 -0.1320
 5198SOL     OW20557   3.486   2.596   0.993 -0.4069 -0.0978  0.3484
 5198SOL    HW220558   3.525   2.683   0.987 -0.7304  0.0829  0.8311
 5198SOL    HW320559   3.520   2.549   0.917  1.3881 -0.1862  1.1485
 5198SOL    MW420560   3.496   2.601   0.982  0.0705 -0.1195 -0.0389
 5199SOL     OW20561   4.688   0.725   1.587  0.3113  0.2783  0.3796
 5199SOL    HW220562   4.604   0.744   1.629 -0.6113  0.9391 -1.6372
 5199SOL    HW320563   4.708   0.635   1.613 -1.2825 -0.0598  0.5180
 5199SOL    MW420564   4.680   0.716   1.596 -0.4383  0.4322  0.5480
 5200SOL     OW20565   0.441   0.192   0.289  0.3599 -0.6197  0.0146
 5200SOL    HW220566   0.503   0.157   0.352 -1.2630 -2.7533  0.5341
 5200SOL    HW320567   0.378   0.121   0.275  1.2073 -0.7311 -4.8991
 5200SOL    MW420568   0.441   0.178   0.296  0.2054 -0.2666  0.0359
 5201SOL     OW20569   2.082   3.050   1.645 -0.5518  0.1352 -0.6026
 5201SOL    HW220570   2.115   3.076   1.731 -0.6743 -0.2756 -0.4295
 5201SOL    HW320571   2.147   3.084   1.583  0.4097 -0.9848 -0.2474
 5201SOL    MW420572   2.095   3.058   1.648 -0.1509  0.0254  0.0623
 5202SOL     OW20573   0.614   2.009   3.938 -0.3990  0.3606  0.6557
 5202SOL    HW220574   0.555   1.977   3.870  0.0734 -0.5319  0.6527
 5202SOL    HW320575   0.569   2.084   3.976 -1.2032  0.1324  0.1614
 5202SOL    MW420576   0.601   2.014   3.934  0.8500  0.2026 -0.0505
 5203SOL     OW20577   4.507   4.271   3.192  0.2965  0.0882 -0.4730
 5203SOL    HW220578   4.488   4.313   3.276 -0.6604  2.7254 -1.8820
 5203SOL    HW320579   4.478   4.180   3.203 -1.0393  0.7015  1.6097
 5203SOL    MW420580   4.501   4.264   3.204  0.5281 -0.0610 -0.1627
 5204SOL     OW20581   5.699   1.312   2.774  0.3390 -0.7081  0.6553
 5204SOL    HW220582   5.657   1.226   2.778 -0.8813 -0.0862  2.5075
 5204SOL    HW320583   5.639   1.366   2.724  0.5754 -0.6541  0.4273
 5204SOL    MW420584   5.686   1.308   2.768  0.1434  0.2608  1.0223
 5205SOL     OW20585   4.937   2.273   3.329  0.1521 -0.0965 -0.0596
 5205SOL    HW220586   4.999   2.201   3.334  0.5989  0.0515 -2.2762
 5205SOL    HW320587   4.987   2.344   3.286 -0.8957  0.7877  0.1460
 5205SOL    MW420588   4.952   2.273   3.324 -0.0655  0.1912  0.2110
 5206SOL     OW20589   1.935   1.008   4.329 -0.3156  0.1992 -0.0992
 5206SOL    HW220590   1.946   0.969   4.416  2.4573  3.7648  1.3863
 5206SOL    HW320591   2.004   0.968   4.276 -0.3780 -0.1164  0.0513
 5206SOL    MW420592   1.945   0.997   4.333  0.1369 -0.6699 -0.2335
 5207SOL     OW20593   0.769   3.864   5.040  0.1464 -0.2651 -0.3030
 5207SOL    HW220594   0.806   3.775   5.036 -1.6501 -1.0961  0.3711
 5207SOL    HW320595   0.834   3.915   5.089  1.7351 -0.8967 -1.6666
 5207SOL    MW420596   0.783   3.859   5.046  0.2140 -0.2494 -0.1333
 5208SOL     OW20597   6.197   4.817   1.782  0.6138 -0.4826  0.5804
 5208SOL    HW220598   6.213   4.782   1.869 -0.0021 -0.7610  0.5849
 5208SOL    HW320599   6.252   4.763   1.724  0.2716 -0.9484  0.6831
 5208SOL    MW420600   6.206   4.805   1.786  0.4128 -0.2648  0.2438
 5209SOL     OW20601   3.101   1.261   3.024  0.1132 -0.4220 -0.5464
 5209SOL    HW220602   3.047   1.187   2.995 -2.1251  0.6702  0.5846
 5209SOL    HW320603   3.056   1.294   3.102  1.4136  1.7238 -0.6320
 5209SOL    MW420604   3.088   1.256   3.030  0.5594 -0.4791  0.2039
 5210SOL     OW20605   4.011   0.011   0.345  0.5548  0.2373 -0.1854
 5210SOL    HW220606   4.076  -0.030   0.403  0.9133  1.4858  0.3280
 5210SOL    HW320607   3.978  -0.061   0.292  1.2726 -0.6882  0.5813
 5210SOL    MW420608   4.015  -0.004   0.346  0.1491  0.9853 -0.3652
 5211SOL     OW20609   5.004   6.186   0.263  0.6351 -0.6684 -0.0067
 5211SOL    HW220610   4.931   6.159   0.208 -0.2221 -0.1854  0.8663
 5211SOL    HW320611   5.077   6.130   0.235  0.7226  0.6574 -2.7256
 5211SOL    MW420612   5.004   6.175   0.252 -0.3109  0.0399 -0.1295
 5212SOL     OW20613   0.904   1.976   2.899  0.4377  0.1305 -0.2664
 5212SOL    HW220614   0.832   1.929   2.941  0.4363 -0.8158 -1.2785
 5212SOL    HW320615   0.972   1.909   2.886  0.4908  0.4199 -1.6082
 5212SOL    MW420616   0.904   1.961   2.903  0.1387 -0.0838 -0.5941
 5213SOL     OW20617   4.684   3.732   2.377 -0.8764  0.3082  0.0641
 5213SOL    HW220618   4.645   3.668   2.318 -1.5877  0.9652 -0.2010
 5213SOL    HW320619   4.704   3.808   2.322  2.6201 -0.6518 -0.2271
 5213SOL    MW420620   4.682   3.734   2.362  0.0678 -0.9926  0.4286
 5214SOL     OW20621   2.947   1.204   6.153  0.4562  0.5804  0.6115
 5214SOL    HW220622   2.898   1.123   6.166  1.4329  0.1965  2.1579
 5214SOL    HW320623   2.950   1.215   6.058 -1.1373 -0.2696  0.4276
 5214SOL    MW420624   2.941   1.195   6.142 -0.7314  0.3581 -0.1815
 5215SOL     OW20625   5.079   2.475   3.186  0.1681  0.1462 -0.8738
 5215SOL    HW220626   5.174   2.469   3.196  0.1945  0.9807 -0.6097
 5215SOL    HW320627   5.061   2.428   3.104  0.5507 -1.9012  0.1408
 5215SOL    MW420628   5.089   2.468   3.176 -0.0170 -0.5533  0.0887
 5216SOL     OW20629   1.733   3.063   1.297  0.3279  0.0605  0.0692
 5216SOL    HW220630   1.705   3.073   1.206 -0.3084  1.1552  0.3626
 5216SOL    HW320631   1.825   3.037   1.291  0.3766  0.4176 -0.8920
 5216SOL    MW420632   1.742   3.061   1.284  0.1780 -0.0739 -0.0895
 5217SOL     OW20633   6.079   1.333   5.849 -0.3849 -0.1297 -0.1454
 5217SOL    HW220634   5.990   1.359   5.826 -0.2731 -0.4342 -0.9265
 5217SOL    HW320635   6.087   1.244   5.818  0.1731 -0.1335  0.0006
 5217SOL    MW420636   6.068   1.325   5.842 -0.6324  0.1540  0.6730
 5218SOL     OW20637   1.127   0.594   1.180  1.0860  0.1838  0.5332
 5218SOL    HW220638   1.193   0.569   1.244  0.6271 -0.2106  0.8577
 5218SOL    HW320639   1.175   0.644   1.114  1.7885 -0.4411  0.5546
 5218SOL    MW420640   1.142   0.597   1.179 -0.8090 -0.7600 -0.1230
 5219SOL     OW20641   0.914   1.890   1.648  0.2042  0.2408  0.3864
 5219SOL    HW220642   0.927   1.818   1.586  1.1148  0.0417  0.7770
 5219SOL    HW320643   0.993   1.888   1.703 -0.2654  0.8446  1.1053
 5219SOL    MW420644   0.926   1.880   1.647  0.5257 -0.2267 -0.3638
 5220SOL     OW20645   2.321   3.291   0.812 -0.6516 -0.4178  0.1799
 5220SOL    HW220646   2.389   3.328   0.755 -0.8831 -1.5252 -0.8557
 5220SOL    HW320647   2.360   3.293   0.900  0.3458 -0.1239 -0.2505
 5220SOL    MW420648   2.335   3.296   0.816  0.5740  0.7746 -0.0488
 5221SOL     OW20649   6.227   2.917   3.684  0.6063 -0.2971  0.8554
 5221SOL    HW220650   6.168   2.933   3.610  0.9098 -2.7155  0.0211
 5221SOL    HW320651   6.298   2.980   3.671 -1.0170  1.6884  1.0863
 5221SOL    MW420652   6.229   2.928   3.673 -0.4582  0.0024 -0.1930
 5222SOL     OW20653   0.133   3.882   0.149  1.0001 -0.2329 -0.9606
 5222SOL    HW220654   0.157   3.922   0.232  0.4421  0.5812 -1.1858
 5222SOL    HW320655   0.158   3.790   0.159  1.0215 -0.1221  0.0692
 5222SOL    MW420656   0.139   3.875   0.161 -0.4519  0.4534 -0.0061
 5223SOL     OW20657   0.276   1.712   0.761 -0.0400 -0.3452  0.2642
 5223SOL    HW220658   0.300   1.752   0.677 -2.2368 -0.9725 -0.7408
 5223SOL    HW320659   0.291   1.781   0.825  0.6439  0.5339 -0.7970
 5223SOL    MW420660   0.281   1.726   0.758  0.7674  0.0066 -0.6492
 5224SOL     OW20661   1.392   0.921   0.622 -0.1800  0.0071 -0.6347
 5224SOL    HW220662   1.301   0.928   0.596 -0.2886 -2.8610 -1.4026
 5224SOL    HW320663   1.438   0.894   0.543  0.7886 -1.4883  0.3669
 5224SOL    MW420664   1.386   0.918   0.608  0.1699 -0.1740  0.0165
 5225SOL     OW20665   3.740   3.957   1.449 -0.2555 -0.0539 -0.5504
 5225SOL    HW220666   3.667   3.897   1.464  0.0673 -0.7403 -1.6370
 5225SOL    HW320667   3.814   3.900   1.425  0.6489  0.6235  0.5010
 5225SOL    MW420668   3.740   3.941   1.448 -0.4635 -0.4882 -0.4168
 5226SOL     OW20669   0.965   2.143   1.957 -0.3435  0.0617  0.2011
 5226SOL    HW220670   1.055   2.168   1.935  0.1144 -1.1994  0.5631
 5226SOL    HW320671   0.951   2.179   2.044 -0.5918  1.1968 -0.2833
 5226SOL    MW420672   0.975   2.151   1.965  0.1067 -0.0884 -0.8261
 5227SOL     OW20673   3.359   2.374   0.636 -0.2419  0.1312  0.3349
 5227SOL    HW220674   3.271   2.404   0.659  0.3384  0.9523  1.6254
 5227SOL    HW320675   3.359   2.373   0.540 -1.0623  2.0364  0.2527
 5227SOL    MW420676   3.347   2.378   0.627  0.2469 -0.0263  0.0453
 5228SOL     OW20677   4.532   0.134   4.954  0.2311 -0.1486  0.5323
 5228SOL    HW220678   4.462   0.103   4.896  0.7178 -0.5618  0.1505
 5228SOL    HW320679   4.562   0.055   4.999  1.9047 -0.3960 -0.9059
 5228SOL    MW420680   4.527   0.120   4.952  0.0016 -0.1529  0.3482
 5229SOL     OW20681   5.625   2.184   4.121 -0.4741 -0.2174  0.4076
 5229SOL    HW220682   5.629   2.277   4.141  0.5741  0.2647 -1.7381
 5229SOL    HW320683   5.567   2.148   4.187 -0.5822  1.8759  1.5463
 5229SOL    MW420684   5.618   2.192   4.133 -0.5438 -0.5173  0.3388
 5230SOL     OW20685   1.529   2.014   4.254  0.4692  0.7482 -1.0487
 5230SOL    HW220686   1.440   2.002   4.286  1.0410 -1.4354 -0.0887
 5230SOL    HW320687   1.526   1.989   4.162 -0.0463  1.4123 -1.2158
 5230SOL    MW420688   1.517   2.009   4.246 -0.4283  0.3200  0.8992
 5231SOL     OW20689   2.701   3.894   4.630  0.7670  0.6767  0.2360
 5231SOL    HW220690   2.760   3.839   4.682 -0.8946 -0.8308  0.6305
 5231SOL    HW320691   2.653   3.945   4.695 -0.5866 -0.4590  0.1754
 5231SOL    MW420692   2.702   3.893   4.645 -0.2659 -0.3055  0.1445
 5232SOL     OW20693   2.766   4.474   4.707  0.5556 -0.0015 -0.4897
 5232SOL    HW220694   2.704   4.536   4.669  0.7016  0.0778 -0.5960
 5232SOL    HW320695   2.720   4.439   4.784 -0.6022 -1.6939 -1.8709
 5232SOL    MW420696   2.751   4.477   4.712  0.1520  0.0146  0.6602
 5233SOL     OW20697   0.814   0.675   4.801 -0.3695  0.0259  0.0720
 5233SOL    HW220698   0.888   0.615   4.812  1.4733  2.1036 -0.3788
 5233SOL    HW320699   0.750   0.625   4.750  0.7264 -1.8066  0.4019
 5233SOL    MW420700   0.815   0.660   4.796  0.1261 -0.3915 -0.1209
 5234SOL     OW20701   6.307   3.244   2.169 -0.3456 -0.3886  0.2693
 5234SOL    HW220702   6.302   3.319   2.110 -1.1213 -0.8926 -0.3333
 5234SOL    HW320703   6.353   3.276   2.246  1.7665 -0.0184 -1.0772
 5234SOL    MW420704   6.313   3.258   2.172 -0.2485 -0.9246  0.0585
 5235SOL     OW20705   5.623   5.693   5.456  0.1187  0.0178  0.5075
 5235SOL    HW220706   5.696   5.732   5.407 -1.3426  1.5835 -0.5151
 5235SOL    HW320707   5.608   5.752   5.529 -0.9897  0.4623 -0.0636
 5235SOL    MW420708   5.631   5.706   5.459 -0.0507 -0.0181 -0.1504
 5236SOL     OW20709   2.533   5.115   4.833  0.1208  0.6209  0.3469
 5236SOL    HW220710   2.541   5.210   4.840  0.6060  0.7846 -1.6359
 5236SOL    HW320711   2.620   5.082   4.856  0.0392  0.6786  0.7415
 5236SOL    MW420712   2.545   5.123   4.837  0.2132  0.4901 -0.0144
 5237SOL     OW20713   5.897   2.525   5.283  0.8730 -0.0253 -0.0832
 5237SOL    HW220714   5.850   2.453   5.324  1.1704  0.0628  0.4128
 5237SOL    HW320715   5.895   2.596   5.347 -1.1856  1.1459 -1.3322
 5237SOL    MW420716   5.891   2.525   5.297  0.3401 -0.2614 -0.1072
 5238SOL     OW20717   3.870   5.433   5.977 -0.0226 -0.3535 -0.0671
 5238SOL    HW220718   3.874   5.357   6.035  1.3028  0.8880  1.5880
 5238SOL    HW320719   3.911   5.404   5.896  0.7778 -1.3267  0.6574
 5238SOL    MW420720   3.876   5.419   5.974 -0.1254 -0.3364  0.7720
 5239SOL     OW20721   3.365   6.171   5.703  0.5006  0.5555 -0.5864
 5239SOL    HW220722   3.307   6.165   5.627 -2.3400  2.8703  1.1796
 5239SOL    HW320723   3.349   6.091   5.752 -0.7426  0.8404 -0.4914
 5239SOL    MW420724   3.355   6.160   5.699 -0.0018 -0.2100 -0.2971
 5240SOL     OW20725   6.434   0.060   6.088 -0.3436  0.0172  0.1469
 5240SOL    HW220726   6.425  -0.018   6.144 -0.6324 -0.2601 -0.2810
 5240SOL    HW320727   6.420   0.028   5.999  2.3196  0.0217 -0.3629
 5240SOL    MW420728   6.431   0.045   6.084 -0.3683  0.0793 -0.4542
 5241SOL     OW20729   3.381   4.230   1.749 -0.4577 -0.3371 -0.1126
 5241SOL    HW220730   3.438   4.154   1.761 -0.8354 -0.5837  0.1591
 5241SOL    HW320731   3.425   4.283   1.683  0.5945 -0.0252  0.8168
 5241SOL    MW420732   3.395   4.227   1.742  0.2170 -0.4549 -0.1789
 5242SOL     OW20733   6.177   2.256   4.059  0.2820  0.1580 -0.3619
 5242SOL    HW220734   6.246   2.241   4.124 -0.1128 -1.0709 -0.1887
 5242SOL    HW320735   6.096   2.247   4.109 -0.0456 -1.5843 -1.1274
 5242SOL    MW420736   6.175   2.253   4.074  0.5160 -0.1206  0.3600
 5243SOL     OW20737   5.990   1.592   0.698  0.3478 -0.0390  0.6825
 5243SOL    HW220738   6.055   1.521   0.698 -0.3987 -0.7493 -0.6918
 5243SOL    HW320739   5.911   1.553   0.662 -0.5678  1.0879  1.4004
 5243SOL    MW420740   5.988   1.578   0.693 -0.1386 -0.5596 -0.0617
 5244SOL     OW20741   6.136   1.078   4.185 -0.9089  0.2645  0.5911
 5244SOL    HW220742   6.168   1.163   4.216 -1.0310 -0.0053  1.4664
 5244SOL    HW320743   6.111   1.031   4.264 -0.3056 -0.8165  0.1590
 5244SOL    MW420744   6.137   1.083   4.199  0.4219  0.9712  0.5444
 5245SOL     OW20745   3.427   5.104   3.175  0.2100 -0.2418 -0.3445
 5245SOL    HW220746   3.338   5.073   3.192  0.2802 -0.4273 -0.3114
 5245SOL    HW320747   3.480   5.025   3.172  0.1535 -0.2520 -1.7923
 5245SOL    MW420748   3.422   5.090   3.177 -0.2815 -0.1379  0.3631
 5246SOL     OW20749   0.509   0.025   6.309  0.4410  0.2073  0.0277
 5246SOL    HW220750   0.502  -0.019   6.394 -2.6478 -1.4366 -0.9252
 5246SOL    HW320751   0.596   0.066   6.310  0.6956 -0.1214  3.7444
 5246SOL    MW420752   0.520   0.024   6.320  0.5545 -0.1648  0.1873
 5247SOL     OW20753   3.071   5.705   1.355  0.1420 -0.0416  0.0222
 5247SOL    HW220754   3.066   5.754   1.437 -1.8937  1.2374 -0.7793
 5247SOL    HW320755   3.127   5.630   1.375  0.2555  0.5943  2.3793
 5247SOL    MW420756   3.078   5.701   1.368 -0.1180  0.1655  0.1476
 5248SOL     OW20757   6.450   0.813   3.268 -0.0832  0.2485  0.0689
 5248SOL    HW220758   6.526   0.766   3.235  0.5688  1.0517  0.3908
 5248SOL    HW320759   6.388   0.814   3.195  0.3917 -0.0361 -0.3409
 5248SOL    MW420760   6.452   0.807   3.254  0.2195  0.2681  0.4870
 5249SOL     OW20761   4.646   3.642   5.559  0.6686 -0.5108 -0.1326
 5249SOL    HW220762   4.709   3.705   5.594  1.8269 -1.1166 -1.0503
 5249SOL    HW320763   4.560   3.684   5.572  1.2366  0.2503  1.2938
 5249SOL    MW420764   4.643   3.656   5.565  0.0505  0.3065 -0.2534
 5250SOL     OW20765   3.515   1.997   3.838  0.4929  0.0119  0.1248
 5250SOL    HW220766   3.519   1.913   3.792  1.9034  0.6507 -1.0124
 5250SOL    HW320767   3.461   1.980   3.915 -0.8616 -1.4350 -1.0815
 5250SOL    MW420768   3.508   1.984   3.842  0.1494 -0.0028  0.1572
 5251SOL     OW20769   5.860   4.099   4.648  0.2590 -0.0687  0.0117
 5251SOL    HW220770   5.925   4.144   4.594  0.7270 -0.6275  0.0996
 5251SOL    HW320771   5.782   4.153   4.642  0.2089 -0.2585 -1.4633
 5251SOL    MW420772   5.858   4.112   4.640 -0.2061 -0.0752  0.0026
 5252SOL     OW20773   2.314   0.371   6.354  0.1609 -0.4038 -0.5104
 5252SOL    HW220774   2.346   0.293   6.399 -1.0711 -1.0865 -0.7817
 5252SOL    HW320775   2.350   0.444   6.405  1.3272 -1.1416 -0.2575
 5252SOL    MW420776   2.323   0.370   6.367 -0.5357  0.1245  0.4346
 5253SOL     OW20777   4.813   2.541   5.876 -0.0858 -0.2152 -0.5302
 5253SOL    HW220778   4.889   2.564   5.929 -0.2240 -1.3983  0.2105
 5253SOL    HW320779   4.738   2.557   5.933 -0.3336 -0.0447 -0.8994
 5253SOL    MW420780   4.813   2.546   5.890  0.1742 -0.2470 -0.7370
 5254SOL     OW20781   4.220   5.853   0.276 -0.1765  0.5669 -0.0037
 5254SOL    HW220782   4.129   5.833   0.252  0.3195 -2.2128  0.0788
 5254SOL    HW320783   4.213   5.900   0.359 -1.5690  0.2205  0.1016
 5254SOL    MW420784   4.207   5.856   0.284 -0.8304  0.3112 -0.1514
 5255SOL     OW20785   5.898   5.195   5.701  0.5050  0.1447  0.2210
 5255SOL    HW220786   5.900   5.283   5.665  1.5457  0.2839  0.5715
 5255SOL    HW320787   5.809   5.184   5.735 -0.1922  0.3766 -1.4355
 5255SOL    MW420788   5.887   5.205   5.700 -0.2217 -0.0877 -0.1569
 5256SOL     OW20789   0.923   0.539   2.292 -0.2413 -0.4819 -0.6021
 5256SOL    HW220790   0.921   0.568   2.201 -0.6167 -0.4840 -0.5986
 5256SOL    HW320791   0.835   0.505   2.308 -0.1785 -0.4828 -0.2387
 5256SOL    MW420792   0.911   0.538   2.282 -0.6338  0.4422 -0.5138
 5257SOL     OW20793   4.465   5.979   0.201  0.1319 -0.3166  0.2086
 5257SOL    HW220794   4.516   5.917   0.148 -0.2400 -1.7592  1.4537
 5257SOL    HW320795   4.380   5.936   0.211 -0.3359  0.6922  0.6190
 5257SOL    MW420796   4.461   5.965   0.195 -0.0181  0.0002  0.3609
 5258SOL     OW20797   4.966   5.976   6.257 -0.4704  0.6471  0.5166
 5258SOL    HW220798   4.949   6.061   6.216  0.5663  0.7237  0.2106
 5258SOL    HW320799   4.964   5.913   6.186 -0.9700  0.4516  0.7028
 5258SOL    MW420800   4.964   5.979   6.242 -0.1412  0.5450  0.1934
 5259SOL     OW20801   4.879   2.788   5.184  0.1060  0.6046 -0.1114
 5259SOL    HW220802   4.926   2.708   5.210  1.5614  1.5773  0.3727
 5259SOL    HW320803   4.812   2.757   5.124  0.9546 -0.9397 -0.3266
 5259SOL    MW420804   4.877   2.773   5.180  0.9040 -0.4374 -0.2535
 5260SOL     OW20805   5.090   6.029   5.343 -0.2572  0.5092  0.0505
 5260SOL    HW220806   5.009   5.981   5.329 -0.6678  1.0803  0.4521
 5260SOL    HW320807   5.159   5.962   5.337 -0.8451 -0.1981  1.0000
 5260SOL    MW420808   5.089   6.014   5.340 -0.1527  0.1736  0.1869
 5261SOL     OW20809   5.402   2.257   1.466 -0.2868  0.1461 -0.0885
 5261SOL    HW220810   5.490   2.268   1.501 -0.8160  0.8542  1.1010
 5261SOL    HW320811   5.357   2.339   1.489 -1.0607  0.0683 -1.2624
 5261SOL    MW420812   5.408   2.269   1.474 -0.2712  0.3694  0.2807
 5262SOL     OW20813   2.541   0.956   1.098  0.0526 -0.3094 -0.4493
 5262SOL    HW220814   2.502   0.872   1.122 -1.0575  0.2602 -0.2222
 5262SOL    HW320815   2.468   1.009   1.068  0.6537  0.8051  0.0057
 5262SOL    MW420816   2.527   0.952   1.097  0.0209  0.0314 -0.7863
 5263SOL     OW20817   5.696   5.985   4.001  0.2589  0.5137  0.2424
 5263SOL    HW220818   5.722   6.066   4.044 -0.4371  1.3855 -0.8979
 5263SOL    HW320819   5.639   5.942   4.064 -0.6528  1.7104  0.2837
 5263SOL    MW420820   5.692   5.990   4.015 -0.4002  0.1957  0.6579
 5264SOL     OW20821   4.883   0.149   5.196 -0.2893 -0.3748 -0.0382
 5264SOL    HW220822   4.888   0.128   5.290  2.3043 -0.1800 -0.0543
 5264SOL    HW320823   4.967   0.119   5.161 -0.9396  0.1682 -2.2024
 5264SOL    MW420824   4.895   0.142   5.204 -0.8422 -0.0603 -0.2680
 5265SOL     OW20825   1.352   5.238   1.528  0.2039  0.0579  0.1577
 5265SOL    HW220826   1.402   5.162   1.557 -1.7637 -1.2458  0.3540
 5265SOL    HW320827   1.370   5.244   1.434 -2.1124 -2.8193 -0.6313
 5265SOL    MW420828   1.361   5.228   1.520  0.0626 -0.4614 -0.2145
 5266SOL     OW20829   1.127   3.340   2.758  0.0804 -0.4128 -0.3150
 5266SOL    HW220830   1.110   3.400   2.685  0.1789  1.3956  1.0748
 5266SOL    HW320831   1.090   3.257   2.729 -0.4897  0.4093 -2.1468
 5266SOL    MW420832   1.120   3.337   2.744 -0.0016 -0.3108 -0.4845
 5267SOL     OW20833   5.123   2.764   5.584 -0.2201 -0.0630 -0.5448
 5267SOL    HW220834   5.045   2.748   5.637 -0.5596 -1.3965 -1.4081
 5267SOL    HW320835   5.108   2.850   5.545 -1.6847 -0.6744 -1.3926
 5267SOL    MW420836   5.111   2.773   5.586  0.2143 -0.1622  0.0793
 5268SOL     OW20837   1.151   5.173   4.522 -0.3138 -0.0564 -0.3624
 5268SOL    HW220838   1.221   5.201   4.581 -0.1615 -0.7481 -0.1969
 5268SOL    HW320839   1.196   5.116   4.459 -0.5384  0.3802 -0.9213
 5268SOL    MW420840   1.166   5.169   4.521 -0.3524 -0.4209 -0.2724
 5269SOL     OW20841   0.935   5.148   4.271 -0.0126 -0.1196  0.2127
 5269SOL    HW220842   0.914   5.119   4.182 -0.2246 -0.2522  0.3038
 5269SOL    HW320843   0.941   5.067   4.322  1.4714 -0.1384  0.0471
 5269SOL    MW420844   0.933   5.133   4.266 -0.3396 -0.3952 -0.0201
 5270SOL     OW20845   1.064   1.450   1.235  0.2605 -0.3894 -0.4509
 5270SOL    HW220846   0.982   1.435   1.188 -0.0883  2.0940 -0.7463
 5270SOL    HW320847   1.120   1.497   1.174  0.3990  1.4828  1.0108
 5270SOL    MW420848   1.061   1.454   1.221 -0.1845 -0.2722 -0.4359
 5271SOL     OW20849   6.215   1.478   4.568 -0.0579  0.5500 -0.0590
 5271SOL    HW220850   6.289   1.530   4.535 -0.1439 -0.8903 -2.7558
 5271SOL    HW320851   6.151   1.479   4.497 -2.4038  1.1429  1.9321
 5271SOL    MW420852   6.216   1.485   4.555 -0.0903 -0.3211  0.1431
 5272SOL     OW20853   4.683   4.373   2.069 -0.6820 -0.4201  0.0060
 5272SOL    HW220854   4.728   4.426   2.135  0.3745  1.5235 -2.1281
 5272SOL    HW320855   4.745   4.304   2.047 -0.4793 -0.2636  0.0806
 5272SOL    MW420856   4.697   4.371   2.075 -0.3456 -0.8292 -0.0526
 5273SOL     OW20857   4.255   4.210   4.304  0.2432 -0.1810  0.5724
 5273SOL    HW220858   4.256   4.131   4.250 -0.5100 -1.4187  2.2363
 5273SOL    HW320859   4.332   4.202   4.360  0.2877  0.3740  0.5905
 5273SOL    MW420860   4.265   4.198   4.305 -0.3251  0.1824 -0.3074
 5274SOL     OW20861   4.698   3.671   1.136 -0.0779  0.2770  0.0918
 5274SOL    HW220862   4.737   3.684   1.223  0.0357 -0.8973  0.2216
 5274SOL    HW320863   4.750   3.726   1.078  2.4761 -1.9954  0.0665
 5274SOL    MW420864   4.710   3.680   1.140 -0.2163 -1.3599  0.4340
 5275SOL     OW20865   4.098   4.228   1.912  0.6624  0.5877  0.4117
 5275SOL    HW220866   4.063   4.315   1.892 -0.6561 -0.1106 -0.4844
 5275SOL    HW320867   4.071   4.212   2.002 -0.2649  0.5731  0.1407
 5275SOL    MW420868   4.090   4.238   1.921  0.1061  0.4743 -0.8920
 5276SOL     OW20869   2.877   1.267   5.196  0.3768 -0.1230 -0.1400
 5276SOL    HW220870   2.971   1.263   5.213  0.4535  0.2833 -0.4578
 5276SOL    HW320871   2.845   1.339   5.250  0.3053 -0.0488 -0.2790
 5276SOL    MW420872   2.885   1.276   5.205  0.1492 -0.4763  0.0081
 5277SOL     OW20873   3.516   2.903   1.365  0.3398 -0.7074  0.4685
 5277SOL    HW220874   3.599   2.919   1.319 -0.4984  1.0024 -0.5405
 5277SOL    HW320875   3.539   2.911   1.458  1.1480  0.7592  0.1746
 5277SOL    MW420876   3.530   2.907   1.372  0.3114 -0.2414 -0.3033
 5278SOL     OW20877   5.496   5.850   4.140  0.2333 -0.4281 -0.6216
 5278SOL    HW220878   5.507   5.801   4.222  1.4470 -1.2666 -1.2577
 5278SOL    HW320879   5.497   5.783   4.072  2.5779  0.4720 -1.5753
 5278SOL    MW420880   5.498   5.834   4.142 -0.0851 -0.3733 -1.1980
 5279SOL     OW20881   1.077   3.448   6.331 -0.6775  0.0283  0.2533
 5279SOL    HW220882   1.130   3.493   6.396  1.2964  0.4084 -1.4980
 5279SOL    HW320883   1.020   3.391   6.381  1.4854 -0.4960  2.2964
 5279SOL    MW420884   1.077   3.447   6.346  0.1961  0.5354  0.7586
 5280SOL     OW20885   4.445   6.424   2.255 -0.0689 -0.3387  1.1244
 5280SOL    HW220886   4.482   6.336   2.261 -3.1761 -1.6660  3.6879
 5280SOL    HW320887   4.496   6.476   2.318  2.0380 -0.0518 -0.6814
 5280SOL    MW420888   4.457   6.419   2.264 -0.4331 -0.1577 -0.1101
 5281SOL     OW20889   1.160   0.611   0.733 -0.0961  0.2175 -0.2810
 5281SOL    HW220890   1.188   0.626   0.823 -1.0154 -0.9292  0.2311
 5281SOL    HW320891   1.112   0.528   0.737 -0.8629  0.5692 -1.6764
 5281SOL    MW420892   1.158   0.602   0.745 -0.1998  0.3368 -0.0394
 5282SOL     OW20893   3.538   5.120   3.757  0.1093 -0.0329 -0.0917
 5282SOL    HW220894   3.563   5.132   3.665 -0.6684  0.1411 -0.2833
 5282SOL    HW320895   3.454   5.076   3.754 -1.2737  2.3745  0.4560
 5282SOL    MW420896   3.530   5.116   3.745 -0.2900 -0.5463 -0.0896
 5283SOL     OW20897   5.326   1.559   2.211  0.3966 -0.0559 -0.2662
 5283SOL    HW220898   5.264   1.548   2.283 -0.0745 -1.3861 -0.8359
 5283SOL    HW320899   5.392   1.620   2.245  0.0558 -0.4578  1.1986
 5283SOL    MW420900   5.327   1.565   2.225 -0.3997  0.4388  0.5781
 5284SOL     OW20901   3.588   1.516   5.973 -0.4198 -0.1220  0.0545
 5284SOL    HW220902   3.569   1.573   6.047  1.1599  0.8392 -0.2305
 5284SOL    HW320903   3.515   1.454   5.971 -0.9241  0.3502  1.8779
 5284SOL    MW420904   3.576   1.516   5.982 -0.1239  0.2211  0.1078
 5285SOL     OW20905   2.728   0.190   0.869 -0.2461  0.5595 -0.2288
 5285SOL    HW220906   2.681   0.183   0.952 -0.2778 -1.2029 -0.3572
 5285SOL    HW320907   2.814   0.225   0.893 -0.0936 -0.3535  0.6296
 5285SOL    MW420908   2.733   0.194   0.883  0.4110 -0.5715 -0.3741
 5286SOL     OW20909   3.293   4.732   2.403 -0.0271 -0.7889 -0.3387
 5286SOL    HW220910   3.343   4.667   2.453  1.8436  0.6995 -0.1414
 5286SOL    HW320911   3.256   4.790   2.470  0.8385  0.0667 -0.5833
 5286SOL    MW420912   3.295   4.731   2.419  0.1406  0.0525 -0.0706
 5287SOL     OW20913   0.273   2.839   4.266 -0.0335 -0.5436  0.7975
 5287SOL    HW220914   0.190   2.887   4.266 -0.6605 -1.4682  3.2102
 5287SOL    HW320915   0.319   2.872   4.343  1.8823 -0.0650 -0.4869
 5287SOL    MW420916   0.268   2.850   4.277  0.0204 -0.3662 -0.3638
 5288SOL     OW20917   3.456   4.269   3.314  0.4120  0.0166 -0.1627
 5288SOL    HW220918   3.530   4.286   3.373  0.3641 -0.4036  0.0193
 5288SOL    HW320919   3.480   4.314   3.233  0.1706  1.1788  0.3910
 5288SOL    MW420920   3.469   4.277   3.311  0.0542  0.1319 -0.5579
 5289SOL     OW20921   4.305   3.616   5.284 -0.0270 -0.2983 -0.0387
 5289SOL    HW220922   4.319   3.538   5.338  2.0322 -0.1554 -0.2610
 5289SOL    HW320923   4.299   3.582   5.195 -0.3601 -0.2985 -0.0157
 5289SOL    MW420924   4.306   3.601   5.280 -0.3564  0.3099 -0.2633
 5290SOL     OW20925   2.341   1.837   5.950  0.2433 -0.3795  0.0851
 5290SOL    HW220926   2.331   1.745   5.974 -3.4345 -0.5988 -1.6198
 5290SOL    HW320927   2.288   1.884   6.014 -1.9792 -0.0430 -1.8941
 5290SOL    MW420928   2.333   1.831   5.962 -0.7162  0.8906 -0.2361
 5291SOL     OW20929   2.835   4.706   5.895 -0.3900 -0.2822 -0.5589
 5291SOL    HW220930   2.919   4.674   5.927 -0.6854  1.0782  1.8155
 5291SOL    HW320931   2.770   4.648   5.935 -0.6530 -1.1184 -2.1109
 5291SOL    MW420932   2.837   4.694   5.904 -0.2755 -0.1790 -0.1514
 5292SOL     OW20933   1.444   2.967   5.548  0.6233 -0.3016 -0.3587
 5292SOL    HW220934   1.378   2.929   5.490 -0.7689 -0.4294  1.2153
 5292SOL    HW320935   1.522   2.914   5.533 -0.2587 -1.5450 -0.7666
 5292SOL    MW420936   1.445   2.955   5.538 -0.1060 -0.0663 -0.1590
 5293SOL     OW20937   5.045   0.022   1.007  0.5149 -0.1361 -0.6050
 5293SOL    HW220938   5.138   0.001   1.015  0.6706  0.7737  0.1867
 5293SOL    HW320939   5.041   0.117   1.020 -0.8677 -0.5234  3.0427
 5293SOL    MW420940   5.057   0.032   1.010 -0.3147  0.1854  0.2530
 5294SOL     OW20941   2.550   0.062   5.059  0.3219 -0.1208  0.2328
 5294SOL    HW220942   2.525   0.088   4.970  0.1771  0.3375  0.4016
 5294SOL    HW320943   2.608  -0.013   5.047 -0.6814 -0.8650 -0.2046
 5294SOL    MW420944   2.554   0.056   5.046 -0.0158  0.2687 -0.7125
 5295SOL     OW20945   5.910   0.942   3.139  0.0794  0.7566  0.7712
 5295SOL    HW220946   5.982   0.988   3.096 -0.2006  3.2464  2.7030
 5295SOL    HW320947   5.951   0.869   3.185  1.3310  1.8349  1.4326
 5295SOL    MW420948   5.925   0.939   3.139 -0.7518 -0.3728 -0.3070
 5296SOL     OW20949   0.560   5.349   1.551 -0.0663  0.2209  0.1634
 5296SOL    HW220950   0.501   5.276   1.530  0.2240 -0.0530  0.2772
 5296SOL    HW320951   0.601   5.371   1.468  0.0084  0.1022  0.1672
 5296SOL    MW420952   0.558   5.342   1.537 -0.4972  0.3507  0.0673
 5297SOL     OW20953   5.513   2.712   5.510  0.7398  0.0695 -0.5160
 5297SOL    HW220954   5.551   2.665   5.584  2.2164  2.7079  0.5196
 5297SOL    HW320955   5.566   2.687   5.435  0.8348 -0.6698 -0.2114
 5297SOL    MW420956   5.525   2.703   5.510 -0.1329  0.4726  0.0313
 5298SOL     OW20957   0.065   2.277   4.634 -0.0548 -0.1109 -0.4637
 5298SOL    HW220958  -0.011   2.321   4.597 -0.6841 -0.1261  0.7618
 5298SOL    HW320959   0.048   2.274   4.728  0.0018 -2.9039 -0.4623
 5298SOL    MW420960   0.053   2.282   4.642 -1.0189  0.0959  0.2286
 5299SOL     OW20961   6.286   0.272   4.304 -0.8265  0.1179 -0.3167
 5299SOL    HW220962   6.273   0.356   4.261 -2.1105 -0.0068 -0.2030
 5299SOL    HW320963   6.218   0.268   4.371 -0.2784 -0.6745  0.2142
 5299SOL    MW420964   6.276   0.282   4.307 -0.4124 -0.3742  0.2348
 5300SOL     OW20965   3.834   3.341   2.737  0.0206 -0.2650  0.5501
 5300SOL    HW220966   3.897   3.413   2.732  1.7860 -1.8292 -1.5709
 5300SOL    HW320967   3.882   3.270   2.778 -0.6102 -1.2269 -0.3420
 5300SOL    MW420968   3.849   3.341   2.742 -0.0905 -0.5431 -0.4101
 5301SOL     OW20969   2.653   3.851   6.363  0.2766 -0.1261  0.4864
 5301SOL    HW220970   2.590   3.812   6.302  0.4085  1.3399 -0.6543
 5301SOL    HW320971   2.613   3.935   6.388  1.4259  0.4960  0.2999
 5301SOL    MW420972   2.639   3.857   6.358 -0.5481  0.2730 -0.3934
 5302SOL     OW20973   1.297   3.677   3.565 -0.1020 -0.1426 -0.2131
 5302SOL    HW220974   1.260   3.723   3.641 -1.5213 -0.6620 -0.5468
 5302SOL    HW320975   1.279   3.734   3.491 -0.2336 -0.3979 -0.3796
 5302SOL    MW420976   1.289   3.691   3.566  0.4147  0.6452  0.6683
 5303SOL     OW20977   5.071   5.489   3.722 -0.1032 -0.3370  0.1952
 5303SOL    HW220978   5.050   5.414   3.778 -2.3284  0.2340  0.2241
 5303SOL    HW320979   5.102   5.451   3.640  1.6595 -1.2082  1.2066
 5303SOL    MW420980   5.072   5.474   3.719  0.1946 -0.2288 -0.5468
 5304SOL     OW20981   2.677   4.755   4.985  0.1703  0.3384  0.2086
 5304SOL    HW220982   2.663   4.762   5.080  0.5864  0.9730  0.2221
 5304SOL    HW320983   2.595   4.718   4.952 -0.6600  1.7613  0.6047
 5304SOL    MW420984   2.664   4.751   4.993 -0.5720 -0.2073 -0.0867
 5305SOL     OW20985   1.272   4.653   5.503  0.3915  0.1929 -0.3742
 5305SOL    HW220986   1.245   4.698   5.423 -0.1452  2.5372  1.0176
 5305SOL    HW320987   1.219   4.573   5.505  0.5138  0.0104 -2.3848
 5305SOL    MW420988   1.261   4.649   5.493 -0.2196 -0.2550  0.0279
 5306SOL     OW20989   2.438   1.525   0.520  0.1453  0.5409  0.0619
 5306SOL    HW220990   2.513   1.488   0.474 -0.0485  1.0577 -0.6971
 5306SOL    HW320991   2.362   1.485   0.477 -0.0290 -0.4585  1.2340
 5306SOL    MW420992   2.437   1.515   0.508 -0.1954  0.3654 -0.3854
 5307SOL     OW20993   3.835   5.119   4.201  0.0767  0.2939 -0.0925
 5307SOL    HW220994   3.780   5.170   4.142 -0.3278 -0.6035 -0.5146
 5307SOL    HW320995   3.876   5.053   4.145 -1.6663 -1.6942  0.8528
 5307SOL    MW420996   3.833   5.117   4.186 -0.2818 -0.0067 -0.0552
 5308SOL     OW20997   0.524   1.454   1.426  0.1838 -0.1192  1.0578
 5308SOL    HW220998   0.587   1.526   1.431 -1.2512  1.3756 -0.5428
 5308SOL    HW320999   0.440   1.495   1.448 -0.4899 -1.6275  1.3759
 5308SOL    MW421000   0.521   1.469   1.429  0.7810 -0.4436  0.1365
 5309SOL     OW21001   5.464   3.977   4.193  0.7000 -0.0585 -0.5093
 5309SOL    HW221002   5.464   3.946   4.103  0.2264  2.2896 -1.3651
 5309SOL    HW321003   5.554   4.004   4.209  0.4705  0.9262 -0.8167
 5309SOL    MW421004   5.476   3.976   4.183  0.1675  0.0326  0.9365
 5310SOL     OW21005   5.136   3.709   4.532 -0.3731 -0.3467 -0.1546
 5310SOL    HW221006   5.091   3.695   4.616 -1.2240 -0.5512 -0.6349
 5310SOL    HW321007   5.128   3.802   4.515  0.5256 -0.1547  0.3801
 5310SOL    MW421008   5.129   3.719   4.541  0.0550  0.4205 -0.2799
 5311SOL     OW21009   4.973   5.316   3.956  0.6115  0.1081 -0.0566
 5311SOL    HW221010   5.054   5.313   4.007  0.6863  1.3429 -0.0813
 5311SOL    HW321011   4.924   5.389   3.992  0.2351  0.3902 -1.1114
 5311SOL    MW421012   4.978   5.325   3.967 -0.2482 -0.5660 -0.2660
 5312SOL     OW21013   2.521   1.999   2.420 -0.0414 -0.5249  0.1975
 5312SOL    HW221014   2.571   1.918   2.429 -0.2456 -0.9176 -1.8206
 5312SOL    HW321015   2.582   2.067   2.447  0.8299 -1.1813 -0.0630
 5312SOL    MW421016   2.536   1.997   2.425  0.4049 -0.7944 -0.4774
 5313SOL     OW21017   3.989   4.119   2.158 -0.0509  0.1557  0.5196
 5313SOL    HW221018   4.074   4.109   2.199 -0.2605 -0.0413  0.9144
 5313SOL    HW321019   3.939   4.042   2.188 -1.2712  1.6376  2.5336
 5313SOL    MW421020   3.993   4.107   2.167  0.5382  0.0946  0.4018
 5314SOL     OW21021   0.797   4.836   3.275  0.2377 -0.1409 -0.1664
 5314SOL    HW221022   0.816   4.777   3.348 -1.2403  1.3599  1.5338
 5314SOL    HW321023   0.880   4.883   3.261  1.5971 -2.8257 -1.8982
 5314SOL    MW421024   0.811   4.835   3.283 -0.0677  0.6896 -0.4217
 5315SOL     OW21025   6.226  -0.004   2.215  0.9908  0.3857 -0.3712
 5315SOL    HW221026   6.238   0.029   2.126  1.8995  0.2196 -0.3234
 5315SOL    HW321027   6.132   0.004   2.232  1.0291  1.8444 -0.7772
 5315SOL    MW421028   6.215   0.001   2.206  0.1502 -0.2211  0.3139
 5316SOL     OW21029   4.537   5.102   2.042  0.0190 -0.1187  0.3161
 5316SOL    HW221030   4.550   5.137   2.131 -2.0764 -0.3449  0.7522
 5316SOL    HW321031   4.556   5.009   2.050 -0.2963 -0.1632  0.5609
 5316SOL    MW421032   4.542   5.094   2.055  0.4828  0.5636 -0.3517
 5317SOL     OW21033   0.991   3.551   3.702 -0.3764  0.0872  0.6621
 5317SOL    HW221034   1.052   3.536   3.774  0.1661 -0.5124  0.0917
 5317SOL    HW321035   0.906   3.523   3.736  0.0285 -1.0463  0.7941
 5317SOL    MW421036   0.988   3.545   3.716  0.2421  0.1067 -0.3972
 5318SOL     OW21037   6.120   0.631   2.104 -0.0767  0.2780  0.0245
 5318SOL    HW221038   6.146   0.553   2.055  0.4286  0.3813  0.1189
 5318SOL    HW321039   6.082   0.690   2.038  0.6679  0.4484 -0.2630
 5318SOL    MW421040   6.118   0.628   2.089 -0.1835 -0.1108 -0.4607
 5319SOL     OW21041   3.473   6.077   0.403  0.0395 -0.3229 -0.4167
 5319SOL    HW221042   3.464   6.146   0.469  1.0179 -0.7114  0.1395
 5319SOL    HW321043   3.567   6.064   0.394 -0.1084 -0.9996 -1.1403
 5319SOL    MW421044   3.484   6.084   0.410 -0.8534  0.1807  0.1047
 5320SOL     OW21045   1.334   4.613   1.941 -0.3790 -0.0196  0.5007
 5320SOL    HW221046   1.339   4.541   1.879  0.5100 -0.2362  0.8166
 5320SOL    HW321047   1.271   4.585   2.007  1.3015 -1.3253  1.6379
 5320SOL    MW421048   1.327   4.600   1.941  0.9195  0.0462 -0.2228
 5321SOL     OW21049   3.019   1.504   1.617 -0.2759  0.3787  0.3532
 5321SOL    HW221050   3.096   1.521   1.564 -0.1429  0.6557  0.6323
 5321SOL    HW321051   2.951   1.480   1.554 -0.4679  1.9234 -0.0697
 5321SOL    MW421052   3.020   1.503   1.602  0.5432  0.0710  0.0078
 5322SOL     OW21053   4.558   2.392   5.468  0.2801 -0.0725 -0.3186
 5322SOL    HW221054   4.506   2.433   5.536  0.7880  1.0850 -0.5991
 5322SOL    HW321055   4.494   2.350   5.410 -0.6449  3.0960 -1.8731
 5322SOL    MW421056   4.543   2.392   5.469  0.2381 -0.2336  0.6168
 5323SOL     OW21057   5.229   3.811   0.552  0.5128  0.0916  0.2128
 5323SOL    HW221058   5.286   3.872   0.598 -1.6097  0.5307  2.4642
 5323SOL    HW321059   5.141   3.848   0.561 -0.2976 -1.0176 -2.3060
 5323SOL    MW421060   5.225   3.824   0.559  0.2262  0.1181  0.0091
 5324SOL     OW21061   1.379   2.524   5.463  0.9674  0.1740 -0.6938
 5324SOL    HW221062   1.362   2.554   5.552  0.4547 -0.2662 -0.6409
 5324SOL    HW321063   1.338   2.591   5.407 -0.6708 -0.6852 -0.5701
 5324SOL    MW421064   1.371   2.537   5.467  0.2455 -0.0667 -0.0825
 5325SOL     OW21065   1.742   4.350   1.541  0.3531 -0.4018  0.0941
 5325SOL    HW221066   1.765   4.299   1.618  0.7444  0.0871  0.3081
 5325SOL    HW321067   1.693   4.425   1.576 -1.8317 -1.5373 -0.3622
 5325SOL    MW421068   1.738   4.353   1.556 -0.1547 -0.0278  0.1612
 5326SOL     OW21069   3.967   5.124   1.828  0.1022  0.0121 -0.2892
 5326SOL    HW221070   3.966   5.195   1.764  1.2650 -0.4433 -0.8368
 5326SOL    HW321071   3.938   5.165   1.910 -0.5197  0.8055 -0.8884
 5326SOL    MW421072   3.963   5.139   1.831  0.1444 -0.3156  0.4767
 5327SOL     OW21073   1.160   3.882   5.256  0.4602 -0.0952  0.3781
 5327SOL    HW221074   1.203   3.926   5.329 -0.9915  0.4862  0.9250
 5327SOL    HW321075   1.101   3.819   5.297  0.8855 -0.9899 -0.3492
 5327SOL    MW421076   1.158   3.880   5.271  0.1506 -0.0616  1.1187
 5328SOL     OW21077   4.344   0.593   2.652  0.4672 -0.1328 -0.2497
 5328SOL    HW221078   4.353   0.683   2.681  0.9949 -0.1247 -0.4209
 5328SOL    HW321079   4.394   0.541   2.715 -1.7818 -0.6078  1.2579
 5328SOL    MW421080   4.352   0.598   2.664 -0.1293  0.0533 -0.0698
 5329SOL     OW21081   4.381   1.214   5.917  0.0093  0.4779 -0.2829
 5329SOL    HW221082   4.420   1.300   5.904  1.3695 -0.3886 -2.4187
 5329SOL    HW321083   4.309   1.210   5.854 -0.0565  0.0422 -0.1845
 5329SOL    MW421084   4.377   1.224   5.907  0.3504  0.1609  0.8150
 5330SOL     OW21085   6.304   6.250   1.820 -0.0549  0.2560  0.1662
 5330SOL    HW221086   6.390   6.220   1.851  0.9781  1.0575 -1.7526
 5330SOL    HW321087   6.281   6.188   1.751 -1.1553 -0.0832  0.8138
 5330SOL    MW421088   6.312   6.238   1.815 -0.0508  0.1110  0.2948
 5331SOL     OW21089   2.592   2.355   0.034  0.0593 -0.1310  0.1373
 5331SOL    HW221090   2.556   2.267   0.021 -0.1419 -0.2715  1.4787
 5331SOL    HW321091   2.516   2.413   0.029 -0.5160 -0.4598  3.3091
 5331SOL    MW421092   2.577   2.351   0.031  0.3063 -0.5917 -0.0076
 5332SOL     OW21093   1.467   5.905   6.118  0.0614 -0.1019  0.1867
 5332SOL    HW221094   1.538   5.909   6.054  0.2580 -1.0578  0.3273
 5332SOL    HW321095   1.462   5.812   6.142 -1.7114 -0.1882 -0.3775
 5332SOL    MW421096   1.476   5.893   6.112 -0.0640  0.2524  0.1371
 5333SOL     OW21097   1.424   3.060   2.877 -0.2826  0.5694  0.3509
 5333SOL    HW221098   1.367   3.036   2.950 -2.0120  0.7000 -0.9005
 5333SOL    HW321099   1.512   3.060   2.914 -0.9012 -1.2767  1.9535
 5333SOL    MW421100   1.428   3.057   2.891 -0.1158  0.2948  0.2486
 5334SOL     OW21101   0.463   0.496   5.241  0.3895 -0.7685  0.4762
 5334SOL    HW221102   0.374   0.522   5.262  0.9349  0.4636  1.4042
 5334SOL    HW321103   0.454   0.432   5.171 -1.2576 -1.2247  1.0579
 5334SOL    MW421104   0.450   0.491   5.235 -0.2865 -0.4089  0.2326
 5335SOL     OW21105   4.806   4.904   5.976 -0.2125  0.0345 -0.2131
 5335SOL    HW221106   4.820   4.842   6.047 -0.8610 -0.4490 -0.4958
 5335SOL    HW321107   4.742   4.966   6.010  0.7830  0.8375  0.2355
 5335SOL    MW421108   4.800   4.904   5.990 -0.8327  0.3325 -0.5418
 5336SOL     OW21109   5.639   2.509   0.938 -0.7247  0.1185  0.4506
 5336SOL    HW221110   5.591   2.429   0.919 -0.4665 -0.6661  2.7548
 5336SOL    HW321111   5.581   2.559   0.996 -0.0000  0.5648  0.8049
 5336SOL    MW421112   5.625   2.505   0.944 -0.2739 -0.2105  0.3481
 5337SOL     OW21113   1.240   5.422   3.182  0.1508  0.2717 -0.4305
 5337SOL    HW221114   1.219   5.435   3.274 -2.3910  0.9626 -1.0377
 5337SOL    HW321115   1.242   5.510   3.145  0.3872 -0.0469 -1.1907
 5337SOL    MW421116   1.237   5.435   3.189 -0.1375  0.2635 -0.3034
 5338SOL     OW21117   3.922   5.795   3.744 -0.3751 -0.5121 -0.1801
 5338SOL    HW221118   3.923   5.754   3.831  2.1341  1.2143  0.7222
 5338SOL    HW321119   3.855   5.863   3.751  1.5952  1.4504  1.4935
 5338SOL    MW421120   3.913   5.799   3.756  0.0649  0.3315  0.2167
 5339SOL     OW21121   0.626   6.075   0.486 -0.1726  0.2495 -0.0263
 5339SOL    HW221122   0.716   6.105   0.470 -0.1268  0.3657  0.4305
 5339SOL    HW321123   0.623   5.988   0.447 -0.0968  0.5628 -0.7398
 5339SOL    MW421124   0.638   6.067   0.479  1.0298  0.4982 -0.5600
 5340SOL     OW21125   4.094   4.715   1.868 -0.1139 -0.1561  0.4528
 5340SOL    HW221126   4.078   4.756   1.783  1.2825 -1.3078 -0.3913
 5340SOL    HW321127   4.039   4.637   1.868  1.7032 -1.5055 -0.4682
 5340SOL    MW421128   4.084   4.710   1.857  0.0815  0.6758  0.0728
 5341SOL     OW21129   4.332   5.207   5.311 -0.3837  0.6514 -0.1189
 5341SOL    HW221130   4.294   5.295   5.307  0.1090  0.8403 -0.8707
 5341SOL    HW321131   4.302   5.164   5.231 -0.8224  0.0430  0.3629
 5341SOL    MW421132   4.323   5.213   5.300 -0.0716 -0.6836 -0.0766
 5342SOL     OW21133   6.234   1.660   4.276  0.1126  0.0528  0.2236
 5342SOL    HW221134   6.142   1.666   4.301 -0.5246 -1.1657 -1.6001
 5342SOL    HW321135   6.254   1.745   4.236 -0.1010  0.4547  0.9627
 5342SOL    MW421136   6.225   1.672   4.274 -0.1395  0.3329 -0.5264
 5343SOL     OW21137   2.810   4.626   3.677 -0.2791 -0.0199  0.1323
 5343SOL    HW221138   2.818   4.542   3.633 -0.1801 -0.1067  0.3111
 5343SOL    HW321139   2.734   4.616   3.734 -0.1442 -0.0590  0.3061
 5343SOL    MW421140   2.801   4.613   3.679 -0.2318  0.1155 -0.1344
 5344SOL     OW21141   5.063   5.382   4.849 -0.6112 -0.6354  0.5260
 5344SOL    HW221142   5.144   5.346   4.812 -0.7273  0.1129 -0.5185
 5344SOL    HW321143   5.061   5.472   4.818 -2.4038 -0.9660 -0.4630
 5344SOL    MW421144   5.073   5.389   4.840  0.1832  0.0616  0.1389
 5345SOL     OW21145   1.795   1.846   2.207 -0.1177  0.4545  0.3781
 5345SOL    HW221146   1.799   1.871   2.115 -0.0977  0.0204  0.2597
 5345SOL    HW321147   1.705   1.819   2.221 -1.2822  4.2753  1.4932
 5345SOL    MW421148   1.784   1.846   2.197  0.7240  0.4138  0.3793
 5346SOL     OW21149   2.070   5.608   1.773 -0.7962 -0.2188  0.3630
 5346SOL    HW221150   2.051   5.516   1.793 -1.2182  0.0259  1.1835
 5346SOL    HW321151   1.983   5.649   1.767 -0.6294 -0.0203 -0.7540
 5346SOL    MW421152   2.056   5.601   1.775  0.1790  0.1272  1.2741
 5347SOL     OW21153   4.231   3.809   1.969 -0.0342 -0.1990 -0.3491
 5347SOL    HW221154   4.191   3.763   1.895 -0.0331 -0.2192 -0.3369
 5347SOL    HW321155   4.180   3.781   2.045  0.0793 -0.3148 -0.3168
 5347SOL    MW421156   4.219   3.799   1.969 -0.7241  0.5847  0.0998
 5348SOL     OW21157   3.840   3.500   3.568  0.0229 -0.1931 -0.2750
 5348SOL    HW221158   3.825   3.463   3.655 -1.2108  0.4630 -0.1966
 5348SOL    HW321159   3.905   3.442   3.529  0.6827 -0.4336  1.1195
 5348SOL    MW421160   3.847   3.487   3.574  0.2845  0.0845  0.5813
 5349SOL     OW21161   4.586   3.682   3.603 -0.2373  0.2335  0.0591
 5349SOL    HW221162   4.668   3.723   3.629 -0.2291  0.4328 -0.2742
 5349SOL    HW321163   4.521   3.751   3.612  0.0259  0.8024 -2.0116
 5349SOL    MW421164   4.588   3.696   3.608  0.0514  0.7624 -0.1349
 5350SOL     OW21165   2.003   1.552   3.946  0.6218  0.0131  0.3857
 5350SOL    HW221166   1.962   1.519   3.866 -0.2417  1.6267  0.1212
 5350SOL    HW321167   2.034   1.639   3.922 -0.9799  1.1451  2.1714
 5350SOL    MW421168   2.002   1.559   3.932  0.0658  0.2244 -0.4414
 5351SOL     OW21169   0.402   3.110   1.263  0.4755 -0.4520  0.3557
 5351SOL    HW221170   0.427   3.202   1.272  0.2182 -0.4466  1.1700
 5351SOL    HW321171   0.326   3.101   1.321  0.5062 -1.1785  0.2909
 5351SOL    MW421172   0.395   3.121   1.272  0.0477  0.6839 -0.4711
 5352SOL     OW21173   1.062   4.173   6.430 -0.1952  0.4451 -0.2517
 5352SOL    HW221174   1.148   4.133   6.441 -0.9338 -0.8646  1.0297
 5352SOL    HW321175   1.061   4.204   6.340  2.0142  1.4824  0.0182
 5352SOL    MW421176   1.073   4.172   6.420 -0.1509  0.1646 -0.7463
 5353SOL     OW21177   4.077   0.004   6.054  0.5509 -0.8521  0.4910
 5353SOL    HW221178   4.062  -0.090   6.043 -1.3060 -0.4833 -0.4770
 5353SOL    HW321179   3.990   0.042   6.059  1.2477  0.9522 -0.2664
 5353SOL    MW421180   4.064  -0.004   6.053 -0.6530  0.0389  0.0387
 5354SOL     OW21181   3.169   0.122   3.713 -0.1276  0.1736 -0.1448
 5354SOL    HW221182   3.199   0.092   3.799 -0.3164 -1.9736 -0.7755
 5354SOL    HW321183   3.074   0.116   3.718 -0.0896 -1.7933 -1.0733
 5354SOL    MW421184   3.161   0.118   3.725  0.6629 -0.8535 -0.1210
 5355SOL     OW21185   1.909   1.509   0.887  0.0675  0.3167  0.2413
 5355SOL    HW221186   1.954   1.465   0.815  0.8748  1.1095  0.2495
 5355SOL    HW321187   1.887   1.596   0.853 -1.6550 -0.0985  0.1718
 5355SOL    MW421188   1.912   1.515   0.873  0.4093  0.0741 -0.6063
 5356SOL     OW21189   1.685   2.223   1.984 -0.1233  0.3230  0.4974
 5356SOL    HW221190   1.732   2.144   1.955  1.0323  1.0205  0.4346
 5356SOL    HW321191   1.604   2.222   1.933  1.6262  1.2759 -2.5190
 5356SOL    MW421192   1.680   2.212   1.974  0.2837  0.6416  0.6410
 5357SOL     OW21193   1.031   6.289   5.788  0.1632 -0.0170 -0.4789
 5357SOL    HW221194   0.995   6.202   5.806 -1.2757  0.4579 -0.9090
 5357SOL    HW321195   1.126   6.277   5.793  0.1101 -2.0427 -2.3538
 5357SOL    MW421196   1.039   6.276   5.791  0.6960 -0.3557 -0.4616
 5358SOL     OW21197   2.057   0.568   0.487 -0.2224  0.1513  0.6235
 5358SOL    HW221198   2.112   0.646   0.479 -0.3194  0.0500 -1.7242
 5358SOL    HW321199   2.118   0.497   0.502 -0.1805  0.6847  3.6194
 5358SOL    MW421200   2.072   0.569   0.488  0.0277 -0.0105  0.3581
 5359SOL     OW21201   1.820   0.694   0.365  0.2115  0.0395  0.2348
 5359SOL    HW221202   1.888   0.630   0.387  0.1940  0.7499  2.5515
 5359SOL    HW321203   1.865   0.778   0.368  0.1407  0.2599 -2.4139
 5359SOL    MW421204   1.835   0.696   0.368 -0.3130  0.0309  0.2622
 5360SOL     OW21205   2.412   4.132   3.646  0.4325  0.6432  0.0048
 5360SOL    HW221206   2.344   4.136   3.714 -0.0056 -0.4036 -0.3389
 5360SOL    HW321207   2.417   4.039   3.624  0.0607  1.0295 -1.8942
 5360SOL    MW421208   2.404   4.120   3.652 -0.9407  0.0760  0.4624
 5361SOL     OW21209   5.181   3.144   1.326 -0.1982  0.2252 -0.3074
 5361SOL    HW221210   5.193   3.208   1.397 -0.0172  1.9596 -1.8336
 5361SOL    HW321211   5.097   3.166   1.287 -0.3157 -0.7425 -0.6302
 5361SOL    MW421212   5.172   3.155   1.331 -0.1658 -0.5188 -0.7011
 5362SOL     OW21213   2.798   2.346   0.846 -0.5064  0.3087 -0.2542
 5362SOL    HW221214   2.803   2.436   0.815 -0.5009  0.3317 -0.1862
 5362SOL    HW321215   2.737   2.303   0.786 -1.1666  0.5695  0.2177
 5362SOL    MW421216   2.790   2.352   0.834  0.5791  0.0408 -0.1118
 5363SOL     OW21217   6.033   5.647   5.911 -0.2173 -0.2869 -0.1948
 5363SOL    HW221218   5.971   5.599   5.966  0.8916 -0.7588  0.6637
 5363SOL    HW321219   6.081   5.703   5.972  0.1120  0.1876 -0.8746
 5363SOL    MW421220   6.031   5.648   5.926  0.2560 -0.7480 -0.2227
 5364SOL     OW21221   3.806   0.490   4.489  0.4887  0.0520 -0.4154
 5364SOL    HW221222   3.774   0.571   4.448 -0.9058 -0.5330 -0.5367
 5364SOL    HW321223   3.737   0.426   4.472  1.1594 -0.9306  0.4690
 5364SOL    MW421224   3.792   0.492   4.481  0.0288 -0.3777  0.2072
 5365SOL     OW21225   0.983   2.338   4.011  0.8245  0.4834  0.4801
 5365SOL    HW221226   0.963   2.416   4.062  1.0296  1.1053 -0.3747
 5365SOL    HW321227   1.052   2.294   4.061 -0.2400  0.0969  1.6868
 5365SOL    MW421228   0.989   2.342   4.024 -0.1384 -0.2779 -0.1128
 5366SOL     OW21229   4.250   0.052   2.061 -0.4510  0.3267 -0.0468
 5366SOL    HW221230   4.336   0.029   2.097 -0.0305  2.3293  0.3812
 5366SOL    HW321231   4.211   0.110   2.127 -2.3745 -0.9491 -0.0058
 5366SOL    MW421232   4.256   0.057   2.074  0.0878 -0.7329 -0.3464
 5367SOL     OW21233   1.527   1.071   5.504  0.0464  0.0226 -0.7468
 5367SOL    HW221234   1.597   1.109   5.450  0.3258  1.0997  0.3288
 5367SOL    HW321235   1.569   0.999   5.551  0.2452  0.1991 -0.6527
 5367SOL    MW421236   1.542   1.067   5.503 -0.0725  0.2179 -0.7317
 5368SOL     OW21237   5.610   2.466   3.895  0.4402  0.5105  0.4867
 5368SOL    HW221238   5.607   2.424   3.809 -0.6534 -0.1471  0.8223
 5368SOL    HW321239   5.679   2.532   3.887 -0.4178  1.2706 -1.2578
 5368SOL    MW421240   5.618   2.469   3.882  0.1767 -0.0959  0.1890
 5369SOL     OW21241   1.024   0.667   3.804  0.0110 -0.0399 -0.6700
 5369SOL    HW221242   1.070   0.721   3.868  0.7654 -1.0855 -0.3002
 5369SOL    HW321243   0.945   0.638   3.850 -0.7751  1.3035 -1.1161
 5369SOL    MW421244   1.020   0.670   3.819  0.2441  0.0274 -0.0269
 5370SOL     OW21245   0.815   1.433   5.562  0.4998  0.3459  0.4952
 5370SOL    HW221246   0.798   1.377   5.638 -2.1309 -0.9323 -0.9155
 5370SOL    HW321247   0.835   1.371   5.491 -1.4038  1.2049 -0.8498
 5370SOL    MW421248   0.816   1.417   5.563  0.4831  0.5911  0.0427
 5371SOL     OW21249   3.640   5.621   0.453 -0.5569 -0.1959 -0.0963
 5371SOL    HW221250   3.614   5.575   0.373  0.2428 -0.4298 -0.2270
 5371SOL    HW321251   3.557   5.644   0.495 -1.0001 -2.0529  0.1353
 5371SOL    MW421252   3.625   5.618   0.448 -0.3892 -0.4514 -0.7541
 5372SOL     OW21253   5.742   5.992   1.827  0.2377  0.1569  0.3717
 5372SOL    HW221254   5.800   5.923   1.795  0.6560  0.8604 -0.4297
 5372SOL    HW321255   5.763   6.002   1.919  0.9418 -0.0346  0.2332
 5372SOL    MW421256   5.752   5.984   1.835 -0.5582  0.3302 -0.1682
 5373SOL     OW21257   2.900   1.417   1.249 -0.3347  0.5114 -0.4433
 5373SOL    HW221258   2.925   1.339   1.199  0.6107  0.3229  0.3008
 5373SOL    HW321259   2.983   1.450   1.284 -1.0215  0.3048  1.4663
 5373SOL    MW421260   2.914   1.411   1.247 -0.0321 -0.0176  0.2848
 5374SOL     OW21261   3.110   5.843   6.404 -0.5937  0.4755 -0.2458
 5374SOL    HW221262   3.062   5.810   6.480  0.4128  0.3191  0.3405
 5374SOL    HW321263   3.075   5.794   6.330 -1.3256  0.3649  0.1661
 5374SOL    MW421264   3.099   5.832   6.404 -0.7167  0.1595 -0.0638
 5375SOL     OW21265   6.421   2.482   4.260 -0.2450 -0.0163 -0.2635
 5375SOL    HW221266   6.390   2.545   4.194 -0.6040 -0.3606 -0.4228
 5375SOL    HW321267   6.511   2.511   4.279  0.1813 -0.4070 -1.5304
 5375SOL    MW421268   6.429   2.494   4.254 -0.3672  0.6589 -0.4484
 5376SOL     OW21269   0.235   3.173   5.943 -0.0897  0.1629  0.4504
 5376SOL    HW221270   0.172   3.151   6.012  0.6078  0.6290  1.2553
 5376SOL    HW321271   0.303   3.107   5.951 -0.0119  0.2135  0.1984
 5376SOL    MW421272   0.235   3.161   5.953  0.0647 -0.6290  0.5289
 5377SOL     OW21273   3.370   0.993   3.862 -0.0888  0.0308  0.0061
 5377SOL    HW221274   3.384   1.054   3.934  1.5723 -0.1020 -0.1750
 5377SOL    HW321275   3.284   1.016   3.827 -0.4677  0.7659  1.3650
 5377SOL    MW421276   3.361   1.004   3.867 -0.0091  0.2381 -0.3677
 5378SOL     OW21277   3.664   4.513   5.918  0.0073 -0.3082  0.0569
 5378SOL    HW221278   3.738   4.517   5.857  1.0699 -0.0473  1.3138
 5378SOL    HW321279   3.642   4.420   5.923  0.2035 -0.3833 -0.3823
 5378SOL    MW421280   3.671   4.501   5.911 -0.2499 -0.0692  0.3245
 5379SOL     OW21281   0.447   5.904   1.886 -0.1440  0.2423  0.0508
 5379SOL    HW221282   0.422   5.968   1.953 -1.9254  0.1509 -0.4606
 5379SOL    HW321283   0.379   5.837   1.891 -0.7709  0.6083 -2.3285
 5379SOL    MW421284   0.435   5.903   1.896  0.0906  0.1682 -0.6903
 5380SOL     OW21285   4.681   5.295   4.244 -0.3390 -0.1508 -0.0640
 5380SOL    HW221286   4.598   5.334   4.274 -1.1913 -1.7565 -0.2137
 5380SOL    HW321287   4.654   5.220   4.192  1.2330 -0.5148 -0.3865
 5380SOL    MW421288   4.666   5.290   4.241  0.1453 -0.6564  0.2452
 5381SOL     OW21289   3.414   0.974   3.196 -0.1281  0.8937  0.1950
 5381SOL    HW221290   3.505   0.945   3.197  0.2028  1.7800 -1.0004
 5381SOL    HW321291   3.362   0.893   3.193  0.5513  0.3511  1.8820
 5381SOL    MW421292   3.419   0.960   3.196  0.0894  0.2132  0.0299
 5382SOL     OW21293   4.194   5.980   0.877 -0.7148  0.2902 -0.1336
 5382SOL    HW221294   4.232   6.030   0.949 -1.1865 -0.1111  0.4089
 5382SOL    HW321295   4.269   5.939   0.834 -0.5129 -0.5051  0.9319
 5382SOL    MW421296   4.209   5.981   0.881  0.0599  0.0878 -0.1140
 5383SOL     OW21297   1.941   4.168   0.977  0.2046  0.2308 -0.4877
 5383SOL    HW221298   1.853   4.137   0.955  0.5049 -0.1166 -1.2206
 5383SOL    HW321299   1.934   4.199   1.068 -0.3011 -1.2090 -0.0169
 5383SOL    MW421300   1.928   4.168   0.986  0.2301 -0.4127 -0.6680
 5384SOL     OW21301   1.680   4.841   3.429  0.0876  0.2146  0.1317
 5384SOL    HW221302   1.685   4.817   3.522 -1.7162 -1.8453 -0.2240
 5384SOL    HW321303   1.742   4.913   3.420  2.2842 -1.2250  2.3881
 5384SOL    MW421304   1.689   4.847   3.440 -0.0418 -0.2000  0.6768
 5385SOL     OW21305   4.248   0.432   2.438  0.5833  0.5713 -0.1250
 5385SOL    HW221306   4.288   0.487   2.505 -0.5008  0.7448  0.4088
 5385SOL    HW321307   4.214   0.494   2.374  0.3683  0.4682 -0.1107
 5385SOL    MW421308   4.249   0.447   2.439 -0.1001  0.4845 -0.1916
 5386SOL     OW21309   5.992   2.655   3.675 -0.0636  0.1570 -0.2006
 5386SOL    HW221310   6.006   2.683   3.584  1.0423  0.7686  0.1378
 5386SOL    HW321311   6.080   2.653   3.713 -0.3176 -1.7038  0.4184
 5386SOL    MW421312   6.006   2.658   3.668  0.6275  0.6885 -0.3031
 5387SOL     OW21313   4.993   5.104   3.357  0.0574  0.0886 -0.7854
 5387SOL    HW221314   4.929   5.041   3.391  0.9488  0.2426  1.3146
 5387SOL    HW321315   5.063   5.051   3.321  0.7895 -0.1915  0.9477
 5387SOL    MW421316   4.993   5.089   3.357 -0.4529 -0.0295  0.2332
 5388SOL     OW21317   2.880   3.368   3.029  0.1013 -0.3399  0.2971
 5388SOL    HW221318   2.808   3.403   2.977  0.6786  0.3109 -0.0921
 5388SOL    HW321319   2.905   3.441   3.086  0.6169 -0.4664  0.2380
 5388SOL    MW421320   2.874   3.382   3.030  0.1669 -0.2983 -0.0271
 5389SOL     OW21321   5.672   5.732   0.454  0.1724 -0.0381  0.2986
 5389SOL    HW221322   5.725   5.811   0.444 -1.7059  1.3013  0.2957
 5389SOL    HW321323   5.615   5.731   0.377 -0.7657 -0.6250  0.9675
 5389SOL    MW421324   5.671   5.743   0.443  0.2866  0.0413 -0.4918
 5390SOL     OW21325   5.234   4.415   0.244  0.1668  0.3916 -0.2747
 5390SOL    HW221326   5.312   4.393   0.194  0.9477 -2.1249  1.8158
 5390SOL    HW321327   5.164   4.361   0.205  0.1895  0.3363 -0.2392
 5390SOL    MW421328   5.235   4.405   0.233  0.0246  0.1449 -0.2195
 5391SOL     OW21329   5.601   6.114   3.756 -0.1859 -0.2739 -0.4580
 5391SOL    HW221330   5.606   6.094   3.849 -1.2163 -0.3358 -0.4054
 5391SOL    HW321331   5.544   6.191   3.750 -1.5127 -1.2641 -1.1380
 5391SOL    MW421332   5.594   6.122   3.767  0.4001 -0.2070  0.1938
 5392SOL     OW21333   3.908   3.829   6.175  0.6435  0.4450  0.1862
 5392SOL    HW221334   3.861   3.753   6.140 -1.1920  2.3997 -1.9150
 5392SOL    HW321335   3.992   3.829   6.129  0.1149  0.4148 -0.7989
 5392SOL    MW421336   3.913   3.819   6.164 -0.1727  0.4032  0.6278
 5393SOL     OW21337   5.728   1.456   0.722  0.0000  0.3623 -0.4231
 5393SOL    HW221338   5.684   1.499   0.795  1.0628  1.0741 -0.1747
 5393SOL    HW321339   5.708   1.363   0.733 -0.7898  0.5852  0.1036
 5393SOL    MW421340   5.720   1.449   0.733  0.3043 -0.1826 -0.3729
 5394SOL     OW21341   5.893   1.252   2.556 -0.2500 -0.5551 -0.1178
 5394SOL    HW221342   5.810   1.252   2.508  0.2445  1.0771 -1.0404
 5394SOL    HW321343   5.870   1.277   2.645 -0.8508 -1.0370 -0.1324
 5394SOL    MW421344   5.879   1.255   2.561  0.4880 -0.2298 -0.4727
 5395SOL     OW21345   2.931   5.197   3.970  0.1555 -0.5309 -0.0581
 5395SOL    HW221346   2.971   5.148   4.042  0.3215 -0.4656 -0.1036
 5395SOL    HW321347   2.862   5.140   3.937 -0.4341 -0.2387  0.6461
 5395SOL    MW421348   2.927   5.183   3.975 -0.0369 -0.4547  0.3262
 5396SOL     OW21349   5.198   3.195   3.343  0.2930 -0.1911 -0.4844
 5396SOL    HW221350   5.215   3.104   3.364 -0.7774 -0.5782 -1.2013
 5396SOL    HW321351   5.123   3.193   3.284 -0.4887  1.2135  0.3809
 5396SOL    MW421352   5.190   3.183   3.338  0.4155  1.4773  0.2197
 5397SOL     OW21353   1.180   0.103   4.834  0.5517  0.2343  0.0425
 5397SOL    HW221354   1.224   0.185   4.857  0.2438  0.2924  0.4354
 5397SOL    HW321355   1.155   0.065   4.918  1.3934 -0.6636 -0.0825
 5397SOL    MW421356   1.183   0.108   4.848  0.5604  0.5884 -1.0050
 5398SOL     OW21357   1.718   0.880   3.042  0.0510 -0.1417  0.1569
 5398SOL    HW221358   1.791   0.877   3.105 -0.0875 -2.0748  0.2730
 5398SOL    HW321359   1.641   0.858   3.094  0.1655 -3.6056 -0.9283
 5398SOL    MW421360   1.718   0.877   3.057  0.7341 -0.0171 -0.4835
 5399SOL     OW21361   2.585   6.003   5.177  0.5170  0.9089  0.4773
 5399SOL    HW221362   2.619   5.945   5.245 -1.9236  0.4082  1.4051
 5399SOL    HW321363   2.492   5.979   5.170  0.1661  2.5483 -1.4016
 5399SOL    MW421364   2.577   5.992   5.185 -0.1975 -0.1076 -0.2480
 5400SOL     OW21365   4.782   3.593   3.854  0.1456 -0.1118 -0.3987
 5400SOL    HW221366   4.806   3.638   3.773  1.9415 -1.2594 -0.5721
 5400SOL    HW321367   4.836   3.513   3.854 -1.7704 -1.4922  0.6399
 5400SOL    MW421368   4.793   3.588   3.844  0.3990 -0.1802 -0.6589
 5401SOL     OW21369   1.381   5.355   3.566 -0.7572 -0.0393  0.2003
 5401SOL    HW221370   1.437   5.295   3.517 -0.7268 -0.5212  0.8087
 5401SOL    HW321371   1.382   5.437   3.516  1.2705  0.2775  0.6999
 5401SOL    MW421372   1.388   5.358   3.553 -0.7192 -0.3294  0.4524
 5402SOL     OW21373   1.805   0.372   0.750  0.6162  0.2234 -0.1553
 5402SOL    HW221374   1.804   0.408   0.838 -0.8568  0.4179 -0.2189
 5402SOL    HW321375   1.719   0.395   0.714  1.7032  1.4297 -2.1586
 5402SOL    MW421376   1.793   0.380   0.757  0.1498  0.3041  0.3833
 5403SOL     OW21377   4.443   4.965   3.826  0.9323 -1.0447 -0.7032
 5403SOL    HW221378   4.471   5.009   3.746 -0.0878  1.4162  0.1739
 5403SOL    HW321379   4.494   5.008   3.895 -2.2833  1.1676  0.5452
 5403SOL    MW421380   4.453   4.977   3.825  0.3370  0.2780 -0.4085
 5404SOL     OW21381   0.223   5.914   6.153 -0.5715  0.4136 -0.5602
 5404SOL    HW221382   0.225   5.991   6.209 -3.3798  0.3690 -0.2704
 5404SOL    HW321383   0.227   5.840   6.213 -0.0957  0.3389 -0.6807
 5404SOL    MW421384   0.224   5.914   6.168 -0.1246 -0.1103  0.6123
 5405SOL     OW21385   3.371   2.464   1.732 -0.4304 -0.0494  0.4071
 5405SOL    HW221386   3.452   2.479   1.780 -1.2771  0.2828  1.7959
 5405SOL    HW321387   3.372   2.371   1.712 -0.0686 -0.2109  1.1242
 5405SOL    MW421388   3.382   2.454   1.736  0.4278 -0.2829  0.1002
 5406SOL     OW21389   5.801   0.837   6.246 -0.5056  1.0090 -0.1881
 5406SOL    HW221390   5.722   0.890   6.244 -1.0268  0.2508 -0.3268
 5406SOL    HW321391   5.791   0.777   6.171 -0.0616  0.5444  0.1179
 5406SOL    MW421392   5.789   0.836   6.236  0.5677  0.1079  0.1560
 5407SOL     OW21393   2.798   3.812   3.459  0.0954  0.3045 -0.1322
 5407SOL    HW221394   2.799   3.886   3.519  3.2297 -0.3003  0.7694
 5407SOL    HW321395   2.737   3.749   3.499  0.1298  0.9652  1.0087
 5407SOL    MW421396   2.790   3.813   3.472 -0.0054 -0.6048 -0.0714
 5408SOL     OW21397   5.216   2.086   0.204 -0.2424  0.6840 -0.8255
 5408SOL    HW221398   5.128   2.075   0.242 -0.8225  1.3710 -1.9220
 5408SOL    HW321399   5.251   1.997   0.201 -1.9079  0.0143 -2.6653
 5408SOL    MW421400   5.209   2.073   0.209  0.4020 -0.5059 -0.4073
 5409SOL     OW21401   4.026   5.776   5.305  0.4610  0.0886  0.6701
 5409SOL    HW221402   4.086   5.729   5.247 -0.5177  1.3009 -1.4511
 5409SOL    HW321403   3.948   5.792   5.251 -0.3405  1.6796  2.1868
 5409SOL    MW421404   4.024   5.772   5.290 -0.0065 -0.0951  0.0884
 5410SOL     OW21405   2.721   4.423   2.664  0.2849  0.0932 -0.2462
 5410SOL    HW221406   2.739   4.394   2.754  0.9276  1.3441  0.0534
 5410SOL    HW321407   2.627   4.441   2.663 -0.2175 -2.1990 -0.5360
 5410SOL    MW421408   2.711   4.421   2.676 -0.0385  0.0263 -0.7114
 5411SOL     OW21409   5.314   2.942   1.711  0.0022 -0.3895 -0.6160
 5411SOL    HW221410   5.400   2.932   1.669  0.2851  1.0943 -0.4689
 5411SOL    HW321411   5.251   2.932   1.640  0.2085 -2.6032 -0.5399
 5411SOL    MW421412   5.317   2.939   1.696 -0.2086  0.1826  0.0397
 5412SOL     OW21413   3.445   1.142   4.128 -0.3415  0.2434  0.5492
 5412SOL    HW221414   3.520   1.085   4.113 -0.2157  0.2579  1.1187
 5412SOL    HW321415   3.406   1.110   4.209  0.0005  1.2464  1.1340
 5412SOL    MW421416   3.450   1.130   4.137 -0.0069 -0.2140  0.8185
 5413SOL     OW21417   0.712   5.242   1.916  0.2791  0.0661  0.1144
 5413SOL    HW221418   0.704   5.185   1.840  1.7194 -1.8611  1.3042
 5413SOL    HW321419   0.674   5.325   1.888  2.6870  0.1814 -3.4654
 5413SOL    MW421420   0.706   5.245   1.902  0.0685  0.2145  0.5611
 5414SOL     OW21421   0.595   4.754   5.397  0.2837 -0.4221  0.0381
 5414SOL    HW221422   0.517   4.738   5.344 -0.1540 -1.4147  0.9469
 5414SOL    HW321423   0.574   4.718   5.483  1.4036  0.1318  0.5728
 5414SOL    MW421424   0.582   4.747   5.401 -0.7772 -0.0245  0.0012
 5415SOL     OW21425   0.130   1.136   1.387 -0.0981  0.1609  0.3169
 5415SOL    HW221426   0.038   1.161   1.404  0.1453 -0.0454  2.1542
 5415SOL    HW321427   0.146   1.063   1.447  1.5564  0.8551  0.7619
 5415SOL    MW421428   0.120   1.130   1.397 -0.2440 -0.4782  0.2630
 5416SOL     OW21429   3.157   4.364   4.095  0.5198  0.1529 -0.4761
 5416SOL    HW221430   3.178   4.448   4.052  0.5829  0.7552  0.7026
 5416SOL    HW321431   3.242   4.328   4.119  0.6192 -1.0741 -2.4062
 5416SOL    MW421432   3.171   4.370   4.092 -0.0428 -0.5713 -0.1383
 5417SOL     OW21433   5.886   5.600   3.401 -0.1947 -0.0731 -0.3030
 5417SOL    HW221434   5.951   5.538   3.433 -0.3473 -0.7215 -1.1817
 5417SOL    HW321435   5.922   5.632   3.318 -0.5088  0.3578 -0.2750
 5417SOL    MW421436   5.899   5.596   3.394  0.1931  0.0510 -0.3317
 5418SOL     OW21437   2.212   1.807   4.918 -0.1152  0.7001 -0.4293
 5418SOL    HW221438   2.240   1.794   4.828 -0.2817 -1.1287 -0.2391
 5418SOL    HW321439   2.130   1.758   4.925  0.7015 -0.5150  1.1223
 5418SOL    MW421440   2.204   1.799   4.907 -0.4324 -0.0189  0.2233
 5419SOL     OW21441   5.169   6.428   0.255  0.1785  0.3777  0.1882
 5419SOL    HW221442   5.116   6.349   0.251  1.0644 -0.2891  1.1772
 5419SOL    HW321443   5.259   6.399   0.239  0.6263  1.0324  1.3333
 5419SOL    MW421444   5.174   6.414   0.252  0.3172 -0.1263 -0.2874
 5420SOL     OW21445   4.757   5.567   4.892  0.2159 -0.1840 -0.2806
 5420SOL    HW221446   4.788   5.483   4.926  0.8443  0.3778  0.5740
 5420SOL    HW321447   4.816   5.631   4.931 -0.5304  0.6920 -0.5776
 5420SOL    MW421448   4.769   5.564   4.902 -0.2456 -1.3209 -0.0045
 5421SOL     OW21449   2.206   2.948   3.148 -0.1912  0.5735  0.3874
 5421SOL    HW221450   2.121   2.980   3.180  0.4926  1.1948  1.6656
 5421SOL    HW321451   2.213   2.984   3.060 -1.5663 -0.0937 -0.0242
 5421SOL    MW421452   2.196   2.957   3.141  0.1522 -0.1982 -0.3188
 5422SOL     OW21453   3.974   3.338   5.213  0.2174  0.4306 -0.1362
 5422SOL    HW221454   3.923   3.262   5.188  0.5307  0.3446 -0.5211
 5422SOL    HW321455   3.977   3.393   5.134  0.2410  0.7010  0.0496
 5422SOL    MW421456   3.968   3.336   5.200 -0.2423 -0.6898 -0.3558
 5423SOL     OW21457   2.628   1.755   5.226  0.1506 -0.1547 -0.7437
 5423SOL    HW221458   2.612   1.731   5.318  1.2173  0.9881 -0.2440
 5423SOL    HW321459   2.544   1.738   5.183 -0.6649  0.2034  0.6350
 5423SOL    MW421460   2.615   1.749   5.233  0.4897  0.0132  0.5599
 5424SOL     OW21461   4.532   0.690   3.663 -0.0977  0.6154 -0.1079
 5424SOL    HW221462   4.573   0.688   3.750 -0.9423 -1.2446  0.3131
 5424SOL    HW321463   4.597   0.732   3.607 -0.1537  3.3055  1.6802
 5424SOL    MW421464   4.546   0.695   3.667 -0.1329 -0.0770  1.0884
 5425SOL     OW21465   6.319   1.124   2.669 -0.1434 -0.3737 -0.0348
 5425SOL    HW221466   6.334   1.162   2.583 -1.5123 -1.6917 -0.9121
 5425SOL    HW321467   6.278   1.039   2.651  1.3367 -1.5753  1.8687
 5425SOL    MW421468   6.316   1.117   2.656 -0.6160 -0.1235 -0.0473
 5426SOL     OW21469   3.557   6.350   1.273  0.1283 -0.1603 -0.2599
 5426SOL    HW221470   3.634   6.300   1.242  0.7817 -0.1437  1.2500
 5426SOL    HW321471   3.564   6.347   1.368  0.0071  2.5559 -0.1011
 5426SOL    MW421472   3.568   6.343   1.281  0.3645  0.4874  0.0854
 5427SOL     OW21473   5.457   5.131   1.378 -0.3239 -0.4824  0.3792
 5427SOL    HW221474   5.446   5.205   1.319  0.6893 -0.4088  0.2775
 5427SOL    HW321475   5.416   5.159   1.460  0.6290  0.4592  0.5569
 5427SOL    MW421476   5.450   5.144   1.381 -0.8069  0.1945  0.4123
 5428SOL     OW21477   3.479   3.409   2.557 -0.0718 -0.4234 -0.1243
 5428SOL    HW221478   3.441   3.322   2.561 -0.3419 -0.4617 -2.2955
 5428SOL    HW321479   3.453   3.450   2.639 -1.9355 -1.6128 -0.0469
 5428SOL    MW421480   3.470   3.403   2.568 -0.0818  0.0834  0.0061
 5429SOL     OW21481   2.594   2.666   3.708  0.1263  0.2755  0.1670
 5429SOL    HW221482   2.669   2.631   3.660  1.4149  1.0958  1.4868
 5429SOL    HW321483   2.633   2.724   3.774 -1.8055  3.3677 -1.2150
 5429SOL    MW421484   2.609   2.669   3.711 -0.2614  0.1350  0.3105
 5430SOL     OW21485   0.580   2.709   2.564  0.2151  0.2971 -0.6731
 5430SOL    HW221486   0.662   2.723   2.611  0.3853 -1.4945 -0.3944
 5430SOL    HW321487   0.599   2.737   2.475  0.8999  0.5904 -0.4439
 5430SOL    MW421488   0.593   2.715   2.559  0.5102  0.8275  0.0617
 5431SOL     OW21489   5.327   3.612   1.349 -0.5404  0.6105 -0.2603
 5431SOL    HW221490   5.342   3.556   1.273 -2.5713  0.8431 -0.9066
 5431SOL    HW321491   5.253   3.572   1.394 -0.9554  1.8437  0.2022
 5431SOL    MW421492   5.319   3.600   1.345  0.0034 -0.0415  0.5410
 5432SOL     OW21493   0.032   0.182   0.695 -0.3150 -0.2664 -0.1750
 5432SOL    HW221494   0.036   0.276   0.710  2.4007 -0.2732 -0.4176
 5432SOL    HW321495  -0.061   0.165   0.677 -0.9034  2.3017 -0.0034
 5432SOL    MW421496   0.020   0.192   0.695  0.1354  0.0287 -0.0287
 5433SOL     OW21497   3.948   1.637   1.696 -0.4246 -0.6597  0.1954
 5433SOL    HW221498   3.897   1.558   1.715 -1.5299  0.4925  2.3427
 5433SOL    HW321499   4.026   1.605   1.650 -1.3420 -2.8644  0.0800
 5433SOL    MW421500   3.952   1.622   1.692  0.2796  0.0652  0.2085
 5434SOL     OW21501   1.457   1.040   2.680 -0.0793  0.4500  0.0663
 5434SOL    HW221502   1.471   0.956   2.635 -0.4157 -0.0490  0.8601
 5434SOL    HW321503   1.540   1.056   2.725  0.4632  1.2481 -1.1861
 5434SOL    MW421504   1.470   1.031   2.680 -0.1030 -0.7143 -0.0583
 5435SOL     OW21505   3.941   0.440   4.228  0.2220 -0.2337 -0.7126
 5435SOL    HW221506   3.924   0.431   4.322  1.2398 -1.5196 -0.6158
 5435SOL    HW321507   3.967   0.531   4.217 -1.8162  0.4774 -0.0962
 5435SOL    MW421508   3.943   0.450   4.239 -0.4323 -1.1267 -0.3063
 5436SOL     OW21509   3.144   3.370   1.086 -0.4165 -0.2291 -0.6492
 5436SOL    HW221510   3.157   3.276   1.076 -0.2513 -0.3003  0.1205
 5436SOL    HW321511   3.214   3.410   1.035  0.2652 -0.5527  0.0029
 5436SOL    MW421512   3.155   3.363   1.078  0.1776  0.6954 -0.2428
 5437SOL     OW21513   2.547   3.173   1.922  0.2692  0.4099  0.4640
 5437SOL    HW221514   2.510   3.214   1.843 -0.5481  2.9888  2.0468
 5437SOL    HW321515   2.641   3.189   1.915  0.1451  1.1057  0.2326
 5437SOL    MW421516   2.554   3.181   1.911 -0.5642  0.1200  0.6035
 5438SOL     OW21517   5.249   2.310   2.769 -0.2386 -0.1433  0.0319
 5438SOL    HW221518   5.267   2.221   2.737  0.1131  0.0571 -0.3398
 5438SOL    HW321519   5.335   2.353   2.768 -0.6998  0.8348 -1.7383
 5438SOL    MW421520   5.263   2.304   2.764 -0.2739  0.4567 -0.2697
 5439SOL     OW21521   1.895   0.923   1.540 -0.0522  0.1373  0.1510
 5439SOL    HW221522   1.943   0.868   1.602 -0.3636 -1.0336 -0.6140
 5439SOL    HW321523   1.961   0.983   1.504  0.3518  0.0735  0.7676
 5439SOL    MW421524   1.910   0.924   1.544  0.1952  0.1088  0.4247
 5440SOL     OW21525   0.842   5.195   2.937 -0.8027  0.3425 -0.6405
 5440SOL    HW221526   0.898   5.117   2.938 -0.9563  0.2194 -1.0885
 5440SOL    HW321527   0.756   5.162   2.962 -0.6763  0.5315  0.0466
 5440SOL    MW421528   0.838   5.180   2.941  0.8512  0.1060  0.5571
 5441SOL     OW21529   0.562   4.251   2.671 -0.0870 -0.2216 -0.5732
 5441SOL    HW221530   0.471   4.234   2.646 -0.8784  0.2839  1.7341
 5441SOL    HW321531   0.576   4.343   2.650 -0.0123 -0.3502 -1.1186
 5441SOL    MW421532   0.552   4.261   2.665 -0.4009  1.0142  0.0161
 5442SOL     OW21533   4.166   2.730   5.826 -0.2320 -0.2065 -0.1948
 5442SOL    HW221534   4.195   2.714   5.736 -0.0836  1.3439 -0.4382
 5442SOL    HW321535   4.127   2.817   5.825 -1.0114 -0.5044  1.0711
 5442SOL    MW421536   4.165   2.739   5.814 -0.3833  1.0795 -0.3382
 5443SOL     OW21537   4.958   0.739   4.580 -0.7591 -0.0786  0.5195
 5443SOL    HW221538   4.893   0.692   4.632 -1.4645  2.3446  2.0183
 5443SOL    HW321539   5.040   0.727   4.628 -0.7553 -0.5176  0.4018
 5443SOL    MW421540   4.960   0.731   4.593  0.3343 -0.2154 -0.0597
 5444SOL     OW21541   4.813   5.478   6.246  1.3600  0.3457 -0.1019
 5444SOL    HW221542   4.761   5.556   6.227 -0.9584 -0.8940  0.7913
 5444SOL    HW321543   4.805   5.423   6.168  1.1464  0.0591  0.1193
 5444SOL    MW421544   4.805   5.481   6.233 -0.3581 -0.0526  0.6534
 5445SOL     OW21545   0.491   4.892   3.910 -0.3388 -0.8468  0.0156
 5445SOL    HW221546   0.401   4.872   3.886 -0.7773  1.1591 -0.1773
 5445SOL    HW321547   0.542   4.821   3.872 -1.6999 -1.2817 -1.0842
 5445SOL    MW421548   0.486   4.880   3.902 -0.0139  0.0324  0.1517
 5446SOL     OW21549   1.264   0.298   1.999 -0.0163 -0.0786  0.4725
 5446SOL    HW221550   1.220   0.382   1.984  0.8755  0.5150  1.0822
 5446SOL    HW321551   1.234   0.243   1.927  0.0072  1.0111 -0.4013
 5446SOL    MW421552   1.254   0.302   1.987  0.0602 -0.0154  0.9879
 5447SOL     OW21553   1.154   6.428   5.121  0.3829 -0.0613 -0.3374
 5447SOL    HW221554   1.186   6.341   5.148  1.5729  0.7631  1.0712
 5447SOL    HW321555   1.069   6.437   5.164  0.5014 -0.3229 -0.0414
 5447SOL    MW421556   1.147   6.417   5.130  0.0711  0.9606 -0.5504
 5448SOL     OW21557   4.433   5.171   0.764 -0.3491 -0.3257  0.2038
 5448SOL    HW221558   4.403   5.091   0.721  0.8425 -0.1729 -0.9488
 5448SOL    HW321559   4.358   5.230   0.759 -1.2148 -1.3158  0.9927
 5448SOL    MW421560   4.419   5.168   0.758 -0.2145  0.3002 -0.0930
 5449SOL     OW21561   1.525   3.565   5.057  0.5016 -0.3063 -0.3510
 5449SOL    HW221562   1.508   3.659   5.065  0.8021 -0.4051  1.8942
 5449SOL    HW321563   1.438   3.525   5.056  0.2966 -0.2809  3.5822
 5449SOL    MW421564   1.511   3.572   5.058  0.2637  0.0460  0.3461
 5450SOL     OW21565   1.251   5.902   4.192 -0.4538  0.0657 -0.1324
 5450SOL    HW221566   1.277   5.961   4.262  0.1146 -2.2486  1.7426
 5450SOL    HW321567   1.157   5.916   4.183 -0.0841  2.5068 -1.0879
 5450SOL    MW421568   1.242   5.912   4.200  0.5875  0.3569  0.2198
 5451SOL     OW21569   6.455   1.503   3.602  0.2461  0.1698  0.1969
 5451SOL    HW221570   6.455   1.474   3.693 -1.3697 -0.1555  0.1297
 5451SOL    HW321571   6.482   1.425   3.553 -2.0069 -0.6902  0.1890
 5451SOL    MW421572   6.459   1.489   3.607  0.2651  0.1278 -0.1725
 5452SOL     OW21573   6.055   0.476   3.231  0.3729 -0.3891  0.8644
 5452SOL    HW221574   6.013   0.450   3.313  0.2964 -0.0154  0.9472
 5452SOL    HW321575   6.138   0.429   3.230 -0.0741 -1.1822  0.6700
 5452SOL    MW421576   6.061   0.467   3.241 -0.6753 -0.2500  0.0285
 5453SOL     OW21577   3.387   5.760   1.366 -0.7210  0.1847 -0.1846
 5453SOL    HW221578   3.297   5.784   1.345 -0.5718  0.8613 -0.0666
 5453SOL    HW321579   3.431   5.843   1.384  0.4117  0.0436 -2.0617
 5453SOL    MW421580   3.381   5.774   1.366 -0.0452  0.4788 -0.1496
 5454SOL     OW21581   1.041   3.521   2.964  0.1587 -0.0715 -0.9849
 5454SOL    HW221582   1.058   3.449   2.903 -2.1780 -1.0785 -0.5660
 5454SOL    HW321583   0.969   3.570   2.924 -0.2642  0.2530  0.1478
 5454SOL    MW421584   1.033   3.518   2.951  0.1753  0.0034 -0.0893
 5455SOL     OW21585   5.060   1.603   0.834 -0.2121 -0.1030  0.3143
 5455SOL    HW221586   5.001   1.604   0.909 -0.4018  1.1719  0.1782
 5455SOL    HW321587   5.080   1.696   0.818 -1.4164 -0.1645 -2.1762
 5455SOL    MW421588   5.055   1.616   0.841  0.7615 -0.0197 -0.0865
 5456SOL     OW21589   6.196   1.833   5.351  0.8443  0.6761 -0.6090
 5456SOL    HW221590   6.238   1.803   5.270  0.2859 -0.1592 -0.5986
 5456SOL    HW321591   6.199   1.757   5.408 -1.1570  0.4248 -0.7916
 5456SOL    MW421592   6.202   1.819   5.348  0.3167 -0.7464  0.3617
 5457SOL     OW21593   4.766   4.756   4.601  0.6221  0.1806  0.0057
 5457SOL    HW221594   4.673   4.765   4.622  1.3669  0.4198  3.8915
 5457SOL    HW321595   4.793   4.844   4.574  0.2841  0.9302  1.9245
 5457SOL    MW421596   4.758   4.769   4.600 -0.5460  0.1868  0.3234
 5458SOL     OW21597   0.827   4.667   1.451 -0.2712 -0.3090 -0.1016
 5458SOL    HW221598   0.899   4.730   1.445  0.3869 -0.9801  0.6082
 5458SOL    HW321599   0.754   4.717   1.487  0.3651 -0.0336  0.8399
 5458SOL    MW421600   0.827   4.682   1.455  0.1754 -0.4659  0.1756
 5459SOL     OW21601   4.587   5.486   1.160 -0.3793 -0.3872 -0.4602
 5459SOL    HW221602   4.512   5.526   1.115 -0.3468 -0.4019 -0.5271
 5459SOL    HW321603   4.563   5.394   1.169 -0.7750 -0.2213  0.3441
 5459SOL    MW421604   4.574   5.479   1.156 -0.5642 -0.6183  0.2558
 5460SOL     OW21605   5.577   4.653   6.158 -0.1012  0.5872  0.0742
 5460SOL    HW221606   5.637   4.578   6.160  1.1916  1.6149  0.8920
 5460SOL    HW321607   5.511   4.628   6.093  1.3358 -0.4726 -1.0578
 5460SOL    MW421608   5.576   4.640   6.149  0.1814  0.4585 -0.1492
 5461SOL     OW21609   5.247   0.616   5.021  0.4940  0.5823  0.3539
 5461SOL    HW221610   5.265   0.549   5.086  0.6001  0.8550  0.6101
 5461SOL    HW321611   5.174   0.666   5.057  0.5904  0.7694  0.2905
 5461SOL    MW421612   5.240   0.614   5.035  0.2449 -0.1050  0.1763
 5462SOL     OW21613   5.169   5.178   4.304 -0.6075 -0.1359  0.2288
 5462SOL    HW221614   5.075   5.195   4.316 -0.5361 -0.5180  1.3833
 5462SOL    HW321615   5.172   5.089   4.268 -0.7097  0.1891 -0.6235
 5462SOL    MW421616   5.157   5.168   4.301  0.1974  0.0171  0.4492
 5463SOL     OW21617   3.276   3.966   5.375 -0.1292  0.2082  0.2227
 5463SOL    HW221618   3.353   3.909   5.374  0.3043  0.7536  1.3312
 5463SOL    HW321619   3.214   3.923   5.434 -0.3681  0.1848 -0.0380
 5463SOL    MW421620   3.278   3.953   5.382 -0.7415 -0.4855  0.7388
 5464SOL     OW21621   6.221   4.983   1.004  0.2150 -0.5310 -0.3476
 5464SOL    HW221622   6.160   5.054   1.020  1.5594  0.9976 -1.5983
 5464SOL    HW321623   6.192   4.912   1.062 -0.4401  1.4275  1.8572
 5464SOL    MW421624   6.209   4.983   1.013  0.3414  0.0042 -0.1134
 5465SOL     OW21625   4.373   6.183   0.045  0.1963 -0.1245 -0.5187
 5465SOL    HW221626   4.398   6.108   0.100 -0.9350 -0.7233 -0.7933
 5465SOL    HW321627   4.379   6.259   0.104  4.2491  0.1262 -0.9416
 5465SOL    MW421628   4.377   6.183   0.060  0.4045  0.3770 -0.2029
 5466SOL     OW21629   0.598   4.784   0.843 -0.5789 -0.3302 -0.4415
 5466SOL    HW221630   0.684   4.822   0.864 -0.9770 -1.0286  3.1062
 5466SOL    HW321631   0.601   4.769   0.749  3.1062 -0.0752 -0.5219
 5466SOL    MW421632   0.610   4.787   0.833 -0.2898  0.0495 -0.3938
 5467SOL     OW21633   5.444   0.702   1.124  0.3122 -0.0836  0.4431
 5467SOL    HW221634   5.414   0.738   1.207  0.3362 -0.8618  0.7973
 5467SOL    HW321635   5.369   0.653   1.090  0.0294  0.8894 -0.3996
 5467SOL    MW421636   5.430   0.700   1.130  0.6021 -0.0543  0.0409
 5468SOL     OW21637   4.211   3.242   4.000  0.2527  0.4600  0.5985
 5468SOL    HW221638   4.144   3.194   4.048  1.7948 -1.7590  0.6971
 5468SOL    HW321639   4.165   3.281   3.925 -1.4008  0.4318  1.5732
 5468SOL    MW421640   4.196   3.241   3.996  0.4917  0.4922 -0.1480
 5469SOL     OW21641   3.967   5.827   0.831 -0.0118  0.4376  0.2614
 5469SOL    HW221642   4.053   5.868   0.840  1.3686 -2.0247 -0.7496
 5469SOL    HW321643   3.968   5.787   0.745 -2.1782  0.2497  0.2593
 5469SOL    MW421644   3.978   5.827   0.821  0.1855 -0.3020 -0.2875
 5470SOL     OW21645   0.297   3.239   5.181  0.4233 -0.2540  0.2019
 5470SOL    HW221646   0.222   3.181   5.194  0.4420  0.1061  2.1864
 5470SOL    HW321647   0.371   3.191   5.217  0.4436  0.9231  1.8564
 5470SOL    MW421648   0.297   3.225   5.187  0.2820 -0.0779  0.0059
 5471SOL     OW21649   4.886   2.947   0.774 -0.6007 -0.2589 -0.4099
 5471SOL    HW221650   4.972   2.915   0.799 -0.7671  0.3657  1.0819
 5471SOL    HW321651   4.900   3.041   0.756 -0.5862 -0.5760 -2.3013
 5471SOL    MW421652   4.899   2.955   0.775 -0.7237 -0.7347  0.4270
 5472SOL     OW21653   6.102   6.008   5.890  0.5249 -0.2620  0.5491
 5472SOL    HW221654   6.020   6.051   5.916 -1.3266 -1.3353 -2.9169
 5472SOL    HW321655   6.137   5.971   5.971 -2.3689  0.3158  2.1871
 5472SOL    MW421656   6.096   6.009   5.904  0.5174 -0.0021  0.3236
 5473SOL     OW21657   6.424   4.909   6.369 -0.3421  0.1543  0.0805
 5473SOL    HW221658   6.353   4.966   6.397  1.3715  1.1421  2.9027
 5473SOL    HW321659   6.381   4.840   6.319 -3.3776  0.3347  2.1695
 5473SOL    MW421660   6.409   4.907   6.366  0.0374 -0.2028  0.3670
 5474SOL     OW21661   1.159   0.426   0.967 -0.2947  0.2604  0.0612
 5474SOL    HW221662   1.131   0.338   0.995  1.2874 -0.9386 -1.8451
 5474SOL    HW321663   1.121   0.485   1.032 -2.8934 -1.6532  0.4513
 5474SOL    MW421664   1.150   0.422   0.979 -0.0052  0.4566 -0.0433
 5475SOL     OW21665   3.627   4.907   4.763  0.2516  0.3969 -0.6976
 5475SOL    HW221666   3.679   4.841   4.718  0.0128 -0.2073 -0.0976
 5475SOL    HW321667   3.554   4.925   4.703  0.6095  0.5222 -1.1011
 5475SOL    MW421668   3.624   4.901   4.749 -0.0317 -0.1151  0.2202
 5476SOL     OW21669   1.880   3.956   4.421  0.1484  0.4702 -0.3835
 5476SOL    HW221670   1.928   3.938   4.340  0.6412 -1.9737  0.3668
 5476SOL    HW321671   1.918   3.896   4.485 -2.2446  0.1802  0.8943
 5476SOL    MW421672   1.891   3.945   4.418 -0.3974  0.2399  0.3992
 5477SOL     OW21673   0.447   3.742   2.944  0.1645 -0.1767 -0.5438
 5477SOL    HW221674   0.427   3.806   2.876 -0.1006 -0.7509 -1.0260
 5477SOL    HW321675   0.504   3.788   3.005 -2.4834  1.5162  0.8333
 5477SOL    MW421676   0.452   3.756   2.943  0.0377 -0.3968  0.1463
 5478SOL     OW21677   4.805   0.234   4.956  0.1064 -0.0795  0.0736
 5478SOL    HW221678   4.820   0.220   5.050 -2.1721  0.9774  0.6616
 5478SOL    HW321679   4.736   0.171   4.934  0.4477 -0.1368 -0.8504
 5478SOL    MW421680   4.798   0.224   4.966  0.9409  0.1829  0.7723
 5479SOL     OW21681   3.017   3.719   4.394 -0.1188  0.0510  0.2427
 5479SOL    HW221682   2.939   3.745   4.346 -0.9868 -1.9637  0.4446
 5479SOL    HW321683   3.032   3.790   4.457 -2.8303 -0.2459  1.3530
 5479SOL    MW421684   3.009   3.732   4.396  0.1573 -0.3284 -0.6130
 5480SOL     OW21685   1.027   2.478   0.777 -0.5264 -0.3378  0.0339
 5480SOL    HW221686   1.056   2.393   0.809 -0.9604 -0.6235 -0.3003
 5480SOL    HW321687   1.025   2.534   0.854 -1.2343 -0.9179  0.4519
 5480SOL    MW421688   1.030   2.474   0.791 -0.4082 -0.1023 -0.2936
 5481SOL     OW21689   5.348   5.902   5.304  0.2625  0.1625 -0.5248
 5481SOL    HW221690   5.422   5.863   5.351  0.6367 -1.5000 -2.3432
 5481SOL    HW321691   5.386   5.973   5.252 -0.2186  2.2860  1.8485
 5481SOL    MW421692   5.362   5.906   5.303 -0.1347 -0.2884  0.6268
 5482SOL     OW21693   0.392   4.977   2.233 -0.0908  0.3155 -0.2053
 5482SOL    HW221694   0.412   4.891   2.196 -0.1667  0.0822  0.2850
 5482SOL    HW321695   0.460   5.034   2.198  1.6296 -0.5095  1.5831
 5482SOL    MW421696   0.404   4.973   2.223  0.6925 -0.0160  0.4057
 5483SOL     OW21697   0.218   4.894   4.599 -0.2169 -0.6849  0.2760
 5483SOL    HW221698   0.251   4.861   4.515 -0.4349 -1.8852  0.6456
 5483SOL    HW321699   0.125   4.909   4.584  0.1637  1.4568 -0.3821
 5483SOL    MW421700   0.210   4.892   4.586 -0.5143  0.7134 -0.0637
 5484SOL     OW21701   4.903   5.357   5.431  0.6207  0.1742  0.1161
 5484SOL    HW221702   4.969   5.426   5.427  0.0795  0.9873  2.8882
 5484SOL    HW321703   4.902   5.330   5.523 -1.7154 -1.0020 -0.1714
 5484SOL    MW421704   4.911   5.363   5.443  0.1264 -0.9662  0.6775
 5485SOL     OW21705   1.993   0.584   3.574 -0.4491  0.0074 -0.4654
 5485SOL    HW221706   2.011   0.662   3.625 -3.5136  1.9322 -2.0277
 5485SOL    HW321707   1.912   0.548   3.612 -0.4114 -1.0077 -1.2857
 5485SOL    MW421708   1.985   0.589   3.585  0.0122 -0.3878  0.1837
 5486SOL     OW21709   5.974   2.326   0.800  0.3772  0.1494 -0.9900
 5486SOL    HW221710   5.891   2.287   0.775  0.8576 -1.8394  0.2689
 5486SOL    HW321711   5.988   2.396   0.737 -3.0452  1.7086 -0.1975
 5486SOL    MW421712   5.965   2.330   0.789 -0.0281  0.5856 -0.4711
 5487SOL     OW21713   1.119   2.591   2.461 -0.6380  0.3534 -0.0612
 5487SOL    HW221714   1.146   2.543   2.383 -0.0375  0.9796 -0.2457
 5487SOL    HW321715   1.133   2.530   2.533 -0.0248  0.2017 -0.3088
 5487SOL    MW421716   1.124   2.576   2.460 -0.8031 -0.0005 -0.1072
 5488SOL     OW21717   2.965   6.316   3.627 -0.6295  0.5234  0.8848
 5488SOL    HW221718   3.034   6.262   3.665 -0.7310 -0.9090 -0.8111
 5488SOL    HW321719   3.005   6.357   3.550 -1.2789  0.8019  0.6812
 5488SOL    MW421720   2.979   6.314   3.622  0.1144 -0.5301  0.6340
 5489SOL     OW21721   2.645   3.437   4.280  0.0311 -0.2581 -0.1331
 5489SOL    HW221722   2.600   3.511   4.238  1.4666 -0.0815 -1.4681
 5489SOL    HW321723   2.580   3.367   4.281 -1.3825  0.9804  1.2001
 5489SOL    MW421724   2.631   3.438   4.275  0.2977 -0.3713 -0.1371
 5490SOL     OW21725   1.549   1.692   0.879  0.1245  0.6823 -0.4164
 5490SOL    HW221726   1.505   1.761   0.928 -1.4337 -1.2461  1.0497
 5490SOL    HW321727   1.598   1.643   0.945 -1.9726 -1.9322 -0.6118
 5490SOL    MW421728   1.549   1.695   0.894  0.5313  0.0279 -0.1310
 5491SOL     OW21729   1.090   5.667   0.081 -0.3698 -0.1956  0.6181
 5491SOL    HW221730   1.184   5.651   0.083 -0.4693 -1.1390 -0.9626
 5491SOL    HW321731   1.081   5.750   0.035 -0.3276 -0.4113  0.2131
 5491SOL    MW421732   1.101   5.676   0.075  0.3878 -0.0927  0.9573
 5492SOL     OW21733   6.459   1.916   1.982 -0.0404  0.0407 -0.0301
 5492SOL    HW221734   6.430   1.870   2.060 -1.9314 -0.1714 -0.8143
 5492SOL    HW321735   6.427   2.005   1.993  1.6327  0.6179  0.4324
 5492SOL    MW421736   6.451   1.922   1.994  0.1823 -0.1693 -0.2806
 5493SOL     OW21737   2.647   5.391   3.968  0.0093  0.1852  0.1777
 5493SOL    HW221738   2.555   5.395   3.997 -0.4449  0.6647 -1.2703
 5493SOL    HW321739   2.686   5.325   4.025 -1.4812 -0.7484  0.1892
 5493SOL    MW421740   2.640   5.383   3.980 -0.1191  0.1933  0.0579
 5494SOL     OW21741   5.257   3.116   0.969 -0.2750 -0.3578 -0.2365
 5494SOL    HW221742   5.213   3.135   1.052  0.3604 -1.9792  0.5246
 5494SOL    HW321743   5.326   3.054   0.993  2.3618  1.9095 -1.4039
 5494SOL    MW421744   5.260   3.110   0.983 -0.2888 -0.0045 -0.2393
 5495SOL     OW21745   1.793   1.146   2.994  0.0269  0.1557  0.0721
 5495SOL    HW221746   1.736   1.073   3.019  0.5255 -0.4813 -0.6054
 5495SOL    HW321747   1.881   1.108   2.994  0.3912  0.9854  0.5484
 5495SOL    MW421748   1.797   1.131   2.997  0.0011  0.2611 -0.1362
 5496SOL     OW21749   4.110   2.277   2.440  0.2993 -0.4380  0.2142
 5496SOL    HW221750   4.092   2.306   2.530 -0.6375  0.4153 -0.2230
 5496SOL    HW321751   4.027   2.287   2.395  1.3125  1.5631 -1.3752
 5496SOL    MW421752   4.097   2.282   2.446  0.0292  0.0535  0.1426
 5497SOL     OW21753   0.640   5.643   0.649 -0.2316 -0.1743  0.1991
 5497SOL    HW221754   0.666   5.555   0.622 -1.5740 -0.2257 -1.0015
 5497SOL    HW321755   0.651   5.696   0.571 -0.2010  0.5634  0.6985
 5497SOL    MW421756   0.645   5.638   0.635  0.0199  0.8850 -0.6266
 5498SOL     OW21757   0.871   1.713   3.745 -0.3996  0.0991 -0.6961
 5498SOL    HW221758   0.915   1.797   3.760 -0.3184 -0.0425 -0.1381
 5498SOL    HW321759   0.935   1.647   3.770 -0.5734 -0.1278 -0.8442
 5498SOL    MW421760   0.885   1.716   3.750  0.6621 -0.3664  0.0838
 5499SOL     OW21761   5.759   2.890   1.448  0.2172 -0.0326 -0.0438
 5499SOL    HW221762   5.823   2.959   1.427  1.7206 -1.2767  0.2549
 5499SOL    HW321763   5.748   2.842   1.366  0.2516 -0.2881  0.1017
 5499SOL    MW421764   5.766   2.893   1.435  0.1287  0.0471 -0.3493
 5500SOL     OW21765   5.428   6.245   0.912 -0.0221 -0.1767 -0.3637
 5500SOL    HW221766   5.391   6.271   0.828  0.2292 -0.1434 -0.4650
 5500SOL    HW321767   5.497   6.182   0.890  1.2957  1.1861 -0.3261
 5500SOL    MW421768   5.432   6.240   0.898 -0.0966  0.0095 -0.0155
 5501SOL     OW21769   1.295   1.829   6.221  0.3683  0.3185 -0.5035
 5501SOL    HW221770   1.321   1.749   6.266  0.6731  0.3617 -0.6032
 5501SOL    HW321771   1.221   1.803   6.167  0.4126  0.1247 -0.4721
 5501SOL    MW421772   1.288   1.815   6.220  0.5565 -0.1316 -0.0170
 5502SOL     OW21773   4.962   5.729   5.415  0.4925  0.2783 -0.0904
 5502SOL    HW221774   4.994   5.657   5.360 -0.0964 -1.8475  2.1994
 5502SOL    HW321775   4.957   5.692   5.503 -1.2066  2.7243  0.9514
 5502SOL    MW421776   4.966   5.714   5.419  0.2530 -0.2916  0.5412
 5503SOL     OW21777   1.562   3.933   5.630 -0.0968 -0.5884 -0.2518
 5503SOL    HW221778   1.619   3.934   5.553  2.0701 -1.8129  1.2167
 5503SOL    HW321779   1.566   3.843   5.661 -0.6400 -0.0523  1.4598
 5503SOL    MW421780   1.570   3.921   5.624 -0.2247  0.5976  0.1300
 5504SOL     OW21781   5.366   0.933   4.665 -0.2995  0.1488 -0.4940
 5504SOL    HW221782   5.318   0.878   4.728  0.4842  2.2694  2.1338
 5504SOL    HW321783   5.299   0.989   4.625 -0.4606  0.9510  0.8445
 5504SOL    MW421784   5.351   0.933   4.668 -0.0894  0.0011  0.1019
 5505SOL     OW21785   1.891   4.065   5.996 -0.1815  0.4612 -0.1559
 5505SOL    HW221786   1.903   4.054   5.901 -1.3615 -0.6289 -0.2134
 5505SOL    HW321787   1.807   4.022   6.014  0.8313 -0.8571  1.6608
 5505SOL    MW421788   1.881   4.058   5.986 -0.0160 -0.3232 -0.0872
 5506SOL     OW21789   6.295   4.482   1.876 -0.0812  0.4846 -0.5047
 5506SOL    HW221790   6.249   4.467   1.959  1.5421 -0.5504  0.2560
 5506SOL    HW321791   6.320   4.574   1.879 -0.9415  0.7282 -0.3429
 5506SOL    MW421792   6.292   4.492   1.888 -0.3671  0.5375 -0.6252
 5507SOL     OW21793   0.148   1.779   1.789  0.1540 -0.0189 -0.0779
 5507SOL    HW221794   0.109   1.829   1.860  0.1508  1.2276 -0.9142
 5507SOL    HW321795   0.121   1.689   1.805  0.1303  0.2336  1.4661
 5507SOL    MW421796   0.140   1.774   1.800  0.6466 -0.5183  0.3897
 5508SOL     OW21797   6.069   1.669   6.156  0.6405 -0.2637  0.3901
 5508SOL    HW221798   6.138   1.617   6.116  1.8138  1.1103  0.5444
 5508SOL    HW321799   6.094   1.760   6.139 -1.0082  0.2880  0.6684
 5508SOL    MW421800   6.081   1.674   6.148  0.4150  0.7247  0.0014
 5509SOL     OW21801   2.430   2.901   1.165 -0.1662  0.1595 -0.5035
 5509SOL    HW221802   2.494   2.911   1.095  0.3400 -0.5426 -0.1540
 5509SOL    HW321803   2.481   2.907   1.246 -0.7023  0.6828 -0.1932
 5509SOL    MW421804   2.445   2.903   1.167  0.5251 -0.1502  0.3179
 5510SOL     OW21805   1.744   1.387   4.361 -0.5086  0.1212  0.3122
 5510SOL    HW221806   1.652   1.376   4.382 -0.4178 -0.4061  0.4546
 5510SOL    HW321807   1.758   1.482   4.362 -0.9759  0.1907  0.6022
 5510SOL    MW421808   1.734   1.398   4.364  0.0511  0.4807 -0.1471
 5511SOL     OW21809   5.524   6.159   2.732  0.5519  0.5446  0.1498
 5511SOL    HW221810   5.567   6.085   2.689  0.8475  0.8146 -0.0179
 5511SOL    HW321811   5.586   6.231   2.724  0.2078  0.8482  0.2001
 5511SOL    MW421812   5.537   6.159   2.726 -0.6013  0.7133  0.0685
 5512SOL     OW21813   5.386   1.828   0.235 -0.4604  0.0880  0.0696
 5512SOL    HW221814   5.388   1.755   0.297 -1.9340 -0.0686 -0.0421
 5512SOL    HW321815   5.442   1.801   0.163 -0.4245 -0.6222  0.3629
 5512SOL    MW421816   5.394   1.815   0.234  0.3217 -0.0904  0.5176
 5513SOL     OW21817   3.468   4.118   2.843 -0.1252  0.2731  0.0005
 5513SOL    HW221818   3.374   4.124   2.822 -0.4183 -0.8357  0.9129
 5513SOL    HW321819   3.476   4.037   2.893  0.9019  1.5458  2.0451
 5513SOL    MW421820   3.456   4.108   2.847  0.0976 -0.1288 -0.0527
 5514SOL     OW21821   4.084   0.475   5.861 -0.5415 -1.0113  0.0390
 5514SOL    HW221822   4.054   0.549   5.808  1.4398 -0.5451 -0.4914
 5514SOL    HW321823   4.068   0.399   5.806  1.0702 -0.5720 -1.1182
 5514SOL    MW421824   4.078   0.475   5.847  0.0948  0.2187  0.4567
 5515SOL     OW21825   0.694   5.746   2.654  0.0354 -0.1434 -0.0295
 5515SOL    HW221826   0.742   5.745   2.572  0.0144 -0.1182 -0.0421
 5515SOL    HW321827   0.704   5.836   2.687 -1.6076  0.4137 -0.9676
 5515SOL    MW421828   0.702   5.758   2.648 -0.4043 -0.2765  0.6487
 5516SOL     OW21829   0.317   1.214   0.965 -0.1123  0.4656  0.2617
 5516SOL    HW221830   0.334   1.292   0.912 -0.5019  1.4161  1.4966
 5516SOL    HW321831   0.350   1.236   1.052 -1.8079 -0.0854  1.0796
 5516SOL    MW421832   0.324   1.227   0.969 -0.6297  0.0537  0.0455
 5517SOL     OW21833   5.147   1.726   4.633  0.0783 -0.1008 -0.0401
 5517SOL    HW221834   5.124   1.633   4.631  3.2754 -1.0230  0.3898
 5517SOL    HW321835   5.143   1.754   4.542 -1.9349 -0.2956 -0.0596
 5517SOL    MW421836   5.144   1.717   4.621  0.7183  0.4886 -0.3304
 5518SOL     OW21837   1.832   5.559   2.189 -0.1625 -0.3739  0.1013
 5518SOL    HW221838   1.799   5.473   2.161  0.3370 -0.5707  0.1040
 5518SOL    HW321839   1.918   5.540   2.227  0.0219  0.1503 -0.0500
 5518SOL    MW421840   1.839   5.545   2.191 -0.1832 -0.2927 -0.3528
 5519SOL     OW21841   0.843   4.942   2.219 -0.0122  0.7738  0.1772
 5519SOL    HW221842   0.898   5.001   2.272  0.0322 -0.3367  1.4157
 5519SOL    HW321843   0.905   4.881   2.180 -0.3491 -1.4714  2.8191
 5519SOL    MW421844   0.859   4.942   2.221 -0.6545  0.0434  0.6664
 5520SOL     OW21845   4.735   0.911   6.383  0.2452 -0.2796 -0.4801
 5520SOL    HW221846   4.812   0.865   6.350 -0.9666 -3.3981  0.6777
 5520SOL    HW321847   4.750   0.918   6.478 -0.7411 -0.6643 -0.2852
 5520SOL    MW421848   4.748   0.906   6.392 -0.1815 -0.6660  0.2581
 5521SOL     OW21849   0.957   5.014   5.611 -0.0244 -0.1707  0.2901
 5521SOL    HW221850   0.993   4.944   5.557 -0.4467 -0.9643  1.0162
 5521SOL    HW321851   1.013   5.089   5.594  1.4913 -1.1523  0.7798
 5521SOL    MW421852   0.969   5.015   5.602  0.3037 -0.2620  0.3333
 5522SOL     OW21853   2.824   5.080   3.084 -0.1906 -0.1144  0.1695
 5522SOL    HW221854   2.820   5.060   3.177 -1.0324 -0.1921  0.1173
 5522SOL    HW321855   2.774   5.011   3.041  0.1743 -0.0720 -0.3428
 5522SOL    MW421856   2.817   5.068   3.090  0.2084 -0.9359 -0.0838
 5523SOL     OW21857   2.691   3.186   1.134  0.1138  0.7972 -0.3727
 5523SOL    HW221858   2.762   3.127   1.158  1.9028  2.5574 -1.0626
 5523SOL    HW321859   2.715   3.270   1.174 -2.1964  1.1990  0.3404
 5523SOL    MW421860   2.704   3.190   1.143  0.1713 -0.0269 -0.0909
 5524SOL     OW21861   5.793   1.362   0.233  0.3350 -0.2336  0.7226
 5524SOL    HW221862   5.866   1.416   0.261 -0.0480  0.3386  0.6344
 5524SOL    HW321863   5.833   1.279   0.206  0.8550 -0.2342  1.4865
 5524SOL    MW421864   5.808   1.358   0.233 -0.4111 -0.1730 -0.2569
 5525SOL     OW21865   1.512   1.148   5.836 -0.0134 -0.6572 -0.2296
 5525SOL    HW221866   1.552   1.066   5.807 -1.2422 -1.4331  0.2192
 5525SOL    HW321867   1.477   1.187   5.756 -0.8589 -1.3826 -0.2230
 5525SOL    MW421868   1.512   1.142   5.821  0.0893  0.0781 -0.3803
 5526SOL     OW21869   5.197   5.498   0.604 -0.3541 -0.3400 -0.5852
 5526SOL    HW221870   5.289   5.526   0.602 -0.1738 -0.9381 -0.8008
 5526SOL    HW321871   5.182   5.459   0.518 -0.3266 -1.7611  0.0317
 5526SOL    MW421872   5.207   5.497   0.592  0.6484  0.4848 -0.0190
 5527SOL     OW21873   2.861   4.148   3.150 -0.4430 -0.5078  0.0877
 5527SOL    HW221874   2.886   4.115   3.236  0.4027 -0.0260  0.0359
 5527SOL    HW321875   2.803   4.080   3.114 -0.5370 -0.8648  0.8914
 5527SOL    MW421876   2.856   4.135   3.156 -0.0353 -0.5863  0.5805
 5528SOL     OW21877   4.144   0.750   0.623  0.0033  0.6839 -0.4875
 5528SOL    HW221878   4.214   0.767   0.687 -0.2122  0.8416 -0.2897
 5528SOL    HW321879   4.096   0.833   0.617  0.3544  0.8343 -1.2729
 5528SOL    MW421880   4.147   0.763   0.631 -0.8249 -0.5113  0.1811
 5529SOL     OW21881   0.450   2.230   6.414  0.4111 -0.1689 -0.0759
 5529SOL    HW221882   0.412   2.258   6.497  1.4018  0.6344  0.1269
 5529SOL    HW321883   0.513   2.162   6.439 -2.1437 -2.9729 -0.5787
 5529SOL    MW421884   0.453   2.225   6.428  0.5599  0.1228  0.4158
 5530SOL     OW21885   2.802   6.095   3.930 -0.4610  0.1473 -0.7671
 5530SOL    HW221886   2.731   6.128   3.984  0.6985  1.1289  0.2114
 5530SOL    HW321887   2.766   6.094   3.841 -2.2229 -0.9930 -0.0790
 5530SOL    MW421888   2.788   6.099   3.925 -0.3126 -0.1422  0.1461
 5531SOL     OW21889   2.119   3.258   0.160  0.1860  0.2841  0.1446
 5531SOL    HW221890   2.151   3.182   0.208  1.6657  0.8485  0.1284
 5531SOL    HW321891   2.145   3.333   0.214 -2.3232  0.7660  0.7732
 5531SOL    MW421892   2.127   3.258   0.173  0.4394  0.6204 -0.0958
 5532SOL     OW21893   3.048   2.343   2.594 -0.5477  0.0949  0.0753
 5532SOL    HW221894   3.138   2.368   2.617 -0.8847  1.0090  0.4591
 5532SOL    HW321895   3.027   2.399   2.519 -0.8922  0.0916  0.1682
 5532SOL    MW421896   3.057   2.354   2.587  0.3706 -0.3528  0.1855
 5533SOL     OW21897   4.153   0.846   1.732 -0.3337  0.7809 -0.5196
 5533SOL    HW221898   4.150   0.787   1.657 -1.6047 -0.7694  0.6630
 5533SOL    HW321899   4.246   0.854   1.754 -0.1302 -0.7770 -0.7407
 5533SOL    MW421900   4.165   0.839   1.725 -0.4372 -0.4188 -0.1789
 5534SOL     OW21901   3.288   3.763   1.845  0.7919 -0.6767 -0.3524
 5534SOL    HW221902   3.299   3.775   1.939  0.3558  0.0604 -0.3901
 5534SOL    HW321903   3.235   3.684   1.836 -0.9901  0.4018  0.1109
 5534SOL    MW421904   3.283   3.755   1.856  0.2534 -0.5510 -0.2168
 5535SOL     OW21905   2.056   0.580   0.850  0.5876 -0.2036 -0.7778
 5535SOL    HW221906   2.151   0.574   0.856  0.4474 -2.5192  0.1939
 5535SOL    HW321907   2.032   0.513   0.786 -0.3827  0.3430 -0.9967
 5535SOL    MW421908   2.065   0.570   0.842  0.1466 -0.0468  0.0439
 5536SOL     OW21909   5.274   1.750   2.584  0.4004  0.3406 -0.1831
 5536SOL    HW221910   5.348   1.691   2.572  1.2739  1.4150 -0.2116
 5536SOL    HW321911   5.199   1.692   2.594  1.0331 -0.7706 -1.4521
 5536SOL    MW421912   5.274   1.735   2.583  0.2143 -0.0153 -0.1932
 5537SOL     OW21913   6.092   4.893   0.188  1.0141 -0.5642  0.2460
 5537SOL    HW221914   6.135   4.973   0.218 -0.6514  0.1682  0.7989
 5537SOL    HW321915   6.047   4.860   0.266 -1.7628  0.2792 -0.8626
 5537SOL    MW421916   6.091   4.899   0.202  0.2213 -0.1863  0.2370
 5538SOL     OW21917   0.859   4.864   2.563  0.2605 -0.0421  0.0004
 5538SOL    HW221918   0.783   4.857   2.506 -0.0797  1.0002  0.2932
 5538SOL    HW321919   0.860   4.956   2.591  0.4976 -0.4780  1.5432
 5538SOL    MW421920   0.849   4.875   2.559  0.1746  0.1450  0.4180
 5539SOL     OW21921   3.204   4.290   5.639 -0.1183  0.2327 -0.1716
 5539SOL    HW221922   3.256   4.211   5.627  0.3909  0.4203  0.6767
 5539SOL    HW321923   3.249   4.357   5.587 -1.3838 -0.3409 -2.1116
 5539SOL    MW421924   3.217   4.288   5.631  0.5094  1.0432 -0.1180
 5540SOL     OW21925   0.836   2.169   3.850  0.0354  0.2579  0.1625
 5540SOL    HW221926   0.767   2.118   3.894 -1.1291  2.6897  1.3177
 5540SOL    HW321927   0.868   2.229   3.916  0.1898  2.1530 -1.5222
 5540SOL    MW421928   0.831   2.170   3.864 -0.1390  0.0613  0.5462
 5541SOL     OW21929   4.864   6.343   2.344  0.2026  0.3918 -0.2534
 5541SOL    HW221930   4.817   6.341   2.427 -0.6873  0.1276 -0.7541
 5541SOL    HW321931   4.848   6.430   2.309  1.1505  0.7492  0.1568
 5541SOL    MW421932   4.856   6.354   2.350  0.2809  0.2452  0.0536
 5542SOL     OW21933   3.025   3.539   4.126  0.3876  0.6545  0.0922
 5542SOL    HW221934   3.116   3.562   4.105  0.9307 -0.2336  1.3391
 5542SOL    HW321935   3.033   3.472   4.194 -1.2157  0.6506  0.2998
 5542SOL    MW421936   3.038   3.533   4.132 -0.1815 -0.0529 -0.6415
 5543SOL     OW21937   1.763   0.156   2.435  0.1575 -0.1437 -0.1751
 5543SOL    HW221938   1.857   0.146   2.420 -0.3560 -3.0124 -2.5719
 5543SOL    HW321939   1.744   0.094   2.505  0.1259  0.9586  0.8066
 5543SOL    MW421940   1.773   0.146   2.442  0.2608 -0.0150  0.9058
 5544SOL     OW21941   3.240   3.799   1.562 -0.3854 -0.0186 -0.7106
 5544SOL    HW221942   3.238   3.885   1.518 -4.0742 -0.1684 -1.1854
 5544SOL    HW321943   3.255   3.820   1.654  0.7162  0.9317 -1.0838
 5544SOL    MW421944   3.242   3.813   1.568  0.4034  0.5335 -0.3325
 5545SOL     OW21945   3.395   1.243   3.039 -0.0511 -0.5826 -0.5616
 5545SOL    HW221946   3.302   1.256   3.061  0.5297  1.0854  1.2408
 5545SOL    HW321947   3.407   1.148   3.041 -1.1622 -0.7512  1.9264
 5545SOL    MW421948   3.384   1.232   3.042  0.3933  0.1803 -0.0689
 5546SOL     OW21949   4.798   5.340   0.258 -0.4039 -0.7852  0.5682
 5546SOL    HW221950   4.773   5.284   0.331  0.2291 -0.9549  0.6582
 5546SOL    HW321951   4.809   5.280   0.185 -3.3833 -0.3989 -0.3487
 5546SOL    MW421952   4.796   5.325   0.258 -0.4078  0.3525 -0.0945
 5547SOL     OW21953   1.724   0.752   5.281  0.3432  0.3214 -0.1838
 5547SOL    HW221954   1.682   0.750   5.367  1.5731  0.4382  0.4418
 5547SOL    HW321955   1.763   0.665   5.272 -0.0227  0.2114 -0.7625
 5547SOL    MW421956   1.724   0.740   5.291 -0.0075  0.2248 -0.3656
 5548SOL     OW21957   5.513   1.320   4.495  0.2213 -0.0141  0.2183
 5548SOL    HW221958   5.602   1.286   4.504  0.6850  0.6577 -1.4598
 5548SOL    HW321959   5.524   1.404   4.450 -1.2633  0.0411 -0.0879
 5548SOL    MW421960   5.526   1.326   4.490  0.0796  0.8949  0.4191
 5549SOL     OW21961   4.081   4.610   5.535 -0.1756  0.5742  0.0259
 5549SOL    HW221962   3.998   4.653   5.513 -1.7144 -1.0868  2.1228
 5549SOL    HW321963   4.078   4.526   5.489 -0.1674  0.0686  0.9232
 5549SOL    MW421964   4.070   4.605   5.526  0.1390  0.0113  0.3276
 5550SOL     OW21965   1.507   3.459   2.032  0.6546  0.2656  0.2941
 5550SOL    HW221966   1.602   3.466   2.022  0.4213  1.1672 -1.8291
 5550SOL    HW321967   1.477   3.550   2.038 -0.1654  0.0298 -0.1431
 5550SOL    MW421968   1.515   3.472   2.032 -0.3487  0.2145 -0.4915
 5551SOL     OW21969   2.182   5.412   3.502 -0.4631 -0.1931 -0.0276
 5551SOL    HW221970   2.131   5.462   3.438 -1.3125  0.3328  1.0051
 5551SOL    HW321971   2.124   5.407   3.578  0.5399 -0.7344  0.7166
 5551SOL    MW421972   2.167   5.418   3.504  0.3435  0.1929 -0.0550
 5552SOL     OW21973   0.635   5.285   4.558  0.4141  0.4756  0.5658
 5552SOL    HW221974   0.675   5.209   4.598  2.4291  0.5645 -1.1169
 5552SOL    HW321975   0.543   5.261   4.546  0.9545 -1.5780  0.3080
 5552SOL    MW421976   0.628   5.272   4.561 -0.3790 -0.2003 -0.0390
 5553SOL     OW21977   2.841   5.221   5.421 -0.2427 -0.1922 -0.4940
 5553SOL    HW221978   2.902   5.244   5.492 -1.0238 -1.4295  0.6240
 5553SOL    HW321979   2.826   5.304   5.376  2.4559  0.1134 -1.0077
 5553SOL    MW421980   2.847   5.235   5.425 -0.3307  0.2781 -0.0131
 5554SOL     OW21981   1.428   4.141   6.137 -0.0585  0.3400  0.0036
 5554SOL    HW221982   1.345   4.098   6.114  1.1220 -1.3092 -1.4991
 5554SOL    HW321983   1.414   4.233   6.116 -0.8289 -0.2533 -2.5653
 5554SOL    MW421984   1.415   4.147   6.131 -0.4248 -0.1315 -0.4985
 5555SOL     OW21985   2.447   2.305   0.999  0.0001 -0.5881  0.1252
 5555SOL    HW221986   2.464   2.289   0.906 -0.0322 -0.5183  0.1072
 5555SOL    HW321987   2.533   2.321   1.037 -0.1139  0.9194 -0.1833
 5555SOL    MW421988   2.460   2.305   0.992 -0.4158  0.7767  0.0196
 5556SOL     OW21989   3.970   4.387   2.978 -0.3144  0.1598 -0.1270
 5556SOL    HW221990   3.907   4.375   3.049 -0.6115 -2.2884 -0.7236
 5556SOL    HW321991   4.054   4.401   3.023 -0.3785 -1.9991  0.7887
 5556SOL    MW421992   3.973   4.388   2.993 -0.6312 -0.3329 -0.2858
 5557SOL     OW21993   0.403   1.219   3.053 -0.0519  0.3106  0.0167
 5557SOL    HW221994   0.406   1.139   3.106  1.0650  0.3030 -0.0304
 5557SOL    HW321995   0.329   1.268   3.088 -0.5629 -0.6117  0.2467
 5557SOL    MW421996   0.394   1.215   3.065  0.2379 -0.2064  0.3474
 5558SOL     OW21997   3.670   6.267   4.294 -0.4737  0.1652  0.1383
 5558SOL    HW221998   3.584   6.290   4.258  0.4250  1.2305 -1.3985
 5558SOL    HW321999   3.691   6.338   4.355 -1.5843 -1.1831  2.2524
 5558SOL    MW422000   3.661   6.279   4.298 -0.2173 -0.0864 -0.5754
 5559SOL     OW22001   2.698   0.950   1.983  0.1697  0.2072  0.5335
 5559SOL    HW222002   2.632   0.986   1.924  1.4107 -1.7986 -2.3354
 5559SOL    HW322003   2.733   1.026   2.029  0.6648  2.4147 -3.0454
 5559SOL    MW422004   2.694   0.965   1.981  0.7345 -0.2194  0.1283
 5560SOL     OW22005   1.692   0.111   3.512  0.3821 -0.1650  0.2129
 5560SOL    HW222006   1.758   0.104   3.582 -1.1973 -1.0593  1.7141
 5560SOL    HW322007   1.727   0.176   3.452  3.3098 -1.6345  0.1440
 5560SOL    MW422008   1.705   0.119   3.514 -0.1405 -0.0278  0.0106
 5561SOL     OW22009   5.851   1.161   4.188 -0.0389 -0.3641 -0.0466
 5561SOL    HW222010   5.946   1.158   4.199 -0.1345 -0.4517  0.8148
 5561SOL    HW322011   5.837   1.218   4.112  0.6547  0.6655  0.5865
 5561SOL    MW422012   5.861   1.168   4.179 -0.0757  0.3245 -0.0504
 5562SOL     OW22013   4.449   2.488   5.701  0.3010 -0.3960  0.1382
 5562SOL    HW222014   4.482   2.436   5.774  1.4607 -0.5238 -0.4528
 5562SOL    HW322015   4.455   2.579   5.730 -2.8696 -0.5261  1.6493
 5562SOL    MW422016   4.454   2.493   5.714 -0.0790 -0.1831  0.0511
 5563SOL     OW22017   3.434   5.568   1.169  0.0076 -0.3141  0.4045
 5563SOL    HW222018   3.428   5.626   1.244  1.1847  0.4656 -0.0799
 5563SOL    HW322019   3.361   5.593   1.112 -0.2721 -0.2202  0.8012
 5563SOL    MW422020   3.423   5.579   1.171 -0.0709  0.3073  0.2952
 5564SOL     OW22021   3.117   2.510   0.687 -0.5631  0.0295 -0.3818
 5564SOL    HW222022   3.158   2.557   0.760 -2.0283  1.9587 -0.7417
 5564SOL    HW322023   3.059   2.447   0.729  0.1125 -0.2768  0.1126
 5564SOL    MW422024   3.115   2.508   0.702 -0.2343  0.1542 -0.4976
 5565SOL     OW22025   1.705   3.653   4.786 -0.9595  0.1992  0.3142
 5565SOL    HW222026   1.626   3.657   4.842 -0.7097  0.8334  0.6335
 5565SOL    HW322027   1.710   3.739   4.746 -1.1300 -0.2486 -0.7113
 5565SOL    MW422028   1.695   3.665   4.788  0.4166  0.1907  0.0565
 5566SOL     OW22029   5.277   1.751   6.021 -0.1858 -0.3838 -0.1760
 5566SOL    HW222030   5.182   1.741   6.030 -0.2258 -0.9674 -1.0645
 5566SOL    HW322031   5.295   1.839   6.052 -1.2266  0.2979 -1.4167
 5566SOL    MW422032   5.267   1.761   6.026 -0.2539  0.6161 -0.1575
 5567SOL     OW22033   2.928   2.309   2.834  0.0949  0.0657 -0.4498
 5567SOL    HW222034   2.993   2.318   2.764  0.9112 -0.5527  0.1999
 5567SOL    HW322035   2.980   2.310   2.915 -0.6807 -0.6095  0.0762
 5567SOL    MW422036   2.944   2.310   2.836 -0.1575  0.4617 -0.2254
 5568SOL     OW22037   5.591   4.330   2.696 -0.1445 -0.4632 -0.3122
 5568SOL    HW222038   5.666   4.352   2.641  0.7081 -0.9834  0.6077
 5568SOL    HW322039   5.590   4.399   2.763 -0.6936 -0.2804 -0.4984
 5568SOL    MW422040   5.601   4.342   2.698  0.3257 -0.2288 -0.3079
 5569SOL     OW22041   2.650   2.463   6.138  0.4075 -0.8283 -0.2883
 5569SOL    HW222042   2.724   2.417   6.178  1.9926  1.5171 -0.3442
 5569SOL    HW322043   2.583   2.467   6.207  0.5169 -2.4615 -0.0471
 5569SOL    MW422044   2.651   2.457   6.152 -0.4752  0.6964  0.5810
 5570SOL     OW22045   5.682   3.922   5.683 -0.7451  0.1672 -0.0722
 5570SOL    HW222046   5.656   3.841   5.639  0.1814  0.9366 -2.1683
 5570SOL    HW322047   5.603   3.951   5.728 -1.5133 -1.1095 -0.5364
 5570SOL    MW422048   5.669   3.915   5.683 -0.2228 -0.2828 -0.1686
 5571SOL     OW22049   1.034   5.495   5.087  0.0057 -0.1881  0.2195
 5571SOL    HW222050   0.963   5.467   5.029  0.9833  0.5612 -1.4356
 5571SOL    HW322051   1.030   5.590   5.086  0.8725 -0.1383  0.2835
 5571SOL    MW422052   1.024   5.504   5.079  0.4739  0.5241  0.0399
 5572SOL     OW22053   6.274   1.189   0.599 -0.3386  0.6630 -0.2721
 5572SOL    HW222054   6.221   1.114   0.626 -0.4499  0.3058 -1.4523
 5572SOL    HW322055   6.349   1.187   0.658 -1.3179  0.8389  1.0428
 5572SOL    MW422056   6.277   1.179   0.610  0.3745 -0.2397  0.2412
 5573SOL     OW22057   2.945   5.466   4.521  0.3175 -0.6753 -0.4294
 5573SOL    HW222058   2.992   5.462   4.438  0.7876  0.9561 -0.2839
 5573SOL    HW322059   2.898   5.383   4.527  1.1171 -1.2492 -1.8155
 5573SOL    MW422060   2.945   5.455   4.511  0.0283  0.5653 -0.2450
 5574SOL     OW22061   4.759   2.578   5.440  0.7517  0.3347  0.1331
 5574SOL    HW222062   4.700   2.504   5.425 -0.0513  0.8827  0.5308
 5574SOL    HW322063   4.840   2.553   5.394 -0.1145  0.0147 -1.2959
 5574SOL    MW422064   4.762   2.565   5.432  0.1499  1.0068 -0.5894
 5575SOL     OW22065   1.237   1.135   1.513 -0.1532 -0.1525  0.2334
 5575SOL    HW222066   1.284   1.163   1.435  0.1677  0.2827  0.5840
 5575SOL    HW322067   1.182   1.062   1.483 -1.5281  1.2572 -0.8516
 5575SOL    MW422068   1.236   1.129   1.499  0.6620 -0.4405  0.1022
 5576SOL     OW22069   5.575   1.419   1.288 -0.0061 -0.3900 -0.5782
 5576SOL    HW222070   5.644   1.388   1.231 -0.3804  0.1719 -1.3539
 5576SOL    HW322071   5.613   1.496   1.332  0.0204 -0.3597 -0.6544
 5576SOL    MW422072   5.589   1.425   1.286 -0.2297  0.0542  0.1367
 5577SOL     OW22073   0.059   3.423   0.152  0.4365  0.7617  0.5750
 5577SOL    HW222074   0.002   3.443   0.078 -1.0169 -1.9306  0.8638
 5577SOL    HW322075   0.116   3.500   0.159 -1.2809  2.3589 -1.4870
 5577SOL    MW422076   0.059   3.436   0.143  0.2173 -0.3190  0.7123
 5578SOL     OW22077   6.271   6.214   3.309 -0.1570 -0.2286  0.1180
 5578SOL    HW222078   6.266   6.310   3.310 -1.5736 -0.2635  2.0107
 5578SOL    HW322079   6.188   6.187   3.270 -0.5292 -0.6603  1.1623
 5578SOL    MW422080   6.259   6.223   3.304 -0.3718  0.6533 -0.2888
 5579SOL     OW22081   3.688   0.861   6.243 -0.8194  0.0724  0.2190
 5579SOL    HW222082   3.637   0.854   6.324 -0.3726 -0.9882  0.4213
 5579SOL    HW322083   3.779   0.852   6.270 -0.6441 -0.0166 -0.3750
 5579SOL    MW422084   3.693   0.859   6.257  0.1613  0.5153 -0.4192
 5580SOL     OW22085   5.454   3.330   5.123  0.2576 -0.0262  0.0658
 5580SOL    HW222086   5.485   3.241   5.107 -0.5916 -0.2852 -0.1445
 5580SOL    HW322087   5.443   3.368   5.036 -2.4236 -0.7762  0.0063
 5580SOL    MW422088   5.457   3.323   5.109 -0.5237 -0.3770 -0.1231
 5581SOL     OW22089   2.604   1.779   1.052 -0.2198  0.5085  0.2473
 5581SOL    HW222090   2.557   1.855   1.086  0.4985  0.9452  0.2652
 5581SOL    HW322091   2.652   1.744   1.126 -1.6655 -0.8504  0.6065
 5581SOL    MW422092   2.604   1.784   1.066  0.1937 -0.7569 -0.4106
 5582SOL     OW22093   5.571   5.349   5.004 -0.1813  0.1008 -0.0806
 5582SOL    HW222094   5.664   5.333   5.017  0.1139  0.4138 -1.5871
 5582SOL    HW322095   5.528   5.292   5.068  1.0269 -0.2878  0.4218
 5582SOL    MW422096   5.578   5.339   5.014  0.1687  0.3463  0.1642
 5583SOL     OW22097   6.261   5.596   1.009 -0.0326 -0.3345 -0.5499
 5583SOL    HW222098   6.268   5.689   0.988 -0.4581  0.1645  1.3022
 5583SOL    HW322099   6.178   5.568   0.970 -1.0448  0.6671  0.7864
 5583SOL    MW422100   6.251   5.604   1.001  0.1781 -0.0148 -0.1660
 5584SOL     OW22101   3.165   1.477   4.857 -0.3279  0.0349  0.2228
 5584SOL    HW222102   3.108   1.498   4.931  0.9143  1.9716  0.6992
 5584SOL    HW322103   3.208   1.395   4.883  2.2045  2.0736  3.0476
 5584SOL    MW422104   3.163   1.469   4.870  0.0024 -0.1051  0.3989
 5585SOL     OW22105   6.343   0.010   4.683  0.2206 -0.2499  0.0561
 5585SOL    HW222106   6.374  -0.046   4.754 -0.1187  0.7323  0.9992
 5585SOL    HW322107   6.250   0.024   4.702  0.6748  2.0291  0.8212
 5585SOL    MW422108   6.335   0.004   4.695 -0.0603  0.4423  0.0411
 5586SOL     OW22109   0.927   2.901   3.982 -0.1499 -0.0182  0.5371
 5586SOL    HW222110   0.925   2.992   3.952 -0.9383  0.6181  2.3937
 5586SOL    HW322111   0.907   2.906   4.075 -0.7586 -2.1530  0.5700
 5586SOL    MW422112   0.924   2.914   3.990  0.4399 -0.4583 -0.6670
 5587SOL     OW22113   1.270   3.537   6.015 -0.3316  0.4111  0.3222
 5587SOL    HW222114   1.206   3.604   5.993 -0.1527  0.2407 -0.7561
 5587SOL    HW322115   1.343   3.584   6.054 -0.2248  0.8446 -0.3903
 5587SOL    MW422116   1.271   3.552   6.018  0.1855 -0.0913 -0.5169
 5588SOL     OW22117   4.966   6.209   1.437  0.4951  0.3638  0.7120
 5588SOL    HW222118   5.028   6.154   1.485  0.2561  0.6427  1.3510
 5588SOL    HW322119   4.934   6.271   1.502  0.8274  1.3204 -0.0216
 5588SOL    MW422120   4.970   6.210   1.452  0.1651  0.0326  0.4117
 5589SOL     OW22121   0.570   3.659   3.315  0.3888 -0.3033  0.5354
 5589SOL    HW222122   0.644   3.602   3.335  1.8300  1.7484  1.3948
 5589SOL    HW322123   0.563   3.717   3.391  0.6088  2.2661 -1.2771
 5589SOL    MW422124   0.579   3.659   3.327  0.0403  0.2356 -0.1482
 5590SOL     OW22125   0.489   6.079   2.531  0.2058 -0.1479  0.6125
 5590SOL    HW222126   0.499   6.161   2.483  2.1446  0.6854  2.2830
 5590SOL    HW322127   0.496   6.010   2.465 -2.6574  0.9655 -1.0072
 5590SOL    MW422128   0.491   6.081   2.516 -0.5959 -0.2362  0.1613
 5591SOL     OW22129   0.896   1.274   4.257  0.1012 -0.0974  0.2259
 5591SOL    HW222130   0.821   1.246   4.309  0.5565  1.6739  1.9386
 5591SOL    HW322131   0.970   1.269   4.317  1.0122  0.1745 -0.8335
 5591SOL    MW422132   0.896   1.269   4.272 -0.3642 -0.0345 -0.1131
 5592SOL     OW22133   1.636   0.958   4.536  0.3650 -0.8334 -0.3672
 5592SOL    HW222134   1.658   1.005   4.455 -0.9151 -0.0182 -0.2820
 5592SOL    HW322135   1.568   0.896   4.509 -1.0617  0.3862  0.2915
 5592SOL    MW422136   1.630   0.956   4.522  0.1653  0.3600  0.1405
 5593SOL     OW22137   4.200   1.906   0.350  0.5852  0.0153 -0.0225
 5593SOL    HW222138   4.169   1.879   0.437 -0.5776  1.1556 -0.0537
 5593SOL    HW322139   4.272   1.966   0.368  0.5044  0.0628  0.1430
 5593SOL    MW422140   4.205   1.910   0.364  0.5000 -0.2894 -0.0256
 5594SOL     OW22141   5.814   5.081   1.547  0.0298 -0.3838  0.2845
 5594SOL    HW222142   5.860   5.155   1.508  0.9312 -0.9390  0.2771
 5594SOL    HW322143   5.879   5.011   1.549 -0.9506 -1.3384 -0.1909
 5594SOL    MW422144   5.828   5.082   1.542  0.6506 -0.1242  0.5239
 5595SOL     OW22145   3.884   0.821   5.992  0.3477 -0.2096 -0.1350
 5595SOL    HW222146   3.953   0.850   5.932  1.0745 -1.7136 -0.0904
 5595SOL    HW322147   3.927   0.813   6.077  0.1798 -1.2623 -0.1278
 5595SOL    MW422148   3.899   0.824   5.995  0.0429  0.5568  0.0442
 5596SOL     OW22149   6.278   1.666   5.110 -0.1837 -0.4276  0.0826
 5596SOL    HW222150   6.259   1.717   5.032  1.3887  0.7959  0.4417
 5596SOL    HW322151   6.364   1.626   5.092 -0.8393 -2.0009  0.2918
 5596SOL    MW422152   6.287   1.667   5.098 -0.2567  0.1124  0.0217
 5597SOL     OW22153   2.925   6.160   1.377  0.2929 -0.2428 -0.4761
 5597SOL    HW222154   2.935   6.074   1.418  0.3099 -0.8875 -1.7846
 5597SOL    HW322155   2.964   6.150   1.290  1.4810  1.4606 -0.1952
 5597SOL    MW422156   2.932   6.148   1.371  0.5518  0.3443 -0.0554
 5598SOL     OW22157   0.713   5.707   1.596  0.0375  0.0193  0.3228
 5598SOL    HW222158   0.721   5.625   1.546 -0.9906 -0.2731  0.6006
 5598SOL    HW322159   0.657   5.684   1.670 -2.3061  1.4929 -0.8818
 5598SOL    MW422160   0.706   5.693   1.599  0.7195  0.0171  0.0838
 5599SOL     OW22161   1.744   4.181   0.017  0.2027  0.3722  0.1126
 5599SOL    HW222162   1.776   4.095  -0.010 -1.2967 -0.7798  1.7614
 5599SOL    HW322163   1.757   4.237  -0.060  0.0453 -1.6364 -1.4566
 5599SOL    MW422164   1.750   4.177   0.004 -0.2953 -0.0560  0.4058
 5600SOL     OW22165   0.876   3.595   5.103  0.5034  0.6359 -0.5396
 5600SOL    HW222166   0.849   3.517   5.151  0.5809  0.9746  0.0728
 5600SOL    HW322167   0.922   3.562   5.025  3.0416  0.0156  1.0869
 5600SOL    MW422168   0.879   3.581   5.099  0.4613 -0.2565 -0.1181
 5601SOL     OW22169   4.088   2.501   1.190 -0.4305  0.2779 -0.2850
 5601SOL    HW222170   4.099   2.414   1.151 -0.1347  0.5932 -0.9282
 5601SOL    HW322171   3.994   2.516   1.190 -0.6266 -0.7367  1.4123
 5601SOL    MW422172   4.077   2.492   1.184  0.0373 -0.2491  0.0756
 5602SOL     OW22173   4.244   0.541   3.340 -0.2902 -0.5052  0.1275
 5602SOL    HW222174   4.155   0.555   3.372 -0.5020 -0.5833 -0.4087
 5602SOL    HW322175   4.286   0.488   3.407 -1.3364 -2.3881 -0.6330
 5602SOL    MW422176   4.238   0.536   3.353 -0.4896  0.1321 -0.4294
 5603SOL     OW22177   3.278   5.203   3.538 -0.5438 -0.2560 -0.2367
 5603SOL    HW222178   3.245   5.207   3.628 -0.2385  0.5585 -0.1582
 5603SOL    HW322179   3.199   5.205   3.484 -0.8693 -2.6229  0.0155
 5603SOL    MW422180   3.263   5.204   3.543 -0.0414  0.1698 -0.2798
 5604SOL     OW22181   0.764   4.373   2.898  0.3080  0.5285 -0.0042
 5604SOL    HW222182   0.682   4.405   2.934  0.6571  0.5210  0.8266
 5604SOL    HW322183   0.800   4.316   2.966  0.7193  0.0697 -0.5956
 5604SOL    MW422184   0.758   4.370   2.911  0.1735  0.3308  0.2397
 5605SOL     OW22185   3.437   3.640   5.600 -0.3229 -0.4158 -0.0040
 5605SOL    HW222186   3.450   3.607   5.689  1.1809 -1.2099 -0.4793
 5605SOL    HW322187   3.466   3.568   5.544  0.5130  0.7453 -1.1119
 5605SOL    MW422188   3.443   3.626   5.604  0.0939 -0.5408  0.1333
 5606SOL     OW22189   6.003   5.164   2.349 -0.3455  0.1202 -0.1368
 5606SOL    HW222190   5.954   5.246   2.346  0.8065  0.8282 -0.2400
 5606SOL    HW322191   5.939   5.097   2.326 -0.6303  1.3156 -3.4062
 5606SOL    MW422192   5.989   5.166   2.346 -0.4766 -0.0051  0.2429
 5607SOL     OW22193   0.109   5.061   1.544 -0.0243  0.8998  0.0854
 5607SOL    HW222194   0.050   5.097   1.610 -0.6795 -1.0303  0.6403
 5607SOL    HW322195   0.067   5.082   1.461 -1.6166 -0.4981  0.4720
 5607SOL    MW422196   0.096   5.068   1.542  0.0923  0.7312 -0.1944
 5608SOL     OW22197   5.234   4.648   5.563 -0.3347 -0.5128 -0.2516
 5608SOL    HW222198   5.166   4.712   5.581 -0.3582 -0.2230 -1.3295
 5608SOL    HW322199   5.195   4.589   5.498 -0.0837 -1.2370  0.2405
 5608SOL    MW422200   5.220   4.649   5.557 -0.5966  0.2847  0.0685
 5609SOL     OW22201   6.204   2.344   3.700 -0.5306  0.8695 -0.9333
 5609SOL    HW222202   6.236   2.433   3.686 -0.3495  0.9738  0.0647
 5609SOL    HW322203   6.117   2.356   3.739 -0.8065  0.5971 -1.4470
 5609SOL    MW422204   6.197   2.357   3.704  0.1607 -0.7337 -0.6124
 5610SOL     OW22205   2.519   3.112   5.565 -0.1873  1.2130 -0.7245
 5610SOL    HW222206   2.437   3.156   5.541 -0.9323 -0.4103 -1.2912
 5610SOL    HW322207   2.532   3.046   5.496  1.7564  1.6156 -0.8053
 5610SOL    MW422208   2.510   3.109   5.553 -0.0470 -0.4106 -0.3825
 5611SOL     OW22209   4.854   4.622   5.776 -0.4897 -0.0222 -0.2112
 5611SOL    HW222210   4.765   4.657   5.783 -0.8082 -0.1656 -2.6179
 5611SOL    HW322211   4.869   4.577   5.859 -2.4097  0.5899  0.5098
 5611SOL    MW422212   4.844   4.621   5.788  0.4138  0.6956  0.4054
 5612SOL     OW22213   5.776   3.159   5.612 -0.4131  0.0465  0.3989
 5612SOL    HW222214   5.822   3.229   5.657 -0.1704  0.2645 -0.1702
 5612SOL    HW322215   5.759   3.093   5.679 -0.3327  0.5004  0.8614
 5612SOL    MW422216   5.780   3.159   5.627  0.2117  0.0618  0.3037
 5613SOL     OW22217   1.704   5.928   4.633 -0.1815  0.3287  0.1393
 5613SOL    HW222218   1.704   5.947   4.727  0.9472  0.5162  0.1169
 5613SOL    HW322219   1.719   5.833   4.628  0.5280  0.4319  0.1494
 5613SOL    MW422220   1.706   5.918   4.645  0.0409 -0.6684 -0.4007
 5614SOL     OW22221   1.417   0.418   0.901 -0.4153 -0.4144  0.1219
 5614SOL    HW222222   1.432   0.467   0.982 -0.1651  0.4014 -0.3964
 5614SOL    HW322223   1.322   0.411   0.895 -0.4094 -1.3454  0.9773
 5614SOL    MW422224   1.406   0.424   0.911  0.1562 -0.4999 -0.3932
 5615SOL     OW22225   4.941   1.866   6.386  0.4815  0.0036 -0.3904
 5615SOL    HW222226   5.027   1.847   6.423  0.0207 -0.1015  0.6425
 5615SOL    HW322227   4.946   1.830   6.297  1.9380  1.1595 -0.8235
 5615SOL    MW422228   4.953   1.859   6.379 -0.3237  0.3986 -0.0646
 5616SOL     OW22229   3.381   4.057   5.626 -0.3512 -0.0132 -0.0053
 5616SOL    HW222230   3.475   4.072   5.615 -0.2281 -0.7797 -0.0305
 5616SOL    HW322231   3.352   4.025   5.540 -0.8109  1.0493 -0.2652
 5616SOL    MW422232   3.389   4.055   5.613  0.7148 -0.7276  0.1674
 5617SOL     OW22233   3.734   2.510   0.525  0.1902  0.2922 -0.1769
 5617SOL    HW222234   3.722   2.520   0.620  0.7910 -0.0440 -0.0585
 5617SOL    HW322235   3.700   2.423   0.505  0.5994  0.1237 -0.1636
 5617SOL    MW422236   3.728   2.500   0.535  0.5381 -0.5994 -0.1876
 5618SOL     OW22237   4.645   2.182   2.930  0.2006 -0.6247 -0.4510
 5618SOL    HW222238   4.619   2.092   2.953 -0.7043 -0.4512 -0.7625
 5618SOL    HW322239   4.669   2.222   3.014 -1.1268 -0.6159 -0.0606
 5618SOL    MW422240   4.645   2.175   2.944 -0.7973  0.2549  0.5107
 5619SOL     OW22241   3.373   3.611   0.261  0.1953  0.0455  0.2154
 5619SOL    HW222242   3.307   3.571   0.319  0.7903 -1.0950  0.1314
 5619SOL    HW322243   3.456   3.576   0.292  0.4981 -1.0104 -1.6495
 5619SOL    MW422244   3.375   3.601   0.273  0.2824  0.4006  0.0333
 5620SOL     OW22245   0.721   6.078   2.159 -0.0880 -0.0633 -0.0231
 5620SOL    HW222246   0.705   6.152   2.099  0.4879  0.8359  0.8941
 5620SOL    HW322247   0.742   6.120   2.242 -1.4110 -1.2954  0.9630
 5620SOL    MW422248   0.722   6.093   2.162  0.2146 -0.3324  0.1184
 5621SOL     OW22249   2.339   5.562   5.447  0.2269  0.0165  0.1643
 5621SOL    HW222250   2.395   5.550   5.524  1.2226 -0.5123 -0.6103
 5621SOL    HW322251   2.307   5.474   5.427 -0.4024  0.2250  0.2468
 5621SOL    MW422252   2.342   5.549   5.454 -0.3282  0.4261 -0.6942
 5622SOL     OW22253   1.584   2.476   0.554 -0.0295 -0.2845  0.7689
 5622SOL    HW222254   1.663   2.495   0.603 -0.0332 -1.2039  1.1473
 5622SOL    HW322255   1.515   2.471   0.620 -0.4025  0.4454  0.4492
 5622SOL    MW422256   1.585   2.478   0.569  0.0832 -0.6718  0.1108
 5623SOL     OW22257   1.816   2.189   1.302  0.0851  0.4577 -0.0935
 5623SOL    HW222258   1.840   2.152   1.217  0.6238  1.7781 -0.5430
 5623SOL    HW322259   1.812   2.114   1.361 -0.3975 -0.4845 -1.3094
 5623SOL    MW422260   1.819   2.174   1.299  0.3362 -0.1192 -0.3016
 5624SOL     OW22261   5.056   5.503   4.385 -0.9236 -0.0567  0.3554
 5624SOL    HW222262   4.998   5.427   4.384 -0.8034 -0.1668 -1.3177
 5624SOL    HW322263   5.007   5.570   4.338  0.4187 -0.2784 -1.4605
 5624SOL    MW422264   5.042   5.502   4.379 -0.3343  0.6785 -0.1549
 5625SOL     OW22265   3.711   4.369   1.691 -0.6224  0.2123  0.1632
 5625SOL    HW222266   3.660   4.388   1.770 -0.3488  0.7834  0.2126
 5625SOL    HW322267   3.754   4.453   1.670  0.0087 -0.1645 -0.0796
 5625SOL    MW422268   3.710   4.383   1.699 -0.8227  0.5771 -0.4864
 5626SOL     OW22269   4.265   4.583   4.610  0.5111  0.3602 -0.1530
 5626SOL    HW222270   4.200   4.544   4.670 -0.0291  0.7256 -0.4894
 5626SOL    HW322271   4.314   4.508   4.577  0.8012  0.1474  0.7183
 5626SOL    MW422272   4.263   4.568   4.614 -0.3115 -0.0519 -0.5538
 5627SOL     OW22273   6.006   2.832   0.049 -0.3285 -0.2910  0.1374
 5627SOL    HW222274   5.975   2.748   0.082 -0.8308 -1.1768 -2.3672
 5627SOL    HW322275   6.082   2.811  -0.005 -0.6249  0.8029 -0.7556
 5627SOL    MW422276   6.012   2.818   0.046 -0.7113  0.0699  0.6264
 5628SOL     OW22277   0.893   0.936   1.636 -0.2105 -0.2240 -0.1429
 5628SOL    HW222278   0.834   0.881   1.584  0.3605  0.1686 -1.2412
 5628SOL    HW322279   0.866   1.025   1.615  1.6110  0.0212 -1.7689
 5628SOL    MW422280   0.881   0.940   1.626  0.5870 -0.1124  0.7288
 5629SOL     OW22281   1.367   1.541   1.982 -0.3368  0.3715  0.2844
 5629SOL    HW222282   1.366   1.637   1.986  0.4453  0.3459  2.2125
 5629SOL    HW322283   1.284   1.515   2.022 -0.7934  0.2233 -0.7255
 5629SOL    MW422284   1.356   1.550   1.988  0.6448  0.2236 -0.3515
 5630SOL     OW22285   3.722   3.289   0.042 -0.2600  0.0640 -0.2413
 5630SOL    HW222286   3.698   3.358  -0.020 -0.0182  0.0940 -0.3035
 5630SOL    HW322287   3.796   3.245   0.001  0.5366  0.7133  0.4782
 5630SOL    MW422288   3.728   3.292   0.028 -0.3254 -0.0924  0.4390
 5631SOL     OW22289   6.287   1.224   1.438 -0.1134 -0.3854 -0.4782
 5631SOL    HW222290   6.204   1.179   1.419 -0.7767  1.0745 -1.1794
 5631SOL    HW322291   6.278   1.309   1.396  2.0007 -0.4073 -1.0541
 5631SOL    MW422292   6.275   1.229   1.430 -0.1692  0.1613  0.5805
 5632SOL     OW22293   3.122   5.708   3.253  0.9349 -0.0156  0.3337
 5632SOL    HW222294   3.204   5.660   3.265 -0.2727 -2.4078 -0.3125
 5632SOL    HW322295   3.055   5.650   3.290 -0.5889  1.3246 -0.2390
 5632SOL    MW422296   3.124   5.694   3.259  0.2756  0.3626  0.1683
 5633SOL     OW22297   3.833   1.660   0.753 -0.1071  0.6967  0.1170
 5633SOL    HW222298   3.833   1.690   0.662  1.3577  0.7738  0.1164
 5633SOL    HW322299   3.749   1.615   0.763 -0.4044  0.9057 -1.1950
 5633SOL    MW422300   3.822   1.658   0.742  0.0937 -0.0283 -0.0298
 5634SOL     OW22301   1.975   5.870   5.988 -0.2252  0.0024  0.0007
 5634SOL    HW222302   2.007   5.802   6.048  0.4564 -0.4205 -0.8258
 5634SOL    HW322303   1.987   5.832   5.901 -1.7651  0.3732 -0.3909
 5634SOL    MW422304   1.981   5.856   5.984 -0.3053  0.2725  0.3344
 5635SOL     OW22305   1.603   3.145   6.030  0.4593 -0.4519  0.2991
 5635SOL    HW222306   1.650   3.180   5.955  0.7558 -0.3816  0.5149
 5635SOL    HW322307   1.619   3.208   6.100  1.9115 -1.5342  1.0074
 5635SOL    MW422308   1.612   3.158   6.029  0.2691 -0.2213  0.4591
 5636SOL     OW22309   4.509   3.294   4.767  0.0708 -0.0726  0.0364
 5636SOL    HW222310   4.431   3.306   4.713  0.5972 -0.6409 -0.8526
 5636SOL    HW322311   4.522   3.200   4.771  2.0862  0.0415 -1.8578
 5636SOL    MW422312   4.500   3.283   4.761  0.4210  0.3523  0.2803
 5637SOL     OW22313   3.002   5.955   3.263  0.4924 -0.2101  0.1002
 5637SOL    HW222314   3.050   5.872   3.258  0.7240 -0.0671 -0.0982
 5637SOL    HW322315   3.041   6.002   3.336 -0.1037 -0.5631  0.6527
 5637SOL    MW422316   3.013   5.950   3.272 -0.1635  0.3192  0.4202
 5638SOL     OW22317   1.648   4.484   5.301  0.2002  0.0240  0.0314
 5638SOL    HW222318   1.743   4.477   5.294  0.4734  2.4881  0.4267
 5638SOL    HW322319   1.624   4.415   5.363  1.7770 -0.3913  0.2286
 5638SOL    MW422320   1.658   4.474   5.309 -0.4816  0.1261 -0.0158
 5639SOL     OW22321   3.705   3.816   5.880 -0.3610 -0.1322 -0.1440
 5639SOL    HW222322   3.733   3.724   5.881  1.0806  0.2911 -0.4914
 5639SOL    HW322323   3.663   3.827   5.795 -0.2739 -0.3868 -0.2214
 5639SOL    MW422324   3.703   3.805   5.869 -0.5546 -0.1781 -0.2651
 5640SOL     OW22325   0.668   1.712   0.441 -0.7005  0.3248 -0.2412
 5640SOL    HW222326   0.678   1.618   0.434  0.3168  0.3484  0.7659
 5640SOL    HW322327   0.573   1.726   0.434 -0.9242 -0.8256  0.2889
 5640SOL    MW422328   0.657   1.702   0.439  0.7799 -0.4392 -0.0852
 5641SOL     OW22329   4.719   2.643   2.946 -0.4462  0.3039  0.1956
 5641SOL    HW222330   4.625   2.641   2.928 -0.2129 -0.1142 -1.0548
 5641SOL    HW322331   4.753   2.563   2.906  0.3823  0.2161  1.0403
 5641SOL    MW422332   4.711   2.632   2.938 -0.3716  0.1699 -0.6756
 5642SOL     OW22333   0.521   3.700   4.357 -0.0170  0.1953  0.2499
 5642SOL    HW222334   0.524   3.785   4.312  1.1721  0.3745  0.6410
 5642SOL    HW322335   0.605   3.659   4.336 -0.4035 -0.7040  0.4267
 5642SOL    MW422336   0.533   3.706   4.348  0.3412 -0.0262 -0.1889
 5643SOL     OW22337   5.503   6.364   5.274 -0.5975 -0.0692 -0.0157
 5643SOL    HW222338   5.425   6.343   5.326 -0.9684 -0.4756 -0.7222
 5643SOL    HW322339   5.472   6.425   5.208 -0.0862  0.5919  0.3366
 5643SOL    MW422340   5.489   6.369   5.272  0.0152  0.3958 -0.0882
 5644SOL     OW22341   0.505   0.872   6.288 -0.0515 -0.0012 -0.4302
 5644SOL    HW222342   0.446   0.908   6.354 -0.2355 -1.1631  0.0657
 5644SOL    HW322343   0.472   0.905   6.204  0.1557  1.4551  0.0287
 5644SOL    MW422344   0.493   0.881   6.286  0.5498  0.1417  0.2227
 5645SOL     OW22345   1.803   5.878   2.974 -0.2205 -0.2737 -0.1433
 5645SOL    HW222346   1.820   5.803   3.030  1.8050 -0.3328 -0.7662
 5645SOL    HW322347   1.791   5.951   3.035  1.1218 -0.4928  0.4099
 5645SOL    MW422348   1.803   5.878   2.990 -0.2160 -0.2734 -0.1572
 5646SOL     OW22349   2.869   2.976   3.424  0.1395 -0.2106 -0.0271
 5646SOL    HW222350   2.889   3.060   3.383  0.3719 -0.3256 -0.1533
 5646SOL    HW322351   2.880   2.912   3.353 -0.6566 -0.2815 -0.0939
 5646SOL    MW422352   2.873   2.979   3.409 -0.2390 -0.1524  0.2169
 5647SOL     OW22353   5.550   0.914   1.855  0.1010 -0.0710 -0.4508
 5647SOL    HW222354   5.542   0.865   1.773  0.1401  1.5157 -1.4432
 5647SOL    HW322355   5.517   0.854   1.922 -2.0439 -0.6349 -1.9157
 5647SOL    MW422356   5.545   0.900   1.853 -0.0576  0.0816 -0.0012
 5648SOL     OW22357   0.177   6.208   3.423 -0.2446  0.2664 -0.0748
 5648SOL    HW222358   0.181   6.134   3.484  0.7355  0.9036  0.6634
 5648SOL    HW322359   0.269   6.231   3.407 -0.5340  1.3693 -0.2258
 5648SOL    MW422360   0.190   6.201   3.429 -0.1182  0.0028  0.0176
 5649SOL     OW22361   4.877   4.251   1.452  0.7332  0.2783  0.3446
 5649SOL    HW222362   4.870   4.157   1.470 -2.2082  0.2182 -0.5404
 5649SOL    HW322363   4.911   4.255   1.363  0.7017  0.0381  0.3195
 5649SOL    MW422364   4.880   4.239   1.443 -0.7111 -0.0215  0.0095
 5650SOL     OW22365   1.837   0.669   4.195 -0.1078  0.3510 -0.7624
 5650SOL    HW222366   1.783   0.592   4.180  0.4241  0.0562 -1.2281
 5650SOL    HW322367   1.839   0.680   4.290 -0.4903  0.0080 -0.7148
 5650SOL    MW422368   1.830   0.660   4.205  0.0020 -0.2019 -0.0278
 5651SOL     OW22369   6.189   5.096   3.338 -0.3844 -0.0255 -0.0669
 5651SOL    HW222370   6.107   5.122   3.295 -0.8839  0.7245  1.2887
 5651SOL    HW322371   6.161   5.048   3.415  0.5052 -1.4074 -0.5662
 5651SOL    MW422372   6.175   5.093   3.342 -0.3346  0.1980 -0.6068
 5652SOL     OW22373   4.872   4.956   1.587  0.3573  0.0224  0.2134
 5652SOL    HW222374   4.941   4.963   1.654  1.1311 -0.3374 -0.5236
 5652SOL    HW322375   4.791   4.953   1.637  0.7980  1.3938  1.0717
 5652SOL    MW422376   4.870   4.957   1.602 -0.1735  0.4713 -0.0313
 5653SOL     OW22377   1.364   5.414   0.864  0.7010  0.0733  0.3103
 5653SOL    HW222378   1.399   5.342   0.812 -0.9590 -1.0518  0.7001
 5653SOL    HW322379   1.422   5.488   0.843  2.3290 -1.2878 -0.2418
 5653SOL    MW422380   1.376   5.415   0.854 -0.0639  0.4128 -0.0373
 5654SOL     OW22381   1.394   0.515   3.960 -0.6658 -0.2562 -0.1061
 5654SOL    HW222382   1.336   0.486   4.029 -1.4172  0.3917 -0.4480
 5654SOL    HW322383   1.444   0.587   3.999 -0.5876 -0.3626 -0.0140
 5654SOL    MW422384   1.393   0.521   3.974 -0.4733  0.1482  0.2711
 5655SOL     OW22385   0.721   6.033   1.716  0.1501 -0.4457 -0.6331
 5655SOL    HW222386   0.700   5.943   1.739  2.1992 -1.4530 -2.3923
 5655SOL    HW322387   0.636   6.077   1.714 -0.7575 -1.8287  1.9571
 5655SOL    MW422388   0.707   6.027   1.719 -0.2470 -0.1534  0.1883
 5656SOL     OW22389   0.593   0.791   0.781 -0.1730 -0.0751 -0.0475
 5656SOL    HW222390   0.646   0.763   0.707  1.3764 -0.1807  1.0612
 5656SOL    HW322391   0.593   0.886   0.776 -1.1702 -0.0963 -0.8918
 5656SOL    MW422392   0.600   0.800   0.770  0.0360 -0.5069 -0.0438
 5657SOL     OW22393   3.286   6.276   1.547 -0.0785 -0.1290 -0.5276
 5657SOL    HW222394   3.379   6.275   1.569  0.2088  0.3859 -1.6999
 5657SOL    HW322395   3.282   6.298   1.454 -1.4708  2.4921  0.0526
 5657SOL    MW422396   3.298   6.278   1.538  0.3142 -0.9345 -0.8247
 5658SOL     OW22397   5.315   0.999   4.169  0.0891  0.5467  0.0069
 5658SOL    HW222398   5.387   0.964   4.117 -1.4388 -0.1468 -1.7704
 5658SOL    HW322399   5.274   0.923   4.209 -0.4281  0.7850 -0.0560
 5658SOL    MW422400   5.319   0.984   4.167  0.3452 -0.6274 -0.1715
 5659SOL     OW22401   4.280   3.192   5.897  0.6458  0.4407 -0.0967
 5659SOL    HW222402   4.238   3.234   5.972  3.3174  0.2591  1.6593
 5659SOL    HW322403   4.349   3.253   5.871  1.9153 -0.9772 -0.2025
 5659SOL    MW422404   4.284   3.206   5.903 -0.4538 -0.4992  0.0913
 5660SOL     OW22405   0.905   6.063   1.491 -0.0761  0.0369 -0.3874
 5660SOL    HW222406   0.842   6.072   1.563  1.5551  0.8417  0.9949
 5660SOL    HW322407   0.943   5.976   1.504  0.3183  0.2373 -0.1607
 5660SOL    MW422408   0.902   6.052   1.502 -0.0801 -0.4474  0.3850
 5661SOL     OW22409   1.236   3.950   2.504  0.4336  0.0977  0.4734
 5661SOL    HW222410   1.247   3.893   2.580 -1.4823 -2.5797 -1.0975
 5661SOL    HW322411   1.142   3.969   2.501  0.6157  0.9530 -0.6897
 5661SOL    MW422412   1.225   3.945   2.513 -0.1031 -0.0465 -0.5904
 5662SOL     OW22413   5.502   3.307   2.179  0.4045 -0.1196 -0.5558
 5662SOL    HW222414   5.421   3.268   2.145  1.0989 -1.9587 -0.2071
 5662SOL    HW322415   5.552   3.329   2.100 -0.5119  1.3189 -0.7864
 5662SOL    MW422416   5.498   3.305   2.164 -0.2000  0.4179 -0.4706
 5663SOL     OW22417   4.633   5.303   6.366  1.4177 -0.4237  0.2899
 5663SOL    HW222418   4.596   5.286   6.280 -0.8372 -0.1488  1.1361
 5663SOL    HW322419   4.694   5.375   6.353  1.2852 -0.5471 -1.0902
 5663SOL    MW422420   4.636   5.310   6.353 -0.3481  0.0597 -0.0899
 5664SOL     OW22421   6.340   3.049   2.948  0.0180 -0.1067 -0.5307
 5664SOL    HW222422   6.259   3.093   2.922 -0.2696  1.0077  1.9443
 5664SOL    HW322423   6.408   3.090   2.895 -0.7199  0.8189 -0.7865
 5664SOL    MW422424   6.339   3.060   2.938 -0.1946  0.0644  0.5233
 5665SOL     OW22425   6.218   2.291   2.342 -0.1985  0.0394 -0.4843
 5665SOL    HW222426   6.244   2.344   2.417  0.3178  0.5789 -1.0413
 5665SOL    HW322427   6.201   2.354   2.272  0.0326 -0.4985 -1.0370
 5665SOL    MW422428   6.219   2.306   2.343  0.5571  0.4177 -0.6575
 5666SOL     OW22429   3.399   3.070   3.324  0.5510  0.0775  0.1851
 5666SOL    HW222430   3.417   3.039   3.236  0.2137  0.4375 -0.0118
 5666SOL    HW322431   3.386   2.990   3.375 -0.8552 -0.1143 -0.4349
 5666SOL    MW422432   3.399   3.055   3.319  0.0820  0.2523  0.1220
 5667SOL     OW22433   0.044   2.750   3.020  0.2620 -0.0416 -0.5542
 5667SOL    HW222434   0.031   2.733   3.113 -0.4147  1.4811 -0.3373
 5667SOL    HW322435   0.008   2.673   2.976 -1.4105  0.1750  0.3684
 5667SOL    MW422436   0.038   2.738   3.026 -0.0535 -0.2074 -0.2045
 5668SOL     OW22437   5.435   2.958   2.196 -0.4213  0.5373  0.2548
 5668SOL    HW222438   5.492   2.914   2.132 -1.5908 -0.9209  0.1490
 5668SOL    HW322439   5.495   2.994   2.261  0.7258  0.9463 -0.9779
 5668SOL    MW422440   5.450   2.957   2.196 -0.3150 -0.4810 -0.0347
 5669SOL     OW22441   5.942   6.322   2.514 -0.1047  0.0679  0.4087
 5669SOL    HW222442   5.926   6.338   2.421  0.3584 -0.5715  0.2117
 5669SOL    HW322443   5.987   6.401   2.545 -2.1161  1.2154  0.6095
 5669SOL    MW422444   5.946   6.335   2.506 -0.2653 -0.3048 -0.2725
 5670SOL     OW22445   4.657   0.951   2.792  0.2947  0.3578 -0.3559
 5670SOL    HW222446   4.704   1.035   2.789  2.3845 -0.7761 -1.6729
 5670SOL    HW322447   4.626   0.938   2.702 -0.7361  0.0651  0.0294
 5670SOL    MW422448   4.659   0.961   2.780  0.3468 -0.0190 -0.0585
 5671SOL     OW22449   1.055   0.247   5.978  0.4116 -0.2214  0.1084
 5671SOL    HW222450   1.035   0.188   6.051 -2.3322  0.3385 -0.0875
 5671SOL    HW322451   1.025   0.200   5.900  0.0655  0.5997 -0.2673
 5671SOL    MW422452   1.049   0.233   5.977  0.1851  0.1242 -0.0748
 5672SOL     OW22453   4.586   4.104   4.844 -0.5478  0.3043 -0.0404
 5672SOL    HW222454   4.622   4.057   4.918  0.3455  2.8384  1.2534
 5672SOL    HW322455   4.623   4.061   4.767 -2.0590 -2.8544  0.8322
 5672SOL    MW422456   4.595   4.092   4.843  0.2014 -0.1215  0.1559
 5673SOL     OW22457   1.289   4.277   2.159  0.0265 -0.1950  0.1835
 5673SOL    HW222458   1.254   4.361   2.128  0.3934  1.3565  3.4514
 5673SOL    HW322459   1.300   4.224   2.080 -2.0277  2.1320 -1.8228
 5673SOL    MW422460   1.286   4.281   2.144  0.0490 -0.3445  0.1241
 5674SOL     OW22461   5.625   1.098   6.094 -0.3125 -0.1550  0.7648
 5674SOL    HW222462   5.615   1.187   6.129 -0.5842  0.4313 -0.7223
 5674SOL    HW322463   5.707   1.100   6.044 -0.6449 -0.5336  0.1812
 5674SOL    MW422464   5.634   1.110   6.092  0.1195 -0.1935 -0.4454
 5675SOL     OW22465   5.047   2.360   3.785 -0.5758 -0.1925  0.5824
 5675SOL    HW222466   5.109   2.318   3.726 -0.4733  1.1655 -0.3275
 5675SOL    HW322467   5.101   2.387   3.860 -0.3070 -0.1853  0.3899
 5675SOL    MW422468   5.063   2.358   3.787 -0.0765 -0.1640 -0.1998
 5676SOL     OW22469   3.435   3.147   3.724  1.0776  0.2429  0.0071
 5676SOL    HW222470   3.380   3.093   3.667 -2.1778 -0.1798  3.1713
 5676SOL    HW322471   3.396   3.235   3.717  0.7037  0.2077  1.3723
 5676SOL    MW422472   3.423   3.152   3.715 -0.1467  0.3362 -0.4792
 5677SOL     OW22473   4.824   4.869   2.822 -0.3468 -0.0661  0.2290
 5677SOL    HW222474   4.840   4.963   2.834  1.1411 -0.2508 -0.1382
 5677SOL    HW322475   4.750   4.865   2.760  1.5408  0.9089 -2.2618
 5677SOL    MW422476   4.816   4.881   2.815  0.2281 -0.2584  1.1358
 5678SOL     OW22477   1.988   5.919   1.545 -0.4902  0.2537 -0.1223
 5678SOL    HW222478   1.946   5.883   1.623 -1.5860 -0.2476 -0.9218
 5678SOL    HW322479   1.915   5.947   1.489  0.2690  0.3749 -1.0797
 5678SOL    MW422480   1.973   5.918   1.548 -0.2494  0.8298  0.1712
 5679SOL     OW22481   4.345   4.431   1.617 -0.1692  0.3597  0.2973
 5679SOL    HW222482   4.375   4.343   1.594 -0.7257  0.2787 -0.1044
 5679SOL    HW322483   4.250   4.423   1.625 -0.9429  1.8974 -4.4111
 5679SOL    MW422484   4.337   4.418   1.615 -0.0880 -0.0392  0.2011
 5680SOL     OW22485   5.617   5.514   1.484  0.3971  0.3415 -0.0147
 5680SOL    HW222486   5.539   5.569   1.475 -0.5173 -1.0367 -0.9046
 5680SOL    HW322487   5.606   5.469   1.567  0.3787  0.3531 -0.0107
 5680SOL    MW422488   5.606   5.515   1.494  0.0063  0.5990  0.3491
 5681SOL     OW22489   2.679   0.307   5.106 -0.2326  0.2453  0.0934
 5681SOL    HW222490   2.751   0.300   5.044  1.1778  0.0780  1.6686
 5681SOL    HW322491   2.630   0.225   5.096 -1.5085  1.1937 -2.4171
 5681SOL    MW422492   2.682   0.296   5.097 -0.2914  0.3102  0.1834
 5682SOL     OW22493   1.337   5.739   6.391 -0.0044 -0.0743 -0.3079
 5682SOL    HW222494   1.306   5.823   6.424  0.2337 -0.0296 -0.1915
 5682SOL    HW322495   1.430   5.754   6.373 -0.0329 -0.2248 -0.5773
 5682SOL    MW422496   1.346   5.752   6.393  0.1381  0.5143 -0.6210
 5683SOL     OW22497   2.966   1.051   4.703  0.6262 -0.1825  0.0362
 5683SOL    HW222498   2.951   1.085   4.791 -2.5304  0.4523 -0.6122
 5683SOL    HW322499   2.947   0.957   4.711 -0.1208 -0.0432 -0.0347
 5683SOL    MW422500   2.961   1.043   4.716 -0.2473 -0.3935 -0.9732
 5684SOL     OW22501   2.866   3.498   0.359  0.2452 -0.4334 -0.5162
 5684SOL    HW222502   2.933   3.453   0.411  1.8920  0.4019 -1.8223
 5684SOL    HW322503   2.809   3.540   0.424  2.3246  0.7077  0.6804
 5684SOL    MW422504   2.867   3.498   0.375  0.2789 -0.0326  0.5631
 5685SOL     OW22505   1.152   3.377   4.350 -0.0017 -0.4542  0.1003
 5685SOL    HW222506   1.062   3.385   4.318 -0.0437 -0.9013  0.1047
 5685SOL    HW322507   1.193   3.461   4.326 -0.5155 -0.1009  0.4263
 5685SOL    MW422508   1.145   3.389   4.343 -0.7434 -0.2391  0.2167
 5686SOL     OW22509   1.541   0.304   3.194 -0.3377 -0.6765  0.7587
 5686SOL    HW222510   1.447   0.293   3.210 -0.2286 -1.4017  0.9617
 5686SOL    HW322511   1.573   0.215   3.177  0.0104 -0.2320 -1.0360
 5686SOL    MW422512   1.533   0.291   3.194 -0.1015 -0.6527 -0.5158
 5687SOL     OW22513   1.932   2.774   2.866 -0.7974 -0.2100 -0.4915
 5687SOL    HW222514   1.849   2.793   2.822 -0.5857 -0.4900 -1.0218
 5687SOL    HW322515   1.953   2.685   2.839 -0.4227 -0.2089 -0.2019
 5687SOL    MW422516   1.924   2.765   2.857 -0.1100 -0.1008 -0.0605
 5688SOL     OW22517   5.691   3.730   0.997  0.2223  0.1295 -0.3588
 5688SOL    HW222518   5.600   3.724   1.025 -0.1215  0.2450 -1.4016
 5688SOL    HW322519   5.705   3.823   0.983 -0.0415 -0.0308 -1.8607
 5688SOL    MW422520   5.681   3.741   0.999 -0.9019 -0.3516 -0.3155
 5689SOL     OW22521   5.891   1.557   3.056 -0.0652 -0.0478  0.1316
 5689SOL    HW222522   5.958   1.537   2.991 -1.6440 -2.1073 -0.9854
 5689SOL    HW322523   5.916   1.506   3.133  1.6990  2.2430  1.2096
 5689SOL    MW422524   5.903   1.547   3.057 -0.2244 -0.3457  0.0731
 5690SOL     OW22525   3.289   3.520   4.333 -0.3465  0.4663 -0.3249
 5690SOL    HW222526   3.196   3.500   4.344 -0.2777 -0.1449 -0.7849
 5690SOL    HW322527   3.320   3.454   4.271  0.3283  0.8518 -0.4032
 5690SOL    MW422528   3.280   3.508   4.327 -0.8106  0.4788 -0.8047
 5691SOL     OW22529   0.295   4.893   5.053  0.6466 -0.0582 -0.1230
 5691SOL    HW222530   0.315   4.823   5.114 -0.3345  1.2156  1.7485
 5691SOL    HW322531   0.380   4.931   5.031  0.9495  0.3159  1.5622
 5691SOL    MW422532   0.309   4.889   5.058  0.1719 -0.4183  1.0230
 5692SOL     OW22533   2.772   1.478   5.955  0.4056 -0.2804 -0.0277
 5692SOL    HW222534   2.684   1.441   5.947  0.9661 -1.6755 -0.0013
 5692SOL    HW322535   2.767   1.564   5.912 -1.5979  0.8011  2.1391
 5692SOL    MW422536   2.760   1.485   5.948  0.6797  0.2736 -0.1113
 5693SOL     OW22537   0.540   5.555   0.185  0.3199  0.2493  0.1084
 5693SOL    HW222538   0.457   5.530   0.145  0.5516 -1.2634  0.4959
 5693SOL    HW322539   0.528   5.538   0.279  1.7437 -2.2685 -0.0634
 5693SOL    MW422540   0.528   5.549   0.192  0.2600 -0.0325 -0.0054
 5694SOL     OW22541   5.394   0.590   5.707 -0.5602  0.3386  0.5153
 5694SOL    HW222542   5.427   0.609   5.619  0.4623  0.6875  0.9570
 5694SOL    HW322543   5.329   0.658   5.723 -1.2266 -0.1147 -0.2135
 5694SOL    MW422544   5.390   0.602   5.697  0.9461 -0.2899  0.1460
 5695SOL     OW22545   5.933   0.392   0.611  0.4289  0.1753 -0.0146
 5695SOL    HW222546   5.890   0.367   0.530  4.1890  1.9922 -2.9170
 5695SOL    HW322547   5.954   0.485   0.600  2.0687  0.2251  2.5547
 5695SOL    MW422548   5.930   0.401   0.599  0.5426 -0.0688 -0.2675
 5696SOL     OW22549   3.479   1.526   0.526  0.3349  0.1553 -0.0977
 5696SOL    HW222550   3.525   1.510   0.443  0.1119 -0.8605 -0.0302
 5696SOL    HW322551   3.489   1.620   0.540  1.5746  0.1129 -0.5704
 5696SOL    MW422552   3.486   1.536   0.517 -0.2517 -0.5621  0.3524
 5697SOL     OW22553   2.253   2.600   4.395  0.2511  0.7906 -0.3466
 5697SOL    HW222554   2.337   2.554   4.386 -0.0014  0.4673 -1.1003
 5697SOL    HW322555   2.276   2.693   4.389  0.4868  0.6868 -1.1439
 5697SOL    MW422556   2.267   2.606   4.393  0.1167  0.1079 -0.2162
 5698SOL     OW22557   2.147   1.623   0.667  0.0846  0.1069  0.2641
 5698SOL    HW222558   2.179   1.588   0.584  1.8027  1.9012  0.0877
 5698SOL    HW322559   2.144   1.718   0.653 -3.4978  0.2247  0.9832
 5698SOL    MW422560   2.151   1.631   0.654  0.0511 -0.0024 -0.4678
 5699SOL     OW22561   4.514   1.859   0.247 -0.0680 -0.2560 -0.6144
 5699SOL    HW222562   4.517   1.949   0.215 -2.7851  0.2109  0.1257
 5699SOL    HW322563   4.578   1.856   0.318  1.2125  0.5936 -1.6979
 5699SOL    MW422564   4.523   1.870   0.253  0.0327 -0.7417  0.2157
 5700SOL     OW22565   3.615   0.393   5.273  0.1009  0.4525  1.0513
 5700SOL    HW222566   3.580   0.474   5.309 -0.3351  0.0638  1.5207
 5700SOL    HW322567   3.547   0.363   5.211 -0.3860 -0.2630  1.9053
 5700SOL    MW422568   3.601   0.400   5.269 -0.1301 -0.1854  0.3882
 5701SOL     OW22569   2.530   1.291   3.085  0.0788 -0.4437 -0.2565
 5701SOL    HW222570   2.504   1.208   3.125 -1.2399 -0.1356 -0.4494
 5701SOL    HW322571   2.490   1.289   2.998 -0.6520  0.7506  0.0393
 5701SOL    MW422572   2.522   1.280   3.079  0.0551 -0.1886  0.1167
 5702SOL     OW22573   3.540   0.415   5.793  0.1276  0.0102 -0.2868
 5702SOL    HW222574   3.543   0.361   5.872 -1.2849 -1.3211 -1.0853
 5702SOL    HW322575   3.447   0.429   5.777  0.4112  0.6907 -1.4427
 5702SOL    MW422576   3.528   0.410   5.801  0.8708 -1.0063  0.4465
 5703SOL     OW22577   1.509   1.291   4.927 -0.0491  0.2234 -0.2219
 5703SOL    HW222578   1.435   1.233   4.948  0.0649 -0.8623 -2.4782
 5703SOL    HW322579   1.554   1.246   4.855  0.8614  2.4749 -1.1286
 5703SOL    MW422580   1.505   1.277   4.921  0.0072 -0.1467 -0.3376
 5704SOL     OW22581   1.670   0.458   5.071 -0.1486 -0.5209  0.6636
 5704SOL    HW222582   1.685   0.368   5.043  0.8968  0.8171 -3.8351
 5704SOL    HW322583   1.758   0.494   5.083  0.0775  1.6010 -4.7486
 5704SOL    MW422584   1.683   0.451   5.069 -0.2299  0.5647  0.0078
 5705SOL     OW22585   4.097   1.063   6.072  0.2686  0.5987 -0.1551
 5705SOL    HW222586   4.113   1.158   6.073  0.6644  0.5295  0.1349
 5705SOL    HW322587   4.087   1.042   5.979  0.7760  0.8244 -0.2649
 5705SOL    MW422588   4.098   1.073   6.060 -0.5443  0.7259  0.0752
 5706SOL     OW22589   5.451   6.373   0.399 -0.6791 -0.3332 -0.4295
 5706SOL    HW222590   5.539   6.335   0.404  0.0071  1.2127 -0.2864
 5706SOL    HW322591   5.401   6.327   0.466  0.0443 -1.1411 -0.4246
 5706SOL    MW422592   5.456   6.362   0.408 -0.2501  0.5671  0.2328
 5707SOL     OW22593   4.077   5.842   5.973  0.0794 -0.2587  0.5929
 5707SOL    HW222594   3.995   5.866   6.016  0.9841  2.6489  0.8922
 5707SOL    HW322595   4.057   5.841   5.880  0.5304  5.4045  0.1215
 5707SOL    MW422596   4.064   5.845   5.967  0.1502 -0.4917  0.1767
 5708SOL     OW22597   1.513   4.552   5.065 -0.2795  0.1497 -0.3287
 5708SOL    HW222598   1.534   4.474   5.012 -0.5939  0.7140 -1.3096
 5708SOL    HW322599   1.561   4.538   5.147  0.2884 -0.7166 -0.7829
 5708SOL    MW422600   1.522   4.540   5.069 -0.7127 -0.3563  0.4112
 5709SOL     OW22601   5.250   0.729   0.794 -0.1659 -0.1153  0.1661
 5709SOL    HW222602   5.314   0.781   0.844 -1.3307 -1.0212  2.8071
 5709SOL    HW322603   5.187   0.793   0.762 -1.2225  0.3421  2.8276
 5709SOL    MW422604   5.250   0.744   0.797  0.4072 -0.1148 -0.3676
 5710SOL     OW22605   5.289   1.481   3.316  1.1608  0.1123  1.0676
 5710SOL    HW222606   5.279   1.413   3.250  0.6230 -1.3259  2.5666
 5710SOL    HW322607   5.326   1.436   3.392  1.0817  1.5522  2.0046
 5710SOL    MW422608   5.293   1.466   3.318  0.2694  0.7157  1.1317
 5711SOL     OW22609   0.883   6.172   0.454  0.4363 -0.0563 -0.2742
 5711SOL    HW222610   0.891   6.219   0.371 -0.9942  0.5570 -0.1070
 5711SOL    HW322611   0.973   6.148   0.477  1.2051  2.1522 -0.6481
 5711SOL    MW422612   0.896   6.175   0.446  0.3212  0.1347 -0.5381
 5712SOL     OW22613   1.355   1.645   0.665  0.6086  0.2465 -0.2850
 5712SOL    HW222614   1.401   1.647   0.749  0.5574 -0.9685 -0.2150
 5712SOL    HW322615   1.371   1.731   0.627  1.0731  0.6232  0.7353
 5712SOL    MW422616   1.363   1.657   0.671 -0.4683 -0.2445  0.2755
 5713SOL     OW22617   0.814   4.597   3.414  0.4316 -0.5741  0.1666
 5713SOL    HW222618   0.762   4.639   3.483  0.0636  2.3729 -1.6962
 5713SOL    HW322619   0.892   4.564   3.459 -0.5509 -0.2543  2.2216
 5713SOL    MW422620   0.817   4.598   3.429  0.5261  0.1035  0.0871
 5714SOL     OW22621   5.748   6.369   4.318 -0.2007  0.6105 -0.2532
 5714SOL    HW222622   5.731   6.396   4.228 -1.1974 -0.3763 -0.3840
 5714SOL    HW322623   5.844   6.373   4.326 -0.0707  0.4038 -1.4600
 5714SOL    MW422624   5.759   6.373   4.307  0.3943  0.6481  1.0016
 5715SOL     OW22625   0.623   1.084   3.658 -0.3591  0.5210 -0.1167
 5715SOL    HW222626   0.569   1.052   3.585  0.1908  0.7150 -0.6106
 5715SOL    HW322627   0.700   1.027   3.657 -0.4075  0.4457  0.3929
 5715SOL    MW422628   0.626   1.072   3.648 -0.3605  0.1860 -0.7707
 5716SOL     OW22629   3.520   6.287   3.785 -0.3716  0.5490 -0.2788
 5716SOL    HW222630   3.504   6.342   3.862 -0.9543 -0.3528  0.2778
 5716SOL    HW322631   3.587   6.224   3.814 -0.1279  0.5989 -0.7195
 5716SOL    MW422632   3.527   6.286   3.799  0.1130 -0.2333  0.9526
 5717SOL     OW22633   1.445   3.674   6.164 -0.3330  0.0397  0.1591
 5717SOL    HW222634   1.445   3.661   6.259 -1.2230  0.8094  0.2841
 5717SOL    HW322635   1.533   3.650   6.136 -0.0727 -0.2295  1.1760
 5717SOL    MW422636   1.457   3.669   6.173 -0.4223  0.0894  0.4526
 5718SOL     OW22637   4.592   1.614   3.879  0.3425  0.9594 -1.0300
 5718SOL    HW222638   4.518   1.652   3.833  1.2138  1.8743 -1.7411
 5718SOL    HW322639   4.618   1.682   3.942  0.1557  0.3670 -0.2991
 5718SOL    MW422640   4.586   1.628   3.881 -0.0292 -0.4394 -0.0943
 5719SOL     OW22641   4.454   5.822   2.536 -0.0328 -0.0636  0.0555
 5719SOL    HW222642   4.380   5.826   2.475 -0.6137 -1.0625  0.6766
 5719SOL    HW322643   4.437   5.894   2.598 -0.4413 -0.2396  0.1502
 5719SOL    MW422644   4.442   5.832   2.536 -0.5089  0.2419  0.3038
 5720SOL     OW22645   5.243   0.249   4.410 -0.2711  0.0466  0.3988
 5720SOL    HW222646   5.183   0.300   4.356 -1.5162 -2.2631 -0.5474
 5720SOL    HW322647   5.249   0.298   4.492 -1.1730  1.7933 -0.5191
 5720SOL    MW422648   5.236   0.262   4.414 -0.2169 -0.0404  0.1274
 5721SOL     OW22649   5.705   5.488   0.797 -0.5072 -0.4052  0.5112
 5721SOL    HW222650   5.643   5.502   0.868 -0.7985 -2.0765  0.6146
 5721SOL    HW322651   5.703   5.394   0.781  0.9596 -0.3067 -0.4388
 5721SOL    MW422652   5.697   5.477   0.804  0.5122 -0.4392 -0.5825
 5722SOL     OW22653   3.597   1.660   0.105 -0.3111 -0.1584  0.4070
 5722SOL    HW222654   3.540   1.726   0.146 -1.1771 -0.1417 -0.7450
 5722SOL    HW322655   3.539   1.587   0.087  0.1920 -0.4225 -0.1664
 5722SOL    MW422656   3.582   1.659   0.108  0.0537 -0.4482 -0.6679
 5723SOL     OW22657   1.273   3.726   3.839 -0.5421 -0.5555  0.1995
 5723SOL    HW222658   1.360   3.712   3.876  0.3433 -1.1801 -1.9833
 5723SOL    HW322659   1.228   3.781   3.904  1.9520  0.9776  0.7690
 5723SOL    MW422660   1.278   3.732   3.852 -0.5737  0.2767  0.0335
 5724SOL     OW22661   2.785   1.986   3.641  0.0889  0.1046  0.4553
 5724SOL    HW222662   2.814   2.055   3.582 -1.7344  0.7658  0.2628
 5724SOL    HW322663   2.850   1.985   3.711  1.6546  0.0878 -0.9369
 5724SOL    MW422664   2.798   1.995   3.642 -0.3756 -0.3342  0.3407
 5725SOL     OW22665   4.177   1.264   6.301 -0.1892  0.4762 -0.3129
 5725SOL    HW222666   4.129   1.295   6.224 -0.2009  2.2564  0.3653
 5725SOL    HW322667   4.241   1.202   6.266 -0.9088  0.4248 -1.6059
 5725SOL    MW422668   4.179   1.260   6.286  0.2362 -0.1538 -0.3482
 5726SOL     OW22669   1.235   0.747   3.402 -0.0297  0.0392  0.4524
 5726SOL    HW222670   1.171   0.695   3.354 -1.6302  1.8699  0.4700
 5726SOL    HW322671   1.288   0.788   3.334  0.6419 -0.8728  0.4136
 5726SOL    MW422672   1.233   0.745   3.387 -0.6193  0.0423  0.6871
 5727SOL     OW22673   1.957   2.473   3.608 -0.3193  0.1236 -0.2083
 5727SOL    HW222674   1.866   2.448   3.590 -0.3743  0.7389 -0.8284
 5727SOL    HW322675   2.007   2.433   3.536 -0.5308  2.5719 -1.8372
 5727SOL    MW422676   1.952   2.464   3.596 -0.6084  0.0063 -0.6418
 5728SOL     OW22677   3.920   0.391   3.377  0.0181 -0.5323 -0.1599
 5728SOL    HW222678   3.987   0.389   3.445  1.7001 -0.0648 -1.7300
 5728SOL    HW322679   3.847   0.341   3.414  1.6481 -2.0600  1.1693
 5728SOL    MW422680   3.919   0.384   3.391 -1.0721  0.1635  0.1024
 5729SOL     OW22681   5.708   0.271   1.611  0.1680  0.2950  0.2807
 5729SOL    HW222682   5.630   0.325   1.618 -0.2855 -0.3413  0.2561
 5729SOL    HW322683   5.679   0.184   1.640  0.2340 -0.5587 -2.0683
 5729SOL    MW422684   5.694   0.266   1.616  0.0484  0.0677  0.8355
 5730SOL     OW22685   4.502   2.949   5.584 -0.3935  0.1153 -0.2122
 5730SOL    HW222686   4.502   2.879   5.649 -0.4867 -1.1900 -1.5542
 5730SOL    HW322687   4.577   2.929   5.528  0.8288  2.2725  0.5388
 5730SOL    MW422688   4.512   2.938   5.585 -0.2492 -0.4912  0.6795
 5731SOL     OW22689   4.177   2.059   2.119  0.2062 -0.2649 -0.4882
 5731SOL    HW222690   4.112   2.023   2.179  0.7439 -0.6963 -0.1595
 5731SOL    HW322691   4.142   2.145   2.096 -0.4427 -0.4578 -0.2571
 5731SOL    MW422692   4.163   2.066   2.124  0.2457  0.1072 -0.3877
 5732SOL     OW22693   5.021   5.761   0.358 -0.0488  0.8322  0.1877
 5732SOL    HW222694   4.990   5.740   0.446  0.8916 -0.9121  0.1654
 5732SOL    HW322695   5.043   5.854   0.361 -0.0377  0.8067  1.7981
 5732SOL    MW422696   5.020   5.770   0.370  0.0499 -0.1628 -0.3909
 5733SOL     OW22697   4.333   5.718   5.334  0.3022  0.2354 -0.4340
 5733SOL    HW222698   4.422   5.705   5.366 -0.2554  1.1031  1.6897
 5733SOL    HW322699   4.332   5.807   5.300  0.4884 -0.1473 -1.4874
 5733SOL    MW422700   4.344   5.728   5.334  0.7787 -0.0721 -0.0355
 5734SOL     OW22701   2.349   3.787   5.880  0.0033 -0.6039  0.6423
 5734SOL    HW222702   2.427   3.732   5.871  0.6291  0.3520  0.1907
 5734SOL    HW322703   2.305   3.752   5.958  0.0781 -2.1150  0.0510
 5734SOL    MW422704   2.353   3.775   5.889 -0.5038  0.2059 -0.3613
 5735SOL     OW22705   0.299   4.425   0.077 -0.5197 -0.0337 -0.0940
 5735SOL    HW222706   0.334   4.368   0.009  1.9459  0.6407  0.5148
 5735SOL    HW322707   0.251   4.493   0.030 -1.1052 -1.0159 -0.9668
 5735SOL    MW422708   0.297   4.427   0.062 -0.1813  0.4143  0.4247
 5736SOL     OW22709   1.291   1.947   2.022  0.2027 -0.0515 -0.0794
 5736SOL    HW222710   1.314   2.037   2.048  1.1488 -0.0376 -0.9401
 5736SOL    HW322711   1.374   1.906   2.001 -0.2575 -1.0527  0.0124
 5736SOL    MW422712   1.305   1.954   2.023 -0.2647 -0.1931  0.2773
 5737SOL     OW22713   1.611   4.174   1.955 -0.6049 -0.2766 -0.2896
 5737SOL    HW222714   1.640   4.244   2.013 -0.8857 -0.8202  0.5198
 5737SOL    HW322715   1.671   4.178   1.880  0.6168 -0.4272  0.6579
 5737SOL    MW422716   1.622   4.183   1.953  0.6095 -0.1049 -0.0604
 5738SOL     OW22717   5.608   0.664   2.497  0.3554 -0.6355  0.4445
 5738SOL    HW222718   5.655   0.590   2.534  0.4402  0.2493  2.2293
 5738SOL    HW322719   5.653   0.683   2.415  2.5185 -0.4485  1.6007
 5738SOL    MW422720   5.620   0.657   2.491 -0.3318  0.6982 -0.1839
 5739SOL     OW22721   4.138   1.315   0.821  0.9921  0.0992  0.3563
 5739SOL    HW222722   4.095   1.323   0.736 -1.2934 -0.9747  1.3401
 5739SOL    HW322723   4.212   1.257   0.805  1.4596  1.0324 -1.1455
 5739SOL    MW422724   4.142   1.308   0.807  0.3996 -0.4676 -0.1085
 5740SOL     OW22725   0.127   4.718   4.826 -0.2806 -0.2925  0.3979
 5740SOL    HW222726   0.121   4.783   4.896 -2.8262  0.6510 -0.6080
 5740SOL    HW322727   0.181   4.761   4.759 -0.3364  0.0117  0.5442
 5740SOL    MW422728   0.134   4.732   4.826  0.2592  0.1630  0.7134
 5741SOL     OW22729   0.785   3.137   2.527  0.1761  0.4371 -0.6305
 5741SOL    HW222730   0.845   3.131   2.601  0.6194  1.1613 -0.9187
 5741SOL    HW322731   0.713   3.191   2.559 -0.4347 -0.5862 -0.2246
 5741SOL    MW422732   0.784   3.143   2.541 -0.2153 -0.0302  0.1688
 5742SOL     OW22733   2.826   1.565   4.437 -0.1441  0.3922 -0.2557
 5742SOL    HW222734   2.769   1.608   4.501  1.1467  0.6220  0.7934
 5742SOL    HW322735   2.857   1.486   4.483 -0.3131 -0.1972 -1.1317
 5742SOL    MW422736   2.823   1.560   4.452  0.0930  0.5054  0.3363
 5743SOL     OW22737   1.865   4.895   4.554  0.3401 -0.3224 -0.0089
 5743SOL    HW222738   1.948   4.908   4.508  0.4102  0.1100  0.2373
 5743SOL    HW322739   1.798   4.908   4.487  0.4432  0.2632 -0.0045
 5743SOL    MW422740   1.867   4.899   4.539  0.0660  0.1731  0.4777
 5744SOL     OW22741   2.969   3.878   1.722  0.5540  0.4874 -0.2744
 5744SOL    HW222742   3.021   3.951   1.757 -0.2503  1.5054 -1.1458
 5744SOL    HW322743   3.034   3.812   1.698  1.2246  0.3451  1.7228
 5744SOL    MW422744   2.985   3.879   1.724 -0.1314  0.5359 -0.4758
 5745SOL     OW22745   2.295   5.318   1.850  0.3238 -0.2267 -0.0148
 5745SOL    HW222746   2.345   5.339   1.929  0.6688  0.1304 -0.3201
 5745SOL    HW322747   2.205   5.309   1.879  0.7232 -2.1938  0.7834
 5745SOL    MW422748   2.290   5.319   1.864  0.4069  0.1047 -0.7506
 5746SOL     OW22749   3.018   2.006   3.808 -0.4862 -0.1766  0.3696
 5746SOL    HW222750   3.034   1.917   3.778 -0.9816  0.1072 -0.7785
 5746SOL    HW322751   2.983   1.995   3.897 -0.3737 -1.1167  0.3038
 5746SOL    MW422752   3.015   1.993   3.816  0.3731 -0.1788  0.1631
 5747SOL     OW22753   5.186   0.821   4.352  0.3712  0.5229 -0.6924
 5747SOL    HW222754   5.246   0.766   4.403  0.7614  2.0103  0.5320
 5747SOL    HW322755   5.166   0.894   4.410 -1.2417  0.9628 -1.7509
 5747SOL    MW422756   5.191   0.824   4.366 -1.1896  0.0127 -0.4337
 5748SOL     OW22757   5.153   4.549   0.923 -0.1579  0.0120 -0.0041
 5748SOL    HW222758   5.117   4.624   0.970 -1.7292 -1.1096  0.6712
 5748SOL    HW322759   5.208   4.588   0.855  0.5907  1.7243  1.4852
 5748SOL    MW422760   5.155   4.564   0.921 -0.5559 -0.2551 -0.7232
 5749SOL     OW22761   4.967   0.427   0.342  0.4146 -0.3364 -0.5896
 5749SOL    HW222762   5.045   0.377   0.369  1.4768  0.9820 -1.1130
 5749SOL    HW322763   4.924   0.370   0.278 -0.0517 -1.8392  0.9572
 5749SOL    MW422764   4.972   0.413   0.337 -0.4717  0.3162  0.3385
 5750SOL     OW22765   0.773   0.933   0.110  0.1336  0.2386  0.4629
 5750SOL    HW222766   0.862   0.898   0.103 -0.6122 -1.6456 -0.2002
 5750SOL    HW322767   0.782   1.010   0.166  2.4887  1.2583 -1.1415
 5750SOL    MW422768   0.786   0.939   0.116  0.1195  0.2112 -0.0451
 5751SOL     OW22769   2.701   5.087   0.715  0.1016  0.6267  0.3017
 5751SOL    HW222770   2.664   5.094   0.803  1.3242 -2.1240  1.1205
 5751SOL    HW322771   2.637   5.131   0.659 -0.6514  2.5771  2.5249
 5751SOL    MW422772   2.687   5.094   0.720  0.1444 -0.0699  0.1252
 5752SOL     OW22773   6.221   1.919   5.829  0.0560  0.1296 -0.0226
 5752SOL    HW222774   6.137   1.914   5.784  0.2140 -0.5710 -0.2510
 5752SOL    HW322775   6.265   1.994   5.790  0.2447 -0.5488 -1.1351
 5752SOL    MW422776   6.216   1.929   5.818 -0.6051  0.1092 -0.2763
 5753SOL     OW22777   6.232   1.420   4.855  0.0860  0.2541 -0.0546
 5753SOL    HW222778   6.210   1.514   4.856  0.6802  0.3896  0.4277
 5753SOL    HW322779   6.215   1.393   4.765 -1.3259  0.5224  0.0983
 5753SOL    MW422780   6.227   1.429   4.843  0.0490  0.0233  0.0619
 5754SOL     OW22781   4.769   3.115   3.012  0.6573  0.0479  0.3862
 5754SOL    HW222782   4.752   3.091   2.921 -0.9568  0.5813  0.5077
 5754SOL    HW322783   4.701   3.069   3.061  0.3669  1.2153  1.1056
 5754SOL    MW422784   4.758   3.106   3.006  0.3548  0.3980 -0.6933
 5755SOL     OW22785   2.665   5.193   1.596 -0.3034 -0.4711 -0.0362
 5755SOL    HW222786   2.579   5.152   1.587 -1.5394  2.2832 -2.6491
 5755SOL    HW322787   2.723   5.141   1.541 -1.5162  0.3322 -2.2081
 5755SOL    MW422788   2.661   5.181   1.588 -0.3557  0.4253  0.0389
 5756SOL     OW22789   4.233   3.519   2.906  0.6044  0.2892  0.1008
 5756SOL    HW222790   4.318   3.556   2.929  1.5627 -1.0888 -0.9995
 5756SOL    HW322791   4.209   3.466   2.982  1.4839 -0.4957 -0.1350
 5756SOL    MW422792   4.241   3.517   2.919  0.4281 -0.0633 -0.5735
 5757SOL     OW22793   0.770   5.544   5.426  0.2800 -0.2708  0.0252
 5757SOL    HW222794   0.786   5.559   5.520  0.5174  0.9997 -0.2095
 5757SOL    HW322795   0.694   5.486   5.424  0.4941 -0.6132  1.0038
 5757SOL    MW422796   0.762   5.538   5.438  0.7929  0.2155 -0.1620
 5758SOL     OW22797   2.882   2.918   1.657  0.1394  0.8741 -0.0341
 5758SOL    HW222798   2.932   2.861   1.716  0.5249 -1.7041 -2.6306
 5758SOL    HW322799   2.793   2.916   1.691  0.7820  1.5008  1.8057
 5758SOL    MW422800   2.877   2.910   1.669  0.0243  0.1421 -0.1350
 5759SOL     OW22801   1.784   1.861   5.111  0.7474  0.1145  0.4806
 5759SOL    HW222802   1.783   1.956   5.095  0.7434 -0.1267 -1.1374
 5759SOL    HW322803   1.838   1.826   5.040  0.5454 -1.1363  0.9222
 5759SOL    MW422804   1.791   1.869   5.100 -0.0596  0.3949 -0.1607
 5760SOL     OW22805   1.943   5.455   1.446 -0.3834 -0.5275 -0.2122
 5760SOL    HW222806   1.896   5.389   1.497 -1.6533  0.2194 -0.3798
 5760SOL    HW322807   1.876   5.518   1.420  0.6832  0.4741 -0.6335
 5760SOL    MW422808   1.928   5.454   1.449  0.0453 -1.1131 -0.5024
 5761SOL     OW22809   3.688   4.173   1.306 -0.4533 -0.3692  0.7318
 5761SOL    HW222810   3.618   4.208   1.363 -3.0022 -0.0430 -2.3292
 5761SOL    HW322811   3.707   4.087   1.343 -2.2981 -0.3609  1.8744
 5761SOL    MW422812   3.681   4.167   1.319  0.0505 -0.0039  0.0006
 5762SOL     OW22813   3.991   3.462   1.793  0.3540  0.9631  0.2160
 5762SOL    HW222814   4.049   3.536   1.776  0.0963  0.8514 -1.3100
 5762SOL    HW322815   4.040   3.386   1.764 -1.0376  1.0051 -2.5203
 5762SOL    MW422816   4.005   3.462   1.787  0.5704  0.1036 -0.0785
 5763SOL     OW22817   0.532   4.926   2.666  0.3660  0.6760  0.3109
 5763SOL    HW222818   0.542   4.987   2.593 -0.6618 -0.7775 -1.1196
 5763SOL    HW322819   0.460   4.963   2.718 -0.2309  0.6964 -0.5187
 5763SOL    MW422820   0.524   4.939   2.664  0.5004  0.0938 -0.1365
 5764SOL     OW22821   6.420   2.614   1.909 -0.2595 -0.0431  0.6959
 5764SOL    HW222822   6.396   2.659   1.990  0.2118  1.5752 -0.0231
 5764SOL    HW322823   6.500   2.565   1.931 -0.4618 -0.0854  1.3507
 5764SOL    MW422824   6.428   2.614   1.922  0.4288  0.1184  0.1139
 5765SOL     OW22825   4.795   6.149   2.168 -0.1878  0.2109  0.0810
 5765SOL    HW222826   4.752   6.194   2.095  2.2170  1.5667 -0.6274
 5765SOL    HW322827   4.834   6.220   2.219  1.5443 -0.9243  0.4166
 5765SOL    MW422828   4.795   6.165   2.165 -0.8400 -0.3711  1.1011
 5766SOL     OW22829   4.629   1.326   3.287  0.2197 -0.3516  0.0053
 5766SOL    HW222830   4.582   1.388   3.343  1.7507  0.8660  0.0165
 5766SOL    HW322831   4.632   1.245   3.338 -1.0246 -0.1888  0.3776
 5766SOL    MW422832   4.623   1.324   3.301 -0.2779  0.2133 -0.2714
 5767SOL     OW22833   5.481   6.110   1.853  0.2031 -0.0379  0.3568
 5767SOL    HW222834   5.544   6.038   1.840  0.9572 -0.0432  3.2657
 5767SOL    HW322835   5.421   6.076   1.919 -0.6378  1.3066  0.3025
 5767SOL    MW422836   5.482   6.096   1.860  0.3782  0.3020  0.6771
 5768SOL     OW22837   6.065   2.748   4.805  0.4761  0.1696 -0.3066
 5768SOL    HW222838   6.129   2.688   4.768 -0.4041 -1.5922  0.9158
 5768SOL    HW322839   6.112   2.831   4.813  1.7981 -0.3782 -1.8007
 5768SOL    MW422840   6.079   2.751   4.801 -0.0019 -0.5514  0.4579
 5769SOL     OW22841   4.738   5.894   0.480 -0.1678  0.2546 -0.1575
 5769SOL    HW222842   4.676   5.821   0.481 -1.4475  1.2125  2.6313
 5769SOL    HW322843   4.695   5.961   0.428  0.4891 -0.5122 -1.7493
 5769SOL    MW422844   4.724   5.893   0.474 -0.4202  0.1254  0.5726
 5770SOL     OW22845   1.495   5.637   4.297  0.0838 -0.5157 -0.1350
 5770SOL    HW222846   1.408   5.672   4.318  0.0339 -0.8491  0.2315
 5770SOL    HW322847   1.477   5.552   4.258  0.2725 -0.9143  0.6376
 5770SOL    MW422848   1.481   5.631   4.295  0.4150  0.3294  0.0345
 5771SOL     OW22849   0.568   1.927   5.863  0.5364  0.1853 -0.0066
 5771SOL    HW222850   0.605   1.840   5.852 -1.8417 -1.0892  1.3387
 5771SOL    HW322851   0.618   1.966   5.935  1.3018 -0.2395 -0.3044
 5771SOL    MW422852   0.580   1.921   5.871  0.5913 -0.3351 -0.4697
 5772SOL     OW22853   3.550   2.936   1.058 -0.4802 -0.0987 -0.1277
 5772SOL    HW222854   3.541   3.030   1.073  0.6019  0.0145 -0.1110
 5772SOL    HW322855   3.643   2.923   1.042 -0.5871 -1.1997  0.0521
 5772SOL    MW422856   3.561   2.947   1.058 -0.3533 -0.7777 -0.1699
 5773SOL     OW22857   3.659   5.977   4.217  0.1724 -0.3776  0.3674
 5773SOL    HW222858   3.572   5.947   4.245  0.9398 -0.4866  2.7913
 5773SOL    HW322859   3.663   6.068   4.246  0.2666  0.1844 -1.2940
 5773SOL    MW422860   3.648   5.985   4.224  0.3566  0.3899  0.2067
 5774SOL     OW22861   6.406   0.609   2.124  1.0995 -0.1185 -0.4314
 5774SOL    HW222862   6.311   0.603   2.127  0.9036  1.7578 -1.2078
 5774SOL    HW322863   6.432   0.631   2.214  0.5600  1.6050 -0.6710
 5774SOL    MW422864   6.397   0.611   2.137  0.1138  0.1020 -0.1055
 5775SOL     OW22865   4.323   4.064   1.883 -0.4473  1.2320 -0.5915
 5775SOL    HW222866   4.254   4.128   1.899 -0.7471  0.9601 -0.7725
 5775SOL    HW322867   4.295   3.985   1.930  1.1812  1.9936  1.8198
 5775SOL    MW422868   4.310   4.062   1.891  0.5862 -0.4230 -0.5723
 5776SOL     OW22869   1.637   5.210   2.667 -0.4525  0.1383 -0.2214
 5776SOL    HW222870   1.654   5.207   2.761 -1.8245 -0.2121  0.0399
 5776SOL    HW322871   1.699   5.146   2.630 -0.5942 -0.4672  0.5594
 5776SOL    MW422872   1.648   5.201   2.675 -0.0771  0.5388 -0.1233
 5777SOL     OW22873   5.477   4.077   1.651  0.1727  0.1727  0.1983
 5777SOL    HW222874   5.422   4.017   1.602  0.7906 -0.1010 -0.1714
 5777SOL    HW322875   5.531   4.021   1.706  0.9090  0.3720 -0.3097
 5777SOL    MW422876   5.477   4.062   1.652  0.0932  0.3912  0.2501
 5778SOL     OW22877   4.786   1.780   0.169 -0.3597  0.1322 -0.1172
 5778SOL    HW222878   4.697   1.762   0.139 -0.1757 -1.5025  0.1990
 5778SOL    HW322879   4.829   1.821   0.094 -1.1732  0.2790 -0.5094
 5778SOL    MW422880   4.780   1.783   0.155  0.0984  0.1678 -0.1413
 5779SOL     OW22881   0.932   6.240   3.954  0.2013  0.2394  0.0131
 5779SOL    HW222882   0.858   6.276   3.906  1.8401  1.4851 -1.7529
 5779SOL    HW322883   1.009   6.279   3.912  2.0227 -3.0943 -0.1645
 5779SOL    MW422884   0.933   6.250   3.942  0.2721  0.2004  0.5747
 5780SOL     OW22885   1.272   2.482   1.024 -0.1364 -0.8277 -0.4473
 5780SOL    HW222886   1.337   2.533   1.072 -1.6058  0.7528 -0.0384
 5780SOL    HW322887   1.246   2.413   1.085 -1.2602  0.5691  0.7306
 5780SOL    MW422888   1.277   2.479   1.038 -0.2504 -0.0813 -0.2162
 5781SOL     OW22889   1.905   0.273   3.093 -0.5919  0.1348 -0.3809
 5781SOL    HW222890   1.827   0.220   3.076 -1.1202  0.9150 -0.4294
 5781SOL    HW322891   1.920   0.321   3.011 -0.9455  1.0998  0.1002
 5781SOL    MW422892   1.896   0.272   3.080  0.3115  0.0068  0.4719
 5782SOL     OW22893   4.464   5.608   1.773 -0.2332 -0.1235 -0.3547
 5782SOL    HW222894   4.549   5.575   1.745  0.0290 -0.7890  1.1724
 5782SOL    HW322895   4.434   5.661   1.698  1.2069 -0.4019 -1.1751
 5782SOL    MW422896   4.471   5.611   1.759  0.6791 -0.4845 -0.2050
 5783SOL     OW22897   3.896   4.965   0.723  0.0475  0.2854  0.1337
 5783SOL    HW222898   3.903   4.935   0.814 -1.0184  0.4719  0.2921
 5783SOL    HW322899   3.985   4.992   0.700  0.7055 -1.4204  0.5238
 5783SOL    MW422900   3.909   4.965   0.732  0.1455 -0.5315 -0.3532
 5784SOL     OW22901   6.459   5.481   2.592  0.1513  0.0330  0.1093
 5784SOL    HW222902   6.445   5.408   2.653 -0.8387 -0.2605 -0.4530
 5784SOL    HW322903   6.440   5.559   2.644 -1.3178 -0.2443  0.0283
 5784SOL    MW422904   6.455   5.482   2.607  0.2442 -0.2936 -0.5892
 5785SOL     OW22905   4.490   4.847   1.078 -0.3773 -0.4400  0.2853
 5785SOL    HW222906   4.546   4.874   1.151  0.3685  0.7504 -0.6882
 5785SOL    HW322907   4.417   4.802   1.119 -0.8136  1.6055  1.9180
 5785SOL    MW422908   4.488   4.845   1.093  0.5444 -0.0142  0.3322
 5786SOL     OW22909   3.502   4.579   2.226  0.3621 -0.4694 -0.0890
 5786SOL    HW222910   3.586   4.563   2.183 -0.3670 -0.8226 -1.3993
 5786SOL    HW322911   3.498   4.674   2.235  0.4319 -0.3800 -0.9834
 5786SOL    MW422912   3.513   4.590   2.222  0.2987 -0.7100  0.3476
 5787SOL     OW22913   2.917   3.083   3.930 -0.2297 -0.0917 -0.0464
 5787SOL    HW222914   2.981   3.148   3.898 -0.6939  0.2747 -0.2387
 5787SOL    HW322915   2.855   3.134   3.981 -1.3497 -0.1613 -1.2877
 5787SOL    MW422916   2.918   3.099   3.932 -0.2608  0.4311 -0.4417
 5788SOL     OW22917   0.369   0.702   5.728 -0.0976  0.4138 -0.4431
 5788SOL    HW222918   0.320   0.747   5.660 -0.6915  0.4456 -0.0027
 5788SOL    HW322919   0.456   0.689   5.691  0.8557  3.8821  0.1685
 5788SOL    MW422920   0.374   0.706   5.714  0.0360 -0.6498  0.3260
 5789SOL     OW22921   0.954   4.997   6.317 -0.1809 -0.0995  0.3530
 5789SOL    HW222922   0.965   5.045   6.235 -0.6923 -2.4301 -1.1457
 5789SOL    HW322923   1.042   4.994   6.355 -0.1093  1.8586  0.4718
 5789SOL    MW422924   0.968   5.003   6.311  0.2022  0.2872 -0.4363
 5790SOL     OW22925   1.948   3.855   4.880 -0.0260  0.7107  0.2876
 5790SOL    HW222926   1.935   3.949   4.894 -0.5284  0.7013 -0.0827
 5790SOL    HW322927   2.021   3.832   4.938 -0.4113  1.1725  0.9726
 5790SOL    MW422928   1.956   3.865   4.890 -0.4316 -0.0654 -0.4761
 5791SOL     OW22929   4.842   3.763   3.646  0.6434  0.2357  0.0439
 5791SOL    HW222930   4.906   3.760   3.575  1.6910 -0.4121  0.9691
 5791SOL    HW322931   4.848   3.852   3.680  2.0915 -0.1841  0.9914
 5791SOL    MW422932   4.851   3.774   3.641 -0.2225 -0.0584  0.1766
 5792SOL     OW22933   5.630   2.885   3.875  0.7949 -0.0576 -0.2311
 5792SOL    HW222934   5.650   2.966   3.828  2.4604  1.4031  2.7082
 5792SOL    HW322935   5.534   2.880   3.874  0.7242  0.5785 -2.5055
 5792SOL    MW422936   5.620   2.895   3.869  0.0643 -0.3181  0.0832
 5793SOL     OW22937   6.076   4.219   1.132  0.0219 -0.6022 -0.5241
 5793SOL    HW222938   6.119   4.294   1.174 -0.7101 -1.2712  1.5113
 5793SOL    HW322939   6.147   4.158   1.114  0.6314  0.5365 -2.2295
 5793SOL    MW422940   6.091   4.221   1.135 -0.4976  0.1803 -0.2304
 5794SOL     OW22941   5.958   3.443   0.906  0.2288 -0.2589 -0.6008
 5794SOL    HW222942   6.005   3.524   0.890  0.0555  0.1282  0.7022
 5794SOL    HW322943   5.924   3.452   0.995 -0.9093 -1.2113 -0.9080
 5794SOL    MW422944   5.960   3.455   0.916 -0.2104 -0.0870  0.0098
 5795SOL     OW22945   4.487   4.342   4.726  0.3556 -0.7833  0.6199
 5795SOL    HW222946   4.549   4.410   4.700 -0.0718 -0.2275  1.0391
 5795SOL    HW322947   4.538   4.284   4.783  0.3254  0.0438  1.5146
 5795SOL    MW422948   4.502   4.343   4.730  0.1481  0.4371  0.0812
 5796SOL     OW22949   1.205   3.745   3.022  0.2704  0.1788  0.4670
 5796SOL    HW222950   1.158   3.670   2.988  0.1357  0.6687 -0.4605
 5796SOL    HW322951   1.289   3.710   3.051 -0.7336 -0.7602  2.4472
 5796SOL    MW422952   1.210   3.731   3.021 -0.7483 -0.1332  0.4349
 5797SOL     OW22953   5.165   4.264   5.796 -0.7120  0.6082 -0.1009
 5797SOL    HW222954   5.230   4.331   5.818 -0.1152  0.4075 -1.1781
 5797SOL    HW322955   5.161   4.208   5.874  1.5396 -0.2645 -0.5362
 5797SOL    MW422956   5.173   4.266   5.809  0.2126  0.3801 -0.0540
 5798SOL     OW22957   0.391   1.147   1.620  0.5849  0.4350  0.8366
 5798SOL    HW222958   0.317   1.207   1.630 -0.3657 -0.9488  3.0893
 5798SOL    HW322959   0.467   1.197   1.650 -0.0706  0.7901  1.9943
 5798SOL    MW422960   0.391   1.161   1.625 -0.4963 -0.2375  0.2632
 5799SOL     OW22961   1.792   1.318   5.602  0.1754 -0.6030  0.0865
 5799SOL    HW222962   1.772   1.299   5.510  0.7642 -0.4204 -0.0878
 5799SOL    HW322963   1.712   1.357   5.637  0.4462  0.8164 -0.7864
 5799SOL    MW422964   1.779   1.321   5.594  0.5221 -0.0312 -0.5303
 5800SOL     OW22965   4.211   3.946   3.284 -0.3311  0.9165 -0.1948
 5800SOL    HW222966   4.225   3.990   3.201 -2.4825  1.2725 -0.4105
 5800SOL    HW322967   4.180   4.015   3.343  0.7225  0.5793  0.8048
 5800SOL    MW422968   4.209   3.961   3.281 -0.3517 -0.1297  0.4429
 5801SOL     OW22969   2.920   1.167   0.091 -0.0667  0.0361  0.5256
 5801SOL    HW222970   2.980   1.104   0.052  0.5128  1.0889 -0.3643
 5801SOL    HW322971   2.844   1.116   0.116  0.6765 -1.1195  0.4919
 5801SOL    MW422972   2.918   1.152   0.089  0.6799 -0.0619  0.4348
 5802SOL     OW22973   1.004   3.150   3.306 -0.3967  0.3713  0.0545
 5802SOL    HW222974   1.020   3.208   3.380 -0.5497 -2.4753  2.5005
 5802SOL    HW322975   0.908   3.141   3.302 -0.3375 -0.4025  0.2871
 5802SOL    MW422976   0.993   3.157   3.315 -0.0157 -0.2590 -0.0168
 5803SOL     OW22977   0.718   5.077   1.695  0.0693 -0.4384  0.0353
 5803SOL    HW222978   0.674   4.992   1.691 -1.4089  0.2387  1.1378
 5803SOL    HW322979   0.716   5.109   1.605 -1.5447 -0.5334  0.0000
 5803SOL    MW422980   0.712   5.070   1.683 -0.4494 -0.4160  0.3945
 5804SOL     OW22981   0.724   0.120   0.996  0.3519 -0.1184 -0.1554
 5804SOL    HW222982   0.691   0.161   1.076 -0.4951  0.0921 -0.6009
 5804SOL    HW322983   0.818   0.133   1.000  0.3039  0.0380  0.7267
 5804SOL    MW422984   0.732   0.127   1.007 -0.1900  0.4887  0.2693
 5805SOL     OW22985   4.682   3.684   5.983  0.5196  0.0108 -0.5289
 5805SOL    HW222986   4.637   3.767   5.967  1.2948  0.3977 -0.7409
 5805SOL    HW322987   4.745   3.704   6.052 -0.3730 -0.7921  0.5507
 5805SOL    MW422988   4.684   3.698   5.990  0.7066 -0.0273  0.2880
 5806SOL     OW22989   5.958   2.797   4.090  0.2204 -0.1436  0.9099
 5806SOL    HW222990   5.910   2.734   4.036  1.2135 -0.6270  0.5855
 5806SOL    HW322991   5.890   2.859   4.118 -0.3259  0.1431 -0.8919
 5806SOL    MW422992   5.942   2.797   4.087 -0.3360 -0.4549 -0.2041
 5807SOL     OW22993   0.396   2.875   4.658 -0.3166  0.2907  0.4370
 5807SOL    HW222994   0.383   2.958   4.612  0.1407 -0.4323 -1.0496
 5807SOL    HW322995   0.313   2.828   4.646  0.1851 -0.3536 -0.6623
 5807SOL    MW422996   0.383   2.880   4.650  0.7441 -0.1326 -0.1673
 5808SOL     OW22997   1.349   3.863   0.417 -0.1307  0.0516  0.2942
 5808SOL    HW222998   1.393   3.850   0.333  0.7442  1.5605  0.4759
 5808SOL    HW322999   1.384   3.794   0.473 -1.2409 -1.4087 -0.7320
 5808SOL    MW423000   1.359   3.852   0.413  0.3810 -0.2138  0.2291
 5809SOL     OW23001   2.747   4.186   0.025 -0.2419 -0.1641 -0.1694
 5809SOL    HW223002   2.835   4.150   0.026  0.2767  1.0691  0.3738
 5809SOL    HW323003   2.736   4.221  -0.064 -0.2266 -0.3877 -0.2609
 5809SOL    MW423004   2.757   4.186   0.013  0.8822  0.3623  0.2896
 5810SOL     OW23005   6.264   1.943   4.207  0.4634  0.7300 -0.9468
 5810SOL    HW223006   6.258   2.036   4.228 -1.3509  0.3901  0.3421
 5810SOL    HW323007   6.256   1.938   4.112  1.0608  1.9012 -1.0695
 5810SOL    MW423008   6.262   1.954   4.197 -0.3965 -0.9033  0.1368
 5811SOL     OW23009   6.062   4.634   2.464 -0.1980 -0.0293 -0.3956
 5811SOL    HW223010   5.999   4.623   2.535  0.7972  2.6065  1.0424
 5811SOL    HW323011   6.086   4.545   2.439 -0.3394 -1.0967  2.8636
 5811SOL    MW423012   6.057   4.621   2.470 -0.1063 -0.2824 -0.2118
 5812SOL     OW23013   1.111   3.330   2.071  0.3947 -0.3866 -0.4671
 5812SOL    HW223014   1.178   3.298   2.011  1.4368 -0.2176  0.5682
 5812SOL    HW323015   1.028   3.298   2.035  1.2107 -2.4308 -0.6203
 5812SOL    MW423016   1.109   3.322   2.058  0.1379 -1.1451 -0.5899
 5813SOL     OW23017   3.120   0.289   1.390  0.2119 -0.2173 -0.1349
 5813SOL    HW223018   3.037   0.283   1.437 -0.1350  0.8976 -0.5722
 5813SOL    HW323019   3.182   0.240   1.444 -0.3946  0.1879  0.9556
 5813SOL    MW423020   3.117   0.282   1.403  0.1419 -0.2751  0.4436
 5814SOL     OW23021   3.163   1.550   5.866  0.2734  0.4523  0.2517
 5814SOL    HW223022   3.213   1.601   5.802 -0.1802  0.6324  0.0413
 5814SOL    HW323023   3.080   1.531   5.823 -0.1171  0.7516  0.8683
 5814SOL    MW423024   3.159   1.554   5.852  0.1790  0.2703  0.9800
 5815SOL     OW23025   6.029   3.710   4.775 -0.2525  0.1685 -0.0771
 5815SOL    HW223026   6.116   3.732   4.741  0.0460  1.3503  1.3322
 5815SOL    HW323027   5.981   3.676   4.700  1.2594 -0.0134 -1.0017
 5815SOL    MW423028   6.034   3.708   4.761  0.5454 -0.1011 -0.3026
 5816SOL     OW23029   5.494   2.559   5.096 -0.0308 -0.6649  0.4402
 5816SOL    HW223030   5.557   2.611   5.147 -0.5896  1.2474 -0.7330
 5816SOL    HW323031   5.408   2.587   5.128 -0.3397 -0.7407 -0.2997
 5816SOL    MW423032   5.491   2.570   5.107 -0.1580  0.7039  0.2024
 5817SOL     OW23033   0.085   3.620   2.001 -0.1801  0.4480 -0.5732
 5817SOL    HW223034   0.073   3.714   2.010  0.4441  0.3776  1.3832
 5817SOL    HW323035   0.119   3.608   1.912  0.4571  2.1425 -0.5846
 5817SOL    MW423036   0.088   3.631   1.990 -0.0647 -0.7545  0.0294
 5818SOL     OW23037   2.113   5.325   4.787  0.7691  0.0185  0.8967
 5818SOL    HW223038   2.159   5.295   4.866  0.2494  1.4807  1.8004
 5818SOL    HW323039   2.138   5.417   4.778 -0.8266  0.4603  0.5892
 5818SOL    MW423040   2.122   5.333   4.796 -0.1833  0.2710 -0.3156
 5819SOL     OW23041   6.119   2.484   5.655  0.2913 -0.8776  0.0774
 5819SOL    HW223042   6.033   2.494   5.696 -1.0193 -0.7979 -2.4905
 5819SOL    HW323043   6.103   2.427   5.580  1.5081  2.4137 -2.9644
 5819SOL    MW423044   6.105   2.478   5.651  0.4200 -0.1311  0.1561
 5820SOL     OW23045   4.607   5.073   0.953 -0.3240  0.7381  0.0777
 5820SOL    HW223046   4.557   4.995   0.980 -0.7489  1.4210  1.3672
 5820SOL    HW323047   4.550   5.117   0.890 -0.7543  0.7656  0.4718
 5820SOL    MW423048   4.593   5.068   0.948  0.3930 -0.3982 -0.5716
 5821SOL     OW23049   3.862   1.506   5.908 -0.2811  0.4801  0.2306
 5821SOL    HW223050   3.883   1.599   5.898  1.2979 -0.0109 -1.4341
 5821SOL    HW323051   3.770   1.505   5.936  0.0998  2.5633  1.8412
 5821SOL    MW423052   3.853   1.518   5.911  0.2452 -0.2121  0.4618
 5822SOL     OW23053   2.735   3.007   4.275 -0.6717 -0.0791 -0.2479
 5822SOL    HW223054   2.698   3.079   4.224 -0.3154  0.9411  0.8697
 5822SOL    HW323055   2.828   3.007   4.252 -0.5088  0.3885  0.3683
 5822SOL    MW423056   2.742   3.017   4.266 -0.1532  0.0023  0.1600
 5823SOL     OW23057   0.415   1.074   4.799  0.1934 -0.0484  0.1128
 5823SOL    HW223058   0.445   1.138   4.863 -1.5671  0.2940  0.6353
 5823SOL    HW323059   0.439   0.989   4.836 -0.7856  0.1449  1.2549
 5823SOL    MW423060   0.422   1.071   4.812  0.1654  0.1622 -0.3125
 5824SOL     OW23061   0.818   4.005   2.296 -0.2444 -0.0068  0.7073
 5824SOL    HW223062   0.891   4.032   2.350 -1.1737  0.3130  1.8550
 5824SOL    HW323063   0.740   4.032   2.345 -1.1500  1.1495 -1.2206
 5824SOL    MW423064   0.817   4.012   2.309  0.1190 -0.5451  0.4515
 5825SOL     OW23065   1.899   4.900   0.126 -0.0752  0.3847 -0.0758
 5825SOL    HW223066   1.881   4.845   0.050  0.8903 -0.1665  0.0820
 5825SOL    HW323067   1.899   4.990   0.092  2.9757  0.0223 -1.3007
 5825SOL    MW423068   1.897   4.905   0.112 -0.1591  0.0917 -0.4708
 5826SOL     OW23069   2.641   0.949   0.716  0.4200 -0.4387 -0.0833
 5826SOL    HW223070   2.664   0.947   0.808 -2.1941 -0.2763  0.6426
 5826SOL    HW323071   2.562   0.894   0.709 -0.3245  0.7593 -1.9352
 5826SOL    MW423072   2.634   0.941   0.727  0.6518 -0.3166 -0.7248
 5827SOL     OW23073   1.523   0.558   1.128  0.0025  0.2746  0.2119
 5827SOL    HW223074   1.514   0.649   1.102 -2.6093 -0.2561 -1.1035
 5827SOL    HW323075   1.536   0.561   1.223  1.4242  2.0044  0.0183
 5827SOL    MW423076   1.524   0.570   1.137  0.2419 -0.0417  0.1262
 5828SOL     OW23077   6.263   1.421   5.644 -0.1695 -0.6451 -0.5872
 5828SOL    HW223078   6.205   1.394   5.716 -1.5706 -1.0963 -1.8199
 5828SOL    HW323079   6.334   1.358   5.646 -0.6917 -1.2408 -0.1822
 5828SOL    MW423080   6.265   1.409   5.654 -0.5595  0.5217 -0.2328
 5829SOL     OW23081   1.035   4.593   6.383 -0.3869  0.1026 -0.1097
 5829SOL    HW223082   1.100   4.645   6.430  0.0953 -0.5181 -0.0796
 5829SOL    HW323083   1.033   4.631   6.295 -0.1917  0.3043 -0.0270
 5829SOL    MW423084   1.043   4.605   6.377  0.6968 -0.4372  0.3238
 5830SOL     OW23085   0.966   5.406   1.752  0.2101  0.9020 -0.9698
 5830SOL    HW223086   1.052   5.441   1.729  0.6501  0.1244 -0.5544
 5830SOL    HW323087   0.980   5.312   1.765 -0.5951  0.8408 -0.4092
 5830SOL    MW423088   0.979   5.398   1.751  0.2673  0.0141 -0.0875
 5831SOL     OW23089   0.782   2.900   3.063  0.3676 -0.2114  0.4999
 5831SOL    HW223090   0.739   2.953   2.997 -0.5240 -2.1857 -0.5930
 5831SOL    HW323091   0.765   2.945   3.146  0.7809  1.8496 -0.4704
 5831SOL    MW423092   0.774   2.913   3.065 -0.3705  0.1015  0.3541
 5832SOL     OW23093   2.532   1.993   2.713  0.4016 -0.0738  0.1927
 5832SOL    HW223094   2.519   1.987   2.618  0.3598  1.2817  0.0954
 5832SOL    HW323095   2.617   2.037   2.722  1.0723 -1.4233  0.8075
 5832SOL    MW423096   2.542   1.998   2.701 -0.3485 -0.0225  0.4617
 5833SOL     OW23097   1.270   2.303   3.605 -0.5018  0.3550  0.1278
 5833SOL    HW223098   1.218   2.349   3.671 -1.9982 -1.1869  0.0903
 5833SOL    HW323099   1.206   2.260   3.549  0.7904  0.0357 -1.1738
 5833SOL    MW423100   1.255   2.303   3.607 -0.2053 -0.4638 -0.4444
 5834SOL     OW23101   3.998   3.212   0.770 -0.4573  0.3283  0.6486
 5834SOL    HW223102   4.090   3.226   0.744 -0.6765 -0.0164 -0.3658
 5834SOL    HW323103   3.999   3.216   0.865  0.5410  0.7967  0.6286
 5834SOL    MW423104   4.011   3.214   0.779  0.2676  0.4323 -0.1150
 5835SOL     OW23105   1.042   3.424   5.353  0.5062  0.1800  0.3064
 5835SOL    HW223106   1.032   3.515   5.382 -0.1169 -0.2239  1.4108
 5835SOL    HW323107   1.136   3.416   5.334  0.4962  1.1693 -0.2629
 5835SOL    MW423108   1.053   3.435   5.354 -0.2406  0.1972  0.2939
 5836SOL     OW23109   1.321   4.352   0.107  0.5105 -0.0201  0.6763
 5836SOL    HW223110   1.364   4.270   0.081  0.1519 -0.5959  1.8352
 5836SOL    HW323111   1.228   4.336   0.092  0.4566  0.2379  0.7390
 5836SOL    MW423112   1.314   4.339   0.102 -0.0522 -0.4343  0.1078
 5837SOL     OW23113   5.874   4.883   0.907 -0.2277 -0.3817  0.1085
 5837SOL    HW223114   5.841   4.970   0.932  1.5806 -0.0471  1.5243
 5837SOL    HW323115   5.868   4.882   0.811  0.9566  1.8527 -0.0535
 5837SOL    MW423116   5.869   4.895   0.897 -0.0260  0.5255  0.0438
 5838SOL     OW23117   5.401   4.825   5.407  0.5146  0.5721  0.0149
 5838SOL    HW223118   5.474   4.814   5.468  0.1369 -0.4980  0.3144
 5838SOL    HW323119   5.342   4.753   5.430 -0.5077  1.2749 -0.3902
 5838SOL    MW423120   5.403   4.814   5.418  0.8149 -0.9005  0.4592
 5839SOL     OW23121   1.210   1.300   0.720 -0.1386 -0.2694  0.2918
 5839SOL    HW223122   1.200   1.276   0.628  1.3013  1.5590 -0.4204
 5839SOL    HW323123   1.177   1.390   0.725  2.4077  0.7189  0.8590
 5839SOL    MW423124   1.204   1.309   0.708  0.0021 -0.3475  1.1610
 5840SOL     OW23125   1.694   3.577   6.080 -0.0754 -0.1018  0.4752
 5840SOL    HW223126   1.723   3.578   5.989  3.6408  0.3620  1.4918
 5840SOL    HW323127   1.698   3.485   6.106  0.2253 -0.0811  0.5104
 5840SOL    MW423128   1.699   3.565   6.071 -0.3125  0.0053 -0.3617
 5841SOL     OW23129   0.667   3.004   2.836 -0.5528  0.3254  0.3086
 5841SOL    HW223130   0.596   3.044   2.786  0.9879  2.2826 -0.4572
 5841SOL    HW323131   0.710   2.946   2.774  0.2283  1.3427 -0.1332
 5841SOL    MW423132   0.663   3.002   2.821 -0.2755  0.0160  0.3652
 5842SOL     OW23133   4.393   4.942   1.796  0.0810 -0.1956  0.1945
 5842SOL    HW223134   4.335   5.002   1.843 -1.1955 -2.3218  1.5216
 5842SOL    HW323135   4.369   4.855   1.828  1.1377 -1.5488 -2.3523
 5842SOL    MW423136   4.382   4.939   1.806 -0.8198 -0.5421  0.4406
 5843SOL     OW23137   3.826   1.842   1.909  0.4773 -0.1449 -0.0536
 5843SOL    HW223138   3.870   1.927   1.916 -1.1566  0.8484 -1.2932
 5843SOL    HW323139   3.879   1.793   1.846  0.8318  0.3394 -0.1381
 5843SOL    MW423140   3.839   1.847   1.902 -0.2933 -0.0690  0.2597
 5844SOL     OW23141   3.908   0.162   2.713 -0.1706  0.1904 -0.3729
 5844SOL    HW223142   3.973   0.195   2.651  0.9387 -0.8455  0.2055
 5844SOL    HW323143   3.904   0.229   2.782  1.1288 -0.2405  0.1508
 5844SOL    MW423144   3.916   0.176   2.714  0.6589  0.2351 -0.2264
 5845SOL     OW23145   4.010   2.078   2.946 -0.4431 -0.2612  0.0534
 5845SOL    HW223146   3.964   2.050   2.867  0.1596 -0.1062 -0.3667
 5845SOL    HW323147   3.947   2.132   2.993 -0.2397  1.2282 -1.2586
 5845SOL    MW423148   3.996   2.082   2.942  0.1176 -0.1223  0.3372
 5846SOL     OW23149   4.884   0.244   0.155  0.5596 -0.2177  0.0446
 5846SOL    HW223150   4.854   0.183   0.223  1.8248  0.0798  0.9096
 5846SOL    HW323151   4.976   0.220   0.141  0.0830 -0.9086 -2.3010
 5846SOL    MW423152   4.893   0.232   0.162  0.2496  0.3484  0.0504
 5847SOL     OW23153   0.442   2.411   6.153  0.2665 -0.5316 -0.2012
 5847SOL    HW223154   0.381   2.370   6.091  2.1252 -5.3463  0.7254
 5847SOL    HW323155   0.426   2.365   6.235  0.9809  2.4974  1.7779
 5847SOL    MW423156   0.432   2.399   6.156  0.0845 -0.1841  0.2543
 5848SOL     OW23157   2.150   2.927   2.762 -0.3451 -0.3193 -0.5067
 5848SOL    HW223158   2.150   2.999   2.825  0.2523 -0.4489 -0.3504
 5848SOL    HW323159   2.094   2.861   2.801  1.3216 -1.0932  0.7292
 5848SOL    MW423160   2.143   2.928   2.776  0.6050  0.3090 -0.3142
 5849SOL     OW23161   0.744   1.079   4.899  0.3096 -0.0227 -0.0747
 5849SOL    HW223162   0.751   1.105   4.991  1.1423 -0.8132  0.0960
 5849SOL    HW323163   0.684   1.005   4.900 -0.8361  0.8784 -0.3662
 5849SOL    MW423164   0.737   1.072   4.912 -0.5874  0.2765 -0.5527
 5850SOL     OW23165   4.399   1.861   2.760  0.1342 -0.6701 -0.1716
 5850SOL    HW223166   4.370   1.944   2.722  1.4636 -0.1697 -0.1299
 5850SOL    HW323167   4.443   1.885   2.841  0.8823 -1.3677 -0.3558
 5850SOL    MW423168   4.401   1.875   2.766  0.0035  0.1404  0.2640
 5851SOL     OW23169   0.844   3.504   0.126 -0.6333  0.8942  0.3240
 5851SOL    HW223170   0.792   3.447   0.070  0.3752  0.1391  0.1148
 5851SOL    HW323171   0.872   3.575   0.069 -1.2991  1.2253  0.4022
 5851SOL    MW423172   0.841   3.506   0.111 -0.5524 -0.0953 -0.5164
 5852SOL     OW23173   2.076   2.525   2.342 -0.2441 -0.4648 -0.1297
 5852SOL    HW223174   2.023   2.568   2.275  0.1186 -0.3924 -0.3675
 5852SOL    HW323175   2.022   2.451   2.370 -1.5796  0.9941  1.3933
 5852SOL    MW423176   2.062   2.521   2.337  0.0161  0.1998 -0.0144
 5853SOL     OW23177   2.128   5.159   1.616  0.4215  0.4668  0.1491
 5853SOL    HW223178   2.046   5.152   1.567  0.4430 -1.7538  0.3370
 5853SOL    HW323179   2.176   5.229   1.573  0.0972 -0.8493 -2.5187
 5853SOL    MW423180   2.123   5.168   1.604  0.4155  0.4191  0.8754
 5854SOL     OW23181   3.878   4.226   5.602 -0.5670  0.0833  0.0195
 5854SOL    HW223182   3.934   4.153   5.630 -0.5624 -0.3544 -1.0829
 5854SOL    HW323183   3.883   4.289   5.674  1.5769  0.2005 -0.1657
 5854SOL    MW423184   3.886   4.225   5.615 -0.0790 -0.4795 -0.0438
 5855SOL     OW23185   3.464   0.311   0.426 -0.2209  0.3832 -0.0491
 5855SOL    HW223186   3.408   0.316   0.349  0.5856  0.7318 -0.6342
 5855SOL    HW323187   3.488   0.402   0.445 -1.7160  0.4816  1.6344
 5855SOL    MW423188   3.460   0.324   0.418 -0.0469 -0.1177 -0.0487
 5856SOL     OW23189   5.641   2.756   4.819  0.3036  0.7642 -0.4203
 5856SOL    HW223190   5.648   2.662   4.800 -1.1108  0.3841  0.7276
 5856SOL    HW323191   5.705   2.797   4.762  1.2341 -0.9444 -0.6645
 5856SOL    MW423192   5.650   2.749   4.809  0.2666  0.1097  0.1095
 5857SOL     OW23193   4.967   2.283   4.660 -0.1142 -0.5654  0.1530
 5857SOL    HW223194   5.013   2.322   4.734 -0.7368  0.0814  0.2140
 5857SOL    HW323195   4.881   2.259   4.695 -0.2914 -0.5631 -0.2719
 5857SOL    MW423196   4.961   2.285   4.675 -0.7556 -0.8523  0.2230
 5858SOL     OW23197   0.093   3.712   2.735  0.1427 -0.2213  0.2126
 5858SOL    HW223198   0.114   3.772   2.807  1.9472 -0.9619  0.3555
 5858SOL    HW323199   0.022   3.755   2.689  0.5324  1.4310  1.0480
 5858SOL    MW423200   0.087   3.726   2.739 -0.7871 -0.1191 -0.1077
 5859SOL     OW23201   3.207   6.368   0.312  0.0763 -0.7796  0.2005
 5859SOL    HW223202   3.126   6.405   0.275  0.5425 -0.1634 -0.2189
 5859SOL    HW323203   3.209   6.401   0.401  0.6374  0.4871 -0.2567
 5859SOL    MW423204   3.196   6.377   0.319  0.2575 -0.4297  0.0147
 5860SOL     OW23205   0.577   5.416   5.699  0.3845 -0.6692  0.0923
 5860SOL    HW223206   0.482   5.426   5.695  0.3054 -1.3296  0.2346
 5860SOL    HW323207   0.592   5.324   5.678  1.0015 -0.5486 -0.0137
 5860SOL    MW423208   0.567   5.405   5.695 -0.0298 -0.2211 -0.4933
 5861SOL     OW23209   5.323   0.829   1.348  0.5033  0.6712  0.2686
 5861SOL    HW223210   5.244   0.863   1.306  1.4045  0.6713 -1.5419
 5861SOL    HW323211   5.302   0.738   1.371 -0.1185  0.7707  0.0940
 5861SOL    MW423212   5.310   0.821   1.346  0.6557 -0.5243 -0.2683
 5862SOL     OW23213   3.368   4.840   0.513  0.2113 -0.1221 -0.3850
 5862SOL    HW223214   3.341   4.875   0.427  0.0257 -0.2011 -0.3598
 5862SOL    HW323215   3.333   4.751   0.514 -0.9828  0.3252  0.3176
 5862SOL    MW423216   3.360   4.833   0.502 -0.0560 -0.3753 -0.6778
 5863SOL     OW23217   1.171   5.237   5.900 -0.3670 -0.1190 -0.2791
 5863SOL    HW223218   1.146   5.325   5.872  2.1502  1.2480  1.3211
 5863SOL    HW323219   1.232   5.207   5.833  1.3537  0.8249  0.7971
 5863SOL    MW423220   1.176   5.245   5.888  0.0538 -0.0244 -0.3656
 5864SOL     OW23221   4.203   4.112   3.067 -0.1290 -0.3408 -0.5139
 5864SOL    HW223222   4.194   4.193   3.116  3.2638 -0.5580  0.7651
 5864SOL    HW323223   4.261   4.134   2.994  0.8862 -1.5511 -0.1218
 5864SOL    MW423224   4.210   4.125   3.063 -0.5372 -0.4547  0.1545
 5865SOL     OW23225   2.332   0.862   0.708  0.1085 -0.6746  0.4367
 5865SOL    HW223226   2.294   0.878   0.794  0.5131 -0.8010  0.6452
 5865SOL    HW323227   2.383   0.782   0.719 -0.3215 -1.0251 -0.0819
 5865SOL    MW423228   2.334   0.854   0.720 -0.4008 -0.7112 -0.4991
 5866SOL     OW23229   2.352   0.054   6.412 -0.0488 -0.5772  0.0040
 5866SOL    HW223230   2.269   0.098   6.428  0.8656  1.3301 -0.2113
 5866SOL    HW323231   2.336  -0.002   6.336 -0.9516  0.3404 -0.5044
 5866SOL    MW423232   2.339   0.053   6.404 -0.2993  0.4774 -0.4058
 5867SOL     OW23233   3.963   4.814   3.800  0.2198 -0.2340  0.5796
 5867SOL    HW223234   3.947   4.773   3.715 -1.1165  0.4496  0.4862
 5867SOL    HW323235   4.023   4.886   3.781  0.6707 -0.6519  0.3791
 5867SOL    MW423236   3.969   4.818   3.786  0.0289 -0.0030  0.3833
 5868SOL     OW23237   3.651   4.872   3.589 -0.4670 -0.4624 -0.5760
 5868SOL    HW223238   3.742   4.852   3.568  0.1978 -0.3498  1.8868
 5868SOL    HW323239   3.633   4.954   3.543  0.6549 -0.5192 -1.1399
 5868SOL    MW423240   3.661   4.881   3.580  0.0461  0.0039 -0.2201
 5869SOL     OW23241   6.127   0.419   5.784  0.3232  0.0817 -0.4330
 5869SOL    HW223242   6.222   0.408   5.777  0.6767  3.1092 -2.3521
 5869SOL    HW323243   6.112   0.438   5.876  1.9995  1.9735 -0.4755
 5869SOL    MW423244   6.137   0.420   5.795  0.2787 -0.2551 -0.1957
 5870SOL     OW23245   4.583   2.652   6.090 -0.0023  0.2339  0.5227
 5870SOL    HW223246   4.515   2.622   6.030  0.9540 -0.1307 -0.4232
 5870SOL    HW323247   4.536   2.687   6.165 -1.2132 -0.3209  0.0411
 5870SOL    MW423248   4.568   2.653   6.092  0.3885  0.0237 -0.1192
 5871SOL     OW23249   4.210   4.242   0.769  0.0321  0.1195  0.6277
 5871SOL    HW223250   4.259   4.260   0.688 -0.3862 -0.0575  0.3307
 5871SOL    HW323251   4.265   4.178   0.816  0.3162  0.2853  0.5226
 5871SOL    MW423252   4.224   4.236   0.764  0.7596  0.6031 -0.1533
 5872SOL     OW23253   2.332   4.044   1.602  0.3310  0.5099 -0.4254
 5872SOL    HW223254   2.379   4.100   1.664 -1.0829  1.8914 -0.5348
 5872SOL    HW323255   2.293   4.106   1.540  1.3622 -0.8000 -2.4808
 5872SOL    MW423256   2.333   4.060   1.602 -0.3712 -1.0116 -0.1655
 5873SOL     OW23257   1.894   2.522   4.938  0.1560  0.2827  0.1455
 5873SOL    HW223258   1.836   2.517   4.862  0.2241  2.1572 -0.0724
 5873SOL    HW323259   1.981   2.504   4.902 -0.1684 -2.0476  0.3876
 5873SOL    MW423260   1.898   2.519   4.923 -0.6281  0.3125 -0.2778
 5874SOL     OW23261   2.872   2.098   1.046 -0.4545 -0.4080 -0.5517
 5874SOL    HW223262   2.866   2.056   0.960  0.8272  1.9368 -1.8960
 5874SOL    HW323263   2.954   2.146   1.043 -1.8787  2.3010  0.7571
 5874SOL    MW423264   2.882   2.099   1.034 -0.7602 -0.1914 -0.1374
 5875SOL     OW23265   4.051   1.057   0.017 -0.1876 -0.5427  0.0125
 5875SOL    HW223266   4.072   1.144  -0.016 -1.3190 -0.2320  0.0593
 5875SOL    HW323267   4.124   1.035   0.075  1.0989 -0.4797 -1.5048
 5875SOL    MW423268   4.063   1.066   0.020  0.3972  0.7499  0.8487
 5876SOL     OW23269   3.422   6.114   2.157 -0.5837 -0.7961  0.0792
 5876SOL    HW223270   3.489   6.172   2.193 -1.9770  1.3608 -0.6433
 5876SOL    HW323271   3.470   6.034   2.135  1.3209 -0.1606  1.5850
 5876SOL    MW423272   3.437   6.111   2.159 -0.3099 -0.2641 -0.3721
 5877SOL     OW23273   0.552   2.259   2.507  0.1260  0.3720  0.4364
 5877SOL    HW223274   0.636   2.301   2.488 -0.0165  0.1239 -0.7830
 5877SOL    HW323275   0.576   2.169   2.531  0.2273  0.3962  0.4280
 5877SOL    MW423276   0.567   2.252   2.508 -0.1042  0.1836  0.2512
 5878SOL     OW23277   0.808   5.121   5.049  0.1977  0.0975 -0.1089
 5878SOL    HW223278   0.716   5.103   5.025  0.7778 -2.6128 -0.7095
 5878SOL    HW323279   0.832   5.197   4.996 -1.7804  1.1060  0.3413
 5878SOL    MW423280   0.799   5.128   5.038  0.5137  0.3924  0.0992
 5879SOL     OW23281   0.354   4.085   3.771  0.9417 -0.8103  0.2132
 5879SOL    HW223282   0.313   4.012   3.725  1.2540 -0.5906 -0.4319
 5879SOL    HW323283   0.283   4.148   3.785  1.0617 -0.3391 -1.0782
 5879SOL    MW423284   0.339   4.084   3.767  0.2437 -0.2682  0.0043
 5880SOL     OW23285   2.370   5.999   0.512 -0.1420  0.0835 -0.8078
 5880SOL    HW223286   2.405   5.923   0.465  0.5475  0.6156 -1.1857
 5880SOL    HW323287   2.283   5.972   0.541  0.5437 -1.2581  0.0794
 5880SOL    MW423288   2.363   5.985   0.510 -0.1064 -0.2185  0.4562
 5881SOL     OW23289   3.363   4.511   2.535  0.2143  0.0079  0.1699
 5881SOL    HW223290   3.453   4.501   2.566 -0.2212  1.5419  2.1806
 5881SOL    HW323291   3.350   4.438   2.475  2.1299 -1.5009  1.4418
 5881SOL    MW423292   3.373   4.500   2.531 -0.2506  0.4109 -0.1257
 5882SOL     OW23293   5.585   2.902   3.243 -0.3687  0.1603  0.0718
 5882SOL    HW223294   5.648   2.904   3.171  0.0980 -1.1577  0.4207
 5882SOL    HW323295   5.634   2.933   3.319  0.8493 -3.5487  1.0097
 5882SOL    MW423296   5.600   2.907   3.243 -0.0850 -0.2096  0.3405
 5883SOL     OW23297   6.242   4.444   4.679  0.3062  0.1387 -0.1995
 5883SOL    HW223298   6.222   4.454   4.772 -0.0976 -3.0211  0.1471
 5883SOL    HW323299   6.246   4.534   4.646 -0.2381  1.3408  2.6906
 5883SOL    MW423300   6.240   4.457   4.687 -0.4437  0.1791  0.7504
 5884SOL     OW23301   5.322   2.706   2.767  0.2615 -0.4507  0.3090
 5884SOL    HW223302   5.332   2.793   2.805  1.2454 -0.1775 -0.5268
 5884SOL    HW323303   5.239   2.710   2.719  0.3809  0.0840  0.1384
 5884SOL    MW423304   5.313   2.718   2.765  0.2909  0.2872 -1.0459
 5885SOL     OW23305   2.320   0.832   5.158  1.0708  0.0254 -0.5003
 5885SOL    HW223306   2.382   0.903   5.175 -2.4153  3.3706 -0.3351
 5885SOL    HW323307   2.324   0.819   5.063  0.4784  1.8584 -0.8097
 5885SOL    MW423308   2.329   0.839   5.148  0.4756  1.0147 -0.0708
 5886SOL     OW23309   1.498   5.331   3.175  0.2119  0.2239  0.1403
 5886SOL    HW223310   1.408   5.360   3.158  0.2431  0.3392  0.1707
 5886SOL    HW323311   1.502   5.318   3.270  0.3530  0.6471  0.1962
 5886SOL    MW423312   1.487   5.333   3.185 -0.3486 -0.0962 -0.4428
 5887SOL     OW23313   3.000   6.160   0.325 -0.2242  0.7121  0.1898
 5887SOL    HW223314   2.957   6.231   0.373 -1.7127  0.3113 -0.4842
 5887SOL    HW323315   3.085   6.196   0.299 -0.3265  1.7086  1.1468
 5887SOL    MW423316   3.006   6.174   0.328  0.0355  0.1513  0.2309
 5888SOL     OW23317   1.168   5.265   0.106  0.6372 -0.4200 -0.3741
 5888SOL    HW223318   1.143   5.322   0.178  2.6480  2.3698 -1.6864
 5888SOL    HW323319   1.112   5.291   0.033  1.2626 -0.4338 -0.8721
 5888SOL    MW423320   1.158   5.276   0.106  0.2942  0.0431  0.6057
 5889SOL     OW23321   2.108   5.282   2.089  0.0297 -0.1349 -0.2970
 5889SOL    HW223322   2.146   5.366   2.115  0.0896 -0.3193  0.2348
 5889SOL    HW323323   2.153   5.218   2.143 -0.1796 -0.4861 -0.5349
 5889SOL    MW423324   2.119   5.285   2.100  0.3379  0.5337  0.2575
 5890SOL     OW23325   6.221   2.291   1.159 -0.2006 -0.4804 -0.2106
 5890SOL    HW223326   6.246   2.278   1.250 -0.5954  0.1875 -0.0011
 5890SOL    HW323327   6.234   2.385   1.143  1.3075 -0.8205 -1.2885
 5890SOL    MW423328   6.226   2.302   1.169 -0.1191 -0.4820  0.1573
 5891SOL     OW23329   3.808   3.583   3.881 -0.1581  0.3035 -0.3490
 5891SOL    HW223330   3.720   3.562   3.911  0.9636 -0.5354  2.6592
 5891SOL    HW323331   3.812   3.679   3.884 -0.1770  0.2716  2.1710
 5891SOL    MW423332   3.797   3.593   3.885  0.5522  0.0098  0.1480
 5892SOL     OW23333   3.805   6.351   1.904 -0.0754  0.5261 -0.0967
 5892SOL    HW223334   3.839   6.423   1.956  3.8899  0.1089 -1.7421
 5892SOL    HW323335   3.813   6.274   1.960 -1.3602  0.8549  0.5781
 5892SOL    MW423336   3.811   6.350   1.918  0.4606 -0.3917  0.3968
 5893SOL     OW23337   1.483   3.951   0.733 -0.5439 -0.3559 -0.0194
 5893SOL    HW223338   1.447   3.989   0.653  0.4376 -1.0996 -0.8305
 5893SOL    HW323339   1.438   3.867   0.742 -0.6951 -0.2471  0.2429
 5893SOL    MW423340   1.472   3.945   0.724  0.0515  0.6008  0.0744
 5894SOL     OW23341   1.262   1.434   3.108 -0.1182  0.7034 -0.1105
 5894SOL    HW223342   1.303   1.454   3.192  0.3712 -1.7158  0.2941
 5894SOL    HW323343   1.306   1.355   3.078 -2.0261  0.0589 -1.4113
 5894SOL    MW423344   1.273   1.426   3.115 -0.1160  0.3258 -0.5024
 5895SOL     OW23345   2.436   0.361   2.104 -0.3218  0.4506  0.6357
 5895SOL    HW223346   2.382   0.380   2.027 -1.3546  0.1662  1.2670
 5895SOL    HW323347   2.520   0.403   2.085 -0.3491 -0.1188 -0.9050
 5895SOL    MW423348   2.440   0.369   2.091 -0.2557  0.4152 -0.1722
 5896SOL     OW23349   4.833   2.528   6.222  0.2849  0.3251 -0.1249
 5896SOL    HW223350   4.836   2.609   6.273  1.1393 -0.0385  0.4197
 5896SOL    HW323351   4.764   2.543   6.158  0.6370  1.6134 -0.2388
 5896SOL    MW423352   4.825   2.540   6.220 -0.3662  0.2297 -0.0819
 5897SOL     OW23353   5.090   1.432   3.021 -0.1655 -0.8171  0.2203
 5897SOL    HW223354   5.149   1.368   2.982 -0.7159 -0.4713 -1.2606
 5897SOL    HW323355   5.123   1.517   2.991 -1.0271 -0.5853 -0.1055
 5897SOL    MW423356   5.102   1.435   3.012 -0.1637  0.2172  0.3760
 5898SOL     OW23357   0.230   5.663   4.328 -0.6877  0.3176 -0.1951
 5898SOL    HW223358   0.289   5.736   4.346  0.0200 -0.2501 -0.1930
 5898SOL    HW323359   0.279   5.585   4.352 -1.4378 -0.1681 -0.1989
 5898SOL    MW423360   0.244   5.663   4.333  0.6636  0.0166  0.1508
 5899SOL     OW23361   6.101   1.374   2.430 -0.0703  0.2123 -0.2519
 5899SOL    HW223362   6.033   1.322   2.471  0.2175  1.0519  1.3896
 5899SOL    HW323363   6.175   1.314   2.421 -0.2036 -0.0492  0.3200
 5899SOL    MW423364   6.102   1.359   2.434 -0.2367 -0.0830 -0.3338
 5900SOL     OW23365   5.583   5.398   4.484  0.4680  0.0427  0.2742
 5900SOL    HW223366   5.492   5.372   4.488 -0.1544  2.1367  2.5356
 5900SOL    HW323367   5.623   5.359   4.562  1.7118 -1.3713 -1.0143
 5900SOL    MW423368   5.577   5.390   4.495  0.2456  0.1484 -0.1336
 5901SOL     OW23369   3.095   5.347   0.947  0.4333 -0.5662 -0.0654
 5901SOL    HW223370   3.139   5.265   0.924  2.0232 -0.6475  2.8301
 5901SOL    HW323371   3.121   5.408   0.878  3.1275 -1.3011  0.2035
 5901SOL    MW423372   3.104   5.345   0.935  0.2755 -0.1031  0.0105
 5902SOL     OW23373   1.328   6.066   1.028  0.0700 -0.3584 -0.0071
 5902SOL    HW223374   1.308   6.003   0.958  1.8174 -1.2346  0.2256
 5902SOL    HW323375   1.371   6.014   1.096 -0.5598  0.6899  1.2266
 5902SOL    MW423376   1.331   6.051   1.028  0.1824  0.6287  0.1938
 5903SOL     OW23377   5.545   2.377   2.767  0.7175 -0.3097  0.1152
 5903SOL    HW223378   5.574   2.410   2.852  1.7952 -0.5098 -0.1724
 5903SOL    HW323379   5.537   2.455   2.713  1.1371 -0.2942  0.0728
 5903SOL    MW423380   5.547   2.391   2.771 -0.5804 -0.6027 -0.0988
 5904SOL     OW23381   5.983   0.455   1.316 -0.2065  0.2504  0.5477
 5904SOL    HW223382   6.012   0.511   1.244 -0.8076 -0.2616 -0.1175
 5904SOL    HW323383   5.907   0.409   1.280  0.8351 -1.7114  0.7250
 5904SOL    MW423384   5.977   0.456   1.302 -0.1281  0.0651  0.2354
 5905SOL     OW23385   2.671   5.233   4.227  0.6841 -0.4940 -0.1069
 5905SOL    HW223386   2.577   5.237   4.240  0.8698 -1.1128  1.7743
 5905SOL    HW323387   2.689   5.142   4.204  0.9024 -0.6140  0.5058
 5905SOL    MW423388   2.661   5.221   4.225 -0.3967  0.0379  0.1736
 5906SOL     OW23389   4.398   0.156   2.862  0.7193  0.0236  0.0180
 5906SOL    HW223390   4.411   0.245   2.829 -1.5375  0.4295  0.0815
 5906SOL    HW323391   4.390   0.102   2.783  1.6479 -0.0774 -0.0203
 5906SOL    MW423392   4.398   0.160   2.847 -0.1959  0.2360 -0.3185
 5907SOL     OW23393   0.824   3.684   2.888 -0.3695  0.4228 -0.0973
 5907SOL    HW223394   0.862   3.741   2.954 -0.4198  1.2139 -0.7437
 5907SOL    HW323395   0.758   3.634   2.936  0.7625 -0.2585  0.8179
 5907SOL    MW423396   0.820   3.685   2.903 -0.6296 -0.4983 -0.5863
 5908SOL     OW23397   6.416   5.403   1.635 -0.3442 -0.3922  0.4710
 5908SOL    HW223398   6.446   5.368   1.719 -1.6825 -1.0020  0.7332
 5908SOL    HW323399   6.414   5.497   1.647  0.6516 -0.3950  0.7088
 5908SOL    MW423400   6.420   5.411   1.647  0.1010 -0.1497  0.5254
 5909SOL     OW23401   2.886   5.416   0.404 -0.4663  0.0083  0.3021
 5909SOL    HW223402   2.915   5.347   0.463  0.2201 -0.3456 -0.4297
 5909SOL    HW323403   2.815   5.375   0.354 -0.4623  0.0242  0.2834
 5909SOL    MW423404   2.880   5.401   0.405  0.2032  0.8944 -0.4396
 5910SOL     OW23405   2.687   1.792   2.444 -0.0268  0.2243  0.2676
 5910SOL    HW223406   2.744   1.790   2.367 -0.5845  1.5709 -0.2141
 5910SOL    HW323407   2.622   1.723   2.427 -0.3439  0.7264 -0.6461
 5910SOL    MW423408   2.686   1.783   2.432  0.2519 -0.0201 -0.2566
 5911SOL     OW23409   2.014   5.056   5.996  0.0924  0.2335 -0.3454
 5911SOL    HW223410   1.925   5.033   5.970  0.0773 -0.0287 -0.0640
 5911SOL    HW323411   2.031   5.002   6.073 -0.1924  1.6503  0.7548
 5911SOL    MW423412   2.004   5.046   6.003  0.6738  0.5906  0.6683
 5912SOL     OW23413   1.438   0.626   3.549 -0.4590 -0.0734 -0.3985
 5912SOL    HW223414   1.369   0.580   3.597 -0.7598  0.0718 -0.6880
 5912SOL    HW323415   1.392   0.695   3.501  0.0899  1.2021  0.8125
 5912SOL    MW423416   1.423   0.629   3.549  0.0182  0.1881  0.0355
 5913SOL     OW23417   5.999   1.569   1.734  0.3967 -0.2488 -0.3254
 5913SOL    HW223418   6.068   1.505   1.716  0.8109  0.3551 -0.9480
 5913SOL    HW323419   6.022   1.644   1.680 -0.6332  0.0520 -0.3550
 5913SOL    MW423420   6.011   1.570   1.725  0.4965  0.0102  0.1774
 5914SOL     OW23421   2.973   6.337   5.422  0.0569  0.9124  0.3668
 5914SOL    HW223422   2.922   6.263   5.388  0.6146  0.8651 -0.3895
 5914SOL    HW323423   2.964   6.330   5.518  0.3893 -0.3424  0.3239
 5914SOL    MW423424   2.965   6.326   5.430  0.0328 -0.1802 -0.0510
 5915SOL     OW23425   2.145   1.124   2.452 -0.2381 -0.1301 -0.3580
 5915SOL    HW223426   2.124   1.208   2.410 -1.3212  0.5779  1.5002
 5915SOL    HW323427   2.063   1.075   2.451 -0.0348 -0.4835  0.0954
 5915SOL    MW423428   2.132   1.129   2.446 -0.6285  0.2276  0.0629
 5916SOL     OW23429   2.430   4.237   3.996  0.0074  0.4690  0.0270
 5916SOL    HW223430   2.372   4.176   3.951 -0.5010  0.8928  0.1047
 5916SOL    HW323431   2.515   4.193   3.997  0.1720  0.6678 -1.8162
 5916SOL    MW423432   2.434   4.223   3.990  0.1333 -0.8508 -0.3683
 5917SOL     OW23433   4.303   5.194   1.459 -0.3351 -0.0392 -0.0735
 5917SOL    HW223434   4.321   5.266   1.398 -1.2584  0.3763  0.1206
 5917SOL    HW323435   4.352   5.216   1.538  1.0222 -0.6765 -0.7102
 5917SOL    MW423436   4.312   5.207   1.461 -0.2811  0.0027  0.3471
 5918SOL     OW23437   0.585   3.282   5.773  0.0054 -0.0761  0.1916
 5918SOL    HW223438   0.502   3.330   5.781 -0.0768 -0.3013  0.7713
 5918SOL    HW323439   0.593   3.236   5.856  1.3994  1.0273  0.7125
 5918SOL    MW423440   0.575   3.283   5.785 -0.1191 -0.2059 -0.3589
 5919SOL     OW23441   1.771   5.503   0.881 -0.5440 -0.1378  0.1812
 5919SOL    HW223442   1.856   5.547   0.885 -1.2268  1.2490  0.1129
 5919SOL    HW323443   1.762   5.461   0.967  0.1154 -0.1461  0.2563
 5919SOL    MW423444   1.781   5.503   0.893  0.7371 -0.1176  0.3791
 5920SOL     OW23445   6.181   2.482   3.106 -0.2299 -0.1259  0.0442
 5920SOL    HW223446   6.131   2.559   3.078 -1.7662 -1.2801 -0.5849
 5920SOL    HW323447   6.152   2.466   3.196  0.3434  0.2216  0.2927
 5920SOL    MW423448   6.170   2.490   3.114 -0.3142 -0.6913 -0.6636
 5921SOL     OW23449   1.214   1.915   1.200  0.4172  0.0164 -0.2377
 5921SOL    HW223450   1.248   1.995   1.239  1.1904 -0.2517 -0.3382
 5921SOL    HW323451   1.123   1.935   1.179  0.4725  0.7140  0.1564
 5921SOL    MW423452   1.206   1.928   1.202 -0.0515  0.2380  0.1310
 5922SOL     OW23453   3.908   1.583   2.773 -0.9630 -1.1388 -0.0379
 5922SOL    HW223454   3.959   1.561   2.851  1.9476  0.9585 -1.1669
 5922SOL    HW323455   3.843   1.647   2.804  0.0564 -0.4424  0.7587
 5922SOL    MW423456   3.906   1.589   2.787  0.2222  0.6437  0.1775
 5923SOL     OW23457   6.392   2.199   4.238 -0.0006  0.0135  0.3388
 5923SOL    HW223458   6.396   2.261   4.311 -0.7289  0.9280 -0.3677
 5923SOL    HW323459   6.483   2.189   4.211  0.3225 -0.6259  1.5903
 5923SOL    MW423460   6.405   2.206   4.244 -0.0434 -0.6257 -0.0676
 5924SOL     OW23461   5.881   0.510   2.203 -0.1600 -0.0638 -0.4794
 5924SOL    HW223462   5.948   0.547   2.146  2.7073 -2.0114  1.3545
 5924SOL    HW323463   5.831   0.586   2.233  3.2464  2.0614  0.4298
 5924SOL    MW423464   5.884   0.525   2.200  0.0718 -0.1002 -0.2108
 5925SOL     OW23465   5.086   4.814   4.468 -0.0038 -0.5285 -0.2947
 5925SOL    HW223466   5.066   4.761   4.391 -1.2292  0.1621 -0.4751
 5925SOL    HW323467   5.182   4.822   4.467 -0.0112 -0.3002 -1.8937
 5925SOL    MW423468   5.096   4.808   4.458  0.0528 -0.2657 -0.0465
 5926SOL     OW23469   4.531   0.241   3.686 -0.0779 -0.2424  0.8407
 5926SOL    HW223470   4.595   0.221   3.618 -0.2238  0.5420  0.4657
 5926SOL    HW323471   4.505   0.155   3.721  1.2635 -0.5702  1.0850
 5926SOL    MW423472   4.536   0.227   3.682 -0.6844  0.0603 -0.6113
 5927SOL     OW23473   5.304   0.555   6.121 -0.1459  0.0344 -0.0015
 5927SOL    HW223474   5.398   0.562   6.136  0.0331  2.7061 -1.6283
 5927SOL    HW323475   5.281   0.636   6.075 -3.2888 -0.4308  0.4993
 5927SOL    MW423476   5.313   0.567   6.117 -0.0551  0.4633  0.9035
 5928SOL     OW23477   5.689   2.972   0.810  0.0864 -0.7569  0.2780
 5928SOL    HW223478   5.752   2.993   0.879  0.9985 -0.9209 -0.4814
 5928SOL    HW323479   5.734   2.906   0.757 -0.1302  0.2275 -1.1595
 5928SOL    MW423480   5.704   2.966   0.812 -0.3042  0.2355  0.2683
 5929SOL     OW23481   5.413   2.871   0.769 -0.1619 -0.1532  0.7117
 5929SOL    HW223482   5.419   2.840   0.678  0.9849  0.7444  0.4701
 5929SOL    HW323483   5.487   2.930   0.779  1.3245 -2.2396  3.0365
 5929SOL    MW423484   5.423   2.874   0.758 -0.2867 -0.6811  0.5872
 5930SOL     OW23485   5.120   3.467   4.923  0.2627  0.2372 -0.4108
 5930SOL    HW223486   5.121   3.407   4.849  1.0482 -0.9739  0.5385
 5930SOL    HW323487   5.128   3.410   5.000  0.1325  1.4979  0.5685
 5930SOL    MW423488   5.121   3.452   4.924  0.3368  0.0831  0.6878
 5931SOL     OW23489   3.045   3.372   4.374 -0.1569  0.4799 -0.3180
 5931SOL    HW223490   3.044   3.277   4.384  0.7870  0.5002  0.0551
 5931SOL    HW323491   2.965   3.402   4.415 -0.7265 -0.1948 -0.9100
 5931SOL    MW423492   3.035   3.364   4.381  0.4659 -0.4250  0.4179
 5932SOL     OW23493   2.324   1.053   3.972 -0.0986  0.0011  0.1161
 5932SOL    HW223494   2.251   1.088   4.022 -1.0542 -0.9024 -0.5766
 5932SOL    HW323495   2.306   0.959   3.967  1.3863 -0.3225  0.3520
 5932SOL    MW423496   2.312   1.045   3.978  0.4611 -0.0313 -0.3133
 5933SOL     OW23497   1.361   4.984   6.162 -0.5967 -0.9020 -0.7579
 5933SOL    HW223498   1.406   5.057   6.120  0.2327 -1.2933 -0.5783
 5933SOL    HW323499   1.389   4.907   6.112  0.5090 -1.3939  0.5491
 5933SOL    MW423500   1.371   4.984   6.149 -0.2024  0.1024 -0.0762
 5934SOL     OW23501   2.538   4.248   1.077 -0.1357 -0.0920  0.0669
 5934SOL    HW223502   2.588   4.203   1.009  0.2656 -2.7307  1.9611
 5934SOL    HW323503   2.447   4.226   1.058  0.0566 -1.7680  0.9587
 5934SOL    MW423504   2.533   4.239   1.065 -0.1775  0.0303  0.1387
 5935SOL     OW23505   2.462   0.944   2.822  0.1715  0.1034 -0.2864
 5935SOL    HW223506   2.455   0.977   2.732  2.6291 -2.0878 -1.4203
 5935SOL    HW323507   2.422   0.857   2.818  0.9805 -0.3187  0.5049
 5935SOL    MW423508   2.456   0.937   2.809  0.2741 -0.6486 -0.0714
 5936SOL     OW23509   5.591   4.159   0.500 -0.2167  0.3767 -0.2339
 5936SOL    HW223510   5.620   4.161   0.409 -0.3351 -0.9588 -0.3145
 5936SOL    HW323511   5.593   4.251   0.528  1.7115  0.5957 -0.9680
 5936SOL    MW423512   5.595   4.171   0.492 -0.4067 -0.2289 -0.1741
 5937SOL     OW23513   0.543   2.828   3.311 -0.0453 -0.2238 -0.1557
 5937SOL    HW223514   0.636   2.823   3.290 -0.2011 -0.3819 -0.8183
 5937SOL    HW323515   0.528   2.757   3.373  0.2872 -0.1539  0.0064
 5937SOL    MW423516   0.554   2.818   3.317 -0.0377  0.2328  0.2021
 5938SOL     OW23517   1.371   2.442   0.714  0.2726  0.8179  0.3780
 5938SOL    HW223518   1.317   2.371   0.680  1.1897 -0.8915  2.3271
 5938SOL    HW323519   1.336   2.459   0.802  1.8058  0.8431  1.0180
 5938SOL    MW423520   1.359   2.435   0.721 -0.2538 -0.1953 -0.1646
 5939SOL     OW23521   2.918   2.594   5.111 -0.1164 -0.0307 -0.2104
 5939SOL    HW223522   2.855   2.542   5.160  0.4685 -0.7567 -0.2005
 5939SOL    HW323523   3.003   2.572   5.150  0.0678  1.6266  0.3808
 5939SOL    MW423524   2.921   2.584   5.122  0.2759  0.0830 -0.2815
 5940SOL     OW23525   3.422   1.754   1.582 -0.2362 -0.1156 -0.0890
 5940SOL    HW223526   3.391   1.828   1.529 -2.1188  0.0845  1.1738
 5940SOL    HW323527   3.385   1.677   1.538 -1.3612  0.0107  0.5951
 5940SOL    MW423528   3.413   1.753   1.569  0.2104  0.0979 -0.1206
 5941SOL     OW23529   4.058   5.566   3.856  0.6408 -0.0808  0.2030
 5941SOL    HW223530   4.129   5.594   3.914  0.7640 -1.1122  0.5758
 5941SOL    HW323531   4.096   5.496   3.804 -0.1976 -0.8879  0.6515
 5941SOL    MW423532   4.072   5.561   3.857  0.1491 -0.0154 -0.0826
 5942SOL     OW23533   1.416   2.049   5.728 -0.0419  0.9116 -0.0993
 5942SOL    HW223534   1.471   2.099   5.667  2.1632  1.2150  2.0085
 5942SOL    HW323535   1.364   1.992   5.671  3.6882 -0.6883 -2.2841
 5942SOL    MW423536   1.416   2.048   5.712 -0.0076 -0.3404 -0.4837
 5943SOL     OW23537   0.433   3.484   2.853 -0.0615 -0.2234 -0.5742
 5943SOL    HW223538   0.363   3.445   2.906  1.8061 -0.7311  1.7410
 5943SOL    HW323539   0.437   3.575   2.882 -0.2709  0.0049 -1.2643
 5943SOL    MW423540   0.424   3.491   2.864 -0.0229 -0.3244 -0.2889
 5944SOL     OW23541   2.359   1.455   4.946 -0.4370 -0.2691 -0.1771
 5944SOL    HW223542   2.395   1.524   5.003 -1.3322  1.3464 -1.4688
 5944SOL    HW323543   2.384   1.483   4.858 -2.0463 -0.8517 -0.8349
 5944SOL    MW423544   2.367   1.468   4.942 -0.1425  0.3905 -0.3825
 5945SOL     OW23545   1.865   2.730   5.104 -0.3397 -0.1819 -0.4315
 5945SOL    HW223546   1.884   2.650   5.053  0.4551  0.2752 -0.8706
 5945SOL    HW323547   1.844   2.697   5.192 -2.5571 -1.0470 -1.2183
 5945SOL    MW423548   1.865   2.715   5.109  0.1791 -0.7898  0.0883
 5946SOL     OW23549   5.938   5.403   0.295  0.2387 -0.3677  0.1233
 5946SOL    HW223550   5.894   5.475   0.251  1.2878 -0.7307 -1.5968
 5946SOL    HW323551   5.969   5.346   0.224 -1.1244 -2.9015  1.4029
 5946SOL    MW423552   5.936   5.405   0.280  0.5323 -0.3612  0.0047
 5947SOL     OW23553   2.162   0.204   3.178  0.1053  0.3060  0.2526
 5947SOL    HW223554   2.132   0.185   3.267 -0.9819 -1.2776 -0.3967
 5947SOL    HW323555   2.081   0.225   3.130  0.6450  0.8515 -0.4415
 5947SOL    MW423556   2.147   0.205   3.184  0.3437  0.9245  0.5530
 5948SOL     OW23557   0.131   2.046   5.406  0.6884  0.0440  0.0215
 5948SOL    HW223558   0.180   2.001   5.474  2.1023  1.5324  0.0535
 5948SOL    HW323559   0.185   2.122   5.384 -0.7070  0.6985 -1.3294
 5948SOL    MW423560   0.145   2.050   5.412  0.0311 -0.2114 -0.3072
 5949SOL     OW23561   0.856   5.173   5.347  0.1232 -0.4521  0.5835
 5949SOL    HW223562   0.810   5.247   5.308  1.3482  0.7458  1.3222
 5949SOL    HW323563   0.921   5.213   5.405  0.6228 -2.1172  1.2275
 5949SOL    MW423564   0.859   5.188   5.350 -0.3950 -0.0933  0.3890
 5950SOL     OW23565   2.974   1.123   4.952 -0.8043 -0.1815 -0.4032
 5950SOL    HW223566   3.008   1.044   4.994 -0.2647 -0.5996 -1.5789
 5950SOL    HW323567   2.918   1.163   5.018  0.0773 -0.7661  0.7318
 5950SOL    MW423568   2.971   1.117   4.966  0.1071 -0.0984  0.0555
 5951SOL     OW23569   4.241   4.833   0.854  0.1935 -0.3435 -0.5151
 5951SOL    HW223570   4.301   4.852   0.782  1.5066 -0.5061  0.5193
 5951SOL    HW323571   4.265   4.744   0.882 -0.6951 -0.5068 -0.2396
 5951SOL    MW423572   4.252   4.824   0.848 -0.2729  0.1843 -0.3903
 5952SOL     OW23573   1.289   0.136   6.370 -0.4171  0.0652 -0.2762
 5952SOL    HW223574   1.331   0.219   6.347  0.4820  0.0822  1.3144
 5952SOL    HW323575   1.359   0.071   6.365 -0.6381 -0.2438  0.4693
 5952SOL    MW423576   1.304   0.138   6.366 -0.3836  0.5410 -0.6431
 5953SOL     OW23577   5.135   0.258   3.772  0.8536 -0.2824  0.2969
 5953SOL    HW223578   5.125   0.282   3.864  1.1426 -0.3541  0.3475
 5953SOL    HW323579   5.209   0.197   3.770  0.6004 -0.5893  0.0684
 5953SOL    MW423580   5.144   0.253   3.784 -0.2973 -0.5402 -0.5474
 5954SOL     OW23581   5.254   4.158   5.557  0.5212  0.4874  0.0336
 5954SOL    HW223582   5.202   4.078   5.547 -0.1962  1.0905 -1.2043
 5954SOL    HW323583   5.223   4.197   5.639  1.2010 -0.7111  0.9002
 5954SOL    MW423584   5.243   4.152   5.567  0.2359  0.1470 -0.3453
 5955SOL     OW23585   2.026   6.109   5.609  0.0059 -0.5216 -0.0204
 5955SOL    HW223586   2.052   6.094   5.700 -0.3892  2.2908  0.6423
 5955SOL    HW323587   1.997   6.200   5.607 -0.7948 -0.7513 -2.8077
 5955SOL    MW423588   2.026   6.119   5.621 -0.5898  0.1077 -0.4800
 5956SOL     OW23589   1.906   4.600   2.190 -0.0872 -0.2357  0.1467
 5956SOL    HW223590   1.861   4.568   2.269 -0.8303 -1.1581 -0.6318
 5956SOL    HW323591   1.999   4.581   2.208  0.0717  1.7033  1.7644
 5956SOL    MW423592   1.913   4.593   2.203  0.0598  0.0638  0.0881
 5957SOL     OW23593   4.883   4.630   0.150  0.1478 -0.4969  0.2439
 5957SOL    HW223594   4.883   4.557   0.211  0.8335  0.6657  1.7082
 5957SOL    HW323595   4.871   4.708   0.205  2.9362  0.8003 -0.7975
 5957SOL    MW423596   4.881   4.631   0.165 -0.1666  0.2077 -0.7847
 5958SOL     OW23597   5.226   4.553   4.020  0.2935  0.1690  0.5147
 5958SOL    HW223598   5.175   4.523   3.945  1.9535  1.9864 -1.4934
 5958SOL    HW323599   5.308   4.503   4.015  0.3333  0.1500  1.2589
 5958SOL    MW423600   5.230   4.543   4.009  0.8797 -0.3134 -0.0643
 5959SOL     OW23601   0.935   2.132   4.960  0.2213  0.1670 -0.2403
 5959SOL    HW223602   0.850   2.155   4.998 -0.2849  0.7168 -1.6267
 5959SOL    HW323603   0.991   2.207   4.978 -0.3378  0.9110 -1.4977
 5959SOL    MW423604   0.931   2.145   4.967  0.5757 -0.0539  0.3921
 5960SOL     OW23605   3.669   4.965   4.405 -0.1529  0.0838  0.6761
 5960SOL    HW223606   3.609   4.892   4.388  1.4155 -1.9269  3.0581
 5960SOL    HW323607   3.705   4.986   4.320  0.4544 -3.0291  0.0344
 5960SOL    MW423608   3.666   4.958   4.392  0.3215  0.5992  0.3860
 5961SOL     OW23609   2.015   1.442   5.327 -0.3555 -0.0729  0.2517
 5961SOL    HW223610   2.022   1.411   5.237 -2.4041  1.4376 -0.5032
 5961SOL    HW323611   1.922   1.458   5.340 -0.2980 -1.4067  3.0977
 5961SOL    MW423612   2.004   1.440   5.317 -0.1368 -0.2080  0.0742
 5962SOL     OW23613   1.143   4.786   3.685  0.1127  0.0678  0.3726
 5962SOL    HW223614   1.107   4.757   3.769 -1.9503  2.4757  0.4667
 5962SOL    HW323615   1.222   4.834   3.709  0.3102 -0.4624  0.8024
 5962SOL    MW423616   1.148   4.789   3.700  0.4515 -0.2980  0.2767
 5963SOL     OW23617   0.766   0.171   6.289  0.2328  0.4719  0.2471
 5963SOL    HW223618   0.855   0.178   6.254 -0.0345 -2.1372 -1.2620
 5963SOL    HW323619   0.767   0.221   6.370  2.0198  3.6218 -1.5406
 5963SOL    MW423620   0.778   0.178   6.295  0.2705  0.7349 -1.1452
 5964SOL     OW23621   0.626   4.297   5.640 -0.0212  0.3511  0.1185
 5964SOL    HW223622   0.593   4.354   5.570  0.0650  0.3806  0.1013
 5964SOL    HW323623   0.548   4.265   5.684 -0.0507  1.7969  1.1846
 5964SOL    MW423624   0.612   4.301   5.636 -0.4499 -0.0283 -0.4007
 5965SOL     OW23625   5.529   4.792   1.744 -0.3467 -0.0575 -0.5118
 5965SOL    HW223626   5.544   4.776   1.650 -0.1967  0.8458 -0.6539
 5965SOL    HW323627   5.439   4.765   1.759 -0.1669 -0.8153 -0.7736
 5965SOL    MW423628   5.520   4.786   1.733  0.2061 -0.0643 -0.1933
 5966SOL     OW23629   4.701   4.329   0.676  0.6593  0.3792  0.1270
 5966SOL    HW223630   4.782   4.374   0.700  0.6552 -0.9334  2.9420
 5966SOL    HW323631   4.640   4.348   0.748 -0.6075 -0.9779 -0.5314
 5966SOL    MW423632   4.703   4.338   0.689 -0.2470 -0.1684  0.1041
 5967SOL     OW23633   0.315   3.120   6.279  0.3187 -0.2733  0.1659
 5967SOL    HW223634   0.336   3.026   6.282 -2.0308 -0.9456 -1.8538
 5967SOL    HW323635   0.391   3.160   6.237  0.9097 -1.4302  0.0948
 5967SOL    MW423636   0.328   3.113   6.274  0.3080  0.1443 -0.4737
 5968SOL     OW23637   0.636   4.602   4.460 -0.4301  0.3469  0.1453
 5968SOL    HW223638   0.716   4.634   4.418 -0.8970  0.4810 -0.6678
 5968SOL    HW323639   0.613   4.669   4.523 -2.1478  2.4451 -2.4692
 5968SOL    MW423640   0.643   4.615   4.463 -0.1898  0.2120  0.1312
 5969SOL     OW23641   0.035   3.053   4.769 -0.1511 -0.0577  0.1631
 5969SOL    HW223642   0.029   3.148   4.758  0.3029  0.1053  1.2599
 5969SOL    HW323643   0.025   3.019   4.680  0.2580  1.0419 -0.3273
 5969SOL    MW423644   0.033   3.061   4.755 -0.1857 -0.1042 -0.2960
 5970SOL     OW23645   4.115   1.740   5.053 -0.0749 -0.0075  0.4554
 5970SOL    HW223646   4.129   1.761   4.961 -0.5210  2.9091  0.9616
 5970SOL    HW323647   4.025   1.708   5.057  0.2061 -0.9036 -0.2117
 5970SOL    MW423648   4.105   1.738   5.042  0.4028  0.0210 -0.7518
 5971SOL     OW23649   4.300   0.858   0.427 -0.2741  0.7477  0.1046
 5971SOL    HW223650   4.361   0.785   0.413 -1.2561  0.0216 -0.5560
 5971SOL    HW323651   4.236   0.824   0.490 -0.5551  1.1442  0.0357
 5971SOL    MW423652   4.299   0.844   0.433 -0.4422  0.4049 -0.3855
 5972SOL     OW23653   2.432   3.614   1.942  0.7170  0.4333 -1.2214
 5972SOL    HW223654   2.524   3.591   1.932  1.2731  0.6789  2.0760
 5972SOL    HW323655   2.421   3.692   1.888  2.2467 -0.0228 -2.2584
 5972SOL    MW423656   2.443   3.621   1.934 -0.2947  0.1956  0.7263
 5973SOL     OW23657   3.399   5.527   5.581 -0.2647  0.2363  0.3889
 5973SOL    HW223658   3.359   5.553   5.664 -0.6522  1.2192 -0.0863
 5973SOL    HW323659   3.326   5.526   5.519  0.1721  0.4413 -0.1338
 5973SOL    MW423660   3.384   5.530   5.584  0.2530 -0.0060 -0.0763
 5974SOL     OW23661   4.135   2.240   1.483  0.2216  0.0158  0.5555
 5974SOL    HW223662   4.170   2.324   1.452 -1.4180  0.2968 -0.7062
 5974SOL    HW323663   4.174   2.175   1.423 -2.4294  0.4903 -1.8994
 5974SOL    MW423664   4.145   2.243   1.471  0.3468 -0.2472  0.3375
 5975SOL     OW23665   3.069   5.546   5.871  0.0133  0.3308  0.5286
 5975SOL    HW223666   3.157   5.585   5.868  1.2021 -2.1522  0.4585
 5975SOL    HW323667   3.041   5.557   5.961  0.4105  1.1003  0.5658
 5975SOL    MW423668   3.077   5.553   5.882  0.1185 -0.4608  0.2231
 5976SOL     OW23669   3.993   3.753   0.086 -0.3879 -0.2096  0.4244
 5976SOL    HW223670   4.002   3.699   0.007  0.7458 -2.4753  1.9976
 5976SOL    HW323671   3.941   3.699   0.146 -1.3794  1.5381  1.1944
 5976SOL    MW423672   3.988   3.738   0.083 -0.4867  0.4357 -0.2832
 5977SOL     OW23673   3.563   5.332   4.319 -0.6457  0.5721 -0.3817
 5977SOL    HW223674   3.603   5.294   4.241 -0.1958  2.2258 -1.0179
 5977SOL    HW323675   3.521   5.412   4.287 -0.4687  1.2715  1.0670
 5977SOL    MW423676   3.563   5.338   4.304 -0.5538 -0.6919 -0.0489
 5978SOL     OW23677   1.890   5.400   6.288  0.8213  0.5569 -0.1325
 5978SOL    HW223678   1.809   5.418   6.240 -0.0933 -1.8248  0.3804
 5978SOL    HW323679   1.958   5.397   6.220 -0.3924 -2.4439 -1.3864
 5978SOL    MW423680   1.889   5.402   6.272 -0.3537 -0.5322  0.6723
 5979SOL     OW23681   1.183   5.416   1.315 -0.1371  0.4605  0.2107
 5979SOL    HW223682   1.157   5.329   1.345 -0.4944  0.5364  0.1215
 5979SOL    HW323683   1.251   5.400   1.249  0.8999  0.3036  1.2960
 5979SOL    MW423684   1.189   5.403   1.310  0.3392  0.5229 -0.3264
 5980SOL     OW23685   2.208   3.392   3.632  0.1063 -0.6085 -0.0736
 5980SOL    HW223686   2.245   3.475   3.602  1.1183 -1.2912 -0.7892
 5980SOL    HW323687   2.213   3.334   3.556  1.8039 -2.0961  1.0574
 5980SOL    MW423688   2.214   3.395   3.618 -0.2371 -0.2208  0.3690
 5981SOL     OW23689   0.179   0.583   4.730  0.0305 -0.0524 -0.1955
 5981SOL    HW223690   0.177   0.533   4.648  1.2832  0.2338 -0.4227
 5981SOL    HW323691   0.185   0.675   4.702  0.9691  0.0191  0.1984
 5981SOL    MW423692   0.180   0.589   4.716 -0.0161  0.2562 -0.2779
 5982SOL     OW23693   6.433   4.076   4.407  0.6262  0.4177 -0.5500
 5982SOL    HW223694   6.458   4.061   4.498  1.2366  1.0628 -0.6057
 5982SOL    HW323695   6.413   4.169   4.403  0.5285  0.3751 -1.0625
 5982SOL    MW423696   6.434   4.086   4.419 -0.2419 -0.3383 -0.1761
 5983SOL     OW23697   2.852   5.691   3.871 -0.0492 -0.0215  0.0884
 5983SOL    HW223698   2.918   5.626   3.848  0.9539  1.3529 -1.1198
 5983SOL    HW323699   2.806   5.708   3.788  1.0425  2.2174 -0.1319
 5983SOL    MW423700   2.854   5.685   3.857  0.0264  0.1696 -0.2014
 5984SOL     OW23701   2.055   2.522   0.997  0.9771 -0.1161 -0.0910
 5984SOL    HW223702   2.104   2.581   0.940  0.7768 -0.6400 -0.8209
 5984SOL    HW323703   2.109   2.443   1.001  1.5671  0.3435  1.4149
 5984SOL    MW423704   2.069   2.519   0.990  0.2490  0.7016  0.0839
 5985SOL     OW23705   3.248   5.541   4.581 -0.5604  0.1017 -0.1386
 5985SOL    HW223706   3.164   5.503   4.609 -0.1346 -1.0317 -0.3372
 5985SOL    HW323707   3.235   5.564   4.489 -0.6440 -0.0875 -0.1744
 5985SOL    MW423708   3.235   5.539   4.573  0.6453 -0.0782 -0.2307
 5986SOL     OW23709   4.413   5.535   3.425 -0.0661 -0.6181 -0.4757
 5986SOL    HW223710   4.466   5.558   3.348  0.0825  1.3056  0.1519
 5986SOL    HW323711   4.327   5.571   3.406 -0.3337 -1.1140 -0.2093
 5986SOL    MW423712   4.409   5.543   3.412  0.0824 -0.1081 -0.0279
 5987SOL     OW23713   0.400   3.006   2.055  0.4481 -0.3812  0.1041
 5987SOL    HW223714   0.443   3.070   2.111  0.0282  0.0584 -0.0734
 5987SOL    HW323715   0.313   2.994   2.093  1.0168 -1.9623  1.0088
 5987SOL    MW423716   0.394   3.013   2.067  0.6849  0.0236 -0.2186
 5988SOL     OW23717   2.390   1.882   3.249  0.6371 -0.2520 -0.1242
 5988SOL    HW223718   2.416   1.956   3.194  1.6423 -0.3269  0.2326
 5988SOL    HW323719   2.393   1.916   3.338 -0.8424 -0.1734 -0.0795
 5988SOL    MW423720   2.393   1.896   3.253 -0.2811  0.5780  0.0167
 5989SOL     OW23721   5.065   1.042   1.631  0.1284  0.3753  0.3806
 5989SOL    HW223722   5.031   0.998   1.708  0.2586  0.0886  0.2774
 5989SOL    HW323723   5.142   1.089   1.662 -0.0123  0.5316  0.4919
 5989SOL    MW423724   5.071   1.042   1.645  0.3768  0.2044  0.1007
 5990SOL     OW23725   1.520   5.712   3.699 -0.5297  0.5807 -0.1614
 5990SOL    HW223726   1.484   5.756   3.776 -4.7943 -0.4237 -1.3160
 5990SOL    HW323727   1.537   5.783   3.637  0.2802  1.1489  0.6687
 5990SOL    MW423728   1.518   5.727   3.701 -0.0198  0.1858 -0.0579
 5991SOL     OW23729   3.630   4.074   2.443 -0.7598  0.2454 -0.5986
 5991SOL    HW223730   3.698   4.011   2.418 -0.1633 -0.1460  1.7816
 5991SOL    HW323731   3.552   4.020   2.456 -0.4179  0.0382  0.7769
 5991SOL    MW423732   3.628   4.058   2.441 -0.4692  0.1113 -0.2253
 5992SOL     OW23733   1.899   3.348   5.188  0.1615  0.1804 -0.0378
 5992SOL    HW223734   1.884   3.257   5.160 -1.2181  0.4822 -0.3503
 5992SOL    HW323735   1.847   3.358   5.268  2.3040 -0.0080  1.4537
 5992SOL    MW423736   1.890   3.337   5.195  0.1829  0.0754 -0.4309
 5993SOL     OW23737   3.852   3.261   1.632  0.7021  0.3689  0.2436
 5993SOL    HW223738   3.819   3.238   1.545  0.4265 -1.2635  0.7514
 5993SOL    HW323739   3.849   3.357   1.634 -1.2439  0.3736 -0.7833
 5993SOL    MW423740   3.848   3.271   1.621  0.2584 -0.6276 -0.0697
 5994SOL     OW23741   1.711   5.665   5.766  0.1373  0.4836 -0.4056
 5994SOL    HW223742   1.680   5.724   5.834 -0.3611  0.7495 -0.8546
 5994SOL    HW323743   1.743   5.722   5.697 -0.0954  0.2347 -0.7276
 5994SOL    MW423744   1.711   5.680   5.766  0.3154  0.3253  0.0551
 5995SOL     OW23745   5.473   5.004   0.413  0.2187 -0.2249 -0.8652
 5995SOL    HW223746   5.495   4.932   0.354 -0.8899  0.4020 -2.0961
 5995SOL    HW323747   5.470   5.081   0.357 -0.4843  0.4698  0.0897
 5995SOL    MW423748   5.476   5.005   0.398  0.0527  0.2280 -0.0622
 5996SOL     OW23749   6.310   4.078   5.328 -0.0509  0.7864  0.0415
 5996SOL    HW223750   6.346   4.118   5.407  0.4790  0.6091 -0.0986
 5996SOL    HW323751   6.386   4.067   5.270 -0.4214  0.8714 -0.4738
 5996SOL    MW423752   6.325   4.082   5.330 -0.1073  0.1711  0.2391
 5997SOL     OW23753   5.231   3.253   4.749 -0.4877 -0.8287 -0.2517
 5997SOL    HW223754   5.196   3.287   4.667  1.2981 -0.1189 -0.7603
 5997SOL    HW323755   5.326   3.252   4.736 -0.2733 -3.2467  0.8182
 5997SOL    MW423756   5.239   3.257   4.736 -0.1181 -0.0431 -0.1104
 5998SOL     OW23757   2.871   2.699   3.318  0.1149 -0.7412  0.1580
 5998SOL    HW223758   2.845   2.652   3.397 -0.3564 -0.6704  0.0420
 5998SOL    HW323759   2.859   2.636   3.247  3.8312 -2.0767  0.4551
 5998SOL    MW423760   2.866   2.684   3.319  0.6450 -0.8624 -0.1397
 5999SOL     OW23761   3.054   4.572   3.168  0.5981 -0.3605  0.4526
 5999SOL    HW223762   3.120   4.593   3.234  1.7349 -1.5208 -0.2641
 5999SOL    HW323763   3.082   4.620   3.090 -0.9186  1.2671  0.8380
 5999SOL    MW423764   3.066   4.581   3.167  0.0093 -0.1380  0.0190
 6000SOL     OW23765   2.908   3.920   2.368 -0.2455  0.1130  0.0271
 6000SOL    HW223766   2.861   3.850   2.321  0.0739  0.9370 -1.6058
 6000SOL    HW323767   2.891   3.902   2.460  0.7902 -2.8109 -0.2507
 6000SOL    MW423768   2.899   3.908   2.374 -0.8665  0.1486  0.4568
 6001SOL     OW23769   1.483   2.204   1.796  0.3594  0.3886  0.2134
 6001SOL    HW223770   1.492   2.234   1.706 -0.2212  1.7979  0.6066
 6001SOL    HW323771   1.388   2.199   1.811  0.4386 -0.7484  0.4684
 6001SOL    MW423772   1.471   2.207   1.786 -0.1847  0.2722 -0.5031
 6002SOL     OW23773   2.496   3.435   3.254  0.4503 -0.8305 -0.3403
 6002SOL    HW223774   2.449   3.374   3.309  0.9653 -0.7609  0.1881
 6002SOL    HW323775   2.581   3.446   3.297 -0.3701  1.9202  0.7766
 6002SOL    MW423776   2.501   3.429   3.267 -0.1845  0.1763 -0.2813
 6003SOL     OW23777   5.173   1.824   3.415 -0.4768 -0.1592 -0.1723
 6003SOL    HW223778   5.116   1.813   3.338  0.0098 -0.7414 -0.4547
 6003SOL    HW323779   5.156   1.747   3.469 -0.8119  0.2463  0.3087
 6003SOL    MW423780   5.163   1.812   3.412  0.3896 -0.6024  0.5179
 6004SOL     OW23781   3.446   4.884   1.909 -0.0398  0.2697 -0.2613
 6004SOL    HW223782   3.462   4.790   1.899  0.6549  0.2710  0.6771
 6004SOL    HW323783   3.354   4.891   1.933 -0.5763 -0.0271 -2.1238
 6004SOL    MW423784   3.436   4.872   1.911  0.2890  0.4199  0.0974
 6005SOL     OW23785   1.397   0.212   4.077 -0.7200 -0.0638  0.2138
 6005SOL    HW223786   1.419   0.175   4.163  0.3034  1.6577  0.7524
 6005SOL    HW323787   1.482   0.217   4.032 -1.2262 -0.7894 -0.8512
 6005SOL    MW423788   1.411   0.208   4.083 -0.0426 -0.0315  0.1040
 6006SOL     OW23789   2.003   3.389   1.463 -0.0201  0.2058 -0.5105
 6006SOL    HW223790   1.915   3.372   1.430 -1.0260  0.2357  1.9577
 6006SOL    HW323791   2.025   3.475   1.429 -0.6735 -0.0489 -1.6382
 6006SOL    MW423792   1.995   3.398   1.454  0.4492  0.2468 -0.3681
 6007SOL     OW23793   4.867   4.060   4.128 -0.0884  0.1315  0.1223
 6007SOL    HW223794   4.953   4.087   4.096  0.1372 -0.3732  0.2963
 6007SOL    HW323795   4.859   3.969   4.103 -0.8477  0.3440 -0.4627
 6007SOL    MW423796   4.877   4.052   4.121 -0.5359  0.3339  0.1396
 6008SOL     OW23797   3.901   4.592   1.069  0.4408 -0.2281 -0.2263
 6008SOL    HW223798   3.877   4.543   0.991  0.4158 -0.4677 -0.0712
 6008SOL    HW323799   3.945   4.670   1.037 -0.2887  0.0749 -0.5120
 6008SOL    MW423800   3.904   4.596   1.055 -0.6200  0.0054  0.6049
 6009SOL     OW23801   0.512   0.619   2.009  0.0016  0.1684  0.0564
 6009SOL    HW223802   0.538   0.631   1.918  2.3865  0.1922  0.6626
 6009SOL    HW323803   0.510   0.708   2.046  1.0106  0.0370  0.4705
 6009SOL    MW423804   0.515   0.633   2.002  0.0064 -0.2209  0.3595
 6010SOL     OW23805   6.422   3.735   5.131  0.0481  0.0769 -0.4672
 6010SOL    HW223806   6.341   3.735   5.181 -0.1174 -0.4654 -0.7359
 6010SOL    HW323807   6.417   3.657   5.076  0.5009  0.3394 -0.8878
 6010SOL    MW423808   6.411   3.725   5.130 -0.1623 -0.1980 -0.4873
 6011SOL     OW23809   4.063   0.232   2.187 -0.8691 -0.1200  0.2147
 6011SOL    HW223810   4.041   0.235   2.280 -0.0701 -1.0232  0.4467
 6011SOL    HW323811   4.106   0.316   2.170  1.5708 -1.0442  1.3755
 6011SOL    MW423812   4.066   0.243   2.197  0.3163 -0.6488  0.4078
 6012SOL     OW23813   5.608   0.590   1.430 -0.5916 -0.2809  0.5219
 6012SOL    HW223814   5.696   0.576   1.464  0.2386 -0.1643 -1.4890
 6012SOL    HW323815   5.618   0.593   1.335 -2.9488 -1.6332  0.1477
 6012SOL    MW423816   5.621   0.588   1.422 -0.3757  0.2522 -0.6713
 6013SOL     OW23817   3.365   0.775   4.407 -0.1632  0.2096  0.4497
 6013SOL    HW223818   3.299   0.835   4.441  0.2114  1.2027 -0.5201
 6013SOL    HW323819   3.325   0.737   4.329  0.8537  1.8255 -0.9216
 6013SOL    MW423820   3.351   0.778   4.402  0.1259  0.4681 -0.8798
 6014SOL     OW23821   2.963   4.174   5.870  0.5774 -0.2646  0.2001
 6014SOL    HW223822   2.963   4.240   5.939  1.2709  0.0825 -0.1144
 6014SOL    HW323823   2.882   4.189   5.821  0.2168 -0.3390  0.7632
 6014SOL    MW423824   2.952   4.185   5.873  0.1909  0.6208 -0.3134
 6015SOL     OW23825   3.315   3.322   1.793 -0.6454  0.0029  0.2387
 6015SOL    HW223826   3.374   3.388   1.758 -2.6138  1.8535  0.2084
 6015SOL    HW323827   3.342   3.311   1.884 -0.8960  1.6252  0.5316
 6015SOL    MW423828   3.326   3.329   1.800 -0.3683  0.1038  0.1365
 6016SOL     OW23829   1.378   5.250   6.369  0.5316  0.0240 -0.2552
 6016SOL    HW223830   1.353   5.270   6.278  0.6465 -0.0966 -0.3142
 6016SOL    HW323831   1.295   5.240   6.415  0.4537  1.1391 -0.1095
 6016SOL    MW423832   1.364   5.251   6.363 -0.1595  0.2788 -0.2051
 6017SOL     OW23833   2.834   6.414   0.699  0.6137 -0.4622 -0.1444
 6017SOL    HW223834   2.886   6.362   0.759  1.0794  1.0298  0.7906
 6017SOL    HW323835   2.805   6.489   0.751 -1.9017 -0.8596 -0.8089
 6017SOL    MW423836   2.837   6.417   0.714 -0.2456 -0.0811 -0.5438
 6018SOL     OW23837   3.912   0.483   6.096  0.3579  0.4041  0.1359
 6018SOL    HW223838   3.966   0.492   6.018  1.2985 -0.2795  0.6947
 6018SOL    HW323839   3.967   0.515   6.167 -0.2580  0.4207  0.6143
 6018SOL    MW423840   3.926   0.489   6.095  0.1539 -0.2038  0.3034
 6019SOL     OW23841   0.183   2.543   3.863 -0.0746  0.2858  0.5569
 6019SOL    HW223842   0.138   2.625   3.840 -1.6494 -0.4229  0.9750
 6019SOL    HW323843   0.112   2.480   3.874  1.1785 -1.8466 -2.3587
 6019SOL    MW423844   0.167   2.546   3.861 -0.5971 -0.1857 -0.3405
 6020SOL     OW23845   2.534   4.078   4.765  0.6147  0.2784  0.0080
 6020SOL    HW223846   2.457   4.023   4.776 -1.0031  2.1015 -1.5330
 6020SOL    HW323847   2.515   4.132   4.688  3.2316  1.1451 -0.1374
 6020SOL    MW423848   2.522   4.078   4.757  0.8755  0.8249  0.2016
 6021SOL     OW23849   4.022   2.450   3.055  0.3291  0.0987 -0.3230
 6021SOL    HW223850   4.108   2.441   3.094  0.9742 -0.3140 -1.7668
 6021SOL    HW323851   3.997   2.541   3.072  1.7723  0.6999 -1.2492
 6021SOL    MW423852   4.030   2.461   3.062 -0.4413 -0.5873  0.0680
 6022SOL     OW23853   5.274   4.989   5.639 -0.6219  0.4599  0.2776
 6022SOL    HW223854   5.314   4.943   5.565  0.5138  1.2897  0.3535
 6022SOL    HW323855   5.197   4.937   5.660 -0.5348 -0.2261 -0.9889
 6022SOL    MW423856   5.269   4.976   5.632 -0.1509 -0.4032 -0.2276
 6023SOL     OW23857   2.681   0.775   2.841 -0.4407 -0.2287 -0.4503
 6023SOL    HW223858   2.602   0.827   2.829  0.2909  1.0934  0.1700
 6023SOL    HW323859   2.649   0.686   2.853 -1.7150 -0.0140 -1.9418
 6023SOL    MW423860   2.666   0.770   2.841 -0.8413  0.3175 -0.1972
 6024SOL     OW23861   4.478   2.163   3.286  0.3177 -0.2494  0.4946
 6024SOL    HW223862   4.427   2.229   3.333  1.4153  0.8032  0.2761
 6024SOL    HW323863   4.553   2.212   3.251  1.1715 -1.6206  0.3418
 6024SOL    MW423864   4.481   2.178   3.288 -0.3846  0.0450 -0.7904
 6025SOL     OW23865   3.608   2.047   4.164  0.6575  0.4366 -0.5768
 6025SOL    HW223866   3.601   1.962   4.208  0.5438  1.2559  1.0441
 6025SOL    HW323867   3.702   2.061   4.153  0.7010  0.3900 -0.2695
 6025SOL    MW423868   3.619   2.038   4.168  0.3902 -0.1246 -0.4700
 6026SOL     OW23869   2.369   2.963   2.547 -0.0301  0.4056 -0.2333
 6026SOL    HW223870   2.383   2.999   2.459  1.6438  0.0224 -0.1488
 6026SOL    HW323871   2.456   2.958   2.586 -0.7526  0.6912  1.5244
 6026SOL    MW423872   2.382   2.967   2.540  0.3897  0.3641  0.0667
 6027SOL     OW23873   3.367   3.407   3.723 -0.3558  0.0494  0.3186
 6027SOL    HW223874   3.425   3.460   3.668  0.8738 -1.2278  0.3361
 6027SOL    HW323875   3.282   3.452   3.719  0.3723  1.4044 -0.5203
 6027SOL    MW423876   3.363   3.420   3.715  0.2765 -0.0267 -0.1416
 6028SOL     OW23877   1.794   3.392   4.697 -0.5335  0.2546  0.2085
 6028SOL    HW223878   1.789   3.478   4.739 -0.7636  0.9737 -1.2422
 6028SOL    HW323879   1.887   3.371   4.697 -0.6318 -0.4527  2.3632
 6028SOL    MW423880   1.805   3.401   4.703 -0.0384  0.2279  0.1595
 6029SOL     OW23881   5.762   5.325   6.144 -0.5097  0.8348  0.4907
 6029SOL    HW223882   5.848   5.345   6.109  0.0770  1.7688  2.3157
 6029SOL    HW323883   5.705   5.321   6.067  1.3346 -1.0945 -0.8858
 6029SOL    MW423884   5.765   5.327   6.129 -0.5687  0.3860 -0.0512
 6030SOL     OW23885   1.860   2.212   4.026  0.3497  0.1216  0.0585
 6030SOL    HW223886   1.869   2.304   4.003  0.5074  0.0375 -0.2204
 6030SOL    HW323887   1.820   2.172   3.949 -1.0870  0.2193  0.7260
 6030SOL    MW423888   1.856   2.219   4.013  0.2078  0.2714  0.3521
 6031SOL     OW23889   5.554   1.781   1.766  0.1300  0.5448 -0.2305
 6031SOL    HW223890   5.494   1.737   1.827 -0.4485  2.5746  0.7556
 6031SOL    HW323891   5.552   1.873   1.793  1.9102  1.0599 -1.6773
 6031SOL    MW423892   5.546   1.788   1.778  0.1680  0.2357  0.8984
 6032SOL     OW23893   4.383   5.848   0.726  0.5003  0.1375  0.5916
 6032SOL    HW223894   4.382   5.753   0.720 -1.7889  0.1919 -1.3879
 6032SOL    HW323895   4.476   5.871   0.732  1.2748 -2.1489 -1.1518
 6032SOL    MW423896   4.395   5.839   0.726  0.3973  0.2296 -0.5419
 6033SOL     OW23897   2.843   2.189   1.542  0.6765  0.0483 -0.9618
 6033SOL    HW223898   2.929   2.188   1.499  0.9934 -4.1918 -0.6953
 6033SOL    HW323899   2.782   2.163   1.473  0.0644  0.2736 -0.5094
 6033SOL    MW423900   2.846   2.185   1.527 -0.4352  0.4611 -0.3369
 6034SOL     OW23901   2.431   3.547   3.911 -0.5573  0.3900 -0.4458
 6034SOL    HW223902   2.344   3.578   3.884 -1.2683 -1.3642 -0.3360
 6034SOL    HW323903   2.419   3.453   3.926  1.2381  0.2163  0.1490
 6034SOL    MW423904   2.418   3.539   3.910  0.9120  0.0433 -0.3135
 6035SOL     OW23905   3.197   1.826   6.002 -0.0104 -0.7887  0.2876
 6035SOL    HW223906   3.174   1.734   5.989 -0.2376 -0.6472 -0.3510
 6035SOL    HW323907   3.290   1.825   6.025  0.1540 -1.1413 -0.3597
 6035SOL    MW423908   3.207   1.814   6.003  0.1154 -0.0210  0.0914
 6036SOL     OW23909   2.117   5.820   2.930  0.2319 -0.3209 -0.3121
 6036SOL    HW223910   2.085   5.908   2.950  1.5376  0.5711 -1.9283
 6036SOL    HW323911   2.038   5.765   2.934 -0.5251  0.7795  1.2321
 6036SOL    MW423912   2.102   5.825   2.933  0.1295  0.7687  1.1465
 6037SOL     OW23913   0.043   5.805   1.273  0.2416  0.1835  0.0972
 6037SOL    HW223914   0.049   5.713   1.246  0.8707  0.3988 -0.5520
 6037SOL    HW323915   0.063   5.805   1.366 -1.9492 -0.5876  0.6299
 6037SOL    MW423916   0.046   5.793   1.281 -0.2818  0.3394 -0.0993
 6038SOL     OW23917   2.537   2.494   4.336  0.6769 -0.3967 -0.3438
 6038SOL    HW223918   2.549   2.485   4.242 -3.0060 -1.9571 -0.8338
 6038SOL    HW323919   2.545   2.405   4.371 -1.1629 -0.3863  0.2457
 6038SOL    MW423920   2.540   2.481   4.328 -0.2046  0.8686  0.3693
 6039SOL     OW23921   3.460   3.211   1.043  0.5127 -0.1081  0.0170
 6039SOL    HW223922   3.455   3.217   1.138  1.6157 -3.3432  0.3788
 6039SOL    HW323923   3.372   3.185   1.015  0.3107  0.3967  0.1672
 6039SOL    MW423924   3.447   3.209   1.052  0.2596  0.6869 -0.5212
 6040SOL     OW23925   5.966   4.935   1.285 -0.0925  0.4891  0.2339
 6040SOL    HW223926   5.984   4.888   1.204 -0.0716  2.3070 -0.8805
 6040SOL    HW323927   5.870   4.942   1.289 -0.1189 -0.0661  0.6590
 6040SOL    MW423928   5.956   4.930   1.275  0.0453 -0.5104 -0.2027
 6041SOL     OW23929   4.076   6.158   0.090 -0.0439 -0.1582 -0.5916
 6041SOL    HW223930   4.060   6.067   0.066  0.0209 -1.0055  2.1854
 6041SOL    HW323931   4.171   6.168   0.087 -0.0973  0.1539 -1.8410
 6041SOL    MW423932   4.086   6.147   0.087 -0.2792  0.0011  0.1596
 6042SOL     OW23933   2.691   2.391   2.461 -0.1395 -0.1976 -0.1697
 6042SOL    HW223934   2.711   2.407   2.554  0.1593 -2.0816  0.1303
 6042SOL    HW323935   2.739   2.460   2.415  1.1148 -0.2403  0.9941
 6042SOL    MW423936   2.700   2.402   2.467 -0.6562 -0.5714  0.0148
 6043SOL     OW23937   4.188   4.896   2.331 -0.2390  0.3899  0.7017
 6043SOL    HW223938   4.225   4.888   2.419 -0.3981  0.7208  0.7999
 6043SOL    HW323939   4.216   4.983   2.301 -1.5823  0.9729  1.0853
 6043SOL    MW423940   4.197   4.906   2.339  0.2142  0.5585  0.1044
 6044SOL     OW23941   1.870   1.833   4.678 -0.0067 -0.2223 -0.3454
 6044SOL    HW223942   1.798   1.895   4.669  1.0594  1.2956  0.9474
 6044SOL    HW323943   1.946   1.880   4.643  0.9730 -0.4567  1.3681
 6044SOL    MW423944   1.871   1.847   4.672  0.2128  0.1697 -0.2942
 6045SOL     OW23945   5.245   5.323   2.466  0.7910 -0.2080  0.2980
 6045SOL    HW223946   5.263   5.295   2.376  0.8268 -1.4091  0.6552
 6045SOL    HW323947   5.318   5.287   2.517  0.1874 -0.5160  0.9676
 6045SOL    MW423948   5.257   5.314   2.461  0.2200  0.3341  0.0591
 6046SOL     OW23949   5.712   0.772   2.259 -0.2909  0.1345 -0.2319
 6046SOL    HW223950   5.637   0.769   2.199 -1.9672 -0.3709  1.8010
 6046SOL    HW323951   5.734   0.865   2.265  0.2732  0.1602 -1.9885
 6046SOL    MW423952   5.705   0.784   2.252 -0.3093 -0.0442  0.0428
 6047SOL     OW23953   3.950   2.918   1.827 -0.0659  0.1597  0.1825
 6047SOL    HW223954   3.962   2.946   1.918  0.8515  0.7508 -0.1136
 6047SOL    HW323955   4.016   2.850   1.813  1.0083  1.3155 -0.5549
 6047SOL    MW423956   3.960   2.913   1.837 -0.9922  0.0427 -0.0634
 6048SOL     OW23957   5.336   4.391   3.002 -0.0418 -0.2271 -0.1715
 6048SOL    HW223958   5.304   4.340   2.927  0.4226  1.6579 -1.7343
 6048SOL    HW323959   5.258   4.409   3.054 -0.6808 -0.1221 -1.1447
 6048SOL    MW423960   5.321   4.387   2.999  0.6686 -0.2051  0.0335
 6049SOL     OW23961   1.002   3.577   4.162 -0.5539  0.2395 -0.2365
 6049SOL    HW223962   1.056   3.645   4.203  1.4396 -0.8176 -0.9623
 6049SOL    HW323963   1.058   3.542   4.093 -1.7980 -1.6865 -0.3185
 6049SOL    MW423964   1.016   3.582   4.158 -0.2347 -0.0342 -0.0328
 6050SOL     OW23965   6.449   5.550   3.927 -0.0541 -0.2371 -0.5185
 6050SOL    HW223966   6.513   5.600   3.978 -0.3949  0.4840 -0.7826
 6050SOL    HW323967   6.379   5.613   3.907 -0.7246 -0.9380 -0.4615
 6050SOL    MW423968   6.448   5.565   3.931 -0.4797 -0.3173 -0.0664
 6051SOL     OW23969   3.879   4.730   0.528 -0.2345 -0.4050  0.3068
 6051SOL    HW223970   3.794   4.722   0.485 -0.0716  1.6206 -0.4948
 6051SOL    HW323971   3.869   4.805   0.588  1.6207  1.5469 -1.6192
 6051SOL    MW423972   3.866   4.739   0.530  0.4092  0.1585 -0.0961
 6052SOL     OW23973   2.787   2.072   2.770  0.1940  0.1514 -0.2170
 6052SOL    HW223974   2.800   2.018   2.848  1.2293 -0.3830 -0.7417
 6052SOL    HW323975   2.826   2.156   2.792 -0.0443  0.1899  0.0553
 6052SOL    MW423976   2.794   2.076   2.783 -0.1732 -0.2345  0.0176
 6053SOL     OW23977   3.133   2.175   3.614  0.0464 -1.2205 -0.2077
 6053SOL    HW223978   3.134   2.133   3.528  1.4736 -3.1498  0.6818
 6053SOL    HW323979   3.107   2.106   3.675 -1.8417  0.3279  0.8698
 6053SOL    MW423980   3.130   2.160   3.611  0.0264 -0.6330 -0.5587
 6054SOL     OW23981   5.042   2.628   6.021 -0.2495 -0.3244  0.2022
 6054SOL    HW223982   5.030   2.570   6.096 -1.1221  0.2949  0.5660
 6054SOL    HW323983   5.112   2.687   6.047 -0.8244  0.1508  0.7170
 6054SOL    MW423984   5.049   2.628   6.035  0.3151 -0.3907 -0.6196
 6055SOL     OW23985   1.898   1.545   6.134 -0.1265  0.2159 -0.6612
 6055SOL    HW223986   1.868   1.579   6.050 -0.5015 -2.1537 -1.5649
 6055SOL    HW323987   1.984   1.508   6.116  0.9925  2.0047  0.6533
 6055SOL    MW423988   1.905   1.545   6.121 -0.1364 -0.0963 -0.0580
 6056SOL     OW23989   4.942   0.144   1.829 -0.7540 -0.3728  0.3489
 6056SOL    HW223990   4.884   0.185   1.765 -0.4445 -1.1656 -0.4558
 6056SOL    HW323991   5.019   0.118   1.778  0.5928  1.1944  1.4992
 6056SOL    MW423992   4.944   0.146   1.814  0.2418  0.0830  0.1195
 6057SOL     OW23993   4.462   1.223   4.534  0.0510 -0.6784 -0.1551
 6057SOL    HW223994   4.515   1.161   4.484 -0.7109 -0.9956 -0.5802
 6057SOL    HW323995   4.519   1.299   4.545  0.9532 -1.3911  0.2614
 6057SOL    MW423996   4.476   1.225   4.529  0.1385 -0.5339  0.3454
 6058SOL     OW23997   1.699   3.659   1.611 -0.2231  0.1592 -0.2945
 6058SOL    HW223998   1.667   3.711   1.684 -1.8744  0.3002 -1.0844
 6058SOL    HW323999   1.723   3.575   1.650 -3.2661 -0.6171  0.1333
 6058SOL    MW424000   1.698   3.655   1.626  0.3743 -0.0428 -0.4208
 6059SOL     OW24001   4.866   4.649   3.422 -0.1899 -0.2881  0.2676
 6059SOL    HW224002   4.908   4.667   3.338 -0.0120  0.7094  0.5563
 6059SOL    HW324003   4.912   4.705   3.485 -0.2709 -1.0730  1.0524
 6059SOL    MW424004   4.877   4.659   3.419 -0.3158 -0.4637  0.1701
 6060SOL     OW24005   5.430   4.895   1.255  0.4106 -0.2170  0.3878
 6060SOL    HW224006   5.435   4.980   1.300  2.0241  1.7366 -3.0607
 6060SOL    HW324007   5.338   4.871   1.260 -0.9217  3.6603 -1.5109
 6060SOL    MW424008   5.419   4.903   1.262  0.5549  0.0796 -0.5064
 6061SOL     OW24009   5.238   6.202   2.552 -0.0851 -0.4864 -0.7248
 6061SOL    HW224010   5.170   6.156   2.602  0.9368 -1.2981 -0.0449
 6061SOL    HW324011   5.201   6.211   2.464 -1.2452 -0.5166 -0.2607
 6061SOL    MW424012   5.224   6.197   2.547 -0.2065 -0.1257 -0.1344
 6062SOL     OW24013   1.233   4.840   5.711 -0.0345 -0.3185 -0.3291
 6062SOL    HW224014   1.255   4.790   5.632 -1.0777 -1.0846 -0.1463
 6062SOL    HW324015   1.215   4.774   5.778 -2.4494  0.2227 -0.3467
 6062SOL    MW424016   1.234   4.825   5.709  0.0175 -0.1795  0.3552
 6063SOL     OW24017   6.296   4.806   5.458  0.1926 -0.1420  0.8568
 6063SOL    HW224018   6.265   4.770   5.541  0.1222  0.7112  1.2045
 6063SOL    HW324019   6.351   4.880   5.482  0.4138 -0.0667  0.1489
 6063SOL    MW424020   6.299   4.811   5.472  0.1198  0.0113 -0.4065
 6064SOL     OW24021   5.216   0.154   2.675 -0.6088  0.1986 -0.0285
 6064SOL    HW224022   5.282   0.093   2.643 -2.6095 -1.9706 -0.3538
 6064SOL    HW324023   5.261   0.207   2.740  1.6404 -0.5619 -0.8669
 6064SOL    MW424024   5.230   0.153   2.679  0.2553 -0.1484  0.0084
 6065SOL     OW24025   2.265   5.229   1.093  0.0049 -0.1159  0.0203
 6065SOL    HW224026   2.342   5.234   1.150 -0.6019 -0.4102  0.8725
 6065SOL    HW324027   2.209   5.301   1.122 -1.5722 -1.9158  1.6968
 6065SOL    MW424028   2.268   5.239   1.104  0.0497 -0.2798  0.3041
 6066SOL     OW24029   5.355   2.977   2.841  0.1375  0.1176 -0.0706
 6066SOL    HW224030   5.405   3.033   2.783 -0.6516  0.2630 -0.6227
 6066SOL    HW324031   5.389   2.997   2.929  2.1618 -0.9697 -0.5459
 6066SOL    MW424032   5.366   2.987   2.845  0.5267  0.1134 -0.5087
 6067SOL     OW24033   0.303   4.241   1.685  0.4980  0.8240 -0.2643
 6067SOL    HW224034   0.267   4.288   1.610  0.5012 -1.4564 -1.7884
 6067SOL    HW324035   0.382   4.198   1.651  0.2430 -0.6463  0.9091
 6067SOL    MW424036   0.309   4.242   1.671 -0.1261 -0.6855 -0.3815
 6068SOL     OW24037   1.588   2.631   5.089  0.2715 -0.0523 -0.2566
 6068SOL    HW224038   1.666   2.686   5.085 -0.4272  0.9172 -1.1598
 6068SOL    HW324039   1.606   2.569   5.160  1.6390  0.4700 -0.1098
 6068SOL    MW424040   1.601   2.630   5.098 -0.6456  0.1157 -0.2929
 6069SOL     OW24041   5.893   2.787   5.448 -0.1332 -0.0604  0.1964
 6069SOL    HW224042   5.822   2.849   5.432 -0.4166  0.2038  2.2339
 6069SOL    HW324043   5.972   2.831   5.417 -0.6922  0.0674 -1.1123
 6069SOL    MW424044   5.894   2.801   5.442  0.1638  0.4136  0.2629
 6070SOL     OW24045   4.777   4.343   0.077 -0.2339  0.3420  0.4376
 6070SOL    HW224046   4.699   4.290   0.060 -0.3254 -0.3302  2.6972
 6070SOL    HW324047   4.795   4.386  -0.007 -0.3827 -2.9125 -1.4292
 6070SOL    MW424048   4.769   4.341   0.064 -0.3717  0.4288  0.2078
 6071SOL     OW24049   4.361   1.115   2.670 -0.4371  0.2611 -0.5523
 6071SOL    HW224050   4.453   1.100   2.651 -0.4894 -0.7552 -0.0766
 6071SOL    HW324051   4.335   1.040   2.724 -1.9007 -0.2116 -1.8433
 6071SOL    MW424052   4.369   1.103   2.675 -0.3844 -0.2286  0.4391
 6072SOL     OW24053   1.517   5.551   3.974 -0.3499 -0.4716 -0.3548
 6072SOL    HW224054   1.572   5.522   3.902 -0.1708 -0.8148 -0.0842
 6072SOL    HW324055   1.531   5.646   3.978 -0.8301 -0.3631 -1.1533
 6072SOL    MW424056   1.526   5.559   3.965 -0.2908  0.0758  0.3659
 6073SOL     OW24057   6.072   1.873   0.248  0.1943 -0.7198  0.2813
 6073SOL    HW224058   6.074   1.790   0.296 -0.0882 -1.6812 -1.3087
 6073SOL    HW324059   6.161   1.885   0.216 -0.2244 -1.5553 -1.3076
 6073SOL    MW424060   6.084   1.864   0.250 -0.6465  0.2892  0.3259
 6074SOL     OW24061   1.197   1.917   3.162 -0.0050  0.4045 -0.3302
 6074SOL    HW224062   1.145   1.898   3.240 -0.7113  1.0394 -0.6299
 6074SOL    HW324063   1.147   1.880   3.090  0.1326  0.7021 -0.5828
 6074SOL    MW424064   1.184   1.910   3.163 -0.4899 -0.2896 -0.1242
 6075SOL     OW24065   0.618   6.277   1.987 -0.2519  0.0104 -0.2095
 6075SOL    HW224066   0.581   6.326   2.060 -0.3010  0.1208 -0.3082
 6075SOL    HW324067   0.544   6.263   1.928  0.2135  1.8324 -1.3029
 6075SOL    MW424068   0.603   6.282   1.989 -0.5487 -0.4187 -0.5514
 6076SOL     OW24069   5.905   2.830   2.501 -0.4602  0.3814  0.3989
 6076SOL    HW224070   5.855   2.888   2.558 -1.1389 -1.8800  2.2553
 6076SOL    HW324071   5.838   2.779   2.454  0.1082  0.5085 -0.5687
 6076SOL    MW424072   5.889   2.831   2.502  0.2652  0.1434  0.2529
 6077SOL     OW24073   3.026   0.660   2.539 -0.1287 -0.7247  0.1906
 6077SOL    HW224074   2.958   0.644   2.474 -1.3717 -2.1515  1.7482
 6077SOL    HW324075   2.994   0.733   2.591  0.1204 -0.6099  0.1857
 6077SOL    MW424076   3.013   0.667   2.537 -0.5509  0.6671 -0.2374
 6078SOL     OW24077   3.269   0.022   2.244  0.3271 -0.3974  0.1699
 6078SOL    HW224078   3.351   0.042   2.199 -0.2991 -0.9930 -1.2737
 6078SOL    HW324079   3.219   0.104   2.242 -0.2451 -0.7436 -1.4629
 6078SOL    MW424080   3.273   0.036   2.238  0.7718  0.0704  0.1574
 6079SOL     OW24081   4.494   4.769   4.673 -0.0454  0.0223  0.1295
 6079SOL    HW224082   4.442   4.719   4.610 -0.2781  0.3201  0.0869
 6079SOL    HW324083   4.443   4.766   4.754  0.8017 -1.3641  0.6555
 6079SOL    MW424084   4.480   4.762   4.675  0.9385 -0.0448 -0.3614
 6080SOL     OW24085   3.392   1.128   3.466 -0.4698 -0.2637  0.1547
 6080SOL    HW224086   3.420   1.058   3.524 -2.4182  0.6369  2.3595
 6080SOL    HW324087   3.424   1.103   3.380  2.1316 -1.9307  1.4935
 6080SOL    MW424088   3.400   1.116   3.463  0.2153  0.7778 -0.6928
 6081SOL     OW24089   4.518   1.018   5.294  0.2780 -0.6783 -0.4801
 6081SOL    HW224090   4.492   0.968   5.216  1.4369 -0.3765 -1.0751
 6081SOL    HW324091   4.436   1.054   5.327 -0.1692 -0.3049 -1.9264
 6081SOL    MW424092   4.504   1.016   5.288 -0.2212 -0.8360  0.0560
 6082SOL     OW24093   2.267   2.248   3.332 -0.4454 -0.5170  1.2601
 6082SOL    HW224094   2.325   2.242   3.408  0.4395  0.5817  0.6970
 6082SOL    HW324095   2.324   2.227   3.257 -0.2076  2.4198  0.4877
 6082SOL    MW424096   2.282   2.244   3.332  0.6204  0.3157 -0.0396
 6083SOL     OW24097   4.696   3.255   2.438 -0.5735  0.0699 -0.7462
 6083SOL    HW224098   4.678   3.201   2.362 -1.5011  0.4080 -0.7846
 6083SOL    HW324099   4.779   3.298   2.419 -0.2085 -0.7559 -1.0401
 6083SOL    MW424100   4.705   3.253   2.426 -0.5698  0.2654  0.2560
 6084SOL     OW24101   2.542   1.852   6.415 -0.2754 -0.0606  0.4658
 6084SOL    HW224102   2.465   1.796   6.428 -2.0348  1.5336 -2.1022
 6084SOL    HW324103   2.573   1.828   6.327 -0.1919  1.9455 -0.0891
 6084SOL    MW424104   2.536   1.841   6.405  0.2834 -0.3333 -0.6991
 6085SOL     OW24105   3.373   3.023   5.021 -0.2304  0.1554  0.0626
 6085SOL    HW224106   3.443   3.022   5.086 -0.4985 -2.0737  0.3888
 6085SOL    HW324107   3.411   2.982   4.944 -0.4426  1.2377 -0.6477
 6085SOL    MW424108   3.387   3.018   5.019 -0.4715 -0.0887  0.7219
 6086SOL     OW24109   4.742   5.788   2.444 -0.6088 -0.3313 -0.0753
 6086SOL    HW224110   4.665   5.806   2.497 -0.5240 -0.1005 -0.0314
 6086SOL    HW324111   4.796   5.866   2.452 -0.3893 -0.4747 -0.1405
 6086SOL    MW424112   4.739   5.800   2.452  0.0712  0.2238 -0.3412
 6087SOL     OW24113   1.604   2.819   1.296 -0.8100 -0.3784 -0.6434
 6087SOL    HW224114   1.659   2.758   1.345  0.1611 -0.4730 -1.8175
 6087SOL    HW324115   1.624   2.905   1.334 -0.3343 -0.4896 -0.6356
 6087SOL    MW424116   1.614   2.823   1.308  0.1584 -0.2296 -0.2262
 6088SOL     OW24117   4.952   1.507   5.203  0.3108  0.2280 -0.0724
 6088SOL    HW224118   5.047   1.513   5.208  0.4290 -1.6698  0.9694
 6088SOL    HW324119   4.922   1.508   5.294 -0.5787 -0.1528 -0.3409
 6088SOL    MW424120   4.960   1.508   5.216  0.0407 -0.1509  0.1676
 6089SOL     OW24121   1.237   5.656   3.680  0.1303  0.2893 -1.1930
 6089SOL    HW224122   1.220   5.749   3.693 -1.4042 -0.0418 -0.7266
 6089SOL    HW324123   1.331   5.651   3.661  0.1815  1.9467 -1.4628
 6089SOL    MW424124   1.247   5.667   3.679  0.3038  0.3608 -0.1471
 6090SOL     OW24125   4.620   1.722   4.136 -0.6459 -0.1721 -0.4399
 6090SOL    HW224126   4.541   1.704   4.187 -0.4349 -0.6456 -0.2815
 6090SOL    HW324127   4.684   1.750   4.200 -0.6970  0.2596 -0.5754
 6090SOL    MW424128   4.618   1.723   4.151 -0.5265  0.3635 -0.1251
 6091SOL     OW24129   4.062   1.844   0.610 -0.1486 -0.1548 -0.1400
 6091SOL    HW224130   4.064   1.841   0.706 -0.7713 -0.6470 -0.1345
 6091SOL    HW324131   3.969   1.856   0.588 -0.1130 -0.8390 -0.6957
 6091SOL    MW424132   4.050   1.845   0.620  0.6408  0.4127  0.8807
 6092SOL     OW24133   6.002   1.699   0.020  0.1767  0.5724  0.1908
 6092SOL    HW224134   5.981   1.750  -0.058 -2.2019 -0.8832 -0.2383
 6092SOL    HW324135   6.004   1.763   0.091  0.0740  1.6170 -0.7212
 6092SOL    MW424136   6.000   1.714   0.019 -0.1772  0.3044  0.3424
 6093SOL     OW24137   2.920   2.534   4.840  0.2873 -0.0548 -0.1149
 6093SOL    HW224138   2.907   2.621   4.804  1.3235  0.7530  1.3281
 6093SOL    HW324139   2.926   2.548   4.935  2.8857 -1.3065  0.0104
 6093SOL    MW424140   2.919   2.547   4.848 -0.0606 -0.7346 -0.6101
 6094SOL     OW24141   0.215   2.090   3.529 -0.5218  0.3421 -0.2314
 6094SOL    HW224142   0.305   2.105   3.499  0.6463 -0.0026  2.7765
 6094SOL    HW324143   0.167   2.167   3.498  1.6531  2.3377  1.0032
 6094SOL    MW424144   0.220   2.102   3.521 -0.2845 -0.5868 -0.0612
 6095SOL     OW24145   1.119   3.091   1.522  0.5504  0.4956  0.5578
 6095SOL    HW224146   1.111   3.071   1.616 -0.5841  0.4067  0.4620
 6095SOL    HW324147   1.031   3.121   1.497  0.9527  0.9266 -0.3867
 6095SOL    MW424148   1.106   3.093   1.531 -0.0176 -0.0610 -0.4963
 6096SOL     OW24149   3.428   5.116   5.114  0.4791  0.2436 -0.1413
 6096SOL    HW224150   3.502   5.176   5.108  0.7785 -0.2065 -1.0394
 6096SOL    HW324151   3.372   5.139   5.039  0.5041 -0.4718 -0.3824
 6096SOL    MW424152   3.430   5.127   5.103 -0.2871  0.3921 -0.4809
 6097SOL     OW24153   4.245   1.207   3.509 -0.2687 -0.6859  0.3096
 6097SOL    HW224154   4.179   1.233   3.445 -0.2638  0.4511  0.7297
 6097SOL    HW324155   4.305   1.151   3.460 -1.3465 -1.4689 -0.1565
 6097SOL    MW424156   4.244   1.203   3.494  0.2501 -0.2040  0.3386
 6098SOL     OW24157   3.368   5.358   0.439  0.4797 -0.9227 -0.1599
 6098SOL    HW224158   3.401   5.352   0.529 -1.4585  0.5236  0.7186
 6098SOL    HW324159   3.298   5.423   0.444  0.9846 -0.0412 -2.9321
 6098SOL    MW424160   3.363   5.366   0.452  0.0279 -0.7450  0.0204
 6099SOL     OW24161   5.283   2.294   2.120 -0.1961  0.9547  0.2508
 6099SOL    HW224162   5.307   2.255   2.204  0.0913  1.7853  0.5741
 6099SOL    HW324163   5.227   2.369   2.144  0.5836  1.7120 -0.2304
 6099SOL    MW424164   5.279   2.299   2.135  0.4275  0.4088  0.4516
 6100SOL     OW24165   1.206   2.772   2.072 -0.3224 -0.1457  0.2733
 6100SOL    HW224166   1.259   2.692   2.075 -0.7398 -0.4572 -0.4524
 6100SOL    HW324167   1.225   2.810   1.986  0.8061  1.1903  1.0916
 6100SOL    MW424168   1.216   2.766   2.061 -0.2428  0.3045 -0.3550
 6101SOL     OW24169   5.573   2.932   4.407 -0.7191 -0.2713 -0.0990
 6101SOL    HW224170   5.479   2.942   4.400 -0.9006 -1.6491  0.0662
 6101SOL    HW324171   5.606   2.942   4.318 -1.0276  0.1019 -0.1712
 6101SOL    MW424172   5.565   2.935   4.394 -0.1802 -0.2547  0.3624
 6102SOL     OW24173   5.244   3.787   2.715  0.2804 -0.4718  0.4175
 6102SOL    HW224174   5.234   3.736   2.635  0.9964  0.9320 -0.5994
 6102SOL    HW324175   5.204   3.732   2.783 -2.0234 -0.9149 -1.1584
 6102SOL    MW424176   5.237   3.773   2.714  0.0105  0.2947  0.5476
 6103SOL     OW24177   1.276   0.453   4.638 -0.9022  0.0915 -0.6471
 6103SOL    HW224178   1.347   0.411   4.686 -1.3100  1.1980  0.9915
 6103SOL    HW324179   1.283   0.416   4.549 -0.8179 -2.8770  0.4660
 6103SOL    MW424180   1.286   0.442   4.632 -0.3313  0.1200  0.0241
 6104SOL     OW24181   1.127   0.992   4.168  0.3982 -0.0637 -0.6452
 6104SOL    HW224182   1.039   0.962   4.192  0.0768  0.3799 -1.2292
 6104SOL    HW324183   1.153   0.932   4.098  0.0853  0.5005 -1.2576
 6104SOL    MW424184   1.119   0.980   4.162 -0.2547  0.3183 -0.4807
 6105SOL     OW24185   4.965   3.794   3.342 -0.4334 -0.2582  0.7437
 6105SOL    HW224186   4.997   3.707   3.317 -0.2560 -0.3239  1.2020
 6105SOL    HW324187   4.870   3.791   3.325 -0.4924 -0.6740  1.1442
 6105SOL    MW424188   4.956   3.782   3.336  0.0592  0.8154 -0.7184
 6106SOL     OW24189   4.688   0.201   0.602  1.0763 -0.2570  0.3305
 6106SOL    HW224190   4.685   0.142   0.678  0.9088 -0.1282  0.4249
 6106SOL    HW324191   4.685   0.289   0.640  0.5925 -0.1932  0.1599
 6106SOL    MW424192   4.687   0.205   0.617  0.1374  0.0188  0.0106
 6107SOL     OW24193   2.581   2.713   1.490 -0.7506 -0.0547  0.2535
 6107SOL    HW224194   2.659   2.669   1.524  1.4322 -0.2486 -4.2802
 6107SOL    HW324195   2.536   2.645   1.439 -1.2822  1.1660 -0.9697
 6107SOL    MW424196   2.585   2.698   1.487  0.2427  0.3170 -0.1055
 6108SOL     OW24197   2.030   2.145   5.921 -0.1592  0.0906  0.1209
 6108SOL    HW224198   2.115   2.178   5.894  0.3890 -0.9155  0.5412
 6108SOL    HW324199   2.049   2.089   5.997 -1.2482  0.2263  0.5099
 6108SOL    MW424200   2.043   2.142   5.928 -0.0172 -0.4475 -0.2076
 6109SOL     OW24201   3.017   2.196   2.086  0.5064  0.3573  0.1279
 6109SOL    HW224202   3.090   2.154   2.132  2.8595  1.7434 -2.0957
 6109SOL    HW324203   3.007   2.281   2.129  1.2980  0.7951 -0.5169
 6109SOL    MW424204   3.025   2.202   2.097 -0.1800 -0.1985  0.2074
 6110SOL     OW24205   0.733   0.230   3.084 -0.3687  0.0819  0.2696
 6110SOL    HW224206   0.828   0.234   3.091 -0.3828  1.0694  0.0195
 6110SOL    HW324207   0.702   0.228   3.174 -0.1208 -0.2818  0.3526
 6110SOL    MW424208   0.741   0.230   3.097  0.0435 -0.6461 -0.1405
 6111SOL     OW24209   2.745   3.540   6.418  0.4286  0.7101  0.1380
 6111SOL    HW224210   2.739   3.444   6.424  0.9062  0.6185 -0.7183
 6111SOL    HW324211   2.824   3.562   6.466  0.0983  0.7192  0.6857
 6111SOL    MW424212   2.754   3.530   6.425 -0.2420  0.5892 -0.8816
 6112SOL     OW24213   3.925   2.789   5.681  0.1187  0.7193 -0.1120
 6112SOL    HW224214   3.960   2.700   5.681  2.1872  1.4731 -0.8845
 6112SOL    HW324215   3.896   2.803   5.771  0.0562 -0.6259  0.0963
 6112SOL    MW424216   3.926   2.779   5.693  0.0137 -0.4196 -0.1619
 6113SOL     OW24217   0.604   2.484   4.683 -0.2422  0.3477  0.1911
 6113SOL    HW224218   0.641   2.397   4.665 -1.1238 -0.2578  1.1731
 6113SOL    HW324219   0.679   2.543   4.683  0.4680 -0.5381  0.2482
 6113SOL    MW424220   0.619   2.480   4.680 -0.7597 -0.0334 -0.1509
 6114SOL     OW24221   4.954   0.609   2.086  0.6497  0.0097  0.2004
 6114SOL    HW224222   4.919   0.523   2.063 -0.6535  0.3089  0.9404
 6114SOL    HW324223   4.898   0.638   2.158  1.1484  1.4258  0.0320
 6114SOL    MW424224   4.942   0.601   2.093  0.3515 -0.2516 -0.5685
 6115SOL     OW24225   5.340   0.701   3.665 -0.8631 -0.1050 -0.3649
 6115SOL    HW224226   5.379   0.683   3.750 -1.4779  1.0668  0.1972
 6115SOL    HW324227   5.301   0.618   3.638 -1.7886 -0.1940  1.1169
 6115SOL    MW424228   5.340   0.688   3.673 -0.1912  0.6502 -0.1512
 6116SOL     OW24229   2.074   0.837   4.165  0.0686  0.0560  0.0137
 6116SOL    HW224230   2.011   0.776   4.201 -1.1540  1.1327 -0.2325
 6116SOL    HW324231   2.029   0.878   4.091 -0.6686  3.9040  2.2864
 6116SOL    MW424232   2.060   0.835   4.160 -0.6266 -0.4696  0.1045
 6117SOL     OW24233   3.537   0.437   0.129 -0.4288  0.4627  0.3696
 6117SOL    HW224234   3.567   0.371   0.191 -0.8762  1.6343  1.8996
 6117SOL    HW324235   3.616   0.483   0.102 -0.3019  0.3592  0.5696
 6117SOL    MW424236   3.551   0.435   0.134  0.5769  0.0952 -0.1678
 6118SOL     OW24237   3.025   2.746   1.812 -0.5189  0.1419 -0.0415
 6118SOL    HW224238   3.092   2.802   1.850  0.2957 -0.0942 -1.0818
 6118SOL    HW324239   3.064   2.713   1.731 -1.1092 -1.6271  0.3324
 6118SOL    MW424240   3.039   2.749   1.807  0.3073 -0.1863  0.1816
 6119SOL     OW24241   3.833   1.082   5.590 -0.1193 -0.1279 -0.7343
 6119SOL    HW224242   3.851   1.096   5.683 -0.8113  0.4917 -0.6838
 6119SOL    HW324243   3.775   1.006   5.588  0.4126 -0.5464 -0.7198
 6119SOL    MW424244   3.828   1.074   5.602 -0.2080 -0.6771  0.1628
 6120SOL     OW24245   5.958   6.156   6.419 -0.4759  0.2754  0.4023
 6120SOL    HW224246   5.994   6.071   6.444 -1.3037 -0.0591  0.4593
 6120SOL    HW324247   6.005   6.178   6.338  0.3458  0.1696  0.8378
 6120SOL    MW424248   5.969   6.148   6.411  0.0342 -0.3627  0.2932
 6121SOL     OW24249   1.849   5.174   1.235  0.9211  0.6160 -0.5251
 6121SOL    HW224250   1.908   5.150   1.163 -1.3028 -0.0243 -2.2321
 6121SOL    HW324251   1.806   5.253   1.205  2.2030  2.2041  1.5427
 6121SOL    MW424252   1.851   5.181   1.222 -0.0646 -0.2508 -0.4434
 6122SOL     OW24253   1.422   1.453   1.466  0.9062  0.1599  0.1030
 6122SOL    HW224254   1.409   1.543   1.437 -2.5633 -0.3427 -0.3154
 6122SOL    HW324255   1.421   1.458   1.562 -0.0822  0.4898  0.0820
 6122SOL    MW424256   1.420   1.465   1.475 -0.1370  0.1762 -0.2957
 6123SOL     OW24257   3.209   2.639   0.914 -0.5466 -0.4397  0.1721
 6123SOL    HW224258   3.152   2.588   0.971 -0.3130  0.5312  1.3194
 6123SOL    HW324259   3.295   2.636   0.956 -0.4590  0.6078  0.1042
 6123SOL    MW424260   3.213   2.632   0.927 -0.0136  0.6361  0.0775
 6124SOL     OW24261   6.413   1.464   2.881 -0.0191 -0.2260  0.0567
 6124SOL    HW224262   6.352   1.429   2.945 -0.2182 -1.0808 -0.5731
 6124SOL    HW324263   6.463   1.387   2.852 -0.2699  0.0502 -1.1615
 6124SOL    MW424264   6.412   1.449   2.886  0.1024 -0.6429 -0.3179
 6125SOL     OW24265   0.694   0.876   1.841 -0.2946  0.3441  0.9430
 6125SOL    HW224266   0.739   0.902   1.921  0.2573 -1.2355  1.1847
 6125SOL    HW324267   0.758   0.891   1.772  0.6560 -1.8105  1.2764
 6125SOL    MW424268   0.708   0.881   1.842  0.1828 -0.0122  0.2239
 6126SOL     OW24269   5.160   2.702   4.031  0.0756  0.6198  0.0498
 6126SOL    HW224270   5.239   2.664   3.992 -0.1805  0.8033 -0.6599
 6126SOL    HW324271   5.118   2.629   4.076  0.5178  0.4691  0.2300
 6126SOL    MW424272   5.165   2.687   4.032 -0.0055  0.2159 -0.4152
 6127SOL     OW24273   3.005   0.695   3.380  0.4088  0.1545 -0.0688
 6127SOL    HW224274   3.065   0.750   3.329 -0.1837  0.7758 -0.1010
 6127SOL    HW324275   3.059   0.664   3.454  0.5054  1.5566  0.4839
 6127SOL    MW424276   3.020   0.699   3.383 -0.3379  0.4086 -0.3585
 6128SOL     OW24277   3.427   6.320   5.091  0.1258  0.5415 -0.1026
 6128SOL    HW224278   3.369   6.314   5.167 -2.1875  0.1131 -1.7621
 6128SOL    HW324279   3.478   6.239   5.093  1.1255  1.1765  1.7009
 6128SOL    MW424280   3.426   6.308   5.101 -0.0406 -0.6534  0.1002
 6129SOL     OW24281   3.237   0.560   1.407  0.0758  0.2631  0.1255
 6129SOL    HW224282   3.195   0.475   1.397  0.7253 -0.2766  1.7057
 6129SOL    HW324283   3.167   0.619   1.433 -0.6342  0.5489 -2.2401
 6129SOL    MW424284   3.223   0.556   1.409 -0.1737 -0.1805 -0.3670
 6130SOL     OW24285   6.337   0.538   0.022 -0.7049 -0.3547 -0.0957
 6130SOL    HW224286   6.285   0.467   0.059  0.2515 -0.9676  0.1145
 6130SOL    HW324287   6.428   0.514   0.042 -0.1514 -0.5780 -2.5802
 6130SOL    MW424288   6.342   0.526   0.030 -0.1392 -0.1257  0.0992
 6131SOL     OW24289   3.428   3.961   4.331  0.1245 -0.5685  0.0262
 6131SOL    HW224290   3.365   3.897   4.300  0.5008 -1.0748  0.2929
 6131SOL    HW324291   3.479   3.985   4.253 -0.8949  0.4405 -0.3608
 6131SOL    MW424292   3.427   3.956   4.317 -0.2464  0.6099  0.2559
 6132SOL     OW24293   2.211   4.059   2.391 -0.6117 -0.4188 -0.0720
 6132SOL    HW224294   2.136   4.024   2.438 -2.2178  1.1089 -1.3342
 6132SOL    HW324295   2.173   4.115   2.323  1.6579 -0.1990 -1.2862
 6132SOL    MW424296   2.196   4.062   2.388  1.0093 -0.2048  0.2146
 6133SOL     OW24297   6.436   2.177   2.021  0.1711 -0.0534  0.3315
 6133SOL    HW224298   6.445   2.204   2.113  0.6623 -0.3469  0.3724
 6133SOL    HW324299   6.384   2.247   1.981  3.0163  2.0322 -0.0064
 6133SOL    MW424300   6.430   2.190   2.028 -0.3673 -0.0808  0.6647
 6134SOL     OW24301   1.528   5.166   3.400 -0.1283 -0.3036 -0.1179
 6134SOL    HW224302   1.525   5.091   3.341 -1.1893 -1.6729  1.5776
 6134SOL    HW324303   1.571   5.133   3.479  0.7539  1.3179  0.1331
 6134SOL    MW424304   1.533   5.152   3.403 -0.0848 -0.1615  0.1124
 6135SOL     OW24305   0.329   3.805   1.698 -0.4352  0.4930  0.2538
 6135SOL    HW224306   0.240   3.773   1.681 -0.2488  0.6006 -0.9580
 6135SOL    HW324307   0.342   3.875   1.634  1.6266 -1.5150 -1.6862
 6135SOL    MW424308   0.319   3.810   1.687  0.5102  0.1626  0.0805
 6136SOL     OW24309   0.210   0.160   6.274  0.2788  0.1639 -0.2888
 6136SOL    HW224310   0.192   0.193   6.185  0.0681 -0.6703 -0.5686
 6136SOL    HW324311   0.292   0.202   6.299 -0.2882  1.3802 -0.3709
 6136SOL    MW424312   0.218   0.170   6.265  0.0860 -0.0154  0.7151
 6137SOL     OW24313   3.812   0.626   5.789  0.2298  0.3135 -0.0932
 6137SOL    HW224314   3.729   0.593   5.824  1.4486 -0.7291  2.0361
 6137SOL    HW324315   3.845   0.684   5.858  0.5784  1.9817 -1.5900
 6137SOL    MW424316   3.805   0.630   5.803 -0.7076 -0.0858 -0.6705
 6138SOL     OW24317   5.976   2.852   2.131  0.0508  0.0706  0.0816
 6138SOL    HW224318   5.951   2.824   2.043 -0.7546  0.9248  0.0151
 6138SOL    HW324319   6.036   2.925   2.117 -1.1266  1.0977  0.2060
 6138SOL    MW424320   5.980   2.858   2.118 -0.5034 -0.4812  0.6025
 6139SOL     OW24321   4.039   3.706   0.637  0.1010 -0.1922 -0.2108
 6139SOL    HW224322   3.986   3.707   0.717 -0.1819  0.6914 -0.3995
 6139SOL    HW324323   4.073   3.795   0.631 -0.5098 -0.0333 -1.4978
 6139SOL    MW424324   4.037   3.718   0.647  0.2754  0.3348  0.2855
 6140SOL     OW24325   1.160   5.282   4.165 -0.6783  0.2520  0.0374
 6140SOL    HW224326   1.116   5.364   4.143 -1.1518 -0.1842 -0.6724
 6140SOL    HW324327   1.101   5.238   4.226 -1.1910 -0.2750 -0.8160
 6140SOL    MW424328   1.146   5.287   4.170 -0.2659 -0.0363  0.0857
 6141SOL     OW24329   5.600   0.962   5.515  0.0800  0.2213  0.3114
 6141SOL    HW224330   5.655   0.888   5.541  0.6602  0.0248 -1.3310
 6141SOL    HW324331   5.535   0.970   5.584 -0.4444 -2.2813  0.1733
 6141SOL    MW424332   5.599   0.953   5.527 -0.6936 -0.1405  1.0767
 6142SOL     OW24333   4.031   3.416   6.273 -0.2791  0.1867  0.6366
 6142SOL    HW224334   4.014   3.346   6.337 -1.4005  0.4970  0.6850
 6142SOL    HW324335   4.126   3.429   6.278 -0.2462 -0.3231  1.6892
 6142SOL    MW424336   4.041   3.409   6.282  0.3428 -0.0234 -0.1789
 6143SOL     OW24337   1.832   3.412   3.935  0.1307  0.4601 -0.3426
 6143SOL    HW224338   1.739   3.395   3.921  0.2362 -2.1390  1.3947
 6143SOL    HW324339   1.855   3.358   4.011  3.4836 -0.4450 -1.8241
 6143SOL    MW424340   1.822   3.402   3.943 -0.0935 -0.1821  0.3367
 6144SOL     OW24341   4.239   6.422   5.262 -0.4173 -0.9728 -0.6505
 6144SOL    HW224342   4.318   6.388   5.305 -0.6139 -0.5720  0.0362
 6144SOL    HW324343   4.173   6.427   5.331 -0.1743  1.5707 -0.4931
 6144SOL    MW424344   4.241   6.418   5.277 -0.2195  0.1823 -0.4958
 6145SOL     OW24345   1.592   2.743   0.406 -0.7296  0.0334  1.0344
 6145SOL    HW224346   1.635   2.717   0.325 -3.0485  0.1866 -0.3436
 6145SOL    HW324347   1.590   2.663   0.459  0.1369 -0.2668  0.6259
 6145SOL    MW424348   1.598   2.729   0.402  0.8695  0.5801  0.0270
 6146SOL     OW24349   3.789   4.330   0.592 -0.2876  0.4325 -0.2829
 6146SOL    HW224350   3.747   4.387   0.528 -1.3113 -0.6271 -0.5867
 6146SOL    HW324351   3.720   4.309   0.654  0.8681  2.1214  1.7361
 6146SOL    MW424352   3.775   4.335   0.592 -0.2956  0.3419 -0.5680
 6147SOL     OW24353   3.803   3.848   3.841  0.1789  0.0545 -0.8387
 6147SOL    HW224354   3.820   3.834   3.748  0.2192 -0.6999 -0.7302
 6147SOL    HW324355   3.736   3.916   3.844 -0.6643 -0.7223 -1.4683
 6147SOL    MW424356   3.796   3.855   3.829 -0.1118  0.3446  0.6486
 6148SOL     OW24357   1.651   3.858   1.825 -0.4289  0.0665  0.1297
 6148SOL    HW224358   1.663   3.856   1.920 -0.4184  0.8806  0.1542
 6148SOL    HW324359   1.564   3.896   1.813  0.0319  1.0419 -0.2055
 6148SOL    MW424360   1.641   3.862   1.836  0.0176 -0.3025  0.0057
 6149SOL     OW24361   2.678   1.725   6.174 -0.2652  0.1187 -0.2403
 6149SOL    HW224362   2.771   1.716   6.193 -0.6182  0.5654  1.9653
 6149SOL    HW324363   2.656   1.648   6.123  1.4856  0.4772 -1.6035
 6149SOL    MW424364   2.687   1.714   6.170  0.1707  0.3863  0.1625
 6150SOL     OW24365   4.928   2.048   2.324  0.1755 -0.2801  0.0912
 6150SOL    HW224366   4.923   2.072   2.231  0.4844  0.2761  0.2102
 6150SOL    HW324367   4.963   1.960   2.324 -0.2652 -0.4643 -0.3389
 6150SOL    MW424368   4.932   2.040   2.312 -0.3541 -0.0394 -0.1827
 6151SOL     OW24369   3.598   0.219   5.998 -0.1328  0.0690  0.4331
 6151SOL    HW224370   3.581   0.249   6.087 -0.4141 -1.3421  0.8723
 6151SOL    HW324371   3.544   0.141   5.988  0.7209 -0.4103 -0.6046
 6151SOL    MW424372   3.588   0.213   6.008  0.2579 -0.3412  0.5937
 6152SOL     OW24373   4.494   5.282   5.555 -0.0158  0.3151 -0.2473
 6152SOL    HW224374   4.402   5.301   5.537 -0.0145  0.0188 -0.5628
 6152SOL    HW324375   4.523   5.357   5.608 -0.9640 -0.5331  1.5742
 6152SOL    MW424376   4.485   5.295   5.560 -0.8521  0.8401 -0.5921
 6153SOL     OW24377   2.462   0.083   4.395  0.0320  0.3469  0.3483
 6153SOL    HW224378   2.446   0.026   4.470  1.0177 -1.4453 -0.7359
 6153SOL    HW324379   2.466   0.171   4.432 -2.8209 -0.0488  1.9125
 6153SOL    MW424380   2.460   0.087   4.410 -0.1919 -0.5937  0.2107
 6154SOL     OW24381   2.121   0.856   2.236 -0.2201  0.5812  0.6912
 6154SOL    HW224382   2.129   0.950   2.219  0.7264  0.2238 -1.0417
 6154SOL    HW324383   2.029   0.836   2.220  0.0839  0.7756 -1.5064
 6154SOL    MW424384   2.110   0.866   2.232  0.2482  0.4896 -0.1254
 6155SOL     OW24385   4.441   3.644   0.541 -0.1454 -0.1083  0.3065
 6155SOL    HW224386   4.364   3.653   0.485  0.0107  1.4067  0.2924
 6155SOL    HW324387   4.505   3.598   0.488 -0.8604 -0.9605  0.1536
 6155SOL    MW424388   4.439   3.639   0.527  0.0952  0.6375  0.1349
 6156SOL     OW24389   1.322   2.724   3.077 -0.1371  0.3089 -0.3069
 6156SOL    HW224390   1.414   2.698   3.088  0.1959  1.0428 -1.2100
 6156SOL    HW324391   1.272   2.648   3.109  0.7965 -1.3436 -2.4950
 6156SOL    MW424392   1.327   2.710   3.083 -0.0920  0.1987 -0.2758
 6157SOL     OW24393   3.341   4.738   5.427  0.3343  0.1239  0.0827
 6157SOL    HW224394   3.390   4.768   5.350  1.5938  0.7618  1.0998
 6157SOL    HW324395   3.249   4.751   5.403  0.6615 -0.5641 -1.6573
 6157SOL    MW424396   3.335   4.744   5.413  0.5177 -0.3551 -0.4239
 6158SOL     OW24397   5.807   2.671   3.881  0.3097  0.4687  0.3065
 6158SOL    HW224398   5.750   2.742   3.853 -0.5687 -0.2554  0.2057
 6158SOL    HW324399   5.869   2.659   3.809 -0.5788  0.0509 -0.4096
 6158SOL    MW424400   5.808   2.679   3.868 -0.0840 -0.1713  0.0575
 6159SOL     OW24401   4.455   3.034   1.889 -0.1054  0.5146 -0.1768
 6159SOL    HW224402   4.500   2.951   1.897 -0.4558  0.4189  0.9693
 6159SOL    HW324403   4.524   3.100   1.901 -0.1696  0.3720  1.0912
 6159SOL    MW424404   4.470   3.032   1.891 -0.0834 -0.0152 -0.3482
 6160SOL     OW24405   5.004   4.727   3.193 -0.2423 -0.0836 -0.0903
 6160SOL    HW224406   5.030   4.718   3.101 -1.3677 -0.5323 -0.3788
 6160SOL    HW324407   5.067   4.789   3.229  1.1174 -0.9968 -0.7847
 6160SOL    MW424408   5.016   4.734   3.186 -0.2339 -0.0216 -0.2502
 6161SOL     OW24409   3.326   2.430   4.973  0.3762 -0.4216 -0.5991
 6161SOL    HW224410   3.306   2.491   4.901 -0.6638 -0.6893 -0.5512
 6161SOL    HW324411   3.421   2.419   4.969  0.5423  0.9162 -0.8419
 6161SOL    MW424412   3.336   2.437   4.963 -0.0584  0.2341 -0.3408
 6162SOL     OW24413   2.457   2.250   5.668  0.2567 -0.1301 -0.3758
 6162SOL    HW224414   2.390   2.270   5.733  0.0371 -0.7385 -0.4086
 6162SOL    HW324415   2.501   2.334   5.652  0.5975 -0.0510  0.8625
 6162SOL    MW424416   2.454   2.264   5.674 -0.5280 -0.2768 -0.4182
 6163SOL     OW24417   2.512   2.279   1.403  0.1031 -0.3259  0.4185
 6163SOL    HW224418   2.584   2.261   1.343  1.6533 -2.1019  2.6702
 6163SOL    HW324419   2.552   2.327   1.476 -0.7625 -2.0391  2.0949
 6163SOL    MW424420   2.527   2.283   1.405 -0.1546 -0.2672 -0.3815
 6164SOL     OW24421   5.936   4.823   4.507 -0.0069 -0.0053  0.4691
 6164SOL    HW224422   5.879   4.884   4.460 -0.3657 -0.5927  0.1307
 6164SOL    HW324423   5.993   4.787   4.439 -1.2103 -1.6317  0.2624
 6164SOL    MW424424   5.936   4.826   4.492  0.0395 -0.7216  0.3022
 6165SOL     OW24425   4.110   2.768   1.538  0.0741  0.1514  0.0721
 6165SOL    HW224426   4.172   2.770   1.611  0.0586  1.0529  0.0725
 6165SOL    HW324427   4.118   2.680   1.501  0.4571 -0.1363  0.8380
 6165SOL    MW424428   4.119   2.756   1.543  0.7754 -0.4333 -0.2771
 6166SOL     OW24429   3.119   3.597   1.425  0.6633 -0.0604 -0.1296
 6166SOL    HW224430   3.037   3.573   1.468  0.5974 -0.0481 -0.2486
 6166SOL    HW324431   3.147   3.676   1.471  1.1874 -0.6915  0.6639
 6166SOL    MW424432   3.112   3.604   1.437  0.4831  0.7802  0.4419
 6167SOL     OW24433   2.509   4.997   1.402  0.4958 -0.0809 -0.4459
 6167SOL    HW224434   2.568   4.922   1.397 -0.4786 -0.8739 -0.3197
 6167SOL    HW324435   2.432   4.965   1.449 -0.1705  0.8429 -0.8584
 6167SOL    MW424436   2.507   4.983   1.408  0.2879 -0.3127  0.2076
 6168SOL     OW24437   0.792   4.987   5.844 -0.3242  0.6066 -0.0607
 6168SOL    HW224438   0.857   4.994   5.775  0.8444 -0.0035  0.9337
 6168SOL    HW324439   0.715   5.033   5.810  0.1978  0.2752 -1.7578
 6168SOL    MW424440   0.790   4.994   5.830 -0.0565 -0.5997 -0.0617
 6169SOL     OW24441   5.140   2.435   4.147  0.2904 -0.0619  0.3138
 6169SOL    HW224442   5.230   2.404   4.152  0.1806 -0.4401  0.0126
 6169SOL    HW324443   5.099   2.405   4.228  0.7223  1.0600  0.9640
 6169SOL    MW424444   5.146   2.427   4.158  0.3919 -0.1106 -0.1033
 6170SOL     OW24445   2.865   3.172   0.848 -0.1122 -0.4204 -0.2801
 6170SOL    HW224446   2.845   3.102   0.910 -3.9430 -0.8372 -1.7052
 6170SOL    HW324447   2.853   3.253   0.899  0.0084 -0.7624  0.3028
 6170SOL    MW424448   2.861   3.174   0.863  0.2630  0.3404 -0.7493
 6171SOL     OW24449   5.163   1.044   4.519 -0.2521  0.4713 -0.0740
 6171SOL    HW224450   5.193   1.128   4.553  1.2005  0.9026 -2.2147
 6171SOL    HW324451   5.074   1.035   4.552  0.5219  1.4816  2.5191
 6171SOL    MW424452   5.155   1.054   4.528 -0.0036  1.2467  1.1205
 6172SOL     OW24453   3.917   5.453   4.723  0.2469  0.2072  0.0855
 6172SOL    HW224454   3.877   5.449   4.810  1.5006  2.3093  0.8397
 6172SOL    HW324455   3.844   5.475   4.664 -0.6410 -1.4080  0.5400
 6172SOL    MW424456   3.902   5.456   4.726  0.8072  0.2966  0.1247
 6173SOL     OW24457   5.174   0.299   2.320 -0.2705  0.0618 -0.0790
 6173SOL    HW224458   5.155   0.372   2.379 -0.2061  1.1352 -1.3590
 6173SOL    HW324459   5.108   0.305   2.251  0.4248 -0.4059 -0.8038
 6173SOL    MW424460   5.163   0.309   2.319 -0.0492  0.1889  0.0452
 6174SOL     OW24461   4.940   5.999   2.508  0.4190 -0.7894  0.0251
 6174SOL    HW224462   4.999   6.021   2.580 -0.0677 -1.7507  0.7472
 6174SOL    HW324463   4.998   5.978   2.435  0.9361 -0.5699  0.3652
 6174SOL    MW424464   4.955   5.999   2.508 -0.2923  0.1773 -0.3015
 6175SOL     OW24465   1.081   1.576   0.681  0.0444 -0.4081  0.2000
 6175SOL    HW224466   1.058   1.628   0.757 -0.7927 -0.4906  0.0128
 6175SOL    HW324467   1.169   1.605   0.657 -0.5152  1.1114 -0.0713
 6175SOL    MW424468   1.089   1.586   0.688  0.3207  0.2985  0.0448
 6176SOL     OW24469   5.501   5.050   2.105 -0.2755 -0.0518 -0.1979
 6176SOL    HW224470   5.542   5.124   2.060  0.4726  0.0874  0.6791
 6176SOL    HW324471   5.545   4.973   2.069  1.9255  0.1593  1.7810
 6176SOL    MW424472   5.513   5.050   2.094 -0.2442 -0.2935 -0.0389
 6177SOL     OW24473   5.501   4.749   0.264  0.1123 -0.1219 -0.1223
 6177SOL    HW224474   5.498   4.685   0.336  2.1309  0.0839  0.2010
 6177SOL    HW324475   5.450   4.708   0.194 -3.7038  0.5463  1.9998
 6177SOL    MW424476   5.494   4.735   0.264 -0.3626 -0.1219  0.4864
 6178SOL     OW24477   6.015   3.481   4.985 -0.0759  0.1336  0.0663
 6178SOL    HW224478   6.040   3.564   4.944  0.7635  0.6896  1.6260
 6178SOL    HW324479   5.962   3.507   5.060  1.1533 -0.6549  1.2420
 6178SOL    MW424480   6.012   3.496   4.990 -0.3293  0.6180  0.1343
 6179SOL     OW24481   2.422   5.007   2.399 -0.3131 -0.5255  0.6669
 6179SOL    HW224482   2.453   5.015   2.489 -0.5815 -0.5274  0.7604
 6179SOL    HW324483   2.498   5.027   2.345 -0.1772 -0.4282  0.8956
 6179SOL    MW424484   2.436   5.011   2.404 -0.1888 -0.7842 -0.3786
 6180SOL     OW24485   2.898   3.027   1.148  0.1395  0.5467  1.0785
 6180SOL    HW224486   2.939   3.039   1.234 -0.3691 -0.8603  1.5587
 6180SOL    HW324487   2.969   3.040   1.085  1.4443 -1.8816  1.8882
 6180SOL    MW424488   2.913   3.030   1.151  0.3002  0.1424 -0.2113
 6181SOL     OW24489   4.180   0.324   4.521 -0.1460  0.1791 -0.2846
 6181SOL    HW224490   4.094   0.330   4.562  0.1995  0.7460  0.3902
 6181SOL    HW324491   4.172   0.253   4.458 -0.0064 -2.5653  2.5419
 6181SOL    MW424492   4.168   0.315   4.518  0.3052  0.2221 -0.0481
 6182SOL     OW24493   0.458   2.242   3.125 -0.1494  0.3927 -0.2367
 6182SOL    HW224494   0.370   2.230   3.089 -0.2886  0.6331  0.0198
 6182SOL    HW324495   0.467   2.337   3.136  0.3157  0.4122 -0.6929
 6182SOL    MW424496   0.448   2.253   3.122  0.2873 -0.2393  0.3227
 6183SOL     OW24497   0.823   0.888   4.631  0.1096 -0.3455  0.0194
 6183SOL    HW224498   0.796   0.841   4.552 -0.6145 -0.1201  0.1253
 6183SOL    HW324499   0.831   0.821   4.698  0.3809 -0.4900 -0.1546
 6183SOL    MW424500   0.821   0.873   4.629 -0.1377  0.7331 -0.2897
 6184SOL     OW24501   5.534   4.545   4.197 -0.0639  0.2063 -0.0914
 6184SOL    HW224502   5.524   4.638   4.176 -0.5956  0.1586 -0.0521
 6184SOL    HW324503   5.627   4.536   4.217  0.1736  0.5467 -0.9736
 6184SOL    MW424504   5.545   4.556   4.197 -0.7801 -0.7527  0.1966
 6185SOL     OW24505   1.881   5.197   3.811  0.5068 -0.1972 -0.0127
 6185SOL    HW224506   1.834   5.245   3.879 -0.3633 -0.3315 -0.5053
 6185SOL    HW324507   1.907   5.115   3.853 -0.0671 -0.2989  0.1426
 6185SOL    MW424508   1.878   5.192   3.826  0.6304  0.2126  0.1776
 6186SOL     OW24509   3.823   5.970   5.852  0.1348 -0.8938  0.2158
 6186SOL    HW224510   3.831   6.065   5.862  0.2701 -0.7632 -0.9996
 6186SOL    HW324511   3.877   5.949   5.777 -2.3096 -1.4930 -1.5047
 6186SOL    MW424512   3.831   5.980   5.844 -0.0343 -0.8270  0.4502
 6187SOL     OW24513   0.313   0.323   0.977 -0.6406 -0.0597  0.6290
 6187SOL    HW224514   0.296   0.237   0.939 -1.1738  0.1214  0.4466
 6187SOL    HW324515   0.368   0.367   0.912  1.9264 -1.1873  1.8913
 6187SOL    MW424516   0.318   0.318   0.963  0.1220 -0.3841  0.0236
 6188SOL     OW24517   3.128   1.915   4.602  0.4412  0.1120 -0.2490
 6188SOL    HW224518   3.175   1.999   4.609  0.8448 -0.0001 -1.3607
 6188SOL    HW324519   3.148   1.869   4.683 -0.1412  1.2708  0.5738
 6188SOL    MW424520   3.137   1.920   4.613 -0.1869  0.0861  0.1909
 6189SOL     OW24521   3.291   1.451   5.263  0.2886 -0.6643 -0.1992
 6189SOL    HW224522   3.326   1.463   5.352  0.3605 -1.9423 -0.0469
 6189SOL    HW324523   3.366   1.466   5.205  0.3627 -0.3562 -0.0292
 6189SOL    MW424524   3.305   1.455   5.267 -0.2420  0.0655  0.4565
 6190SOL     OW24525   2.133   6.126   2.520 -0.3707  0.2046 -0.0365
 6190SOL    HW224526   2.197   6.062   2.552 -1.4953 -1.4843 -0.9985
 6190SOL    HW324527   2.127   6.108   2.426 -2.7727 -0.2049  0.1407
 6190SOL    MW424528   2.141   6.115   2.511 -0.4659  0.0364  0.2493
 6191SOL     OW24529   4.558   1.297   0.939 -0.5998 -0.2623 -0.0307
 6191SOL    HW224530   4.524   1.385   0.952 -0.5127 -0.4178  1.3387
 6191SOL    HW324531   4.652   1.305   0.955 -0.0948 -0.0655 -2.6615
 6191SOL    MW424532   4.566   1.310   0.943 -0.0076 -0.0355  0.6618
 6192SOL     OW24533   4.171   1.636   2.707 -0.2859  0.0964 -0.1997
 6192SOL    HW224534   4.086   1.654   2.748 -0.7700  0.6605 -1.3980
 6192SOL    HW324535   4.176   1.699   2.636  1.5294  0.6345  0.3638
 6192SOL    MW424536   4.160   1.647   2.703 -0.0251  0.2642  0.2065
 6193SOL     OW24537   4.742   4.127   2.650 -0.5063  0.1916  0.4068
 6193SOL    HW224538   4.733   4.045   2.602 -0.0906 -0.9197  2.1295
 6193SOL    HW324539   4.823   4.166   2.615 -1.7528  0.9401 -1.8477
 6193SOL    MW424540   4.752   4.121   2.639 -0.0539 -0.5325  0.0542
 6194SOL     OW24541   2.869   0.795   0.610  0.3235  0.2291 -0.3205
 6194SOL    HW224542   2.805   0.861   0.637  0.3953  1.2367 -2.4384
 6194SOL    HW324543   2.825   0.745   0.541  0.8896 -0.8583  0.0694
 6194SOL    MW424544   2.855   0.797   0.605  0.2750 -0.1594  0.1221
 6195SOL     OW24545   3.888   5.611   1.415  0.0529  0.3084  0.1078
 6195SOL    HW224546   3.876   5.640   1.324  0.3824  2.3512  0.6672
 6195SOL    HW324547   3.803   5.627   1.456  0.1418  0.1311  0.3599
 6195SOL    MW424548   3.875   5.617   1.408  0.0513 -0.0262 -0.2957
 6196SOL     OW24549   1.932   2.484   4.050  0.0611 -0.5775 -0.3470
 6196SOL    HW224550   1.913   2.543   3.978 -0.3927 -0.8990 -0.4963
 6196SOL    HW324551   2.026   2.494   4.065  0.1034 -0.2916 -0.7853
 6196SOL    MW424552   1.942   2.493   4.043 -0.1084 -0.1817  0.4316
 6197SOL     OW24553   4.593   2.814   2.413  0.3536 -0.0927  0.1831
 6197SOL    HW224554   4.625   2.836   2.501 -0.1083  1.3177  0.0296
 6197SOL    HW324555   4.609   2.893   2.362 -1.6815  0.0169 -0.3618
 6197SOL    MW424556   4.599   2.827   2.418 -0.3606  0.1237 -0.1851
 6198SOL     OW24557   3.724   3.451   1.808  0.0393  0.2753 -0.2261
 6198SOL    HW224558   3.710   3.466   1.902  1.3517 -0.2140  0.0767
 6198SOL    HW324559   3.818   3.465   1.797  0.1147 -0.9377 -1.2298
 6198SOL    MW424560   3.735   3.455   1.819 -0.6419  0.2099 -0.5681
 6199SOL     OW24561   5.600   3.356   2.820 -0.1569  0.3074  0.2332
 6199SOL    HW224562   5.631   3.397   2.739  0.8003  1.5882  1.1838
 6199SOL    HW324563   5.512   3.391   2.833 -0.1361  0.4562 -0.0221
 6199SOL    MW424564   5.593   3.366   2.811  0.3134  0.1448  0.0029
 6200SOL     OW24565   2.461   0.277   5.335 -0.1567  0.2868 -0.1289
 6200SOL    HW224566   2.399   0.226   5.282 -0.4992  0.1510  0.3931
 6200SOL    HW324567   2.446   0.368   5.310  1.6405  0.0502 -2.3349
 6200SOL    MW424568   2.450   0.282   5.325  0.2716  0.0180 -0.5431
 6201SOL     OW24569   2.251   2.147   1.449  0.3286  0.0001  0.3340
 6201SOL    HW224570   2.207   2.230   1.432  0.9530 -0.2511 -3.4390
 6201SOL    HW324571   2.344   2.170   1.455  0.7319 -0.4442 -2.5975
 6201SOL    MW424572   2.258   2.161   1.447  0.1829 -0.1937  0.3328
 6202SOL     OW24573   1.214   2.758   5.752 -0.0841 -0.3333  0.0670
 6202SOL    HW224574   1.176   2.681   5.793  0.4923  0.0756  1.4234
 6202SOL    HW324575   1.242   2.813   5.825  1.2934  0.2728 -0.8709
 6202SOL    MW424576   1.213   2.755   5.767  0.1226 -0.0675 -0.0062
 6203SOL     OW24577   0.700   1.985   1.141 -0.2688 -0.0953 -0.3148
 6203SOL    HW224578   0.659   1.908   1.103 -2.4154  0.3182  1.0075
 6203SOL    HW324579   0.666   1.989   1.231  0.4024  1.9333 -0.0984
 6203SOL    MW424580   0.690   1.975   1.148 -0.1600 -0.8798  0.2219
 6204SOL     OW24581   1.571   0.420   1.649 -0.0477  0.0299  0.2596
 6204SOL    HW224582   1.598   0.470   1.572  1.3085 -0.3099  0.4920
 6204SOL    HW324583   1.536   0.486   1.709  1.6398  0.7321  0.5356
 6204SOL    MW424584   1.570   0.435   1.647  0.2550 -0.4328  0.6368
 6205SOL     OW24585   4.896   2.762   4.023 -0.8661  0.0436 -0.2617
 6205SOL    HW224586   4.981   2.741   3.984 -0.4725  1.5206 -0.2617
 6205SOL    HW324587   4.848   2.680   4.020 -0.8619 -0.0198 -3.8901
 6205SOL    MW424588   4.901   2.749   4.017  0.4345 -0.1389 -0.4945
 6206SOL     OW24589   0.054   5.358   2.836 -0.4539 -0.1767  0.1315
 6206SOL    HW224590   0.147   5.343   2.853 -0.3477  1.0452  0.7247
 6206SOL    HW324591   0.014   5.272   2.849  0.7043 -0.9525 -1.1334
 6206SOL    MW424592   0.061   5.345   2.840  0.0236  0.1871 -0.3698
 6207SOL     OW24593   6.210   5.114   2.572 -0.0268  0.4597  0.3690
 6207SOL    HW224594   6.147   5.135   2.502 -1.2251 -0.7091  1.0421
 6207SOL    HW324595   6.206   5.018   2.579 -0.6071  0.5923  2.6163
 6207SOL    MW424596   6.201   5.104   2.563 -0.1681 -0.2125 -0.0608
 6208SOL     OW24597   1.767   5.995   1.420 -0.0290  0.0530  0.6560
 6208SOL    HW224598   1.740   6.071   1.369 -2.2646 -2.0978 -1.6501
 6208SOL    HW324599   1.706   5.992   1.494 -0.4900  0.0745  0.2824
 6208SOL    MW424600   1.756   6.004   1.423 -0.1925  0.0801  0.2184
 6209SOL     OW24601   4.333   1.943   3.651 -0.3510 -0.7069  0.0056
 6209SOL    HW224602   4.252   1.978   3.614 -1.2299 -0.6504  1.8924
 6209SOL    HW324603   4.390   2.019   3.662 -0.5712 -0.5386 -0.0186
 6209SOL    MW424604   4.330   1.958   3.647 -0.3428  0.3591  0.1511
 6210SOL     OW24605   1.630   2.230   1.555  0.2032 -0.1690 -0.0613
 6210SOL    HW224606   1.702   2.272   1.602  1.0530 -0.9470 -0.6123
 6210SOL    HW324607   1.592   2.300   1.502  1.3493  0.0122 -0.6766
 6210SOL    MW424608   1.635   2.245   1.554 -0.0349  0.2519 -0.2098
 6211SOL     OW24609   2.468   4.831   2.794 -0.5745  0.0153  0.0168
 6211SOL    HW224610   2.471   4.840   2.889  0.4544  1.3307 -0.1052
 6211SOL    HW324611   2.466   4.737   2.779  0.3137 -0.2502  1.3348
 6211SOL    MW424612   2.468   4.820   2.805  0.3765 -0.0273 -0.3397
 6212SOL     OW24613   5.369   2.005   2.908 -0.1445  0.4931 -0.8375
 6212SOL    HW224614   5.366   2.015   2.812  0.1660  0.7459 -0.8227
 6212SOL    HW324615   5.436   1.938   2.923 -2.1680 -1.6569 -0.9323
 6212SOL    MW424616   5.378   1.997   2.897 -0.3075  0.0248  0.2245
 6213SOL     OW24617   2.339   4.550   1.427  0.3163  0.3688 -0.0029
 6213SOL    HW224618   2.262   4.594   1.393  1.7470  1.5553 -1.8696
 6213SOL    HW324619   2.332   4.460   1.394 -0.8102  0.1335  0.8214
 6213SOL    MW424620   2.328   4.544   1.418  0.5139  0.4597 -0.0273
 6214SOL     OW24621   1.448   5.600   5.424  0.4276 -0.4141  0.2399
 6214SOL    HW224622   1.465   5.587   5.517  0.0151 -0.1949  0.3479
 6214SOL    HW324623   1.472   5.516   5.383 -1.0467 -1.1348  0.7760
 6214SOL    MW424624   1.454   5.587   5.431 -0.0931 -0.4485 -0.3514
 6215SOL     OW24625   0.244   5.879   3.841 -0.0030 -0.2360 -0.1577
 6215SOL    HW224626   0.254   5.812   3.774  1.0431 -0.9552  0.6782
 6215SOL    HW324627   0.258   5.832   3.924  0.2738  0.9184  0.4717
 6215SOL    MW424628   0.247   5.864   3.843  0.4826 -0.3467  0.1135
 6216SOL     OW24629   1.120   6.187   1.377  0.1783  0.0831  0.1262
 6216SOL    HW224630   1.092   6.264   1.328 -1.2325 -1.1608 -1.1128
 6216SOL    HW324631   1.043   6.162   1.428  0.6582 -0.4365  0.6067
 6216SOL    MW424632   1.106   6.194   1.377 -0.0665 -0.5452  0.2532
 6217SOL     OW24633   4.919   5.966   4.881 -0.3149 -0.0629  0.1921
 6217SOL    HW224634   4.902   5.915   4.801 -0.4121  2.1162 -1.2584
 6217SOL    HW324635   5.008   5.999   4.869 -0.0066 -0.4122  1.4197
 6217SOL    MW424636   4.928   5.963   4.869  0.4117  0.0408 -0.4166
 6218SOL     OW24637   1.244   5.941   2.577  0.2418 -0.4306 -0.3383
 6218SOL    HW224638   1.249   5.919   2.484 -0.1102 -1.1085 -0.2107
 6218SOL    HW324639   1.156   5.978   2.588 -0.5767 -2.3732  0.0978
 6218SOL    MW424640   1.233   5.943   2.566 -0.0296 -0.6364  0.0749
 6219SOL     OW24641   2.727   1.105   2.698 -0.1416  0.1052 -0.3914
 6219SOL    HW224642   2.737   1.027   2.642 -1.1941 -1.1457  1.0738
 6219SOL    HW324643   2.678   1.167   2.644 -1.2003 -1.0886 -0.8653
 6219SOL    MW424644   2.722   1.103   2.683 -0.0590  0.1288 -0.5190
 6220SOL     OW24645   4.046   4.461   1.566 -0.4404 -0.1664  0.2206
 6220SOL    HW224646   3.999   4.405   1.504 -0.4239  0.4942 -0.3951
 6220SOL    HW324647   4.081   4.532   1.513  2.8486 -1.5601  0.2982
 6220SOL    MW424648   4.044   4.463   1.551 -0.1493  0.3396 -0.2687
 6221SOL     OW24649   2.966   2.281   4.723 -0.3115 -0.0070 -0.5678
 6221SOL    HW224650   2.943   2.367   4.756 -1.5034  0.2449 -1.9700
 6221SOL    HW324651   2.945   2.221   4.795 -1.5938  0.6461 -0.3708
 6221SOL    MW424652   2.960   2.284   4.737  0.3816 -0.5722 -0.0077
 6222SOL     OW24653   6.438   1.894   3.608 -0.2367 -0.3569  0.1518
 6222SOL    HW224654   6.492   1.958   3.562 -2.4393  0.9749 -0.7378
 6222SOL    HW324655   6.363   1.944   3.640  0.2461 -1.6016  3.6712
 6222SOL    MW424656   6.435   1.909   3.606 -0.3166 -0.4863 -0.5382
 6223SOL     OW24657   5.924   1.626   0.992  0.1393 -0.0440 -0.6449
 6223SOL    HW224658   5.946   1.708   1.037 -2.5023  0.4613 -0.1343
 6223SOL    HW324659   5.964   1.635   0.905  0.9034  1.2400 -0.1938
 6223SOL    MW424660   5.933   1.638   0.987 -0.2752 -0.2255  0.0201
 6224SOL     OW24661   0.890   3.788   3.554 -0.4146 -0.2376  0.0371
 6224SOL    HW224662   0.926   3.717   3.607  0.1917 -0.8831 -1.1800
 6224SOL    HW324663   0.943   3.864   3.576 -1.2228 -0.0777  1.5285
 6224SOL    MW424664   0.902   3.788   3.564 -0.2024 -0.0549 -0.2919
 6225SOL     OW24665   5.973   0.504   1.019 -0.0217 -0.5132 -0.4186
 6225SOL    HW224666   5.991   0.598   1.024  0.1609 -0.5723  3.3887
 6225SOL    HW324667   6.054   0.465   0.987  0.2245  0.5517 -1.1256
 6225SOL    MW424668   5.986   0.512   1.016  0.2170 -0.0269 -0.6812
 6226SOL     OW24669   0.787   1.112   5.177  0.3803 -0.4440  0.1418
 6226SOL    HW224670   0.879   1.085   5.181  0.9273  0.8668 -1.8104
 6226SOL    HW324671   0.791   1.208   5.185 -0.8657 -0.4229  0.5712
 6226SOL    MW424672   0.800   1.121   5.179 -0.0438  0.2691 -0.0929
 6227SOL     OW24673   5.318   5.329   2.171 -0.1826 -0.0248  0.6628
 6227SOL    HW224674   5.252   5.320   2.103 -1.2062  0.3504  1.5695
 6227SOL    HW324675   5.380   5.393   2.138 -0.3806 -0.2323 -0.1171
 6227SOL    MW424676   5.317   5.336   2.158  0.9792  0.5994  0.2376
 6228SOL     OW24677   4.955   5.942   2.041 -0.1049  0.5745 -0.0305
 6228SOL    HW224678   4.872   5.967   2.083 -1.6150 -1.9420 -1.2761
 6228SOL    HW324679   4.941   5.959   1.948  0.7451  0.0798 -0.2591
 6228SOL    MW424680   4.942   5.947   2.035  0.1499 -0.0938  0.5666
 6229SOL     OW24681   1.870   6.208   2.632 -0.5385  0.1674 -0.1601
 6229SOL    HW224682   1.846   6.119   2.660 -1.6935  0.0309 -1.4887
 6229SOL    HW324683   1.962   6.216   2.655  0.3500 -2.3508 -2.3085
 6229SOL    MW424684   1.879   6.197   2.639  0.3185  0.1686  0.4883
 6230SOL     OW24685   1.019   4.359   2.475  0.2555  0.2388  0.0150
 6230SOL    HW224686   1.104   4.403   2.485  0.3501 -0.2654  1.7284
 6230SOL    HW324687   0.966   4.392   2.548 -0.3506 -0.9283  0.1220
 6230SOL    MW424688   1.023   4.369   2.486  0.2011 -0.3603  0.2524
 6231SOL     OW24689   5.054   4.982   0.833  0.0790 -0.4716  0.1027
 6231SOL    HW224690   5.053   5.066   0.788 -1.9886 -1.3911 -1.7386
 6231SOL    HW324691   4.991   4.993   0.905 -0.8110 -0.6592 -0.6318
 6231SOL    MW424692   5.046   4.995   0.837  0.4314 -0.0664 -0.1522
 6232SOL     OW24693   3.997   1.673   1.201 -0.5872  0.5619  0.1096
 6232SOL    HW224694   3.989   1.620   1.121  2.1384  1.4827 -0.8967
 6232SOL    HW324695   4.001   1.763   1.169  0.4155  0.9544  1.2591
 6232SOL    MW424696   3.997   1.678   1.186  0.0790  0.1235  0.0778
 6233SOL     OW24697   3.974   2.751   2.604 -0.1260 -0.3699  0.1939
 6233SOL    HW224698   4.036   2.707   2.662 -0.6724  1.5449  2.3358
 6233SOL    HW324699   3.889   2.735   2.644 -0.5413  0.7815 -0.2040
 6233SOL    MW424700   3.971   2.743   2.617  0.1937 -0.2671  0.2348
 6234SOL     OW24701   6.095   3.841   6.245  0.1961 -0.0156 -0.5563
 6234SOL    HW224702   6.123   3.907   6.182  0.9177  0.0865 -0.1330
 6234SOL    HW324703   6.165   3.838   6.310 -0.5230 -0.1435  0.2274
 6234SOL    MW424704   6.108   3.849   6.245  0.3013 -0.1409  0.0620
 6235SOL     OW24705   3.400   2.390   5.426  0.1228  0.6484 -0.6213
 6235SOL    HW224706   3.305   2.389   5.432 -0.0322  2.3727 -1.9091
 6235SOL    HW324707   3.424   2.479   5.451  1.4639  0.0970  0.1598
 6235SOL    MW424708   3.391   2.402   5.430  0.3139 -0.4588  0.4550
 6236SOL     OW24709   0.536   5.069   5.025 -0.7407 -0.2602 -0.3885
 6236SOL    HW224710   0.511   5.089   5.116 -0.1778 -0.3094 -0.2204
 6236SOL    HW324711   0.486   5.132   4.973 -1.3082 -0.4386 -0.0666
 6236SOL    MW424712   0.526   5.080   5.030  0.0798 -0.1348 -0.0926
 6237SOL     OW24713   5.892   1.880   2.662 -0.5915 -0.0866  0.3110
 6237SOL    HW224714   5.869   1.793   2.629  0.5653 -0.9641  1.6556
 6237SOL    HW324715   5.819   1.904   2.719 -1.7542  0.6540 -1.4132
 6237SOL    MW424716   5.880   1.872   2.665 -0.0211  0.3455  0.4130
 6238SOL     OW24717   1.360   5.037   2.012 -0.6266  0.1855  0.5513
 6238SOL    HW224718   1.317   5.101   2.069 -1.0289  2.0495 -1.7160
 6238SOL    HW324719   1.425   4.994   2.069 -0.5832  2.3567  2.2620
 6238SOL    MW424720   1.363   5.039   2.027 -0.0888 -0.5685  0.2087
 6239SOL     OW24721   0.583   1.730   1.058  0.4661 -0.1606  0.1200
 6239SOL    HW224722   0.553   1.653   1.106 -3.6902  1.1388  0.0604
 6239SOL    HW324723   0.639   1.696   0.989  1.3996 -2.7327  2.0078
 6239SOL    MW424724   0.586   1.716   1.055  0.0524 -0.6124 -0.4996
 6240SOL     OW24725   0.538   2.157   0.254  0.7162  1.0523  0.7418
 6240SOL    HW224726   0.442   2.161   0.259  0.5286 -0.5405 -0.7696
 6240SOL    HW324727   0.562   2.240   0.212 -0.1268  0.9633  0.0331
 6240SOL    MW424728   0.529   2.169   0.249 -0.2126  0.8830 -0.0895
 6241SOL     OW24729   2.177   5.080   2.294 -0.2940  0.0963  0.1654
 6241SOL    HW224730   2.267   5.061   2.320 -0.5111 -0.8012  0.2959
 6241SOL    HW324731   2.124   5.045   2.366 -0.6775  2.9648  1.4315
 6241SOL    MW424732   2.182   5.073   2.307 -0.2632 -0.4050 -0.4682
 6242SOL     OW24733   0.346   1.581   3.593 -0.4892  0.1410 -0.3617
 6242SOL    HW224734   0.332   1.648   3.659 -0.8195 -0.6093  0.3481
 6242SOL    HW324735   0.436   1.552   3.606 -0.4952  0.1233 -0.3588
 6242SOL    MW424736   0.356   1.586   3.603 -0.2634 -0.2740  0.2176
 6243SOL     OW24737   0.086   3.719   1.608 -0.5136 -0.2754  0.3815
 6243SOL    HW224738   0.094   3.625   1.623  1.5964 -0.1409  0.4429
 6243SOL    HW324739   0.106   3.731   1.515  0.5027  0.2081  0.6475
 6243SOL    MW424740   0.090   3.708   1.598 -0.5738  0.0470  0.1575
 6244SOL     OW24741   5.187   0.008   4.143 -0.2116  0.5028 -0.0410
 6244SOL    HW224742   5.186   0.094   4.102 -0.7928  0.4469 -0.1499
 6244SOL    HW324743   5.242   0.018   4.220  0.1141  0.8474 -0.3128
 6244SOL    MW424744   5.194   0.021   4.147  0.6173  0.5105 -0.0786
 6245SOL     OW24745   0.549   4.531   2.959 -0.1297  0.3422  0.4042
 6245SOL    HW224746   0.592   4.530   3.044  1.4666 -0.9948 -0.3693
 6245SOL    HW324747   0.468   4.482   2.973 -0.1768  0.6509  1.2787
 6245SOL    MW424748   0.544   4.525   2.972  0.3751  0.0132  0.3499
 6246SOL     OW24749   4.406   2.707   0.731  0.1979  0.6062 -0.2724
 6246SOL    HW224750   4.470   2.771   0.761 -1.7097  2.4067  0.1717
 6246SOL    HW324751   4.337   2.708   0.798 -0.4596 -1.0259 -0.8664
 6246SOL    MW424752   4.405   2.715   0.744  0.4023  0.9414  1.0678
 6247SOL     OW24753   4.903   3.172   6.274 -0.0843 -0.1471  0.1727
 6247SOL    HW224754   4.847   3.229   6.221 -1.7240 -0.6295  1.2868
 6247SOL    HW324755   4.858   3.167   6.359 -0.4965 -3.7213 -0.1199
 6247SOL    MW424756   4.889   3.179   6.279  0.5170  0.1104 -0.2958
 6248SOL     OW24757   5.418   4.800   4.910  0.0837  0.0341  0.1726
 6248SOL    HW224758   5.329   4.829   4.894 -0.0722 -0.4975  0.0624
 6248SOL    HW324759   5.446   4.761   4.827  0.3822  0.1168  0.2338
 6248SOL    MW424760   5.410   4.798   4.897  0.3529 -0.4480  0.0968
 6249SOL     OW24761   1.596   3.164   0.454  0.5001  0.0738 -0.2680
 6249SOL    HW224762   1.511   3.198   0.482  0.1268 -0.9401 -0.1536
 6249SOL    HW324763   1.588   3.152   0.360 -0.1186 -1.7388 -0.0142
 6249SOL    MW424764   1.584   3.167   0.445  0.6665 -0.2824  0.0851
 6250SOL     OW24765   4.128   3.242   2.028  0.2083  0.0289 -0.2955
 6250SOL    HW224766   4.063   3.172   2.042  0.2078  0.1616  0.4060
 6250SOL    HW324767   4.155   3.232   1.936  0.0128 -0.7240 -0.2773
 6250SOL    MW424768   4.123   3.231   2.018  0.2408 -0.6693  0.6630
 6251SOL     OW24769   3.530   1.738   5.832 -0.2900  0.4477  0.1296
 6251SOL    HW224770   3.458   1.737   5.769  0.5813  0.3035 -0.8942
 6251SOL    HW324771   3.542   1.647   5.858 -0.3174  0.4384  0.1090
 6251SOL    MW424772   3.522   1.726   5.827  0.0871  0.8935 -0.4535
 6252SOL     OW24773   5.848   0.805   1.164 -0.1104 -0.2172  0.6083
 6252SOL    HW224774   5.796   0.883   1.140 -0.6390  0.1951  2.8530
 6252SOL    HW324775   5.782   0.737   1.179  0.2394 -0.6420  0.2001
 6252SOL    MW424776   5.832   0.807   1.163  0.3784 -0.5988 -0.7411
 6253SOL     OW24777   0.628   1.859   2.310 -0.1100  0.6308 -0.6235
 6253SOL    HW224778   0.585   1.775   2.326  0.2572  0.6915  0.7558
 6253SOL    HW324779   0.715   1.835   2.277  0.0732  0.4520 -0.0269
 6253SOL    MW424780   0.634   1.844   2.307 -0.3496 -0.3331 -0.1545
 6254SOL     OW24781   5.459   2.189   0.299 -0.1361  0.4742  0.1169
 6254SOL    HW224782   5.370   2.163   0.276  0.1529  0.4069 -0.9729
 6254SOL    HW324783   5.452   2.283   0.319 -0.2895  0.6978 -0.9281
 6254SOL    MW424784   5.446   2.198   0.298 -0.2425 -0.2850 -0.3126
 6255SOL     OW24785   1.317   2.257   5.887  0.4538 -1.0182 -0.2346
 6255SOL    HW224786   1.355   2.242   5.974  1.5915 -1.9162 -0.8592
 6255SOL    HW324787   1.340   2.178   5.837 -0.8385 -0.8486 -1.1338
 6255SOL    MW424788   1.325   2.245   5.892  0.4819  0.0696 -0.7319
 6256SOL     OW24789   3.241   3.290   3.177  0.2890  0.3599 -0.0157
 6256SOL    HW224790   3.238   3.263   3.086  1.6540  1.4208 -0.4058
 6256SOL    HW324791   3.301   3.229   3.219 -1.0916 -0.7423  0.4302
 6256SOL    MW424792   3.248   3.279   3.171 -0.2748  0.1384  0.1958
 6257SOL     OW24793   1.453   3.622   5.358 -0.4962  0.2995 -0.9337
 6257SOL    HW224794   1.422   3.532   5.354  0.5049 -0.0596 -0.8762
 6257SOL    HW324795   1.418   3.663   5.279  3.3202 -1.5836 -3.9512
 6257SOL    MW424796   1.444   3.616   5.347 -0.0032  0.1736 -0.1752
 6258SOL     OW24797   0.548   6.073   4.738 -0.4216 -0.3842 -0.0742
 6258SOL    HW224798   0.624   6.097   4.791 -0.0883  1.1948 -1.1758
 6258SOL    HW324799   0.519   5.989   4.773  0.1641  0.2807  2.1579
 6258SOL    MW424800   0.554   6.065   4.750  0.5931  0.1936  0.2314
 6259SOL     OW24801   0.763   6.272   6.270  0.4603 -0.4638 -0.3218
 6259SOL    HW224802   0.828   6.252   6.202  0.3635 -0.5982 -0.3750
 6259SOL    HW324803   0.716   6.348   6.236  0.3058 -0.6263 -0.4819
 6259SOL    MW424804   0.765   6.279   6.256 -0.2684 -0.1600  0.1352
 6260SOL     OW24805   0.217   0.342   1.824 -0.2377 -0.0215 -0.1308
 6260SOL    HW224806   0.302   0.368   1.792 -0.2386  1.8938  1.2539
 6260SOL    HW324807   0.156   0.366   1.755  0.0167  1.6875  0.2069
 6260SOL    MW424808   0.220   0.348   1.811 -0.4537 -0.6740 -0.4752
 6261SOL     OW24809   2.690   4.958   4.214  0.2212  0.7158 -0.0775
 6261SOL    HW224810   2.694   4.945   4.119 -3.8145  0.0662 -0.3280
 6261SOL    HW324811   2.718   4.875   4.251  2.5092  1.1958 -0.5780
 6261SOL    MW424812   2.694   4.945   4.206  0.2755  0.6305 -0.4256
 6262SOL     OW24813   4.262   4.827   5.569 -0.6587  0.4259 -0.0575
 6262SOL    HW224814   4.339   4.822   5.512 -1.5090  1.9589 -1.4282
 6262SOL    HW324815   4.207   4.753   5.542  0.1753 -0.5001  0.7269
 6262SOL    MW424816   4.265   4.817   5.558 -0.5155 -0.1463 -0.3123
 6263SOL     OW24817   6.325   0.352   5.082 -0.6139 -0.4878 -0.4800
 6263SOL    HW224818   6.343   0.378   4.992  0.1295 -2.4469 -0.9574
 6263SOL    HW324819   6.411   0.347   5.123 -0.9749  0.7761  0.4806
 6263SOL    MW424820   6.339   0.355   5.075  0.1883  0.3985 -0.0306
 6264SOL     OW24821   5.224   2.814   2.341  0.8927 -0.0523  0.6198
 6264SOL    HW224822   5.145   2.868   2.335  0.5843 -0.5293  0.4117
 6264SOL    HW324823   5.295   2.874   2.318  0.4707  0.0638 -0.4096
 6264SOL    MW424824   5.223   2.829   2.337 -0.7454 -0.4642  0.5485
 6265SOL     OW24825   0.866   6.058   5.263  0.0916 -0.1584  0.0443
 6265SOL    HW224826   0.851   6.117   5.336 -1.4571  0.6785 -0.8824
 6265SOL    HW324827   0.850   5.971   5.298  0.1103  0.1689  0.8754
 6265SOL    MW424828   0.861   6.054   5.277  0.9666 -0.4481  0.1508
 6266SOL     OW24829   0.404   0.914   4.271  0.1956  0.0088  0.7322
 6266SOL    HW224830   0.447   0.999   4.259 -1.0836  0.7772  1.4395
 6266SOL    HW324831   0.443   0.858   4.203  1.5094  0.9619  0.6528
 6266SOL    MW424832   0.415   0.918   4.260  0.4288  0.4470  0.5230
 6267SOL     OW24833   5.348   2.476   3.219  0.4429 -0.6137  0.1534
 6267SOL    HW224834   5.379   2.399   3.266 -2.5174 -0.9806  1.7935
 6267SOL    HW324835   5.356   2.548   3.282 -2.0431 -0.7889  0.7840
 6267SOL    MW424836   5.353   2.476   3.234 -0.0466 -0.4396 -0.8324
 6268SOL     OW24837   5.136   6.279   2.306  0.2611  0.2656  1.0278
 6268SOL    HW224838   5.129   6.189   2.274 -0.0792  0.0083  1.7895
 6268SOL    HW324839   5.048   6.299   2.338  0.6150  0.4646  1.8884
 6268SOL    MW424840   5.123   6.269   2.306  0.5986  0.1390 -0.5020
 6269SOL     OW24841   2.102   0.570   6.302 -0.4505 -0.1393  0.2729
 6269SOL    HW224842   2.046   0.535   6.233 -1.7506  0.1078  1.1657
 6269SOL    HW324843   2.166   0.500   6.319 -1.3364 -0.9895  0.1666
 6269SOL    MW424844   2.103   0.556   6.295 -0.3528  0.1788  0.1525
 6270SOL     OW24845   2.492   4.295   5.168  0.4532 -0.1023  0.0682
 6270SOL    HW224846   2.485   4.376   5.116 -1.6746 -0.0694  0.3256
 6270SOL    HW324847   2.411   4.248   5.150  1.4779 -2.0279  0.2488
 6270SOL    MW424848   2.481   4.300   5.159  0.6951 -0.1444  0.5204
 6271SOL     OW24849   5.059   4.600   2.097 -0.2896 -0.3867 -0.1460
 6271SOL    HW224850   5.039   4.686   2.060  0.6729 -0.1860 -0.2384
 6271SOL    HW324851   5.146   4.611   2.136  1.0406 -1.9802 -2.4294
 6271SOL    MW424852   5.068   4.613   2.098  0.2210  0.2862 -0.6446
 6272SOL     OW24853   6.049   3.500   2.657  0.5128 -0.4174 -0.5122
 6272SOL    HW224854   6.006   3.575   2.617  1.3536  0.2770 -0.1308
 6272SOL    HW324855   6.030   3.427   2.597 -1.3298 -0.1969 -0.2596
 6272SOL    MW424856   6.041   3.500   2.644 -0.6039  0.8099  0.4524
 6273SOL     OW24857   4.853   5.272   0.987  0.3581 -0.5980  0.2087
 6273SOL    HW224858   4.923   5.255   0.923 -0.3200 -2.6900 -0.0481
 6273SOL    HW324859   4.777   5.294   0.934  0.8291  1.9417  0.4987
 6273SOL    MW424860   4.852   5.272   0.971 -0.6351  0.7999 -0.0510
 6274SOL     OW24861   3.403   2.399   3.834  0.3897 -0.1778 -0.3782
 6274SOL    HW224862   3.432   2.438   3.916  0.8654  0.0409 -0.6489
 6274SOL    HW324863   3.320   2.356   3.856 -0.4351  1.4408 -0.1974
 6274SOL    MW424864   3.396   2.398   3.848  0.3223  0.6204  0.7043
 6275SOL     OW24865   2.817   5.058   0.149  0.1681  0.7568 -0.3098
 6275SOL    HW224866   2.856   5.059   0.236  0.8757 -0.3516 -0.5984
 6275SOL    HW324867   2.801   4.965   0.131  0.7767  0.8927 -1.6722
 6275SOL    MW424868   2.820   5.046   0.158 -0.4954 -0.4045  0.2110
 6276SOL     OW24869   3.530   3.604   1.182  0.0441 -0.0944  0.1656
 6276SOL    HW224870   3.508   3.695   1.199  1.3654  0.2937 -0.1534
 6276SOL    HW324871   3.490   3.556   1.255 -0.5698  0.7390  0.3868
 6276SOL    MW424872   3.522   3.609   1.194  0.1273  0.4342  0.0763
 6277SOL     OW24873   4.994   1.122   3.902 -0.6136  0.0989 -0.1966
 6277SOL    HW224874   5.062   1.057   3.919 -1.2883 -0.7346 -0.5970
 6277SOL    HW324875   5.036   1.206   3.921  0.4577 -0.4057 -0.2464
 6277SOL    MW424876   5.008   1.125   3.907  0.1795 -0.0544 -0.2191
 6278SOL     OW24877   3.742   4.007   1.966 -0.4574 -0.2014 -0.0328
 6278SOL    HW224878   3.797   4.071   1.919  0.1306  0.6761  1.7554
 6278SOL    HW324879   3.665   3.996   1.910  0.5241  0.2278 -1.5394
 6278SOL    MW424880   3.739   4.014   1.952 -0.0996  0.3679  0.1304
 6279SOL     OW24881   0.534   3.338   2.419  0.2167  0.4557  1.1087
 6279SOL    HW224882   0.447   3.378   2.419  0.1687  0.3532  0.9910
 6279SOL    HW324883   0.538   3.288   2.501 -0.0819 -0.0691  0.8040
 6279SOL    MW424884   0.523   3.336   2.430 -0.3928  0.0868  0.4772
 6280SOL     OW24885   0.316   0.228   3.004  0.9979 -0.1849  0.0356
 6280SOL    HW224886   0.263   0.203   2.928 -0.3038  0.5695  0.6822
 6280SOL    HW324887   0.393   0.270   2.966  0.3774  0.1604 -0.8767
 6280SOL    MW424888   0.319   0.230   2.989  0.2214  0.5238  0.2134
 6281SOL     OW24889   4.476   1.778   2.513 -0.3023  0.2541  0.0232
 6281SOL    HW224890   4.422   1.777   2.592  1.4685 -0.0624  1.2786
 6281SOL    HW324891   4.534   1.853   2.524 -0.8059  0.9424 -1.5806
 6281SOL    MW424892   4.476   1.788   2.525 -0.0956 -0.0048  0.5368
 6282SOL     OW24893   6.034   6.285   0.686  0.4895 -0.2670 -0.4714
 6282SOL    HW224894   6.075   6.366   0.654  0.1450  0.2891  0.4423
 6282SOL    HW324895   5.941   6.297   0.668  0.4289 -0.4232 -0.2632
 6282SOL    MW424896   6.027   6.297   0.679  0.3689 -0.3025 -0.5693
 6283SOL     OW24897   4.019   1.054   3.592 -0.5749  0.3850  0.7958
 6283SOL    HW224898   3.963   1.132   3.599 -0.7241  0.5919 -1.6298
 6283SOL    HW324899   4.097   1.086   3.546 -0.3928 -0.7794  0.2760
 6283SOL    MW424900   4.022   1.069   3.587  0.6536 -0.1919 -0.1491
 6284SOL     OW24901   2.090   1.772   5.516  0.0690 -0.0425 -0.3184
 6284SOL    HW224902   2.072   1.682   5.546 -0.1412  0.0974 -0.0167
 6284SOL    HW324903   2.078   1.826   5.594  1.7223  0.0875 -0.1210
 6284SOL    MW424904   2.086   1.767   5.531 -0.3240 -0.0096  0.3482
 6285SOL     OW24905   5.776   1.631   2.537 -0.1804  0.0158 -0.2723
 6285SOL    HW224906   5.791   1.654   2.445  0.6858 -1.4582 -0.5232
 6285SOL    HW324907   5.687   1.595   2.539 -0.2343  0.1339 -0.5066
 6285SOL    MW424908   5.766   1.630   2.525 -0.5862 -0.0416  0.6383
 6286SOL     OW24909   2.889   1.777   5.480 -0.9459  0.3498  0.5393
 6286SOL    HW224910   2.804   1.747   5.449 -1.1251  1.8327 -0.5297
 6286SOL    HW324911   2.886   1.872   5.467  1.2440  0.3324 -0.5041
 6286SOL    MW424912   2.877   1.786   5.474  0.0459 -0.3321 -0.2856
 6287SOL     OW24913   2.503   0.074   6.074 -0.0354 -0.0174 -0.4435
 6287SOL    HW224914   2.495   0.038   5.986 -2.5394 -0.8948  0.0567
 6287SOL    HW324915   2.480   0.167   6.065  0.2260  0.0127 -0.7888
 6287SOL    MW424916   2.499   0.082   6.061 -0.1124  0.0839  0.1931
 6288SOL     OW24917   1.393   0.072   3.575 -0.1107 -0.2760 -0.1498
 6288SOL    HW224918   1.480   0.107   3.554 -0.1756  0.7482  1.1287
 6288SOL    HW324919   1.333   0.142   3.550 -0.5605 -0.8810 -0.7974
 6288SOL    MW424920   1.397   0.086   3.569  0.1905  0.0767 -0.0661
 6289SOL     OW24921   5.078   1.765   1.478 -0.2937  0.0551  0.5612
 6289SOL    HW224922   5.007   1.701   1.473 -1.6167  1.4146  1.3264
 6289SOL    HW324923   5.042   1.838   1.528  1.4565  1.0478  0.4620
 6289SOL    MW424924   5.064   1.766   1.484 -0.1702 -0.4340 -0.0919
 6290SOL     OW24925   5.644   1.304   2.423  0.1890  0.4667 -0.3374
 6290SOL    HW224926   5.644   1.358   2.344 -3.0907 -0.1127 -0.8870
 6290SOL    HW324927   5.619   1.364   2.493 -0.5444  0.2776 -0.4275
 6290SOL    MW424928   5.640   1.319   2.422 -0.7113  0.3125 -0.2113
 6291SOL     OW24929   4.256   4.488   3.009  0.2283  0.6544  0.0059
 6291SOL    HW224930   4.253   4.584   3.000  1.4145  0.6140 -1.0266
 6291SOL    HW324931   4.337   4.471   3.057  0.2131  0.1454 -0.1454
 6291SOL    MW424932   4.266   4.499   3.014  0.0769 -0.8260 -0.4154
 6292SOL     OW24933   5.496   5.969   1.484 -0.0044 -0.1993 -0.5084
 6292SOL    HW224934   5.435   5.917   1.535  0.2528 -0.9590 -0.9535
 6292SOL    HW324935   5.533   6.031   1.546  2.2328 -2.7586  0.9457
 6292SOL    MW424936   5.493   5.970   1.499 -0.4400 -0.0917 -0.9784
 6293SOL     OW24937   5.550   5.108   2.369 -0.0679  0.0864 -0.1147
 6293SOL    HW224938   5.631   5.060   2.352  0.5140  1.2604 -0.8106
 6293SOL    HW324939   5.500   5.100   2.288 -0.0089  0.5557 -0.2012
 6293SOL    MW424940   5.554   5.101   2.356 -0.5456  0.5056  0.4811
 6294SOL     OW24941   2.502   6.266   5.299  0.1155 -0.1648 -0.1103
 6294SOL    HW224942   2.520   6.172   5.299 -0.6831 -0.3236 -0.0115
 6294SOL    HW324943   2.501   6.291   5.206 -1.3503 -0.5927 -0.2211
 6294SOL    MW424944   2.505   6.257   5.287  0.3784  0.0445  0.1645
 6295SOL     OW24945   4.370   3.923   4.781  0.1012  0.0773  0.6373
 6295SOL    HW224946   4.434   3.969   4.835  0.1784 -0.2070  0.7879
 6295SOL    HW324947   4.383   3.958   4.693  2.4863 -2.0440  0.0309
 6295SOL    MW424948   4.380   3.934   4.776  0.7512  0.6380  0.6855
 6296SOL     OW24949   3.731   4.430   4.728  0.0254 -0.6529  1.3614
 6296SOL    HW224950   3.726   4.338   4.753 -0.1126 -1.2255 -0.5957
 6296SOL    HW324951   3.641   4.462   4.738 -0.0418 -0.8848  1.5132
 6296SOL    MW424952   3.718   4.422   4.733  0.1127 -0.1701  1.0748
 6297SOL     OW24953   4.358   2.208   1.892 -0.4575 -0.3115  0.4506
 6297SOL    HW224954   4.273   2.216   1.848  0.2006  2.2197 -0.5028
 6297SOL    HW324955   4.418   2.179   1.824 -0.5686 -2.5629  1.2302
 6297SOL    MW424956   4.355   2.205   1.877  0.4227  0.5082  0.1455
 6298SOL     OW24957   3.884   0.021   5.673 -0.2323  0.4371 -0.2410
 6298SOL    HW224958   3.813   0.080   5.647 -0.4702 -0.4001 -1.5375
 6298SOL    HW324959   3.844  -0.038   5.737 -0.6013  0.2164 -0.6723
 6298SOL    MW424960   3.870   0.021   5.678 -0.3087 -0.3642  0.0843
 6299SOL     OW24961   0.587   3.239   4.572  0.0530  0.4676  0.8622
 6299SOL    HW224962   0.593   3.288   4.654  0.8490  0.5869  0.7389
 6299SOL    HW324963   0.654   3.171   4.580 -1.6048 -1.1821  1.4021
 6299SOL    MW424964   0.597   3.236   4.584  0.5786 -0.0125  0.2121
 6300SOL     OW24965   1.098   5.445   5.721 -0.2827  0.3817 -0.0664
 6300SOL    HW224966   1.162   5.513   5.700  1.2653 -1.0171 -0.1853
 6300SOL    HW324967   1.109   5.381   5.650  0.6402 -1.4964  1.6710
 6300SOL    MW424968   1.108   5.445   5.709 -0.0572 -0.1939 -0.3138
 6301SOL     OW24969   4.205   1.486   5.598  0.4339 -0.2741  0.2948
 6301SOL    HW224970   4.136   1.543   5.562  2.1985  1.1073 -1.1051
 6301SOL    HW324971   4.235   1.532   5.677  0.2893 -0.4707  0.4647
 6301SOL    MW424972   4.200   1.500   5.604 -0.0383 -0.1608 -0.1686
 6302SOL     OW24973   5.631   3.206   0.347 -0.1411 -0.3556  0.6313
 6302SOL    HW224974   5.676   3.181   0.428  0.0602 -0.1584  0.5812
 6302SOL    HW324975   5.538   3.195   0.367 -0.0521 -1.1664  0.6022
 6302SOL    MW424976   5.624   3.201   0.361  0.1333 -0.0927  0.3319
 6303SOL     OW24977   3.210   2.260   0.159 -0.3225 -0.2514 -0.0387
 6303SOL    HW224978   3.214   2.227   0.069 -1.8260 -1.5954  0.3406
 6303SOL    HW324979   3.117   2.256   0.182  0.0555 -0.0944  1.6471
 6303SOL    MW424980   3.198   2.255   0.150 -0.1817  0.1569  0.3942
 6304SOL     OW24981   2.904   3.772   3.757  0.3511 -0.1791  0.5939
 6304SOL    HW224982   2.839   3.749   3.823  0.6744 -1.8836  0.3735
 6304SOL    HW324983   2.880   3.861   3.729 -0.1474  0.3556  2.5446
 6304SOL    MW424984   2.892   3.781   3.762 -0.3082  0.1344 -0.0330
 6305SOL     OW24985   4.944   5.933   1.750 -0.4990 -0.3983 -0.0230
 6305SOL    HW224986   4.924   5.886   1.669 -2.7904  0.1223  0.1959
 6305SOL    HW324987   4.875   5.999   1.758  0.6917  0.7558  1.4581
 6305SOL    MW424988   4.932   5.936   1.740 -0.0708  0.4643  0.3317
 6306SOL     OW24989   5.807   0.458   6.256 -1.0437 -0.0620 -0.3212
 6306SOL    HW224990   5.764   0.387   6.208  1.2434 -0.5465 -1.8518
 6306SOL    HW324991   5.829   0.420   6.341 -2.1190 -0.3195 -0.1457
 6306SOL    MW424992   5.804   0.443   6.261  0.3584 -0.2162 -0.5663
 6307SOL     OW24993   3.201   2.887   5.453 -0.3321  0.0741  0.1787
 6307SOL    HW224994   3.218   2.963   5.397  0.2119 -0.5284 -0.4944
 6307SOL    HW324995   3.218   2.812   5.397 -0.2925 -0.5494  1.0120
 6307SOL    MW424996   3.205   2.887   5.438 -0.2727 -0.5142 -0.5365
 6308SOL     OW24997   4.277   5.640   4.976 -0.2048 -0.0578 -0.6309
 6308SOL    HW224998   4.258   5.731   4.998 -1.5846 -0.9196  2.2671
 6308SOL    HW324999   4.366   5.626   5.009 -0.1734  0.0912 -0.6502
 6308SOL    MW425000   4.287   5.650   4.983 -0.4117 -0.3332  0.3283
 6309SOL     OW25001   0.136   2.215   5.125 -0.2682  0.0019 -0.9046
 6309SOL    HW225002   0.136   2.122   5.101  1.4049  0.0552 -1.2544
 6309SOL    HW325003   0.192   2.219   5.203 -1.6293  0.5162  0.0697
 6309SOL    MW425004   0.143   2.203   5.133  0.2778  0.6652 -0.2466
 6310SOL     OW25005   4.514   2.422   2.026 -0.6465 -0.0667  0.8126
 6310SOL    HW225006   4.453   2.443   2.096 -0.7071 -1.2881  1.1470
 6310SOL    HW325007   4.485   2.337   1.994  0.3117 -0.2275  0.3448
 6310SOL    MW425008   4.502   2.414   2.031 -0.0378  0.8429  0.1819
 6311SOL     OW25009   0.905   2.244   0.596  0.4453  0.0633 -0.6157
 6311SOL    HW225010   0.904   2.177   0.664  2.2202  1.1579  0.5804
 6311SOL    HW325011   0.997   2.251   0.570  0.0434  0.8565 -1.9217
 6311SOL    MW425012   0.917   2.236   0.601 -0.1004  0.4218 -0.2775
 6312SOL     OW25013   5.544   4.383   0.648  0.3513 -0.1584  0.2399
 6312SOL    HW225014   5.450   4.365   0.651  0.6637 -2.0771 -0.1098
 6312SOL    HW325015   5.575   4.366   0.737  0.0757  2.7068  0.9849
 6312SOL    MW425016   5.536   4.379   0.660  0.2633  0.8907 -0.4198
 6313SOL     OW25017   1.929   1.713   4.924 -0.6291  0.1909  0.5144
 6313SOL    HW225018   1.904   1.746   4.839 -0.0348 -1.2936 -0.2854
 6313SOL    HW325019   1.909   1.619   4.920  3.1252 -0.7701  0.4589
 6313SOL    MW425020   1.923   1.705   4.913  0.2786  0.5159 -0.4114
 6314SOL     OW25021   3.208   1.806   3.084  0.0670 -0.4720  0.0334
 6314SOL    HW225022   3.169   1.786   2.999  1.4568 -1.2823 -0.4362
 6314SOL    HW325023   3.144   1.864   3.126 -0.1267  0.8886 -2.0083
 6314SOL    MW425024   3.194   1.811   3.079 -0.6654  0.0954 -0.0303
 6315SOL     OW25025   0.725   2.130   3.150 -0.1573 -0.3374 -0.1869
 6315SOL    HW225026   0.800   2.189   3.150 -0.6021  0.2506  0.2710
 6315SOL    HW325027   0.649   2.189   3.155 -0.6048 -0.9612  0.5893
 6315SOL    MW425028   0.725   2.146   3.150  0.0761 -0.1976  0.0927
 6316SOL     OW25029   0.508   2.621   0.529 -0.2148 -0.5189 -0.4778
 6316SOL    HW225030   0.537   2.634   0.619 -1.7597  0.4294 -0.0669
 6316SOL    HW325031   0.563   2.680   0.478 -1.1576  1.0729  0.2496
 6316SOL    MW425032   0.519   2.631   0.534  0.4712 -0.6615  0.0226
 6317SOL     OW25033   2.099   0.675   5.322 -0.1584  0.3025  0.4512
 6317SOL    HW225034   2.032   0.736   5.351 -0.2006  0.0855  0.8218
 6317SOL    HW325035   2.158   0.727   5.268  1.0885  1.2220  2.5817
 6317SOL    MW425036   2.098   0.690   5.318  0.2055 -0.4554  0.0478
 6318SOL     OW25037   2.824   1.210   1.963  0.8157  0.3759 -0.3398
 6318SOL    HW225038   2.825   1.174   1.874  1.5097  1.8840 -0.9868
 6318SOL    HW325039   2.764   1.285   1.957  1.6657  1.1229  0.1631
 6318SOL    MW425040   2.816   1.215   1.950 -0.4293  0.2519 -0.1253
 6319SOL     OW25041   4.917   4.292   1.803  0.0526 -0.2762  0.0354
 6319SOL    HW225042   4.847   4.321   1.745 -0.0801 -1.2317 -0.3016
 6319SOL    HW325043   4.995   4.339   1.773  0.4527 -2.2681 -2.3113
 6319SOL    MW425044   4.918   4.302   1.792  0.2642 -0.0652 -0.0434
 6320SOL     OW25045   0.441   5.816   4.856  0.2338 -0.1156 -0.0002
 6320SOL    HW225046   0.376   5.751   4.828  0.4258 -0.9443  1.4152
 6320SOL    HW325047   0.408   5.849   4.939  1.2137  0.0648  0.3270
 6320SOL    MW425048   0.428   5.812   4.863 -0.3850  0.2530 -0.5739
 6321SOL     OW25049   6.119   3.123   0.463  0.7183 -0.5235 -0.5202
 6321SOL    HW225050   6.072   3.081   0.391 -0.5527  0.9617 -0.5918
 6321SOL    HW325051   6.181   3.182   0.421  1.0489 -0.7801 -0.3996
 6321SOL    MW425052   6.121   3.125   0.448  0.1589 -0.3361 -0.0795
 6322SOL     OW25053   6.319   4.858   0.422  0.5391  0.1331  0.5230
 6322SOL    HW225054   6.375   4.888   0.493  1.0680 -1.5484  0.8685
 6322SOL    HW325055   6.253   4.803   0.465 -0.3580  0.7098 -0.0776
 6322SOL    MW425056   6.318   4.854   0.437  0.1491 -0.0652  0.0194
 6323SOL     OW25057   5.502   6.394   5.783  0.2060  0.4153  0.2822
 6323SOL    HW225058   5.509   6.469   5.724  0.2735 -2.5626 -3.9649
 6323SOL    HW325059   5.409   6.375   5.786  0.2015  0.5633  1.2551
 6323SOL    MW425060   5.491   6.402   5.775 -0.1624  0.9429  0.3992
 6324SOL     OW25061   2.504   3.648   4.157  0.3618 -0.1410  0.1188
 6324SOL    HW225062   2.472   3.617   4.072  0.6367 -0.5288  0.1502
 6324SOL    HW325063   2.477   3.739   4.162  3.2332  0.9494 -1.8668
 6324SOL    MW425064   2.496   3.656   4.147 -0.8712 -0.1361  0.2746
 6325SOL     OW25065   3.081   1.735   2.856 -0.2344  0.3332 -0.5871
 6325SOL    HW225066   3.116   1.767   2.773 -0.0596  1.4066 -0.1128
 6325SOL    HW325067   3.108   1.643   2.860  0.4159  0.4833 -1.3536
 6325SOL    MW425068   3.089   1.727   2.846  0.1600  0.0946 -0.0983
 6326SOL     OW25069   1.980   5.882   0.264  0.0806  0.3922 -0.2025
 6326SOL    HW225070   1.991   5.971   0.297  0.2578  0.9608 -1.7265
 6326SOL    HW325071   1.962   5.892   0.170  1.4211 -1.2036 -0.6949
 6326SOL    MW425072   1.979   5.895   0.256 -0.3209 -0.0415  0.3262
 6327SOL     OW25073   5.169  -0.002   2.094 -0.1470  0.2454 -0.0345
 6327SOL    HW225074   5.169  -0.042   2.181  0.7503  1.4135  0.5197
 6327SOL    HW325075   5.145  -0.074   2.036 -2.5947 -0.1656  1.3373
 6327SOL    MW425076   5.166  -0.017   2.098  0.3492  0.1746 -0.7452
 6328SOL     OW25077   3.729   0.788   1.795  0.2199 -0.2879 -0.2276
 6328SOL    HW225078   3.805   0.842   1.816 -0.7894  1.1359 -0.0265
 6328SOL    HW325079   3.682   0.779   1.877 -0.2250 -0.4764 -0.4975
 6328SOL    MW425080   3.733   0.794   1.808 -0.0320 -0.6504 -0.5788
 6329SOL     OW25081   2.784   2.545   3.537 -0.2287  0.4494 -0.1372
 6329SOL    HW225082   2.843   2.493   3.592  0.7749  0.6940 -0.9461
 6329SOL    HW325083   2.735   2.480   3.487 -0.8973  0.2340  0.7696
 6329SOL    MW425084   2.785   2.529   3.538  0.1735 -0.4982 -0.7752
 6330SOL     OW25085   3.563   3.642   4.944 -0.1790 -0.7281 -0.3063
 6330SOL    HW225086   3.520   3.649   4.859 -0.8623 -1.4658 -0.0384
 6330SOL    HW325087   3.608   3.558   4.941  0.0713 -0.6021 -0.0656
 6330SOL    MW425088   3.563   3.632   4.933 -0.2056  0.8901  0.1409
 6331SOL     OW25089   5.243   3.559   0.445 -0.0493  0.6818  0.1209
 6331SOL    HW225090   5.231   3.651   0.471 -1.7786  0.3218  0.7687
 6331SOL    HW325091   5.211   3.509   0.521  0.4048 -0.4480 -0.4161
 6331SOL    MW425092   5.237   3.565   0.458  0.1786  0.5767  0.6759
 6332SOL     OW25093   3.481   4.598   1.887 -0.1392  0.4648 -0.0562
 6332SOL    HW225094   3.479   4.615   1.792 -1.6418  0.6953 -0.0215
 6332SOL    HW325095   3.400   4.550   1.904  0.8815 -1.0107  0.8958
 6332SOL    MW425096   3.470   4.594   1.876 -0.0958  0.9887 -0.0713
 6333SOL     OW25097   1.308   3.847   1.539  0.0801 -0.1609 -0.2316
 6333SOL    HW225098   1.215   3.827   1.534  0.0797 -0.1013 -0.4590
 6333SOL    HW325099   1.342   3.828   1.452  0.6532 -2.0204  0.3422
 6333SOL    MW425100   1.300   3.842   1.527  0.4302  0.1440  0.4435
 6334SOL     OW25101   0.519   4.959   0.577 -0.1425 -0.2076  0.6906
 6334SOL    HW225102   0.437   4.979   0.531 -0.1266 -1.4586  0.0856
 6334SOL    HW325103   0.570   5.041   0.572 -0.1606 -0.2855 -1.5032
 6334SOL    MW425104   0.515   4.973   0.570  0.2430  0.2001  0.2980
 6335SOL     OW25105   4.477   5.228   1.147 -0.0671  0.3785 -0.0983
 6335SOL    HW225106   4.391   5.197   1.119  0.3556 -2.0577  1.0001
 6335SOL    HW325107   4.537   5.195   1.079  0.0288  2.5252 -1.1544
 6335SOL    MW425108   4.474   5.219   1.134 -0.2556 -0.0683 -0.4418
 6336SOL     OW25109   2.573   1.213   6.340 -0.3751 -0.7262 -0.1488
 6336SOL    HW225110   2.629   1.285   6.311 -1.0705  0.4992  1.3712
 6336SOL    HW325111   2.515   1.195   6.266 -0.3324  0.4365 -0.4776
 6336SOL    MW425112   2.573   1.220   6.327 -0.1653 -0.0734 -0.2901
 6337SOL     OW25113   4.396   4.323   5.173  0.4680 -0.0471 -0.3079
 6337SOL    HW225114   4.485   4.293   5.188  0.7389  1.0682  0.4758
 6337SOL    HW325115   4.341   4.251   5.202  1.0827  0.3637  2.0688
 6337SOL    MW425116   4.400   4.310   5.179  0.3288 -0.0885 -0.7047
 6338SOL     OW25117   4.909   2.286   0.244 -0.0508 -0.0650  0.0979
 6338SOL    HW225118   4.985   2.276   0.302  0.5363 -0.2396 -0.6862
 6338SOL    HW325119   4.893   2.198   0.210  0.1241  0.1864 -0.6448
 6338SOL    MW425120   4.917   2.273   0.248  0.4888  0.0495 -0.3502
 6339SOL     OW25121   3.618   4.067   4.879  0.4118 -0.4082 -0.5978
 6339SOL    HW225122   3.587   4.148   4.920  1.3173 -0.3233 -0.0560
 6339SOL    HW325123   3.652   4.014   4.951 -2.1188 -2.2389 -0.6209
 6339SOL    MW425124   3.618   4.071   4.894 -0.1972 -0.1133  0.1125
 6340SOL     OW25125   1.489   0.092   1.258 -0.4800 -0.5019 -0.1045
 6340SOL    HW225126   1.565   0.150   1.257 -1.6056  1.0486 -1.5309
 6340SOL    HW325127   1.525   0.005   1.244  0.9361  0.4241 -3.1387
 6340SOL    MW425128   1.504   0.088   1.256  0.2703  0.1114  0.3884
 6341SOL     OW25129   3.980   1.318   0.299  0.3133 -0.4971  0.2885
 6341SOL    HW225130   4.053   1.288   0.245  0.7420 -1.5083  1.3863
 6341SOL    HW325131   3.985   1.413   0.295  2.5625 -0.4870  1.4047
 6341SOL    MW425132   3.990   1.326   0.291  0.2449  0.9344  0.3437
 6342SOL     OW25133   0.871   2.499   5.303 -0.3495  0.2786  0.1346
 6342SOL    HW225134   0.938   2.567   5.316  0.2219  0.0611 -1.5039
 6342SOL    HW325135   0.788   2.546   5.314  0.0089  1.5045 -1.8922
 6342SOL    MW425136   0.869   2.514   5.306 -0.2546  0.1388  0.3072
 6343SOL     OW25137   1.954   1.305   5.093  0.5350 -0.0204 -0.2655
 6343SOL    HW225138   1.979   1.375   5.031  1.8328  1.2229  1.5617
 6343SOL    HW325139   1.987   1.225   5.053  0.3366  0.5830 -1.7111
 6343SOL    MW425140   1.962   1.304   5.079  0.2046 -0.9425 -0.8473
 6344SOL     OW25141   4.809   4.237   1.027 -0.0779 -0.0169 -0.5087
 6344SOL    HW225142   4.891   4.255   1.073  0.2232 -0.4185 -0.8749
 6344SOL    HW325143   4.778   4.154   1.064  0.3301 -0.5095 -1.2283
 6344SOL    MW425144   4.816   4.228   1.038 -0.3450  0.0727 -0.0009
 6345SOL     OW25145   3.447   6.068   6.144 -0.4296  0.1265  0.5838
 6345SOL    HW225146   3.454   5.975   6.126  3.0981  0.2474  0.5988
 6345SOL    HW325147   3.413   6.072   6.234  0.1962 -1.2022  0.9085
 6345SOL    MW425148   3.444   6.057   6.154  0.4806  0.5865 -0.0566
 6346SOL     OW25149   0.560   0.530   3.438 -0.0278 -0.2574  0.4117
 6346SOL    HW225150   0.634   0.543   3.497  3.4421 -2.1972 -3.1317
 6346SOL    HW325151   0.580   0.584   3.361 -1.7711 -1.6167 -1.0765
 6346SOL    MW425152   0.572   0.539   3.436 -0.2116 -0.3557  0.0490
 6347SOL     OW25153   4.078   0.439   4.933  0.0227 -0.2276  0.0691
 6347SOL    HW225154   4.012   0.431   5.001  1.9073 -3.0900  1.7522
 6347SOL    HW325155   4.098   0.349   4.907  1.3823  0.6428 -2.2825
 6347SOL    MW425156   4.072   0.426   4.938 -0.0065  0.0996  0.0466
 6348SOL     OW25157   2.092   0.074   0.546  0.0663  0.1024  0.2089
 6348SOL    HW225158   2.175   0.083   0.500 -0.1886  2.0808  0.0492
 6348SOL    HW325159   2.026   0.071   0.476 -0.2045  1.6052  0.3677
 6348SOL    MW425160   2.094   0.075   0.531  0.3436  0.1281 -0.6568
 6349SOL     OW25161   1.815   3.073   4.104 -0.2247  0.0976 -0.4833
 6349SOL    HW225162   1.792   3.138   4.171  1.6296 -1.6759  2.0247
 6349SOL    HW325163   1.758   2.998   4.122  0.1326 -0.3226 -1.0742
 6349SOL    MW425164   1.804   3.072   4.115 -0.1841  0.1367 -0.5897
 6350SOL     OW25165   1.242   0.829   5.815  0.5234  0.4517 -0.3641
 6350SOL    HW225166   1.327   0.816   5.858 -0.4343 -0.6200  1.2743
 6350SOL    HW325167   1.244   0.769   5.740  0.8246 -0.3239  0.2560
 6350SOL    MW425168   1.254   0.820   5.811 -0.0886  0.2391 -0.3885
 6351SOL     OW25169   5.982   2.504   1.292  0.3517  0.0467  0.0277
 6351SOL    HW225170   5.918   2.440   1.324  0.0516  0.2945 -0.0742
 6351SOL    HW325171   5.976   2.497   1.196 -0.0499  0.5835  0.0071
 6351SOL    MW425172   5.973   2.495   1.283  0.1249  0.4439  0.0258
 6352SOL     OW25173   6.336   6.219   6.138 -0.4884 -0.0504  0.1151
 6352SOL    HW225174   6.356   6.146   6.197 -1.7011 -0.7614 -0.3145
 6352SOL    HW325175   6.345   6.182   6.050 -4.4926 -0.7957 -0.1662
 6352SOL    MW425176   6.340   6.205   6.134 -0.6398 -0.1240  0.2932
 6353SOL     OW25177   3.961   0.884   6.250 -0.5523 -0.0005 -0.0326
 6353SOL    HW225178   3.996   0.925   6.329 -1.2558  0.5577  0.0055
 6353SOL    HW325179   3.982   0.946   6.180 -0.7983 -0.0242 -0.1279
 6353SOL    MW425180   3.968   0.898   6.251  0.3378  0.7013  0.0202
 6354SOL     OW25181   5.107   4.275   2.807  0.7534 -0.1751  0.4549
 6354SOL    HW225182   5.052   4.207   2.845 -0.0175  0.1270 -0.1152
 6354SOL    HW325183   5.065   4.357   2.833  1.0633  0.0642  0.2079
 6354SOL    MW425184   5.094   4.277   2.816  0.2035 -0.4660 -0.3631
 6355SOL     OW25185   4.838   5.395   4.645  0.0431 -0.0234 -0.2968
 6355SOL    HW225186   4.885   5.354   4.572 -0.4268  0.7754 -1.0526
 6355SOL    HW325187   4.893   5.375   4.722  1.5445  0.7157 -1.1189
 6355SOL    MW425188   4.852   5.387   4.646  0.4459  0.1279  0.4087
 6356SOL     OW25189   4.891   1.355   1.288  0.0693 -0.1887 -0.1309
 6356SOL    HW225190   4.949   1.306   1.231 -0.7240  0.8992 -1.9663
 6356SOL    HW325191   4.827   1.395   1.229 -1.0961  0.6110  1.5724
 6356SOL    MW425192   4.890   1.354   1.273  0.0648  0.5990  0.3414
 6357SOL     OW25193   2.611   3.358   2.642 -0.3978 -0.2245 -0.3309
 6357SOL    HW225194   2.621   3.384   2.550 -2.2638 -0.5377 -0.6532
 6357SOL    HW325195   2.698   3.327   2.668  0.4908  1.0823 -1.5864
 6357SOL    MW425196   2.624   3.357   2.633 -0.1528 -0.3046 -0.5987
 6358SOL     OW25197   3.234   3.527   2.469  0.3356  0.2725  0.3818
 6358SOL    HW225198   3.307   3.478   2.506  0.5853 -2.1677 -2.8023
 6358SOL    HW325199   3.158   3.500   2.522  1.1246 -0.4500  1.1796
 6358SOL    MW425200   3.234   3.517   2.481 -0.3036 -0.8387  0.6170
 6359SOL     OW25201   6.124   2.503   5.125  0.4921  0.2359  0.0972
 6359SOL    HW225202   6.055   2.467   5.180 -0.2214  1.1261 -0.1767
 6359SOL    HW325203   6.203   2.500   5.179  0.1306 -0.3287  0.5999
 6359SOL    MW425204   6.125   2.498   5.139  0.2507  0.2004  0.7183
 6360SOL     OW25205   4.975   6.042   0.516 -0.6210  0.0802  0.2642
 6360SOL    HW225206   4.905   5.976   0.515  1.8472 -2.7695 -0.8103
 6360SOL    HW325207   4.982   6.070   0.424  0.4600 -0.6565  0.1089
 6360SOL    MW425208   4.966   6.037   0.503  0.3622 -0.3632 -0.2534
 6361SOL     OW25209   3.007   5.909   3.877 -0.0996  0.1758  0.4729
 6361SOL    HW225210   2.952   5.831   3.863 -0.0705 -0.2559  2.4001
 6361SOL    HW325211   2.945   5.977   3.904  0.1538  0.0370  1.4359
 6361SOL    MW425212   2.991   5.908   3.879  0.0469  0.3548 -0.0343
 6362SOL     OW25213   5.143   4.473   1.834  0.1515 -0.5101 -0.0442
 6362SOL    HW225214   5.128   4.491   1.927  0.3973 -0.1622 -0.0710
 6362SOL    HW325215   5.213   4.408   1.833  1.7710  1.1523 -0.0340
 6362SOL    MW425216   5.150   4.467   1.846 -0.4488  0.0424  0.6552
 6363SOL     OW25217   3.600   0.486   0.747  0.5033  0.4046  0.6390
 6363SOL    HW225218   3.574   0.537   0.671 -0.2685  1.6089  1.6923
 6363SOL    HW325219   3.633   0.550   0.810  3.0927 -0.7490  0.5879
 6363SOL    MW425220   3.601   0.501   0.745  0.2325 -0.1126 -0.4093
 6364SOL     OW25221   4.565   5.184   4.999  0.3774 -0.8299  0.6355
 6364SOL    HW225222   4.590   5.105   4.952 -0.6331 -1.2065  0.7000
 6364SOL    HW325223   4.489   5.217   4.950  0.2239 -0.4120  1.1461
 6364SOL    MW425224   4.558   5.178   4.986  0.4055  0.0170 -0.0953
 6365SOL     OW25225   5.344   5.268   4.793 -0.3330 -0.4011  0.0674
 6365SOL    HW225226   5.350   5.330   4.720 -0.5169  0.7513  1.0014
 6365SOL    HW325227   5.426   5.280   4.841  0.3224 -2.0253 -0.6076
 6365SOL    MW425228   5.356   5.278   4.790 -0.4465  0.5255 -0.4503
 6366SOL     OW25229   0.558   4.675   5.904  0.2560  0.0207  0.0950
 6366SOL    HW225230   0.650   4.648   5.913  0.6877  1.9294  2.6944
 6366SOL    HW325231   0.509   4.608   5.951  0.5437  0.0144  0.3914
 6366SOL    MW425232   0.564   4.662   5.912  0.0799  0.5750  0.0136
 6367SOL     OW25233   4.113   5.393   6.339  0.5595 -0.0021  0.3795
 6367SOL    HW225234   4.208   5.403   6.335  0.5898 -0.2762  0.3916
 6367SOL    HW325235   4.079   5.464   6.284  0.8047 -0.7038 -0.6990
 6367SOL    MW425236   4.121   5.404   6.331 -0.2939 -0.6425  0.2840
 6368SOL     OW25237   6.396   3.050   1.842 -0.0459 -0.0511 -0.2965
 6368SOL    HW225238   6.354   3.038   1.757  1.6108  1.6196 -1.4614
 6368SOL    HW325239   6.460   2.980   1.847  0.0429  0.0044 -0.5872
 6368SOL    MW425240   6.399   3.039   1.831 -0.3734 -0.0812  0.6273
 6369SOL     OW25241   2.210   5.574   4.706 -0.0273  0.0467 -0.2296
 6369SOL    HW225242   2.190   5.659   4.668 -0.6997  0.3655  0.8206
 6369SOL    HW325243   2.284   5.542   4.654 -0.5375  0.7289 -1.4056
 6369SOL    MW425244   2.217   5.581   4.694 -0.0790 -0.5034 -0.2600
 6370SOL     OW25245   1.037   3.081   2.716  0.3687 -0.7427 -0.5279
 6370SOL    HW225246   1.047   3.069   2.811  2.6004  1.6173 -0.3651
 6370SOL    HW325247   1.113   3.037   2.678  1.7024  1.6558 -0.8259
 6370SOL    MW425248   1.048   3.074   2.724 -0.5592  0.1462  0.1613
 6371SOL     OW25249   3.784   5.087   5.773 -0.2666 -0.1429  0.3571
 6371SOL    HW225250   3.705   5.037   5.793 -0.8595  0.8080  0.4604
 6371SOL    HW325251   3.766   5.127   5.688 -0.0345  0.3271  0.5225
 6371SOL    MW425252   3.771   5.086   5.765 -0.7376  0.6933 -0.6034
 6372SOL     OW25253   2.674   6.289   0.058  0.4798 -0.3261  0.1394
 6372SOL    HW225254   2.584   6.262   0.075  1.1383 -2.6533  0.2880
 6372SOL    HW325255   2.727   6.225   0.105  2.2322  0.5663 -0.5366
 6372SOL    MW425256   2.669   6.277   0.066  0.2958  0.4763  0.0787
 6373SOL     OW25257   3.280   0.673   1.154  0.0126 -0.2639  0.3226
 6373SOL    HW225258   3.276   0.616   1.232  2.1505  0.0494  0.6991
 6373SOL    HW325259   3.294   0.761   1.189  0.5983 -0.0608 -0.4055
 6373SOL    MW425260   3.281   0.677   1.169  0.2137 -0.3319 -0.0934
 6374SOL     OW25261   2.656   0.494   5.597 -0.3919 -0.2023 -0.0820
 6374SOL    HW225262   2.733   0.484   5.654  0.0835  0.5526 -0.5712
 6374SOL    HW325263   2.604   0.415   5.613  0.6276 -0.8749  0.0433
 6374SOL    MW425264   2.660   0.482   5.607  0.0102 -0.1211  0.4554
 6375SOL     OW25265   2.691   0.074   6.309  0.2795 -1.0602 -0.2101
 6375SOL    HW225266   2.655   0.018   6.378  1.0839 -1.6532 -0.2528
 6375SOL    HW325267   2.624   0.074   6.241  0.1527 -1.7605 -0.0939
 6375SOL    MW425268   2.677   0.066   6.310  0.6358 -0.1394  0.0015
 6376SOL     OW25269   3.062   2.135   0.552  0.3853  0.3703 -0.1898
 6376SOL    HW225270   3.049   2.208   0.491  0.2959  0.0824 -0.5155
 6376SOL    HW325271   3.130   2.081   0.510  0.2312  0.1042 -0.0978
 6376SOL    MW425272   3.070   2.137   0.538  0.3005 -0.9246  0.1416
 6377SOL     OW25273   3.926   5.220   5.183  0.1868 -0.3983  0.3093
 6377SOL    HW225274   3.960   5.136   5.215  0.6857 -0.0365  0.7312
 6377SOL    HW325275   3.999   5.259   5.136 -0.5128 -0.8912 -1.2595
 6377SOL    MW425276   3.940   5.214   5.181 -0.1717 -0.1346 -0.2566
 6378SOL     OW25277   0.678   0.622   2.689 -0.3561 -0.3659  0.1638
 6378SOL    HW225278   0.699   0.714   2.674  2.8029 -0.4838  2.8144
 6378SOL    HW325279   0.586   0.623   2.717 -0.2274  2.0794  0.7498
 6378SOL    MW425280   0.668   0.634   2.691  0.0720 -0.0215  0.1321
 6379SOL     OW25281   3.838   5.495   4.043  0.3233  0.4524  0.0882
 6379SOL    HW225282   3.824   5.407   4.009  1.1705  0.2808  0.1691
 6379SOL    HW325283   3.918   5.525   4.001  0.9372  0.5553  1.2850
 6379SOL    MW425284   3.847   5.488   4.033  0.5987 -0.4234 -0.1796
 6380SOL     OW25285   0.869   1.711   4.736 -0.0412  0.1196  0.2723
 6380SOL    HW225286   0.886   1.672   4.821  1.0039  1.0588  0.5319
 6380SOL    HW325287   0.873   1.638   4.674 -0.1615 -0.4709  0.9564
 6380SOL    MW425288   0.872   1.697   4.739 -0.1618 -0.2118 -0.1239
 6381SOL     OW25289   1.479   4.829   3.933  0.6029 -0.0571 -0.4172
 6381SOL    HW225290   1.519   4.744   3.916 -0.3563 -0.4446 -0.8443
 6381SOL    HW325291   1.402   4.809   3.986  1.0829  0.6927  0.6004
 6381SOL    MW425292   1.474   4.816   3.938  0.5710  0.3447  0.3112
 6382SOL     OW25293   5.961   6.099   1.630  0.0265 -0.2828  0.1205
 6382SOL    HW225294   5.880   6.116   1.582  0.0838  0.0161  0.1230
 6382SOL    HW325295   6.030   6.107   1.564 -0.0494 -2.0657 -0.2066
 6382SOL    MW425296   5.959   6.102   1.615 -0.0583  0.1031  0.1777
 6383SOL     OW25297   4.061   0.625   6.276 -0.6196 -0.1729  0.0050
 6383SOL    HW225298   4.155   0.636   6.267 -0.4220  0.9567  2.4631
 6383SOL    HW325299   4.027   0.715   6.283 -1.5601 -0.5888  1.2563
 6383SOL    MW425300   4.069   0.639   6.276  0.2653  0.3601  0.3079
 6384SOL     OW25301   2.979   0.451   3.951 -0.2291  0.4329 -0.6451
 6384SOL    HW225302   2.925   0.373   3.947  3.1323 -2.3254  1.9787
 6384SOL    HW325303   2.956   0.492   4.034  1.7436 -0.9301  0.6370
 6384SOL    MW425304   2.969   0.446   3.961  0.1071 -0.2042 -0.2668
 6385SOL     OW25305   5.537   2.859   1.946 -0.5503 -0.6359  0.0698
 6385SOL    HW225306   5.557   2.765   1.952  0.4356 -0.4232  0.4082
 6385SOL    HW325307   5.556   2.881   1.855  0.3690 -0.5380  0.2711
 6385SOL    MW425308   5.542   2.849   1.935  0.1978 -0.7700 -0.5991
 6386SOL     OW25309   0.982   3.349   0.551 -0.1175 -0.0652 -0.2192
 6386SOL    HW225310   1.058   3.404   0.533  0.1679 -0.4001 -0.0584
 6386SOL    HW325311   0.981   3.285   0.480 -1.0066  0.7192 -0.9359
 6386SOL    MW425312   0.992   3.348   0.540  0.1427 -0.4390 -0.7006
 6387SOL     OW25313   0.993   4.543   0.438  0.3201 -0.3231  0.0606
 6387SOL    HW225314   0.988   4.491   0.358  0.2156 -2.7022  1.5113
 6387SOL    HW325315   1.087   4.560   0.449  0.2912  0.4156 -0.7951
 6387SOL    MW425316   1.005   4.538   0.429  0.1603  0.0480 -0.0310
 6388SOL     OW25317   2.223   4.774   5.985  0.0553  0.2739 -0.1135
 6388SOL    HW225318   2.285   4.703   5.966  2.1517  1.2652  2.4191
 6388SOL    HW325319   2.190   4.754   6.073 -0.6177  1.5642 -0.0544
 6388SOL    MW425320   2.227   4.762   5.994  0.4709 -0.6327 -0.4691
 6389SOL     OW25321   3.519   4.741   4.369  0.1631 -0.2771 -0.4655
 6389SOL    HW225322   3.449   4.697   4.417  1.4601 -2.7421 -0.6612
 6389SOL    HW325323   3.522   4.697   4.285 -0.0934  1.9740 -1.7459
 6389SOL    MW425324   3.510   4.730   4.365  0.2562 -0.1560  0.2681
 6390SOL     OW25325   2.219   4.557   4.808  0.3468  0.4371  0.0852
 6390SOL    HW225326   2.217   4.600   4.722  3.5128  2.5179  0.9085
 6390SOL    HW325327   2.139   4.587   4.851 -0.9527 -0.1050 -1.8104
 6390SOL    MW425328   2.208   4.566   4.802 -0.6327 -0.3408  0.0698
 6391SOL     OW25329   4.839   4.223   6.192 -0.0957 -0.6247  0.4763
 6391SOL    HW225330   4.906   4.285   6.220  0.6075 -1.7926  1.4940
 6391SOL    HW325331   4.866   4.197   6.104  0.8909 -1.1753  0.9215
 6391SOL    MW425332   4.851   4.228   6.184 -0.3506  0.4974 -0.0936
 6392SOL     OW25333   0.903   0.381   3.329  0.8380 -0.2384 -0.2480
 6392SOL    HW225334   0.816   0.342   3.339 -0.3294  2.4771  1.0862
 6392SOL    HW325335   0.940   0.335   3.254 -1.8302 -1.3234 -1.0512
 6392SOL    MW425336   0.896   0.370   3.321  0.0491  0.0621  0.1380
 6393SOL     OW25337   5.784   4.479   6.229 -0.4275  0.0136 -0.1436
 6393SOL    HW225338   5.794   4.498   6.322  1.8676 -2.0481  0.1062
 6393SOL    HW325339   5.840   4.543   6.185 -1.8418  1.2716 -0.2301
 6393SOL    MW425340   5.793   4.490   6.235  0.1656  0.4779 -0.5977
 6394SOL     OW25341   2.351   4.446   0.816  0.0570 -0.3161  0.4652
 6394SOL    HW225342   2.288   4.518   0.812  0.6923  0.1817 -1.2013
 6394SOL    HW325343   2.423   4.480   0.870 -1.1555 -0.9895  2.6231
 6394SOL    MW425344   2.352   4.460   0.823  0.5035  0.0606 -0.2190
 6395SOL     OW25345   5.937   5.991   4.480  0.1389 -0.2059 -0.3685
 6395SOL    HW225346   5.848   6.024   4.483 -0.2078 -1.0904 -0.6101
 6395SOL    HW325347   5.928   5.898   4.457  1.2429  0.2082 -2.7450
 6395SOL    MW425348   5.924   5.983   4.478  0.2500  0.1856 -0.6404
 6396SOL     OW25349   0.842   5.069   0.654 -0.4716 -0.6082  0.6819
 6396SOL    HW225350   0.928   5.110   0.668 -0.5321 -0.5136  0.7841
 6396SOL    HW325351   0.837   5.054   0.560  0.2239 -1.8839  0.8266
 6396SOL    MW425352   0.853   5.073   0.644 -0.4082 -0.6110  0.0014
 6397SOL     OW25353   5.624   3.347   6.351  0.4151  0.7453 -0.3150
 6397SOL    HW225354   5.621   3.440   6.327  2.4515  1.1040  0.5379
 6397SOL    HW325355   5.616   3.348   6.447  0.5044  0.0439 -0.3018
 6397SOL    MW425356   5.623   3.360   6.361  0.0807  0.6886  0.5946
 6398SOL     OW25357   3.434   1.761   5.196  0.0266 -0.4706 -0.0355
 6398SOL    HW225358   3.488   1.780   5.272 -0.9028 -3.6992  1.5960
 6398SOL    HW325359   3.423   1.846   5.153  1.7510  1.2411  2.6009
 6398SOL    MW425360   3.440   1.775   5.200  0.0728 -0.2886  0.0603
 6399SOL     OW25361   4.591   6.124   0.388  0.3902 -0.1040  0.2003
 6399SOL    HW225362   4.522   6.182   0.422  0.8953  0.7877 -0.2633
 6399SOL    HW325363   4.549   6.074   0.318  0.1083  0.1317  0.2008
 6399SOL    MW425364   4.576   6.125   0.383 -0.2056 -0.7757  0.3334
 6400SOL     OW25365   0.268   0.848   2.712 -0.0032 -0.0608  0.3167
 6400SOL    HW225366   0.223   0.823   2.793 -0.2323 -0.0013  0.2080
 6400SOL    HW325367   0.327   0.919   2.738 -0.5601  0.4144  0.3069
 6400SOL    MW425368   0.270   0.854   2.726  0.0411  0.3344  0.2406
 6401SOL     OW25369   2.207   5.262   2.914  0.1884  0.1306  0.2595
 6401SOL    HW225370   2.143   5.278   2.844  0.6350 -0.7076 -0.3703
 6401SOL    HW325371   2.281   5.320   2.892  1.0111 -1.2961 -0.9306
 6401SOL    MW425372   2.208   5.272   2.902 -0.4439  0.1304 -0.1761
 6402SOL     OW25373   5.942   4.926   6.361  0.0267 -0.5555 -0.1475
 6402SOL    HW225374   5.968   4.878   6.440  0.0633 -0.0553  0.1460
 6402SOL    HW325375   5.901   4.860   6.306 -0.7925 -0.7318  0.6516
 6402SOL    MW425376   5.940   4.911   6.364 -0.6088  0.2026 -0.2814
 6403SOL     OW25377   2.529   4.216   4.525 -0.2275  0.0743 -0.2896
 6403SOL    HW225378   2.490   4.246   4.443 -1.1827  0.9538  0.4747
 6403SOL    HW325379   2.623   4.227   4.511 -0.2831 -0.8066 -1.6502
 6403SOL    MW425380   2.536   4.221   4.512 -0.1102 -0.0852 -0.1510
 6404SOL     OW25381   1.796   5.429   5.461 -0.6695  0.4869  0.1186
 6404SOL    HW225382   1.747   5.361   5.506 -0.0266 -0.0655  0.0077
 6404SOL    HW325383   1.879   5.435   5.510 -0.7186  1.1901  0.1302
 6404SOL    MW425384   1.801   5.421   5.473  0.0432  0.4348  0.1532
 6405SOL     OW25385   0.165   2.954   0.239 -0.3698  0.1868  0.7119
 6405SOL    HW225386   0.164   2.949   0.334  2.4930 -3.5205  0.7729
 6405SOL    HW325387   0.242   3.007   0.217 -0.3073 -0.0067  0.4558
 6405SOL    MW425388   0.175   2.960   0.248  0.0887 -0.5684  0.0511
 6406SOL     OW25389   4.144   4.206   2.518  0.4905 -0.0687  0.8820
 6406SOL    HW225390   4.166   4.180   2.428  0.9623 -2.1910  1.5319
 6406SOL    HW325391   4.057   4.169   2.533 -0.3092  1.7038  0.7985
 6406SOL    MW425392   4.136   4.197   2.508  0.2532  0.0567 -0.4523
 6407SOL     OW25393   2.150   0.325   3.595  0.0347  1.1292  0.1065
 6407SOL    HW225394   2.123   0.303   3.684 -0.2190 -0.6825 -0.3710
 6407SOL    HW325395   2.133   0.419   3.587  1.7219  1.7152  2.5088
 6407SOL    MW425396   2.144   0.335   3.605  0.2131  0.4324 -0.3093
 6408SOL     OW25397   0.624   1.506   4.754  0.2222 -0.3447 -0.1523
 6408SOL    HW225398   0.631   1.552   4.670  0.2546 -0.2323 -0.0880
 6408SOL    HW325399   0.532   1.517   4.779  0.5215  0.8067  0.5003
 6408SOL    MW425400   0.613   1.514   4.746 -1.1857  0.1284 -0.0986
 6409SOL     OW25401   4.935   4.114   5.971  0.0052 -0.1339 -0.2322
 6409SOL    HW225402   4.923   4.061   5.892 -2.9789 -2.0248  1.2832
 6409SOL    HW325403   5.020   4.087   6.006  0.4064 -0.8385 -1.6727
 6409SOL    MW425404   4.944   4.103   5.965  0.4531 -0.3777  0.6686
 6410SOL     OW25405   5.152   1.714   3.909  0.3823 -0.4165 -0.1085
 6410SOL    HW225406   5.170   1.807   3.921 -2.1563  0.1539 -0.1407
 6410SOL    HW325407   5.160   1.676   3.996 -0.7134  0.2872  0.3186
 6410SOL    MW425408   5.155   1.721   3.922 -0.0016  0.2296 -0.6238
 6411SOL     OW25409   2.827   1.008   5.303  0.1638  0.1044 -0.1481
 6411SOL    HW225410   2.835   1.093   5.261  0.5007  0.3300  0.3564
 6411SOL    HW325411   2.905   1.001   5.358  1.1375 -1.3429 -1.6236
 6411SOL    MW425412   2.838   1.018   5.305  0.1337 -0.1074 -0.1604
 6412SOL     OW25413   5.432   4.255   2.498  0.1594  0.9569  0.3624
 6412SOL    HW225414   5.494   4.292   2.562 -0.0439  2.4514 -0.2697
 6412SOL    HW325415   5.407   4.171   2.535  2.3165  0.4546  0.8102
 6412SOL    MW425416   5.437   4.249   2.511  0.3652 -0.0428 -0.0074
 6413SOL     OW25417   2.755   6.331   1.678 -0.4109 -0.0316 -0.1641
 6413SOL    HW225418   2.848   6.346   1.660 -0.0884 -1.4519  0.2481
 6413SOL    HW325419   2.715   6.328   1.592  0.3314 -1.7932 -0.4902
 6413SOL    MW425420   2.762   6.333   1.664 -0.3207  0.2198  0.3907
 6414SOL     OW25421   0.058   5.912   4.119 -0.5245  0.2010  1.1879
 6414SOL    HW225422   0.115   5.835   4.119 -1.0085 -0.1682  0.8444
 6414SOL    HW325423   0.001   5.899   4.194 -0.0185  0.6824  1.6640
 6414SOL    MW425424   0.058   5.900   4.129  0.5846  0.0463 -0.0090
 6415SOL     OW25425   2.290   1.642   3.769  0.1047  0.5658 -0.5221
 6415SOL    HW225426   2.373   1.683   3.744  0.3138  0.1782 -0.4593
 6415SOL    HW325427   2.261   1.691   3.846  0.1701  0.8335 -0.6650
 6415SOL    MW425428   2.297   1.654   3.776 -0.3637 -0.3188 -0.0967
 6416SOL     OW25429   4.558   2.199   4.129 -0.1327  0.1050  0.3394
 6416SOL    HW225430   4.497   2.130   4.104  0.9839 -0.9138  0.3095
 6416SOL    HW325431   4.540   2.216   4.221 -0.1411 -0.5393  0.4601
 6416SOL    MW425432   4.548   2.192   4.138 -0.0304 -0.4064 -0.3604
 6417SOL     OW25433   3.298   2.641   5.357 -0.2693  0.4763  0.0343
 6417SOL    HW225434   3.259   2.575   5.300  0.8628  0.1664 -0.4032
 6417SOL    HW325435   3.377   2.669   5.310 -0.4429  1.7537  0.4620
 6417SOL    MW425436   3.303   2.636   5.343  0.2210 -0.7396 -0.1212
 6418SOL     OW25437   1.520   4.333   0.672  0.2910  0.3379  0.8904
 6418SOL    HW225438   1.563   4.389   0.737  2.1337 -0.4668  0.4140
 6418SOL    HW325439   1.504   4.251   0.718  0.3223  0.2424  0.7328
 6418SOL    MW425440   1.524   4.330   0.687  0.2393  0.2457  0.1880
 6419SOL     OW25441   4.016   1.252   1.648  0.1669 -0.0230 -0.4278
 6419SOL    HW225442   3.986   1.191   1.715 -0.2628  0.5903 -0.0516
 6419SOL    HW325443   3.935   1.286   1.608  0.3760  0.7182 -0.2435
 6419SOL    MW425444   4.001   1.249   1.652  0.1918  0.4668 -0.2329
 6420SOL     OW25445   4.121   3.702   1.752 -0.0095 -0.1396 -0.5040
 6420SOL    HW225446   4.184   3.724   1.684  0.6517 -0.3988  0.0160
 6420SOL    HW325447   4.051   3.766   1.741  0.7491  0.7077 -0.5348
 6420SOL    MW425448   4.120   3.713   1.742  0.2134  0.5600 -0.0907
 6421SOL     OW25449   3.151   2.460   5.182  0.3442 -0.1066 -0.5299
 6421SOL    HW225450   3.131   2.369   5.205 -0.1310  0.4825  1.6153
 6421SOL    HW325451   3.204   2.453   5.102  2.8353 -2.4973  1.1086
 6421SOL    MW425452   3.156   2.447   5.175 -0.4028 -0.0198  0.2036
 6422SOL     OW25453   5.599   3.127   2.354 -0.2581 -0.8046 -0.8033
 6422SOL    HW225454   5.668   3.105   2.291  0.4741  2.6726 -1.4059
 6422SOL    HW325455   5.559   3.206   2.319 -0.1767  1.0408  2.8345
 6422SOL    MW425456   5.603   3.134   2.341 -0.3681  0.2272 -0.1016
 6423SOL     OW25457   2.468   1.264   2.454 -0.2196  0.0859 -0.7472
 6423SOL    HW225458   2.441   1.174   2.470  0.5696  0.1492  1.3067
 6423SOL    HW325459   2.406   1.317   2.503  1.9792  0.3408  2.0319
 6423SOL    MW425460   2.457   1.259   2.463 -0.7002  0.2237 -0.1104
 6424SOL     OW25461   2.805   4.535   5.387 -0.6797 -0.4218  0.3351
 6424SOL    HW225462   2.879   4.530   5.326 -0.1931 -0.0132  0.8767
 6424SOL    HW325463   2.763   4.449   5.380 -0.2621 -0.5991 -0.1186
 6424SOL    MW425464   2.810   4.523   5.378  0.5554  0.1073 -0.0945
 6425SOL     OW25465   1.363   0.980   0.178  0.2451  0.5650 -0.1775
 6425SOL    HW225466   1.401   0.963   0.092  0.9638 -1.0446  0.4134
 6425SOL    HW325467   1.269   0.988   0.162  0.2687 -0.5862 -1.0133
 6425SOL    MW425468   1.356   0.979   0.165 -0.2246  0.3475  0.3070
 6426SOL     OW25469   1.061   1.138   2.366 -0.0683 -0.0618 -0.5995
 6426SOL    HW225470   0.966   1.153   2.361 -0.6619 -2.6324  1.0810
 6426SOL    HW325471   1.069   1.055   2.413  3.1046  1.3381  1.6475
 6426SOL    MW425472   1.049   1.129   2.371 -0.0672  0.2429  0.3950
 6427SOL     OW25473   4.020   2.846   4.575 -0.4474  0.4390  0.9809
 6427SOL    HW225474   3.933   2.851   4.615 -0.8000 -2.7087  0.8362
 6427SOL    HW325475   4.079   2.837   4.650 -0.8341 -2.4968  1.0602
 6427SOL    MW425476   4.016   2.846   4.590 -0.9818 -0.5459 -0.3391
 6428SOL     OW25477   0.198   3.920   2.277 -0.3934 -0.4186 -0.0477
 6428SOL    HW225478   0.120   3.926   2.223 -1.2843  0.6604  1.3007
 6428SOL    HW325479   0.255   3.990   2.245  0.2431 -1.4608 -1.2988
 6428SOL    MW425480   0.195   3.930   2.265 -0.2651  0.7055 -0.1789
 6429SOL     OW25481   0.995   4.252   5.023  0.0369  0.4094 -0.0058
 6429SOL    HW225482   0.918   4.293   4.984 -0.8384 -0.7082  0.5087
 6429SOL    HW325483   0.961   4.199   5.095  1.3980  0.6968  0.8892
 6429SOL    MW425484   0.981   4.250   5.027  0.3460  0.0087 -0.8027
 6430SOL     OW25485   1.202   0.552   0.110  0.1553  0.2537  0.0103
 6430SOL    HW225486   1.260   0.493   0.159 -1.2835  0.2889  1.8602
 6430SOL    HW325487   1.181   0.504   0.031  2.1608 -0.0261 -0.4213
 6430SOL    MW425488   1.207   0.538   0.106 -0.5164  0.3415 -0.2256
 6431SOL     OW25489   6.074   3.072   2.804  0.4277 -0.0906 -0.0760
 6431SOL    HW225490   6.024   3.126   2.865  1.7798  2.5347 -1.1188
 6431SOL    HW325491   6.080   3.124   2.725  1.7972 -1.8425 -1.2099
 6431SOL    MW425492   6.068   3.086   2.802  0.0554  0.2259  0.4204
 6432SOL     OW25493   3.758   4.633   1.317  0.1671  0.1557 -0.1234
 6432SOL    HW225494   3.800   4.608   1.234  0.3646  0.1550 -0.0253
 6432SOL    HW325495   3.831   4.636   1.380 -0.1965 -1.5015  0.4369
 6432SOL    MW425496   3.773   4.630   1.314 -0.6108 -0.3977 -0.2783
 6433SOL     OW25497   5.197   4.752   1.318 -0.1984 -0.1285 -0.5785
 6433SOL    HW225498   5.170   4.677   1.372  1.5004 -1.6475 -1.7349
 6433SOL    HW325499   5.171   4.728   1.229  0.4199  0.6336 -0.9782
 6433SOL    MW425500   5.190   4.739   1.313 -0.2443 -0.2168  0.5582
 6434SOL     OW25501   2.589   5.205   0.060 -0.2961  0.0670 -0.1873
 6434SOL    HW225502   2.522   5.142   0.087 -0.9977 -0.3698 -2.7094
 6434SOL    HW325503   2.672   5.159   0.073 -0.7955 -1.4966 -2.0323
 6434SOL    MW425504   2.591   5.191   0.065 -0.4888 -0.1705 -0.0045
 6435SOL     OW25505   6.433   2.174   1.003  0.0541  0.4732  0.2739
 6435SOL    HW225506   6.400   2.171   0.913  0.4771  2.2667  0.0202
 6435SOL    HW325507   6.361   2.210   1.054  0.1928  0.4973  0.4550
 6435SOL    MW425508   6.420   2.178   0.997  0.3148  0.1513 -0.3959
 6436SOL     OW25509   1.279   4.942   0.429  0.0391  0.0992 -0.3185
 6436SOL    HW225510   1.213   4.915   0.366  0.0090  0.0770 -0.2773
 6436SOL    HW325511   1.341   4.995   0.378 -0.3508  0.6536 -0.2304
 6436SOL    MW425512   1.279   4.946   0.414  0.5877  0.0452 -0.5898
 6437SOL     OW25513   1.536   2.798   6.039  0.0732  0.4206  0.2152
 6437SOL    HW225514   1.596   2.763   5.973 -0.3851  0.1076 -0.0397
 6437SOL    HW325515   1.594   2.834   6.107  0.5963 -1.2060  0.6918
 6437SOL    MW425516   1.552   2.798   6.040 -0.0233  0.2290 -0.2866
 6438SOL     OW25517   2.389   2.558   1.352 -0.4473  0.0135 -0.3723
 6438SOL    HW225518   2.391   2.466   1.378  0.2880  0.2301  0.3812
 6438SOL    HW325519   2.440   2.561   1.271 -2.2988 -0.5759 -1.6358
 6438SOL    MW425520   2.396   2.546   1.345 -1.0984 -0.0816  0.4071
 6439SOL     OW25521   2.390   6.287   2.713  0.4258 -0.3843 -0.2237
 6439SOL    HW225522   2.301   6.295   2.680  0.5285 -0.7086 -0.5758
 6439SOL    HW325523   2.401   6.363   2.771  0.2726  0.2166 -0.9792
 6439SOL    MW425524   2.380   6.298   2.717 -0.5587  0.7553  0.2773
 6440SOL     OW25525   1.582   2.428   5.291  0.4313 -0.5595 -0.2255
 6440SOL    HW225526   1.531   2.368   5.236  0.8835 -1.5704  0.4425
 6440SOL    HW325527   1.519   2.461   5.355  0.0059  0.2865 -1.0423
 6440SOL    MW425528   1.567   2.425   5.292 -0.2207 -0.3004  0.3844
 6441SOL     OW25529   4.151   6.367   1.600  0.4731  0.0354  0.2857
 6441SOL    HW225530   4.058   6.383   1.616  0.7568  0.3043  1.8016
 6441SOL    HW325531   4.163   6.385   1.507 -1.6945 -3.5261 -0.8550
 6441SOL    MW425532   4.140   6.372   1.590 -0.2979  0.2674 -0.5298
 6442SOL     OW25533   1.077   1.676   1.401  0.4455  0.1440  0.3774
 6442SOL    HW225534   1.138   1.732   1.352  1.7186 -1.2666  0.2488
 6442SOL    HW325535   1.084   1.591   1.358 -0.6669 -0.3763  1.1895
 6442SOL    MW425536   1.086   1.672   1.389  1.3056 -0.4248  0.4436
 6443SOL     OW25537   5.670   1.003   1.133 -0.6299 -0.3308 -0.8012
 6443SOL    HW225538   5.640   1.000   1.223  0.9530  0.9875 -0.1732
 6443SOL    HW325539   5.617   1.071   1.092 -0.7753 -0.3358 -0.6175
 6443SOL    MW425540   5.659   1.012   1.139 -0.1094  0.2873  0.1461
 6444SOL     OW25541   1.240   5.508   3.901 -0.6136 -0.7345 -0.8640
 6444SOL    HW225542   1.227   5.556   3.819  1.4049  1.5697  0.0123
 6444SOL    HW325543   1.329   5.530   3.927 -1.5623 -0.3697  2.5440
 6444SOL    MW425544   1.250   5.518   3.893 -0.7008  0.5298  0.4529
 6445SOL     OW25545   3.355   1.655   1.200  0.9354  0.1509  0.5957
 6445SOL    HW225546   3.450   1.654   1.200  0.9730  0.5604 -1.1718
 6445SOL    HW325547   3.330   1.576   1.152  0.4186  0.5213  0.2359
 6445SOL    MW425548   3.364   1.644   1.193 -0.2712  0.2662  0.3057
 6446SOL     OW25549   0.968   5.137   6.080  0.1028 -0.1860 -0.2240
 6446SOL    HW225550   0.914   5.109   6.006  1.4458 -0.3574 -1.1609
 6446SOL    HW325551   1.055   5.149   6.044  0.9605 -0.9547  1.4795
 6446SOL    MW425552   0.972   5.135   6.065 -0.0027  0.6391 -0.5216
 6447SOL     OW25553   2.762   2.048   1.759 -0.2604 -0.2480  0.2904
 6447SOL    HW225554   2.834   1.993   1.792  0.2643  0.5394  0.4863
 6447SOL    HW325555   2.783   2.062   1.667  0.3388  0.7220  0.5553
 6447SOL    MW425556   2.774   2.043   1.751 -0.1357 -0.3731 -0.5766
 6448SOL     OW25557   2.299   4.151   0.978 -0.3474 -0.6294 -0.0134
 6448SOL    HW225558   2.331   4.062   0.993 -2.6715 -1.6227 -0.4272
 6448SOL    HW325559   2.272   4.152   0.886  0.6019  0.8602 -0.3055
 6448SOL    MW425560   2.300   4.139   0.968  0.2244  0.2088 -0.0100
 6449SOL     OW25561   5.242   3.008   4.866  0.1287  0.2256  0.1987
 6449SOL    HW225562   5.222   3.060   4.788 -1.9746 -0.9879 -0.1413
 6449SOL    HW325563   5.168   3.025   4.925 -0.2233 -1.7255  0.3805
 6449SOL    MW425564   5.229   3.017   4.863  0.4688 -0.6222 -0.2122
 6450SOL     OW25565   4.334   4.651   1.246  0.2318 -0.1808 -0.7267
 6450SOL    HW225566   4.406   4.640   1.307 -0.6537 -0.5786  0.2759
 6450SOL    HW325567   4.319   4.563   1.210 -1.3864 -0.6676  0.9963
 6450SOL    MW425568   4.342   4.638   1.249 -0.2824 -0.5071  0.8696
 6451SOL     OW25569   2.832   4.936   5.371 -0.3691 -0.1180 -0.4094
 6451SOL    HW225570   2.852   4.904   5.459 -1.4141 -0.2046 -0.1926
 6451SOL    HW325571   2.828   5.031   5.381 -0.8031 -0.1459 -0.2874
 6451SOL    MW425572   2.834   4.944   5.384  0.0482  0.6066  0.4069
 6452SOL     OW25573   0.418   4.986   1.192  0.0443 -0.0040  0.0589
 6452SOL    HW225574   0.391   5.078   1.195 -0.9985 -0.2807 -0.4808
 6452SOL    HW325575   0.415   4.957   1.283  2.7374  1.1230  0.6031
 6452SOL    MW425576   0.414   4.995   1.204  0.1859 -0.8887 -0.0990
 6453SOL     OW25577   3.639   2.889   2.254 -0.0582  0.1891  0.0395
 6453SOL    HW225578   3.560   2.941   2.238  0.8745  1.8272  0.5575
 6453SOL    HW325579   3.671   2.866   2.167  0.3651  1.8633 -0.2902
 6453SOL    MW425580   3.633   2.893   2.241 -0.7223  0.0327 -0.0913
 6454SOL     OW25581   5.787   4.753   0.220 -0.3204  0.3967 -0.0311
 6454SOL    HW225582   5.695   4.764   0.243  0.0168  1.7745  0.8439
 6454SOL    HW325583   5.788   4.685   0.153 -1.7685 -1.0126  1.2930
 6454SOL    MW425584   5.775   4.746   0.214  0.4134  0.1179  0.1885
 6455SOL     OW25585   1.509   3.452   0.180  0.2784 -0.1957 -0.2581
 6455SOL    HW225586   1.441   3.393   0.210  0.6695 -1.3447 -1.5316
 6455SOL    HW325587   1.575   3.450   0.250  0.0097 -0.7991 -0.0126
 6455SOL    MW425588   1.509   3.444   0.193  0.4031  0.5659 -0.4357
 6456SOL     OW25589   3.089   3.347   3.910 -0.2929  0.2286 -0.0384
 6456SOL    HW225590   3.034   3.388   3.976 -1.0210 -0.2189 -0.3522
 6456SOL    HW325591   3.053   3.376   3.827  0.0886  0.1059 -0.2504
 6456SOL    MW425592   3.077   3.356   3.908 -0.7616  0.1794  0.3380
 6457SOL     OW25593   1.546   3.080   2.226 -0.3708 -0.0693 -0.5250
 6457SOL    HW225594   1.625   3.050   2.271 -0.2156 -0.8224 -1.2646
 6457SOL    HW325595   1.488   3.004   2.226 -0.1643 -0.2608 -1.9980
 6457SOL    MW425596   1.549   3.066   2.232  0.1718  0.7325  0.1356
 6458SOL     OW25597   3.178   3.762   3.095  0.1844  0.6111 -0.1350
 6458SOL    HW225598   3.125   3.690   3.128  0.2416 -1.1507 -3.4719
 6458SOL    HW325599   3.268   3.738   3.118 -0.0064  1.3825  1.6283
 6458SOL    MW425600   3.183   3.749   3.102 -0.1072  0.4140  0.9922
 6459SOL     OW25601   4.013   5.829   5.693 -0.3774 -0.0309 -0.2899
 6459SOL    HW225602   4.094   5.825   5.642 -1.2957  1.6638 -1.9791
 6459SOL    HW325603   3.950   5.776   5.644 -1.0002  0.7881 -0.3962
 6459SOL    MW425604   4.015   5.822   5.680 -0.1749  0.4006  0.1844
 6460SOL     OW25605   3.339   0.634   0.187 -0.3189 -0.6433  0.4798
 6460SOL    HW225606   3.372   0.715   0.226 -1.4680 -0.2137  0.6040
 6460SOL    HW325607   3.416   0.577   0.180  0.4987  0.4324  0.4497
 6460SOL    MW425608   3.354   0.637   0.191  0.4919  0.1957 -0.2099
 6461SOL     OW25609   5.016   3.529   3.333 -0.3780  0.6858 -0.0383
 6461SOL    HW225610   4.993   3.509   3.424 -1.0320  1.0488 -0.1180
 6461SOL    HW325611   4.932   3.526   3.286 -0.1540  1.2329 -0.4857
 6461SOL    MW425612   5.002   3.526   3.339 -0.3558 -0.6322  0.0907
 6462SOL     OW25613   4.580   5.700   3.591 -0.2410  0.5553 -0.2114
 6462SOL    HW225614   4.645   5.640   3.628 -0.5192  0.4271  0.0646
 6462SOL    HW325615   4.526   5.646   3.534  0.2256  0.7626 -0.8689
 6462SOL    MW425616   4.582   5.685   3.588 -0.0962 -0.2993  0.0694
 6463SOL     OW25617   6.046   5.857   5.672 -0.4815  0.0581 -0.1897
 6463SOL    HW225618   5.971   5.803   5.698 -0.4974  0.1975  0.0543
 6463SOL    HW325619   6.076   5.897   5.753 -0.2153  0.0962 -0.3065
 6463SOL    MW425620   6.040   5.855   5.686 -0.0708 -0.4391  0.6828
 6464SOL     OW25621   1.255   6.251   4.241  0.3240 -0.2936  0.0912
 6464SOL    HW225622   1.160   6.263   4.235  0.0132 -1.8978  1.1968
 6464SOL    HW325623   1.285   6.251   4.150 -0.1936  3.5409 -0.2472
 6464SOL    MW425624   1.247   6.253   4.228 -0.3458 -0.1583 -0.2938
 6465SOL     OW25625   5.155   1.320   0.343  0.3668 -0.2503  0.0672
 6465SOL    HW225626   5.096   1.250   0.366 -1.1006  0.3343 -1.7076
 6465SOL    HW325627   5.185   1.299   0.254  1.9942  0.0408  0.5008
 6465SOL    MW425628   5.151   1.308   0.334  0.2069 -0.2338 -0.1031
 6466SOL     OW25629   2.133   5.672   4.076  0.2165  0.1938 -0.0660
 6466SOL    HW225630   2.163   5.581   4.080 -0.7471 -0.1338 -0.0251
 6466SOL    HW325631   2.042   5.665   4.047  0.9444  1.2871 -2.9452
 6466SOL    MW425632   2.125   5.659   4.072 -0.0590  0.0314 -0.6764
 6467SOL     OW25633   5.453   0.874   2.581  0.0005 -0.0665  0.5427
 6467SOL    HW225634   5.508   0.796   2.575  0.9228  0.3521  2.5849
 6467SOL    HW325635   5.369   0.847   2.545  0.0006 -2.3302  2.0386
 6467SOL    MW425636   5.449   0.860   2.576 -0.7477  0.0071 -0.4806
 6468SOL     OW25637   0.531   3.134   4.950 -0.0843  0.2829 -0.2264
 6468SOL    HW225638   0.523   3.094   5.037  0.1408 -1.5517 -1.0018
 6468SOL    HW325639   0.614   3.101   4.916  1.8025  3.9839  0.2536
 6468SOL    MW425640   0.541   3.124   4.957  0.2744  0.2609  0.3748
 6469SOL     OW25641   2.094   0.496   2.310  0.6193 -0.5168 -0.5102
 6469SOL    HW225642   2.179   0.537   2.325  1.1777 -1.5773 -0.6130
 6469SOL    HW325643   2.031   0.551   2.357  1.1414  1.1376 -1.6676
 6469SOL    MW425644   2.097   0.508   2.318  0.1818  0.6091  0.5747
 6470SOL     OW25645   0.443   5.885   3.191  0.7684 -0.0004 -0.6182
 6470SOL    HW225646   0.418   5.851   3.106 -2.2932 -1.4378  0.6975
 6470SOL    HW325647   0.531   5.852   3.206  1.1241 -0.2382 -2.9175
 6470SOL    MW425648   0.451   5.876   3.182  0.0082 -0.2153  0.2385
 6471SOL     OW25649   2.003   5.325   2.742  0.2008 -0.6790  0.2071
 6471SOL    HW225650   1.927   5.383   2.750  0.7485 -0.1159  1.6527
 6471SOL    HW325651   1.978   5.263   2.674 -1.5994 -0.5559  0.6932
 6471SOL    MW425652   1.989   5.324   2.734  0.2797  0.0629 -0.0861
 6472SOL     OW25653   3.205   3.785   5.983  0.5801 -0.0565  0.0589
 6472SOL    HW225654   3.255   3.704   5.994  1.6261  0.6666  0.7735
 6472SOL    HW325655   3.269   3.849   5.951  0.0101  0.7606  0.5139
 6472SOL    MW425656   3.220   3.783   5.980  0.1910 -0.0366  0.2603
 6473SOL     OW25657   0.370   6.400   3.148  0.2745  0.1483  0.6995
 6473SOL    HW225658   0.344   6.426   3.236 -0.3629  0.6433  0.3736
 6473SOL    HW325659   0.340   6.471   3.092 -0.1435 -0.5923 -0.0317
 6473SOL    MW425660   0.363   6.413   3.152 -0.8729 -0.0989 -0.4638
 6474SOL     OW25661   2.579   5.157   3.461  0.0629 -0.0306 -0.0725
 6474SOL    HW225662   2.595   5.227   3.523  1.4503  0.8679 -1.3789
 6474SOL    HW325663   2.487   5.168   3.435 -0.0109  0.6703  0.4772
 6474SOL    MW425664   2.569   5.168   3.466  0.3309  0.2884  0.2508
 6475SOL     OW25665   1.807   4.993   5.375 -0.0588  0.2142 -0.4153
 6475SOL    HW225666   1.763   4.918   5.335 -0.7563 -0.3066  1.2422
 6475SOL    HW325667   1.898   4.984   5.349 -0.2001 -1.0116 -0.5470
 6475SOL    MW425668   1.813   4.982   5.366 -0.1529  0.3573  0.1754
 6476SOL     OW25669   4.441   1.930   5.880 -0.4355 -0.3533 -0.1507
 6476SOL    HW225670   4.475   2.006   5.833 -0.8775 -0.7629 -1.1566
 6476SOL    HW325671   4.497   1.921   5.957 -0.6000  1.1988  0.1711
 6476SOL    MW425672   4.453   1.939   5.884  0.0549  0.5458 -0.3774
 6477SOL     OW25673   3.965   4.458   0.196  0.5550 -0.2515 -0.1709
 6477SOL    HW225674   3.941   4.366   0.184  0.7871 -0.1895 -1.2842
 6477SOL    HW325675   4.042   4.469   0.140 -1.0349  1.2524 -2.2061
 6477SOL    MW425676   3.972   4.447   0.187 -0.5265  0.0964  0.5715
 6478SOL     OW25677   3.587   2.326   4.982 -0.6366 -0.2961 -0.3321
 6478SOL    HW225678   3.586   2.294   5.072 -4.2059 -2.2656 -0.9185
 6478SOL    HW325679   3.664   2.284   4.943  0.1577 -0.5217  1.3694
 6478SOL    MW425680   3.597   2.316   4.989  0.2370 -0.8398  0.0363
 6479SOL     OW25681   0.309   4.101   5.017 -0.3466 -0.4747 -0.1620
 6479SOL    HW225682   0.331   4.193   5.034 -2.2048  0.3066 -1.6262
 6479SOL    HW325683   0.224   4.089   5.060 -1.1420 -0.8609 -1.7881
 6479SOL    MW425684   0.300   4.112   5.025 -0.8517 -0.6067 -0.2007
 6480SOL     OW25685   2.693   4.652   5.638  0.0286 -0.4506 -0.2601
 6480SOL    HW225686   2.760   4.684   5.698 -0.0241 -1.2172  0.2176
 6480SOL    HW325687   2.741   4.626   5.560  0.3115 -1.1184  0.1291
 6480SOL    MW425688   2.708   4.653   5.636  0.7674  0.1130 -0.2761
 6481SOL     OW25689   6.279   3.487   1.983 -0.1767 -0.7212 -0.3479
 6481SOL    HW225690   6.369   3.515   1.968  0.0596 -1.5957 -0.6741
 6481SOL    HW325691   6.226   3.561   1.957  0.3355 -1.2184 -3.1081
 6481SOL    MW425692   6.284   3.500   1.978  0.1396 -0.0702  0.1648
 6482SOL     OW25693   4.698   1.431   4.318 -0.2647  0.7259  0.0727
 6482SOL    HW225694   4.602   1.423   4.317 -0.1779 -0.6713  0.9264
 6482SOL    HW325695   4.730   1.343   4.300  0.8712  1.0511  0.4114
 6482SOL    MW425696   4.689   1.418   4.315  0.2402 -0.4788  0.1936
 6483SOL     OW25697   3.997   2.111   6.137  0.5089 -0.2798 -0.1271
 6483SOL    HW225698   4.080   2.144   6.103 -0.2976  1.2444 -0.7342
 6483SOL    HW325699   3.943   2.099   6.059 -0.4160  0.4773  0.3777
 6483SOL    MW425700   4.001   2.114   6.122 -0.0542 -0.3434  0.0305
 6484SOL     OW25701   5.730   3.411   4.942  0.0801 -0.5802  0.0077
 6484SOL    HW225702   5.663   3.366   4.891  0.0456  1.3188 -1.7492
 6484SOL    HW325703   5.802   3.424   4.881  1.4767 -1.2078  1.4299
 6484SOL    MW425704   5.731   3.407   4.928 -0.3070 -0.2204  0.2308
 6485SOL     OW25705   5.288   3.530   6.092  0.1247 -0.3608 -0.0864
 6485SOL    HW225706   5.211   3.574   6.057  0.8604  0.0784 -1.2062
 6485SOL    HW325707   5.361   3.564   6.041  0.7353 -2.9493 -1.1271
 6485SOL    MW425708   5.288   3.540   6.080 -1.0359 -0.1593 -0.2712
 6486SOL     OW25709   0.289   5.494   0.087 -0.3319  0.2813 -0.1879
 6486SOL    HW225710   0.274   5.429   0.019 -1.9711 -1.4869  1.7272
 6486SOL    HW325711   0.203   5.508   0.127  0.7298  0.2198  2.3572
 6486SOL    MW425712   0.276   5.487   0.084  0.0588  0.2331  0.1842
 6487SOL     OW25713   6.317   4.656   1.582 -0.2761 -0.5632  0.2525
 6487SOL    HW225714   6.278   4.682   1.499  1.3212 -0.1010 -0.3935
 6487SOL    HW325715   6.406   4.692   1.579 -0.5006  0.3847  2.6124
 6487SOL    MW425716   6.324   4.664   1.571 -0.5128  0.5842  0.0281
 6488SOL     OW25717   2.761   0.596   0.827  0.8134 -0.3491  0.0669
 6488SOL    HW225718   2.781   0.580   0.919  2.1992 -2.7994 -0.5638
 6488SOL    HW325719   2.811   0.675   0.805  0.1841  0.4739  1.4586
 6488SOL    MW425720   2.770   0.604   0.836 -0.1277 -0.1312  0.6505
 6489SOL     OW25721   2.302   3.633   4.423  0.4227  0.0263  0.3815
 6489SOL    HW225722   2.234   3.603   4.363  0.4038 -0.9314  0.8574
 6489SOL    HW325723   2.278   3.723   4.444  0.5992  0.4856 -1.2669
 6489SOL    MW425724   2.290   3.641   4.418 -0.0594  0.5221  0.6549
 6490SOL     OW25725   0.696   5.546   5.914 -0.1432  0.0180 -0.0493
 6490SOL    HW225726   0.650   5.502   5.843 -1.2840  1.1824 -0.0627
 6490SOL    HW325727   0.627   5.569   5.977  0.8286 -0.9663  1.4591
 6490SOL    MW425728   0.681   5.543   5.913 -0.3079 -0.2076  0.2231
 6491SOL     OW25729   3.053   3.960   4.569  0.3896 -0.1966  0.1458
 6491SOL    HW225730   3.024   4.021   4.638 -0.3175 -1.7487  1.2894
 6491SOL    HW325731   3.148   3.962   4.574  0.3484 -0.3420  1.2409
 6491SOL    MW425732   3.062   3.969   4.579 -0.2932 -0.4944 -0.0807
 6492SOL     OW25733   0.118   3.709   6.187  0.3249 -0.7375 -0.8003
 6492SOL    HW225734   0.123   3.634   6.247  0.6003 -0.4454 -0.4492
 6492SOL    HW325735   0.068   3.677   6.112 -0.6428 -0.9090 -0.0977
 6492SOL    MW425736   0.112   3.695   6.185  0.3776  0.4594  0.2399
 6493SOL     OW25737   2.957   2.609   5.713 -0.5551  0.1267  0.5401
 6493SOL    HW225738   2.907   2.559   5.648  1.1425  1.0808 -1.6228
 6493SOL    HW325739   3.046   2.577   5.705  0.1003  1.7499  0.8882
 6493SOL    MW425740   2.962   2.598   5.704  0.5993  0.1261 -0.9273
 6494SOL     OW25741   2.129   4.953   0.515 -0.5074  0.0676  0.3388
 6494SOL    HW225742   2.073   5.026   0.487 -1.3023 -0.5243  0.3737
 6494SOL    HW325743   2.072   4.898   0.568  0.2031 -0.3754  0.6464
 6494SOL    MW425744   2.114   4.956   0.518 -0.4536 -0.2854 -0.1357
 6495SOL     OW25745   4.935   2.893   5.999 -0.4482  0.2915  0.0396
 6495SOL    HW225746   4.955   2.799   6.003 -1.6535 -0.0452 -1.0724
 6495SOL    HW325747   5.021   2.935   5.993  0.2144 -0.5855  2.3115
 6495SOL    MW425748   4.949   2.886   5.999  0.1305 -0.3849  0.1749
 6496SOL     OW25749   1.718   1.640   1.732  0.7110  0.0034 -0.1179
 6496SOL    HW225750   1.752   1.576   1.669  0.3299  0.3787 -0.7086
 6496SOL    HW325751   1.650   1.687   1.685 -0.0172 -0.1276  0.7778
 6496SOL    MW425752   1.714   1.638   1.717 -0.6760 -0.0057 -0.5087
 6497SOL     OW25753   2.984   2.205   5.248 -0.1461 -0.1744  0.0364
 6497SOL    HW225754   2.901   2.189   5.292  0.1090 -0.3066  0.4721
 6497SOL    HW325755   2.961   2.209   5.155 -0.5990 -0.4914  0.1303
 6497SOL    MW425756   2.970   2.203   5.241  0.2756 -0.1922 -0.3133
 6498SOL     OW25757   3.508   5.299   1.098 -0.2240  0.6813  0.0037
 6498SOL    HW225758   3.486   5.378   1.147  0.5145  1.5465 -1.0199
 6498SOL    HW325759   3.443   5.234   1.127 -1.1628  1.8023  0.4913
 6498SOL    MW425760   3.496   5.301   1.108  0.0448  0.1528 -0.3562
 6499SOL     OW25761   3.827   3.288   4.741 -0.2736  0.3381 -0.6664
 6499SOL    HW225762   3.834   3.197   4.768  0.4076  0.1765 -1.3517
 6499SOL    HW325763   3.761   3.326   4.799 -0.0552 -0.4098  0.0806
 6499SOL    MW425764   3.819   3.281   4.752 -0.4301  0.1638  0.8997
 6500SOL     OW25765   2.769   0.090   0.175 -0.3010  0.3462 -0.3644
 6500SOL    HW225766   2.739   0.008   0.137 -0.5415  0.5918 -0.7061
 6500SOL    HW325767   2.781   0.070   0.268 -0.4253 -0.0538 -0.4337
 6500SOL    MW425768   2.767   0.077   0.183  0.1766  0.2121  0.4179
 6501SOL     OW25769   3.314   3.445   5.219  0.5279 -0.2962  0.2397
 6501SOL    HW225770   3.333   3.394   5.141  0.8261 -0.8193  0.6471
 6501SOL    HW325771   3.326   3.536   5.191  2.0411 -0.5249  0.0228
 6501SOL    MW425772   3.318   3.451   5.205  0.1142 -0.9156 -0.6734
 6502SOL     OW25773   3.541   5.541   0.881  0.0250 -0.2765 -0.6311
 6502SOL    HW225774   3.512   5.468   0.825  0.2129  0.0814 -1.1960
 6502SOL    HW325775   3.496   5.526   0.964 -0.0982 -0.9270 -0.8110
 6502SOL    MW425776   3.531   5.529   0.884 -0.0378  0.8070 -0.0848
 6503SOL     OW25777   0.570   5.235   0.637  0.0572 -0.7630  0.0187
 6503SOL    HW225778   0.652   5.279   0.658  0.3988 -1.1369 -0.4875
 6503SOL    HW325779   0.517   5.243   0.716  0.0473  0.6634 -0.1033
 6503SOL    MW425780   0.574   5.242   0.650  0.1093 -0.4201 -0.0332
 6504SOL     OW25781   5.127   2.443   1.810 -0.1480  0.1802  0.3319
 6504SOL    HW225782   5.214   2.411   1.835  0.7331  2.1104 -0.0725
 6504SOL    HW325783   5.137   2.538   1.806 -1.8023  0.3276 -1.5605
 6504SOL    MW425784   5.140   2.451   1.813 -0.0613 -0.2177 -0.0727
 6505SOL     OW25785   1.231   1.674   3.441 -0.2168  0.2450 -0.0438
 6505SOL    HW225786   1.265   1.736   3.506 -1.0782 -0.9563  1.6166
 6505SOL    HW325787   1.309   1.635   3.402  0.3917 -0.9537  2.2102
 6505SOL    MW425788   1.246   1.677   3.445 -0.2291  0.2356  0.4806
 6506SOL     OW25789   4.204   1.600   6.417  0.3823 -0.6830  0.3716
 6506SOL    HW225790   4.244   1.637   6.495 -1.1414 -2.5315  2.1451
 6506SOL    HW325791   4.258   1.524   6.395  0.6702 -0.3058 -0.2672
 6506SOL    MW425792   4.216   1.595   6.424 -0.4436 -0.8054  0.4317
 6507SOL     OW25793   5.702   0.470   5.501  0.9121 -0.3247 -0.4331
 6507SOL    HW225794   5.614   0.506   5.497  0.0980 -2.2231 -0.7244
 6507SOL    HW325795   5.700   0.395   5.442  2.2092 -1.4397  0.8760
 6507SOL    MW425796   5.690   0.465   5.493  0.2668 -0.2184 -0.6180
 6508SOL     OW25797   2.186   1.039   0.200  0.1967 -0.2430  0.0625
 6508SOL    HW225798   2.220   0.955   0.168  1.1823 -0.2886  1.1279
 6508SOL    HW325799   2.262   1.097   0.201  0.0913 -0.0665  1.6263
 6508SOL    MW425800   2.200   1.035   0.196 -0.5091  0.2445  0.4021
 6509SOL     OW25801   4.005   1.970   2.322 -0.0989 -0.0334 -0.8594
 6509SOL    HW225802   3.946   1.907   2.281 -0.7882 -0.9917  1.4613
 6509SOL    HW325803   3.951   2.046   2.341 -0.1763 -0.2200 -0.3163
 6509SOL    MW425804   3.990   1.971   2.319 -0.4311 -0.5578 -0.1076
 6510SOL     OW25805   0.261   1.540   1.463 -0.0249 -0.1781  0.2380
 6510SOL    HW225806   0.216   1.511   1.384 -0.7842  0.5655  0.3877
 6510SOL    HW325807   0.233   1.631   1.475  0.6587 -0.0462  0.9544
 6510SOL    MW425808   0.252   1.548   1.454  0.0534  0.5889 -0.4102
 6511SOL     OW25809   3.081   3.744   1.191  0.6806 -0.4142  0.1309
 6511SOL    HW225810   3.119   3.674   1.244  1.3516 -0.3556 -0.2693
 6511SOL    HW325811   3.029   3.796   1.254  2.5792  0.4683  1.0502
 6511SOL    MW425812   3.079   3.742   1.207  0.4517  0.4884  0.6422
 6512SOL     OW25813   5.561   0.094   0.696 -0.4812  0.1721 -0.3668
 6512SOL    HW225814   5.489   0.032   0.684  0.1842 -0.5804 -0.6090
 6512SOL    HW325815   5.557   0.150   0.618 -1.5464  0.9353  0.2152
 6512SOL    MW425816   5.551   0.093   0.684 -0.2411 -0.0028 -0.2772
 6513SOL     OW25817   5.088   4.436   5.394  0.0735 -0.1198 -0.2784
 6513SOL    HW225818   5.179   4.407   5.399  0.0944 -0.0349 -0.1527
 6513SOL    HW325819   5.045   4.390   5.466 -0.4601 -1.8420 -1.6343
 6513SOL    MW425820   5.094   4.426   5.404 -0.2083  0.2821 -0.2146
 6514SOL     OW25821   2.229   1.390   3.644 -0.3309 -0.4525 -0.6069
 6514SOL    HW225822   2.234   1.457   3.712 -1.0863  1.0035 -1.9264
 6514SOL    HW325823   2.276   1.315   3.680  1.7069  1.2315  0.3977
 6514SOL    MW425824   2.236   1.389   3.657 -0.0800 -0.3005  0.1448
 6515SOL     OW25825   3.191   2.684   3.196  0.0900 -0.5434  0.1552
 6515SOL    HW225826   3.135   2.659   3.123  0.7131  1.6004 -1.1631
 6515SOL    HW325827   3.132   2.723   3.260 -0.0880  0.7743 -0.7781
 6515SOL    MW425828   3.176   2.686   3.195  0.0740  0.5088 -0.5046
 6516SOL     OW25829   3.730   3.200   2.059 -0.2045  0.4910  0.3970
 6516SOL    HW225830   3.680   3.187   2.139 -1.6590  0.7657 -0.4208
 6516SOL    HW325831   3.681   3.151   1.992  0.1831  1.4000 -0.5808
 6516SOL    MW425832   3.717   3.192   2.060 -0.5723  0.5694 -0.1663
 6517SOL     OW25833   0.086   4.676   5.354 -0.2981  0.7269  0.3093
 6517SOL    HW225834   0.021   4.626   5.305  1.2476 -0.5167 -0.5752
 6517SOL    HW325835   0.038   4.753   5.386 -3.1393 -1.8096  2.8227
 6517SOL    MW425836   0.071   4.679   5.352 -0.4090  0.1047 -0.1523
 6518SOL     OW25837   5.083   5.071   4.607  0.0696 -0.1995  0.0316
 6518SOL    HW225838   5.076   5.007   4.536 -2.0344 -0.5116  0.4690
 6518SOL    HW325839   4.999   5.065   4.653  0.6711  1.3398  1.4041
 6518SOL    MW425840   5.071   5.062   4.604 -0.1017  0.3976  0.2954
 6519SOL     OW25841   5.298   0.056   3.682  0.2415 -0.2242  0.2535
 6519SOL    HW225842   5.276  -0.035   3.703  2.1055 -0.5978  0.7726
 6519SOL    HW325843   5.285   0.063   3.588 -0.5826 -0.8298  0.3141
 6519SOL    MW425844   5.294   0.045   3.672  0.1084  0.0912 -0.0535
 6520SOL     OW25845   3.449   3.953   3.268 -0.3528 -0.1062  0.2764
 6520SOL    HW225846   3.440   4.046   3.289  1.2446  0.1480 -0.0243
 6520SOL    HW325847   3.539   3.932   3.291  0.0971 -0.9410 -1.9772
 6520SOL    MW425848   3.459   3.962   3.274 -0.1817  0.4631 -0.7711
 6521SOL     OW25849   4.573   0.922   2.514 -0.9552  0.4148 -0.9513
 6521SOL    HW225850   4.528   0.841   2.490 -0.9224 -0.2625  1.0679
 6521SOL    HW325851   4.663   0.910   2.483  0.0416 -1.9445  2.2630
 6521SOL    MW425852   4.579   0.909   2.507 -0.0446  0.6527 -0.7031
 6522SOL     OW25853   6.383   3.764   3.775  0.0066  0.5590  0.3293
 6522SOL    HW225854   6.348   3.747   3.863 -0.5048  0.1185  0.0428
 6522SOL    HW325855   6.464   3.813   3.791 -0.4722  1.1413  1.0170
 6522SOL    MW425856   6.389   3.768   3.789 -0.1075  0.2066  0.0030
 6523SOL     OW25857   3.497   2.550   4.049  0.1097 -0.3771  0.6662
 6523SOL    HW225858   3.588   2.554   4.017 -0.5949  1.5331 -1.4277
 6523SOL    HW325859   3.504   2.515   4.137  3.0577  1.0084  1.1129
 6523SOL    MW425860   3.510   2.546   4.056  0.4887  0.1050 -0.4280
 6524SOL     OW25861   4.681   2.828   1.483 -0.6632 -0.9018 -0.0564
 6524SOL    HW225862   4.676   2.899   1.547  0.9191  0.2433 -1.1235
 6524SOL    HW325863   4.708   2.752   1.534  0.1631 -0.1124  0.7098
 6524SOL    MW425864   4.684   2.828   1.498 -0.5389  0.5225  0.2089
 6525SOL     OW25865   0.065   3.181   5.726 -0.2886 -0.7438  0.1847
 6525SOL    HW225866   0.072   3.094   5.686  1.4881 -1.0182  0.9847
 6525SOL    HW325867   0.120   3.176   5.804 -0.1313  1.1119  0.2373
 6525SOL    MW425868   0.073   3.169   5.731  0.3124 -0.3281  0.8970
 6526SOL     OW25869   5.940   0.868   4.756 -0.3264 -0.8898 -0.7220
 6526SOL    HW225870   5.896   0.951   4.769 -0.4306 -1.0512 -0.0441
 6526SOL    HW325871   5.909   0.812   4.827 -0.0175 -1.4094 -0.9866
 6526SOL    MW425872   5.930   0.871   4.767 -0.8397  0.3214  0.5775
 6527SOL     OW25873   0.114   6.132   1.530 -0.1342 -0.0251  0.1226
 6527SOL    HW225874   0.173   6.071   1.574  0.4896  0.1876 -0.3945
 6527SOL    HW325875   0.131   6.118   1.437  0.9865  1.8138 -0.0090
 6527SOL    MW425876   0.124   6.122   1.524 -0.0367  0.0930  0.1586
 6528SOL     OW25877   5.086   3.825   1.925  0.3422 -0.2594  0.0026
 6528SOL    HW225878   5.096   3.733   1.900 -0.9853 -0.0081 -1.5957
 6528SOL    HW325879   5.038   3.822   2.007  1.1829 -1.0040  0.4919
 6528SOL    MW425880   5.081   3.812   1.932 -0.1385 -0.3199 -0.6307
 6529SOL     OW25881   5.978   5.239   4.369 -0.5067 -0.6508 -0.4154
 6529SOL    HW225882   5.981   5.246   4.464  0.1656  0.3812 -0.4983
 6529SOL    HW325883   5.930   5.318   4.341  0.7902 -0.0518 -1.0157
 6529SOL    MW425884   5.972   5.251   4.378  1.0988  0.1894  0.2264
 6530SOL     OW25885   0.683   1.384   2.082 -0.2083  0.1000 -0.7583
 6530SOL    HW225886   0.710   1.295   2.105 -0.4794  0.7793  2.7519
 6530SOL    HW325887   0.764   1.434   2.079 -0.1794  0.0255 -1.2276
 6530SOL    MW425888   0.697   1.379   2.085 -0.0536  0.7709  0.0645
 6531SOL     OW25889   1.300   4.858   1.814 -0.5260  0.1041 -0.3227
 6531SOL    HW225890   1.289   4.773   1.858  2.6549  0.0058  0.5427
 6531SOL    HW325891   1.302   4.922   1.885  0.0672  0.5234 -0.7091
 6531SOL    MW425892   1.299   4.855   1.829  0.0156 -0.0483  0.0998
 6532SOL     OW25893   4.408   1.822   1.352  0.0641  0.4390 -0.4984
 6532SOL    HW225894   4.392   1.795   1.442 -0.0048 -0.0840 -0.6631
 6532SOL    HW325895   4.503   1.819   1.342  0.1104  1.0183 -0.2896
 6532SOL    MW425896   4.418   1.818   1.362  0.2317  0.1661 -0.3211
 6533SOL     OW25897   4.985   1.641   2.605  0.0707 -0.5892  0.3081
 6533SOL    HW225898   4.896   1.669   2.582 -0.1960 -0.9605  0.8750
 6533SOL    HW325899   4.973   1.572   2.670  0.7758  1.7382  3.1572
 6533SOL    MW425900   4.972   1.636   2.611 -0.6040  0.1822 -0.2135
 6534SOL     OW25901   0.887   0.480   4.429  0.0007  0.3042 -0.3985
 6534SOL    HW225902   0.903   0.405   4.372  2.4093  0.4929 -0.0560
 6534SOL    HW325903   0.886   0.443   4.517 -0.6083  0.4517 -0.3353
 6534SOL    MW425904   0.889   0.465   4.433 -0.6826 -0.7881 -0.0084
 6535SOL     OW25905   2.515   3.599   4.841 -0.0013 -1.1461 -0.0571
 6535SOL    HW225906   2.518   3.569   4.750  1.7585 -4.1180  0.8409
 6535SOL    HW325907   2.517   3.518   4.893 -0.4291  0.4604  2.6494
 6535SOL    MW425908   2.515   3.584   4.836 -0.8426 -0.3046  0.1077
 6536SOL     OW25909   1.625   0.198   6.069 -0.6922  0.2388 -0.2017
 6536SOL    HW225910   1.689   0.157   6.011 -0.1612 -0.8087  1.0807
 6536SOL    HW325911   1.544   0.149   6.053 -0.6517  0.2215 -0.3568
 6536SOL    MW425912   1.623   0.186   6.059  0.3615 -0.1557  0.0947
 6537SOL     OW25913   3.429   5.365   4.718 -0.1119 -0.1863 -0.4497
 6537SOL    HW225914   3.425   5.436   4.783 -0.5072 -0.1841 -0.4716
 6537SOL    HW325915   3.374   5.396   4.646  1.3479  0.3737 -1.3629
 6537SOL    MW425916   3.421   5.378   4.717  0.0651 -0.0955  0.0574
 6538SOL     OW25917   4.475   4.197   1.534 -0.3816  0.2390 -0.2909
 6538SOL    HW225918   4.494   4.228   1.445 -1.4304  1.6419 -0.0717
 6538SOL    HW325919   4.385   4.164   1.529  0.2701 -1.6762 -0.2034
 6538SOL    MW425920   4.465   4.197   1.521  0.1757 -0.3239  0.2267
 6539SOL     OW25921   5.089   5.774   1.367  0.4539  0.0733  0.1858
 6539SOL    HW225922   4.997   5.758   1.391  0.1565 -0.4788 -1.2051
 6539SOL    HW325923   5.086   5.853   1.314  0.6628 -0.3996 -0.5376
 6539SOL    MW425924   5.076   5.782   1.363  0.2067 -0.0789 -0.3722
 6540SOL     OW25925   2.550   2.991   5.079 -0.4121 -0.0471  0.1872
 6540SOL    HW225926   2.580   2.914   5.030  0.3091  0.2215  0.1923
 6540SOL    HW325927   2.623   3.052   5.074  0.0489 -0.3278  2.2987
 6540SOL    MW425928   2.564   2.989   5.072 -0.2507 -0.2312  0.5592
 6541SOL     OW25929   3.523   3.726   3.740 -0.1166 -0.0463  0.0447
 6541SOL    HW225930   3.609   3.722   3.782 -1.0429 -0.4102  2.0259
 6541SOL    HW325931   3.523   3.651   3.680  0.7565 -0.3409  0.3886
 6541SOL    MW425932   3.534   3.715   3.737  0.1228  0.1035 -0.4455
 6542SOL     OW25933   1.312   4.946   4.396 -0.4212  0.1063  0.3691
 6542SOL    HW225934   1.296   4.882   4.465 -1.1308 -0.0036  0.1119
 6542SOL    HW325935   1.293   4.900   4.315  1.2358 -0.0228  0.0277
 6542SOL    MW425936   1.307   4.932   4.394  0.0888  0.0513  0.0180
 6543SOL     OW25937   3.026   1.387   3.283  0.1026  0.2233 -0.1807
 6543SOL    HW225938   3.064   1.435   3.356  0.5313 -0.5946  0.1499
 6543SOL    HW325939   2.980   1.453   3.231  0.1170  0.8681  0.6208
 6543SOL    MW425940   3.025   1.402   3.286 -0.0110  0.0169  0.8248
 6544SOL     OW25941   2.782   0.982   6.139  0.5223  0.4802 -0.6052
 6544SOL    HW225942   2.827   0.906   6.100  0.6331  0.5050 -0.5252
 6544SOL    HW325943   2.723   0.944   6.204 -0.4613  0.3519 -1.5502
 6544SOL    MW425944   2.780   0.967   6.142 -0.8086  0.3629  0.2883
 6545SOL     OW25945   0.665   4.303   5.181  0.5091  0.1594  0.0132
 6545SOL    HW225946   0.621   4.224   5.214 -1.1188  1.3413  0.8404
 6545SOL    HW325947   0.723   4.329   5.252 -0.4887  0.8166  0.6200
 6545SOL    MW425948   0.667   4.296   5.195  0.7755  0.3939  0.3821
 6546SOL     OW25949   6.220   0.981   0.827 -0.0886  0.2090  0.4002
 6546SOL    HW225950   6.205   0.926   0.904  1.0340  1.0062  1.2323
 6546SOL    HW325951   6.278   0.930   0.771 -1.3532 -0.6035 -0.2085
 6546SOL    MW425952   6.226   0.967   0.830 -0.3662 -0.0907  0.2479
 6547SOL     OW25953   5.759   0.453   0.828 -0.0884  0.9001 -0.4106
 6547SOL    HW225954   5.803   0.451   0.743  1.2988  1.2728  0.2695
 6547SOL    HW325955   5.825   0.485   0.889 -0.8459  0.0239  0.9401
 6547SOL    MW425956   5.773   0.457   0.825  0.0036 -0.7031  0.7518
 6548SOL     OW25957   4.793   3.566   6.342  0.2355 -0.1791  1.0364
 6548SOL    HW225958   4.726   3.509   6.380  0.5573  0.2547  2.3247
 6548SOL    HW325959   4.868   3.557   6.401  0.5203  1.0578  0.8980
 6548SOL    MW425960   4.794   3.558   6.355  0.2677  0.4216  0.0467
 6549SOL     OW25961   2.739   5.775   5.621 -0.3881 -0.0291 -0.5735
 6549SOL    HW225962   2.683   5.741   5.691 -1.4463  0.9780 -0.8967
 6549SOL    HW325963   2.813   5.715   5.619  0.7401  0.9803  2.8059
 6549SOL    MW425964   2.741   5.763   5.630  0.2537 -0.5500 -0.3473
 6550SOL     OW25965   1.823   0.807   2.770 -0.1616  0.5101 -0.3354
 6550SOL    HW225966   1.916   0.816   2.790 -0.5670  1.1905  1.4366
 6550SOL    HW325967   1.778   0.846   2.845 -1.8901 -0.1116 -0.9851
 6550SOL    MW425968   1.829   0.813   2.782 -0.0375  0.2062  0.2461
 6551SOL     OW25969   1.026   3.767   3.294  0.3399 -0.0373 -0.2921
 6551SOL    HW225970   1.033   3.676   3.263 -1.8220  0.0006 -1.0371
 6551SOL    HW325971   0.974   3.762   3.374 -0.6707  0.6131 -0.8835
 6551SOL    MW425972   1.020   3.754   3.300  0.5116 -0.7657 -0.3634
 6552SOL     OW25973   0.305   3.220   4.790 -0.2167 -0.5218 -0.3083
 6552SOL    HW225974   0.246   3.148   4.766  0.3253 -0.9707 -0.3230
 6552SOL    HW325975   0.388   3.176   4.811  0.8258  0.2547 -2.5339
 6552SOL    MW425976   0.308   3.204   4.790 -0.3473 -0.4224 -0.7775
 6553SOL     OW25977   0.790   2.622   3.600 -0.1279 -0.0103  0.3397
 6553SOL    HW225978   0.842   2.542   3.605 -0.9823 -0.5599  0.4692
 6553SOL    HW325979   0.718   2.609   3.660 -0.4656  0.7238  0.1143
 6553SOL    MW425980   0.788   2.610   3.608 -0.1401 -0.0250 -0.9079
 6554SOL     OW25981   0.168   4.948   1.843 -0.5387 -0.0709 -0.2619
 6554SOL    HW225982   0.181   4.988   1.929  0.2529 -2.3603  0.7585
 6554SOL    HW325983   0.255   4.948   1.803 -0.1994 -1.9301  0.3568
 6554SOL    MW425984   0.181   4.953   1.849 -0.6149  0.1090 -0.1955
 6555SOL     OW25985   0.653   2.227   1.064 -0.3321  0.5050 -0.4487
 6555SOL    HW225986   0.655   2.136   1.093  0.3875  0.5849 -0.2300
 6555SOL    HW325987   0.578   2.264   1.110  0.3820  0.4495  0.8188
 6555SOL    MW425988   0.643   2.220   1.074 -0.2906  0.5659  0.3436
 6556SOL     OW25989   4.827   3.690   0.675  0.0403  0.5882  0.0152
 6556SOL    HW225990   4.850   3.643   0.595  1.7758  0.8522  0.3214
 6556SOL    HW325991   4.743   3.653   0.701  0.7474 -1.4871 -0.4299
 6556SOL    MW425992   4.819   3.679   0.668  0.9320  0.3857  0.0218
 6557SOL     OW25993   3.044   0.844   0.402  0.3687 -0.2440  0.5317
 6557SOL    HW225994   3.074   0.934   0.388  1.9125 -0.6117  1.2740
 6557SOL    HW325995   2.986   0.850   0.478  1.1149  0.0156  1.0931
 6557SOL    MW425996   3.040   0.857   0.410 -0.6394  0.4324  0.0037
 6558SOL     OW25997   0.707   2.123   5.113  0.3980 -0.1932  0.1161
 6558SOL    HW225998   0.684   2.195   5.172  0.7202  0.0713 -0.0792
 6558SOL    HW325999   0.729   2.051   5.172  1.5490  0.3210  0.3556
 6558SOL    MW426000   0.707   2.123   5.129  0.2519 -0.4017 -0.1331
 6559SOL     OW26001   6.379   4.193   0.288 -0.1849  0.1565  0.1537
 6559SOL    HW226002   6.341   4.137   0.220 -0.7264 -0.2553  0.7916
 6559SOL    HW326003   6.412   4.269   0.240  0.3097 -0.5674 -0.6911
 6559SOL    MW426004   6.379   4.195   0.273 -0.0736  0.2158 -0.3759
 6560SOL     OW26005   3.189   4.974   3.163 -0.6092  0.2048 -0.0023
 6560SOL    HW226006   3.171   5.005   3.074 -1.5718 -0.3069 -0.0035
 6560SOL    HW326007   3.141   5.035   3.220 -1.5677 -0.5686  0.0510
 6560SOL    MW426008   3.180   4.986   3.159  0.2316 -0.3990 -0.1256
 6561SOL     OW26009   0.357   3.663   4.746 -0.1207  0.5378 -0.1984
 6561SOL    HW226010   0.449   3.660   4.720 -0.5964 -1.2782 -1.9147
 6561SOL    HW326011   0.339   3.756   4.758  1.7663  0.9814 -0.3794
 6561SOL    MW426012   0.367   3.675   4.744 -0.0635  0.5699 -0.2510
 6562SOL     OW26013   1.318   6.286   5.744 -0.3777  0.0351  0.2894
 6562SOL    HW226014   1.363   6.201   5.743  1.9151  1.1565  0.5157
 6562SOL    HW326015   1.321   6.315   5.652  1.4322  1.0723  0.6281
 6562SOL    MW426016   1.325   6.279   5.732  0.7562  0.2790 -0.5123
 6563SOL     OW26017   6.140   1.884   2.776  0.3093  0.3202 -0.4059
 6563SOL    HW226018   6.048   1.890   2.748  0.2691  1.2011 -0.1374
 6563SOL    HW326019   6.162   1.792   2.766 -0.6648  0.0586 -0.3131
 6563SOL    MW426020   6.131   1.873   2.771 -0.2715 -0.0806 -0.5973
 6564SOL     OW26021   5.642   3.047   0.085  0.0275  0.2203  0.2569
 6564SOL    HW226022   5.551   3.020   0.094  0.5966 -1.1980  2.4504
 6564SOL    HW326023   5.659   3.105   0.159  1.3569 -1.0089  0.9815
 6564SOL    MW426024   5.633   3.051   0.096  0.0047  0.4518 -0.1241
 6565SOL     OW26025   6.193   3.593   1.078  0.0471 -0.3373 -0.6243
 6565SOL    HW226026   6.266   3.654   1.085  0.5766 -0.9968 -0.3555
 6565SOL    HW326027   6.116   3.650   1.070  0.4748  0.3746  0.1052
 6565SOL    MW426028   6.192   3.609   1.078  0.7795  0.4611  0.0196
 6566SOL     OW26029   4.485   3.032   0.599 -0.0641  0.1499  0.6087
 6566SOL    HW226030   4.542   3.034   0.522  0.2747 -0.6248  0.8306
 6566SOL    HW326031   4.421   2.963   0.579 -0.5399  0.5813  0.6306
 6566SOL    MW426032   4.484   3.023   0.586 -0.0226  0.5462 -0.0107
 6567SOL     OW26033   3.988   0.610   3.864  0.2274  0.4242  0.4794
 6567SOL    HW226034   4.048   0.555   3.914 -0.4121  1.9554  3.1297
 6567SOL    HW326035   4.045   0.661   3.807  1.2445  0.1305  1.1991
 6567SOL    MW426036   4.003   0.610   3.863 -0.2196 -0.0062  0.4549
 6568SOL     OW26037   2.735   0.412   0.190  0.1475 -0.5528  0.1359
 6568SOL    HW226038   2.828   0.405   0.169  0.3131 -0.8943  0.9505
 6568SOL    HW326039   2.733   0.429   0.284 -0.6298 -1.2783  0.2625
 6568SOL    MW426040   2.747   0.413   0.199 -0.0082  0.1769 -0.6285
 6569SOL     OW26041   5.892   0.674   5.497 -0.2125  0.5904 -0.5581
 6569SOL    HW226042   5.813   0.627   5.525  0.0369  1.1723  1.2517
 6569SOL    HW326043   5.954   0.605   5.475  0.0934  0.0127  1.9028
 6569SOL    MW426044   5.889   0.659   5.498  0.1311 -0.7832 -0.7214
 6570SOL     OW26045   1.587   0.191   0.569  0.4730  0.1331 -0.1855
 6570SOL    HW226046   1.507   0.144   0.548  0.9467 -0.9069  0.2871
 6570SOL    HW326047   1.558   0.279   0.593 -0.8647 -1.0175  2.8659
 6570SOL    MW426048   1.573   0.197   0.570  0.8365  0.3083 -0.0842
 6571SOL     OW26049   0.251   5.477   0.575 -0.4165  0.1645  0.6765
 6571SOL    HW226050   0.193   5.536   0.526 -1.7591 -1.4655  0.2211
 6571SOL    HW326051   0.308   5.439   0.508  0.5778  1.0495  0.9956
 6571SOL    MW426052   0.251   5.480   0.559  0.2785  0.6493 -0.1304
 6572SOL     OW26053   1.425   0.889   3.862 -0.0490  0.2195  0.3283
 6572SOL    HW226054   1.484   0.947   3.910 -0.0641  0.3288  0.2162
 6572SOL    HW326055   1.427   0.922   3.772 -1.8508  1.5094  0.7075
 6572SOL    MW426056   1.433   0.901   3.857 -0.2955  0.0903  0.4912
 6573SOL     OW26057   5.495   4.678   4.637 -0.1538  0.2864 -0.4328
 6573SOL    HW226058   5.432   4.607   4.626 -1.2956  0.7179  2.3868
 6573SOL    HW326059   5.556   4.645   4.703  0.4999  1.1738 -0.5842
 6573SOL    MW426060   5.495   4.664   4.644  0.3212 -0.4268 -0.3237
 6574SOL     OW26061   2.336   3.281   3.901  0.2418 -0.2508  0.4094
 6574SOL    HW226062   2.403   3.214   3.910 -0.1045 -0.5616  0.6594
 6574SOL    HW326063   2.302   3.270   3.812 -1.4371 -1.9384  1.1943
 6574SOL    MW426064   2.340   3.271   3.890 -0.2046 -0.6681  0.1681
 6575SOL     OW26065   3.918   5.029   2.432  0.6154  0.7189 -0.3300
 6575SOL    HW226066   4.000   5.010   2.386 -0.2447 -0.0905 -1.5998
 6575SOL    HW326067   3.858   4.959   2.404 -0.0151  0.2844  1.9125
 6575SOL    MW426068   3.921   5.017   2.422  0.1726 -0.3991  0.2323
 6576SOL     OW26069   3.877   1.820   4.009  0.4460 -0.0663  0.0639
 6576SOL    HW226070   3.820   1.821   4.086 -0.3193  0.1741 -0.4863
 6576SOL    HW326071   3.870   1.909   3.973 -0.1335 -0.5062 -0.9335
 6576SOL    MW426072   3.868   1.832   4.015  0.4736  0.4301  0.0766
 6577SOL     OW26073   4.050   1.356   6.056  0.2022 -0.5281  0.2058
 6577SOL    HW226074   3.976   1.410   6.028 -0.2536 -0.8499  0.7780
 6577SOL    HW326075   4.126   1.412   6.043 -0.1101 -0.3046 -0.6780
 6577SOL    MW426076   4.050   1.371   6.051  0.7569 -0.0507  0.2395
 6578SOL     OW26077   2.679   2.158   0.666 -0.0516  0.1361  0.4601
 6578SOL    HW226078   2.709   2.149   0.575 -2.2814 -2.1492 -0.1651
 6578SOL    HW326079   2.720   2.085   0.712 -0.1811  0.3551  0.9325
 6578SOL    MW426080   2.688   2.147   0.660 -0.0599  0.3120 -0.3303
 6579SOL     OW26081   4.249   0.013   1.358 -0.1162 -0.5113 -1.0314
 6579SOL    HW226082   4.328  -0.031   1.329  0.0917  0.0271 -1.2901
 6579SOL    HW326083   4.265   0.106   1.341  0.9470  0.1766  2.8163
 6579SOL    MW426084   4.261   0.020   1.352  0.0206  0.0572  0.4347
 6580SOL     OW26085   1.028   3.696   5.923  0.0400 -0.4895  0.1098
 6580SOL    HW226086   1.031   3.653   5.838  0.3795 -0.5240  0.1366
 6580SOL    HW326087   0.971   3.772   5.910 -0.5577 -0.9453  0.0641
 6580SOL    MW426088   1.021   3.700   5.910  0.1099 -0.5585 -0.0824
 6581SOL     OW26089   4.183   2.848   4.819  0.4644 -0.0177 -0.0066
 6581SOL    HW226090   4.277   2.833   4.807  0.7499  1.2785  0.4932
 6581SOL    HW326091   4.175   2.943   4.827 -1.0441 -0.0141 -1.2504
 6581SOL    MW426092   4.195   2.858   4.818  0.1042  0.3290  0.1776
 6582SOL     OW26093   2.983   5.463   5.153 -0.2096 -0.4702 -0.2917
 6582SOL    HW226094   2.911   5.526   5.147  0.8305  0.7219 -0.4571
 6582SOL    HW326095   2.943   5.380   5.127 -1.1623  0.4541 -1.9848
 6582SOL    MW426096   2.968   5.460   5.149  0.8223  0.1279  0.4111
 6583SOL     OW26097   3.469   5.524   1.968 -0.5606 -0.0986 -0.3496
 6583SOL    HW226098   3.444   5.543   2.058  0.3488  1.8241 -0.4637
 6583SOL    HW326099   3.560   5.494   1.974 -0.9841 -1.4975 -0.5068
 6583SOL    MW426100   3.478   5.523   1.980  0.5582  0.3795 -0.3217
 6584SOL     OW26101   5.172   4.897   4.873 -0.4032  0.2963  0.1970
 6584SOL    HW226102   5.171   4.934   4.961 -0.3792  2.8216 -0.7881
 6584SOL    HW326103   5.083   4.865   4.860 -0.7518  1.0364  0.7037
 6584SOL    MW426104   5.160   4.898   4.883  0.1408  0.0348  0.5508
 6585SOL     OW26105   4.070   6.341   0.955 -0.4641 -0.1821 -0.5007
 6585SOL    HW226106   4.103   6.362   0.867  0.4139 -0.2877 -0.2049
 6585SOL    HW326107   4.133   6.277   0.989 -0.3271  0.4934  0.5332
 6585SOL    MW426108   4.083   6.335   0.948 -0.4149 -0.5329 -0.0691
 6586SOL     OW26109   1.804   0.803   1.903  0.4541  0.2050 -0.1180
 6586SOL    HW226110   1.889   0.773   1.871  0.1524 -0.5285 -0.2544
 6586SOL    HW326111   1.814   0.808   1.998  0.5525 -0.2203 -0.1027
 6586SOL    MW426112   1.817   0.799   1.911 -0.7505 -0.6158 -0.2402
 6587SOL     OW26113   5.252   3.230   2.617  0.5281 -0.1929  0.3637
 6587SOL    HW226114   5.345   3.209   2.627  0.8150  0.7446 -0.1953
 6587SOL    HW326115   5.250   3.293   2.545 -0.7615 -1.8828 -1.1774
 6587SOL    MW426116   5.264   3.235   2.608 -0.0973  0.2012 -0.1773
 6588SOL     OW26117   2.365   0.402   4.900 -0.2908  0.0550  0.1670
 6588SOL    HW226118   2.437   0.452   4.939 -0.4747 -0.0751  0.6670
 6588SOL    HW326119   2.409   0.335   4.847 -0.0114 -0.9095  1.5547
 6588SOL    MW426120   2.380   0.400   4.898  0.8073 -0.4311  0.8475
 6589SOL     OW26121   0.139   3.093   2.147 -0.5193 -0.0783 -0.2114
 6589SOL    HW226122   0.060   3.130   2.107 -0.8541  0.4507  0.9029
 6589SOL    HW326123   0.114   3.075   2.237  0.4593 -0.4924 -0.0112
 6589SOL    MW426124   0.125   3.095   2.153  0.4928 -0.5820 -0.1596
 6590SOL     OW26125   3.433   2.511   5.968 -0.1783  0.8156 -0.3265
 6590SOL    HW226126   3.373   2.517   5.893  1.0742 -0.7769 -1.5506
 6590SOL    HW326127   3.427   2.419   5.994 -0.0487  1.1985  1.0808
 6590SOL    MW426128   3.424   2.499   5.961 -0.6661  0.1399  0.1620
 6591SOL     OW26129   5.990   5.294   5.957 -0.0440 -0.4012  0.3712
 6591SOL    HW226130   5.992   5.221   6.017 -0.2505 -0.3130  0.4851
 6591SOL    HW326131   5.951   5.259   5.877 -1.1105 -0.1615  0.7691
 6591SOL    MW426132   5.985   5.280   5.954 -0.2602 -0.2496 -0.5765
 6592SOL     OW26133   5.930   5.293   4.004  0.6052 -0.0863 -0.4400
 6592SOL    HW226134   5.924   5.242   3.923  1.3863  0.2744 -0.7327
 6592SOL    HW326135   5.840   5.320   4.022  0.2683 -1.0556 -0.6098
 6592SOL    MW426136   5.917   5.290   3.996  0.2703 -0.5248 -0.1013
 6593SOL     OW26137   5.412   3.291   4.431  0.4214  0.1884 -0.0030
 6593SOL    HW226138   5.503   3.264   4.444  0.7729  0.6205 -1.3573
 6593SOL    HW326139   5.364   3.208   4.422  0.8428 -0.0424 -0.1953
 6593SOL    MW426140   5.418   3.276   4.431 -0.1987  0.4705 -0.4417
 6594SOL     OW26141   1.626   5.146   1.754 -0.0347 -0.0969  0.2871
 6594SOL    HW226142   1.701   5.095   1.783 -0.3742 -0.0754  1.2386
 6594SOL    HW326143   1.583   5.091   1.689  0.7985 -0.1026 -0.2796
 6594SOL    MW426144   1.630   5.132   1.749  0.0282  0.1564  0.3969
 6595SOL     OW26145   4.585   3.910   2.581 -0.0754 -0.0468  0.2108
 6595SOL    HW226146   4.605   3.862   2.501  0.8005 -0.2754  0.5604
 6595SOL    HW326147   4.536   3.987   2.551  1.0826  0.3850 -0.6537
 6595SOL    MW426148   4.581   3.914   2.566  0.3974  0.0222  0.5317
 6596SOL     OW26149   4.199   4.539   0.572  0.1124 -0.2544 -0.4150
 6596SOL    HW226150   4.140   4.610   0.596  0.5234 -0.4670  1.3838
 6596SOL    HW326151   4.142   4.471   0.537 -0.5699  0.0384  0.1000
 6596SOL    MW426152   4.184   4.539   0.571 -0.1976 -1.0148  0.8316
 6597SOL     OW26153   1.417   3.333   2.259  0.3741  0.5082 -0.5097
 6597SOL    HW226154   1.459   3.247   2.258  1.2534  0.9172  0.1573
 6597SOL    HW326155   1.408   3.357   2.167 -0.9573 -0.7936 -0.7631
 6597SOL    MW426156   1.421   3.325   2.247 -0.2560  0.5222 -0.7155
 6598SOL     OW26157   4.146   2.731   5.060  0.3537 -0.2420  0.5855
 6598SOL    HW226158   4.055   2.752   5.080 -0.3690 -1.3115 -1.3596
 6598SOL    HW326159   4.159   2.762   4.971  1.7302 -0.6380  0.6266
 6598SOL    MW426160   4.136   2.737   5.051  0.1759 -0.1279  0.4730
 6599SOL     OW26161   2.173   5.788   3.610 -0.9948  0.2361 -0.4864
 6599SOL    HW226162   2.138   5.784   3.521  0.0380  0.0481 -0.8981
 6599SOL    HW326163   2.237   5.859   3.606 -0.6067 -0.0911 -0.0084
 6599SOL    MW426164   2.177   5.797   3.597 -0.3781 -0.0487 -0.0517
 6600SOL     OW26165   2.834   3.274   1.628 -0.5592  0.2253  0.2731
 6600SOL    HW226166   2.850   3.217   1.703  0.8619  0.0857 -0.1074
 6600SOL    HW326167   2.741   3.296   1.634 -0.3129  0.9407  2.5984
 6600SOL    MW426168   2.824   3.270   1.639  0.2940  0.0405  0.0502
 6601SOL     OW26169   0.071   1.510   1.870 -0.1658  0.0689  0.5745
 6601SOL    HW226170   0.063   1.450   1.944 -0.9926 -0.3407  0.1648
 6601SOL    HW326171  -0.017   1.546   1.858  0.0314  0.3683 -0.0051
 6601SOL    MW426172   0.058   1.507   1.878  0.0424 -0.3960  0.2250
 6602SOL     OW26173   1.049   0.516   4.791 -0.8378  0.0588 -0.0754
 6602SOL    HW226174   1.093   0.465   4.860  1.2139  2.1384  0.2849
 6602SOL    HW326175   1.118   0.532   4.726 -1.7160  1.3286 -0.7333
 6602SOL    MW426176   1.064   0.511   4.791 -0.2350 -0.0444  0.1162
 6603SOL     OW26177   2.421   2.291   0.735 -0.0833 -0.6327 -0.1456
 6603SOL    HW226178   2.497   2.247   0.699  0.9438 -0.7534  2.0299
 6603SOL    HW326179   2.354   2.223   0.742 -0.4999 -0.5010 -2.1630
 6603SOL    MW426180   2.422   2.276   0.731 -0.3008 -0.1325 -0.3566
 6604SOL     OW26181   0.536   1.838   1.567 -0.1419  0.5615 -0.4372
 6604SOL    HW226182   0.442   1.823   1.561  0.1234 -0.9848 -0.9995
 6604SOL    HW326183   0.549   1.870   1.657 -1.6132  4.4387 -1.3938
 6604SOL    MW426184   0.525   1.840   1.578 -0.3367 -0.7151 -0.2279
 6605SOL     OW26185   6.179   4.480   5.813 -0.2249  0.5231 -0.5204
 6605SOL    HW226186   6.196   4.563   5.768 -0.1511  0.3011 -0.9028
 6605SOL    HW326187   6.176   4.415   5.744  3.8619 -0.5176  0.0469
 6605SOL    MW426188   6.181   4.483   5.798 -0.1098 -0.2971  0.2221
 6606SOL     OW26189   0.063   0.843   1.992  0.0955  0.6358  0.0875
 6606SOL    HW226190   0.048   0.750   2.007  1.3126  0.8420  3.4726
 6606SOL    HW326191  -0.009   0.886   2.039  0.9070  1.4011  0.6620
 6606SOL    MW426192   0.051   0.837   2.000  0.1241  0.1621  0.7084
 6607SOL     OW26193   6.011   5.872   3.580  0.1195  0.6472  0.4573
 6607SOL    HW226194   6.026   5.953   3.630 -0.4123  0.0406  1.6486
 6607SOL    HW326195   5.916   5.860   3.583  0.2728 -0.5437  1.1867
 6607SOL    MW426196   6.000   5.881   3.587  0.0734 -0.0789  0.0185
 6608SOL     OW26197   1.272   6.408   1.651 -0.4254 -0.1807  0.4448
 6608SOL    HW226198   1.361   6.418   1.618 -0.9530  0.2020 -0.9289
 6608SOL    HW326199   1.257   6.313   1.654 -0.2747 -0.2262 -0.1777
 6608SOL    MW426200   1.282   6.397   1.647 -0.5753 -0.4167  0.3658
 6609SOL     OW26201   2.431   5.424   2.862 -0.2568 -0.1882  0.3629
 6609SOL    HW226202   2.408   5.513   2.889  1.6341  0.7573 -0.9789
 6609SOL    HW326203   2.508   5.402   2.914  1.2651  0.2813 -1.6050
 6609SOL    MW426204   2.438   5.433   2.873  0.1243  0.3563  0.6269
 6610SOL     OW26205   5.869   0.805   3.396 -0.1774 -0.0599 -0.4600
 6610SOL    HW226206   5.939   0.755   3.438  0.0699 -0.6766 -1.5615
 6610SOL    HW326207   5.788   0.766   3.429  0.0114 -0.2419 -0.2137
 6610SOL    MW426208   5.867   0.793   3.406  0.0116 -0.1345  0.3431
 6611SOL     OW26209   0.585   0.857   2.928 -0.3313 -0.3057  0.6646
 6611SOL    HW226210   0.540   0.921   2.872 -1.4443 -0.7780  0.9848
 6611SOL    HW326211   0.530   0.779   2.925 -1.5330  0.2421  3.8867
 6611SOL    MW426212   0.572   0.855   2.920  0.0379  0.4377 -0.5033
 6612SOL     OW26213   0.539   3.790   2.459 -0.0846 -0.6011 -0.1336
 6612SOL    HW226214   0.537   3.874   2.505 -3.0394  0.3125 -1.6251
 6612SOL    HW326215   0.472   3.738   2.503  2.1439 -2.5431  1.1879
 6612SOL    MW426216   0.530   3.795   2.471 -0.5143 -0.4216  0.5476
 6613SOL     OW26217   4.811   0.436   3.534  0.3565 -0.1821  0.5561
 6613SOL    HW226218   4.852   0.356   3.567  0.0913  0.2888  2.0976
 6613SOL    HW326219   4.884   0.495   3.517  0.6053 -0.8996 -1.1605
 6613SOL    MW426220   4.826   0.433   3.536 -0.1759 -0.4065  0.6352
 6614SOL     OW26221   6.222   5.933   2.212  0.0730  0.3470 -0.1573
 6614SOL    HW226222   6.176   5.931   2.128  0.1991  1.8155 -0.2834
 6614SOL    HW326223   6.158   5.902   2.276  0.1068 -1.1903 -0.8282
 6614SOL    MW426224   6.208   5.929   2.210  0.3900  0.2861  0.4902
 6615SOL     OW26225   2.514   1.424   3.952  0.1534 -0.0050 -0.0219
 6615SOL    HW226226   2.517   1.375   3.869  0.5824 -0.1874  0.0988
 6615SOL    HW326227   2.421   1.437   3.968 -0.0211 -1.4683  0.3323
 6615SOL    MW426228   2.502   1.419   3.943  0.5071  0.0275  0.8088
 6616SOL     OW26229   1.598   6.288   1.166 -0.6429  0.0555 -0.4383
 6616SOL    HW226230   1.545   6.246   1.235 -1.2260 -1.2685 -1.6420
 6616SOL    HW326231   1.688   6.260   1.186  0.0539  3.5913  2.5579
 6616SOL    MW426232   1.603   6.278   1.178  0.5461  0.1811 -0.3518
 6617SOL     OW26233   0.803   0.923   5.874  0.4398  0.1100 -0.0684
 6617SOL    HW226234   0.800   0.896   5.782 -0.8496  0.3039 -0.1095
 6617SOL    HW326235   0.879   0.877   5.910  1.8185  1.1227 -1.5459
 6617SOL    MW426236   0.813   0.913   5.867 -0.4503  0.4116 -0.4613
 6618SOL     OW26237   2.092   2.049   2.298 -0.0859 -0.5343  0.6461
 6618SOL    HW226238   2.003   2.084   2.307  0.1690  0.6475 -0.8878
 6618SOL    HW326239   2.114   2.064   2.206  1.0557 -2.4385  0.5658
 6618SOL    MW426240   2.083   2.056   2.287  0.8021  0.0735 -0.0172
 6619SOL     OW26241   6.105   2.674   4.282  0.0729  0.5474  0.3478
 6619SOL    HW226242   6.062   2.615   4.344  1.9069 -1.0246  0.2320
 6619SOL    HW326243   6.034   2.713   4.231 -1.2160 -1.4986  0.5004
 6619SOL    MW426244   6.090   2.672   4.283  0.1482  0.1666  0.3063
 6620SOL     OW26245   2.792   0.943   0.970  0.0292 -0.3846  0.0333
 6620SOL    HW226246   2.712   0.938   1.022  0.5927 -1.6394  0.8231
 6620SOL    HW326247   2.827   1.030   0.988 -0.7255 -0.1272  0.3042
 6620SOL    MW426248   2.786   0.954   0.979  0.3230 -0.0025  0.7077
 6621SOL     OW26249   1.443   4.936   5.139  0.3541  0.1228 -0.1117
 6621SOL    HW226250   1.504   5.009   5.137 -0.6391  1.0979  1.9794
 6621SOL    HW326251   1.456   4.891   5.055  3.5367  0.5518  0.0290
 6621SOL    MW426252   1.453   4.939   5.128 -0.5229  0.2981 -0.0415
 6622SOL     OW26253   5.941   3.760   0.576  0.5751 -0.6408 -0.1046
 6622SOL    HW226254   5.861   3.742   0.626 -0.4323 -0.4133 -1.5815
 6622SOL    HW326255   6.009   3.709   0.620 -0.4228 -1.0352  1.0357
 6622SOL    MW426256   5.940   3.751   0.589 -0.4734 -0.0006 -0.1054
 6623SOL     OW26257   5.407   1.596   1.111 -0.5470 -0.2777  0.2206
 6623SOL    HW226258   5.445   1.544   1.183 -0.5019  0.2786  0.6063
 6623SOL    HW326259   5.313   1.585   1.122 -0.5343 -0.4121  0.2004
 6623SOL    MW426260   5.400   1.588   1.122 -0.0048 -0.1659  0.2430
 6624SOL     OW26261   2.154   0.812   1.298 -0.4753 -0.1897  0.4639
 6624SOL    HW226262   2.136   0.807   1.392 -2.1027 -0.2809  0.1832
 6624SOL    HW326263   2.081   0.765   1.258  0.1299 -0.0242 -0.8508
 6624SOL    MW426264   2.142   0.805   1.305 -0.9882  0.0404  0.3054
 6625SOL     OW26265   3.095   0.353   3.015 -0.6802 -0.1229 -0.2265
 6625SOL    HW226266   3.165   0.304   2.970 -0.8035 -0.0166 -0.5357
 6625SOL    HW326267   3.136   0.384   3.096  0.0441  1.1054 -1.0365
 6625SOL    MW426268   3.110   0.351   3.020  0.1850  0.3816  0.1434
 6626SOL     OW26269   2.053   2.686   0.111  0.1259 -1.1295  0.2010
 6626SOL    HW226270   2.103   2.697   0.192 -0.1218 -0.3430  0.2581
 6626SOL    HW326271   1.973   2.736   0.125 -0.1570 -1.4221 -0.3321
 6626SOL    MW426272   2.049   2.694   0.123  0.1061  0.0875  0.4059
 6627SOL     OW26273   2.301   5.406   5.864  0.4486  0.4335  0.1634
 6627SOL    HW226274   2.383   5.363   5.890  0.4155  0.7941  0.8863
 6627SOL    HW326275   2.235   5.337   5.869  0.3321  0.6133  1.6433
 6627SOL    MW426276   2.303   5.391   5.868  0.1173 -0.0375  0.2289
 6628SOL     OW26277   5.558   1.211   5.056 -0.1010  0.8457 -0.0002
 6628SOL    HW226278   5.604   1.169   5.128 -0.1693  0.8626  0.0527
 6628SOL    HW326279   5.532   1.139   4.999  0.0753  0.8436 -0.0798
 6628SOL    MW426280   5.561   1.196   5.058  0.3672  0.0469 -0.0736
 6629SOL     OW26281   1.307   3.195   5.999 -0.2031 -0.2398  0.4605
 6629SOL    HW226282   1.395   3.173   5.968 -1.0034 -0.3342 -1.9286
 6629SOL    HW326283   1.266   3.110   6.019  0.4365 -0.1605  2.2973
 6629SOL    MW426284   1.313   3.180   5.998 -0.0409  0.0869 -0.7887
 6630SOL     OW26285   3.848   5.029   3.292  0.1068 -0.1162 -0.7857
 6630SOL    HW226286   3.781   4.970   3.260 -0.0003 -0.7936  0.6253
 6630SOL    HW326287   3.880   5.074   3.213 -1.8128  0.0712 -1.5177
 6630SOL    MW426288   3.844   5.027   3.277  0.1150  0.2672  0.4794
 6631SOL     OW26289   2.798   3.626   4.004  0.0559 -0.3093  0.1829
 6631SOL    HW226290   2.725   3.637   4.065  0.7968  0.7062  0.9377
 6631SOL    HW326291   2.872   3.603   4.060  1.0062  1.6955 -0.1399
 6631SOL    MW426292   2.798   3.625   4.020 -0.7611 -0.0889 -0.7722
 6632SOL     OW26293   2.657   3.513   2.354 -0.3251  0.7981 -0.1636
 6632SOL    HW226294   2.714   3.544   2.285  2.3564 -1.6341  0.7654
 6632SOL    HW326295   2.610   3.439   2.316  0.9777 -0.3923  0.4477
 6632SOL    MW426296   2.658   3.507   2.340 -0.0283  0.7100 -0.0118
 6633SOL     OW26297   0.314   2.629   0.851 -0.2488  0.3461  0.0859
 6633SOL    HW226298   0.400   2.672   0.850  0.6813 -1.1174  2.9161
 6633SOL    HW326299   0.270   2.660   0.772  2.0489  2.8301 -0.3771
 6633SOL    MW426300   0.320   2.639   0.841 -0.1248  0.1179  0.8512
 6634SOL     OW26301   5.667   1.546   5.283  0.8872 -0.0572 -0.7877
 6634SOL    HW226302   5.732   1.518   5.348  1.6661  1.4823 -0.8686
 6634SOL    HW326303   5.589   1.494   5.304  1.6147 -0.7464  0.3616
 6634SOL    MW426304   5.665   1.535   5.294 -0.1371  0.4819  0.4640
 6635SOL     OW26305   1.277   4.290   5.025 -0.9338 -0.6134 -0.2696
 6635SOL    HW226306   1.190   4.254   5.012 -0.7845 -1.8512  1.9027
 6635SOL    HW326307   1.262   4.384   5.040 -1.6393 -0.3736 -2.1728
 6635SOL    MW426308   1.264   4.298   5.025 -0.5478 -0.3201  0.3862
 6636SOL     OW26309   1.690   0.271   2.788 -0.1471 -0.2123  0.5454
 6636SOL    HW226310   1.673   0.176   2.793  0.9886 -0.4298  0.4547
 6636SOL    HW326311   1.608   0.311   2.817 -1.9101 -1.1663 -2.6261
 6636SOL    MW426312   1.677   0.264   2.792  0.6012  0.2530 -0.6230
 6637SOL     OW26313   3.159   0.801   4.181  0.1670  0.2773 -0.2459
 6637SOL    HW226314   3.134   0.874   4.124  0.7309 -0.7766 -1.9272
 6637SOL    HW326315   3.236   0.763   4.139  0.2575 -0.9162  0.9194
 6637SOL    MW426316   3.166   0.805   4.168 -0.0187  0.1360  0.4801
 6638SOL     OW26317   4.934   4.490   2.936 -0.3552  0.2758  0.0310
 6638SOL    HW226318   4.864   4.511   2.999 -1.0381 -1.5984 -0.0411
 6638SOL    HW326319   4.890   4.493   2.850  0.1642  1.1257 -0.2152
 6638SOL    MW426320   4.919   4.493   2.933 -0.4056  0.2474 -0.2231
 6639SOL     OW26321   3.402   1.988   1.406  0.3800 -0.2990 -0.4992
 6639SOL    HW226322   3.353   1.984   1.324  1.3065  0.4507 -1.0900
 6639SOL    HW326323   3.485   1.943   1.388  0.1335 -1.1702  0.3740
 6639SOL    MW426324   3.406   1.981   1.393  0.5238 -0.1854 -0.4568
 6640SOL     OW26325   2.407   5.702   1.905  0.2985  0.1755 -0.3960
 6640SOL    HW226326   2.354   5.637   1.860  1.4643 -1.4430  0.4579
 6640SOL    HW326327   2.389   5.687   1.998 -0.0211  1.6422 -0.1998
 6640SOL    MW426328   2.398   5.692   1.911  0.4422  0.2145 -0.6457
 6641SOL     OW26329   1.102   3.522   1.659 -0.3930  0.0938 -0.2066
 6641SOL    HW226330   1.144   3.470   1.590  0.6288  1.6176 -0.7799
 6641SOL    HW326331   1.176   3.559   1.708 -1.0851  1.2986 -0.0491
 6641SOL    MW426332   1.118   3.520   1.657 -0.1556 -0.6638 -0.3235
 6642SOL     OW26333   2.553   5.959   3.623  0.3788 -0.5093 -0.1354
 6642SOL    HW226334   2.590   6.046   3.629 -2.3972  0.8038 -0.2103
 6642SOL    HW326335   2.489   5.965   3.551 -0.3297 -2.4110  0.2622
 6642SOL    MW426336   2.549   5.971   3.614  0.0754 -0.1168 -0.0321
 6643SOL     OW26337   5.607   2.629   3.432  0.4334  0.2908  0.0155
 6643SOL    HW226338   5.636   2.704   3.381  2.6536  0.3523  1.2197
 6643SOL    HW326339   5.639   2.553   3.384  3.0078  0.3616  1.4058
 6643SOL    MW426340   5.615   2.629   3.419  0.2243 -0.5774 -0.4798
 6644SOL     OW26341   5.989   3.988   4.316  0.5234  0.0809 -0.4570
 6644SOL    HW226342   6.002   3.920   4.249  0.1396 -0.7307  0.2717
 6644SOL    HW326343   6.032   3.953   4.394  1.1173  1.0982 -0.3071
 6644SOL    MW426344   5.996   3.974   4.317 -0.2480  0.0813  0.3469
 6645SOL     OW26345   2.679   4.251   3.735  0.3836  0.4621  0.2188
 6645SOL    HW226346   2.602   4.215   3.690  0.1882  0.3431  0.6462
 6645SOL    HW326347   2.722   4.306   3.669 -0.2570  0.8098  0.0842
 6645SOL    MW426348   2.675   4.253   3.720  0.1120  0.1934  0.7662
 6646SOL     OW26349   2.364   3.886   2.245  0.3399 -0.4575 -0.2215
 6646SOL    HW226350   2.305   3.943   2.292  0.7102  0.7661 -1.1821
 6646SOL    HW326351   2.403   3.829   2.312  0.5412  0.9370  0.8733
 6646SOL    MW426352   2.362   3.886   2.260 -0.2185  0.2787  0.1016
 6647SOL     OW26353   4.139   5.999   3.024 -0.4023 -0.4409 -0.0376
 6647SOL    HW226354   4.092   5.927   2.983  2.3603 -1.5220 -1.6057
 6647SOL    HW326355   4.184   6.043   2.951  1.6234 -0.0454  1.3488
 6647SOL    MW426356   4.139   5.996   3.009  0.1070  0.2373  0.3935
 6648SOL     OW26357   5.086   5.656   1.106 -0.4339  0.0986  0.2475
 6648SOL    HW226358   4.995   5.630   1.092 -0.3416 -0.7178  1.0623
 6648SOL    HW326359   5.086   5.699   1.192  0.0485 -0.4888  0.5539
 6648SOL    MW426360   5.074   5.658   1.116 -0.9360  0.1161 -0.4908
 6649SOL     OW26361   3.597   0.269   4.766  0.4831  0.6303 -0.6347
 6649SOL    HW226362   3.685   0.230   4.768  0.8664  1.4450 -0.7436
 6649SOL    HW326363   3.614   0.364   4.760 -0.4001  0.8307 -0.1416
 6649SOL    MW426364   3.611   0.277   4.766 -1.0148  0.0779  0.7203
 6650SOL     OW26365   0.776   3.194   5.609 -0.0999  0.1123 -0.4129
 6650SOL    HW226366   0.701   3.244   5.640  0.6639  0.3691  1.0804
 6650SOL    HW326367   0.850   3.254   5.616  0.7750 -1.0957  1.1050
 6650SOL    MW426368   0.776   3.208   5.614 -0.1494  0.1639 -0.0242
 6651SOL     OW26369   2.248   5.425   0.050 -0.5284 -0.4388 -0.0388
 6651SOL    HW226370   2.168   5.474   0.029 -1.0670 -0.8815  0.9100
 6651SOL    HW326371   2.318   5.473   0.006 -1.2557  0.2580 -0.4553
 6651SOL    MW426372   2.247   5.438   0.042  0.7791 -0.2822 -0.2741
 6652SOL     OW26373   4.205   0.999   4.816  0.3074 -0.3474 -0.3920
 6652SOL    HW226374   4.284   1.037   4.853 -0.9136  0.8076  1.1763
 6652SOL    HW326375   4.223   0.994   4.722  2.4099 -0.6228 -0.0327
 6652SOL    MW426376   4.218   1.003   4.809  0.2242 -0.0063  0.0488
 6653SOL     OW26377   5.407   4.576   5.121  0.1886  0.2538  0.5403
 6653SOL    HW226378   5.501   4.581   5.103  0.1733 -0.5997  0.1805
 6653SOL    HW326379   5.370   4.653   5.078  0.6531  0.2960  0.2104
 6653SOL    MW426380   5.415   4.587   5.113 -0.1853  0.6694 -0.3015
 6654SOL     OW26381   1.229   4.540   1.599  0.4766  0.0412  0.7825
 6654SOL    HW226382   1.260   4.479   1.667  0.9809 -0.6443 -0.0376
 6654SOL    HW326383   1.227   4.487   1.519  0.5458  1.0096  0.1303
 6654SOL    MW426384   1.233   4.525   1.597  0.2554  0.3414 -0.4820
 6655SOL     OW26385   4.644   4.365   3.876  0.0981  0.1820  0.5060
 6655SOL    HW226386   4.655   4.431   3.807 -2.0529  0.4846  0.4002
 6655SOL    HW326387   4.633   4.282   3.829 -3.1526  0.6166  0.2726
 6655SOL    MW426388   4.644   4.363   3.861  0.1435 -0.3782 -0.7974
 6656SOL     OW26389   3.510   1.865   0.303 -0.1881  0.2475 -0.5238
 6656SOL    HW226390   3.599   1.885   0.274  0.4163 -2.0394 -0.4249
 6656SOL    HW326391   3.466   1.950   0.305  1.4328  1.2189 -2.3873
 6656SOL    MW426392   3.516   1.879   0.299 -0.3179 -0.0718  0.1037
 6657SOL     OW26393   1.655   1.933   6.381  0.7408  0.1661 -0.4460
 6657SOL    HW226394   1.663   2.023   6.349 -0.3374  1.2218  1.9822
 6657SOL    HW326395   1.726   1.924   6.445  0.6721 -0.6175 -0.4712
 6657SOL    MW426396   1.665   1.943   6.386  0.1218 -0.0199 -0.0719
 6658SOL     OW26397   0.385   5.249   1.834 -0.1185  0.0904  0.3202
 6658SOL    HW226398   0.399   5.241   1.740  0.5655  0.6511  0.3656
 6658SOL    HW326399   0.292   5.270   1.843 -0.3309 -0.6069 -0.1840
 6658SOL    MW426400   0.374   5.251   1.823 -0.8146 -0.4445  0.1718
 6659SOL     OW26401   1.931   4.411   0.863  0.1538  0.1879  0.2461
 6659SOL    HW226402   1.966   4.402   0.774  0.7033  0.4838  0.4273
 6659SOL    HW326403   1.928   4.321   0.896 -0.7762 -0.0073 -0.3338
 6659SOL    MW426404   1.935   4.398   0.855  0.5435 -0.2164  0.0934
 6660SOL     OW26405   2.087   1.974   4.549  0.2326 -0.0861  0.3450
 6660SOL    HW226406   2.129   1.914   4.487  1.5936  1.7182 -0.6099
 6660SOL    HW326407   2.040   2.036   4.493  0.0949  0.5933  1.2018
 6660SOL    MW426408   2.086   1.975   4.533 -0.2537 -0.1146 -0.0504
 6661SOL     OW26409   1.686   2.444   3.523 -0.5253  0.5807 -0.5933
 6661SOL    HW226410   1.697   2.490   3.440 -0.0411  1.3071 -0.1400
 6661SOL    HW326411   1.622   2.376   3.505 -0.3174  0.6420 -1.5966
 6661SOL    MW426412   1.679   2.441   3.510  0.2177 -0.0218 -0.0706
 6662SOL     OW26413   6.175   3.428   1.329  0.2329 -0.2492  0.5167
 6662SOL    HW226414   6.244   3.361   1.338  0.9219  0.2011 -1.1506
 6662SOL    HW326415   6.183   3.459   1.239 -0.1131  2.0567  1.2159
 6662SOL    MW426416   6.185   3.423   1.318  0.1428 -0.0647  0.2085
 6663SOL     OW26417   1.519   0.060   3.826  0.2811 -0.2777 -0.2979
 6663SOL    HW226418   1.443   0.077   3.771 -0.3078 -1.1935  0.2000
 6663SOL    HW326419   1.530   0.139   3.879 -0.2379 -0.0907 -0.4734
 6663SOL    MW426420   1.511   0.073   3.826 -0.5457 -0.5264  0.3207
 6664SOL     OW26421   2.486   3.220   4.273 -0.1456  0.2262  0.7808
 6664SOL    HW226422   2.467   3.168   4.351  0.3390 -0.7868  0.2444
 6664SOL    HW326423   2.400   3.250   4.243 -0.4882 -0.6761  0.8299
 6664SOL    MW426424   2.472   3.217   4.279 -0.1120 -0.3719  0.3149
 6665SOL     OW26425   2.318   4.939   5.787 -0.4066  0.1215 -0.2503
 6665SOL    HW226426   2.255   4.898   5.728 -0.0214 -0.9404  0.0594
 6665SOL    HW326427   2.293   4.908   5.874 -1.8635  2.7635  0.4045
 6665SOL    MW426428   2.306   4.930   5.791 -0.1308 -0.2389 -0.1116
 6666SOL     OW26429   4.315   3.611   1.572 -0.2138  0.2640  0.0064
 6666SOL    HW226430   4.253   3.558   1.523  0.4574 -1.5996  1.0742
 6666SOL    HW326431   4.350   3.673   1.508 -0.0303 -1.4660 -1.6551
 6666SOL    MW426432   4.312   3.613   1.557  0.0848 -0.4219  0.1835
 6667SOL     OW26433   3.413   1.885   0.928 -0.4476  0.2074  0.4011
 6667SOL    HW226434   3.397   1.971   0.888  0.7567  0.7530  1.0320
 6667SOL    HW326435   3.364   1.888   1.011  0.8801  0.9598  1.2068
 6667SOL    MW426436   3.405   1.897   0.934  0.5720 -0.7161  0.5491
 6668SOL     OW26437   2.012   0.830   5.984 -0.3455  0.4390 -0.0379
 6668SOL    HW226438   2.078   0.761   5.982 -0.2615  0.2660  3.3191
 6668SOL    HW326439   2.062   0.911   5.997 -0.6227  0.7073 -0.6158
 6668SOL    MW426440   2.027   0.832   5.986 -0.2183  0.0838 -0.1088
 6669SOL     OW26441   2.423   5.145   3.110  0.3846  0.3492  0.0543
 6669SOL    HW226442   2.371   5.215   3.071 -1.0968 -0.3364  0.6912
 6669SOL    HW326443   2.418   5.161   3.204  0.5539 -0.2494  0.1698
 6669SOL    MW426444   2.415   5.156   3.117 -0.4093  0.2585  0.2165
 6670SOL     OW26445   2.261   6.332   3.569  0.4227 -0.1877  0.0531
 6670SOL    HW226446   2.303   6.355   3.652  2.5861 -0.6429 -0.8508
 6670SOL    HW326447   2.168   6.328   3.590  0.9784 -1.3348  2.7332
 6670SOL    MW426448   2.254   6.334   3.583  0.8820  0.4333  0.4261
 6671SOL     OW26449   5.458   5.751   5.941  0.5338  0.1709 -0.0434
 6671SOL    HW226450   5.392   5.789   5.998  1.5089  0.9799  0.5888
 6671SOL    HW326451   5.460   5.658   5.965  0.6973  0.4386  1.0241
 6671SOL    MW426452   5.450   5.744   5.952  0.1497  0.0941 -0.4247
 6672SOL     OW26453   0.417   3.377   1.311  0.0177  0.2322  0.2784
 6672SOL    HW226454   0.463   3.458   1.333  0.6702  0.0189 -0.2529
 6672SOL    HW326455   0.403   3.334   1.396  0.1728  0.6294  0.5111
 6672SOL    MW426456   0.422   3.382   1.325  0.1092  1.0200  0.2654
 6673SOL     OW26457   3.635   3.848   5.622  0.3177 -0.0815  0.0941
 6673SOL    HW226458   3.543   3.836   5.599 -0.3502  0.9591  2.0084
 6673SOL    HW326459   3.654   3.940   5.603  0.4874  0.1213  1.1895
 6673SOL    MW426460   3.626   3.858   5.617  0.6415  0.0570 -0.1609
 6674SOL     OW26461   5.964   5.284   1.405 -0.2054 -0.2634 -0.3214
 6674SOL    HW226462   6.047   5.266   1.449 -0.8349  1.9437  1.9987
 6674SOL    HW326463   5.931   5.364   1.447 -2.2933  0.3971 -2.9353
 6674SOL    MW426464   5.970   5.292   1.417  0.3329  0.6097 -0.2622
 6675SOL     OW26465   4.383   0.117   3.414 -0.2778 -0.2228 -0.6152
 6675SOL    HW226466   4.360   0.185   3.351 -0.5636  0.0418 -0.2321
 6675SOL    HW326467   4.305   0.108   3.469 -0.3209 -1.0189 -0.7990
 6675SOL    MW426468   4.370   0.125   3.413 -0.0026  0.0421  0.5337
 6676SOL     OW26469   0.692   0.569   1.261  0.2040  0.5290 -0.1945
 6676SOL    HW226470   0.759   0.501   1.272  0.4836  0.9704  1.0752
 6676SOL    HW326471   0.725   0.642   1.313 -0.3877  1.4274 -1.0515
 6676SOL    MW426472   0.705   0.570   1.269 -0.2432  0.4472  0.1015
 6677SOL     OW26473   1.993   1.446   2.693 -0.3684 -0.3373 -0.2745
 6677SOL    HW226474   2.041   1.511   2.641 -1.8914 -0.0844 -1.4740
 6677SOL    HW326475   2.045   1.366   2.686  2.2503  0.9709  2.3218
 6677SOL    MW426476   2.006   1.444   2.685 -0.6851 -0.3140 -0.0559
 6678SOL     OW26477   5.828   0.071   6.335  0.7773  0.6750 -0.0617
 6678SOL    HW226478   5.853   0.040   6.422  0.5831 -1.8257 -0.8227
 6678SOL    HW326479   5.732   0.074   6.337  0.6488 -1.4821 -0.7809
 6678SOL    MW426480   5.819   0.068   6.347 -0.1472  0.7550  0.1987
 6679SOL     OW26481   3.589   3.010   4.016  0.2710  0.4612  0.0647
 6679SOL    HW226482   3.590   2.960   3.935  1.6206 -0.2454  0.4925
 6679SOL    HW326483   3.573   2.944   4.084  2.0307  0.5565  0.6303
 6679SOL    MW426484   3.587   2.994   4.014 -0.5864  0.1171 -0.1867
 6680SOL     OW26485   5.667   3.579   4.555  0.6673 -0.1100 -0.0912
 6680SOL    HW226486   5.582   3.551   4.590  1.0477 -2.0328 -0.5459
 6680SOL    HW326487   5.670   3.673   4.570 -0.1993 -0.4464  2.8252
 6680SOL    MW426488   5.656   3.587   4.561 -0.3055 -0.2562  0.0894
 6681SOL     OW26489   2.366   0.009   1.785  0.1914 -0.4438  0.6897
 6681SOL    HW226490   2.435   0.070   1.759  1.7376 -2.0949  0.7761
 6681SOL    HW326491   2.354   0.025   1.879  0.6740 -0.3755  0.7401
 6681SOL    MW426492   2.373   0.019   1.794 -0.0642 -0.1091 -0.1564
 6682SOL     OW26493   1.439   5.385   4.192  0.2347 -0.0244 -0.1666
 6682SOL    HW226494   1.435   5.396   4.097  1.3651  0.7496 -0.1488
 6682SOL    HW326495   1.348   5.375   4.219 -0.2589  1.4727 -1.1491
 6682SOL    MW426496   1.427   5.385   4.183 -0.1056  0.4407 -0.2620
 6683SOL     OW26497   3.368   1.369   5.934 -0.3398  0.0134  0.1306
 6683SOL    HW226498   3.314   1.445   5.913  0.6179  0.1219 -2.4131
 6683SOL    HW326499   3.333   1.336   6.016 -3.2456  0.9711 -0.5910
 6683SOL    MW426500   3.356   1.375   5.942  0.0720 -0.2295  0.2710
 6684SOL     OW26501   5.862   4.498   5.762  0.2152 -0.0678 -0.2337
 6684SOL    HW226502   5.888   4.435   5.829 -2.7678 -0.4856  0.6604
 6684SOL    HW326503   5.894   4.460   5.680  0.5602 -1.5161  0.5417
 6684SOL    MW426504   5.870   4.485   5.760  0.4436  0.2285  0.0319
 6685SOL     OW26505   5.294   0.241   6.067 -0.0359 -0.4306  0.8135
 6685SOL    HW226506   5.278   0.334   6.081  0.0015 -0.3035  0.0506
 6685SOL    HW326507   5.386   0.228   6.091  0.2140 -0.0889  0.0495
 6685SOL    MW426508   5.304   0.252   6.072  0.6134 -0.0478 -0.4138
 6686SOL     OW26509   1.521   4.573   3.893 -0.5307 -0.3615  0.9816
 6686SOL    HW226510   1.452   4.520   3.853  0.2215 -0.0223 -0.8745
 6686SOL    HW326511   1.574   4.510   3.942 -1.7329 -0.7227  1.8638
 6686SOL    MW426512   1.519   4.557   3.894  0.3014 -0.0456  0.1460
 6687SOL     OW26513   4.240   0.424   0.205 -0.4877  0.1468 -0.2507
 6687SOL    HW226514   4.154   0.430   0.163 -1.5251 -1.1608  1.5437
 6687SOL    HW326515   4.222   0.383   0.289  1.6954  1.4016  0.8956
 6687SOL    MW426516   4.226   0.419   0.210 -0.1645 -0.3267  0.3836
 6688SOL     OW26517   5.823   4.319   2.537 -0.1691  0.5505  0.4360
 6688SOL    HW226518   5.878   4.306   2.614 -0.4943  0.5536  0.6665
 6688SOL    HW326519   5.846   4.246   2.479  0.2573  0.6888  0.4266
 6688SOL    MW426520   5.833   4.307   2.539  0.5284  0.1612  0.9161
 6689SOL     OW26521   2.030   5.100   1.028 -0.0175 -0.6721 -0.0308
 6689SOL    HW226522   2.052   5.006   1.029 -0.6957 -0.8389  0.9476
 6689SOL    HW326523   2.114   5.144   1.040  0.4856 -1.0887 -1.6951
 6689SOL    MW426524   2.044   5.093   1.030  0.0295 -0.1960  0.0421
 6690SOL     OW26525   0.275   6.138   4.422  0.1126 -0.5724  0.1819
 6690SOL    HW226526   0.265   6.218   4.370 -0.8346 -0.2673  0.8263
 6690SOL    HW326527   0.305   6.072   4.358 -0.8164 -0.1533 -0.7112
 6690SOL    MW426528   0.278   6.140   4.406  0.5163 -0.1252 -0.1085
 6691SOL     OW26529   1.295   5.367   0.556 -0.0415 -0.2831  0.1567
 6691SOL    HW226530   1.273   5.434   0.491  0.3697  1.1534  1.4417
 6691SOL    HW326531   1.371   5.323   0.520 -0.4902 -0.2599 -0.8487
 6691SOL    MW426532   1.302   5.370   0.543 -0.2611 -0.3632 -0.1663
 6692SOL     OW26533   1.158   3.867   4.067 -0.8861  0.0988  0.2201
 6692SOL    HW226534   1.129   3.956   4.049 -1.1410  0.4793  2.3224
 6692SOL    HW326535   1.244   3.876   4.106  1.2105 -0.9083 -3.6578
 6692SOL    MW426536   1.165   3.880   4.070  0.1148  0.0319  0.1414
 6693SOL     OW26537   4.033   3.121   4.503 -0.3104  0.4328  0.3044
 6693SOL    HW226538   4.052   3.027   4.503  1.2844  0.7343  0.3202
 6693SOL    HW326539   3.938   3.126   4.497 -0.3526 -1.1883 -1.6196
 6693SOL    MW426540   4.023   3.109   4.502 -0.0209  1.2362  0.2255
 6694SOL     OW26541   2.292   5.157   3.398 -0.0622 -0.3176 -0.2579
 6694SOL    HW226542   2.249   5.236   3.430  0.8236  0.4646 -0.9462
 6694SOL    HW326543   2.261   5.087   3.456  0.0084  0.7076  1.0562
 6694SOL    MW426544   2.282   5.158   3.410 -0.3417  0.1283 -0.1786
 6695SOL     OW26545   5.472   4.283   5.971  0.0267  0.2100 -0.2072
 6695SOL    HW226546   5.514   4.309   5.890  2.3010 -0.7388  0.5945
 6695SOL    HW326547   5.452   4.190   5.959 -2.8192  0.8229 -0.9157
 6695SOL    MW426548   5.475   4.274   5.959  0.3807  0.5193  0.3933
 6696SOL     OW26549   4.397   0.615   5.647 -0.0629 -0.5431 -0.2605
 6696SOL    HW226550   4.405   0.542   5.708 -0.3891 -0.2303  0.1571
 6696SOL    HW326551   4.444   0.585   5.569  0.5492 -0.8579  0.2160
 6696SOL    MW426552   4.405   0.601   5.644 -0.2045 -0.1536 -0.4204
 6697SOL     OW26553   1.203   1.623   1.086  0.5032 -0.3702 -0.7520
 6697SOL    HW226554   1.145   1.664   1.023 -0.5693 -0.5715  0.0746
 6697SOL    HW326555   1.249   1.555   1.036  2.0008  1.4677 -2.0358
 6697SOL    MW426556   1.201   1.619   1.071 -0.0494 -0.7211 -0.3216
 6698SOL     OW26557   3.433   0.183   3.386  0.0516 -0.2107 -1.0265
 6698SOL    HW226558   3.524   0.211   3.391  0.5950 -1.9786 -0.3611
 6698SOL    HW326559   3.428   0.106   3.442 -1.8584 -0.1704 -1.0703
 6698SOL    MW426560   3.444   0.177   3.394 -0.5384 -0.6389  0.1962
 6699SOL     OW26561   2.947   5.097   2.419  0.1942  0.1404  0.1389
 6699SOL    HW226562   3.001   5.065   2.346 -1.1151 -1.2077 -0.2958
 6699SOL    HW326563   3.008   5.103   2.493  1.1495 -0.3771 -0.5776
 6699SOL    MW426564   2.962   5.094   2.419  0.2239 -0.1361  1.0185
 6700SOL     OW26565   3.578   2.231   0.004  0.3976  0.0581 -0.2905
 6700SOL    HW226566   3.621   2.230   0.089  1.8198 -1.1916 -0.9927
 6700SOL    HW326567   3.513   2.161   0.009 -0.7226  1.0989  0.3185
 6700SOL    MW426568   3.575   2.222   0.016 -0.2332  0.4608 -0.2476
 6701SOL     OW26569   3.045   0.931   6.377  0.0719  0.4026 -0.3580
 6701SOL    HW226570   2.996   0.896   6.303  1.4246 -0.6235 -0.8015
 6701SOL    HW326571   3.025   0.872   6.450  1.6137 -0.7923 -0.8666
 6701SOL    MW426572   3.036   0.919   6.377 -0.7895 -0.8729  0.2560
 6702SOL     OW26573   0.066   6.339   3.140 -0.7300 -0.2906 -0.2165
 6702SOL    HW226574   0.032   6.383   3.063 -1.7308 -0.9276 -0.1599
 6702SOL    HW326575   0.147   6.386   3.162 -1.4929  1.1692 -0.4527
 6702SOL    MW426576   0.073   6.351   3.133  0.1303  0.3945  0.0281
 6703SOL     OW26577   3.546   5.405   3.743 -0.2112 -0.4962  0.5089
 6703SOL    HW226578   3.526   5.312   3.746 -1.1353 -0.3835 -0.8682
 6703SOL    HW326579   3.626   5.411   3.689 -0.6314 -0.4544 -0.1254
 6703SOL    MW426580   3.554   5.394   3.736 -0.3278  0.4999  0.5611
 6704SOL     OW26581   3.615   5.884   0.772  0.1179  0.1451 -0.9483
 6704SOL    HW226582   3.605   5.963   0.719 -0.8336  0.7851  0.1434
 6704SOL    HW326583   3.531   5.875   0.817 -0.2480 -2.1806 -1.9593
 6704SOL    MW426584   3.602   5.893   0.771 -0.1345  0.4889  0.1606
 6705SOL     OW26585   2.737   2.340   3.851 -0.1950  0.4053 -0.0333
 6705SOL    HW226586   2.724   2.415   3.909  1.4730  1.2017 -0.6124
 6705SOL    HW326587   2.831   2.337   3.836 -0.1233 -2.2527  0.4962
 6705SOL    MW426588   2.748   2.350   3.856 -0.2371 -0.0530 -0.7736
 6706SOL     OW26589   1.904   5.171   4.696  0.2325  0.4065 -0.2654
 6706SOL    HW226590   1.968   5.234   4.729 -0.1436  0.7822 -0.2470
 6706SOL    HW326591   1.917   5.172   4.601 -0.6060  1.4501 -0.3965
 6706SOL    MW426592   1.914   5.180   4.688 -0.1601 -0.3029 -0.1958
 6707SOL     OW26593   0.743   3.076   3.276 -0.2444 -0.0881 -0.0956
 6707SOL    HW226594   0.699   3.105   3.356  1.3037  0.6554  0.5105
 6707SOL    HW326595   0.703   3.129   3.207 -1.6466 -0.7871  0.1307
 6707SOL    MW426596   0.732   3.087   3.278 -0.5866 -0.1960 -0.0142
 6708SOL     OW26597   0.446   1.413   0.141 -0.2371  0.5008  0.5710
 6708SOL    HW226598   0.483   1.326   0.158  0.2540  0.5768 -0.0881
 6708SOL    HW326599   0.522   1.470   0.128 -0.5307  1.1859  1.6671
 6708SOL    MW426600   0.461   1.409   0.142 -0.5240 -0.0883  0.1032
 6709SOL     OW26601   3.686   0.252   0.870  1.0212  0.1812 -0.0489
 6709SOL    HW226602   3.642   0.325   0.827 -0.0072  0.4282  1.3658
 6709SOL    HW326603   3.616   0.191   0.891  2.0438 -2.3893 -3.1787
 6709SOL    MW426604   3.671   0.254   0.867 -0.5442  0.7748 -0.0164
 6710SOL     OW26605   4.991   1.586   3.360 -0.0384  0.2666 -0.1725
 6710SOL    HW226606   4.900   1.567   3.383 -0.1836 -0.1187 -1.0233
 6710SOL    HW326607   5.028   1.500   3.336  0.5933  0.3950  0.3278
 6710SOL    MW426608   4.984   1.572   3.360 -0.0787  0.3160 -0.7581
 6711SOL     OW26609   2.056   3.759   1.680  0.3210  0.4366  0.0200
 6711SOL    HW226610   1.986   3.824   1.678 -0.9659 -0.9005 -0.6063
 6711SOL    HW326611   2.026   3.693   1.742  0.4220 -0.7532 -1.1314
 6711SOL    MW426612   2.043   3.759   1.688  0.2660  0.1218 -0.0957
 6712SOL     OW26613   3.237   0.625   5.274 -0.2268 -0.3002 -0.6700
 6712SOL    HW226614   3.263   0.564   5.343  1.8800 -1.1083 -2.0914
 6712SOL    HW326615   3.143   0.640   5.289  0.2555  0.1961  2.8143
 6712SOL    MW426616   3.228   0.619   5.285 -0.1501 -0.3395  0.0146
 6713SOL     OW26617   2.356   5.527   3.230  0.4020 -0.9029  0.5263
 6713SOL    HW226618   2.428   5.465   3.245  0.2899 -0.7755  1.6959
 6713SOL    HW326619   2.279   5.471   3.216  0.5388 -1.0382  0.3144
 6713SOL    MW426620   2.355   5.511   3.230  0.4407  0.3370 -0.7684
 6714SOL     OW26621   0.556   3.904   5.636  0.4061  0.2126  0.1414
 6714SOL    HW226622   0.640   3.884   5.596  0.0140  2.8793 -2.4084
 6714SOL    HW326623   0.504   3.824   5.625  1.6834 -0.4992 -0.9751
 6714SOL    MW426624   0.560   3.891   5.629  0.3217 -0.1379  0.0513
 6715SOL     OW26625   4.845   1.593   1.479 -0.5306  0.5331 -0.2991
 6715SOL    HW226626   4.775   1.647   1.442 -0.5367  0.0559 -1.0021
 6715SOL    HW326627   4.858   1.522   1.416  0.7261  0.7176 -0.2890
 6715SOL    MW426628   4.838   1.591   1.466  0.6306  0.2677  0.0866
 6716SOL     OW26629   0.333   6.026   4.166 -0.4151  0.1187  0.7760
 6716SOL    HW226630   0.404   6.090   4.161 -0.2215 -0.1706 -0.3545
 6716SOL    HW326631   0.260   6.068   4.121  0.5455 -1.4830 -2.6128
 6716SOL    MW426632   0.333   6.040   4.160  0.1178 -0.0825 -0.0173
 6717SOL     OW26633   0.180   1.501   0.973 -0.4328  0.6492 -0.5300
 6717SOL    HW226634   0.254   1.562   0.978 -0.7585  1.1187 -1.3038
 6717SOL    HW326635   0.183   1.453   1.056  1.3077 -0.0044 -0.9310
 6717SOL    MW426636   0.190   1.503   0.985  0.5964  0.1669  0.5444
 6718SOL     OW26637   3.239   2.167   6.317 -0.0877  0.0699 -0.4320
 6718SOL    HW226638   3.287   2.096   6.360 -0.3527  1.8380  3.2142
 6718SOL    HW326639   3.304   2.212   6.264  1.4399  0.1805  1.4346
 6718SOL    MW426640   3.254   2.164   6.316  0.3390  0.0062 -0.3126
 6719SOL     OW26641   3.849   6.148   2.159 -0.2790 -0.1777  0.7595
 6719SOL    HW226642   3.895   6.190   2.231 -0.9837  2.6438 -0.3232
 6719SOL    HW326643   3.891   6.062   2.151  0.6968 -0.0701  3.6196
 6719SOL    MW426644   3.861   6.142   2.167  0.3436  0.0330  0.4123
 6720SOL     OW26645   2.953   5.683   2.041 -0.3654 -0.2852  0.2210
 6720SOL    HW226646   2.997   5.663   1.958  0.8094 -1.8299  1.1663
 6720SOL    HW326647   2.860   5.683   2.019 -0.0443  0.9199 -1.3971
 6720SOL    MW426648   2.947   5.680   2.027 -0.0346 -0.1939 -0.1761
 6721SOL     OW26649   3.933   1.026   1.263 -0.1284 -0.0282  0.4978
 6721SOL    HW226650   3.955   1.112   1.227 -0.2631 -0.1995  0.0049
 6721SOL    HW326651   3.988   1.018   1.341 -0.3320  0.6270  0.7109
 6721SOL    MW426652   3.943   1.036   1.269  0.5745  0.3560 -0.3825
 6722SOL     OW26653   0.982   0.207   1.081  0.1923  0.2458 -0.1169
 6722SOL    HW226654   0.949   0.257   1.156  0.2608 -1.4869  1.1175
 6722SOL    HW326655   1.003   0.121   1.117 -0.4737 -0.8842 -2.2772
 6722SOL    MW426656   0.980   0.202   1.096  0.2611 -0.1288  0.4618
 6723SOL     OW26657   5.154   3.998   0.073 -0.8590  0.7617  0.1364
 6723SOL    HW226658   5.194   4.000  -0.015  1.0999 -0.1964  0.9328
 6723SOL    HW326659   5.121   4.086   0.086 -0.2374  1.2165 -1.1589
 6723SOL    MW426660   5.155   4.010   0.063 -0.6987 -0.1034  0.3827
 6724SOL     OW26661   3.632   4.894   3.183  0.1080  0.3238 -0.2340
 6724SOL    HW226662   3.634   4.813   3.234  2.2373  0.3787 -0.1162
 6724SOL    HW326663   3.654   4.867   3.094  0.5615  0.7248 -0.2479
 6724SOL    MW426664   3.635   4.880   3.178 -0.1445  0.0943  0.3617
 6725SOL     OW26665   1.217   4.692   0.141  0.0706  0.0218 -0.3280
 6725SOL    HW226666   1.238   4.650   0.225 -1.0981 -1.2354 -0.6235
 6725SOL    HW326667   1.151   4.758   0.163  1.6495  1.5424  0.0843
 6725SOL    MW426668   1.211   4.695   0.155 -0.2599 -0.1600  0.1615
 6726SOL     OW26669   1.843   2.863   3.452  0.0522  0.3162 -0.3910
 6726SOL    HW226670   1.898   2.914   3.511 -0.6670  0.5823  0.0549
 6726SOL    HW326671   1.889   2.780   3.442 -0.0678  0.0697  0.9513
 6726SOL    MW426672   1.857   2.859   3.458  0.1401  0.0101 -0.1704
 6727SOL     OW26673   3.066   6.269   6.304 -0.5856  0.3430  0.2753
 6727SOL    HW226674   3.016   6.348   6.283 -1.0391  0.1588  0.6280
 6727SOL    HW326675   3.004   6.214   6.354 -0.0268  0.1214  0.7392
 6727SOL    MW426676   3.051   6.272   6.308 -0.0530  0.7267 -0.2475
 6728SOL     OW26677   3.246   4.052   4.919 -0.0273  0.4238  0.2820
 6728SOL    HW226678   3.190   3.986   4.959 -0.3404  0.1712 -0.5455
 6728SOL    HW326679   3.324   4.055   4.975  0.4279 -1.3496 -0.1952
 6728SOL    MW426680   3.249   4.044   4.932  0.0570  0.1452  0.1620
 6729SOL     OW26681   0.431   4.476   0.748  0.3182 -0.3375  0.1679
 6729SOL    HW226682   0.483   4.525   0.685 -1.1390 -0.0980 -0.9044
 6729SOL    HW326683   0.491   4.409   0.782  1.2076 -0.3152 -1.2823
 6729SOL    MW426684   0.446   4.474   0.744 -0.3534 -0.4164  0.0717
 6730SOL     OW26685   5.871   3.092   3.696  0.0401 -0.2126 -0.1863
 6730SOL    HW226686   5.927   3.053   3.763  2.0256  0.8134 -1.1358
 6730SOL    HW326687   5.856   3.181   3.726 -0.1258 -0.1365 -0.4872
 6730SOL    MW426688   5.877   3.099   3.708 -0.4270 -0.0631 -0.0524
 6731SOL     OW26689   4.550   0.211   0.339  0.6933 -0.6875 -0.0439
 6731SOL    HW226690   4.470   0.258   0.364  0.1083 -1.3529 -0.6004
 6731SOL    HW326691   4.603   0.209   0.419  0.5390  0.5018  0.1084
 6731SOL    MW426692   4.546   0.217   0.353  0.1164 -0.5391 -0.3043
 6732SOL     OW26693   5.785   1.260   1.812  0.1836 -0.2525  0.2545
 6732SOL    HW226694   5.708   1.261   1.756  0.1556  0.5106  0.3004
 6732SOL    HW326695   5.781   1.175   1.856 -0.1740 -0.5645 -0.3634
 6732SOL    MW426696   5.774   1.249   1.810 -0.6733  0.1387 -1.1146
 6733SOL     OW26697   0.190   1.392   4.733 -0.6737 -0.3267  0.1526
 6733SOL    HW226698   0.238   1.339   4.669 -0.4849  1.6761 -1.4546
 6733SOL    HW326699   0.099   1.388   4.704 -0.5911  0.5705 -0.2398
 6733SOL    MW426700   0.184   1.384   4.721 -0.1624 -0.7391 -0.0988
 6734SOL     OW26701   6.453   1.868   6.260 -0.0791  0.3031  0.2274
 6734SOL    HW226702   6.405   1.824   6.331  1.4980  1.1735  1.9212
 6734SOL    HW326703   6.489   1.947   6.301  2.0595  0.1290 -1.1724
 6734SOL    MW426704   6.451   1.873   6.275 -0.7414 -0.0976 -0.5047
 6735SOL     OW26705   1.289   3.007   5.062 -0.2729 -0.5606 -0.1050
 6735SOL    HW226706   1.311   2.953   4.986  2.0009 -0.5831  0.4984
 6735SOL    HW326707   1.325   2.959   5.136 -1.9731 -0.2691  0.9569
 6735SOL    MW426708   1.296   2.993   5.062  0.1519  0.2221 -0.4164
 6736SOL     OW26709   3.959   5.837   0.552 -0.1471 -0.5815 -0.5262
 6736SOL    HW226710   3.886   5.892   0.523 -0.9555 -1.4489 -0.1742
 6736SOL    HW326711   3.934   5.748   0.525 -1.1967 -1.5507  3.1227
 6736SOL    MW426712   3.946   5.832   0.545 -0.1206 -0.2181  0.3965
 6737SOL     OW26713   2.392   1.291   1.227  0.5838  0.0119 -0.4056
 6737SOL    HW226714   2.303   1.258   1.225  0.3277  0.6115  0.6439
 6737SOL    HW326715   2.420   1.291   1.136 -0.8620  0.8340 -0.8686
 6737SOL    MW426716   2.384   1.287   1.215  0.6824  0.2909 -0.6844
 6738SOL     OW26717   1.597   3.578   0.638 -0.3759 -0.3865 -0.3146
 6738SOL    HW226718   1.507   3.610   0.631  0.3484  1.5093 -1.8030
 6738SOL    HW326719   1.596   3.523   0.717 -2.5733  0.4307  0.3300
 6738SOL    MW426720   1.585   3.575   0.648  0.4847  0.4186 -0.1262
 6739SOL     OW26721   6.018   5.481   0.936 -0.1068 -0.2266  0.3933
 6739SOL    HW226722   6.021   5.385   0.933  0.5780 -0.1824 -1.7920
 6739SOL    HW326723   5.939   5.504   0.888 -0.1864  0.3309  0.7760
 6739SOL    MW426724   6.008   5.471   0.930 -0.3888  0.3636 -0.4350
 6740SOL     OW26725   2.529   4.427   5.648 -0.2372  0.3923  0.1074
 6740SOL    HW226726   2.578   4.509   5.651  0.9851 -0.3287  0.4221
 6740SOL    HW326727   2.554   4.387   5.565 -0.4876  0.1352  0.1564
 6740SOL    MW426728   2.539   4.433   5.638  0.0347 -0.4298  0.0483
 6741SOL     OW26729   4.542   1.973   5.228 -0.2969  0.0794  0.0860
 6741SOL    HW226730   4.615   1.998   5.171 -0.5607 -0.2121 -0.3838
 6741SOL    HW326731   4.584   1.949   5.311  0.1211  0.1402 -0.1015
 6741SOL    MW426732   4.557   1.973   5.232 -0.6707  0.2675  0.2690
 6742SOL     OW26733   2.953   4.560   0.226  0.0216  0.2394  0.2935
 6742SOL    HW226734   2.901   4.480   0.236 -1.1658  0.9048 -0.2742
 6742SOL    HW326735   3.039   4.530   0.198 -0.4918 -0.8280 -0.1823
 6742SOL    MW426736   2.957   4.546   0.224 -0.2342  0.0986 -0.1419
 6743SOL     OW26737   1.312   1.711   4.811 -0.4825  0.0533  0.3680
 6743SOL    HW226738   1.379   1.714   4.878  0.8437 -0.7860 -0.8699
 6743SOL    HW326739   1.311   1.621   4.781 -0.0188  0.6789 -1.6999
 6743SOL    MW426740   1.321   1.700   4.816 -0.1633 -0.3166 -0.3728
 6744SOL     OW26741   3.572   6.240   0.967 -0.3970 -0.2109 -0.2132
 6744SOL    HW226742   3.666   6.232   0.987  0.2959  1.2972 -2.4058
 6744SOL    HW326743   3.558   6.334   0.957 -1.9277 -0.4788 -0.8680
 6744SOL    MW426744   3.583   6.251   0.968 -0.0586 -0.6958  0.2720
 6745SOL     OW26745   0.553   3.573   0.546  0.6258  0.2039 -0.0024
 6745SOL    HW226746   0.615   3.536   0.484  1.9089 -0.3046  1.5358
 6745SOL    HW326747   0.598   3.649   0.582  1.6917 -1.7835  3.2574
 6745SOL    MW426748   0.567   3.578   0.542 -0.3963 -0.1688 -0.5563
 6746SOL     OW26749   3.992   5.703   2.512 -0.0199  0.1611  0.0364
 6746SOL    HW226750   4.005   5.676   2.421  1.8689 -1.6644  0.7678
 6746SOL    HW326751   3.900   5.684   2.530 -0.4663  0.7411 -1.5328
 6746SOL    MW426752   3.982   5.697   2.502  0.3380  0.0154 -0.4158
 6747SOL     OW26753   3.907   0.292   0.691 -0.1593 -0.4253  0.5532
 6747SOL    HW226754   3.834   0.283   0.753 -0.0319 -1.8424  0.5342
 6747SOL    HW326755   3.921   0.386   0.684 -1.5635 -0.1471  1.0610
 6747SOL    MW426756   3.899   0.303   0.698  0.6027 -0.1298  0.1211
 6748SOL     OW26757   0.496   5.428   5.380 -0.3869  0.3317 -0.1005
 6748SOL    HW226758   0.436   5.421   5.454  0.4725  0.7682  0.6533
 6748SOL    HW326759   0.459   5.498   5.326 -1.4257 -0.4860 -0.5005
 6748SOL    MW426760   0.483   5.436   5.383 -0.4314 -0.2699 -0.3668
 6749SOL     OW26761   4.510   3.357   5.818 -0.4870  0.0194 -0.5576
 6749SOL    HW226762   4.576   3.364   5.749  2.3513 -1.9036  1.6943
 6749SOL    HW326763   4.546   3.407   5.891 -1.8671 -0.5318  0.5447
 6749SOL    MW426764   4.524   3.364   5.819 -0.4417 -0.2745 -0.1283
 6750SOL     OW26765   3.658   1.859   1.333 -0.1737  0.0732 -0.2223
 6750SOL    HW226766   3.719   1.841   1.404 -1.0826 -1.6495  0.1739
 6750SOL    HW326767   3.713   1.872   1.256  0.7911  1.3823  0.6729
 6750SOL    MW426768   3.673   1.858   1.332  0.1966  0.1740  0.1673
 6751SOL     OW26769   3.165   1.513   4.304 -0.0783  0.3452  0.1126
 6751SOL    HW226770   3.098   1.577   4.324 -0.1267  0.2326  0.3053
 6751SOL    HW326771   3.119   1.443   4.259 -0.1118  0.2045  0.3679
 6751SOL    MW426772   3.150   1.512   4.300 -0.0512  0.2513 -0.5339
 6752SOL     OW26773   2.209   0.396   1.915 -0.4346 -0.1469 -0.1695
 6752SOL    HW226774   2.204   0.357   1.828 -2.1256  1.2185 -0.7466
 6752SOL    HW326775   2.118   0.402   1.944  0.0639 -0.1164  1.4940
 6752SOL    MW426776   2.197   0.392   1.908 -0.0448  0.2232  0.5547
 6753SOL     OW26777   4.132   4.766   0.018 -0.3553  0.2390 -0.2680
 6753SOL    HW226778   4.077   4.827  -0.031 -0.7362 -0.8262 -1.2174
 6753SOL    HW326779   4.095   4.764   0.106 -2.1640 -0.7827 -0.9952
 6753SOL    MW426780   4.120   4.774   0.023 -0.0826 -0.4573 -0.1407
 6754SOL     OW26781   1.383   4.786   4.903  0.2466 -0.1462 -0.0160
 6754SOL    HW226782   1.341   4.802   4.818 -0.9762  1.8036  0.8911
 6754SOL    HW326783   1.332   4.715   4.942  1.4919 -1.8264 -1.3014
 6754SOL    MW426784   1.370   4.779   4.897  0.1860 -0.0729 -0.1689
 6755SOL     OW26785   5.434   1.202   5.741 -0.3618 -0.2430  0.1848
 6755SOL    HW226786   5.474   1.242   5.819  0.4345  0.6402 -0.6485
 6755SOL    HW326787   5.383   1.272   5.701 -0.4867 -0.5892 -0.2734
 6755SOL    MW426788   5.433   1.216   5.746 -0.7446  0.4780  0.3402
 6756SOL     OW26789   4.119   2.124   3.583 -0.0492 -0.0420 -0.2535
 6756SOL    HW226790   4.083   2.151   3.499 -2.0104 -1.3393  0.1030
 6756SOL    HW326791   4.075   2.179   3.647 -0.7119 -0.9800  0.1177
 6756SOL    MW426792   4.109   2.135   3.580 -0.2726  0.2079  0.1453
 6757SOL     OW26793   2.505   2.223   6.023 -1.0688  0.0177  0.5366
 6757SOL    HW226794   2.576   2.287   6.026 -0.1266 -0.9564 -0.2425
 6757SOL    HW326795   2.547   2.139   6.037 -2.0494 -0.5932 -0.0405
 6757SOL    MW426796   2.520   2.221   6.025 -0.3376  0.3002  0.6198
 6758SOL     OW26797   3.042   5.661   3.608  0.3897  0.5548 -0.0740
 6758SOL    HW226798   3.127   5.703   3.619  0.2952  0.8634 -0.5147
 6758SOL    HW326799   2.980   5.733   3.599  0.0372  0.3355  0.5301
 6758SOL    MW426800   3.045   5.676   3.608 -0.0800  0.5706 -0.1709
 6759SOL     OW26801   4.349   2.548   5.172  0.1566 -0.1194 -0.0395
 6759SOL    HW226802   4.298   2.528   5.250  0.3481  0.1679  0.1610
 6759SOL    HW326803   4.293   2.605   5.119 -0.0232 -0.4178 -0.1744
 6759SOL    MW426804   4.335   2.553   5.175  0.2008 -0.0917  0.2531
 6760SOL     OW26805   2.189   6.276   4.304 -0.1678  0.5758  0.0165
 6760SOL    HW226806   2.096   6.258   4.291  0.1813 -1.3806 -0.0361
 6760SOL    HW326807   2.232   6.234   4.230  0.9929 -1.5668  1.8052
 6760SOL    MW426808   2.182   6.268   4.293  0.1099 -0.0544  0.0206
 6761SOL     OW26809   2.892   4.031   0.388  0.1380 -0.4266 -0.1693
 6761SOL    HW226810   2.877   4.102   0.450  1.8211  1.1015 -1.3956
 6761SOL    HW326811   2.815   4.033   0.331  0.0370  0.2610 -0.0220
 6761SOL    MW426812   2.880   4.041   0.389  0.1217 -0.2472 -0.0537
 6762SOL     OW26813   5.765   6.381   5.344  0.1839 -0.0460  0.2207
 6762SOL    HW226814   5.790   6.402   5.254 -0.8681  1.1876  0.1832
 6762SOL    HW326815   5.669   6.383   5.344  0.0174 -3.2421  0.6642
 6762SOL    MW426816   5.756   6.384   5.332  0.1843 -0.6624  0.4768
 6763SOL     OW26817   1.857   1.885   0.858  0.7561  0.0518  0.1986
 6763SOL    HW226818   1.927   1.882   0.924  0.2684 -0.8975  0.6869
 6763SOL    HW326819   1.777   1.872   0.908  0.3708 -0.5709 -0.5606
 6763SOL    MW426820   1.856   1.883   0.873 -0.0145  0.1367 -0.0464
 6764SOL     OW26821   1.307   2.919   2.283 -0.0745 -0.0406 -0.0700
 6764SOL    HW226822   1.222   2.950   2.314  0.4817  1.1651  0.2968
 6764SOL    HW326823   1.287   2.869   2.204 -1.0938  0.5137 -0.1784
 6764SOL    MW426824   1.293   2.916   2.277 -0.3901 -0.1541  0.3663
 6765SOL     OW26825   4.919   3.843   1.283  0.1835  0.4365  0.1871
 6765SOL    HW226826   4.922   3.900   1.359 -1.4604  1.9146 -0.7734
 6765SOL    HW326827   4.967   3.891   1.215 -0.2499  0.1894 -0.3089
 6765SOL    MW426828   4.925   3.857   1.284  0.3237  0.1147 -0.2135
 6766SOL     OW26829   1.856   2.155   4.983  0.0142  0.5481 -0.1914
 6766SOL    HW226830   1.937   2.110   5.006 -1.4634 -2.1132  0.2245
 6766SOL    HW326831   1.870   2.185   4.893  0.4342 -2.7352 -1.3629
 6766SOL    MW426832   1.868   2.153   4.974  0.6183 -0.2577  0.7160
 6767SOL     OW26833   1.283   4.416   2.698 -0.0974 -0.2486 -0.2734
 6767SOL    HW226834   1.372   4.435   2.727 -0.2637 -0.5264  0.4647
 6767SOL    HW326835   1.282   4.321   2.683 -0.2766 -0.2575 -0.2184
 6767SOL    MW426836   1.294   4.406   2.700 -0.3522 -0.1370 -0.2452
 6768SOL     OW26837   4.435   2.587   4.603 -0.2445  0.5690 -0.6916
 6768SOL    HW226838   4.382   2.519   4.644 -0.6565  1.2468 -0.0873
 6768SOL    HW326839   4.525   2.561   4.622 -0.3880  0.0766 -0.6626
 6768SOL    MW426840   4.440   2.574   4.611 -0.1892  0.1308  0.1135
 6769SOL     OW26841   6.231   1.450   1.604  0.4250  0.4369 -0.2321
 6769SOL    HW226842   6.165   1.395   1.563 -0.1047  0.8704  0.0334
 6769SOL    HW326843   6.294   1.388   1.641 -1.0886 -0.0717  1.6315
 6769SOL    MW426844   6.231   1.435   1.604 -0.7086  0.6936 -0.0253
 6770SOL     OW26845   6.160   5.123   4.695  0.1842 -0.1116  0.6289
 6770SOL    HW226846   6.162   5.028   4.698 -1.2139 -0.2149 -0.9225
 6770SOL    HW326847   6.205   5.146   4.614  1.7521  0.6594  1.6548
 6770SOL    MW426848   6.166   5.114   4.685  0.0680  0.1699 -0.5954
 6771SOL     OW26849   4.849   2.848   0.524  0.4662 -0.1349  0.0119
 6771SOL    HW226850   4.863   2.876   0.614  0.9056 -1.5340  0.4156
 6771SOL    HW326851   4.937   2.828   0.491  0.6790  3.0178 -1.7247
 6771SOL    MW426852   4.863   2.849   0.532  0.1940 -0.0811  0.3641
 6772SOL     OW26853   5.656   6.117   0.097  0.5945 -0.4306 -0.1515
 6772SOL    HW226854   5.675   6.125   0.190  0.9487  2.6447 -0.3647
 6772SOL    HW326855   5.739   6.089   0.058  1.2517  0.9302  0.2086
 6772SOL    MW426856   5.669   6.114   0.104  0.5000 -0.5072  0.3661
 6773SOL     OW26857   0.637   3.860   1.639 -0.3064 -0.2851 -0.0428
 6773SOL    HW226858   0.672   3.858   1.550 -1.1130 -0.3871 -0.3676
 6773SOL    HW326859   0.597   3.774   1.651  1.0516 -0.8075  0.9483
 6773SOL    MW426860   0.636   3.848   1.629 -0.1680 -0.3051  0.1763
 6774SOL     OW26861   0.485   0.876   1.477  0.5839  0.1254 -0.4346
 6774SOL    HW226862   0.443   0.795   1.505 -0.5616  0.8435 -0.0051
 6774SOL    HW326863   0.413   0.938   1.465  1.2916  0.6547 -2.2912
 6774SOL    MW426864   0.470   0.874   1.479  1.0588 -0.3939 -0.2063
 6775SOL     OW26865   5.177   0.478   1.864 -0.5203 -0.0230 -0.0259
 6775SOL    HW226866   5.116   0.534   1.815 -0.0966 -0.0952 -0.6473
 6775SOL    HW326867   5.147   0.484   1.954 -0.3284  1.4048 -0.0433
 6775SOL    MW426868   5.165   0.486   1.869 -0.6286  0.3821  0.0334
 6776SOL     OW26869   4.517   6.302   1.715  0.0381 -0.2535  0.0896
 6776SOL    HW226870   4.452   6.241   1.681 -0.2300 -0.0721  0.2789
 6776SOL    HW326871   4.467   6.376   1.749  0.3727  0.1738 -0.3288
 6776SOL    MW426872   4.502   6.303   1.715  0.0172  0.1852 -0.2728
 6777SOL     OW26873   2.492   1.760   4.123 -0.2411  0.6015 -0.8178
 6777SOL    HW226874   2.443   1.684   4.156 -0.9983  1.2663 -0.3861
 6777SOL    HW326875   2.561   1.773   4.188 -0.6101  0.7718 -0.4505
 6777SOL    MW426876   2.495   1.752   4.136  1.0298  0.0037  0.0846
 6778SOL     OW26877   1.395   0.154   5.622 -0.2191 -0.6538  0.3559
 6778SOL    HW226878   1.306   0.188   5.624 -0.0117 -0.1199  0.7408
 6778SOL    HW326879   1.451   0.231   5.634  0.3016 -0.9606 -0.0394
 6778SOL    MW426880   1.391   0.168   5.624  0.4409 -0.4040  0.0957
 6779SOL     OW26881   5.750   5.822   1.172 -0.4350  0.0830 -0.3515
 6779SOL    HW226882   5.732   5.730   1.187 -1.5741  0.5727  1.6441
 6779SOL    HW326883   5.839   5.824   1.137 -0.7111 -1.8015 -1.2730
 6779SOL    MW426884   5.760   5.810   1.169 -0.3205  0.2887 -0.1279
 6780SOL     OW26885   4.649   5.965   0.731 -0.1062  0.1426 -0.0277
 6780SOL    HW226886   4.666   5.889   0.787 -1.7120  0.1731  0.5505
 6780SOL    HW326887   4.684   5.940   0.645  1.7566 -0.1822  0.7779
 6780SOL    MW426888   4.656   5.952   0.727  0.3467 -0.2784 -0.4718
 6781SOL     OW26889   0.094   4.014   5.160 -0.2894  0.0321  0.7475
 6781SOL    HW226890   0.064   3.932   5.120  0.4225  0.0031  0.2401
 6781SOL    HW326891   0.162   3.988   5.222 -1.1005  0.1172  1.6987
 6781SOL    MW426892   0.099   4.000   5.163 -0.0170  0.0944  0.5154
 6782SOL     OW26893   2.384   4.541   5.875  0.4418 -0.3892 -0.0353
 6782SOL    HW226894   2.299   4.496   5.878  0.4155 -0.4585 -1.2742
 6782SOL    HW326895   2.422   4.514   5.791  1.5023 -0.0086  0.3060
 6782SOL    MW426896   2.378   4.531   5.864 -0.6609  0.4740  0.3081
 6783SOL     OW26897   3.039   3.960   4.198  0.6658 -0.1473 -0.5094
 6783SOL    HW226898   2.955   3.920   4.218 -0.6830  2.6864 -0.0166
 6783SOL    HW326899   3.030   3.990   4.107  1.0637  0.2961 -0.4079
 6783SOL    MW426900   3.027   3.959   4.189 -0.3126 -0.1695  0.1419
 6784SOL     OW26901   5.301   3.008   4.458 -0.1390  0.3955  0.2509
 6784SOL    HW226902   5.325   2.948   4.528 -1.8559  0.3745  0.8782
 6784SOL    HW326903   5.207   3.020   4.468  0.0722  2.9158 -0.0781
 6784SOL    MW426904   5.292   3.002   4.468 -0.1454  0.1993  0.0410
 6785SOL     OW26905   2.258   0.153   4.605 -0.3488  0.8025 -0.2110
 6785SOL    HW226906   2.182   0.134   4.661 -2.0048  0.3869 -2.4522
 6785SOL    HW326907   2.294   0.067   4.584 -0.8777  0.8159 -1.2280
 6785SOL    MW426908   2.252   0.139   4.609  0.0267 -0.2539 -0.5291
 6786SOL     OW26909   1.037   4.967   2.958  0.1607 -0.0840 -0.0125
 6786SOL    HW226910   1.124   4.968   2.920  0.2473  0.6917  0.1898
 6786SOL    HW326911   0.995   4.890   2.920  0.8526 -0.3332 -0.2863
 6786SOL    MW426912   1.043   4.957   2.948  0.1365 -0.2517  0.4247
 6787SOL     OW26913   1.124   3.350   0.920 -0.2938 -0.4827  0.1813
 6787SOL    HW226914   1.111   3.280   0.857  1.7686 -0.1781 -0.6554
 6787SOL    HW326915   1.129   3.306   1.005 -1.9711 -1.0028  0.0500
 6787SOL    MW426916   1.123   3.335   0.923 -0.5145 -0.7405 -0.2828
 6788SOL     OW26917   5.441   4.636   6.435  0.2134  0.0154 -0.3017
 6788SOL    HW226918   5.471   4.550   6.465 -0.2266  0.2153  0.7809
 6788SOL    HW326919   5.466   4.639   6.343  0.9988 -0.9272 -0.1462
 6788SOL    MW426920   5.448   4.625   6.427  0.1872  0.1157  0.3696
 6789SOL     OW26921   1.894   0.510   1.291 -0.4129 -0.2257 -0.9271
 6789SOL    HW226922   1.956   0.441   1.269 -0.2299 -0.0353 -1.0111
 6789SOL    HW326923   1.909   0.578   1.225 -1.4259 -0.6151 -1.5765
 6789SOL    MW426924   1.904   0.510   1.280  0.5669  0.5240  0.2021
 6790SOL     OW26925   4.602   3.037   3.247  0.6966  0.2681 -0.1728
 6790SOL    HW226926   4.674   2.980   3.275 -0.9251 -1.8395 -0.0022
 6790SOL    HW326927   4.532   3.019   3.309  0.1039  2.5493 -0.1087
 6790SOL    MW426928   4.603   3.027   3.259 -0.2468 -0.1187 -0.0188
 6791SOL     OW26929   0.189   2.256   2.683 -0.0232  0.2718 -0.3355
 6791SOL    HW226930   0.095   2.251   2.698  0.0985 -1.0989  0.1129
 6791SOL    HW326931   0.207   2.185   2.621  0.4912  1.5560 -1.7039
 6791SOL    MW426932   0.179   2.246   2.677 -0.8243  0.3028 -0.5265
 6792SOL     OW26933   5.252   2.496   5.533 -0.4030 -0.2515 -0.2575
 6792SOL    HW226934   5.257   2.475   5.440 -1.0689  0.5568 -0.4850
 6792SOL    HW326935   5.231   2.589   5.536 -1.7925 -0.5574  0.6878
 6792SOL    MW426936   5.250   2.505   5.521 -0.0832  0.3222 -0.0691
 6793SOL     OW26937   4.066   0.938   5.535  0.1095  0.0355 -0.6155
 6793SOL    HW226938   4.127   0.987   5.479 -0.8266 -0.5710 -2.2556
 6793SOL    HW326939   3.993   0.998   5.550  0.1121  0.0149 -0.5235
 6793SOL    MW426940   4.064   0.952   5.529  0.2733 -0.3278  0.0233
 6794SOL     OW26941   4.812   2.244   5.248 -0.9040 -0.3222  0.0773
 6794SOL    HW226942   4.775   2.205   5.169 -0.5852 -0.1954 -0.1370
 6794SOL    HW326943   4.791   2.182   5.317 -2.3573  0.2024  0.1419
 6794SOL    MW426944   4.804   2.231   5.247 -0.7119 -0.3320 -0.4271
 6795SOL     OW26945   6.406   4.378   4.019 -0.3124  0.2632  0.3523
 6795SOL    HW226946   6.488   4.376   3.969 -0.2175  0.2097  0.5099
 6795SOL    HW326947   6.358   4.300   3.990  0.6126 -0.9111  1.8077
 6795SOL    MW426948   6.411   4.367   4.008 -0.3328 -0.2965  0.1483
 6796SOL     OW26949   0.271   5.980   5.032  0.0112 -0.4096 -0.0112
 6796SOL    HW226950   0.188   6.026   5.048  0.7413  0.8771  0.2355
 6796SOL    HW326951   0.306   5.961   5.119  0.9375  0.9019 -0.0646
 6796SOL    MW426952   0.265   5.984   5.045  0.3964 -0.1136  0.2237
 6797SOL     OW26953   1.147   4.513   2.129 -0.1071  0.8195  0.0344
 6797SOL    HW226954   1.059   4.476   2.128 -0.4226  1.5523 -0.8776
 6797SOL    HW326955   1.177   4.500   2.219  0.2162 -2.5187 -0.4235
 6797SOL    MW426956   1.139   4.507   2.140  0.5048  0.2252 -0.1851
 6798SOL     OW26957   5.020   3.858   2.212 -0.4334  0.2283 -0.8336
 6798SOL    HW226958   4.989   3.770   2.230  0.8269 -0.1811 -0.6113
 6798SOL    HW326959   4.940   3.910   2.204 -1.1993 -0.9929 -1.3424
 6798SOL    MW426960   5.005   3.853   2.213 -0.2942 -0.4806 -0.0100
 6799SOL     OW26961   4.235   2.708   0.117 -1.2844  0.0621 -0.2616
 6799SOL    HW226962   4.158   2.728   0.062 -1.6188 -0.8298 -0.1369
 6799SOL    HW326963   4.232   2.613   0.128 -1.7491  0.2939  2.0566
 6799SOL    MW426964   4.224   2.698   0.111 -0.6597 -0.0425 -0.2141
 6800SOL     OW26965   4.474   6.381   5.367 -0.7087 -0.1109  0.4691
 6800SOL    HW226966   4.535   6.410   5.436 -0.5143  1.2849 -0.2497
 6800SOL    HW326967   4.529   6.374   5.288 -1.1432 -0.6213  0.2027
 6800SOL    MW426968   4.490   6.384   5.366  0.0590 -0.1648 -0.2449
 6801SOL     OW26969   3.837   0.145   4.780 -0.2778 -0.1591  0.0348
 6801SOL    HW226970   3.901   0.083   4.746  0.6565  0.3940  0.7533
 6801SOL    HW326971   3.857   0.228   4.737 -1.1554 -0.1987 -0.4836
 6801SOL    MW426972   3.848   0.148   4.770 -0.0616  0.1347  0.3817
 6802SOL     OW26973   3.866   1.721   6.174  0.3484 -0.2023 -0.2175
 6802SOL    HW226974   3.791   1.758   6.222 -1.1667  0.3769 -2.8144
 6802SOL    HW326975   3.942   1.767   6.209 -0.9752  2.0487 -0.1173
 6802SOL    MW426976   3.866   1.732   6.185 -0.3873 -0.2418  0.9313
 6803SOL     OW26977   2.615   2.495   5.619 -0.4090  0.3930 -0.4057
 6803SOL    HW226978   2.688   2.527   5.566 -0.4801  0.6007 -0.3813
 6803SOL    HW326979   2.577   2.574   5.657 -1.0688  0.3578 -0.9618
 6803SOL    MW426980   2.619   2.510   5.617  0.3262  0.3216 -0.5210
 6804SOL     OW26981   4.247   2.249   4.537  0.3956  0.0136  0.0459
 6804SOL    HW226982   4.195   2.179   4.577  0.1973 -0.3962 -0.9041
 6804SOL    HW326983   4.244   2.320   4.601 -2.6698  0.6119 -0.6221
 6804SOL    MW426984   4.240   2.249   4.551 -0.0268  0.1331 -0.4002
 6805SOL     OW26985   0.046   3.508   5.975  0.1914 -0.0492  0.4508
 6805SOL    HW226986   0.061   3.548   5.890 -1.0001 -2.0841 -0.7818
 6805SOL    HW326987   0.128   3.463   5.995  0.4394  0.3502  0.3526
 6805SOL    MW426988   0.058   3.508   5.967 -0.0882  0.4101  0.0115
 6806SOL     OW26989   2.281   0.669   4.105  0.3840 -0.2655 -0.1803
 6806SOL    HW226990   2.211   0.730   4.130 -0.3676  0.4923 -3.6329
 6806SOL    HW326991   2.362   0.720   4.115  0.0488  0.2555 -0.0981
 6806SOL    MW426992   2.283   0.684   4.110  0.5787 -0.0724 -0.2785
 6807SOL     OW26993   5.708   0.176   2.476 -0.1685  0.4072  0.0873
 6807SOL    HW226994   5.713   0.091   2.520 -0.9616 -0.4689 -1.4014
 6807SOL    HW326995   5.793   0.186   2.434 -0.2278  0.1280 -0.1032
 6807SOL    MW426996   5.720   0.166   2.476  0.0105  0.0110 -0.5785
 6808SOL     OW26997   3.270   3.779   4.212 -0.1705  0.1559  0.0043
 6808SOL    HW226998   3.243   3.703   4.264 -0.8205 -0.4842 -1.2228
 6808SOL    HW326999   3.193   3.834   4.208 -0.0865  0.2616 -0.1732
 6808SOL    MW427000   3.257   3.776   4.218  0.0377  0.2942  0.1325
 6809SOL     OW27001   1.729   4.220   0.534 -0.2341 -0.1652  0.0940
 6809SOL    HW227002   1.719   4.261   0.448 -2.3713 -0.9053 -0.0480
 6809SOL    HW327003   1.664   4.263   0.589 -0.3158 -1.1470  0.7924
 6809SOL    MW427004   1.719   4.231   0.530  0.0701 -0.5022  0.3232
 6810SOL     OW27005   4.791   0.908   1.431 -0.0561  0.1688  0.6036
 6810SOL    HW227006   4.792   0.990   1.480 -0.2846 -0.0313  0.9479
 6810SOL    HW327007   4.761   0.842   1.494 -0.1279 -0.1329  0.2618
 6810SOL    MW427008   4.787   0.910   1.446 -0.5618 -0.6722 -0.6899
 6811SOL     OW27009   1.976   4.566   1.136  0.6658  0.0100  0.1273
 6811SOL    HW227010   2.040   4.497   1.118  1.4367  0.2969  1.5888
 6811SOL    HW327011   1.891   4.522   1.133  1.1763 -1.1925  1.7265
 6811SOL    MW427012   1.974   4.551   1.133  0.4056  0.0779 -0.8503
 6812SOL     OW27013   1.361   3.720   0.677 -0.6109 -0.3394 -0.2982
 6812SOL    HW227014   1.275   3.716   0.637 -1.5716 -0.4345  1.6505
 6812SOL    HW327015   1.359   3.653   0.746  0.6245  0.3771  0.4817
 6812SOL    MW427016   1.349   3.711   0.681 -0.6849 -0.2391  0.3687
 6813SOL     OW27017   3.328   0.524   4.212 -0.0581  0.7046 -0.4743
 6813SOL    HW227018   3.319   0.474   4.131  0.3935 -1.1643  0.5608
 6813SOL    HW327019   3.423   0.529   4.226 -0.0696  2.2206 -0.7244
 6813SOL    MW427020   3.340   0.518   4.203 -0.3400  0.4751  0.5333
 6814SOL     OW27021   5.199   3.207   2.933 -0.5168  0.1503  0.3390
 6814SOL    HW227022   5.218   3.128   2.882 -3.5179 -0.2884 -0.3113
 6814SOL    HW327023   5.176   3.174   3.020  2.9965  0.7845  1.6576
 6814SOL    MW427024   5.199   3.192   2.938 -0.1046  0.5562 -0.0983
 6815SOL     OW27025   0.308   3.155   2.611  0.1977  1.1164 -0.0382
 6815SOL    HW227026   0.257   3.175   2.690 -1.3967 -1.4194 -0.3120
 6815SOL    HW327027   0.246   3.164   2.539 -0.2190 -2.5236 -0.3437
 6815SOL    MW427028   0.293   3.159   2.612 -0.9100  0.5288  0.3088
 6816SOL     OW27029   6.380   1.026   5.344  0.2121 -0.0581  0.5527
 6816SOL    HW227030   6.383   1.103   5.400  0.5333  0.5209 -0.2434
 6816SOL    HW327031   6.471   1.004   5.327  0.2221  1.3655 -1.8244
 6816SOL    MW427032   6.392   1.033   5.349  0.2057  0.8564 -0.0101
 6817SOL     OW27033   1.568   0.517   5.911 -0.4629 -0.2880 -0.1981
 6817SOL    HW227034   1.553   0.480   5.824 -1.3604  0.5345 -0.4005
 6817SOL    HW327035   1.521   0.458   5.971 -0.6696 -0.2933 -0.3662
 6817SOL    MW427036   1.560   0.504   5.908  0.1677 -0.4996  0.5733
 6818SOL     OW27037   4.162   6.111   3.825  0.0710 -0.6114  0.2848
 6818SOL    HW227038   4.170   6.030   3.775 -1.5732 -1.9345  2.0202
 6818SOL    HW327039   4.125   6.174   3.762 -0.8976 -1.8996 -0.4807
 6818SOL    MW427040   4.158   6.109   3.810  0.0954  0.5150 -0.0056
 6819SOL     OW27041   5.929   3.257   0.212  0.2192 -0.2081 -0.5727
 6819SOL    HW227042   5.935   3.305   0.294 -0.8590  2.6289 -2.0216
 6819SOL    HW327043   6.016   3.261   0.174  0.6119 -1.1548  0.1901
 6819SOL    MW427044   5.941   3.264   0.218 -0.6327  0.2376  0.0645
 6820SOL     OW27045   0.182   2.081   1.438 -0.3535  0.2480 -0.3685
 6820SOL    HW227046   0.154   2.058   1.350  0.4644  1.3672 -0.9464
 6820SOL    HW327047   0.110   2.133   1.473 -0.7078 -0.2527 -0.3506
 6820SOL    MW427048   0.169   2.085   1.431  0.3121 -0.1341  0.3744
 6821SOL     OW27049   0.934   2.751   0.855 -0.0069  0.5092 -0.0513
 6821SOL    HW227050   0.930   2.791   0.769  1.7465  0.4113 -0.2034
 6821SOL    HW327051   0.852   2.778   0.898 -0.2884  1.6387 -1.2548
 6821SOL    MW427052   0.922   2.760   0.849  0.1292 -0.2400 -0.4461
 6822SOL     OW27053   4.600   2.793   1.926 -0.0328  0.2476 -0.2777
 6822SOL    HW227054   4.615   2.766   2.017 -0.7158  0.9257  0.0462
 6822SOL    HW327055   4.555   2.719   1.886 -0.3283  0.2121  0.1197
 6822SOL    MW427056   4.596   2.780   1.933  0.9671 -0.2821 -0.1029
 6823SOL     OW27057   0.382   3.362   0.661  0.5349  0.5087 -0.4256
 6823SOL    HW227058   0.333   3.410   0.728 -2.2701  0.4553 -2.2770
 6823SOL    HW327059   0.446   3.425   0.628  0.9576  0.9976  1.2573
 6823SOL    MW427060   0.384   3.376   0.666  0.1432  0.3173  0.2903
 6824SOL     OW27061   3.690   6.410   3.603  0.2861  0.0801  0.1233
 6824SOL    HW227062   3.614   6.377   3.651  1.0088 -1.1228  0.4792
 6824SOL    HW327063   3.753   6.432   3.671  0.4860  0.4825 -0.1948
 6824SOL    MW427064   3.688   6.408   3.618 -0.0072  0.1368  0.7245
 6825SOL     OW27065   4.744   6.117   1.755  0.1572  0.0731 -0.0978
 6825SOL    HW227066   4.723   6.177   1.684 -0.1327  0.0324 -0.0470
 6825SOL    HW327067   4.662   6.072   1.774  0.2715 -0.0330  0.1516
 6825SOL    MW427068   4.730   6.119   1.748  0.2909  0.6338  0.0299
 6826SOL     OW27069   4.242   2.445   4.062 -0.5859  0.4786  0.4625
 6826SOL    HW227070   4.317   2.499   4.086 -1.3329  1.4431  0.6645
 6826SOL    HW327071   4.202   2.421   4.145 -0.9000  0.5391  0.3291
 6826SOL    MW427072   4.247   2.449   4.076 -0.8576 -0.2806  0.3673
 6827SOL     OW27073   0.293   0.226   4.965 -0.0739 -0.2189 -0.2582
 6827SOL    HW227074   0.237   0.150   4.980 -0.4008  0.3502  1.6921
 6827SOL    HW327075   0.372   0.208   5.017 -0.9073  1.5152  1.7519
 6827SOL    MW427076   0.296   0.214   4.974 -0.1040  0.3946  0.1165
 6828SOL     OW27077   3.508   3.410   6.087 -0.3031 -0.5612  0.5125
 6828SOL    HW227078   3.425   3.430   6.130 -0.6531  2.5697 -1.3218
 6828SOL    HW327079   3.575   3.434   6.151 -0.7995 -0.2522  0.9195
 6828SOL    MW427080   3.506   3.416   6.101  0.0273  0.0199 -0.1026
 6829SOL     OW27081   0.734   3.483   1.226  0.4434  0.3850  0.0361
 6829SOL    HW227082   0.737   3.392   1.195  1.5320  0.5383 -0.3391
 6829SOL    HW327083   0.721   3.476   1.320 -1.9902 -0.1087 -0.2527
 6829SOL    MW427084   0.732   3.470   1.234 -0.3276  0.7003 -0.7132
 6830SOL     OW27085   3.195   2.248   3.941 -0.8088 -0.1801 -0.3186
 6830SOL    HW227086   3.161   2.171   3.896  1.3429 -0.7642 -1.1025
 6830SOL    HW327087   3.270   2.215   3.991 -2.0022  0.7966  2.2830
 6830SOL    MW427088   3.201   2.234   3.941  0.1712 -0.1848 -0.0622
 6831SOL     OW27089   0.239   2.219   1.828  0.5059  0.2086  0.4435
 6831SOL    HW227090   0.329   2.248   1.811  0.1877  1.7901  1.2872
 6831SOL    HW327091   0.247   2.161   1.904  1.0274 -1.1965 -0.6449
 6831SOL    MW427092   0.252   2.215   1.836 -0.1411 -0.1670 -0.0786
 6832SOL     OW27093   2.381   5.788   0.088  0.4235 -0.2303 -0.1993
 6832SOL    HW227094   2.415   5.723   0.026  2.7224  1.0170 -0.3509
 6832SOL    HW327095   2.369   5.867   0.035 -0.4876  0.0236  0.3654
 6832SOL    MW427096   2.384   5.790   0.073  0.2836 -0.1835  0.3806
 6833SOL     OW27097   4.085   5.115   0.078  0.4199  0.4518 -0.1827
 6833SOL    HW227098   4.041   5.131   0.161 -0.4777 -0.7958 -0.3794
 6833SOL    HW327099   4.168   5.161   0.085  0.5359  0.0326  1.5500
 6833SOL    MW427100   4.090   5.124   0.090 -0.2712  0.0636 -0.0888
 6834SOL     OW27101   3.271   6.179   0.755  0.1958 -0.2771  0.6820
 6834SOL    HW227102   3.362   6.190   0.726  0.1399 -0.4774  0.4265
 6834SOL    HW327103   3.224   6.251   0.714 -0.5649 -2.4413 -2.6643
 6834SOL    MW427104   3.277   6.190   0.746  0.1937  0.3974 -0.3234
 6835SOL     OW27105   5.831   3.787   3.115  0.0919  0.3044 -0.2769
 6835SOL    HW227106   5.798   3.713   3.065 -2.2239 -0.3917  2.0750
 6835SOL    HW327107   5.914   3.756   3.152  0.1098 -0.3871 -0.8779
 6835SOL    MW427108   5.837   3.773   3.113  0.4592  0.5426 -0.4987
 6836SOL     OW27109   4.494   5.888   5.752  0.3087 -0.7385  0.4289
 6836SOL    HW227110   4.522   5.897   5.843  2.6551  0.6515 -0.3576
 6836SOL    HW327111   4.479   5.978   5.722  0.5378 -1.0926 -0.8279
 6836SOL    MW427112   4.496   5.901   5.760  0.0769  0.0222 -0.3082
 6837SOL     OW27113   4.490   6.048   4.903  0.1164 -0.4750 -0.1553
 6837SOL    HW227114   4.510   6.013   4.817  1.6964  0.8235 -0.3625
 6837SOL    HW327115   4.575   6.071   4.940 -0.7065  1.5663  0.6086
 6837SOL    MW427116   4.504   6.046   4.897 -0.0474  0.3398  0.0236
 6838SOL     OW27117   2.170   1.095   5.686  0.3339  0.3069  0.7356
 6838SOL    HW227118   2.192   1.005   5.663 -2.0310 -0.2700  0.4202
 6838SOL    HW327119   2.192   1.147   5.609  0.5580 -0.2152  0.4483
 6838SOL    MW427120   2.176   1.090   5.673 -0.5230  0.2675  0.1292
 6839SOL     OW27121   5.637   4.784   5.589  0.1606  0.6821  0.1016
 6839SOL    HW227122   5.666   4.875   5.586 -0.6454  0.9347 -1.2961
 6839SOL    HW327123   5.694   4.738   5.526 -1.0778  0.7810 -1.1484
 6839SOL    MW427124   5.648   4.790   5.580  0.2046  0.1409 -0.2982
 6840SOL     OW27125   5.266   3.852   2.329 -0.3100  0.1361 -0.0007
 6840SOL    HW227126   5.246   3.774   2.382  0.3700 -1.1515 -1.5527
 6840SOL    HW327127   5.180   3.884   2.301 -0.8043  1.7559  3.0092
 6840SOL    MW427128   5.252   3.846   2.332  0.2829  0.2118 -0.6516
 6841SOL     OW27129   4.374   1.088   6.195  0.0955  0.2889 -0.8605
 6841SOL    HW227130   4.300   1.028   6.199  0.2338  0.1733  0.5550
 6841SOL    HW327131   4.379   1.114   6.103  0.0213 -1.8425 -1.5335
 6841SOL    MW427132   4.365   1.083   6.183  0.2015 -0.4763 -0.2962
 6842SOL     OW27133   5.330   0.315   5.676  0.1534 -0.2630  0.4678
 6842SOL    HW227134   5.335   0.405   5.708  0.4440  0.2044 -0.8235
 6842SOL    HW327135   5.276   0.321   5.596  2.4810 -0.7288 -1.2454
 6842SOL    MW427136   5.323   0.328   5.669 -0.3307  0.2728 -0.2871
 6843SOL     OW27137   5.449   6.106   5.148  0.0433  0.8586 -0.1222
 6843SOL    HW227138   5.483   6.104   5.059  0.4340 -1.5679  0.0114
 6843SOL    HW327139   5.493   6.181   5.188 -0.4088  2.2126 -2.0137
 6843SOL    MW427140   5.460   6.116   5.142 -0.5091 -0.0165 -0.1726
 6844SOL     OW27141   1.792   3.474   2.090 -0.5146  0.2443 -0.5683
 6844SOL    HW227142   1.755   3.477   2.178  2.0594 -1.6846  0.7109
 6844SOL    HW327143   1.846   3.553   2.083 -2.4140  1.5434 -1.3401
 6844SOL    MW427144   1.794   3.485   2.100 -0.2703 -0.2133 -0.5512
 6845SOL     OW27145   1.729   1.197   5.331  0.0290 -0.5887 -0.0188
 6845SOL    HW227146   1.777   1.125   5.291 -0.9737 -0.4390 -1.6083
 6845SOL    HW327147   1.735   1.268   5.267 -2.3170 -0.6041 -0.3480
 6845SOL    MW427148   1.736   1.197   5.318  0.1105 -0.5042  0.5093
 6846SOL     OW27149   4.391   0.832   5.102 -0.4550  0.2322  0.2196
 6846SOL    HW227150   4.441   0.759   5.140  0.9626  2.0409  2.0208
 6846SOL    HW327151   4.312   0.836   5.155  0.5848  1.4608  1.7688
 6846SOL    MW427152   4.387   0.823   5.114  0.7969 -0.4301 -0.7192
 6847SOL     OW27153   2.846   4.211   0.620 -0.8553  0.0981 -0.3161
 6847SOL    HW227154   2.796   4.292   0.627 -1.7423 -0.1093 -2.9668
 6847SOL    HW327155   2.937   4.239   0.616 -1.0861  0.8843 -0.1617
 6847SOL    MW427156   2.852   4.225   0.620 -0.4987  0.1357  0.1446
 6848SOL     OW27157   4.946   3.763   4.733 -0.4437  0.0179 -0.0247
 6848SOL    HW227158   4.884   3.836   4.729  0.3251  0.7632  1.0001
 6848SOL    HW327159   4.947   3.737   4.825  1.0070  0.2681  0.0647
 6848SOL    MW427160   4.938   3.769   4.744  0.4159  0.5723  0.1259
 6849SOL     OW27161   5.871   2.091   6.113 -0.0384  0.0208  0.0313
 6849SOL    HW227162   5.870   2.182   6.143 -0.6269 -0.2018  0.7237
 6849SOL    HW327163   5.897   2.096   6.021 -1.1359  0.9854 -0.2595
 6849SOL    MW427164   5.874   2.103   6.105 -0.4915  0.4515 -0.0948
 6850SOL     OW27165   5.436   3.297   3.437  0.5174  0.4836  0.3517
 6850SOL    HW227166   5.410   3.357   3.507  0.1806  0.9328 -0.1453
 6850SOL    HW327167   5.353   3.265   3.402  0.6978 -1.1310  1.3137
 6850SOL    MW427168   5.421   3.301   3.442 -0.3696  0.4368 -0.5948
 6851SOL     OW27169   5.605   5.788   3.790 -0.2864  0.0267 -0.6852
 6851SOL    HW227170   5.666   5.855   3.819  0.3090 -0.7538 -0.0587
 6851SOL    HW327171   5.632   5.768   3.701  0.3080 -0.2174 -0.4583
 6851SOL    MW427172   5.617   5.794   3.782 -0.3691  0.2794 -0.6169
 6852SOL     OW27173   0.518   1.902   2.817 -0.4675 -0.3884  0.1806
 6852SOL    HW227174   0.556   1.925   2.732 -0.8664 -0.4535 -0.0195
 6852SOL    HW327175   0.440   1.852   2.795 -1.3753  0.8083  0.5533
 6852SOL    MW427176   0.513   1.899   2.803  0.1968 -0.7483 -0.1322
 6853SOL     OW27177   3.644   2.615   3.397 -0.1513 -0.1999  0.4610
 6853SOL    HW227178   3.567   2.620   3.454 -0.5950 -0.2823 -0.1270
 6853SOL    HW327179   3.614   2.651   3.314  0.1473 -1.2162 -0.0990
 6853SOL    MW427180   3.630   2.621   3.394 -0.2442  0.1782 -0.2805
 6854SOL     OW27181   5.026   4.873   2.606  0.1243 -0.3337  0.8484
 6854SOL    HW227182   5.095   4.934   2.631 -0.4060  0.6295  0.0533
 6854SOL    HW327183   4.964   4.875   2.679  0.0582  0.1690  0.7810
 6854SOL    MW427184   5.027   4.881   2.619 -0.4940 -0.1957 -0.3026
 6855SOL     OW27185   5.334   4.745   2.796 -0.3975  0.3326  0.0790
 6855SOL    HW227186   5.254   4.772   2.841 -0.8188 -1.3786  0.4152
 6855SOL    HW327187   5.382   4.692   2.860  0.5832  0.5970 -0.4138
 6855SOL    MW427188   5.330   4.742   2.810  0.5300 -0.3899  0.2728
 6856SOL     OW27189   0.251   5.452   6.074 -0.6156 -0.1618 -0.1828
 6856SOL    HW227190   0.242   5.388   6.145 -0.1322 -1.4310 -1.2177
 6856SOL    HW327191   0.167   5.499   6.073 -1.7776 -2.1117 -0.6193
 6856SOL    MW427192   0.239   5.449   6.084 -0.4434 -0.2078 -0.2902
 6857SOL     OW27193   4.522   4.237   0.086 -0.1375  0.1569 -0.0564
 6857SOL    HW227194   4.495   4.177   0.156 -2.1398  0.7895 -0.2211
 6857SOL    HW327195   4.526   4.323   0.128  0.1484  0.3099 -0.3877
 6857SOL    MW427196   4.519   4.241   0.101  0.1050 -0.0872 -0.2377
 6858SOL     OW27197   0.111   4.814   1.193  0.3328 -0.0991 -0.0702
 6858SOL    HW227198   0.099   4.901   1.154  1.0388  0.2633  0.4893
 6858SOL    HW327199   0.186   4.777   1.146  0.9914  0.2163  0.6916
 6858SOL    MW427200   0.119   4.821   1.182  0.1228  0.7117  0.0227
 6859SOL     OW27201   2.616   2.196   4.660 -0.8381  0.3027 -0.1045
 6859SOL    HW227202   2.629   2.279   4.706 -0.0953  0.8778 -1.2840
 6859SOL    HW327203   2.574   2.139   4.724  0.4318  0.9607  1.3856
 6859SOL    MW427204   2.612   2.200   4.674  0.4232 -0.2402  0.0161
 6860SOL     OW27205   2.245   0.106   4.215  0.4661 -0.4309  0.2509
 6860SOL    HW227206   2.236   0.012   4.197  1.0982 -0.5383  0.4555
 6860SOL    HW327207   2.309   0.110   4.286  0.8661  0.1836 -0.1413
 6860SOL    MW427208   2.252   0.094   4.222 -0.7235 -0.0687  0.2089
 6861SOL     OW27209   4.346   4.962   6.238  0.1080  0.3366 -0.3913
 6861SOL    HW227210   4.294   5.032   6.199 -0.8890 -0.2770 -0.2025
 6861SOL    HW327211   4.292   4.884   6.229  1.0080 -0.3236 -0.1857
 6861SOL    MW427212   4.332   4.961   6.232  0.0949 -0.2516  0.2133
 6862SOL     OW27213   0.593   0.983   2.394 -0.1907  0.1522 -0.2540
 6862SOL    HW227214   0.584   0.946   2.306  2.7348  1.2196 -1.1321
 6862SOL    HW327215   0.519   1.044   2.402 -1.3641 -1.0616 -1.3257
 6862SOL    MW427216   0.582   0.986   2.384  0.3653  0.2073  0.1868
 6863SOL     OW27217   1.370   0.953   5.310  0.1742  0.6028 -0.1107
 6863SOL    HW227218   1.434   0.997   5.367 -0.0585  2.0381 -0.9025
 6863SOL    HW327219   1.285   0.971   5.350  0.1773 -0.6184  0.4954
 6863SOL    MW427220   1.367   0.961   5.322  0.2551 -0.5197 -0.2813
 6864SOL     OW27221   0.825   5.122   2.662 -0.7338  0.3169 -0.6485
 6864SOL    HW227222   0.732   5.128   2.640 -1.3885  0.1161  1.7286
 6864SOL    HW327223   0.829   5.149   2.754  1.2240 -1.7312 -0.0398
 6864SOL    MW427224   0.813   5.126   2.671  0.1508 -0.7333  0.3813
 6865SOL     OW27225   1.463   2.730   2.514 -0.2832 -0.1098 -0.3018
 6865SOL    HW227226   1.406   2.804   2.495  0.4359  0.6601  0.4477
 6865SOL    HW327227   1.432   2.697   2.598 -0.9306 -1.0028 -0.8769
 6865SOL    MW427228   1.452   2.736   2.523  0.1780  0.0606 -0.1644
 6866SOL     OW27229   1.416   1.479   3.344 -0.0863  0.1419  0.6076
 6866SOL    HW227230   1.394   1.437   3.427  1.5632 -0.1090  0.9552
 6866SOL    HW327231   1.490   1.429   3.310 -0.7358  0.2260 -1.0454
 6866SOL    MW427232   1.423   1.467   3.350 -0.1422  0.2720 -0.7348
 6867SOL     OW27233   1.864   3.981   3.063  0.3488  0.4575 -0.1820
 6867SOL    HW227234   1.802   4.029   3.009  1.1648  0.9928 -0.6721
 6867SOL    HW327235   1.864   3.892   3.027 -1.3625 -0.0263  0.8948
 6867SOL    MW427236   1.856   3.975   3.051  0.1226  0.6124  0.2330
 6868SOL     OW27237   5.623   1.277   0.442 -0.1916  0.4575 -0.5011
 6868SOL    HW227238   5.664   1.310   0.362 -0.3833  0.5260 -0.5723
 6868SOL    HW327239   5.537   1.319   0.444  0.2582  1.3790  0.3610
 6868SOL    MW427240   5.617   1.287   0.432  0.0005 -0.4338 -0.1537
 6869SOL     OW27241   3.703   0.555   4.873 -0.0381  0.2375  0.0910
 6869SOL    HW227242   3.705   0.558   4.969  1.3123  0.1176  0.0811
 6869SOL    HW327243   3.617   0.591   4.850  0.1425  1.5499  1.3051
 6869SOL    MW427244   3.692   0.560   4.883  0.2919  0.0346 -0.1208
 6870SOL     OW27245   1.926   3.362   3.662 -0.7279 -0.0489  0.6862
 6870SOL    HW227246   1.898   3.333   3.749 -0.9663  0.3085  0.7326
 6870SOL    HW327247   2.021   3.369   3.668 -0.6979 -0.4707  0.7781
 6870SOL    MW427248   1.935   3.359   3.674  0.0427 -0.5177  0.1916
 6871SOL     OW27249   0.330   5.285   2.910  0.2862 -0.1303  0.0336
 6871SOL    HW227250   0.305   5.262   2.999  0.5717  1.4879  0.5575
 6871SOL    HW327251   0.403   5.346   2.920 -0.1308  0.6214 -1.2722
 6871SOL    MW427252   0.336   5.290   2.923 -0.1744 -0.0931  0.1048
 6872SOL     OW27253   4.235   5.622   1.114 -0.6511 -0.4590 -0.1343
 6872SOL    HW227254   4.294   5.586   1.047 -0.7736 -1.8258  0.4507
 6872SOL    HW327255   4.248   5.565   1.190 -0.4986  1.0749  1.0398
 6872SOL    MW427256   4.245   5.610   1.115  0.0107  0.2589  0.0703
 6873SOL     OW27257   5.201   2.030   4.397  0.0132  0.2220  0.0191
 6873SOL    HW227258   5.145   2.103   4.371 -1.0895 -0.6059 -0.0133
 6873SOL    HW327259   5.286   2.048   4.355  0.0584  1.9485  0.7990
 6873SOL    MW427260   5.205   2.042   4.388 -0.2265 -0.3890 -0.3320
 6874SOL     OW27261   0.528   1.078   5.791 -0.2713  0.7319  0.2569
 6874SOL    HW227262   0.502   1.053   5.703 -1.1473 -0.2126  0.7723
 6874SOL    HW327263   0.622   1.057   5.795 -0.4045  0.0346 -0.1852
 6874SOL    MW427264   0.537   1.072   5.780  0.5211  0.0780  0.1546
 6875SOL     OW27265   3.165   0.222   3.426 -0.3273 -0.3154 -0.0096
 6875SOL    HW227266   3.143   0.130   3.410  0.2493 -0.7734  1.7110
 6875SOL    HW327267   3.261   0.224   3.429 -0.3360  0.3440  0.0086
 6875SOL    MW427268   3.175   0.210   3.424  0.1651 -0.0251 -0.5104
 6876SOL     OW27269   4.998   4.939   3.866  0.7979 -0.5436  0.2008
 6876SOL    HW227270   5.055   4.920   3.791 -0.6212 -3.6742 -0.2519
 6876SOL    HW327271   4.943   5.012   3.837  0.8164 -1.1787 -1.5422
 6876SOL    MW427272   4.998   4.946   3.852 -0.7221  0.0592 -1.0773
 6877SOL     OW27273   3.230   1.076   0.385 -0.4312 -0.8579  0.3423
 6877SOL    HW227274   3.245   1.123   0.303  0.2176  1.0506  1.4971
 6877SOL    HW327275   3.292   1.115   0.447 -0.5693 -2.5884  1.6256
 6877SOL    MW427276   3.240   1.088   0.382  0.1993 -0.2710 -0.2302
 6878SOL     OW27277   1.585   0.101   4.559  0.2689 -0.6856 -0.2529
 6878SOL    HW227278   1.508   0.088   4.504  0.2186 -0.5795 -0.2095
 6878SOL    HW327279   1.559   0.170   4.620  0.5946 -0.2315 -0.6186
 6878SOL    MW427280   1.572   0.109   4.560  0.0539  0.1638 -0.2609
 6879SOL     OW27281   5.235   2.857   6.026  0.5169 -0.4590  0.4027
 6879SOL    HW227282   5.282   2.904   6.096  1.1561 -1.2483  0.5222
 6879SOL    HW327283   5.271   2.893   5.945  1.0224 -0.7476  0.4942
 6879SOL    MW427284   5.246   2.868   6.024  0.2559 -0.2053  0.2856
 6880SOL     OW27285   1.388   4.907   2.412 -0.0331  0.1789  0.1613
 6880SOL    HW227286   1.431   4.852   2.478 -0.0291  0.1150  0.1052
 6880SOL    HW327287   1.296   4.880   2.414  0.0934 -0.3039 -0.3421
 6880SOL    MW427288   1.382   4.897   2.421 -0.3115  0.6020  0.1076
 6881SOL     OW27289   1.434   5.854   2.751  0.3110  0.3428 -0.0373
 6881SOL    HW227290   1.441   5.927   2.813  2.7031 -0.6622  0.9817
 6881SOL    HW327291   1.365   5.881   2.691  0.1638  2.8280  1.1145
 6881SOL    MW427292   1.426   5.868   2.751 -0.7878  0.8833  0.5385
 6882SOL     OW27293   5.554   0.314   5.158 -0.2208  0.6518  0.3630
 6882SOL    HW227294   5.467   0.294   5.192 -0.0187 -0.3880  0.2832
 6882SOL    HW327295   5.549   0.294   5.065  0.8344 -1.9972  0.8118
 6882SOL    MW427296   5.542   0.309   5.150  0.0933 -0.1495 -0.8441
 6883SOL     OW27297   2.162   5.818   5.025  0.5141  0.4444 -0.5262
 6883SOL    HW227298   2.081   5.867   5.019  0.6714  0.9403  0.8874
 6883SOL    HW327299   2.144   5.749   5.089  1.5084  1.2827  0.7254
 6883SOL    MW427300   2.149   5.815   5.033 -0.2055 -0.0875  0.4258
 6884SOL     OW27301   3.662   3.454   2.918 -0.1443  0.1540  0.2993
 6884SOL    HW227302   3.585   3.460   2.862 -0.2346 -0.7797  0.3136
 6884SOL    HW327303   3.730   3.418   2.862 -0.1585 -0.5278  0.7071
 6884SOL    MW427304   3.661   3.450   2.903  0.3828  0.4359  0.1959
 6885SOL     OW27305   3.884   2.185   4.871 -0.3423 -0.2497 -0.7046
 6885SOL    HW227306   3.928   2.240   4.935 -1.7509  1.1316 -0.8612
 6885SOL    HW327307   3.860   2.244   4.800 -2.1598 -0.9620 -0.7528
 6885SOL    MW427308   3.886   2.200   4.870  0.1799  0.1566  0.4958
 6886SOL     OW27309   3.174   1.650   3.335  0.0856 -0.0404 -0.3815
 6886SOL    HW227310   3.256   1.687   3.367  0.2147 -0.2957 -0.4118
 6886SOL    HW327311   3.187   1.641   3.240 -0.0524  0.1074 -0.4148
 6886SOL    MW427312   3.186   1.654   3.326  0.0606 -0.1872 -0.3350
 6887SOL     OW27313   2.979   4.832   2.823  0.2236  0.7342  0.1263
 6887SOL    HW227314   2.986   4.920   2.860 -1.6490  1.0388 -0.1411
 6887SOL    HW327315   3.020   4.776   2.889  0.8943  1.7377  0.5934
 6887SOL    MW427316   2.985   4.836   2.837 -0.7717  0.8979 -0.2234
 6888SOL     OW27317   5.646   4.280   4.637  0.1504  0.3882  0.3632
 6888SOL    HW227318   5.707   4.350   4.662  0.4673  1.3528 -2.7715
 6888SOL    HW327319   5.583   4.323   4.579 -0.0244 -1.7849 -1.1486
 6888SOL    MW427320   5.646   4.295   4.633 -0.2221 -0.0688 -0.4563
 6889SOL     OW27321   5.349   2.903   5.754  0.1613 -0.2177  0.5798
 6889SOL    HW227322   5.289   2.851   5.701  1.0316 -0.1440 -0.5219
 6889SOL    HW327323   5.407   2.946   5.690  2.6050 -1.7309  1.6142
 6889SOL    MW427324   5.349   2.902   5.738 -0.0678  0.2302  0.6055
 6890SOL     OW27325   3.285   0.060   5.532  0.0848 -0.4464 -0.1868
 6890SOL    HW227326   3.253   0.076   5.621 -1.0495 -0.0081 -0.6479
 6890SOL    HW327327   3.262   0.140   5.483 -0.6815 -1.2754 -1.2298
 6890SOL    MW427328   3.278   0.073   5.537 -0.2891 -0.2674  0.3693
 6891SOL     OW27329   1.140   5.039   1.635 -0.1437  0.3611  0.1926
 6891SOL    HW227330   1.235   5.038   1.626 -0.3034  0.0929 -2.0423
 6891SOL    HW327331   1.124   4.998   1.719  1.7124  0.2474  0.5361
 6891SOL    MW427332   1.150   5.033   1.645 -0.5587  0.1541  0.3103
 6892SOL     OW27333   1.838   1.685   3.089  0.0983 -0.5825 -0.2370
 6892SOL    HW227334   1.895   1.673   3.164 -1.4844 -0.3589  1.0608
 6892SOL    HW327335   1.831   1.599   3.049  1.1848 -0.6386 -0.3209
 6892SOL    MW427336   1.844   1.672   3.094  0.3019  0.6597 -0.1048
 6893SOL     OW27337   0.585   4.400   3.829  0.5354 -0.2031 -0.6940
 6893SOL    HW227338   0.519   4.380   3.896  0.3105 -1.2388 -1.2024
 6893SOL    HW327339   0.542   4.380   3.746  1.1068  0.2239 -1.0989
 6893SOL    MW427340   0.570   4.395   3.827 -0.1429  0.0127  0.1614
 6894SOL     OW27341   1.530   5.235   0.464 -0.1724  0.2543  0.0635
 6894SOL    HW227342   1.598   5.286   0.420  0.7872 -1.1664 -0.1349
 6894SOL    HW327343   1.545   5.251   0.558 -0.7103  1.3634 -0.0266
 6894SOL    MW427344   1.541   5.244   0.471  0.5638  0.6431 -0.3144
 6895SOL     OW27345   5.929   4.687   3.731 -0.2533  0.3538  0.2849
 6895SOL    HW227346   5.873   4.629   3.678  0.4334  1.3221 -1.5875
 6895SOL    HW327347   5.916   4.656   3.820  0.0895 -2.7066 -0.5915
 6895SOL    MW427348   5.920   4.675   3.735  0.1019 -0.2068 -0.7718
 6896SOL     OW27349   3.117   4.704   4.341  0.3523  0.1629  0.3746
 6896SOL    HW227350   3.090   4.792   4.365  1.0161  0.1119  1.3583
 6896SOL    HW327351   3.183   4.717   4.273 -1.3623  0.3116 -1.3511
 6896SOL    MW427352   3.122   4.717   4.335  0.0442 -0.1309 -0.4908
 6897SOL     OW27353   6.320   5.847   4.326  0.4254 -0.7936 -0.6185
 6897SOL    HW227354   6.324   5.788   4.401 -3.3870 -1.2412 -0.5655
 6897SOL    HW327355   6.354   5.930   4.359  2.5417 -1.9769  0.3629
 6897SOL    MW427356   6.325   5.850   4.340  0.3016  0.1825  0.4017
 6898SOL     OW27357   1.158   6.078   3.477 -0.0752  0.1313  0.4575
 6898SOL    HW227358   1.114   6.042   3.400  0.1669  0.9333 -0.0724
 6898SOL    HW327359   1.235   6.123   3.442  0.7538 -0.5875  1.2967
 6898SOL    MW427360   1.163   6.080   3.462  0.3181  0.1643  0.8106
 6899SOL     OW27361   3.059   4.036   0.777  0.1547 -0.0953 -0.0245
 6899SOL    HW227362   3.135   4.058   0.723  1.2027 -1.4728  0.8433
 6899SOL    HW327363   3.089   3.965   0.834 -1.9665 -1.1295 -0.0970
 6899SOL    MW427364   3.073   4.030   0.777  0.0504 -0.0402 -0.2192
 6900SOL     OW27365   3.662   2.944   5.554  0.1966  0.6453 -0.2056
 6900SOL    HW227366   3.752   2.978   5.551 -0.0074  1.1255 -0.9884
 6900SOL    HW327367   3.633   2.965   5.643 -0.0680  2.9572 -0.7812
 6900SOL    MW427368   3.670   2.951   5.566 -0.1371 -0.2140  0.4472
 6901SOL     OW27369   4.179   4.778   6.113  0.0099  0.4934  0.5924
 6901SOL    HW227370   4.199   4.688   6.085  0.4828  0.6002  0.5737
 6901SOL    HW327371   4.188   4.830   6.033 -1.3046  0.4069  0.3789
 6901SOL    MW427372   4.183   4.773   6.099 -0.4349 -0.5249 -0.1722
 6902SOL     OW27373   2.120   4.695   3.024  0.0374  0.2862 -0.5638
 6902SOL    HW227374   2.093   4.659   3.108 -0.3509  1.4456 -0.1780
 6902SOL    HW327375   2.040   4.695   2.971  0.5334 -1.5897 -1.3801
 6902SOL    MW427376   2.106   4.690   3.028 -0.4658 -0.5367 -0.2942
 6903SOL     OW27377   4.240   4.224   0.019 -0.7081  0.2051  0.3807
 6903SOL    HW227378   4.335   4.215   0.028 -0.9294 -0.9120  2.1722
 6903SOL    HW327379   4.225   4.318   0.016  0.5182  0.3889 -1.0326
 6903SOL    MW427380   4.251   4.235   0.020 -0.3683 -0.2940 -0.0886
 6904SOL     OW27381   6.209   1.063   4.785  0.7665 -0.4770 -0.3302
 6904SOL    HW227382   6.275   1.102   4.843 -0.3095 -1.2464  1.5154
 6904SOL    HW327383   6.188   0.979   4.827 -1.9370  0.0770 -0.3782
 6904SOL    MW427384   6.215   1.057   4.798 -0.3423  0.1738 -0.8987
 6905SOL     OW27385   1.216   3.222   3.925 -0.2301 -0.5303 -0.0071
 6905SOL    HW227386   1.202   3.205   4.018  0.6817  1.4909  0.5385
 6905SOL    HW327387   1.300   3.181   3.906  0.3130  0.3451  0.4533
 6905SOL    MW427388   1.225   3.214   3.935  0.0355  0.3077  0.4543
 6906SOL     OW27389   5.364   1.464   4.068  0.0761 -0.0672 -0.2296
 6906SOL    HW227390   5.365   1.388   4.127  0.5913 -0.2706 -0.4966
 6906SOL    HW327391   5.285   1.512   4.093 -1.1510 -1.5411 -1.1333
 6906SOL    MW427392   5.354   1.460   4.079  0.1039  0.6936  0.2734
 6907SOL     OW27393   5.605   2.984   1.682 -0.0854 -0.0944  0.4866
 6907SOL    HW227394   5.651   2.959   1.602  2.1961  0.9954  1.3624
 6907SOL    HW327395   5.566   3.069   1.662  0.1162 -0.0232  0.3927
 6907SOL    MW427396   5.606   2.992   1.669  0.3987 -0.1397  0.0469
 6908SOL     OW27397   5.907   3.077   6.375  0.3009  0.5669  0.1504
 6908SOL    HW227398   5.816   3.074   6.407 -0.4942  1.5814 -1.8179
 6908SOL    HW327399   5.946   2.996   6.406 -2.1616 -1.3253 -1.3111
 6908SOL    MW427400   5.900   3.066   6.384 -0.2002  0.0476 -0.4005
 6909SOL     OW27401   1.439   6.081   3.787  0.1847 -0.1943  0.0323
 6909SOL    HW227402   1.363   6.024   3.798  2.3227 -3.2876  0.0086
 6909SOL    HW327403   1.438   6.104   3.694 -1.3733  0.9587  0.2794
 6909SOL    MW427404   1.429   6.076   3.776 -0.2296 -0.1965 -0.5316
 6910SOL     OW27405   0.304   2.259   5.333  0.0979 -0.0776  0.2139
 6910SOL    HW227406   0.398   2.264   5.318  0.1153 -0.4283  0.2046
 6910SOL    HW327407   0.276   2.350   5.343  0.2891  0.0909 -0.6949
 6910SOL    MW427408   0.312   2.272   5.333 -0.5426 -0.1638  0.0447
 6911SOL     OW27409   4.730   5.871   5.596 -0.0327  0.0174  0.6826
 6911SOL    HW227410   4.658   5.870   5.659  0.8134  1.5268  1.7334
 6911SOL    HW327411   4.807   5.896   5.647  0.2682  3.8766 -1.2887
 6911SOL    MW427412   4.731   5.874   5.611 -0.0155 -0.2651  0.2504
 6912SOL     OW27413   1.605   0.589   6.319  0.6237  0.2503  0.1223
 6912SOL    HW227414   1.522   0.619   6.357  0.5801  0.8221 -0.4250
 6912SOL    HW327415   1.672   0.635   6.368  0.5683  0.9564 -0.4566
 6912SOL    MW427416   1.603   0.599   6.331 -0.1376  0.8214 -0.3235
 6913SOL     OW27417   4.316   2.776   6.057 -0.3636  0.0059 -0.3975
 6913SOL    HW227418   4.275   2.717   6.120 -2.3370  0.9177 -0.7521
 6913SOL    HW327419   4.283   2.746   5.972 -0.3601  0.8212 -0.6915
 6913SOL    MW427420   4.307   2.764   6.054  0.1439  0.0927 -0.4747
 6914SOL     OW27421   4.914   3.631   2.548  0.0234 -0.7823 -0.0647
 6914SOL    HW227422   4.899   3.711   2.598  1.3954  0.8499 -2.0880
 6914SOL    HW327423   4.857   3.639   2.471  0.1704 -1.7391 -0.2888
 6914SOL    MW427424   4.905   3.642   2.544  0.1832 -0.3644  0.2077
 6915SOL     OW27425   3.871   2.724   4.364 -0.7089 -0.0029 -0.8619
 6915SOL    HW227426   3.937   2.756   4.427 -0.9845  1.0171 -1.0694
 6915SOL    HW327427   3.900   2.636   4.342 -0.6578 -0.4282  0.7759
 6915SOL    MW427428   3.884   2.717   4.370 -0.3030  0.4880  0.0261
 6916SOL     OW27429   1.381   5.209   4.638 -0.1634 -0.1817 -0.1417
 6916SOL    HW227430   1.467   5.237   4.609 -0.1599  0.1957  0.2199
 6916SOL    HW327431   1.399   5.156   4.716 -0.4054  2.3771  1.7740
 6916SOL    MW427432   1.395   5.206   4.645 -0.1777  0.0573  0.4061
 6917SOL     OW27433   0.435   5.830   4.351  0.0916 -0.2158  0.5683
 6917SOL    HW227434   0.496   5.879   4.406  0.8373 -2.0202  1.4572
 6917SOL    HW327435   0.417   5.888   4.278  2.3159  0.7025  0.6511
 6917SOL    MW427436   0.441   5.844   4.349  0.5173  0.0725 -0.0729
 6918SOL     OW27437   4.278   2.905   5.240  0.2690 -0.2063  0.6424
 6918SOL    HW227438   4.233   2.835   5.193  2.2087 -0.5816 -0.7908
 6918SOL    HW327439   4.252   2.985   5.196  1.1631 -0.4499 -0.3815
 6918SOL    MW427440   4.269   2.906   5.228  0.2442 -0.0814 -0.3014
 6919SOL     OW27441   3.101   2.180   1.384 -0.1218 -0.0486  0.0581
 6919SOL    HW227442   3.170   2.180   1.450 -0.5815  1.0550  0.5570
 6919SOL    HW327443   3.080   2.087   1.371 -0.6203 -0.2622  2.0874
 6919SOL    MW427444   3.108   2.168   1.391  0.9567  0.4417 -0.1795
 6920SOL     OW27445   1.769   1.211   1.228  0.5632  0.0443 -0.3535
 6920SOL    HW227446   1.687   1.222   1.180  0.1314  0.9496  0.5411
 6920SOL    HW327447   1.816   1.293   1.213  1.2946 -0.4467 -0.8123
 6920SOL    MW427448   1.765   1.223   1.220 -0.0125 -0.4129 -0.3045
 6921SOL     OW27449   5.734   1.047   4.392  0.6662 -0.2626 -0.4442
 6921SOL    HW227450   5.740   1.115   4.459 -0.7523  0.1340 -0.6728
 6921SOL    HW327451   5.777   1.085   4.315 -1.0386  0.8680 -0.9010
 6921SOL    MW427452   5.740   1.061   4.391 -0.0068 -0.1870  0.0944
 6922SOL     OW27453   2.870   3.150   0.586  0.2844  0.4485 -0.5637
 6922SOL    HW227454   2.932   3.222   0.568 -0.0162  1.3439  1.6799
 6922SOL    HW327455   2.852   3.157   0.680 -0.4734 -2.0336 -0.4579
 6922SOL    MW427456   2.876   3.161   0.596  0.1898 -0.2262 -0.6260
 6923SOL     OW27457   3.546   5.737   5.209  0.0072 -0.1532 -0.0304
 6923SOL    HW227458   3.532   5.643   5.218 -2.0118  0.0229 -0.7887
 6923SOL    HW327459   3.608   5.746   5.136  2.7405 -0.9329  2.0477
 6923SOL    MW427460   3.553   5.726   5.200 -0.4041  0.5292  0.0028
 6924SOL     OW27461   6.346   3.678   3.522 -0.6657  0.5646 -0.5981
 6924SOL    HW227462   6.293   3.745   3.477 -0.4272  0.9392 -0.3285
 6924SOL    HW327463   6.357   3.712   3.610  1.0677  1.1113 -0.9858
 6924SOL    MW427464   6.340   3.691   3.527  0.0058  0.6937  0.1071
 6925SOL     OW27465   4.952   5.813   5.788  0.7694 -0.2792  0.0295
 6925SOL    HW227466   5.002   5.871   5.731  0.4821  0.3369  0.3890
 6925SOL    HW327467   4.972   5.725   5.757  0.7555  0.0355 -0.9089
 6925SOL    MW427468   4.961   5.809   5.777 -0.2428  0.0950 -0.0453
 6926SOL     OW27469   2.303   6.046   3.488 -0.1781  0.0159  0.0201
 6926SOL    HW227470   2.280   6.028   3.397  0.1041 -0.6357  0.0703
 6926SOL    HW327471   2.285   6.139   3.500 -0.0358  0.1481 -0.7579
 6926SOL    MW427472   2.298   6.056   3.478  0.2454  0.0555  0.5788
 6927SOL     OW27473   2.780   3.651   5.733  0.3628 -0.7680 -0.1130
 6927SOL    HW227474   2.843   3.582   5.755 -0.3055 -0.8054  1.8734
 6927SOL    HW327475   2.828   3.732   5.748  0.6196 -0.7730 -0.8320
 6927SOL    MW427476   2.795   3.653   5.738 -0.6095 -0.0754 -0.9650
 6928SOL     OW27477   2.623   4.897   1.932  0.0687  0.3823  0.0632
 6928SOL    HW227478   2.670   4.972   1.895 -0.0408  1.9719  2.8816
 6928SOL    HW327479   2.546   4.935   1.975 -0.7322 -1.5140  0.3939
 6928SOL    MW427480   2.619   4.912   1.933 -0.1134  0.4186  0.1950
 6929SOL     OW27481   2.558   1.576   0.146  0.0488  0.3076 -0.2554
 6929SOL    HW227482   2.573   1.564   0.052  1.8980 -3.2160  0.3371
 6929SOL    HW327483   2.634   1.626   0.176 -1.4108  3.0399 -0.7682
 6929SOL    MW427484   2.570   1.581   0.138  0.1533 -0.3110 -0.4822
 6930SOL     OW27485   2.559   3.400   0.678  1.2428 -0.3157 -0.4535
 6930SOL    HW227486   2.646   3.421   0.711  1.1874  2.2636 -1.6647
 6930SOL    HW327487   2.575   3.353   0.596  1.4878 -0.3481 -0.3865
 6930SOL    MW427488   2.573   3.397   0.672 -0.7537  0.2802  0.1422
 6931SOL     OW27489   1.785   1.106   2.075 -0.3269 -0.2591  0.3298
 6931SOL    HW227490   1.818   1.137   2.160  1.6740 -0.9706 -0.1565
 6931SOL    HW327491   1.690   1.122   2.080  0.1457  3.2171  1.2411
 6931SOL    MW427492   1.777   1.112   2.087  0.1840  0.2271  0.3714
 6932SOL     OW27493   4.878   3.340   5.102 -0.1171  0.0865  0.1658
 6932SOL    HW227494   4.896   3.429   5.133  1.8552  0.8937 -2.8297
 6932SOL    HW327495   4.854   3.352   5.010 -1.5163 -2.3944  0.1425
 6932SOL    MW427496   4.877   3.353   5.094  0.1015 -0.0719 -0.1943
 6933SOL     OW27497   2.521   0.004   0.998 -0.1693  0.8424  0.3907
 6933SOL    HW227498   2.543  -0.006   0.905 -2.3699  0.6940 -0.1703
 6933SOL    HW327499   2.590  -0.043   1.044  0.2066 -0.3076 -1.2566
 6933SOL    MW427500   2.533  -0.004   0.991 -0.6440  0.2169  1.2026
 6934SOL     OW27501   5.064   4.743   1.099  0.6225  0.4932  1.6456
 6934SOL    HW227502   5.004   4.702   1.161  1.1402 -2.1263  0.5611
 6934SOL    HW327503   5.015   4.818   1.064 -1.5106 -0.7383  1.8194
 6934SOL    MW427504   5.049   4.748   1.102 -0.3796 -0.0257  0.0059
 6935SOL     OW27505   4.674   1.470   1.157  0.3639  0.5890  0.7382
 6935SOL    HW227506   4.608   1.434   1.216  0.3367  0.1534  0.4476
 6935SOL    HW327507   4.645   1.559   1.139 -1.5041 -0.3698 -1.3661
 6935SOL    MW427508   4.662   1.477   1.162  0.1511 -0.5534 -0.3371
 6936SOL     OW27509   5.705   1.931   0.064 -0.9826  0.8606 -0.2537
 6936SOL    HW227510   5.732   1.940   0.156  0.2106 -1.9516 -0.2286
 6936SOL    HW327511   5.784   1.952   0.014 -0.2748 -1.8048 -0.3965
 6936SOL    MW427512   5.719   1.935   0.070  0.4608 -0.4960  0.0587
 6937SOL     OW27513   0.117   4.796   1.510 -0.3754  0.2107  0.0090
 6937SOL    HW227514   0.100   4.807   1.416  0.7938 -0.1021 -0.2564
 6937SOL    HW327515   0.094   4.880   1.548 -1.0290  0.2864 -0.5315
 6937SOL    MW427516   0.112   4.809   1.503 -0.9310  0.0620  0.3174
 6938SOL     OW27517   5.416   1.996   0.546 -0.4007  0.1574  0.2024
 6938SOL    HW227518   5.438   2.034   0.461 -1.8352 -1.7903 -1.1278
 6938SOL    HW327519   5.402   2.072   0.603 -0.5736  1.5593 -1.6041
 6938SOL    MW427520   5.417   2.011   0.543  0.0111  0.4412 -0.0330
 6939SOL     OW27521   2.613   6.190   4.457  0.3284 -0.2671  0.0176
 6939SOL    HW227522   2.640   6.272   4.416  0.4493 -0.8431 -1.0773
 6939SOL    HW327523   2.638   6.122   4.395  0.1649 -1.1408  0.8746
 6939SOL    MW427524   2.620   6.192   4.444 -0.4436 -0.0368 -0.3187
 6940SOL     OW27525   2.466   3.335   2.289  0.4427  0.1996 -0.1702
 6940SOL    HW227526   2.440   3.250   2.252 -0.2367 -0.5300  1.8452
 6940SOL    HW327527   2.408   3.398   2.247  0.1821 -0.4672 -0.8512
 6940SOL    MW427528   2.455   3.332   2.278 -0.1641  0.0699  0.1710
 6941SOL     OW27529   1.174   6.055   4.653  0.2530 -0.1807 -0.3135
 6941SOL    HW227530   1.181   6.120   4.723 -0.3730 -1.6386  1.1635
 6941SOL    HW327531   1.080   6.041   4.643  0.2847  0.7643 -2.2063
 6941SOL    MW427532   1.162   6.062   4.661  0.5661 -0.0141  0.3622
 6942SOL     OW27533   5.636   5.295   3.136 -0.2326 -0.0805 -0.0950
 6942SOL    HW227534   5.696   5.357   3.177 -0.8790  0.8585 -0.5551
 6942SOL    HW327535   5.692   5.220   3.113  0.4976  0.1969  0.7164
 6942SOL    MW427536   5.651   5.293   3.139  0.2481  0.5277  0.0329
 6943SOL     OW27537   4.097   5.956   4.048  0.2404  0.4141 -0.1216
 6943SOL    HW227538   4.006   5.928   4.057  0.3526 -0.1119 -0.5167
 6943SOL    HW327539   4.094   6.028   3.984 -0.0383  1.2364  0.8020
 6943SOL    MW427540   4.084   5.962   4.040  0.1947  0.0154 -0.2893
 6944SOL     OW27541   2.191   2.814   4.820 -0.4826  0.3741  0.1440
 6944SOL    HW227542   2.133   2.792   4.747  0.4199  1.2458 -0.8791
 6944SOL    HW327543   2.279   2.801   4.785 -0.0153  1.5850  0.8098
 6944SOL    MW427544   2.195   2.809   4.806  0.3977 -0.0223 -0.0916
 6945SOL     OW27545   2.794   1.667   5.015  0.3197 -0.2161 -0.1354
 6945SOL    HW227546   2.866   1.627   5.064  0.5959  1.2091  0.6584
 6945SOL    HW327547   2.738   1.706   5.082  0.2568  1.0387 -0.8839
 6945SOL    MW427548   2.796   1.667   5.030 -0.1429 -0.5239  0.0951
 6946SOL     OW27549   2.790   1.105   1.714  0.0427  0.1545  0.0868
 6946SOL    HW227550   2.868   1.132   1.665 -0.3476  0.7929 -0.2007
 6946SOL    HW327551   2.772   1.017   1.682 -0.9307  1.0082 -1.9042
 6946SOL    MW427552   2.798   1.097   1.703  0.2167  0.2182  0.0709
 6947SOL     OW27553   1.689   0.061   3.129  0.6464  0.0071 -0.0085
 6947SOL    HW227554   1.719   0.004   3.200  0.0989  0.7762  0.8606
 6947SOL    HW327555   1.642   0.002   3.069  2.2687 -0.8833 -0.4594
 6947SOL    MW427556   1.687   0.045   3.130 -0.8177  0.2520 -0.3347
 6948SOL     OW27557   4.428   3.060   1.615 -0.1512  0.4314  0.2501
 6948SOL    HW227558   4.416   3.037   1.707  1.9626  0.9139  0.6981
 6948SOL    HW327559   4.413   2.978   1.568  0.3023 -0.2112  1.1928
 6948SOL    MW427560   4.425   3.046   1.621  0.1409 -0.2141  0.3261
 6949SOL     OW27561   2.723   0.867   5.010  0.1906 -0.4848  0.1203
 6949SOL    HW227562   2.686   0.815   5.081 -1.9176  0.8988  0.1378
 6949SOL    HW327563   2.699   0.820   4.930  0.7932 -0.9954  0.2359
 6949SOL    MW427564   2.715   0.854   5.009  0.1499 -0.6686 -0.6162
 6950SOL     OW27565   4.504   2.905   3.666 -0.2578 -0.5580  0.2339
 6950SOL    HW227566   4.493   2.999   3.678  0.5541 -0.4250 -0.0328
 6950SOL    HW327567   4.599   2.891   3.666 -0.2413 -1.0021 -2.4426
 6950SOL    MW427568   4.515   2.916   3.668  0.4660  0.0429 -0.0435
 6951SOL     OW27569   3.874   6.353   1.637 -0.1063  0.1517 -0.6490
 6951SOL    HW227570   3.841   6.440   1.614  1.5227  0.7802 -0.7588
 6951SOL    HW327571   3.854   6.344   1.731 -0.3724  0.6028 -0.6599
 6951SOL    MW427572   3.867   6.364   1.647 -0.0685  0.0600  0.2303
 6952SOL     OW27573   2.030   0.762   1.734 -0.0824  0.0795  0.3008
 6952SOL    HW227574   2.010   0.677   1.693 -0.6333  0.2743  0.1511
 6952SOL    HW327575   2.112   0.747   1.781 -1.0624 -1.0830  1.7864
 6952SOL    MW427576   2.038   0.749   1.735  0.3642  0.2012 -0.7490
 6953SOL     OW27577   3.791   0.174   1.541  0.2841  0.0319  0.2817
 6953SOL    HW227578   3.760   0.262   1.563  0.2330  0.5461 -1.7028
 6953SOL    HW327579   3.878   0.187   1.504  0.4833 -0.8181  0.4213
 6953SOL    MW427580   3.798   0.187   1.539 -0.4006  0.0696  0.6326
 6954SOL     OW27581   3.227   1.248   2.032 -0.0258  0.4492  0.6483
 6954SOL    HW227582   3.256   1.281   2.117 -0.0401 -0.0093  0.8344
 6954SOL    HW327583   3.158   1.309   2.005 -0.3700  0.3197  1.2044
 6954SOL    MW427584   3.222   1.260   2.040  0.4296  0.5492  0.2557
 6955SOL     OW27585   2.899   4.898   0.425 -0.2022 -0.0826  0.4229
 6955SOL    HW227586   2.910   4.811   0.464 -0.2257  0.1759  1.0018
 6955SOL    HW327587   2.846   4.882   0.347 -0.9511 -0.4674  1.0029
 6955SOL    MW427588   2.894   4.884   0.420  0.6099 -0.4388  0.1286
 6956SOL     OW27589   5.006   0.595   0.554  0.1492 -0.3340  0.3243
 6956SOL    HW227590   5.096   0.614   0.527  0.1780 -1.0854 -0.1545
 6956SOL    HW327591   4.976   0.529   0.491 -0.9320  0.3207  0.1334
 6956SOL    MW427592   5.014   0.589   0.542  0.3432  0.3991  0.0294
 6957SOL     OW27593   4.524   3.445   6.088  0.4365 -0.2106  0.4885
 6957SOL    HW227594   4.573   3.527   6.085  0.0993 -0.0247 -0.1539
 6957SOL    HW327595   4.434   3.471   6.109  0.1929 -0.3394 -0.3436
 6957SOL    MW427596   4.518   3.460   6.090 -0.6881  0.5680 -0.1983
 6958SOL     OW27597   5.506   5.756   2.852 -0.0714 -0.3698  0.1789
 6958SOL    HW227598   5.561   5.815   2.802 -0.6698  0.2356  0.2263
 6958SOL    HW327599   5.461   5.703   2.787  0.2194 -0.5565  0.1271
 6958SOL    MW427600   5.507   5.757   2.837 -0.1355  0.5481  0.3127
 6959SOL     OW27601   5.012   3.708   4.989 -0.2841  0.5026  0.3797
 6959SOL    HW227602   5.088   3.764   4.977 -0.7163  1.5286  2.1223
 6959SOL    HW327603   5.043   3.620   4.968  0.7443  1.2036 -1.1687
 6959SOL    MW427604   5.026   3.703   4.985  0.0155 -0.6089  0.1100
 6960SOL     OW27605   5.858   5.736   4.346 -0.5764 -0.2338 -0.4493
 6960SOL    HW227606   5.874   5.761   4.255 -1.4616 -1.6443 -1.0177
 6960SOL    HW327607   5.763   5.729   4.353 -0.5843  0.7697  0.8631
 6960SOL    MW427608   5.848   5.738   4.335 -0.1334 -0.3792 -0.6036
 6961SOL     OW27609   4.085   5.334   2.266  0.1007  0.2543  0.4961
 6961SOL    HW227610   4.144   5.407   2.288 -1.1856  2.8764 -3.6496
 6961SOL    HW327611   4.010   5.346   2.325  0.3626  1.7067  0.5815
 6961SOL    MW427612   4.083   5.345   2.277  0.8708  0.3305  0.6093
 6962SOL     OW27613   3.994   2.507   0.428 -1.3998  0.3863 -0.4482
 6962SOL    HW227614   4.035   2.592   0.447 -0.3473 -0.4054  0.9583
 6962SOL    HW327615   3.911   2.509   0.475 -0.0603 -0.4564  2.1531
 6962SOL    MW427616   3.989   2.519   0.437 -0.1865 -0.2303 -0.1879
 6963SOL     OW27617   6.414   6.351   2.876  0.6710 -0.7944 -0.4709
 6963SOL    HW227618   6.465   6.425   2.844  0.4286 -1.3170 -2.1443
 6963SOL    HW327619   6.476   6.279   2.881  0.1948 -1.3680 -2.2749
 6963SOL    MW427620   6.429   6.351   2.873  0.7016  0.2763  0.0218
 6964SOL     OW27621   3.179   4.845   2.638 -0.0849  0.3810 -0.0298
 6964SOL    HW227622   3.104   4.824   2.693 -0.3909  0.4299 -0.4217
 6964SOL    HW327623   3.176   4.940   2.628 -0.3433  0.3254 -0.5558
 6964SOL    MW427624   3.169   4.855   2.644 -0.2055 -0.1209 -0.0380
 6965SOL     OW27625   4.293   0.863   2.814 -0.2049  0.3165  0.0913
 6965SOL    HW227626   4.336   0.803   2.875  1.8944 -0.7883 -2.2874
 6965SOL    HW327627   4.200   0.855   2.835  0.2236 -1.7839  1.5918
 6965SOL    MW427628   4.286   0.854   2.825  0.2142 -0.4425  0.2029
 6966SOL     OW27629   0.196   2.786   2.274  0.5785  0.1686 -0.1143
 6966SOL    HW227630   0.232   2.827   2.353  0.7503  0.8491 -0.5429
 6966SOL    HW327631   0.157   2.704   2.306  0.9344  0.2758  0.6259
 6966SOL    MW427632   0.196   2.780   2.289 -0.0232 -0.1952 -0.4101
 6967SOL     OW27633   3.908   4.677   4.840  0.4221 -0.4100  0.1151
 6967SOL    HW227634   3.821   4.646   4.866  0.4740 -1.7190 -1.1502
 6967SOL    HW327635   3.896   4.714   4.753  1.0802 -0.3954  0.0227
 6967SOL    MW427636   3.895   4.678   4.832  0.0666 -0.4648  0.0865
 6968SOL     OW27637   0.919   5.614   6.310 -0.0522 -0.4214 -0.0027
 6968SOL    HW227638   0.832   5.650   6.327  0.7341  2.2693 -1.1591
 6968SOL    HW327639   0.958   5.605   6.397 -1.1131 -0.7180  0.4609
 6968SOL    MW427640   0.913   5.617   6.324 -0.5202 -0.4559 -0.5407
 6969SOL     OW27641   2.018   2.945   6.372 -0.3168  0.1542  0.1556
 6969SOL    HW227642   2.029   2.942   6.277 -1.7891 -1.5284 -0.0044
 6969SOL    HW327643   2.078   2.879   6.406 -3.3516 -3.0596 -0.1089
 6969SOL    MW427644   2.027   2.936   6.364  0.0496  0.0433 -0.4997
 6970SOL     OW27645   5.860   1.252   5.594  0.2613  0.0711 -0.4734
 6970SOL    HW227646   5.922   1.224   5.527  0.1415  1.0163 -0.9903
 6970SOL    HW327647   5.821   1.170   5.626  2.2476 -0.6127  0.3497
 6970SOL    MW427648   5.863   1.237   5.590 -0.0165  0.4034 -0.4901
 6971SOL     OW27649   4.785   3.820   5.361  0.1793 -0.5821  0.1310
 6971SOL    HW227650   4.692   3.824   5.340  0.0213 -1.0896  0.6947
 6971SOL    HW327651   4.821   3.901   5.327 -0.0386 -1.3576 -2.1806
 6971SOL    MW427652   4.777   3.831   5.354  0.3544  0.5153 -0.2219
 6972SOL     OW27653   4.174   5.843   2.663 -0.6846  0.1557  0.0393
 6972SOL    HW227654   4.243   5.777   2.655  1.4301  2.4519 -3.4389
 6972SOL    HW327655   4.103   5.810   2.607  0.5148  0.8565 -2.0016
 6972SOL    MW427656   4.174   5.830   2.655  0.3486  0.2798  0.0072
 6973SOL     OW27657   1.582   3.071   0.161 -0.1533 -0.1288 -0.3720
 6973SOL    HW227658   1.651   3.089   0.097  0.2364 -1.1295 -0.2646
 6973SOL    HW327659   1.501   3.087   0.114  0.1356 -0.4199 -0.9853
 6973SOL    MW427660   1.581   3.075   0.146 -0.1372  0.7539 -0.0984
 6974SOL     OW27661   0.362   5.252   3.210  0.1326 -0.5877 -0.1271
 6974SOL    HW227662   0.347   5.204   3.292 -0.0891 -1.0015 -0.4090
 6974SOL    HW327663   0.317   5.336   3.223  1.0000 -0.2185  0.5886
 6974SOL    MW427664   0.354   5.257   3.223 -0.3391  0.5232 -0.3362
 6975SOL     OW27665   0.371   4.909   0.936  0.4017  0.1732  0.1274
 6975SOL    HW227666   0.452   4.887   0.892 -0.2801  1.2906 -1.7802
 6975SOL    HW327667   0.398   4.932   1.025  2.6064  3.1870 -1.1512
 6975SOL    MW427668   0.385   4.909   0.942 -0.2279  0.1189 -0.3229
 6976SOL     OW27669   6.048   2.753   1.358 -0.0297  0.1005  0.2335
 6976SOL    HW227670   6.026   2.666   1.324 -0.7875  0.2906  0.2162
 6976SOL    HW327671   5.994   2.813   1.306 -2.7732  0.2926  3.0009
 6976SOL    MW427672   6.038   2.749   1.346  0.3738  0.7176  0.1518
 6977SOL     OW27673   4.628   6.309   1.984  0.3105  0.0709  0.3726
 6977SOL    HW227674   4.545   6.263   1.971  0.0184  0.2087  1.5809
 6977SOL    HW327675   4.679   6.289   1.906 -0.5556 -0.6823 -0.0238
 6977SOL    MW427676   4.624   6.300   1.972 -0.3955 -0.0317  0.2485
 6978SOL     OW27677   4.350  -0.003   2.636 -0.0018 -0.0102  0.6782
 6978SOL    HW227678   4.383  -0.090   2.613  0.5007  0.7919 -1.9136
 6978SOL    HW327679   4.401   0.058   2.583 -1.9954  1.6983  0.5609
 6978SOL    MW427680   4.361  -0.006   2.626 -0.2660 -0.2699 -0.1569
 6979SOL     OW27681   5.573   3.733   5.512  0.3047  0.3100  0.1174
 6979SOL    HW227682   5.574   3.810   5.455 -1.5670  0.0871 -0.2620
 6979SOL    HW327683   5.583   3.659   5.453 -3.9033 -0.0918 -0.3872
 6979SOL    MW427684   5.575   3.734   5.497 -0.1279  0.1386 -0.5667
 6980SOL     OW27685   4.610   0.469   0.665  0.0900  0.0990  0.1377
 6980SOL    HW227686   4.640   0.533   0.729  0.0668  0.4618 -0.2084
 6980SOL    HW327687   4.559   0.520   0.602  1.1494 -0.0235 -0.8615
 6980SOL    MW427688   4.608   0.484   0.665 -0.1493 -0.2437 -0.4092
 6981SOL     OW27689   3.667   3.528   6.309  1.0708 -0.7068 -0.5564
 6981SOL    HW227690   3.724   3.539   6.233 -1.7080  2.1154 -2.4546
 6981SOL    HW327691   3.648   3.617   6.338  1.3506 -1.6705  3.0243
 6981SOL    MW427692   3.672   3.541   6.303  0.0539  0.4391  0.1744
 6982SOL     OW27693   2.264   5.786   0.337 -0.2143 -0.5024 -0.0976
 6982SOL    HW227694   2.311   5.788   0.253  1.8857  2.0399  0.9760
 6982SOL    HW327695   2.177   5.819   0.316  0.7172  1.5039 -1.1525
 6982SOL    MW427696   2.259   5.791   0.323  0.5890 -0.0587  0.4121
 6983SOL     OW27697   6.054   5.309   0.075 -0.3792  0.3035  0.0837
 6983SOL    HW227698   6.069   5.355  -0.008 -1.5730  0.5572 -0.0101
 6983SOL    HW327699   5.972   5.261   0.061 -0.8074  0.6686  1.2496
 6983SOL    MW427700   6.045   5.308   0.062 -0.1405 -0.3156  0.0015
 6984SOL     OW27701   5.503   0.471   0.320  0.0431 -0.7033 -0.1756
 6984SOL    HW227702   5.509   0.389   0.368  0.8335 -0.5747 -0.0446
 6984SOL    HW327703   5.456   0.449   0.239  0.1156 -1.2494 -0.0701
 6984SOL    MW427704   5.497   0.458   0.315 -0.4726  0.5285  0.7664
 6985SOL     OW27705   5.768   5.221   0.434 -0.2666 -0.2979 -0.5769
 6985SOL    HW227706   5.841   5.272   0.401 -0.8717  0.5794 -0.5834
 6985SOL    HW327707   5.775   5.137   0.389 -0.4323  0.4742 -2.1078
 6985SOL    MW427708   5.778   5.216   0.424  0.0516  0.1921  0.5037
 6986SOL     OW27709   5.063   4.748   2.933  0.0054 -0.2919  0.6399
 6986SOL    HW227710   4.987   4.797   2.902  0.6676  0.4136  0.0967
 6986SOL    HW327711   5.037   4.656   2.926 -0.6772 -0.0662  0.1432
 6986SOL    MW427712   5.050   4.742   2.928  0.3157  0.2855 -0.0037
 6987SOL     OW27713   4.186   4.541   3.644 -0.0955 -0.2533 -0.2245
 6987SOL    HW227714   4.247   4.468   3.635  2.2280  1.5787 -0.2519
 6987SOL    HW327715   4.203   4.596   3.568 -1.7808  0.3584 -0.1927
 6987SOL    MW427716   4.196   4.539   3.633 -0.1015 -0.1336  0.3035
 6988SOL     OW27717   0.883   4.705   1.864 -0.4256 -0.8434  0.2258
 6988SOL    HW227718   0.911   4.650   1.791  0.4718 -1.4915  1.0313
 6988SOL    HW327719   0.919   4.792   1.844  0.3129 -1.1529  0.1637
 6988SOL    MW427720   0.892   4.710   1.852 -0.7188 -0.3119  0.2627
 6989SOL     OW27721   2.797   2.047   5.430  0.1437 -0.3018 -0.5014
 6989SOL    HW227722   2.764   2.073   5.516 -2.4024  0.3769 -1.5944
 6989SOL    HW327723   2.718   2.032   5.377  1.6179 -0.8536 -2.6824
 6989SOL    MW427724   2.782   2.048   5.434 -0.4807  0.1438 -0.3494
 6990SOL     OW27725   2.802   4.962   4.835  0.1118 -0.3910  0.2812
 6990SOL    HW227726   2.882   4.919   4.805 -0.9912 -2.9113  0.7045
 6990SOL    HW327727   2.754   4.893   4.882 -1.7342  1.3758  1.1200
 6990SOL    MW427728   2.806   4.947   4.837  0.0895 -0.3719 -0.3786
 6991SOL     OW27729   4.417   0.368   2.007  0.3014  0.1903  0.0972
 6991SOL    HW227730   4.415   0.368   2.102 -1.0357  2.7348  0.1649
 6991SOL    HW327731   4.483   0.433   1.984  0.9417 -0.7235 -0.7605
 6991SOL    MW427732   4.425   0.376   2.016 -0.9712 -0.1329  0.5883
 6992SOL     OW27733   2.693   2.392   1.113 -0.1697 -0.0286  0.2286
 6992SOL    HW227734   2.671   2.486   1.111  0.2025  0.0641  0.3928
 6992SOL    HW327735   2.735   2.376   1.028 -0.6362 -0.1510  0.0155
 6992SOL    MW427736   2.695   2.403   1.101 -0.1337  0.0423 -0.4356
 6993SOL     OW27737   2.630   4.627   3.921  0.0590  0.5215 -0.2395
 6993SOL    HW227738   2.687   4.574   3.977 -0.9412  0.9465  1.2564
 6993SOL    HW327739   2.602   4.699   3.978 -1.2038  0.8323 -1.2265
 6993SOL    MW427740   2.634   4.629   3.936 -0.1033 -0.1986  0.0016
 6994SOL     OW27741   4.436   2.880   4.005 -0.3893 -0.1586  0.1992
 6994SOL    HW227742   4.430   2.851   3.914  1.2650 -1.0698  0.3412
 6994SOL    HW327743   4.483   2.963   4.000 -1.4675  0.4755  0.1466
 6994SOL    MW427744   4.441   2.887   3.992 -0.2045  0.6464 -0.3369
 6995SOL     OW27745   3.440   4.498   4.700 -0.0158  0.1387  0.1338
 6995SOL    HW227746   3.413   4.571   4.644  1.4680  0.9853  0.4484
 6995SOL    HW327747   3.393   4.422   4.666 -1.9827  1.3189  0.1027
 6995SOL    MW427748   3.430   4.498   4.688 -0.1067 -0.3751 -0.1060
 6996SOL     OW27749   5.861   0.863   4.132  0.4422  0.5341 -0.4949
 6996SOL    HW227750   5.942   0.900   4.097 -0.6017  2.0097 -1.4937
 6996SOL    HW327751   5.801   0.938   4.138 -1.4627 -0.8111 -1.6386
 6996SOL    MW427752   5.864   0.878   4.128  0.2074  0.3840  0.4649
 6997SOL     OW27753   5.981   1.760   4.393 -0.0941 -0.3119 -0.4247
 6997SOL    HW227754   5.916   1.696   4.363 -0.0852 -0.0165 -1.1021
 6997SOL    HW327755   5.958   1.840   4.345  0.9877 -0.2962 -0.9363
 6997SOL    MW427756   5.969   1.762   4.382  0.3931  0.2690  0.1951
 6998SOL     OW27757   5.303   4.664   0.700  0.9825  1.1933 -0.1945
 6998SOL    HW227758   5.315   4.609   0.623  0.2819  0.6478  0.0777
 6998SOL    HW327759   5.282   4.750   0.664 -1.5844  0.4670 -0.6702
 6998SOL    MW427760   5.302   4.668   0.685  0.5849 -0.5863  0.7268
 6999SOL     OW27761   4.986   4.823   3.603  0.3005  0.7094  0.3708
 6999SOL    HW227762   5.080   4.844   3.599  0.3599  0.3244 -0.6924
 6999SOL    HW327763   4.942   4.908   3.603  0.6511  0.9022  1.3232
 6999SOL    MW427764   4.993   4.837   3.602  0.3705  0.3149 -0.1549
 7000SOL     OW27765   4.021   1.113   5.177  0.3056  0.3082 -0.0033
 7000SOL    HW227766   3.937   1.114   5.223  0.3784 -1.5269  0.2303
 7000SOL    HW327767   4.011   1.044   5.112  1.3711  0.6207 -0.5055
 7000SOL    MW427768   4.008   1.104   5.174 -0.4603  0.1306  0.0945
 7001SOL     OW27769   2.342   5.898   5.257  0.5051 -0.9647  0.3267
 7001SOL    HW227770   2.262   5.881   5.207  0.6161  0.0507 -0.2286
 7001SOL    HW327771   2.312   5.912   5.347  0.2523 -2.3191  0.4663
 7001SOL    MW427772   2.328   5.898   5.262  0.9736  0.4416  0.4552
 7002SOL     OW27773   4.206   0.224   4.103 -0.2158  0.5902  0.2612
 7002SOL    HW227774   4.300   0.235   4.115 -0.0181 -1.0704  0.3960
 7002SOL    HW327775   4.174   0.193   4.188 -0.5141 -0.9084 -0.3587
 7002SOL    MW427776   4.214   0.221   4.116 -0.0297 -0.0606 -0.0183
 7003SOL     OW27777   3.162   1.052   1.008 -0.1973 -0.7638 -0.0950
 7003SOL    HW227778   3.139   0.973   0.961  0.2857 -0.5498 -0.7051
 7003SOL    HW327779   3.205   1.108   0.943 -2.0493  0.7296 -0.1392
 7003SOL    MW427780   3.165   1.049   0.993 -0.3946 -0.0887  0.1784
 7004SOL     OW27781   5.029   2.954   4.454  0.5284 -0.2258  0.4418
 7004SOL    HW227782   4.946   2.958   4.501 -0.6552 -1.6136 -1.3858
 7004SOL    HW327783   5.047   2.860   4.445  1.8393  0.0401  0.0160
 7004SOL    MW427784   5.021   2.942   4.459  0.2509  0.2307 -0.3206
 7005SOL     OW27785   4.659   3.334   0.637  0.1763  0.1810  0.3126
 7005SOL    HW227786   4.594   3.313   0.570  1.2746 -0.9315 -0.4420
 7005SOL    HW327787   4.642   3.272   0.708  0.3468 -0.0426  0.1584
 7005SOL    MW427788   4.648   3.323   0.638  0.0346  0.1320 -0.4117
 7006SOL     OW27789   1.160   0.704   0.343  0.5065  0.2252  0.1792
 7006SOL    HW227790   1.168   0.674   0.252  1.0068 -1.4832  0.7620
 7006SOL    HW327791   1.077   0.667   0.374  0.3468  0.7871  0.4507
 7006SOL    MW427792   1.150   0.695   0.335  0.4572  0.0890  0.5872
 7007SOL     OW27793   3.579   0.898   0.701 -0.2183  0.1302 -0.5801
 7007SOL    HW227794   3.505   0.839   0.714  0.4197 -0.7616 -0.8965
 7007SOL    HW327795   3.644   0.845   0.654  1.4947  0.2007  1.5833
 7007SOL    MW427796   3.578   0.883   0.696  0.1067 -0.2828  0.5654
 7008SOL     OW27797   6.124   2.279   5.439  0.4356 -0.2485 -0.5407
 7008SOL    HW227798   6.170   2.197   5.453 -0.0833 -0.4842 -0.1903
 7008SOL    HW327799   6.046   2.255   5.389  0.3846  0.0558 -0.6113
 7008SOL    MW427800   6.120   2.265   5.434  0.8727 -0.0177  0.0565
 7009SOL     OW27801   4.521   0.396   3.078 -0.4092  0.1317  0.6385
 7009SOL    HW227802   4.568   0.408   3.160 -1.5531  0.9895  1.1853
 7009SOL    HW327803   4.450   0.336   3.099 -0.2372 -0.2768  0.0799
 7009SOL    MW427804   4.518   0.390   3.091 -0.1445 -0.1437  0.3502
 7010SOL     OW27805   1.910   2.645   3.836  0.1573  0.1089  0.3869
 7010SOL    HW227806   1.817   2.665   3.846  0.1432  0.5743 -0.5449
 7010SOL    HW327807   1.917   2.608   3.748  0.7828 -0.3909  0.6411
 7010SOL    MW427808   1.899   2.643   3.826  0.2235  0.1784 -0.2170
 7011SOL     OW27809   0.372   1.086   2.814  0.3558 -0.4314 -0.1568
 7011SOL    HW227810   0.378   1.112   2.905  0.0645  0.7778 -0.4693
 7011SOL    HW327811   0.298   1.136   2.779 -0.1977 -1.6421 -0.8105
 7011SOL    MW427812   0.363   1.096   2.821  0.3264  0.0104  0.3393
 7012SOL     OW27813   1.017   5.786   5.987  0.3665  1.0752 -0.1197
 7012SOL    HW227814   1.018   5.692   5.972  0.0144  0.9660  0.5157
 7012SOL    HW327815   1.000   5.824   5.901 -1.8591  0.4559 -0.0013
 7012SOL    MW427816   1.015   5.779   5.974  0.4485 -1.0810 -0.1885
 7013SOL     OW27817   2.560   0.248   0.656 -0.4045  0.4226  0.0568
 7013SOL    HW227818   2.618   0.231   0.731 -1.0286 -0.9503  0.2565
 7013SOL    HW327819   2.615   0.296   0.594  1.5315 -2.2048 -0.4576
 7013SOL    MW427820   2.575   0.252   0.658  0.0292 -0.1618  0.7631
 7014SOL     OW27821   5.378   1.055   0.318  0.1351  0.1014  0.4603
 7014SOL    HW227822   5.385   0.961   0.300 -2.3051 -0.1752  0.5761
 7014SOL    HW327823   5.340   1.092   0.239  0.7436  0.9545  0.5532
 7014SOL    MW427824   5.374   1.047   0.305 -0.6005  0.0667 -0.6272
 7015SOL     OW27825   5.933   4.729   2.208  0.1588  0.2015 -0.2288
 7015SOL    HW227826   5.969   4.710   2.294  1.3840  0.3115 -0.6951
 7015SOL    HW327827   5.934   4.645   2.162 -0.6180  0.1158 -0.1076
 7015SOL    MW427828   5.938   4.716   2.213 -0.4543 -0.0668  0.4121
 7016SOL     OW27829   0.061   2.259   2.292 -0.2832 -0.6323 -0.6536
 7016SOL    HW227830  -0.032   2.274   2.309 -0.1080 -0.7035  0.4555
 7016SOL    HW327831   0.102   2.344   2.305  0.0311 -0.9611  0.6124
 7016SOL    MW427832   0.054   2.272   2.296  0.5001  0.4741  0.2092
 7017SOL     OW27833   5.954   3.888   2.012 -0.2074  0.3822  0.2537
 7017SOL    HW227834   5.933   3.980   2.032  0.9547  0.7266 -0.0765
 7017SOL    HW327835   5.952   3.844   2.097  2.6626  1.4308  0.9413
 7017SOL    MW427836   5.951   3.894   2.026 -0.4015  0.9594 -0.5888
 7018SOL     OW27837   4.506   5.072   3.554 -0.2936  0.6334 -1.0161
 7018SOL    HW227838   4.588   5.072   3.505  1.0345 -0.0341  1.1049
 7018SOL    HW327839   4.446   5.020   3.500  1.9847 -2.7190 -0.6176
 7018SOL    MW427840   4.509   5.065   3.540 -0.8332  0.1975  0.0757
 7019SOL     OW27841   5.754   3.227   1.199 -0.5601 -0.2344 -0.1915
 7019SOL    HW227842   5.661   3.214   1.214 -0.9901 -0.0906 -2.4535
 7019SOL    HW327843   5.762   3.321   1.182  0.0538 -0.2081  0.1963
 7019SOL    MW427844   5.743   3.238   1.199 -0.0596 -0.0366  0.3846
 7020SOL     OW27845   0.936   2.308   4.453 -0.2732  0.6295  0.0120
 7020SOL    HW227846   0.975   2.222   4.436 -0.6922  0.4040  0.1954
 7020SOL    HW327847   0.900   2.301   4.541 -2.7005  0.0869 -0.9402
 7020SOL    MW427848   0.937   2.296   4.462  0.1394  0.2091  0.4715
 7021SOL     OW27849   1.723   3.621   5.460 -0.3512  0.0330  0.2682
 7021SOL    HW227850   1.627   3.620   5.461 -0.4427  2.3817  1.7671
 7021SOL    HW327851   1.746   3.663   5.377 -0.6450 -0.1493  0.0945
 7021SOL    MW427852   1.713   3.626   5.449 -0.0671 -0.5249  0.5768
 7022SOL     OW27853   1.329   1.429   4.752  0.8675  0.0146 -0.0980
 7022SOL    HW227854   1.398   1.396   4.811  0.3658  0.6802  0.8929
 7022SOL    HW327855   1.250   1.384   4.780  0.7241 -0.0995 -0.6707
 7022SOL    MW427856   1.328   1.419   4.764 -0.5106  0.1196  0.5207
 7023SOL     OW27857   2.506   3.838   2.646  0.2213  0.0697  0.2301
 7023SOL    HW227858   2.579   3.795   2.691 -1.5232 -0.2704  3.0242
 7023SOL    HW327859   2.491   3.785   2.568  0.7931 -1.9304  1.4053
 7023SOL    MW427860   2.513   3.825   2.642 -0.2181  1.7351  0.3030
 7024SOL     OW27861   1.083   4.356   5.822 -0.1626 -0.2557 -0.3166
 7024SOL    HW227862   1.113   4.422   5.886  1.5627 -0.2868 -1.0456
 7024SOL    HW327863   1.149   4.287   5.826 -0.8491 -0.9765 -1.0660
 7024SOL    MW427864   1.096   4.356   5.831  0.6680  0.4051 -0.3147
 7025SOL     OW27865   2.297   4.265   4.810  0.5230  0.2978  0.4737
 7025SOL    HW227866   2.276   4.357   4.795 -1.0276 -0.0354  0.4081
 7025SOL    HW327867   2.392   4.262   4.814  0.7380  1.5253 -2.0292
 7025SOL    MW427868   2.307   4.276   4.809 -0.2873  0.0325 -0.0696
 7026SOL     OW27869   3.752   6.112   1.578 -0.4869 -0.4454 -0.3328
 7026SOL    HW227870   3.787   6.198   1.599 -2.4848  0.5676 -0.9772
 7026SOL    HW327871   3.826   6.065   1.539  1.1882  0.2240  1.8604
 7026SOL    MW427872   3.767   6.117   1.576 -0.0136  0.1833 -0.0691
 7027SOL     OW27873   3.262   5.803   2.890  0.6779 -0.0467 -0.5982
 7027SOL    HW227874   3.281   5.894   2.870  0.0888  0.3112  0.4212
 7027SOL    HW327875   3.319   5.782   2.964 -0.8024  0.2037  0.6602
 7027SOL    MW427876   3.272   5.812   2.897  0.0587 -0.5352  0.0847
 7028SOL     OW27877   0.786   6.192   4.881  0.0574 -0.1944  0.3514
 7028SOL    HW227878   0.851   6.231   4.823  3.9029 -0.3467  4.0859
 7028SOL    HW327879   0.752   6.265   4.933 -2.8583 -0.1442 -1.4090
 7028SOL    MW427880   0.790   6.206   4.880  0.3868  0.6797  0.1704
 7029SOL     OW27881   3.363   2.814   3.794 -0.5181 -0.1793 -0.4698
 7029SOL    HW227882   3.457   2.814   3.777 -0.5431  0.4361 -0.6115
 7029SOL    HW327883   3.355   2.844   3.885 -0.6744  1.6911 -1.0662
 7029SOL    MW427884   3.375   2.818   3.804  0.4688 -0.4019  0.1387
 7030SOL     OW27885   0.771   4.209   3.553  0.4335  0.1895 -0.4700
 7030SOL    HW227886   0.789   4.203   3.459 -0.4810 -2.2073 -0.5618
 7030SOL    HW327887   0.682   4.177   3.563  0.6828 -0.0791  1.2845
 7030SOL    MW427888   0.762   4.204   3.542 -0.3898  0.2083 -0.3742
 7031SOL     OW27889   5.678   0.000   1.701  0.7463  0.5424 -0.5634
 7031SOL    HW227890   5.773   0.008   1.712  1.2381 -0.4581 -3.2619
 7031SOL    HW327891   5.643   0.005   1.790  3.1416  2.7217  0.3833
 7031SOL    MW427892   5.686   0.002   1.714  0.3008  0.2168 -0.3208
 7032SOL     OW27893   5.726   2.945   4.148  0.0740  0.2050 -0.6566
 7032SOL    HW227894   5.739   3.039   4.154  1.0484  0.0714 -0.5377
 7032SOL    HW327895   5.704   2.929   4.056  1.4405  0.3825 -1.0387
 7032SOL    MW427896   5.725   2.955   4.137  0.0552 -0.7589 -0.5824
 7033SOL     OW27897   0.693   1.587   0.834 -0.0230 -0.1041  0.2639
 7033SOL    HW227898   0.741   1.513   0.796  0.2660 -0.9506  2.1774
 7033SOL    HW327899   0.691   1.653   0.764  2.0042 -0.8863 -0.5993
 7033SOL    MW427900   0.699   1.586   0.820 -0.0049 -0.8070 -0.1609
 7034SOL     OW27901   2.288   0.057   2.440  0.3720  0.4336  0.2093
 7034SOL    HW227902   2.371   0.101   2.419 -1.1780  2.6574 -1.8201
 7034SOL    HW327903   2.270   0.003   2.363  0.1783 -0.4929  0.8855
 7034SOL    MW427904   2.297   0.055   2.427 -0.0871 -0.0453  0.2226
 7035SOL     OW27905   0.907   4.133   1.561  0.5432 -0.3457  0.7173
 7035SOL    HW227906   0.999   4.156   1.573  0.3092  0.5864  0.7798
 7035SOL    HW327907   0.869   4.139   1.648  0.4908 -1.0714  0.7509
 7035SOL    MW427908   0.914   4.137   1.574 -0.4069 -0.1460  0.1906
 7036SOL     OW27909   3.944   1.072   0.901 -0.0834 -0.1567  0.3720
 7036SOL    HW227910   3.852   1.097   0.908 -0.5641 -0.3513 -3.3334
 7036SOL    HW327911   3.991   1.155   0.896 -0.0679 -0.0624  1.6799
 7036SOL    MW427912   3.938   1.086   0.901 -0.7903  0.8433  0.1086
 7037SOL     OW27913   0.384   5.671   0.736  0.0407  0.7152 -0.1055
 7037SOL    HW227914   0.348   5.604   0.678  0.1958  1.9154 -1.6631
 7037SOL    HW327915   0.476   5.677   0.712  0.2279  0.8875  0.6210
 7037SOL    MW427916   0.391   5.663   0.725 -0.0478  0.6581  0.6143
 7038SOL     OW27917   0.533   5.886   1.466 -0.3070 -0.3103 -0.3809
 7038SOL    HW227918   0.579   5.964   1.437 -2.0278  0.6455 -0.6909
 7038SOL    HW327919   0.600   5.833   1.510  0.8908  1.3378 -0.1337
 7038SOL    MW427920   0.548   5.889   1.468 -0.7454 -0.6895  0.0375
 7039SOL     OW27921   1.686   6.125   3.891  0.6397  0.2024  0.3392
 7039SOL    HW227922   1.595   6.124   3.860  1.4043 -0.7153 -2.2150
 7039SOL    HW327923   1.723   6.204   3.852  1.5504 -0.7850 -0.8820
 7039SOL    MW427924   1.679   6.135   3.881  0.0101 -0.4392 -0.1275
 7040SOL     OW27925   6.345   5.067   1.754 -0.2280  0.6586 -0.0288
 7040SOL    HW227926   6.423   5.045   1.807 -0.3938  0.3600  0.0958
 7040SOL    HW327927   6.293   4.987   1.755 -0.1558  0.5973 -0.7935
 7040SOL    MW427928   6.349   5.054   1.761 -0.1096  0.0816  0.3417
 7041SOL     OW27929   3.255   5.217   5.480  0.0521 -0.4306  0.3249
 7041SOL    HW227930   3.219   5.129   5.467 -0.4340 -0.2328  0.2951
 7041SOL    HW327931   3.344   5.203   5.511  0.0472 -0.9328  0.1161
 7041SOL    MW427932   3.262   5.204   5.482  0.3010 -0.7070 -0.5376
 7042SOL     OW27933   0.485   3.610   1.145 -0.0975 -0.1858  0.3763
 7042SOL    HW227934   0.480   3.593   1.051 -0.4034 -0.1147  0.3788
 7042SOL    HW327935   0.569   3.572   1.172 -0.5181 -1.2127  0.2850
 7042SOL    MW427936   0.496   3.603   1.136 -0.3955  0.1362  0.4245
 7043SOL     OW27937   2.283   2.162   2.466  0.5600  0.0828 -0.5956
 7043SOL    HW227938   2.218   2.129   2.404 -0.5525  0.8996  0.0960
 7043SOL    HW327939   2.354   2.097   2.463  0.3579 -0.1000 -2.3876
 7043SOL    MW427940   2.284   2.149   2.457 -0.7704  0.5158  0.8458
 7044SOL     OW27941   3.836   1.241   4.473  0.0539  0.1452 -0.5577
 7044SOL    HW227942   3.789   1.201   4.400  0.3920  1.8979 -1.7810
 7044SOL    HW327943   3.919   1.272   4.435 -0.2276  2.0561  0.2751
 7044SOL    MW427944   3.841   1.240   4.458 -0.0032 -0.2323  0.5081
 7045SOL     OW27945   4.992   0.401   6.168  0.2141  0.3803 -0.1988
 7045SOL    HW227946   4.898   0.404   6.185  0.3770  0.6202  0.7363
 7045SOL    HW327947   5.001   0.426   6.076 -0.8618 -2.9654 -1.3258
 7045SOL    MW427948   4.981   0.405   6.158 -0.3825  0.1110  0.4594
 7046SOL     OW27949   6.160   4.628   0.915 -0.2660  0.0706  0.0566
 7046SOL    HW227950   6.125   4.678   0.988 -0.3838  0.2851 -0.1460
 7046SOL    HW327951   6.147   4.684   0.838 -1.9199 -0.9464 -0.4525
 7046SOL    MW427952   6.154   4.642   0.914  0.4367  0.2378 -0.4225
 7047SOL     OW27953   5.319   2.966   3.481  0.1012 -0.0011  0.3937
 7047SOL    HW227954   5.390   2.993   3.539  2.6746  0.9646 -2.9131
 7047SOL    HW327955   5.342   2.878   3.453 -0.2649  0.1409 -0.3748
 7047SOL    MW427956   5.331   2.958   3.485  0.3534  0.0923  0.7620
 7048SOL     OW27957   6.145   5.139   2.100  0.1223  0.0154  0.2119
 7048SOL    HW227958   6.093   5.169   2.174 -0.7935 -0.6892 -0.1277
 7048SOL    HW327959   6.210   5.208   2.087 -1.9352  1.9117 -0.5743
 7048SOL    MW427960   6.147   5.152   2.108  0.5429  0.2192  0.1941
 7049SOL     OW27961   3.474   6.149   4.464 -0.2485 -0.3840 -0.2130
 7049SOL    HW227962   3.467   6.055   4.476 -0.9211 -0.3445 -0.2683
 7049SOL    HW327963   3.558   6.162   4.420 -1.0775 -1.1194 -2.0913
 7049SOL    MW427964   3.484   6.139   4.460  0.4530 -0.0350  0.1453
 7050SOL     OW27965   2.951   1.889   0.479 -0.1333  0.1175 -0.2213
 7050SOL    HW227966   2.937   1.978   0.513 -0.2735 -1.0927  3.3516
 7050SOL    HW327967   2.867   1.864   0.442 -1.2369  0.3283  1.9471
 7050SOL    MW427968   2.938   1.897   0.479 -0.0909  0.1158  0.3182
 7051SOL     OW27969   1.624   0.618   2.725  0.5261  0.0211 -0.0504
 7051SOL    HW227970   1.661   0.547   2.673 -0.1879  0.3139 -0.9871
 7051SOL    HW327971   1.689   0.688   2.721 -0.4976  0.9392 -2.5843
 7051SOL    MW427972   1.637   0.618   2.718 -0.5033  0.0966  0.4476
 7052SOL     OW27973   3.295   5.442   2.932 -0.0865  0.5266  1.0754
 7052SOL    HW227974   3.358   5.508   2.905  0.6261  0.3100  2.1569
 7052SOL    HW327975   3.323   5.362   2.887 -1.1687  1.0014 -0.5300
 7052SOL    MW427976   3.307   5.440   2.923 -0.0212 -0.0426 -0.0867
 7053SOL     OW27977   4.324   2.665   2.345  0.0174 -0.3457  0.1046
 7053SOL    HW227978   4.313   2.714   2.263 -0.0836  1.4849  1.1362
 7053SOL    HW327979   4.235   2.654   2.378  0.0761 -0.8411  0.0970
 7053SOL    MW427980   4.311   2.670   2.339  0.2835  0.0161 -0.6439
 7054SOL     OW27981   0.252   6.388   2.493 -0.2537  0.1260 -0.0079
 7054SOL    HW227982   0.213   6.464   2.537 -1.7754 -0.6531  0.0839
 7054SOL    HW327983   0.213   6.389   2.406  1.6639  0.8561 -0.9051
 7054SOL    MW427984   0.241   6.398   2.487 -0.4545 -0.4272  0.2870
 7055SOL     OW27985   0.761   4.400   4.923 -0.2356  0.1369 -0.2480
 7055SOL    HW227986   0.718   4.380   4.840  0.1520 -0.1021 -0.3969
 7055SOL    HW327987   0.703   4.362   4.989 -1.1351  1.3336 -0.3227
 7055SOL    MW427988   0.748   4.392   4.921 -0.0330  0.0473  0.1498
 7056SOL     OW27989   1.222   3.639   1.114 -0.3080  0.1257 -0.4076
 7056SOL    HW227990   1.212   3.661   1.021 -1.3493 -1.1683 -0.6370
 7056SOL    HW327991   1.296   3.578   1.116  1.6583  2.3803  0.0465
 7056SOL    MW427992   1.230   3.633   1.102 -0.7067  0.4591  0.1861
 7057SOL     OW27993   6.234   4.583   4.976 -0.2508  0.1427 -0.0814
 7057SOL    HW227994   6.142   4.579   5.001 -0.2850 -2.6506 -0.2958
 7057SOL    HW327995   6.280   4.532   5.044  1.0690  1.0129 -0.2762
 7057SOL    MW427996   6.228   4.575   4.988  0.2880  0.5462 -0.4562
 7058SOL     OW27997   0.280   1.451   3.158  0.3470 -0.7641 -0.0078
 7058SOL    HW227998   0.255   1.501   3.080 -0.3857 -0.9006  0.1311
 7058SOL    HW327999   0.234   1.495   3.230  1.2087 -0.4906  0.3905
 7058SOL    MW428000   0.271   1.464   3.157 -0.0167 -0.2187  0.0240
 7059SOL     OW28001   1.423   5.873   3.455  0.5963  0.1383  0.4881
 7059SOL    HW228002   1.333   5.907   3.456  0.3884 -0.4162  0.6213
 7059SOL    HW328003   1.452   5.888   3.365 -0.2636 -1.3024 -0.0761
 7059SOL    MW428004   1.415   5.880   3.443  0.3355 -0.2792  0.2868
 7060SOL     OW28005   0.600   4.745   2.247  0.1359 -0.0852 -0.1285
 7060SOL    HW228006   0.610   4.652   2.267  2.1704  0.1394  0.0435
 7060SOL    HW328007   0.687   4.774   2.220 -0.8353  1.3894 -1.9298
 7060SOL    MW428008   0.613   4.736   2.246  0.1931  0.2761 -0.1017
 7061SOL     OW28009   1.801   5.614   5.003  0.5960  0.0301 -0.2062
 7061SOL    HW228010   1.766   5.591   4.917 -0.1533  1.5186 -0.3512
 7061SOL    HW328011   1.894   5.594   4.998  0.3551 -0.9553 -0.9704
 7061SOL    MW428012   1.808   5.609   4.991  0.8362 -0.4792 -0.6318
 7062SOL     OW28013   6.320   4.071   3.230  0.5568  0.3369  0.3436
 7062SOL    HW228014   6.259   4.144   3.238  0.6455  0.4679 -0.1365
 7062SOL    HW328015   6.270   3.994   3.258 -0.3180  0.2031 -1.4558
 7062SOL    MW428016   6.305   4.071   3.235  0.5594  0.0165 -0.1208
 7063SOL     OW28017   3.580   0.979   1.616 -0.5945 -0.6682 -0.0649
 7063SOL    HW228018   3.621   0.907   1.664 -0.2210  0.2064  0.9761
 7063SOL    HW328019   3.600   1.057   1.669 -0.2167  0.3277 -1.6307
 7063SOL    MW428020   3.588   0.980   1.630 -0.4489  0.6239  0.7240
 7064SOL     OW28021   6.064   5.725   6.328 -0.4292 -0.9562  0.1331
 7064SOL    HW228022   6.115   5.667   6.385 -0.2707 -0.6247  0.3353
 7064SOL    HW328023   5.980   5.681   6.317 -0.1902 -1.3837  0.0124
 7064SOL    MW428024   6.060   5.712   6.334  0.6387  0.2453  0.3960
 7065SOL     OW28025   5.455   0.614   5.430  0.1403  0.3676  0.5182
 7065SOL    HW228026   5.457   0.700   5.389 -2.3821 -0.6948 -2.2731
 7065SOL    HW328027   5.390   0.565   5.379  1.8072 -3.3687  1.6059
 7065SOL    MW428028   5.447   0.619   5.418  0.0869 -0.5528  0.1578
 7066SOL     OW28029   0.551   6.068   6.180 -0.3368  0.4268  0.0089
 7066SOL    HW228030   0.558   6.065   6.084  0.1536 -1.8760  0.0690
 7066SOL    HW328031   0.626   6.120   6.208 -0.4985  1.1414 -0.8381
 7066SOL    MW428032   0.562   6.075   6.171  0.5383 -0.7165  0.4849
 7067SOL     OW28033   4.285   4.985   4.473 -0.4804  0.2121 -0.5389
 7067SOL    HW228034   4.330   4.965   4.391  0.7262 -0.6508  0.3087
 7067SOL    HW328035   4.264   5.078   4.466  3.1463  1.1956 -0.2282
 7067SOL    MW428036   4.288   4.995   4.461 -0.7147 -0.0181 -0.1887
 7068SOL     OW28037   5.286   3.916   1.546 -0.6032 -0.3575 -0.1286
 7068SOL    HW228038   5.318   3.826   1.551 -0.1432 -0.2187 -0.5128
 7068SOL    HW328039   5.232   3.926   1.624  0.1613 -0.6574  0.4613
 7068SOL    MW428040   5.283   3.905   1.557 -0.6896  0.0257 -0.2693
 7069SOL     OW28041   0.319   4.394   2.964  0.1483 -0.3995 -0.1837
 7069SOL    HW228042   0.355   4.306   2.955 -0.4255 -0.6163 -0.3596
 7069SOL    HW328043   0.279   4.395   3.050  1.2666  0.0996  0.3470
 7069SOL    MW428044   0.319   4.383   2.974 -0.4214  0.4579 -0.4515
 7070SOL     OW28045   2.283   2.041   0.775 -0.1035  0.0418 -0.6365
 7070SOL    HW228046   2.197   2.071   0.805 -0.8896 -0.6695 -2.0688
 7070SOL    HW328047   2.265   1.997   0.691  1.6420 -0.2306 -0.9012
 7070SOL    MW428048   2.269   2.039   0.768  0.3182  0.4401  0.0501
 7071SOL     OW28049   4.794   4.878   0.269  0.4677 -0.3454  0.4078
 7071SOL    HW228050   4.761   4.843   0.352  1.0569 -0.0686  0.7699
 7071SOL    HW328051   4.726   4.938   0.240  0.0013 -0.8607  0.4022
 7071SOL    MW428052   4.781   4.881   0.276 -1.3225 -0.8088  0.3639
 7072SOL     OW28053   1.012   0.259   3.089  0.2823  0.2538 -0.1927
 7072SOL    HW228054   1.036   0.169   3.065  0.3718  0.1165  0.4068
 7072SOL    HW328055   1.000   0.303   3.005  0.7196 -0.1887 -0.4941
 7072SOL    MW428056   1.014   0.253   3.075  0.0180  0.7997 -0.1018
 7073SOL     OW28057   6.309   5.144   3.706  0.4508  0.0261  0.2009
 7073SOL    HW228058   6.269   5.121   3.790  0.9768  0.3621  0.5468
 7073SOL    HW328059   6.276   5.232   3.687  0.4009 -0.0144  0.0962
 7073SOL    MW428060   6.299   5.152   3.715  0.7921 -0.5485  0.5899
 7074SOL     OW28061   3.633   4.567   0.732  0.2809  0.5103  0.5348
 7074SOL    HW228062   3.717   4.529   0.758 -0.1088  0.1703  1.3253
 7074SOL    HW328063   3.627   4.649   0.781  0.2919  0.6970  0.2298
 7074SOL    MW428064   3.643   4.573   0.742 -0.1571 -0.3665  0.4491
 7075SOL     OW28065   5.631   3.613   6.218  0.2655 -0.3120  0.1268
 7075SOL    HW228066   5.597   3.662   6.293 -1.2570 -0.1491 -0.6482
 7075SOL    HW328067   5.695   3.672   6.178 -0.0219  0.1974  0.4097
 7075SOL    MW428068   5.635   3.627   6.223 -0.1432 -0.0504 -0.1981
 7076SOL     OW28069   0.273   5.201   4.079 -0.2204 -0.0852 -0.0717
 7076SOL    HW228070   0.355   5.174   4.121  0.1859  1.1279 -0.0528
 7076SOL    HW328071   0.226   5.118   4.063 -0.2629 -0.6299  2.4614
 7076SOL    MW428072   0.278   5.186   4.082 -0.4173 -0.1453  0.1262
 7077SOL     OW28073   5.566   3.931   5.996 -0.0198  0.2932 -0.6762
 7077SOL    HW228074   5.544   3.840   5.976  0.0827 -0.7577  3.2444
 7077SOL    HW328075   5.495   3.982   5.956 -2.3400 -1.8889  0.3708
 7077SOL    MW428076   5.554   3.925   5.988 -0.1931  0.1163  0.6939
 7078SOL     OW28077   0.925   1.050   1.270  0.0322  0.4542  0.7176
 7078SOL    HW228078   0.938   1.119   1.205 -0.0448 -1.3216 -1.2784
 7078SOL    HW328079   1.012   1.015   1.287  0.0308  0.7985  1.4653
 7078SOL    MW428080   0.938   1.054   1.264 -0.0620 -0.1868  0.2743
 7079SOL     OW28081   2.022   2.421   5.678  0.3697 -0.1683  0.0867
 7079SOL    HW228082   2.082   2.357   5.640 -1.7587 -1.7246 -0.8610
 7079SOL    HW328083   2.077   2.496   5.700  2.6690 -1.6129 -0.4518
 7079SOL    MW428084   2.037   2.422   5.676  0.4618  0.1189  0.4239
 7080SOL     OW28085   6.015   1.830   5.617 -0.0523 -0.5862 -0.4068
 7080SOL    HW228086   5.926   1.833   5.650 -0.4593 -1.3536 -1.3637
 7080SOL    HW328087   6.021   1.746   5.572  1.5133 -1.0627  0.5985
 7080SOL    MW428088   6.004   1.819   5.615  0.4903 -0.0909 -0.4860
 7081SOL     OW28089   0.348   4.265   4.361  0.0927  0.9295 -0.3486
 7081SOL    HW228090   0.329   4.348   4.404 -0.0321  0.0751  1.3330
 7081SOL    HW328091   0.302   4.199   4.414  2.9072 -0.5847  0.4451
 7081SOL    MW428092   0.340   4.267   4.374 -0.6191 -0.3459  0.1709
 7082SOL     OW28093   1.837   2.428   1.896  0.3723 -0.6581  0.1393
 7082SOL    HW228094   1.778   2.361   1.931 -2.6414  1.0318 -1.2120
 7082SOL    HW328095   1.878   2.386   1.820 -0.1220 -1.5233  0.3346
 7082SOL    MW428096   1.834   2.414   1.890  0.2371 -0.4290 -0.9310
 7083SOL     OW28097   1.708   0.461   2.513  0.4431 -0.5956  0.0902
 7083SOL    HW228098   1.640   0.484   2.449  0.5899 -0.1602  0.0848
 7083SOL    HW328099   1.719   0.367   2.504  0.4318 -0.5439 -0.4964
 7083SOL    MW428100   1.700   0.452   2.503  0.3778 -0.2142  0.1716
 7084SOL     OW28101   0.082   3.270   0.541  0.4513  0.7549  0.1457
 7084SOL    HW228102   0.098   3.362   0.564 -0.6660  0.9878  0.0791
 7084SOL    HW328103   0.012   3.275   0.475  0.5481 -0.1334 -0.0288
 7084SOL    MW428104   0.075   3.283   0.535 -0.5678 -0.3957  0.1375
 7085SOL     OW28105   2.717   5.519   2.232  0.0052 -0.2215  0.3608
 7085SOL    HW228106   2.799   5.478   2.258  0.6833  0.5770 -0.4722
 7085SOL    HW328107   2.724   5.529   2.137 -1.0804 -0.1944  0.2677
 7085SOL    MW428108   2.728   5.515   2.223 -0.1298  0.1316 -0.5939
 7086SOL     OW28109   3.332   3.964   4.677 -0.4747 -0.1220  0.2388
 7086SOL    HW228110   3.296   4.003   4.757 -1.4293  0.1420 -0.2934
 7086SOL    HW328111   3.397   4.027   4.647 -2.3563  1.4314 -0.8897
 7086SOL    MW428112   3.336   3.978   4.683  0.0641  0.1072 -0.4591
 7087SOL     OW28113   2.401   6.235   0.120 -0.6835  0.8072  0.5160
 7087SOL    HW228114   2.365   6.241   0.208 -1.0477  0.1729  0.4168
 7087SOL    HW328115   2.386   6.321   0.082 -1.9800  0.6086  0.5366
 7087SOL    MW428116   2.394   6.247   0.126  0.2069  0.3283  0.0592
 7088SOL     OW28117   1.271   2.070   6.402  0.6156  0.1734 -0.1071
 7088SOL    HW228118   1.338   2.059   6.470 -0.5552 -0.8456  0.9352
 7088SOL    HW328119   1.261   1.983   6.363 -0.4447  0.1780  0.1176
 7088SOL    MW428120   1.278   2.057   6.406 -0.3615 -0.3538 -0.7336
 7089SOL     OW28121   5.550   0.556   1.857 -0.1282 -0.1238 -0.1515
 7089SOL    HW228122   5.510   0.593   1.778  1.9967 -1.0362 -1.7615
 7089SOL    HW328123   5.512   0.468   1.864  1.0494 -0.7760 -1.3549
 7089SOL    MW428124   5.540   0.549   1.848  0.2056  0.5289  0.1014
 7090SOL     OW28125   2.597   3.971   4.402  0.0355  0.3726 -0.2527
 7090SOL    HW228126   2.552   4.044   4.444  1.0789  0.1066  1.3857
 7090SOL    HW328127   2.634   3.920   4.474  2.0153 -0.0319 -1.4970
 7090SOL    MW428128   2.596   3.974   4.417  0.3317 -0.2094  0.2874
 7091SOL     OW28129   5.531   2.811   0.496 -0.4218 -0.1872  0.1123
 7091SOL    HW228130   5.490   2.882   0.448  0.0519  0.1140  0.1411
 7091SOL    HW328131   5.615   2.798   0.452 -0.5326 -0.7752  0.0671
 7091SOL    MW428132   5.537   2.819   0.484 -0.5744  0.3960 -0.1960
 7092SOL     OW28133   4.330   1.725   3.834 -0.2784 -0.3296 -0.3040
 7092SOL    HW228134   4.257   1.672   3.802 -0.9674  0.6254 -0.3663
 7092SOL    HW328135   4.340   1.794   3.769 -1.7993  1.7344  1.4738
 7092SOL    MW428136   4.322   1.727   3.821 -0.2003  0.3050  0.4566
 7093SOL     OW28137   0.878   1.134   0.557  0.0251 -0.3549  0.0182
 7093SOL    HW228138   0.869   1.149   0.463  2.1472  1.3330 -0.0027
 7093SOL    HW328139   0.942   1.063   0.564  1.0012  0.5141  0.1529
 7093SOL    MW428140   0.885   1.126   0.546  0.1134 -0.6632 -0.3890
 7094SOL     OW28141   1.780   4.322   5.709  0.0317 -0.1305  0.2745
 7094SOL    HW228142   1.743   4.252   5.764 -1.4242  1.0701  0.8721
 7094SOL    HW328143   1.800   4.392   5.770  1.9320 -0.1645 -0.2629
 7094SOL    MW428144   1.778   4.322   5.724  0.1716  0.4404 -0.0201
 7095SOL     OW28145   3.949   5.337   5.748  0.3289 -0.1315 -0.6840
 7095SOL    HW228146   4.013   5.274   5.781  1.0036  0.9889  0.2628
 7095SOL    HW328147   3.870   5.285   5.733  0.3993 -1.0026  1.4548
 7095SOL    MW428148   3.947   5.322   5.751  0.2440 -0.1009 -0.0532
 7096SOL     OW28149   5.170   3.252   4.152 -0.1682 -0.9842  0.2155
 7096SOL    HW228150   5.149   3.160   4.134 -1.3242 -0.5861 -0.5794
 7096SOL    HW328151   5.085   3.296   4.153  0.1334 -0.2706  2.7659
 7096SOL    MW428152   5.156   3.245   4.150 -0.3051  0.0931  0.0190
 7097SOL     OW28153   0.489   0.521   2.429 -0.1248  0.1066  0.0598
 7097SOL    HW228154   0.556   0.505   2.362  0.4185 -0.8991  0.8171
 7097SOL    HW328155   0.517   0.601   2.473  1.3445 -0.9971  1.2312
 7097SOL    MW428156   0.501   0.530   2.426  0.0020  1.0862 -0.3957
 7098SOL     OW28157   3.768   3.201   5.946 -0.3519 -0.1848  0.1885
 7098SOL    HW228158   3.748   3.222   5.855 -1.5447  1.4902  0.7906
 7098SOL    HW328159   3.683   3.190   5.988  0.1780 -1.1725  1.0783
 7098SOL    MW428160   3.754   3.202   5.940 -0.0035  0.0553  0.1142
 7099SOL     OW28161   5.399   0.025   5.018  0.4786  0.4323  0.3127
 7099SOL    HW228162   5.446   0.097   4.975  0.4357  2.2574  3.0471
 7099SOL    HW328163   5.419  -0.052   4.964  2.5064  2.0233 -1.4261
 7099SOL    MW428164   5.408   0.025   5.005  0.2612 -0.2770  0.6846
 7100SOL     OW28165   5.933   5.939   4.844 -0.4223  0.3506  0.1428
 7100SOL    HW228166   6.003   5.981   4.793  0.8820 -0.1773  1.4455
 7100SOL    HW328167   5.907   6.005   4.908 -1.4491  0.7009 -0.6152
 7100SOL    MW428168   5.939   5.953   4.845 -0.6413  0.6080 -0.2096
 7101SOL     OW28169   3.108   3.534   1.809  0.3509  0.1400  0.0152
 7101SOL    HW228170   3.038   3.532   1.744 -2.0539 -0.7281  2.4055
 7101SOL    HW328171   3.166   3.462   1.786 -3.3964 -3.7887  1.5956
 7101SOL    MW428172   3.106   3.525   1.798 -0.1291  0.0690  0.1624
 7102SOL     OW28173   2.508   0.799   4.181 -0.3604  0.1823  0.4236
 7102SOL    HW228174   2.483   0.887   4.210 -2.4126 -0.3829  0.4966
 7102SOL    HW328175   2.598   0.809   4.150  0.0158  1.9597  1.9230
 7102SOL    MW428176   2.517   0.812   4.181  0.1628 -0.0220 -0.6109
 7103SOL     OW28177   2.138   1.435   3.063 -0.7306 -0.6523  0.1875
 7103SOL    HW228178   2.061   1.422   3.008 -0.9076  1.6712 -0.2150
 7103SOL    HW328179   2.212   1.421   3.004 -0.7873 -2.4381  0.4677
 7103SOL    MW428180   2.137   1.431   3.048  0.1150 -0.4127 -0.6835
 7104SOL     OW28181   3.148   1.743   5.248 -0.2581 -0.2830  0.7136
 7104SOL    HW228182   3.139   1.834   5.278 -0.1359  0.3544 -1.0834
 7104SOL    HW328183   3.241   1.724   5.257 -0.1097  0.1388  0.0968
 7104SOL    MW428184   3.159   1.752   5.253  0.4219 -0.0718 -0.1895
 7105SOL     OW28185   1.336   0.197   5.212  0.2914  0.0972 -0.4520
 7105SOL    HW228186   1.406   0.151   5.260 -0.4253 -0.4924  0.0468
 7105SOL    HW328187   1.276   0.128   5.186  0.0259  0.5739 -1.1172
 7105SOL    MW428188   1.337   0.182   5.215  0.7087  0.0794  0.4292
 7106SOL     OW28189   4.288   1.872   4.825  0.1853 -0.1873 -0.1872
 7106SOL    HW228190   4.226   1.914   4.764  1.2131  1.0945 -0.3836
 7106SOL    HW328191   4.288   1.780   4.798  0.3285  0.2784 -1.9049
 7106SOL    MW428192   4.280   1.865   4.813  0.2233  0.7850 -0.2615
 7107SOL     OW28193   0.840   1.639   5.375 -0.4354  0.5396 -0.0840
 7107SOL    HW228194   0.827   1.580   5.449  0.0081  2.5476  1.6649
 7107SOL    HW328195   0.935   1.651   5.371 -0.6146  2.3854  0.6304
 7107SOL    MW428196   0.851   1.633   5.384 -0.1045 -0.1426  0.7938
 7108SOL     OW28197   5.714   1.001   3.838 -0.2412 -0.0717 -0.7742
 7108SOL    HW228198   5.802   1.002   3.801  0.2102 -1.2510  0.2270
 7108SOL    HW328199   5.660   0.960   3.770 -0.0376  0.6298 -1.3778
 7108SOL    MW428200   5.718   0.996   3.824 -0.2775 -0.0308  0.5450
 7109SOL     OW28201   5.567   4.642   2.582 -0.3879  0.1293 -0.2896
 7109SOL    HW228202   5.511   4.718   2.564 -0.4497  0.1966  0.1700
 7109SOL    HW328203   5.528   4.601   2.659  0.7991  0.8093  0.7255
 7109SOL    MW428204   5.555   4.647   2.590 -0.6332  0.0313 -0.4164
 7110SOL     OW28205   1.152   6.216   2.245  0.2303 -0.2313  0.3255
 7110SOL    HW228206   1.203   6.297   2.252 -1.3378  0.7557  1.1034
 7110SOL    HW328207   1.200   6.153   2.299  0.3292  0.8390  1.5540
 7110SOL    MW428208   1.165   6.218   2.253 -0.4070 -0.8342  0.0120
 7111SOL     OW28209   3.029   2.111   5.689 -0.2366  0.3766 -0.7470
 7111SOL    HW228210   3.047   2.018   5.702 -0.8485  0.4926  1.5667
 7111SOL    HW328211   2.941   2.123   5.725  0.0856  1.9483 -0.3971
 7111SOL    MW428212   3.020   2.101   5.696  0.1008  0.3132 -0.1629
 7112SOL     OW28213   5.329   1.720   5.403 -0.2878 -0.2584  0.0891
 7112SOL    HW228214   5.264   1.791   5.404  0.9700  0.9224  1.2966
 7112SOL    HW328215   5.412   1.763   5.422  0.9109 -1.7235 -1.5633
 7112SOL    MW428216   5.331   1.735   5.405 -0.0629 -0.3132  0.3157
 7113SOL     OW28217   2.156   6.357   3.936  0.5371 -0.1061  0.4306
 7113SOL    HW228218   2.190   6.279   3.982  0.2954  0.1151  0.9961
 7113SOL    HW328219   2.110   6.322   3.860 -1.0633 -0.6417  1.6078
 7113SOL    MW428220   2.154   6.342   3.932 -0.1848  0.5246  1.1029
 7114SOL     OW28221   3.034   4.645   5.654  0.0540  0.3831  0.4849
 7114SOL    HW228222   2.989   4.728   5.636  1.2104  1.2037  1.2195
 7114SOL    HW328223   3.053   4.609   5.567  0.0692  1.1828  0.1486
 7114SOL    MW428224   3.030   4.651   5.640 -0.3735  0.3056 -0.0492
 7115SOL     OW28225   3.865   0.617   2.774 -0.2863 -0.3255 -0.7228
 7115SOL    HW228226   3.926   0.688   2.796 -0.8777  0.1774 -0.6700
 7115SOL    HW328227   3.807   0.611   2.850 -0.4104 -0.6740 -0.8451
 7115SOL    MW428228   3.865   0.626   2.787 -0.3884  0.4283  0.6308
 7116SOL     OW28229   2.543   4.095   2.551 -0.2540  0.5334 -0.7677
 7116SOL    HW228230   2.533   4.000   2.563  2.0629  0.0746 -1.8550
 7116SOL    HW328231   2.470   4.133   2.599 -0.5659 -1.7512  0.7417
 7116SOL    MW428232   2.532   4.087   2.559  0.1084  0.2620  0.3363
 7117SOL     OW28233   3.685   1.459   2.027 -0.2215  0.2575  0.3404
 7117SOL    HW228234   3.597   1.494   2.016 -0.5928 -0.6898  0.1382
 7117SOL    HW328235   3.671   1.369   2.057  0.6603 -0.1682 -0.4822
 7117SOL    MW428236   3.672   1.451   2.030  0.3022  0.1106 -0.3568
 7118SOL     OW28237   0.470   2.450   2.072 -0.1420  0.2555 -0.3256
 7118SOL    HW228238   0.490   2.537   2.106  0.6553  0.4751 -1.2800
 7118SOL    HW328239   0.450   2.397   2.149  0.4253  1.0247  0.3655
 7118SOL    MW428240   0.470   2.454   2.087  0.2589 -0.7440  0.0337
 7119SOL     OW28241   5.661   3.526   0.492  0.0877  0.1074  0.1094
 7119SOL    HW228242   5.599   3.464   0.531 -1.4511  1.9279  0.7036
 7119SOL    HW328243   5.681   3.588   0.563 -0.6520  1.9226 -1.2067
 7119SOL    MW428244   5.656   3.526   0.507  0.2648 -0.2543  0.4266
 7120SOL     OW28245   0.586   0.229   2.420  0.1852  0.5313  0.0489
 7120SOL    HW228246   0.511   0.270   2.378  0.6675  1.1094 -0.2642
 7120SOL    HW328247   0.598   0.146   2.374 -0.1280  0.5366 -0.0411
 7120SOL    MW428248   0.578   0.223   2.408  0.3080 -0.2019  0.8734
 7121SOL     OW28249   4.669   0.758   1.229  0.7845  0.2347  0.6998
 7121SOL    HW228250   4.755   0.721   1.213  0.1235 -0.8279 -0.6021
 7121SOL    HW328251   4.686   0.843   1.270  2.4553  0.3707 -0.2107
 7121SOL    MW428252   4.682   0.765   1.232 -0.1856  0.0557  0.3164
 7122SOL     OW28253   3.568   3.730   4.416  0.2457 -0.7545  0.1250
 7122SOL    HW228254   3.529   3.692   4.495 -0.0740 -0.7901 -0.0486
 7122SOL    HW328255   3.504   3.794   4.386 -0.1056 -1.4725 -0.6886
 7122SOL    MW428256   3.554   3.733   4.423  0.3992 -0.2742  0.1402
 7123SOL     OW28257   3.701   3.873   5.051  0.3798 -0.3464  0.8845
 7123SOL    HW228258   3.634   3.812   5.021 -1.1375 -0.6780  4.4789
 7123SOL    HW328259   3.783   3.825   5.043 -0.0954 -0.9067 -1.1375
 7123SOL    MW428260   3.703   3.859   5.046  0.9753  0.7856 -0.2688
 7124SOL     OW28261   3.044   6.223   4.486  0.2459  0.4217 -0.6097
 7124SOL    HW228262   3.127   6.269   4.473 -1.1838  3.3338 -0.1324
 7124SOL    HW328263   3.035   6.168   4.409  1.8440  1.3228 -1.4854
 7124SOL    MW428264   3.054   6.222   4.474  0.7359 -0.8018  0.0390
 7125SOL     OW28265   1.826   2.710   1.711  0.1401  0.0449  0.1349
 7125SOL    HW228266   1.814   2.672   1.624 -2.0683  1.3491 -0.2060
 7125SOL    HW328267   1.827   2.635   1.771 -0.1726 -0.7475 -0.8439
 7125SOL    MW428268   1.825   2.695   1.708 -0.5347 -0.0934  0.0084
 7126SOL     OW28269   1.336   4.065   4.834  0.1983 -0.2700  0.3884
 7126SOL    HW228270   1.348   4.138   4.895  0.1756 -0.3061  0.4356
 7126SOL    HW328271   1.425   4.036   4.813  0.2199 -0.0180  0.1174
 7126SOL    MW428272   1.349   4.071   4.839 -0.3098  0.1765 -0.2982
 7127SOL     OW28273   4.036   4.327   5.975 -0.0110 -0.2215 -0.5116
 7127SOL    HW228274   4.112   4.324   6.032 -1.2995 -0.0509  1.3000
 7127SOL    HW328275   4.025   4.237   5.945 -1.2152 -1.1088  2.2449
 7127SOL    MW428276   4.044   4.315   5.978  0.0615  0.3770  0.1116
 7128SOL     OW28277   3.698   2.014   2.814  0.2550 -0.5298 -0.1414
 7128SOL    HW228278   3.723   1.995   2.724 -1.2008 -1.4652 -0.3853
 7128SOL    HW328279   3.677   1.928   2.852 -1.4856  0.0681  0.3403
 7128SOL    MW428280   3.699   2.000   2.807 -0.1610 -0.1250 -0.4405
 7129SOL     OW28281   2.934   5.521   3.388  0.5001  0.1848 -0.0293
 7129SOL    HW228282   2.841   5.531   3.408  0.5932 -2.7812  2.6838
 7129SOL    HW328283   2.979   5.553   3.467  1.5172 -1.6076  0.1912
 7129SOL    MW428284   2.928   5.526   3.401  0.3426  0.8890 -0.3265
 7130SOL     OW28285   0.550   4.821   4.705  0.6380 -0.8387  0.5673
 7130SOL    HW228286   0.535   4.730   4.732  0.9217 -0.7514  1.0160
 7130SOL    HW328287   0.465   4.850   4.673  0.2795 -0.9224  1.4178
 7130SOL    MW428288   0.537   4.813   4.704  0.2132 -0.6262  0.4014
 7131SOL     OW28289   4.330   2.960   2.418 -0.0097  0.2386 -0.4631
 7131SOL    HW228290   4.338   2.993   2.328  0.7319 -1.5654 -1.0978
 7131SOL    HW328291   4.382   2.880   2.419 -0.2368  0.0665  1.5175
 7131SOL    MW428292   4.338   2.954   2.406  0.5030 -0.3753 -0.5927
 7132SOL     OW28293   1.898   0.630   0.075 -0.2430  0.0577  0.1146
 7132SOL    HW228294   1.931   0.703   0.127  0.0894  1.2587 -1.7163
 7132SOL    HW328295   1.975   0.595   0.029 -0.2355 -2.0052  1.5291
 7132SOL    MW428296   1.913   0.635   0.076  0.1074 -0.0256  0.3791
 7133SOL     OW28297   5.222   0.445   4.614  0.2308 -0.0382  0.5090
 7133SOL    HW228298   5.194   0.485   4.532  0.4888 -1.1782 -0.1584
 7133SOL    HW328299   5.147   0.456   4.673 -0.2629  0.0916 -0.1362
 7133SOL    MW428300   5.208   0.452   4.611 -0.2821 -0.2520  1.0694
 7134SOL     OW28301   0.784   2.303   6.376  0.0894 -0.3104  0.4965
 7134SOL    HW228302   0.873   2.268   6.364  0.9315  1.6289  0.6834
 7134SOL    HW328303   0.742   2.290   6.291  2.1517  2.8771 -1.2227
 7134SOL    MW428304   0.790   2.296   6.364 -0.6949 -0.2746 -0.0545
 7135SOL     OW28305   2.172   1.245   2.695 -0.2455  0.2406 -0.4386
 7135SOL    HW228306   2.250   1.298   2.682  0.7844 -0.9912  0.4680
 7135SOL    HW328307   2.166   1.191   2.616  0.4580 -0.4181 -0.0548
 7135SOL    MW428308   2.182   1.245   2.683 -0.0462  0.5567  0.1517
 7136SOL     OW28309   2.999   2.431   3.706  0.4723  0.1053  0.3018
 7136SOL    HW228310   3.044   2.361   3.659 -2.9473 -0.8660 -1.8454
 7136SOL    HW328311   3.067   2.499   3.717  3.7770 -3.1245  1.9994
 7136SOL    MW428312   3.014   2.431   3.701  0.0348 -0.0507 -0.1497
 7137SOL     OW28313   0.533   4.690   6.244  0.4816  0.1576 -0.6763
 7137SOL    HW228314   0.496   4.777   6.229  0.2345 -0.2045 -2.4254
 7137SOL    HW328315   0.625   4.705   6.264  0.1622  0.8783  0.2946
 7137SOL    MW428316   0.540   4.703   6.245 -0.0997 -0.4455  0.4139
 7138SOL     OW28317   4.402   1.428   2.566  0.0868  0.0956  0.3792
 7138SOL    HW228318   4.434   1.494   2.627 -1.3576 -0.0142  1.2945
 7138SOL    HW328319   4.319   1.400   2.603  0.9328 -2.6941  0.3535
 7138SOL    MW428320   4.395   1.433   2.579  0.2103  0.2390  0.2623
 7139SOL     OW28321   4.079   4.476   2.585  0.1334 -0.4242  0.7245
 7139SOL    HW228322   4.095   4.382   2.580 -0.3966 -0.5944  1.9219
 7139SOL    HW328323   4.026   4.496   2.507  2.5551 -0.5772 -1.0701
 7139SOL    MW428324   4.074   4.466   2.574 -0.1874  0.1931 -0.5392
 7140SOL     OW28325   3.118   1.498   3.552  0.0895  0.5328 -0.4116
 7140SOL    HW228326   3.198   1.449   3.568 -0.1830  0.2848  0.2480
 7140SOL    HW328327   3.144   1.568   3.492  0.7923  0.4342 -0.2322
 7140SOL    MW428328   3.132   1.501   3.546 -0.0523 -0.8367  0.2880
 7141SOL     OW28329   2.096   2.783   2.440  0.4053 -0.5139 -0.5972
 7141SOL    HW228330   2.103   2.689   2.427 -1.7110 -0.7674 -0.2069
 7141SOL    HW328331   2.139   2.799   2.524 -0.7584 -1.4198  0.1933
 7141SOL    MW428332   2.103   2.773   2.450  0.4356  0.0487 -0.7513
 7142SOL     OW28333   0.254   6.369   1.241 -0.0955 -0.1596  0.9006
 7142SOL    HW228334   0.219   6.281   1.228  1.1656 -0.6486  0.6223
 7142SOL    HW328335   0.194   6.426   1.194 -0.4376 -0.9759  0.3191
 7142SOL    MW428336   0.241   6.365   1.234  0.4380 -1.1463  0.4383
 7143SOL     OW28337   2.185   5.309   4.484  0.1044  0.7051  0.0867
 7143SOL    HW228338   2.106   5.271   4.446 -0.7264  2.4826 -0.0245
 7143SOL    HW328339   2.164   5.321   4.577  0.7520 -0.0857  0.3440
 7143SOL    MW428340   2.172   5.305   4.491 -0.1236 -0.2480 -0.2617
 7144SOL     OW28341   2.227   1.418   4.018 -0.1664 -0.4922 -0.0156
 7144SOL    HW228342   2.143   1.455   3.993  0.6372  0.9100 -0.7158
 7144SOL    HW328343   2.256   1.471   4.093  0.7022 -0.0785 -0.6263
 7144SOL    MW428344   2.220   1.430   4.025  0.1620 -0.0708 -0.1633
 7145SOL     OW28345   2.042   4.136   4.859  0.4947 -0.0139  0.4644
 7145SOL    HW228346   1.989   4.209   4.893 -0.4672 -0.1125 -0.7459
 7145SOL    HW328347   2.127   4.175   4.841  0.1807  0.6741  0.4162
 7145SOL    MW428348   2.046   4.151   4.861 -0.2387 -0.3181  0.3655
 7146SOL     OW28349   1.383   2.467   4.960 -1.0169  0.3925 -0.4556
 7146SOL    HW228350   1.418   2.402   4.899 -0.3820 -0.7437  1.0406
 7146SOL    HW328351   1.456   2.528   4.973  0.1764 -1.3790  1.8410
 7146SOL    MW428352   1.398   2.467   4.954 -0.6206  0.0555 -0.3180
 7147SOL     OW28353   5.197   5.842   6.041 -0.1161 -0.0932 -0.1806
 7147SOL    HW228354   5.215   5.926   6.083 -0.6256  0.1277 -0.3892
 7147SOL    HW328355   5.137   5.864   5.970  2.4532 -0.0914 -2.5245
 7147SOL    MW428356   5.192   5.856   6.037 -0.1791  0.1412  0.0551
 7148SOL     OW28357   6.012   1.271   4.943 -0.1012 -0.3479 -0.3216
 7148SOL    HW228358   6.074   1.310   4.882  0.3707 -0.3920  0.1251
 7148SOL    HW328359   6.061   1.202   4.987  0.0991  0.8210  1.3730
 7148SOL    MW428360   6.026   1.267   4.941 -0.2828 -0.0980 -0.5683
 7149SOL     OW28361   5.492   5.861   5.687 -0.4957 -0.0191 -0.3128
 7149SOL    HW228362   5.504   5.805   5.763 -1.5013 -0.3138 -0.3503
 7149SOL    HW328363   5.397   5.868   5.678 -0.4030  1.6771 -0.3182
 7149SOL    MW428364   5.481   5.855   5.696 -0.8241  0.4387  0.4188
 7150SOL     OW28365   0.201   3.807   0.918 -0.0011 -0.1472 -0.0272
 7150SOL    HW228366   0.283   3.847   0.888 -0.7380  1.6554  0.2536
 7150SOL    HW328367   0.164   3.870   0.979 -1.8622 -0.6844 -0.5282
 7150SOL    MW428368   0.207   3.820   0.922  0.6189 -0.0456  0.2695
 7151SOL     OW28369   3.450   5.614   4.904  0.1435 -0.1798  0.5721
 7151SOL    HW228370   3.367   5.628   4.949 -0.8676 -0.2610 -1.1915
 7151SOL    HW328371   3.459   5.689   4.845  0.4559 -1.0299 -0.4941
 7151SOL    MW428372   3.440   5.626   4.902 -0.1753  0.8109  0.1745
 7152SOL     OW28373   5.036   1.031   2.304 -0.5478  0.2902 -0.1284
 7152SOL    HW228374   5.122   0.999   2.275 -0.4096  0.5032  0.0412
 7152SOL    HW328375   4.992   1.059   2.224 -0.1896  0.8310 -0.1456
 7152SOL    MW428376   5.042   1.030   2.290 -0.5358  0.1273  0.4165
 7153SOL     OW28377   2.741   5.628   6.070  0.2482 -0.0741  0.0146
 7153SOL    HW228378   2.829   5.659   6.091 -0.0823  0.6426  0.3621
 7153SOL    HW328379   2.746   5.533   6.080  0.7461  0.0421  0.9426
 7153SOL    MW428380   2.753   5.620   6.074 -0.4470  0.1429 -0.1456
 7154SOL     OW28381   1.938   1.168   0.882 -0.4045  0.8583  0.2484
 7154SOL    HW228382   1.936   1.093   0.823 -0.2426  1.6306 -0.7774
 7154SOL    HW328383   1.991   1.233   0.835 -0.5995  1.6286  1.0825
 7154SOL    MW428384   1.945   1.167   0.868 -0.2523  0.3826 -0.5229
 7155SOL     OW28385   5.613   4.355   5.461  0.2464 -0.6869 -0.1111
 7155SOL    HW228386   5.533   4.385   5.417  1.1183  0.2727 -1.1029
 7155SOL    HW328387   5.593   4.266   5.490 -0.8975 -0.7695 -1.0772
 7155SOL    MW428388   5.600   4.347   5.459 -0.1872  0.5990  0.3384
 7156SOL     OW28389   1.036   3.294   0.130  0.1519  0.0572 -0.7823
 7156SOL    HW228390   0.967   3.360   0.126 -0.1546 -0.3230 -2.1125
 7156SOL    HW328391   1.017   3.245   0.210 -1.6389 -0.5744 -1.5468
 7156SOL    MW428392   1.024   3.296   0.140  0.4490 -0.2252  0.2130
 7157SOL     OW28393   2.440   5.306   2.097 -0.7611  0.4909  0.1933
 7157SOL    HW228394   2.432   5.349   2.182 -2.4698 -0.4625  0.5479
 7157SOL    HW328395   2.533   5.286   2.089 -0.5741  0.5715  1.8413
 7157SOL    MW428396   2.451   5.309   2.107  0.1094 -0.4136  0.4098
 7158SOL     OW28397   1.135   6.327   3.747  0.0387 -0.6128 -0.3522
 7158SOL    HW228398   1.213   6.281   3.717  0.4056 -1.0275  1.1508
 7158SOL    HW328399   1.063   6.284   3.702  0.4808 -1.9021  0.1389
 7158SOL    MW428400   1.136   6.316   3.737 -0.2548 -0.1685  0.3682
 7159SOL     OW28401   5.827   1.238   6.389  0.4933 -0.0756 -0.1881
 7159SOL    HW228402   5.893   1.303   6.365  0.9166 -0.3115  0.3144
 7159SOL    HW328403   5.871   1.154   6.377  0.2764 -0.2375  0.1472
 7159SOL    MW428404   5.841   1.236   6.384 -0.1415  0.1724  0.4861
 7160SOL     OW28405   4.962   3.214   3.194  0.4890 -0.1704  0.1115
 7160SOL    HW228406   4.909   3.292   3.211  0.9913  0.5122 -1.2983
 7160SOL    HW328407   4.908   3.160   3.137  0.5019 -0.4369  0.3483
 7160SOL    MW428408   4.948   3.217   3.189  0.4275  0.2700  0.2868
 7161SOL     OW28409   0.297   6.361   6.181 -0.0820  0.0675  0.0277
 7161SOL    HW228410   0.249   6.443   6.193 -1.6593 -0.7718 -0.2866
 7161SOL    HW328411   0.387   6.382   6.207 -0.4129  1.9145 -0.1549
 7161SOL    MW428412   0.302   6.375   6.186  0.4248 -0.2475  0.3952
 7162SOL     OW28413   5.513   4.702   1.456 -0.6291  0.0995 -0.0068
 7162SOL    HW228414   5.478   4.765   1.394 -1.8446 -1.0325 -0.4986
 7162SOL    HW328415   5.590   4.666   1.412 -0.4765  0.5374 -0.1118
 7162SOL    MW428416   5.519   4.706   1.442 -0.3236 -0.4435  0.2618
 7163SOL     OW28417   2.132   6.374   2.625 -0.4788  0.6632 -0.4377
 7163SOL    HW228418   2.126   6.282   2.599  0.2678  0.7164 -0.8332
 7163SOL    HW328419   2.181   6.415   2.554  0.4918  1.0796  0.4541
 7163SOL    MW428420   2.138   6.367   2.612  0.0690  0.0703  0.0666
 7164SOL     OW28421   1.030   2.577   4.457  0.3849 -0.2682 -0.5671
 7164SOL    HW228422   1.110   2.588   4.507 -0.8734 -1.6967  1.9652
 7164SOL    HW328423   1.025   2.483   4.440  0.2571  0.0654 -2.5493
 7164SOL    MW428424   1.040   2.566   4.461  0.0020 -0.2136  0.4349
 7165SOL     OW28425   3.701   2.881   4.612  0.3667  0.4500  0.1400
 7165SOL    HW228426   3.731   2.941   4.544  0.6587 -1.2538 -1.2971
 7165SOL    HW328427   3.641   2.822   4.568  0.1889 -0.4111  1.4733
 7165SOL    MW428428   3.697   2.881   4.597 -0.4402 -0.9331  0.5637
 7166SOL     OW28429   0.060   2.310   3.428  0.2097  0.2108 -0.2689
 7166SOL    HW228430  -0.005   2.370   3.464  0.6828  0.2271  0.5874
 7166SOL    HW328431   0.111   2.362   3.366 -0.6350  0.1767 -1.0122
 7166SOL    MW428432   0.058   2.324   3.425  0.6456 -0.2023  0.3215
 7167SOL     OW28433   3.920   1.106   3.056 -0.5513  0.3971  0.5721
 7167SOL    HW228434   3.986   1.129   2.991 -0.4036 -0.1338  0.5286
 7167SOL    HW328435   3.853   1.174   3.048 -0.8489 -0.0147 -0.5800
 7167SOL    MW428436   3.920   1.118   3.046 -0.1755  0.2392  0.0487
 7168SOL     OW28437   0.886   0.249   5.298 -0.9478  0.5839 -0.3334
 7168SOL    HW228438   0.827   0.276   5.368  0.0458  0.1261  0.7243
 7168SOL    HW328439   0.965   0.303   5.312  1.2070 -2.7993  1.9833
 7168SOL    MW428440   0.889   0.260   5.309  0.2789  0.0826  0.5539
 7169SOL     OW28441   5.203   2.265   3.578  0.1103  0.1402 -0.8677
 7169SOL    HW228442   5.289   2.240   3.610 -0.1059  0.2412 -0.1744
 7169SOL    HW328443   5.192   2.217   3.496  0.6200 -0.2613 -0.7056
 7169SOL    MW428444   5.213   2.255   3.572 -0.8989  0.5167 -0.1725
 7170SOL     OW28445   2.978   3.577   3.182  0.1076 -0.1795  0.4394
 7170SOL    HW228446   2.907   3.642   3.186  0.3106 -0.0303  1.8395
 7170SOL    HW328447   2.995   3.554   3.273  1.2001 -0.9523  0.0553
 7170SOL    MW428448   2.971   3.582   3.194 -0.3413 -0.2631 -0.0368
 7171SOL     OW28449   4.425   1.173   4.858 -0.5386 -0.6147 -0.0816
 7171SOL    HW228450   4.456   1.186   4.768  0.4692 -0.0099  0.3314
 7171SOL    HW328451   4.493   1.121   4.900 -0.3264  0.2651  0.7014
 7171SOL    MW428452   4.438   1.168   4.852  0.5281  0.0880  0.0715
 7172SOL     OW28453   4.894   1.230   4.196 -0.4015 -0.2306  0.3609
 7172SOL    HW228454   4.895   1.305   4.138  1.8521  0.1641  0.7971
 7172SOL    HW328455   4.954   1.254   4.267 -1.3432 -1.5679  1.6776
 7172SOL    MW428456   4.902   1.243   4.198  0.3015 -0.0225 -0.1852
 7173SOL     OW28457   4.837   4.703   3.849 -0.0279 -0.2447 -0.5090
 7173SOL    HW228458   4.803   4.709   3.939  1.0250 -1.0582 -0.0444
 7173SOL    HW328459   4.878   4.788   3.834 -0.5286  0.0296 -0.3600
 7173SOL    MW428460   4.838   4.715   3.859  0.3233  0.4085 -0.4334
 7174SOL     OW28461   4.750   2.357   4.314  0.3626 -0.4289 -0.1019
 7174SOL    HW228462   4.751   2.433   4.372 -2.5088  0.5249 -1.1353
 7174SOL    HW328463   4.672   2.308   4.339  0.6589 -1.5645 -1.2643
 7174SOL    MW428464   4.740   2.361   4.325  0.9165 -0.0498  0.4761
 7175SOL     OW28465   2.116   3.969   6.413 -0.8824  0.2008  0.8248
 7175SOL    HW228466   2.072   4.027   6.475 -1.3687 -0.3503  1.0144
 7175SOL    HW328467   2.064   3.888   6.416 -1.2008  0.3228 -0.6531
 7175SOL    MW428468   2.103   3.966   6.421  0.3137  0.6213 -0.1317
 7176SOL     OW28469   2.647   1.895   4.325 -0.1544 -0.0180  0.5818
 7176SOL    HW228470   2.571   1.951   4.306 -1.5156 -0.9978  2.7157
 7176SOL    HW328471   2.723   1.949   4.304 -1.4116  1.3826 -0.6335
 7176SOL    MW428472   2.647   1.909   4.320 -0.5231 -0.3716  0.5762
 7177SOL     OW28473   6.082   0.785   1.023  0.9456 -0.0264 -0.1393
 7177SOL    HW228474   6.154   0.757   1.080  0.0908 -3.0074 -0.4126
 7177SOL    HW328475   6.005   0.788   1.080  0.7269  0.4313 -0.4465
 7177SOL    MW428476   6.082   0.782   1.038 -0.2207 -0.1692 -0.1697
 7178SOL     OW28477   6.139   6.401   5.283  0.0800  0.2693 -0.3293
 7178SOL    HW228478   6.127   6.490   5.318  3.0175  0.1768  1.2704
 7178SOL    HW328479   6.170   6.350   5.358  3.4750 -0.7902 -2.2462
 7178SOL    MW428480   6.142   6.406   5.297 -0.0461  0.5356  0.3787
 7179SOL     OW28481   5.395   6.296   1.670  0.4468  0.4666 -0.5254
 7179SOL    HW228482   5.313   6.247   1.664 -0.8241  1.9881  2.2502
 7179SOL    HW328483   5.449   6.244   1.730  0.8787  0.2898 -1.0598
 7179SOL    MW428484   5.391   6.282   1.677 -0.3678  0.1860 -0.5103
 7180SOL     OW28485   0.533   6.373   2.459  0.3119  0.2572  0.1271
 7180SOL    HW228486   0.440   6.398   2.466  0.2426  0.1221 -0.2985
 7180SOL    HW328487   0.550   6.370   2.365  0.4666 -0.7520  0.1795
 7180SOL    MW428488   0.523   6.376   2.447 -0.1771  0.1559  0.5394
 7181SOL     OW28489   5.424   2.228   3.323 -0.0295 -0.3580 -0.3884
 7181SOL    HW228490   5.487   2.165   3.357  0.5266  0.6628  0.5566
 7181SOL    HW328491   5.342   2.180   3.316  1.0355 -2.0650 -2.7503
 7181SOL    MW428492   5.422   2.214   3.326  0.3679 -0.0520 -0.6047
 7182SOL     OW28493   0.656   6.381   5.034 -0.6087  0.1769  0.0741
 7182SOL    HW228494   0.609   6.424   4.962 -0.5296  1.5322  0.7989
 7182SOL    HW328495   0.587   6.337   5.084 -0.9327  0.9277  0.3057
 7182SOL    MW428496   0.640   6.381   5.031 -0.1354  0.3704 -0.2040
 7183SOL     OW28497   0.306   0.189   5.601  0.4151 -0.1441  0.4655
 7183SOL    HW228498   0.332   0.125   5.535  1.5651  0.2234  0.5389
 7183SOL    HW328499   0.369   0.260   5.591 -0.5706  0.7774  0.6909
 7183SOL    MW428500   0.317   0.190   5.591  0.3848 -0.8576 -0.3507
 7184SOL     OW28501   5.858   0.575   1.536 -0.3799 -0.6658 -0.3205
 7184SOL    HW228502   5.862   0.666   1.508 -0.2876 -0.6414 -0.2271
 7184SOL    HW328503   5.887   0.525   1.460 -3.6478 -0.8482 -1.6109
 7184SOL    MW428504   5.862   0.580   1.522 -0.3981  0.0860 -0.0187
 7185SOL     OW28505   0.591   5.543   3.412 -0.1084  0.6710  0.1105
 7185SOL    HW228506   0.637   5.626   3.404  1.3088 -0.1840 -1.0483
 7185SOL    HW328507   0.601   5.501   3.326  1.2688 -1.7022  1.3174
 7185SOL    MW428508   0.598   5.548   3.400 -0.7703 -0.3685 -0.0724
 7186SOL     OW28509   3.342   3.292   2.060  0.0420  0.1326 -0.1427
 7186SOL    HW228510   3.277   3.348   2.101  0.8775  1.5663 -0.6892
 7186SOL    HW328511   3.367   3.230   2.129  0.3740  1.5607  1.0775
 7186SOL    MW428512   3.337   3.291   2.075  0.2917 -0.6343  0.3623
 7187SOL     OW28513   4.395   1.534   5.239  0.1883 -0.4282 -0.4713
 7187SOL    HW228514   4.336   1.473   5.196  0.2611 -0.8658  0.0389
 7187SOL    HW328515   4.442   1.577   5.167 -0.6723 -0.1428 -0.8712
 7187SOL    MW428516   4.394   1.531   5.224  0.6258 -0.3370 -0.0558
 7188SOL     OW28517   2.853   5.795   4.423 -0.1827 -1.0099 -0.0964
 7188SOL    HW228518   2.938   5.817   4.461 -0.5186  2.3302 -0.9176
 7188SOL    HW328519   2.874   5.741   4.347  0.9995 -2.0305  0.9117
 7188SOL    MW428520   2.867   5.791   4.418 -0.1226 -0.1667 -0.3953
 7189SOL     OW28521   1.407   2.965   5.841 -0.1136  0.1024  0.4243
 7189SOL    HW228522   1.432   2.922   5.759  0.8161  1.7504 -0.2070
 7189SOL    HW328523   1.455   2.918   5.909 -1.9579 -2.1875  0.2592
 7189SOL    MW428524   1.417   2.953   5.839  0.2645  0.5656 -0.2763
 7190SOL     OW28525   0.832   3.413   3.943  0.3212  0.4994  0.3253
 7190SOL    HW228526   0.749   3.393   3.985  1.5563 -1.2996  2.0679
 7190SOL    HW328527   0.890   3.439   4.015  1.3130  1.6861 -0.8427
 7190SOL    MW428528   0.829   3.414   3.958 -0.6396  0.3886  0.3489
 7191SOL     OW28529   0.760   1.112   4.476  0.2825  0.1687 -0.5791
 7191SOL    HW228530   0.777   1.184   4.535  0.6151 -1.0798  0.9091
 7191SOL    HW328531   0.790   1.034   4.523 -2.8569 -1.3376 -0.7542
 7191SOL    MW428532   0.766   1.111   4.490 -0.1334 -0.3304  0.2532
 7192SOL     OW28533   1.117   5.499   3.447  0.2384  0.1736  0.5359
 7192SOL    HW228534   1.064   5.427   3.481  1.0941 -0.8144 -0.1798
 7192SOL    HW328535   1.146   5.547   3.525 -1.1234  0.3351  0.9691
 7192SOL    MW428536   1.113   5.496   3.462 -0.2999 -1.1785 -0.4170
 7193SOL     OW28537   4.081   2.336   2.077  0.2742  0.4753  0.0664
 7193SOL    HW228538   4.172   2.357   2.097  0.7594 -0.5957 -0.9354
 7193SOL    HW328539   4.060   2.392   2.002 -0.2524  1.5084  0.9617
 7193SOL    MW428540   4.090   2.346   2.070 -0.3264  0.1617 -0.2169
 7194SOL     OW28541   5.729   0.000   4.034 -0.0804  0.0652 -0.4106
 7194SOL    HW228542   5.673  -0.027   3.961  0.1357 -2.5014  0.2783
 7194SOL    HW328543   5.817  -0.030   4.010 -0.1575 -1.7362  1.2255
 7194SOL    MW428544   5.733  -0.008   4.021  0.2271  0.5169  0.3796
 7195SOL     OW28545   3.948   2.719   3.367 -0.4327  0.1430 -0.2179
 7195SOL    HW228546   3.881   2.669   3.414 -0.6185 -1.5224 -2.1191
 7195SOL    HW328547   4.028   2.703   3.416 -0.4475 -2.2716 -0.8639
 7195SOL    MW428548   3.950   2.710   3.380  0.4443 -0.2633  0.2258
 7196SOL     OW28549   0.550   4.606   1.734 -0.0121 -0.6095 -0.9749
 7196SOL    HW228550   0.540   4.573   1.824  1.2500  0.5061 -0.3908
 7196SOL    HW328551   0.589   4.532   1.686 -0.1794 -1.0303 -0.4710
 7196SOL    MW428552   0.554   4.592   1.740  0.6074 -0.0501  0.0805
 7197SOL     OW28553   0.984   5.220   2.003 -0.0040  0.5865 -0.6776
 7197SOL    HW228554   0.893   5.246   2.009  0.0664  0.5272  2.1837
 7197SOL    HW328555   1.022   5.244   2.088  2.2285 -0.8628 -1.1632
 7197SOL    MW428556   0.977   5.226   2.015 -0.1792  0.0036  0.1950
 7198SOL     OW28557   5.422   3.220   5.941 -0.1239  0.1234  0.2763
 7198SOL    HW228558   5.329   3.211   5.959  0.1650 -1.4281  1.1828
 7198SOL    HW328559   5.465   3.182   6.018  1.2138 -1.1734 -1.0402
 7198SOL    MW428560   5.416   3.214   5.954  0.5890 -0.0276 -0.2551
 7199SOL     OW28561   0.069   5.399   3.413  0.0107  0.2969 -0.2565
 7199SOL    HW228562   0.048   5.310   3.383 -0.5574  1.3519 -3.2709
 7199SOL    HW328563  -0.015   5.444   3.416  0.3650  0.9127  0.7372
 7199SOL    MW428564   0.055   5.393   3.409 -0.1327  0.0238 -0.1784
 7200SOL     OW28565   2.925   6.355   1.982  0.0857  0.0165 -0.2142
 7200SOL    HW228566   2.893   6.276   1.940  0.6890  1.0212 -2.7293
 7200SOL    HW328567   2.865   6.424   1.953  0.0309  0.6432  1.2818
 7200SOL    MW428568   2.913   6.354   1.973 -0.7124  0.1922  0.4358
 7201SOL     OW28569   1.011   3.850   1.501  0.3197 -0.3516  0.2287
 7201SOL    HW228570   0.973   3.933   1.530  0.8524  0.1470 -0.4537
 7201SOL    HW328571   0.964   3.783   1.551 -0.5625  0.3226  0.3339
 7201SOL    MW428572   1.000   3.852   1.511 -0.2330 -0.1363  0.2816
 7202SOL     OW28573   4.656   0.687   0.303 -0.1460  0.2488  0.5746
 7202SOL    HW228574   4.619   0.618   0.249 -1.0552 -0.7456  2.3485
 7202SOL    HW328575   4.674   0.759   0.242 -3.3800  0.1336 -0.7257
 7202SOL    MW428576   4.653   0.688   0.288 -0.0279 -0.4429 -0.4016
 7203SOL     OW28577   5.737   0.176   4.759  0.0175  0.1394 -0.2220
 7203SOL    HW228578   5.724   0.202   4.668  1.5869 -0.9332 -0.8073
 7203SOL    HW328579   5.793   0.244   4.797 -1.6073  1.2196  0.3333
 7203SOL    MW428580   5.743   0.188   4.752 -0.0094  0.3160  0.1970
 7204SOL     OW28581   3.254   1.193   2.772 -0.1277  0.0274  0.5671
 7204SOL    HW228582   3.240   1.278   2.814  1.2089  0.8739 -0.6241
 7204SOL    HW328583   3.168   1.170   2.736 -0.4957  0.8936  0.8504
 7204SOL    MW428584   3.241   1.201   2.773  0.5072  0.3579  0.5532
 7205SOL     OW28585   4.845   1.149   2.104  0.5681  0.5096 -0.2080
 7205SOL    HW228586   4.875   1.233   2.069 -0.1344  0.8091 -0.1266
 7205SOL    HW328587   4.756   1.167   2.134  0.3046 -0.3465 -0.4562
 7205SOL    MW428588   4.837   1.163   2.104  0.5462 -0.0569 -0.1095
 7206SOL     OW28589   3.216   5.420   1.659  0.0581 -0.4779  0.0406
 7206SOL    HW228590   3.150   5.351   1.664 -2.2067  1.5010 -0.7298
 7206SOL    HW328591   3.220   5.443   1.566  1.0422  0.1788  0.2311
 7206SOL    MW428592   3.208   5.414   1.648 -0.0637 -0.3874 -0.1269
 7207SOL     OW28593   5.598   1.333   3.201  0.1095 -0.2861 -0.0804
 7207SOL    HW228594   5.616   1.381   3.120  3.3534 -0.2349  0.5146
 7207SOL    HW328595   5.588   1.402   3.268 -1.8112 -0.3481 -0.2622
 7207SOL    MW428596   5.599   1.349   3.199 -0.2076 -0.4078  0.2211
 7208SOL     OW28597   3.741   5.126   0.153  0.6481  0.0116 -0.4612
 7208SOL    HW228598   3.805   5.139   0.223  0.7198 -2.7379  0.0763
 7208SOL    HW328599   3.658   5.150   0.192  0.4432 -2.9934  1.2572
 7208SOL    MW428600   3.739   5.131   0.167  0.1347  0.5228  0.3171
 7209SOL     OW28601   3.082   0.139   1.865 -0.4730 -0.4761  0.3250
 7209SOL    HW228602   3.178   0.147   1.873 -0.3980  3.1260 -2.0114
 7209SOL    HW328603   3.049   0.223   1.897 -2.5475 -0.3661 -1.8555
 7209SOL    MW428604   3.091   0.151   1.870 -0.1226  0.1330 -0.2121
 7210SOL     OW28605   2.145   5.357   3.164  0.4998  0.4694 -0.3934
 7210SOL    HW228606   2.167   5.323   3.077  0.6819 -2.2720  0.6245
 7210SOL    HW328607   2.050   5.365   3.164  0.4695  0.1037 -0.7264
 7210SOL    MW428608   2.136   5.354   3.153  0.3034  0.8368 -0.2044
 7211SOL     OW28609   3.316   5.654   0.251  0.0436 -0.7521 -0.2907
 7211SOL    HW228610   3.401   5.610   0.249  0.2741 -0.4412 -3.5903
 7211SOL    HW328611   3.271   5.623   0.172 -2.5976 -0.2603  0.9109
 7211SOL    MW428612   3.321   5.644   0.240  0.0732  0.3057  0.1413
 7212SOL     OW28613   1.396   5.133   2.577  0.5284  0.3080 -0.7664
 7212SOL    HW228614   1.410   5.062   2.514 -0.0483 -0.4684 -0.0617
 7212SOL    HW328615   1.483   5.153   2.611  0.6839 -0.1526 -0.8858
 7212SOL    MW428616   1.409   5.126   2.574  0.4194  0.1072 -0.5778
 7213SOL     OW28617   1.515   4.469   5.817 -0.0475  0.1056  0.1705
 7213SOL    HW228618   1.481   4.396   5.766  1.4705  0.1315 -0.9745
 7213SOL    HW328619   1.460   4.472   5.895 -1.2458 -1.1444 -0.5763
 7213SOL    MW428620   1.503   4.460   5.821  0.7105 -0.0973  0.6342
 7214SOL     OW28621   3.846   2.778   1.512  0.2947 -0.0002 -0.9070
 7214SOL    HW228622   3.839   2.688   1.481  0.1979 -0.1807 -0.3749
 7214SOL    HW328623   3.938   2.788   1.536 -0.1310 -0.7358  1.2843
 7214SOL    MW428624   3.857   2.767   1.511  0.1072  0.1850 -0.2148
 7215SOL     OW28625   2.468   4.719   0.211  0.3648  0.4309 -0.1480
 7215SOL    HW228626   2.396   4.763   0.167  1.0450  0.8497 -0.8595
 7215SOL    HW328627   2.469   4.757   0.299 -1.4612 -0.9341  0.5225
 7215SOL    MW428628   2.459   4.730   0.217 -0.0719 -0.6229 -0.6272
 7216SOL     OW28629   4.218   5.461   5.326  0.0360 -0.0871  0.0605
 7216SOL    HW228630   4.128   5.455   5.356  0.4006  2.1138  1.8606
 7216SOL    HW328631   4.241   5.553   5.334  1.9770 -0.2915 -1.9113
 7216SOL    MW428632   4.209   5.472   5.331  0.8699 -0.3410  0.1337
 7217SOL     OW28633   4.629   2.495   0.051 -0.6293 -0.2047  0.0719
 7217SOL    HW228634   4.597   2.470  -0.036  0.7644  0.5478 -0.6987
 7217SOL    HW328635   4.587   2.579   0.069  0.4852  0.5546 -0.7320
 7217SOL    MW428636   4.620   2.503   0.042  0.0461 -0.6401 -0.1854
 7218SOL     OW28637   1.077   4.120   2.859  0.0846 -0.2057  0.2071
 7218SOL    HW228638   0.986   4.109   2.833 -0.4500  2.1539  0.7842
 7218SOL    HW328639   1.086   4.071   2.940 -0.3500 -1.3333 -0.4106
 7218SOL    MW428640   1.066   4.112   2.866  0.1469  0.1734  0.0247
 7219SOL     OW28641   2.155   3.254   5.192  0.0106 -0.0764  0.1220
 7219SOL    HW228642   2.209   3.283   5.266 -0.1194  0.7467 -0.0914
 7219SOL    HW328643   2.066   3.279   5.217  0.0364  0.7372 -0.5476
 7219SOL    MW428644   2.150   3.261   5.205 -0.4324  0.2347 -0.2905
 7220SOL     OW28645   5.712   0.342   5.746  0.0407 -0.0260 -0.0897
 7220SOL    HW228646   5.706   0.372   5.655 -1.6290 -1.6834 -0.5946
 7220SOL    HW328647   5.667   0.258   5.746  0.4099 -0.2822  2.2054
 7220SOL    MW428648   5.705   0.335   5.734 -0.0230  0.1137  0.1478
 7221SOL     OW28649   0.610   3.648   4.638  0.1741  0.1878  0.0431
 7221SOL    HW228650   0.660   3.567   4.645  0.4178  0.3833  0.6222
 7221SOL    HW328651   0.569   3.643   4.552 -1.2801 -1.3840  0.7787
 7221SOL    MW428652   0.612   3.637   4.628  0.0653 -0.1097 -0.1991
 7222SOL     OW28653   0.280   6.124   6.325 -0.5321  0.6936 -0.0433
 7222SOL    HW228654   0.260   6.209   6.286 -0.5925  0.0557 -1.4534
 7222SOL    HW328655   0.365   6.100   6.289 -0.8391 -0.1615 -0.2189
 7222SOL    MW428656   0.288   6.132   6.315 -0.1887 -0.0077 -0.0477
 7223SOL     OW28657   5.215   5.346   4.105 -0.6396  0.0061  0.0582
 7223SOL    HW228658   5.267   5.415   4.146  2.2880 -1.3197 -1.1406
 7223SOL    HW328659   5.206   5.279   4.173 -1.8668  0.7010  0.6228
 7223SOL    MW428660   5.220   5.346   4.120  0.1461 -0.0117  0.3834
 7224SOL     OW28661   0.434   1.708   1.881 -0.0619  0.0038 -0.0139
 7224SOL    HW228662   0.359   1.740   1.830 -0.3236 -0.0840  0.3097
 7224SOL    HW328663   0.459   1.782   1.936  0.5232  0.2527 -0.6053
 7224SOL    MW428664   0.427   1.722   1.881  0.1855 -0.0025 -0.7944
 7225SOL     OW28665   0.438   4.572   4.739 -0.3519  0.6995  0.2100
 7225SOL    HW228666   0.476   4.485   4.726  2.6449  1.6014  2.0397
 7225SOL    HW328667   0.380   4.562   4.815 -1.1599  0.0604 -0.4621
 7225SOL    MW428668   0.435   4.559   4.747 -0.2067  0.1422 -0.0870
 7226SOL     OW28669   2.442   4.048   6.267  0.0977  0.1812  0.4557
 7226SOL    HW228670   2.371   4.017   6.211 -0.9683  1.0902  1.2451
 7226SOL    HW328671   2.503   4.092   6.207  0.3911 -1.2513 -0.3281
 7226SOL    MW428672   2.441   4.050   6.252 -0.2127  0.8099 -0.3308
 7227SOL     OW28673   5.393   2.943   4.163  0.1799 -0.6972  0.5050
 7227SOL    HW228674   5.319   2.951   4.224 -0.5072 -1.4442 -0.1949
 7227SOL    HW328675   5.407   3.032   4.131 -0.2983 -0.5112  0.7948
 7227SOL    MW428676   5.385   2.956   4.167 -0.1431 -0.0344  0.3091
 7228SOL     OW28677   4.780   2.197   3.952 -0.0625  0.6616 -0.4542
 7228SOL    HW228678   4.706   2.165   4.003  0.3937 -1.9890 -1.2923
 7228SOL    HW328679   4.855   2.190   4.012  0.4092 -2.1118 -1.1995
 7228SOL    MW428680   4.780   2.192   3.966  0.0186  0.4715 -0.4587
 7229SOL     OW28681   3.420   5.660   0.623 -0.2803  0.3840  0.1626
 7229SOL    HW228682   3.461   5.645   0.708 -1.9745  0.9987  1.1341
 7229SOL    HW328683   3.383   5.748   0.629 -1.1634  0.1113 -0.8979
 7229SOL    MW428684   3.420   5.670   0.635  0.3834 -0.1784 -0.4825
 7230SOL     OW28685   4.683   6.408   3.045  0.2467 -0.1933  0.2319
 7230SOL    HW228686   4.649   6.419   3.133 -0.4191  0.1557 -0.0600
 7230SOL    HW328687   4.713   6.495   3.019  2.0137 -0.6240  0.7319
 7230SOL    MW428688   4.682   6.421   3.053  0.4499  0.3942 -0.0705
 7231SOL     OW28689   5.506   2.595   2.582  0.4667 -0.0377 -0.2883
 7231SOL    HW228690   5.447   2.567   2.513 -0.1253 -1.3069  0.6891
 7231SOL    HW328691   5.450   2.645   2.642  0.4448 -0.9084  0.4375
 7231SOL    MW428692   5.491   2.598   2.581  0.9454  0.1585 -0.0903
 7232SOL     OW28693   1.278   0.499   1.406  0.5250 -0.1845  0.3460
 7232SOL    HW228694   1.235   0.483   1.490  0.2851 -0.2830  0.2053
 7232SOL    HW328695   1.345   0.431   1.400  0.6250 -0.1010  0.5139
 7232SOL    MW428696   1.281   0.488   1.416  0.1246 -0.3803 -0.5842
 7233SOL     OW28697   5.822   3.015   2.700  0.1155  0.3322 -0.3790
 7233SOL    HW228698   5.767   2.962   2.757 -0.5940  0.9501 -0.4767
 7233SOL    HW328699   5.904   3.026   2.749 -0.0473 -0.1326  0.0024
 7233SOL    MW428700   5.825   3.009   2.714  0.5772 -0.4282 -0.3652
 7234SOL     OW28701   5.325   1.548   5.646  0.4031 -0.3096 -0.0257
 7234SOL    HW228702   5.298   1.632   5.607  0.8823 -0.9264 -1.7957
 7234SOL    HW328703   5.374   1.573   5.725  1.2700  1.1476 -0.9599
 7234SOL    MW428704   5.328   1.562   5.651 -0.2794  0.3082  0.0313
 7235SOL     OW28705   2.488   3.599   0.451  1.0245 -0.6089  0.1333
 7235SOL    HW228706   2.497   3.642   0.366  2.5036  0.0525  0.5840
 7235SOL    HW328707   2.486   3.506   0.431  1.3145 -0.4574 -0.6276
 7235SOL    MW428708   2.489   3.593   0.437  0.4931  0.3385 -0.0691
 7236SOL     OW28709   0.168   3.249   1.848  0.2673 -0.0723 -0.2722
 7236SOL    HW228710   0.243   3.193   1.830  1.4664  1.5248 -0.5250
 7236SOL    HW328711   0.092   3.194   1.832  1.3776 -1.3543 -1.3694
 7236SOL    MW428712   0.168   3.234   1.843 -0.4749 -0.2090 -0.1809
 7237SOL     OW28713   0.513   3.220   3.097 -0.1011  0.0015  0.4928
 7237SOL    HW228714   0.548   3.298   3.055  0.0485 -0.6592 -0.6408
 7237SOL    HW328715   0.468   3.253   3.175  0.3376  1.1675  0.2721
 7237SOL    MW428716   0.512   3.235   3.102 -0.3639 -0.3709  0.4655
 7238SOL     OW28717   5.290   4.444   4.711 -1.0493  0.6114 -0.2571
 7238SOL    HW228718   5.271   4.423   4.802 -1.3003 -1.4730 -0.7371
 7238SOL    HW328719   5.212   4.489   4.680 -1.6679 -0.2080  0.0975
 7238SOL    MW428720   5.277   4.447   4.719 -0.0914  0.4147 -0.2380
 7239SOL     OW28721   1.408   1.709   1.311 -0.1330  0.2325  0.1211
 7239SOL    HW228722   1.337   1.728   1.251  2.0142  0.0703 -2.6658
 7239SOL    HW328723   1.461   1.789   1.312  0.5044 -0.1787  0.8869
 7239SOL    MW428724   1.406   1.722   1.304 -0.3821  0.4608 -0.1163
 7240SOL     OW28725   2.629   0.434   1.706 -0.7026 -0.0761 -0.5647
 7240SOL    HW228726   2.546   0.462   1.670 -1.6459 -3.5191 -1.4072
 7240SOL    HW328727   2.694   0.464   1.643 -1.3990  1.4469 -0.5999
 7240SOL    MW428728   2.627   0.442   1.693  0.2608 -0.1420 -0.3666
 7241SOL     OW28729   2.076   3.392   5.446  0.2100  0.1040  0.3223
 7241SOL    HW228730   1.983   3.375   5.460 -0.3492  1.9717 -0.6861
 7241SOL    HW328731   2.082   3.487   5.437  2.3545  0.1207  1.1499
 7241SOL    MW428732   2.065   3.403   5.446  0.0181  0.2481  0.1888
 7242SOL     OW28733   5.463   1.880   5.665  0.0245 -0.6476 -0.0611
 7242SOL    HW228734   5.480   1.971   5.689 -1.3200 -0.3150 -0.2844
 7242SOL    HW328735   5.544   1.851   5.624  0.3625  0.5657 -0.3005
 7242SOL    MW428736   5.476   1.888   5.663  0.5556  0.2704  0.2357
 7243SOL     OW28737   4.469   3.158   0.183 -0.5681 -0.3463  0.2345
 7243SOL    HW228738   4.385   3.157   0.138 -2.0142 -1.7635  2.7092
 7243SOL    HW328739   4.482   3.067   0.212  1.5691 -0.0525  0.3847
 7243SOL    MW428740   4.460   3.146   0.181  0.4480  0.3353 -0.2468
 7244SOL     OW28741   4.644   2.667   3.253  0.0418 -0.7959  0.0667
 7244SOL    HW228742   4.654   2.664   3.158 -1.0981  1.8382 -0.2150
 7244SOL    HW328743   4.718   2.721   3.283 -0.2972 -0.5837  0.5313
 7244SOL    MW428744   4.655   2.673   3.244  0.0317 -0.6578 -0.6489
 7245SOL     OW28745   3.451   5.781   6.083  0.1343  0.4885  0.1251
 7245SOL    HW228746   3.483   5.782   5.993 -1.4190  0.6060 -0.4597
 7245SOL    HW328747   3.529   5.766   6.136  0.9115 -0.8169 -1.3011
 7245SOL    MW428748   3.465   5.779   6.078 -0.0415 -0.0934 -0.1192
 7246SOL     OW28749   1.777   6.401   3.804  0.1972  0.4682  0.4973
 7246SOL    HW228750   1.688   6.436   3.796 -0.9795 -1.8344  2.3112
 7246SOL    HW328751   1.811   6.439   3.885 -0.1071 -0.4742  1.0915
 7246SOL    MW428752   1.769   6.411   3.814  0.0248 -0.4163 -0.2408
 7247SOL     OW28753   4.689   5.984   6.346  0.2678 -0.4549  0.1645
 7247SOL    HW228754   4.708   6.057   6.405  1.1132 -0.3247 -0.2481
 7247SOL    HW328755   4.766   5.978   6.290  0.0097 -1.3725 -0.1142
 7247SOL    MW428756   4.702   5.993   6.347  0.4110  0.4563 -0.2262
 7248SOL     OW28757   3.056   5.351   2.721 -0.4863  0.3299  0.3942
 7248SOL    HW228758   3.068   5.426   2.662 -0.1429 -0.4244 -0.5077
 7248SOL    HW328759   3.051   5.391   2.808 -0.7318  1.4405 -0.1035
 7248SOL    MW428760   3.057   5.366   2.725 -0.5047 -0.4146 -0.5162
 7249SOL     OW28761   4.826   3.956   5.016 -0.5962 -0.2301 -0.2293
 7249SOL    HW228762   4.867   3.975   5.100 -2.1154  1.0852  0.2674
 7249SOL    HW328763   4.824   3.860   5.011  1.7695 -0.3352  0.0510
 7249SOL    MW428764   4.831   3.946   5.027  0.6332 -0.1605  0.0514
 7250SOL     OW28765   4.649   1.082   6.182  0.2261  0.6277 -0.1018
 7250SOL    HW228766   4.556   1.085   6.203  0.0772  1.8056 -0.8099
 7250SOL    HW328767   4.689   1.032   6.253 -1.2305 -2.0558 -1.0470
 7250SOL    MW428768   4.642   1.076   6.194  0.8511 -0.1612  0.2183
 7251SOL     OW28769   3.862   3.556   6.090  0.5646  0.2034  0.2677
 7251SOL    HW228770   3.902   3.579   6.007  0.2296  0.8623  0.2864
 7251SOL    HW328771   3.934   3.524   6.144  0.9053  0.5018 -0.0132
 7251SOL    MW428772   3.877   3.555   6.086  0.3233 -0.0268  0.3823
 7252SOL     OW28773   4.783   2.571   4.939  0.0272 -0.1262 -0.1253
 7252SOL    HW228774   4.716   2.570   5.007 -0.5787  0.0841 -0.7042
 7252SOL    HW328775   4.783   2.661   4.907  1.8461  0.3593  1.0652
 7252SOL    MW428776   4.774   2.583   4.943  0.2832  0.6197  0.2589
 7253SOL     OW28777   0.177   6.185   0.490  0.0678  0.5322  0.1248
 7253SOL    HW228778   0.235   6.135   0.548 -0.2508  0.4922  0.4149
 7253SOL    HW328779   0.091   6.178   0.531  0.0509  1.4722  0.2617
 7253SOL    MW428780   0.173   6.177   0.503  0.0549 -0.1097 -0.5322
 7254SOL     OW28781   6.091   5.639   3.727 -0.3908 -0.2105 -0.0867
 7254SOL    HW228782   6.076   5.724   3.687  0.7708  0.2534  0.4096
 7254SOL    HW328783   6.004   5.605   3.746 -0.8680  0.7981 -0.4398
 7254SOL    MW428784   6.078   5.645   3.725 -0.7952 -0.7262  0.4463
 7255SOL     OW28785   1.192   6.104   3.044 -0.1255  0.2889 -0.0120
 7255SOL    HW228786   1.141   6.167   3.095  0.1713  0.0480  0.5859
 7255SOL    HW328787   1.129   6.037   3.018 -0.5329  1.0246 -0.9999
 7255SOL    MW428788   1.177   6.104   3.047  1.0033 -0.1050 -0.1202
 7256SOL     OW28789   3.655   2.153   1.627  0.3058  0.0798  0.5372
 7256SOL    HW228790   3.711   2.161   1.550  0.5459 -1.2046  0.5649
 7256SOL    HW328791   3.621   2.064   1.624 -2.5158  1.0746  0.0189
 7256SOL    MW428792   3.658   2.142   1.617 -0.9854 -0.0432  0.3098
 7257SOL     OW28793   2.704   0.843   1.680  0.4651 -0.4497 -0.4665
 7257SOL    HW228794   2.774   0.812   1.737  0.1091 -1.8922 -0.7612
 7257SOL    HW328795   2.633   0.869   1.739  1.3391  1.3773 -0.1525
 7257SOL    MW428796   2.704   0.842   1.695  0.3092 -0.0597 -0.3160
 7258SOL     OW28797   5.169   5.112   0.182  0.4032  0.5978  0.3598
 7258SOL    HW228798   5.219   5.034   0.159  0.2367  0.6928 -0.3741
 7258SOL    HW328799   5.196   5.177   0.117 -1.2158  0.4212 -0.5464
 7258SOL    MW428800   5.179   5.110   0.170 -0.5460 -0.1334  0.6781
 7259SOL     OW28801   4.060   4.821   1.598 -0.2112  0.4784 -0.1193
 7259SOL    HW228802   4.093   4.901   1.558  1.6132  0.1602  0.6461
 7259SOL    HW328803   3.982   4.848   1.646  0.6935  1.9203  0.5942
 7259SOL    MW428804   4.054   4.835   1.599 -0.4512  0.4308  0.4551
 7260SOL     OW28805   1.276   6.164   5.272 -0.2184 -0.1257 -0.6489
 7260SOL    HW228806   1.201   6.116   5.236 -0.9206  0.7983 -0.4691
 7260SOL    HW328807   1.353   6.114   5.244 -0.9373 -1.6616  0.0286
 7260SOL    MW428808   1.276   6.151   5.263  0.5430  0.1626 -0.2906
 7261SOL     OW28809   2.462   1.892   1.715  0.5390 -0.2443 -0.1639
 7261SOL    HW228810   2.496   1.974   1.750 -0.8700  0.3787 -0.2001
 7261SOL    HW328811   2.369   1.892   1.737 -0.2352 -0.2567 -2.9976
 7261SOL    MW428812   2.454   1.903   1.722  0.7526  0.5802  0.8274
 7262SOL     OW28813   1.291   5.675   3.088  0.5350 -0.3029  0.8668
 7262SOL    HW228814   1.266   5.757   3.130  2.1552 -0.4386  2.1635
 7262SOL    HW328815   1.271   5.689   2.995 -0.0465  1.2124  1.1914
 7262SOL    MW428816   1.285   5.688   3.081  0.1849 -0.0253  0.1604
 7263SOL     OW28817   1.669   4.881   2.879 -0.7202  0.4770  0.5788
 7263SOL    HW228818   1.736   4.918   2.936  0.7398  0.1725 -0.8484
 7263SOL    HW328819   1.633   4.808   2.928  3.0015 -2.0955 -0.0804
 7263SOL    MW428820   1.673   4.876   2.893  0.3560  0.5048 -0.1902
 7264SOL     OW28821   1.281   0.487   5.775  0.5475  0.8070  0.1869
 7264SOL    HW228822   1.295   0.452   5.863  1.5345  1.3291  0.2430
 7264SOL    HW328823   1.189   0.514   5.774  0.7392  1.5655  1.3378
 7264SOL    MW428824   1.271   0.486   5.786  0.1133 -0.0734  0.0243
 7265SOL     OW28825   2.713   2.112   5.707 -0.0694  0.2322 -0.1869
 7265SOL    HW228826   2.751   2.130   5.793 -0.4909 -1.0310  0.2851
 7265SOL    HW328827   2.640   2.172   5.700 -0.2538  0.1007  0.5019
 7265SOL    MW428828   2.708   2.122   5.718 -0.2494  0.0812  0.0774
 7266SOL     OW28829   3.302   3.578   4.011  0.5194  0.6751  0.0335
 7266SOL    HW228830   3.305   3.646   4.077 -2.1897  0.4835  0.4651
 7266SOL    HW328831   3.253   3.617   3.938 -0.0867 -0.4239 -0.1710
 7266SOL    MW428832   3.296   3.592   4.010 -0.3678  0.2142 -0.0269
 7267SOL     OW28833   5.905   3.758   5.825  0.3640 -0.1365  0.3583
 7267SOL    HW228834   5.880   3.780   5.915  0.7149  0.8497  0.2239
 7267SOL    HW328835   5.822   3.733   5.783  0.0953  0.0468  0.7716
 7267SOL    MW428836   5.891   3.758   5.832 -1.2137  0.3274 -0.2246
 7268SOL     OW28837   4.358   4.905   0.163  0.4256  0.1428 -0.1165
 7268SOL    HW228838   4.305   4.874   0.090 -0.5626  1.3854  0.0367
 7268SOL    HW328839   4.327   4.855   0.239  1.1788 -0.8636 -0.4551
 7268SOL    MW428840   4.347   4.895   0.164  0.1102  0.2469 -0.1417
 7269SOL     OW28841   2.427   5.712   1.032 -0.2404  0.2506 -0.3125
 7269SOL    HW228842   2.451   5.631   1.078 -0.1279  0.1146 -0.6069
 7269SOL    HW328843   2.377   5.762   1.097  0.6578  0.4568  0.2514
 7269SOL    MW428844   2.424   5.708   1.047  0.0356 -0.1617  0.4611
 7270SOL     OW28845   1.258   0.929   1.973  0.3404 -0.4249  0.6830
 7270SOL    HW228846   1.299   1.013   1.956 -0.0610 -0.0990  1.2996
 7270SOL    HW328847   1.216   0.905   1.890  0.2751  0.0804  0.5684
 7270SOL    MW428848   1.258   0.937   1.960 -0.3550 -0.5254 -0.1705
 7271SOL     OW28849   5.191   2.142   2.381  0.3414  0.0499 -0.0548
 7271SOL    HW228850   5.179   2.222   2.432  1.3186  0.6666 -0.7625
 7271SOL    HW328851   5.103   2.103   2.378 -0.1872  1.1549  0.1880
 7271SOL    MW428852   5.177   2.148   2.387 -0.0016 -0.0726  0.7052
 7272SOL     OW28853   1.120   2.437   3.804 -0.2481 -0.9521 -0.1911
 7272SOL    HW228854   1.080   2.397   3.881  0.8021 -1.5478  0.0616
 7272SOL    HW328855   1.117   2.531   3.821 -2.6390 -0.8725 -0.7333
 7272SOL    MW428856   1.115   2.444   3.816 -0.0503 -0.5606  0.0895
 7273SOL     OW28857   6.251   5.605   1.386  0.2123  0.4336  0.0237
 7273SOL    HW228858   6.275   5.608   1.479 -0.5315 -1.8837  0.3500
 7273SOL    HW328859   6.225   5.695   1.366 -0.0399  0.9188  2.1834
 7273SOL    MW428860   6.251   5.617   1.396  0.2102 -0.3392  0.6498
 7274SOL     OW28861   4.054   1.451   1.358 -0.0019  0.4035 -0.1641
 7274SOL    HW228862   4.067   1.544   1.340 -1.0480  0.0738 -3.2886
 7274SOL    HW328863   3.968   1.447   1.401 -0.0166  0.8790 -0.1482
 7274SOL    MW428864   4.044   1.463   1.362 -0.0391  0.2108 -0.1723
 7275SOL     OW28865   3.169   3.712   3.800 -0.0622 -0.1554 -0.0207
 7275SOL    HW228866   3.074   3.717   3.790  0.0093 -0.4478 -0.9917
 7275SOL    HW328867   3.194   3.798   3.832 -0.8628 -0.7248  2.3293
 7275SOL    MW428868   3.160   3.724   3.803  0.7383 -0.3148  0.2296
 7276SOL     OW28869   6.231   1.337   3.842 -0.0065  0.4573  0.0135
 7276SOL    HW228870   6.228   1.244   3.865 -2.8471  0.3512 -0.3422
 7276SOL    HW328871   6.277   1.379   3.914  0.8969 -1.1643  0.4229
 7276SOL    MW428872   6.236   1.330   3.854 -0.3828 -0.3361  0.1173
 7277SOL     OW28873   1.934   0.681   4.461  0.2524  0.5828 -0.4337
 7277SOL    HW228874   1.896   0.604   4.502  0.4351  1.3991  1.3749
 7277SOL    HW328875   2.028   0.668   4.468  0.4553 -0.8448 -3.7750
 7277SOL    MW428876   1.941   0.669   4.467  0.7653 -0.1668  0.1768
 7278SOL     OW28877   0.614   2.648   4.220 -0.8553 -0.0830  0.1806
 7278SOL    HW228878   0.682   2.584   4.202 -0.9648 -0.3159  0.5839
 7278SOL    HW328879   0.597   2.690   4.136 -0.1941 -0.0025  0.0859
 7278SOL    MW428880   0.620   2.645   4.207 -0.3653  0.1738  0.0624
 7279SOL     OW28881   3.531   4.344   3.049 -0.5219  0.4839  0.0513
 7279SOL    HW228882   3.474   4.417   3.028 -0.8000  0.3323  0.2663
 7279SOL    HW328883   3.519   4.282   2.977 -0.9617  0.2611  0.3123
 7279SOL    MW428884   3.522   4.345   3.037  0.3573  0.1961 -0.7954
 7280SOL     OW28885   3.934   3.631   5.843 -0.3823  0.1973 -0.6855
 7280SOL    HW228886   3.977   3.552   5.810 -0.5207 -0.7052  1.1727
 7280SOL    HW328887   3.950   3.696   5.775 -1.3599 -1.7299 -2.9062
 7280SOL    MW428888   3.942   3.629   5.830 -0.0585  0.0009 -0.1280
 7281SOL     OW28889   2.384   1.750   2.754  0.3381 -0.4517 -0.3859
 7281SOL    HW228890   2.327   1.726   2.681  1.4481  0.3462 -1.5487
 7281SOL    HW328891   2.408   1.841   2.737 -0.7078  0.3273  1.8759
 7281SOL    MW428892   2.380   1.759   2.742  0.4476 -0.8254 -0.3943
 7282SOL     OW28893   5.990   0.005   1.733  0.0338  0.2334 -0.3619
 7282SOL    HW228894   6.010  -0.084   1.762  1.0711  0.5899  0.0429
 7282SOL    HW328895   5.972  -0.004   1.639 -1.7312 -0.6751  0.0172
 7282SOL    MW428896   5.990  -0.008   1.724 -0.2588  0.2627  0.1914
 7283SOL     OW28897   5.853   1.509   5.494 -0.3430  0.2462 -0.6161
 7283SOL    HW228898   5.938   1.535   5.458 -1.0161  0.6727 -1.9670
 7283SOL    HW328899   5.874   1.445   5.562  1.1826  1.8984  0.5568
 7283SOL    MW428900   5.867   1.504   5.498  0.0538  0.1545 -0.3827
 7284SOL     OW28901   4.622   3.553   0.807  0.0211 -0.6530 -0.0799
 7284SOL    HW228902   4.620   3.479   0.746 -2.1388 -1.7853  1.2632
 7284SOL    HW328903   4.654   3.516   0.889  0.4278  0.2822  0.1974
 7284SOL    MW428904   4.626   3.538   0.810  0.5896  0.5466 -0.4501
 7285SOL     OW28905   5.233   0.778   2.434 -0.4401  0.6711  0.4381
 7285SOL    HW228906   5.225   0.782   2.339 -1.4045 -2.0940  0.3234
 7285SOL    HW328907   5.253   0.687   2.453 -0.9273  1.0136  2.9508
 7285SOL    MW428908   5.235   0.767   2.424  0.2105  0.8190 -0.1336
 7286SOL     OW28909   3.490   3.523   1.681  0.2754  0.3541 -0.1834
 7286SOL    HW228910   3.449   3.590   1.736 -0.5920 -0.3221  0.0301
 7286SOL    HW328911   3.579   3.515   1.715  0.5257  1.6611 -0.4684
 7286SOL    MW428912   3.496   3.531   1.693  0.8059  0.3950  0.1352
 7287SOL     OW28913   4.765   3.418   3.243  0.3871 -0.0018  0.2118
 7287SOL    HW228914   4.726   3.406   3.156 -2.1066  2.3972  0.8762
 7287SOL    HW328915   4.710   3.366   3.301  0.1460  0.8501  0.7554
 7287SOL    MW428916   4.753   3.409   3.239 -0.0659  0.7203 -0.0730
 7288SOL     OW28917   1.849   5.846   1.778  0.5610  0.2399 -0.1326
 7288SOL    HW228918   1.754   5.839   1.773  0.5771  0.6400 -1.3128
 7288SOL    HW328919   1.870   5.820   1.867 -0.8425  2.2248  0.8565
 7288SOL    MW428920   1.839   5.842   1.789 -0.0157  0.9236 -0.0535
 7289SOL     OW28921   0.173   0.740   1.154 -0.4905  0.6009 -0.2714
 7289SOL    HW228922   0.250   0.689   1.128  0.2224  1.3146  0.4046
 7289SOL    HW328923   0.199   0.784   1.235 -1.1260  1.9752 -0.7930
 7289SOL    MW428924   0.186   0.739   1.161  0.9749  0.1235 -0.3478
 7290SOL     OW28925   1.764   0.451   0.999 -0.4116 -0.7463 -0.2520
 7290SOL    HW228926   1.680   0.473   1.039 -0.3563 -2.4266  0.9053
 7290SOL    HW328927   1.828   0.503   1.047 -0.5308 -1.5189  0.8000
 7290SOL    MW428928   1.761   0.461   1.011 -0.7411 -0.3421 -0.1986
 7291SOL     OW28929   1.536   2.539   1.616  0.0719 -0.0599 -0.1520
 7291SOL    HW228930   1.540   2.534   1.711 -1.5798  1.1151  0.0325
 7291SOL    HW328931   1.626   2.557   1.588  0.5295 -0.2012  1.1905
 7291SOL    MW428932   1.548   2.541   1.625  0.6109 -0.3322 -0.3278
 7292SOL     OW28933   4.509   1.462   4.834 -0.0630 -0.1987  0.3519
 7292SOL    HW228934   4.510   1.372   4.866  1.5564 -0.1024  0.6266
 7292SOL    HW328935   4.556   1.459   4.751 -1.6450  0.0913 -0.6029
 7292SOL    MW428936   4.515   1.450   4.828  0.0033  0.0693  0.3440
 7293SOL     OW28937   3.341   3.504   3.314  0.2799 -0.3697 -0.4514
 7293SOL    HW228938   3.306   3.425   3.274  0.2936 -0.0603 -1.0899
 7293SOL    HW328939   3.279   3.526   3.383 -0.2884 -0.3496 -0.9586
 7293SOL    MW428940   3.329   3.497   3.318 -0.0203  0.4404  0.2525
 7294SOL     OW28941   3.903   4.262   4.166 -0.2056  0.1319  0.0051
 7294SOL    HW228942   3.891   4.168   4.146 -1.0462  0.2321 -0.0071
 7294SOL    HW328943   3.949   4.263   4.249  2.7473 -0.3050 -1.4838
 7294SOL    MW428944   3.907   4.249   4.174  0.0705 -0.1814 -0.1252
 7295SOL     OW28945   4.126   5.077   0.588  0.3668 -0.3121  0.2256
 7295SOL    HW228946   4.163   5.109   0.506 -1.0122 -0.4070 -0.4638
 7295SOL    HW328947   4.126   5.153   0.646 -0.2833  0.2358 -0.4667
 7295SOL    MW428948   4.131   5.091   0.585 -0.2481  0.7000  0.1770
 7296SOL     OW28949   1.827   4.985   1.861  0.1725 -0.1218 -0.0841
 7296SOL    HW228950   1.907   4.941   1.832  1.7264  2.0176  0.6683
 7296SOL    HW328951   1.839   4.997   1.955 -1.1377  0.0694  0.0728
 7296SOL    MW428952   1.839   4.981   1.870  0.0763  0.0093  0.7851
 7297SOL     OW28953   4.903   2.031   6.037  0.1057  0.1124  0.3490
 7297SOL    HW228954   4.969   2.050   5.970 -0.7491 -0.3676 -0.6601
 7297SOL    HW328955   4.903   2.109   6.093  1.7247 -0.0031  0.5655
 7297SOL    MW428956   4.912   2.044   6.036  0.0934  0.2983 -0.0629
 7298SOL     OW28957   5.885   2.529   5.812  0.4623  0.0265  0.3496
 7298SOL    HW228958   5.794   2.523   5.840  0.2985  0.3545 -0.1118
 7298SOL    HW328959   5.935   2.503   5.889  0.0115  0.7838  0.9023
 7298SOL    MW428960   5.880   2.525   5.826  0.5400 -0.5145  0.4241
 7299SOL     OW28961   3.747   0.717   0.875  0.3281 -0.2480  0.3886
 7299SOL    HW228962   3.732   0.741   0.966  0.5161 -0.0047  0.3575
 7299SOL    HW328963   3.705   0.786   0.824  2.1518  0.8907  0.3028
 7299SOL    MW428964   3.740   0.729   0.880 -0.4727  0.6785 -0.2143
 7300SOL     OW28965   3.615   4.866   0.189 -0.1343 -0.0300  0.1501
 7300SOL    HW228966   3.666   4.793   0.156  1.2997  0.5593  0.9517
 7300SOL    HW328967   3.674   4.942   0.182 -0.3884  0.4374  2.3199
 7300SOL    MW428968   3.629   4.867   0.184 -0.1701  0.0026 -0.0251
 7301SOL     OW28969   5.849   2.549   2.853  0.2064  0.4897 -0.2736
 7301SOL    HW228970   5.919   2.602   2.891 -0.4269  2.0528 -1.2130
 7301SOL    HW328971   5.849   2.468   2.905  1.9630  0.9103  0.4471
 7301SOL    MW428972   5.858   2.545   2.865 -0.0554 -0.2053 -0.6293
 7302SOL     OW28973   1.525   4.702   3.044  0.1354 -0.0896  0.3317
 7302SOL    HW228974   1.514   4.782   3.096 -0.5183 -0.1095  0.2288
 7302SOL    HW328975   1.558   4.638   3.107  0.8996  0.3218  0.3597
 7302SOL    MW428976   1.528   4.704   3.059  0.3976  0.0683  0.0855
 7303SOL     OW28977   2.169   2.272   1.070 -0.5250  0.3428  0.6316
 7303SOL    HW228978   2.159   2.294   1.162 -1.9678 -2.6860  1.3209
 7303SOL    HW328979   2.263   2.280   1.053 -0.1237  0.2350  2.5696
 7303SOL    MW428980   2.180   2.276   1.080  0.5436 -0.2767  0.0723
 7304SOL     OW28981   4.790   1.191   2.820 -0.1917 -0.8497 -0.1319
 7304SOL    HW228982   4.828   1.273   2.853  1.5598 -1.6872  0.0587
 7304SOL    HW328983   4.726   1.219   2.754  0.5875  0.6643 -0.2945
 7304SOL    MW428984   4.787   1.206   2.816 -0.6653 -0.1445  0.0611
 7305SOL     OW28985   5.378   1.822   1.550 -0.4758 -0.2191  0.5071
 7305SOL    HW228986   5.438   1.798   1.620 -1.9015 -2.9357  0.9100
 7305SOL    HW328987   5.310   1.755   1.551 -2.2043  1.3348 -1.5368
 7305SOL    MW428988   5.377   1.810   1.559  0.3313  0.3672 -0.3363
 7306SOL     OW28989   0.855   3.618   1.606  0.4310  0.1633  0.1938
 7306SOL    HW228990   0.826   3.640   1.694 -0.4318  1.1214 -0.3122
 7306SOL    HW328991   0.943   3.581   1.618  0.9425  1.6494  1.3265
 7306SOL    MW428992   0.863   3.616   1.619 -0.5331  0.2010 -0.5553
 7307SOL     OW28993   1.860   4.735   6.323  0.1007 -0.0187 -0.3538
 7307SOL    HW228994   1.943   4.737   6.277  1.5031  0.4244  2.0333
 7307SOL    HW328995   1.860   4.651   6.368 -1.2210 -0.4382 -1.0786
 7307SOL    MW428996   1.871   4.724   6.323  0.1115  0.2784 -0.7958
 7308SOL     OW28997   3.856   2.495   1.432  0.5087 -0.3048 -0.0660
 7308SOL    HW228998   3.808   2.461   1.357 -0.8526 -0.7070  0.9434
 7308SOL    HW328999   3.946   2.465   1.419  0.4500  0.1678 -1.8327
 7308SOL    MW429000   3.862   2.487   1.421  0.1355  0.5118 -0.6068
 7309SOL     OW29001   5.804   1.032   5.779  0.1312  0.1618  0.3553
 7309SOL    HW229002   5.752   0.953   5.765 -0.6598  0.8734 -0.8556
 7309SOL    HW329003   5.845   1.018   5.865 -0.4056 -1.3189  0.4049
 7309SOL    MW429004   5.803   1.019   5.789  0.1769  0.4421  0.1111
 7310SOL     OW29005   5.295   6.263   5.432  0.0590  0.1878 -0.2640
 7310SOL    HW229006   5.252   6.256   5.347  1.0627 -0.2983 -0.7467
 7310SOL    HW329007   5.244   6.328   5.480 -0.5080  0.4747 -1.2438
 7310SOL    MW429008   5.283   6.271   5.427 -0.8458  0.0400 -0.1157
 7311SOL     OW29009   4.129   2.162   5.215  0.1180 -0.6992  0.2189
 7311SOL    HW229010   4.175   2.091   5.171  1.0120  1.1748 -2.0727
 7311SOL    HW329011   4.095   2.216   5.144 -2.6165 -0.0727  1.8619
 7311SOL    MW429012   4.130   2.160   5.200  0.0303 -0.1098 -0.1843
 7312SOL     OW29013   3.410   5.927   4.775 -0.3864  0.2854 -0.2879
 7312SOL    HW229014   3.327   5.969   4.755 -0.2825  1.0399  0.8179
 7312SOL    HW329015   3.442   5.971   4.854  1.1994  0.2042 -0.8381
 7312SOL    MW429016   3.403   5.938   4.783 -0.4076 -0.2626  0.0637
 7313SOL     OW29017   3.864   4.824   5.744  0.4231 -0.1756 -0.5385
 7313SOL    HW229018   3.824   4.911   5.744 -0.0437 -0.3742 -1.7064
 7313SOL    HW329019   3.809   4.773   5.804 -0.0370  0.0103 -0.8000
 7313SOL    MW429020   3.851   4.828   5.752  0.0501  0.3008 -0.0970
 7314SOL     OW29021   0.483   5.157   5.282  0.0736  0.4565  0.1982
 7314SOL    HW229022   0.488   5.252   5.297  2.9335  0.7140 -1.6835
 7314SOL    HW329023   0.529   5.119   5.356 -0.1313  0.6107  0.4061
 7314SOL    MW429024   0.490   5.165   5.294 -0.4966 -0.1942 -0.1820
 7315SOL     OW29025   5.819   3.157   5.113 -0.2002 -0.4062  0.4090
 7315SOL    HW229026   5.857   3.212   5.182  1.7828 -0.3192 -0.6762
 7315SOL    HW329027   5.784   3.220   5.050  3.0738 -0.1759 -1.3960
 7315SOL    MW429028   5.819   3.173   5.114  0.0763  0.1420  0.6909
 7316SOL     OW29029   0.229   2.623   5.026 -0.9087  0.2925 -0.0700
 7316SOL    HW229030   0.147   2.589   4.990 -0.7792 -1.9795  1.5272
 7316SOL    HW329031   0.291   2.620   4.953 -1.7568  0.2012 -0.7984
 7316SOL    MW429032   0.227   2.618   5.012 -0.3398 -0.7028 -0.6214
 7317SOL     OW29033   4.266   3.652   6.147 -0.3578  0.4643 -0.2364
 7317SOL    HW229034   4.322   3.699   6.208  1.6157 -2.4319  0.3812
 7317SOL    HW329035   4.226   3.720   6.093  0.1787  2.9319  2.2920
 7317SOL    MW429036   4.268   3.667   6.148 -0.0664  0.2949  0.3418
 7318SOL     OW29037   0.434   2.306   1.209  0.5013 -0.5422 -0.2051
 7318SOL    HW229038   0.351   2.306   1.161  0.3575  0.8632 -0.0107
 7318SOL    HW329039   0.409   2.324   1.300  0.9134 -1.5166  0.1142
 7318SOL    MW429040   0.420   2.309   1.215 -0.0280 -0.1791 -0.2161
 7319SOL     OW29041   3.644   1.190   2.105  0.2569  0.4955 -0.0384
 7319SOL    HW229042   3.582   1.117   2.111 -0.2734  0.7190 -2.0404
 7319SOL    HW329043   3.691   1.188   2.188 -2.3802  0.2873  1.5712
 7319SOL    MW429044   3.642   1.180   2.117  0.5353  0.0617 -0.3032
 7320SOL     OW29045   3.808   1.520   3.465  0.3210  0.3330  0.0550
 7320SOL    HW229046   3.776   1.540   3.553 -1.1120 -1.5172  0.0401
 7320SOL    HW329047   3.741   1.555   3.406  1.3792  1.7568 -0.3424
 7320SOL    MW429048   3.795   1.527   3.468 -0.2501 -0.4078 -0.0095
 7321SOL     OW29049   5.810   0.697   6.001 -0.0412  0.1705  0.1388
 7321SOL    HW229050   5.891   0.648   5.989  0.7362  1.1153  1.3237
 7321SOL    HW329051   5.740   0.634   5.983  0.9374 -1.1541  0.9130
 7321SOL    MW429052   5.811   0.683   5.997  0.8052 -0.0808  0.6471
 7322SOL     OW29053   3.471   4.178   4.527 -0.4142  0.6985 -0.6744
 7322SOL    HW229054   3.522   4.242   4.477 -0.6183 -0.5630 -2.6000
 7322SOL    HW329055   3.446   4.112   4.463  0.3182 -1.6904  1.3341
 7322SOL    MW429056   3.475   4.178   4.512 -0.0691 -0.4158  0.1566
 7323SOL     OW29057   1.498   4.382   1.311 -0.0547 -0.6733 -0.5407
 7323SOL    HW229058   1.403   4.379   1.313 -0.2068  1.7010  1.7796
 7323SOL    HW329059   1.526   4.308   1.365 -0.7557  0.2012  1.0981
 7323SOL    MW429060   1.489   4.372   1.318 -0.5355 -0.6632  0.1096
 7324SOL     OW29061   3.130   1.465   0.768  0.2624  0.1871 -0.1074
 7324SOL    HW229062   3.101   1.514   0.691  2.2043 -0.0742 -1.0639
 7324SOL    HW329063   3.210   1.509   0.797  0.5242 -0.7678  0.6877
 7324SOL    MW429064   3.137   1.477   0.761 -0.5650  0.4165  0.2993
 7325SOL     OW29065   4.277   4.863   2.610 -0.4539  0.3920 -0.1428
 7325SOL    HW229066   4.201   4.880   2.665 -2.5536  0.1678 -2.7808
 7325SOL    HW329067   4.305   4.775   2.633 -0.9092  0.5059  0.9048
 7325SOL    MW429068   4.271   4.854   2.621 -0.6248  0.1630  0.3290
 7326SOL     OW29069   1.614   3.434   0.891  0.1937  0.1012  0.0359
 7326SOL    HW229070   1.684   3.444   0.956  0.4015 -0.2385 -0.1350
 7326SOL    HW329071   1.630   3.349   0.851 -0.6096 -0.1961  0.3315
 7326SOL    MW429072   1.626   3.424   0.894  0.2962  0.0997 -0.0618
 7327SOL     OW29073   2.411   1.045   4.380  0.1024 -0.3523  0.2210
 7327SOL    HW229074   2.483   1.001   4.424  1.0787  1.6270  0.7306
 7327SOL    HW329075   2.454   1.108   4.322 -1.1968 -1.2201 -1.7906
 7327SOL    MW429076   2.426   1.048   4.378  0.2753 -0.4256 -0.1518
 7328SOL     OW29077   4.688   2.110   5.476  0.3098  0.5361  0.2340
 7328SOL    HW229078   4.769   2.102   5.526 -0.2622  1.4162  1.3562
 7328SOL    HW329079   4.663   2.202   5.485 -1.1209  0.1577  0.4077
 7328SOL    MW429080   4.695   2.121   5.484  0.4878 -0.3120 -0.3088
 7329SOL     OW29081   3.361   2.758   5.641  0.1248  0.0447  0.0561
 7329SOL    HW229082   3.427   2.728   5.578  1.1997 -0.2456  1.2705
 7329SOL    HW329083   3.298   2.807   5.588 -0.5336 -2.4533 -1.6577
 7329SOL    MW429084   3.362   2.761   5.626  0.0160 -0.0497  0.2732
 7330SOL     OW29085   1.388   6.029   2.283 -0.5234  0.5542 -0.4457
 7330SOL    HW229086   1.451   6.093   2.251  2.3663 -0.8775  1.8638
 7330SOL    HW329087   1.380   5.966   2.211  0.0041  1.2353 -1.1230
 7330SOL    MW429088   1.395   6.029   2.269 -0.4673  0.2047 -0.4749
 7331SOL     OW29089   4.301   1.412   4.127  0.7142 -0.3499 -0.3736
 7331SOL    HW229090   4.368   1.378   4.068  1.5856 -0.1656  0.4729
 7331SOL    HW329091   4.300   1.506   4.111  2.2072 -0.0431  1.0929
 7331SOL    MW429092   4.310   1.420   4.117 -0.2689  0.0604 -0.1485
 7332SOL     OW29093   2.067   3.396   4.870 -0.0289  0.2982 -0.4180
 7332SOL    HW229094   2.008   3.462   4.907 -2.3119 -2.6184  1.7090
 7332SOL    HW329095   2.019   3.314   4.880  3.2280 -1.9302 -1.4554
 7332SOL    MW429096   2.053   3.394   4.876  0.1494  0.5027  0.0257
 7333SOL     OW29097   5.190   6.077   0.703 -0.2107  0.0925 -0.2461
 7333SOL    HW229098   5.166   6.036   0.786  0.4026  1.7519  0.7952
 7333SOL    HW329099   5.121   6.049   0.642 -1.5713  0.1148  1.2180
 7333SOL    MW429100   5.177   6.068   0.706  0.1092 -0.8342 -0.2334
 7334SOL     OW29101   1.356   0.741   2.191  0.1572 -0.0150 -0.1673
 7334SOL    HW229102   1.305   0.790   2.126 -0.3251  0.2769  0.4240
 7334SOL    HW329103   1.316   0.763   2.275  0.4502 -0.7900  0.1890
 7334SOL    MW429104   1.344   0.750   2.193  0.1608 -0.2704  0.2528
 7335SOL     OW29105   4.475   4.505   0.189  0.2656 -0.4945 -0.4335
 7335SOL    HW229106   4.542   4.565   0.157  0.8602 -1.6741 -1.4372
 7335SOL    HW329107   4.502   4.485   0.279  0.8743 -0.4257 -0.5967
 7335SOL    MW429108   4.487   4.510   0.197 -0.4230  0.4664  0.0124
 7336SOL     OW29109   5.150   0.721   5.804 -0.2632 -0.2351  0.3326
 7336SOL    HW229110   5.171   0.753   5.891 -0.3781  1.9724 -0.3891
 7336SOL    HW329111   5.061   0.754   5.787 -0.5699 -1.3374 -0.3184
 7336SOL    MW429112   5.141   0.729   5.813 -0.5532 -1.1907  0.5849
 7337SOL     OW29113   5.277   0.535   4.042  0.2333 -0.4334  0.3535
 7337SOL    HW229114   5.207   0.597   4.058 -2.1166 -2.5811 -0.9323
 7337SOL    HW329115   5.316   0.520   4.128 -1.2668  0.4066  1.2150
 7337SOL    MW429116   5.273   0.541   4.056 -0.2057 -0.2547 -0.0516
 7338SOL     OW29117   1.778   6.337   3.341 -0.0130 -0.0313 -0.1717
 7338SOL    HW229118   1.745   6.404   3.400  0.0052  0.3733 -0.6163
 7338SOL    HW329119   1.872   6.349   3.339 -0.0613  0.2965 -0.6859
 7338SOL    MW429120   1.786   6.347   3.348  0.1597 -0.0555 -0.7671
 7339SOL     OW29121   4.396   5.134   2.711  0.1541 -0.3438 -0.2674
 7339SOL    HW229122   4.309   5.170   2.732 -0.0688 -1.6527  1.2884
 7339SOL    HW329123   4.379   5.041   2.694  0.9318 -0.1219 -2.5342
 7339SOL    MW429124   4.382   5.126   2.712  0.3553  0.3378 -0.0617
 7340SOL     OW29125   4.331   4.055   2.675 -0.3909 -0.4974  0.2476
 7340SOL    HW229126   4.288   4.124   2.625 -1.3931 -1.4775 -0.2778
 7340SOL    HW329127   4.264   4.024   2.736  0.5115  0.0013  1.5350
 7340SOL    MW429128   4.317   4.060   2.676  0.9228  0.4343 -0.2346
 7341SOL     OW29129   6.283   0.556   0.622  0.1256  0.0863  0.1497
 7341SOL    HW229130   6.304   0.647   0.643  1.0272 -0.3496  1.2416
 7341SOL    HW329131   6.368   0.513   0.612 -0.2597 -0.9005  0.8889
 7341SOL    MW429132   6.297   0.562   0.624  0.6377  0.6954 -0.1001
 7342SOL     OW29133   5.140   0.039   5.129 -0.4151  0.2053 -0.2064
 7342SOL    HW229134   5.135  -0.055   5.145  0.2819  0.1336 -0.3719
 7342SOL    HW329135   5.229   0.053   5.095 -0.6130  0.8773 -0.4712
 7342SOL    MW429136   5.151   0.029   5.126 -0.4023  0.4234  0.4534
 7343SOL     OW29137   0.263   1.886   5.599  0.6904 -0.0371 -0.3605
 7343SOL    HW229138   0.251   1.817   5.665 -0.1943  0.4357 -0.0193
 7343SOL    HW329139   0.358   1.891   5.588  0.7950 -0.9741 -0.0320
 7343SOL    MW429140   0.274   1.877   5.606 -0.6102  0.2764  0.2500
 7344SOL     OW29141   5.937   4.164   5.147  0.8156 -0.2618  0.6961
 7344SOL    HW229142   5.966   4.191   5.060  2.0765  1.7994  1.6782
 7344SOL    HW329143   5.915   4.072   5.137  0.6770 -0.0371 -1.8439
 7344SOL    MW429144   5.938   4.156   5.134  0.2460  0.0726 -0.2791
 7345SOL     OW29145   5.335   4.846   2.527 -0.3463 -0.4151 -0.2211
 7345SOL    HW229146   5.326   4.836   2.622 -0.4996 -1.4803 -0.3380
 7345SOL    HW329147   5.317   4.938   2.511 -2.3902 -0.6375  0.5487
 7345SOL    MW429148   5.332   4.857   2.537 -0.4356  0.2024  0.6318
 7346SOL     OW29149   0.698   0.740   4.423 -0.3515 -1.3022  0.2679
 7346SOL    HW229150   0.604   0.749   4.432 -0.2649  0.8929 -0.4481
 7346SOL    HW329151   0.710   0.679   4.350 -1.2841 -0.2188 -0.8470
 7346SOL    MW429152   0.687   0.733   4.414 -0.4036  0.0308  0.2184
 7347SOL     OW29153   1.005   5.374   2.716 -0.3483 -0.2068 -0.3674
 7347SOL    HW229154   1.031   5.317   2.788  0.6771  0.6347 -0.0396
 7347SOL    HW329155   1.050   5.338   2.640  0.7344  0.4362 -0.0610
 7347SOL    MW429156   1.015   5.362   2.716 -0.0194  0.5138  0.0403
 7348SOL     OW29157   4.194   1.547   1.603 -0.2761 -0.2386 -0.0080
 7348SOL    HW229158   4.148   1.482   1.550 -2.0850  0.2594  0.8371
 7348SOL    HW329159   4.208   1.503   1.687  0.6583 -0.3221 -0.2034
 7348SOL    MW429160   4.190   1.532   1.607 -0.5081  0.3633  0.3111
 7349SOL     OW29161   4.465   2.087   4.668 -0.0135 -0.2531  1.1987
 7349SOL    HW229162   4.399   2.157   4.660  0.0568 -0.2494  0.5203
 7349SOL    HW329163   4.414   2.009   4.688 -0.5311 -0.6983 -1.3872
 7349SOL    MW429164   4.450   2.086   4.669 -0.1104  0.4351  0.6476
 7350SOL     OW29165   5.566   0.843   6.037 -0.2070 -0.0335  0.3492
 7350SOL    HW229166   5.652   0.818   6.003 -0.6605 -2.0990  0.5693
 7350SOL    HW329167   5.578   0.931   6.072  2.0104 -0.5313  0.9993
 7350SOL    MW429168   5.579   0.851   6.037 -0.3801 -0.5397  0.2702
 7351SOL     OW29169   0.569   6.163   4.242  0.1462  0.0660  0.1041
 7351SOL    HW229170   0.578   6.109   4.320  1.3728  0.0014 -0.0587
 7351SOL    HW329171   0.629   6.237   4.257 -1.7135  1.5869  0.4632
 7351SOL    MW429172   0.579   6.166   4.254 -0.5325 -0.2226  0.1863
 7352SOL     OW29173   3.895   0.678   2.417 -0.8793 -0.2246  0.3517
 7352SOL    HW229174   3.881   0.727   2.498  0.7222  0.7428  0.0974
 7352SOL    HW329175   3.854   0.731   2.349  0.0211  0.3159  0.2079
 7352SOL    MW429176   3.888   0.691   2.418  0.0408  0.2500 -0.5676
 7353SOL     OW29177   2.892   2.675   0.515 -0.0502  0.5725 -0.2000
 7353SOL    HW229178   2.968   2.650   0.464  0.0801 -1.3048  0.8087
 7353SOL    HW329179   2.886   2.770   0.506  2.1441  0.7108 -0.6443
 7353SOL    MW429180   2.901   2.684   0.507  0.3571 -0.0443 -0.0892
 7354SOL     OW29181   0.137   1.418   1.262  0.1024  0.0463 -0.2829
 7354SOL    HW229182   0.164   1.331   1.292  0.6665 -0.3556 -1.8913
 7354SOL    HW329183   0.043   1.420   1.280  0.0117 -1.0323 -0.5388
 7354SOL    MW429184   0.128   1.407   1.269 -0.5594 -0.2475 -0.0940
 7355SOL     OW29185   1.922   2.445   0.182  0.0900  0.2617  0.5912
 7355SOL    HW229186   1.998   2.386   0.180 -0.3526 -0.2964 -0.4081
 7355SOL    HW329187   1.960   2.533   0.170  0.7094  0.1513  1.6491
 7355SOL    MW429188   1.937   2.449   0.180  0.2210  0.1025  0.0471
 7356SOL     OW29189   4.161   4.618   3.900  0.4953 -0.3817 -0.5453
 7356SOL    HW229190   4.088   4.680   3.899 -0.4284 -1.3975  0.7406
 7356SOL    HW329191   4.168   4.588   3.810  0.2451  0.7445 -0.9619
 7356SOL    MW429192   4.153   4.622   3.888  0.2614 -0.2875 -0.4722
 7357SOL     OW29193   5.645   5.250   1.983  0.0428 -0.7857 -0.0026
 7357SOL    HW229194   5.686   5.312   2.043 -1.5399  0.4180 -0.0970
 7357SOL    HW329195   5.712   5.183   1.968  1.1697 -0.0555  1.5082
 7357SOL    MW429196   5.659   5.250   1.989 -0.6539 -0.1362 -0.3285
 7358SOL     OW29197   3.672   1.381   0.983  0.1314  0.2601 -0.1958
 7358SOL    HW229198   3.666   1.298   0.935 -2.7821 -0.6044  1.4115
 7358SOL    HW329199   3.632   1.445   0.924 -0.7332 -0.1885 -0.1050
 7358SOL    MW429200   3.666   1.379   0.969  0.0866  0.0152 -0.2380
 7359SOL     OW29201   6.432   2.697   6.114 -0.0552 -0.0566 -0.1339
 7359SOL    HW229202   6.449   2.777   6.064  3.0626 -0.9124 -0.6858
 7359SOL    HW329203   6.452   2.626   6.052  4.7646 -1.1818  2.2780
 7359SOL    MW429204   6.437   2.698   6.099  0.1555 -0.4251  0.1397
 7360SOL     OW29205   0.997   1.193   3.860  0.4372  0.0464  0.4637
 7360SOL    HW229206   1.069   1.131   3.858 -0.2127 -0.7150  0.1106
 7360SOL    HW329207   1.028   1.265   3.915  1.4629 -0.2601  0.2912
 7360SOL    MW429208   1.010   1.194   3.867  0.2851  0.3315  0.2018
 7361SOL     OW29209   4.537   3.586   1.739 -0.0811  0.2357 -0.0871
 7361SOL    HW229210   4.599   3.562   1.670 -0.1886  0.0049 -0.1072
 7361SOL    HW329211   4.455   3.603   1.692  0.6268  3.3503 -0.3932
 7361SOL    MW429212   4.534   3.585   1.723 -0.1049  0.3053  0.1291
 7362SOL     OW29213   3.189   5.938   5.066  0.0630 -0.1292  0.2252
 7362SOL    HW229214   3.195   5.845   5.043  0.8980 -0.1353  0.4400
 7362SOL    HW329215   3.278   5.963   5.090 -0.0162  0.8946 -0.4562
 7362SOL    MW429216   3.202   5.929   5.066  0.0618 -0.0502  0.3483
 7363SOL     OW29217   4.686   0.152   2.686 -0.4759 -0.4463 -0.2149
 7363SOL    HW229218   4.753   0.183   2.625 -0.4018  0.3238  0.2533
 7363SOL    HW329219   4.682   0.057   2.670  0.1413 -0.3800 -0.8174
 7363SOL    MW429220   4.694   0.144   2.676 -0.5193 -0.0796  0.2306
 7364SOL     OW29221   1.322   2.176   2.204  0.1844 -0.1879 -0.3173
 7364SOL    HW229222   1.324   2.118   2.280 -2.8237 -1.0413 -0.7508
 7364SOL    HW329223   1.259   2.244   2.229  1.2364  1.0880 -1.0447
 7364SOL    MW429224   1.314   2.178   2.217  0.6056  0.1681 -0.8406
 7365SOL     OW29225   4.939   2.746   4.718 -0.1451 -0.3085  0.3137
 7365SOL    HW229226   4.926   2.672   4.659 -0.6203  0.3351 -0.4104
 7365SOL    HW329227   4.885   2.816   4.681 -2.1321 -0.4670  2.6165
 7365SOL    MW429228   4.930   2.745   4.705 -0.2491  0.1751  0.8868
 7366SOL     OW29229   5.580   3.406   0.176 -0.0430 -0.0590 -0.3045
 7366SOL    HW229230   5.625   3.349   0.238 -2.1440 -0.5752  0.8402
 7366SOL    HW329231   5.620   3.492   0.190  0.8718 -0.5763  0.3633
 7366SOL    MW429232   5.591   3.410   0.186  0.0651  0.4201 -0.2004
 7367SOL     OW29233   2.537   4.161   6.041  0.4502  0.4068  0.5171
 7367SOL    HW229234   2.556   4.127   5.954  0.4517 -0.2793  0.7830
 7367SOL    HW329235   2.455   4.209   6.031  1.6173  2.3674 -0.3780
 7367SOL    MW429236   2.529   4.163   6.028 -0.0829 -0.3333 -0.3592
 7368SOL     OW29237   1.739   3.179   5.767 -0.4357  0.1938  0.3299
 7368SOL    HW229238   1.765   3.090   5.792 -1.0587  0.5963  2.6289
 7368SOL    HW329239   1.814   3.234   5.792 -0.6937  0.5060  0.4303
 7368SOL    MW429240   1.752   3.175   5.774  0.5083 -0.4951 -0.4528
 7369SOL     OW29241   5.861   3.775   6.106  0.9350  0.0158 -0.2294
 7369SOL    HW229242   5.937   3.759   6.162  0.8499  1.0904  0.2200
 7369SOL    HW329243   5.843   3.868   6.117 -0.2760 -0.1664 -0.5512
 7369SOL    MW429244   5.868   3.785   6.115 -0.4570  0.6267  0.4617
 7370SOL     OW29245   1.727   4.689   3.708 -0.4886 -0.6716 -0.2633
 7370SOL    HW229246   1.741   4.675   3.801  0.4089 -0.5546 -0.3691
 7370SOL    HW329247   1.790   4.631   3.665 -0.7788 -0.6028 -0.7895
 7370SOL    MW429248   1.738   4.680   3.715 -0.8280  0.3714 -0.2086
 7371SOL     OW29249   5.116   4.958   6.335  0.3424  0.3409  0.0614
 7371SOL    HW229250   5.165   4.937   6.256 -1.0086  0.1857 -0.7601
 7371SOL    HW329251   5.180   4.947   6.406  1.1543 -1.1153 -0.8413
 7371SOL    MW429252   5.131   4.954   6.334 -0.2112  0.0726 -0.3238
 7372SOL     OW29253   1.626   1.117   2.361 -0.1383  0.6849 -0.3583
 7372SOL    HW229254   1.567   1.057   2.314  0.0367  1.1282 -1.1537
 7372SOL    HW329255   1.587   1.203   2.349  0.2687  0.8872 -0.2363
 7372SOL    MW429256   1.613   1.120   2.353  0.4976  0.1346 -1.1553
 7373SOL     OW29257   0.330   4.983   2.809 -0.0417 -0.2630 -0.0113
 7373SOL    HW229258   0.315   5.076   2.822 -0.3901 -0.3391  0.1643
 7373SOL    HW329259   0.243   4.947   2.792  0.4450  0.0191 -4.0146
 7373SOL    MW429260   0.317   4.990   2.809 -0.2429 -0.2820  0.6641
 7374SOL     OW29261   2.632   0.615   4.367 -0.6394  0.0036  0.1211
 7374SOL    HW229262   2.578   0.674   4.315  0.1880  0.2542 -0.4781
 7374SOL    HW329263   2.629   0.532   4.320 -1.5890 -0.3759  0.8223
 7374SOL    MW429264   2.624   0.612   4.354 -0.1624 -0.5303 -0.5843
 7375SOL     OW29265   2.509   5.110   5.397  0.9699  0.6622  0.1039
 7375SOL    HW229266   2.553   5.054   5.461  0.5355 -1.0986 -1.0393
 7375SOL    HW329267   2.578   5.134   5.335  0.9603  0.4896  0.0231
 7375SOL    MW429268   2.524   5.106   5.397 -0.7387  0.0468 -0.4302
 7376SOL     OW29269   5.831   5.614   6.246  0.1250 -0.4637  0.4357
 7376SOL    HW229270   5.772   5.540   6.231  0.7524 -0.7898 -0.5648
 7376SOL    HW329271   5.812   5.675   6.175 -0.1638  0.2038  1.0732
 7376SOL    MW429272   5.821   5.612   6.234  0.0559 -0.5005 -0.0443
 7377SOL     OW29273   5.448   5.062   5.870  0.1670  0.0733 -0.0931
 7377SOL    HW229274   5.387   5.052   5.797  0.6184  1.6255 -0.7450
 7377SOL    HW329275   5.472   4.973   5.894  0.4194 -0.5016 -2.2226
 7377SOL    MW429276   5.443   5.049   5.863 -0.0248 -0.1012 -0.2916
 7378SOL     OW29277   2.720   5.625   5.102 -0.3145  0.3463 -0.0160
 7378SOL    HW229278   2.716   5.650   5.010 -0.2808 -2.0407 -0.7231
 7378SOL    HW329279   2.630   5.631   5.133 -0.6119 -0.4667 -0.6912
 7378SOL    MW429280   2.708   5.629   5.094  0.3487 -0.1780 -0.2443
 7379SOL     OW29281   3.584   0.649   5.409 -0.3612 -0.7325  0.5250
 7379SOL    HW229282   3.528   0.599   5.468  1.2534 -1.3157  1.6439
 7379SOL    HW329283   3.673   0.624   5.434  0.4357  0.9184 -0.5058
 7379SOL    MW429284   3.588   0.639   5.420  0.3076  0.1858  0.1815
 7380SOL     OW29285   0.361   5.543   1.528  0.5172 -0.2907 -0.2013
 7380SOL    HW229286   0.306   5.505   1.460  0.3146 -1.1222  0.4006
 7380SOL    HW329287   0.429   5.476   1.543  0.0366 -0.5310  1.0232
 7380SOL    MW429288   0.363   5.529   1.521 -0.0653  0.2162  0.3405
 7381SOL     OW29289   0.943   4.576   5.650  0.1525 -0.1800 -0.9406
 7381SOL    HW229290   0.918   4.631   5.576 -1.0105 -0.7349 -0.9948
 7381SOL    HW329291   0.903   4.619   5.726  1.2315  0.3170 -0.6280
 7381SOL    MW429292   0.934   4.589   5.651  0.4291  0.0300 -0.4474
 7382SOL     OW29293   1.707   4.353   0.280  0.0933 -0.5923 -0.3320
 7382SOL    HW229294   1.629   4.384   0.324 -0.1853 -0.3654 -0.9763
 7382SOL    HW329295   1.687   4.262   0.256  1.4700 -1.9169  2.9211
 7382SOL    MW429296   1.694   4.345   0.283 -0.2937  0.0548 -0.1146
 7383SOL     OW29297   1.434   4.175   3.136  0.1277  0.6761 -0.3464
 7383SOL    HW229298   1.476   4.146   3.217 -1.2791  1.1873  0.6244
 7383SOL    HW329299   1.361   4.114   3.124  0.0834  0.8551 -0.9987
 7383SOL    MW429300   1.430   4.163   3.145  0.4046 -0.0793 -0.1720
 7384SOL     OW29301   3.662   4.226   2.670 -0.6077 -0.0770  0.5670
 7384SOL    HW229302   3.661   4.173   2.590  0.4310  0.9419 -0.1332
 7384SOL    HW329303   3.594   4.185   2.725 -1.5014 -0.6707 -0.8950
 7384SOL    MW429304   3.653   4.214   2.667 -0.3171  0.2034 -0.2988
 7385SOL     OW29305   3.629   3.819   6.379 -0.1376  0.0776  1.0630
 7385SOL    HW229306   3.559   3.831   6.443 -1.2147  1.6526 -0.2989
 7385SOL    HW329307   3.701   3.872   6.412 -0.7368  1.0004  0.9167
 7385SOL    MW429308   3.629   3.828   6.392 -0.6273  0.0854  0.4158
 7386SOL     OW29309   2.214   1.849   0.047  0.2075 -0.4194 -0.4701
 7386SOL    HW229310   2.246   1.783  -0.015  0.1129 -0.0285 -0.9432
 7386SOL    HW329311   2.119   1.852   0.031  0.1842 -0.3194 -0.3073
 7386SOL    MW429312   2.206   1.841   0.036 -0.0787  0.6725  0.3798
 7387SOL     OW29313   4.793   1.106   5.394  0.0525  0.8849 -0.3091
 7387SOL    HW229314   4.880   1.110   5.433 -0.2016 -0.8751  0.5197
 7387SOL    HW329315   4.735   1.079   5.466 -0.8498  0.1010 -1.3024
 7387SOL    MW429316   4.797   1.103   5.409  0.3672  0.0081 -0.5866
 7388SOL     OW29317   4.351   5.273   4.830 -0.0980  0.4678 -0.5515
 7388SOL    HW229318   4.308   5.194   4.797 -1.1524  0.6132  0.4181
 7388SOL    HW329319   4.403   5.304   4.756 -1.1455 -0.0848 -1.5530
 7388SOL    MW429320   4.353   5.266   4.816  0.5893  0.3853 -0.0489
 7389SOL     OW29321   5.940   0.276   2.344 -0.6636  0.0962  0.6362
 7389SOL    HW229322   5.997   0.301   2.418  0.6353  0.3658 -0.4121
 7389SOL    HW329323   5.916   0.359   2.303  0.2625 -0.1208 -0.3984
 7389SOL    MW429324   5.945   0.290   2.348 -0.0501  0.7789  0.5198
 7390SOL     OW29325   6.286   5.092   0.286  0.2706 -0.1583 -0.3379
 7390SOL    HW229326   6.294   5.018   0.346 -0.5408 -1.3054 -1.5839
 7390SOL    HW329327   6.222   5.150   0.326 -1.4880 -1.6931 -0.8065
 7390SOL    MW429328   6.279   5.090   0.299 -0.2539 -0.5396 -0.5063
 7391SOL     OW29329   1.133   5.887   0.722  0.0301  0.0159 -0.1718
 7391SOL    HW229330   1.227   5.886   0.738  0.0176 -0.3621 -0.1247
 7391SOL    HW329331   1.099   5.956   0.779  0.4163  0.8872 -0.9642
 7391SOL    MW429332   1.141   5.896   0.732  0.1952 -0.0548  0.1822
 7392SOL     OW29333   2.013   3.005   1.340  0.0086 -0.7905  0.4968
 7392SOL    HW229334   2.048   2.918   1.358  2.2367 -0.3823 -1.4420
 7392SOL    HW329335   2.086   3.065   1.355 -0.9878  0.5746  0.1460
 7392SOL    MW429336   2.027   3.002   1.344  0.2345  0.5564  0.0579
 7393SOL     OW29337   5.086   3.205   0.388 -0.1256  0.2513 -0.1037
 7393SOL    HW229338   5.154   3.201   0.456 -0.7304  0.3781  0.5254
 7393SOL    HW329339   5.134   3.216   0.306  0.6763 -0.7844  0.2003
 7393SOL    MW429340   5.102   3.206   0.386 -0.3335 -0.1189 -0.1925
 7394SOL     OW29341   5.925   2.377   4.720  0.1871  0.7188 -0.0708
 7394SOL    HW229342   6.000   2.371   4.779  3.0565  0.6385 -3.4529
 7394SOL    HW329343   5.924   2.293   4.674 -2.1118  0.6670 -0.0328
 7394SOL    MW429344   5.935   2.365   4.722 -0.5234 -0.0447  0.0341
 7395SOL     OW29345   4.822   5.130   2.882  0.1664 -0.0541  0.0276
 7395SOL    HW229346   4.852   5.200   2.939 -0.8844 -0.2431  0.8558
 7395SOL    HW329347   4.800   5.173   2.799  0.3301  0.4502  0.2444
 7395SOL    MW429348   4.823   5.145   2.878  0.0776  0.1699  0.6545
 7396SOL     OW29349   4.759   0.778   0.832  0.1772  0.1948  0.0781
 7396SOL    HW229350   4.798   0.832   0.901 -0.5020  1.2657 -0.3587
 7396SOL    HW329351   4.711   0.710   0.880  0.1309  0.6220  0.6522
 7396SOL    MW429352   4.758   0.776   0.848 -0.2430 -0.3119 -0.3729
 7397SOL     OW29353   6.409   5.983   6.250 -0.0988 -0.2890 -0.4387
 7397SOL    HW229354   6.482   5.949   6.200 -0.3877 -0.8368 -0.4950
 7397SOL    HW329355   6.431   5.966   6.341 -0.1977 -0.5430 -0.4612
 7397SOL    MW429356   6.421   5.976   6.256 -0.9038  0.0588 -0.1793
 7398SOL     OW29357   1.554   1.376   2.906 -0.1409 -0.1132 -0.4214
 7398SOL    HW229358   1.644   1.408   2.901 -0.6100  1.2547 -0.4959
 7398SOL    HW329359   1.501   1.454   2.922 -1.1310 -1.1508  1.8826
 7398SOL    MW429360   1.559   1.391   2.907 -0.2144 -0.0232  0.4409
 7399SOL     OW29361   6.032   5.506   4.964  0.2228  0.3268  0.0868
 7399SOL    HW229362   5.991   5.541   5.043  1.2910  0.4455  0.6017
 7399SOL    HW329363   5.971   5.438   4.933  0.6646 -1.0726  2.1001
 7399SOL    MW429364   6.019   5.501   4.970  0.2826 -0.4159 -0.2783
 7400SOL     OW29365   2.291   2.301   5.878 -0.2369  0.1083  0.2891
 7400SOL    HW229366   2.356   2.260   5.935  1.1834  0.7799 -0.7775
 7400SOL    HW329367   2.265   2.380   5.925 -0.4212 -0.2509  0.8009
 7400SOL    MW429368   2.296   2.306   5.892  0.4618 -0.3738 -0.0424
 7401SOL     OW29369   4.335   4.335   3.964  0.2929  0.3200  0.2889
 7401SOL    HW229370   4.333   4.254   4.015 -0.1341  1.3770  2.0141
 7401SOL    HW329371   4.423   4.370   3.978 -0.6872  2.0955  2.8542
 7401SOL    MW429372   4.346   4.329   3.973 -0.3450  0.4003 -0.2397
 7402SOL     OW29373   6.003   1.473   3.851  0.3391 -0.6091 -0.0695
 7402SOL    HW229374   6.084   1.424   3.860  1.5077  1.0284 -1.1426
 7402SOL    HW329375   5.934   1.411   3.876  1.9653 -1.6846  2.0822
 7402SOL    MW429376   6.005   1.459   3.855  0.1985  0.0377 -0.2767
 7403SOL     OW29377   2.088   5.998   1.983 -0.5600  0.0515 -0.2765
 7403SOL    HW229378   2.178   5.984   1.953 -1.1500 -1.4906 -1.5106
 7403SOL    HW329379   2.053   5.910   1.995 -1.0469  0.5861  3.1146
 7403SOL    MW429380   2.096   5.985   1.980 -0.3978 -0.3413  0.2198
 7404SOL     OW29381   2.643   0.798   1.401 -0.3950  1.0973 -0.1769
 7404SOL    HW229382   2.574   0.743   1.364  0.9127 -0.3080 -0.6052
 7404SOL    HW329383   2.643   0.778   1.494  1.3281 -1.1935 -0.5781
 7404SOL    MW429384   2.634   0.788   1.408 -0.2731 -0.6123  0.4022
 7405SOL     OW29385   1.776   1.731   1.313  0.2618 -0.0631  0.3715
 7405SOL    HW229386   1.728   1.773   1.241  1.2027 -0.5462 -0.5471
 7405SOL    HW329387   1.774   1.638   1.292  1.1812 -0.1355  0.5813
 7405SOL    MW429388   1.769   1.724   1.301  0.2233  0.2539 -0.0090
 7406SOL     OW29389   0.196   0.816   3.519  0.1660 -0.3036 -0.2144
 7406SOL    HW229390   0.211   0.722   3.534  3.2006  0.2134  0.7269
 7406SOL    HW329391   0.281   0.850   3.492 -0.9667  2.1330 -1.0241
 7406SOL    MW429392   0.209   0.808   3.518 -0.2757  0.4321  0.3510
 7407SOL     OW29393   4.840   6.178   5.842 -0.5699 -0.7566  0.1628
 7407SOL    HW229394   4.816   6.270   5.831 -0.5395 -0.6004  1.2936
 7407SOL    HW329395   4.922   6.169   5.794 -0.6426 -0.2266 -0.0716
 7407SOL    MW429396   4.848   6.189   5.834  0.0570  0.6698 -0.1398
 7408SOL     OW29397   1.462   5.552   5.724 -0.1791  0.3600  0.0633
 7408SOL    HW229398   1.549   5.592   5.722  0.0274 -0.1312 -1.7160
 7408SOL    HW329399   1.478   5.461   5.748 -0.5580  0.9336  3.0028
 7408SOL    MW429400   1.475   5.545   5.727  0.4765  0.1779  0.3966
 7409SOL     OW29401   0.330   4.421   3.347  0.4705 -0.1522 -0.5204
 7409SOL    HW229402   0.291   4.501   3.312 -0.2057  0.3516  1.2947
 7409SOL    HW329403   0.279   4.350   3.307 -2.4544  0.4736  1.7093
 7409SOL    MW429404   0.318   4.422   3.337 -0.3360 -0.8724  0.5044
 7410SOL     OW29405   0.433   1.471   0.809  0.0552 -0.1164 -0.0198
 7410SOL    HW229406   0.384   1.546   0.775  1.0424  0.8426  0.6029
 7410SOL    HW329407   0.516   1.509   0.840  0.0972 -1.2742  1.3932
 7410SOL    MW429408   0.437   1.486   0.809  0.1228  0.3195  0.8404
 7411SOL     OW29409   3.066   3.883   5.547 -0.4613  0.1685 -0.1536
 7411SOL    HW229410   2.984   3.876   5.497 -0.4962 -1.1402  0.0527
 7411SOL    HW329411   3.038   3.878   5.639 -0.0915 -1.3252 -0.0982
 7411SOL    MW429412   3.051   3.881   5.553  0.5955 -0.7263  0.2713
 7412SOL     OW29413   2.922   4.897   5.641  0.0886 -0.1705 -0.2858
 7412SOL    HW229414   2.877   4.946   5.710 -1.5810 -2.0138  0.0578
 7412SOL    HW329415   2.990   4.956   5.609 -1.7134  2.2899  0.1404
 7412SOL    MW429416   2.925   4.911   5.646 -0.3688 -0.8988 -0.1087
 7413SOL     OW29417   6.262   5.196   4.431  0.3837  1.0479 -0.3880
 7413SOL    HW229418   6.193   5.215   4.367 -0.3093  0.5886  0.2140
 7413SOL    HW329419   6.326   5.266   4.419  0.3042  0.9287 -1.6375
 7413SOL    MW429420   6.261   5.207   4.421  0.1245  0.0999  0.2726
 7414SOL     OW29421   3.526   5.362   3.231  0.6128 -0.5856  0.3653
 7414SOL    HW229422   3.500   5.271   3.216 -0.1800 -0.3367  0.1538
 7414SOL    HW329423   3.618   5.357   3.256  0.2835 -1.5301  1.4471
 7414SOL    MW429424   3.534   5.349   3.232 -0.2985  0.9318 -0.0409
 7415SOL     OW29425   3.365   5.874   0.891 -0.4155 -0.3589  0.2210
 7415SOL    HW229426   3.309   5.799   0.910 -1.0302 -0.2506 -1.1366
 7415SOL    HW329427   3.329   5.913   0.812 -0.6732  1.9502  1.4011
 7415SOL    MW429428   3.353   5.869   0.883  0.1796  0.3762  0.4390
 7416SOL     OW29429   4.572   4.282   6.156  0.3992  0.4405 -0.2865
 7416SOL    HW229430   4.551   4.364   6.202  2.0457  0.0978  1.1488
 7416SOL    HW329431   4.662   4.263   6.180 -0.2281 -2.3084  0.2042
 7416SOL    MW429432   4.581   4.290   6.165 -0.3019 -0.4521  0.2036
 7417SOL     OW29433   4.065   0.240   2.477 -0.6165  0.2360 -0.4650
 7417SOL    HW229434   4.115   0.160   2.461 -0.0589  0.2078  1.2458
 7417SOL    HW329435   4.130   0.310   2.478 -0.9979  0.6157 -1.1199
 7417SOL    MW429436   4.080   0.239   2.475 -0.3005 -0.2429  0.1483
 7418SOL     OW29437   0.513   0.389   4.261 -0.4020  0.0175 -0.0097
 7418SOL    HW229438   0.577   0.324   4.232  0.8722  0.0569  2.4519
 7418SOL    HW329439   0.538   0.409   4.351 -3.2440  0.8916  0.6840
 7418SOL    MW429440   0.525   0.383   4.269 -0.0552  0.1095 -0.0549
 7419SOL     OW29441   4.967   1.010   5.867 -0.3198  0.0047  0.4456
 7419SOL    HW229442   5.044   1.048   5.908 -1.3144  2.0035  0.5545
 7419SOL    HW329443   4.981   1.018   5.773 -0.2534  0.0717  0.4621
 7419SOL    MW429444   4.979   1.016   5.860  0.1610  0.5015 -0.2155
 7420SOL     OW29445   6.065   3.685   3.205 -0.2544 -0.5943 -0.5915
 7420SOL    HW229446   6.159   3.695   3.190 -0.2874 -1.1051 -1.1378
 7420SOL    HW329447   6.045   3.596   3.179 -0.7944 -0.6801  0.0706
 7420SOL    MW429448   6.074   3.675   3.200 -0.3451  0.4151  0.6831
 7421SOL     OW29449   2.614   3.062   4.744  0.0552 -0.3278 -0.1909
 7421SOL    HW229450   2.523   3.089   4.732  0.2582 -0.0013 -1.0698
 7421SOL    HW329451   2.653   3.071   4.657  0.8436 -0.7797  0.1124
 7421SOL    MW429452   2.607   3.067   4.731  0.0774 -0.0232  0.6717
 7422SOL     OW29453   0.145   4.320   3.161 -0.1392  0.3556 -0.2344
 7422SOL    HW229454   0.121   4.235   3.123 -0.5980 -0.8852  2.5901
 7422SOL    HW329455   0.066   4.374   3.149 -0.0055  0.2940 -1.6342
 7422SOL    MW429456   0.131   4.316   3.154 -0.0583  0.1198 -0.9221
 7423SOL     OW29457   5.549   1.720   0.037  0.1954 -0.4864  0.6160
 7423SOL    HW229458   5.601   1.801   0.039  0.9793 -0.9700  0.5736
 7423SOL    HW329459   5.615   1.651   0.041 -0.3849 -1.1383 -0.6100
 7423SOL    MW429460   5.565   1.722   0.038 -0.3284  0.6473 -0.1005
 7424SOL     OW29461   0.383   1.020   0.063  0.1774 -0.2320  0.0255
 7424SOL    HW229462   0.303   0.978   0.033  2.2375 -1.5905 -4.1963
 7424SOL    HW329463   0.400   1.089  -0.001  2.9952 -0.8050  0.0257
 7424SOL    MW429464   0.375   1.024   0.051  0.4976  0.7307  0.7062
 7425SOL     OW29465   0.864   1.822   4.252 -0.1673  0.3062 -0.2062
 7425SOL    HW229466   0.786   1.794   4.203 -1.0207  2.3296 -0.1102
 7425SOL    HW329467   0.833   1.895   4.306  1.6545  0.7046  0.3572
 7425SOL    MW429468   0.849   1.828   4.252  0.2078  0.2074 -0.2770
 7426SOL     OW29469   1.673   6.408   2.668 -0.1971  0.2125 -0.1475
 7426SOL    HW229470   1.590   6.391   2.625 -1.8293  0.3878  2.6708
 7426SOL    HW329471   1.728   6.332   2.646 -2.5029 -1.9327  1.0363
 7426SOL    MW429472   1.669   6.395   2.660 -0.4885 -0.1758  0.1252
 7427SOL     OW29473   0.335   5.715   2.985  0.4137  0.6958 -0.3017
 7427SOL    HW229474   0.259   5.724   3.042  0.8641  1.4488  0.1897
 7427SOL    HW329475   0.312   5.764   2.906  0.6776  1.5637  0.1511
 7427SOL    MW429476   0.322   5.722   2.982 -0.3630  0.5542 -0.4818
 7428SOL     OW29477   0.379   2.725   1.860 -0.2288 -0.2251 -0.0374
 7428SOL    HW229478   0.296   2.771   1.854 -0.8269 -1.4735 -2.1010
 7428SOL    HW329479   0.400   2.726   1.954 -1.4079  2.0518  0.2585
 7428SOL    MW429480   0.371   2.731   1.872 -0.0884 -0.1430  0.3467
 7429SOL     OW29481   3.752   3.126   0.462 -0.2699  0.4828  0.5139
 7429SOL    HW229482   3.801   3.208   0.464 -0.0257  0.4889 -2.3660
 7429SOL    HW329483   3.662   3.153   0.445 -0.2883  0.1904  0.1442
 7429SOL    MW429484   3.747   3.140   0.460 -0.1985  0.1819 -0.4247
 7430SOL     OW29485   2.614   0.943   4.513 -0.3690 -0.0395  0.5759
 7430SOL    HW229486   2.693   0.904   4.477 -0.6731 -1.2520  1.1566
 7430SOL    HW329487   2.644   1.023   4.556  0.5608 -0.5118  0.8346
 7430SOL    MW429488   2.628   0.948   4.514 -0.1360  0.0697 -0.2525
 7431SOL     OW29489   4.126   4.684   2.154  0.1215  0.2190  0.1502
 7431SOL    HW229490   4.155   4.773   2.178 -2.6218  1.3286 -0.3180
 7431SOL    HW329491   4.096   4.692   2.064 -1.7988 -0.7447  0.6678
 7431SOL    MW429492   4.126   4.697   2.145  0.4200  0.5685 -0.2513
 7432SOL     OW29493   3.323   2.870   4.702 -0.7322 -0.2579  0.2513
 7432SOL    HW229494   3.412   2.900   4.722 -0.8942 -0.8800  2.1042
 7432SOL    HW329495   3.266   2.937   4.741 -1.0599 -1.0496  1.1773
 7432SOL    MW429496   3.327   2.883   4.710  0.3942 -0.1267  0.2573
 7433SOL     OW29497   3.568   4.684   4.969 -0.0375 -0.0333 -0.4336
 7433SOL    HW229498   3.486   4.634   4.970 -1.3874  2.0257  0.0634
 7433SOL    HW329499   3.551   4.754   4.905  0.5147  1.6361  1.1616
 7433SOL    MW429500   3.555   4.687   4.960 -0.2660 -0.1910  0.0235
 7434SOL     OW29501   6.387   4.487   0.669 -0.1856  0.1591  0.1743
 7434SOL    HW229502   6.421   4.532   0.746  0.7384  0.7912 -0.5781
 7434SOL    HW329503   6.383   4.395   0.694  2.4000 -0.0150  0.2430
 7434SOL    MW429504   6.391   4.481   0.682 -0.4419  0.3369  0.9898
 7435SOL     OW29505   0.690   3.407   1.499  0.0896  0.0575 -0.0236
 7435SOL    HW229506   0.605   3.446   1.519 -0.0355 -0.4318  0.4330
 7435SOL    HW329507   0.753   3.466   1.540  0.0122  0.7339 -0.8547
 7435SOL    MW429508   0.687   3.420   1.507  0.5872 -0.5314  0.2534
 7436SOL     OW29509   0.980   1.988   1.054 -0.0534 -0.4691 -0.1077
 7436SOL    HW229510   0.901   1.983   1.108  0.0469 -0.1946  0.0645
 7436SOL    HW329511   0.950   2.031   0.974 -0.4737 -1.9454 -0.7783
 7436SOL    MW429512   0.965   1.993   1.051 -0.1565 -0.0930  0.0997
 7437SOL     OW29513   1.635   2.438   6.003 -0.1080 -0.0941  0.0737
 7437SOL    HW229514   1.650   2.373   5.934 -0.0888  1.0685 -1.0370
 7437SOL    HW329515   1.648   2.522   5.960 -2.3877  0.7433  0.9277
 7437SOL    MW429516   1.639   2.440   5.988  0.5785  0.6508  0.2238
 7438SOL     OW29517   0.132   6.160   1.864 -0.1506  0.4954 -0.1052
 7438SOL    HW229518   0.172   6.246   1.858  1.1508 -0.1346 -0.7872
 7438SOL    HW329519   0.179   6.116   1.934 -2.2001  1.0087  1.7044
 7438SOL    MW429520   0.143   6.166   1.872 -0.0453  0.1066  0.2850
 7439SOL     OW29521   3.767   6.250   5.880  0.1223  0.0479  0.3161
 7439SOL    HW229522   3.714   6.252   5.960  0.7462  4.1914  0.8598
 7439SOL    HW329523   3.704   6.256   5.809 -0.3213 -1.2498  0.5643
 7439SOL    MW429524   3.752   6.251   5.881  0.0166 -0.2839  0.2154
 7440SOL     OW29525   1.059   5.335   6.304 -0.2953  0.3677 -0.1681
 7440SOL    HW229526   1.058   5.425   6.273 -2.1779  0.0439 -1.1707
 7440SOL    HW329527   1.002   5.288   6.244  0.4191 -1.4572  0.5019
 7440SOL    MW429528   1.052   5.341   6.292  0.6229  0.2263 -0.5090
 7441SOL     OW29529   5.548   5.426   1.029  0.0363 -0.1615 -0.2853
 7441SOL    HW229530   5.485   5.496   1.050 -0.2702 -0.4031 -0.3953
 7441SOL    HW329531   5.625   5.446   1.082 -0.8432 -0.9499  1.3560
 7441SOL    MW429532   5.550   5.438   1.039  0.8858 -0.3261 -0.0091
 7442SOL     OW29533   5.538   5.106   6.421  0.1540 -0.4382  0.5404
 7442SOL    HW229534   5.534   5.082   6.329 -0.4687 -0.2385  0.5122
 7442SOL    HW329535   5.598   5.181   6.423 -2.0496  1.4674 -0.1459
 7442SOL    MW429536   5.546   5.113   6.409 -0.3014  0.2772 -0.1967
 7443SOL     OW29537   3.802   0.898   2.244 -0.3320  0.0328 -0.4600
 7443SOL    HW229538   3.731   0.891   2.180  1.2648  2.6727 -2.7764
 7443SOL    HW329539   3.785   0.981   2.289  2.3819  2.1267 -2.8571
 7443SOL    MW429540   3.790   0.908   2.241 -0.3958 -0.3269  0.0411
 7444SOL     OW29541   3.857   5.317   2.393 -0.7141  0.3696 -0.4225
 7444SOL    HW229542   3.851   5.222   2.390  1.7568  0.1721 -1.9863
 7444SOL    HW329543   3.774   5.348   2.357 -0.8996 -1.2429 -1.4552
 7444SOL    MW429544   3.846   5.309   2.388  0.5564  0.6959 -0.0074
 7445SOL     OW29545   0.246   1.363   2.551 -0.1495  0.0128 -0.1612
 7445SOL    HW229546   0.314   1.422   2.584 -2.0226  1.5824  1.0942
 7445SOL    HW329547   0.229   1.303   2.623  0.7155 -1.1608 -0.9081
 7445SOL    MW429548   0.253   1.363   2.565  0.4172  0.0556  0.3183
 7446SOL     OW29549   1.228   1.382   5.507 -0.1629  0.8325  0.2514
 7446SOL    HW229550   1.253   1.473   5.491  0.9729  0.4628 -0.1864
 7446SOL    HW329551   1.310   1.338   5.526 -0.6224 -0.2378 -0.1927
 7446SOL    MW429552   1.242   1.388   5.507 -0.1271 -0.0001  0.0862
 7447SOL     OW29553   2.922   1.183   1.113  0.2360  0.0523 -0.4237
 7447SOL    HW229554   2.998   1.154   1.061 -0.4126 -3.3383  0.2670
 7447SOL    HW329555   2.941   1.152   1.201 -0.6355  1.8875  0.4479
 7447SOL    MW429556   2.935   1.175   1.117  0.5496  0.1081 -0.4848
 7448SOL     OW29557   6.118   4.262   3.250 -0.1635 -0.0747 -0.4143
 7448SOL    HW229558   6.091   4.272   3.159  1.8653  1.2978 -0.9210
 7448SOL    HW329559   6.094   4.345   3.292 -0.8475 -0.5963  0.2549
 7448SOL    MW429560   6.111   4.274   3.244 -0.0572  0.3360 -0.2723
 7449SOL     OW29561   0.195   2.505   2.318 -0.2094 -0.0821  0.2217
 7449SOL    HW229562   0.280   2.499   2.361 -0.5612  0.9361  1.0967
 7449SOL    HW329563   0.214   2.492   2.225  1.1395  1.7283  0.2066
 7449SOL    MW429564   0.208   2.502   2.311 -0.7361  0.2226  0.3270
 7450SOL     OW29565   0.521   2.757   2.877 -0.0654  0.3844 -0.3642
 7450SOL    HW229566   0.576   2.835   2.872  0.6500  0.0253  1.3465
 7450SOL    HW329567   0.569   2.690   2.829  0.0919  0.5666 -0.4617
 7450SOL    MW429568   0.534   2.759   2.870 -0.2024 -0.6944  0.0588
 7451SOL     OW29569   1.488   5.349   5.298 -0.4045 -0.3511 -0.3821
 7451SOL    HW229570   1.550   5.285   5.263  0.1731 -0.1418  0.2558
 7451SOL    HW329571   1.441   5.380   5.220  2.0709  1.4086 -1.3002
 7451SOL    MW429572   1.490   5.345   5.283  0.0208 -0.1337 -0.5251
 7452SOL     OW29573   1.631   0.153   0.280  0.1449  0.3188  0.0600
 7452SOL    HW229574   1.628   0.203   0.361 -0.2887  0.8642 -0.2882
 7452SOL    HW329575   1.665   0.215   0.215 -0.7899  0.2972 -0.4658
 7452SOL    MW429576   1.635   0.167   0.282 -0.2805 -0.5983 -0.0353
 7453SOL     OW29577   4.552   5.070   4.064  0.0583  0.6391 -0.1262
 7453SOL    HW229578   4.645   5.060   4.042  0.6547 -0.5329  2.5580
 7453SOL    HW329579   4.527   5.155   4.025  2.2223  0.9888 -0.8852
 7453SOL    MW429580   4.561   5.080   4.056 -0.0344 -0.1936  0.6930
 7454SOL     OW29581   6.367   4.184   1.792 -0.4164 -0.6367 -0.6263
 7454SOL    HW229582   6.382   4.253   1.856  0.7958 -1.9391  0.5621
 7454SOL    HW329583   6.272   4.178   1.785 -0.5430  0.7799 -0.3635
 7454SOL    MW429584   6.357   4.193   1.800  0.2733 -0.0083 -0.1012
 7455SOL     OW29585   1.071   0.005   2.703  0.0671  0.0914 -0.0224
 7455SOL    HW229586   0.995  -0.034   2.660  2.1399 -1.9081 -2.1684
 7455SOL    HW329587   1.077   0.093   2.667  0.6121 -0.8702 -2.4610
 7455SOL    MW429588   1.062   0.011   2.693  0.8406 -0.3590  0.0662
 7456SOL     OW29589   1.620   3.331   6.237  0.3312  0.0925 -0.3302
 7456SOL    HW229590   1.530   3.334   6.272  0.3762  2.8263 -0.1975
 7456SOL    HW329591   1.676   3.342   6.314  0.7299 -0.3312 -0.5562
 7456SOL    MW429592   1.615   3.333   6.252  0.7240 -0.2482  0.9007
 7457SOL     OW29593   2.724   0.439   0.487 -0.2036  0.0849 -0.0359
 7457SOL    HW229594   2.808   0.437   0.532 -0.4950  0.2488  0.5218
 7457SOL    HW329595   2.696   0.530   0.492 -0.9872 -0.1848  0.8783
 7457SOL    MW429596   2.731   0.450   0.494 -0.0921  0.2746  0.9443
 7458SOL     OW29597   0.516   0.014   2.179 -1.1790  0.1134 -0.2448
 7458SOL    HW229598   0.590   0.073   2.168  0.5247 -1.8650  0.1180
 7458SOL    HW329599   0.441   0.063   2.144 -0.0885  2.8521  0.9695
 7458SOL    MW429600   0.516   0.029   2.173 -0.0466 -0.0962  0.2821
 7459SOL     OW29601   1.091   4.382   6.197  0.2327 -0.0661  0.2018
 7459SOL    HW229602   1.093   4.433   6.278  1.0339  0.6284 -0.2366
 7459SOL    HW329603   1.009   4.407   6.154  0.8803  1.3393 -0.2855
 7459SOL    MW429604   1.080   4.392   6.202 -0.7066 -0.1519  0.2660
 7460SOL     OW29605   3.327   5.648   2.181  0.0308  0.5128 -0.0694
 7460SOL    HW229606   3.313   5.720   2.119  0.3521  0.9987  0.4102
 7460SOL    HW329607   3.384   5.685   2.248 -0.1248 -0.0738  0.3978
 7460SOL    MW429608   3.333   5.663   2.181 -0.0129 -0.0129  0.3664
 7461SOL     OW29609   5.105   3.188   1.852 -0.0556  0.2060  0.0476
 7461SOL    HW229610   5.161   3.216   1.779  1.0428  1.4125  1.3089
 7461SOL    HW329611   5.090   3.095   1.835 -0.2421  0.5467 -1.9636
 7461SOL    MW429612   5.110   3.179   1.840 -0.0276 -0.6374  0.4400
 7462SOL     OW29613   0.494   6.200   1.735  0.2342 -0.3200 -0.2582
 7462SOL    HW229614   0.481   6.284   1.692  0.9795 -0.1407 -0.1559
 7462SOL    HW329615   0.421   6.145   1.706 -1.6518  1.0926  1.5670
 7462SOL    MW429616   0.483   6.204   1.725  0.3298  0.2915  0.5888
 7463SOL     OW29617   2.221   2.485   0.624  0.5430  0.7478  0.3104
 7463SOL    HW229618   2.228   2.490   0.529 -0.3663 -0.3843  0.1548
 7463SOL    HW329619   2.301   2.441   0.652 -0.7654 -2.3084 -0.3438
 7463SOL    MW429620   2.232   2.480   0.615 -0.6062  0.1048  0.7556
 7464SOL     OW29621   2.137   1.338   5.848  0.0920  0.2027 -0.5770
 7464SOL    HW229622   2.148   1.249   5.813 -1.8407 -0.8806  1.3526
 7464SOL    HW329623   2.163   1.331   5.940  0.2560  1.7489 -0.4770
 7464SOL    MW429624   2.142   1.325   5.855 -0.2009 -0.1032 -0.4203
 7465SOL     OW29625   2.833   6.424   3.853  0.1870  0.0835  0.8974
 7465SOL    HW229626   2.882   6.399   3.774  0.3775  0.7853  0.7847
 7465SOL    HW329627   2.846   6.352   3.914  1.0722  0.0994  0.7322
 7465SOL    MW429628   2.841   6.411   3.850  0.7564  0.7399 -0.0738
 7466SOL     OW29629   2.434   3.928   4.136 -0.3083 -0.0049  0.1298
 7466SOL    HW229630   2.515   3.944   4.087 -1.7709  1.0168 -2.1484
 7466SOL    HW329631   2.454   3.954   4.226  1.5964  1.1847 -0.5898
 7466SOL    MW429632   2.447   3.934   4.141  0.3486  0.8117  0.5457
 7467SOL     OW29633   5.185   2.380   2.513 -0.1295  0.1695  0.5500
 7467SOL    HW229634   5.092   2.397   2.497 -0.2983  0.0771  1.3982
 7467SOL    HW329635   5.192   2.372   2.608  0.4025 -1.8210  0.3695
 7467SOL    MW429636   5.174   2.381   2.523 -0.0178 -0.5228 -0.1654
 7468SOL     OW29637   0.744   6.370   4.328  0.0705  0.1948  0.5370
 7468SOL    HW229638   0.692   6.372   4.408 -0.4429 -0.5252  0.2333
 7468SOL    HW329639   0.740   6.459   4.294  1.6253  0.9423  2.1334
 7468SOL    MW429640   0.736   6.382   4.334 -0.1776  0.0162 -0.4911
 7469SOL     OW29641   6.187   4.348   0.897  0.3621  0.3651  0.3476
 7469SOL    HW229642   6.132   4.297   0.957 -1.0448 -1.5735 -2.3532
 7469SOL    HW329643   6.176   4.439   0.925 -3.5187 -0.0114  0.5868
 7469SOL    MW429644   6.178   4.353   0.909  0.6825  0.3722  0.2153
 7470SOL     OW29645   6.128   4.272   6.169  0.1182  0.0092  0.2794
 7470SOL    HW229646   6.185   4.212   6.121 -1.2552  0.1006 -1.5671
 7470SOL    HW329647   6.059   4.216   6.206  0.4870  0.0999  1.1253
 7470SOL    MW429648   6.126   4.257   6.167 -0.3375  0.0340  0.0994
 7471SOL     OW29649   4.649   2.332   0.276  0.1006 -0.7906  0.4940
 7471SOL    HW229650   4.741   2.308   0.275  0.0125 -1.1872 -1.6003
 7471SOL    HW329651   4.642   2.402   0.211 -1.0751 -0.7146  0.6838
 7471SOL    MW429652   4.660   2.338   0.267  0.4303 -0.0516 -0.5494
 7472SOL     OW29653   1.577   0.352   5.667 -0.0625 -0.1944  0.7901
 7472SOL    HW229654   1.636   0.278   5.651 -0.2017 -0.0875 -0.2647
 7472SOL    HW329655   1.599   0.415   5.599 -2.6009 -0.8796 -0.8089
 7472SOL    MW429656   1.588   0.350   5.656 -0.0999 -0.0989  0.4573
 7473SOL     OW29657   2.614   3.868   2.079 -0.6086  0.2794  0.7811
 7473SOL    HW229658   2.552   3.838   2.146 -0.8248 -0.3836  0.3066
 7473SOL    HW329659   2.587   3.958   2.060 -0.7340  0.3694  1.3622
 7473SOL    MW429660   2.602   3.876   2.085 -0.0133 -0.7657 -0.2523
 7474SOL     OW29661   4.334   0.122   0.633  0.1595  0.0450 -0.0426
 7474SOL    HW229662   4.241   0.110   0.648  0.2282  0.5813  0.9291
 7474SOL    HW329663   4.364   0.171   0.710  1.2418 -0.1430 -0.3310
 7474SOL    MW429664   4.326   0.127   0.645 -0.3335 -0.3772  0.7579
 7475SOL     OW29665   5.627   5.548   3.299 -0.4594  0.4726 -0.2420
 7475SOL    HW229666   5.566   5.509   3.362  0.0329 -0.7551 -0.5155
 7475SOL    HW329667   5.710   5.553   3.346 -0.3397  0.5161 -0.4586
 7475SOL    MW429668   5.630   5.544   3.313 -0.3208 -0.1872 -0.7112
 7476SOL     OW29669   2.759   3.764   3.191  0.1823  0.0465  0.1610
 7476SOL    HW229670   2.749   3.836   3.129 -2.0681 -0.4002 -0.0960
 7476SOL    HW329671   2.763   3.807   3.277 -1.0196  0.5283  0.0003
 7476SOL    MW429672   2.758   3.780   3.194 -0.4099 -0.0106  0.7039
 7477SOL     OW29673   3.483   1.549   5.032  0.3554  0.1905 -0.4390
 7477SOL    HW229674   3.507   1.575   4.943  1.4582  0.8016  0.0279
 7477SOL    HW329675   3.467   1.631   5.078  1.0606 -0.0648  0.2727
 7477SOL    MW429676   3.484   1.563   5.026  0.0107  0.1489  0.4250
 7478SOL     OW29677   5.222   1.824   1.223 -0.5805  0.0305 -0.0329
 7478SOL    HW229678   5.315   1.820   1.243 -0.2575 -0.2368 -1.5012
 7478SOL    HW329679   5.179   1.788   1.301  0.5018  0.5452  0.8239
 7478SOL    MW429680   5.229   1.819   1.236  0.4413  0.3368 -0.3670
 7479SOL     OW29681   0.080   5.773   5.075  0.3208  0.0729  0.1512
 7479SOL    HW229682   0.146   5.842   5.074 -0.5111  0.9079  0.8507
 7479SOL    HW329683   0.127   5.694   5.047  1.8776  0.3928  1.7204
 7479SOL    MW429684   0.095   5.772   5.071  0.1009  0.5285 -0.1145
 7480SOL     OW29685   4.925   3.212   0.700  0.5147  0.1056  0.3638
 7480SOL    HW229686   4.868   3.269   0.649  1.3828 -0.3419 -1.1623
 7480SOL    HW329687   4.913   3.241   0.790 -0.4184  1.4954 -0.1768
 7480SOL    MW429688   4.916   3.223   0.705 -0.0196 -0.3524 -0.1843
 7481SOL     OW29689   4.934   4.041   0.310  1.1912  0.5851  0.3279
 7481SOL    HW229690   4.971   4.026   0.397  0.2083  2.5635  1.1430
 7481SOL    HW329691   4.860   4.100   0.324  1.7429  1.9749 -1.9616
 7481SOL    MW429692   4.929   4.047   0.323 -0.0414  0.0281 -0.2047
 7482SOL     OW29693   3.430   4.300   6.255  0.1117  0.2532  0.2967
 7482SOL    HW229694   3.403   4.211   6.278 -0.9319  0.4322 -0.1505
 7482SOL    HW329695   3.441   4.298   6.160  1.9746  0.1380  0.4793
 7482SOL    MW429696   3.428   4.288   6.245 -0.1656  0.3873 -0.3371
 7483SOL     OW29697   2.619   1.974   6.056 -0.3902  0.1934 -0.2288
 7483SOL    HW229698   2.663   1.910   6.112 -0.8569  1.4246  1.6547
 7483SOL    HW329699   2.554   1.924   6.008 -0.7033 -0.7834  1.1625
 7483SOL    MW429700   2.616   1.959   6.057 -0.1268 -0.1939  0.3778
 7484SOL     OW29701   3.340   0.759   0.678  0.4887  0.2046  0.7389
 7484SOL    HW229702   3.348   0.686   0.740  0.5393  0.5340  1.1229
 7484SOL    HW329703   3.300   0.720   0.601 -2.0890  0.3152  1.9234
 7484SOL    MW429704   3.336   0.744   0.676 -0.0569 -0.1652 -0.9481
 7485SOL     OW29705   0.165   2.040   0.692 -0.2169  0.0206  0.4558
 7485SOL    HW229706   0.118   2.122   0.709 -0.4605  0.4530 -1.9749
 7485SOL    HW329707   0.099   1.971   0.705 -1.0739  0.4990 -1.1018
 7485SOL    MW429708   0.150   2.042   0.696  0.1358  0.2557  0.4399
 7486SOL     OW29709   4.567   5.183   4.539 -0.1157 -0.3881  0.5669
 7486SOL    HW229710   4.476   5.201   4.516  0.4761  0.9405 -0.8553
 7486SOL    HW329711   4.601   5.267   4.570  1.4373 -0.0589 -1.8179
 7486SOL    MW429712   4.559   5.196   4.540  0.3128  0.6249 -0.0655
 7487SOL     OW29713   3.611   2.584   1.848 -0.3101  0.3596  0.1799
 7487SOL    HW229714   3.675   2.563   1.779 -3.3508  1.2385 -3.2272
 7487SOL    HW329715   3.649   2.660   1.893  1.1153  0.8464 -1.6774
 7487SOL    MW429716   3.625   2.591   1.845  0.4502 -0.0425  0.1862
 7488SOL     OW29717   4.728   0.576   6.044  0.4452 -0.1610  0.3060
 7488SOL    HW229718   4.664   0.647   6.052 -0.9114 -1.5094  2.8757
 7488SOL    HW329719   4.813   0.619   6.051 -0.2653  1.3938 -0.2547
 7488SOL    MW429720   4.730   0.591   6.046 -0.4321  0.0355 -0.3439
 7489SOL     OW29721   2.625   1.683   3.888 -0.1745 -0.0747 -0.1903
 7489SOL    HW229722   2.601   1.728   3.969  0.0027 -0.3461  0.0159
 7489SOL    HW329723   2.590   1.594   3.899  0.2991 -0.2653 -0.1903
 7489SOL    MW429724   2.617   1.677   3.900  0.4038  0.2057 -0.0449
 7490SOL     OW29725   5.907   2.362   6.199 -0.2032  0.1931 -0.2650
 7490SOL    HW229726   5.849   2.432   6.170  0.3767  1.2190  0.9469
 7490SOL    HW329727   5.985   2.371   6.145 -0.5954 -0.2877 -0.9230
 7490SOL    MW429728   5.909   2.372   6.188 -0.0129  0.3100  0.8808
 7491SOL     OW29729   2.905   2.622   4.377 -0.2844 -0.3150 -0.0033
 7491SOL    HW229730   2.990   2.583   4.397 -0.3233 -0.7149 -0.6054
 7491SOL    HW329731   2.851   2.548   4.350 -0.6191  0.0379 -0.3000
 7491SOL    MW429732   2.909   2.607   4.376 -0.1205 -0.0894  0.3956
 7492SOL     OW29733   2.375   3.205   2.680 -0.2003 -0.3526  0.0344
 7492SOL    HW229734   2.451   3.259   2.659  0.9031 -0.3912  3.3305
 7492SOL    HW329735   2.405   3.115   2.664 -0.0562 -0.2907 -0.0457
 7492SOL    MW429736   2.389   3.200   2.675 -0.1362 -0.0600  0.5485
 7493SOL     OW29737   5.269   3.664   5.381 -0.3777 -1.1668  0.4569
 7493SOL    HW229738   5.214   3.586   5.382  0.6538 -2.0705 -2.4623
 7493SOL    HW329739   5.359   3.631   5.379  0.1024  0.0767 -0.3454
 7493SOL    MW429740   5.274   3.650   5.381  0.4166  0.6065 -0.1884
 7494SOL     OW29741   2.383   5.519   1.686 -0.2299  0.2420  0.8727
 7494SOL    HW229742   2.358   5.437   1.730 -0.1071  0.8177  2.0489
 7494SOL    HW329743   2.478   5.520   1.690 -0.2501  0.6504  1.2511
 7494SOL    MW429744   2.392   5.508   1.693 -0.3010 -0.1821  0.3756
 7495SOL     OW29745   2.520   1.922   1.439  0.7509  0.0528 -0.3230
 7495SOL    HW229746   2.478   1.926   1.525  1.0147 -0.0914 -0.1860
 7495SOL    HW329747   2.449   1.941   1.377  0.0432 -2.0768 -0.2369
 7495SOL    MW429748   2.505   1.925   1.442  0.7150 -0.6994  0.5472
 7496SOL     OW29749   5.919   0.134   1.049 -0.0621 -0.0323  0.0630
 7496SOL    HW229750   5.934   0.159   0.957  0.0552  0.9649  0.3452
 7496SOL    HW329751   5.885   0.045   1.043  1.7423 -0.7173 -0.8403
 7496SOL    MW429752   5.916   0.125   1.036  0.4900 -0.2037  0.0617
 7497SOL     OW29753   1.900   1.568   6.406  1.0915 -0.1819  0.3006
 7497SOL    HW229754   1.911   1.535   6.317  0.4274 -2.2378  0.9250
 7497SOL    HW329755   1.805   1.572   6.419  1.1361  2.1174  0.2596
 7497SOL    MW429756   1.889   1.564   6.396  0.2156 -0.5750 -0.2790
 7498SOL     OW29757   2.524   3.355   5.777  0.7232  0.3041 -0.4705
 7498SOL    HW229758   2.598   3.340   5.718 -0.5149  1.5316 -2.4108
 7498SOL    HW329759   2.541   3.442   5.814 -0.7792  1.6234 -2.6616
 7498SOL    MW429760   2.536   3.365   5.774 -0.2252  0.6898 -0.3171
 7499SOL     OW29761   4.514   1.158   4.160 -0.6689  0.4332  0.1244
 7499SOL    HW229762   4.604   1.126   4.148 -1.0808 -1.1899  1.0056
 7499SOL    HW329763   4.493   1.202   4.078  0.6014 -0.0038 -0.4660
 7499SOL    MW429764   4.523   1.160   4.148  0.2889 -0.3622 -0.0833
 7500SOL     OW29765   5.052   1.235   2.490  0.4999 -0.9030  0.5275
 7500SOL    HW229766   5.058   1.205   2.581 -0.3722 -1.1522  0.5082
 7500SOL    HW329767   5.054   1.154   2.439 -2.1946 -1.0172  0.4888
 7500SOL    MW429768   5.053   1.220   2.496 -0.1200 -0.4567 -0.2919
 7501SOL     OW29769   3.121   4.589   3.934 -0.2517 -0.5636 -0.3153
 7501SOL    HW229770   3.188   4.640   3.980 -1.3749  0.2765  0.4267
 7501SOL    HW329771   3.089   4.647   3.865 -0.2338 -0.9607 -0.6628
 7501SOL    MW429772   3.126   4.603   3.931  0.7583 -0.3724  0.7782
 7502SOL     OW29773   3.267   0.385   5.928  0.0368  0.0582  0.2622
 7502SOL    HW229774   3.206   0.451   5.895  0.3676  0.1730 -0.1233
 7502SOL    HW329775   3.262   0.393   6.023  0.9367  1.4453  0.2190
 7502SOL    MW429776   3.258   0.395   5.936 -0.3335  0.1546  0.7550
 7503SOL     OW29777   6.296   4.124   0.034 -0.2966  0.3262 -0.0313
 7503SOL    HW229778   6.352   4.174  -0.025 -1.7434  0.8301 -0.9975
 7503SOL    HW329779   6.210   4.125  -0.006 -0.9445 -0.7711  1.2373
 7503SOL    MW429780   6.292   4.130   0.021  0.8301  0.0745 -0.0893
 7504SOL     OW29781   3.514   0.262   4.029  0.0186 -0.0550 -0.2345
 7504SOL    HW229782   3.469   0.298   3.952 -0.6931 -1.6304 -0.5908
 7504SOL    HW329783   3.598   0.308   4.030 -1.5104  3.0027  0.4670
 7504SOL    MW429784   3.519   0.273   4.019 -0.0053 -0.1148 -0.1437
 7505SOL     OW29785   4.238   5.197   6.122 -0.0338  0.2247 -0.2958
 7505SOL    HW229786   4.182   5.230   6.191  2.1434 -1.0030  2.2377
 7505SOL    HW329787   4.317   5.251   6.127  0.4140 -0.2864 -1.4121
 7505SOL    MW429788   4.241   5.208   6.131  0.0402 -0.1308  0.2876
 7506SOL     OW29789   0.400   1.491   2.072 -0.3006  0.4610  0.1857
 7506SOL    HW229790   0.479   1.438   2.061 -1.0800 -0.4280 -1.4229
 7506SOL    HW329791   0.408   1.561   2.006 -1.6194 -0.6518 -1.2376
 7506SOL    MW429792   0.411   1.493   2.062  0.3765  0.1566 -0.9457
 7507SOL     OW29793   1.640   6.323   4.286 -0.5509 -0.1128 -0.2064
 7507SOL    HW229794   1.625   6.257   4.354  0.3303  0.1872  0.2988
 7507SOL    HW329795   1.735   6.326   4.276 -0.6198  0.5449 -0.7647
 7507SOL    MW429796   1.651   6.315   4.294 -0.0196  0.5531  0.2750
 7508SOL     OW29797   2.796   0.182   3.150 -0.0758  0.7644 -0.0845
 7508SOL    HW229798   2.734   0.255   3.147  1.1909  1.8748 -1.7740
 7508SOL    HW329799   2.822   0.169   3.058 -0.3003 -1.8896  0.1664
 7508SOL    MW429800   2.791   0.190   3.137  0.0324 -0.6588  0.6067
 7509SOL     OW29801   4.786   0.156   4.418  0.0266  0.6086  0.3237
 7509SOL    HW229802   4.792   0.251   4.430  0.9193  0.6278 -0.1555
 7509SOL    HW329803   4.695   0.135   4.441 -0.4400  1.7078 -0.3909
 7509SOL    MW429804   4.774   0.166   4.422 -0.5407 -0.9025 -0.4022
 7510SOL     OW29805   2.700   4.678   4.277 -0.3727  0.1505  0.2171
 7510SOL    HW229806   2.765   4.623   4.322 -0.2175  0.3775  0.2717
 7510SOL    HW329807   2.616   4.641   4.304 -0.2609 -0.7406 -0.6029
 7510SOL    MW429808   2.698   4.666   4.287 -0.4246 -0.1745  0.1515
 7511SOL     OW29809   5.357   0.121   1.950  0.0368 -0.1015 -0.5627
 7511SOL    HW229810   5.426   0.055   1.949 -0.7904 -1.0142 -2.4104
 7511SOL    HW329811   5.282   0.077   1.990 -0.1047  0.1697 -0.5252
 7511SOL    MW429812   5.356   0.107   1.955  0.0341  0.1126 -0.3238
 7512SOL     OW29813   2.614   3.823   1.197 -0.6006 -0.1923 -0.0030
 7512SOL    HW229814   2.705   3.836   1.224 -0.5236  0.0140 -0.3555
 7512SOL    HW329815   2.601   3.728   1.201  0.0315 -0.3523 -1.2238
 7512SOL    MW429816   2.624   3.812   1.201  0.4432 -0.2099 -0.1610
 7513SOL     OW29817   3.866   2.273   2.271 -0.2385  0.4309  0.1804
 7513SOL    HW229818   3.778   2.310   2.279  0.1811  1.6376 -0.5730
 7513SOL    HW329819   3.889   2.284   2.179  0.9432  0.7088  0.4930
 7513SOL    MW429820   3.858   2.279   2.260  0.2451 -0.1132  0.0376
 7514SOL     OW29821   5.003   5.348   5.877 -0.2893 -0.1308 -0.3256
 7514SOL    HW229822   5.052   5.309   5.950  0.3220 -1.3187 -1.3250
 7514SOL    HW329823   5.018   5.288   5.804  0.0818  1.6294 -1.7607
 7514SOL    MW429824   5.011   5.335   5.877  0.3093  0.0807  0.2277
 7515SOL     OW29825   1.532   5.170   6.035 -0.2185  0.2752 -1.0036
 7515SOL    HW229826   1.503   5.189   5.946  0.1266 -0.1863 -1.2172
 7515SOL    HW329827   1.602   5.106   6.025 -1.8208 -1.6995 -0.2556
 7515SOL    MW429828   1.538   5.164   6.022 -0.0389 -0.3467  0.2041
 7516SOL     OW29829   2.662   6.171   0.401 -0.2437  0.1255  0.1937
 7516SOL    HW229830   2.625   6.104   0.343  1.7469 -0.8525 -0.0419
 7516SOL    HW329831   2.653   6.134   0.489  2.1781 -1.2269 -0.0475
 7516SOL    MW429832   2.656   6.157   0.405  0.2316  0.2690 -0.5257
 7517SOL     OW29833   3.967   6.330   4.588 -0.3435 -0.2571  0.1831
 7517SOL    HW229834   3.998   6.275   4.516 -0.0394 -0.0120  0.1282
 7517SOL    HW329835   3.935   6.267   4.653 -0.2239 -0.4922  0.0166
 7517SOL    MW429836   3.967   6.314   4.587  0.0089  0.1811 -0.2312
 7518SOL     OW29837   4.319   0.134   4.668 -0.2116 -0.2068 -0.0454
 7518SOL    HW229838   4.276   0.203   4.616  0.3356 -0.6034 -1.0502
 7518SOL    HW329839   4.271   0.134   4.751  0.1175  1.7487  0.1951
 7518SOL    MW429840   4.307   0.143   4.672 -0.2278  0.1924 -0.3375
 7519SOL     OW29841   3.376   3.965   3.665 -0.2141 -0.0189 -0.0017
 7519SOL    HW229842   3.365   3.985   3.758 -0.9909 -0.9607  0.1317
 7519SOL    HW329843   3.416   3.878   3.665 -0.3882 -0.1008 -0.5486
 7519SOL    MW429844   3.380   3.956   3.677  0.2734 -0.4903  0.0473
 7520SOL     OW29845   4.375   3.682   2.308  0.4059 -0.6388  0.8607
 7520SOL    HW229846   4.310   3.628   2.263 -0.3086 -0.0984  1.2132
 7520SOL    HW329847   4.425   3.620   2.361  1.8856 -1.4338 -1.3152
 7520SOL    MW429848   4.373   3.667   2.309 -0.2774 -0.0906 -0.6300
 7521SOL     OW29849   4.793   0.413   1.971 -0.5844 -0.0038  0.5399
 7521SOL    HW229850   4.800   0.350   2.043  1.5205 -0.3754  0.0854
 7521SOL    HW329851   4.726   0.475   1.999 -0.8870 -1.0037  2.1329
 7521SOL    MW429852   4.785   0.413   1.984  0.2160  0.4598 -0.5276
 7522SOL     OW29853   1.867   3.939   1.653 -0.3777 -0.0446 -0.0159
 7522SOL    HW229854   1.837   3.953   1.563  0.0642 -1.4632 -0.4133
 7522SOL    HW329855   1.787   3.925   1.703 -0.5521 -1.5557 -0.6499
 7522SOL    MW429856   1.853   3.939   1.647  0.2157  0.1304  0.0714
 7523SOL     OW29857   4.514   2.619   0.313 -0.4605 -0.2335  0.0672
 7523SOL    HW229858   4.481   2.704   0.283  0.3274  1.1264  2.7018
 7523SOL    HW329859   4.472   2.555   0.255 -1.3635  1.9044 -1.7942
 7523SOL    MW429860   4.504   2.622   0.301  0.5646  0.1824  0.2746
 7524SOL     OW29861   3.701   2.226   0.371 -0.2607  0.2604 -0.4127
 7524SOL    HW229862   3.774   2.238   0.311  0.3997 -0.3525  0.2434
 7524SOL    HW329863   3.740   2.185   0.448 -1.7035 -2.3896 -0.9806
 7524SOL    MW429864   3.716   2.223   0.374  0.4099  0.0930  0.2583
 7525SOL     OW29865   1.837   4.527   0.106  0.4135 -0.3816  0.1236
 7525SOL    HW229866   1.792   4.479   0.175 -1.0215  2.6449  1.5069
 7525SOL    HW329867   1.916   4.562   0.149  0.8102 -0.5046 -0.4960
 7525SOL    MW429868   1.842   4.526   0.121  0.6405  1.0844  0.1150
 7526SOL     OW29869   3.148   3.221   3.506 -0.0031 -0.9036 -0.3306
 7526SOL    HW229870   3.154   3.126   3.513 -1.3177 -0.9373  1.1575
 7526SOL    HW329871   3.237   3.250   3.486  0.5117 -2.4142 -0.3539
 7526SOL    MW429872   3.160   3.212   3.504 -0.3306 -0.0824 -0.1984
 7527SOL     OW29873   2.608   5.904   1.558 -0.4057  0.7757  0.2131
 7527SOL    HW229874   2.527   5.934   1.598 -0.6528  0.7861 -0.2937
 7527SOL    HW329875   2.676   5.960   1.596 -0.5674  0.4548  0.9946
 7527SOL    MW429876   2.607   5.915   1.569 -0.1007 -0.3153  0.2910
 7528SOL     OW29877   2.635   0.711   0.392  0.1625  0.6146 -0.2732
 7528SOL    HW229878   2.556   0.659   0.407 -0.8095  1.7420 -1.2699
 7528SOL    HW329879   2.641   0.719   0.297  0.5415  1.9077 -0.1573
 7528SOL    MW429880   2.626   0.705   0.381  0.3114  0.1162 -0.6966
 7529SOL     OW29881   3.465   0.973   2.192  0.0719 -0.5685 -0.9553
 7529SOL    HW229882   3.437   0.933   2.274 -0.0484 -2.2113 -1.7409
 7529SOL    HW329883   3.391   0.959   2.132 -0.6129  2.2498 -0.9041
 7529SOL    MW429884   3.452   0.966   2.195  0.1330  0.0465  0.4783
 7530SOL     OW29885   0.028   4.448   0.198  0.2251  0.2951  0.0950
 7530SOL    HW229886  -0.002   4.538   0.195  0.5651  0.5504  2.2708
 7530SOL    HW329887   0.114   4.449   0.157 -0.0043  0.8472 -0.3729
 7530SOL    MW429888   0.035   4.460   0.192  0.2983  0.0806 -0.1228
 7531SOL     OW29889   4.902   6.284   3.446  0.3329  0.2437  0.0149
 7531SOL    HW229890   4.864   6.348   3.385  0.9910 -0.8532 -1.6088
 7531SOL    HW329891   4.955   6.227   3.391  2.5335  0.3477  1.9072
 7531SOL    MW429892   4.904   6.285   3.431 -0.0384  0.1984  0.0179
 7532SOL     OW29893   0.263   5.549   3.305  0.7801 -0.1703  0.1034
 7532SOL    HW229894   0.213   5.503   3.373 -0.5676  1.4565  0.2775
 7532SOL    HW329895   0.346   5.571   3.347 -1.2920  4.0265  2.7423
 7532SOL    MW429896   0.267   5.546   3.320  0.6376 -0.1837 -0.4011
 7533SOL     OW29897   2.112   3.053   3.956  0.0429 -0.2481 -0.1128
 7533SOL    HW229898   2.091   3.054   4.050  1.9069  0.7197  0.3493
 7533SOL    HW329899   2.027   3.043   3.913 -1.1552  1.5002  1.6191
 7533SOL    MW429900   2.098   3.052   3.963  0.1327  0.5788  0.4505
 7534SOL     OW29901   4.236   0.729   4.220  0.1286 -0.4576  0.0402
 7534SOL    HW229902   4.163   0.725   4.282 -0.2115 -0.5376 -0.3643
 7534SOL    HW329903   4.222   0.654   4.162  0.1532 -0.0850 -0.4567
 7534SOL    MW429904   4.224   0.718   4.220  0.1230  0.1613  0.1452
 7535SOL     OW29905   3.975   5.427   5.429  0.2910  0.2443  0.6326
 7535SOL    HW229906   4.014   5.426   5.516  1.0273 -1.3509  0.3253
 7535SOL    HW329907   3.919   5.350   5.426 -0.0376  0.5011 -0.1684
 7535SOL    MW429908   3.973   5.417   5.440 -0.0800 -0.1461  0.3419
 7536SOL     OW29909   2.708   1.028   0.136 -0.2796 -0.4194 -0.5555
 7536SOL    HW229910   2.663   1.056   0.055 -1.8406 -3.8242 -1.0497
 7536SOL    HW329911   2.639   1.030   0.203 -0.0613 -1.3980 -0.2792
 7536SOL    MW429912   2.693   1.032   0.134  0.3533  0.1503 -0.0315
 7537SOL     OW29913   0.197   5.170   5.364 -0.5112 -0.1842  0.4261
 7537SOL    HW229914   0.141   5.176   5.287  0.0600  0.5259  0.0542
 7537SOL    HW329915   0.271   5.115   5.336 -0.9734 -1.0671  0.8945
 7537SOL    MW429916   0.200   5.164   5.350  0.1637  0.0290  0.1774
 7538SOL     OW29917   4.613   4.891   2.600 -0.0484  0.5005  0.1417
 7538SOL    HW229918   4.546   4.843   2.648 -0.2296 -1.0506 -1.5575
 7538SOL    HW329919   4.577   4.901   2.512  1.6160  0.3064 -0.5937
 7538SOL    MW429920   4.599   4.886   2.595 -0.4622 -1.1342 -0.1939
 7539SOL     OW29921   5.775   3.045   2.182  0.0531 -0.5702  0.1780
 7539SOL    HW229922   5.847   2.982   2.176  2.0648  1.6891 -2.5213
 7539SOL    HW329923   5.741   3.052   2.093 -4.0480 -1.8824  1.4001
 7539SOL    MW429924   5.780   3.038   2.169 -0.0275  0.1296 -0.1947
 7540SOL     OW29925   0.618   1.777   4.111 -0.2888  0.5057 -0.1067
 7540SOL    HW229926   0.627   1.865   4.075  0.9220  0.9786  1.2148
 7540SOL    HW329927   0.556   1.787   4.184 -0.0197  0.3173  0.1525
 7540SOL    MW429928   0.611   1.790   4.116  0.0543 -0.0606 -0.8017
 7541SOL     OW29929   4.671   6.383   5.129 -0.2194 -0.1184 -0.8125
 7541SOL    HW229930   4.694   6.313   5.068  0.2678  1.4665 -2.5507
 7541SOL    HW329931   4.750   6.437   5.136 -0.4594  0.0881  0.7780
 7541SOL    MW429932   4.685   6.381   5.122  0.3176 -0.7950  0.1227
 7542SOL     OW29933   3.848   3.478   3.237 -0.2285 -0.3552 -0.0155
 7542SOL    HW229934   3.896   3.560   3.248  0.1470 -0.5018 -0.5290
 7542SOL    HW329935   3.758   3.506   3.218 -0.0846 -0.0567 -0.2763
 7542SOL    MW429936   3.843   3.493   3.236  0.1702 -0.4215  0.1292
 7543SOL     OW29937   0.244   2.318   1.005 -0.3584  0.6511  0.2726
 7543SOL    HW229938   0.270   2.336   0.915  1.2493  0.0617  0.5845
 7543SOL    HW329939   0.167   2.261   0.997 -0.1662  0.5130 -0.7143
 7543SOL    MW429940   0.237   2.313   0.992 -0.2470 -0.0141 -0.1817
 7544SOL     OW29941   0.334   1.304   4.474 -0.8028 -0.1739  0.4464
 7544SOL    HW229942   0.366   1.214   4.481  1.8289  0.5877 -0.5163
 7544SOL    HW329943   0.261   1.300   4.413 -1.0013 -1.7194  0.7682
 7544SOL    MW429944   0.329   1.292   4.467  0.3489  0.3034 -0.1540
 7545SOL     OW29945   1.471   5.050   4.866 -0.2403  0.3614  0.4059
 7545SOL    HW229946   1.507   4.966   4.838  0.0107  1.0986 -1.6464
 7545SOL    HW329947   1.547   5.101   4.893 -0.1498  0.6610 -0.4092
 7545SOL    MW429948   1.485   5.046   4.866  0.0045 -0.4418 -0.7428
 7546SOL     OW29949   1.583   4.146   5.822 -0.5855 -0.4641  0.1464
 7546SOL    HW229950   1.510   4.159   5.882 -0.7424 -1.9072  0.3086
 7546SOL    HW329951   1.559   4.067   5.773  0.9050 -1.0216  0.2818
 7546SOL    MW429952   1.570   4.137   5.823  0.6745 -0.2719 -0.0015
 7547SOL     OW29953   4.067   0.581   0.957  0.1569  0.9040 -0.3471
 7547SOL    HW229954   3.997   0.538   1.006 -0.5819  1.3330 -0.9939
 7547SOL    HW329955   4.037   0.577   0.866  1.3743  0.3537 -0.7445
 7547SOL    MW429956   4.054   0.575   0.951  0.5964 -0.3255 -0.4153
 7548SOL     OW29957   4.740   4.733   4.139 -0.2408 -0.3963  0.2791
 7548SOL    HW229958   4.769   4.679   4.212 -0.2062  1.4086  1.6889
 7548SOL    HW329959   4.645   4.724   4.139 -0.1068 -2.0730 -0.8611
 7548SOL    MW429960   4.731   4.725   4.149 -0.3829 -0.7044 -0.6541
 7549SOL     OW29961   3.781   3.395   4.485  0.1340  0.1720  0.0395
 7549SOL    HW229962   3.689   3.414   4.500  0.3912  0.5071  1.3782
 7549SOL    HW329963   3.801   3.324   4.547  1.2637  1.5765  1.3656
 7549SOL    MW429964   3.772   3.388   4.495 -0.1739  0.5814 -0.5042
 7550SOL     OW29965   2.410   2.826   0.466 -0.1013 -0.6437  0.4009
 7550SOL    HW229966   2.352   2.871   0.527 -1.1113 -0.6586 -0.5155
 7550SOL    HW329967   2.478   2.890   0.444  0.5342 -0.7888  1.8639
 7550SOL    MW429968   2.411   2.840   0.471  0.3906 -0.0158  0.3993
 7551SOL     OW29969   5.558   1.081   2.805  0.4878  0.0893  0.2639
 7551SOL    HW229970   5.520   1.008   2.756  2.6550  0.1761 -1.7801
 7551SOL    HW329971   5.484   1.136   2.829 -1.1401 -2.3892  1.2655
 7551SOL    MW429972   5.544   1.079   2.802  0.1589  0.0359  0.1977
 7552SOL     OW29973   1.037   1.485   6.250 -0.2165 -0.1615 -0.3448
 7552SOL    HW229974   0.992   1.544   6.311 -0.1941 -0.3614 -0.1339
 7552SOL    HW329975   0.969   1.425   6.220 -0.2340 -0.0442 -0.5417
 7552SOL    MW429976   1.022   1.485   6.254 -0.5482  0.5769 -0.0714
 7553SOL     OW29977   3.240   6.025   1.317  0.0465 -0.0291  0.3290
 7553SOL    HW229978   3.317   6.026   1.260 -0.9893  1.8515 -1.1457
 7553SOL    HW329979   3.276   6.033   1.405  1.5604  0.3886 -0.2788
 7553SOL    MW429980   3.255   6.026   1.321  0.4579 -0.0520 -0.2282
 7554SOL     OW29981   4.590   0.738   3.942  0.1489 -0.3554  0.2604
 7554SOL    HW229982   4.672   0.778   3.973  0.8695 -0.4619 -1.4107
 7554SOL    HW329983   4.521   0.791   3.982  0.9497 -1.1917  2.9719
 7554SOL    MW429984   4.592   0.750   3.952 -0.6640 -0.1935  0.0544
 7555SOL     OW29985   2.786   3.243   0.259 -0.5164  0.3305  0.2270
 7555SOL    HW229986   2.872   3.202   0.263 -0.6905  0.0997  2.3467
 7555SOL    HW329987   2.801   3.334   0.285 -0.5032  1.1147 -2.2314
 7555SOL    MW429988   2.799   3.249   0.263  0.2480  0.7060  0.6007
 7556SOL     OW29989   4.458   3.327   1.878  0.1064  0.0709 -0.1650
 7556SOL    HW229990   4.486   3.407   1.833 -0.6351  0.6621  0.4001
 7556SOL    HW329991   4.376   3.303   1.836 -0.3948  0.4111  0.6057
 7556SOL    MW429992   4.451   3.335   1.866  0.5833  0.5585  0.1566
 7557SOL     OW29993   2.799   5.553   5.802  0.1035  0.2450  0.1003
 7557SOL    HW229994   2.769   5.588   5.886 -0.8972 -0.9371  0.2570
 7557SOL    HW329995   2.893   5.541   5.813  0.3826  2.2071  0.2643
 7557SOL    MW429996   2.807   5.556   5.815 -0.5436  0.0169 -0.3021
 7558SOL     OW29997   0.957   2.306   5.879 -0.1169  0.0600  0.2011
 7558SOL    HW229998   1.014   2.245   5.927  0.8032 -1.3422 -2.4329
 7558SOL    HW329999   0.886   2.325   5.940 -1.3359 -4.9174  0.8183
 7558SOL    MW430000   0.955   2.300   5.894  0.1771  0.0185  0.1650
 7559SOL     OW30001   0.846   5.935   1.173 -0.0346  0.2398  0.4932
 7559SOL    HW230002   0.853   5.897   1.086 -0.7159 -1.2897  1.0755
 7559SOL    HW330003   0.871   6.027   1.161  2.5207 -0.5340 -0.8231
 7559SOL    MW430004   0.850   5.942   1.160  0.3463  0.0411 -0.3271
 7560SOL     OW30005   2.267   3.479   5.682 -0.0291 -0.5451  0.0423
 7560SOL    HW230006   2.202   3.414   5.656 -1.9740 -0.3206  3.6184
 7560SOL    HW330007   2.345   3.428   5.704 -1.0452 -1.6053  1.3796
 7560SOL    MW430008   2.268   3.464   5.682  0.2828  0.6645  0.4500
 7561SOL     OW30009   2.329   3.696   5.530  0.1625  0.2634  0.1966
 7561SOL    HW230010   2.299   3.774   5.577 -0.9847 -0.3321  0.4799
 7561SOL    HW330011   2.294   3.622   5.580  1.5544 -0.4622  0.1533
 7561SOL    MW430012   2.321   3.697   5.542  0.2617  0.0229 -0.3352
 7562SOL     OW30013   2.681   3.516   1.878 -0.5561 -0.3060  0.0639
 7562SOL    HW230014   2.729   3.599   1.871 -0.0746 -0.3990  1.8030
 7562SOL    HW330015   2.729   3.467   1.944 -1.0096 -1.8720 -0.7352
 7562SOL    MW430016   2.694   3.521   1.886 -0.5930  0.4521 -0.1936
 7563SOL     OW30017   3.375   2.320   3.050 -0.1981  0.4183 -0.0403
 7563SOL    HW230018   3.369   2.345   3.142 -1.1420  1.3895 -0.3538
 7563SOL    HW330019   3.469   2.321   3.031 -0.0414  0.9211  0.7185
 7563SOL    MW430020   3.387   2.323   3.060 -0.0983  0.0030  0.3813
 7564SOL     OW30021   3.139   1.989   4.263  0.6529  0.2474  0.0607
 7564SOL    HW230022   3.200   1.968   4.192 -0.3550  0.0068 -0.7523
 7564SOL    HW330023   3.119   1.905   4.302 -0.8255  0.0290 -1.0813
 7564SOL    MW430024   3.144   1.975   4.259 -0.3225  0.2599 -0.3279
 7565SOL     OW30025   3.613   1.506   1.480  0.3699 -0.1863  0.3210
 7565SOL    HW230026   3.636   1.597   1.500  0.6996 -0.2994  0.4549
 7565SOL    HW330027   3.535   1.489   1.533 -0.7986  0.5916 -1.0668
 7565SOL    MW430028   3.606   1.516   1.490  0.1492 -0.3070  0.1053
 7566SOL     OW30029   1.088   4.435   5.228 -0.4490  0.8994  0.5631
 7566SOL    HW230030   1.043   4.515   5.201  0.8282  1.3462 -0.3409
 7566SOL    HW330031   1.085   4.379   5.151 -0.5820  0.4149  0.9173
 7566SOL    MW430032   1.082   4.438   5.214 -0.3580 -0.5454 -0.3009
 7567SOL     OW30033   0.626   0.808   3.855 -0.3510  0.5209  0.1182
 7567SOL    HW230034   0.713   0.840   3.876 -0.6375  0.3118  1.8109
 7567SOL    HW330035   0.572   0.887   3.845  0.0441  0.6527 -1.0907
 7567SOL    MW430036   0.630   0.822   3.857 -0.4368 -0.4157 -0.6872
 7568SOL     OW30037   4.155   5.224   2.804 -0.5500 -0.2938 -0.3879
 7568SOL    HW230038   4.082   5.183   2.758 -0.4790 -0.6071 -0.2203
 7568SOL    HW330039   4.153   5.186   2.892  0.5862 -1.2474 -0.7561
 7568SOL    MW430040   4.145   5.214   2.809 -0.1292  0.1102 -0.1261
 7569SOL     OW30041   0.779   1.273   4.693 -0.0946  0.1247  0.2804
 7569SOL    HW230042   0.782   1.216   4.769  1.9864  1.6976  1.4921
 7569SOL    HW330043   0.708   1.335   4.712 -2.5784 -2.0794 -1.1872
 7569SOL    MW430044   0.770   1.274   4.705 -0.2030 -0.3725 -0.3329
 7570SOL     OW30045   4.478   1.757   3.485  0.1725  0.0007  0.1050
 7570SOL    HW230046   4.449   1.833   3.535  2.8506  0.2154  1.5150
 7570SOL    HW330047   4.489   1.789   3.396  2.2582  1.6217  0.8808
 7570SOL    MW430048   4.475   1.771   3.480 -0.8715  0.1321 -0.1493
 7571SOL     OW30049   6.059   2.697   2.967  0.3401  0.0882  0.0420
 7571SOL    HW230050   6.040   2.750   3.044  1.4126  0.5895 -0.0218
 7571SOL    HW330051   6.121   2.750   2.916  0.8280 -0.8887 -0.4074
 7571SOL    MW430052   6.064   2.711   2.971  0.1968  0.1048 -0.1849
 7572SOL     OW30053   4.989   1.406   2.056  0.1431  0.7012 -0.8730
 7572SOL    HW230054   4.964   1.487   2.099 -0.0611  0.7038 -0.9990
 7572SOL    HW330055   5.052   1.366   2.117 -0.9726  0.1704 -0.0360
 7572SOL    MW430056   4.994   1.411   2.070  0.1570 -0.0066 -0.4713
 7573SOL     OW30057   4.660   2.025   2.565 -0.3173 -0.6415  0.3350
 7573SOL    HW230058   4.706   2.023   2.649  0.9182 -0.6271 -0.3173
 7573SOL    HW330059   4.585   2.082   2.581  0.3756  0.0679  1.2133
 7573SOL    MW430060   4.657   2.033   2.578 -0.1163  0.0090  0.3181
 7574SOL     OW30061   6.342   5.128   2.979  0.0002  0.6427 -0.2825
 7574SOL    HW230062   6.292   5.058   2.938  1.0307  0.2906 -0.9841
 7574SOL    HW330063   6.424   5.086   3.006 -0.3537  1.0287  1.5282
 7574SOL    MW430064   6.346   5.113   2.977  0.1397 -0.1644  0.1556
 7575SOL     OW30065   0.754   3.358   3.643 -0.1283 -0.2921 -0.1314
 7575SOL    HW230066   0.748   3.311   3.726  0.5139  0.7623  0.5432
 7575SOL    HW330067   0.710   3.442   3.660 -0.1276 -0.1248 -0.9008
 7575SOL    MW430068   0.747   3.363   3.656 -0.2405  0.4545  0.0203
 7576SOL     OW30069   1.397   0.661   1.758 -0.4924  0.1278 -0.3284
 7576SOL    HW230070   1.341   0.674   1.834  1.4867  0.3900  1.1785
 7576SOL    HW330071   1.338   0.665   1.683 -2.7616 -1.6179  1.2225
 7576SOL    MW430072   1.382   0.663   1.758  0.1155 -0.0758  0.1539
 7577SOL     OW30073   3.880   4.119   1.746  0.4137  0.3897  0.2148
 7577SOL    HW230074   3.833   4.200   1.727  1.2238  0.6237 -0.9615
 7577SOL    HW330075   3.942   4.142   1.815  0.5015  0.7399  0.0252
 7577SOL    MW430076   3.882   4.133   1.752  0.1242 -0.5574 -0.0375
 7578SOL     OW30077   2.683   6.326   1.412 -0.2129  0.2675  0.4769
 7578SOL    HW230078   2.630   6.247   1.400  0.1798 -0.2397  1.8994
 7578SOL    HW330079   2.620   6.398   1.407 -0.5737 -0.0987 -0.8287
 7578SOL    MW430080   2.668   6.325   1.410  0.3177  0.8259  0.1348
 7579SOL     OW30081   2.418   0.962   4.783  0.1207  0.1776 -0.3752
 7579SOL    HW230082   2.420   0.878   4.828  1.4858  0.4774  0.1830
 7579SOL    HW330083   2.347   0.954   4.718 -1.7606 -0.3562  1.6266
 7579SOL    MW430084   2.409   0.950   4.780  0.3142  0.1372  0.0411
 7580SOL     OW30085   1.546   1.229   1.049 -0.0550  0.3986  0.2243
 7580SOL    HW230086   1.488   1.154   1.065 -1.1566  1.1960  0.1345
 7580SOL    HW330087   1.600   1.202   0.975  0.8210 -0.9754  1.3143
 7580SOL    MW430088   1.545   1.216   1.041 -0.3617 -0.4168 -0.3388
 7581SOL     OW30089   3.783   5.088   1.436 -0.1464  0.7483  0.8142
 7581SOL    HW230090   3.873   5.081   1.466 -0.2436  2.7386  1.7561
 7581SOL    HW330091   3.788   5.138   1.355 -0.2573 -0.9957 -0.3133
 7581SOL    MW430092   3.795   5.094   1.429 -0.5015  0.0499 -0.0498
 7582SOL     OW30093   3.402   4.039   2.029 -0.2633 -0.1454 -0.1410
 7582SOL    HW230094   3.398   3.962   2.084 -0.6780  0.0330  0.0849
 7582SOL    HW330095   3.458   4.100   2.076 -2.6984  1.0324  1.4265
 7582SOL    MW430096   3.409   4.037   2.042 -0.4191  0.0285  0.0262
 7583SOL     OW30097   6.078   6.116   0.454  0.2586 -0.0227 -0.1969
 7583SOL    HW230098   6.088   6.160   0.538 -1.2350 -0.1798  0.0978
 7583SOL    HW330099   6.091   6.186   0.389 -1.5749  0.7893  0.2491
 7583SOL    MW430100   6.081   6.131   0.457 -0.2211  0.2828  0.2416
 7584SOL     OW30101   0.135   0.936   6.352 -0.2953 -0.9520  0.6823
 7584SOL    HW230102   0.041   0.949   6.366 -0.1542 -0.0503  0.8680
 7584SOL    HW330103   0.159   1.001   6.286  0.7521  0.9697  2.7768
 7584SOL    MW430104   0.126   0.946   6.345  0.4196  0.0932  0.1008
 7585SOL     OW30105   5.647   0.938   3.024  0.4603  0.0602 -0.8265
 7585SOL    HW230106   5.743   0.937   3.023  0.5234  0.6925  0.9999
 7585SOL    HW330107   5.623   0.994   2.951  1.5615  1.5360 -0.1011
 7585SOL    MW430108   5.657   0.945   3.015 -0.1405 -0.4376 -0.1472
 7586SOL     OW30109   2.707   4.515   2.003  0.3920 -0.8151  0.6347
 7586SOL    HW230110   2.732   4.470   2.084  2.0981 -0.5713  0.2744
 7586SOL    HW330111   2.749   4.600   2.008 -0.8912 -0.1329  0.2402
 7586SOL    MW430112   2.716   4.520   2.014 -0.2749 -0.3557 -0.1662
 7587SOL     OW30113   6.219   0.808   4.555 -0.1627 -0.5843 -0.3814
 7587SOL    HW230114   6.145   0.849   4.511  1.1804  1.0625 -1.2358
 7587SOL    HW330115   6.290   0.871   4.545  1.2820 -1.9782  0.6584
 7587SOL    MW430116   6.219   0.822   4.548  0.0724  0.2780  0.3769
 7588SOL     OW30117   3.330   3.131   0.764 -0.3263 -0.2498  0.3845
 7588SOL    HW230118   3.394   3.060   0.766 -0.5213 -0.4157  0.9897
 7588SOL    HW330119   3.249   3.089   0.736 -0.2824 -0.1336  0.0835
 7588SOL    MW430120   3.327   3.116   0.761 -0.2687  0.3141  0.1992
 7589SOL     OW30121   2.629   4.472   4.961 -0.0885 -0.4338 -0.7946
 7589SOL    HW230122   2.690   4.398   4.965  0.2915 -0.4351 -3.8540
 7589SOL    HW330123   2.681   4.548   4.987  0.6030 -0.7595 -1.1836
 7589SOL    MW430124   2.644   4.472   4.965 -0.5427 -0.2673 -0.1809
 7590SOL     OW30125   1.921   3.170   2.896 -0.3226  0.4602  0.4534
 7590SOL    HW230126   1.877   3.168   2.811  1.3158 -0.9312 -0.4133
 7590SOL    HW330127   2.009   3.202   2.877  0.4329 -0.9276  1.4286
 7590SOL    MW430128   1.926   3.174   2.882 -0.0429  0.8758  0.1856
 7591SOL     OW30129   4.432   5.681   2.046 -0.4914  0.0155  0.2596
 7591SOL    HW230130   4.444   5.650   1.956 -0.0855  0.0889  0.2851
 7591SOL    HW330131   4.520   5.678   2.083 -0.2366  2.1354 -0.0293
 7591SOL    MW430132   4.446   5.677   2.039 -0.4238  0.3273  0.1969
 7592SOL     OW30133   4.356   1.782   1.054 -0.0048 -0.4628  0.7450
 7592SOL    HW230134   4.349   1.687   1.049 -0.4476 -0.3838 -0.7168
 7592SOL    HW330135   4.359   1.801   1.148  0.2871 -1.9208  1.0602
 7592SOL    MW430136   4.355   1.772   1.066 -0.7578 -0.0678  0.6932
 7593SOL     OW30137   0.557   0.864   4.899  0.1961 -0.0752  0.8303
 7593SOL    HW230138   0.616   0.817   4.841  2.1939  1.9590  1.0687
 7593SOL    HW330139   0.566   0.820   4.984 -0.1387 -0.9516  0.4239
 7593SOL    MW430140   0.566   0.852   4.903  0.4945  0.2974  0.4477
 7594SOL     OW30141   4.469   2.619   4.115 -0.0131 -0.4929  0.0092
 7594SOL    HW230142   4.549   2.578   4.083  0.5868 -1.4698  2.5346
 7594SOL    HW330143   4.467   2.704   4.072  1.6649 -0.9694 -1.1219
 7594SOL    MW430144   4.479   2.624   4.105 -0.3088  0.0558  0.2904
 7595SOL     OW30145   1.722   3.958   2.551  0.1293  0.5538  0.1008
 7595SOL    HW230146   1.811   3.922   2.548  0.5383  1.3939  1.3535
 7595SOL    HW330147   1.671   3.902   2.492  1.1842 -0.7660  0.4030
 7595SOL    MW430148   1.727   3.946   2.543  0.4904  0.3602 -0.0945
 7596SOL     OW30149   0.881   0.566   2.910  0.0941  0.3949 -0.1841
 7596SOL    HW230150   0.835   0.571   2.826  0.8413 -0.8149 -0.6986
 7596SOL    HW330151   0.940   0.641   2.909 -0.5205  0.8851 -0.3482
 7596SOL    MW430152   0.883   0.576   2.899 -0.0543 -0.7281  0.0185
 7597SOL     OW30153   5.281   3.994   6.252  0.0766 -0.7790  0.2895
 7597SOL    HW230154   5.368   4.031   6.263 -0.3158 -0.0400  1.0188
 7597SOL    HW330155   5.294   3.899   6.256  0.7809 -0.6595  0.9080
 7597SOL    MW430156   5.294   3.986   6.254 -0.6831  0.0618 -0.3741
 7598SOL     OW30157   1.130   0.963   3.788 -0.2499 -0.5226  0.1352
 7598SOL    HW230158   1.038   0.938   3.801 -1.0475  1.1805 -1.7128
 7598SOL    HW330159   1.179   0.904   3.845 -2.5631 -0.6297  2.1573
 7598SOL    MW430160   1.124   0.952   3.797 -0.3233  0.3889  0.2640
 7599SOL     OW30161   5.335   5.624   4.910 -0.2938  0.3620  0.2250
 7599SOL    HW230162   5.423   5.660   4.901 -0.1224  0.6707  2.5205
 7599SOL    HW330163   5.281   5.698   4.937 -0.8995 -0.1746  0.5109
 7599SOL    MW430164   5.340   5.638   4.912  0.6673 -0.3017 -0.5595
 7600SOL     OW30165   3.466   4.256   5.978 -0.3920 -0.4647 -0.6943
 7600SOL    HW230166   3.546   4.211   6.003  0.2326  0.3473 -1.1859
 7600SOL    HW330167   3.407   4.186   5.950 -0.6017 -1.2632  1.5496
 7600SOL    MW430168   3.469   4.241   5.977 -0.0532  0.7046 -0.0984
 7601SOL     OW30169   5.158   0.196   0.077  0.2918 -0.1109 -0.5242
 7601SOL    HW230170   5.157   0.159  -0.011  2.3605  0.1886 -0.7179
 7601SOL    HW330171   5.176   0.122   0.135 -0.2060 -0.1594 -0.4240
 7601SOL    MW430172   5.160   0.182   0.073 -0.1474  0.8102  0.0050
 7602SOL     OW30173   5.053   4.559   4.591 -0.5769 -0.3444  0.0460
 7602SOL    HW230174   5.062   4.642   4.545  0.2872 -0.3496  0.1894
 7602SOL    HW330175   5.015   4.582   4.675 -2.4019 -0.3606 -0.7306
 7602SOL    MW430176   5.049   4.573   4.596  0.2681  0.4770  0.0627
 7603SOL     OW30177   5.407   3.673   1.820 -0.2248  0.2207  0.0884
 7603SOL    HW230178   5.431   3.748   1.874  0.1212  0.9527 -1.0387
 7603SOL    HW330179   5.454   3.686   1.738  0.7017 -1.8106  0.2339
 7603SOL    MW430180   5.416   3.685   1.816  0.0448  0.5608 -0.3579
 7604SOL     OW30181   0.128   0.296   5.228 -0.7499  0.0133 -0.8964
 7604SOL    HW230182   0.178   0.230   5.179 -0.3616 -0.9384  0.7065
 7604SOL    HW330183   0.052   0.249   5.261  0.4330 -0.2171  1.7928
 7604SOL    MW430184   0.125   0.281   5.225  0.6325 -0.4881  0.0481
 7605SOL     OW30185   3.039   0.739   1.799  0.5826  0.3997  0.5121
 7605SOL    HW230186   3.133   0.751   1.814  0.5402  0.9576  0.3769
 7605SOL    HW330187   2.999   0.757   1.884  0.5609  0.7160  0.4384
 7605SOL    MW430188   3.046   0.743   1.812 -0.6336 -0.4319  0.3386
 7606SOL     OW30189   6.086   4.738   4.254 -0.2039 -0.4912  0.1175
 7606SOL    HW230190   6.175   4.746   4.219 -0.2490 -0.4297  0.0164
 7606SOL    HW330191   6.032   4.717   4.178 -0.3021 -0.3592  0.1495
 7606SOL    MW430192   6.091   4.736   4.240  0.2377  0.3098 -0.1650
 7607SOL     OW30193   1.320   2.675   2.769  0.4888 -0.3109  0.0066
 7607SOL    HW230194   1.273   2.591   2.762 -0.8754  0.3109  1.2081
 7607SOL    HW330195   1.348   2.680   2.860 -0.2805  0.9538  0.1970
 7607SOL    MW430196   1.317   2.665   2.780 -0.6811  0.1670 -0.7001
 7608SOL     OW30197   3.949   3.372   4.026 -0.1445  0.0132 -0.5780
 7608SOL    HW230198   4.008   3.420   4.084 -0.9418 -0.5330  0.7153
 7608SOL    HW330199   3.895   3.440   3.985  0.3143  0.3895 -0.5699
 7608SOL    MW430200   3.950   3.387   4.028  0.0582  0.4242 -0.5820
 7609SOL     OW30201   3.429   1.989   3.257  0.0272 -0.0344 -0.4983
 7609SOL    HW230202   3.501   2.045   3.287  0.6267 -0.6840 -0.6735
 7609SOL    HW330203   3.470   1.932   3.192 -0.5291 -0.7554 -0.2274
 7609SOL    MW430204   3.444   1.989   3.252 -0.4582 -0.4111 -0.1202
 7610SOL     OW30205   0.297   6.065   2.084 -0.4844  0.0561  0.1070
 7610SOL    HW230206   0.292   6.155   2.115  1.6865 -0.5173  2.4725
 7610SOL    HW330207   0.254   6.013   2.152  1.4777 -0.9634  0.6433
 7610SOL    MW430208   0.291   6.070   2.097 -0.0641  0.1586  0.3666
 7611SOL     OW30209   5.203   1.596   5.148  0.4366 -0.6040 -0.1626
 7611SOL    HW230210   5.182   1.680   5.106  0.7708 -0.8098 -0.7559
 7611SOL    HW330211   5.264   1.619   5.218 -0.2316 -0.2380  0.3222
 7611SOL    MW430212   5.208   1.610   5.152  0.0005  0.2116 -0.5610
 7612SOL     OW30213   1.126   1.682   5.243  0.3852  0.1343 -0.0961
 7612SOL    HW230214   1.210   1.695   5.285  0.0991  0.0226  0.5220
 7612SOL    HW330215   1.111   1.762   5.193 -0.3475  1.3285  1.9068
 7612SOL    MW430216   1.135   1.694   5.242  0.1518 -0.4937 -0.5528
 7613SOL     OW30217   0.642   0.493   0.951 -0.3524 -0.3530  0.5375
 7613SOL    HW230218   0.709   0.537   1.003 -0.4298  0.3012  0.0902
 7613SOL    HW330219   0.563   0.547   0.962  0.4041  1.7038 -2.8033
 7613SOL    MW430220   0.640   0.506   0.960  0.3192  0.6454  0.0388
 7614SOL     OW30221   4.743   5.762   4.679  0.1724 -0.3211 -0.1152
 7614SOL    HW230222   4.735   5.700   4.752 -0.3614 -1.5974 -1.2139
 7614SOL    HW330223   4.658   5.807   4.678 -0.9283 -2.2631 -1.5997
 7614SOL    MW430224   4.730   5.760   4.689  0.2844 -0.0120 -0.0809
 7615SOL     OW30225   2.906   5.390   2.406  0.0556 -0.5878 -0.1864
 7615SOL    HW230226   2.861   5.422   2.485  1.9095 -0.4573  0.8841
 7615SOL    HW330227   2.929   5.299   2.427 -1.2418 -1.2518 -1.4433
 7615SOL    MW430228   2.903   5.382   2.420  0.3096  0.0295  0.2375
 7616SOL     OW30229   0.635   4.839   1.603  0.4249  0.0654  0.0563
 7616SOL    HW230230   0.628   4.776   1.675 -1.2842  0.9955  0.7702
 7616SOL    HW330231   0.551   4.833   1.558  0.7689  0.8429 -0.7183
 7616SOL    MW430232   0.623   4.830   1.606 -0.1503  0.4347  0.0084
 7617SOL     OW30233   3.070   0.886   5.121 -0.3717 -0.3777  0.2323
 7617SOL    HW230234   3.073   0.796   5.088  0.8617 -1.0234  1.9373
 7617SOL    HW330235   3.161   0.906   5.142 -0.7494  0.9924  0.6295
 7617SOL    MW430236   3.082   0.877   5.119 -0.3028  1.0738  0.2067
 7618SOL     OW30237   3.970   0.306   3.860  0.0620 -0.4671 -0.0200
 7618SOL    HW230238   4.007   0.326   3.774  1.0576 -0.1119  0.4760
 7618SOL    HW330239   4.039   0.328   3.922 -0.7834 -0.3443  0.9105
 7618SOL    MW430240   3.984   0.311   3.857 -0.3323 -0.4299 -0.2847
 7619SOL     OW30241   5.802   5.646   0.197 -0.1119  0.4403  0.2511
 7619SOL    HW230242   5.771   5.652   0.288 -0.0336  1.0705  0.2401
 7619SOL    HW330243   5.730   5.682   0.145 -0.7940 -1.3024 -0.0864
 7619SOL    MW430244   5.788   5.652   0.202 -0.0031 -0.0597  0.6150
 7620SOL     OW30245   0.032   2.966   4.254 -0.0703  0.1962  0.1667
 7620SOL    HW230246  -0.015   2.946   4.173 -2.5162  0.7067  1.3651
 7620SOL    HW330247   0.011   3.057   4.273 -0.3169 -0.1565  1.8108
 7620SOL    MW430248   0.023   2.975   4.246 -0.4732 -0.2140  0.1500
 7621SOL     OW30249   1.597   5.543   0.484  0.1695 -0.1146 -0.3978
 7621SOL    HW230250   1.521   5.532   0.427 -0.7604 -0.7985  0.9251
 7621SOL    HW330251   1.660   5.591   0.430 -1.7096  1.7797 -1.0812
 7621SOL    MW430252   1.595   5.548   0.469 -0.1497 -0.6640 -0.3335
 7622SOL     OW30253   6.234   4.811   2.613  0.7311 -0.3670 -0.3069
 7622SOL    HW230254   6.306   4.748   2.612  1.0159 -0.0493 -0.0537
 7622SOL    HW330255   6.162   4.766   2.568  1.2712 -0.4670 -1.0802
 7622SOL    MW430256   6.234   4.796   2.607 -0.0909 -0.4165  0.2213
 7623SOL     OW30257   0.715   1.333   3.558 -0.7471  0.3027  0.6060
 7623SOL    HW230258   0.674   1.258   3.601 -1.1006  0.3053  0.2856
 7623SOL    HW330259   0.693   1.408   3.615 -0.0572  0.1091  1.1348
 7623SOL    MW430260   0.707   1.333   3.571  0.4863  0.4242  0.3135
 7624SOL     OW30261   0.426   4.973   1.772  0.4024  0.0212  0.3365
 7624SOL    HW230262   0.462   4.899   1.822  3.9202  0.0748 -1.8034
 7624SOL    HW330263   0.422   5.045   1.835  0.2220 -1.0563  1.6059
 7624SOL    MW430264   0.430   4.972   1.787 -0.3603 -0.1470 -0.7404
 7625SOL     OW30265   5.768   1.263   4.596  0.1087  0.1118 -0.0953
 7625SOL    HW230266   5.788   1.195   4.661 -2.4542 -0.8564 -0.2103
 7625SOL    HW330267   5.748   1.340   4.648  1.3445  0.3335  0.0928
 7625SOL    MW430268   5.768   1.264   4.612 -0.0103  0.6647  0.0255
 7626SOL     OW30269   1.744   2.034   1.733  0.4854  0.2961 -0.2834
 7626SOL    HW230270   1.668   1.993   1.774  0.5310  1.4863  1.0772
 7626SOL    HW330271   1.707   2.095   1.668  0.3661 -0.6196 -1.0899
 7626SOL    MW430272   1.729   2.037   1.730  0.2393 -0.3406 -0.5186
 7627SOL     OW30273   3.610   6.286   6.423  0.1574 -0.6651  0.0478
 7627SOL    HW230274   3.576   6.308   6.336 -0.4552 -0.3245  0.3693
 7627SOL    HW330275   3.538   6.241   6.467  0.3465 -0.5272  0.5023
 7627SOL    MW430276   3.596   6.283   6.417  0.2027 -0.0749 -0.4950
 7628SOL     OW30277   5.131   4.027   3.203  0.4485 -0.2109 -0.3025
 7628SOL    HW230278   5.110   3.940   3.236  2.1319 -1.2189 -1.7495
 7628SOL    HW330279   5.068   4.041   3.132 -0.9070  0.5131  0.9748
 7628SOL    MW430280   5.120   4.017   3.198  0.1328  0.2438  0.1807
 7629SOL     OW30281   1.414   3.801   5.099  0.1353  0.2059  0.1376
 7629SOL    HW230282   1.319   3.786   5.094  0.0484  0.9595 -0.8259
 7629SOL    HW330283   1.423   3.886   5.140  0.4571 -0.4134  1.3852
 7629SOL    MW430284   1.402   3.810   5.103  0.0545 -0.5118  0.5226
 7630SOL     OW30285   4.083   1.336   2.666 -0.1446  0.2390  0.0891
 7630SOL    HW230286   4.030   1.261   2.693  0.4915 -0.7671 -1.3438
 7630SOL    HW330287   4.024   1.411   2.674 -1.4854 -0.7137 -0.5517
 7630SOL    MW430288   4.068   1.336   2.671 -0.4574 -0.7079 -0.4644
 7631SOL     OW30289   6.359   0.923   3.557 -0.2421  0.9804 -0.0915
 7631SOL    HW230290   6.424   0.866   3.516  1.0515  1.5361  1.1146
 7631SOL    HW330291   6.351   0.889   3.647 -3.3076 -0.4691 -0.7803
 7631SOL    MW430292   6.366   0.911   3.564  0.0151  0.0463 -0.8111
 7632SOL     OW30293   6.382   0.997   2.200 -0.8466 -0.5146 -0.6481
 7632SOL    HW230294   6.306   0.943   2.219 -1.0216 -0.6770 -1.7469
 7632SOL    HW330295   6.360   1.042   2.118 -0.0352 -0.0465 -0.6238
 7632SOL    MW430296   6.369   0.996   2.192 -0.3691 -0.3528  0.1566
 7633SOL     OW30297   0.758   5.090   0.351 -0.4970  0.0180 -0.2573
 7633SOL    HW230298   0.790   5.098   0.261 -0.3505 -0.3496 -0.2381
 7633SOL    HW330299   0.697   5.017   0.348 -1.5386  0.8746 -0.3445
 7633SOL    MW430300   0.754   5.082   0.338 -0.2299  0.2555  0.5594
 7634SOL     OW30301   1.679   5.232   4.906 -0.0668  0.2619 -0.2032
 7634SOL    HW230302   1.747   5.205   4.844 -0.5885  1.4396 -1.3428
 7634SOL    HW330303   1.671   5.327   4.892 -1.1416  0.3267  0.7288
 7634SOL    MW430304   1.687   5.241   4.896  0.5002  0.3843  0.0583
 7635SOL     OW30305   0.613   6.143   2.978 -0.6979 -0.3576 -0.3522
 7635SOL    HW230306   0.634   6.237   2.972 -1.9160  0.0141  0.6760
 7635SOL    HW330307   0.524   6.137   2.944 -0.7078 -1.1157 -0.1928
 7635SOL    MW430308   0.604   6.155   2.973 -0.1114 -0.1190 -0.0774
 7636SOL     OW30309   6.293   2.165   5.743  0.0496 -0.2058  0.4137
 7636SOL    HW230310   6.272   2.127   5.658  0.3872  0.8095 -0.1372
 7636SOL    HW330311   6.378   2.207   5.730 -0.8524  1.7762  0.6408
 7636SOL    MW430312   6.301   2.166   5.730 -0.0173  0.2934 -0.2790
 7637SOL     OW30313   3.292   1.885   2.035 -0.1564 -0.4175  0.0742
 7637SOL    HW230314   3.383   1.911   2.048  0.9130 -3.4198 -0.5890
 7637SOL    HW330315   3.270   1.918   1.948  0.3159  0.2531  0.2018
 7637SOL    MW430316   3.301   1.892   2.025 -0.3883  0.5523 -0.4107
 7638SOL     OW30317   6.396   0.987   4.439 -0.4084  0.0938  0.0319
 7638SOL    HW230318   6.445   1.056   4.395 -0.5350 -0.5460 -1.1665
 7638SOL    HW330319   6.458   0.948   4.499 -0.0277  0.5587 -0.0557
 7638SOL    MW430320   6.410   0.991   4.441 -0.0458 -0.1061  0.1573
 7639SOL     OW30321   5.024   0.237   2.087  0.3369 -0.1582  0.4189
 7639SOL    HW230322   5.004   0.238   1.993 -0.1052 -1.4298  0.4889
 7639SOL    HW330323   5.080   0.161   2.099  0.3621 -0.0279  1.2000
 7639SOL    MW430324   5.029   0.227   2.076  0.7614  0.3527  0.0875
 7640SOL     OW30325   2.483   4.538   0.580 -0.6086 -0.1615 -0.2753
 7640SOL    HW230326   2.487   4.630   0.607  0.4867  0.6536 -2.8707
 7640SOL    HW330327   2.437   4.494   0.652  0.5508  2.0195  1.9690
 7640SOL    MW430328   2.478   4.544   0.593  0.3308 -0.3605  0.0847
 7641SOL     OW30329   5.840   1.989   2.188  0.0327 -0.7966 -0.3436
 7641SOL    HW230330   5.760   2.035   2.162 -1.2024 -2.5618  0.1400
 7641SOL    HW330331   5.862   2.026   2.273 -0.6053 -0.6536 -0.2323
 7641SOL    MW430332   5.832   2.000   2.196  0.3685 -0.1566 -0.1681
 7642SOL     OW30333   3.972   5.355   1.668  0.4594  0.0590  0.1242
 7642SOL    HW230334   4.045   5.409   1.637  0.7872 -1.1538 -1.3599
 7642SOL    HW330335   3.901   5.418   1.685  1.7709  1.2376  1.4732
 7642SOL    MW430336   3.972   5.371   1.666 -0.0299  0.2249  0.1885
 7643SOL     OW30337   5.225   4.655   3.391 -0.4854  0.2238 -0.3623
 7643SOL    HW230338   5.302   4.667   3.447 -0.5618  0.1780 -0.2473
 7643SOL    HW330339   5.198   4.745   3.369 -0.1754  0.2367 -0.7151
 7643SOL    MW430340   5.232   4.669   3.395 -0.1831  0.6231  0.4211
 7644SOL     OW30341   0.064   4.497   5.557 -0.4919  0.2926  0.4421
 7644SOL    HW230342   0.068   4.561   5.486 -0.0726 -1.3019 -1.0410
 7644SOL    HW330343   0.021   4.421   5.518 -0.4717 -0.5550  1.9789
 7644SOL    MW430344   0.059   4.496   5.543  0.6241  0.4882 -0.0974
 7645SOL     OW30345   2.665   6.158   0.883 -1.0047  0.1521 -0.2676
 7645SOL    HW230346   2.662   6.105   0.963 -0.7323 -0.2126 -0.4966
 7645SOL    HW330347   2.756   6.186   0.876 -1.0060  0.1025 -0.4998
 7645SOL    MW430348   2.677   6.155   0.893 -0.5423  0.1682  0.0852
 7646SOL     OW30349   3.925   4.003   0.393  0.2407 -0.2021  0.6102
 7646SOL    HW230350   3.981   4.027   0.319 -0.2068  0.7299  0.5660
 7646SOL    HW330351   3.844   4.050   0.378  0.2295  0.1818  1.8210
 7646SOL    MW430352   3.922   4.012   0.381  0.2335  0.1197 -0.3668
 7647SOL     OW30353   5.121   4.968   1.739  0.0494  0.5177 -0.2446
 7647SOL    HW230354   5.168   5.029   1.683 -0.3959  0.8661 -0.2439
 7647SOL    HW330355   5.186   4.901   1.761  0.5896  1.0735 -0.1167
 7647SOL    MW430356   5.136   4.968   1.735 -0.3326 -0.4863 -1.0330
 7648SOL     OW30357   2.685   1.854   0.368  0.1962 -0.3578  0.1676
 7648SOL    HW230358   2.727   1.779   0.327  0.2142 -0.4585  0.3681
 7648SOL    HW330359   2.604   1.818   0.405  0.6395 -0.4681  1.0451
 7648SOL    MW430360   2.680   1.839   0.368 -0.2874 -0.2546  0.7807
 7649SOL     OW30361   1.341   4.107   0.528  0.3436 -0.3295  0.5704
 7649SOL    HW230362   1.251   4.117   0.560  0.1375  1.4110 -0.4583
 7649SOL    HW330363   1.340   4.024   0.480 -0.0332 -1.5936  2.6405
 7649SOL    MW430364   1.329   4.097   0.526 -0.3102  0.0505 -0.6734
 7650SOL     OW30365   5.196   0.749   2.097 -0.4309  0.1800  0.3116
 7650SOL    HW230366   5.181   0.830   2.049  0.7967 -0.3971 -1.1755
 7650SOL    HW330367   5.112   0.704   2.096 -0.6283  0.5447 -0.6621
 7650SOL    MW430368   5.183   0.753   2.090 -0.2394  0.3474  0.0721
 7651SOL     OW30369   5.029   5.150   5.664 -0.3535  0.6555  0.0016
 7651SOL    HW230370   5.108   5.138   5.612  0.0501  1.1605  0.4875
 7651SOL    HW330371   4.965   5.091   5.624  0.9753 -1.7229  1.1428
 7651SOL    MW430372   5.031   5.140   5.652 -0.0406  0.3978 -0.1532
 7652SOL     OW30373   1.632   5.404   3.715  0.0959 -0.3327 -0.3087
 7652SOL    HW230374   1.549   5.417   3.668 -0.3807 -0.1726  0.5486
 7652SOL    HW330375   1.696   5.455   3.665 -0.0454 -1.4270 -1.6877
 7652SOL    MW430376   1.629   5.413   3.702  0.1194 -0.1876  0.3478
 7653SOL     OW30377   2.616   2.962   2.283 -0.5405 -0.2448 -0.9136
 7653SOL    HW230378   2.624   2.867   2.276  1.1755 -0.1415 -0.7583
 7653SOL    HW330379   2.533   2.982   2.240 -1.2947 -1.8735 -0.2870
 7653SOL    MW430380   2.606   2.952   2.276 -0.1604 -0.5356  0.1975
 7654SOL     OW30381   5.727   3.628   5.126 -0.5315  0.3905  0.0879
 7654SOL    HW230382   5.660   3.610   5.191  0.6265 -2.4611  0.6308
 7654SOL    HW330383   5.711   3.565   5.056 -0.2090  1.6980 -1.2126
 7654SOL    MW430384   5.716   3.617   5.125  1.1511 -0.6201  0.1878
 7655SOL     OW30385   2.663   0.761   5.269  0.5252 -0.6236 -0.1695
 7655SOL    HW230386   2.717   0.683   5.280  0.1348 -0.9659 -0.6089
 7655SOL    HW330387   2.725   0.834   5.267  0.8568 -0.8737  0.7143
 7655SOL    MW430388   2.678   0.761   5.270 -0.0694 -0.0456  0.7077
 7656SOL     OW30389   2.453   3.023   0.736 -0.1938  0.0994 -0.5305
 7656SOL    HW230390   2.378   3.079   0.759 -1.0125 -0.0755 -2.5442
 7656SOL    HW330391   2.496   3.068   0.663  2.3171  0.6788  1.1919
 7656SOL    MW430392   2.448   3.036   0.729  0.1899 -0.2475 -0.1395
 7657SOL     OW30393   5.321   1.207   2.866  0.0753 -0.0950  0.6664
 7657SOL    HW230394   5.235   1.185   2.829 -0.8355  3.7738  0.1011
 7657SOL    HW330395   5.309   1.200   2.961  0.4101 -3.2863  0.6069
 7657SOL    MW430396   5.308   1.203   2.874  0.7127  0.5608 -0.4087
 7658SOL     OW30397   2.114   1.711   1.369  0.0865  0.0173  0.6190
 7658SOL    HW230398   2.019   1.720   1.372  0.0248  1.2220 -2.0610
 7658SOL    HW330399   2.129   1.631   1.318  0.3417  2.0395 -2.7885
 7658SOL    MW430400   2.104   1.701   1.363 -0.2971 -0.2069 -0.0705
 7659SOL     OW30401   5.670   6.104   4.532 -0.2086 -0.4465 -0.0822
 7659SOL    HW230402   5.619   6.104   4.450 -0.0764 -1.2786 -0.1778
 7659SOL    HW330403   5.637   6.028   4.580 -1.4196  0.9418  1.3809
 7659SOL    MW430404   5.659   6.094   4.527 -0.1184 -0.8048 -0.1614
 7660SOL     OW30405   4.647   5.694   0.849 -0.2025  0.0307 -0.1070
 7660SOL    HW230406   4.730   5.650   0.867 -0.8505 -2.1002 -1.8796
 7660SOL    HW330407   4.581   5.631   0.878 -1.3384  2.3832  2.9288
 7660SOL    MW430408   4.649   5.680   0.856  0.5517  0.6871 -0.5222
 7661SOL     OW30409   5.756   4.997   3.409 -0.0085 -0.1329  0.2166
 7661SOL    HW230410   5.729   5.089   3.414 -1.2836 -0.4048 -1.1300
 7661SOL    HW330411   5.689   4.950   3.459  0.5373 -0.3583  0.7442
 7661SOL    MW430412   5.744   5.003   3.417 -0.0563 -0.2360 -0.0786
 7662SOL     OW30413   2.332   2.930   6.362  0.0742 -0.6312  0.5383
 7662SOL    HW230414   2.415   2.944   6.315 -1.3605 -0.4760 -2.1256
 7662SOL    HW330415   2.289   3.015   6.360 -0.7012 -1.0135  0.7812
 7662SOL    MW430416   2.337   2.943   6.355 -0.1786 -0.0718  0.2992
 7663SOL     OW30417   1.041   0.112   6.217  0.2303  0.5949  0.0883
 7663SOL    HW230418   1.126   0.121   6.259  0.1243  0.7392  0.2710
 7663SOL    HW330419   0.988   0.064   6.281  0.0382  0.9066  0.1638
 7663SOL    MW430420   1.045   0.107   6.231  0.1946  0.2161 -0.1844
 7664SOL     OW30421   5.407   5.943   3.200 -0.0052 -0.2448 -0.6896
 7664SOL    HW230422   5.361   6.015   3.156  2.1078  1.8636  0.3401
 7664SOL    HW330423   5.485   5.929   3.147 -0.6818 -2.3131 -1.2287
 7664SOL    MW430424   5.411   5.951   3.187  0.6120 -0.0448 -0.4937
 7665SOL     OW30425   1.171   2.946   1.154 -0.7977  0.1214  0.1369
 7665SOL    HW230426   1.178   2.900   1.238  3.2253 -1.2698 -0.7000
 7665SOL    HW330427   1.177   2.877   1.088  3.1223  1.3860 -1.1616
 7665SOL    MW430428   1.173   2.931   1.157  0.1129  0.0230  0.0310
 7666SOL     OW30429   5.164   3.334   5.157 -0.4418 -0.0867  0.0853
 7666SOL    HW230430   5.144   3.366   5.245  0.1099  0.8753 -0.1132
 7666SOL    HW330431   5.259   3.326   5.155 -0.3995  0.4217 -0.5791
 7666SOL    MW430432   5.174   3.338   5.168 -0.1968  0.1613  0.1275
 7667SOL     OW30433   2.448   0.075   5.770 -0.2768 -0.2535 -0.0799
 7667SOL    HW230434   2.372   0.030   5.733  0.3275  0.6542 -2.6298
 7667SOL    HW330435   2.441   0.165   5.737  1.0530  0.2592  0.9458
 7667SOL    MW430436   2.437   0.081   5.760 -0.1570  0.0232 -0.5697
 7668SOL     OW30437   3.642   1.327   2.472  0.1032 -0.2134  0.3955
 7668SOL    HW230438   3.673   1.361   2.556  1.7357 -0.7140  0.0205
 7668SOL    HW330439   3.571   1.267   2.496  1.5547 -1.5425  1.5794
 7668SOL    MW430440   3.637   1.323   2.487 -0.7131 -0.6334 -0.4255
 7669SOL     OW30441   3.801   3.865   5.319  0.2872  0.2208 -0.3022
 7669SOL    HW230442   3.890   3.897   5.306  0.4151 -0.2601 -0.6302
 7669SOL    HW330443   3.770   3.843   5.231 -0.2766  0.6995 -0.2272
 7669SOL    MW430444   3.808   3.866   5.306  0.2277  0.4809  0.0380
 7670SOL     OW30445   3.767   3.906   1.146 -0.1598 -0.0165  0.4745
 7670SOL    HW230446   3.807   3.929   1.062  0.3245 -0.0986  0.6836
 7670SOL    HW330447   3.827   3.843   1.185 -1.0282 -0.9955  0.3020
 7670SOL    MW430448   3.780   3.900   1.140  0.3978  1.0062 -0.1764
 7671SOL     OW30449   6.116   3.257   4.826  0.0706  0.1278 -0.5727
 7671SOL    HW230450   6.070   3.319   4.882  0.3209  0.9828 -1.2795
 7671SOL    HW330451   6.109   3.295   4.738 -0.3866 -1.2151 -1.1458
 7671SOL    MW430452   6.109   3.270   4.822  0.2221  0.5171 -0.0710
 7672SOL     OW30453   2.950   3.604   0.132  0.5327 -0.0227 -0.2443
 7672SOL    HW230454   3.040   3.571   0.137  1.1749  1.8006  1.4900
 7672SOL    HW330455   2.912   3.583   0.217 -1.1152 -1.7682 -1.3454
 7672SOL    MW430456   2.957   3.597   0.144  0.1449  0.0561 -0.2388
 7673SOL     OW30457   0.957   4.344   0.214  0.0927  1.0776 -0.0761
 7673SOL    HW230458   0.864   4.367   0.214  0.4163  2.5974  1.1585
 7673SOL    HW330459   0.967   4.281   0.143 -2.2729 -0.7537  1.1032
 7673SOL    MW430460   0.946   4.339   0.205  0.0316 -0.3328  0.5181
 7674SOL     OW30461   5.433   0.916   0.935 -0.1915 -0.3544  0.1691
 7674SOL    HW230462   5.494   0.984   0.906 -0.3277  0.2090  1.1677
 7674SOL    HW330463   5.482   0.866   1.000  0.1887 -1.7518 -1.1216
 7674SOL    MW430464   5.447   0.919   0.939 -0.4261  0.2062  0.0424
 7675SOL     OW30465   5.432   6.421   1.419  0.3883  0.6715  0.2526
 7675SOL    HW230466   5.433   6.333   1.380 -1.1215  1.0856 -0.8092
 7675SOL    HW330467   5.424   6.405   1.513 -3.2604 -0.4239 -0.0712
 7675SOL    MW430468   5.431   6.407   1.426  0.3798 -0.6233  0.1057
 7676SOL     OW30469   1.464   5.644   6.024 -0.6016  0.4008 -0.5393
 7676SOL    HW230470   1.480   5.610   5.936 -0.6314  0.6022 -0.6233
 7676SOL    HW330471   1.407   5.579   6.065  0.9745 -0.7125  0.0185
 7676SOL    MW430472   1.459   5.631   6.018 -0.3934  0.1376  0.7060
 7677SOL     OW30473   6.421   4.366   4.324  0.2442  0.2091  0.6751
 7677SOL    HW230474   6.447   4.365   4.232  2.1455  1.5090  1.1348
 7677SOL    HW330475   6.337   4.412   4.324  0.4694  0.6598 -0.3738
 7677SOL    MW430476   6.414   4.372   4.312  0.3858 -0.2139  0.0894
 7678SOL     OW30477   3.768   3.216   3.285  0.7903 -0.0486 -0.1172
 7678SOL    HW230478   3.838   3.151   3.288  0.4322 -0.4073  1.3497
 7678SOL    HW330479   3.813   3.301   3.291  1.0789 -0.3091  3.9098
 7678SOL    MW430480   3.783   3.219   3.286 -0.3886 -0.2912 -0.2092
 7679SOL     OW30481   4.345   4.418   1.123  0.4382  0.4430  0.3227
 7679SOL    HW230482   4.401   4.350   1.160 -0.5860 -0.3519  0.4872
 7679SOL    HW330483   4.256   4.383   1.133  0.0137  0.8648 -1.5031
 7679SOL    MW430484   4.340   4.404   1.129  0.3990  0.3019 -0.5136
 7680SOL     OW30485   0.877   1.587   2.021  0.0694 -0.5040  0.3339
 7680SOL    HW230486   0.922   1.577   2.105  2.3156 -0.4359 -0.7985
 7680SOL    HW330487   0.847   1.678   2.021  0.5423 -0.3458  0.8320
 7680SOL    MW430488   0.879   1.598   2.032  0.2342  0.3411  0.4091
 7681SOL     OW30489   2.253   6.011   5.474  0.3053  0.9225  0.1027
 7681SOL    HW230490   2.298   5.949   5.531 -0.5089  0.7823  0.6008
 7681SOL    HW330491   2.168   6.025   5.515 -0.9396 -0.3762 -1.8219
 7681SOL    MW430492   2.248   6.005   5.487  0.8022  0.0580  0.1549
 7682SOL     OW30493   3.659   0.971   4.051  0.0128 -0.4464  0.0897
 7682SOL    HW230494   3.662   0.875   4.044 -0.9952 -0.3746 -2.1292
 7682SOL    HW330495   3.680   1.002   3.963 -2.4969  1.2734  0.0021
 7682SOL    MW430496   3.662   0.962   4.038 -0.0897 -0.2081 -0.0719
 7683SOL     OW30497   2.335   5.848   4.585 -0.0537 -0.0154  0.2108
 7683SOL    HW230498   2.240   5.858   4.592 -0.1293 -0.5235 -0.0541
 7683SOL    HW330499   2.367   5.862   4.674 -0.5699 -1.9087  0.7332
 7683SOL    MW430500   2.326   5.852   4.598  0.4097  0.0490 -0.2057
 7684SOL     OW30501   1.387   1.620   3.932  0.2720 -0.6731  0.0151
 7684SOL    HW230502   1.424   1.541   3.971  0.0610 -0.2146  1.1954
 7684SOL    HW330503   1.434   1.630   3.849  0.3260 -1.9966 -0.1305
 7684SOL    MW430504   1.398   1.611   3.926  0.4570  0.3446 -0.0397
 7685SOL     OW30505   4.468   6.274   5.877 -0.5149  0.1295 -0.1488
 7685SOL    HW230506   4.424   6.346   5.923 -0.5118  0.2166 -0.2832
 7685SOL    HW330507   4.414   6.259   5.800  0.3170  1.0144 -0.9351
 7685SOL    MW430508   4.455   6.282   5.873 -0.5505  0.3382 -0.3326
 7686SOL     OW30509   1.965   4.807   1.009 -0.0282 -0.5323 -0.4304
 7686SOL    HW230510   1.975   4.715   1.031  0.8163 -1.4360 -3.9614
 7686SOL    HW330511   1.977   4.811   0.914  0.8053  3.3522 -0.3399
 7686SOL    MW430512   1.968   4.796   0.999 -0.0196 -0.2778  0.4230
 7687SOL     OW30513   1.146   0.175   1.797 -0.4807 -0.1266  0.8078
 7687SOL    HW230514   1.075   0.125   1.836  1.2443 -1.4733  2.4394
 7687SOL    HW330515   1.201   0.108   1.755 -0.3275  0.9074 -0.6939
 7687SOL    MW430516   1.144   0.159   1.797 -0.1727 -0.3356  1.0340
 7688SOL     OW30517   1.020   6.079   2.724 -0.2994 -0.2584  0.1770
 7688SOL    HW230518   0.979   6.037   2.799 -0.3250 -1.1922 -0.3495
 7688SOL    HW330519   1.095   6.126   2.761 -1.2447  0.6304  0.9950
 7688SOL    MW430520   1.025   6.080   2.739 -0.3910  0.5550 -0.3366
 7689SOL     OW30521   1.185   1.133   3.364  0.5329  0.0835  0.4436
 7689SOL    HW230522   1.216   1.099   3.280 -0.4522 -0.4294  0.2781
 7689SOL    HW330523   1.158   1.223   3.345 -1.0560 -0.4866 -0.1411
 7689SOL    MW430524   1.186   1.140   3.350 -0.6817 -0.2269 -0.1969
 7690SOL     OW30525   4.768   5.311   6.028 -0.0494 -0.2123 -0.0196
 7690SOL    HW230526   4.828   5.330   5.955  0.1006  0.9484  0.3866
 7690SOL    HW330527   4.806   5.234   6.070  0.7212  0.0345 -0.2436
 7690SOL    MW430528   4.781   5.303   6.024 -0.3256  0.1271 -0.2334
 7691SOL     OW30529   3.820   5.428   2.654  0.2337 -0.8775  0.2482
 7691SOL    HW230530   3.762   5.491   2.612  0.7981 -0.4175  0.1526
 7691SOL    HW330531   3.870   5.390   2.581 -0.0954 -1.4316  0.3055
 7691SOL    MW430532   3.819   5.431   2.638  0.2331 -0.0406 -0.1397
 7692SOL     OW30533   4.186   2.681   3.510 -0.7112  0.4877 -0.3661
 7692SOL    HW230534   4.211   2.710   3.597 -0.9256 -0.1986 -0.0652
 7692SOL    HW330535   4.269   2.671   3.463 -0.4784 -0.5666  0.2306
 7692SOL    MW430536   4.200   2.683   3.515 -0.5399  0.0974  0.1031
 7693SOL     OW30537   5.960   3.890   0.082 -0.4856 -0.2307 -0.1945
 7693SOL    HW230538   6.025   3.826   0.053 -0.2975 -0.2472  0.2522
 7693SOL    HW330539   5.970   3.893   0.177 -0.3284  0.6224 -0.2239
 7693SOL    MW430540   5.970   3.882   0.090  0.3735  0.0369  0.1589
 7694SOL     OW30541   0.316   5.544   0.977  0.0909  0.4112 -0.3429
 7694SOL    HW230542   0.396   5.514   1.022 -0.1317 -0.3664 -0.4531
 7694SOL    HW330543   0.348   5.596   0.904  0.4709  1.2409  0.3832
 7694SOL    MW430544   0.331   5.547   0.974  0.1592  0.1156 -0.1482
 7695SOL     OW30545   5.704   1.962   4.422  0.2802  0.5405 -0.1771
 7695SOL    HW230546   5.727   2.034   4.481 -1.0580  0.4709  0.4720
 7695SOL    HW330547   5.748   1.983   4.340  0.5365  1.7017  0.2336
 7695SOL    MW430548   5.713   1.974   4.419  0.1693  0.7288 -0.5764
 7696SOL     OW30549   0.405   4.364   1.328  0.2066  0.2342  0.6368
 7696SOL    HW230550   0.476   4.358   1.391 -0.6359 -1.6984  1.4713
 7696SOL    HW330551   0.325   4.361   1.381 -0.5242  0.7049 -0.3814
 7696SOL    MW430552   0.404   4.363   1.343 -0.2173  0.4105 -0.1631
 7697SOL     OW30553   4.055   3.002   2.346 -0.2390 -0.0621  0.1238
 7697SOL    HW230554   4.014   3.069   2.401  0.7445  1.1362 -0.5369
 7697SOL    HW330555   4.137   2.981   2.392  0.2032  0.3599 -0.4504
 7697SOL    MW430556   4.061   3.008   2.360  0.0317  0.3085 -0.1009
 7698SOL     OW30557   0.223   0.002   0.258  0.6683 -0.2574  0.1881
 7698SOL    HW230558   0.282  -0.066   0.224  0.8437  0.0138 -0.0566
 7698SOL    HW330559   0.234  -0.003   0.353  1.6205  0.2535  0.1189
 7698SOL    MW430560   0.232  -0.007   0.266  0.0230 -0.0661  0.3793
 7699SOL     OW30561   5.115   1.028   3.051 -0.3628  0.0670  0.2433
 7699SOL    HW230562   5.096   0.934   3.054 -2.6342  0.4773  0.2668
 7699SOL    HW330563   5.033   1.070   3.074  0.7000  2.0877  0.5941
 7699SOL    MW430564   5.102   1.021   3.054 -0.2814 -0.3270 -0.0690
 7700SOL     OW30565   5.085   4.884   2.339  0.5808 -0.5006 -0.0251
 7700SOL    HW230566   5.071   4.889   2.434  0.7638 -0.8248  0.0214
 7700SOL    HW330567   5.138   4.805   2.327 -0.4624 -1.1486 -0.5025
 7700SOL    MW430568   5.090   4.874   2.350  0.1938  0.2335 -0.0870
 7701SOL     OW30569   0.907   1.700   6.375 -0.1754  0.4382  0.2368
 7701SOL    HW230570   0.902   1.717   6.469 -0.4314 -0.0862  0.3226
 7701SOL    HW330571   0.887   1.785   6.334 -0.8683  0.4794  0.6521
 7701SOL    MW430572   0.904   1.714   6.382 -0.5967  0.3484  0.2893
 7702SOL     OW30573   4.726   5.072   0.674 -0.0965  1.2376  0.2743
 7702SOL    HW230574   4.695   5.064   0.764  3.6160  2.7206  1.8581
 7702SOL    HW330575   4.739   4.982   0.644 -1.0242  0.7371  1.3177
 7702SOL    MW430576   4.723   5.059   0.682 -0.0873  0.0354  0.0159
 7703SOL     OW30577   2.351   6.221   1.006  0.2702 -0.6240  0.3248
 7703SOL    HW230578   2.406   6.300   1.013  0.7388 -0.9973  1.0193
 7703SOL    HW330579   2.359   6.195   0.914  0.4845 -0.1234  0.1943
 7703SOL    MW430580   2.359   6.228   0.995 -0.0432  0.3879  0.4671
 7704SOL     OW30581   0.585   4.038   5.901  0.0910  0.4210 -0.9478
 7704SOL    HW230582   0.577   3.995   5.815 -0.1898 -2.0615  0.2141
 7704SOL    HW330583   0.540   3.978   5.961  1.1703  1.5622  1.0975
 7704SOL    MW430584   0.578   4.024   5.897  0.4142 -0.7176  0.4699
 7705SOL     OW30585   5.148   5.756   2.505 -0.1428 -0.0245  0.1805
 7705SOL    HW230586   5.078   5.783   2.564  0.0809 -0.7655  0.7976
 7705SOL    HW330587   5.223   5.810   2.532 -0.1120 -0.1780  0.4052
 7705SOL    MW430588   5.149   5.767   2.516 -0.1862 -0.4390 -0.0527
 7706SOL     OW30589   1.433   1.576   6.013 -0.0614  0.1686 -0.1497
 7706SOL    HW230590   1.394   1.603   6.097  1.4908  1.4859  0.1857
 7706SOL    HW330591   1.368   1.517   5.976 -1.4431  0.6570  1.3304
 7706SOL    MW430592   1.419   1.572   6.020 -0.7378 -0.5268  0.2095
 7707SOL     OW30593   5.853   5.673   1.882  0.1771  0.0252 -0.4217
 7707SOL    HW230594   5.816   5.626   1.957 -0.2621  0.4058 -0.3962
 7707SOL    HW330595   5.918   5.613   1.846  0.6549 -0.0120  0.4834
 7707SOL    MW430596   5.856   5.659   1.887 -0.3250  0.0095  0.1385
 7708SOL     OW30597   4.200   1.941   1.875  0.1415  0.0828  0.1647
 7708SOL    HW230598   4.287   1.902   1.883  0.2589  0.5027  1.1791
 7708SOL    HW330599   4.183   1.976   1.963 -0.5706  1.0115 -0.3423
 7708SOL    MW430600   4.209   1.940   1.888  0.0971 -0.1832 -0.0409
 7709SOL     OW30601   0.389   3.068   0.838  0.3936  0.2162  0.1370
 7709SOL    HW230602   0.425   3.148   0.876  2.1535  0.4004 -1.7627
 7709SOL    HW330603   0.357   3.018   0.914  1.8536  1.4496  1.6451
 7709SOL    MW430604   0.390   3.072   0.853  0.1708  0.0875  0.0225
 7710SOL     OW30605   2.930   0.783   4.719  0.2923  0.2222  0.1528
 7710SOL    HW230606   2.842   0.750   4.735  0.4188  0.4316  1.3560
 7710SOL    HW330607   2.977   0.709   4.681  0.0784 -0.4388  1.1475
 7710SOL    MW430608   2.924   0.769   4.716 -0.0123 -0.0167 -0.3165
 7711SOL     OW30609   3.246   2.958   3.575  0.2462  0.3410  0.0475
 7711SOL    HW230610   3.310   2.915   3.632  1.3423  1.4158 -0.3117
 7711SOL    HW330611   3.162   2.919   3.599  1.0655 -1.4103  0.2573
 7711SOL    MW430612   3.244   2.947   3.586  0.0078  0.3769  0.5185
 7712SOL     OW30613   2.457   2.422   3.793  0.2471 -0.4727  0.0603
 7712SOL    HW230614   2.537   2.378   3.820  1.7224  0.8296 -1.9614
 7712SOL    HW330615   2.486   2.506   3.758 -1.9456 -0.1933 -1.2674
 7712SOL    MW430616   2.471   2.427   3.792  0.3289  0.1235  0.1788
 7713SOL     OW30617   5.639   3.146   4.554 -0.3755 -0.5255  0.3222
 7713SOL    HW230618   5.632   3.055   4.527  0.2564 -0.4387 -0.1542
 7713SOL    HW330619   5.730   3.157   4.582 -0.9264 -0.5252  2.2442
 7713SOL    MW430620   5.650   3.136   4.554  0.5000 -0.4419 -0.1555
 7714SOL     OW30621   5.238   3.662   4.068 -0.0062 -0.5046  0.2312
 7714SOL    HW230622   5.222   3.594   4.003 -3.9306  0.0176  0.3936
 7714SOL    HW330623   5.284   3.617   4.139  1.2672 -1.8990 -1.4159
 7714SOL    MW430624   5.242   3.647   4.069 -0.2185 -0.0125 -0.0314
 7715SOL     OW30625   4.227   3.710   0.391 -0.2942  0.2536  0.5447
 7715SOL    HW230626   4.225   3.799   0.426 -0.8437  0.6999 -0.5685
 7715SOL    HW330627   4.150   3.667   0.429 -1.2795  0.9460 -0.5905
 7715SOL    MW430628   4.217   3.716   0.401 -0.0127  0.3963  0.1802
 7716SOL     OW30629   4.807   5.501   4.107 -0.1387  0.0853  0.7684
 7716SOL    HW230630   4.730   5.551   4.080  1.0338  0.7749 -1.5525
 7716SOL    HW330631   4.774   5.439   4.172 -2.5448  0.6709  0.1975
 7716SOL    MW430632   4.792   5.500   4.112 -0.4512  0.7711  0.0558
 7717SOL     OW30633   2.367   0.750   2.158  0.2689  0.1375  0.0024
 7717SOL    HW230634   2.286   0.786   2.193  1.0047  0.1920  1.7858
 7717SOL    HW330635   2.429   0.822   2.163 -0.1901  1.0622 -4.1615
 7717SOL    MW430636   2.365   0.764   2.164 -0.0087  0.2569  0.5693
 7718SOL     OW30637   3.915   6.188   5.152  0.3422 -0.1303 -0.1685
 7718SOL    HW230638   4.000   6.216   5.117  0.2192  0.3157 -0.1211
 7718SOL    HW330639   3.888   6.259   5.210  0.4001 -0.7296  0.5999
 7718SOL    MW430640   3.922   6.201   5.155 -0.0832  0.1673  0.6960
 7719SOL     OW30641   4.674   1.947   0.829 -0.5502  0.1240  0.3510
 7719SOL    HW230642   4.696   1.988   0.913  0.3750  2.2407 -0.8558
 7719SOL    HW330643   4.689   1.853   0.844 -0.1387  0.4764  2.4491
 7719SOL    MW430644   4.679   1.940   0.842 -0.7081 -0.2634  0.1474
 7720SOL     OW30645   2.766   4.536   3.156 -0.5736  0.4289 -0.1040
 7720SOL    HW230646   2.710   4.606   3.191  0.4046  2.6720 -2.7104
 7720SOL    HW330647   2.855   4.568   3.168 -0.1032 -0.1867 -1.6671
 7720SOL    MW430648   2.770   4.549   3.162 -0.4640  0.0060  0.1031
 7721SOL     OW30649   6.005   0.188   3.927 -0.3785  0.4942 -0.3805
 7721SOL    HW230650   6.028   0.167   4.018 -1.9319  0.8795  0.1420
 7721SOL    HW330651   5.962   0.273   3.932 -2.8432 -0.6013 -1.0543
 7721SOL    MW430652   6.002   0.196   3.940  0.1338 -0.5864 -0.2952
 7722SOL     OW30653   2.461   1.810   0.549  0.5938 -0.2844  0.1546
 7722SOL    HW230654   2.451   1.716   0.536 -4.0760 -0.0119  0.0264
 7722SOL    HW330655   2.483   1.819   0.642  0.1179 -1.5005  0.4007
 7722SOL    MW430656   2.462   1.799   0.560 -0.0539 -0.2700  0.7514
 7723SOL     OW30657   4.488   0.236   1.638 -0.7333  0.1960 -0.4134
 7723SOL    HW230658   4.432   0.195   1.705 -0.6737  1.0852  0.2040
 7723SOL    HW330659   4.438   0.312   1.609  1.0461  2.4194  1.8581
 7723SOL    MW430660   4.474   0.241   1.643  0.2260 -0.0600  0.0066
 7724SOL     OW30661   6.052   0.491   6.042 -0.2263  0.1616  0.3797
 7724SOL    HW230662   5.999   0.460   6.116  2.1221 -1.1533  1.6120
 7724SOL    HW330663   6.142   0.467   6.065  0.6396 -0.0690 -2.8257
 7724SOL    MW430664   6.057   0.484   6.055 -0.5872 -0.0895  0.3960
 7725SOL     OW30665   3.724   5.660   3.398  0.4351  0.3909  0.1751
 7725SOL    HW230666   3.766   5.655   3.312  0.0290  0.9334 -0.0638
 7725SOL    HW330667   3.698   5.752   3.406  0.4536  0.3364  0.8719
 7725SOL    MW430668   3.726   5.671   3.387  0.5219  0.1178 -0.3669
 7726SOL     OW30669   1.283   1.862   4.300 -0.0986 -0.4786 -0.0622
 7726SOL    HW230670   1.267   1.816   4.383  0.2157  0.1148  0.3385
 7726SOL    HW330671   1.227   1.818   4.237  0.4956 -1.6819  0.2175
 7726SOL    MW430672   1.274   1.850   4.303  0.2600 -0.1554 -0.4282
 7727SOL     OW30673   2.742   0.034   5.658 -1.2137 -0.5692  0.3607
 7727SOL    HW230674   2.702   0.006   5.576 -0.5545 -1.9699  0.4860
 7727SOL    HW330675   2.669   0.060   5.714 -1.6982 -0.0891 -0.4821
 7727SOL    MW430676   2.727   0.034   5.655  0.7799  0.8233  0.4408
 7728SOL     OW30677   0.283   0.085   2.036  0.9744 -0.2019 -0.1114
 7728SOL    HW230678   0.256   0.057   1.948 -3.2463  2.1735  0.1774
 7728SOL    HW330679   0.312   0.176   2.024 -0.8261  0.5639  1.0485
 7728SOL    MW430680   0.283   0.093   2.023 -0.4512 -0.1135  0.4249
 7729SOL     OW30681   1.533   1.745   2.212  0.3891  0.8441  0.2449
 7729SOL    HW230682   1.443   1.773   2.229 -0.5621 -1.1214 -1.1690
 7729SOL    HW330683   1.550   1.679   2.280 -0.3644 -0.8934 -1.1619
 7729SOL    MW430684   1.523   1.740   2.224  0.1486 -0.3484 -0.1547
 7730SOL     OW30685   5.461   4.428   4.439  0.1933  0.1484  0.0296
 7730SOL    HW230686   5.478   4.477   4.359 -1.8550  2.2619  0.7845
 7730SOL    HW330687   5.377   4.385   4.423  0.3464 -0.3843  0.6258
 7730SOL    MW430688   5.452   4.429   4.426  0.3592  0.0503  0.2118
 7731SOL     OW30689   4.062   4.031   5.710 -0.2766  0.2682  0.5235
 7731SOL    HW230690   4.029   3.957   5.659  2.0081 -1.0919  0.9030
 7731SOL    HW330691   4.006   4.032   5.788 -0.5432 -0.8882  0.3744
 7731SOL    MW430692   4.050   4.021   5.714  0.9413 -0.1030 -0.1649
 7732SOL     OW30693   4.283   4.515   6.062 -0.0191  1.3495 -0.4949
 7732SOL    HW230694   4.368   4.532   6.103  0.8419 -1.3493 -0.9733
 7732SOL    HW330695   4.300   4.527   5.968 -0.8736  3.2527 -0.4531
 7732SOL    MW430696   4.297   4.519   6.055 -0.1030  0.6581  0.3430
 7733SOL     OW30697   5.463   6.040   0.614 -0.0734 -0.1148  0.0684
 7733SOL    HW230698   5.519   5.970   0.647  0.0032 -0.5251 -0.8841
 7733SOL    HW330699   5.383   6.034   0.666  0.6549  0.3150  1.2768
 7733SOL    MW430700   5.460   6.030   0.625  0.7402 -0.4995 -0.3026
 7734SOL     OW30701   3.160   6.222   5.888  0.3892 -0.0590 -0.5098
 7734SOL    HW230702   3.241   6.231   5.838  0.6420  0.6574  0.0075
 7734SOL    HW330703   3.091   6.249   5.828  0.4457 -1.2312 -1.1507
 7734SOL    MW430704   3.161   6.226   5.874  0.4572  0.0412  0.3198
 7735SOL     OW30705   4.215   1.576   0.618 -0.1283  0.5290  0.1826
 7735SOL    HW230706   4.181   1.502   0.668 -1.0888  0.0765 -1.0754
 7735SOL    HW330707   4.137   1.627   0.595  0.5282  1.9997  1.1001
 7735SOL    MW430708   4.200   1.573   0.621  0.0574 -0.2918 -0.1842
 7736SOL     OW30709   2.895   5.988   5.748  0.2685  0.2324  0.0552
 7736SOL    HW230710   2.879   5.976   5.842  1.6261 -2.2959  0.0432
 7736SOL    HW330711   2.837   5.925   5.706  1.7112 -0.7110 -0.6023
 7736SOL    MW430712   2.885   5.979   5.755  0.3765  0.8967  0.2613
 7737SOL     OW30713   0.570   2.305   5.282 -0.3943  0.3487 -0.2039
 7737SOL    HW230714   0.616   2.309   5.366  1.1244 -1.6323 -0.8812
 7737SOL    HW330715   0.560   2.397   5.256  1.8122  0.9046  0.7287
 7737SOL    MW430716   0.574   2.318   5.290 -0.0734 -0.3908  0.5001
 7738SOL     OW30717   6.402   2.919   5.964 -0.1825  0.5929  0.0696
 7738SOL    HW230718   6.423   2.992   6.022 -0.5378  1.2971 -0.6722
 7738SOL    HW330719   6.308   2.927   5.948 -0.2417 -0.0757  0.0408
 7738SOL    MW430720   6.392   2.929   5.969  0.0907  0.8406  0.4537
 7739SOL     OW30721   2.709   5.435   0.676 -0.0429 -0.6253 -0.5030
 7739SOL    HW230722   2.647   5.440   0.604 -1.6440 -1.3407  0.7579
 7739SOL    HW330723   2.666   5.379   0.741  1.0292  0.5442  1.2965
 7739SOL    MW430724   2.695   5.428   0.675  0.1859  0.0333  0.8508
 7740SOL     OW30725   3.194   3.275   0.002 -0.3729 -0.5091  0.2873
 7740SOL    HW230726   3.165   3.195  -0.043 -1.4734 -1.3867  2.3963
 7740SOL    HW330727   3.283   3.255   0.031  0.0832 -0.2009 -0.8692
 7740SOL    MW430728   3.202   3.261  -0.000 -0.3045 -0.2906  0.4391
 7741SOL     OW30729   1.898   4.289   2.322  0.3912  0.2307  0.0495
 7741SOL    HW230730   1.947   4.324   2.397  1.5893 -0.3601 -0.4266
 7741SOL    HW330731   1.814   4.261   2.359 -0.6782  3.5452  0.4745
 7741SOL    MW430732   1.894   4.290   2.337 -0.0880 -0.4502  0.7851
 7742SOL     OW30733   0.617   3.863   0.227  0.0412 -0.0664 -0.1306
 7742SOL    HW230734   0.600   3.781   0.181  0.0704  0.5292 -1.2334
 7742SOL    HW330735   0.572   3.930   0.176 -1.2327  0.4537  1.5633
 7742SOL    MW430736   0.609   3.861   0.214 -0.2191  0.0399  0.6612
 7743SOL     OW30737   5.555   2.209   2.263  0.1573  0.1738 -0.3455
 7743SOL    HW230738   5.576   2.245   2.349  0.1349 -0.1364 -0.2109
 7743SOL    HW330739   5.543   2.286   2.208  0.3702  0.3727 -0.1198
 7743SOL    MW430740   5.556   2.224   2.267  0.1386  1.0693 -0.3045
 7744SOL     OW30741   1.747   3.460   0.039  1.5393 -0.6671  0.3949
 7744SOL    HW230742   1.798   3.482   0.117  1.1377 -0.7382  0.6784
 7744SOL    HW330743   1.663   3.430   0.072  0.6549  1.1246 -0.1042
 7744SOL    MW430744   1.743   3.459   0.053  0.5280 -0.3142  0.3156
 7745SOL     OW30745   2.968   1.510   5.685  0.1542 -0.1640 -0.2615
 7745SOL    HW230746   2.891   1.566   5.679  0.0866 -0.1878  0.3172
 7745SOL    HW330747   2.968   1.460   5.603 -1.0620 -0.9324  0.1771
 7745SOL    MW430748   2.958   1.511   5.674 -0.0843 -0.3709  0.4488
 7746SOL     OW30749   1.911   0.962   3.964  0.2541  0.2076  0.3127
 7746SOL    HW230750   1.955   1.043   3.988 -0.7740  1.6752 -2.2973
 7746SOL    HW330751   1.818   0.982   3.972 -0.0228 -1.1655  0.8457
 7746SOL    MW430752   1.904   0.975   3.968 -0.1840  0.3114 -0.1605
 7747SOL     OW30753   3.279   2.934   3.058 -0.6891 -0.0327  0.0713
 7747SOL    HW230754   3.214   2.933   2.987  0.4332 -0.9761 -0.9970
 7747SOL    HW330755   3.265   2.851   3.104  0.9864 -1.1845 -1.3853
 7747SOL    MW430756   3.268   2.923   3.055 -0.1935  0.2083 -0.3725
 7748SOL     OW30757   1.319   3.166   3.484  0.1206  0.3568 -0.1859
 7748SOL    HW230758   1.379   3.208   3.422  2.5800  0.1001  1.8928
 7748SOL    HW330759   1.294   3.236   3.544 -0.6045  0.1486 -0.2393
 7748SOL    MW430760   1.324   3.181   3.484 -0.0723 -0.1872  0.6074
 7749SOL     OW30761   5.497   3.660   2.821 -0.0004  0.0593 -0.3902
 7749SOL    HW230762   5.431   3.618   2.877  0.8453 -0.0207  0.5899
 7749SOL    HW330763   5.447   3.718   2.765 -0.8653  0.5617  0.8451
 7749SOL    MW430764   5.481   3.662   2.821 -0.3950 -0.1461 -0.1327
 7750SOL     OW30765   1.406   3.715   2.030  0.4477 -0.8528 -0.2313
 7750SOL    HW230766   1.367   3.719   2.118 -2.4708  0.7722 -1.4337
 7750SOL    HW330767   1.497   3.740   2.042 -0.1771  0.5679  2.2063
 7750SOL    MW430768   1.413   3.719   2.043 -0.1701  0.1137  0.1380
 7751SOL     OW30769   3.635   2.751   0.380 -0.1864  0.3216 -0.1278
 7751SOL    HW230770   3.556   2.780   0.425 -1.3442 -1.4796 -0.8859
 7751SOL    HW330771   3.661   2.671   0.426  1.1786  0.8402  0.0576
 7751SOL    MW430772   3.628   2.744   0.392  0.3612  0.3177  0.9685
 7752SOL     OW30773   0.941   1.646   5.701  0.4091 -0.1338  0.6711
 7752SOL    HW230774   0.880   1.584   5.660  0.2094 -0.4334  1.3993
 7752SOL    HW330775   0.944   1.720   5.641 -1.1509  0.1597  0.8957
 7752SOL    MW430776   0.933   1.647   5.688 -0.1082  0.2591 -0.6175
 7753SOL     OW30777   2.667   1.462   5.272  0.0360  0.2223  0.2838
 7753SOL    HW230778   2.615   1.541   5.257 -1.5822 -0.8517  0.0492
 7753SOL    HW330779   2.603   1.392   5.281  1.4651 -1.3357 -1.0173
 7753SOL    MW430780   2.652   1.463   5.271  0.3068  0.0848 -0.1451
 7754SOL     OW30781   5.976   5.325   4.649  0.0786 -0.7737 -0.0869
 7754SOL    HW230782   6.039   5.268   4.692  0.4593 -0.3214 -0.0372
 7754SOL    HW330783   6.021   5.409   4.640  0.7573 -1.3657 -3.1520
 7754SOL    MW430784   5.990   5.329   4.653  0.4270 -0.2346 -0.7888
 7755SOL     OW30785   4.517   5.916   4.663 -0.4201 -0.2922  0.2796
 7755SOL    HW230786   4.518   5.974   4.587 -0.6080 -0.6270  0.0167
 7755SOL    HW330787   4.453   5.848   4.640  1.3937 -1.8566 -0.3537
 7755SOL    MW430788   4.508   5.914   4.650 -0.7775  0.2174  0.3346
 7756SOL     OW30789   6.214   1.684   3.051  0.3564 -0.0194  0.2162
 7756SOL    HW230790   6.186   1.669   2.961  1.8161 -0.0948 -0.2529
 7756SOL    HW330791   6.253   1.601   3.079  1.9671  0.6646  0.1040
 7756SOL    MW430792   6.216   1.672   3.043 -0.2710  0.0157  0.6019
 7757SOL     OW30793   5.991   3.269   0.683  0.7348  0.4335  0.0524
 7757SOL    HW230794   6.079   3.232   0.675 -0.0273 -1.6525  0.7662
 7757SOL    HW330795   5.993   3.318   0.765  0.8671 -0.7430  0.7691
 7757SOL    MW430796   6.003   3.271   0.693 -0.4301 -0.1350 -0.2781
 7758SOL     OW30797   1.163   1.469   2.148 -0.2167 -0.2272  0.1085
 7758SOL    HW230798   1.128   1.389   2.111  0.9393  0.0320 -1.6932
 7758SOL    HW330799   1.230   1.440   2.210  1.2556 -0.7294 -1.6147
 7758SOL    MW430800   1.168   1.455   2.151  0.2110 -0.4248  0.1985
 7759SOL     OW30801   2.024   1.231   0.419 -0.4778  0.0645  0.4702
 7759SOL    HW230802   2.095   1.190   0.370 -0.9808  0.2485 -0.4437
 7759SOL    HW330803   1.944   1.202   0.374 -0.8327  2.4236 -0.5353
 7759SOL    MW430804   2.023   1.222   0.407 -0.1473 -0.2841  0.3379
 7760SOL     OW30805   4.852   3.968   4.403 -0.0540  0.1963  0.4540
 7760SOL    HW230806   4.863   4.016   4.321  0.1385  0.0054  0.3669
 7760SOL    HW330807   4.934   3.983   4.451  0.2420 -0.5110  0.1798
 7760SOL    MW430808   4.864   3.976   4.399 -0.7769  0.3527  0.6210
 7761SOL     OW30809   3.919   3.470   2.050 -0.1308 -0.6284 -0.3083
 7761SOL    HW230810   3.881   3.383   2.043 -1.5038 -0.1548  0.8367
 7761SOL    HW330811   3.952   3.489   1.962 -3.5320 -0.6333 -1.7178
 7761SOL    MW430812   3.918   3.461   2.038  0.0664  0.1495 -0.1643
 7762SOL     OW30813   6.141   0.875   2.268  0.0180  0.2815 -0.2856
 7762SOL    HW230814   6.131   0.809   2.200  2.0867  0.2394 -0.6307
 7762SOL    HW330815   6.081   0.945   2.243 -0.6830 -0.5729 -1.0633
 7762SOL    MW430816   6.132   0.876   2.256  0.0766  0.1363  0.8477
 7763SOL     OW30817   0.446   2.064   5.043 -0.2299  0.7691  0.6693
 7763SOL    HW230818   0.533   2.095   5.070  0.4592 -0.1632 -0.3711
 7763SOL    HW330819   0.427   1.993   5.104 -0.1909  0.8750  0.8054
 7763SOL    MW430820   0.455   2.059   5.055 -0.5129 -0.4472  0.1636
 7764SOL     OW30821   4.450   3.910   3.653  0.2624 -0.2373 -0.4918
 7764SOL    HW230822   4.471   3.947   3.567  0.0194  2.3693  0.4899
 7764SOL    HW330823   4.355   3.917   3.660  0.2782 -0.4728 -0.0388
 7764SOL    MW430824   4.441   3.916   3.642  0.5710 -0.1634 -0.1711
 7765SOL     OW30825   1.787   4.834   2.325  0.4972 -0.6587 -0.5991
 7765SOL    HW230826   1.703   4.842   2.279  0.2473 -1.1539 -0.2528
 7765SOL    HW330827   1.837   4.772   2.273  0.5764 -0.4968 -0.7132
 7765SOL    MW430828   1.782   4.826   2.312  0.3301  0.1091 -0.6422
 7766SOL     OW30829   1.044   1.942   5.140 -0.3913 -0.7018 -0.4453
 7766SOL    HW230830   1.016   2.014   5.083 -0.7376  0.1077  0.7248
 7766SOL    HW330831   0.970   1.927   5.199 -0.1096 -1.6624 -0.3077
 7766SOL    MW430832   1.030   1.949   5.140 -0.4218 -0.2940  0.0998
 7767SOL     OW30833   0.895   5.125   0.116  0.3902 -0.0346  0.0211
 7767SOL    HW230834   0.897   5.097   0.025  1.9694  0.4977 -0.1353
 7767SOL    HW330835   0.980   5.167   0.130 -0.1843  0.7082  1.4807
 7767SOL    MW430836   0.906   5.127   0.106 -0.0082 -0.2073 -0.2903
 7768SOL     OW30837   5.459   4.390   3.937 -0.3995  0.0077  0.0130
 7768SOL    HW230838   5.505   4.429   4.011  2.0572  0.6112 -1.7259
 7768SOL    HW330839   5.477   4.448   3.863 -2.0612 -1.0102 -1.2666
 7768SOL    MW430840   5.468   4.403   3.937  0.8386  0.3961 -0.8060
 7769SOL     OW30841   5.654   3.898   1.770 -0.6296 -0.1353 -0.2421
 7769SOL    HW230842   5.679   3.809   1.746 -2.4961 -0.7249 -0.1620
 7769SOL    HW330843   5.737   3.945   1.780  0.5957 -2.5594  2.4487
 7769SOL    MW430844   5.668   3.893   1.768  0.1276  0.4106  0.3779
 7770SOL     OW30845   5.182   1.675   0.446 -0.3575  0.3383  0.1569
 7770SOL    HW230846   5.246   1.616   0.486 -2.5561 -1.3976  1.3012
 7770SOL    HW330847   5.118   1.617   0.404 -2.0064  1.9328  0.3328
 7770SOL    MW430848   5.182   1.659   0.445 -0.3470 -0.1950 -0.2263
 7771SOL     OW30849   0.911   5.774   3.558 -0.2424  0.3367 -0.1012
 7771SOL    HW230850   0.902   5.772   3.463 -0.0074 -0.2191 -0.1118
 7771SOL    HW330851   0.889   5.685   3.587 -1.3397  0.7673  0.4619
 7771SOL    MW430852   0.907   5.762   3.549  0.0400  0.2691  0.7298
 7772SOL     OW30853   5.491   3.073   5.004  0.0275 -0.0594 -0.3464
 7772SOL    HW230854   5.412   3.032   4.968 -0.1176 -1.9527  1.8937
 7772SOL    HW330855   5.551   3.000   5.021  0.8283  0.9313  1.3493
 7772SOL    MW430856   5.489   3.058   5.001 -0.4584  0.0481  0.0704
 7773SOL     OW30857   1.028   0.343   2.811 -0.0431 -0.3947 -0.0144
 7773SOL    HW230858   1.001   0.431   2.838 -1.2750 -0.6668 -0.2852
 7773SOL    HW330859   1.052   0.352   2.719  2.0013  0.0808  0.5125
 7773SOL    MW430860   1.027   0.356   2.803 -0.1057  0.0074 -0.1092
 7774SOL     OW30861   3.791   2.402   1.687  0.0605 -0.4280  0.2326
 7774SOL    HW230862   3.805   2.422   1.594 -0.3085 -1.0973  0.0265
 7774SOL    HW330863   3.727   2.331   1.687 -0.4841  0.0506  1.0316
 7774SOL    MW430864   3.784   2.395   1.674 -0.1162  0.6320  0.6204
 7775SOL     OW30865   2.915   6.089   0.071  0.1041  0.3458 -0.2772
 7775SOL    HW230866   2.959   6.008   0.047  1.6301  0.4519  1.8393
 7775SOL    HW330867   2.943   6.106   0.161 -3.3698  1.0725  0.8475
 7775SOL    MW430868   2.924   6.080   0.080 -0.2278  0.5811 -0.4080
 7776SOL     OW30869   5.501   0.303   2.093  0.1301  0.1038 -0.2368
 7776SOL    HW230870   5.443   0.235   2.059 -0.5594  0.7275 -0.3608
 7776SOL    HW330871   5.460   0.331   2.175  1.0069 -0.3945  0.3762
 7776SOL    MW430872   5.488   0.298   2.099 -0.0143 -0.0352 -0.3361
 7777SOL     OW30873   1.219   4.134   1.483  0.5021  0.0336 -0.0525
 7777SOL    HW230874   1.226   4.137   1.579 -0.5680  0.0203  0.0349
 7777SOL    HW330875   1.238   4.043   1.461 -2.0949 -0.7107  0.4330
 7777SOL    MW430876   1.223   4.122   1.493 -0.1170 -0.1104 -0.2025
 7778SOL     OW30877   2.151   2.661   5.787  0.0665 -0.0444 -0.7361
 7778SOL    HW230878   2.244   2.679   5.771  0.5509 -0.8101  1.0196
 7778SOL    HW330879   2.105   2.712   5.720  1.7285  0.6930 -1.3671
 7778SOL    MW430880   2.157   2.670   5.776  0.0351 -0.0192  0.4545
 7779SOL     OW30881   2.764   4.356   3.355 -0.1955 -0.3817 -0.2852
 7779SOL    HW230882   2.675   4.320   3.348  0.2855 -1.4698 -1.2015
 7779SOL    HW330883   2.773   4.411   3.277 -0.2937  0.3023  0.1762
 7779SOL    MW430884   2.753   4.358   3.344 -0.0508 -0.4365 -0.0500
 7780SOL     OW30885   3.055   1.259   4.220 -0.0354  0.0190  0.0748
 7780SOL    HW230886   3.149   1.243   4.232 -0.0159 -1.4786 -1.6117
 7780SOL    HW330887   3.014   1.219   4.296  0.5734 -1.6436 -0.4178
 7780SOL    MW430888   3.062   1.251   4.231 -0.1646 -0.1325  0.3620
 7781SOL     OW30889   0.456   3.818   1.330 -0.4197 -0.3060 -0.3350
 7781SOL    HW230890   0.450   3.774   1.246 -1.1953  1.0436 -1.0171
 7781SOL    HW330891   0.542   3.859   1.329  0.1470 -1.4366  0.1423
 7781SOL    MW430892   0.467   3.817   1.319 -0.2777 -0.0389 -0.5335
 7782SOL     OW30893   6.023   4.759   5.391  0.1072 -0.3851  0.1893
 7782SOL    HW230894   6.117   4.778   5.397 -0.1423  1.1500 -0.2728
 7782SOL    HW330895   5.980   4.839   5.422 -1.0385 -0.5196 -0.9590
 7782SOL    MW430896   6.030   4.772   5.396  0.7183 -0.6303  0.4576
 7783SOL     OW30897   3.061   4.212   4.359  0.2185 -0.0783  0.3831
 7783SOL    HW230898   3.085   4.261   4.280 -0.3421 -0.1553  0.1560
 7783SOL    HW330899   3.066   4.120   4.332  0.1252 -0.1092  0.4711
 7783SOL    MW430900   3.065   4.206   4.345 -0.2162 -0.4680 -0.5190
 7784SOL     OW30901   1.358   0.687   5.258 -0.0387  0.2885  0.0583
 7784SOL    HW230902   1.373   0.781   5.269 -1.6097  0.4919  0.6303
 7784SOL    HW330903   1.341   0.676   5.165 -0.0769  0.5996  0.0283
 7784SOL    MW430904   1.358   0.698   5.248  0.6667 -0.0764  0.7026
 7785SOL     OW30905   3.301   4.736   4.114 -0.1611 -0.2491  0.0593
 7785SOL    HW230906   3.331   4.825   4.135  1.6614 -0.9115  0.3974
 7785SOL    HW330907   3.379   4.682   4.122 -1.1967 -1.8625 -0.3874
 7785SOL    MW430908   3.315   4.741   4.118  0.0154 -0.4660 -0.2488
 7786SOL     OW30909   5.173   0.758   4.785 -0.2307 -0.1198 -0.0216
 7786SOL    HW230910   5.166   0.692   4.854 -2.3482 -0.1575 -0.1970
 7786SOL    HW330911   5.112   0.827   4.811  1.3034  1.3945 -0.2860
 7786SOL    MW430912   5.164   0.758   4.798  0.6748 -0.0922  0.2720
 7787SOL     OW30913   6.121   1.577   5.446  0.1088  0.2570  0.3101
 7787SOL    HW230914   6.176   1.514   5.493  0.0847  0.0232  0.0270
 7787SOL    HW330915   6.124   1.548   5.355  1.1149  1.3980 -0.0462
 7787SOL    MW430916   6.129   1.565   5.441  1.2089  0.7405 -0.0559
 7788SOL     OW30917   3.284   0.621   2.147 -0.1372  0.4115 -0.2506
 7788SOL    HW230918   3.283   0.623   2.243  2.3675 -1.1367 -0.1079
 7788SOL    HW330919   3.197   0.588   2.123  0.0706 -1.7952  1.6549
 7788SOL    MW430920   3.272   0.617   2.157  0.2094  0.2413 -0.1412
 7789SOL     OW30921   3.353   6.210   1.897 -0.5765 -0.1473 -0.1549
 7789SOL    HW230922   3.352   6.208   1.992 -0.7332  1.4672 -0.1020
 7789SOL    HW330923   3.416   6.142   1.872 -0.1216 -0.2121  1.1133
 7789SOL    MW430924   3.361   6.201   1.906 -0.2049 -0.0583 -0.3386
 7790SOL     OW30925   6.295   5.675   0.441 -0.0876  0.0396  0.4088
 7790SOL    HW230926   6.388   5.658   0.459 -0.4240 -0.1354  2.1887
 7790SOL    HW330927   6.250   5.647   0.521 -1.7098 -0.1181 -0.5218
 7790SOL    MW430928   6.301   5.669   0.454 -1.0656 -0.5927  0.0759
 7791SOL     OW30929   4.855   0.874   2.466  0.7249 -0.0498  0.3324
 7791SOL    HW230930   4.906   0.942   2.423 -0.3871  0.1061 -0.8103
 7791SOL    HW330931   4.890   0.870   2.555  1.5918  1.1909  0.0735
 7791SOL    MW430932   4.866   0.882   2.472 -0.3274 -0.3704  0.2761
 7792SOL     OW30933   4.596   5.091   5.995 -0.1172  0.4976  0.5459
 7792SOL    HW230934   4.547   5.098   5.913  1.8111  0.2580 -0.6865
 7792SOL    HW330935   4.616   5.181   6.019  2.0411  0.4964 -1.0221
 7792SOL    MW430936   4.592   5.104   5.987 -0.7854 -0.1114 -0.6136
 7793SOL     OW30937   1.179   2.747   0.969  0.4270 -0.8548  0.0028
 7793SOL    HW230938   1.089   2.759   0.941  0.4094  0.4810  0.5823
 7793SOL    HW330939   1.188   2.652   0.981  0.1767 -1.4750 -3.5552
 7793SOL    MW430940   1.169   2.736   0.967 -0.3144  0.4041 -0.3545
 7794SOL     OW30941   5.818   3.094   6.023 -0.2065  0.0865 -0.5591
 7794SOL    HW230942   5.851   3.184   6.026 -0.7177  0.2646 -0.2312
 7794SOL    HW330943   5.816   3.073   5.930 -1.6991  1.0232 -0.7779
 7794SOL    MW430944   5.822   3.103   6.012  0.1807 -0.0666 -0.1752
 7795SOL     OW30945   0.332   5.967   1.654 -0.1347  0.2051  0.2232
 7795SOL    HW230946   0.378   5.947   1.736  0.5507  0.9909  0.0405
 7795SOL    HW330947   0.399   5.959   1.586 -0.8003 -0.8969 -0.3398
 7795SOL    MW430948   0.347   5.963   1.656 -0.9336  0.5273  0.1353
 7796SOL     OW30949   3.474   5.318   0.735 -0.1534  0.2414  0.2852
 7796SOL    HW230950   3.416   5.273   0.796  0.8168 -1.0002  0.3175
 7796SOL    HW330951   3.533   5.250   0.702  0.1934  1.1409 -1.0439
 7796SOL    MW430952   3.474   5.303   0.739 -0.2359  0.2179  0.3366
 7797SOL     OW30953   4.089   4.128   3.748 -0.1040 -0.3228 -0.1184
 7797SOL    HW230954   4.077   4.056   3.810 -1.0911 -0.6679 -0.6899
 7797SOL    HW330955   4.073   4.207   3.799 -0.6846 -0.5952  0.1309
 7797SOL    MW430956   4.085   4.129   3.763 -0.3358 -0.6697 -0.3902
 7798SOL     OW30957   2.148   3.889   1.216  0.5144 -0.3738  0.0706
 7798SOL    HW230958   2.241   3.889   1.192  0.8397 -0.9353  1.1946
 7798SOL    HW330959   2.101   3.908   1.135  1.5639 -1.1604 -0.7559
 7798SOL    MW430960   2.154   3.892   1.202 -0.4173  0.2388  1.0899
 7799SOL     OW30961   6.427   6.422   5.810  0.3330 -0.2716 -0.1879
 7799SOL    HW230962   6.446   6.481   5.737 -0.6483  0.5220  0.1738
 7799SOL    HW330963   6.342   6.383   5.789 -0.3989  0.6510  0.9278
 7799SOL    MW430964   6.419   6.425   5.798 -0.0308  0.2355  0.1038
 7800SOL     OW30965   2.246   6.330   2.224  0.1509 -0.2478  0.0002
 7800SOL    HW230966   2.267   6.398   2.160  2.1661 -1.1779 -0.4208
 7800SOL    HW330967   2.152   6.316   2.215 -0.2621  2.2381 -0.0988
 7800SOL    MW430968   2.237   6.337   2.215  0.5935  0.3614 -0.3135
 7801SOL     OW30969   2.255   0.346   0.430  0.2493 -0.1071  0.2926
 7801SOL    HW230970   2.178   0.327   0.378 -0.3309 -1.2277  1.5159
 7801SOL    HW330971   2.295   0.261   0.448  0.2856  0.2100  1.8727
 7801SOL    MW430972   2.250   0.333   0.426 -0.1478  0.1652 -0.1629
 7802SOL     OW30973   5.457   5.574   3.085  0.0643  0.0150 -0.0045
 7802SOL    HW230974   5.518   5.563   3.158 -1.9048 -1.1080  1.5759
 7802SOL    HW330975   5.501   5.635   3.025  1.4852  1.5316  2.4345
 7802SOL    MW430976   5.471   5.581   3.087 -0.0911  0.0265 -0.1189
 7803SOL     OW30977   4.059   5.114   3.040 -0.2968  1.0022 -0.1976
 7803SOL    HW230978   3.998   5.177   3.003 -0.5162 -0.1510 -1.9383
 7803SOL    HW330979   4.115   5.165   3.099 -1.3718  2.5205 -0.4525
 7803SOL    MW430980   4.059   5.129   3.043 -0.4591 -0.3131 -0.3090
 7804SOL     OW30981   0.325   3.694   0.466  0.3786 -0.3534 -0.5281
 7804SOL    HW230982   0.398   3.639   0.493  1.1141  1.1492  0.7223
 7804SOL    HW330983   0.360   3.783   0.468 -0.9076  0.2325 -1.9984
 7804SOL    MW430984   0.339   3.698   0.470 -0.5352 -0.3263  0.3723
 7805SOL     OW30985   3.617   4.926   2.617 -0.3708  0.2451  0.5846
 7805SOL    HW230986   3.681   4.987   2.655 -0.9419  1.1438  0.1423
 7805SOL    HW330987   3.558   4.906   2.689  0.0183 -0.0616  0.8221
 7805SOL    MW430988   3.618   4.931   2.631  0.0253 -0.2062 -0.4445
 7806SOL     OW30989   0.142   1.814   0.273  0.3112  0.2931  0.1426
 7806SOL    HW230990   0.168   1.888   0.328  0.9863  0.5238 -0.4771
 7806SOL    HW330991   0.209   1.747   0.289  0.4041  0.2904 -0.2421
 7806SOL    MW430992   0.154   1.815   0.283 -0.3494 -0.1429  0.3607
 7807SOL     OW30993   3.900   0.189   5.267 -0.1954 -0.2694  0.1780
 7807SOL    HW230994   3.951   0.240   5.330  0.9426 -0.3699 -0.6409
 7807SOL    HW330995   3.846   0.254   5.222  1.1962  0.2511 -0.8133
 7807SOL    MW430996   3.900   0.205   5.269 -0.2011 -0.3185 -0.2114
 7808SOL     OW30997   0.475   3.770   6.301 -0.3992 -0.4446  0.3492
 7808SOL    HW230998   0.390   3.727   6.315 -0.7495  0.0287 -0.2829
 7808SOL    HW330999   0.463   3.859   6.336 -0.8375  0.2960 -1.5718
 7808SOL    MW431000   0.462   3.776   6.307 -0.1173 -0.0933 -0.5438
 7809SOL     OW31001   4.171   5.516   5.661  0.3428 -0.7008  0.2362
 7809SOL    HW231002   4.093   5.477   5.700 -0.7070 -0.5028 -1.5201
 7809SOL    HW331003   4.163   5.610   5.680 -1.0122 -0.3585 -1.6419
 7809SOL    MW431004   4.160   5.524   5.669  0.3837  0.1935  0.2865
 7810SOL     OW31005   1.322   3.245   0.202  0.1667 -0.7273  0.1588
 7810SOL    HW231006   1.232   3.274   0.189 -1.2145 -4.1875  0.7427
 7810SOL    HW331007   1.345   3.202   0.119  1.3434  0.1960 -0.0089
 7810SOL    MW431008   1.313   3.243   0.189 -0.2072 -0.1442 -0.3212
 7811SOL     OW31009   6.459   1.016   1.167 -0.1112 -0.5162 -0.1935
 7811SOL    HW231010   6.513   1.040   1.242  1.2511 -0.8556 -1.0338
 7811SOL    HW331011   6.414   0.936   1.195 -0.7596  0.1683  0.7730
 7811SOL    MW431012   6.460   1.008   1.181 -0.1612 -0.1424 -0.0707
 7812SOL     OW31013   3.169   3.847   0.949 -0.0912 -0.2662 -0.4822
 7812SOL    HW231014   3.119   3.816   1.025 -0.7596  0.2735 -0.6920
 7812SOL    HW331015   3.250   3.882   0.986 -0.4756  0.1282 -0.0009
 7812SOL    MW431016   3.173   3.847   0.964 -0.3036 -0.2937 -0.0807
 7813SOL     OW31017   5.846   4.291   1.523 -0.2132  0.0365  0.3022
 7813SOL    HW231018   5.777   4.346   1.560 -1.2260 -3.3714  4.0530
 7813SOL    HW331019   5.800   4.218   1.482  1.1733  0.1691 -1.6460
 7813SOL    MW431020   5.831   4.289   1.522 -0.6776 -0.4753 -0.7021
 7814SOL     OW31021   0.264   1.428   6.107 -0.1613  0.7576  1.1472
 7814SOL    HW231022   0.240   1.521   6.104  0.6081  1.0845  3.2344
 7814SOL    HW331023   0.333   1.419   6.041 -2.4091  0.8746 -1.4025
 7814SOL    MW431024   0.270   1.439   6.098 -0.1622  0.0609  0.0076
 7815SOL     OW31025   2.052   0.250   2.436  0.3461 -0.1415  0.0786
 7815SOL    HW231026   2.142   0.219   2.450  0.5842  0.9262  1.0709
 7815SOL    HW331027   2.062   0.340   2.406 -0.3905  0.3102  1.1202
 7815SOL    MW431028   2.065   0.257   2.434  0.4318 -0.3719  0.3645
 7816SOL     OW31029   4.045   4.214   4.852 -0.3018  0.3397  0.3374
 7816SOL    HW231030   4.005   4.266   4.782 -1.2192 -1.1191 -0.2512
 7816SOL    HW331031   4.131   4.255   4.865  0.2823  0.1401 -2.2647
 7816SOL    MW431032   4.051   4.227   4.844 -0.0665 -0.2824 -0.2090
 7817SOL     OW31033   0.891   4.795   0.489  0.0045  0.1483  0.0347
 7817SOL    HW231034   0.927   4.708   0.471 -0.2711 -0.2432  1.2683
 7817SOL    HW331035   0.810   4.798   0.438 -0.7875 -0.9501  1.1499
 7817SOL    MW431036   0.885   4.784   0.480  0.6660 -0.7541 -0.4486
 7818SOL     OW31037   0.242   0.784   3.871  0.3715  0.5057 -0.3098
 7818SOL    HW231038   0.313   0.765   3.933  0.5240 -1.5982 -1.0609
 7818SOL    HW331039   0.276   0.856   3.817  2.0203 -0.5492 -0.7342
 7818SOL    MW431040   0.256   0.791   3.872 -0.4893 -0.5144  0.1954
 7819SOL     OW31041   2.550   3.605   5.909  0.1897 -0.3042  0.3108
 7819SOL    HW231042   2.629   3.621   5.857  0.7333 -1.8654  0.6039
 7819SOL    HW331043   2.582   3.588   5.997 -0.4767 -0.8326  0.4592
 7819SOL    MW431044   2.565   3.605   5.914 -0.2650 -0.0694  0.0988
 7820SOL     OW31045   5.549   1.635   6.213 -0.1635  0.7064 -0.7907
 7820SOL    HW231046   5.597   1.713   6.185  1.5988  1.5789  3.8132
 7820SOL    HW331047   5.538   1.646   6.308  0.0382 -4.5343  0.1319
 7820SOL    MW431048   5.554   1.647   6.222  0.4368 -0.1283  0.2507
 7821SOL     OW31049   2.639   2.980   2.652  0.1963  0.5889 -0.2384
 7821SOL    HW231050   2.683   2.913   2.600 -1.1342  0.8100 -1.7291
 7821SOL    HW331051   2.653   3.062   2.604 -2.1141  0.6086 -1.0117
 7821SOL    MW431052   2.647   2.982   2.639  0.4150  0.0913 -0.8123
 7822SOL     OW31053   0.515   4.031   0.007  0.8386  0.2927  0.0070
 7822SOL    HW231054   0.443   4.089  -0.017  1.3349  1.4215  1.1295
 7822SOL    HW331055   0.593   4.073  -0.030  0.9312 -1.1671 -1.6196
 7822SOL    MW431056   0.516   4.044  -0.001  0.2201 -0.1706  0.0141
 7823SOL     OW31057   1.729   5.359   2.022 -0.3933  0.2588 -0.1353
 7823SOL    HW231058   1.699   5.395   1.938 -0.9687 -0.6466 -0.3212
 7823SOL    HW331059   1.651   5.323   2.063  0.3072 -1.6926 -0.4153
 7823SOL    MW431060   1.715   5.359   2.016  0.0858 -0.0212  0.2646
 7824SOL     OW31061   0.421   2.535   3.129 -0.0852 -0.4543  0.7087
 7824SOL    HW231062   0.392   2.534   3.037 -0.0988 -1.3720  0.7117
 7824SOL    HW331063   0.511   2.567   3.125  0.1995 -1.2688  0.2678
 7824SOL    MW431064   0.429   2.539   3.116  0.1149  0.2059 -0.1041
 7825SOL     OW31065   1.862   1.408   2.945 -0.1201  0.1314 -0.5746
 7825SOL    HW231066   1.906   1.407   2.860 -0.2239 -0.8682 -0.6243
 7825SOL    HW331067   1.854   1.316   2.969  0.0135  0.4099  0.5799
 7825SOL    MW431068   1.867   1.396   2.937 -0.6712  0.8074 -0.5189
 7826SOL     OW31069   1.047   4.314   0.772 -0.1728  0.0946 -0.3333
 7826SOL    HW231070   1.118   4.359   0.727 -1.3848 -0.9303 -3.5966
 7826SOL    HW331071   0.968   4.362   0.746 -0.9388 -0.3519  1.0609
 7826SOL    MW431072   1.046   4.326   0.762  0.3152 -0.3868 -0.4022
 7827SOL     OW31073   5.905   1.692   5.131 -0.0380  0.3155 -0.4083
 7827SOL    HW231074   5.816   1.660   5.121 -0.2907  0.7586  0.3412
 7827SOL    HW331075   5.960   1.613   5.123 -0.4019  0.1789 -1.8918
 7827SOL    MW431076   5.901   1.677   5.129 -0.5621  0.4602  0.6920
 7828SOL     OW31077   5.405   5.348   2.904  0.2517 -0.5284 -0.4441
 7828SOL    HW231078   5.408   5.401   2.984  0.5237  1.6594 -1.8276
 7828SOL    HW331079   5.494   5.316   2.894  0.2224 -0.8018  0.0899
 7828SOL    MW431080   5.417   5.351   2.913 -0.1946 -0.0304  0.9355
 7829SOL     OW31081   2.998   2.630   3.006  0.2669  0.1376 -0.5991
 7829SOL    HW231082   2.956   2.714   2.986  0.2658 -0.0079 -1.2195
 7829SOL    HW331083   2.926   2.573   3.033  0.4103  0.6841  1.0637
 7829SOL    MW431084   2.983   2.634   3.007 -0.2987  0.3918  0.0294
 7830SOL     OW31085   1.687   3.220   3.594  0.2599 -0.3016 -0.3293
 7830SOL    HW231086   1.639   3.268   3.526  0.7164  0.0884 -0.3808
 7830SOL    HW331087   1.775   3.257   3.592  0.3636 -0.5074  0.2652
 7830SOL    MW431088   1.692   3.231   3.585  0.9252  0.6525  0.7181
 7831SOL     OW31089   5.949   1.988   6.355  0.2380  0.0038 -0.7233
 7831SOL    HW231090   5.937   2.020   6.266  0.9718 -0.5452 -1.0296
 7831SOL    HW331091   6.030   2.028   6.385  1.1047 -1.4337 -1.0700
 7831SOL    MW431092   5.958   1.997   6.347  0.1577 -0.1233 -0.3508
 7832SOL     OW31093   6.148   5.501   2.204 -0.1016  0.1959 -0.0093
 7832SOL    HW231094   6.162   5.539   2.117  1.6891  0.7937  0.4958
 7832SOL    HW331095   6.236   5.483   2.237 -0.7905 -1.8719  0.9029
 7832SOL    MW431096   6.162   5.504   2.197  0.6126  0.2601  0.0260
 7833SOL     OW31097   3.674   3.385   5.187  0.1994 -0.0283  0.3003
 7833SOL    HW231098   3.619   3.438   5.244  0.3129 -0.3988  0.7632
 7833SOL    HW331099   3.762   3.396   5.222  0.2875 -0.1694  0.1264
 7833SOL    MW431100   3.678   3.393   5.199 -0.0999  0.5004 -0.0559
 7834SOL     OW31101   4.622   1.798   0.501  0.1313  0.0800 -0.5120
 7834SOL    HW231102   4.582   1.714   0.526  0.4930 -0.3057 -1.1937
 7834SOL    HW331103   4.559   1.864   0.530 -0.9276 -0.5013 -1.3629
 7834SOL    MW431104   4.608   1.796   0.508  0.1313 -0.0380  0.2224
 7835SOL     OW31105   4.783   3.345   4.825 -0.3318  0.5986 -0.4442
 7835SOL    HW231106   4.691   3.363   4.806 -0.3870 -1.0011 -1.9373
 7835SOL    HW331107   4.832   3.398   4.762 -0.3682 -0.7488 -1.6740
 7835SOL    MW431108   4.778   3.354   4.814 -0.1958 -0.3638  0.3647
 7836SOL     OW31109   4.171   0.008   2.398 -0.4576 -0.0290  0.1192
 7836SOL    HW231110   4.198  -0.012   2.488 -1.4382  1.2045  0.7292
 7836SOL    HW331111   4.250  -0.001   2.346  0.7701  1.7593  1.5324
 7836SOL    MW431112   4.185   0.004   2.403 -0.9925  0.0910  0.1303
 7837SOL     OW31113   1.166   6.059   2.013 -0.5617  0.2787 -0.2094
 7837SOL    HW231114   1.074   6.033   2.002 -0.4824 -0.1841  0.2158
 7837SOL    HW331115   1.166   6.113   2.092 -0.7746  1.8566 -1.2304
 7837SOL    MW431116   1.154   6.063   2.022  0.1308 -0.1215 -0.4239
 7838SOL     OW31117   3.148   6.385   3.091  0.0886  0.6511 -0.3870
 7838SOL    HW231118   3.063   6.359   3.057 -0.2372  0.2728  0.7028
 7838SOL    HW331119   3.187   6.304   3.124 -0.3247  1.2330  1.6946
 7838SOL    MW431120   3.142   6.371   3.091 -0.2142 -0.4918  0.3536
 7839SOL     OW31121   3.705   1.539   3.724  0.6668  0.5270 -0.5305
 7839SOL    HW231122   3.650   1.617   3.732  0.1529  0.1738 -0.5812
 7839SOL    HW331123   3.660   1.472   3.777  1.7900  0.6334  0.6257
 7839SOL    MW431124   3.692   1.540   3.732  0.0877  0.4275 -0.0232
 7840SOL     OW31125   2.058   2.931   5.039 -0.1476  0.8494 -0.1930
 7840SOL    HW231126   2.001   2.865   5.077  0.3912  0.8537  0.6513
 7840SOL    HW331127   2.110   2.884   4.973 -1.6210  0.9998 -1.5094
 7840SOL    MW431128   2.058   2.916   5.035  0.6570  0.6919  0.2642
 7841SOL     OW31129   4.640   5.649   0.442 -0.2903  0.4671  0.4198
 7841SOL    HW231130   4.558   5.600   0.435 -1.1662  1.8374  0.7447
 7841SOL    HW331131   4.692   5.598   0.505  0.5303 -2.2414 -2.2287
 7841SOL    MW431132   4.636   5.636   0.450 -0.0141  0.3638  0.3501
 7842SOL     OW31133   1.209   5.861   1.727  0.0840 -0.0980  0.2704
 7842SOL    HW231134   1.264   5.802   1.674  1.7133  0.8153  0.8667
 7842SOL    HW331135   1.125   5.816   1.733  0.4315 -1.1007 -1.5260
 7842SOL    MW431136   1.205   5.847   1.721  0.2020 -0.1225  0.9463
 7843SOL     OW31137   4.175   0.463   2.083 -0.1928 -0.1882 -0.1694
 7843SOL    HW231138   4.252   0.431   2.036 -1.2328 -0.9830 -1.4153
 7843SOL    HW331139   4.147   0.540   2.033 -0.7444 -0.4699 -0.3057
 7843SOL    MW431140   4.182   0.469   2.070  0.6792 -0.3772 -0.4094
 7844SOL     OW31141   0.038   6.219   0.242 -0.0911  0.0675  0.4044
 7844SOL    HW231142   0.053   6.304   0.201  0.9680 -0.2398  0.1295
 7844SOL    HW331143   0.109   6.211   0.306 -1.3516  0.2659  1.8829
 7844SOL    MW431144   0.050   6.229   0.245  0.5465  0.1228 -0.4341
 7845SOL     OW31145   2.051   0.266   5.938 -0.3753 -0.4239  0.2484
 7845SOL    HW231146   2.046   0.251   6.032  1.1168  0.9659  0.6099
 7845SOL    HW331147   1.975   0.320   5.917  0.2204  0.7369  1.0102
 7845SOL    MW431148   2.041   0.271   5.947  1.0494 -0.0885 -0.2442
 7846SOL     OW31149   1.922   1.431   1.170 -0.2994 -0.4089 -0.2997
 7846SOL    HW231150   1.915   1.460   1.079  1.4952  1.6118  0.1402
 7846SOL    HW331151   2.012   1.451   1.195 -0.4792 -1.8000  1.6661
 7846SOL    MW431152   1.933   1.437   1.161 -0.0876  1.0114  0.0537
 7847SOL     OW31153   4.378   0.658   1.517 -0.7361  0.7050  0.1033
 7847SOL    HW231154   4.335   0.695   1.441  0.2349 -0.6710 -1.1780
 7847SOL    HW331155   4.460   0.623   1.484 -1.7902 -3.0806  0.9863
 7847SOL    MW431156   4.383   0.658   1.503  0.3486  0.1521 -0.1793
 7848SOL     OW31157   4.668   1.596   0.829  0.2710 -0.6493  0.2171
 7848SOL    HW231158   4.584   1.592   0.783 -0.0662  1.1008  0.6321
 7848SOL    HW331159   4.734   1.577   0.762 -0.3790 -0.8245 -0.3784
 7848SOL    MW431160   4.666   1.593   0.814 -0.0028 -0.1972 -0.0499
 7849SOL     OW31161   4.283   0.279   3.196  0.2180 -0.1240 -0.2997
 7849SOL    HW231162   4.268   0.367   3.232  0.3748 -0.7256  1.2963
 7849SOL    HW331163   4.215   0.269   3.130 -0.5215  0.7708  0.3000
 7849SOL    MW431164   4.272   0.290   3.192  0.2035 -0.3668 -0.4259
 7850SOL     OW31165   5.505   1.986   2.127  0.2467 -0.2245  0.5701
 7850SOL    HW231166   5.493   2.020   2.038  1.2811  0.3376  0.6349
 7850SOL    HW331167   5.520   2.063   2.181  3.0223 -0.7311  0.6504
 7850SOL    MW431168   5.505   2.000   2.122  0.9575  0.0826  0.1236
 7851SOL     OW31169   4.244   1.408   4.550  0.3606 -0.1893 -0.1594
 7851SOL    HW231170   4.170   1.398   4.490  1.0167  0.4409 -1.0912
 7851SOL    HW331171   4.301   1.334   4.531  0.9030  0.3806 -0.8261
 7851SOL    MW431172   4.242   1.397   4.540  0.0172 -0.4391  0.1954
 7852SOL     OW31173   4.190   2.053   1.284 -0.2732  0.1279 -0.4332
 7852SOL    HW231174   4.233   1.980   1.329  0.2760  0.4133 -0.4816
 7852SOL    HW331175   4.263   2.105   1.249 -0.6107  1.4839  0.8327
 7852SOL    MW431176   4.206   2.050   1.285  0.3073 -0.1396 -0.4556
 7853SOL     OW31177   2.464   4.545   4.384 -0.3708 -0.3530  0.3018
 7853SOL    HW231178   2.380   4.590   4.374 -0.6656 -1.1696 -1.2201
 7853SOL    HW331179   2.443   4.452   4.371  0.8682 -0.5047 -0.7933
 7853SOL    MW431180   2.450   4.539   4.381 -0.3105 -0.3304 -0.7009
 7854SOL     OW31181   4.597   3.977   1.844  0.3965 -0.3171 -0.1734
 7854SOL    HW231182   4.589   3.888   1.879 -0.4184 -0.4987 -0.7997
 7854SOL    HW331183   4.514   4.019   1.865  0.5470  0.1020 -0.4110
 7854SOL    MW431184   4.585   3.971   1.852 -0.0183 -0.3139  0.2300
 7855SOL     OW31185   1.149   0.385   5.318 -0.0225 -0.1901  0.1338
 7855SOL    HW231186   1.146   0.341   5.403  1.3594 -0.8072 -0.1203
 7855SOL    HW331187   1.230   0.354   5.277  0.2926  1.5425 -0.6331
 7855SOL    MW431188   1.159   0.375   5.324  0.1265 -0.6112  0.3367
 7856SOL     OW31189   2.538   0.979   5.981 -0.4050  0.0906  0.4425
 7856SOL    HW231190   2.628   0.975   6.014 -0.3682 -2.6422  0.3112
 7856SOL    HW331191   2.548   0.985   5.886 -0.3825  0.4836  0.4684
 7856SOL    MW431192   2.551   0.979   5.973  0.5099  0.5251  0.1421
 7857SOL     OW31193   3.119   5.066   2.156  0.3054  0.5047  0.2662
 7857SOL    HW231194   3.085   5.112   2.079 -1.7872  0.6057  1.1716
 7857SOL    HW331195   3.209   5.098   2.165  0.2528  1.2968 -1.4979
 7857SOL    MW431196   3.126   5.076   2.147  0.4214  0.3342  0.4045
 7858SOL     OW31197   4.828   4.994   2.298  0.1756 -0.3233 -0.2656
 7858SOL    HW231198   4.792   4.934   2.233  0.2283 -0.5419 -0.0962
 7858SOL    HW331199   4.922   4.976   2.297  0.3878  0.7548 -1.2293
 7858SOL    MW431200   4.836   4.983   2.289 -0.8505 -0.3146 -0.5164
 7859SOL     OW31201   6.371   5.110   1.326 -0.1904 -0.5004 -0.2091
 7859SOL    HW231202   6.402   5.087   1.238 -2.5472  0.9984 -1.5604
 7859SOL    HW331203   6.314   5.186   1.311 -0.9183 -0.4073  2.5995
 7859SOL    MW431204   6.367   5.117   1.312 -1.0406 -0.2856  0.4586
 7860SOL     OW31205   1.937   2.369   6.068 -0.3616  0.1643  0.5831
 7860SOL    HW231206   1.977   2.301   6.013  1.1337  3.0181 -2.1933
 7860SOL    HW331207   1.848   2.378   6.033  0.0793  0.9085 -0.3909
 7860SOL    MW431208   1.930   2.361   6.056 -0.2467  0.6609 -0.4113
 7861SOL     OW31209   6.241   0.044   3.325  0.6676  0.1344 -0.7195
 7861SOL    HW231210   6.299   0.039   3.401  0.6069 -0.8893 -0.7359
 7861SOL    HW331211   6.154   0.057   3.363  0.9526  2.4807 -0.7136
 7861SOL    MW431212   6.237   0.045   3.340  0.6706  0.1735 -0.1199
 7862SOL     OW31213   5.718   2.800   1.181 -0.2126  0.3956 -0.1954
 7862SOL    HW231214   5.745   2.815   1.090  3.0992 -0.7158  0.4937
 7862SOL    HW331215   5.680   2.712   1.181 -1.6622  0.9821 -0.7056
 7862SOL    MW431216   5.716   2.791   1.169 -0.4206 -0.6157 -0.4838
 7863SOL     OW31217   6.411   2.732   3.312 -0.6907 -0.2978  0.1135
 7863SOL    HW231218   6.340   2.782   3.271 -1.5769 -0.4662  1.4135
 7863SOL    HW331219   6.465   2.798   3.355 -0.7933 -0.2873  0.2265
 7863SOL    MW431220   6.409   2.747   3.312 -0.4594 -0.2297 -0.1880
 7864SOL     OW31221   1.220   5.621   6.169 -0.5228  0.1672  0.0190
 7864SOL    HW231222   1.239   5.649   6.259 -1.7565 -0.0129  0.3511
 7864SOL    HW331223   1.135   5.659   6.149 -0.2745  0.1808 -1.0818
 7864SOL    MW431224   1.212   5.630   6.179 -0.4058  0.1516 -0.2816
 7865SOL     OW31225   4.706   1.340   0.339  0.4701 -0.2807 -0.2335
 7865SOL    HW231226   4.763   1.394   0.393 -1.6249  1.5113  0.2900
 7865SOL    HW331227   4.746   1.253   0.342  2.8229  0.7545  0.5520
 7865SOL    MW431228   4.719   1.335   0.346 -0.4752  0.1509 -0.3189
 7866SOL     OW31229   4.506   3.986   3.156  0.0101  0.3734 -0.1272
 7866SOL    HW231230   4.487   3.900   3.119 -0.8982  1.1378 -1.5071
 7866SOL    HW331231   4.549   4.035   3.085 -1.9268  1.9261 -0.3287
 7866SOL    MW431232   4.509   3.981   3.142  0.2297 -0.1684 -0.4186
 7867SOL     OW31233   1.421   6.233   1.405  0.0028 -0.0336 -0.6022
 7867SOL    HW231234   1.451   6.291   1.474 -0.6803  1.4122 -1.4712
 7867SOL    HW331235   1.326   6.230   1.416 -0.2314  0.9805 -1.9957
 7867SOL    MW431236   1.412   6.240   1.415  0.0339 -0.3571  0.7960
 7868SOL     OW31237   3.668   5.251   1.871 -0.2038  0.3641  0.1866
 7868SOL    HW231238   3.716   5.317   1.922 -2.5030  1.2851  1.3188
 7868SOL    HW331239   3.649   5.181   1.934 -1.4140  0.6155  0.1316
 7868SOL    MW431240   3.672   5.251   1.886  0.5368  0.2076  0.3504
 7869SOL     OW31241   2.867   0.815   3.809  0.1355  0.0561 -0.0902
 7869SOL    HW231242   2.830   0.765   3.737  0.0045 -0.3363  0.2469
 7869SOL    HW331243   2.956   0.781   3.820  0.4696  0.7224 -0.6367
 7869SOL    MW431244   2.874   0.804   3.801 -0.2210 -0.2502  0.4958
 7870SOL     OW31245   4.110   0.633   4.675  0.3368 -0.5001  0.2077
 7870SOL    HW231246   4.185   0.660   4.728  0.3077  1.5659 -0.7300
 7870SOL    HW331247   4.034   0.666   4.722 -0.0407 -2.4266  1.0557
 7870SOL    MW431248   4.110   0.641   4.688  0.4932  0.0852 -0.2085
 7871SOL     OW31249   3.417   4.390   0.731 -0.1768 -0.0616 -0.5690
 7871SOL    HW231250   3.475   4.463   0.713 -0.0083 -0.1685 -0.4571
 7871SOL    HW331251   3.475   4.318   0.754 -0.2557 -0.6689 -2.1342
 7871SOL    MW431252   3.432   4.390   0.732  0.5774  0.6538 -0.0356
 7872SOL     OW31253   0.149   2.562   1.095 -0.2466  0.0797  0.3566
 7872SOL    HW231254   0.164   2.561   1.001  0.5530  0.5378  0.4742
 7872SOL    HW331255   0.175   2.475   1.125 -1.3218 -0.3682  0.0458
 7872SOL    MW431256   0.154   2.550   1.087  0.3675 -0.4683  0.2918
 7873SOL     OW31257   1.774   6.346   1.997  0.1599  0.1534 -0.1312
 7873SOL    HW231258   1.828   6.288   1.943  1.3189 -0.6373  1.7547
 7873SOL    HW331259   1.752   6.419   1.940  0.0785 -1.3239 -2.0817
 7873SOL    MW431260   1.779   6.348   1.983  0.2227 -0.6448  0.1590
 7874SOL     OW31261   3.565   5.581   3.953  0.2281  0.6105  0.0355
 7874SOL    HW231262   3.549   5.513   3.888 -0.3714 -0.0472  0.8454
 7874SOL    HW331263   3.656   5.567   3.980 -0.7854 -2.1278  2.6354
 7874SOL    MW431264   3.575   5.570   3.948 -0.6564 -0.3533 -0.0941
 7875SOL     OW31265   4.688   1.393   3.030 -0.6488 -0.5800 -0.3171
 7875SOL    HW231266   4.627   1.345   2.975 -0.7633 -0.6208 -0.1553
 7875SOL    HW331267   4.659   1.376   3.120 -2.3713  1.9676 -0.2909
 7875SOL    MW431268   4.676   1.385   3.035 -0.1174  0.1546 -0.3497
 7876SOL     OW31269   0.668   0.270   1.853  0.7904 -0.3035  0.0303
 7876SOL    HW231270   0.707   0.201   1.799  0.3362  0.0941 -0.8233
 7876SOL    HW331271   0.597   0.305   1.800 -0.3453 -0.5817  1.2968
 7876SOL    MW431272   0.664   0.265   1.839  0.0619 -0.2317  0.4006
 7877SOL     OW31273   3.809   4.223   0.126  0.3502 -0.2324  0.3295
 7877SOL    HW231274   3.721   4.252   0.147  0.1826  0.4806 -1.1825
 7877SOL    HW331275   3.801   4.129   0.111 -0.3285 -0.0524 -0.5288
 7877SOL    MW431276   3.797   4.215   0.126 -0.3861  0.1705  0.3213
 7878SOL     OW31277   0.081   2.781   3.767  0.1138 -0.0793 -0.3892
 7878SOL    HW231278   0.051   2.865   3.802  0.3806  0.3038 -1.0613
 7878SOL    HW331279   0.117   2.803   3.681 -0.1378 -0.9379 -0.7204
 7878SOL    MW431280   0.082   2.795   3.760 -0.1683 -0.7201 -0.2819
 7879SOL     OW31281   2.820   1.610   0.298  0.4493 -0.0723 -0.0987
 7879SOL    HW231282   2.882   1.589   0.367 -0.2554  0.5660  0.7609
 7879SOL    HW331283   2.874   1.637   0.224  1.1991  1.7163  1.0346
 7879SOL    MW431284   2.835   1.611   0.297  0.1384  0.2000 -0.2404
 7880SOL     OW31285   1.043   1.474   1.836 -0.4291 -0.4388 -0.0269
 7880SOL    HW231286   1.000   1.524   1.905  1.0528  1.2962 -0.2678
 7880SOL    HW331287   1.029   1.382   1.860 -1.3646  0.1056  1.6567
 7880SOL    MW431288   1.036   1.468   1.848  0.3303 -0.6558 -0.1173
 7881SOL     OW31289   0.940   5.427   3.108 -0.4750 -0.1556  0.2599
 7881SOL    HW231290   0.921   5.361   3.041  2.0538 -0.0026 -0.7392
 7881SOL    HW331291   1.032   5.413   3.130 -0.0401  2.5527  0.5385
 7881SOL    MW431292   0.950   5.417   3.102  0.0016 -0.0907 -0.3926
 7882SOL     OW31293   0.739   2.610   6.387  0.4889 -0.1637  0.4266
 7882SOL    HW231294   0.786   2.532   6.358 -0.3308 -0.0193 -1.4315
 7882SOL    HW331295   0.703   2.648   6.307 -0.5776  1.1826  1.4834
 7882SOL    MW431296   0.741   2.605   6.373  0.2834 -0.2304 -0.4637
 7883SOL     OW31297   3.514   2.646   3.128 -0.2827  0.4056  0.2179
 7883SOL    HW231298   3.514   2.716   3.062  1.1581 -0.3603 -0.6355
 7883SOL    HW331299   3.421   2.631   3.146 -0.6772  1.3096 -0.9136
 7883SOL    MW431300   3.501   2.653   3.121  0.0521  0.2678  0.0385
 7884SOL     OW31301   3.691   3.379   5.704 -0.0071  0.0084  0.2106
 7884SOL    HW231302   3.755   3.424   5.648  1.4576 -0.3774  1.4877
 7884SOL    HW331303   3.653   3.311   5.648  0.6718  0.2950 -0.6137
 7884SOL    MW431304   3.695   3.376   5.690 -0.0780 -0.3836  0.2685
 7885SOL     OW31305   5.734   2.570   6.144  0.6156  0.0969  0.3213
 7885SOL    HW231306   5.776   2.656   6.138  1.2586 -0.1314  1.3114
 7885SOL    HW331307   5.665   2.581   6.210  0.3823 -0.0291  0.1032
 7885SOL    MW431308   5.730   2.583   6.152  0.0850 -0.8946  0.5589
 7886SOL     OW31309   5.342   3.422   1.152  0.0520  0.1352 -0.4095
 7886SOL    HW231310   5.248   3.431   1.138 -0.1877 -0.3232  0.7921
 7886SOL    HW331311   5.380   3.427   1.065 -1.0748  0.4590 -0.8952
 7886SOL    MW431312   5.334   3.423   1.139 -0.3429 -0.3048 -0.2702
 7887SOL     OW31313   1.810   2.556   3.295  0.0632 -0.2049  0.5084
 7887SOL    HW231314   1.802   2.474   3.246  1.5329 -0.0958  0.0311
 7887SOL    HW331315   1.817   2.624   3.228  0.6987  0.1028  0.8749
 7887SOL    MW431316   1.810   2.554   3.280 -0.1259  0.0513 -1.3867
 7888SOL     OW31317   5.257   1.789   4.908 -0.1736  0.2225  0.2313
 7888SOL    HW231318   5.348   1.814   4.893  1.2059 -3.7507  0.9039
 7888SOL    HW331319   5.229   1.750   4.825 -0.7117 -0.0142  0.5201
 7888SOL    MW431320   5.265   1.787   4.895  0.3797  0.5461  0.6250
 7889SOL     OW31321   6.206   1.064   3.903 -0.1455 -0.3543  0.4720
 7889SOL    HW231322   6.255   0.989   3.869  0.1469 -0.1963  0.5384
 7889SOL    HW331323   6.225   1.065   3.996 -0.3167 -0.3219  0.5063
 7889SOL    MW431324   6.215   1.055   3.910 -0.3321 -0.3544  0.2179
 7890SOL     OW31325   4.938   3.271   5.894  0.1859 -0.3572  0.4980
 7890SOL    HW231326   4.902   3.196   5.847  1.0038  0.3859 -1.3728
 7890SOL    HW331327   4.911   3.347   5.843 -0.3154  0.6548  2.1629
 7890SOL    MW431328   4.929   3.271   5.881  0.5216  0.0058 -0.1974
 7891SOL     OW31329   5.083   0.861   2.658  0.0903 -0.3909  0.3423
 7891SOL    HW231330   5.096   0.793   2.723  1.1871 -1.3903 -0.8824
 7891SOL    HW331331   5.128   0.829   2.580 -1.0367  0.8495 -0.8628
 7891SOL    MW431332   5.091   0.848   2.656 -0.0663 -0.6691 -0.2504
 7892SOL     OW31333   3.672   1.748   2.889 -0.1268 -0.4304 -0.1623
 7892SOL    HW231334   3.618   1.733   2.967  0.8164 -1.7364  0.2751
 7892SOL    HW331335   3.633   1.691   2.822  0.3992 -1.0100  0.0156
 7892SOL    MW431336   3.659   1.738   2.890 -0.1293  0.0906  0.0578
 7893SOL     OW31337   6.455   4.807   4.235 -0.1120 -0.0097  0.1233
 7893SOL    HW231338   6.441   4.734   4.175  0.5210  0.0325 -0.0852
 7893SOL    HW331339   6.546   4.797   4.264 -0.3391  0.0989  0.9068
 7893SOL    MW431340   6.465   4.796   4.231 -0.0215 -0.0984 -0.5443
 7894SOL     OW31341   1.130   2.983   5.611 -0.1600 -0.0475 -0.1681
 7894SOL    HW231342   1.143   2.902   5.661 -0.0105 -0.6736 -1.2065
 7894SOL    HW331343   1.198   3.042   5.644 -0.5748 -0.1659  0.9378
 7894SOL    MW431344   1.141   2.980   5.622  0.5019 -0.3128  0.2766
 7895SOL     OW31345   1.936   0.343   2.833  0.9645  0.3622  0.1245
 7895SOL    HW231346   1.982   0.261   2.854  0.5071 -0.2381 -1.1173
 7895SOL    HW331347   1.855   0.315   2.791  0.7855  1.4495 -0.2944
 7895SOL    MW431348   1.932   0.328   2.830  0.1625 -0.0746 -0.4756
 7896SOL     OW31349   0.632   2.501   2.822 -1.5462  0.0214 -0.2795
 7896SOL    HW231350   0.642   2.488   2.916 -2.5153 -1.6250 -0.3603
 7896SOL    HW331351   0.568   2.435   2.795 -0.6729 -0.1112 -2.2304
 7896SOL    MW431352   0.625   2.491   2.831 -0.1400  0.4303 -0.1338
 7897SOL     OW31353   1.874   4.329   5.012 -0.2503 -0.6142 -0.3479
 7897SOL    HW231354   1.779   4.331   5.020 -0.3900 -0.2995 -1.8409
 7897SOL    HW331355   1.899   4.417   4.986  0.7266 -0.0350  2.2613
 7897SOL    MW431356   1.865   4.341   5.010 -0.6509  0.1493  0.7147
 7898SOL     OW31357   5.019   1.620   5.727 -0.1620 -0.1239 -0.1452
 7898SOL    HW231358   5.092   1.673   5.693 -0.7085 -1.1677 -3.3011
 7898SOL    HW331359   5.061   1.554   5.781  1.0493  0.3782 -0.4354
 7898SOL    MW431360   5.034   1.619   5.729  0.3674 -0.0674  0.4303
 7899SOL     OW31361   4.755   4.647   5.355 -0.1562  0.9262 -0.3831
 7899SOL    HW231362   4.701   4.704   5.410 -0.4542  1.9367 -1.6548
 7899SOL    HW331363   4.714   4.561   5.360 -1.2758  1.4458 -0.5197
 7899SOL    MW431364   4.743   4.643   5.363  0.5441 -0.1537 -0.1752
 7900SOL     OW31365   3.498   2.925   0.779  0.0587  0.3489  0.0946
 7900SOL    HW231366   3.489   2.910   0.873 -0.6976  1.2788  0.1938
 7900SOL    HW331367   3.588   2.955   0.768  0.5383 -0.9523  0.3348
 7900SOL    MW431368   3.508   2.927   0.790  0.2065 -0.0451 -0.1006
 7901SOL     OW31369   4.941   2.839   2.924  0.1307 -0.5143  0.3845
 7901SOL    HW231370   4.868   2.777   2.918 -1.1197  0.7822  1.4460
 7901SOL    HW331371   4.998   2.802   2.991 -1.7100  0.4534  2.6292
 7901SOL    MW431372   4.939   2.826   2.932  0.7198 -0.1048 -0.4652
 7902SOL     OW31373   2.920   5.153   0.551  0.4910  0.0557  0.0592
 7902SOL    HW231374   2.947   5.064   0.528  2.0945  0.2500  1.0698
 7902SOL    HW331375   2.862   5.142   0.627  0.3904 -0.1421 -0.0447
 7902SOL    MW431376   2.916   5.140   0.558 -1.0484 -0.4614  0.8206
 7903SOL     OW31377   4.217   4.651   3.369 -0.4026  0.1030 -0.0172
 7903SOL    HW231378   4.254   4.736   3.391 -1.1092  0.9201 -1.7963
 7903SOL    HW331379   4.284   4.610   3.314 -0.1321 -0.4378  0.7017
 7903SOL    MW431380   4.231   4.657   3.364  0.1259  0.0211 -0.6748
 7904SOL     OW31381   4.205   5.295   3.168  1.1377  0.1606 -0.5726
 7904SOL    HW231382   4.187   5.379   3.125  0.5953 -0.6493 -1.9731
 7904SOL    HW331383   4.301   5.290   3.169  1.2883  1.8105  1.6285
 7904SOL    MW431384   4.215   5.306   3.163  0.9082 -0.5929  0.1581
 7905SOL     OW31385   4.789   5.331   3.523 -0.3708  0.2452 -0.2735
 7905SOL    HW231386   4.753   5.355   3.438 -2.6534  1.3260  0.9115
 7905SOL    HW331387   4.778   5.410   3.576 -0.7276 -0.9920  1.5548
 7905SOL    MW431388   4.783   5.345   3.519 -0.5565  0.4125  0.1577
 7906SOL     OW31389   0.923   4.693   5.124 -0.0935 -0.9595 -0.3212
 7906SOL    HW231390   0.846   4.750   5.125 -0.2512 -1.1736 -0.0511
 7906SOL    HW331391   0.936   4.671   5.032  0.7477  0.5454 -0.6047
 7906SOL    MW431392   0.915   4.697   5.112  0.7829 -0.7379  0.3413
 7907SOL     OW31393   4.403   6.078   5.544 -0.1273  0.5264 -0.4421
 7907SOL    HW231394   4.324   6.057   5.493 -0.8143 -0.5521  0.9933
 7907SOL    HW331395   4.466   6.107   5.479 -1.2757  0.1228 -1.7978
 7907SOL    MW431396   4.401   6.079   5.529  0.4685 -0.2669 -0.0045
 7908SOL     OW31397   6.181   5.233   1.580 -0.1672  0.8373 -0.3891
 7908SOL    HW231398   6.220   5.152   1.613 -0.8132  0.5326 -0.3557
 7908SOL    HW331399   6.254   5.296   1.578  0.8852 -0.3164 -2.5094
 7908SOL    MW431400   6.196   5.231   1.584  0.5238 -0.2180  0.0730
 7909SOL     OW31401   3.019   0.477   0.538 -0.0350  0.6204 -0.2763
 7909SOL    HW231402   3.055   0.460   0.624  0.9826  0.2060 -0.7687
 7909SOL    HW331403   3.080   0.537   0.497 -0.4183  0.6839 -0.7683
 7909SOL    MW431404   3.032   0.482   0.544  0.5302 -0.1788 -0.4440
 7910SOL     OW31405   3.049   5.104   2.920 -0.7201  0.0840 -0.6367
 7910SOL    HW231406   3.029   5.179   2.864 -0.1476  1.0994  0.4563
 7910SOL    HW331407   2.981   5.107   2.988 -1.0158 -0.7282 -0.8873
 7910SOL    MW431408   3.037   5.114   2.922  0.1463  0.2811 -0.2861
 7911SOL     OW31409   3.036   3.440   2.651 -0.1303 -0.3594  0.0979
 7911SOL    HW231410   2.989   3.358   2.665 -0.0780 -0.5285 -0.7144
 7911SOL    HW331411   3.078   3.458   2.736  1.5537 -2.2396 -0.2576
 7911SOL    MW431412   3.036   3.432   2.664  0.2794 -0.2402 -0.1398
 7912SOL     OW31413   5.663   2.681   5.265 -0.4589  0.1396 -0.3951
 7912SOL    HW231414   5.745   2.635   5.282 -0.4766  0.7249  1.4639
 7912SOL    HW331415   5.687   2.751   5.205  0.2612 -0.1436 -0.4403
 7912SOL    MW431416   5.677   2.684   5.259  0.1593  0.3646  0.3839
 7913SOL     OW31417   0.632   1.616   4.499  0.2887  0.3408 -0.5864
 7913SOL    HW231418   0.726   1.606   4.485  0.7621 -1.4567  2.7355
 7913SOL    HW331419   0.620   1.708   4.520  1.4889  0.4287 -0.2283
 7913SOL    MW431420   0.643   1.627   4.500  0.4944  0.2305  0.0876
 7914SOL     OW31421   5.087   5.453   0.308 -0.2335  0.1195  0.1515
 7914SOL    HW231422   5.152   5.382   0.309  0.5480  0.7371 -1.8786
 7914SOL    HW331423   5.003   5.408   0.310  0.2110 -0.7395  1.7776
 7914SOL    MW431424   5.085   5.438   0.308  0.4163  0.1624 -0.4902
 7915SOL     OW31425   0.044   5.622   1.960  0.0458 -0.5985  0.3788
 7915SOL    HW231426   0.027   5.682   2.032 -0.9419 -2.5330  1.8298
 7915SOL    HW331427   0.117   5.662   1.913  0.2611  1.0743  2.0164
 7915SOL    MW431428   0.051   5.636   1.963 -0.1529 -0.2348  0.4842
 7916SOL     OW31429   4.508   2.997   5.921 -0.0096 -0.5559 -0.3084
 7916SOL    HW231430   4.449   3.068   5.896 -0.2003 -0.9687 -1.0429
 7916SOL    HW331431   4.546   3.026   6.004  0.9170  1.0192 -1.2331
 7916SOL    MW431432   4.505   3.010   5.929  0.4618 -0.0778  0.4266
 7917SOL     OW31433   2.620   1.024   0.402 -0.6236  0.8654 -0.3163
 7917SOL    HW231434   2.632   0.936   0.436 -1.6037 -0.6464 -3.4547
 7917SOL    HW331435   2.687   1.077   0.445  1.5726 -1.9249 -0.0557
 7917SOL    MW431436   2.630   1.020   0.412  0.2678 -0.1668  0.7581
 7918SOL     OW31437   5.359   4.395   5.328  0.2900 -0.4164  0.1781
 7918SOL    HW231438   5.368   4.455   5.255 -1.6516 -0.4735 -0.1593
 7918SOL    HW331439   5.342   4.310   5.287 -0.4391 -0.5162  0.6655
 7918SOL    MW431440   5.358   4.391   5.313 -0.2097  0.2763  0.1524
 7919SOL     OW31441   1.291   5.034   2.811  0.5590  0.6398  0.0010
 7919SOL    HW231442   1.302   4.942   2.835 -1.6138  0.2874 -0.1009
 7919SOL    HW331443   1.329   5.041   2.723  3.5280  0.6363  1.1730
 7919SOL    MW431444   1.297   5.023   2.803  0.2874 -0.0752 -0.6509
 7920SOL     OW31445   1.805   0.543   2.994 -0.2869 -0.3806  0.1501
 7920SOL    HW231446   1.845   0.477   2.938  0.5621  0.1619  0.0907
 7920SOL    HW331447   1.776   0.611   2.934  0.2558  0.0149  0.3256
 7920SOL    MW431448   1.807   0.544   2.979  0.9801  0.0674 -0.7927
 7921SOL     OW31449   4.247   4.546   5.771 -0.1921 -0.1000 -0.0188
 7921SOL    HW231450   4.247   4.453   5.746  0.3607  0.2292 -1.3534
 7921SOL    HW331451   4.193   4.588   5.704  1.3859  0.8476 -0.7526
 7921SOL    MW431452   4.240   4.539   5.759 -0.1611 -1.4870  0.5681
 7922SOL     OW31453   0.048   1.425   2.350  0.6890  0.8352 -0.1732
 7922SOL    HW231454   0.126   1.410   2.404  0.7578  0.0932 -0.4646
 7922SOL    HW331455   0.079   1.416   2.260  0.3408  0.9314 -0.3041
 7922SOL    MW431456   0.063   1.422   2.345  0.0898  0.2699 -0.2329
 7923SOL     OW31457   5.017   3.231   2.247 -0.3524 -0.2323 -0.0368
 7923SOL    HW231458   5.108   3.217   2.222 -0.2776 -0.4490  0.3496
 7923SOL    HW331459   5.022   3.277   2.331 -0.5975 -0.4906  0.1205
 7923SOL    MW431460   5.029   3.235   2.255  0.6978 -0.3927  0.5804
 7924SOL     OW31461   4.309   2.509   0.508  0.4201 -0.5327  0.5335
 7924SOL    HW231462   4.356   2.545   0.433  0.4632 -3.3470 -0.9217
 7924SOL    HW331463   4.351   2.425   0.526 -1.8993 -1.6375  1.3218
 7924SOL    MW431464   4.321   2.503   0.501  0.6039 -0.2650 -0.3099
 7925SOL     OW31465   1.436   4.765   6.001 -0.1802  0.0228  0.2595
 7925SOL    HW231466   1.509   4.772   6.061 -0.5886 -0.0486  0.7696
 7925SOL    HW331467   1.463   4.816   5.924 -0.4848  1.9116  1.3398
 7925SOL    MW431468   1.449   4.773   5.999  0.3097  0.6629 -0.0583
 7926SOL     OW31469   5.347   5.817   1.675 -0.2567 -0.0115  0.6113
 7926SOL    HW231470   5.420   5.808   1.737  2.1882  0.9362 -1.9273
 7926SOL    HW331471   5.355   5.742   1.616 -1.4730  0.0323  0.3550
 7926SOL    MW431472   5.357   5.806   1.676 -0.3314  0.5700  0.2126
 7927SOL     OW31473   3.552   4.231   2.207 -0.0941  0.2405  0.5772
 7927SOL    HW231474   3.560   4.180   2.287 -0.2719 -1.0329 -0.1883
 7927SOL    HW331475   3.474   4.285   2.221 -1.1747 -1.2668  0.5862
 7927SOL    MW431476   3.543   4.232   2.219 -0.0425  0.2441  0.4830
 7928SOL     OW31477   3.529   2.803   4.201 -0.0363 -0.2658  0.0780
 7928SOL    HW231478   3.539   2.742   4.129  1.9178 -1.1945  1.0518
 7928SOL    HW331479   3.437   2.829   4.198 -0.7514 -2.6313 -0.8768
 7928SOL    MW431480   3.518   2.798   4.191 -0.1668  0.1045  0.4213
 7929SOL     OW31481   2.154   3.763   0.404 -0.2286 -0.4418  0.7370
 7929SOL    HW231482   2.212   3.800   0.338 -1.7647 -0.9438 -0.9641
 7929SOL    HW331483   2.212   3.738   0.476  1.5804 -0.4358 -0.6653
 7929SOL    MW431484   2.169   3.765   0.405  0.5834  0.4462  0.7669
 7930SOL     OW31485   3.745   0.431   1.647  0.8975  0.0711  0.0373
 7930SOL    HW231486   3.700   0.512   1.623  0.7306 -0.0567 -0.0809
 7930SOL    HW331487   3.837   0.448   1.627  0.9889  0.5422  0.8143
 7930SOL    MW431488   3.751   0.444   1.641  0.4364 -0.2829 -0.1229
 7931SOL     OW31489   3.795   2.458   2.576  0.7094  0.0830  0.2136
 7931SOL    HW231490   3.734   2.433   2.506  1.0388 -0.5000  0.1246
 7931SOL    HW331491   3.756   2.535   2.616  0.4082  0.2988 -0.4827
 7931SOL    MW431492   3.782   2.465   2.572 -0.1734  0.8051  0.3122
 7932SOL     OW31493   3.708   5.084   0.982  0.1882 -0.1805 -0.6882
 7932SOL    HW231494   3.664   5.167   0.998 -1.7920 -1.1155 -0.9768
 7932SOL    HW331495   3.709   5.041   1.068 -2.4587 -1.4774 -1.1871
 7932SOL    MW431496   3.702   5.089   0.996  0.1580 -0.4143  0.2815
 7933SOL     OW31497   0.840   4.141   1.277 -0.1927  0.1348 -0.3834
 7933SOL    HW231498   0.879   4.153   1.364 -2.2752 -0.6714  0.7140
 7933SOL    HW331499   0.900   4.081   1.232  0.4230 -0.1793  0.8103
 7933SOL    MW431500   0.853   4.135   1.283  0.8189  0.3895 -0.1594
 7934SOL     OW31501   3.696   2.667   2.703 -0.1384 -0.2485 -0.5816
 7934SOL    HW231502   3.612   2.678   2.659  0.3104  0.3344 -1.3319
 7934SOL    HW331503   3.674   2.633   2.790 -1.0998 -0.7163 -0.9884
 7934SOL    MW431504   3.682   2.664   2.708 -0.2172 -0.2297 -0.1071
 7935SOL     OW31505   1.245   4.573   5.029 -0.6347 -0.5070 -0.1750
 7935SOL    HW231506   1.245   4.617   5.115  0.0300 -1.0842  0.1274
 7935SOL    HW331507   1.337   4.556   5.011 -0.7985 -0.6510 -0.8765
 7935SOL    MW431508   1.257   4.577   5.038 -0.3514  0.3642  0.1727
 7936SOL     OW31509   1.841   0.300   3.364  0.1338  0.5882 -0.1094
 7936SOL    HW231510   1.885   0.380   3.393  2.5997 -0.6870 -0.0990
 7936SOL    HW331511   1.855   0.298   3.269 -1.6235  1.1001 -0.4110
 7936SOL    MW431512   1.849   0.310   3.355  0.0897 -0.3566 -0.4201
 7937SOL     OW31513   2.579   0.853   2.348  0.1603 -0.1235 -0.1790
 7937SOL    HW231514   2.602   0.827   2.259 -3.3161  0.2285 -1.3592
 7937SOL    HW331515   2.624   0.936   2.362 -1.7435  1.5556 -3.0302
 7937SOL    MW431516   2.588   0.860   2.338 -0.1286  0.3436  0.5886
 7938SOL     OW31517   1.737   3.554   1.127  0.2872  0.4272  0.3843
 7938SOL    HW231518   1.762   3.588   1.213 -0.5198  2.2120 -0.0381
 7938SOL    HW331519   1.769   3.619   1.065  0.7290 -0.7666 -0.6842
 7938SOL    MW431520   1.745   3.567   1.130 -0.5029  0.4442  0.2580
 7939SOL     OW31521   1.219   1.850   5.626 -0.1891 -0.4071  0.2786
 7939SOL    HW231522   1.223   1.845   5.722 -0.4376  1.4480  0.4188
 7939SOL    HW331523   1.263   1.770   5.596  3.1459  0.6255  1.9469
 7939SOL    MW431524   1.225   1.839   5.635  0.1224  0.5047  0.0152
 7940SOL     OW31525   2.579   2.926   1.759 -0.0925 -0.3551 -0.0239
 7940SOL    HW231526   2.567   3.019   1.781  0.6978 -0.4628  0.9211
 7940SOL    HW331527   2.528   2.879   1.824 -0.1492 -0.6072 -0.2468
 7940SOL    MW431528   2.571   2.932   1.770 -0.2485  0.6874 -0.1901
 7941SOL     OW31529   3.519   4.280   1.500 -0.0719  0.6817 -0.6482
 7941SOL    HW231530   3.598   4.291   1.553  0.2586 -0.9973 -0.7405
 7941SOL    HW331531   3.517   4.358   1.444  1.1591  1.0705 -0.1933
 7941SOL    MW431532   3.529   4.292   1.499  0.3220  0.8046  0.5376
 7942SOL     OW31533   3.880   1.145   2.749 -0.5538 -0.3999  0.1359
 7942SOL    HW231534   3.794   1.148   2.790  0.1555  0.6697  1.6203
 7942SOL    HW331535   3.874   1.073   2.687 -1.8400 -1.7736  1.7670
 7942SOL    MW431536   3.868   1.136   2.746  0.1236  0.1503  0.9701
 7943SOL     OW31537   4.934   3.358   3.910 -0.6090 -0.4203 -0.0628
 7943SOL    HW231538   5.028   3.377   3.915 -0.5021 -0.7918 -0.5011
 7943SOL    HW331539   4.901   3.371   3.998 -0.2804  0.4165 -0.0605
 7943SOL    MW431540   4.942   3.362   3.922  0.2440 -0.2222  0.9069
 7944SOL     OW31541   3.494   5.361   1.419  0.3241  0.4853  0.0922
 7944SOL    HW231542   3.486   5.294   1.486 -3.1951 -0.4980 -1.0990
 7944SOL    HW331543   3.559   5.326   1.357  0.6814 -0.4094  0.9642
 7944SOL    MW431544   3.502   5.348   1.419  0.2862  0.1069 -0.1162
 7945SOL     OW31545   4.568   0.108   1.056  0.2641 -0.5910 -0.5251
 7945SOL    HW231546   4.515   0.168   1.004  0.0524 -0.7073 -0.4448
 7945SOL    HW331547   4.631   0.164   1.100 -1.1118 -0.1773  1.0128
 7945SOL    MW431548   4.569   0.123   1.055  0.1362  0.1041 -0.2753
 7946SOL     OW31549   3.106   4.562   2.318 -0.4742 -0.6114 -0.1310
 7946SOL    HW231550   3.173   4.621   2.352  0.3463 -2.0018  0.7668
 7946SOL    HW331551   3.040   4.557   2.388 -0.5039 -0.8040 -0.1715
 7946SOL    MW431552   3.106   4.569   2.332  0.1074  0.1143  0.0132
 7947SOL     OW31553   2.985   3.006   2.435 -0.1966  0.4555  0.5754
 7947SOL    HW231554   2.911   3.065   2.452  0.8284  1.8133  0.5117
 7947SOL    HW331555   3.059   3.065   2.419  0.7466 -0.8645 -0.0756
 7947SOL    MW431556   2.985   3.022   2.435  0.3455 -0.2007 -0.5866
 7948SOL     OW31557   2.562   5.457   0.425 -0.3317  0.0771  0.5505
 7948SOL    HW231558   2.473   5.481   0.398  0.1470  0.9540 -0.3141
 7948SOL    HW331559   2.615   5.534   0.405  0.1830  0.6646  3.6249
 7948SOL    MW431560   2.557   5.470   0.419  0.2894 -0.1322 -0.0789
 7949SOL     OW31561   5.068   4.020   1.729  0.0921 -0.2171  0.1275
 7949SOL    HW231562   5.104   4.107   1.747  0.7351 -0.4445 -0.0466
 7949SOL    HW331563   5.083   3.971   1.809  0.5559 -0.4370 -0.0898
 7949SOL    MW431564   5.074   4.025   1.742  0.1347  0.3385  0.6413
 7950SOL     OW31565   5.188   5.190   2.980  0.1364 -0.2961  0.4427
 7950SOL    HW231566   5.257   5.255   2.970 -1.8222  1.8359  0.0561
 7950SOL    HW331567   5.209   5.144   3.061  0.5613  2.2060  1.8482
 7950SOL    MW431568   5.200   5.192   2.990  0.2178 -0.0071  0.7878
 7951SOL     OW31569   2.180   1.484   0.425  0.1543 -0.2346 -0.0459
 7951SOL    HW231570   2.105   1.432   0.395  0.2152 -1.2625  1.4763
 7951SOL    HW331571   2.201   1.540   0.350 -1.6643 -0.4307 -0.7764
 7951SOL    MW431572   2.173   1.485   0.411  0.3968  0.2797  0.1089
 7952SOL     OW31573   6.022   2.141   1.037  0.5198  0.1146  0.2697
 7952SOL    HW231574   6.030   2.186   0.952 -0.8594 -1.8611 -1.0082
 7952SOL    HW331575   6.083   2.187   1.094  0.5542  2.3686 -1.4267
 7952SOL    MW431576   6.031   2.153   1.033  0.2741  0.7245  0.0773
 7953SOL     OW31577   0.905   4.265   5.609 -0.0092  0.1253  0.2302
 7953SOL    HW231578   0.812   4.254   5.630  0.3291 -0.2885  1.5684
 7953SOL    HW331579   0.939   4.322   5.678  0.9790 -0.6204  0.3749
 7953SOL    MW431580   0.897   4.271   5.621  0.0572 -0.4888 -0.4775
 7954SOL     OW31581   2.230   5.198   5.037 -0.1622 -0.4894 -0.4666
 7954SOL    HW231582   2.272   5.129   4.986  1.9258  1.2615 -1.2842
 7954SOL    HW331583   2.296   5.222   5.103 -1.3350 -0.1315  0.6034
 7954SOL    MW431584   2.245   5.192   5.039 -0.0715  0.3674 -0.0189
 7955SOL     OW31585   2.189   4.779   3.446  0.4191  0.0226  0.3934
 7955SOL    HW231586   2.273   4.770   3.401  0.6766  0.3496  0.7986
 7955SOL    HW331587   2.124   4.767   3.377  0.7929 -0.4885  0.1233
 7955SOL    MW431588   2.192   4.776   3.431  0.0071 -0.7306  0.1962
 7956SOL     OW31589   3.326   1.886   4.062  0.8025 -0.5643  0.0267
 7956SOL    HW231590   3.333   1.798   4.024  2.0979 -0.0570 -0.9522
 7956SOL    HW331591   3.372   1.879   4.146  0.7056 -0.8545  0.0599
 7956SOL    MW431592   3.333   1.873   4.068  0.1912  0.4737 -0.6626
 7957SOL     OW31593   3.692   5.014   6.253  0.1474 -0.2811 -0.0486
 7957SOL    HW231594   3.771   4.976   6.292 -0.6204 -0.8955  0.9512
 7957SOL    HW331595   3.692   4.981   6.163  1.0655 -0.1963 -0.0942
 7957SOL    MW431596   3.703   5.005   6.246  0.5387  0.4789 -0.6658
 7958SOL     OW31597   1.935   0.917   0.735  0.4204  0.3587  0.2961
 7958SOL    HW231598   1.853   0.868   0.740  0.4030  0.2084 -1.0385
 7958SOL    HW331599   2.000   0.853   0.706  1.2317  0.2741  2.1217
 7958SOL    MW431600   1.933   0.902   0.732 -0.1681 -0.3045  0.2726
 7959SOL     OW31601   0.241   5.545   4.996 -0.1697  0.1560  0.3796
 7959SOL    HW231602   0.223   5.452   5.006  1.3530 -0.4198 -1.5094
 7959SOL    HW331603   0.241   5.559   4.901  1.6057  1.6270  0.5421
 7959SOL    MW431604   0.239   5.535   4.984 -0.2607 -0.3476 -0.1143
 7960SOL     OW31605   2.501   3.853   1.471  0.3096  0.0176 -0.1635
 7960SOL    HW231606   2.467   3.933   1.512 -0.4144 -0.4241  0.1071
 7960SOL    HW331607   2.528   3.880   1.383  0.0321  0.5489 -0.0859
 7960SOL    MW431608   2.500   3.867   1.465  0.4905  0.8909 -0.0642
 7961SOL     OW31609   2.134   5.441   1.230 -0.2255 -0.1368  0.3534
 7961SOL    HW231610   2.198   5.512   1.237 -0.1021 -0.3052  1.0251
 7961SOL    HW331611   2.071   5.459   1.301 -0.1252 -0.7582  0.6059
 7961SOL    MW431612   2.134   5.453   1.241 -0.0420 -0.4152 -0.5052
 7962SOL     OW31613   1.781   6.279   1.464  0.6124 -0.3750  0.1728
 7962SOL    HW231614   1.804   6.371   1.452  2.0599 -0.7343 -0.0399
 7962SOL    HW331615   1.848   6.245   1.523 -1.0518 -0.8415  1.8753
 7962SOL    MW431616   1.793   6.286   1.470  0.1562 -0.3203 -0.1687
 7963SOL     OW31617   4.545   1.640   6.179 -0.0353 -0.0154  0.2551
 7963SOL    HW231618   4.456   1.617   6.151 -0.1363 -0.4677  0.9014
 7963SOL    HW331619   4.562   1.724   6.138  1.1611 -2.0784 -4.0094
 7963SOL    MW431620   4.535   1.648   6.170 -0.2583  0.0566  0.4893
 7964SOL     OW31621   4.437   1.045   2.287 -0.3653  0.0516  0.3364
 7964SOL    HW231622   4.458   1.009   2.372 -1.8709 -0.2484  0.6169
 7964SOL    HW331623   4.350   1.084   2.298 -1.2790 -1.3298 -1.4263
 7964SOL    MW431624   4.428   1.046   2.300  0.0508 -0.0773  0.3523
 7965SOL     OW31625   2.499   0.152   0.187 -0.1078  0.3577 -0.2691
 7965SOL    HW231626   2.593   0.147   0.171 -0.3260 -0.2267 -1.4543
 7965SOL    HW331627   2.459   0.110   0.111 -1.2938 -0.6160  0.8381
 7965SOL    MW431628   2.506   0.146   0.175  0.1077 -0.3044  0.0260
 7966SOL     OW31629   1.115   2.737   0.204 -0.2180 -0.7797  0.1109
 7966SOL    HW231630   1.134   2.654   0.248  0.9905 -1.2311 -1.2047
 7966SOL    HW331631   1.199   2.766   0.170 -0.7456  0.6878  0.0079
 7966SOL    MW431632   1.128   2.730   0.206  0.2868 -0.3291  0.0092
 7967SOL     OW31633   3.542   6.015   1.410  0.5850  0.0054 -0.2260
 7967SOL    HW231634   3.538   6.066   1.329  0.7290  0.6963  0.1897
 7967SOL    HW331635   3.626   6.040   1.449  1.5359 -1.9611 -0.9112
 7967SOL    MW431636   3.553   6.025   1.404 -0.0974 -0.6854 -0.3212
 7968SOL     OW31637   4.026   0.989   4.113 -0.3544  0.1845  0.2313
 7968SOL    HW231638   4.044   1.046   4.038  0.4208 -3.1908 -2.4650
 7968SOL    HW331639   4.112   0.971   4.151 -0.3541 -0.5257 -0.0869
 7968SOL    MW431640   4.040   0.994   4.108  0.0639  0.3614 -0.1774
 7969SOL     OW31641   0.640   1.388   0.396 -0.3604  0.1946  0.4025
 7969SOL    HW231642   0.608   1.324   0.333  2.0913 -0.9193  0.1891
 7969SOL    HW331643   0.611   1.354   0.481 -1.1889  0.1644  0.1230
 7969SOL    MW431644   0.632   1.375   0.399 -0.2492 -0.3181 -0.0784
 7970SOL     OW31645   0.402   5.624   5.212  0.1891 -0.5510 -0.4790
 7970SOL    HW231646   0.345   5.597   5.139 -0.5953 -0.5055  0.1033
 7970SOL    HW331647   0.343   5.667   5.273  0.7860 -0.8651  0.3300
 7970SOL    MW431648   0.386   5.626   5.210 -0.1686 -0.1812 -0.4928
 7971SOL     OW31649   3.784   4.540   4.131  0.0036 -0.5599 -0.4048
 7971SOL    HW231650   3.858   4.595   4.156  0.0798 -1.0026  0.3565
 7971SOL    HW331651   3.803   4.455   4.170 -0.8580 -0.7045 -0.2870
 7971SOL    MW431652   3.796   4.536   4.139 -0.1249  0.3614 -0.3358
 7972SOL     OW31653   1.469   3.677   3.151  0.5575  0.1714  0.3082
 7972SOL    HW231654   1.428   3.729   3.220  1.8981  1.6584  0.0521
 7972SOL    HW331655   1.534   3.624   3.197  2.2218  1.9550  0.1724
 7972SOL    MW431656   1.472   3.677   3.166 -0.2166 -0.8156 -0.0379
 7973SOL     OW31657   2.914   4.673   1.752  0.0426 -0.0158  0.2119
 7973SOL    HW231658   2.995   4.626   1.770 -0.4758 -0.9238  0.1967
 7973SOL    HW331659   2.881   4.636   1.670 -0.1742  0.6415 -0.0090
 7973SOL    MW431660   2.920   4.662   1.744 -0.3559  0.0707  0.6247
 7974SOL     OW31661   2.808   2.460   0.175  0.2430 -0.5615  0.2919
 7974SOL    HW231662   2.759   2.415   0.106 -0.2588  1.0206 -0.4332
 7974SOL    HW331663   2.822   2.548   0.141  2.5114 -0.5828  1.0355
 7974SOL    MW431664   2.803   2.466   0.161 -0.4370 -0.3411 -0.5609
 7975SOL     OW31665   2.830   5.014   6.232 -0.2096  0.0913 -0.6441
 7975SOL    HW231666   2.885   4.935   6.234 -2.3053 -1.4289  0.5683
 7975SOL    HW331667   2.882   5.079   6.280  1.0052 -0.9306 -0.4975
 7975SOL    MW431668   2.844   5.012   6.239  0.5556  0.8700 -0.0429
 7976SOL     OW31669   5.532   4.113   2.869 -0.6885 -0.6043 -0.1675
 7976SOL    HW231670   5.529   4.158   2.954 -1.3312 -0.6627 -0.1505
 7976SOL    HW331671   5.528   4.184   2.805  0.3013 -0.5280 -0.1656
 7976SOL    MW431672   5.531   4.128   2.872 -0.1237 -0.2309 -0.5975
 7977SOL     OW31673   2.082   5.926   4.217  0.1540 -0.3762  0.0583
 7977SOL    HW231674   2.087   5.832   4.234  0.6564  0.0546  2.5886
 7977SOL    HW331675   2.008   5.956   4.270  1.0462  0.9104  0.6124
 7977SOL    MW431676   2.073   5.918   4.226 -0.7110 -0.0727  0.0635
 7978SOL     OW31677   5.835   5.323   5.056  0.2183 -0.0453  0.1100
 7978SOL    HW231678   5.878   5.239   5.045  0.1695 -0.0327 -0.1833
 7978SOL    HW331679   5.853   5.348   5.147 -0.1401 -0.5828  0.3317
 7978SOL    MW431680   5.843   5.315   5.067  0.1529  0.5701 -0.1624
 7979SOL     OW31681   0.182   4.397   1.485  0.0856  0.1318 -0.2055
 7979SOL    HW231682   0.090   4.413   1.505  0.2647  2.2755 -0.8782
 7979SOL    HW331683   0.230   4.463   1.536  1.1019  0.2213 -1.2179
 7979SOL    MW431684   0.177   4.408   1.494 -0.0652  0.3133 -0.6223
 7980SOL     OW31685   5.285   2.893   1.351 -0.2532  0.4064 -0.0064
 7980SOL    HW231686   5.202   2.847   1.364 -1.0312  2.2604  2.2909
 7980SOL    HW331687   5.259   2.984   1.337  1.3855  0.8699 -0.1560
 7980SOL    MW431688   5.270   2.899   1.351 -0.1713  0.7037 -0.1621
 7981SOL     OW31689   0.507   0.001   0.656  0.5827  0.6598 -0.3493
 7981SOL    HW231690   0.414   0.023   0.653  0.6517  1.1669 -3.9321
 7981SOL    HW331691   0.530  -0.014   0.564  3.8372 -0.4568  0.5224
 7981SOL    MW431692   0.498   0.002   0.643  0.0853  0.1056 -0.6355
 7982SOL     OW31693   0.365   3.521   4.210 -0.1656  0.0166 -0.2475
 7982SOL    HW231694   0.420   3.571   4.270 -0.4765 -0.8441  0.7942
 7982SOL    HW331695   0.318   3.587   4.160 -1.2872  0.8407  1.7586
 7982SOL    MW431696   0.366   3.536   4.211  0.3521  0.3209 -0.0861
 7983SOL     OW31697   2.842   1.927   4.622 -0.1136  0.3386  0.8583
 7983SOL    HW231698   2.806   2.009   4.589 -0.3401 -0.3140 -0.6052
 7983SOL    HW331699   2.937   1.937   4.612 -0.1312  0.4929  0.8447
 7983SOL    MW431700   2.850   1.939   4.616  0.5978 -0.6006 -0.7367
 7984SOL     OW31701   0.367   3.317   2.098 -0.4552 -0.6533 -0.4574
 7984SOL    HW231702   0.403   3.341   2.013 -0.1495  1.2231  0.1510
 7984SOL    HW331703   0.282   3.277   2.078 -1.1904  1.3426 -1.5992
 7984SOL    MW431704   0.360   3.315   2.084 -0.1205  0.1320  0.0481
 7985SOL     OW31705   4.917   0.144   6.035 -0.0422  0.0212 -0.0415
 7985SOL    HW231706   4.859   0.212   6.069  0.8715  0.1973  1.2809
 7985SOL    HW331707   4.985   0.136   6.102 -0.0061 -2.0439 -0.2724
 7985SOL    MW431708   4.918   0.152   6.049  0.5608  0.2853  0.5243
 7986SOL     OW31709   0.673   6.384   3.283  0.4606 -0.4045 -0.3155
 7986SOL    HW231710   0.653   6.411   3.193 -0.1695 -1.2384 -0.4387
 7986SOL    HW331711   0.749   6.437   3.307  0.0011  0.5925 -0.9626
 7986SOL    MW431712   0.681   6.395   3.274 -0.3491  0.2577 -0.3914
 7987SOL     OW31713   0.036   2.838   1.139 -0.2810 -0.0919  0.2997
 7987SOL    HW231714   0.054   2.745   1.154 -1.2807 -0.3083  0.2221
 7987SOL    HW331715   0.120   2.874   1.109 -0.7838 -1.9081 -4.1097
 7987SOL    MW431716   0.050   2.831   1.137 -0.0267 -0.1744  0.3781
 7988SOL     OW31717   2.402   0.985   2.550  0.0127  0.1810 -0.7203
 7988SOL    HW231718   2.457   0.930   2.493 -0.0914  2.1331 -2.8422
 7988SOL    HW331719   2.313   0.970   2.519 -0.1596  0.5511 -0.4029
 7988SOL    MW431720   2.398   0.976   2.538  0.4914 -0.3240  0.0659
 7989SOL     OW31721   5.949   0.005   2.269 -0.3582  0.1344  0.2406
 7989SOL    HW231722   5.958   0.100   2.267 -1.0640  0.2080  0.2726
 7989SOL    HW331723   5.889  -0.015   2.197  2.4775 -0.6207 -2.0866
 7989SOL    MW431724   5.942   0.015   2.259  0.2899 -0.0957 -0.1337
 7990SOL     OW31725   6.236   2.309   6.260 -0.2842  0.0940  0.5257
 7990SOL    HW231726   6.283   2.298   6.178  2.2093 -1.3497  2.0332
 7990SOL    HW331727   6.227   2.221   6.296 -1.2933  0.6878  1.8543
 7990SOL    MW431728   6.241   2.296   6.254  0.4583  0.1606 -1.0819
 7991SOL     OW31729   5.097   0.145   6.237 -0.0221  0.3221  0.1308
 7991SOL    HW231730   5.060   0.234   6.236 -1.5652 -0.2900 -0.5158
 7991SOL    HW331731   5.175   0.152   6.181 -1.5409  0.7509 -2.0795
 7991SOL    MW431732   5.103   0.158   6.229 -0.0906  0.4946 -0.7070
 7992SOL     OW31733   0.255   0.528   0.333 -0.3918  0.1897 -0.7197
 7992SOL    HW231734   0.242   0.473   0.255  0.4281 -0.5671 -0.3420
 7992SOL    HW331735   0.298   0.607   0.299  0.7217 -0.4856 -0.9515
 7992SOL    MW431736   0.259   0.531   0.318  0.8095  0.8583 -1.1454
 7993SOL     OW31737   3.822   2.091   6.394 -0.1598 -0.7866  0.6391
 7993SOL    HW231738   3.742   2.137   6.366 -0.1024 -0.1718  1.4375
 7993SOL    HW331739   3.880   2.098   6.319 -0.7118 -0.8871  0.1937
 7993SOL    MW431740   3.819   2.098   6.381  0.4757 -0.1024  0.1912
 7994SOL     OW31741   6.303   5.705   4.591 -0.0147  0.3532 -0.1256
 7994SOL    HW231742   6.214   5.669   4.585 -0.0471  0.5645 -1.1070
 7994SOL    HW331743   6.357   5.630   4.618 -0.3705  0.0351 -0.2831
 7994SOL    MW431744   6.298   5.690   4.594  0.2452  0.0891 -0.6090
 7995SOL     OW31745   3.634   4.505   2.623 -0.1129  0.0320 -0.4440
 7995SOL    HW231746   3.725   4.532   2.633 -0.4104  0.9497 -0.0227
 7995SOL    HW331747   3.633   4.412   2.646  0.5849  0.1994  0.3126
 7995SOL    MW431748   3.646   4.497   2.627 -0.5831 -0.1072  0.5914
 7996SOL     OW31749   2.273   4.329   5.565 -0.1635 -0.1702  0.2350
 7996SOL    HW231750   2.357   4.353   5.604 -1.4055  0.4122  2.7897
 7996SOL    HW331751   2.248   4.405   5.514  0.6358 -0.1638 -0.1582
 7996SOL    MW431752   2.281   4.342   5.564 -0.2803 -0.5882 -0.0232
 7997SOL     OW31753   4.973   5.411   1.726 -1.0657 -0.5624  0.5162
 7997SOL    HW231754   5.034   5.470   1.769 -1.6034 -1.0994  2.0755
 7997SOL    HW331755   5.017   5.386   1.645  0.3520 -0.1672  1.1355
 7997SOL    MW431756   4.987   5.416   1.721 -1.1818 -0.0301  0.7385
 7998SOL     OW31757   2.548   3.069   6.246 -1.3940 -0.5753  0.2830
 7998SOL    HW231758   2.642   3.058   6.258 -1.5169 -1.3665  0.6044
 7998SOL    HW331759   2.538   3.106   6.158 -0.7556  0.1222  0.4924
 7998SOL    MW431760   2.559   3.073   6.236 -0.0369  0.0883  0.1664
 7999SOL     OW31761   3.145   2.663   1.572  0.1827 -0.0444 -0.1559
 7999SOL    HW231762   3.167   2.577   1.609  2.2956 -0.1431 -1.4672
 7999SOL    HW331763   3.169   2.657   1.480  0.8432  2.0653 -0.1905
 7999SOL    MW431764   3.151   2.651   1.565  0.1484  0.0508  0.1655
 8000SOL     OW31765   1.962   5.397   0.281  0.0548 -0.0990  0.1864
 8000SOL    HW231766   1.895   5.336   0.251  0.1911 -1.3796  2.3105
 8000SOL    HW331767   1.939   5.417   0.371 -0.5055  3.8055 -0.6291
 8000SOL    MW431768   1.950   5.392   0.289  0.2486  0.4550  0.3758
 8001SOL     OW31769   1.012   2.197   3.035 -0.2625  0.1795  0.1938
 8001SOL    HW231770   0.957   2.253   2.980 -0.3024 -1.1015 -1.1331
 8001SOL    HW331771   0.964   2.115   3.041  1.0979 -0.6853 -0.2984
 8001SOL    MW431772   0.998   2.194   3.029  0.0104 -0.0062  0.0086
 8002SOL     OW31773   6.067   1.233   1.708  0.0570 -0.0990  0.3790
 8002SOL    HW231774   6.123   1.281   1.768  1.3408  1.3885 -1.8907
 8002SOL    HW331775   5.978   1.257   1.734  0.6040  1.3825  0.9905
 8002SOL    MW431776   6.063   1.242   1.719  0.3555  0.0449 -0.6745
 8003SOL     OW31777   2.096   5.780   6.222  0.1659  0.3144  0.0618
 8003SOL    HW231778   2.084   5.723   6.298 -0.5691  0.5213  0.1079
 8003SOL    HW331779   2.189   5.775   6.203  0.2535 -0.2250  0.5989
 8003SOL    MW431780   2.106   5.772   6.229 -0.0240  0.3388  0.1195
 8004SOL     OW31781   3.207   5.729   2.610  0.4263  0.1981 -0.2039
 8004SOL    HW231782   3.113   5.744   2.618  0.2289 -1.2586  0.4150
 8004SOL    HW331783   3.241   5.743   2.699  0.6597 -0.1144 -0.2422
 8004SOL    MW431784   3.199   5.733   2.623  0.1108 -0.4191  0.2352
 8005SOL     OW31785   0.148   3.465   1.345  0.3164 -0.5820  0.9179
 8005SOL    HW231786   0.132   3.557   1.324 -1.5998 -0.9049  0.8276
 8005SOL    HW331787   0.237   3.448   1.313  1.0786  1.4603  1.7633
 8005SOL    MW431788   0.158   3.475   1.338 -0.2184  0.1417  0.6535
 8006SOL     OW31789   5.419   1.424   5.361 -0.3340 -0.4881 -0.0448
 8006SOL    HW231790   5.388   1.491   5.422 -0.8152 -1.3431  0.6757
 8006SOL    HW331791   5.458   1.357   5.416 -2.8820 -2.4306 -0.3894
 8006SOL    MW431792   5.420   1.424   5.376  0.0472  0.0878 -0.1694
 8007SOL     OW31793   5.786   1.688   2.277  0.6305 -0.4403  0.0918
 8007SOL    HW231794   5.811   1.764   2.223  1.3662 -0.3656  0.5152
 8007SOL    HW331795   5.818   1.612   2.228  0.4008 -0.4413 -0.0581
 8007SOL    MW431796   5.794   1.688   2.264 -0.1821 -0.2466  0.1504
 8008SOL     OW31797   2.108   0.344   5.333  0.2996 -0.3005  0.3422
 8008SOL    HW231798   2.072   0.393   5.259  0.6461  2.2817  1.7667
 8008SOL    HW331799   2.157   0.273   5.293  1.4367  1.6531 -1.9893
 8008SOL    MW431800   2.110   0.341   5.318  0.3750  0.1463 -0.8216
 8009SOL     OW31801   4.161   1.489   3.244 -0.1709 -0.0845  0.1025
 8009SOL    HW231802   4.192   1.497   3.154 -1.0615  2.0723 -0.0676
 8009SOL    HW331803   4.237   1.509   3.298 -0.1850  0.8895 -0.2294
 8009SOL    MW431804   4.175   1.492   3.240  0.0791  0.2352  0.1723
 8010SOL     OW31805   6.231   2.850   2.796  0.2837  0.6787 -0.3276
 8010SOL    HW231806   6.166   2.918   2.776 -0.5189 -0.1259 -0.5234
 8010SOL    HW331807   6.293   2.893   2.855 -1.3502  1.0243  1.2413
 8010SOL    MW431808   6.231   2.865   2.802  0.2831 -0.1200 -0.4042
 8011SOL     OW31809   5.992   0.878   0.692  0.5034  0.4912 -0.7501
 8011SOL    HW231810   6.079   0.873   0.732  1.3552 -1.4848 -2.6394
 8011SOL    HW331811   5.997   0.954   0.634  0.6708  0.8762 -0.2424
 8011SOL    MW431812   6.004   0.887   0.689  0.4377  0.1274 -0.5566
 8012SOL     OW31813   2.475   1.834   0.823  0.6215  0.2667  0.1325
 8012SOL    HW231814   2.410   1.899   0.846  1.7537  1.0928  1.1159
 8012SOL    HW331815   2.519   1.813   0.905  1.9679  0.1586 -0.5828
 8012SOL    MW431816   2.473   1.840   0.837  0.1477 -0.4846  0.7711
 8013SOL     OW31817   1.576   1.679   0.353 -0.2763  0.9831 -0.2554
 8013SOL    HW231818   1.606   1.588   0.361 -0.3218  1.0632  1.0129
 8013SOL    HW331819   1.574   1.711   0.443 -0.9316  2.0299 -0.6306
 8013SOL    MW431820   1.579   1.671   0.366  0.2857  0.4923  0.5446
 8014SOL     OW31821   4.265   4.265   5.773 -0.1332 -0.5333  0.2885
 8014SOL    HW231822   4.246   4.182   5.729 -0.7275 -0.6210  0.7020
 8014SOL    HW331823   4.337   4.244   5.833 -0.4094 -0.8009  0.5319
 8014SOL    MW431824   4.272   4.251   5.775 -0.1546  0.1119 -0.2637
 8015SOL     OW31825   5.889   3.385   5.764 -0.1649 -0.1773  0.2347
 8015SOL    HW231826   5.910   3.394   5.857 -0.2522 -0.0369  0.2399
 8015SOL    HW331827   5.975   3.378   5.721 -0.0511  1.5791  0.1252
 8015SOL    MW431828   5.903   3.385   5.771  0.0271 -0.7268 -0.1158
 8016SOL     OW31829   4.440   1.033   1.541  0.5543 -0.1795  0.4036
 8016SOL    HW231830   4.456   1.106   1.601 -0.4472  0.2253  0.2059
 8016SOL    HW331831   4.353   1.051   1.505 -0.2669 -2.1093  1.2896
 8016SOL    MW431832   4.430   1.045   1.544 -0.1652  0.0148 -0.6097
 8017SOL     OW31833   3.155   1.466   2.807  0.0297  0.6511  0.1416
 8017SOL    HW231834   3.113   1.423   2.881  1.3981 -0.2697  0.4170
 8017SOL    HW331835   3.086   1.474   2.741 -1.0035  0.7747  1.2060
 8017SOL    MW431836   3.141   1.462   2.808 -0.5580  0.1840 -0.3122
 8018SOL     OW31837   5.200   1.252   2.156  0.4145  0.0006 -0.1019
 8018SOL    HW231838   5.271   1.308   2.123  0.5565  1.1297  1.9778
 8018SOL    HW331839   5.237   1.210   2.233 -0.1228 -2.0526 -0.8966
 8018SOL    MW431840   5.214   1.254   2.162  0.2765  0.4398 -0.0737
 8019SOL     OW31841   4.938   2.462   3.549 -0.4919  0.0049 -0.5016
 8019SOL    HW231842   4.932   2.387   3.489 -2.0147  0.3515 -0.8423
 8019SOL    HW331843   4.969   2.425   3.631  1.7052 -0.4820 -1.4913
 8019SOL    MW431844   4.941   2.447   3.552  0.2524  0.2260 -0.6003
 8020SOL     OW31845   5.525   3.568   2.398 -0.5540 -0.9809  0.0905
 8020SOL    HW231846   5.532   3.658   2.430 -1.4415 -0.8913  0.0666
 8020SOL    HW331847   5.605   3.555   2.347 -0.9891  0.2441 -0.9691
 8020SOL    MW431848   5.536   3.578   2.395 -0.1399 -0.2974  0.1881
 8021SOL     OW31849   5.980   0.207   5.675  0.4195 -0.2631  0.1874
 8021SOL    HW231850   6.011   0.292   5.707 -0.8784  1.5205 -2.8094
 8021SOL    HW331851   5.908   0.184   5.733  2.4600 -0.8225  2.7227
 8021SOL    MW431852   5.975   0.215   5.687  0.0246  0.0204  0.1580
 8022SOL     OW31853   4.058   0.526   1.739  0.0342  0.3703  0.1180
 8022SOL    HW231854   4.060   0.545   1.645 -0.1744 -0.1466  0.0059
 8022SOL    HW331855   4.044   0.431   1.744  1.5948  0.1296  0.6468
 8022SOL    MW431856   4.056   0.516   1.727  0.3540  0.0832 -0.3243
 8023SOL     OW31857   3.858   2.297   0.913 -0.3183  0.3078 -0.1202
 8023SOL    HW231858   3.828   2.207   0.923 -0.7085  0.3234 -1.0700
 8023SOL    HW331859   3.948   2.289   0.883 -0.0100  0.2525  0.7804
 8023SOL    MW431860   3.866   2.284   0.910  0.0210 -0.5421  0.1996
 8024SOL     OW31861   3.527   0.955   0.034  0.0042  0.0887  0.0370
 8024SOL    HW231862   3.456   0.896   0.009 -1.1265 -0.3116  3.6156
 8024SOL    HW331863   3.487   1.042   0.034  0.7991  0.5231 -2.0808
 8024SOL    MW431864   3.512   0.959   0.030  0.2045  0.6714  0.0389
 8025SOL     OW31865   5.086   3.779   0.237 -0.0627  0.4535  0.4948
 8025SOL    HW231866   5.035   3.856   0.214 -0.5321 -0.0970 -0.3635
 8025SOL    HW331867   5.177   3.807   0.231 -0.2169  0.8018 -0.3196
 8025SOL    MW431868   5.091   3.793   0.234  0.1480  0.1721 -0.9352
 8026SOL     OW31869   5.630   2.555   1.533  0.4048  0.1011 -0.6788
 8026SOL    HW231870   5.718   2.592   1.533 -0.2130  1.6975  0.4425
 8026SOL    HW331871   5.574   2.625   1.567 -1.4846 -0.4735 -2.3783
 8026SOL    MW431872   5.634   2.569   1.537 -0.6525  0.4413 -0.1785
 8027SOL     OW31873   6.286   0.476   6.161  0.2511 -0.0888 -0.5624
 8027SOL    HW231874   6.371   0.496   6.121  1.7180 -3.5832  0.3698
 8027SOL    HW331875   6.294   0.507   6.251  0.8820 -1.0161 -0.2790
 8027SOL    MW431876   6.299   0.483   6.167  0.2770  0.9927  0.2186
 8028SOL     OW31877   1.179   3.941   2.116 -0.2483  0.2493  0.2267
 8028SOL    HW231878   1.218   3.868   2.164  0.1062 -0.5080 -1.1433
 8028SOL    HW331879   1.253   3.993   2.085 -0.4532  0.5235  0.1880
 8028SOL    MW431880   1.194   3.938   2.118 -0.4037  0.1220 -0.7755
 8029SOL     OW31881   5.797   3.242   2.532 -0.0365  0.0347 -0.0626
 8029SOL    HW231882   5.788   3.165   2.588  1.8207  0.3986  0.8281
 8029SOL    HW331883   5.754   3.218   2.450 -1.5883 -1.0382  1.0103
 8029SOL    MW431884   5.790   3.229   2.528 -0.2322 -0.3796 -0.4258
 8030SOL     OW31885   5.007   5.264   5.178 -0.5225  0.1663  0.7847
 8030SOL    HW231886   4.981   5.298   5.264 -1.7972 -1.9667  1.3064
 8030SOL    HW331887   4.933   5.282   5.121  0.2347  1.3789  0.1258
 8030SOL    MW431888   4.994   5.271   5.182 -0.2621  0.5785 -0.1976
 8031SOL     OW31889   2.733   0.493   5.318  0.4932  0.1700  0.2304
 8031SOL    HW231890   2.720   0.487   5.413 -3.1579  0.3128 -0.1201
 8031SOL    HW331891   2.679   0.422   5.283  0.8969  0.8084 -1.7777
 8031SOL    MW431892   2.724   0.483   5.326 -0.1624 -0.7092  0.2954
 8032SOL     OW31893   0.600   2.338   0.814 -0.4343  0.0297  0.3036
 8032SOL    HW231894   0.652   2.321   0.893 -1.5561 -1.8611  0.7035
 8032SOL    HW331895   0.653   2.399   0.763  1.0536  0.0401  1.7777
 8032SOL    MW431896   0.614   2.344   0.818 -0.5255 -0.1055 -0.2268
 8033SOL     OW31897   4.224   3.167   0.036  0.2495  0.3214 -0.3672
 8033SOL    HW231898   4.243   3.094  -0.023 -0.3466  0.1606 -0.3638
 8033SOL    HW331899   4.128   3.169   0.043  0.1265  2.2293 -1.8101
 8033SOL    MW431900   4.214   3.157   0.029 -0.1327 -0.3276 -0.5157
 8034SOL     OW31901   1.134   4.626   5.848 -0.0578 -0.1018  0.2641
 8034SOL    HW231902   1.090   4.619   5.763 -1.2083 -0.0201  0.8363
 8034SOL    HW331903   1.072   4.672   5.904  0.9795  0.4941  0.9646
 8034SOL    MW431904   1.120   4.631   5.844  0.9138 -0.3214  0.1042
 8035SOL     OW31905   2.095   0.116   2.876 -0.2322  0.0458 -0.0051
 8035SOL    HW231906   2.104   0.046   2.812  1.6501 -2.0803  2.3585
 8035SOL    HW331907   2.177   0.164   2.873 -1.0909  1.5476 -0.8408
 8035SOL    MW431908   2.107   0.113   2.867  0.6118  0.1222 -0.8480
 8036SOL     OW31909   2.888   0.122   5.237 -0.4070 -0.2022  0.0983
 8036SOL    HW231910   2.934   0.085   5.312 -0.6609  0.1206  0.4187
 8036SOL    HW331911   2.795   0.110   5.258 -0.5192 -2.5339 -1.3711
 8036SOL    MW431912   2.882   0.116   5.250  0.2972 -0.0692 -0.3742
 8037SOL     OW31913   4.377   1.388   3.680 -0.3766  0.1108 -0.2284
 8037SOL    HW231914   4.336   1.315   3.633 -1.7366  0.7659 -0.1242
 8037SOL    HW331915   4.303   1.434   3.720  0.6020  0.5815  1.1050
 8037SOL    MW431916   4.362   1.384   3.679 -0.0057 -0.3072 -0.0408
 8038SOL     OW31917   1.580   3.866   4.599 -0.2953  0.2704  0.7423
 8038SOL    HW231918   1.513   3.911   4.547  0.3956  0.0747 -0.3572
 8038SOL    HW331919   1.560   3.773   4.588  0.1776  0.2091  0.3587
 8038SOL    MW431920   1.569   3.860   4.590 -0.2307 -0.2091  0.1828
 8039SOL     OW31921   4.730   2.839   3.814 -0.8422 -0.1468  0.2126
 8039SOL    HW231922   4.689   2.753   3.802  1.0197 -0.9884 -0.5919
 8039SOL    HW331923   4.798   2.824   3.879  2.3017 -0.4462 -2.7961
 8039SOL    MW431924   4.734   2.826   3.821  0.1759  0.1527 -0.2369
 8040SOL     OW31925   5.192   4.418   4.959  0.0554  0.1371 -0.3048
 8040SOL    HW231926   5.246   4.474   5.016 -1.1311 -1.5747  2.7600
 8040SOL    HW331927   5.111   4.468   4.948 -0.0005  0.1615  0.1847
 8040SOL    MW431928   5.188   4.432   4.965 -0.3330 -0.3095  0.2548
 8041SOL     OW31929   0.937   5.647   3.302 -0.0310  0.3449 -0.1806
 8041SOL    HW231930   1.002   5.593   3.346 -0.1514  1.6815  1.7462
 8041SOL    HW331931   0.906   5.592   3.229  1.6341 -1.1609  0.1697
 8041SOL    MW431932   0.941   5.632   3.298  0.3336 -0.0737  1.0417
 8042SOL     OW31933   2.985   0.370   5.300  0.2621  0.1070 -0.1640
 8042SOL    HW231934   2.932   0.297   5.267  0.1980  0.8235 -1.7644
 8042SOL    HW331935   2.928   0.446   5.293  1.1329  0.7187 -0.9665
 8042SOL    MW431936   2.970   0.370   5.294  0.2314  0.1511 -0.1653
 8043SOL     OW31937   2.959   5.051   3.615  0.0997 -0.8381 -0.1999
 8043SOL    HW231938   3.006   5.036   3.534 -2.1214 -1.4984 -1.4561
 8043SOL    HW331939   2.934   5.144   3.611 -0.3758 -0.9765 -0.4896
 8043SOL    MW431940   2.962   5.062   3.604  0.0896  0.1923  0.3751
 8044SOL     OW31941   5.280   5.998   2.035 -0.6193  0.2865 -0.0846
 8044SOL    HW231942   5.336   5.982   2.111 -0.6675  1.1288  0.1386
 8044SOL    HW331943   5.243   5.912   2.014 -1.4018  0.2077  1.4893
 8044SOL    MW431944   5.282   5.984   2.042  0.0828 -0.2721  0.5011
 8045SOL     OW31945   3.236   2.682   2.737 -0.0999 -0.2542  0.3189
 8045SOL    HW231946   3.218   2.594   2.770  1.1790 -1.0013 -0.8474
 8045SOL    HW331947   3.318   2.673   2.689  1.2944  2.0887  2.0764
 8045SOL    MW431948   3.244   2.669   2.735  0.1698  0.3977 -0.1799
 8046SOL     OW31949   4.781   5.607   0.182 -0.1933 -0.3346  0.1241
 8046SOL    HW231950   4.788   5.513   0.199 -1.3830 -0.1086  2.0964
 8046SOL    HW331951   4.752   5.645   0.265  0.4856  1.8249 -0.5541
 8046SOL    MW431952   4.778   5.599   0.195  0.3513  0.3491 -0.0400
 8047SOL     OW31953   5.969   3.688   4.503 -0.5388 -0.4847  0.1907
 8047SOL    HW231954   6.041   3.742   4.471  0.1505  1.9767  4.9142
 8047SOL    HW331955   5.891   3.743   4.489 -0.5407 -0.3800  0.5837
 8047SOL    MW431956   5.968   3.703   4.497  0.6434 -0.0449  0.3270
 8048SOL     OW31957   5.336   4.208   3.303  0.0179 -0.0816  0.5812
 8048SOL    HW231958   5.307   4.296   3.277  0.8348 -0.2057 -0.8469
 8048SOL    HW331959   5.277   4.149   3.256  0.9347 -0.3050 -0.3169
 8048SOL    MW431960   5.324   4.212   3.293  0.0252  0.0447 -0.5760
 8049SOL     OW31961   4.103   3.500   4.257 -0.0261  0.2479  0.1449
 8049SOL    HW231962   4.053   3.539   4.329 -1.4690  0.1378 -0.7678
 8049SOL    HW331963   4.136   3.417   4.294 -0.5209  0.3175  0.7640
 8049SOL    MW431964   4.101   3.494   4.272  0.0398 -0.3182  0.3142
 8050SOL     OW31965   2.749   4.459   0.645  0.1865  0.3707 -0.1705
 8050SOL    HW231966   2.745   4.478   0.739 -0.4431 -0.4866 -0.0074
 8050SOL    HW331967   2.659   4.470   0.615  0.2336 -0.1219 -0.5040
 8050SOL    MW431968   2.737   4.463   0.654  0.9468 -0.0685 -0.1838
 8051SOL     OW31969   3.398   3.291   4.226 -0.3178  0.1528  0.1167
 8051SOL    HW231970   3.366   3.280   4.136 -2.4025  0.3403  0.7921
 8051SOL    HW331971   3.489   3.318   4.215 -0.1063 -1.0833 -1.9078
 8051SOL    MW431972   3.406   3.293   4.212  0.3921  0.0531 -0.8759
 8052SOL     OW31973   3.434   4.936   1.638  0.0768  0.5618 -0.2803
 8052SOL    HW231974   3.443   4.917   1.731  0.2314  2.3546  0.0947
 8052SOL    HW331975   3.493   5.009   1.622  1.7439 -1.0677 -2.2860
 8052SOL    MW431976   3.443   4.943   1.648 -0.2578 -0.0011  0.5542
 8053SOL     OW31977   1.173   0.016   3.997 -0.1002 -0.4135 -0.2447
 8053SOL    HW231978   1.251   0.066   4.021  0.4959 -0.4083 -2.0594
 8053SOL    HW331979   1.189  -0.012   3.907 -3.3222  1.8817 -1.7388
 8053SOL    MW431980   1.185   0.019   3.989 -0.3544  0.2390 -0.2779
 8054SOL     OW31981   1.846   3.244   0.271 -0.2206 -1.1203 -0.2073
 8054SOL    HW231982   1.832   3.154   0.301  1.0312 -0.3971  2.9271
 8054SOL    HW331983   1.941   3.255   0.269 -0.3130 -0.1457 -1.7011
 8054SOL    MW431984   1.857   3.234   0.274 -0.0635 -0.0145  0.0258
 8055SOL     OW31985   3.138   0.839   3.161 -0.1480  0.4356  0.3749
 8055SOL    HW231986   3.148   0.925   3.203 -0.2769  0.4583  0.3589
 8055SOL    HW331987   3.051   0.841   3.122  0.1467  0.5949 -0.2984
 8055SOL    MW431988   3.128   0.851   3.161 -0.2754 -0.0734  0.9714
 8056SOL     OW31989   4.539   2.274   0.964  0.0744 -0.4051 -0.3738
 8056SOL    HW231990   4.542   2.337   0.892 -1.2006  2.7516  2.0788
 8056SOL    HW331991   4.630   2.250   0.980  0.8804  2.5708 -0.0766
 8056SOL    MW431992   4.551   2.279   0.957 -0.0549  0.0453 -0.2257
 8057SOL     OW31993   1.477   1.346   6.280  0.2269  0.3088 -0.1021
 8057SOL    HW231994   1.423   1.423   6.297 -2.3072 -1.4367  0.5161
 8057SOL    HW331995   1.442   1.310   6.198 -0.8275 -1.7816  1.1595
 8057SOL    MW431996   1.465   1.351   6.271  0.4591 -0.4121  0.2004
 8058SOL     OW31997   4.764   0.297   5.513  0.0290 -0.1432 -0.8413
 8058SOL    HW231998   4.728   0.217   5.554 -0.0681 -0.1809 -1.0007
 8058SOL    HW331999   4.771   0.359   5.586 -3.6599  1.0699 -1.2892
 8058SOL    MW432000   4.760   0.294   5.528  0.1021 -0.0429 -0.8135
 8059SOL     OW32001   3.929   4.227   5.092 -0.0466  0.0535 -0.1264
 8059SOL    HW232002   3.928   4.323   5.088 -1.1958  0.0917  0.5922
 8059SOL    HW332003   3.957   4.199   5.005 -0.5389  1.0309 -0.6101
 8059SOL    MW432004   3.933   4.236   5.080 -0.4921  0.2347 -0.3320
 8060SOL     OW32005   4.324   1.195   3.127 -0.2236 -0.3134  0.1393
 8060SOL    HW232006   4.384   1.156   3.191  1.0191  4.1971  2.0813
 8060SOL    HW332007   4.244   1.210   3.177 -0.9024 -0.8697 -0.7560
 8060SOL    MW432008   4.321   1.192   3.142 -0.1786  0.1385 -0.4157
 8061SOL     OW32009   0.274   2.259   0.241  0.0315  0.1064  0.2918
 8061SOL    HW232010   0.180   2.249   0.256 -0.4592  0.9930 -1.8876
 8061SOL    HW332011   0.294   2.347   0.273 -0.0793  0.2650 -0.0693
 8061SOL    MW432012   0.264   2.269   0.247 -0.0075  0.4713 -0.6421
 8062SOL     OW32013   2.171   3.337   0.448 -0.4875 -0.1793 -0.1565
 8062SOL    HW232014   2.105   3.407   0.451 -0.5056 -0.1389 -1.3187
 8062SOL    HW332015   2.128   3.263   0.492 -1.6652 -0.4225 -1.6156
 8062SOL    MW432016   2.156   3.336   0.455 -0.0992 -0.2976 -0.1582
 8063SOL     OW32017   6.257   1.284   5.394 -0.0174  0.3392 -0.1231
 8063SOL    HW232018   6.336   1.324   5.357  1.5681 -1.4733  1.1159
 8063SOL    HW332019   6.243   1.330   5.476  0.7515 -0.3988  0.4404
 8063SOL    MW432020   6.266   1.295   5.400  0.7440  0.1999  0.1131
 8064SOL     OW32021   1.783   1.897   3.365 -0.1534 -0.3905  0.0023
 8064SOL    HW232022   1.784   1.809   3.403 -1.5692 -0.5138 -0.2108
 8064SOL    HW332023   1.837   1.949   3.424  1.0755 -1.4785 -0.0983
 8064SOL    MW432024   1.790   1.892   3.378 -0.1447 -0.1255  0.3107
 8065SOL     OW32025   4.148   1.255   5.746 -0.1272  0.3926 -0.2232
 8065SOL    HW232026   4.141   1.179   5.690 -0.5248  0.3830 -0.1659
 8065SOL    HW332027   4.125   1.329   5.690 -1.5111  0.2843  0.1584
 8065SOL    MW432028   4.144   1.255   5.731  0.7315  0.3123  0.2609
 8066SOL     OW32029   6.350   2.511   1.446 -0.0467 -0.3119  0.4509
 8066SOL    HW232030   6.298   2.575   1.495 -0.1021 -0.3395  0.4288
 8066SOL    HW332031   6.326   2.526   1.355  0.2122 -0.1210  0.4153
 8066SOL    MW432032   6.340   2.522   1.441 -0.6912  0.9499  0.1821
 8067SOL     OW32033   3.600   2.859   1.637 -0.2446 -0.3636 -0.0368
 8067SOL    HW232034   3.620   2.941   1.682 -1.1476  0.4652 -1.1005
 8067SOL    HW332035   3.685   2.826   1.608 -0.0423  1.9046 -2.4355
 8067SOL    MW432036   3.614   2.866   1.639 -0.3944  0.3083  0.3695
 8068SOL     OW32037   5.258   3.176   2.133  0.1373  0.1791 -0.4774
 8068SOL    HW232038   5.322   3.107   2.149  0.6799  0.7142 -0.2695
 8068SOL    HW332039   5.247   3.178   2.038 -2.2333 -2.2542 -0.3595
 8068SOL    MW432040   5.265   3.167   2.122  0.2457  0.7071  0.2856
 8069SOL     OW32041   5.254   0.446   3.572  0.0921  0.0172  0.0634
 8069SOL    HW232042   5.342   0.408   3.573  0.8628  1.6720  1.9249
 8069SOL    HW332043   5.209   0.404   3.645  0.1671  0.9259  0.6449
 8069SOL    MW432044   5.260   0.435   3.582  0.0906  0.3782 -0.2477
 8070SOL     OW32045   1.916   3.521   3.303 -0.4130  0.4173  0.0376
 8070SOL    HW232046   1.930   3.513   3.208  2.2957  2.1164  0.1737
 8070SOL    HW332047   1.926   3.431   3.336  2.0686  0.2149 -1.0150
 8070SOL    MW432048   1.919   3.508   3.295  1.3251 -0.4564  0.1026
 8071SOL     OW32049   6.392   0.776   0.735  0.6597 -0.1133  0.0122
 8071SOL    HW232050   6.405   0.750   0.826  1.3407  1.1544  0.3038
 8071SOL    HW332051   6.480   0.799   0.704  0.1363  1.8057 -0.1903
 8071SOL    MW432052   6.406   0.776   0.743  0.3207 -0.0817 -0.0004
 8072SOL     OW32053   4.453   5.365   6.146 -0.3014 -0.3595  0.4365
 8072SOL    HW232054   4.511   5.403   6.080  0.4977 -1.0764  0.7132
 8072SOL    HW332055   4.443   5.434   6.211  0.8452 -0.4670  0.7518
 8072SOL    MW432056   4.459   5.379   6.146  0.4427  0.2490  0.1767
 8073SOL     OW32057   3.630   3.503   4.247 -0.3862 -0.2337  0.1236
 8073SOL    HW232058   3.724   3.492   4.263 -0.7784 -0.3484  2.7610
 8073SOL    HW332059   3.609   3.587   4.287 -1.2201  0.4433 -1.6127
 8073SOL    MW432060   3.640   3.513   4.254 -0.2285 -0.1465  0.2246
 8074SOL     OW32061   2.608   4.662   4.601 -0.5609  0.4350 -0.1525
 8074SOL    HW232062   2.542   4.715   4.645 -2.8026 -1.7423 -0.6697
 8074SOL    HW332063   2.561   4.622   4.527  1.2120 -1.5514 -0.2952
 8074SOL    MW432064   2.593   4.664   4.597 -1.0412 -0.4810  0.2807
 8075SOL     OW32065   1.800   4.203   1.752 -0.5621 -0.2682  0.0451
 8075SOL    HW232066   1.837   4.121   1.720 -1.0036  0.1586 -1.6635
 8075SOL    HW332067   1.864   4.234   1.816  0.1594 -1.3894 -0.0953
 8075SOL    MW432068   1.814   4.196   1.756 -0.6063 -0.2542  0.5802
 8076SOL     OW32069   0.836   3.925   6.189 -0.0691  0.0182 -0.1802
 8076SOL    HW232070   0.825   3.991   6.257  0.2966 -1.8268  1.7481
 8076SOL    HW332071   0.863   3.975   6.111  3.4382  1.9340  1.9872
 8076SOL    MW432072   0.838   3.940   6.188 -0.3689 -0.1995  0.1182
 8077SOL     OW32073   2.239   3.259   4.156 -0.1683  0.2247  0.1561
 8077SOL    HW232074   2.186   3.185   4.186 -1.7960  1.4308  0.4492
 8077SOL    HW332075   2.243   3.249   4.061  1.9736 -1.6673  0.3501
 8077SOL    MW432076   2.232   3.248   4.147 -0.0493  0.1846 -0.2998
 8078SOL     OW32077   5.062   6.061   2.741  0.7474 -0.0600  0.0149
 8078SOL    HW232078   5.005   6.090   2.813 -0.5697 -2.0623 -0.1260
 8078SOL    HW332079   5.125   6.003   2.783  1.5860  0.7544 -0.0987
 8078SOL    MW432080   5.063   6.057   2.756 -0.2616  0.1097 -0.3220
 8079SOL     OW32081   3.949   3.027   2.070  0.9513 -0.2082  0.3694
 8079SOL    HW232082   3.959   2.986   2.156 -1.8703 -0.7509  0.5077
 8079SOL    HW332083   3.871   3.082   2.078  0.3019 -0.6912 -2.0029
 8079SOL    MW432084   3.940   3.029   2.083  0.1975 -0.4969 -0.5983
 8080SOL     OW32085   6.097   3.546   6.253 -0.1180 -0.5186  0.1586
 8080SOL    HW232086   6.013   3.505   6.274 -1.2643  1.0769 -1.0001
 8080SOL    HW332087   6.093   3.631   6.297  0.3221  0.0848 -0.9274
 8080SOL    MW432088   6.085   3.552   6.262 -0.2778  0.0873  0.6387
 8081SOL     OW32089   2.265   3.617   0.620 -0.4665 -0.0251  0.4911
 8081SOL    HW232090   2.328   3.574   0.562 -0.3579  0.6027  0.1330
 8081SOL    HW332091   2.244   3.551   0.686 -0.5794 -0.7500 -0.2554
 8081SOL    MW432092   2.270   3.602   0.621  0.4570  0.3659  0.8577
 8082SOL     OW32093   1.641   4.771   0.226  0.0011 -0.2999 -0.2184
 8082SOL    HW232094   1.598   4.763   0.140  0.1049 -0.1589 -0.2843
 8082SOL    HW332095   1.718   4.825   0.209 -1.1854  1.6946  0.3861
 8082SOL    MW432096   1.645   4.777   0.212 -0.0163 -0.5656  0.2937
 8083SOL     OW32097   1.571   2.566   1.890 -0.0825 -0.2482  0.1369
 8083SOL    HW232098   1.592   2.656   1.917  1.1302  0.0160 -1.4876
 8083SOL    HW332099   1.653   2.518   1.901 -0.8944 -1.3619  1.6166
 8083SOL    MW432100   1.584   2.572   1.895  0.9563 -0.0386 -0.3717
 8084SOL     OW32101   1.721   3.184   1.822 -0.1201 -0.4555 -0.7452
 8084SOL    HW232102   1.737   3.113   1.759 -0.8000  0.4628 -1.9878
 8084SOL    HW332103   1.763   3.153   1.903 -1.8213 -3.0524 -0.7131
 8084SOL    MW432104   1.729   3.170   1.824  0.0388  0.2547  0.2019
 8085SOL     OW32105   3.410   2.245   4.134 -0.1105  0.4576  0.0911
 8085SOL    HW232106   3.461   2.325   4.122 -0.8423  0.5432 -3.9344
 8085SOL    HW332107   3.474   2.177   4.154  1.5123  0.9582 -2.7866
 8085SOL    MW432108   3.425   2.246   4.135  0.5812  0.0954 -0.4499
 8086SOL     OW32109   5.073   3.890   3.926 -0.0033 -0.4082  0.2711
 8086SOL    HW232110   5.006   3.856   3.986 -0.4193  1.0141  0.6475
 8086SOL    HW332111   5.037   3.973   3.894  1.3324  0.1172  0.0581
 8086SOL    MW432112   5.060   3.896   3.930  0.0173  0.0715  0.2055
 8087SOL     OW32113   4.203   5.092   5.087  0.2003 -0.1966 -0.3161
 8087SOL    HW232114   4.140   5.028   5.055  1.6128 -2.2052  0.7271
 8087SOL    HW332115   4.175   5.175   5.048 -2.0127 -1.3236 -1.2767
 8087SOL    MW432116   4.191   5.095   5.078 -0.5542  0.2757  0.1440
 8088SOL     OW32117   1.623   0.342   3.918  0.0402  0.3075  0.0216
 8088SOL    HW232118   1.536   0.381   3.922  0.1875  0.5908  0.6141
 8088SOL    HW332119   1.671   0.396   3.855 -0.8968 -1.2982 -2.2468
 8088SOL    MW432120   1.618   0.354   3.910 -0.6528  0.1191  0.1775
 8089SOL     OW32121   4.067   3.903   3.937  0.1795  0.0865  0.5428
 8089SOL    HW232122   3.996   3.863   3.887  1.0434  0.3642 -0.9552
 8089SOL    HW332123   4.087   3.838   4.005 -1.7945  0.2158  1.3124
 8089SOL    MW432124   4.060   3.889   3.940  0.5586  0.3027 -0.2004
 8090SOL     OW32125   0.171   4.348   2.729  0.2327 -0.3812  0.3974
 8090SOL    HW232126   0.221   4.287   2.675 -0.0938  0.1266 -0.5170
 8090SOL    HW332127   0.205   4.337   2.817  1.0882 -0.9292  0.0076
 8090SOL    MW432128   0.182   4.338   2.733  0.0313  0.7650 -0.0646
 8091SOL     OW32129   5.181   2.317   1.107  0.1160  0.5145  0.3953
 8091SOL    HW232130   5.094   2.356   1.111 -0.5799 -0.8019 -1.0572
 8091SOL    HW332131   5.172   2.232   1.150  0.6767  0.3581  0.2152
 8091SOL    MW432132   5.169   2.311   1.114 -0.0490  0.1263  0.5126
 8092SOL     OW32133   4.019   0.115   3.291  0.5962 -0.0803 -0.4106
 8092SOL    HW232134   4.098   0.158   3.256  1.0861 -0.6069  0.0166
 8092SOL    HW332135   3.984   0.178   3.354  2.4681 -1.0574  1.7519
 8092SOL    MW432136   4.025   0.129   3.295 -0.3978 -0.0357 -0.0387
 8093SOL     OW32137   3.265   5.840   1.977  0.0724  0.2261 -0.3791
 8093SOL    HW232138   3.210   5.917   1.965 -0.3513  0.4298  2.1410
 8093SOL    HW332139   3.220   5.770   1.931 -1.5622  0.7191  0.3814
 8093SOL    MW432140   3.252   5.841   1.970 -0.4355 -0.0951 -0.1758
 8094SOL     OW32141   4.588   5.373   3.798  0.1563  0.2234 -0.3760
 8094SOL    HW232142   4.539   5.368   3.881 -0.0437  0.5694 -0.4721
 8094SOL    HW332143   4.520   5.373   3.731  0.3123  0.1872 -0.5344
 8094SOL    MW432144   4.572   5.372   3.800 -0.5638 -0.1209  0.0086
 8095SOL     OW32145   5.256   0.318   2.902  0.0562 -0.0761  0.1253
 8095SOL    HW232146   5.197   0.336   2.975 -0.7610 -1.7711 -0.0768
 8095SOL    HW332147   5.285   0.405   2.872 -0.2439  0.6717  1.9038
 8095SOL    MW432148   5.252   0.332   2.907  0.3063  0.4746 -0.6432
 8096SOL     OW32149   3.590   4.401   0.117  0.1477 -0.6849 -0.2863
 8096SOL    HW232150   3.634   4.485   0.105 -0.2599 -0.2204  1.2094
 8096SOL    HW332151   3.544   4.386   0.035  0.8187  0.1935 -0.8425
 8096SOL    MW432152   3.589   4.410   0.105  0.3502 -0.3381 -0.2510
 8097SOL     OW32153   4.764   6.022   3.773  0.2545 -0.1136 -0.0952
 8097SOL    HW232154   4.743   5.975   3.692  0.8200  0.1824 -0.4236
 8097SOL    HW332155   4.806   6.103   3.743 -0.1000  0.2850  0.4827
 8097SOL    MW432156   4.767   6.026   3.758  0.3829  0.0179 -0.6454
 8098SOL     OW32157   3.011   5.720   6.119 -0.0065  0.2783 -0.1565
 8098SOL    HW232158   3.029   5.794   6.062  2.0040  1.1509  1.4625
 8098SOL    HW332159   3.097   5.680   6.133 -0.2126  0.6522  2.8721
 8098SOL    MW432160   3.025   5.724   6.114  0.9503 -0.6599 -0.0067
 8099SOL     OW32161   0.037   1.705   4.513 -0.2378  0.2146 -0.4183
 8099SOL    HW232162   0.052   1.770   4.444 -0.2306  0.2188 -0.4128
 8099SOL    HW332163   0.123   1.666   4.529 -0.3556 -0.2522 -0.8805
 8099SOL    MW432164   0.051   1.708   4.506  0.1301 -0.6858  0.0928
 8100SOL     OW32165   2.102   3.304   2.603 -0.5064  0.4512  0.4758
 8100SOL    HW232166   2.185   3.265   2.631 -0.1469 -0.2826 -1.4566
 8100SOL    HW332167   2.061   3.237   2.548 -2.5958  0.6502  1.7060
 8100SOL    MW432168   2.107   3.290   2.599 -0.7827 -0.9261 -0.0496
 8101SOL     OW32169   3.951   5.208   0.918  0.4722 -0.1027  0.3667
 8101SOL    HW232170   3.900   5.128   0.904  0.8226 -0.1841 -0.4895
 8101SOL    HW332171   3.887   5.271   0.951  0.3137 -0.9011  1.6709
 8101SOL    MW432172   3.935   5.205   0.921  0.1029  0.1967 -0.0482
 8102SOL     OW32173   5.904   3.365   6.325  0.1167 -0.1652 -0.6638
 8102SOL    HW232174   5.915   3.294   6.389  0.5646 -0.2364 -0.8186
 8102SOL    HW332175   5.809   3.377   6.320  0.0471 -0.5785 -0.4459
 8102SOL    MW432176   5.893   3.357   6.333  0.6945 -0.2577 -0.3446
 8103SOL     OW32177   4.654   4.232   4.120 -0.2254  0.6326  0.1397
 8103SOL    HW232178   4.724   4.166   4.117  0.0576  0.9106  0.6040
 8103SOL    HW332179   4.662   4.279   4.037  2.2993  2.8695  1.5086
 8103SOL    MW432180   4.665   4.229   4.108  0.0391 -0.5673  0.9441
 8104SOL     OW32181   5.200   3.412   3.915 -0.2758 -0.2523 -0.0567
 8104SOL    HW232182   5.202   3.334   3.969 -2.0841 -0.4713 -0.2421
 8104SOL    HW332183   5.236   3.385   3.830 -2.4327 -1.3825 -0.6707
 8104SOL    MW432184   5.205   3.398   3.911  0.8259 -0.3563  0.6973
 8105SOL     OW32185   2.862   0.104   1.455  0.4674  0.5492  0.1034
 8105SOL    HW232186   2.842   0.023   1.409  0.4051  2.4056 -3.5413
 8105SOL    HW332187   2.937   0.083   1.510 -0.9634 -2.4669  1.1145
 8105SOL    MW432188   2.869   0.091   1.456  0.1837  0.2877 -0.5125
 8106SOL     OW32189   1.887   0.675   5.793 -0.0285  0.2513 -0.3060
 8106SOL    HW232190   1.918   0.732   5.864  1.9536 -1.7863  0.6299
 8106SOL    HW332191   1.864   0.593   5.837 -0.5397 -0.4598 -1.8339
 8106SOL    MW432192   1.888   0.672   5.808  0.5608  0.3922  0.5697
 8107SOL     OW32193   4.871   1.487   4.063 -0.0873  0.0625  0.2822
 8107SOL    HW232194   4.783   1.504   4.096 -0.6013 -0.2464 -0.8721
 8107SOL    HW332195   4.862   1.489   3.967  1.5844  2.2231  0.0848
 8107SOL    MW432196   4.858   1.489   4.055  0.1615 -0.8651  0.6136
 8108SOL     OW32197   0.322   0.747   0.752  0.2632 -0.1046 -0.3740
 8108SOL    HW232198   0.280   0.804   0.817 -0.1578 -0.1870 -0.5711
 8108SOL    HW332199   0.415   0.750   0.774  0.1685  0.1736 -0.0040
 8108SOL    MW432200   0.329   0.755   0.764  0.1524  0.5108  0.1744
 8109SOL     OW32201   5.940   3.703   1.394  0.0343 -0.4862  0.4135
 8109SOL    HW232202   5.852   3.728   1.368  0.3628  0.6253  0.3047
 8109SOL    HW332203   5.968   3.772   1.455  1.2848 -0.1199 -0.5266
 8109SOL    MW432204   5.932   3.716   1.399 -0.2833  0.1120  0.0164
 8110SOL     OW32205   4.376   1.566   2.336  0.1323  0.4423 -0.0541
 8110SOL    HW232206   4.388   1.484   2.383  0.1475  0.6026  0.2290
 8110SOL    HW332207   4.397   1.634   2.401  1.2616  0.6562 -0.6142
 8110SOL    MW432208   4.380   1.564   2.351  0.2686 -0.4732  0.2296
 8111SOL     OW32209   0.074   4.821   3.472  0.5885  0.2600 -0.1724
 8111SOL    HW232210   0.061   4.830   3.567 -0.6551  0.0286 -0.2929
 8111SOL    HW332211   0.153   4.768   3.463  1.2254  1.0234  0.7127
 8111SOL    MW432212   0.082   4.815   3.484 -0.2549  0.0333  0.6430
 8112SOL     OW32213   4.575   0.916   0.687  0.2131 -0.1083  0.1237
 8112SOL    HW232214   4.652   0.878   0.730  0.2669  0.5654  0.6453
 8112SOL    HW332215   4.603   1.005   0.663  0.4659 -0.7050 -2.0544
 8112SOL    MW432216   4.589   0.923   0.689  0.1498 -0.2920  0.2763
 8113SOL     OW32217   0.960   4.143   2.081  0.6080  0.1675 -0.7819
 8113SOL    HW232218   1.037   4.086   2.078 -0.4007 -1.2544 -3.1494
 8113SOL    HW332219   0.898   4.097   2.137  0.2820 -0.4234 -1.6110
 8113SOL    MW432220   0.962   4.130   2.088  0.0583  0.4492  0.0960
 8114SOL     OW32221   2.171   0.793   2.505  0.0179 -0.2656 -0.1815
 8114SOL    HW232222   2.176   0.807   2.411 -0.4670  1.2559 -0.0095
 8114SOL    HW332223   2.090   0.745   2.519  0.4945 -1.2259 -0.5830
 8114SOL    MW432224   2.161   0.789   2.495  0.3933  0.2646 -0.1985
 8115SOL     OW32225   6.107   3.248   5.551 -0.7040  0.2788 -0.7528
 8115SOL    HW232226   6.130   3.223   5.641  0.1173  0.0695 -1.0155
 8115SOL    HW332227   6.189   3.282   5.514 -0.7596 -0.6688 -1.7760
 8115SOL    MW432228   6.121   3.249   5.558  0.5277  0.0508  0.1124
 8116SOL     OW32229   6.141   5.821   4.977 -0.4374  0.3590  0.0393
 8116SOL    HW232230   6.119   5.728   4.974 -1.5178  0.5153  1.7735
 8116SOL    HW332231   6.066   5.864   4.936 -1.4994  0.6300  2.1530
 8116SOL    MW432232   6.128   5.815   4.971 -0.2035  0.1022 -0.1617
 8117SOL     OW32233   0.869   3.229   2.274  0.1839 -0.1408  0.2286
 8117SOL    HW232234   0.953   3.186   2.260 -0.1561 -1.0514  0.9264
 8117SOL    HW332235   0.838   3.196   2.358 -1.5961 -1.0260 -0.7212
 8117SOL    MW432236   0.876   3.219   2.283 -0.1467  0.2530  0.0671
 8118SOL     OW32237   4.935   4.380   5.652  0.2615 -0.2258  0.2166
 8118SOL    HW232238   4.995   4.333   5.709  1.0456  0.5988  0.0803
 8118SOL    HW332239   4.913   4.459   5.700 -0.1260 -0.1605 -0.0589
 8118SOL    MW432240   4.940   4.384   5.666 -0.4253  0.2304 -0.4503
 8119SOL     OW32241   2.716   2.131   4.072 -0.0830 -0.6312 -0.1881
 8119SOL    HW232242   2.740   2.206   4.016  0.2179  0.7364  1.6618
 8119SOL    HW332243   2.631   2.103   4.040  0.0882  0.0986 -1.3381
 8119SOL    MW432244   2.708   2.138   4.060 -0.0292 -0.5261  0.2504
 8120SOL     OW32245   4.528   3.731   1.982  0.1296  0.0847  0.4287
 8120SOL    HW232246   4.525   3.680   1.901 -1.4648  2.1695 -0.9259
 8120SOL    HW332247   4.437   3.736   2.011  0.6194 -0.2485  2.1552
 8120SOL    MW432248   4.515   3.725   1.975  0.7954 -0.1876  0.2196
 8121SOL     OW32249   4.883   5.095   4.813  0.0236  0.6639 -0.1887
 8121SOL    HW232250   4.791   5.101   4.791 -0.4739  0.7595  1.6984
 8121SOL    HW332251   4.895   5.005   4.844  0.3769  0.8529  0.2441
 8121SOL    MW432252   4.873   5.084   4.814  0.1737  0.4470 -0.0084
 8122SOL     OW32253   1.686   0.926   5.781  0.1421  0.6868 -0.3733
 8122SOL    HW232254   1.699   0.934   5.875 -0.3059 -0.6114 -0.1730
 8122SOL    HW332255   1.752   0.984   5.742 -0.3254  2.0163  0.7377
 8122SOL    MW432256   1.696   0.935   5.788 -0.6560  0.0964 -0.2657
 8123SOL     OW32257   3.266   4.400   1.929 -0.1874  0.1551  0.2069
 8123SOL    HW232258   3.264   4.383   2.023  0.9696  0.1736  0.2498
 8123SOL    HW332259   3.311   4.324   1.892  0.1805  0.5772 -0.2234
 8123SOL    MW432260   3.272   4.388   1.937  0.2129 -0.0173  0.5715
 8124SOL     OW32261   1.276   3.845   3.344  0.2473 -0.0876  0.2841
 8124SOL    HW232262   1.262   3.939   3.359 -1.6075 -0.0564 -1.2844
 8124SOL    HW332263   1.191   3.812   3.318  1.4875 -1.5456 -2.3390
 8124SOL    MW432264   1.263   3.853   3.342  0.4870  0.3029 -0.1451
 8125SOL     OW32265   4.912   3.545   2.962 -0.3151 -0.5773 -0.1551
 8125SOL    HW232266   4.955   3.480   2.906  0.3876 -0.6990  0.5154
 8125SOL    HW332267   4.836   3.500   2.998  0.7808 -1.4056  1.1824
 8125SOL    MW432268   4.908   3.531   2.959 -0.4673 -0.2777  0.3166
 8126SOL     OW32269   0.022   3.454   5.653  0.0551 -0.4679 -0.1627
 8126SOL    HW232270   0.017   3.364   5.688 -0.8972 -0.4093 -0.1134
 8126SOL    HW332271  -0.010   3.446   5.564 -2.0496  0.1368  0.4872
 8126SOL    MW432272   0.017   3.441   5.646  0.0631  0.1037 -0.1765
 8127SOL     OW32273   5.676   1.198   0.785 -0.0855  0.8957 -0.4058
 8127SOL    HW232274   5.663   1.143   0.708 -1.5481 -1.1650  1.2000
 8127SOL    HW332275   5.771   1.198   0.799  0.0748  0.1508 -1.3957
 8127SOL    MW432276   5.687   1.191   0.777 -0.2409 -0.1082  0.0734
 8128SOL     OW32277   4.409   1.490   3.427 -0.0736  0.5463 -0.1008
 8128SOL    HW232278   4.400   1.447   3.512  0.9152 -0.5166 -0.4965
 8128SOL    HW332279   4.444   1.577   3.447  1.3813 -0.1534  0.5275
 8128SOL    MW432280   4.413   1.496   3.441  0.4433  0.2789 -0.5059
 8129SOL     OW32281   0.411   1.931   3.757 -0.4775 -0.0954  0.4728
 8129SOL    HW232282   0.427   1.923   3.663 -0.4148 -1.3917  0.5667
 8129SOL    HW332283   0.350   2.003   3.765 -1.6086 -0.8667 -0.7052
 8129SOL    MW432284   0.405   1.939   3.745  0.3131 -0.1945 -0.1660
 8130SOL     OW32285   3.066   4.728   5.363  0.0870 -0.2670 -0.3087
 8130SOL    HW232286   3.057   4.675   5.284 -1.5934 -1.1827  0.4300
 8130SOL    HW332287   3.030   4.814   5.338 -1.6840 -0.9425 -0.2168
 8130SOL    MW432288   3.060   4.733   5.349  0.2702  0.2441 -0.1647
 8131SOL     OW32289   6.045   4.303   4.524 -0.1373 -0.1967 -0.5145
 8131SOL    HW232290   6.115   4.328   4.584  0.5428 -1.6392 -0.6530
 8131SOL    HW332291   6.058   4.360   4.447 -1.0210  1.6589  0.6520
 8131SOL    MW432292   6.056   4.314   4.521 -0.7648 -0.5281  0.3620
 8132SOL     OW32293   5.882   0.962   2.591  0.6443 -0.0010 -0.4415
 8132SOL    HW232294   5.793   0.958   2.555  0.8645 -0.2884 -0.9731
 8132SOL    HW332295   5.913   1.049   2.567  0.7988 -0.2010 -0.9766
 8132SOL    MW432296   5.874   0.973   2.583 -0.0055  0.6247 -0.0323
 8133SOL     OW32297   0.182   2.023   0.015 -0.2634  0.0112  0.6914
 8133SOL    HW232298   0.188   2.116   0.035 -2.7940 -0.0581  2.2639
 8133SOL    HW332299   0.121   1.988   0.080 -1.5872 -2.1914 -1.5191
 8133SOL    MW432300   0.174   2.030   0.026 -0.1160 -0.2297  0.4153
 8134SOL     OW32301   1.224   6.231   6.107  0.4052  0.3988  0.3247
 8134SOL    HW232302   1.129   6.238   6.121  0.6394  0.6511  1.9366
 8134SOL    HW332303   1.234   6.150   6.056 -0.8227  1.5160 -1.8488
 8134SOL    MW432304   1.213   6.221   6.102  0.0974 -0.3368 -0.5610
 8135SOL     OW32305   5.950   0.314   1.791  0.3371 -0.1554 -0.2559
 8135SOL    HW232306   5.884   0.299   1.723 -0.0302 -0.6004  0.1909
 8135SOL    HW332307   5.903   0.300   1.873  1.3872 -2.2014  0.0543
 8135SOL    MW432308   5.935   0.310   1.793  0.0242 -0.3399 -0.2489
 8136SOL     OW32309   3.820   6.237   0.210 -0.7294 -0.4925  0.1123
 8136SOL    HW232310   3.908   6.213   0.180 -0.6518 -0.4444  0.2993
 8136SOL    HW332311   3.769   6.247   0.130  0.1239  2.2839 -0.1712
 8136SOL    MW432312   3.825   6.235   0.196 -1.0292  0.0258  0.5765
 8137SOL     OW32313   4.360   4.587   5.294 -0.0345 -0.0494 -0.1235
 8137SOL    HW232314   4.325   4.500   5.276 -1.2423 -0.0365  1.8082
 8137SOL    HW332315   4.284   4.644   5.298  0.6431  0.9053 -0.3270
 8137SOL    MW432316   4.346   4.583   5.292 -0.0517 -0.1982 -0.6700
 8138SOL     OW32317   1.417   6.274   3.978  0.3123  0.2803 -0.1484
 8138SOL    HW232318   1.423   6.214   3.903  2.0002  0.5785 -0.3001
 8138SOL    HW332319   1.461   6.353   3.948  0.2564  0.7111  0.8812
 8138SOL    MW432320   1.424   6.276   3.964  0.2561  0.0573  0.0974
 8139SOL     OW32321   1.314   3.656   1.770  0.2207 -0.7927  0.0170
 8139SOL    HW232322   1.324   3.728   1.708  1.2854 -1.5725 -0.7537
 8139SOL    HW332323   1.329   3.697   1.856 -1.2844  0.2957 -0.1999
 8139SOL    MW432324   1.317   3.671   1.773  0.1652  0.3849  0.4023
 8140SOL     OW32325   0.398   2.438   3.730 -0.3708 -0.5390  0.4910
 8140SOL    HW232326   0.401   2.343   3.738 -1.4436 -0.6265 -0.0674
 8140SOL    HW332327   0.312   2.463   3.764 -0.8594  0.0367 -1.0970
 8140SOL    MW432328   0.387   2.429   3.736 -0.4100 -0.6320  0.1026
 8141SOL     OW32329   3.006   4.304   5.219  0.1708  0.2222 -0.0350
 8141SOL    HW232330   2.949   4.246   5.169  0.3315 -0.8731  1.0097
 8141SOL    HW332331   2.981   4.290   5.310  0.6254  1.3639  0.2860
 8141SOL    MW432332   2.996   4.295   5.224  0.0158 -0.1982 -0.5241
 8142SOL     OW32333   2.285   2.476   2.728  0.2655 -0.1538 -0.2718
 8142SOL    HW232334   2.305   2.567   2.750 -2.4915  0.5347 -0.3443
 8142SOL    HW332335   2.341   2.456   2.653  2.0462  0.9272  0.7063
 8142SOL    MW432336   2.295   2.485   2.721  0.3969 -0.2273 -0.0588
 8143SOL     OW32337   2.743   2.656   5.928  0.2363 -0.2014 -0.2324
 8143SOL    HW232338   2.729   2.591   5.997  3.4154 -0.1001  0.6582
 8143SOL    HW332339   2.792   2.610   5.860  0.2359  0.6216 -0.8041
 8143SOL    MW432340   2.748   2.642   5.928 -0.5480  0.2514 -0.2456
 8144SOL     OW32341   5.126   2.870   3.687 -0.1722 -0.2341 -0.8914
 8144SOL    HW232342   5.091   2.928   3.755 -1.4318 -0.6743 -1.1439
 8144SOL    HW332343   5.193   2.923   3.643  0.2230  0.2685  0.2778
 8144SOL    MW432344   5.131   2.885   3.690  0.0470  0.9831  0.3274
 8145SOL     OW32345   1.842   2.858   0.613  0.6009 -0.0873  0.5484
 8145SOL    HW232346   1.759   2.887   0.649  0.2930 -3.4665  3.1511
 8145SOL    HW332347   1.908   2.890   0.675  0.5387 -2.1487  1.7741
 8145SOL    MW432348   1.840   2.866   0.626  0.2534  0.1737 -0.0719
 8146SOL     OW32349   0.660   2.990   1.301 -0.3817  0.1572 -0.0757
 8146SOL    HW232350   0.631   2.899   1.301 -1.5212  0.5053 -0.0727
 8146SOL    HW332351   0.581   3.041   1.322  0.9006  0.9477  3.6591
 8146SOL    MW432352   0.646   2.985   1.304 -0.1313 -0.0829 -0.2974
 8147SOL     OW32353   2.091   0.163   0.035 -0.0166  0.0313 -0.2883
 8147SOL    HW232354   2.023   0.097   0.023 -0.2313  0.3747 -0.9919
 8147SOL    HW332355   2.068   0.207   0.117 -1.2164  0.8081 -1.0199
 8147SOL    MW432356   2.079   0.160   0.044 -0.0725 -0.4085 -0.1016
 8148SOL     OW32357   1.934   2.351   5.198 -0.2368 -0.3850  0.3038
 8148SOL    HW232358   1.885   2.419   5.245  1.8609  2.1254 -0.8696
 8148SOL    HW332359   1.874   2.323   5.128  0.1253  3.4406 -1.8293
 8148SOL    MW432360   1.919   2.356   5.195  0.1082  0.2869  0.2661
 8149SOL     OW32361   0.329   3.404   6.051 -0.5865 -1.1437 -0.4042
 8149SOL    HW232362   0.316   3.317   6.013  0.8944 -1.1989 -0.8492
 8149SOL    HW332363   0.381   3.451   5.985  1.0769 -0.8670  1.0360
 8149SOL    MW432364   0.334   3.399   6.037  0.1967  0.4205 -0.0186
 8150SOL     OW32365   4.409   1.439   6.352 -0.3088 -0.2095  0.0503
 8150SOL    HW232366   4.453   1.353   6.354  2.5538  1.1379 -0.2051
 8150SOL    HW332367   4.468   1.497   6.401 -0.2952  2.3832 -2.7948
 8150SOL    MW432368   4.423   1.435   6.359  0.1293  0.6345 -0.4100
 8151SOL     OW32369   3.688   5.804   0.242  0.3344 -0.1810 -0.1249
 8151SOL    HW232370   3.613   5.815   0.183 -0.9785  1.6809  1.7495
 8151SOL    HW332371   3.655   5.748   0.312  1.0215 -0.1928  0.1932
 8151SOL    MW432372   3.674   5.798   0.244 -0.4448  0.2624  0.5551
 8152SOL     OW32373   4.654   0.730   2.970  0.7435  0.3292  0.0769
 8152SOL    HW232374   4.669   0.782   2.891 -1.1553 -1.6965 -1.7651
 8152SOL    HW332375   4.716   0.657   2.962 -1.5779 -1.6199 -1.3454
 8152SOL    MW432376   4.664   0.727   2.958  0.6061  0.2293  0.3701
 8153SOL     OW32377   4.346   2.036   2.354 -0.6665  0.1508  0.3672
 8153SOL    HW232378   4.306   2.049   2.268  0.1269 -0.3381 -0.0932
 8153SOL    HW332379   4.439   2.022   2.335 -0.8954 -2.9153  0.9997
 8153SOL    MW432380   4.353   2.036   2.340  0.5128  0.3017 -0.1477
 8154SOL     OW32381   2.668   5.531   3.478  0.4110 -0.2307 -0.1526
 8154SOL    HW232382   2.648   5.488   3.395 -0.6979  1.1833 -0.6558
 8154SOL    HW332383   2.584   5.534   3.524  0.2956  1.8876 -0.3994
 8154SOL    MW432384   2.654   5.526   3.473 -0.4436  0.1396 -0.1348
 8155SOL     OW32385   1.301   3.282   0.497  0.5987  0.0061  0.1928
 8155SOL    HW232386   1.299   3.235   0.414  0.5488 -0.9676  0.7280
 8155SOL    HW332387   1.299   3.374   0.473  1.3640 -0.2467 -0.9127
 8155SOL    MW432388   1.301   3.288   0.483 -0.5760 -0.0234 -0.2737
 8156SOL     OW32389   3.993   0.750   1.173 -0.5276 -0.0629  0.0900
 8156SOL    HW232390   4.001   0.846   1.175  0.2067 -0.0844 -0.9196
 8156SOL    HW332391   4.038   0.724   1.092  0.7197 -1.4008  1.1571
 8156SOL    MW432392   4.000   0.760   1.163  0.2418 -0.1666 -0.1691
 8157SOL     OW32393   4.098   3.841   0.939  0.1031  0.0171 -0.8079
 8157SOL    HW232394   4.049   3.901   0.884  0.2783  0.6079 -0.3272
 8157SOL    HW332395   4.124   3.893   1.014  1.4351 -0.2908 -1.0337
 8157SOL    MW432396   4.095   3.856   0.941  0.3041 -0.3878 -0.2068
 8158SOL     OW32397   3.405   5.590   4.185 -0.2243 -0.2303 -0.1115
 8158SOL    HW232398   3.467   5.587   4.112 -0.5010  0.9351 -0.4102
 8158SOL    HW332399   3.377   5.681   4.189  0.7440  0.0518  2.2510
 8158SOL    MW432400   3.410   5.601   4.176  0.4600  0.2774  0.0135
 8159SOL     OW32401   0.564   4.172   0.315  0.0065  0.1555  0.1677
 8159SOL    HW232402   0.470   4.189   0.319 -0.0337 -0.0749  0.2592
 8159SOL    HW332403   0.580   4.110   0.387  0.1551 -0.1267 -0.1047
 8159SOL    MW432404   0.554   4.166   0.325 -0.2343  0.8068  0.2351
 8160SOL     OW32405   5.150   5.553   2.322  0.1860 -0.3033  0.1358
 8160SOL    HW232406   5.160   5.625   2.384 -1.1227  0.1152 -0.1064
 8160SOL    HW332407   5.199   5.481   2.361  4.4676  1.5590 -1.1887
 8160SOL    MW432408   5.157   5.553   2.335 -0.0736  0.1281  0.1220
 8161SOL     OW32409   5.163   6.085   1.630 -0.5036 -0.0220 -0.4701
 8161SOL    HW232410   5.082   6.057   1.673 -0.7454 -0.2169 -1.0415
 8161SOL    HW332411   5.213   6.004   1.619  0.0875  0.1964  0.5233
 8161SOL    MW432412   5.159   6.071   1.634  0.0274  0.2422 -0.0038
 8162SOL     OW32413   1.141   0.846   1.735  0.1556  0.1765  0.3873
 8162SOL    HW232414   1.179   0.798   1.662 -0.7951 -0.8433  0.5254
 8162SOL    HW332415   1.060   0.883   1.700  0.8932  1.7404  0.2762
 8162SOL    MW432416   1.135   0.844   1.721  0.6757 -0.4915 -0.8248
 8163SOL     OW32417   0.922   6.317   5.469 -0.8333  0.4062  0.4566
 8163SOL    HW232418   1.011   6.341   5.495 -0.4161 -1.6000  1.1160
 8163SOL    HW332419   0.907   6.363   5.387  0.9824  0.4527  0.1149
 8163SOL    MW432420   0.932   6.326   5.462 -0.4857  0.2356 -0.1591
 8164SOL     OW32421   2.024   3.536   1.842  0.0243 -0.3012 -0.1476
 8164SOL    HW232422   2.096   3.519   1.781  0.7571  2.4577 -0.1737
 8164SOL    HW332423   1.950   3.488   1.805  1.4262 -1.9995 -0.9372
 8164SOL    MW432424   2.024   3.527   1.829  0.2195  0.1788  0.1396
 8165SOL     OW32425   0.613   2.114   6.149  0.1158 -0.4007  0.5890
 8165SOL    HW232426   0.518   2.113   6.156  0.0906  0.7292  0.6830
 8165SOL    HW332427   0.632   2.189   6.092  0.9878  0.3300  1.7766
 8165SOL    MW432428   0.603   2.124   6.142 -0.4772  0.1317  0.1715
 8166SOL     OW32429   4.291   0.818   0.847 -0.0055  0.3828 -0.0159
 8166SOL    HW232430   4.359   0.880   0.819 -0.2824  0.4253 -0.6103
 8166SOL    HW332431   4.248   0.862   0.920 -0.0546  0.7965 -0.2926
 8166SOL    MW432432   4.295   0.832   0.853  0.4575 -0.7151 -0.3134
 8167SOL     OW32433   4.353   1.119   0.554  0.3614 -0.3269 -0.2112
 8167SOL    HW232434   4.352   1.034   0.509 -0.2055  0.5149 -1.8647
 8167SOL    HW332435   4.359   1.184   0.484  2.6454  1.0028  1.1009
 8167SOL    MW432436   4.353   1.116   0.539 -0.3531 -0.4051 -0.3645
 8168SOL     OW32437   4.161   3.698   4.649 -0.0329 -0.1890 -0.0567
 8168SOL    HW232438   4.225   3.746   4.596 -0.5844  0.6344  0.0091
 8168SOL    HW332439   4.150   3.752   4.728 -0.1363 -0.7888  0.3491
 8168SOL    MW432440   4.168   3.712   4.653  0.1586 -0.9263  0.6636
 8169SOL     OW32441   2.308   5.718   0.752  0.4599 -0.1932 -0.4150
 8169SOL    HW232442   2.331   5.698   0.843 -0.1864 -0.4165 -0.2942
 8169SOL    HW332443   2.228   5.668   0.736 -0.9371  1.8915 -0.2643
 8169SOL    MW432444   2.300   5.708   0.762  0.7301  0.2376 -0.3983
 8170SOL     OW32445   3.483   4.846   5.188  0.3156  0.2105 -0.8269
 8170SOL    HW232446   3.507   4.784   5.119 -0.5383  0.4646 -1.3678
 8170SOL    HW332447   3.456   4.925   5.141  0.2021  0.5610 -0.1820
 8170SOL    MW432448   3.482   4.848   5.173 -0.6967  0.2692  0.1280
 8171SOL     OW32449   0.134   5.952   3.558 -0.0726 -0.1009 -0.3363
 8171SOL    HW232450   0.086   5.950   3.641 -1.9814  1.2078 -1.3557
 8171SOL    HW332451   0.069   5.931   3.492  1.4468 -1.2392 -1.5435
 8171SOL    MW432452   0.119   5.949   3.560  0.2340  0.1420  0.1016
 8172SOL     OW32453   4.320   3.024   2.140  0.4131  0.2706 -0.2866
 8172SOL    HW232454   4.360   2.997   2.058 -0.4883  0.0002 -0.6523
 8172SOL    HW332455   4.263   3.098   2.117  1.5778  1.4317  0.4256
 8172SOL    MW432456   4.318   3.030   2.126  0.3392  0.0483  0.3563
 8173SOL     OW32457   5.053   3.326   4.501 -0.2215 -0.4138 -0.6021
 8173SOL    HW232458   4.987   3.379   4.544  0.0986 -0.0934 -0.5050
 8173SOL    HW332459   5.006   3.284   4.428 -0.3667  0.3472 -0.9498
 8173SOL    MW432460   5.038   3.327   4.497 -0.6635 -0.1285  0.6004
 8174SOL     OW32461   6.075   0.710   3.795  0.4304 -0.2426 -0.2649
 8174SOL    HW232462   6.077   0.789   3.741 -0.4694  0.5631  0.8311
 8174SOL    HW332463   5.981   0.693   3.809  0.6295 -1.1104  0.0863
 8174SOL    MW432464   6.063   0.718   3.789  0.0661 -0.7825  0.2430
 8175SOL     OW32465   6.119   5.268   0.455  0.1482 -0.4555  0.1612
 8175SOL    HW232466   6.171   5.324   0.514  0.9162 -0.6109 -0.3513
 8175SOL    HW332467   6.067   5.330   0.404  0.7126 -0.2171 -0.1389
 8175SOL    MW432468   6.119   5.284   0.456  0.5570  0.2059 -0.2534
 8176SOL     OW32469   5.351   3.448   2.953  0.3330  0.2807  0.2594
 8176SOL    HW232470   5.299   3.370   2.931  0.1478  0.6410 -0.6258
 8176SOL    HW332471   5.286   3.518   2.960  0.5771  0.5009  0.3194
 8176SOL    MW432472   5.335   3.447   2.951 -0.4130 -0.1996  0.7265
 8177SOL     OW32473   2.525   1.348   5.896 -0.6218  0.0360 -0.6502
 8177SOL    HW232474   2.476   1.283   5.947 -1.8505  0.8529 -0.7534
 8177SOL    HW332475   2.527   1.312   5.807  0.3522 -0.7463 -0.3330
 8177SOL    MW432476   2.519   1.334   5.891 -0.3889  0.3573  0.2949
 8178SOL     OW32477   2.878   4.376   3.606  0.0853 -0.1246  0.1895
 8178SOL    HW232478   2.954   4.434   3.596  0.3243 -0.2963  0.9360
 8178SOL    HW332479   2.844   4.366   3.517  0.2336  0.8969  0.0024
 8178SOL    MW432480   2.883   4.383   3.593 -0.4990 -0.1160  0.0653
 8179SOL     OW32481   1.412   5.717   0.579  0.1682 -0.0072 -0.4261
 8179SOL    HW232482   1.480   5.651   0.564  1.2403  0.6283  1.3633
 8179SOL    HW332483   1.436   5.759   0.661 -1.7493  1.0816 -0.3484
 8179SOL    MW432484   1.424   5.713   0.588 -0.3592 -0.4585 -0.6590
 8180SOL     OW32485   2.743   4.823   2.979  0.2498 -0.5050  0.0589
 8180SOL    HW232486   2.732   4.733   3.011 -1.2537 -0.6704 -0.8571
 8180SOL    HW332487   2.804   4.815   2.906  1.7297 -0.4699  1.2503
 8180SOL    MW432488   2.750   4.810   2.974 -0.4711  0.7428  0.3978
 8181SOL     OW32489   6.322   2.153   0.768 -0.2888 -0.2968 -0.6142
 8181SOL    HW232490   6.246   2.147   0.710  0.4958 -2.9860 -1.5169
 8181SOL    HW332491   6.367   2.233   0.740 -1.2352 -0.2163 -2.0264
 8181SOL    MW432492   6.317   2.163   0.757  0.0049  0.1014 -0.4589
 8182SOL     OW32493   2.758   5.437   2.628 -0.3639 -0.0187  0.1767
 8182SOL    HW232494   2.733   5.529   2.640  1.3570  0.8542 -2.2971
 8182SOL    HW332495   2.675   5.389   2.631 -1.4848  1.8221 -0.2233
 8182SOL    MW432496   2.743   5.443   2.630 -0.1524 -0.4240 -0.8492
 8183SOL     OW32497   5.390   4.386   6.209 -0.3171 -0.0427  0.1817
 8183SOL    HW232498   5.359   4.467   6.167  1.4441  0.3978 -0.3456
 8183SOL    HW332499   5.437   4.339   6.139  1.4373  0.0123  1.2644
 8183SOL    MW432500   5.392   4.390   6.194  0.0309  0.2248 -0.1432
 8184SOL     OW32501   2.127   4.139   4.396  0.3260  0.2093  0.1407
 8184SOL    HW232502   2.060   4.197   4.433  0.3117 -0.1107  0.6175
 8184SOL    HW332503   2.134   4.068   4.459  0.8791  0.0720 -0.0767
 8184SOL    MW432504   2.119   4.138   4.409 -0.0404  0.0935 -0.2440
 8185SOL     OW32505   5.877   2.000   1.570  0.4172 -0.1653 -0.3699
 8185SOL    HW232506   5.795   1.982   1.523  0.8122 -0.8636 -0.7968
 8185SOL    HW332507   5.921   2.065   1.516  0.1726  0.1785 -0.1631
 8185SOL    MW432508   5.872   2.006   1.557  0.1827  0.1693 -0.3074
 8186SOL     OW32509   2.161   4.577   1.656  0.5275 -0.1559  0.1715
 8186SOL    HW232510   2.191   4.522   1.728  1.2817 -0.3551 -0.2911
 8186SOL    HW332511   2.218   4.555   1.583 -1.7993 -1.8087 -1.2757
 8186SOL    MW432512   2.172   4.567   1.656 -0.6362  0.3928  0.3790
 8187SOL     OW32513   2.573   6.352   3.895  0.1146  0.3989 -0.7901
 8187SOL    HW232514   2.666   6.363   3.872  0.0130  0.6005 -1.1101
 8187SOL    HW332515   2.570   6.269   3.941  0.5420  0.6436 -0.2986
 8187SOL    MW432516   2.585   6.343   3.898  0.2986 -0.1790  0.8337
 8188SOL     OW32517   1.986   6.387   5.533 -0.5541  0.1831  0.4271
 8188SOL    HW232518   2.071   6.412   5.570 -0.1324 -1.1684  0.4225
 8188SOL    HW332519   2.004   6.376   5.439 -0.7021 -0.2648  0.4541
 8188SOL    MW432520   2.000   6.389   5.525 -0.3392  0.6128  0.2226
 8189SOL     OW32521   3.549   5.241   5.426 -0.0207 -0.4704 -0.7541
 8189SOL    HW232522   3.587   5.280   5.504 -1.6114  2.5226 -1.3549
 8189SOL    HW332523   3.604   5.164   5.409  1.9821  0.2678  1.7417
 8189SOL    MW432524   3.561   5.236   5.434  0.4847  0.4827 -0.1891
 8190SOL     OW32525   1.618   6.153   5.381 -0.7957  0.9460 -0.3144
 8190SOL    HW232526   1.577   6.067   5.393  0.3522  0.3037 -0.9144
 8190SOL    HW332527   1.544   6.213   5.374 -1.6226 -0.0341 -0.2624
 8190SOL    MW432528   1.602   6.150   5.382 -0.2809 -0.0767  0.3121
 8191SOL     OW32529   3.458   3.185   0.129  0.5381 -0.2435  0.3814
 8191SOL    HW232530   3.465   3.195   0.224  1.2644  0.2039  0.2828
 8191SOL    HW332531   3.540   3.220   0.094 -0.7589  2.0752 -0.5831
 8191SOL    MW432532   3.469   3.191   0.137 -0.1850 -0.1976 -0.0791
 8192SOL     OW32533   0.325   3.947   2.779  0.1179  0.4148  0.0866
 8192SOL    HW232534   0.286   3.945   2.692 -0.9740 -0.3645  0.5721
 8192SOL    HW332535   0.252   3.932   2.838  0.7812  1.3424  1.1701
 8192SOL    MW432536   0.310   3.944   2.775  0.0999 -0.0929 -0.7265
 8193SOL     OW32537   3.059   4.710   1.213 -0.2660  0.0092 -0.0413
 8193SOL    HW232538   3.145   4.667   1.216  0.1227  0.7870  0.4663
 8193SOL    HW332539   3.010   4.670   1.285  0.8853  1.9649  1.9532
 8193SOL    MW432540   3.064   4.699   1.223  0.1502  0.1445  0.3121
 8194SOL     OW32541   0.028   2.312   3.057 -0.0619  0.1722 -0.1543
 8194SOL    HW232542  -0.033   2.257   3.107 -1.0502  0.0379 -1.4709
 8194SOL    HW332543   0.059   2.377   3.121  0.6036 -1.4634  1.2590
 8194SOL    MW432544   0.024   2.313   3.072 -0.3222  0.6834 -0.1358
 8195SOL     OW32545   5.969   3.458   1.533  0.3394  0.1257 -0.1851
 8195SOL    HW232546   6.023   3.412   1.468  0.0101  0.6177 -0.8257
 8195SOL    HW332547   5.960   3.546   1.497 -1.4273 -0.1180 -0.4137
 8195SOL    MW432548   5.975   3.464   1.520  0.6376 -0.1341  0.4238
 8196SOL     OW32549   3.948   3.058   3.771 -0.1074 -0.5650 -0.0555
 8196SOL    HW232550   3.864   3.015   3.787  0.2318 -0.8857  0.9264
 8196SOL    HW332551   3.925   3.151   3.761 -0.5802 -0.6540  0.1536
 8196SOL    MW432552   3.934   3.065   3.772  0.2027 -0.2166  0.4660
 8197SOL     OW32553   3.241   1.880   0.515 -0.1646 -0.4214  0.9701
 8197SOL    HW232554   3.151   1.854   0.532 -0.0993 -1.2703  0.1113
 8197SOL    HW332555   3.273   1.816   0.451  0.9798 -0.0120  1.1055
 8197SOL    MW432556   3.234   1.868   0.509 -0.2525 -0.1414 -0.3644
 8198SOL     OW32557   2.647   5.301   5.196  0.7161 -0.6301 -0.0354
 8198SOL    HW232558   2.734   5.260   5.195  1.1137  0.1886 -0.3183
 8198SOL    HW332559   2.664   5.390   5.225  0.2210  0.0617 -1.7553
 8198SOL    MW432560   2.661   5.307   5.199  0.4248  0.0841 -0.5929
 8199SOL     OW32561   2.054   0.370   4.159 -0.3974  0.2199 -0.1890
 8199SOL    HW232562   2.042   0.292   4.213  1.0168  1.0467  1.4240
 8199SOL    HW332563   2.095   0.338   4.078 -0.8437 -0.8128 -0.0161
 8199SOL    MW432564   2.058   0.356   4.155  0.1668 -0.1320 -0.5330
 8200SOL     OW32565   0.614   2.456   1.588  0.1887  0.0928  0.5322
 8200SOL    HW232566   0.678   2.397   1.547 -0.4546 -0.4609  0.3077
 8200SOL    HW332567   0.546   2.398   1.621  0.0439  0.6396  1.2215
 8200SOL    MW432568   0.614   2.440   1.587  0.7053 -0.0779 -0.3422
 8201SOL     OW32569   6.183   0.275   1.613  0.2340  0.3102  0.1541
 8201SOL    HW232570   6.178   0.370   1.623  1.6433  0.2503  1.9720
 8201SOL    HW332571   6.112   0.241   1.669  1.2483  0.2601  1.4480
 8201SOL    MW432572   6.173   0.283   1.622  0.2684  0.1782 -0.2102
 8202SOL     OW32573   0.067   5.049   5.104 -0.0790 -0.2970 -0.2492
 8202SOL    HW232574   0.151   5.005   5.095 -0.1460 -0.2829 -0.9816
 8202SOL    HW332575   0.003   4.986   5.069 -0.7996 -1.5915  2.9642
 8202SOL    MW432576   0.070   5.035   5.098  0.0828 -0.2461  0.3771
 8203SOL     OW32577   2.237   4.198   1.336  0.4357  0.5225  0.4445
 8203SOL    HW232578   2.216   4.260   1.266  2.6692  0.1989 -0.6252
 8203SOL    HW332579   2.197   4.116   1.308 -0.3367  0.8636  0.5413
 8203SOL    MW432580   2.229   4.196   1.323  0.1136  0.6926 -0.0805
 8204SOL     OW32581   0.386   1.784   4.355 -0.2770  0.1334 -0.7927
 8204SOL    HW232582   0.300   1.800   4.315  0.1801 -0.1460 -1.9141
 8204SOL    HW332583   0.375   1.703   4.404 -0.1280 -0.9953 -2.5684
 8204SOL    MW432584   0.373   1.776   4.356 -0.0151  1.1807  0.0323
 8205SOL     OW32585   4.998   3.965   5.241  0.5373  0.5057  0.0530
 8205SOL    HW232586   5.050   3.930   5.168  0.8486 -0.1300  0.5612
 8205SOL    HW332587   5.019   4.058   5.243  0.1563  0.6176 -0.9629
 8205SOL    MW432588   5.008   3.973   5.232  0.2199 -0.5539  0.3747
 8206SOL     OW32589   4.186   0.568   5.158 -0.2316 -0.2618 -0.4659
 8206SOL    HW232590   4.149   0.542   5.073 -2.0197 -0.2777  0.2795
 8206SOL    HW332591   4.120   0.626   5.196  1.2096  0.9577  0.2939
 8206SOL    MW432592   4.172   0.572   5.152  0.6182  0.4459  0.3456
 8207SOL     OW32593   0.059   0.461   1.580 -0.4592 -0.6313 -0.0197
 8207SOL    HW232594   0.076   0.389   1.519 -1.1811  1.0122 -2.2939
 8207SOL    HW332595   0.127   0.525   1.562  0.3214 -0.7797  2.1467
 8207SOL    MW432596   0.070   0.460   1.570  0.7098  0.0863 -0.3126
 8208SOL     OW32597   2.605   3.705   0.194  0.3071  0.5340  0.0385
 8208SOL    HW232598   2.640   3.703   0.105 -0.6545  1.7365 -0.4064
 8208SOL    HW332599   2.621   3.794   0.224 -0.5468  0.5247  0.5667
 8208SOL    MW432600   2.612   3.716   0.186 -0.4887  0.4254 -0.3489
 8209SOL     OW32601   2.347   4.586   3.295 -0.1078 -0.2887 -0.0660
 8209SOL    HW232602   2.357   4.534   3.215  0.1686  1.8630 -1.4963
 8209SOL    HW332603   2.285   4.536   3.348  0.5196 -2.3059 -1.1291
 8209SOL    MW432604   2.341   4.572   3.292  0.5867  0.3867  0.0525
 8210SOL     OW32605   2.818   2.710   0.086 -0.0593 -0.2645  0.3308
 8210SOL    HW232606   2.771   2.758   0.155  1.0348  0.3799  0.6467
 8210SOL    HW332607   2.757   2.711   0.012 -1.0487 -0.5318  1.1079
 8210SOL    MW432608   2.803   2.717   0.085  0.1281 -0.3697 -0.0979
 8211SOL     OW32609   3.044   3.070   4.420 -0.3696 -0.4347 -0.1816
 8211SOL    HW232610   3.128   3.039   4.453  0.5984  1.4700 -0.6814
 8211SOL    HW332611   3.033   3.026   4.336  1.1578  0.7519 -1.0631
 8211SOL    MW432612   3.053   3.060   4.413 -0.5227 -0.0021 -1.0094
 8212SOL     OW32613   4.224   6.004   4.939  0.0722  0.0603  0.0772
 8212SOL    HW232614   4.317   6.007   4.915  1.0032  1.5983  3.2223
 8212SOL    HW332615   4.195   6.095   4.936 -0.6536 -0.1050  1.2529
 8212SOL    MW432616   4.233   6.017   4.936 -0.0734  0.5827 -0.1268
 8213SOL     OW32617   5.343   4.872   4.500 -0.5730 -0.2308 -0.0846
 8213SOL    HW232618   5.389   4.807   4.553  0.1480  0.2440 -0.1168
 8213SOL    HW332619   5.412   4.917   4.451 -1.3220 -1.8905 -2.9017
 8213SOL    MW432620   5.358   4.870   4.500 -0.2616 -0.3896 -0.2635
 8214SOL     OW32621   5.825   6.256   3.055  0.0670 -0.1431 -0.0750
 8214SOL    HW232622   5.737   6.243   3.089 -0.0048  3.5240  1.6598
 8214SOL    HW332623   5.832   6.197   2.981 -3.6922 -0.8676 -0.0178
 8214SOL    MW432624   5.815   6.247   3.050 -0.1652 -0.0341  0.0372
 8215SOL     OW32625   1.633   2.157   2.709  0.0717 -0.3359  0.4702
 8215SOL    HW232626   1.601   2.096   2.775  0.7965  0.0516  1.1975
 8215SOL    HW332627   1.605   2.243   2.740 -1.2107 -0.2848 -0.7022
 8215SOL    MW432628   1.625   2.160   2.721  0.4509 -0.6732 -0.4878
 8216SOL     OW32629   0.542   6.091   0.222  0.2645  0.2948  0.2486
 8216SOL    HW232630   0.496   6.006   0.219 -0.9344  0.8036  2.1657
 8216SOL    HW332631   0.577   6.096   0.311  0.1913  1.8603  0.2193
 8216SOL    MW432632   0.540   6.080   0.234 -0.6377  0.6868  0.9955
 8217SOL     OW32633   3.263   0.298   0.221  0.2948  0.0752  0.2925
 8217SOL    HW232634   3.205   0.222   0.216 -0.1641  0.4863 -0.7362
 8217SOL    HW332635   3.303   0.304   0.135  0.1409  1.1472  0.2875
 8217SOL    MW432636   3.261   0.288   0.209  0.4314  0.0550  0.2772
 8218SOL     OW32637   1.662   5.157   2.956 -0.4474 -0.3186  0.7335
 8218SOL    HW232638   1.622   5.189   3.036 -1.9265 -0.5305  0.1155
 8218SOL    HW332639   1.616   5.074   2.938 -0.1472 -0.2682 -0.3252
 8218SOL    MW432640   1.650   5.150   2.964  0.2762  0.1536  0.5596
 8219SOL     OW32641   2.754   0.535   6.156  0.5698  0.0413 -0.3364
 8219SOL    HW232642   2.726   0.467   6.218 -0.0351  0.5741 -0.0159
 8219SOL    HW332643   2.685   0.537   6.090  0.2359  0.8168  0.0276
 8219SOL    MW432644   2.741   0.526   6.156 -0.1637  0.4951 -0.3533
 8220SOL     OW32645   0.874   3.964   3.123 -0.0688  0.5520  0.6030
 8220SOL    HW232646   0.870   4.043   3.177  0.5430  0.7848  0.3118
 8220SOL    HW332647   0.946   3.913   3.159 -1.0068 -0.3005  1.3431
 8220SOL    MW432648   0.883   3.968   3.135 -0.1164  0.2251 -0.5795
 8221SOL     OW32649   2.019   4.253   2.758 -0.3576 -0.6312  0.2454
 8221SOL    HW232650   2.067   4.289   2.683 -0.0071  1.9765  1.5872
 8221SOL    HW332651   2.022   4.158   2.746  1.4323 -0.3694 -1.9585
 8221SOL    MW432652   2.026   4.245   2.747 -0.2075  0.2270  0.1270
 8222SOL     OW32653   2.983   0.725   0.126  0.2879 -0.6143 -0.4194
 8222SOL    HW232654   3.006   0.632   0.116 -0.5838 -1.1509  1.8349
 8222SOL    HW332655   2.988   0.740   0.221 -1.4667  1.1326 -0.5572
 8222SOL    MW432656   2.987   0.715   0.138 -0.7349 -0.3319  0.0374
 8223SOL     OW32657   3.730   4.183   6.111 -0.4767 -0.0434  0.1707
 8223SOL    HW232658   3.789   4.222   6.175  0.1122 -0.0368 -0.3714
 8223SOL    HW332659   3.697   4.104   6.154 -2.2270  1.3628  1.5660
 8223SOL    MW432660   3.733   4.178   6.125  0.2088  0.3219  0.0312
 8224SOL     OW32661   0.121   6.022   5.488 -0.1458 -0.1990 -1.0210
 8224SOL    HW232662   0.027   6.012   5.479 -0.4068 -1.1884  1.8170
 8224SOL    HW332663   0.143   6.096   5.431 -3.1822  2.2840  0.7179
 8224SOL    MW432664   0.112   6.030   5.479 -0.2075 -0.5629  0.1686
 8225SOL     OW32665   2.198   2.485   3.194 -0.3034  0.2938  0.5058
 8225SOL    HW232666   2.250   2.419   3.239  1.9169  1.2144 -0.5491
 8225SOL    HW332667   2.143   2.435   3.133 -0.0014 -0.6639  1.0023
 8225SOL    MW432668   2.197   2.470   3.192 -0.7044  0.2017 -0.1444
 8226SOL     OW32669   0.057   2.342   0.699 -0.1264  0.6792 -0.7062
 8226SOL    HW232670   0.151   2.353   0.709 -0.0010 -0.6403 -0.1875
 8226SOL    HW332671   0.034   2.397   0.624  1.2546  0.1392 -1.5601
 8226SOL    MW432672   0.066   2.350   0.690  0.5135 -0.6109 -0.1016
 8227SOL     OW32673   1.143   3.013   6.101  0.7386 -0.1474  0.4011
 8227SOL    HW232674   1.087   3.091   6.096  0.6158 -0.1865  1.1191
 8227SOL    HW332675   1.089   2.943   6.064  0.9655  0.1609 -0.5501
 8227SOL    MW432676   1.128   3.014   6.096  0.2449  0.5885 -0.2302
 8228SOL     OW32677   1.363   1.634   5.453  0.0122  0.0992  0.2610
 8228SOL    HW232678   1.452   1.632   5.487  0.0236  3.4290  0.7530
 8228SOL    HW332679   1.370   1.594   5.366  1.1288 -3.1724  1.7311
 8228SOL    MW432680   1.376   1.629   5.446  0.2393  0.4821 -0.9554
 8229SOL     OW32681   3.697   5.978   3.749 -0.1724 -0.3217  0.7975
 8229SOL    HW232682   3.627   5.926   3.788 -1.6814  0.5151 -0.6700
 8229SOL    HW332683   3.720   6.043   3.816 -0.0697 -1.2234  1.6571
 8229SOL    MW432684   3.691   5.980   3.763 -0.5439  0.0911  0.4469
 8230SOL     OW32685   4.436   0.870   1.780  0.2867  0.3811 -0.2039
 8230SOL    HW232686   4.427   0.915   1.696  1.9858 -0.9212 -1.1369
 8230SOL    HW332687   4.434   0.941   1.845 -0.9563  1.4250 -1.2957
 8230SOL    MW432688   4.434   0.886   1.777 -0.5384  0.3221 -0.5359
 8231SOL     OW32689   0.142   5.266   4.937  0.1953  0.4734 -0.5930
 8231SOL    HW232690   0.062   5.292   4.893  0.1113  0.4634 -0.4457
 8231SOL    HW332691   0.119   5.187   4.985  0.3604  0.3218 -0.7583
 8231SOL    MW432692   0.129   5.259   4.938 -0.1076  0.1443  0.1897
 8232SOL     OW32693   5.760   5.017   5.497  0.2094 -0.1368  1.1613
 8232SOL    HW232694   5.761   4.994   5.404 -1.8356  0.7845  0.8632
 8232SOL    HW332695   5.850   5.041   5.517  0.6147 -0.0207 -0.6721
 8232SOL    MW432696   5.772   5.017   5.488  0.2551  0.0884 -0.0716
 8233SOL     OW32697   3.743   3.881   3.327 -0.3097  0.1191 -0.3271
 8233SOL    HW232698   3.768   3.814   3.392  1.4541  1.1418  0.1032
 8233SOL    HW332699   3.822   3.896   3.276 -0.3198  2.6087  0.2542
 8233SOL    MW432700   3.757   3.874   3.329  0.0974 -0.0279 -0.0354
 8234SOL     OW32701   4.602   0.809   5.468 -0.4167 -0.0713  0.3978
 8234SOL    HW232702   4.586   0.884   5.411  0.8074  0.5446  0.8367
 8234SOL    HW332703   4.554   0.737   5.427 -2.6441  1.2030  0.6072
 8234SOL    MW432704   4.593   0.809   5.455 -0.3471 -0.0243  0.3139
 8235SOL     OW32705   2.724   5.714   3.025 -0.0485 -0.1903  0.1443
 8235SOL    HW232706   2.809   5.742   2.993  0.3961 -1.0475  0.5412
 8235SOL    HW332707   2.662   5.745   2.959  0.5327  0.7059  0.0083
 8235SOL    MW432708   2.727   5.722   3.012  0.2517  0.0914  0.2605
 8236SOL     OW32709   5.565   0.616   6.201  0.5911 -0.5083 -0.6296
 8236SOL    HW232710   5.564   0.708   6.172 -0.0458 -0.1923  0.3685
 8236SOL    HW332711   5.658   0.593   6.201  1.1845  1.3085  2.5878
 8236SOL    MW432712   5.577   0.625   6.197 -0.0134  0.1536 -0.4593
 8237SOL     OW32713   2.626   5.684   2.626  0.3294 -0.4660 -0.1868
 8237SOL    HW232714   2.674   5.724   2.553  1.1332  1.2686  1.2208
 8237SOL    HW332715   2.539   5.665   2.591  0.4377  1.0807 -1.3785
 8237SOL    MW432716   2.621   5.687   2.612 -0.1672 -0.0120  0.2464
 8238SOL     OW32717   4.419   4.922   0.604 -0.6568 -0.0197 -0.4909
 8238SOL    HW232718   4.348   4.948   0.545 -0.6538  0.6456 -0.2104
 8238SOL    HW332719   4.427   4.828   0.592 -1.4838 -0.0757 -0.6519
 8238SOL    MW432720   4.411   4.913   0.595  0.0684 -0.1248 -0.5804
 8239SOL     OW32721   5.362   5.937   2.589  0.1959  0.2130  1.3892
 8239SOL    HW232722   5.456   5.933   2.609  0.5653 -0.9115 -0.3459
 8239SOL    HW332723   5.341   6.030   2.592  2.0253  0.7890 -0.8021
 8239SOL    MW432724   5.372   5.949   2.592  0.1343 -0.4837 -0.7242
 8240SOL     OW32725   1.987   6.059   0.836 -0.2640  0.7412 -0.2839
 8240SOL    HW232726   2.038   6.017   0.768  1.5261 -1.0478  1.9880
 8240SOL    HW332727   2.031   6.143   0.851  0.3797  0.3866 -0.1806
 8240SOL    MW432728   1.999   6.065   0.829  0.1935 -0.4448  0.3392
 8241SOL     OW32729   4.915   1.441   2.794 -0.1925 -0.3410 -0.0710
 8241SOL    HW232730   4.842   1.492   2.828 -0.4766 -2.1993  2.3073
 8241SOL    HW332731   4.974   1.431   2.868  0.2571 -2.7153 -0.6685
 8241SOL    MW432732   4.913   1.446   2.808  0.3627  0.4294 -0.0668
 8242SOL     OW32733   4.340   0.072   1.792  0.3007 -0.6595  0.2430
 8242SOL    HW232734   4.273   0.056   1.726  0.6235  2.7223 -1.1245
 8242SOL    HW332735   4.294   0.065   1.875 -2.2648  2.7514 -0.6605
 8242SOL    MW432736   4.325   0.069   1.794  0.3047 -0.1920  0.7772
 8243SOL     OW32737   3.180   5.512   0.734  0.4455 -0.1108 -0.0411
 8243SOL    HW232738   3.097   5.549   0.703 -0.0126  0.5536  1.8795
 8243SOL    HW332739   3.247   5.563   0.689 -0.1604 -0.3481 -1.2589
 8243SOL    MW432740   3.178   5.523   0.724 -0.1509 -0.2325 -0.7876
 8244SOL     OW32741   5.622   5.252   3.477 -0.7708 -0.0664  0.2419
 8244SOL    HW232742   5.541   5.267   3.428  0.1921  0.0889 -1.3652
 8244SOL    HW332743   5.598   5.269   3.568 -2.2762  1.0431 -0.3150
 8244SOL    MW432744   5.608   5.256   3.483  0.5727  0.1218  0.1203
 8245SOL     OW32745   1.884   1.057   5.654 -0.0413 -0.1693  0.5344
 8245SOL    HW232746   1.852   1.142   5.622  0.1734 -0.9429 -1.9532
 8245SOL    HW332747   1.976   1.073   5.675 -0.0786  0.2801  0.3793
 8245SOL    MW432748   1.892   1.071   5.652  0.6031  0.2709  0.1550
 8246SOL     OW32749   5.582   1.552   4.355  0.0871 -0.2255 -0.2283
 8246SOL    HW232750   5.581   1.577   4.263  0.1589  0.0328 -0.1616
 8246SOL    HW332751   5.541   1.626   4.400 -1.3131 -0.9902 -0.1963
 8246SOL    MW432752   5.577   1.565   4.349  0.2192  0.2374 -0.1555
 8247SOL     OW32753   5.280   2.623   0.512 -0.0459  0.6548  0.3081
 8247SOL    HW232754   5.288   2.556   0.444  0.0733  0.3749  0.5936
 8247SOL    HW332755   5.371   2.646   0.533 -0.0663  0.4005  0.6995
 8247SOL    MW432756   5.293   2.617   0.506  0.3565 -0.3770 -0.4239
 8248SOL     OW32757   1.898   1.420   3.721 -0.5328 -0.2297  0.0127
 8248SOL    HW232758   1.946   1.342   3.692 -1.7496 -0.8184 -0.5091
 8248SOL    HW332759   1.907   1.481   3.647  1.1703  0.5209  0.7742
 8248SOL    MW432760   1.906   1.418   3.707 -0.4437  0.4131 -0.0196
 8249SOL     OW32761   0.113   5.944   4.728  0.6260  0.1271 -0.2886
 8249SOL    HW232762   0.166   5.864   4.729  0.4970  0.0202  1.0776
 8249SOL    HW332763   0.030   5.917   4.768  0.1218  0.6584 -0.9710
 8249SOL    MW432764   0.109   5.930   4.734  0.5861  0.0291  0.8457
 8250SOL     OW32765   5.080   5.834   0.878  0.7197  0.1281  0.0495
 8250SOL    HW232766   5.094   5.767   0.945 -1.1731 -1.7884 -1.3487
 8250SOL    HW332767   5.008   5.888   0.913  1.4135  0.7002  0.6254
 8250SOL    MW432768   5.072   5.832   0.892 -0.3136  0.2669 -0.5376
 8251SOL     OW32769   2.979   5.433   2.968 -0.0042 -0.0130 -0.1044
 8251SOL    HW232770   2.986   5.529   2.966 -1.7273  0.2122  1.4282
 8251SOL    HW332771   3.010   5.409   3.055  0.4917 -0.8873 -0.5116
 8251SOL    MW432772   2.984   5.443   2.979  0.1755 -0.0550 -0.2475
 8252SOL     OW32773   4.194   2.536   1.451  0.1137  0.5298  0.5787
 8252SOL    HW232774   4.181   2.533   1.356  1.3103 -1.0394  0.4273
 8252SOL    HW332775   4.274   2.587   1.463 -1.0124  2.3298  0.9195
 8252SOL    MW432776   4.203   2.543   1.440  0.2311 -0.3657  0.8487
 8253SOL     OW32777   6.211   5.538   3.151  0.1440  0.1914  0.0979
 8253SOL    HW232778   6.247   5.533   3.239 -0.0232  0.7404  0.1997
 8253SOL    HW332779   6.147   5.609   3.155 -0.5402 -0.3951 -0.2281
 8253SOL    MW432780   6.207   5.547   3.163  0.8336  0.6075 -0.0344
 8254SOL     OW32781   0.286   3.405   5.658  0.0253 -0.3306  0.6410
 8254SOL    HW232782   0.195   3.433   5.657 -0.2944 -1.3123 -0.7284
 8254SOL    HW332783   0.335   3.481   5.627 -0.6932 -0.7560 -1.7512
 8254SOL    MW432784   0.281   3.419   5.653  0.2138 -0.0250 -0.0535
 8255SOL     OW32785   1.811   2.991   1.676 -0.4704 -0.0029 -0.0925
 8255SOL    HW232786   1.901   3.000   1.644  0.9847 -1.7018  3.0828
 8255SOL    HW332787   1.802   2.898   1.696 -2.1203  0.5124  1.8244
 8255SOL    MW432788   1.821   2.980   1.674  0.1967 -0.0385 -0.4618
 8256SOL     OW32789   5.160   1.021   2.004 -0.2298  0.0215  0.3633
 8256SOL    HW232790   5.170   1.095   2.063  0.3785 -1.3120  2.0263
 8256SOL    HW332791   5.222   1.038   1.933  0.0126  1.0195  0.8039
 8256SOL    MW432792   5.169   1.033   2.002  0.0615  0.3694  0.1819
 8257SOL     OW32793   1.179   4.418   1.014  0.3158  0.0823  0.3492
 8257SOL    HW232794   1.135   4.405   0.930 -0.3246  0.4311  0.6258
 8257SOL    HW332795   1.113   4.393   1.079  0.8013 -0.1669  0.7524
 8257SOL    MW432796   1.164   4.413   1.012 -0.0982  0.3017  0.0499
 8258SOL     OW32797   5.360   3.503   4.616  0.1818  0.0354  0.3716
 8258SOL    HW232798   5.280   3.543   4.582  0.4952 -0.5463 -1.1515
 8258SOL    HW332799   5.372   3.425   4.562  1.2703 -0.4111  1.2117
 8258SOL    MW432800   5.351   3.498   4.605  0.8826  0.4875  0.3972
 8259SOL     OW32801   0.412   4.630   1.245 -0.1384  0.0670 -0.3631
 8259SOL    HW232802   0.384   4.542   1.269  1.9641 -0.6048 -0.1967
 8259SOL    HW332803   0.474   4.617   1.173  1.1193  1.2713  0.4403
 8259SOL    MW432804   0.416   4.617   1.239 -0.5107  0.0916  0.1842
 8260SOL     OW32805   4.714   6.131   1.339  0.5566 -0.5376  0.0576
 8260SOL    HW232806   4.670   6.065   1.393  0.6862 -2.9327 -2.5374
 8260SOL    HW332807   4.794   6.153   1.387 -0.7705 -0.2407  2.2241
 8260SOL    MW432808   4.719   6.125   1.352  0.0278  0.9289  0.5891
 8261SOL     OW32809   1.943   3.586   2.660  0.2195 -0.5585 -0.1114
 8261SOL    HW232810   2.020   3.530   2.651  0.0600 -0.5332 -2.0005
 8261SOL    HW332811   1.870   3.530   2.635 -0.1602 -0.0726 -0.0925
 8261SOL    MW432812   1.944   3.571   2.655  0.7163 -0.0913  0.0293
 8262SOL     OW32813   0.469   1.052   5.517 -0.1697  0.1837  0.3393
 8262SOL    HW232814   0.404   0.982   5.518 -0.2448  0.2531  0.2897
 8262SOL    HW332815   0.534   1.023   5.453 -0.6337  0.5547 -0.3130
 8262SOL    MW432816   0.469   1.039   5.509  0.5141 -0.3032 -0.2227
 8263SOL     OW32817   1.223   1.431   3.586 -0.7741 -0.0278  0.5659
 8263SOL    HW232818   1.144   1.379   3.570 -1.1449  0.4943  0.6690
 8263SOL    HW332819   1.210   1.511   3.535 -0.2562  0.0140  0.4932
 8263SOL    MW432820   1.211   1.435   3.577 -0.0456 -0.9734 -0.1186
 8264SOL     OW32821   4.836   0.154   2.245  0.0912 -0.5450  0.0138
 8264SOL    HW232822   4.761   0.137   2.189 -0.3807 -1.1384  0.7937
 8264SOL    HW332823   4.907   0.175   2.185 -0.2797 -1.5950 -0.8284
 8264SOL    MW432824   4.835   0.154   2.230 -0.0666  0.3487  0.3652
 8265SOL     OW32825   0.770   5.327   2.199 -0.1001 -0.9329  0.7862
 8265SOL    HW232826   0.711   5.252   2.187  0.5183 -1.6124  1.8583
 8265SOL    HW332827   0.835   5.296   2.262  1.0638  0.0032  0.0857
 8265SOL    MW432828   0.771   5.313   2.206  0.2847 -0.5345  0.4624
 8266SOL     OW32829   6.458   3.430   3.503  0.1598 -0.2125  0.2003
 8266SOL    HW232830   6.421   3.514   3.532 -0.1507 -0.6089  0.9647
 8266SOL    HW332831   6.382   3.379   3.476  0.4041 -0.0340 -0.8495
 8266SOL    MW432832   6.443   3.435   3.503  0.3704  0.0826 -0.1165
 8267SOL     OW32833   5.999   3.892   5.476 -0.0635 -0.6152 -0.1654
 8267SOL    HW232834   5.964   3.805   5.498  2.7112 -1.7815 -0.0409
 8267SOL    HW332835   6.034   3.925   5.558  0.6662 -0.2586 -0.6130
 8267SOL    MW432836   5.999   3.885   5.490 -0.0099 -0.1655  0.1364
 8268SOL     OW32837   1.681   4.829   0.933 -0.2213 -0.0117 -0.0871
 8268SOL    HW232838   1.644   4.893   0.994 -0.7367  0.1229 -0.5422
 8268SOL    HW332839   1.774   4.823   0.958 -0.2092  0.7820  0.0664
 8268SOL    MW432840   1.688   4.836   0.944  0.3571  0.1974 -0.0418
 8269SOL     OW32841   1.788   3.364   5.440 -0.1422 -0.0134  0.0886
 8269SOL    HW232842   1.772   3.458   5.442  2.3188  0.4999 -0.8281
 8269SOL    HW332843   1.701   3.325   5.446 -1.2008  2.2844  0.9572
 8269SOL    MW432844   1.775   3.371   5.441  0.0578  0.0361 -0.5401
 8270SOL     OW32845   2.390   2.415   4.965 -0.2482  0.8346 -0.9635
 8270SOL    HW232846   2.475   2.409   4.922 -0.3510 -0.0399 -1.0621
 8270SOL    HW332847   2.406   2.387   5.055 -0.5827 -0.1950 -1.2065
 8270SOL    MW432848   2.403   2.410   4.971 -0.0197 -0.2731  0.5249
 8271SOL     OW32849   2.704   6.015   0.645  0.1883  0.0689  0.4769
 8271SOL    HW232850   2.676   6.064   0.722 -0.0146  2.5980 -1.0719
 8271SOL    HW332851   2.644   5.941   0.641  0.2424 -0.1650  2.7297
 8271SOL    MW432852   2.692   6.012   0.654 -0.4006  0.0078 -0.2549
 8272SOL     OW32853   4.689   2.879   5.390  0.0126  0.1137  0.2439
 8272SOL    HW232854   4.727   2.792   5.379  0.0821  0.1422  0.2539
 8272SOL    HW332855   4.632   2.891   5.314 -0.7436 -0.3255  0.7313
 8272SOL    MW432856   4.687   2.869   5.379  0.6004  0.4945  0.3313
 8273SOL     OW32857   4.736   6.243   4.372  0.0974  0.6780  0.4607
 8273SOL    HW232858   4.803   6.305   4.342  1.1310 -1.5532 -2.3546
 8273SOL    HW332859   4.659   6.265   4.320  0.7183 -0.7816 -1.1796
 8273SOL    MW432860   4.734   6.254   4.361 -0.1637 -0.3515 -0.1354
 8274SOL     OW32861   0.440   3.887   4.887 -0.5585 -0.6302 -0.2519
 8274SOL    HW232862   0.439   3.808   4.941 -3.7514 -1.2765 -1.0253
 8274SOL    HW332863   0.394   3.953   4.940  0.6668  0.2601 -0.2592
 8274SOL    MW432864   0.434   3.886   4.901  0.3479 -0.0023  0.2397
 8275SOL     OW32865   5.366   3.990   2.548 -0.1155 -0.2270 -0.1354
 8275SOL    HW232866   5.340   3.936   2.623 -0.9329 -1.1363 -1.0313
 8275SOL    HW332867   5.309   3.960   2.477  1.1721  0.0543 -1.3307
 8275SOL    MW432868   5.355   3.979   2.548  0.3494  0.0847  0.3516
 8276SOL     OW32869   4.616   1.187   0.666  0.5343  0.6488 -0.3460
 8276SOL    HW232870   4.544   1.162   0.609  1.3914 -0.8292 -0.8312
 8276SOL    HW332871   4.580   1.257   0.721 -0.9566  0.6044 -1.2167
 8276SOL    MW432872   4.602   1.193   0.666 -0.9982  0.5771 -0.1291
 8277SOL     OW32873   0.924   2.872   5.993 -0.3574  0.3645 -0.3761
 8277SOL    HW232874   0.876   2.935   6.047 -3.3216 -1.2560 -0.9169
 8277SOL    HW332875   0.874   2.866   5.912  1.2810 -0.8489 -1.3726
 8277SOL    MW432876   0.911   2.879   5.990 -0.6259  0.0550  0.5775
 8278SOL     OW32877   1.602   0.833   2.268 -0.3024  0.1265 -0.0033
 8278SOL    HW232878   1.521   0.809   2.221 -0.9074  0.7580  0.6931
 8278SOL    HW332879   1.586   0.808   2.358  1.2903 -2.1088 -0.2724
 8278SOL    MW432880   1.589   0.827   2.273  0.4483  0.6881  0.1266
 8279SOL     OW32881   5.232   2.663   5.179 -0.2075 -0.0362  0.5611
 8279SOL    HW232882   5.245   2.745   5.226  0.8020 -0.6479  1.3968
 8279SOL    HW332883   5.194   2.688   5.095 -1.9264  1.1195  1.6222
 8279SOL    MW432884   5.228   2.677   5.174  0.0206  0.5802  0.1678
 8280SOL     OW32885   0.228   4.682   3.259 -0.1591  0.0336  0.5111
 8280SOL    HW232886   0.294   4.709   3.195 -0.6738 -0.6931 -0.3318
 8280SOL    HW332887   0.144   4.696   3.215 -0.5864  0.7567  1.5017
 8280SOL    MW432888   0.225   4.688   3.245 -0.2631  0.5085  0.0352
 8281SOL     OW32889   2.875   2.757   4.640  0.3593  0.0744  0.6640
 8281SOL    HW232890   2.898   2.850   4.632  1.4329  0.0231  2.5671
 8281SOL    HW332891   2.912   2.717   4.561  0.5222  1.1408  0.1723
 8281SOL    MW432892   2.883   2.764   4.628 -0.1006 -0.0826 -0.0806
 8282SOL     OW32893   2.249   2.566   5.257 -0.1225  1.2163  0.2023
 8282SOL    HW232894   2.228   2.473   5.267  2.4918  0.3247 -1.5404
 8282SOL    HW332895   2.193   2.596   5.186  1.0836  0.1009 -1.2878
 8282SOL    MW432896   2.239   2.557   5.249  0.3921  0.3002 -0.1691
 8283SOL     OW32897   4.331   5.903   3.190 -0.3337 -0.2279 -0.0064
 8283SOL    HW232898   4.286   5.946   3.118  0.6670 -0.3145 -0.7016
 8283SOL    HW332899   4.415   5.948   3.197 -1.2185  1.2423  2.5465
 8283SOL    MW432900   4.336   5.915   3.181 -0.8466 -0.2496  0.0378
 8284SOL     OW32901   5.782   0.317   1.204 -0.4411  0.3205 -0.1675
 8284SOL    HW232902   5.818   0.274   1.126  0.5986  0.0418  0.4566
 8284SOL    HW332903   5.745   0.246   1.256 -0.0320  0.3541  0.1730
 8284SOL    MW432904   5.782   0.302   1.201 -0.2553 -0.0451  0.0987
 8285SOL     OW32905   6.407   5.797   5.860  0.2468 -0.1075  0.2503
 8285SOL    HW232906   6.374   5.884   5.881 -0.5301 -0.6322  1.3344
 8285SOL    HW332907   6.484   5.812   5.805  0.5214  1.2710  0.9853
 8285SOL    MW432908   6.413   5.810   5.856  0.1440 -1.4399 -0.0768
 8286SOL     OW32909   3.919   4.563   2.366  0.6248  0.1026 -0.0622
 8286SOL    HW232910   3.988   4.581   2.302  0.9260 -0.7084  0.0330
 8286SOL    HW332911   3.873   4.487   2.331  0.5832 -0.1412  0.5221
 8286SOL    MW432912   3.922   4.556   2.353 -0.5031 -0.1257  0.2403
 8287SOL     OW32913   4.935   0.912   1.032 -0.0767 -0.1964  0.4472
 8287SOL    HW232914   5.030   0.920   1.041  0.0518 -2.1943  1.4448
 8287SOL    HW332915   4.908   0.861   1.108 -2.0475  0.7763  0.4538
 8287SOL    MW432916   4.944   0.906   1.043  0.1682  0.1285  0.2285
 8288SOL     OW32917   4.357   4.832   4.889  0.2199 -0.1776  0.2722
 8288SOL    HW232918   4.285   4.788   4.935  0.3794  1.3923  2.1248
 8288SOL    HW332919   4.316   4.904   4.842  0.4907  0.4818  1.0154
 8288SOL    MW432920   4.342   4.835   4.889 -0.2075  0.2824 -0.1308
 8289SOL     OW32921   3.753   5.316   1.278 -0.6114 -0.3401  0.5607
 8289SOL    HW232922   3.756   5.365   1.196 -1.1177 -0.6197  0.3701
 8289SOL    HW332923   3.799   5.372   1.341  0.1358 -0.3065 -0.0018
 8289SOL    MW432924   3.760   5.330   1.275  0.2099  0.1639 -0.1325
 8290SOL     OW32925   4.968   4.440   0.742 -0.6892 -0.1651 -0.0150
 8290SOL    HW232926   5.028   4.466   0.812  0.1395 -2.5220  0.2366
 8290SOL    HW332927   5.018   4.455   0.662 -0.3900 -0.5455  0.0976
 8290SOL    MW432928   4.983   4.446   0.741  0.6923 -0.2253 -0.0342
 8291SOL     OW32929   5.503   3.704   1.552  0.5922  0.2498 -0.1507
 8291SOL    HW232930   5.567   3.761   1.509  0.7624  0.2387  0.0896
 8291SOL    HW332931   5.440   3.683   1.483  1.0516 -0.0444 -0.4876
 8291SOL    MW432932   5.503   3.708   1.537 -0.2449  0.0579 -0.2409
 8292SOL     OW32933   3.182   5.520   4.321 -0.0823  0.1152 -0.7694
 8292SOL    HW232934   3.262   5.527   4.269  1.0170 -1.1775  0.6838
 8292SOL    HW332935   3.126   5.461   4.271  0.7714 -0.7333 -0.7539
 8292SOL    MW432936   3.185   5.513   4.307 -0.0383 -0.0828 -0.4434
 8293SOL     OW32937   6.407   4.211   5.544  0.3676  0.1433  0.3578
 8293SOL    HW232938   6.334   4.226   5.604 -1.1786  0.7700 -1.5781
 8293SOL    HW332939   6.471   4.163   5.596 -2.0344 -1.7953  1.7731
 8293SOL    MW432940   6.406   4.206   5.559  0.3244 -0.3967  0.4465
 8294SOL     OW32941   6.199   3.348   4.336 -0.1343 -0.2535 -0.2942
 8294SOL    HW232942   6.142   3.271   4.333 -0.1964 -0.2893  1.1513
 8294SOL    HW332943   6.287   3.313   4.320 -0.0264 -0.8171  1.3150
 8294SOL    MW432944   6.203   3.333   4.333  0.7557  0.0190 -0.6345
 8295SOL     OW32945   5.514   4.148   4.866 -0.4006 -0.1766 -0.5991
 8295SOL    HW232946   5.496   4.062   4.827 -1.4848  0.1613 -0.8582
 8295SOL    HW332947   5.563   4.195   4.799  0.8512 -0.8293 -0.1811
 8295SOL    MW432948   5.518   4.143   4.852 -0.3666  0.9724 -0.6156
 8296SOL     OW32949   3.730   2.570   5.074  0.0446  0.0720  0.5292
 8296SOL    HW232950   3.787   2.632   5.029  2.4175 -1.2150  1.5100
 8296SOL    HW332951   3.710   2.503   5.008 -0.9390  0.8839 -0.0114
 8296SOL    MW432952   3.735   2.569   5.060 -0.0729 -0.4283  0.5920
 8297SOL     OW32953   2.442   4.750   3.589  0.0232 -0.3752  0.5390
 8297SOL    HW232954   2.356   4.712   3.572  0.0195  0.5813 -2.0965
 8297SOL    HW332955   2.504   4.684   3.557  0.1273  0.2548 -0.6111
 8297SOL    MW432956   2.439   4.736   3.582 -0.4649  0.5232  0.4138
 8298SOL     OW32957   4.929   2.699   2.230 -0.4132 -0.6097 -0.1165
 8298SOL    HW232958   4.840   2.670   2.210 -0.2902 -3.2567  2.4574
 8298SOL    HW332959   4.986   2.635   2.186  0.2276  0.7151 -1.2621
 8298SOL    MW432960   4.925   2.686   2.222 -1.0401  0.6478 -0.6029
 8299SOL     OW32961   4.788   1.554   6.066 -0.3044 -0.6154 -0.1648
 8299SOL    HW232962   4.723   1.567   6.135  2.7782  1.0067  2.7401
 8299SOL    HW332963   4.828   1.469   6.087 -0.3642 -0.8440 -0.9427
 8299SOL    MW432964   4.784   1.544   6.078  1.0616 -0.1248 -0.2478
 8300SOL     OW32965   2.830   2.838   3.840  0.2847  0.2841  0.5777
 8300SOL    HW232966   2.848   2.770   3.906 -0.5687  0.6798  1.2297
 8300SOL    HW332967   2.848   2.920   3.885 -1.2918  0.6102  0.6685
 8300SOL    MW432968   2.835   2.840   3.854 -0.4789 -0.8600  0.6015
 8301SOL     OW32969   1.445   4.025   1.677 -0.1646 -0.4442 -0.3051
 8301SOL    HW232970   1.480   4.081   1.607 -1.8736  1.2491  0.0974
 8301SOL    HW332971   1.387   3.964   1.632  1.5148 -1.8042 -0.7203
 8301SOL    MW432972   1.442   4.025   1.662 -0.0638 -0.7080 -0.1957
 8302SOL     OW32973   3.008   0.778   2.063 -0.5039  0.1374 -0.2147
 8302SOL    HW232974   2.931   0.728   2.092 -0.8304 -0.2144 -1.6076
 8302SOL    HW332975   2.999   0.863   2.107 -0.9153 -0.3942  0.7606
 8302SOL    MW432976   2.996   0.783   2.073 -0.0067 -0.5729 -0.5208
 8303SOL     OW32977   1.601   5.046   6.430  0.4794  0.4386 -0.6558
 8303SOL    HW232978   1.582   4.952   6.427  0.7040  0.4151 -2.1919
 8303SOL    HW332979   1.529   5.087   6.382 -0.2054  1.1885  0.9443
 8303SOL    MW432980   1.589   5.039   6.423 -0.3611  0.3197 -0.3145
 8304SOL     OW32981   3.002   2.845   3.633 -0.5816 -0.3543  0.0975
 8304SOL    HW232982   2.938   2.832   3.703  1.3837  1.7912  2.4602
 8304SOL    HW332983   2.953   2.892   3.565 -1.5939  1.2070  1.8068
 8304SOL    MW432984   2.987   2.849   3.633 -0.6424  0.1734 -0.1400
 8305SOL     OW32985   4.508   0.418   5.821  0.3518  0.5027 -0.0698
 8305SOL    HW232986   4.469   0.460   5.897 -1.1428  0.4075 -0.7452
 8305SOL    HW332987   4.597   0.454   5.816  0.3695  0.7373  1.5091
 8305SOL    MW432988   4.515   0.428   5.830  0.3932 -0.0256  0.3604
 8306SOL     OW32989   1.884   4.212   1.260 -0.0589  0.0003  0.4155
 8306SOL    HW232990   1.829   4.268   1.205  2.0125 -0.2528 -2.1293
 8306SOL    HW332991   1.953   4.270   1.292  1.1700 -0.6751 -0.8874
 8306SOL    MW432992   1.886   4.227   1.257  0.1996  0.3715 -0.0359
 8307SOL     OW32993   1.725   5.529   3.456 -0.3303 -0.2129  0.3286
 8307SOL    HW232994   1.766   5.613   3.475  0.6657 -0.2544 -1.4454
 8307SOL    HW332995   1.638   5.552   3.421 -0.1843  0.0684  0.1452
 8307SOL    MW432996   1.719   5.543   3.454  0.3246 -0.0179 -0.1565
 8308SOL     OW32997   0.679   1.842   0.719 -0.2630  0.4116  0.4588
 8308SOL    HW232998   0.677   1.807   0.629  1.2318  0.4678  0.3773
 8308SOL    HW332999   0.599   1.894   0.726 -1.3112 -1.0418 -0.2318
 8308SOL    MW433000   0.669   1.844   0.708  0.2895 -0.4204  0.3218
 8309SOL     OW33001   2.734   5.511   5.387  0.2673  0.1062 -0.3965
 8309SOL    HW233002   2.680   5.498   5.464  1.2600  1.3510  0.5670
 8309SOL    HW333003   2.813   5.554   5.420  1.1662 -0.2434 -1.9653
 8309SOL    MW433004   2.738   5.515   5.401 -0.0192  0.1527 -0.0763
 8310SOL     OW33005   2.972   0.307   5.563 -0.3016  0.8083  0.5131
 8310SOL    HW233006   2.920   0.227   5.568  0.6767  0.1034 -0.2905
 8310SOL    HW333007   2.984   0.323   5.470  0.7868  1.0440  0.6771
 8310SOL    MW433008   2.966   0.299   5.551 -0.1546  0.1973 -0.1978
 8311SOL     OW33009   2.538   2.650   5.155 -0.0753 -0.2506  0.1127
 8311SOL    HW233010   2.516   2.724   5.211 -0.7220 -1.0396  0.9374
 8311SOL    HW333011   2.454   2.609   5.135  0.1610 -0.0792 -1.3355
 8311SOL    MW433012   2.524   2.654   5.160  0.4324  0.0339  0.4046
 8312SOL     OW33013   1.198   4.034   3.107 -0.0277 -0.1059  0.3681
 8312SOL    HW233014   1.175   4.061   3.195  0.9117  0.6575  0.3951
 8312SOL    HW333015   1.203   3.939   3.111  0.6523 -0.0386  1.3101
 8312SOL    MW433016   1.196   4.025   3.119  0.1616 -0.3777 -0.1017
 8313SOL     OW33017   0.483   3.454   1.877 -0.2734 -0.8423 -0.1740
 8313SOL    HW233018   0.539   3.381   1.851  0.2125  0.2635 -2.5046
 8313SOL    HW333019   0.535   3.502   1.941  1.1721 -0.3509 -1.6196
 8313SOL    MW433020   0.497   3.450   1.882  0.6638  0.0503  0.1378
 8314SOL     OW33021   2.214   1.537   1.169  0.0785 -0.1548  0.2807
 8314SOL    HW233022   2.239   1.580   1.087 -1.2465 -1.2713 -0.7586
 8314SOL    HW333023   2.278   1.465   1.179 -0.4442 -0.7277 -0.4049
 8314SOL    MW433024   2.226   1.533   1.159 -0.4863 -0.5265  0.0277
 8315SOL     OW33025   4.012   1.315   0.568 -0.1782  0.1747  0.1285
 8315SOL    HW233026   3.926   1.282   0.594 -0.3883  0.9307  0.4134
 8315SOL    HW333027   4.008   1.320   0.473  0.2737 -1.7377 -0.0395
 8315SOL    MW433028   4.000   1.311   0.559 -0.2743 -0.1510  0.4123
 8316SOL     OW33029   0.767   3.854   4.752  0.0915  0.2901  0.2077
 8316SOL    HW233030   0.753   3.828   4.843 -0.5656  2.2545  0.7196
 8316SOL    HW333031   0.718   3.789   4.701  2.2581 -2.1575  1.0331
 8316SOL    MW433032   0.758   3.842   4.757  0.1175  0.6122  0.0211
 8317SOL     OW33033   5.139   2.030   3.076  0.2285  0.0558 -0.1158
 8317SOL    HW233034   5.107   1.940   3.084  1.3154 -0.3013  0.4306
 8317SOL    HW333035   5.214   2.023   3.018  1.3943  0.3054  1.3120
 8317SOL    MW433036   5.144   2.017   3.069 -0.2513 -0.0903 -0.6944
 8318SOL     OW33037   0.107   2.693   0.147  0.5454  0.0181 -0.1435
 8318SOL    HW233038   0.125   2.778   0.187 -1.7227 -1.1074  3.8379
 8318SOL    HW333039   0.133   2.630   0.214 -2.6454 -2.1324 -0.7062
 8318SOL    MW433040   0.113   2.696   0.161 -0.4451 -0.2154  0.4753
 8319SOL     OW33041   1.295   4.721   0.796 -0.1659  0.0217  0.1734
 8319SOL    HW233042   1.235   4.783   0.755  0.0583 -0.5174 -1.0078
 8319SOL    HW333043   1.275   4.637   0.753 -0.0190 -0.5911  1.2788
 8319SOL    MW433044   1.284   4.718   0.785  0.2210 -0.2872  0.3289
 8320SOL     OW33045   3.483   2.651   2.280 -0.6400  0.4518  0.0495
 8320SOL    HW233046   3.528   2.733   2.256 -0.5837  0.2628 -0.5125
 8320SOL    HW333047   3.403   2.652   2.228  0.6470 -1.1546 -2.1567
 8320SOL    MW433048   3.478   2.662   2.270  0.5452  0.0143  0.8263
 8321SOL     OW33049   1.863   0.095   1.366  0.6470 -0.4983  0.3817
 8321SOL    HW233050   1.799   0.104   1.296  0.6018  0.7731  0.5528
 8321SOL    HW333051   1.943   0.066   1.322  0.1249 -1.5347  0.0857
 8321SOL    MW433052   1.865   0.093   1.351 -0.3017  0.4417  0.3403
 8322SOL     OW33053   5.009   6.058   5.660 -0.3228  0.1499  0.4087
 8322SOL    HW233054   4.960   6.070   5.579  0.2922 -0.5228 -0.0783
 8322SOL    HW333055   5.100   6.048   5.632 -0.2345 -1.2018  1.0771
 8322SOL    MW433056   5.015   6.058   5.646  0.0222 -0.4745 -0.1678
 8323SOL     OW33057   4.853   2.163   1.936 -0.8192 -0.5151 -0.2924
 8323SOL    HW233058   4.833   2.242   1.885  0.9456  0.2354  0.1073
 8323SOL    HW333059   4.938   2.134   1.903  0.6906  0.3376  2.5196
 8323SOL    MW433060   4.862   2.170   1.924 -0.4504  0.5719 -0.0429
 8324SOL     OW33061   5.354   5.061   3.934  0.6497  0.2251  0.4369
 8324SOL    HW233062   5.379   5.094   3.847 -0.1447 -0.1134  0.0751
 8324SOL    HW333063   5.313   4.976   3.917  1.0506 -0.1309  1.2048
 8324SOL    MW433064   5.352   5.054   3.920 -0.7417 -0.2049 -0.0752
 8325SOL     OW33065   5.688   3.213   4.274  0.1299 -0.0699  0.3711
 8325SOL    HW233066   5.678   3.173   4.360 -0.7050 -0.3188  0.1670
 8325SOL    HW333067   5.705   3.305   4.292  2.5859 -0.5407  0.8687
 8325SOL    MW433068   5.689   3.220   4.287  0.1427  0.1357  0.6777
 8326SOL     OW33069   2.698   1.073   1.345 -0.8682  0.5542 -0.3211
 8326SOL    HW233070   2.670   1.094   1.255 -1.7725  1.0032  0.0443
 8326SOL    HW333071   2.671   0.982   1.357  1.3236 -0.2751 -1.2591
 8326SOL    MW433072   2.691   1.064   1.335  0.5004  0.1210  0.4288
 8327SOL     OW33073   2.677   1.194   4.579  0.0619  0.4511 -0.2719
 8327SOL    HW233074   2.768   1.179   4.551  0.0394 -0.3556  0.0621
 8327SOL    HW333075   2.680   1.184   4.674 -0.4831 -0.1863 -0.3141
 8327SOL    MW433076   2.690   1.191   4.588 -0.1714  0.4371  0.7674
 8328SOL     OW33077   0.869   4.695   5.409 -0.3688  0.1984 -0.2781
 8328SOL    HW233078   0.886   4.688   5.315  0.1027  2.0986 -0.3914
 8328SOL    HW333079   0.776   4.716   5.415 -0.3871  0.1303 -0.3244
 8328SOL    MW433080   0.859   4.697   5.397 -0.0682 -0.6420 -0.4407
 8329SOL     OW33081   0.050   1.459   4.302 -0.0794 -0.4439  0.7291
 8329SOL    HW233082   0.008   1.525   4.357 -0.0544  0.0167  0.2112
 8329SOL    HW333083   0.132   1.500   4.274  0.2785 -0.9800  0.9915
 8329SOL    MW433084   0.056   1.473   4.305  0.2353  0.0401  0.0224
 8330SOL     OW33085   4.047   3.515   2.679 -0.2014 -0.6371  0.5506
 8330SOL    HW233086   4.097   3.506   2.761  0.5985  0.0751  0.1570
 8330SOL    HW333087   4.098   3.467   2.614 -0.6354 -0.8801  0.3873
 8330SOL    MW433088   4.060   3.507   2.681  0.5837 -0.5440  0.4674
 8331SOL     OW33089   5.602   0.030   2.992 -0.5461 -0.0965  0.2006
 8331SOL    HW233090   5.560   0.112   3.017 -0.0790  0.7215 -1.5538
 8331SOL    HW333091   5.690   0.056   2.965 -0.2456 -1.2382  0.0445
 8331SOL    MW433092   5.608   0.044   2.992 -0.6544 -0.5784  0.0066
 8332SOL     OW33093   4.528   4.170   2.238  0.1910  0.0306 -0.1535
 8332SOL    HW233094   4.553   4.241   2.178 -1.1995 -0.7750 -1.7808
 8332SOL    HW333095   4.522   4.212   2.324  2.7397  1.1289 -0.4035
 8332SOL    MW433096   4.531   4.185   2.241  0.0152  0.5479  0.3761
 8333SOL     OW33097   0.281   1.175   2.173 -0.1003 -0.2858 -0.2439
 8333SOL    HW233098   0.317   1.159   2.086 -0.8373 -1.4532 -0.3583
 8333SOL    HW333099   0.225   1.099   2.190 -1.4288  0.8132  0.4802
 8333SOL    MW433100   0.278   1.163   2.164 -0.8148 -0.0097  0.3385
 8334SOL     OW33101   6.215   5.623   1.964  0.2022  0.4040  0.1007
 8334SOL    HW233102   6.309   5.609   1.949 -0.1276 -1.8347 -0.2202
 8334SOL    HW333103   6.172   5.568   1.898 -1.3264  0.4669  1.0094
 8334SOL    MW433104   6.222   5.614   1.953  0.1713  0.5313  0.5610
 8335SOL     OW33105   0.752   4.079   0.767 -0.4402 -0.0789  0.1102
 8335SOL    HW233106   0.723   4.161   0.809  0.6733  0.9868 -1.1120
 8335SOL    HW333107   0.815   4.042   0.829 -2.2924 -1.0037  1.5170
 8335SOL    MW433108   0.757   4.085   0.781  0.1157 -0.0357  0.1546
 8336SOL     OW33109   0.665   1.649   3.559  0.2036 -0.3486  0.1561
 8336SOL    HW233110   0.722   1.671   3.633 -0.1085 -0.4205  0.4175
 8336SOL    HW333111   0.721   1.597   3.501 -0.1924 -2.2712  1.4266
 8336SOL    MW433112   0.680   1.645   3.561 -0.1160 -0.4554 -0.8636
 8337SOL     OW33113   0.670   4.413   0.403 -0.2801 -0.0251  0.0363
 8337SOL    HW233114   0.630   4.334   0.367 -0.0926  0.2157 -0.7209
 8337SOL    HW333115   0.746   4.383   0.452  0.5121 -0.2271 -1.2778
 8337SOL    MW433116   0.674   4.399   0.405 -0.5216 -0.3955 -0.1586
 8338SOL     OW33117   4.035   1.336   4.037 -0.4969 -0.1284 -0.0106
 8338SOL    HW233118   4.001   1.420   4.007 -0.6432  0.0856  0.7141
 8338SOL    HW333119   4.129   1.351   4.051  0.1706 -0.9934 -2.9688
 8338SOL    MW433120   4.043   1.349   4.035 -0.4344 -0.3432 -0.1031
 8339SOL     OW33121   4.930   2.473   1.411 -0.3298 -0.2531 -0.0606
 8339SOL    HW233122   4.940   2.462   1.316 -1.4073  1.3296 -0.3969
 8339SOL    HW333123   4.982   2.402   1.449  0.1212 -0.9230 -1.8287
 8339SOL    MW433124   4.938   2.462   1.403 -0.6096  1.0346  0.5207
 8340SOL     OW33125   2.060   1.104   4.932  0.1691  0.0455 -0.1014
 8340SOL    HW233126   2.088   1.111   4.840  0.4084 -0.7871 -0.0957
 8340SOL    HW333127   2.137   1.131   4.982  0.3440 -0.3979 -0.1277
 8340SOL    MW433128   2.074   1.108   4.926  0.5985 -0.1209 -0.0609
 8341SOL     OW33129   3.469   0.158   2.639  0.1594 -0.1821 -0.1852
 8341SOL    HW233130   3.543   0.115   2.682  0.1067  1.1293  1.2842
 8341SOL    HW333131   3.421   0.086   2.597  1.4823 -1.2248  0.0044
 8341SOL    MW433132   3.473   0.143   2.639  0.3860  0.1795  0.4907
 8342SOL     OW33133   3.611   2.661   5.501  0.3226  0.4518 -0.0721
 8342SOL    HW233134   3.648   2.604   5.568  0.8290 -0.9552 -1.4762
 8342SOL    HW333135   3.654   2.745   5.514 -0.3823  0.5268  2.0083
 8342SOL    MW433136   3.622   2.664   5.511  0.6476 -0.1392 -0.0883
 8343SOL     OW33137   3.581   3.560   3.221 -0.3597 -0.0887 -0.3722
 8343SOL    HW233138   3.487   3.539   3.223 -0.5645  0.5285 -1.9706
 8343SOL    HW333139   3.588   3.631   3.158  1.5658 -2.3863 -3.0040
 8343SOL    MW433140   3.569   3.566   3.213 -0.3153 -0.7249 -0.4512
 8344SOL     OW33141   5.134   0.533   4.362 -0.4410 -0.5774  0.7544
 8344SOL    HW233142   5.041   0.522   4.346 -0.7471 -0.2157  2.1900
 8344SOL    HW333143   5.148   0.628   4.356 -0.3028 -0.5668  1.2184
 8344SOL    MW433144   5.124   0.544   4.359  0.1939  0.1524  0.1777
 8345SOL     OW33145   2.262   6.193   1.534 -0.2621  0.5372  0.3278
 8345SOL    HW233146   2.315   6.129   1.581  0.6627  1.9493  1.2878
 8345SOL    HW333147   2.268   6.166   1.442 -1.2212 -1.6383  0.8634
 8345SOL    MW433148   2.270   6.181   1.528 -0.2943 -0.2910 -0.2502
 8346SOL     OW33149   5.773   5.453   5.300  0.0350  0.6992 -0.3659
 8346SOL    HW233150   5.727   5.535   5.321 -1.0681 -0.0955  0.4572
 8346SOL    HW333151   5.711   5.384   5.324  1.7768 -0.4408  1.0961
 8346SOL    MW433152   5.758   5.455   5.306  0.1599 -0.1521 -0.0549
 8347SOL     OW33153   5.529   4.775   5.848  0.7156  0.0292 -0.3331
 8347SOL    HW233154   5.557   4.752   5.759 -0.4094  0.0852 -0.7162
 8347SOL    HW333155   5.439   4.745   5.853 -0.1142  2.3337 -0.1100
 8347SOL    MW433156   5.521   4.768   5.837 -0.5321 -0.4539  0.7001
 8348SOL     OW33157   0.318   2.393   0.737  0.0477  0.0813 -0.5561
 8348SOL    HW233158   0.326   2.483   0.767 -1.1061 -0.0608  0.2334
 8348SOL    HW333159   0.408   2.360   0.737  0.6603  1.5808 -2.1127
 8348SOL    MW433160   0.331   2.400   0.741 -0.0993 -0.6968  0.7485
 8349SOL     OW33161   5.720   6.300   0.661 -0.3782  0.8419 -0.5078
 8349SOL    HW233162   5.673   6.383   0.663 -2.7168 -0.3312 -1.7315
 8349SOL    HW333163   5.676   6.246   0.728  2.4953  1.1561  1.8305
 8349SOL    MW433164   5.708   6.304   0.670  0.3559 -0.1532  0.9688
 8350SOL     OW33165   3.487   0.074   0.903 -0.1505 -0.1765 -0.2355
 8350SOL    HW233166   3.439   0.098   0.824 -1.1929 -3.1836 -0.6187
 8350SOL    HW333167   3.455   0.134   0.970  1.7783  3.4297 -2.2332
 8350SOL    MW433168   3.477   0.085   0.902  0.4118  0.3120 -0.0821
 8351SOL     OW33169   1.587   0.885   1.750 -0.2405  0.1505  0.9510
 8351SOL    HW233170   1.665   0.862   1.802  0.8981 -0.3622 -0.8812
 8351SOL    HW333171   1.526   0.813   1.766 -0.0274  0.1540  1.8061
 8351SOL    MW433172   1.589   0.872   1.759  0.6565 -0.5069 -0.2783
 8352SOL     OW33173   1.918   2.298   2.411 -0.1215  0.5459  0.3527
 8352SOL    HW233174   1.922   2.260   2.499  1.4828  0.7265  0.3967
 8352SOL    HW333175   1.850   2.249   2.366 -0.9470  0.4234  1.6797
 8352SOL    MW433176   1.910   2.286   2.417 -0.0473  0.3454  0.4878
 8353SOL     OW33177   1.414   0.149   0.979  0.0203  0.2639 -0.3368
 8353SOL    HW233178   1.437   0.134   1.070 -1.4324  2.0493  0.3959
 8353SOL    HW333179   1.416   0.244   0.968 -1.2614  0.1888 -1.7308
 8353SOL    MW433180   1.417   0.160   0.989  0.5560  0.3558  0.1658
 8354SOL     OW33181   2.667   5.600   1.952  0.4737 -0.3527 -0.7195
 8354SOL    HW233182   2.701   5.547   1.879 -1.0513 -1.1752 -0.8873
 8354SOL    HW333183   2.586   5.638   1.917  1.4269  1.9784 -0.5204
 8354SOL    MW433184   2.661   5.598   1.938  0.2812 -0.3008 -0.1503
 8355SOL     OW33185   5.706   2.178   4.605  0.3833  0.3106  0.2004
 8355SOL    HW233186   5.716   2.218   4.692  0.1763  1.2572 -0.2031
 8355SOL    HW333187   5.676   2.250   4.549 -2.2860 -0.9171 -0.0656
 8355SOL    MW433188   5.703   2.193   4.609  0.1369  0.6177 -0.1748
 8356SOL     OW33189   0.365   5.946   1.076 -0.2233  0.1073  0.1943
 8356SOL    HW233190   0.381   5.877   1.141  2.0162 -0.1906 -0.5854
 8356SOL    HW333191   0.283   5.921   1.034 -0.9411 -0.4908  1.8859
 8356SOL    MW433192   0.356   5.933   1.079 -0.3617 -0.4870  0.1264
 8357SOL     OW33193   3.597   5.846   2.750  0.0666  0.0179  0.7112
 8357SOL    HW233194   3.673   5.886   2.707 -0.4929 -0.2983 -0.6301
 8357SOL    HW333195   3.617   5.850   2.843  2.9451 -2.3792  0.3558
 8357SOL    MW433196   3.610   5.852   2.757 -0.6392 -0.2782 -0.0644
 8358SOL     OW33197   4.947   2.006   0.277 -0.2966  0.1182  0.4744
 8358SOL    HW233198   4.893   1.941   0.231 -0.2568  0.4899 -0.1054
 8358SOL    HW333199   4.914   2.005   0.367 -0.8414 -0.1229  0.2785
 8358SOL    MW433200   4.935   1.997   0.283 -0.3126  0.2631  0.5693
 8359SOL     OW33201   2.796   5.774   2.419  0.3907 -0.0319  0.1189
 8359SOL    HW233202   2.881   5.789   2.377  0.6358  0.1598  0.6727
 8359SOL    HW333203   2.747   5.722   2.355  0.4832  0.8811 -0.7101
 8359SOL    MW433204   2.801   5.769   2.405 -0.7121  0.0047  0.7236
 8360SOL     OW33205   3.364   2.082   0.693 -0.0250  0.1143  0.1745
 8360SOL    HW233206   3.338   2.170   0.665 -0.9204  0.0785  0.8765
 8360SOL    HW333207   3.339   2.026   0.620 -1.8035  0.1051  0.7484
 8360SOL    MW433208   3.357   2.086   0.679  0.5204  0.1489  0.1612
 8361SOL     OW33209   6.430   1.569   0.127  0.0843 -0.4142 -0.4716
 8361SOL    HW233210   6.355   1.522   0.090 -0.0244 -0.4037 -0.2693
 8361SOL    HW333211   6.410   1.574   0.221  0.1232 -0.0145 -0.4837
 8361SOL    MW433212   6.417   1.563   0.134 -1.1188 -0.2532 -0.0953
 8362SOL     OW33213   1.831   0.233   4.985 -0.1803  0.0555  0.1051
 8362SOL    HW233214   1.918   0.273   4.994 -0.3910  0.5799 -0.1160
 8362SOL    HW333215   1.830   0.200   4.896 -0.2740  0.2209  0.0440
 8362SOL    MW433216   1.843   0.234   4.975  0.3212  0.8657  0.6459
 8363SOL     OW33217   0.688   1.163   6.395  0.3947 -0.0021  0.3305
 8363SOL    HW233218   0.734   1.080   6.381  2.0307  1.4527 -4.7747
 8363SOL    HW333219   0.607   1.154   6.345  0.4913  1.3851 -0.1171
 8363SOL    MW433220   0.683   1.151   6.387  0.4740  0.4581  0.1578
 8364SOL     OW33221   5.029   4.234   0.158  0.2172  0.0082  0.2720
 8364SOL    HW233222   5.012   4.166   0.223 -0.1740  1.3746  1.6598
 8364SOL    HW333223   4.942   4.262   0.129  0.3583  0.2903  0.1137
 8364SOL    MW433224   5.015   4.229   0.163 -0.8082 -0.2117  0.4728
 8365SOL     OW33225   1.323   1.552   0.291  0.6246 -0.4148 -0.1164
 8365SOL    HW233226   1.389   1.620   0.310  0.3376 -0.1883  0.0839
 8365SOL    HW333227   1.370   1.487   0.239  0.1464  1.4366 -3.0985
 8365SOL    MW433228   1.338   1.553   0.287  0.6243 -0.0846  0.3485
 8366SOL     OW33229   5.758   1.854   0.549 -0.2421  0.0941 -0.4798
 8366SOL    HW233230   5.748   1.929   0.491 -1.8935  0.0506 -0.2938
 8366SOL    HW333231   5.677   1.852   0.600  0.8680 -0.2774  1.3581
 8366SOL    MW433232   5.746   1.864   0.548  0.5305  0.2281 -0.1524
 8367SOL     OW33233   6.214   2.707   1.605 -0.0225  0.3955 -0.0926
 8367SOL    HW233234   6.179   2.635   1.658 -0.6641 -0.0536 -1.0981
 8367SOL    HW333235   6.153   2.714   1.531  1.3303  0.4080 -1.2434
 8367SOL    MW433236   6.201   2.698   1.602  0.9677 -0.2664  1.0559
 8368SOL     OW33237   1.118   1.013   5.394  0.2474 -0.2001  0.5160
 8368SOL    HW233238   1.102   0.927   5.432  1.5222  0.1323  1.9145
 8368SOL    HW333239   1.084   1.074   5.459 -3.5471  0.4538 -1.7980
 8368SOL    MW433240   1.111   1.010   5.408 -0.3851  0.1971  0.1094
 8369SOL     OW33241   4.314   2.337   3.445 -0.2517  0.0066  0.4152
 8369SOL    HW233242   4.230   2.312   3.406 -0.5693  0.5404  0.7362
 8369SOL    HW333243   4.336   2.421   3.404 -0.5013  0.4856  1.2281
 8369SOL    MW433244   4.306   2.345   3.434 -0.0247  0.2536 -0.2539
 8370SOL     OW33245   4.740   3.956   4.667  0.2103  0.4443 -0.1006
 8370SOL    HW233246   4.739   3.944   4.572 -0.8550 -0.5823  0.0238
 8370SOL    HW333247   4.806   4.024   4.682  2.1720 -1.0750 -1.3722
 8370SOL    MW433248   4.749   3.964   4.657  0.5568  0.1555  0.2209
 8371SOL     OW33249   0.670   3.151   3.801  0.3035 -0.0892 -0.3329
 8371SOL    HW233250   0.669   3.126   3.893 -2.2359 -1.5916 -0.6678
 8371SOL    HW333251   0.577   3.156   3.777  0.9005  0.4321 -2.7590
 8371SOL    MW433252   0.657   3.148   3.810 -0.9948 -0.1359  0.5690
 8372SOL     OW33253   1.107   2.250   2.487 -0.3764  0.2417  0.8148
 8372SOL    HW233254   1.178   2.192   2.458  0.1284  2.3368 -2.6951
 8372SOL    HW333255   1.148   2.304   2.554  0.1902 -1.0194  1.5346
 8372SOL    MW433256   1.122   2.249   2.492 -0.2099 -0.3785  0.6194
 8373SOL     OW33257   2.935   5.787   2.641 -0.5544  1.0882 -0.2010
 8373SOL    HW233258   2.886   5.843   2.702 -2.0614 -0.3872  0.0159
 8373SOL    HW333259   2.884   5.791   2.560  1.1211  2.5814 -1.2580
 8373SOL    MW433260   2.921   5.795   2.638  0.0883 -0.4227  0.3638
 8374SOL     OW33261   3.319   1.405   0.304  0.4250  0.2549 -0.0258
 8374SOL    HW233262   3.232   1.371   0.327  1.2885 -2.1242  0.0065
 8374SOL    HW333263   3.367   1.407   0.386  1.1913 -1.0327 -0.4107
 8374SOL    MW433264   3.314   1.400   0.318  0.0244  0.2029  0.0383
 8375SOL     OW33265   5.375   4.347   0.933  0.2462 -0.0840  0.1298
 8375SOL    HW233266   5.464   4.363   0.965  0.9249 -0.8699 -1.2397
 8375SOL    HW333267   5.323   4.419   0.968  2.1570  2.5149 -2.0033
 8375SOL    MW433268   5.380   4.358   0.942  0.5535 -0.0429 -0.4546
 8376SOL     OW33269   4.472   5.306   1.703  0.3282 -0.0609  0.0468
 8376SOL    HW233270   4.502   5.371   1.638 -1.5343 -0.2207 -1.0373
 8376SOL    HW333271   4.543   5.242   1.706  1.9456  1.6640  0.6844
 8376SOL    MW433272   4.485   5.306   1.695 -0.3048 -0.7023 -0.3785
 8377SOL     OW33273   1.684   5.640   5.255  0.2500  0.0884  0.7677
 8377SOL    HW233274   1.706   5.568   5.314  0.0235 -1.6489 -1.1592
 8377SOL    HW333275   1.725   5.617   5.172 -1.2419  1.3146 -0.3810
 8377SOL    MW433276   1.692   5.628   5.252  0.1598  0.3330 -0.2841
 8378SOL     OW33277   5.691   2.566   0.216 -0.3611  0.0090 -0.1799
 8378SOL    HW233278   5.756   2.614   0.267 -0.0273  0.3730 -0.9318
 8378SOL    HW333279   5.736   2.486   0.189 -1.0475 -0.9700  1.4243
 8378SOL    MW433280   5.706   2.562   0.219 -1.3415 -0.0561 -0.2724
 8379SOL     OW33281   0.344   0.878   0.490  0.5280  0.3376 -1.1307
 8379SOL    HW233282   0.346   0.815   0.563 -0.6328 -2.4248 -3.2814
 8379SOL    HW333283   0.436   0.889   0.466  0.7393 -1.7312 -1.5171
 8379SOL    MW433284   0.357   0.871   0.496 -0.4521  0.3585 -0.2494
 8380SOL     OW33285   4.093   2.999   5.814  0.0090  0.0822 -0.4374
 8380SOL    HW233286   4.092   2.968   5.723  0.6238 -0.6658 -0.1983
 8380SOL    HW333287   4.132   3.086   5.809 -1.2495  0.6435 -1.0539
 8380SOL    MW433288   4.098   3.007   5.801  0.3652 -0.0024  0.0458
 8381SOL     OW33289   5.260   0.600   1.532 -0.3594 -0.1111 -0.0027
 8381SOL    HW233290   5.272   0.515   1.490  0.3082 -0.9927  1.8817
 8381SOL    HW333291   5.172   0.596   1.569 -0.2925 -0.0277  0.1688
 8381SOL    MW433292   5.250   0.588   1.531  0.2456  0.6643 -0.7867
 8382SOL     OW33293   3.484   5.806   0.075 -0.2240  0.5576  0.4060
 8382SOL    HW233294   3.441   5.874   0.022 -1.4196 -0.7415 -0.3498
 8382SOL    HW333295   3.414   5.772   0.131 -0.1125 -1.1967 -0.4397
 8382SOL    MW433296   3.469   5.811   0.075 -0.3154 -0.1969  0.6341
 8383SOL     OW33297   1.570   0.567   3.301 -0.0878  0.0192  0.6155
 8383SOL    HW233298   1.526   0.567   3.386 -0.3621 -1.2002  0.4861
 8383SOL    HW333299   1.580   0.475   3.279  1.7173  0.2763  0.2013
 8383SOL    MW433300   1.566   0.555   3.310 -0.2995  0.4780  0.2742
 8384SOL     OW33301   6.039   4.015   2.596 -0.2672  0.6446 -0.1983
 8384SOL    HW233302   5.954   4.044   2.628  0.2204  1.0854  0.7323
 8384SOL    HW333303   6.103   4.055   2.655  0.5754  0.0269 -0.6517
 8384SOL    MW433304   6.037   4.024   2.608  1.2444  0.1645  0.5277
 8385SOL     OW33305   0.551   0.012   5.956  0.5057  0.0746 -0.1763
 8385SOL    HW233306   0.456   0.012   5.943  0.2105  0.3410  1.6464
 8385SOL    HW333307   0.570   0.098   5.993  1.6240  0.3913 -1.4342
 8385SOL    MW433308   0.541   0.023   5.959 -1.0770  0.0956 -0.1307
 8386SOL     OW33309   5.471   1.636   5.867  0.6608  0.3214 -0.4732
 8386SOL    HW233310   5.546   1.692   5.847  1.0149 -0.1416 -0.4559
 8386SOL    HW333311   5.422   1.683   5.934  0.6132  0.9060 -0.9156
 8386SOL    MW433312   5.475   1.649   5.873 -0.2001 -0.0444 -0.1279
 8387SOL     OW33313   1.118   1.614   2.705  0.1302 -0.0892  0.7348
 8387SOL    HW233314   1.206   1.637   2.734 -0.4475 -0.7009  3.2523
 8387SOL    HW333315   1.117   1.518   2.706 -0.0279 -0.1438 -1.1966
 8387SOL    MW433316   1.129   1.604   2.709 -0.3574  0.3809 -0.0549
 8388SOL     OW33317   2.314   3.850   2.831 -0.8261  0.2592 -0.0377
 8388SOL    HW233318   2.272   3.764   2.834 -0.2326 -0.0211  0.2938
 8388SOL    HW333319   2.372   3.845   2.755 -1.3858  0.6528 -0.5051
 8388SOL    MW433320   2.316   3.838   2.821 -0.0416 -0.2260  0.3650
 8389SOL     OW33321   4.840   2.861   3.303  0.3474 -0.1146 -0.2575
 8389SOL    HW233322   4.917   2.848   3.248  0.7890  5.1407 -1.3746
 8389SOL    HW333323   4.875   2.890   3.387 -0.3451  0.9824 -0.3294
 8389SOL    MW433324   4.855   2.863   3.307  0.2191 -0.0337 -0.1682
 8390SOL     OW33325   3.980   4.471   1.838  0.2522 -0.1011  0.1409
 8390SOL    HW233326   3.982   4.464   1.743 -0.9575  1.3795 -0.0260
 8390SOL    HW333327   3.893   4.441   1.863 -0.4982  2.1957  0.4710
 8390SOL    MW433328   3.969   4.466   1.829  0.3729  0.2104  0.0519
 8391SOL     OW33329   2.064   6.083   2.246  0.4739  0.8342  0.6532
 8391SOL    HW233330   2.072   6.038   2.162  0.3743 -0.3156  1.2353
 8391SOL    HW333331   1.973   6.113   2.248 -0.0653 -0.7094  1.0801
 8391SOL    MW433332   2.053   6.081   2.235  0.0621  0.6074  0.2244
 8392SOL     OW33333   0.552   4.564   5.101 -0.1746 -0.2617 -0.0285
 8392SOL    HW233334   0.594   4.649   5.088 -0.9624  0.4129  1.6059
 8392SOL    HW333335   0.625   4.505   5.121  0.2830  0.2468 -0.1633
 8392SOL    MW433336   0.567   4.567   5.102  0.1223 -0.0449 -0.2869
 8393SOL     OW33337   2.998   5.457   3.857  0.0682  0.0046  0.4532
 8393SOL    HW233338   2.971   5.431   3.768 -3.1036  0.4244  1.1721
 8393SOL    HW333339   2.954   5.394   3.914 -0.5786  1.6786  1.8562
 8393SOL    MW433340   2.989   5.445   3.853  0.2363  0.1982 -0.4480
 8394SOL     OW33341   0.663   3.259   1.794  0.2426 -0.2310  0.0091
 8394SOL    HW233342   0.668   3.186   1.732 -0.6432 -0.7649  0.5472
 8394SOL    HW333343   0.739   3.248   1.851 -1.0468 -2.0607  1.4892
 8394SOL    MW433344   0.674   3.248   1.793  0.2101 -0.3822 -0.3949
 8395SOL     OW33345   2.669   5.066   3.947  0.3872  0.5346  0.4690
 8395SOL    HW233346   2.637   5.060   3.857  1.0880 -1.0567  0.2854
 8395SOL    HW333347   2.594   5.095   3.998  0.4457  3.3632 -0.8494
 8395SOL    MW433348   2.655   5.069   3.942  0.2793 -0.0142 -0.1115
 8396SOL     OW33349   1.218   4.051   0.204 -0.8030 -0.6956  0.4862
 8396SOL    HW233350   1.304   4.032   0.241 -1.3734  0.5357  2.6694
 8396SOL    HW333351   1.169   4.087   0.278 -2.3277  1.2121 -1.3624
 8396SOL    MW433352   1.223   4.053   0.219  0.5121 -0.3412 -0.5200
 8397SOL     OW33353   1.046   1.223   2.002  0.0738 -0.2065  0.1188
 8397SOL    HW233354   1.108   1.193   1.935 -0.5285 -2.1837  0.3948
 8397SOL    HW333355   0.967   1.171   1.987 -1.0764  1.2906  0.6492
 8397SOL    MW433356   1.044   1.212   1.991 -0.9717  0.8887 -0.1142
 8398SOL     OW33357   2.835   0.811   4.371  0.3894  0.4408 -0.4992
 8398SOL    HW233358   2.798   0.722   4.370  0.9605  0.1879  0.0987
 8398SOL    HW333359   2.834   0.838   4.280 -3.1801  1.2557 -0.3934
 8398SOL    MW433360   2.830   0.803   4.359  1.0473  0.0630  0.6653
 8399SOL     OW33361   2.481   4.790   0.705 -0.0036 -0.0199 -0.4658
 8399SOL    HW233362   2.434   4.873   0.696 -1.4210 -0.6968  0.4202
 8399SOL    HW333363   2.563   4.814   0.747 -0.5233  0.9080  0.0688
 8399SOL    MW433364   2.485   4.804   0.709 -0.3382 -0.0833 -0.1715
 8400SOL     OW33365   0.175   3.872   3.253 -0.2262  0.0300 -0.5056
 8400SOL    HW233366   0.153   3.909   3.338  0.9865 -0.1304 -0.0987
 8400SOL    HW333367   0.211   3.786   3.272  1.2515  0.4913 -1.0469
 8400SOL    MW433368   0.177   3.866   3.267 -0.0000 -0.1005  0.2723
 8401SOL     OW33369   1.523   1.976   2.917  0.1959  0.0522  0.8583
 8401SOL    HW233370   1.431   2.001   2.916  0.0923 -0.3028  1.4613
 8401SOL    HW333371   1.523   1.883   2.940  0.6900 -0.0133  0.6167
 8401SOL    MW433372   1.511   1.967   2.920  0.3122 -0.1009 -0.7173
 8402SOL     OW33373   1.369   5.674   1.585  0.0172  0.1496 -0.3959
 8402SOL    HW233374   1.323   5.672   1.500 -1.3388  0.3508  0.3008
 8402SOL    HW333375   1.456   5.639   1.566 -1.3606 -3.3364 -1.2531
 8402SOL    MW433376   1.374   5.669   1.571  0.0142 -0.4746  0.1128
 8403SOL     OW33377   0.291   3.462   2.397  0.6818 -0.6229 -0.0294
 8403SOL    HW233378   0.291   3.528   2.466  1.3565 -0.4473 -0.1843
 8403SOL    HW333379   0.284   3.512   2.315 -3.6067 -0.9482 -0.0798
 8403SOL    MW433380   0.290   3.477   2.395 -0.3793 -0.1826 -0.1436
 8404SOL     OW33381   0.975   0.034   1.497 -0.3840 -0.5804 -0.4644
 8404SOL    HW233382   1.058   0.035   1.544 -1.5792  1.5580  1.8701
 8404SOL    HW333383   0.999   0.019   1.406  2.5573  0.0489  0.1105
 8404SOL    MW433384   0.989   0.032   1.491 -0.5585 -0.0740 -0.9094
 8405SOL     OW33385   2.650   6.251   3.334 -0.6831  0.2564 -0.0503
 8405SOL    HW233386   2.741   6.235   3.310 -0.9402 -1.3425 -0.1028
 8405SOL    HW333387   2.654   6.321   3.399  0.4916  0.8511 -0.7320
 8405SOL    MW433388   2.662   6.258   3.340  0.0976  0.4351  0.3157
 8406SOL     OW33389   5.124   1.807   2.294  0.4984  0.8798  0.2919
 8406SOL    HW233390   5.182   1.779   2.365 -1.8389 -0.1563  1.9103
 8406SOL    HW333391   5.182   1.820   2.219  3.1890  2.7364  2.5067
 8406SOL    MW433392   5.139   1.805   2.293 -0.8197 -0.0340 -0.3109
 8407SOL     OW33393   4.689   0.487   2.594  0.1668 -0.0651  0.4006
 8407SOL    HW233394   4.771   0.454   2.558  0.4926  1.7047 -0.6348
 8407SOL    HW333395   4.678   0.573   2.553 -2.1206 -0.1716  0.6568
 8407SOL    MW433396   4.699   0.494   2.584 -0.1456 -0.0059 -0.1660
 8408SOL     OW33397   3.248   1.031   5.891  0.3439  0.1389 -0.4702
 8408SOL    HW233398   3.342   1.018   5.891  0.4609  0.3482  2.2883
 8408SOL    HW333399   3.212   0.949   5.858  1.4518 -0.3743 -0.4406
 8408SOL    MW433400   3.255   1.019   5.887 -0.7064  0.3338  0.5453
 8409SOL     OW33401   3.064   4.947   1.068 -0.0364  0.6134 -0.3982
 8409SOL    HW233402   3.072   4.909   0.981 -1.9818 -0.0251 -0.3516
 8409SOL    HW333403   3.069   4.872   1.127  0.5872  0.9652  0.0053
 8409SOL    MW433404   3.066   4.932   1.065  0.4882  0.0770 -0.3467
 8410SOL     OW33405   4.230   4.086   2.280  0.4471 -0.1045  0.4226
 8410SOL    HW233406   4.248   4.015   2.341  0.9362 -0.1299  0.2533
 8410SOL    HW333407   4.316   4.123   2.259  0.1493  0.9851  1.0394
 8410SOL    MW433408   4.243   4.082   2.285  0.1423 -0.4847 -0.0256
 8411SOL     OW33409   0.786   0.204   2.749  0.2931 -0.3446 -0.4414
 8411SOL    HW233410   0.853   0.260   2.787 -0.8763  1.8679 -1.4741
 8411SOL    HW333411   0.753   0.253   2.674 -3.5187 -0.5613  0.8711
 8411SOL    MW433412   0.790   0.218   2.744 -0.0264  1.0358 -0.4001
 8412SOL     OW33413   3.553   0.211   1.399  0.2640 -0.0195 -0.3085
 8412SOL    HW233414   3.632   0.179   1.443 -1.2639 -1.0987  1.8200
 8412SOL    HW333415   3.534   0.145   1.333  0.3016 -0.5875  0.2381
 8412SOL    MW433416   3.561   0.198   1.396  0.1641  0.1599  0.0445
 8413SOL     OW33417   3.793   0.342   2.974 -0.0024  0.1520 -0.7254
 8413SOL    HW233418   3.720   0.342   3.036  0.2298 -0.7013 -0.4438
 8413SOL    HW333419   3.859   0.398   3.015 -0.1299  0.1700 -0.5419
 8413SOL    MW433420   3.792   0.350   2.988  0.0605 -0.0808 -0.5729
 8414SOL     OW33421   1.008   4.732   2.120 -0.3849  0.2870  0.1214
 8414SOL    HW233422   0.953   4.707   2.045 -0.7775 -1.6115  0.9847
 8414SOL    HW333423   1.063   4.655   2.136  0.0008  0.8305  1.5080
 8414SOL    MW433424   1.008   4.719   2.112  0.1732 -0.1184  0.4365
 8415SOL     OW33425   3.836   4.000   4.115  0.3331 -0.0654 -0.1169
 8415SOL    HW233426   3.857   3.940   4.186  0.2460  0.0062 -0.0298
 8415SOL    HW333427   3.908   3.989   4.053  1.6360  1.4902  1.0067
 8415SOL    MW433428   3.849   3.991   4.116 -0.6715 -0.8227  0.5120
 8416SOL     OW33429   5.598   3.556   4.276  0.1403  0.3743 -0.8274
 8416SOL    HW233430   5.633   3.592   4.357 -2.9810  1.3018  0.2500
 8416SOL    HW333431   5.630   3.615   4.207  0.3590  1.3671  0.1076
 8416SOL    MW433432   5.607   3.568   4.277 -0.5789  0.5482  0.2306
 8417SOL     OW33433   1.958   0.710   1.111  0.5348  0.0730 -0.1817
 8417SOL    HW233434   1.936   0.796   1.077 -2.7109 -0.7959 -0.6533
 8417SOL    HW333435   1.976   0.657   1.034 -2.5384 -0.8157 -0.4305
 8417SOL    MW433436   1.958   0.714   1.096  0.2074 -0.3439 -0.1101
 8418SOL     OW33437   2.902   0.530   5.736 -0.1512  0.4233  0.1532
 8418SOL    HW233438   2.922   0.500   5.824  0.5128  0.4791  0.0270
 8418SOL    HW333439   2.954   0.473   5.679  0.1921  1.0216 -0.1451
 8418SOL    MW433440   2.912   0.518   5.740  0.5400 -0.0694  0.0334
 8419SOL     OW33441   5.457   2.993   5.426 -0.3012 -0.0538 -0.2260
 8419SOL    HW233442   5.457   2.898   5.438  0.1545 -0.2732 -1.7902
 8419SOL    HW333443   5.550   3.016   5.418 -0.4376  0.4526 -0.3522
 8419SOL    MW433444   5.469   2.983   5.427  0.1797 -0.4234  0.0161
 8420SOL     OW33445   4.718   2.550   1.578  0.7956 -0.1570  0.1229
 8420SOL    HW233446   4.630   2.562   1.542  0.0378 -0.5355  1.7587
 8420SOL    HW333447   4.769   2.514   1.506 -0.4436 -0.1406 -0.7939
 8420SOL    MW433448   4.713   2.547   1.564 -0.5796  0.4299 -0.3003
 8421SOL     OW33449   4.740   6.424   5.873 -0.4361 -0.1698  0.0889
 8421SOL    HW233450   4.649   6.413   5.903 -0.0336 -3.9216  0.4644
 8421SOL    HW333451   4.788   6.449   5.952 -0.9060  0.1232  0.2868
 8421SOL    MW433452   4.734   6.426   5.887  0.1312  0.3246 -0.0263
 8422SOL     OW33453   2.805   6.409   0.443  0.0818 -0.2933  0.5547
 8422SOL    HW233454   2.816   6.416   0.538 -2.0285  1.0492  0.7715
 8422SOL    HW333455   2.753   6.330   0.431 -0.5260  0.0950  0.6137
 8422SOL    MW433456   2.800   6.400   0.454  0.3059  0.2321 -0.6578
 8423SOL     OW33457   2.881   6.066   5.326  0.2300  0.3696 -0.0074
 8423SOL    HW233458   2.881   6.046   5.233 -0.8784  0.5770 -0.0651
 8423SOL    HW333459   2.961   6.025   5.359  0.6226  0.2748 -1.0360
 8423SOL    MW433460   2.891   6.058   5.318 -0.7207 -0.2640 -0.3600
 8424SOL     OW33461   2.154   2.086   2.728 -0.0904 -0.1972  0.2890
 8424SOL    HW233462   2.154   1.991   2.730  0.2569 -0.2257 -0.6961
 8424SOL    HW333463   2.175   2.109   2.638  0.4828  0.8181  0.6625
 8424SOL    MW433464   2.156   2.077   2.716 -0.3738  0.3012  0.9196
 8425SOL     OW33465   2.912   0.534   2.887 -0.1140  0.1431 -0.3572
 8425SOL    HW233466   2.964   0.486   2.951 -0.8262  1.0772  0.9572
 8425SOL    HW333467   2.960   0.615   2.872 -1.3107  1.1661  1.1264
 8425SOL    MW433468   2.925   0.538   2.893  0.4699 -0.1553 -0.0279
 8426SOL     OW33469   2.099   6.369   1.271 -0.3723 -0.4681  0.0206
 8426SOL    HW233470   2.143   6.433   1.327  0.5593 -0.6553 -0.4830
 8426SOL    HW333471   2.161   6.296   1.264 -0.8879 -0.8653 -0.4555
 8426SOL    MW433472   2.113   6.368   1.278  0.1398 -0.7806 -0.3781
 8427SOL     OW33473   5.279   2.148   4.633 -0.1157 -0.2154  0.0714
 8427SOL    HW233474   5.353   2.098   4.668  0.8092 -0.0785 -1.5984
 8427SOL    HW333475   5.250   2.098   4.556 -1.8988 -0.3530  0.7754
 8427SOL    MW433476   5.285   2.134   4.627  0.0420  0.0481 -0.5183
 8428SOL     OW33477   5.074   4.667   4.217 -0.3379  0.3488  0.0982
 8428SOL    HW233478   4.995   4.613   4.227 -0.6694  0.6636 -0.7682
 8428SOL    HW333479   5.127   4.622   4.152 -0.2484  0.6440 -0.0378
 8428SOL    MW433480   5.070   4.654   4.210  0.2461  0.0099 -0.3046
 8429SOL     OW33481   0.161   1.712   3.773  0.2933  0.0008  0.0815
 8429SOL    HW233482   0.114   1.735   3.692 -0.1592  1.0531  0.6292
 8429SOL    HW333483   0.149   1.788   3.830 -0.5161 -1.2479  1.6421
 8429SOL    MW433484   0.153   1.725   3.770  1.0196 -0.2343  0.0053
 8430SOL     OW33485   2.978   0.702   5.327 -0.1001 -0.2411 -0.0218
 8430SOL    HW233486   2.985   0.787   5.284 -1.5319 -0.1771 -0.1634
 8430SOL    HW333487   2.954   0.723   5.417 -1.6039 -0.5123 -0.3405
 8430SOL    MW433488   2.976   0.716   5.333 -0.7640 -0.1921 -0.2180
 8431SOL     OW33489   6.366   6.017   2.994 -0.0352 -0.1281 -0.0953
 8431SOL    HW233490   6.404   6.005   2.907 -0.3961 -0.5203 -0.1976
 8431SOL    HW333491   6.272   6.025   2.979 -0.0836 -0.0252  0.2463
 8431SOL    MW433492   6.359   6.017   2.981  0.0667 -0.9089  0.2835
 8432SOL     OW33493   1.514   4.114   1.138 -0.1945  0.5966  0.3425
 8432SOL    HW233494   1.536   4.151   1.224 -0.9834 -0.6134  1.0859
 8432SOL    HW333495   1.521   4.020   1.149 -0.6381  0.4017 -0.8380
 8432SOL    MW433496   1.518   4.107   1.151 -0.5318 -0.1056 -0.3842
 8433SOL     OW33497   5.478   0.218   6.326  0.6507  0.2922 -0.1257
 8433SOL    HW233498   5.561   0.252   6.291  1.4616 -0.6632  0.7733
 8433SOL    HW333499   5.448   0.286   6.386  0.2064  1.1207 -1.2530
 8433SOL    MW433500   5.485   0.231   6.329 -0.2656  0.5387  0.2285
 8434SOL     OW33501   1.185   5.276   2.905  0.2209 -0.1056 -0.5209
 8434SOL    HW233502   1.236   5.303   2.982 -0.7947 -1.6781  0.7800
 8434SOL    HW333503   1.238   5.208   2.864  1.3630  1.5870 -2.0485
 8434SOL    MW433504   1.199   5.271   2.910 -0.5228  0.1801  0.1789
 8435SOL     OW33505   4.591   5.445   1.494  0.2203  0.1653 -0.1524
 8435SOL    HW233506   4.643   5.373   1.459 -0.8741  0.4570 -2.5864
 8435SOL    HW333507   4.654   5.501   1.539  1.1880 -1.8883  1.2111
 8435SOL    MW433508   4.606   5.443   1.496 -0.0666  0.2405  0.0594
 8436SOL     OW33509   4.934   3.910   2.638  0.1806  0.2991 -0.4364
 8436SOL    HW233510   5.026   3.929   2.657  0.1667 -0.5059  0.5150
 8436SOL    HW333511   4.899   3.875   2.720 -0.8827  0.2458 -0.8925
 8436SOL    MW433512   4.942   3.908   2.651  0.6362 -0.1219 -0.4111
 8437SOL     OW33513   2.635   0.480   2.452  0.1710 -0.5533  0.3043
 8437SOL    HW233514   2.624   0.385   2.441  0.0996 -0.6035  0.7978
 8437SOL    HW333515   2.564   0.518   2.399 -0.8199 -0.8228  1.3915
 8437SOL    MW433516   2.624   0.472   2.443 -0.5916 -0.8282  0.3477
 8438SOL     OW33517   3.759   5.713   4.501  0.2200 -0.7318  0.1031
 8438SOL    HW233518   3.788   5.649   4.437 -1.4324 -2.3566  0.9085
 8438SOL    HW333519   3.707   5.664   4.564 -1.5616  1.4656  0.4919
 8438SOL    MW433520   3.756   5.698   4.501  0.5853 -0.1516  0.1676
 8439SOL     OW33521   6.388   2.475   5.512 -0.1215 -0.0958 -0.5624
 8439SOL    HW233522   6.367   2.568   5.504  1.1516  0.0987 -2.4100
 8439SOL    HW333523   6.323   2.441   5.573 -1.2389  1.8008 -0.5994
 8439SOL    MW433524   6.377   2.483   5.519  0.1689 -0.1047 -0.3057
 8440SOL     OW33525   0.268   3.635   0.209  0.4706  0.3246  0.4904
 8440SOL    HW233526   0.352   3.605   0.174  0.0015 -0.3539 -0.0676
 8440SOL    HW333527   0.290   3.670   0.296  1.2275 -0.4601  0.6279
 8440SOL    MW433528   0.282   3.636   0.216  0.3302  0.1767 -0.7303
 8441SOL     OW33529   3.366   4.598   3.604 -0.2541 -0.0544  0.4469
 8441SOL    HW233530   3.414   4.599   3.521 -0.3825 -1.1897  0.3369
 8441SOL    HW333531   3.410   4.664   3.658  1.2558 -0.8488  0.2486
 8441SOL    MW433532   3.379   4.607   3.600  0.1796  0.7619  0.1598
 8442SOL     OW33533   0.688   5.474   1.778  0.2883 -0.1522 -0.7759
 8442SOL    HW233534   0.780   5.450   1.768 -0.1455 -1.3205 -2.2553
 8442SOL    HW333535   0.645   5.436   1.702 -1.5523 -0.2657  0.2679
 8442SOL    MW433536   0.695   5.466   1.767  0.1870 -0.0136 -0.3140
 8443SOL     OW33537   5.312   3.250   6.313  0.2206  0.5239  0.1849
 8443SOL    HW233538   5.397   3.265   6.272  0.5175  0.8949  0.9148
 8443SOL    HW333539   5.257   3.218   6.242  0.3691  2.2857 -0.7987
 8443SOL    MW433540   5.316   3.248   6.298  0.2264  0.1989  0.2423
 8444SOL     OW33541   0.348   2.898   5.644  0.2226  0.1857  0.6740
 8444SOL    HW233542   0.271   2.867   5.690  0.1611 -0.7581 -0.0346
 8444SOL    HW333543   0.365   2.831   5.577  2.0097  0.0511  1.2048
 8444SOL    MW433544   0.340   2.885   5.641 -0.1210  0.5561  0.0311
 8445SOL     OW33545   0.539   3.590   0.870 -0.6631  0.2776 -0.1072
 8445SOL    HW233546   0.529   3.685   0.860 -3.3218  0.1303  0.5494
 8445SOL    HW333547   0.619   3.570   0.822 -1.2597  2.5275 -2.2534
 8445SOL    MW433548   0.548   3.600   0.862 -0.2412 -0.2694  0.2059
 8446SOL     OW33549   2.978   4.077   3.385 -0.1466 -0.8974  0.0090
 8446SOL    HW233550   3.017   4.158   3.420 -1.9399  0.3696 -0.8036
 8446SOL    HW333551   3.050   4.014   3.389  1.8609  1.1677 -0.9249
 8446SOL    MW433552   2.993   4.080   3.390 -0.0149  0.2539  0.3322
 8447SOL     OW33553   0.915   4.752   2.808 -1.1849  0.5539 -0.2314
 8447SOL    HW233554   0.900   4.792   2.722  0.7142  0.2036 -0.7530
 8447SOL    HW333555   0.828   4.751   2.848 -2.4231 -0.5559 -2.6793
 8447SOL    MW433556   0.901   4.757   2.802 -0.6095  0.3514 -0.2006
 8448SOL     OW33557   2.891   1.310   0.707 -0.5081  0.0950  0.6395
 8448SOL    HW233558   2.975   1.352   0.729 -1.1963  0.9810  1.6666
 8448SOL    HW333559   2.846   1.302   0.791 -1.0130 -1.3904  0.2476
 8448SOL    MW433560   2.896   1.314   0.721  0.3368  0.3150 -0.3857
 8449SOL     OW33561   4.883   1.585   0.369  0.1935  0.0853  0.1551
 8449SOL    HW233562   4.869   1.601   0.463 -2.5456 -2.5976  0.3673
 8449SOL    HW333563   4.832   1.653   0.325 -0.3882  0.0149  0.6996
 8449SOL    MW433564   4.874   1.596   0.376 -0.7778 -0.5661  0.1452
 8450SOL     OW33565   5.420   5.220   5.253 -0.1778  0.1145 -0.9116
 8450SOL    HW233566   5.436   5.140   5.203 -0.2084  0.7694 -1.9823
 8450SOL    HW333567   5.370   5.276   5.195 -1.2802  0.4361  0.2896
 8450SOL    MW433568   5.416   5.217   5.239  0.3852 -0.0023  0.5451
 8451SOL     OW33569   3.335   6.014   6.388  0.0991  0.8685  0.6548
 8451SOL    HW233570   3.313   6.073   6.460 -0.2004 -0.5629  1.7527
 8451SOL    HW333571   3.252   5.972   6.364  0.1793  1.3494 -0.5848
 8451SOL    MW433572   3.321   6.017   6.394  0.0179 -0.0842  0.4696
 8452SOL     OW33573   3.111   1.915   0.850 -0.3461  0.1042 -0.4027
 8452SOL    HW233574   3.159   1.834   0.834  0.7171  0.1319  2.1497
 8452SOL    HW333575   3.163   1.983   0.806  1.1841 -0.0824  1.0067
 8452SOL    MW433576   3.124   1.914   0.842  0.1696  0.0584 -0.6187
 8453SOL     OW33577   3.969   1.517   5.164  0.0577  0.7885  0.1880
 8453SOL    HW233578   3.970   1.513   5.259 -0.4274  1.1253  0.2104
 8453SOL    HW333579   4.053   1.480   5.137 -0.3182 -0.4499  0.6943
 8453SOL    MW433580   3.980   1.512   5.173 -0.1170 -0.5723 -0.7576
 8454SOL     OW33581   3.576   5.168   1.621  0.5705  0.2066 -0.0777
 8454SOL    HW233582   3.646   5.157   1.557  1.1568 -2.9845  0.9320
 8454SOL    HW333583   3.617   5.218   1.692  0.3327  2.4857 -1.4306
 8454SOL    MW433584   3.591   5.173   1.622 -0.1820 -0.2923  0.9739
 8455SOL     OW33585   1.289   1.298   1.287 -0.8568 -0.2095  0.0098
 8455SOL    HW233586   1.206   1.336   1.259 -0.6347 -0.5395 -1.1585
 8455SOL    HW333587   1.323   1.360   1.352 -1.8573  0.0835  0.2768
 8455SOL    MW433588   1.283   1.311   1.292 -0.0648  0.5222  0.6861
 8456SOL     OW33589   4.694   4.043   1.212 -0.4674  1.0811 -0.3347
 8456SOL    HW233590   4.744   3.967   1.240 -0.3973  1.1272 -0.3330
 8456SOL    HW333591   4.622   4.008   1.160 -1.4403  0.8620  1.0730
 8456SOL    MW433592   4.691   4.029   1.209 -0.1353  0.2037  0.2596
 8457SOL     OW33593   2.380   1.318   1.846  0.3795 -0.1597 -0.7332
 8457SOL    HW233594   2.306   1.369   1.878  1.5858  1.3659 -0.1762
 8457SOL    HW333595   2.345   1.265   1.775 -1.6379 -0.9779  0.7991
 8457SOL    MW433596   2.366   1.318   1.841 -0.1216 -0.9772  0.1268
 8458SOL     OW33597   6.259   2.701   5.765  0.1837 -1.0341 -0.0728
 8458SOL    HW233598   6.198   2.759   5.810  1.5665 -0.0169  0.5659
 8458SOL    HW333599   6.204   2.630   5.730 -1.5171  0.4981 -0.6461
 8458SOL    MW433600   6.244   2.699   5.766 -0.0494 -0.2963  0.3144
 8459SOL     OW33601   0.100   2.849   5.724  0.2475  0.4398 -0.0712
 8459SOL    HW233602   0.052   2.871   5.804 -1.0226  0.7250 -0.8772
 8459SOL    HW333603   0.031   2.829   5.660  1.2064  0.9889 -1.3082
 8459SOL    MW433604   0.084   2.850   5.726 -0.8378 -0.0633 -0.2305
 8460SOL     OW33605   1.128   2.662   5.252 -0.3338  0.5348  0.0424
 8460SOL    HW233606   1.147   2.663   5.158 -3.5454 -0.7834 -0.7586
 8460SOL    HW333607   1.144   2.752   5.281  0.8107  0.9362 -1.7207
 8460SOL    MW433608   1.132   2.674   5.244 -0.0944 -0.6364 -1.0592
 8461SOL     OW33609   2.623   3.589   3.515 -0.1545 -0.1201  0.4310
 8461SOL    HW233610   2.656   3.499   3.515 -0.9332 -0.4098  0.7114
 8461SOL    HW333611   2.557   3.591   3.584 -2.5178 -0.2387 -1.6748
 8461SOL    MW433612   2.619   3.577   3.524  0.2817  0.0023 -0.5393
 8462SOL     OW33613   2.129   6.130   5.148 -0.4165 -1.0051  0.4078
 8462SOL    HW233614   2.187   6.200   5.116 -1.8984  0.1654  0.1714
 8462SOL    HW333615   2.182   6.084   5.212  1.2481 -0.8568 -0.7781
 8462SOL    MW433616   2.144   6.133   5.152  0.0283 -1.0332 -0.4883
 8463SOL     OW33617   3.883   1.171   5.848  0.2147 -0.2091  0.6429
 8463SOL    HW233618   3.958   1.220   5.883 -0.2104  0.9129  0.0239
 8463SOL    HW333619   3.827   1.157   5.924  0.8640 -0.7308  1.0429
 8463SOL    MW433620   3.886   1.176   5.863 -0.7812  0.3101 -0.0729
 8464SOL     OW33621   5.213   1.763   4.350  0.0037  0.5988 -0.1988
 8464SOL    HW233622   5.206   1.856   4.369  0.6806  1.2872 -2.8303
 8464SOL    HW333623   5.280   1.758   4.281 -1.0681 -1.6700 -1.1718
 8464SOL    MW433624   5.221   1.774   4.343  0.3364 -0.0409  0.1058
 8465SOL     OW33625   2.324   3.290   5.430 -0.1113 -0.0445 -0.0827
 8465SOL    HW233626   2.390   3.335   5.376 -0.4245  0.7906  0.2203
 8465SOL    HW333627   2.254   3.354   5.440 -0.1848 -0.2960  1.0833
 8465SOL    MW433628   2.324   3.305   5.424 -0.2493  0.0065  0.3637
 8466SOL     OW33629   4.862   4.306   4.955  0.7138  0.4626  0.3953
 8466SOL    HW233630   4.922   4.277   5.023  2.5989 -0.4025 -1.5302
 8466SOL    HW333631   4.891   4.261   4.876 -0.5735  2.3623 -1.2740
 8466SOL    MW433632   4.873   4.296   4.953  0.1424  0.3814 -0.1148
 8467SOL     OW33633   1.104   6.288   1.894  0.6291 -0.1621  0.2671
 8467SOL    HW233634   1.012   6.276   1.872  0.2003  0.2843  1.6873
 8467SOL    HW333635   1.126   6.210   1.945  1.1570 -0.4556 -0.3991
 8467SOL    MW433636   1.095   6.276   1.898  0.4102  0.0245  0.1892
 8468SOL     OW33637   2.284   4.281   6.103 -0.4965 -0.6786  0.4599
 8468SOL    HW233638   2.239   4.198   6.111  0.2853 -1.1355  0.2301
 8468SOL    HW333639   2.247   4.321   6.024  0.1240 -1.4550 -0.2368
 8468SOL    MW433640   2.273   4.276   6.093 -0.5271  0.3361  0.1856
 8469SOL     OW33641   0.825   5.650   4.314 -0.1543 -0.5266  0.0946
 8469SOL    HW233642   0.816   5.555   4.303  0.1970 -0.7073  1.3293
 8469SOL    HW333643   0.802   5.667   4.405 -0.5098  0.6287 -0.1805
 8469SOL    MW433644   0.821   5.640   4.324 -0.3088 -0.2969 -0.0134
 8470SOL     OW33645   1.859   1.018   2.515  0.3454 -0.6198 -0.1264
 8470SOL    HW233646   1.841   0.935   2.560  0.4883 -0.3297  0.4704
 8470SOL    HW333647   1.787   1.027   2.452 -1.7890  0.6151  2.3256
 8470SOL    MW433648   1.847   1.008   2.512  0.1219  0.0432 -0.3738
 8471SOL     OW33649   2.914   3.539   1.608 -0.1221  0.1486 -0.3112
 8471SOL    HW233650   2.887   3.448   1.622 -1.0240  0.2560 -1.2587
 8471SOL    HW333651   2.834   3.590   1.614  0.2707  0.8044 -0.5005
 8471SOL    MW433652   2.900   3.533   1.611  0.2182 -0.2676  0.3092
 8472SOL     OW33653   2.289   0.790   0.103  0.1741  0.2518  0.3096
 8472SOL    HW233654   2.365   0.732   0.102 -0.0926 -0.1023 -0.0139
 8472SOL    HW333655   2.274   0.812   0.011  1.2374  2.1411  0.5454
 8472SOL    MW433656   2.297   0.785   0.090 -0.1230 -0.2367 -0.1745
 8473SOL     OW33657   1.011   4.595   3.202  0.2088  0.0494 -0.5612
 8473SOL    HW233658   1.010   4.635   3.115  0.8640 -1.1794 -1.1704
 8473SOL    HW333659   0.930   4.624   3.244  0.5066  1.7200 -1.0696
 8473SOL    MW433660   1.000   4.604   3.196 -0.0002 -0.4731 -0.1811
 8474SOL     OW33661   3.138   5.994   6.067  0.1804 -0.8981  0.7393
 8474SOL    HW233662   3.147   6.057   5.996  0.4397 -0.4645  1.1519
 8474SOL    HW333663   3.197   6.026   6.136  0.1983 -1.4993  1.0164
 8474SOL    MW433664   3.147   6.006   6.067  0.3436 -0.1361 -0.5901
 8475SOL     OW33665   2.747   1.680   1.278 -0.2257  0.4400  0.3141
 8475SOL    HW233666   2.730   1.728   1.359 -0.3472  0.3615  0.3362
 8475SOL    HW333667   2.764   1.590   1.306 -2.3451 -0.0894  0.1390
 8475SOL    MW433668   2.747   1.675   1.292 -0.1250 -0.0637 -0.3228
 8476SOL     OW33669   5.010   0.858   0.676 -0.3915  1.1553  0.8128
 8476SOL    HW233670   4.966   0.859   0.761 -0.9310  1.1386  0.5375
 8476SOL    HW333671   4.991   0.772   0.640  1.1456  0.5699  1.3411
 8476SOL    MW433672   5.002   0.847   0.683  0.8806  0.1338  0.0607
 8477SOL     OW33673   2.637   4.788   6.240 -0.1099 -0.0372 -0.0216
 8477SOL    HW233674   2.706   4.787   6.306 -0.0128 -1.6592 -0.1218
 8477SOL    HW333675   2.616   4.881   6.230  0.3829  0.3062  1.7361
 8477SOL    MW433676   2.643   4.800   6.247 -0.5621 -0.0521 -0.9928
 8478SOL     OW33677   6.041   3.184   3.265 -0.4771  0.2399 -0.3492
 8478SOL    HW233678   6.085   3.244   3.205 -1.9934  1.7087 -0.0749
 8478SOL    HW333679   5.952   3.219   3.272 -1.6618 -2.4845 -0.7370
 8478SOL    MW433680   6.035   3.197   3.258  0.5905  0.5849 -0.0435
 8479SOL     OW33681   4.741   3.465   1.534 -0.5329  0.1572 -1.0472
 8479SOL    HW233682   4.670   3.409   1.502 -0.2742 -0.5372 -0.4479
 8479SOL    HW333683   4.785   3.412   1.601  0.4982  0.6124 -1.3464
 8479SOL    MW433684   4.737   3.451   1.539 -0.0957  0.1495  0.0698
 8480SOL     OW33685   4.529   1.341   3.959 -0.0822  0.1586 -0.1989
 8480SOL    HW233686   4.507   1.297   3.876  0.5274  0.8919 -0.7650
 8480SOL    HW333687   4.572   1.422   3.932 -1.4636  1.2678  0.8228
 8480SOL    MW433688   4.532   1.346   3.944  0.5497  0.5269 -0.1399
 8481SOL     OW33689   0.725   5.375   4.324  0.2435  0.7345  0.0450
 8481SOL    HW233690   0.689   5.346   4.408  0.3549 -0.0612 -0.1741
 8481SOL    HW333691   0.804   5.322   4.313  0.2084  0.8072 -0.5861
 8481SOL    MW433692   0.731   5.364   4.334 -0.0481 -0.6138 -1.0213
 8482SOL     OW33693   0.063   3.098   6.159  0.0925 -0.7202  0.0793
 8482SOL    HW233694  -0.013   3.124   6.212 -0.8544  0.7513 -1.8844
 8482SOL    HW333695   0.137   3.108   6.218 -1.2599 -3.8076  2.6277
 8482SOL    MW433696   0.062   3.103   6.174  0.5393  0.1540 -0.1807
 8483SOL     OW33697   4.862   5.680   4.327 -0.0853  0.3797  0.0251
 8483SOL    HW233698   4.834   5.638   4.245  2.7243  1.7306 -1.7859
 8483SOL    HW333699   4.826   5.768   4.322 -1.5528 -0.1140  1.2707
 8483SOL    MW433700   4.854   5.686   4.315 -0.1651 -0.0453  0.4900
 8484SOL     OW33701   5.266   5.252   6.388  0.5139  0.2891 -0.1832
 8484SOL    HW233702   5.283   5.334   6.434  1.8399 -0.5464  0.9001
 8484SOL    HW333703   5.350   5.227   6.350  0.2665 -0.8396 -0.0426
 8484SOL    MW433704   5.279   5.259   6.389  0.1997  0.7547 -0.0100
 8485SOL     OW33705   5.770   6.070   2.101  0.3439 -0.1434 -0.3677
 8485SOL    HW233706   5.721   6.109   2.173 -0.1636 -0.5859 -0.4683
 8485SOL    HW333707   5.846   6.127   2.091 -0.9588  1.5155 -1.2870
 8485SOL    MW433708   5.774   6.083   2.109 -0.2132 -0.2675 -0.0265
 8486SOL     OW33709   1.888   2.100   3.524 -0.3513 -0.5062  0.3386
 8486SOL    HW233710   1.968   2.064   3.561 -0.2406 -0.0108  0.5969
 8486SOL    HW333711   1.918   2.167   3.462 -0.5461 -1.0164 -0.3133
 8486SOL    MW433712   1.902   2.104   3.521  0.2339 -0.1820 -0.3432
 8487SOL     OW33713   3.418   3.139   1.591  0.1766  0.0210 -0.0779
 8487SOL    HW233714   3.350   3.071   1.589  0.8806 -0.7058  0.0649
 8487SOL    HW333715   3.387   3.201   1.657 -0.1724 -0.4931  0.2511
 8487SOL    MW433716   3.405   3.138   1.600 -0.2148  0.2688  0.1912
 8488SOL     OW33717   6.396   0.412   4.815  0.0341  0.5271 -0.4803
 8488SOL    HW233718   6.472   0.468   4.797 -0.9723  1.5759 -1.6530
 8488SOL    HW333719   6.329   0.443   4.754 -1.2413 -0.5777  0.3178
 8488SOL    MW433720   6.397   0.424   4.805  0.1418 -0.5559 -0.5292
 8489SOL     OW33721   5.961   3.621   5.545  0.2892 -0.1187  0.2882
 8489SOL    HW233722   5.869   3.614   5.567 -0.1939  0.7380 -1.3209
 8489SOL    HW333723   6.007   3.591   5.624 -1.3376 -0.2935  1.2091
 8489SOL    MW433724   5.955   3.616   5.558  0.2281 -0.1626  0.6993
 8490SOL     OW33725   6.243   1.492   6.028  0.3917 -0.3313  0.8803
 8490SOL    HW233726   6.180   1.444   5.975  2.3622 -1.4467 -0.5962
 8490SOL    HW333727   6.323   1.440   6.024  1.3734  0.8877  2.8710
 8490SOL    MW433728   6.245   1.479   6.021  0.0725 -0.1594  0.2364
 8491SOL     OW33729   3.865   2.231   3.126 -0.0885 -0.1971 -0.3775
 8491SOL    HW233730   3.777   2.238   3.090  0.0794 -0.3333 -0.8151
 8491SOL    HW333731   3.908   2.313   3.102 -0.4079  0.3145  0.7112
 8491SOL    MW433732   3.859   2.243   3.118  0.1224  0.4476  0.6413
 8492SOL     OW33733   1.210   1.979   2.680  0.5168 -0.5439  0.4103
 8492SOL    HW233734   1.266   1.911   2.718 -0.3185 -1.9721 -0.7805
 8492SOL    HW333735   1.215   2.052   2.741 -0.0708 -2.3707  2.7968
 8492SOL    MW433736   1.218   1.980   2.693  0.0043  0.5239  0.3282
 8493SOL     OW33737   4.329   5.246   0.103  0.4333 -0.0929 -0.1558
 8493SOL    HW233738   4.407   5.197   0.078  0.9980  0.3398  0.7186
 8493SOL    HW333739   4.316   5.225   0.195 -0.9279 -0.7475 -0.4615
 8493SOL    MW433740   4.337   5.237   0.112 -0.6937 -0.3779 -0.0300
 8494SOL     OW33741   2.171   4.866   0.250  0.0442 -0.1127 -0.1257
 8494SOL    HW233742   2.083   4.874   0.212  0.3407 -1.4468 -1.1898
 8494SOL    HW333743   2.169   4.922   0.327 -0.9483  1.8587 -1.4934
 8494SOL    MW433744   2.159   4.874   0.255 -0.2680 -0.3804 -0.2465
 8495SOL     OW33745   2.438   3.943   3.071 -0.7118  0.5420 -0.0186
 8495SOL    HW233746   2.456   3.856   3.107 -1.4021  0.8157  1.0413
 8495SOL    HW333747   2.382   3.927   2.995  1.0034 -0.0675 -1.2103
 8495SOL    MW433748   2.433   3.930   3.066  0.0919 -0.2686 -0.1441
 8496SOL     OW33749   3.257   1.056   4.724  0.1888 -0.1652  0.2508
 8496SOL    HW233750   3.164   1.080   4.714  0.1368 -0.4063  0.1463
 8496SOL    HW333751   3.255   0.967   4.760  0.3679 -0.6499 -0.8857
 8496SOL    MW433752   3.244   1.047   4.727 -0.9729  0.3926 -0.6045
 8497SOL     OW33753   5.554   4.209   3.146  0.8006  0.0746 -0.0042
 8497SOL    HW233754   5.602   4.134   3.181 -0.1157 -1.5041 -1.8948
 8497SOL    HW333755   5.470   4.209   3.192 -0.0842 -1.5057 -1.4855
 8497SOL    MW433756   5.549   4.199   3.156  0.2435  0.1589 -0.2847
 8498SOL     OW33757   2.074   5.515   5.110  0.1101  0.1848  0.5257
 8498SOL    HW233758   2.166   5.495   5.094 -0.0114 -1.0108  1.2249
 8498SOL    HW333759   2.033   5.430   5.129 -1.4817  0.4458 -1.3875
 8498SOL    MW433760   2.081   5.501   5.110  0.1588  0.4721 -1.3944
 8499SOL     OW33761   4.438   2.884   0.251 -0.4327 -0.1359 -0.4444
 8499SOL    HW233762   4.415   2.879   0.344  0.9112 -3.1783 -0.1543
 8499SOL    HW333763   4.361   2.848   0.206 -0.6671  0.3615 -0.4523
 8499SOL    MW433764   4.425   2.879   0.258  0.1712  0.3671 -0.1482
 8500SOL     OW33765   4.862   3.294   1.752 -0.0821 -0.1824  0.6836
 8500SOL    HW233766   4.831   3.353   1.820  0.0763  1.0070 -0.2291
 8500SOL    HW333767   4.932   3.244   1.793  0.3354  0.8514  1.2533
 8500SOL    MW433768   4.867   3.295   1.766  0.2839  0.7090 -0.2647
 8501SOL     OW33769   3.302   0.205   6.376  0.1288  0.2912 -0.3818
 8501SOL    HW233770   3.392   0.234   6.362  0.6310 -1.6643 -1.5851
 8501SOL    HW333771   3.303   0.112   6.356 -2.0139  0.0408  0.3669
 8501SOL    MW433772   3.314   0.197   6.371 -0.1468 -0.2291  0.5954
 8502SOL     OW33773   2.394   0.533   2.335  0.1683  0.3409  0.4178
 8502SOL    HW233774   2.368   0.459   2.279  0.6362 -0.5721  1.3808
 8502SOL    HW333775   2.406   0.605   2.273 -1.8396  0.0550 -0.3674
 8502SOL    MW433776   2.392   0.532   2.319 -0.2226 -0.3508  0.2395
 8503SOL     OW33777   2.755   3.438   3.758 -0.2063 -0.1381 -0.1138
 8503SOL    HW233778   2.771   3.507   3.823  0.6491 -1.2966  0.9763
 8503SOL    HW333779   2.838   3.430   3.710 -0.4587 -0.0761 -0.5652
 8503SOL    MW433780   2.768   3.446   3.760  0.1715  0.5352 -0.3553
 8504SOL     OW33781   0.802   5.976   3.695 -0.0085 -0.2162 -0.4222
 8504SOL    HW233782   0.708   5.979   3.675  0.0223  0.8937 -0.4616
 8504SOL    HW333783   0.834   5.898   3.650 -1.1986 -1.5317  0.8971
 8504SOL    MW433784   0.794   5.966   3.686  0.3286 -0.1900  0.1122
 8505SOL     OW33785   0.663   2.697   5.375 -0.0104 -0.4114 -0.0831
 8505SOL    HW233786   0.577   2.682   5.414 -0.6541  3.1936  0.1559
 8505SOL    HW333787   0.644   2.732   5.288  1.1543  1.0940  0.2325
 8505SOL    MW433788   0.649   2.699   5.368 -0.7507  0.3412  0.1102
 8506SOL     OW33789   3.898   0.549   3.156  0.0621 -0.5595  0.1144
 8506SOL    HW233790   3.919   0.504   3.237 -1.2116  1.5538  1.7144
 8506SOL    HW333791   3.969   0.611   3.144  0.0345 -0.5825 -0.1789
 8506SOL    MW433792   3.910   0.551   3.165  0.1607  0.0690 -0.2644
 8507SOL     OW33793   5.932   3.743   2.568  0.2852  0.3216  0.0974
 8507SOL    HW233794   5.971   3.830   2.581 -0.9526  0.9318 -0.1187
 8507SOL    HW333795   5.863   3.738   2.634  0.1804 -0.3972 -0.0591
 8507SOL    MW433796   5.928   3.754   2.578  0.1754  0.3856 -0.0542
 8508SOL     OW33797   6.295   4.156   4.952 -0.6993  0.6477 -0.2813
 8508SOL    HW233798   6.324   4.067   4.929  0.5759  1.0359 -0.2586
 8508SOL    HW333799   6.357   4.214   4.908 -2.2035  1.5878 -1.2592
 8508SOL    MW433800   6.307   4.152   4.943 -0.4383 -0.2232  0.2225
 8509SOL     OW33801   1.889   4.174   4.600  0.3370  0.4111 -0.4271
 8509SOL    HW233802   1.932   4.151   4.682 -0.7165  0.9501  0.2957
 8509SOL    HW333803   1.893   4.094   4.547 -0.7744 -0.5960  0.9522
 8509SOL    MW433804   1.895   4.161   4.604  0.1681  0.0346  0.4084
 8510SOL     OW33805   4.037   3.702   2.161 -0.0009 -0.6688 -0.1950
 8510SOL    HW233806   4.034   3.614   2.198 -2.3582 -0.7041 -0.2907
 8510SOL    HW333807   3.971   3.701   2.092 -1.7505  1.7593  1.2734
 8510SOL    MW433808   4.028   3.690   2.157 -0.0161  0.0951 -0.2572
 8511SOL     OW33809   4.028   0.862   2.846  0.3106  0.2942 -0.4184
 8511SOL    HW233810   4.043   0.956   2.850  1.2572  0.1850 -1.1192
 8511SOL    HW333811   4.015   0.836   2.937  3.4827  0.5915  0.2200
 8511SOL    MW433812   4.028   0.871   2.858 -0.4217  0.4110 -0.2822
 8512SOL     OW33813   3.437   4.589   5.806  0.4944  0.3721 -0.5016
 8512SOL    HW233814   3.365   4.534   5.838  1.1982 -0.9658 -1.1212
 8512SOL    HW333815   3.515   4.555   5.850  1.0080  0.5987 -1.2128
 8512SOL    MW433816   3.438   4.577   5.816 -0.5631  0.2865 -0.2157
 8513SOL     OW33817   5.409   5.148   0.741 -0.1755  0.1361  0.2715
 8513SOL    HW233818   5.397   5.054   0.749  0.3079  0.1757  1.7882
 8513SOL    HW333819   5.384   5.183   0.827  0.0761  1.3324 -0.1245
 8513SOL    MW433820   5.404   5.140   0.754  0.4527  0.0397  0.1589
 8514SOL     OW33821   1.196   1.255   4.044 -0.5703  0.6699 -0.6834
 8514SOL    HW233822   1.276   1.232   3.997 -0.1317  1.1687 -0.1995
 8514SOL    HW333823   1.182   1.182   4.104  0.2509  1.1629  0.1337
 8514SOL    MW433824   1.205   1.242   4.046 -0.0552  0.1725 -0.3372
 8515SOL     OW33825   6.286   1.776   2.164 -0.1810  0.5825  0.0348
 8515SOL    HW233826   6.315   1.723   2.238 -0.5102  0.0357 -0.2213
 8515SOL    HW333827   6.252   1.857   2.204 -0.7885  0.0977  0.5141
 8515SOL    MW433828   6.285   1.780   2.179  0.2549  0.1885 -0.0592
 8516SOL     OW33829   6.286   1.884   1.761 -0.3158 -0.1483  0.1560
 8516SOL    HW233830   6.354   1.905   1.825 -0.1794  3.2030 -0.9069
 8516SOL    HW333831   6.330   1.831   1.695  0.8672  0.6219  0.3014
 8516SOL    MW433832   6.301   1.880   1.761  0.4702 -0.3249  0.2057
 8517SOL     OW33833   2.053   5.452   3.730 -0.5191 -0.0282  0.3595
 8517SOL    HW233834   2.135   5.494   3.755 -1.1595  0.6805  1.3653
 8517SOL    HW333835   2.062   5.362   3.761  0.2048 -0.1970 -0.3079
 8517SOL    MW433836   2.065   5.446   3.737  0.0057  0.2869 -0.0064
 8518SOL     OW33837   3.525   0.981   5.887 -0.3679 -0.2809 -0.2571
 8518SOL    HW233838   3.589   0.949   5.823 -0.1314 -1.2495  0.4335
 8518SOL    HW333839   3.579   1.019   5.957 -0.6282  0.9243 -0.6888
 8518SOL    MW433840   3.541   0.982   5.888 -0.7367 -0.3241 -0.1212
 8519SOL     OW33841   5.090   0.375   3.122 -0.6368  0.5060  0.0955
 8519SOL    HW233842   5.163   0.422   3.163 -0.2605  0.2758 -0.3079
 8519SOL    HW333843   5.024   0.443   3.108 -0.1352  0.9099 -0.3902
 8519SOL    MW433844   5.091   0.390   3.125  0.3274 -0.2338  0.1382
 8520SOL     OW33845   1.758   5.664   1.255  0.3176 -0.0810 -0.4438
 8520SOL    HW233846   1.713   5.733   1.206 -0.1225 -0.8099 -1.0840
 8520SOL    HW333847   1.730   5.677   1.346  0.1516  0.5070 -0.5745
 8520SOL    MW433848   1.749   5.675   1.261 -0.6224 -0.1312 -0.0102
 8521SOL     OW33849   1.472   0.453   5.290 -0.3309 -0.1249 -0.0032
 8521SOL    HW233850   1.435   0.541   5.282 -0.9178 -0.4276 -0.6423
 8521SOL    HW333851   1.524   0.442   5.211  2.7767  1.0236  1.7026
 8521SOL    MW433852   1.474   0.463   5.279  0.0761 -0.0826 -0.2693
 8522SOL     OW33853   0.850   2.480   4.227 -0.1455  0.0311  0.1153
 8522SOL    HW233854   0.856   2.404   4.284 -1.9126 -0.3570 -0.1456
 8522SOL    HW333855   0.881   2.554   4.280  2.4349 -0.9547  0.0887
 8522SOL    MW433856   0.855   2.480   4.241  0.1923 -0.1947 -0.7699
 8523SOL     OW33857   0.982   1.747   0.215 -0.4378  0.2013  0.7021
 8523SOL    HW233858   0.962   1.838   0.237  0.0737  0.2542  0.9492
 8523SOL    HW333859   0.989   1.703   0.299 -2.1865 -0.4065  0.5701
 8523SOL    MW433860   0.980   1.753   0.229  1.0356  0.8029  0.5538
 8524SOL     OW33861   1.831   3.080   2.057 -0.4408 -0.1862  0.4637
 8524SOL    HW233862   1.910   3.025   2.060  1.2359  2.0043 -0.3262
 8524SOL    HW333863   1.794   3.074   2.145  1.3648 -0.3045  1.2692
 8524SOL    MW433864   1.837   3.072   2.069  0.3534  0.7007  0.2741
 8525SOL     OW33865   6.288   3.874   1.698 -0.0262 -0.0119 -0.3209
 8525SOL    HW233866   6.359   3.827   1.655  0.5268  1.9505 -1.7186
 8525SOL    HW333867   6.244   3.921   1.627 -1.9383 -0.1629  0.7027
 8525SOL    MW433868   6.292   3.874   1.683  0.6048  0.5800  0.1181
 8526SOL     OW33869   0.652   1.891   0.106  0.2413 -0.0305 -0.4743
 8526SOL    HW233870   0.557   1.890   0.094  0.2312 -1.2192 -0.4157
 8526SOL    HW333871   0.667   1.952   0.178 -0.6361 -1.1444  0.6696
 8526SOL    MW433872   0.642   1.899   0.114  0.2422  0.1346 -0.5303
 8527SOL     OW33873   2.622   1.208   2.221  0.9381 -0.0861  0.9072
 8527SOL    HW233874   2.576   1.255   2.291  1.2766  1.3878  0.1705
 8527SOL    HW333875   2.676   1.275   2.178  2.3659 -1.3865  0.5684
 8527SOL    MW433876   2.623   1.223   2.225  0.1010 -0.0133 -0.0399
 8528SOL     OW33877   4.541   2.998   4.346 -0.7435  0.2273  0.4064
 8528SOL    HW233878   4.534   3.019   4.252 -0.0071  1.4204  0.5964
 8528SOL    HW333879   4.551   2.903   4.349  0.2822  0.2763 -0.7887
 8528SOL    MW433880   4.541   2.989   4.334  0.7710  0.2550  0.4822
 8529SOL     OW33881   3.820   4.778   4.561  0.0736 -0.0764 -0.1430
 8529SOL    HW233882   3.780   4.848   4.509  0.1631  0.2109  0.1682
 8529SOL    HW333883   3.912   4.778   4.535 -0.0205 -0.3824 -0.4735
 8529SOL    MW433884   3.826   4.787   4.551 -0.8199 -0.0109 -0.5993
 8530SOL     OW33885   3.828   3.098   5.190 -0.3149  0.4360 -0.1342
 8530SOL    HW233886   3.842   3.078   5.282 -0.2713 -1.6398 -0.5372
 8530SOL    HW333887   3.737   3.075   5.174  0.2487 -1.4288 -1.0569
 8530SOL    MW433888   3.818   3.092   5.200  0.2290 -0.1393  0.0637
 8531SOL     OW33889   4.923   3.595   5.221  0.7509  0.1338 -0.2208
 8531SOL    HW233890   4.956   3.656   5.156 -0.4644 -0.2180 -1.2030
 8531SOL    HW333891   4.857   3.644   5.269  1.3279  0.2535  0.4660
 8531SOL    MW433892   4.919   3.609   5.219 -0.2213  0.5788 -0.4258
 8532SOL     OW33893   1.954   1.638   0.260 -0.5564  0.1298 -0.0774
 8532SOL    HW233894   1.989   1.552   0.237 -1.1904 -0.0183 -0.5096
 8532SOL    HW333895   1.888   1.656   0.193 -0.7336  0.7658  0.2570
 8532SOL    MW433896   1.950   1.629   0.248 -0.1688 -0.0338 -0.1640
 8533SOL     OW33897   4.548   5.599   5.068  0.1155  0.9824 -0.4891
 8533SOL    HW233898   4.559   5.541   5.144 -2.8323  1.9807  0.8630
 8533SOL    HW333899   4.604   5.561   5.001  0.2637 -1.9621  1.1136
 8533SOL    MW433900   4.557   5.586   5.069 -0.6174 -0.5700 -0.4606
 8534SOL     OW33901   0.449   2.837   1.601  0.2397  0.0574 -0.4261
 8534SOL    HW233902   0.484   2.926   1.601 -1.4497  0.7595 -0.8171
 8534SOL    HW333903   0.442   2.814   1.693  1.5076 -0.0281 -0.3379
 8534SOL    MW433904   0.453   2.846   1.613 -0.0842  0.1665 -0.5009
 8535SOL     OW33905   1.337   2.853   4.848 -0.1037 -0.0454  0.6787
 8535SOL    HW233906   1.428   2.825   4.838  0.4008  1.5134  0.6355
 8535SOL    HW333907   1.305   2.864   4.758 -0.2670 -0.3600  0.6961
 8535SOL    MW433908   1.345   2.851   4.835  0.0317  0.3951  0.7157
 8536SOL     OW33909   1.482   5.955   1.496  0.0708 -0.4903 -0.3412
 8536SOL    HW233910   1.418   6.017   1.531  1.1886  0.4444  0.1200
 8536SOL    HW333911   1.467   5.874   1.544  0.5738  0.3226  1.2634
 8536SOL    MW433912   1.472   5.953   1.507 -0.4640  0.2628 -0.3905
 8537SOL     OW33913   1.929   4.604   0.539  0.2375 -0.1910  0.3988
 8537SOL    HW233914   1.841   4.611   0.500  0.5031  0.5792 -0.0878
 8537SOL    HW333915   1.988   4.607   0.463  0.7337  0.5166  0.8118
 8537SOL    MW433916   1.925   4.605   0.524 -0.3963 -0.1318  0.3833
 8538SOL     OW33917   0.230   2.029   0.433  0.2202  0.5634  0.4537
 8538SOL    HW233918   0.192   2.045   0.520 -3.1239  1.6342 -1.0369
 8538SOL    HW333919   0.241   2.116   0.396  3.4768  0.2326  0.3965
 8538SOL    MW433920   0.226   2.043   0.440 -0.0825 -0.3177 -0.2889
 8539SOL     OW33921   2.420   0.256   3.593  0.4289  0.6057  0.2158
 8539SOL    HW233922   2.326   0.273   3.584  0.3717  0.4437  0.4694
 8539SOL    HW333923   2.424   0.177   3.647  0.6395 -0.8317 -1.7774
 8539SOL    MW433924   2.408   0.247   3.599  0.0779 -0.3220  0.3864
 8540SOL     OW33925   0.088   3.731   1.316 -0.1034 -0.6195  0.0744
 8540SOL    HW233926   0.136   3.800   1.270 -1.1936  1.3402  1.7096
 8540SOL    HW333927  -0.004   3.752   1.302 -0.4869 -2.3616 -0.2097
 8540SOL    MW433928   0.082   3.743   1.308 -0.6817  0.6627  0.0070
 8541SOL     OW33929   4.913   6.327   0.609 -0.1893 -0.3518  0.2096
 8541SOL    HW233930   4.906   6.306   0.702  2.6877  0.7488  0.7904
 8541SOL    HW333931   4.938   6.244   0.568 -0.7466 -0.6783  0.5172
 8541SOL    MW433932   4.916   6.313   0.616  0.7231 -0.5433  0.0022
 8542SOL     OW33933   3.015   4.928   1.729  0.5737  0.0588  0.8592
 8542SOL    HW233934   3.037   4.949   1.820 -0.9331  2.0260  0.8434
 8542SOL    HW333935   2.977   4.840   1.734 -1.1836  0.8300  2.4843
 8542SOL    MW433936   3.013   4.919   1.742 -0.0620  0.0903 -0.6248
 8543SOL     OW33937   1.241   6.234   2.761 -0.5974  0.0030 -0.1597
 8543SOL    HW233938   1.196   6.318   2.753 -0.7063  0.0977  1.1521
 8543SOL    HW333939   1.276   6.235   2.850 -0.3455 -1.2218 -0.2354
 8543SOL    MW433940   1.239   6.245   2.772 -0.0570 -0.2264 -0.1825
 8544SOL     OW33941   4.815   3.805   2.862  0.4995 -0.2576 -0.6801
 8544SOL    HW233942   4.723   3.783   2.852  0.2697  0.3360  0.0980
 8544SOL    HW333943   4.854   3.728   2.904  0.1676 -0.1241 -0.1234
 8544SOL    MW433944   4.808   3.792   2.866  0.3056 -0.4793 -0.7384
 8545SOL     OW33945   1.863   3.036   3.836  0.2350  0.1773  0.6148
 8545SOL    HW233946   1.792   2.995   3.786 -0.3407  0.4174  1.2204
 8545SOL    HW333947   1.822   3.065   3.917  1.0230  0.3607  0.9603
 8545SOL    MW433948   1.848   3.035   3.840  0.3415  0.0531  0.2441
 8546SOL     OW33949   5.938   2.984   0.290  0.5777 -0.5095  0.1590
 8546SOL    HW233950   5.979   2.940   0.215 -0.9900  0.2574 -1.2061
 8546SOL    HW333951   5.919   3.073   0.258 -1.4225 -0.6046  0.9674
 8546SOL    MW433952   5.941   2.990   0.276  0.4898  0.5767 -0.2360
 8547SOL     OW33953   0.381   4.939   3.087 -0.4859  0.1278  0.3058
 8547SOL    HW233954   0.384   4.925   2.992 -0.5002 -0.1174  0.3424
 8547SOL    HW333955   0.448   4.881   3.122  0.6196  1.3519  0.3153
 8547SOL    MW433956   0.390   4.929   3.079 -0.5542 -0.6385 -0.2868
 8548SOL     OW33957   1.328   1.435   0.944 -0.1273  0.2399 -0.4179
 8548SOL    HW233958   1.414   1.433   0.986 -0.5699 -2.7934  0.6035
 8548SOL    HW333959   1.338   1.382   0.865 -1.3738 -1.6117  0.5935
 8548SOL    MW433960   1.341   1.428   0.939 -0.3684  0.3323 -0.1492
 8549SOL     OW33961   3.285   0.626   5.746 -0.1520  0.4422 -0.3744
 8549SOL    HW233962   3.220   0.697   5.744  0.5141  1.0468 -0.6559
 8549SOL    HW333963   3.343   0.650   5.818  0.2007  0.2932 -0.6102
 8549SOL    MW433964   3.284   0.639   5.756 -0.6336 -0.3607 -0.0094
 8550SOL     OW33965   4.596   4.817   1.633 -0.3140  0.1345  0.5594
 8550SOL    HW233966   4.523   4.820   1.694 -1.6833 -0.7941 -0.9798
 8550SOL    HW333967   4.567   4.867   1.557  0.5431 -0.4614 -0.1895
 8550SOL    MW433968   4.583   4.824   1.631 -0.1152  0.6400  0.8605
 8551SOL     OW33969   0.954   5.507   6.049 -0.3466 -0.6812  0.4224
 8551SOL    HW233970   0.933   5.551   6.131 -2.7401  1.7952 -1.3180
 8551SOL    HW333971   0.871   5.469   6.020  0.7687 -2.8062 -0.2296
 8551SOL    MW433972   0.940   5.508   6.056  0.0746  0.4584  0.7889
 8552SOL     OW33973   3.801   3.290   3.772 -0.0268 -0.0431  0.0172
 8552SOL    HW233974   3.757   3.266   3.691 -0.7334  3.5193 -0.8530
 8552SOL    HW333975   3.731   3.294   3.837  0.3401 -1.6679  0.5590
 8552SOL    MW433976   3.786   3.287   3.770  0.1440 -0.0450  0.5766
 8553SOL     OW33977   2.417   1.118   2.037  0.5646  0.8071  0.0618
 8553SOL    HW233978   2.400   1.182   1.968 -1.4491  1.4001  1.0281
 8553SOL    HW333979   2.472   1.164   2.100  0.9466  0.8445 -0.2932
 8553SOL    MW433980   2.422   1.132   2.036  0.2936 -0.2751  0.2122
 8554SOL     OW33981   3.668   4.475   4.444  0.1596 -0.6098  0.0429
 8554SOL    HW233982   3.635   4.563   4.463 -0.6186 -1.0214  0.6718
 8554SOL    HW333983   3.716   4.450   4.523  0.9758 -0.4920 -0.4012
 8554SOL    MW433984   3.670   4.483   4.457  0.2470 -0.2757  0.3309
 8555SOL     OW33985   5.036   0.562   3.468  0.1765  0.0439 -0.6106
 8555SOL    HW233986   5.116   0.510   3.474 -0.0003 -0.4908 -2.2766
 8555SOL    HW333987   5.059   0.646   3.506  1.2186 -0.4479 -0.1151
 8555SOL    MW433988   5.050   0.566   3.473 -0.3214 -0.2582  0.0362
 8556SOL     OW33989   6.028   4.961   5.802 -0.2514  0.0707 -0.0153
 8556SOL    HW233990   6.017   5.049   5.767 -1.7611  0.8303  2.1767
 8556SOL    HW333991   5.940   4.935   5.831  0.0690 -2.3430 -0.9513
 8556SOL    MW433992   6.015   4.969   5.801 -0.0439 -0.4089  0.1253
 8557SOL     OW33993   1.612   4.320   4.903  0.3850  0.2371 -0.2048
 8557SOL    HW233994   1.623   4.243   4.847 -1.4811  0.2321 -0.6342
 8557SOL    HW333995   1.603   4.393   4.841 -0.0928  0.4691  0.1381
 8557SOL    MW433996   1.612   4.320   4.887 -0.0181 -0.4989 -0.0422
 8558SOL     OW33997   6.161   5.818   3.354  0.1214 -0.3256 -0.0026
 8558SOL    HW233998   6.099   5.785   3.289  0.0369 -0.2187  0.0214
 8558SOL    HW333999   6.106   5.842   3.429  0.2474 -0.6923  0.2084
 8558SOL    MW434000   6.146   5.817   3.356 -0.2446  0.1121  0.0185
 8559SOL     OW34001   3.846   3.962   0.864 -0.5812 -0.1891 -0.1217
 8559SOL    HW234002   3.818   3.873   0.844 -0.2805 -0.4754  0.6864
 8559SOL    HW334003   3.898   3.989   0.789 -2.2552  0.0296 -1.2734
 8559SOL    MW434004   3.849   3.954   0.852 -0.0879 -0.3897 -0.6886
 8560SOL     OW34005   2.824   2.589   2.683 -0.4710 -0.4359  0.4777
 8560SOL    HW234006   2.881   2.520   2.717 -1.5258 -2.2906 -1.3019
 8560SOL    HW334007   2.763   2.607   2.754  0.1324 -0.9813  1.1445
 8560SOL    MW434008   2.823   2.583   2.697  0.0028 -0.0944  0.1306
 8561SOL     OW34009   3.103   5.090   4.187 -0.4022  0.0571 -0.2811
 8561SOL    HW234010   3.068   5.003   4.207  1.5335 -0.6261  0.3123
 8561SOL    HW334011   3.194   5.075   4.161  0.2766  1.9873  0.7606
 8561SOL    MW434012   3.110   5.077   4.186 -0.3435  0.1958 -0.3209
 8562SOL     OW34013   2.521   3.702   5.226  0.4909 -0.4790 -0.2363
 8562SOL    HW234014   2.578   3.717   5.151  0.1588 -0.2821 -0.4558
 8562SOL    HW334015   2.578   3.710   5.302  0.7929 -0.4832 -0.4627
 8562SOL    MW434016   2.536   3.705   5.227  0.8739 -0.3332  0.2532
 8563SOL     OW34017   2.119   3.660   5.362 -0.0140  0.3398 -0.1285
 8563SOL    HW234018   2.146   3.640   5.272 -0.5446 -0.5326 -0.0954
 8563SOL    HW334019   2.201   3.683   5.406  0.4756 -0.8025 -0.4248
 8563SOL    MW434020   2.134   3.661   5.356  0.4629  0.7703 -0.2645
 8564SOL     OW34021   0.147   3.102   1.476 -0.1252 -0.2821  0.4795
 8564SOL    HW234022   0.213   3.159   1.516 -0.2316  0.7974 -0.7922
 8564SOL    HW334023   0.071   3.160   1.464 -0.6336 -1.0065  0.1741
 8564SOL    MW434024   0.146   3.117   1.480  0.3381  0.1069 -0.5911
 8565SOL     OW34025   5.155   5.223   1.965  0.3126 -0.2644  0.4762
 8565SOL    HW234026   5.071   5.210   1.921  0.1825 -0.8179  0.8856
 8565SOL    HW334027   5.197   5.137   1.964  1.1524  0.1287 -0.2736
 8565SOL    MW434028   5.150   5.210   1.959  0.6921 -0.1324 -0.2762
 8566SOL     OW34029   1.384   1.726   2.728  0.0909  0.6380  0.0039
 8566SOL    HW234030   1.410   1.696   2.816  0.0565 -1.9362 -0.7735
 8566SOL    HW334031   1.466   1.723   2.678 -0.1131  0.9247 -0.3442
 8566SOL    MW434032   1.398   1.722   2.733  0.5708 -0.1321  0.2411
 8567SOL     OW34033   1.186   3.999   6.053 -0.1772  0.2799 -0.0427
 8567SOL    HW234034   1.235   3.949   5.987  0.6603  1.4283 -0.3336
 8567SOL    HW334035   1.161   3.935   6.119 -1.3531 -0.9725 -1.6479
 8567SOL    MW434036   1.190   3.984   6.053  0.3815  0.2857 -0.3806
 8568SOL     OW34037   0.684   5.369   3.600  0.1182 -0.1594  0.0904
 8568SOL    HW234038   0.645   5.422   3.530  0.3513 -0.7055 -0.4597
 8568SOL    HW334039   0.639   5.398   3.679 -1.9079 -1.2362 -0.5969
 8568SOL    MW434040   0.673   5.380   3.601 -0.4309  0.6293 -0.0634
 8569SOL     OW34041   1.435   1.635   2.993  0.3329  0.4548  0.4360
 8569SOL    HW234042   1.460   1.662   3.082  1.1763 -1.0338  0.6763
 8569SOL    HW334043   1.363   1.572   3.006 -0.0331  0.7726  0.0108
 8569SOL    MW434044   1.429   1.630   3.007 -0.0649  0.2812  0.3076
 8570SOL     OW34045   0.207   3.903   3.548  0.1444 -0.2607  0.3607
 8570SOL    HW234046   0.197   3.860   3.633 -0.5917  0.3632  0.6023
 8570SOL    HW334047   0.144   3.975   3.550  0.6544  0.2204 -0.4230
 8570SOL    MW434048   0.197   3.907   3.560 -0.3509 -0.2351 -0.0092
 8571SOL     OW34049   5.547   6.203   4.918 -0.0347  0.5332  0.3582
 8571SOL    HW234050   5.533   6.137   4.850  0.2825  1.0184 -0.1863
 8571SOL    HW334051   5.641   6.203   4.932  0.1287  1.8008 -0.6042
 8571SOL    MW434052   5.557   6.194   4.911 -0.2421 -0.2940 -0.7522
 8572SOL     OW34053   4.624   3.474   2.708  0.1322  0.3875 -0.5166
 8572SOL    HW234054   4.578   3.469   2.624  0.4153 -2.7499 -0.6076
 8572SOL    HW334055   4.713   3.503   2.685 -0.0188  0.3500 -1.1762
 8572SOL    MW434056   4.630   3.477   2.694 -0.4414  0.8228 -0.2088
 8573SOL     OW34057   1.791   4.361   2.952 -0.5630 -0.1915  0.0699
 8573SOL    HW234058   1.857   4.330   2.891  1.2648 -3.0963  3.1281
 8573SOL    HW334059   1.740   4.283   2.973 -1.3863  0.7663  1.8469
 8573SOL    MW434060   1.793   4.347   2.947 -0.2536  0.1539  0.4269
 8574SOL     OW34061   0.734   3.835   2.662  0.3310 -0.2326 -0.4455
 8574SOL    HW234062   0.741   3.772   2.734 -1.6888 -0.5526 -0.4575
 8574SOL    HW334063   0.703   3.783   2.587  0.4257  0.4576 -0.9804
 8574SOL    MW434064   0.731   3.820   2.661 -0.3047  0.1491 -0.2260
 8575SOL     OW34065   1.122   1.563   3.821 -0.1777  0.2463  0.0026
 8575SOL    HW234066   1.149   1.516   3.741  0.9301  1.4734 -0.3747
 8575SOL    HW334067   1.204   1.578   3.869 -0.6599  0.7745  0.6788
 8575SOL    MW434068   1.137   1.559   3.817 -0.3222 -0.2961 -0.1746
 8576SOL     OW34069   4.897   6.196   6.120  0.4961 -0.0927 -0.0367
 8576SOL    HW234070   4.871   6.180   6.029 -1.0162  0.0754  0.3359
 8576SOL    HW334071   4.820   6.238   6.160  1.2168  0.0464  1.2585
 8576SOL    MW434072   4.883   6.199   6.113  0.5494  0.1437  0.1298
 8577SOL     OW34073   4.056   3.268   1.041 -0.2424  0.1931  0.7415
 8577SOL    HW234074   4.020   3.181   1.063  1.4477 -1.2765 -1.7555
 8577SOL    HW334075   4.148   3.262   1.065  0.4750  0.3114 -1.7014
 8577SOL    MW434076   4.063   3.255   1.047 -0.5663  0.4843  0.4531
 8578SOL     OW34077   1.356   1.029   1.160 -0.4138  0.2283  0.2817
 8578SOL    HW234078   1.352   1.045   1.065 -1.6999  2.2503  0.6043
 8578SOL    HW334079   1.335   1.114   1.199 -0.0511 -0.5976  2.4019
 8578SOL    MW434080   1.353   1.043   1.153  0.2488 -0.1157  0.3529
 8579SOL     OW34081   1.952   3.150   4.868 -0.1358 -0.4450 -0.0406
 8579SOL    HW234082   1.893   3.076   4.881  1.0311 -1.2552  0.8665
 8579SOL    HW334083   2.025   3.132   4.927 -0.1407  1.7978  0.7190
 8579SOL    MW434084   1.954   3.138   4.877 -0.0551 -0.2073 -0.0560
 8580SOL     OW34085   4.438   0.861   6.432 -0.3029 -0.6144 -0.5609
 8580SOL    HW234086   4.404   0.775   6.408 -1.0935  0.0321 -1.9009
 8580SOL    HW334087   4.522   0.868   6.387  0.6123 -1.3523  0.9772
 8580SOL    MW434088   4.445   0.851   6.423 -0.4087  0.3774 -0.6923
 8581SOL     OW34089   1.028   3.291   5.636  0.3062 -0.6368 -0.1892
 8581SOL    HW234090   1.047   3.327   5.550 -0.7910 -0.4183 -0.3500
 8581SOL    HW334091   1.107   3.242   5.659  0.7688 -0.3595 -1.1315
 8581SOL    MW434092   1.041   3.289   5.628  0.2101 -1.0255 -0.0776
 8582SOL     OW34093   5.363   2.537   2.366 -0.2017 -0.0819  0.1036
 8582SOL    HW234094   5.293   2.483   2.404 -0.3512  1.4991  2.2102
 8582SOL    HW334095   5.317   2.614   2.331  0.1694 -0.5962 -1.6313
 8582SOL    MW434096   5.347   2.540   2.366  0.5304  0.4002  0.3057
 8583SOL     OW34097   0.515   2.249   4.057  0.5821  0.2968 -0.0270
 8583SOL    HW234098   0.492   2.341   4.073 -0.5915 -0.2519  1.8193
 8583SOL    HW334099   0.543   2.216   4.143  1.9474 -0.8254 -0.8693
 8583SOL    MW434100   0.516   2.257   4.071  0.8710 -0.3618  0.0852
 8584SOL     OW34101   4.927   3.713   5.593 -0.1639 -0.5502  0.1175
 8584SOL    HW234102   5.003   3.767   5.571 -0.5614 -0.1686 -0.3524
 8584SOL    HW334103   4.872   3.715   5.514 -1.0188 -0.2102  0.6989
 8584SOL    MW434104   4.929   3.720   5.579 -0.3383  0.5312  0.6920
 8585SOL     OW34105   3.645   2.163   3.378 -0.0934 -0.4663 -0.6096
 8585SOL    HW234106   3.693   2.245   3.366 -0.2061 -0.5152 -1.4146
 8585SOL    HW334107   3.591   2.178   3.456  1.9050 -0.7428  0.9173
 8585SOL    MW434108   3.645   2.176   3.387  0.0417 -0.4499  0.2762
 8586SOL     OW34109   3.587   3.345   3.925 -0.3941  0.3277 -0.3118
 8586SOL    HW234110   3.584   3.270   3.984 -0.4039  1.0243  0.5851
 8586SOL    HW334111   3.497   3.356   3.896 -0.5431  0.5103  0.2156
 8586SOL    MW434112   3.575   3.336   3.929  0.8461  0.3607 -0.2077
 8587SOL     OW34113   0.475   0.315   2.065 -0.0253 -0.0059  0.3954
 8587SOL    HW234114   0.469   0.408   2.040 -0.4421 -0.2945 -0.6606
 8587SOL    HW334115   0.554   0.284   2.022  0.4653  0.0040  1.2772
 8587SOL    MW434116   0.484   0.323   2.056  0.3900 -0.5761 -0.4502
 8588SOL     OW34117   3.542   2.217   2.716  0.0259  0.0540 -0.2218
 8588SOL    HW234118   3.603   2.243   2.647 -1.2710  0.2906 -1.3241
 8588SOL    HW334119   3.562   2.125   2.733  0.0955 -0.1208 -1.2123
 8588SOL    MW434120   3.552   2.208   2.709  0.0136  0.0627  0.3458
 8589SOL     OW34121   5.150   3.878   3.549 -0.2170 -0.7735 -0.0493
 8589SOL    HW234122   5.122   3.804   3.604 -1.2782 -0.8184 -0.6261
 8589SOL    HW334123   5.087   3.880   3.477 -0.4012  0.8751  0.1116
 8589SOL    MW434124   5.138   3.868   3.547  0.7871  0.2681 -0.1726
 8590SOL     OW34125   0.898   1.605   4.456  0.0478  0.0601 -1.0590
 8590SOL    HW234126   0.911   1.652   4.374  0.4573 -1.1494 -1.7206
 8590SOL    HW334127   0.956   1.529   4.450  0.1660 -0.0028  0.4020
 8590SOL    MW434128   0.907   1.601   4.445  0.9083 -0.0812 -0.0754
 8591SOL     OW34129   2.421   5.498   3.600 -0.3699  0.0116  0.1557
 8591SOL    HW234130   2.347   5.465   3.548  0.1763  2.0875 -2.1594
 8591SOL    HW334131   2.384   5.568   3.653 -0.3643  0.0393  0.1237
 8591SOL    MW434132   2.406   5.503   3.600  1.1480  0.1365  0.3177
 8592SOL     OW34133   5.203   1.078   3.311 -0.5593 -0.3415  0.1388
 8592SOL    HW234134   5.152   1.158   3.322 -0.7704 -0.3910 -0.4327
 8592SOL    HW334135   5.173   1.042   3.227 -2.1254 -2.2401  1.4155
 8592SOL    MW434136   5.192   1.084   3.301  0.2356  0.1051 -1.1018
 8593SOL     OW34137   0.306   1.573   5.224 -0.1762  0.2144  0.0602
 8593SOL    HW234138   0.371   1.641   5.241 -0.7465  0.6641  0.4584
 8593SOL    HW334139   0.342   1.495   5.265  0.4441  0.2853 -0.3311
 8593SOL    MW434140   0.319   1.572   5.231 -0.6899 -0.7784  0.5641
 8594SOL     OW34141   6.287   1.787   0.015  0.0712  0.1289  0.3495
 8594SOL    HW234142   6.208   1.734  -0.002  0.7854 -0.4113 -1.6737
 8594SOL    HW334143   6.353   1.723   0.040  0.9041 -0.0285 -1.9770
 8594SOL    MW434144   6.285   1.771   0.016 -0.1655  0.1076 -0.2327
 8595SOL     OW34145   4.867   0.309   4.011 -0.2791  0.1741  0.4318
 8595SOL    HW234146   4.809   0.241   4.045  0.2937 -0.2385  0.5944
 8595SOL    HW334147   4.815   0.353   3.943 -0.3684 -0.9819 -0.2780
 8595SOL    MW434148   4.853   0.306   4.007 -0.3038 -0.0708 -0.0372
 8596SOL     OW34149   2.962   1.864   1.197  0.4899  0.4308 -0.0605
 8596SOL    HW234150   2.893   1.815   1.241 -0.3106 -0.3470 -2.0804
 8596SOL    HW334151   2.917   1.938   1.156  1.1199  0.8326 -0.0395
 8596SOL    MW434152   2.947   1.867   1.197 -0.4646 -0.2688 -0.0006
 8597SOL     OW34153   2.828   3.069   6.221 -0.0246  0.4555  0.4431
 8597SOL    HW234154   2.835   3.140   6.158 -0.5848  0.8044  0.7598
 8597SOL    HW334155   2.830   2.989   6.168 -2.3685  0.7730 -0.2270
 8597SOL    MW434156   2.829   3.068   6.206  0.6714  0.2231 -0.1246
 8598SOL     OW34157   2.379   4.841   6.382  0.2240 -0.0744  0.3957
 8598SOL    HW234158   2.456   4.790   6.359 -0.5609 -1.2319  0.2612
 8598SOL    HW334159   2.397   4.929   6.348  0.8705 -0.6870 -0.9237
 8598SOL    MW434160   2.392   4.846   6.375 -0.2072  0.1163  0.3032
 8599SOL     OW34161   4.150   6.284   5.019 -0.5106  0.2730  0.2976
 8599SOL    HW234162   4.089   6.353   4.994 -0.3356  0.6255  0.8379
 8599SOL    HW334163   4.189   6.314   5.101  0.9645  0.4204 -0.4282
 8599SOL    MW434164   4.147   6.297   5.027  0.2483 -0.6910 -0.0325
 8600SOL     OW34165   0.206   5.852   0.625  0.3712  0.2330 -0.0545
 8600SOL    HW234166   0.258   5.790   0.675  1.1062  2.3011  1.9518
 8600SOL    HW334167   0.242   5.938   0.649 -2.1195  1.5911 -0.7996
 8600SOL    MW434168   0.217   5.855   0.634 -0.4939  0.2920  0.4225
 8601SOL     OW34169   2.294   1.722   4.661 -0.1049 -0.7333  0.0194
 8601SOL    HW234170   2.268   1.743   4.572 -0.0876  1.4566  0.4838
 8601SOL    HW334171   2.380   1.682   4.652  0.5660  0.8252 -0.8926
 8601SOL    MW434172   2.302   1.719   4.648 -0.3039 -1.0012  0.2047
 8602SOL     OW34173   3.645   3.115   1.768  0.3318 -0.0038  0.1953
 8602SOL    HW234174   3.730   3.146   1.737 -0.4389  0.6533 -1.3786
 8602SOL    HW334175   3.583   3.147   1.703 -1.0171 -1.2457  0.8211
 8602SOL    MW434176   3.648   3.123   1.755  0.3805 -0.7451  0.5282
 8603SOL     OW34177   4.896   2.026   5.693 -0.3395  0.2761  0.6288
 8603SOL    HW234178   4.894   2.105   5.747  0.6257  0.0145  1.0764
 8603SOL    HW334179   4.986   2.021   5.662 -0.5835 -0.2441 -0.0234
 8603SOL    MW434180   4.908   2.036   5.696 -0.1887  0.0998  0.0733
 8604SOL     OW34181   1.120   2.216   0.864 -0.3857 -0.4460 -0.1653
 8604SOL    HW234182   1.062   2.143   0.882 -1.1770  0.2269  0.0520
 8604SOL    HW334183   1.131   2.260   0.948  0.4687 -0.5793 -0.1961
 8604SOL    MW434184   1.114   2.212   0.878  0.4013  0.8232  0.2160
 8605SOL     OW34185   2.340   5.727   2.560 -0.6496 -0.0738 -0.2129
 8605SOL    HW234186   2.290   5.765   2.487 -1.6712 -0.6383  0.1759
 8605SOL    HW334187   2.292   5.648   2.583  1.5329 -1.7570 -1.1127
 8605SOL    MW434188   2.327   5.722   2.553 -0.3257  0.1135  0.1498
 8606SOL     OW34189   5.958   1.654   4.074 -0.2000  0.4892 -0.1300
 8606SOL    HW234190   5.963   1.582   4.012  0.5179 -1.7321  2.3165
 8606SOL    HW334191   6.049   1.675   4.095 -0.3926  2.2287 -0.8514
 8606SOL    MW434192   5.970   1.647   4.069  0.9814  0.1480 -0.1578
 8607SOL     OW34193   3.007   4.241   2.669  0.9018  0.1888  0.3621
 8607SOL    HW234194   3.010   4.333   2.696  2.0222  0.1545  0.3896
 8607SOL    HW334195   3.069   4.197   2.726  1.9063 -0.2155 -0.9986
 8607SOL    MW434196   3.015   4.247   2.680 -0.4633 -0.5161 -0.1727
 8608SOL     OW34197   1.789   2.123   0.178 -0.3719 -0.1336  0.0905
 8608SOL    HW234198   1.797   2.173   0.259  0.2359 -0.0389 -0.0189
 8608SOL    HW334199   1.838   2.175   0.113 -1.5631  0.2288 -0.5418
 8608SOL    MW434200   1.797   2.137   0.180  0.6897  0.4162  0.1434
 8609SOL     OW34201   2.176   1.257   3.294 -0.3486 -0.5087  0.5314
 8609SOL    HW234202   2.209   1.318   3.360  0.5334  0.4486 -0.7582
 8609SOL    HW334203   2.176   1.307   3.212  0.6544 -2.2836 -0.6183
 8609SOL    MW434204   2.180   1.271   3.292  0.1811 -0.0910 -0.0508
 8610SOL     OW34205   3.857   5.284   6.384 -0.5225 -0.0325 -0.5937
 8610SOL    HW234206   3.836   5.225   6.456 -0.2720  1.0155  0.3613
 8610SOL    HW334207   3.951   5.301   6.393 -0.4764  0.0835 -1.2017
 8610SOL    MW434208   3.867   5.279   6.394 -0.2201 -0.3668  0.1203
 8611SOL     OW34209   4.088   5.645   2.255  1.1690  0.0033 -0.1769
 8611SOL    HW234210   4.171   5.603   2.276  0.7534 -1.1199 -0.7098
 8611SOL    HW334211   4.100   5.678   2.166  0.6196 -1.3568 -0.7867
 8611SOL    MW434212   4.101   5.644   2.246  0.2177 -0.3333 -0.2572
 8612SOL     OW34213   5.983   6.419   0.095  0.1072  0.0002  0.3256
 8612SOL    HW234214   6.065   6.457   0.064  0.7684 -0.5747  1.2937
 8612SOL    HW334215   5.977   6.334   0.050  0.1952 -0.0808  0.4645
 8612SOL    MW434216   5.993   6.413   0.085  1.6265 -0.3569  0.0114
 8613SOL     OW34217   6.084   3.192   2.553 -0.1833  0.3330  0.3538
 8613SOL    HW234218   6.025   3.232   2.490  0.5051  1.6774  0.5332
 8613SOL    HW334219   6.127   3.121   2.505 -1.3398 -0.1495  0.0023
 8613SOL    MW434220   6.082   3.188   2.538 -0.2478  0.0870 -0.4936
 8614SOL     OW34221   0.491   2.590   3.471  0.3365 -0.3791  1.0276
 8614SOL    HW234222   0.396   2.601   3.465  0.3498 -0.0292  1.3940
 8614SOL    HW334223   0.507   2.562   3.561  0.5270 -1.0517  0.7869
 8614SOL    MW434224   0.481   2.588   3.482  0.5088 -0.1735  0.2874
 8615SOL     OW34225   5.108   1.906   0.568 -0.4226 -0.0423 -0.5877
 8615SOL    HW234226   5.169   1.973   0.540 -2.1235  1.9141  0.1452
 8615SOL    HW334227   5.131   1.829   0.516  4.3321 -0.3607  1.4669
 8615SOL    MW434228   5.119   1.905   0.557 -0.4550 -0.4502 -0.1017
 8616SOL     OW34229   3.329   3.181   2.619  0.4110  0.1985 -0.0463
 8616SOL    HW234230   3.277   3.161   2.541 -0.3599  0.3012  0.4283
 8616SOL    HW334231   3.370   3.098   2.642 -0.0386 -0.0383 -0.0770
 8616SOL    MW434232   3.327   3.168   2.612 -0.3161 -0.5397  0.3481
 8617SOL     OW34233   0.262   3.146   3.970 -0.5694  0.2531  0.2877
 8617SOL    HW234234   0.310   3.064   3.976  3.1950  2.2270  0.7416
 8617SOL    HW334235   0.177   3.123   3.934  0.8402 -3.5954 -0.9944
 8617SOL    MW434236   0.257   3.132   3.966  0.1144  0.0260 -0.2274
 8618SOL     OW34237   4.901   3.993   1.515  0.9029  0.4214  0.0641
 8618SOL    HW234238   4.959   3.992   1.590  0.4750  2.8080  0.5076
 8618SOL    HW334239   4.815   3.972   1.551  0.8513  0.6807  0.0958
 8618SOL    MW434240   4.897   3.990   1.529 -0.6028 -0.7551  0.2302
 8619SOL     OW34241   3.604   0.536   4.205  0.4542  0.2141 -0.2406
 8619SOL    HW234242   3.655   0.459   4.180  0.7003  0.4755 -0.5595
 8619SOL    HW334243   3.664   0.589   4.256  0.7599  0.8847 -1.2597
 8619SOL    MW434244   3.619   0.533   4.208 -0.3054 -0.3942 -0.3081
 8620SOL     OW34245   6.439  -0.004   3.516 -0.5024  0.2756 -0.2263
 8620SOL    HW234246   6.497   0.017   3.590 -1.9419  0.2566  0.9628
 8620SOL    HW334247   6.483  -0.077   3.471  0.7086  0.6929  0.2332
 8620SOL    MW434248   6.453  -0.011   3.520 -0.1888  0.1083 -0.5197
 8621SOL     OW34249   4.269   5.770   5.623 -0.2487 -0.1399 -0.4057
 8621SOL    HW234250   4.339   5.802   5.680 -1.9681  0.1304  1.6765
 8621SOL    HW334251   4.314   5.745   5.542  2.2670 -0.1529  0.8826
 8621SOL    MW434252   4.284   5.771   5.620  0.1469  0.2424  0.8478
 8622SOL     OW34253   5.326   0.603   3.127  0.2273  0.1365 -0.2287
 8622SOL    HW234254   5.396   0.640   3.074  0.7184 -1.0118 -0.4029
 8622SOL    HW334255   5.370   0.563   3.201 -0.4568  1.7792  1.1337
 8622SOL    MW434256   5.341   0.603   3.129 -0.3731 -0.6879 -0.0387
 8623SOL     OW34257   4.920   5.247   0.566 -0.5986  0.4087 -0.5575
 8623SOL    HW234258   4.863   5.190   0.617  0.2467  0.6468  0.6912
 8623SOL    HW334259   4.956   5.190   0.497  2.1127 -1.3457  2.0622
 8623SOL    MW434260   4.917   5.232   0.563 -0.6127  0.3399 -0.2510
 8624SOL     OW34261   6.123   3.637   0.775 -0.2715 -0.2742  0.0343
 8624SOL    HW234262   6.160   3.569   0.720 -0.6321 -1.0199  0.6869
 8624SOL    HW334263   6.197   3.672   0.825  0.1701  0.8536 -1.3535
 8624SOL    MW434264   6.138   3.633   0.774  0.5066  0.0262 -0.6210
 8625SOL     OW34265   2.299   0.481   1.073  0.0950  0.4122  0.0658
 8625SOL    HW234266   2.332   0.458   0.986 -0.1808  1.3529 -0.2979
 8625SOL    HW334267   2.358   0.436   1.133 -0.0668 -0.7406 -0.6043
 8625SOL    MW434268   2.311   0.472   1.069 -0.6040 -0.6577 -0.1039
 8626SOL     OW34269   5.550   6.398   4.537  0.2258 -0.3654 -0.1264
 8626SOL    HW234270   5.627   6.393   4.480  0.9984 -1.6591  0.9591
 8626SOL    HW334271   5.541   6.310   4.574 -2.2323 -0.4560 -0.7546
 8626SOL    MW434272   5.559   6.386   4.534 -0.3230 -0.0877 -0.5945
 8627SOL     OW34273   1.980   1.043   1.891  0.3113 -0.2802  0.3696
 8627SOL    HW234274   1.908   1.039   1.953 -1.3629  0.4064 -1.4444
 8627SOL    HW334275   1.980   0.958   1.848 -0.7576  0.3993 -1.0307
 8627SOL    MW434276   1.971   1.031   1.894  0.6482  0.2824 -0.4242
 8628SOL     OW34277   4.994   0.665   1.640 -0.3237 -0.0965 -0.0266
 8628SOL    HW234278   4.930   0.711   1.695 -2.1263  0.8255 -2.6800
 8628SOL    HW334279   4.941   0.617   1.577  1.6089 -0.5983 -1.3569
 8628SOL    MW434280   4.979   0.665   1.639 -0.3317 -0.0891 -0.5194
 8629SOL     OW34281   6.410   1.734   1.278  0.0893  0.6528 -0.0977
 8629SOL    HW234282   6.382   1.683   1.203 -2.0698  0.1962  0.9574
 8629SOL    HW334283   6.456   1.809   1.240 -2.1817  1.2023 -1.9596
 8629SOL    MW434284   6.413   1.737   1.263  0.5005 -0.3066  0.1589
 8630SOL     OW34285   0.393   2.686   5.468 -0.2049  0.0685  0.5797
 8630SOL    HW234286   0.328   2.642   5.412 -1.6917  0.9822  1.5266
 8630SOL    HW334287   0.402   2.628   5.543  2.7513 -1.8180 -1.0124
 8630SOL    MW434288   0.385   2.672   5.470 -0.1183  0.5044  0.0223
 8631SOL     OW34289   4.853   1.925   4.786  0.0672  0.1075 -0.0130
 8631SOL    HW234290   4.814   1.985   4.723 -0.0752  1.5530  1.3831
 8631SOL    HW334291   4.934   1.968   4.814 -0.0249 -0.3371  0.9976
 8631SOL    MW434292   4.859   1.938   4.781 -0.0705 -0.0530  0.2599
 8632SOL     OW34293   5.864   4.586   2.662 -0.0505 -0.0763 -0.0096
 8632SOL    HW234294   5.882   4.500   2.699 -1.4891 -0.5531 -0.3319
 8632SOL    HW334295   5.770   4.584   2.641 -0.4191  2.0192  1.1445
 8632SOL    MW434296   5.854   4.575   2.664  0.0429 -0.0740 -0.3953
 8633SOL     OW34297   5.154   0.594   6.361 -0.8918  0.1917 -0.0072
 8633SOL    HW234298   5.111   0.534   6.300 -0.1720 -0.8700  0.4925
 8633SOL    HW334299   5.222   0.636   6.309 -1.3294  0.5024 -0.3360
 8633SOL    MW434300   5.157   0.592   6.346  0.2011  0.4890  0.4620
 8634SOL     OW34301   0.334   1.728   2.731 -0.1596  0.2236  0.3227
 8634SOL    HW234302   0.286   1.749   2.651 -0.2196 -1.3841 -0.1002
 8634SOL    HW334303   0.408   1.675   2.701  1.7868  2.3691  0.9935
 8634SOL    MW434304   0.338   1.724   2.716  0.3535 -0.4637  0.1605
 8635SOL     OW34305   4.596   1.663   5.389 -0.1475 -0.2200  0.4636
 8635SOL    HW234306   4.528   1.598   5.370 -1.0457  1.2065 -1.5430
 8635SOL    HW334307   4.642   1.674   5.307  1.9577 -0.4329  1.5456
 8635SOL    MW434308   4.593   1.656   5.376 -0.4612 -0.4191 -0.1875
 8636SOL     OW34309   2.096   5.555   4.389 -0.1209 -0.1375  0.5652
 8636SOL    HW234310   2.076   5.527   4.300  0.1890 -1.2178  0.8168
 8636SOL    HW334311   2.117   5.474   4.435  0.9043  0.5301  1.3198
 8636SOL    MW434312   2.096   5.541   4.384  1.1227 -0.4696  0.2604
 8637SOL     OW34313   2.738   1.452   2.195 -0.6655 -0.5333  0.5256
 8637SOL    HW234314   2.704   1.542   2.193  0.6684  0.0213  1.2258
 8637SOL    HW334315   2.779   1.444   2.281 -1.2755 -2.0368  0.7052
 8637SOL    MW434316   2.739   1.463   2.206  0.1908 -0.3658 -0.2901
 8638SOL     OW34317   2.422   0.060   2.888 -0.2036 -0.5198  0.9272
 8638SOL    HW234318   2.441   0.148   2.856 -1.5814 -0.3930  0.3823
 8638SOL    HW334319   2.471   0.052   2.970  2.0516 -0.2271 -0.3191
 8638SOL    MW434320   2.431   0.070   2.895 -0.0321 -0.1514  0.0575
 8639SOL     OW34321   2.988   1.047   2.156  0.0392 -0.5016 -0.3093
 8639SOL    HW234322   3.069   1.070   2.202 -0.4075 -0.1900  0.3366
 8639SOL    HW334323   2.970   1.122   2.100  0.2264 -0.5915 -0.4883
 8639SOL    MW434324   2.996   1.059   2.155 -0.5386  0.3121 -0.1022
 8640SOL     OW34325   3.058   4.242   0.960  0.2949  0.0147  0.6384
 8640SOL    HW234326   3.075   4.180   0.889  0.8223  0.6459  0.1960
 8640SOL    HW334327   3.009   4.313   0.919  0.7971  0.4913  0.8525
 8640SOL    MW434328   3.054   4.243   0.946  0.0165 -0.1708  0.2354
 8641SOL     OW34329   0.554   2.663   3.748 -0.5004  0.2898 -0.2119
 8641SOL    HW234330   0.501   2.738   3.720 -0.1108  1.2711  1.5892
 8641SOL    HW334331   0.490   2.594   3.763 -1.3487  1.4625  1.9391
 8641SOL    MW434332   0.539   2.664   3.746  0.1527  0.2876 -0.3241
 8642SOL     OW34333   6.369   0.829   3.808 -0.2414 -0.5230  0.2879
 8642SOL    HW234334   6.435   0.824   3.878  0.9927  0.7859 -0.7209
 8642SOL    HW334335   6.313   0.753   3.822  2.2969 -2.4857  0.3744
 8642SOL    MW434336   6.370   0.818   3.819 -0.0447  0.4026  0.1584
 8643SOL     OW34337   2.996   2.962   4.167 -0.8187  0.7292  0.7454
 8643SOL    HW234338   2.973   3.013   4.090 -2.3335 -0.0014  0.6723
 8643SOL    HW334339   3.002   2.872   4.135  2.2354  0.8313  0.7778
 8643SOL    MW434340   2.994   2.957   4.152  0.1453 -0.4228  0.3119
 8644SOL     OW34341   1.277   0.741   0.975 -0.9616  0.5710 -0.2757
 8644SOL    HW234342   1.241   0.823   0.941  1.0242  1.7364  0.3125
 8644SOL    HW334343   1.364   0.764   1.008 -0.2506 -1.8218 -0.2910
 8644SOL    MW434344   1.283   0.755   0.975 -0.0643  0.3744 -0.0959
 8645SOL     OW34345   3.937   3.411   1.231  0.2371 -0.6812  0.2915
 8645SOL    HW234346   3.870   3.458   1.182 -1.1021 -1.1048  1.6384
 8645SOL    HW334347   3.978   3.352   1.167  0.0954  0.3663 -0.7898
 8645SOL    MW434348   3.934   3.409   1.216 -0.5149 -0.5481  0.5335
 8646SOL     OW34349   2.302   5.509   0.323 -0.1567  0.1531 -0.4688
 8646SOL    HW234350   2.259   5.584   0.362 -0.1731 -0.5052  0.8494
 8646SOL    HW334351   2.281   5.514   0.230 -1.2239  1.0551 -0.1944
 8646SOL    MW434352   2.294   5.519   0.316 -0.4413 -0.3654 -0.2293
 8647SOL     OW34353   3.093   5.895   0.449  0.5438  0.1963 -0.0297
 8647SOL    HW234354   3.079   5.984   0.416 -2.4515 -0.3431 -0.4915
 8647SOL    HW334355   3.043   5.891   0.530  0.4899 -1.1106 -0.1071
 8647SOL    MW434356   3.085   5.907   0.455  0.0563  0.0398 -0.1864
 8648SOL     OW34357   0.265   0.593   2.279  0.1165 -0.1713  0.2986
 8648SOL    HW234358   0.249   0.501   2.257  2.2554 -0.5461  0.0978
 8648SOL    HW334359   0.329   0.590   2.350 -2.2861  1.1641  2.7336
 8648SOL    MW434360   0.271   0.580   2.285 -0.1287  0.2269 -0.6304
 8649SOL     OW34361   3.427   0.560   2.752  0.5281 -0.0794  0.2475
 8649SOL    HW234362   3.497   0.494   2.750  0.1345 -0.5116  0.7752
 8649SOL    HW334363   3.354   0.518   2.707 -0.1876 -0.5391  1.7942
 8649SOL    MW434364   3.427   0.546   2.745 -0.6256  0.5634  0.4540
 8650SOL     OW34365   5.845   2.812   6.163  0.2634  0.3824 -0.4138
 8650SOL    HW234366   5.875   2.818   6.253 -1.4858  0.6376  0.1993
 8650SOL    HW334367   5.836   2.903   6.134  1.0840  0.3019 -0.9581
 8650SOL    MW434368   5.848   2.825   6.171 -0.3121 -0.0210  0.3562
 8651SOL     OW34369   0.556   3.618   0.134  0.0361  0.0680  0.3985
 8651SOL    HW234370   0.518   3.604   0.048  0.3941  0.2155  0.2110
 8651SOL    HW334371   0.560   3.531   0.173 -0.2505  0.0193  0.3182
 8651SOL    MW434372   0.552   3.605   0.128 -0.2800 -0.6182  0.6180
 8652SOL     OW34373   5.320   4.183   5.141 -0.1903 -0.7383  0.2260
 8652SOL    HW234374   5.394   4.186   5.080  1.4763 -0.5941  2.1513
 8652SOL    HW334375   5.317   4.092   5.170  0.1510 -0.4372  1.2191
 8652SOL    MW434376   5.329   4.172   5.136  0.0935 -1.0461  0.2280
 8653SOL     OW34377   5.190   6.238   3.691 -0.0395 -0.2669  0.2235
 8653SOL    HW234378   5.215   6.172   3.626 -0.2144  1.0772 -1.2595
 8653SOL    HW334379   5.097   6.255   3.673  0.1602  0.8315  0.1587
 8653SOL    MW434380   5.181   6.232   3.680 -0.3146 -0.1568 -0.2841
 8654SOL     OW34381   1.883   0.981   1.093  0.0606  0.0078 -1.1483
 8654SOL    HW234382   1.919   1.042   1.029  0.7224  1.8333  0.8277
 8654SOL    HW334383   1.824   1.034   1.146 -0.1786 -1.3332 -0.0045
 8654SOL    MW434384   1.880   0.996   1.091  0.3875  0.2998 -0.4462
 8655SOL     OW34385   0.037   4.719   1.931  0.0925 -0.0019 -0.2555
 8655SOL    HW234386   0.009   4.758   2.013 -0.2858  2.0789 -1.2994
 8655SOL    HW334387   0.093   4.785   1.891 -1.1957 -0.1538 -2.4734
 8655SOL    MW434388   0.041   4.733   1.936 -0.2478  0.0133 -0.1746
 8656SOL     OW34389   6.377   2.456   5.220  0.0774  0.0216  0.4545
 8656SOL    HW234390   6.405   2.369   5.190 -2.1696  0.0224 -1.9571
 8656SOL    HW334391   6.370   2.447   5.315 -0.4241 -2.5498  0.2549
 8656SOL    MW434392   6.380   2.443   5.229 -0.1360  0.5444 -0.5012
 8657SOL     OW34393   2.479   4.200   1.776  0.0303 -0.2005 -0.0880
 8657SOL    HW234394   2.500   4.163   1.862 -1.8076  0.6955  0.8124
 8657SOL    HW334395   2.547   4.266   1.761  0.3720 -0.3628  0.6871
 8657SOL    MW434396   2.491   4.204   1.785  0.3606 -0.3908 -0.5841
 8658SOL     OW34397   4.620   3.247   4.460 -0.1894  0.5200 -0.0162
 8658SOL    HW234398   4.639   3.221   4.550 -0.5040  1.0889  0.2208
 8658SOL    HW334399   4.585   3.167   4.419 -1.2741  0.5806  0.7379
 8658SOL    MW434400   4.618   3.233   4.467 -0.2754  0.9023  0.0520
 8659SOL     OW34401   4.871   3.946   5.742  0.2187 -0.1751  0.0138
 8659SOL    HW234402   4.883   3.870   5.686  0.3183 -1.3775  1.5959
 8659SOL    HW334403   4.784   3.978   5.721  0.0952 -0.8549 -0.5365
 8659SOL    MW434404   4.861   3.940   5.732 -0.1728  0.2143 -0.4109
 8660SOL     OW34405   1.192   2.238   4.144  0.1315 -0.4385 -0.0853
 8660SOL    HW234406   1.159   2.200   4.225  0.1269 -1.9015 -0.7308
 8660SOL    HW334407   1.227   2.163   4.095  1.2999  0.5840 -0.8874
 8660SOL    MW434408   1.192   2.223   4.148 -0.4813  0.4140 -0.2014
 8661SOL     OW34409   2.016   4.403   1.459 -0.0759 -0.3549  0.1384
 8661SOL    HW234410   1.921   4.392   1.471  0.1423 -0.5978  1.8676
 8661SOL    HW334411   2.051   4.408   1.548  1.9229 -3.6120 -0.3214
 8661SOL    MW434412   2.008   4.402   1.473  0.0764  0.3493  0.6372
 8662SOL     OW34413   0.680   4.316   6.066 -0.9863 -0.0453  0.3458
 8662SOL    HW234414   0.593   4.321   6.026 -0.0045 -0.4033 -2.0451
 8662SOL    HW334415   0.729   4.256   6.010  0.7546 -0.0203  1.7374
 8662SOL    MW434416   0.675   4.309   6.053  0.1181  0.2566  0.4734
 8663SOL     OW34417   5.328   0.408   0.076  0.4023  0.1636 -0.5601
 8663SOL    HW234418   5.290   0.485   0.034 -1.0798 -0.6569 -0.8071
 8663SOL    HW334419   5.260   0.340   0.068  2.3383 -1.7481 -2.0299
 8663SOL    MW434420   5.314   0.409   0.070 -0.3885 -0.1860  0.4354
 8664SOL     OW34421   2.817   3.976   5.371 -0.0424 -1.2887 -0.6246
 8664SOL    HW234422   2.860   4.054   5.406  0.4510 -1.6021 -0.5327
 8664SOL    HW334423   2.741   3.963   5.428 -2.1080  1.0631 -2.5527
 8664SOL    MW434424   2.813   3.985   5.383 -0.1574 -0.1902  0.4378
 8665SOL     OW34425   5.982   3.338   6.022 -0.5501 -0.1001  0.0741
 8665SOL    HW234426   5.953   3.356   6.112 -0.3322  0.0639  0.1126
 8665SOL    HW334427   6.077   3.333   6.029 -0.3298  2.0311 -0.4963
 8665SOL    MW434428   5.991   3.340   6.035 -0.1923  0.1692  0.0111
 8666SOL     OW34429   4.189   2.819   3.028  0.1330  0.0018  0.3795
 8666SOL    HW234430   4.255   2.803   2.961 -0.1114 -2.1329  0.5906
 8666SOL    HW334431   4.164   2.911   3.015  0.4363 -0.1996 -2.1244
 8666SOL    MW434432   4.194   2.829   3.018  0.0047  0.8390  0.3028
 8667SOL     OW34433   4.982   6.153   4.032 -0.0115 -0.2430 -0.0766
 8667SOL    HW234434   5.005   6.163   3.940  0.1994  1.0433  0.0876
 8667SOL    HW334435   4.945   6.065   4.039 -0.7539 -0.0748 -1.5420
 8667SOL    MW434436   4.980   6.143   4.021  0.1822  0.0171  0.0251
 8668SOL     OW34437   5.228   4.081   5.994  0.0910 -0.2606  0.4611
 8668SOL    HW234438   5.250   4.060   6.085 -0.3111 -2.6262  0.0844
 8668SOL    HW334439   5.203   3.997   5.956 -2.7305  1.1143 -1.0451
 8668SOL    MW434440   5.228   4.067   6.001  0.2548 -0.2817 -0.1210
 8669SOL     OW34441   4.414   5.726   1.490 -0.1339 -0.4837  0.0027
 8669SOL    HW234442   4.336   5.683   1.454  0.9775 -3.0512  0.4300
 8669SOL    HW334443   4.476   5.725   1.417  0.0544  0.0618  0.1539
 8669SOL    MW434444   4.412   5.720   1.475 -0.0113  0.5133  0.1194
 8670SOL     OW34445   4.650   2.653   2.167  0.3033 -0.1477  0.3579
 8670SOL    HW234446   4.634   2.560   2.152  1.2549 -0.1608 -0.6946
 8670SOL    HW334447   4.608   2.671   2.251  0.1314 -1.5292  0.5918
 8670SOL    MW434448   4.642   2.643   2.176 -0.1407  0.4262  0.2052
 8671SOL     OW34449   5.779   5.756   4.713  0.0730  0.1459  0.2604
 8671SOL    HW234450   5.742   5.697   4.778  3.4122 -2.5624  0.0114
 8671SOL    HW334451   5.830   5.819   4.764 -0.6823  0.6804  0.3762
 8671SOL    MW434452   5.781   5.756   4.728  0.3569  0.1217 -0.4724
 8672SOL     OW34453   5.666   1.911   6.114 -0.2280  0.1620  0.2141
 8672SOL    HW234454   5.721   1.988   6.127  0.0867 -0.1032  0.4531
 8672SOL    HW334455   5.725   1.845   6.079 -0.7440  0.3975 -1.1610
 8672SOL    MW434456   5.681   1.913   6.111  0.2554 -0.2922  0.4878
 8673SOL     OW34457   6.384   0.445   0.347 -0.0249  0.7453 -0.1171
 8673SOL    HW234458   6.448   0.498   0.300  0.4403 -0.4666 -0.8996
 8673SOL    HW334459   6.432   0.413   0.424  0.2132  0.1361 -0.5111
 8673SOL    MW434460   6.399   0.448   0.351 -0.5447 -0.2364  0.0491
 8674SOL     OW34461   3.407   4.481   5.544  0.2575 -0.0856 -0.2528
 8674SOL    HW234462   3.432   4.524   5.626  0.5379  0.8613 -0.8200
 8674SOL    HW334463   3.371   4.551   5.490 -1.1647 -0.9404 -0.4708
 8674SOL    MW434464   3.406   4.496   5.548 -0.0642  0.1189  1.1589
 8675SOL     OW34465   6.162   4.225   5.689 -0.0816 -0.1793 -0.6835
 8675SOL    HW234466   6.138   4.133   5.704  0.0167 -0.1988 -0.6470
 8675SOL    HW334467   6.102   4.254   5.620 -1.1271  0.1608  0.3408
 8675SOL    MW434468   6.151   4.216   5.682  0.5088  0.3138  0.1403
 8676SOL     OW34469   4.434   6.204   4.571 -0.0774  0.1366 -0.1403
 8676SOL    HW234470   4.405   6.240   4.655 -1.5696 -1.2767 -0.0009
 8676SOL    HW334471   4.487   6.274   4.532  1.3104  0.5462  2.2872
 8676SOL    MW434472   4.437   6.218   4.577 -0.2778 -0.0371  0.2757
 8677SOL     OW34473   0.886   0.054   3.603 -0.1486 -0.1338  0.6566
 8677SOL    HW234474   0.904  -0.039   3.594  0.8907  0.0651  0.5470
 8677SOL    HW334475   0.797   0.058   3.637 -0.0010 -1.1817  1.2127
 8677SOL    MW434476   0.877   0.042   3.606  0.6963  0.7341 -0.0906
 8678SOL     OW34477   0.990   5.856   4.176 -0.3359  0.2455 -0.5913
 8678SOL    HW234478   0.977   5.875   4.083  0.6816 -1.3669 -1.1125
 8678SOL    HW334479   0.946   5.772   4.189 -0.1395  0.2743  0.2906
 8678SOL    MW434480   0.982   5.847   4.165  0.0946  0.0367 -0.2321
 8679SOL     OW34481   5.982   3.142   1.915  0.2984 -0.2856 -0.5721
 8679SOL    HW234482   6.010   3.165   1.826 -0.8491 -2.6312 -1.6323
 8679SOL    HW334483   6.063   3.118   1.960  1.0731  2.2411 -0.4729
 8679SOL    MW434484   5.997   3.142   1.909 -0.1849 -0.1351  0.7663
 8680SOL     OW34485   6.097   2.981   6.182 -0.5454 -0.0639 -0.0360
 8680SOL    HW234486   6.014   3.013   6.218 -0.8609 -1.7295  0.8517
 8680SOL    HW334487   6.076   2.957   6.092 -0.8341  0.2309 -0.0497
 8680SOL    MW434488   6.083   2.982   6.175  0.4891  0.2501  0.2530
 8681SOL     OW34489   0.386   6.276   4.632  0.5903  0.0222 -0.7070
 8681SOL    HW234490   0.336   6.222   4.571  0.3534  0.1636 -0.6387
 8681SOL    HW334491   0.449   6.216   4.672 -1.5798 -0.9015  1.5525
 8681SOL    MW434492   0.388   6.261   4.629 -0.2835 -0.3272 -0.0855
 8682SOL     OW34493   1.492   3.073   1.932  0.4161  0.2495  0.3581
 8682SOL    HW234494   1.511   3.087   2.024  0.8785  2.3705 -0.0183
 8682SOL    HW334495   1.565   3.115   1.885 -1.0171  1.3480 -0.9941
 8682SOL    MW434496   1.504   3.080   1.938  0.7328  0.1297 -0.2741
 8683SOL     OW34497   2.406   5.053   2.021  0.3033 -0.5985  0.6043
 8683SOL    HW234498   2.400   5.142   2.054 -1.7555 -0.8707  1.1409
 8683SOL    HW334499   2.419   5.063   1.927 -2.2699  0.3828  0.2625
 8683SOL    MW434500   2.407   5.066   2.013  0.0103  0.3638 -0.4592
 8684SOL     OW34501   5.974   1.023   6.413  0.5823  0.4588  0.7833
 8684SOL    HW234502   5.940   0.943   6.371 -0.5173  1.5899 -0.5799
 8684SOL    HW334503   6.069   1.015   6.405  0.4526 -0.1984 -0.3528
 8684SOL    MW434504   5.982   1.011   6.406  0.9050 -0.2197 -0.2791
 8685SOL     OW34505   2.819   1.363   6.322  0.1190  0.2845  0.0071
 8685SOL    HW234506   2.864   1.309   6.256 -1.1691 -0.6842 -0.1154
 8685SOL    HW334507   2.865   1.343   6.404 -0.1024 -0.7549 -0.0994
 8685SOL    MW434508   2.831   1.353   6.324 -0.5793  0.2794 -0.2553
 8686SOL     OW34509   0.941   4.993   1.835  0.0365  0.0011  0.1109
 8686SOL    HW234510   0.855   5.017   1.803 -0.3333 -0.7376  0.5169
 8686SOL    HW334511   0.959   5.054   1.907 -0.6113 -0.5066  0.7161
 8686SOL    MW434512   0.932   5.004   1.841 -0.2162  0.0645 -0.3585
 8687SOL     OW34513   2.956   6.324   5.092  0.3484 -0.1569  0.0929
 8687SOL    HW234514   2.936   6.403   5.142 -1.5263 -0.2776 -0.4173
 8687SOL    HW334515   2.982   6.357   5.005  2.2368 -0.0159  0.6673
 8687SOL    MW434516   2.957   6.339   5.087  0.2311  0.4090 -0.1237
 8688SOL     OW34517   4.468   1.948   4.338 -0.3876 -0.4144 -0.1348
 8688SOL    HW234518   4.557   1.934   4.370 -0.1492 -0.5321 -0.8422
 8688SOL    HW334519   4.415   1.886   4.389 -0.1868  0.1417  0.7906
 8688SOL    MW434520   4.473   1.938   4.349 -0.1809  0.6207  0.1537
 8689SOL     OW34521   2.035   4.225   5.246 -0.0236 -0.3939  0.3878
 8689SOL    HW234522   2.038   4.257   5.156 -0.4762  0.8596  0.7921
 8689SOL    HW334523   2.120   4.183   5.259  0.4431  0.2998 -0.3106
 8689SOL    MW434524   2.047   4.224   5.236  0.0536 -0.1542  0.3573
 8690SOL     OW34525   6.216   6.028   4.051 -0.3660 -0.1457  0.0384
 8690SOL    HW234526   6.302   5.988   4.068 -0.2702  0.2439  0.4654
 8690SOL    HW334527   6.229   6.121   4.066  0.0423  0.4728 -3.2415
 8690SOL    MW434528   6.229   6.035   4.055  0.0708 -0.3591 -0.6384
 8691SOL     OW34529   5.721   3.865   4.593 -0.3867 -0.0809 -0.1714
 8691SOL    HW234530   5.640   3.891   4.636  0.6938  0.8467  1.3777
 8691SOL    HW334531   5.786   3.931   4.619  1.5554 -2.2587  0.9284
 8691SOL    MW434532   5.719   3.877   4.602 -1.1838 -0.3943  0.4823
 8692SOL     OW34533   6.044   4.314   0.636 -0.1187  0.0516 -0.1930
 8692SOL    HW234534   5.976   4.250   0.655  1.6956 -1.9807 -0.2918
 8692SOL    HW334535   6.099   4.315   0.714 -0.2980  1.8471 -0.0229
 8692SOL    MW434536   6.042   4.306   0.649  0.4100 -0.4675 -0.7379
 8693SOL     OW34537   2.939   5.669   1.076 -0.4002  0.4689 -0.1047
 8693SOL    HW234538   2.959   5.725   1.151  2.0011  0.5549 -0.7221
 8693SOL    HW334539   2.892   5.726   1.015  0.1004  1.2043  0.1843
 8693SOL    MW434540   2.936   5.684   1.078 -0.1165  0.4287 -0.2144
 8694SOL     OW34541   4.632   0.161   2.066 -0.0180 -0.1340  0.2585
 8694SOL    HW234542   4.581   0.215   2.005  1.8184  2.1359  0.5992
 8694SOL    HW334543   4.611   0.071   2.042 -2.5798  0.6872 -0.9222
 8694SOL    MW434544   4.622   0.156   2.055  0.4739  0.2542  0.2495
 8695SOL     OW34545   5.176   4.124   4.864  0.0558 -0.2830 -0.3048
 8695SOL    HW234546   5.243   4.129   4.796 -0.3202  0.1532 -0.6488
 8695SOL    HW334547   5.204   4.189   4.929  0.2973 -0.5455 -0.1418
 8695SOL    MW434548   5.189   4.134   4.864  0.3755 -0.4828 -0.0368
 8696SOL     OW34549   1.683   4.134   5.225 -0.1527 -0.2172  0.2572
 8696SOL    HW234550   1.668   4.189   5.302  1.5102 -0.7574  1.0086
 8696SOL    HW334551   1.772   4.153   5.198 -0.6051 -0.2614 -1.3825
 8696SOL    MW434552   1.693   4.143   5.231 -0.4324  0.3581  0.4427
 8697SOL     OW34553   2.094   6.059   6.187  0.1963 -0.1046  0.0237
 8697SOL    HW234554   2.142   6.089   6.110  1.0081 -1.2682  0.0582
 8697SOL    HW334555   2.063   5.971   6.164 -4.3107  1.4846 -1.0617
 8697SOL    MW434556   2.096   6.051   6.174 -0.0915 -0.1080  0.5730
 8698SOL     OW34557   0.266   4.079   6.125  0.3461  0.2631  0.5080
 8698SOL    HW234558   0.196   4.057   6.186  0.0068  1.6298  0.6524
 8698SOL    HW334559   0.220   4.111   6.047  0.7828 -0.9911 -0.2913
 8698SOL    MW434560   0.250   4.081   6.123  0.4209  0.1734  0.7741
 8699SOL     OW34561   1.863   2.536   4.553 -1.0656  0.4236 -0.5250
 8699SOL    HW234562   1.917   2.614   4.566  0.3730 -0.7091  0.6890
 8699SOL    HW334563   1.901   2.492   4.477 -0.8533  0.0957 -0.2321
 8699SOL    MW434564   1.875   2.540   4.545  0.1349  0.2900  0.1973
 8700SOL     OW34565   3.605   0.441   1.258 -0.4754 -0.7356  0.1840
 8700SOL    HW234566   3.687   0.436   1.210 -0.3725  0.6029  0.1781
 8700SOL    HW334567   3.602   0.360   1.310  0.2398 -1.3755 -0.7355
 8700SOL    MW434568   3.615   0.430   1.258 -0.3870  0.3961 -0.1410
 8701SOL     OW34569   0.659   3.439   6.175  0.2932  0.4191  0.3531
 8701SOL    HW234570   0.746   3.453   6.139  0.1612  2.4712  0.7063
 8701SOL    HW334571   0.626   3.527   6.193 -1.7144 -0.3202  0.5655
 8701SOL    MW434572   0.666   3.452   6.173  0.0034  0.7697  0.0327
 8702SOL     OW34573   1.520   1.936   1.422 -0.0084  0.1456 -0.4736
 8702SOL    HW234574   1.463   2.011   1.410 -0.8411 -0.1438  1.3506
 8702SOL    HW334575   1.608   1.973   1.431 -0.4135  0.9353  0.4241
 8702SOL    MW434576   1.524   1.951   1.422  0.0917 -0.0348  0.1301
 8703SOL     OW34577   0.602   2.773   0.302 -0.3507  0.1360  0.1778
 8703SOL    HW234578   0.551   2.725   0.237  0.3078 -2.8686  1.7153
 8703SOL    HW334579   0.692   2.771   0.269 -0.3650  0.6706  0.0898
 8703SOL    MW434580   0.607   2.767   0.289  0.4082 -0.0252 -0.4857
 8704SOL     OW34581   1.043   0.946   0.924  0.5824 -0.2670  0.0025
 8704SOL    HW234582   1.023   0.929   0.832 -0.5544  1.0722 -0.0314
 8704SOL    HW334583   0.982   0.891   0.972 -0.1426  0.4602 -0.0713
 8704SOL    MW434584   1.033   0.937   0.918  0.6920  1.1998  0.2593
 8705SOL     OW34585   0.274   5.380   5.570  0.2906  0.5349  0.4507
 8705SOL    HW234586   0.252   5.356   5.660  1.6877 -0.2511  0.6046
 8705SOL    HW334587   0.247   5.305   5.518  0.5415  0.5104  0.3561
 8705SOL    MW434588   0.267   5.367   5.575  0.4369 -0.1809 -0.0670
 8706SOL     OW34589   0.043   1.406   5.310 -0.8579 -0.3281 -0.5388
 8706SOL    HW234590   0.021   1.484   5.360  0.7201  0.5898 -1.2157
 8706SOL    HW334591   0.033   1.432   5.219 -0.1042 -0.8396 -0.7744
 8706SOL    MW434592   0.039   1.419   5.305 -0.1100 -0.5539 -0.0845
 8707SOL     OW34593   3.179   0.213   1.119 -0.0874 -0.2936  0.2995
 8707SOL    HW234594   3.155   0.241   1.208  1.1561  0.8240  0.3248
 8707SOL    HW334595   3.141   0.126   1.110 -1.4035  0.1348  1.4243
 8707SOL    MW434596   3.171   0.205   1.130 -0.0040 -0.4797 -0.2734
 8708SOL     OW34597   6.333   3.360   5.401  0.9046 -0.3157 -0.0508
 8708SOL    HW234598   6.379   3.287   5.358  0.4817 -1.4695  1.3699
 8708SOL    HW334599   6.308   3.418   5.329  1.8252 -1.2392 -1.1635
 8708SOL    MW434600   6.336   3.358   5.385 -0.4514 -0.4191 -0.2591
 8709SOL     OW34601   2.952   4.244   5.502 -0.9182 -0.2822  0.1683
 8709SOL    HW234602   3.035   4.257   5.548  0.2412  2.7238 -2.3908
 8709SOL    HW334603   2.885   4.262   5.568  0.5473  0.5353  1.5043
 8709SOL    MW434604   2.954   4.248   5.517  0.7196 -0.4121 -0.1175
 8710SOL     OW34605   5.935   0.682   0.037 -0.0648 -0.1427  0.4825
 8710SOL    HW234606   5.876   0.721   0.101  0.5248  2.7216 -0.5942
 8710SOL    HW334607   5.900   0.709  -0.048  1.2549 -0.6899 -0.2672
 8710SOL    MW434608   5.922   0.691   0.034 -0.3973  0.4053 -0.4176
 8711SOL     OW34609   1.233   4.773   5.245 -0.2345 -0.3752 -0.7737
 8711SOL    HW234610   1.156   4.829   5.246 -0.0394 -0.1097  0.0079
 8711SOL    HW334611   1.306   4.832   5.225  0.2554  0.0842  1.9131
 8711SOL    MW434612   1.233   4.788   5.243 -0.5501 -1.0294  0.2687
 8712SOL     OW34613   2.528   5.899   2.319  0.1335 -0.2762  0.8484
 8712SOL    HW234614   2.609   5.922   2.274 -0.0066  0.5508  1.0095
 8712SOL    HW334615   2.466   5.967   2.293 -0.4193 -0.7204  0.9844
 8712SOL    MW434616   2.530   5.911   2.309 -0.1267 -0.9516  0.2841
 8713SOL     OW34617   4.856   1.314   4.780 -0.1921 -0.1336 -0.4623
 8713SOL    HW234618   4.927   1.369   4.748  0.4119 -1.1956 -0.9966
 8713SOL    HW334619   4.875   1.300   4.872 -0.6361  0.9724 -0.1946
 8713SOL    MW434620   4.868   1.319   4.788  0.0520  0.3171  0.3064
 8714SOL     OW34621   6.054   0.013   3.708 -0.0800 -0.2601 -0.4117
 8714SOL    HW234622   6.035   0.066   3.786 -0.5733 -0.3148 -0.4921
 8714SOL    HW334623   5.984  -0.053   3.706 -0.2334 -0.0887 -1.0540
 8714SOL    MW434624   6.042   0.011   3.718  0.2373  0.1192 -0.3529
 8715SOL     OW34625   4.797   2.968   4.194  0.5503 -0.2179 -0.2081
 8715SOL    HW234626   4.839   2.896   4.147  0.6999 -0.1845 -0.1271
 8715SOL    HW334627   4.789   2.936   4.284  1.9018  0.3999  0.1490
 8715SOL    MW434628   4.801   2.954   4.200  0.6386  0.1154  0.5343
 8716SOL     OW34629   1.826   3.684   1.355 -0.2860 -0.9207 -0.5312
 8716SOL    HW234630   1.790   3.695   1.443  1.1970 -0.2613  0.0183
 8716SOL    HW334631   1.920   3.680   1.368  0.1197  1.1011 -2.2396
 8716SOL    MW434632   1.833   3.685   1.369 -0.5624 -0.5222  0.3882
 8717SOL     OW34633   1.929   2.722   5.943  0.0621  0.1353  0.5544
 8717SOL    HW234634   1.928   2.695   6.035 -0.9595 -0.4683  0.3786
 8717SOL    HW334635   2.008   2.682   5.907 -0.4773 -1.1298  0.7378
 8717SOL    MW434636   1.939   2.713   5.950  0.1733 -0.2300 -0.2947
 8718SOL     OW34637   3.935   1.524   6.335 -0.0625 -0.3209 -0.5010
 8718SOL    HW234638   4.028   1.542   6.350 -0.1617 -1.0564  1.2432
 8718SOL    HW334639   3.902   1.603   6.293  0.7800  1.1128  1.3946
 8718SOL    MW434640   3.943   1.537   6.331 -0.5739 -0.0993  0.1556
 8719SOL     OW34641   1.774   2.559   0.952 -0.0472  0.5511  0.1795
 8719SOL    HW234642   1.864   2.537   0.975 -0.0560 -1.2742 -1.3086
 8719SOL    HW334643   1.767   2.653   0.969  2.8435  1.2686 -1.9026
 8719SOL    MW434644   1.785   2.569   0.957 -0.5240 -0.2691  0.2194
 8720SOL     OW34645   0.241   5.676   5.475  0.4135  0.2471 -0.3263
 8720SOL    HW234646   0.242   5.581   5.488  0.0908  0.2722 -0.1028
 8720SOL    HW334647   0.154   5.694   5.438  1.0825  0.2541 -1.9354
 8720SOL    MW434648   0.229   5.666   5.472  0.0499  0.4507 -0.3217
 8721SOL     OW34649   3.892   0.907   3.381 -0.0441 -0.0666 -0.2499
 8721SOL    HW234650   3.807   0.916   3.337 -0.7507  0.4990  1.1487
 8721SOL    HW334651   3.905   0.991   3.424  1.1255 -0.2357 -0.2484
 8721SOL    MW434652   3.882   0.919   3.381  0.1130 -0.0255  0.2144
 8722SOL     OW34653   1.587   2.729   2.981 -0.5496 -0.1852  0.0856
 8722SOL    HW234654   1.611   2.777   2.901  0.6343  1.1302  1.1755
 8722SOL    HW334655   1.662   2.741   3.039 -2.2594  0.7924  2.2317
 8722SOL    MW434656   1.600   2.737   2.978 -0.2683  0.7532  0.0075
 8723SOL     OW34657   4.663   4.032   0.804  0.2287 -0.6494 -0.0157
 8723SOL    HW234658   4.651   3.993   0.717 -1.8839 -1.9645  0.7667
 8723SOL    HW334659   4.683   4.124   0.788 -0.4602 -0.7961 -1.8985
 8723SOL    MW434660   4.664   4.039   0.791  0.4114 -0.7095  0.6117
 8724SOL     OW34661   1.643   5.146   5.192  0.3260  0.3648  0.2301
 8724SOL    HW234662   1.715   5.115   5.247  1.0809 -0.9121 -1.3969
 8724SOL    HW334663   1.686   5.177   5.112 -0.8453  0.7619 -0.2602
 8724SOL    MW434664   1.658   5.146   5.189 -0.1074  0.3856  0.2357
 8725SOL     OW34665   1.634   5.254   4.532 -0.4116  0.0545  0.1151
 8725SOL    HW234666   1.702   5.236   4.596  0.3437 -0.2945 -0.7664
 8725SOL    HW334667   1.667   5.329   4.482 -1.2526  0.6929  0.4840
 8725SOL    MW434668   1.647   5.262   4.534 -0.4441  0.0680  0.1557
 8726SOL     OW34669   2.457   4.275   3.348 -0.6058 -0.4683 -0.3627
 8726SOL    HW234670   2.426   4.296   3.261 -0.5355 -1.2896 -0.6019
 8726SOL    HW334671   2.429   4.184   3.362  0.9232 -0.9453 -0.2465
 8726SOL    MW434672   2.449   4.265   3.339 -0.3020  0.2475 -0.7159
 8727SOL     OW34673   4.859   1.540   0.643 -0.4634 -0.4788  0.2340
 8727SOL    HW234674   4.941   1.563   0.687  1.5207  0.3379 -3.4581
 8727SOL    HW334675   4.868   1.447   0.625 -0.2126 -0.3490 -0.3407
 8727SOL    MW434676   4.871   1.531   0.646 -0.0913  0.0550  0.9604
 8728SOL     OW34677   4.790   5.569   3.735  0.1758  0.4487  0.3297
 8728SOL    HW234678   4.882   5.541   3.734 -0.6665 -2.6920  0.6596
 8728SOL    HW334679   4.744   5.499   3.783 -2.6023  1.1868 -1.0515
 8728SOL    MW434680   4.796   5.556   3.741 -0.0171  0.0529  0.1011
 8729SOL     OW34681   5.669   0.122   1.370 -0.3796 -0.7686  0.0862
 8729SOL    HW234682   5.576   0.103   1.381 -0.7361  0.2169 -0.9901
 8729SOL    HW334683   5.689   0.186   1.438 -0.3650 -1.3557  0.6335
 8729SOL    MW434684   5.659   0.128   1.380  0.0349  0.1239  0.2011
 8730SOL     OW34685   5.716   1.870   3.238 -0.0865 -0.0433 -0.6062
 8730SOL    HW234686   5.721   1.782   3.277  0.5674 -0.0052 -0.5981
 8730SOL    HW334687   5.780   1.868   3.167  1.2448  0.9926  0.5185
 8730SOL    MW434688   5.725   1.858   3.234 -0.2647  0.7739 -0.2411
 8731SOL     OW34689   5.750   6.185   1.264 -0.1200 -0.3058  0.0460
 8731SOL    HW234690   5.729   6.103   1.308  0.9642 -0.1875  0.8413
 8731SOL    HW334691   5.730   6.252   1.330  2.3594 -0.1762  0.7512
 8731SOL    MW434692   5.744   6.183   1.279  0.4325  0.3878 -0.1834
 8732SOL     OW34693   2.198   2.890   2.229 -0.2703 -0.6618  0.3927
 8732SOL    HW234694   2.277   2.837   2.222  0.0925  0.0435 -1.1625
 8732SOL    HW334695   2.150   2.853   2.304  0.8299 -2.0004  0.4526
 8732SOL    MW434696   2.202   2.878   2.238 -0.4884  0.1259  0.6352
 8733SOL     OW34697   2.164   6.365   5.961  0.2200 -0.1696  0.0795
 8733SOL    HW234698   2.210   6.330   6.038 -0.7425 -0.0075  0.7529
 8733SOL    HW334699   2.131   6.287   5.916  1.0506 -0.2805 -0.3492
 8733SOL    MW434700   2.166   6.350   5.965 -0.0803  0.0243 -0.5564
 8734SOL     OW34701   1.138   2.253   1.136  0.0966  0.1106  0.3620
 8734SOL    HW234702   1.202   2.243   1.207  0.3953  2.2830  0.4603
 8734SOL    HW334703   1.055   2.270   1.181  0.4066  2.1547  0.2622
 8734SOL    MW434704   1.135   2.254   1.152  0.7840 -0.2063 -0.0421
 8735SOL     OW34705   2.942   0.757   1.130 -0.3008 -0.8743  0.5733
 8735SOL    HW234706   3.031   0.792   1.125 -0.7065  0.9642  3.7423
 8735SOL    HW334707   2.889   0.820   1.082 -0.0983 -1.1963 -0.0840
 8735SOL    MW434708   2.947   0.770   1.123 -0.6682  0.0690 -0.7546
 8736SOL     OW34709   3.577   0.742   5.140 -0.5036  0.2891 -0.5171
 8736SOL    HW234710   3.492   0.783   5.122 -1.3570 -1.0514  0.2267
 8736SOL    HW334711   3.577   0.729   5.235  0.0875 -0.6420 -0.6300
 8736SOL    MW434712   3.566   0.746   5.150 -0.3107  0.2004  0.2252
 8737SOL     OW34713   3.807   1.327   1.483 -0.0563  0.4315 -0.3931
 8737SOL    HW234714   3.740   1.395   1.491 -0.1739  0.2555  0.1646
 8737SOL    HW334715   3.762   1.254   1.442 -0.6662 -0.2804  1.4436
 8737SOL    MW434716   3.792   1.327   1.478  0.4343  0.6140 -0.4811
 8738SOL     OW34717   2.133   3.703   3.409 -0.0941 -0.2978 -0.5987
 8738SOL    HW234718   2.069   3.649   3.364  0.4666 -1.0391 -0.5213
 8738SOL    HW334719   2.105   3.793   3.392 -0.3792 -0.5830 -1.7095
 8738SOL    MW434720   2.121   3.708   3.401 -0.3995 -0.2880 -0.1390
 8739SOL     OW34721   3.558   1.804   5.440  0.8996 -0.2584 -0.5135
 8739SOL    HW234722   3.631   1.862   5.461  0.2959 -0.1532  1.5399
 8739SOL    HW334723   3.583   1.719   5.475 -0.2675 -0.0251  0.9823
 8739SOL    MW434724   3.571   1.800   5.447 -0.2577  0.6502  0.0571
 8740SOL     OW34725   2.508   3.699   3.207  0.3355  0.8934  0.1670
 8740SOL    HW234726   2.604   3.692   3.208  0.2866  0.0121 -0.2327
 8740SOL    HW334727   2.477   3.612   3.233 -0.3390  0.5415 -1.6255
 8740SOL    MW434728   2.517   3.687   3.210  0.4322  0.2770  0.2555
 8741SOL     OW34729   2.292   5.295   5.419 -0.1001  0.4146 -0.1345
 8741SOL    HW234730   2.250   5.244   5.488  0.8676  0.3900  0.4599
 8741SOL    HW334731   2.371   5.245   5.397 -0.4154  0.4009 -1.3034
 8741SOL    MW434732   2.297   5.282   5.425  0.2478  0.1078  0.5192
 8742SOL     OW34733   4.121   1.948   1.610 -0.2043  0.1391 -0.4166
 8742SOL    HW234734   4.165   1.863   1.601 -0.9816 -0.1427 -1.8331
 8742SOL    HW334735   4.128   1.968   1.704  0.4220 -1.2519 -0.1291
 8742SOL    MW434736   4.128   1.939   1.621  0.5866 -0.0181 -0.6843
 8743SOL     OW34737   6.081   0.233   5.413  0.0392 -0.5363  0.2139
 8743SOL    HW234738   6.080   0.324   5.382 -2.1645 -1.2100 -1.9528
 8743SOL    HW334739   6.026   0.235   5.491 -1.3822 -0.2516 -0.7631
 8743SOL    MW434740   6.074   0.245   5.420 -0.0828 -0.1209  0.0710
 8744SOL     OW34741   4.428   4.677   3.817  0.2888  0.3964 -0.0699
 8744SOL    HW234742   4.431   4.772   3.821  0.6386  0.3399  2.0387
 8744SOL    HW334743   4.338   4.655   3.839  0.7493  0.2264  1.8683
 8744SOL    MW434744   4.417   4.687   3.821 -0.3263  0.0206 -0.2488
 8745SOL     OW34745   4.840   5.894   6.022  0.1192 -0.1370 -0.4849
 8745SOL    HW234746   4.765   5.939   5.983  0.7482 -1.3506 -3.4146
 8745SOL    HW334747   4.890   5.863   5.946  2.5770 -0.9986  1.3784
 8745SOL    MW434748   4.837   5.896   6.007 -0.1190 -0.5929 -0.0916
 8746SOL     OW34749   3.833   1.796   5.249 -0.2598  0.1119  0.1760
 8746SOL    HW234750   3.866   1.723   5.302 -0.2357  0.4709  0.6622
 8746SOL    HW334751   3.869   1.874   5.290  0.8354  0.3489 -1.1551
 8746SOL    MW434752   3.842   1.797   5.261  0.1208 -0.6817  0.1626
 8747SOL     OW34753   5.362   2.707   3.384  0.1227 -0.1232  0.1333
 8747SOL    HW234754   5.305   2.691   3.459  2.3071 -1.8373  1.5495
 8747SOL    HW334755   5.450   2.686   3.416  1.4742  1.5793 -2.1898
 8747SOL    MW434756   5.366   2.702   3.398 -0.0538 -0.2521  0.0535
 8748SOL     OW34757   2.482   5.067   6.238 -0.0441 -0.7436  0.0555
 8748SOL    HW234758   2.529   5.093   6.318 -0.1337 -1.0419  0.2081
 8748SOL    HW334759   2.400   5.115   6.243  1.5151  2.3880 -1.8552
 8748SOL    MW434760   2.477   5.077   6.249 -0.0896 -0.6429 -0.2199
 8749SOL     OW34761   0.649   5.107   3.403 -0.1069 -0.5773 -0.1940
 8749SOL    HW234762   0.640   5.183   3.345 -0.6650 -1.4263 -1.2307
 8749SOL    HW334763   0.724   5.058   3.368 -0.1406 -0.8417  0.0992
 8749SOL    MW434764   0.658   5.111   3.391 -0.4580 -0.2981 -0.1548
 8750SOL     OW34765   5.511   1.339   1.707 -0.2466  0.0679 -0.2428
 8750SOL    HW234766   5.550   1.426   1.703 -1.8903  0.8573 -0.0007
 8750SOL    HW334767   5.514   1.307   1.617 -0.9591  1.0109 -0.6140
 8750SOL    MW434768   5.517   1.346   1.695 -0.6417 -0.5549 -0.0480
 8751SOL     OW34769   0.363   5.805   3.459  0.0461 -0.3132 -0.1805
 8751SOL    HW234770   0.360   5.801   3.363 -0.3590 -0.7470 -0.1537
 8751SOL    HW334771   0.284   5.855   3.483 -0.1858 -0.7402 -0.0480
 8751SOL    MW434772   0.352   5.811   3.450  0.4299 -0.2726 -0.1422
 8752SOL     OW34773   1.318   5.355   6.122  0.3801  0.5267  0.0690
 8752SOL    HW234774   1.259   5.320   6.054  1.7057 -0.0764 -0.8194
 8752SOL    HW334775   1.269   5.428   6.160 -0.4429  0.8625 -1.5137
 8752SOL    MW434776   1.304   5.360   6.118  0.0258  0.4052  0.0684
 8753SOL     OW34777   2.461   4.907   4.639 -0.3053 -0.1689  0.5459
 8753SOL    HW234778   2.496   4.981   4.688  1.9793 -0.8781  0.1183
 8753SOL    HW334779   2.446   4.942   4.551  0.7333 -0.1665  0.3531
 8753SOL    MW434780   2.464   4.921   4.633 -0.9889 -0.1141  0.0748
 8754SOL     OW34781   6.157   1.072   5.786 -0.1086  0.2628 -0.3708
 8754SOL    HW234782   6.198   0.989   5.808 -1.0347 -0.3932 -1.0138
 8754SOL    HW334783   6.086   1.048   5.726 -1.8859  1.2510  1.2370
 8754SOL    MW434784   6.153   1.058   5.781  0.4100 -0.1249  0.1736
 8755SOL     OW34785   1.609   1.441   2.132  0.0674  0.1268 -0.6775
 8755SOL    HW234786   1.539   1.449   2.068 -0.3712 -0.8625 -0.3391
 8755SOL    HW334787   1.571   1.476   2.213  1.0426  2.6229 -1.1876
 8755SOL    MW434788   1.595   1.447   2.134 -0.0122 -0.6143  0.2290
 8756SOL     OW34789   2.409   0.731   1.202  0.6465 -0.4764 -0.5645
 8756SOL    HW234790   2.393   0.646   1.160  1.9421 -0.6606 -0.7278
 8756SOL    HW334791   2.323   0.772   1.206  0.1985 -1.2339 -1.7223
 8756SOL    MW434792   2.396   0.725   1.197 -0.7310  0.7013 -0.3754
 8757SOL     OW34793   2.565   3.797   3.814 -0.5228 -0.2027  0.1535
 8757SOL    HW234794   2.554   3.796   3.719  0.8925 -0.0541 -0.0379
 8757SOL    HW334795   2.522   3.717   3.844  1.9615 -2.1033 -1.0224
 8757SOL    MW434796   2.558   3.786   3.805  0.0309  0.0022 -0.5864
 8758SOL     OW34797   4.205   4.125   1.467  0.7639  0.2251  0.0743
 8758SOL    HW234798   4.198   4.066   1.542  1.3291 -0.9176 -0.7393
 8758SOL    HW334799   4.117   4.162   1.457 -0.2390 -2.1502 -0.6909
 8758SOL    MW434800   4.193   4.122   1.476 -0.4096 -0.4033  0.1450
 8759SOL     OW34801   4.191   5.866   3.696  0.1362  0.4695 -0.5838
 8759SOL    HW234802   4.185   5.869   3.600 -0.0384  1.0635 -0.5579
 8759SOL    HW334803   4.107   5.831   3.724 -0.2737  1.4273 -0.5946
 8759SOL    MW434804   4.179   5.862   3.687 -0.9507 -0.1477  0.2467
 8760SOL     OW34805   4.089   3.373   3.781  0.2543  0.6423  0.0972
 8760SOL    HW234806   4.131   3.459   3.790 -0.5096  0.9837  0.4891
 8760SOL    HW334807   4.012   3.378   3.838 -0.1636 -0.0699 -0.3950
 8760SOL    MW434808   4.085   3.385   3.790 -0.1981  0.8582  0.2753
 8761SOL     OW34809   1.262   3.872   1.255  0.3649 -0.2416 -0.1298
 8761SOL    HW234810   1.189   3.926   1.227 -0.0567 -0.6568  0.1608
 8761SOL    HW334811   1.247   3.787   1.213  1.1512 -0.0742 -0.7838
 8761SOL    MW434812   1.251   3.868   1.246  0.1383 -0.1385 -0.0337
 8762SOL     OW34813   3.757   3.071   4.399 -0.0821 -0.0296 -0.0620
 8762SOL    HW234814   3.806   3.067   4.316  0.1534 -0.1140  0.0808
 8762SOL    HW334815   3.666   3.058   4.373 -0.0297  0.1265 -0.3306
 8762SOL    MW434816   3.751   3.069   4.384 -0.0124  0.3253  0.2370
 8763SOL     OW34817   5.924   3.363   2.098 -0.4436  0.4349 -1.1315
 8763SOL    HW234818   5.920   3.268   2.113  2.0180  0.5310  0.8130
 8763SOL    HW334819   5.968   3.371   2.013  0.4417 -0.1918 -0.7496
 8763SOL    MW434820   5.929   3.352   2.089 -0.3161 -0.0310  0.0702
 8764SOL     OW34821   4.996   0.795   6.282  0.1183  0.2483 -0.1781
 8764SOL    HW234822   5.067   0.740   6.316 -0.1140 -0.0920 -0.2362
 8764SOL    HW334823   5.032   0.883   6.283  0.0803  0.2696  1.0750
 8764SOL    MW434824   5.010   0.799   6.287  0.2074  0.5597  0.0093
 8765SOL     OW34825   1.671   4.237   2.495 -0.2822  0.4148  0.0289
 8765SOL    HW234826   1.694   4.146   2.515 -0.2383  0.5122  0.4363
 8765SOL    HW334827   1.585   4.232   2.455  0.2195  0.0863 -1.0561
 8765SOL    MW434828   1.663   4.224   2.493  0.1699  0.3185 -0.4583
 8766SOL     OW34829   2.334   2.157   6.229  0.0563 -0.2230 -0.2377
 8766SOL    HW234830   2.380   2.136   6.311 -0.4708 -0.6308 -0.0444
 8766SOL    HW334831   2.403   2.190   6.171  0.3397  0.6340  0.5608
 8766SOL    MW434832   2.349   2.158   6.232 -0.3192 -0.3112 -0.2016
 8767SOL     OW34833   6.206   3.161   5.808 -0.1224 -0.3621  0.8710
 8767SOL    HW234834   6.213   3.230   5.874 -0.4852 -0.5296  1.0867
 8767SOL    HW334835   6.293   3.158   5.768 -0.2786  0.6218  0.4458
 8767SOL    MW434836   6.218   3.170   5.812 -0.2794 -0.1079  0.4976
 8768SOL     OW34837   0.857   3.915   5.863 -0.3899 -0.2794 -0.7730
 8768SOL    HW234838   0.870   4.009   5.873  0.4795 -0.5381  1.0333
 8768SOL    HW334839   0.763   3.904   5.853 -0.4344  0.8263 -1.6903
 8768SOL    MW434840   0.846   3.926   5.863  0.5879 -0.1761  0.5098
 8769SOL     OW34841   6.072   1.526   2.851  0.1993  0.3472  0.2399
 8769SOL    HW234842   6.075   1.430   2.853  0.4111  0.3578  0.6915
 8769SOL    HW334843   6.046   1.548   2.762  3.5605 -0.0279 -0.9461
 8769SOL    MW434844   6.069   1.516   2.840  0.0904  0.8841 -0.4972
 8770SOL     OW34845   0.965   0.112   5.731 -0.0691  0.2443  0.0400
 8770SOL    HW234846   0.874   0.089   5.712  0.3879 -2.1139  0.3884
 8770SOL    HW334847   1.007   0.029   5.753  2.4767  1.0815 -1.2141
 8770SOL    MW434848   0.959   0.098   5.732  0.1792  0.1786  0.0002
 8771SOL     OW34849   6.124   4.462   4.316  0.7381  0.0912 -0.1361
 8771SOL    HW234850   6.091   4.546   4.283 -2.6389 -1.2455 -0.5541
 8771SOL    HW334851   6.097   4.398   4.250  0.1877 -1.7182  1.7380
 8771SOL    MW434852   6.116   4.465   4.303  0.1821  0.2392  0.2655
 8772SOL     OW34853   1.830   6.182   2.350 -0.0076 -0.2824 -0.2512
 8772SOL    HW234854   1.803   6.091   2.335 -0.2238 -0.5250  1.3783
 8772SOL    HW334855   1.839   6.188   2.445 -1.1845  1.7404 -0.2156
 8772SOL    MW434856   1.828   6.171   2.361  0.1247 -0.0871 -0.3789
 8773SOL     OW34857   1.351   5.279   3.831  0.1439  0.6076  0.1047
 8773SOL    HW234858   1.359   5.311   3.741 -1.2752  1.2059  0.1532
 8773SOL    HW334859   1.285   5.336   3.871 -1.5434 -1.5261  0.5975
 8773SOL    MW434860   1.343   5.291   3.825  0.8487  0.4028  0.5594
 8774SOL     OW34861   2.388   5.429   4.072  0.3743  0.0409 -0.0209
 8774SOL    HW234862   2.381   5.507   4.127 -0.5758  0.0751 -0.1794
 8774SOL    HW334863   2.380   5.356   4.133  0.4605  0.0690  0.0250
 8774SOL    MW434864   2.386   5.429   4.087  0.1360  0.1878 -0.0479
 8775SOL     OW34865   3.034   0.555   4.601 -0.0597  0.1206 -0.6944
 8775SOL    HW234866   2.984   0.493   4.548  0.4470 -0.8935 -0.0082
 8775SOL    HW334867   3.125   0.526   4.593 -0.1753 -1.6454  2.6819
 8775SOL    MW434868   3.040   0.543   4.593 -0.3683  0.3273 -0.0573
 8776SOL     OW34869   3.823   4.291   2.329  0.4055 -0.0708 -0.2058
 8776SOL    HW234870   3.740   4.280   2.282  0.6962  2.5643 -1.5464
 8776SOL    HW334871   3.886   4.239   2.278 -0.2047 -1.3777  0.3194
 8776SOL    MW434872   3.820   4.282   2.316  0.0361  0.0260  0.2799
 8777SOL     OW34873   5.316   1.278   4.274 -0.4397 -0.0942  0.3983
 8777SOL    HW234874   5.309   1.186   4.249  0.1415 -0.2547  0.8021
 8777SOL    HW334875   5.382   1.279   4.344  0.6379  0.8214 -0.5888
 8777SOL    MW434876   5.324   1.266   4.280  0.7729  1.2300 -0.5244
 8778SOL     OW34877   1.485   0.453   2.909 -0.3990  0.2957  0.3819
 8778SOL    HW234878   1.548   0.443   2.981 -0.7436 -1.4093  0.4822
 8778SOL    HW334879   1.523   0.521   2.854  1.1522 -0.1549  0.8446
 8778SOL    MW434880   1.499   0.461   2.911 -0.2586 -0.0932  0.3487
 8779SOL     OW34881   0.347   2.069   6.153  0.1217  0.1828 -0.2311
 8779SOL    HW234882   0.317   2.098   6.239 -2.1252 -1.9965 -0.1758
 8779SOL    HW334883   0.383   1.982   6.167 -0.0747 -0.1204 -1.4385
 8779SOL    MW434884   0.348   2.062   6.166 -0.5704 -0.0400  0.1989
 8780SOL     OW34885   2.427   0.338   5.657 -0.2970 -0.1509 -0.1077
 8780SOL    HW234886   2.389   0.317   5.572  0.5043  0.9751 -0.7742
 8780SOL    HW334887   2.353   0.368   5.710 -0.5028  1.1715 -1.1021
 8780SOL    MW434888   2.413   0.339   5.653 -0.4775  0.3946 -0.5504
 8781SOL     OW34889   5.062   4.181   3.956 -0.0864  0.4402 -0.4376
 8781SOL    HW234890   5.157   4.188   3.962 -0.1712  1.3135  0.1797
 8781SOL    HW334891   5.036   4.252   3.898 -0.2931 -0.4235 -1.4290
 8781SOL    MW434892   5.071   4.191   3.949  0.5018  0.8652 -0.0291
 8782SOL     OW34893   2.654   1.138   5.499 -0.5140 -0.4690 -0.5766
 8782SOL    HW234894   2.694   1.082   5.433  0.5023 -0.0317 -0.3507
 8782SOL    HW334895   2.594   1.194   5.450  1.0784  0.6434 -1.3387
 8782SOL    MW434896   2.651   1.138   5.484 -0.1281  0.2421  0.0305
 8783SOL     OW34897   2.788   0.486   4.864 -0.2873 -0.5413 -0.3112
 8783SOL    HW234898   2.717   0.516   4.920 -0.3328 -1.1543 -0.0324
 8783SOL    HW334899   2.752   0.490   4.775  0.6527  3.0363 -0.6687
 8783SOL    MW434900   2.774   0.490   4.860  0.3404  0.4193 -0.0927
 8784SOL     OW34901   3.366   3.701   5.120  0.1988 -0.6658  0.0670
 8784SOL    HW234902   3.416   3.753   5.182 -0.0583 -2.0353  1.4928
 8784SOL    HW334903   3.429   3.680   5.051  0.7617  0.0711  0.3415
 8784SOL    MW434904   3.381   3.705   5.119 -0.1305 -0.1270  0.2064
 8785SOL     OW34905   1.392   5.080   0.193 -0.1936  0.0051  0.2622
 8785SOL    HW234906   1.478   5.082   0.150 -1.4086 -0.5918 -2.3633
 8785SOL    HW334907   1.359   5.169   0.183 -0.3805 -0.0689  0.2330
 8785SOL    MW434908   1.399   5.092   0.186  0.0537  0.0771  0.5325
 8786SOL     OW34909   4.106   3.936   5.314 -0.2637  0.1376 -0.4228
 8786SOL    HW234910   4.124   4.029   5.303  3.3009 -0.4922 -1.4794
 8786SOL    HW334911   4.135   3.916   5.403 -0.9039  0.0105 -0.2394
 8786SOL    MW434912   4.112   3.945   5.324 -0.7082 -0.3204  0.6940
 8787SOL     OW34913   2.139   0.100   0.927 -0.4208 -0.7751  0.2047
 8787SOL    HW234914   2.153   0.175   0.869  1.6076 -0.7283  0.6856
 8787SOL    HW334915   2.151   0.024   0.871  3.4430 -0.7789  0.7488
 8787SOL    MW434916   2.143   0.100   0.912 -0.2581  1.0491  0.1350
 8788SOL     OW34917   3.432   1.813   4.313  0.4886  0.2102 -0.2677
 8788SOL    HW234918   3.389   1.733   4.345 -2.1548  0.8817 -1.8080
 8788SOL    HW334919   3.456   1.860   4.393 -1.3640 -0.4230  0.7243
 8788SOL    MW434920   3.429   1.809   4.328 -0.3046 -0.0869 -0.2993
 8789SOL     OW34921   4.021   1.992   2.663  0.0428 -0.1790  0.2985
 8789SOL    HW234922   4.048   2.083   2.655 -0.0051  0.0358  2.0682
 8789SOL    HW334923   4.092   1.941   2.625 -0.7924  0.6059 -2.5371
 8789SOL    MW434924   4.034   1.997   2.657 -0.6629  0.6773  0.1423
 8790SOL     OW34925   6.321   3.148   3.408  0.2205 -0.1394 -0.0018
 8790SOL    HW234926   6.234   3.178   3.433  0.3704  0.0753  0.2766
 8790SOL    HW334927   6.368   3.139   3.491 -0.3109 -2.7918  0.0785
 8790SOL    MW434928   6.316   3.151   3.422 -0.1769 -0.0488 -0.5358
 8791SOL     OW34929   4.592   0.004   1.498  0.0056 -0.0098 -0.4572
 8791SOL    HW234930   4.573   0.094   1.525  0.8818  0.5421 -1.5881
 8791SOL    HW334931   4.555  -0.050   1.568  0.5643  1.2707  0.8932
 8791SOL    MW434932   4.585   0.009   1.511 -0.3531 -0.1409  0.0894
 8792SOL     OW34933   2.806   5.172   2.775  0.4722 -0.0268 -0.0134
 8792SOL    HW234934   2.811   5.256   2.730 -0.5196 -0.1078 -0.2937
 8792SOL    HW334935   2.806   5.194   2.868 -3.1443  0.5744 -0.0226
 8792SOL    MW434936   2.807   5.186   2.781  0.5857  0.4481 -0.5726
 8793SOL     OW34937   4.931   4.374   3.238  0.2903 -0.5062 -0.2889
 8793SOL    HW234938   4.902   4.285   3.257  0.4515 -0.3714  0.6206
 8793SOL    HW334939   4.856   4.414   3.192 -0.3590 -0.6569  0.6165
 8793SOL    MW434940   4.917   4.368   3.234  0.0225 -0.2738  0.1995
 8794SOL     OW34941   0.168   4.485   1.929  0.4080  0.6276 -0.1491
 8794SOL    HW234942   0.100   4.552   1.941 -0.7822 -0.4010 -0.9278
 8794SOL    HW334943   0.199   4.499   1.839  1.7750  1.5524  0.4394
 8794SOL    MW434944   0.163   4.496   1.919 -0.3338  0.0450  0.0106
 8795SOL     OW34945   5.299   0.437   0.721 -0.3334 -0.0357  0.4517
 8795SOL    HW234946   5.299   0.532   0.724  0.1535 -0.0498  1.0202
 8795SOL    HW334947   5.384   0.411   0.758  0.3568 -0.6451 -1.4067
 8795SOL    MW434948   5.310   0.446   0.726  0.2704  0.4629  0.6240
 8796SOL     OW34949   1.811   2.579   0.678  0.2915  0.0836  0.2735
 8796SOL    HW234950   1.784   2.564   0.769 -0.2867  1.0171  0.2655
 8796SOL    HW334951   1.822   2.674   0.671  0.7655 -0.0188 -0.5196
 8796SOL    MW434952   1.809   2.589   0.689 -0.2826 -0.1883  0.1529
 8797SOL     OW34953   2.289   5.072   3.689  0.0148  0.5220 -0.3075
 8797SOL    HW234954   2.279   5.132   3.763 -0.9733 -2.6784  2.3546
 8797SOL    HW334955   2.377   5.035   3.700 -0.7084 -1.1008  0.2468
 8797SOL    MW434956   2.300   5.075   3.700 -0.3472 -0.3556 -0.2176
 8798SOL     OW34957   1.478   3.880   0.145  0.6149 -0.3098  0.2896
 8798SOL    HW234958   1.566   3.904   0.174  0.8704 -1.4183  0.4800
 8798SOL    HW334959   1.456   3.944   0.077  1.8003 -0.3532 -0.1534
 8798SOL    MW434960   1.487   3.892   0.140  0.4209  0.5119 -0.3263
 8799SOL     OW34961   1.562   3.201   5.518 -0.4909 -0.1320 -0.3861
 8799SOL    HW234962   1.533   3.110   5.515 -1.8169  0.1476  1.8186
 8799SOL    HW334963   1.616   3.207   5.598  0.4890  0.7789 -1.0848
 8799SOL    MW434964   1.565   3.190   5.529 -0.5817 -0.2442 -0.7594
 8800SOL     OW34965   1.236   5.958   0.265 -0.0459  0.1177  0.6819
 8800SOL    HW234966   1.326   5.950   0.234 -0.6537  0.2289 -1.2322
 8800SOL    HW334967   1.241   6.019   0.338  1.5315 -0.5005  1.1216
 8800SOL    MW434968   1.248   5.965   0.270  0.5905 -0.6059 -0.4816
 8801SOL     OW34969   0.955   3.157   3.869  0.4367 -0.1706  0.3813
 8801SOL    HW234970   1.045   3.189   3.878  0.4705  0.8514 -2.5852
 8801SOL    HW334971   0.902   3.236   3.860 -0.6818 -0.7913  1.2216
 8801SOL    MW434972   0.960   3.172   3.869  0.2596  0.7485 -0.6903
 8802SOL     OW34973   3.214   3.083   6.057 -0.2960 -0.2647  0.2853
 8802SOL    HW234974   3.230   3.001   6.011  1.4057  0.5213 -0.6275
 8802SOL    HW334975   3.212   3.059   6.150 -1.0379 -1.4909 -0.0283
 8802SOL    MW434976   3.216   3.069   6.063 -0.0997  0.2118  0.5813
 8803SOL     OW34977   1.480   6.388   6.358 -0.0072  0.6999  0.6238
 8803SOL    HW234978   1.554   6.447   6.346 -1.8392  2.5849 -3.4182
 8803SOL    HW334979   1.499   6.313   6.303 -0.2847  0.3018  1.0620
 8803SOL    MW434980   1.492   6.386   6.349  0.6057 -0.2407  0.2123
 8804SOL     OW34981   3.170   2.003   5.329 -0.3146 -0.4181 -0.2501
 8804SOL    HW234982   3.211   2.004   5.415  0.4497 -0.5231 -0.6043
 8804SOL    HW334983   3.103   2.071   5.333 -2.1967 -2.2373  1.3309
 8804SOL    MW434984   3.166   2.012   5.341 -0.4653  0.0855  0.0684
 8805SOL     OW34985   2.197   1.818   3.961  0.0387  1.1188 -0.9070
 8805SOL    HW234986   2.190   1.902   3.915  0.3282  0.4477 -2.2318
 8805SOL    HW334987   2.144   1.829   4.040  0.6174  2.7630 -0.7149
 8805SOL    MW434988   2.189   1.831   3.965  0.3593 -0.5084 -0.0302
 8806SOL     OW34989   0.386   4.805   1.460 -0.5171 -0.5219  0.5802
 8806SOL    HW234990   0.293   4.822   1.479 -0.6632  0.8310 -1.1209
 8806SOL    HW334991   0.384   4.741   1.389 -0.0858 -1.7442  1.6418
 8806SOL    MW434992   0.373   4.799   1.453  0.0092  0.4039 -0.3602
 8807SOL     OW34993   0.150   4.052   0.370 -0.1708 -0.1021 -0.7851
 8807SOL    HW234994   0.066   4.098   0.366  0.4586  0.9896 -2.8198
 8807SOL    HW334995   0.214   4.116   0.338  1.2591 -1.2905 -0.4002
 8807SOL    MW434996   0.148   4.067   0.365 -0.1937  0.4450 -0.3995
 8808SOL     OW34997   6.096   3.266   3.525  0.5027  0.2829  0.3428
 8808SOL    HW234998   6.072   3.258   3.433  2.0728  0.1566 -0.0841
 8808SOL    HW334999   6.059   3.188   3.567  2.1331 -1.1360 -0.7353
 8808SOL    MW435000   6.088   3.255   3.519 -0.3522  0.3564  0.4552
 8809SOL     OW35001   4.184   3.039   3.488 -0.6344 -0.4829 -0.1319
 8809SOL    HW235002   4.202   3.012   3.579  0.0053  0.0741 -0.0863
 8809SOL    HW335003   4.249   2.992   3.436 -0.4344 -0.1209 -0.2075
 8809SOL    MW435004   4.195   3.029   3.493  0.1217  0.2106 -0.0547
 8810SOL     OW35005   1.880   0.907   4.598 -0.2893  0.0212  0.0318
 8810SOL    HW235006   1.789   0.933   4.582 -1.8532 -3.3411  2.1342
 8810SOL    HW335007   1.884   0.816   4.566  2.1112 -0.1845  0.7432
 8810SOL    MW435008   1.868   0.898   4.591 -0.0363 -0.0321 -0.5041
 8811SOL     OW35009   2.545   0.565   5.056 -0.5169 -0.4698 -0.0553
 8811SOL    HW235010   2.507   0.593   5.140 -1.3201  0.0521 -0.5789
 8811SOL    HW335011   2.590   0.483   5.076  1.2738  0.7779  1.3796
 8811SOL    MW435012   2.546   0.558   5.070 -0.2393 -0.0419 -0.0480
 8812SOL     OW35013   4.673   4.326   4.374  0.4893  0.4776  0.0845
 8812SOL    HW235014   4.667   4.287   4.287 -0.3875  1.9087 -0.5191
 8812SOL    HW335015   4.757   4.296   4.408  1.5248  1.0707 -1.8493
 8812SOL    MW435016   4.683   4.317   4.367  0.2011 -0.2661 -0.0440
 8813SOL     OW35017   4.513   4.561   4.373  0.0580 -0.2080 -0.3615
 8813SOL    HW235018   4.569   4.484   4.377 -0.2062 -0.5190 -2.1171
 8813SOL    HW335019   4.528   4.597   4.286  1.3176  2.6288  0.9054
 8813SOL    MW435020   4.522   4.556   4.362  0.4158 -0.2548  0.1889
 8814SOL     OW35021   3.704   2.567   2.964 -0.2171 -0.4330  0.2613
 8814SOL    HW235022   3.630   2.584   3.022 -1.0854  1.3879 -1.2525
 8814SOL    HW335023   3.761   2.643   2.976  0.3773 -0.8169 -0.0845
 8814SOL    MW435024   3.702   2.579   2.973  0.7117  0.8371 -0.2849
 8815SOL     OW35025   3.452   1.536   2.741  0.6740  0.2813  0.4970
 8815SOL    HW235026   3.423   1.620   2.704  1.9718  1.5159  2.1002
 8815SOL    HW335027   3.373   1.497   2.779 -0.2249  0.0580 -1.5018
 8815SOL    MW435028   3.438   1.542   2.741  0.2654  0.4656  0.2292
 8816SOL     OW35029   3.487   3.475   4.541  0.7627  0.0852  0.1122
 8816SOL    HW235030   3.434   3.466   4.462  2.4969 -0.0595 -1.0967
 8816SOL    HW335031   3.439   3.538   4.595 -0.9981 -0.6228 -0.5568
 8816SOL    MW435032   3.473   3.482   4.538  0.1646 -0.0114 -0.3431
 8817SOL     OW35033   1.094   1.154   6.185 -0.2755 -0.3935  0.0110
 8817SOL    HW235034   1.086   1.059   6.195  1.2442 -0.4352  1.1848
 8817SOL    HW335035   1.175   1.165   6.135  1.6758  0.3189  3.0849
 8817SOL    MW435036   1.104   1.143   6.180 -0.3690  0.9054 -0.1729
 8818SOL     OW35037   2.592   2.975   1.388  0.2943 -0.3544  0.2620
 8818SOL    HW235038   2.683   3.004   1.396  0.6239 -1.3108  0.1365
 8818SOL    HW335039   2.585   2.900   1.446 -0.7152  0.3321  1.0702
 8818SOL    MW435040   2.603   2.969   1.397  0.5485 -0.5023  0.3971
 8819SOL     OW35041   1.023   4.657   3.912  0.3827  0.1617 -0.3207
 8819SOL    HW235042   0.957   4.589   3.901  1.9258 -1.2258 -1.6000
 8819SOL    HW335043   1.007   4.693   3.999 -1.1038 -1.1537 -0.0125
 8819SOL    MW435044   1.012   4.652   3.922  0.3109 -0.3168 -0.1158
 8820SOL     OW35045   2.327   2.661   0.263 -0.5199  0.1512  0.5437
 8820SOL    HW235046   2.324   2.577   0.308 -0.3564  0.2539  0.7507
 8820SOL    HW335047   2.376   2.718   0.323 -0.1261  0.2378  0.1472
 8820SOL    MW435048   2.333   2.658   0.277  0.4274  0.0977  0.3767
 8821SOL     OW35049   6.250   3.453   0.622  0.4492 -0.0348  0.3689
 8821SOL    HW235050   6.329   3.502   0.598  0.0134  1.1382  1.2306
 8821SOL    HW335051   6.276   3.403   0.699  1.0622 -1.6822 -0.8435
 8821SOL    MW435052   6.264   3.453   0.629  0.4888 -0.2450 -0.2127
 8822SOL     OW35053   6.374   5.628   6.225 -0.0741 -0.6881 -0.2502
 8822SOL    HW235054   6.317   5.705   6.222  1.7223  0.7001 -2.3374
 8822SOL    HW335055   6.450   5.658   6.276 -0.2033 -1.7719  0.6128
 8822SOL    MW435056   6.377   5.642   6.231 -0.1809 -0.1541 -0.2798
 8823SOL     OW35057   0.419   2.486   2.447 -0.3862  0.1754  0.1897
 8823SOL    HW235058   0.448   2.397   2.464 -0.4192  0.4157  1.7030
 8823SOL    HW335059   0.488   2.541   2.485 -1.1508  0.7748  0.7450
 8823SOL    MW435060   0.432   2.482   2.454  0.0847 -0.0061  0.0800
 8824SOL     OW35061   0.103   4.762   2.385 -0.3529  0.1340 -0.3625
 8824SOL    HW235062   0.108   4.690   2.448 -0.0696  0.2559 -0.2405
 8824SOL    HW335063   0.091   4.840   2.440 -0.0842  0.2429 -0.4571
 8824SOL    MW435064   0.102   4.763   2.401  0.2624 -0.1269 -0.3911
 8825SOL     OW35065   0.798   4.956   0.914 -0.2565  0.5903  0.3977
 8825SOL    HW235066   0.777   4.994   0.999  0.2094  0.4684  0.5639
 8825SOL    HW335067   0.792   5.030   0.853 -0.0932  0.7803  0.6104
 8825SOL    MW435068   0.794   4.971   0.917  0.7354  0.0957 -0.0913
 8826SOL     OW35069   6.328   6.293   4.430  0.1850 -0.6395  0.1373
 8826SOL    HW235070   6.332   6.341   4.512  1.4882 -0.9431  0.2792
 8826SOL    HW335071   6.365   6.207   4.451  1.8503 -0.2712 -1.0379
 8826SOL    MW435072   6.334   6.288   4.443  0.1557  0.2249  0.1870
 8827SOL     OW35073   0.367   4.020   5.469 -0.3715 -0.2672  0.8764
 8827SOL    HW235074   0.451   3.987   5.499 -0.6507 -0.9525  0.9109
 8827SOL    HW335075   0.381   4.114   5.459  1.0952 -0.6543 -1.3719
 8827SOL    MW435076   0.380   4.028   5.472 -0.2802  0.5959 -0.2097
 8828SOL     OW35077   4.315   3.256   1.447 -0.6864 -0.3777  0.1839
 8828SOL    HW235078   4.327   3.203   1.526 -1.3845 -1.0847 -0.1726
 8828SOL    HW335079   4.297   3.193   1.378 -0.3899  0.2576 -0.4904
 8828SOL    MW435080   4.314   3.241   1.449  0.5154  0.1744  0.6947
 8829SOL     OW35081   4.380   0.516   4.539 -0.1436  0.3825 -0.2417
 8829SOL    HW235082   4.432   0.490   4.616 -1.0244  2.4173  1.1275
 8829SOL    HW335083   4.302   0.461   4.545  0.3572 -0.3717 -0.4371
 8829SOL    MW435084   4.377   0.505   4.550  0.1539 -0.0081 -0.4198
 8830SOL     OW35085   3.592   2.171   0.815 -0.3983 -0.1379 -0.3062
 8830SOL    HW235086   3.561   2.199   0.901  0.1233 -1.0089  0.1758
 8830SOL    HW335087   3.513   2.156   0.764 -0.8598 -2.9379  1.0845
 8830SOL    MW435088   3.578   2.173   0.820  0.3239 -0.0419 -0.1545
 8831SOL     OW35089   1.052   1.225   0.010 -0.3853  0.0790  0.3939
 8831SOL    HW235090   1.072   1.318   0.002 -0.2987  0.1352  1.1297
 8831SOL    HW335091   1.053   1.192  -0.080 -1.3103  0.9579  0.0436
 8831SOL    MW435092   1.055   1.233  -0.003 -0.5820  0.4045  0.4309
 8832SOL     OW35093   3.514   2.257   4.496  0.0756 -0.4961  0.2760
 8832SOL    HW235094   3.421   2.267   4.517 -0.4598 -1.6483 -1.3496
 8832SOL    HW335095   3.527   2.310   4.418  0.8620 -0.1517  0.6268
 8832SOL    MW435096   3.504   2.266   4.489  0.1394 -0.1433 -0.5424
 8833SOL     OW35097   5.716   2.946   5.801  0.2464  0.1478  0.4933
 8833SOL    HW235098   5.658   2.899   5.861  0.4578 -0.7974 -0.0294
 8833SOL    HW335099   5.769   2.877   5.760 -1.1874  0.5346 -2.2195
 8833SOL    MW435100   5.715   2.930   5.804 -0.2717 -0.4340  0.1308
 8834SOL     OW35101   3.593   2.901   3.505 -0.5594  1.0171  0.1954
 8834SOL    HW235102   3.640   2.872   3.427  0.4870 -1.6764  1.7148
 8834SOL    HW335103   3.622   2.992   3.518  2.5937  0.1619 -0.2011
 8834SOL    MW435104   3.603   2.909   3.496  0.1759  0.3001 -0.1938
 8835SOL     OW35105   1.172   3.522   0.403 -0.1107 -0.6739  0.1103
 8835SOL    HW235106   1.176   3.532   0.308 -1.0841 -0.7026  0.0582
 8835SOL    HW335107   1.148   3.608   0.435  1.4925 -0.3232  0.4468
 8835SOL    MW435108   1.170   3.534   0.395 -0.0299  0.0108  0.3435
 8836SOL     OW35109   2.707   0.027   4.326 -0.2783 -0.5020  0.2667
 8836SOL    HW235110   2.739   0.077   4.401 -0.0751 -0.9778  0.5073
 8836SOL    HW335111   2.615   0.051   4.318 -0.5477 -1.1282  1.2466
 8836SOL    MW435112   2.699   0.037   4.335  0.0224 -0.2131  0.4237
 8837SOL     OW35113   3.055   4.839   3.447 -0.0529  0.6254  0.3455
 8837SOL    HW235114   2.985   4.793   3.401 -0.1421  1.7986 -0.7492
 8837SOL    HW335115   3.059   4.798   3.533 -2.4024  0.8366  0.6148
 8837SOL    MW435116   3.046   4.828   3.452 -0.3944 -0.3705 -0.6129
 8838SOL     OW35117   0.048   4.993   2.539  0.1997  0.0027 -0.5068
 8838SOL    HW235118  -0.029   5.047   2.559  0.5404  0.6854 -1.0109
 8838SOL    HW335119   0.112   5.055   2.504  1.5671 -0.2761  1.3620
 8838SOL    MW435120   0.046   5.009   2.537 -0.0662  0.0887  0.3958
 8839SOL     OW35121   4.694   1.781   1.339  0.3375 -0.3019 -0.1651
 8839SOL    HW235122   4.698   1.777   1.243  1.6340  0.3174 -0.1648
 8839SOL    HW335123   4.746   1.859   1.362  0.5586 -0.7851  1.0674
 8839SOL    MW435124   4.701   1.791   1.329  0.6321  0.2394 -0.0256
 8840SOL     OW35125   4.532   3.890   5.902  0.0617  0.1417 -0.2427
 8840SOL    HW235126   4.536   3.975   5.857 -0.9385  1.5457  2.1549
 8840SOL    HW335127   4.446   3.855   5.879 -0.5454  0.9666  0.6874
 8840SOL    MW435128   4.521   3.897   5.893 -0.0737  0.2312  0.0504
 8841SOL     OW35129   2.682   5.637   4.587 -0.3745 -0.5414  0.2380
 8841SOL    HW235130   2.766   5.596   4.567  0.4040  1.1322 -0.1183
 8841SOL    HW335131   2.680   5.714   4.530 -1.6387  0.0658  1.0783
 8841SOL    MW435132   2.693   5.642   4.577 -0.1821  0.2372 -0.3662
 8842SOL     OW35133   5.217   0.035   3.412  0.5116  0.3864  0.0314
 8842SOL    HW235134   5.258  -0.048   3.385  0.2252  0.0460  0.6298
 8842SOL    HW335135   5.139   0.042   3.358  1.6858  1.3888 -1.6327
 8842SOL    MW435136   5.212   0.025   3.401 -0.1133  0.0415 -0.1555
 8843SOL     OW35137   0.967   5.944   2.965 -0.2139 -1.0338  0.0679
 8843SOL    HW235138   1.016   5.874   2.922  1.2133 -0.0886  0.0655
 8843SOL    HW335139   0.883   5.905   2.989  0.0027 -2.3266 -1.1918
 8843SOL    MW435140   0.963   5.930   2.962  0.3163 -0.0479 -0.8772
 8844SOL     OW35141   0.380   6.288   0.099  0.0953  0.3151 -0.6227
 8844SOL    HW235142   0.419   6.215   0.146  0.9693  0.3839 -1.2100
 8844SOL    HW335143   0.311   6.248   0.045  0.4996 -0.0709 -0.8607
 8844SOL    MW435144   0.376   6.273   0.098 -0.0535  0.0846  0.3991
 8845SOL     OW35145   5.090   3.458   2.041  0.0266  0.2472  0.4838
 8845SOL    HW235146   5.077   3.367   2.065  2.1713 -0.5368 -1.0893
 8845SOL    HW335147   5.176   3.480   2.078  1.0430  0.5673 -1.9365
 8845SOL    MW435148   5.099   3.449   2.049  0.7456 -0.6293  0.3444
 8846SOL     OW35149   4.909   0.780   5.347  0.1182  0.2581 -0.1172
 8846SOL    HW235150   4.913   0.840   5.273 -3.1156 -1.4437 -1.9194
 8846SOL    HW335151   4.818   0.749   5.348  0.5457 -1.3946  3.3370
 8846SOL    MW435152   4.898   0.784   5.337  0.4913 -0.0892  0.6395
 8847SOL     OW35153   5.430   5.930   4.884  0.5488 -0.2112 -0.2212
 8847SOL    HW235154   5.345   5.922   4.928  1.0323  0.6965  0.9161
 8847SOL    HW335155   5.494   5.903   4.950  1.2391  0.3368 -0.6500
 8847SOL    MW435156   5.427   5.925   4.899  0.1035  0.0962  0.6727
 8848SOL     OW35157   2.001   5.575   1.013  0.1086 -0.4680  0.3098
 8848SOL    HW235158   2.048   5.526   1.080 -0.0924  0.4359  1.1294
 8848SOL    HW335159   1.993   5.664   1.048  0.3913  0.1511 -1.1049
 8848SOL    MW435160   2.006   5.580   1.026 -0.0246  0.1877  0.6717
 8849SOL     OW35161   2.270   1.388   6.428 -0.0920 -0.2342 -0.5316
 8849SOL    HW235162   2.342   1.343   6.472  1.4258  1.2766 -1.3375
 8849SOL    HW335163   2.198   1.386   6.491  0.2131 -2.8270 -0.1676
 8849SOL    MW435164   2.270   1.382   6.442  0.2023  0.3924  0.6906
 8850SOL     OW35165   3.039   3.353   4.929 -0.5659  0.4579  0.0501
 8850SOL    HW235166   3.050   3.331   5.022  0.0347 -1.9472 -0.5058
 8850SOL    HW335167   2.950   3.325   4.908 -1.1435  2.1538  0.1639
 8850SOL    MW435168   3.029   3.346   4.938 -0.5227  0.3867  0.4629
 8851SOL     OW35169   1.464   4.905   3.235 -0.3549 -0.6136 -0.5098
 8851SOL    HW235170   1.517   4.874   3.308 -0.9752  2.9182  1.6625
 8851SOL    HW335171   1.377   4.868   3.250  0.2085 -2.4477 -1.3692
 8851SOL    MW435172   1.460   4.896   3.246  1.0679 -0.6634  0.1657
 8852SOL     OW35173   0.657   2.800   3.980  0.0012  0.2163  0.0750
 8852SOL    HW235174   0.749   2.825   3.976  0.3883 -1.0420  0.5833
 8852SOL    HW335175   0.645   2.741   3.906 -0.2828  0.0429  0.2582
 8852SOL    MW435176   0.668   2.795   3.970 -0.3052  0.3326 -0.1503
 8853SOL     OW35177   6.022   5.128   0.678 -0.3577 -0.4322  0.0769
 8853SOL    HW235178   5.980   5.046   0.654 -0.0243 -0.6774  0.3225
 8853SOL    HW335179   6.042   5.170   0.594 -0.5181 -0.6043 -0.0487
 8853SOL    MW435180   6.019   5.123   0.664  0.3721  0.3267  0.1959
 8854SOL     OW35181   2.946   6.278   5.727 -0.0536 -0.0849  0.1298
 8854SOL    HW235182   2.910   6.189   5.730 -1.1940  0.3088 -0.8996
 8854SOL    HW335183   2.869   6.335   5.722  0.6745  0.9330  0.2490
 8854SOL    MW435184   2.931   6.273   5.726  0.8932  0.4826 -0.5509
 8855SOL     OW35185   4.623   1.254   2.229 -0.7980 -0.2432  0.0215
 8855SOL    HW235186   4.596   1.309   2.155 -0.1987 -0.3628 -0.2961
 8855SOL    HW335187   4.546   1.202   2.250 -0.5901 -1.2011 -1.4153
 8855SOL    MW435188   4.609   1.255   2.222  0.1315  0.6760 -0.6865
 8856SOL     OW35189   0.918   2.866   5.152  0.6747 -0.1587  0.5991
 8856SOL    HW235190   0.833   2.900   5.182  0.8888  0.7977  0.1750
 8856SOL    HW335191   0.980   2.891   5.221  1.2893  2.6363 -0.8073
 8856SOL    MW435192   0.915   2.874   5.165 -0.5175 -0.2564  0.1504
 8857SOL     OW35193   2.368   1.984   2.154  0.2032  0.6613 -0.4759
 8857SOL    HW235194   2.400   1.987   2.244  0.2583 -0.7585 -0.4191
 8857SOL    HW335195   2.414   2.056   2.110  1.2453  0.5096  0.3041
 8857SOL    MW435196   2.379   1.994   2.160 -0.5993 -0.2571 -0.6937
 8858SOL     OW35197   2.539   4.511   3.514  0.6846 -0.0712  0.3946
 8858SOL    HW235198   2.502   4.455   3.583  0.8813 -0.3149  0.3042
 8858SOL    HW335199   2.515   4.467   3.432  0.7248  0.0496  0.3176
 8858SOL    MW435200   2.531   4.497   3.512 -0.4207 -0.4920  0.9693
 8859SOL     OW35201   0.203   4.400   2.347  0.1891 -0.4280  0.2874
 8859SOL    HW235202   0.199   4.349   2.266  0.6381 -0.6214  0.3834
 8859SOL    HW335203   0.261   4.473   2.326 -0.7269  0.2410  0.0470
 8859SOL    MW435204   0.210   4.403   2.333  0.5004  0.0301 -0.3636
 8860SOL     OW35205   2.230   5.852   3.261  0.2639 -0.9266  0.4155
 8860SOL    HW235206   2.323   5.834   3.276  0.0897 -2.4323 -0.1345
 8860SOL    HW335207   2.225   5.876   3.168 -0.0380 -2.0159  0.1394
 8860SOL    MW435208   2.242   5.853   3.250 -0.2097  0.1394 -0.1735
 8861SOL     OW35209   5.564   5.997   6.157  0.2683  0.5127 -0.1125
 8861SOL    HW235210   5.575   5.937   6.083 -0.8973 -1.3177  1.1267
 8861SOL    HW335211   5.643   6.051   6.155  2.2550 -2.1927 -0.3156
 8861SOL    MW435212   5.576   5.996   6.147  0.0996  1.2206 -0.3742
 8862SOL     OW35213   5.706   0.646   0.454 -0.1859  0.9321  0.3100
 8862SOL    HW235214   5.663   0.571   0.413  0.5095  0.3225  0.6648
 8862SOL    HW335215   5.636   0.694   0.496 -0.7002  0.7094 -0.2803
 8862SOL    MW435216   5.691   0.642   0.454  0.7400 -0.4378 -0.0895
 8863SOL     OW35217   0.859   4.682   5.890  0.3109 -0.3598  0.2169
 8863SOL    HW235218   0.831   4.773   5.906 -0.0651 -0.5699  0.7942
 8863SOL    HW335219   0.874   4.647   5.978  0.6969 -0.7808 -0.0204
 8863SOL    MW435220   0.857   4.689   5.904 -0.3353  0.1293 -0.3603
 8864SOL     OW35221   2.107   4.047   0.480 -0.3352 -0.2651 -0.1449
 8864SOL    HW235222   2.113   3.953   0.459 -0.7513 -0.4284  0.4470
 8864SOL    HW335223   2.148   4.090   0.405  2.0834 -1.0121  0.6339
 8864SOL    MW435224   2.114   4.040   0.468  1.1374  0.1192  0.4522
 8865SOL     OW35225   4.271   1.062   4.258 -0.5368 -0.1320  0.0649
 8865SOL    HW235226   4.362   1.088   4.243 -0.8900  0.9255 -0.3426
 8865SOL    HW335227   4.268   1.032   4.349  0.5266 -1.6106 -0.3512
 8865SOL    MW435228   4.282   1.061   4.268  0.6634 -0.0179  0.1618
 8866SOL     OW35229   4.159   2.724   1.840 -0.2115 -0.3296 -0.3112
 8866SOL    HW235230   4.113   2.642   1.855 -1.5772  0.4736  0.0268
 8866SOL    HW335231   4.167   2.764   1.927  0.5758 -0.1739 -0.4504
 8866SOL    MW435232   4.154   2.718   1.853 -0.0649  0.0073  0.3452
 8867SOL     OW35233   3.068   2.737   5.973  0.6493  0.2444 -0.4635
 8867SOL    HW235234   3.131   2.742   6.045  2.3177  0.7310 -1.9124
 8867SOL    HW335235   3.096   2.661   5.922 -1.7568 -1.3848  0.4341
 8867SOL    MW435236   3.080   2.728   5.976  0.5410  0.0270  0.1529
 8868SOL     OW35237   4.943   0.726   3.237  0.1863 -0.3169 -0.1898
 8868SOL    HW235238   4.958   0.665   3.310  3.6944 -1.9946 -2.0561
 8868SOL    HW335239   5.011   0.704   3.174 -1.0162  2.8608 -2.8423
 8868SOL    MW435240   4.954   0.715   3.238 -0.1822 -0.5318 -0.4980
 8869SOL     OW35241   0.399   0.363   6.402  0.3746  0.4438  0.0411
 8869SOL    HW235242   0.417   0.435   6.341  0.8750 -1.1385 -1.7940
 8869SOL    HW335243   0.484   0.343   6.442  0.5500 -0.0347 -0.5464
 8869SOL    MW435244   0.413   0.370   6.399  0.1999  0.0793  0.3786
 8870SOL     OW35245   3.395   0.258   5.119 -0.2582 -0.0027 -0.0331
 8870SOL    HW235246   3.384   0.332   5.058  0.4798  0.4044  0.3102
 8870SOL    HW335247   3.450   0.196   5.072  1.0516  0.7000  0.5134
 8870SOL    MW435248   3.401   0.260   5.105  0.2323  0.1419 -0.7932
 8871SOL     OW35249   4.899   4.779   6.221 -0.0746  0.0082  0.5506
 8871SOL    HW235250   4.981   4.799   6.266  0.7075  0.3255 -0.9244
 8871SOL    HW335251   4.874   4.693   6.253  0.3121  0.3113  1.7301
 8871SOL    MW435252   4.906   4.771   6.231  0.1895  0.1178  0.2550
 8872SOL     OW35253   3.384   4.758   6.268 -0.2938 -0.3566  0.2355
 8872SOL    HW235254   3.413   4.829   6.326 -1.3935 -1.3338  2.0515
 8872SOL    HW335255   3.460   4.741   6.212  0.3884  1.4381  0.5542
 8872SOL    MW435256   3.398   4.765   6.268 -0.3378  0.4122 -0.4082
 8873SOL     OW35257   0.861   5.923   6.162 -0.1346  0.6038  0.1351
 8873SOL    HW235258   0.797   5.863   6.200 -1.2748  1.3669 -0.4950
 8873SOL    HW335259   0.905   5.872   6.094  1.0161 -0.3765  1.5531
 8873SOL    MW435260   0.858   5.909   6.158  0.6555 -0.2964  0.1107
 8874SOL     OW35261   5.729   3.021   5.364  0.6475 -0.1638  0.0342
 8874SOL    HW235262   5.772   3.083   5.423 -0.1931  0.7136 -0.2280
 8874SOL    HW335263   5.749   3.054   5.276 -0.2375  0.0507 -0.0962
 8874SOL    MW435264   5.737   3.034   5.360 -0.1542 -0.6439 -0.1485
 8875SOL     OW35265   1.957   1.303   1.790  0.3346 -0.2800  0.1305
 8875SOL    HW235266   1.972   1.215   1.823  0.7741 -0.8410 -1.4396
 8875SOL    HW335267   2.036   1.352   1.815  0.6000 -0.6543  0.0345
 8875SOL    MW435268   1.969   1.298   1.797  0.4251  0.3581  0.3213
 8876SOL     OW35269   6.080   1.337   4.311 -0.0925  0.3931 -0.3365
 8876SOL    HW235270   6.000   1.385   4.292 -1.0385 -0.7149  0.6843
 8876SOL    HW335271   6.054   1.271   4.375  1.5541 -0.2684 -0.2925
 8876SOL    MW435272   6.066   1.335   4.317 -0.0114  0.7348 -0.0444
 8877SOL     OW35273   0.641   0.383   4.905 -0.2388 -0.0184 -0.0503
 8877SOL    HW235274   0.685   0.414   4.984  0.2866 -0.3046 -0.2294
 8877SOL    HW335275   0.562   0.436   4.900 -1.8624 -2.0420  2.3067
 8877SOL    MW435276   0.637   0.394   4.915  0.3195  0.3612  0.4993
 8878SOL     OW35277   3.787   2.875   5.968 -0.8437 -0.2129 -0.1232
 8878SOL    HW235278   3.868   2.865   6.018 -0.9448  0.2908  0.1435
 8878SOL    HW335279   3.772   2.969   5.964 -1.4058 -0.3017 -0.1877
 8878SOL    MW435280   3.796   2.886   5.974 -0.0932  0.2597 -0.5405
 8879SOL     OW35281   0.791   0.471   5.134 -0.3335  0.6044  0.2510
 8879SOL    HW235282   0.860   0.531   5.163 -0.6300  1.3608 -0.5492
 8879SOL    HW335283   0.802   0.393   5.188 -0.0779  1.4702  1.4767
 8879SOL    MW435284   0.801   0.469   5.145 -0.5843  0.5037 -0.0376
 8880SOL     OW35285   5.183   3.900   5.021 -0.7199  0.3283 -0.0967
 8880SOL    HW235286   5.259   3.868   4.973 -2.1916 -2.1161 -0.9280
 8880SOL    HW335287   5.158   3.980   4.975 -0.8094 -0.7999 -2.1273
 8880SOL    MW435288   5.190   3.906   5.009  0.2822  0.0263  0.1969
 8881SOL     OW35289   5.524   6.386   3.850  0.3140  0.2245 -0.2326
 8881SOL    HW235290   5.468   6.362   3.924  0.1928  2.6014  0.5351
 8881SOL    HW335291   5.464   6.426   3.787  0.3893 -1.9206 -1.8032
 8881SOL    MW435292   5.509   6.388   3.852 -0.1995  0.2326 -0.6451
 8882SOL     OW35293   0.823   0.837   2.122 -0.0434 -0.0112  0.4325
 8882SOL    HW235294   0.905   0.877   2.151  2.1872 -3.1662 -0.9109
 8882SOL    HW335295   0.799   0.777   2.192  0.1498 -0.7865 -0.1436
 8882SOL    MW435296   0.831   0.834   2.135  0.2065  0.1014 -0.0199
 8883SOL     OW35297   2.236   2.188   4.172 -0.2450  0.6463 -0.2482
 8883SOL    HW235298   2.241   2.281   4.192 -0.4826  0.3249  1.4694
 8883SOL    HW335299   2.324   2.154   4.193  0.8455  0.9326 -3.7620
 8883SOL    MW435300   2.249   2.195   4.178  0.3708 -0.0104 -0.2494
 8884SOL     OW35301   1.947   4.584   4.887  0.1519  0.1194  0.1105
 8884SOL    HW235302   1.935   4.659   4.945  0.0948 -0.0241  0.2854
 8884SOL    HW335303   1.880   4.594   4.819 -0.9704 -0.6659  1.0607
 8884SOL    MW435304   1.937   4.595   4.886 -0.2961  0.1234 -0.4946
 8885SOL     OW35305   1.147   5.755   2.848 -0.1654  0.0231 -0.5003
 8885SOL    HW235306   1.192   5.789   2.771 -1.1351  1.9810 -0.2696
 8885SOL    HW335307   1.081   5.695   2.814  0.0650  0.1095 -1.1029
 8885SOL    MW435308   1.144   5.752   2.833  0.1438 -0.0530 -0.2498
 8886NA      NA35309   2.466   6.061   2.806  0.3627  0.6943  0.3717
 8887NA      NA35310   5.017   5.696   0.136 -0.0961 -0.7555  0.2029
 8888NA      NA35311   0.794   5.155   3.597  0.3958 -0.1300 -0.0873
 8889NA      NA35312   2.486   3.250   6.399  0.0669 -0.1901 -0.5577
 8890NA      NA35313   0.332   2.729   2.720 -0.0546  0.2779  0.0210
 8891NA      NA35314   5.311   5.066   4.687 -0.0220 -0.6302 -0.3756
 8892NA      NA35315   0.064   6.109   3.217  0.1586 -0.3735 -0.1036
   6.42900   6.42900   6.42900
