A-SYNC WITH FASUDIL
35315
  121NASP     N    1   3.599   3.901   5.628 -0.0237 -0.3879  0.5422
  121NASP    H1    2   3.545   3.843   5.691 -0.7344 -0.1245  0.1924
  121NASP    H2    3   3.652   3.847   5.561 -0.3074  0.5932 -0.5090
  121NASP    H3    4   3.534   3.959   5.576  2.9008  0.1541 -2.9037
  121NASP    CA    5   3.696   3.988   5.699 -0.0841 -0.1854  0.2115
  121NASP    HA    6   3.753   4.054   5.634  0.0874  0.9845  1.5040
  121NASP    CB    7   3.627   4.085   5.792  0.2072  0.1439 -0.1019
  121NASP   HB1    8   3.572   4.155   5.729  1.1444  0.9401 -0.0509
  121NASP   HB2    9   3.705   4.133   5.852  1.2663 -1.3908 -0.2154
  121NASP    CG   10   3.520   4.024   5.888 -0.0619 -0.0858 -0.8971
  121NASP   OD1   11   3.478   3.907   5.861  0.6326 -0.4211 -0.3447
  121NASP   OD2   12   3.481   4.093   5.981  0.2984  0.0115 -0.0250
  121NASP     C   13   3.795   3.911   5.788 -0.7676  1.1729  0.3167
  121NASP     O   14   3.765   3.799   5.825 -0.1341  0.5721 -0.2770
  122ASN      N   15   3.912   3.975   5.815 -0.0094 -0.5413 -0.5790
  122ASN      H   16   3.944   4.049   5.755 -0.5342 -1.0296 -1.4792
  122ASN     CA   17   4.002   3.940   5.922 -0.5238 -0.2403 -0.1068
  122ASN     HA   18   4.085   3.877   5.888 -0.2765 -0.1467  0.3276
  122ASN     CB   19   4.080   4.065   5.958  0.2130 -0.5620 -0.1831
  122ASN    HB1   20   4.009   4.146   5.970  0.8683  0.1705 -1.0799
  122ASN    HB2   21   4.154   4.094   5.883  1.1675 -1.1910  0.4913
  122ASN     CG   22   4.160   4.053   6.081 -0.3228 -0.0769 -0.4069
  122ASN    OD1   23   4.235   3.961   6.093  0.0376  0.3853  0.3600
  122ASN    ND2   24   4.151   4.141   6.181 -0.2198 -0.2655 -0.7042
  122ASN   HD21   25   4.204   4.121   6.265 -1.9194 -3.5394 -0.2540
  122ASN   HD22   26   4.082   4.214   6.175  0.8224  0.8585  0.3850
  122ASN      C   27   3.937   3.882   6.052 -0.2986  0.3796 -0.3128
  122ASN      O   28   3.832   3.933   6.085  0.0199  0.2427  0.0385
  123GLU      N   29   3.997   3.782   6.117  0.1046  0.2213  0.6047
  123GLU      H   30   4.069   3.730   6.069 -1.0650 -0.4117 -0.5588
  123GLU     CA   31   3.942   3.732   6.244  0.8155  0.4856 -0.0009
  123GLU     HA   32   3.837   3.761   6.251  0.4638 -0.2919 -1.6789
  123GLU     CB   33   3.949   3.581   6.245 -0.5611  0.1314  0.1860
  123GLU    HB1   34   3.899   3.557   6.338 -0.9595 -2.4256 -0.5930
  123GLU    HB2   35   4.055   3.556   6.252  0.2682  3.1125 -0.3046
  123GLU     CG   36   3.890   3.495   6.131  0.3311 -0.4036 -0.3699
  123GLU    HG1   37   3.949   3.496   6.039  3.0338  2.6502  1.1694
  123GLU    HG2   38   3.793   3.537   6.107 -0.0297 -0.8435  0.2948
  123GLU     CD   39   3.859   3.356   6.175 -0.1472  0.2597  0.4461
  123GLU    OE1   40   3.877   3.265   6.091 -0.5946  0.6136  0.2264
  123GLU    OE2   41   3.820   3.325   6.289 -0.2686  0.0529 -0.3086
  123GLU      C   42   4.009   3.793   6.364  0.4213  0.6492  0.1919
  123GLU      O   43   3.944   3.799   6.467 -0.2569 -0.2589 -0.2706
  124ALA      N   44   4.128   3.853   6.343 -0.0161  0.5917  0.1483
  124ALA      H   45   4.155   3.856   6.246 -1.1036  1.3460 -0.1530
  124ALA     CA   46   4.218   3.904   6.446  0.4870 -0.6256 -0.8034
  124ALA     HA   47   4.208   3.839   6.533 -0.8946  0.5511 -0.0529
  124ALA     CB   48   4.368   3.900   6.402  0.4482  0.0406  0.5682
  124ALA    HB1   49   4.385   3.795   6.379 -3.0601 -0.3848 -0.6764
  124ALA    HB2   50   4.439   3.943   6.473  1.2244 -2.1360  1.1726
  124ALA    HB3   51   4.371   3.944   6.302 -1.8797 -0.8552  0.0434
  124ALA      C   52   4.166   4.040   6.503  0.5355  0.2338  0.3297
  124ALA      O   53   4.068   4.087   6.444  0.2566 -0.3919 -0.0379
  125TYR      N   54   4.218   4.100   6.613  0.1654 -0.5534  0.1700
  125TYR      H   55   4.295   4.067   6.669 -2.1115 -3.0243  2.1210
  125TYR     CA   56   4.164   4.229   6.652  0.4650 -0.5367 -0.1866
  125TYR     HA   57   4.055   4.230   6.638  0.6574 -1.4169 -2.1084
  125TYR     CB   58   4.212   4.263   6.793 -0.0076 -0.0325  0.0227
  125TYR    HB1   59   4.187   4.367   6.815 -0.4505 -0.7880  3.7939
  125TYR    HB2   60   4.320   4.249   6.795  0.0046 -0.0764  2.8426
  125TYR     CG   61   4.143   4.196   6.906  0.1665  0.1803 -0.1463
  125TYR    CD1   62   4.215   4.113   6.989 -0.4608  0.2053 -0.7120
  125TYR    HD1   63   4.315   4.098   6.951 -0.9633  0.5285 -2.2106
  125TYR    CE1   64   4.159   4.044   7.104  0.3871  0.5338 -0.0054
  125TYR    HE1   65   4.212   3.979   7.172 -0.3955 -0.1367 -0.0179
  125TYR     CZ   66   4.024   4.071   7.135  0.4978  0.2008  0.4287
  125TYR     OH   67   3.978   4.023   7.250 -0.3140 -0.2478  0.3906
  125TYR     HH   68   4.049   3.981   7.299  0.9470  0.4511 -0.7749
  125TYR    CE2   69   3.945   4.152   7.045 -0.3843  0.4350 -0.3642
  125TYR    HE2   70   3.844   4.179   7.071  0.3839  1.7377  1.4895
  125TYR    CD2   71   4.007   4.219   6.935 -0.6301 -0.3082  0.5946
  125TYR    HD2   72   3.945   4.276   6.867  1.0235  1.0666  0.1883
  125TYR      C   73   4.198   4.344   6.551  0.7420  0.0671 -0.4426
  125TYR      O   74   4.123   4.445   6.551 -0.5072 -0.0982  0.0223
  126GLU      N   75   4.313   4.339   6.478 -0.3242 -0.1054  0.5060
  126GLU      H   76   4.387   4.272   6.491 -0.0319  0.0315 -0.3803
  126GLU     CA   77   4.357   4.446   6.382  0.0986 -0.1158 -0.2742
  126GLU     HA   78   4.265   4.503   6.367 -0.3632 -0.8334 -0.2271
  126GLU     CB   79   4.467   4.536   6.441 -0.3802 -0.3198  0.0819
  126GLU    HB1   80   4.522   4.589   6.364 -0.5127 -0.7612 -0.3207
  126GLU    HB2   81   4.541   4.468   6.483 -1.5610 -0.7290  1.6076
  126GLU     CG   82   4.405   4.637   6.537  0.8665 -0.3007  0.0464
  126GLU    HG1   83   4.361   4.573   6.613 -0.2004 -3.6602 -3.1169
  126GLU    HG2   84   4.328   4.689   6.481 -0.8802 -0.7038  1.9791
  126GLU     CD   85   4.507   4.735   6.596  0.1964  0.3545 -0.2817
  126GLU    OE1   86   4.502   4.852   6.555 -0.4394  0.3049 -0.2910
  126GLU    OE2   87   4.581   4.696   6.685 -0.5539  0.3017  0.0684
  126GLU      C   88   4.403   4.370   6.254  0.7228 -0.1717 -0.7812
  126GLU      O   89   4.440   4.255   6.253  0.1904  0.1871 -0.0958
  127MET      N   90   4.385   4.438   6.141 -0.0996  0.1688  0.2920
  127MET      H   91   4.356   4.533   6.159 -0.2306  0.0160  0.9258
  127MET     CA   92   4.391   4.384   6.006  0.4746 -0.4129 -0.1506
  127MET     HA   93   4.326   4.296   6.013 -2.5437  1.3684 -2.8816
  127MET     CB   94   4.328   4.493   5.917  0.5246  0.2548 -0.9121
  127MET    HB1   95   4.384   4.586   5.925 -0.3427  0.7213 -0.0060
  127MET    HB2   96   4.233   4.520   5.963  1.6614 -0.2877  1.9643
  127MET     CG   97   4.293   4.448   5.776 -0.1662  0.8047 -0.2477
  127MET    HG1   98   4.220   4.368   5.789 -1.9572  2.3196 -0.4410
  127MET    HG2   99   4.385   4.425   5.722  1.3459  0.8948  2.1743
  127MET     SD  100   4.195   4.574   5.698  0.1411 -0.3842 -0.2271
  127MET     CE  101   4.338   4.663   5.617 -0.0009 -1.0244 -0.3715
  127MET    HE1  102   4.423   4.679   5.682  0.1930 -2.7658 -0.1529
  127MET    HE2  103   4.313   4.766   5.593 -0.7014 -1.0677  0.1181
  127MET    HE3  104   4.376   4.606   5.532 -1.2164  0.2288 -1.8314
  127MET      C  105   4.527   4.349   5.960  0.6223 -0.6006 -0.0657
  127MET      O  106   4.611   4.445   5.955  0.4790  0.0105 -0.4661
  128PRO      N  107   4.567   4.221   5.928  0.8573 -0.3401 -0.2396
  128PRO     CD  108   4.482   4.100   5.942 -0.1953 -0.0710 -0.1349
  128PRO    HD1  109   4.396   4.099   5.875  0.5875  1.0608 -1.2045
  128PRO    HD2  110   4.452   4.104   6.046 -0.2295 -0.6764 -0.1165
  128PRO     CG  111   4.577   3.980   5.910  0.3835 -0.4471 -0.0593
  128PRO    HG1  112   4.546   3.947   5.811  1.0769 -0.2126 -0.3601
  128PRO    HG2  113   4.555   3.902   5.984 -1.9656 -1.2119 -1.4407
  128PRO     CB  114   4.716   4.035   5.899  0.0366  0.1735 -0.8309
  128PRO    HB1  115   4.748   4.017   6.002  0.1530  0.0024 -0.8956
  128PRO    HB2  116   4.777   3.994   5.819 -0.6451  0.0807 -1.3126
  128PRO     CA  117   4.704   4.182   5.881 -0.0542  0.6598 -0.4787
  128PRO     HA  118   4.776   4.228   5.948 -0.9420  1.4894 -0.0756
  128PRO      C  119   4.729   4.232   5.740 -0.4977 -0.2783 -0.1516
  128PRO      O  120   4.641   4.257   5.666  0.1452  0.3521 -0.3792
  129SER      N  121   4.853   4.253   5.708 -0.5271  0.2153 -0.1999
  129SER      H  122   4.923   4.242   5.780  1.3602 -0.7477 -2.0676
  129SER     CA  123   4.915   4.280   5.572  0.0789 -0.1779  0.4339
  129SER     HA  124   4.832   4.291   5.502  1.2748 -2.4385 -1.4841
  129SER     CB  125   4.994   4.409   5.583 -0.2640 -0.1490  1.0013
  129SER    HB1  126   5.041   4.422   5.485 -2.4360 -2.0694 -0.4104
  129SER    HB2  127   5.072   4.404   5.659  0.3747 -0.3389  0.3477
  129SER     OG  128   4.910   4.520   5.605 -0.2030 -0.0372 -0.2412
  129SER    HG1  129   4.961   4.598   5.582  0.8964 -1.1634 -1.8816
  129SER      C  130   5.007   4.162   5.537  0.0282  0.0686 -0.1782
  129SER      O  131   5.001   4.117   5.425 -0.5705  0.0456  0.1105
  130GLU      N  132   5.088   4.113   5.633  0.1676  0.4432  0.2047
  130GLU      H  133   5.093   4.148   5.727 -0.5677 -1.2235  0.9051
  130GLU     CA  134   5.176   3.996   5.602  0.5861 -0.1755 -0.6097
  130GLU     HA  135   5.227   4.010   5.507 -0.5898 -0.3836 -1.2920
  130GLU     CB  136   5.277   3.977   5.717  0.7686 -0.5399  0.1001
  130GLU    HB1  137   5.321   3.877   5.716  1.9041 -0.0545 -0.0605
  130GLU    HB2  138   5.229   3.990   5.814 -1.4775  0.5447 -1.0745
  130GLU     CG  139   5.390   4.079   5.706  0.2289  0.3308 -0.5563
  130GLU    HG1  140   5.349   4.179   5.711 -2.7878 -0.8525  3.4849
  130GLU    HG2  141   5.449   4.053   5.618  1.7604 -0.1675  0.5766
  130GLU     CD  142   5.495   4.065   5.818 -0.3346  0.7503 -0.0581
  130GLU    OE1  143   5.485   3.978   5.906 -0.2299  0.1706 -0.6086
  130GLU    OE2  144   5.604   4.127   5.804 -0.2269  0.5419 -0.0944
  130GLU      C  145   5.092   3.870   5.577  0.1188  0.2137  0.2450
  130GLU      O  146   4.981   3.860   5.628  0.3056  0.4239  0.8590
  131GLU      N  147   5.143   3.772   5.498 -0.5736 -0.2925 -0.3594
  131GLU      H  148   5.235   3.774   5.457 -0.6132  1.3166 -0.4487
  131GLU     CA  149   5.067   3.654   5.466  0.5130  0.0639  0.5861
  131GLU     HA  150   4.967   3.681   5.431 -0.1244  0.6318  2.7022
  131GLU     CB  151   5.140   3.573   5.360  0.5601 -0.2640 -0.4508
  131GLU    HB1  152   5.080   3.483   5.346 -0.2658  0.3626 -1.1041
  131GLU    HB2  153   5.234   3.543   5.406 -1.0925 -2.2642  1.8982
  131GLU     CG  154   5.157   3.647   5.223 -0.4507 -0.1063  0.0916
  131GLU    HG1  155   5.204   3.744   5.240 -0.9448  0.3997 -1.2973
  131GLU    HG2  156   5.055   3.659   5.188 -0.0097  0.8682 -0.9328
  131GLU     CD  157   5.237   3.557   5.123 -1.3180 -0.0212  0.1469
  131GLU    OE1  158   5.253   3.433   5.146  0.7466 -0.3503 -0.7687
  131GLU    OE2  159   5.294   3.615   5.024  0.6605  0.5495  0.0703
  131GLU      C  160   5.040   3.559   5.593 -0.2913 -0.3393  0.3526
  131GLU      O  161   5.132   3.538   5.671  0.2094  0.3080 -0.1018
  132GLY      N  162   4.920   3.503   5.611  0.1062  0.9952  0.6095
  132GLY      H  163   4.842   3.509   5.547  0.2501 -2.7896 -0.1546
  132GLY     CA  164   4.888   3.406   5.716  0.4887  0.5586  0.0131
  132GLY    HA1  165   4.782   3.402   5.739  0.9696  1.6865  2.9054
  132GLY    HA2  166   4.928   3.453   5.806  1.8723 -3.3493  1.6589
  132GLY      C  167   4.951   3.265   5.694  0.3192  0.2179  0.3751
  132GLY      O  168   4.943   3.199   5.587 -0.4619 -0.4257  0.1872
  133TYR      N  169   5.004   3.210   5.799 -0.4097  0.5492 -0.5818
  133TYR      H  170   4.985   3.260   5.885 -0.2548  0.2474 -0.3709
  133TYR     CA  171   5.067   3.079   5.810 -0.2111 -0.2822 -0.1553
  133TYR     HA  172   5.010   3.007   5.751  0.1235 -1.6190  1.1037
  133TYR     CB  173   5.215   3.080   5.768  0.1900  0.9255  0.1615
  133TYR    HB1  174   5.265   3.109   5.860  1.4429  0.4453 -0.3459
  133TYR    HB2  175   5.232   3.155   5.690  0.2957  0.6787 -0.0538
  133TYR     CG  176   5.270   2.946   5.726  0.0040 -0.0123 -0.0516
  133TYR    CD1  177   5.378   2.883   5.790  0.1650 -0.2184 -1.0208
  133TYR    HD1  178   5.427   2.933   5.872 -2.3937  1.9545 -0.6723
  133TYR    CE1  179   5.414   2.755   5.745 -0.9433 -0.7671  0.2361
  133TYR    HE1  180   5.494   2.709   5.801 -1.9273  0.7320  3.0735
  133TYR     CZ  181   5.348   2.698   5.637 -0.1131  0.4362 -0.1172
  133TYR     OH  182   5.387   2.572   5.591  0.0329 -0.0567  0.1265
  133TYR     HH  183   5.465   2.549   5.643 -0.9874  0.3092  1.8913
  133TYR    CE2  184   5.235   2.758   5.578 -0.5969 -0.4281  0.1426
  133TYR    HE2  185   5.170   2.710   5.507 -2.0852 -1.6201  2.2074
  133TYR    CD2  186   5.198   2.882   5.626  0.4077 -0.1447  0.7427
  133TYR    HD2  187   5.124   2.942   5.575  1.4917  0.3691 -0.2758
  133TYR      C  188   5.051   3.015   5.952 -0.6483 -0.0083  0.0956
  133TYR      O  189   5.052   3.081   6.053 -0.1002  0.1737  0.3905
  134GLN      N  190   5.027   2.884   5.956 -0.8913  0.1729  0.0380
  134GLN      H  191   5.005   2.840   5.867 -0.2089  0.4404 -0.2653
  134GLN     CA  192   5.000   2.817   6.085  0.6565 -0.5433  0.0178
  134GLN     HA  193   4.921   2.868   6.140 -0.7840 -0.6281 -1.8668
  134GLN     CB  194   4.954   2.671   6.066 -0.1843  0.7892  0.2916
  134GLN    HB1  195   4.846   2.671   6.051 -0.3236 -0.5652  1.0760
  134GLN    HB2  196   4.964   2.611   6.157 -0.5248  0.0844 -0.1223
  134GLN     CG  197   5.031   2.590   5.952 -1.0442 -0.0280  0.6898
  134GLN    HG1  198   5.138   2.598   5.966 -1.0254  2.4899 -0.3786
  134GLN    HG2  199   5.009   2.640   5.857 -0.6978 -1.9450 -0.4624
  134GLN     CD  200   4.977   2.445   5.940 -0.5375 -1.0096 -0.2312
  134GLN    OE1  201   4.895   2.429   5.855  0.1285  0.1145  0.4133
  134GLN    NE2  202   5.017   2.352   6.023 -0.1848 -0.2447  0.1375
  134GLN   HE21  203   4.975   2.261   6.024 -1.3860  0.2875 -0.1214
  134GLN   HE22  204   5.085   2.371   6.095 -0.1904 -0.6614  0.2527
  134GLN      C  205   5.130   2.824   6.171 -0.2073 -0.8600 -0.0624
  134GLN      O  206   5.245   2.810   6.119  0.0416 -0.1663  0.0830
  135ASP      N  207   5.116   2.849   6.305 -0.2030  0.2978  0.0550
  135ASP      H  208   5.024   2.852   6.345  0.1698  1.4557  0.8795
  135ASP     CA  209   5.223   2.828   6.405  0.0490 -0.7895 -0.6384
  135ASP     HA  210   5.317   2.851   6.355 -0.4393  3.4043 -0.0124
  135ASP     CB  211   5.215   2.921   6.525 -0.3424  0.8057 -0.7034
  135ASP    HB1  212   5.294   2.892   6.594 -1.4759  0.8604  0.6768
  135ASP    HB2  213   5.116   2.901   6.565  0.0835  0.8593  0.4255
  135ASP     CG  214   5.229   3.074   6.499 -0.0557  0.4736 -0.3450
  135ASP    OD1  215   5.281   3.118   6.393 -0.1943  0.2399  0.0106
  135ASP    OD2  216   5.195   3.151   6.594 -0.0734 -0.4150 -0.0541
  135ASP      C  217   5.226   2.679   6.453 -0.8886 -0.5423 -0.3570
  135ASP      O  218   5.335   2.628   6.472 -0.5949 -0.0309  0.2186
  136TYR      N  219   5.113   2.607   6.451 -0.2917  0.0790 -0.1921
  136TYR      H  220   5.025   2.656   6.444 -1.3829 -1.7935 -0.1611
  136TYR     CA  221   5.101   2.459   6.476 -0.4647 -0.1447  0.3853
  136TYR     HA  222   5.140   2.438   6.576  1.7314  0.2159 -0.3413
  136TYR     CB  223   4.956   2.418   6.470 -0.2675  0.4438  0.0659
  136TYR    HB1  224   4.919   2.444   6.371  3.0893 -1.7312 -1.9770
  136TYR    HB2  225   4.894   2.481   6.533 -0.8082  0.9373 -0.9288
  136TYR     CG  226   4.924   2.271   6.497  0.3061 -0.6197 -0.5546
  136TYR    CD1  227   4.923   2.177   6.396  0.7308  0.3196 -0.1139
  136TYR    HD1  228   4.949   2.208   6.296 -1.4850  1.7794 -0.3185
  136TYR    CE1  229   4.885   2.043   6.431  0.2176 -0.6951 -0.3275
  136TYR    HE1  230   4.905   1.969   6.355  0.0448 -0.7394 -0.3296
  136TYR     CZ  231   4.852   2.003   6.558 -0.4923  1.1068 -0.0565
  136TYR     OH  232   4.826   1.871   6.589  0.1956 -0.3014 -0.5530
  136TYR     HH  233   4.792   1.854   6.677 -0.3272 -0.6016 -0.8116
  136TYR    CE2  234   4.848   2.105   6.656 -0.1156  0.4978  0.3676
  136TYR    HE2  235   4.817   2.084   6.758 -0.9352 -3.2313 -0.4904
  136TYR    CD2  236   4.884   2.235   6.628 -0.3957 -0.0253 -0.2724
  136TYR    HD2  237   4.874   2.311   6.704 -0.7316 -0.0535 -0.2858
  136TYR      C  238   5.188   2.387   6.368  0.1754 -0.6505 -0.6933
  136TYR      O  239   5.200   2.438   6.258  0.0618 -0.3188 -0.0717
  137GLU      N  240   5.241   2.267   6.396 -0.7903 -0.3304 -0.3403
  137GLU      H  241   5.233   2.232   6.491 -0.5292  0.7526  0.1084
  137GLU     CA  242   5.331   2.198   6.307  0.1716 -0.3804 -0.0321
  137GLU     HA  243   5.392   2.273   6.257  2.1268 -2.1215 -0.4318
  137GLU     CB  244   5.426   2.099   6.369  0.1640  0.1671 -0.0961
  137GLU    HB1  245   5.368   2.006   6.375 -2.6728  1.5456 -2.8345
  137GLU    HB2  246   5.459   2.133   6.466  0.7280  2.3893 -1.0097
  137GLU     CG  247   5.544   2.067   6.277  0.1009 -0.7414 -0.4215
  137GLU    HG1  248   5.604   2.158   6.270 -0.8747 -0.0972 -0.5057
  137GLU    HG2  249   5.513   2.043   6.176  3.0035  0.1482 -1.6300
  137GLU     CD  250   5.634   1.953   6.327  0.0175  0.6585 -1.1581
  137GLU    OE1  251   5.680   1.970   6.445 -0.2654  0.2898  0.2879
  137GLU    OE2  252   5.675   1.866   6.251 -0.0378  0.8147 -0.2896
  137GLU      C  253   5.245   2.133   6.196  0.3337  0.6603 -0.2256
  137GLU      O  254   5.166   2.044   6.225  0.3356  0.2912 -0.2882
  138PRO      N  255   5.267   2.163   6.066  0.8565  0.0122  0.2935
  138PRO     CD  256   5.364   2.256   6.012 -0.2727  0.1367  0.8903
  138PRO    HD1  257   5.464   2.236   6.051 -0.7065 -1.0220  1.4764
  138PRO    HD2  258   5.339   2.360   6.031 -0.9061  0.1764 -0.0834
  138PRO     CG  259   5.353   2.245   5.865  0.1411 -0.5610 -0.0525
  138PRO    HG1  260   5.432   2.178   5.832  0.5668 -1.0583  1.8737
  138PRO    HG2  261   5.355   2.344   5.819 -0.1311 -0.1507  0.7884
  138PRO     CB  262   5.219   2.182   5.830 -0.6133 -0.5152 -0.4396
  138PRO    HB1  263   5.145   2.262   5.826  2.2869  2.3965 -0.0309
  138PRO    HB2  264   5.226   2.119   5.742  2.1993 -0.9052 -0.0170
  138PRO     CA  265   5.193   2.093   5.958  0.0961 -0.2179  0.4737
  138PRO     HA  266   5.085   2.095   5.974  0.4256 -0.1924  3.3065
  138PRO      C  267   5.238   1.952   5.935 -0.0076 -0.3508 -0.1303
  138PRO      O  268   5.340   1.904   5.979 -0.5436 -0.3172  0.2523
  139GLU      N  269   5.171   1.878   5.845 -0.5216 -0.5649  0.2244
  139GLU      H  270   5.099   1.925   5.791 -1.3045 -0.4151  1.3775
  139GLU     CA  271   5.219   1.752   5.787 -0.4604 -0.0846 -0.0927
  139GLU     HA  272   5.273   1.684   5.853 -1.9024 -1.3592 -0.1851
  139GLU     CB  273   5.107   1.666   5.734  0.7968 -0.0107 -0.1079
  139GLU    HB1  274   5.142   1.597   5.657  0.2533  1.1837 -1.4688
  139GLU    HB2  275   5.045   1.732   5.673  0.7453  0.2724  0.2508
  139GLU     CG  276   5.031   1.598   5.853 -0.2828 -0.3758  0.0343
  139GLU    HG1  277   4.940   1.559   5.807  1.1003 -1.5641 -1.8599
  139GLU    HG2  278   4.996   1.679   5.917  1.6800 -0.4847  1.2962
  139GLU     CD  279   5.113   1.489   5.925  0.2244  0.2192 -0.2559
  139GLU    OE1  280   5.070   1.454   6.040 -0.4995 -0.0123  0.0658
  139GLU    OE2  281   5.206   1.431   5.866 -0.0881 -0.1869 -0.4088
  139GLU      C  282   5.328   1.786   5.670  0.6431  0.3798 -0.5554
  139GLU      O  283   5.310   1.891   5.614 -0.1580 -0.0458  0.2505
  140CALA     N  284   5.419   1.695   5.631  0.8035  0.4320 -0.6759
  140CALA     H  285   5.435   1.618   5.694 -0.3890 -0.2093 -1.1401
  140CALA    CA  286   5.489   1.680   5.503 -0.2457  0.0333  0.4628
  140CALA    HA  287   5.472   1.766   5.438 -3.1686 -0.7337  0.0481
  140CALA    CB  288   5.637   1.675   5.527 -0.0299  0.1838 -0.1358
  140CALA   HB1  289   5.671   1.574   5.552 -0.9776 -0.1480 -0.1275
  140CALA   HB2  290   5.663   1.737   5.613  2.0812 -0.3898 -0.2963
  140CALA   HB3  291   5.691   1.703   5.437  1.5730 -0.3243  0.6233
  140CALA     C  292   5.439   1.558   5.431 -0.0989 -0.2741  0.8799
  140CALA   OC1  293   5.454   1.444   5.475  0.4053 -0.0017  0.5360
  140CALA   OC2  294   5.389   1.576   5.318  0.3481 -0.4680 -0.0876
  141FAS      C  295   4.535   1.993   6.299  0.0391  0.2349  0.1125
  141FAS     C1  296   4.440   1.897   6.223 -0.3830 -0.3255  0.1978
  141FAS      N  297   4.376   1.966   6.099  0.2511 -0.2300  0.4935
  141FAS     C2  298   4.296   2.097   6.124 -0.1787  0.5537 -0.7200
  141FAS     C3  299   4.383   2.225   6.144 -0.2624  0.9380  0.0709
  141FAS     N1  300   4.472   2.228   6.258  0.2781 -0.0072 -0.0994
  141FAS     C4  301   4.476   2.124   6.359 -0.4664  0.3991 -0.1585
  141FAS      S  302   4.591   2.343   6.263  0.0550  0.3060 -0.3724
  141FAS      O  303   4.600   2.396   6.399 -0.0239 -0.0100 -0.2210
  141FAS     O1  304   4.705   2.275   6.204 -0.1058 -0.0189  0.2742
  141FAS     C5  305   4.541   2.475   6.157  0.5998 -0.8519  0.5740
  141FAS     C6  306   4.606   2.486   6.033  0.2926 -0.7608  0.7507
  141FAS     C7  307   4.583   2.592   5.936  0.3791  0.0151 -0.8109
  141FAS     C8  308   4.486   2.691   5.976  0.2636  0.6054  0.1431
  141FAS     C9  309   4.422   2.682   6.105  0.3026  0.0487  0.3172
  141FAS    C10  310   4.445   2.573   6.193 -0.5535 -0.2000  0.8347
  141FAS    C11  311   4.377   2.578   6.313  0.2259  0.0889  0.0478
  141FAS    C12  312   4.276   2.675   6.341  0.2539 -0.2923  0.0849
  141FAS     N2  313   4.249   2.777   6.254 -0.4277 -0.0145  0.2776
  141FAS    C13  314   4.324   2.778   6.143 -0.7806 -0.4105  0.3817
  141FAS      H  315   4.621   2.025   6.238 -0.3951  0.7341 -0.2451
  141FAS     H1  316   4.576   1.943   6.387  1.2276  1.0792  0.0631
  141FAS     H2  317   4.356   1.884   6.291  2.4580  1.9077  4.6135
  141FAS     H3  318   4.485   1.806   6.182 -1.3726 -1.2170  1.0363
  141FAS     H4  319   4.452   1.976   6.030 -0.6192 -2.6461 -0.9549
  141FAS     H5  320   4.230   2.088   6.210  1.8132  0.0302  0.8290
  141FAS     H6  321   4.226   2.106   6.040 -2.1206  0.7119  0.8501
  141FAS     H7  322   4.315   2.311   6.140 -0.7591  0.5756  0.4685
  141FAS     H8  323   4.449   2.237   6.057  0.3309 -1.0272  0.2132
  141FAS     H9  324   4.376   2.100   6.398  0.4515 -4.4604 -0.1054
  141FAS    H10  325   4.540   2.157   6.441 -0.1081  3.1192 -1.4411
  141FAS    H11  326   4.683   2.412   6.015  0.1832 -1.7771  3.8420
  141FAS    H12  327   4.627   2.590   5.837  0.9507  0.0914 -0.5620
  141FAS    H13  328   4.467   2.779   5.916 -0.3664  1.3709  1.4125
  141FAS    H14  329   4.402   2.509   6.394 -0.7731  0.3888  0.6376
  141FAS    H15  330   4.220   2.675   6.435  1.4015  1.0742  0.8059
  141FAS    H16  331   4.301   2.860   6.075 -1.5026  0.1217  1.2406
  141FAS    H17  332   4.313   1.900   6.052  1.0527  0.3490 -1.5137
  142SOL     OW  333   1.473   3.654   2.144  0.4315 -0.8815  0.5317
  142SOL    HW2  334   1.506   3.585   2.086  0.3520 -0.9375  0.5531
  142SOL    HW3  335   1.538   3.724   2.137 -0.3061 -0.2960 -0.7351
  142SOL    MW4  336   1.486   3.654   2.135  0.9004  0.1252 -0.4726
  143SOL     OW  337   5.286   4.409   1.563 -0.4867  0.2323  0.2499
  143SOL    HW2  338   5.252   4.320   1.556  0.1275  0.0469 -0.4893
  143SOL    HW3  339   5.360   4.411   1.503  0.2545  0.8948  1.1687
  143SOL    MW4  340   5.291   4.398   1.554  0.3098 -0.3181  0.2362
  144SOL     OW  341   4.907   3.566   2.747  0.4699  0.0632  0.0149
  144SOL    HW2  342   4.974   3.547   2.682  1.2382  1.3177  0.4030
  144SOL    HW3  343   4.896   3.661   2.744 -0.7528 -0.0383  0.4928
  144SOL    MW4  344   4.914   3.576   2.738 -0.6173 -0.0966 -0.5000
  145SOL     OW  345   4.806   2.877   3.125  0.0420 -0.0730  0.3600
  145SOL    HW2  346   4.866   2.881   3.199  1.3814 -0.0779 -0.6931
  145SOL    HW3  347   4.804   2.785   3.099 -0.4988 -0.0887  0.4332
  145SOL    MW4  348   4.814   2.866   3.131  0.4576 -0.2106 -0.1474
  146SOL     OW  349   4.839   1.450   0.277 -0.1528 -0.2563 -0.1758
  146SOL    HW2  350   4.818   1.391   0.205  0.4969 -0.1544 -0.4482
  146SOL    HW3  351   4.886   1.395   0.340 -0.2798 -0.2271 -0.0552
  146SOL    MW4  352   4.842   1.435   0.276  0.0353  0.5588 -0.2385
  147SOL     OW  353   2.087   5.409   5.574  0.6246  0.0960 -0.4391
  147SOL    HW2  354   2.158   5.473   5.584 -0.8328  1.5528  1.5044
  147SOL    HW3  355   2.083   5.365   5.659  1.0527 -2.0782 -1.4839
  147SOL    MW4  356   2.096   5.412   5.587 -0.1440 -0.2533 -0.1407
  148SOL     OW  357   5.048   2.113   3.008  0.6826 -0.0063  0.1663
  148SOL    HW2  358   5.084   2.183   3.063  0.1720  0.8521 -0.5801
  148SOL    HW3  359   4.960   2.142   2.987  0.1891 -1.2375  0.4550
  148SOL    MW4  360   5.041   2.126   3.013  0.2753 -0.0057  0.2933
  149SOL     OW  361   4.240   3.220   3.163  0.2142  0.3673  0.4367
  149SOL    HW2  362   4.174   3.290   3.166  1.5403  1.9599 -2.6766
  149SOL    HW3  363   4.310   3.250   3.220 -0.9881 -0.6298  2.5772
  149SOL    MW4  364   4.240   3.233   3.171  0.5136 -0.1004 -0.0563
  150SOL     OW  365   0.721   1.177   2.627  0.1024  0.3537 -0.3472
  150SOL    HW2  366   0.793   1.177   2.689  0.2601 -1.1277 -0.4948
  150SOL    HW3  367   0.716   1.087   2.595 -1.9834  0.3255 -0.1277
  150SOL    MW4  368   0.730   1.165   2.631  0.2684 -0.0014  0.3197
  151SOL     OW  369   2.651   5.435   1.341 -0.1901  0.2270  0.7383
  151SOL    HW2  370   2.560   5.448   1.317  0.2839  2.3693 -0.1263
  151SOL    HW3  371   2.694   5.411   1.259  0.3469  1.2625  0.6962
  151SOL    MW4  372   2.645   5.434   1.327 -0.3277  0.4578  0.4787
  152SOL     OW  373   2.815   5.088   2.007 -0.5037  0.7392  0.6123
  152SOL    HW2  374   2.830   5.070   1.914  0.2706  2.2788  0.4198
  152SOL    HW3  375   2.902   5.106   2.042 -0.9105  1.1947  1.4095
  152SOL    MW4  376   2.828   5.088   1.999  0.5109 -0.4085 -0.0863
  153SOL     OW  377   0.300   2.152   2.787 -0.2023  0.3113  0.0970
  153SOL    HW2  378   0.354   2.077   2.763 -0.1284  0.0346  1.0557
  153SOL    HW3  379   0.359   2.210   2.835 -0.1031  1.2999 -1.1748
  153SOL    MW4  380   0.315   2.150   2.790  0.1332 -0.3450 -0.4566
  154SOL     OW  381   0.523   4.268   4.313 -0.0352 -0.1406  0.0246
  154SOL    HW2  382   0.578   4.332   4.268  0.3396 -1.6934 -1.8123
  154SOL    HW3  383   0.567   4.184   4.300 -0.8256 -0.9022  1.8779
  154SOL    MW4  384   0.536   4.265   4.305 -0.4440 -0.3507  0.1031
  155SOL     OW  385   3.205   3.312   4.197  0.1095  0.0704  0.1775
  155SOL    HW2  386   3.270   3.249   4.165 -0.6856 -0.4624 -0.4248
  155SOL    HW3  387   3.150   3.330   4.121  0.3903  1.6027  0.3051
  155SOL    MW4  388   3.206   3.306   4.183 -0.1846  0.3637 -0.1455
  156SOL     OW  389   3.938   0.726   4.544 -0.3599  0.0895  0.2333
  156SOL    HW2  390   3.915   0.646   4.592 -0.7636  0.4705  0.6866
  156SOL    HW3  391   3.972   0.694   4.460 -1.8854 -0.5332 -0.1855
  156SOL    MW4  392   3.939   0.711   4.539 -0.4972 -0.3262 -0.4823
  157SOL     OW  393   3.687   5.131   0.123 -0.1836  0.5007  0.4208
  157SOL    HW2  394   3.765   5.177   0.092 -2.2952  3.8620 -0.3643
  157SOL    HW3  395   3.698   5.127   0.218  0.2742  2.3882  0.4919
  157SOL    MW4  396   3.699   5.137   0.131 -0.2524 -0.6398 -0.5977
  158SOL     OW  397   6.075   5.922   0.082  0.0198  0.1497  0.6647
  158SOL    HW2  398   6.107   5.944   0.170  0.1400 -0.5371  0.7996
  158SOL    HW3  399   6.044   5.832   0.090  1.4785 -0.4895 -0.3626
  158SOL    MW4  400   6.075   5.913   0.095  0.1776 -0.0027  0.0350
  159SOL     OW  401   5.836   0.912   3.158 -0.0099 -0.2104  0.2159
  159SOL    HW2  402   5.768   0.947   3.215 -0.3491 -1.0672  0.3613
  159SOL    HW3  403   5.895   0.866   3.218  1.9042  2.2402  0.3853
  159SOL    MW4  404   5.835   0.910   3.174 -0.1694 -0.5551 -0.5036
  160SOL     OW  405   6.126   4.640   5.902 -0.2250  0.0722 -0.3733
  160SOL    HW2  406   6.091   4.651   5.990 -3.2779  0.9021 -1.5679
  160SOL    HW3  407   6.144   4.546   5.894  0.7993  0.0753  1.2869
  160SOL    MW4  408   6.124   4.629   5.912 -0.2730 -0.2441 -0.0568
  161SOL     OW  409   5.227   3.780   3.939  0.4252 -0.3719 -0.4506
  161SOL    HW2  410   5.166   3.715   3.904  0.2892  0.0961 -1.1096
  161SOL    HW3  411   5.212   3.858   3.885 -1.1322  1.0308  1.8094
  161SOL    MW4  412   5.217   3.782   3.927 -0.4938  0.1736  0.3958
  162SOL     OW  413   0.228   4.704   3.460 -0.5444 -0.5313  0.5176
  162SOL    HW2  414   0.171   4.639   3.419 -1.6931  0.7638 -0.0629
  162SOL    HW3  415   0.171   4.748   3.524  0.2655 -0.2644  1.0595
  162SOL    MW4  416   0.213   4.701   3.463 -0.1790 -0.2574 -0.0788
  163SOL     OW  417   2.840   5.850   3.616 -0.1473  0.6540  0.4547
  163SOL    HW2  418   2.886   5.812   3.690  0.4877  0.4740 -0.0281
  163SOL    HW3  419   2.797   5.929   3.652  0.7718  0.9882  0.8376
  163SOL    MW4  420   2.840   5.856   3.631 -0.3307  0.0660 -0.0718
  164SOL     OW  421   3.905   4.808   4.616  0.0768 -0.2379  0.1113
  164SOL    HW2  422   3.888   4.778   4.705  0.2201 -1.8632 -0.3747
  164SOL    HW3  423   3.870   4.897   4.613  0.2983 -0.0612  1.8516
  164SOL    MW4  424   3.899   4.816   4.627  0.3871  0.4583 -0.3703
  165SOL     OW  425   6.330   1.101   2.695  0.1175 -0.1219 -0.0041
  165SOL    HW2  426   6.419   1.136   2.683 -0.2210  1.0606  0.7745
  165SOL    HW3  427   6.335   1.050   2.775 -0.1442  0.8409  0.6405
  165SOL    MW4  428   6.342   1.099   2.704 -0.0683 -0.1667  0.6572
  166SOL     OW  429   4.569   5.411   3.982  0.6415  0.0184  0.1138
  166SOL    HW2  430   4.631   5.339   3.996  1.6077  0.8148  0.0794
  166SOL    HW3  431   4.618   5.490   4.009 -0.8730  0.5310  1.5343
  166SOL    MW4  432   4.584   5.412   3.987  0.0861 -1.0608  0.6139
  167SOL     OW  433   3.721   4.476   5.315  0.2571 -0.0140  0.4543
  167SOL    HW2  434   3.650   4.539   5.319 -1.1800 -1.5510  0.0590
  167SOL    HW3  435   3.709   4.421   5.393 -0.2915 -1.5793 -0.6927
  167SOL    MW4  436   3.710   4.477   5.326 -0.2719  0.0042 -0.1323
  168SOL     OW  437   1.184   2.805   4.979 -0.2840 -0.3139 -0.8107
  168SOL    HW2  438   1.216   2.879   4.926  0.6468 -1.2813 -1.6498
  168SOL    HW3  439   1.089   2.813   4.975 -0.2994  2.5162  1.5447
  168SOL    MW4  440   1.176   2.816   4.972  0.6363  0.5753  0.1546
  169SOL     OW  441   5.095   0.271   5.076  0.4152 -0.5571  0.1937
  169SOL    HW2  442   5.027   0.209   5.050 -2.5310  2.4915 -0.1086
  169SOL    HW3  443   5.106   0.258   5.170 -0.0552 -1.5659  0.1152
  169SOL    MW4  444   5.088   0.261   5.085  0.3651 -0.4457 -0.1935
  170SOL     OW  445   0.095   0.693   2.468  0.2063 -0.0970  0.1234
  170SOL    HW2  446   0.044   0.671   2.546  2.3145  0.3420  1.6994
  170SOL    HW3  447   0.090   0.614   2.413 -1.0205 -0.5364  0.8340
  170SOL    MW4  448   0.087   0.680   2.471 -0.5665 -0.0682  0.1525
  171SOL     OW  449   4.058   0.678   3.833 -0.2956 -0.2529  0.0124
  171SOL    HW2  450   4.146   0.715   3.834 -1.0935  1.8833 -1.4286
  171SOL    HW3  451   4.054   0.630   3.750 -0.3194 -0.8345  0.3463
  171SOL    MW4  452   4.069   0.676   3.822 -0.0092 -0.1806 -0.1338
  172SOL     OW  453   0.917   0.596   1.172  0.1226  0.5227 -0.3440
  172SOL    HW2  454   0.960   0.678   1.195  2.1192 -1.1644  2.5286
  172SOL    HW3  455   0.985   0.529   1.180 -1.6043 -1.5896 -1.7841
  172SOL    MW4  456   0.931   0.598   1.176  0.0798  0.4743  0.1484
  173SOL     OW  457   4.940   3.153   3.456 -0.0512 -0.2417 -0.0787
  173SOL    HW2  458   4.851   3.124   3.432 -0.6046  0.5046  0.9837
  173SOL    HW3  459   4.953   3.234   3.408  0.0717 -0.3707 -0.2637
  173SOL    MW4  460   4.930   3.160   3.447 -0.5996 -0.2263 -0.8324
  174SOL     OW  461   3.854   1.749   5.329  0.5569  0.0701  0.7302
  174SOL    HW2  462   3.852   1.844   5.320  0.4345  0.0744  0.8086
  174SOL    HW3  463   3.767   1.726   5.361 -0.1939 -0.2898 -1.4150
  174SOL    MW4  464   3.842   1.759   5.332  0.3831 -0.4871 -0.5241
  175SOL     OW  465   4.479   3.419   1.054  0.5054  0.1696  0.5936
  175SOL    HW2  466   4.545   3.470   1.102  1.6030 -1.6017  1.0489
  175SOL    HW3  467   4.505   3.428   0.962 -0.9305  2.6193  0.3355
  175SOL    MW4  468   4.491   3.427   1.048 -0.4378  0.2052  0.3073
  176SOL     OW  469   2.600   6.219   0.559 -0.2619 -0.4094  0.5833
  176SOL    HW2  470   2.644   6.204   0.643 -0.2296 -0.6924  0.5161
  176SOL    HW3  471   2.508   6.229   0.582 -0.1992 -0.0742  0.6968
  176SOL    MW4  472   2.594   6.219   0.573 -0.7867 -0.4467 -0.0745
  177SOL     OW  473   0.758   2.039   1.232  0.0716  0.3618 -0.0617
  177SOL    HW2  474   0.673   2.044   1.189  0.3078  0.4240 -0.5295
  177SOL    HW3  475   0.808   2.112   1.195  0.7246 -0.3847 -0.6991
  177SOL    MW4  476   0.753   2.049   1.221  1.0296 -0.3970  0.1135
  178SOL     OW  477   3.415   5.656   4.924  0.3615 -0.2047 -0.3370
  178SOL    HW2  478   3.406   5.632   5.017 -1.3103  2.3947  0.2853
  178SOL    HW3  479   3.508   5.679   4.915  0.8530 -1.7648  0.2942
  178SOL    MW4  480   3.426   5.656   4.935  0.5710 -0.0034  0.1762
  179SOL     OW  481   2.165   4.477   2.009  0.4088  0.0336 -0.6458
  179SOL    HW2  482   2.232   4.545   2.016 -0.1691  0.5627 -0.1359
  179SOL    HW3  483   2.084   4.520   2.035  0.0118 -0.8217 -0.4199
  179SOL    MW4  484   2.163   4.491   2.013  0.3696 -0.4982  0.3781
  180SOL     OW  485   3.296   0.000   5.267 -0.3327 -0.0527 -0.2390
  180SOL    HW2  486   3.335  -0.010   5.354  1.4140  2.5573 -0.6191
  180SOL    HW3  487   3.287   0.095   5.255  1.3502 -0.1452 -3.6239
  180SOL    MW4  488   3.300   0.011   5.277 -0.1091 -0.5343 -0.2105
  181SOL     OW  489   4.071   1.910   1.904 -0.3852  0.0617 -0.2446
  181SOL    HW2  490   4.020   1.948   1.833  0.3426  0.1892 -0.7087
  181SOL    HW3  491   4.159   1.899   1.868 -0.2815 -0.9290  0.2773
  181SOL    MW4  492   4.076   1.914   1.890 -0.1715  0.4342 -0.0451
  182SOL     OW  493   6.121   1.671   4.001  0.4049 -0.6443 -0.0307
  182SOL    HW2  494   6.201   1.679   4.053  0.6171 -1.6388 -0.1734
  182SOL    HW3  495   6.099   1.578   4.005 -0.9853 -0.3238  0.3470
  182SOL    MW4  496   6.129   1.660   4.008 -0.1141  0.0427 -0.3630
  183SOL     OW  497   5.786   5.357   1.599  0.7498 -0.7635 -0.2516
  183SOL    HW2  498   5.764   5.380   1.689  2.0153 -1.5176  0.2754
  183SOL    HW3  499   5.735   5.417   1.545 -1.1695 -1.2804  0.9159
  183SOL    MW4  500   5.777   5.368   1.604 -0.1235  0.1350  0.1988
  184SOL     OW  501   0.548   0.888   5.267  0.4178 -0.4529 -0.0685
  184SOL    HW2  502   0.639   0.882   5.296  0.0814 -1.1213  0.8907
  184SOL    HW3  503   0.553   0.931   5.181  1.5523  0.3809  0.3890
  184SOL    MW4  504   0.561   0.893   5.259 -0.1872  0.0195  0.3834
  185SOL     OW  505   5.219   3.153   2.002  0.0371  0.5680 -0.7171
  185SOL    HW2  506   5.210   3.208   2.080 -0.0637  0.8733 -0.9419
  185SOL    HW3  507   5.130   3.125   1.982  0.3562 -2.1719  1.1519
  185SOL    MW4  508   5.206   3.156   2.010 -0.2164 -0.2500 -0.4837
  186SOL     OW  509   1.781   5.807   1.124  1.1307  0.0914  0.0610
  186SOL    HW2  510   1.777   5.715   1.099 -2.3949  0.4181 -1.1076
  186SOL    HW3  511   1.801   5.853   1.043 -0.9373  0.5232 -0.2679
  186SOL    MW4  512   1.783   5.801   1.110  0.3606  0.3487  0.4683
  187SOL     OW  513   1.709   6.038   1.291 -0.5772 -0.6208  0.2581
  187SOL    HW2  514   1.724   5.973   1.223 -0.7128  0.0698 -0.4405
  187SOL    HW3  515   1.623   6.075   1.270  1.1191  2.6184 -1.7590
  187SOL    MW4  516   1.700   6.035   1.279  0.0739 -0.6381 -0.0240
  188SOL     OW  517   2.894   0.365   0.753  0.1152  0.5663  0.2466
  188SOL    HW2  518   2.809   0.326   0.776  0.2693  0.2971  0.3668
  188SOL    HW3  519   2.900   0.354   0.659  0.0345  0.5470  0.2433
  188SOL    MW4  520   2.883   0.358   0.744 -0.4553  0.0632  0.3719
  189SOL     OW  521   1.937   0.451   3.024  0.1997  0.6011 -0.2220
  189SOL    HW2  522   2.011   0.505   3.051  1.3521 -0.9837 -0.0592
  189SOL    HW3  523   1.931   0.384   3.092 -2.1048  1.2943  0.3493
  189SOL    MW4  524   1.946   0.449   3.037  0.6206  0.1481  0.2012
  190SOL     OW  525   1.971   4.076   5.049  0.4266  0.0100 -0.3028
  190SOL    HW2  526   1.962   4.171   5.044  3.2053  0.3814  0.4949
  190SOL    HW3  527   1.938   4.053   5.135  1.4681  0.5361  0.2573
  190SOL    MW4  528   1.965   4.086   5.059 -0.4624  0.9074  0.0096
  191SOL     OW  529   3.354   5.051   3.997  0.1155 -0.1040  0.2368
  191SOL    HW2  530   3.333   4.958   3.994  1.3351 -0.3800 -0.4387
  191SOL    HW3  531   3.297   5.091   3.931  0.1705 -0.4894 -0.0408
  191SOL    MW4  532   3.344   5.044   3.988 -0.5982  0.2580 -0.0307
  192SOL     OW  533   0.185   3.274   3.352  0.4208 -0.2331  0.5876
  192SOL    HW2  534   0.106   3.287   3.403  0.5212  0.1880  0.6383
  192SOL    HW3  535   0.175   3.332   3.276  0.4258 -0.5977  0.3078
  192SOL    MW4  536   0.174   3.283   3.348  0.7198  0.1128  0.8836
  193SOL     OW  537   0.272   0.874   5.278 -0.1730 -0.7580 -0.0336
  193SOL    HW2  538   0.363   0.891   5.300  0.0444 -2.2044  0.2577
  193SOL    HW3  539   0.275   0.802   5.215 -1.0699 -0.1113 -0.8529
  193SOL    MW4  540   0.284   0.867   5.273  0.1254 -0.4193  0.3289
  194SOL     OW  541   5.501   5.775   3.623 -0.1876 -0.3888 -0.4062
  194SOL    HW2  542   5.445   5.816   3.557  0.5588  2.1449  0.4277
  194SOL    HW3  543   5.439   5.738   3.687 -0.8863 -1.0940 -1.4560
  194SOL    MW4  544   5.485   5.776   3.623 -0.3422  0.1232 -0.3842
  195SOL     OW  545   2.245   4.421   6.250 -0.2954  0.5977 -0.2638
  195SOL    HW2  546   2.238   4.487   6.181 -1.0398 -1.4588 -2.3109
  195SOL    HW3  547   2.335   4.389   6.243  0.1577  1.5565  0.9283
  195SOL    MW4  548   2.256   4.425   6.240 -0.3278 -0.9258 -0.5510
  196SOL     OW  549   5.391   4.840   4.109 -0.3017  0.3181 -1.0445
  196SOL    HW2  550   5.438   4.834   4.025 -0.3506 -1.3455 -0.9852
  196SOL    HW3  551   5.369   4.749   4.130  1.9922  0.3256  2.0797
  196SOL    MW4  552   5.394   4.827   4.100 -0.3917  0.1306 -0.0695
  197SOL     OW  553   2.939   0.687   2.191  0.0832 -0.3215  0.1053
  197SOL    HW2  554   2.857   0.692   2.239  1.0329 -1.1321  1.8897
  197SOL    HW3  555   2.947   0.772   2.148 -0.6925  0.5518  1.6162
  197SOL    MW4  556   2.929   0.699   2.192 -0.0340 -0.0724 -0.0596
  198SOL     OW  557   1.243   3.125   6.015  0.3900  0.5419  0.2601
  198SOL    HW2  558   1.304   3.161   6.080  0.6063  0.8636 -0.1142
  198SOL    HW3  559   1.242   3.031   6.032 -0.2214  0.7205  1.2920
  198SOL    MW4  560   1.251   3.118   6.026  0.2435  0.5073 -0.2906
  199SOL     OW  561   5.618   2.032   3.298  0.2616  0.1733 -0.7306
  199SOL    HW2  562   5.593   1.944   3.328 -0.1602  0.5671  0.1139
  199SOL    HW3  563   5.535   2.078   3.288  0.5218  0.7886 -0.1471
  199SOL    MW4  564   5.603   2.027   3.301 -0.8142 -0.4009 -0.0499
  200SOL     OW  565   1.010   0.879   6.155  0.0557  0.1124  0.8113
  200SOL    HW2  566   1.053   0.902   6.073  4.7244 -2.1279  2.2762
  200SOL    HW3  567   0.962   0.799   6.136 -1.0518  0.9976 -0.2244
  200SOL    MW4  568   1.010   0.872   6.142 -0.4516 -0.6977 -0.0756
  201SOL     OW  569   0.411   5.526   1.792 -0.3106 -0.3511  0.7623
  201SOL    HW2  570   0.453   5.611   1.798 -0.0270 -0.5381  1.6585
  201SOL    HW3  571   0.404   5.496   1.883  0.9015 -1.9158  0.3834
  201SOL    MW4  572   0.415   5.533   1.805 -0.6721 -0.2442  0.1198
  202SOL     OW  573   1.324   4.660   2.851  0.6318 -0.2446  0.5998
  202SOL    HW2  574   1.239   4.684   2.815  1.4815  0.4331 -1.0580
  202SOL    HW3  575   1.344   4.576   2.810  0.7871 -0.3831  0.9580
  202SOL    MW4  576   1.315   4.652   2.841 -0.0984  0.4142  0.2909
  203SOL     OW  577   3.399   5.874   5.192  0.0562  0.2320 -0.1463
  203SOL    HW2  578   3.413   5.781   5.211  0.4956  0.5623  1.1842
  203SOL    HW3  579   3.487   5.909   5.179 -0.1438  0.3373 -1.3991
  203SOL    MW4  580   3.412   5.866   5.193  0.1126  0.8977  0.1974
  204SOL     OW  581   0.472   3.356   5.439 -0.3875  0.1339 -0.2132
  204SOL    HW2  582   0.402   3.417   5.462 -1.3953 -0.7975 -0.6991
  204SOL    HW3  583   0.473   3.292   5.510 -0.7895 -0.4814 -0.7528
  204SOL    MW4  584   0.463   3.356   5.452 -0.3595 -0.1408 -0.6746
  205SOL     OW  585   6.056   6.126   3.654  0.0088 -0.3091  0.2000
  205SOL    HW2  586   6.026   6.214   3.678  0.9900  1.1630 -3.3277
  205SOL    HW3  587   6.148   6.125   3.679 -0.4812 -1.2637  2.2215
  205SOL    MW4  588   6.064   6.138   3.661 -0.1303  0.1347  0.1562
  206SOL     OW  589   4.715   0.956   0.628 -0.3268  0.0036  0.4574
  206SOL    HW2  590   4.726   0.882   0.688  1.0288 -0.1975 -0.0016
  206SOL    HW3  591   4.787   0.947   0.566 -1.1390  0.7602 -0.6293
  206SOL    MW4  592   4.726   0.945   0.628  0.1961 -0.7479  0.2509
  207SOL     OW  593   3.672   2.740   5.559 -0.1004 -0.2413 -0.6156
  207SOL    HW2  594   3.737   2.704   5.619 -0.8373  0.1590  0.4348
  207SOL    HW3  595   3.663   2.832   5.586 -4.0672 -1.1682  2.0341
  207SOL    MW4  596   3.680   2.748   5.570 -0.0154  0.5123  0.0609
  208SOL     OW  597   4.319   4.382   3.324 -0.5215 -0.0411 -0.1643
  208SOL    HW2  598   4.270   4.460   3.296 -0.6666  0.1275  0.5547
  208SOL    HW3  599   4.349   4.403   3.412 -0.5623 -0.8048  0.0331
  208SOL    MW4  600   4.316   4.395   3.332  0.1140  0.1169  0.1284
  209SOL     OW  601   3.818   3.838   1.206  0.6657 -0.0808 -0.2397
  209SOL    HW2  602   3.800   3.769   1.270  1.1025 -0.6677 -0.7323
  209SOL    HW3  603   3.897   3.881   1.239  1.9448 -1.5136 -1.2335
  209SOL    MW4  604   3.826   3.834   1.219  0.2627  0.0106 -0.3743
  210SOL     OW  605   2.676   0.137   3.117 -0.1562 -0.3161 -1.0399
  210SOL    HW2  606   2.618   0.168   3.186 -1.9968 -2.7059 -1.4008
  210SOL    HW3  607   2.628   0.151   3.036  0.9156  0.1301 -1.6228
  210SOL    MW4  608   2.662   0.143   3.115 -0.1908  0.1507 -0.0149
  211SOL     OW  609   3.002   6.405   1.692 -0.1400 -0.3067  0.4599
  211SOL    HW2  610   3.033   6.380   1.779  0.5339 -1.3157 -0.0498
  211SOL    HW3  611   3.079   6.438   1.648 -0.6679  1.0507  0.5276
  211SOL    MW4  612   3.016   6.406   1.698 -0.2178  0.1332  0.3500
  212SOL     OW  613   1.825   2.523   3.680  0.0652  0.2848  0.3091
  212SOL    HW2  614   1.772   2.573   3.743  0.2733 -0.5495  1.1742
  212SOL    HW3  615   1.842   2.440   3.724  0.8857 -0.0173 -0.5475
  212SOL    MW4  616   1.820   2.519   3.694  0.1863 -0.7185 -0.0183
  213SOL     OW  617   5.014   1.916   4.613 -0.1506  0.3961  0.6952
  213SOL    HW2  618   5.071   1.987   4.584  0.1204 -0.2323 -0.3704
  213SOL    HW3  619   5.049   1.838   4.571 -1.7659 -0.0168  0.0389
  213SOL    MW4  620   5.026   1.915   4.604 -0.1917 -0.0450  0.2679
  214SOL     OW  621   0.944   4.882   4.777  0.0224  0.3137 -0.1936
  214SOL    HW2  622   0.912   4.941   4.709  0.1352  0.6353  0.0333
  214SOL    HW3  623   1.036   4.906   4.787  1.0910 -2.1429 -2.5403
  214SOL    MW4  624   0.952   4.893   4.769 -0.2586  0.5629  0.2408
  215SOL     OW  625   5.555   1.251   3.422 -1.0492 -0.4621 -0.4092
  215SOL    HW2  626   5.531   1.327   3.368 -0.8840 -0.0555  0.0820
  215SOL    HW3  627   5.648   1.263   3.439 -1.3456  0.0615  0.9707
  215SOL    MW4  628   5.564   1.263   3.417  0.0236  0.1164 -0.8185
  216SOL     OW  629   5.828   5.977   2.677  0.8781  0.0198  0.2270
  216SOL    HW2  630   5.813   6.057   2.726  0.0392  0.6837 -1.0687
  216SOL    HW3  631   5.901   5.997   2.619 -0.7032  0.6148 -1.6461
  216SOL    MW4  632   5.836   5.990   2.676 -0.5050  0.0600  0.6267
  217SOL     OW  633   5.690   4.120   1.424 -0.2273  0.1921  0.3273
  217SOL    HW2  634   5.683   4.052   1.358  0.9528  1.0649 -0.7673
  217SOL    HW3  635   5.758   4.179   1.390  2.7282 -0.9042  3.7119
  217SOL    MW4  636   5.698   4.119   1.411  0.5587 -0.2330  0.3299
  218SOL     OW  637   3.102   2.329   4.759 -0.3576  0.5666  0.1923
  218SOL    HW2  638   3.118   2.408   4.810  1.0167 -0.0353  0.7484
  218SOL    HW3  639   3.086   2.261   4.824 -0.8710  0.2528 -0.2560
  218SOL    MW4  640   3.102   2.331   4.774  0.5720 -0.2114  0.4631
  219SOL     OW  641   2.824   0.173   4.480 -0.1993  0.0071 -0.1440
  219SOL    HW2  642   2.823   0.107   4.411 -0.6639 -0.5064  0.3435
  219SOL    HW3  643   2.903   0.224   4.464 -1.1333  0.9942 -2.0720
  219SOL    MW4  644   2.834   0.171   4.469  0.4504 -0.9324 -0.3929
  220SOL     OW  645   0.321   5.709   3.965 -0.2807 -0.2069  0.1945
  220SOL    HW2  646   0.403   5.726   4.012  0.0177  0.1561 -0.4509
  220SOL    HW3  647   0.334   5.748   3.879 -0.4867 -1.5997 -0.5022
  220SOL    MW4  648   0.333   5.716   3.960  0.1810 -0.3222  0.3173
  221SOL     OW  649   1.564   4.217   4.164  0.1493  0.2934 -0.1694
  221SOL    HW2  650   1.515   4.149   4.211 -0.2385 -0.2200 -1.2845
  221SOL    HW3  651   1.561   4.293   4.223 -1.4074  0.0626  0.0951
  221SOL    MW4  652   1.557   4.218   4.178  0.0918 -0.2514 -0.4737
  222SOL     OW  653   0.332   4.012   3.611 -0.2332 -0.3131 -0.0629
  222SOL    HW2  654   0.414   4.059   3.622 -0.9410  0.8927  0.2574
  222SOL    HW3  655   0.329   3.950   3.685  0.2714 -0.1898  0.0608
  222SOL    MW4  656   0.342   4.010   3.622  0.1852  0.0561  0.1122
  223SOL     OW  657   0.567   0.694   0.465  0.1209  0.1082  0.8150
  223SOL    HW2  658   0.494   0.647   0.426  2.3821 -3.6522  0.5916
  223SOL    HW3  659   0.562   0.674   0.558  0.9933 -0.4910  0.7513
  223SOL    MW4  660   0.557   0.685   0.472 -0.1812 -0.3233 -0.6759
  224SOL     OW  661   0.416   4.969   3.134 -0.5619  0.4546  0.0394
  224SOL    HW2  662   0.494   5.021   3.112  1.2006 -1.6354  0.9052
  224SOL    HW3  663   0.408   4.977   3.229  0.0720 -1.1569  0.2678
  224SOL    MW4  664   0.426   4.977   3.143  0.3410 -0.1433 -0.1972
  225SOL     OW  665   1.755   6.263   2.212 -0.5194  0.0401 -0.2523
  225SOL    HW2  666   1.701   6.339   2.232  2.4170  1.9576  1.2839
  225SOL    HW3  667   1.801   6.286   2.131 -3.0140 -2.2822 -2.5242
  225SOL    MW4  668   1.754   6.276   2.204 -0.6629 -0.4263  0.6400
  226SOL     OW  669   0.197   1.095   2.592 -0.0382 -0.0559  0.3006
  226SOL    HW2  670   0.265   1.134   2.536 -0.6050  0.8052  0.1960
  226SOL    HW3  671   0.193   1.153   2.668 -1.6153  0.7134 -0.3350
  226SOL    MW4  672   0.206   1.108   2.595  0.5435  0.0709 -0.3678
  227SOL     OW  673   0.905   6.405   0.780 -0.0390  0.9286  0.0221
  227SOL    HW2  674   0.995   6.385   0.806 -0.8363 -0.6192  1.8370
  227SOL    HW3  675   0.881   6.334   0.722  0.6250  2.6149 -2.4536
  227SOL    MW4  676   0.914   6.393   0.776 -0.0554 -0.0150  0.0272
  228SOL     OW  677   6.354   0.561   6.195 -0.3262 -0.7238 -0.1636
  228SOL    HW2  678   6.309   0.515   6.266 -2.3721 -0.5905 -1.2846
  228SOL    HW3  679   6.322   0.651   6.200  2.0457  0.1529  0.7076
  228SOL    MW4  680   6.344   0.567   6.205  0.1403 -1.3671 -0.0942
  229SOL     OW  681   3.124   0.885   0.819 -0.2109  0.4807 -0.2661
  229SOL    HW2  682   3.046   0.940   0.812  0.7321  1.8877 -0.0492
  229SOL    HW3  683   3.143   0.882   0.912 -0.8402 -1.1187 -0.1548
  229SOL    MW4  684   3.116   0.892   0.830  0.0419 -0.1390 -0.0600
  230SOL     OW  685   2.679   2.652   5.123 -0.5546  0.0016 -0.6193
  230SOL    HW2  686   2.697   2.723   5.184 -1.3504  0.2139 -0.6236
  230SOL    HW3  687   2.637   2.695   5.048 -0.9624 -0.4603 -0.6584
  230SOL    MW4  688   2.676   2.667   5.121 -0.3565  0.5149 -0.1150
  231SOL     OW  689   2.125   1.697   5.099  0.1227 -0.1905 -0.1640
  231SOL    HW2  690   2.031   1.686   5.085  0.3773 -0.9160 -1.4831
  231SOL    HW3  691   2.135   1.786   5.132 -1.0031 -0.0011 -0.3170
  231SOL    MW4  692   2.114   1.707   5.101 -0.5333  0.4744  0.3701
  232SOL     OW  693   6.324   0.287   4.158 -0.2681  0.6497  0.2853
  232SOL    HW2  694   6.322   0.275   4.253 -1.1066  1.1973  0.3479
  232SOL    HW3  695   6.241   0.330   4.138  0.8753  2.6533 -0.3958
  232SOL    MW4  696   6.313   0.291   4.168  0.3622  0.8146 -0.1801
  233SOL     OW  697   3.793   2.651   5.311  0.2114  0.5360 -0.4207
  233SOL    HW2  698   3.742   2.683   5.386  0.6357 -0.7284  0.4372
  233SOL    HW3  699   3.814   2.730   5.261 -0.2093  1.3917  0.7099
  233SOL    MW4  700   3.789   2.666   5.314 -0.6492 -0.3358  0.3873
  234SOL     OW  701   3.809   6.026   2.667  0.1872  0.4328 -0.1512
  234SOL    HW2  702   3.739   5.962   2.654  0.1267  0.5454 -0.3828
  234SOL    HW3  703   3.837   6.013   2.758  1.0893 -0.8417 -0.5862
  234SOL    MW4  704   3.803   6.016   2.678  0.3268  0.1873  0.4086
  235SOL     OW  705   4.029   5.845   2.620 -0.0949  0.0875  0.8497
  235SOL    HW2  706   3.984   5.929   2.624  0.2470  0.4168 -1.1453
  235SOL    HW3  707   4.119   5.868   2.597 -0.4153 -0.8654 -1.6593
  235SOL    MW4  708   4.035   5.859   2.618 -0.0345  0.3987  0.6327
  236SOL     OW  709   6.314   5.895   1.572  0.2285  0.0799 -0.0590
  236SOL    HW2  710   6.324   5.955   1.498  1.6858  0.5102  0.4523
  236SOL    HW3  711   6.381   5.828   1.557 -0.4218 -0.6192  0.1350
  236SOL    MW4  712   6.324   5.894   1.560 -0.3095  0.4257  0.2144
  237SOL     OW  713   0.794   1.663   4.528  0.2937 -0.6804 -0.2975
  237SOL    HW2  714   0.825   1.574   4.509  1.0943 -0.7983  1.3696
  237SOL    HW3  715   0.735   1.652   4.602  0.7491  0.2118  0.2145
  237SOL    MW4  716   0.791   1.649   4.535  0.3446 -1.0966  0.1700
  238SOL     OW  717   4.351   1.870   5.008  0.1297 -0.0850  0.1046
  238SOL    HW2  718   4.355   1.885   4.914 -1.2679  0.9189  0.1864
  238SOL    HW3  719   4.368   1.956   5.047  0.4300 -0.4397  0.7794
  238SOL    MW4  720   4.354   1.883   5.001 -0.0594 -0.6449 -0.9407
  239SOL     OW  721   4.877   4.710   0.267  0.2975  0.0901 -0.1501
  239SOL    HW2  722   4.786   4.715   0.239 -0.1331  1.5461  1.3568
  239SOL    HW3  723   4.895   4.795   0.307  2.3635 -0.1249 -0.5001
  239SOL    MW4  724   4.868   4.722   0.269  0.0264  0.1607 -0.1269
  240SOL     OW  725   3.047   2.228   5.983  0.2942 -0.2656 -0.1469
  240SOL    HW2  726   3.097   2.229   6.065  0.8268  1.9602 -0.4530
  240SOL    HW3  727   3.090   2.161   5.930  1.0494 -0.4963  0.7355
  240SOL    MW4  728   3.059   2.219   5.987  0.9136  0.0375 -0.1254
  241SOL     OW  729   5.776   5.362   5.329  0.0717 -0.3680 -0.3186
  241SOL    HW2  730   5.809   5.384   5.416 -0.1522 -1.1814 -0.0253
  241SOL    HW3  731   5.815   5.278   5.308 -0.4617 -0.5327 -0.6852
  241SOL    MW4  732   5.785   5.354   5.338 -0.4098  0.1612 -0.0490
  242SOL     OW  733   4.690   1.785   3.537 -0.4192  0.0300  0.6055
  242SOL    HW2  734   4.704   1.725   3.611 -1.2736  1.4210  1.9455
  242SOL    HW3  735   4.683   1.871   3.577  1.8921  1.2601 -1.3531
  242SOL    MW4  736   4.691   1.788   3.552 -0.0532  0.2941  0.5548
  243SOL     OW  737   2.283   1.263   5.214  0.0654  0.6140 -0.0333
  243SOL    HW2  738   2.194   1.237   5.236 -0.3763  1.6255 -0.5355
  243SOL    HW3  739   2.318   1.302   5.295  0.3040 -0.3930  0.3603
  243SOL    MW4  740   2.276   1.265   5.227 -0.0979 -0.4642  0.5093
  244SOL     OW  741   0.593   0.437   6.098  0.8104 -0.5305  0.1433
  244SOL    HW2  742   0.636   0.414   6.015  0.8449  0.0008  0.0131
  244SOL    HW3  743   0.624   0.526   6.117  0.1678 -0.3392  0.3131
  244SOL    MW4  744   0.603   0.446   6.090  0.6785  0.3003 -0.2729
  245SOL     OW  745   3.629   0.372   6.010 -0.1950 -0.2868 -0.1275
  245SOL    HW2  746   3.610   0.452   6.058  0.2161  0.7037 -1.5267
  245SOL    HW3  747   3.719   0.384   5.978 -0.5738 -0.7011 -1.4294
  245SOL    MW4  748   3.639   0.384   6.012  0.3271  0.3634  0.3039
  246SOL     OW  749   1.266   1.880   0.117 -0.1501  0.3929 -0.1888
  246SOL    HW2  750   1.316   1.799   0.104 -1.5855 -0.3542 -1.3291
  246SOL    HW3  751   1.300   1.916   0.198  0.6139 -1.2949  0.2919
  246SOL    MW4  752   1.277   1.874   0.126 -0.9020 -0.5300 -0.1126
  247SOL     OW  753   2.115   4.904   1.010  0.2380 -0.0188  0.2071
  247SOL    HW2  754   2.112   4.907   0.915  0.2732 -1.8099  0.1170
  247SOL    HW3  755   2.208   4.908   1.031  0.2009  1.0417  0.2194
  247SOL    MW4  756   2.127   4.905   1.000  0.1498  0.0856  0.3730
  248SOL     OW  757   0.836   4.306   1.974 -0.3419  0.3500 -0.4348
  248SOL    HW2  758   0.910   4.255   1.942 -1.2681 -1.8867  0.7201
  248SOL    HW3  759   0.841   4.298   2.070 -1.3494  1.2303 -0.2930
  248SOL    MW4  760   0.846   4.298   1.983 -0.3214 -0.1199 -0.0317
  249SOL     OW  761   3.597   2.672   6.331 -0.1147 -0.2014 -0.3278
  249SOL    HW2  762   3.589   2.580   6.306  1.2702 -1.0552  2.0677
  249SOL    HW3  763   3.506   2.705   6.332 -0.5935 -1.4218 -1.5435
  249SOL    MW4  764   3.584   2.664   6.328  0.7285  0.2315  0.0862
  250SOL     OW  765   6.323   6.207   3.352  0.2072  0.2921  0.1180
  250SOL    HW2  766   6.404   6.157   3.346 -0.8824 -1.3834 -1.6143
  250SOL    HW3  767   6.254   6.141   3.364 -1.0143  1.5822  0.5208
  250SOL    MW4  768   6.324   6.192   3.353  0.1158  0.3596 -0.2720
  251SOL     OW  769   1.190   5.436   3.831 -0.0486  0.3950  0.6159
  251SOL    HW2  770   1.229   5.519   3.860 -0.8397  1.4969 -1.3362
  251SOL    HW3  771   1.254   5.399   3.770  1.5073 -1.8089  3.3373
  251SOL    MW4  772   1.204   5.442   3.827  0.2992  0.2250 -0.7013
  252SOL     OW  773   6.110   0.486   4.983  0.1794 -0.1311 -0.6166
  252SOL    HW2  774   6.019   0.476   5.013  0.2657 -1.4490 -0.7387
  252SOL    HW3  775   6.108   0.564   4.927 -1.1959 -1.0047 -1.8441
  252SOL    MW4  776   6.097   0.495   4.980  0.2502 -0.2864 -0.4078
  253SOL     OW  777   6.405   1.378   4.911  0.4969  0.3874  0.3542
  253SOL    HW2  778   6.334   1.314   4.900  1.3446 -0.8202  1.5339
  253SOL    HW3  779   6.482   1.334   4.875  1.1930  0.5068  1.6228
  253SOL    MW4  780   6.405   1.363   4.905  0.0054 -0.3386  0.4003
  254SOL     OW  781   1.810   3.045   5.729 -0.1958 -0.1395 -0.6020
  254SOL    HW2  782   1.871   3.106   5.686 -0.9628  0.6087 -0.6568
  254SOL    HW3  783   1.827   3.055   5.822 -0.6421  0.5237 -0.5846
  254SOL    MW4  784   1.820   3.054   5.735 -0.1234  0.2346 -0.7456
  255SOL     OW  785   5.075   5.341   3.370  0.2437  0.5355  0.3351
  255SOL    HW2  786   5.048   5.259   3.412 -1.1753  0.0072 -1.4860
  255SOL    HW3  787   5.170   5.332   3.358 -0.2827 -2.8306 -3.5801
  255SOL    MW4  788   5.084   5.329   3.374  0.1565  0.3904 -0.7363
  256SOL     OW  789   5.429   1.285   0.188 -0.4421 -0.3748 -0.7257
  256SOL    HW2  790   5.356   1.278   0.250 -1.4140  0.7481 -1.6976
  256SOL    HW3  791   5.500   1.324   0.239  0.0998 -2.9246  0.6764
  256SOL    MW4  792   5.429   1.289   0.203 -0.3793 -0.6439  0.2250
  257SOL     OW  793   6.338   2.751   5.325  0.1210  0.8029  0.6533
  257SOL    HW2  794   6.414   2.796   5.288 -0.2032 -0.6578 -2.0666
  257SOL    HW3  795   6.367   2.660   5.335 -1.4910 -0.0428 -1.5308
  257SOL    MW4  796   6.352   2.745   5.321  0.1250 -0.0152 -0.6098
  258SOL     OW  797   2.458   3.069   4.536  0.2075 -0.0181 -0.2548
  258SOL    HW2  798   2.381   3.016   4.517  0.3684  0.3529 -2.1288
  258SOL    HW3  799   2.512   3.062   4.457  1.6104  0.5630  0.6184
  258SOL    MW4  800   2.455   3.061   4.523 -0.2574 -0.1533  0.2093
  259SOL     OW  801   4.689   0.378   0.670  0.0735 -0.6204 -0.4550
  259SOL    HW2  802   4.635   0.323   0.612  2.3857 -1.6233 -1.7837
  259SOL    HW3  803   4.737   0.435   0.610  0.3105  0.4433  0.7129
  259SOL    MW4  804   4.688   0.379   0.654  0.1078  0.0037  0.3771
  260SOL     OW  805   1.818   0.560   2.487  0.3197 -0.2479  0.2323
  260SOL    HW2  806   1.819   0.620   2.413 -1.3048  0.2507  0.5829
  260SOL    HW3  807   1.910   0.545   2.507  0.7855  2.1937  0.1974
  260SOL    MW4  808   1.830   0.566   2.480  0.4822 -0.7857  0.0445
  261SOL     OW  809   4.767   6.079   4.337  0.1345 -0.3227  0.6630
  261SOL    HW2  810   4.862   6.070   4.334  0.2208  0.6040 -1.0921
  261SOL    HW3  811   4.737   6.039   4.255 -1.0929 -1.3494  1.5649
  261SOL    MW4  812   4.776   6.072   4.326  0.1513 -0.0195 -0.5445
  262SOL     OW  813   4.431   3.627   1.847  0.1117  0.6324 -0.1087
  262SOL    HW2  814   4.376   3.593   1.776 -2.6568  0.9236  1.7451
  262SOL    HW3  815   4.480   3.551   1.878  1.0027  0.3967 -1.9111
  262SOL    MW4  816   4.430   3.612   1.841  0.3245 -0.6003  0.1491
  263SOL     OW  817   5.130   5.106   5.986 -0.0050 -0.0528  0.0208
  263SOL    HW2  818   5.189   5.032   5.997 -0.5837 -0.8239 -1.6796
  263SOL    HW3  819   5.044   5.073   6.014 -0.0931  0.2708  0.1423
  263SOL    MW4  820   5.126   5.092   5.991  0.3177 -0.3411 -0.3675
  264SOL     OW  821   2.256   4.433   3.126 -0.0616  0.0812 -0.2555
  264SOL    HW2  822   2.260   4.381   3.207 -1.3359 -1.1677 -0.9293
  264SOL    HW3  823   2.205   4.510   3.150 -0.5995 -0.3747  0.1184
  264SOL    MW4  824   2.250   4.436   3.140  0.5272  0.0643 -0.4038
  265SOL     OW  825   5.992   0.729   3.723 -0.5976  0.2161  0.5581
  265SOL    HW2  826   6.051   0.654   3.718  1.9602  2.1045  0.5141
  265SOL    HW3  827   5.932   0.717   3.650 -0.0714 -1.6222  0.3801
  265SOL    MW4  828   5.992   0.717   3.713 -0.0871  0.4506 -0.0622
  266SOL     OW  829   5.639   3.067   2.331  0.3687 -0.3247 -0.0172
  266SOL    HW2  830   5.551   3.033   2.350  0.5048  0.5151  2.4886
  266SOL    HW3  831   5.643   3.151   2.377  1.7746  0.7403 -1.9090
  266SOL    MW4  832   5.628   3.074   2.339  0.3042 -0.3497  0.0185
  267SOL     OW  833   4.458   4.840   1.673 -0.1552 -0.0884  0.0803
  267SOL    HW2  834   4.500   4.820   1.756  0.9756  2.5726  0.2491
  267SOL    HW3  835   4.529   4.843   1.610 -0.5967  0.7489 -0.3942
  267SOL    MW4  836   4.473   4.838   1.676 -0.0649  0.6904  0.4239
  268SOL     OW  837   2.327   2.779   2.426  0.2167  0.3810 -0.1566
  268SOL    HW2  838   2.240   2.802   2.458 -0.4429 -0.7830 -1.0419
  268SOL    HW3  839   2.376   2.755   2.505 -0.9851 -1.2056  0.1702
  268SOL    MW4  840   2.322   2.779   2.441  0.0063  0.3545 -0.2106
  269SOL     OW  841   0.956   5.241   6.080 -0.0504 -0.0407  0.5125
  269SOL    HW2  842   1.020   5.199   6.139 -0.8635 -0.6933  0.9551
  269SOL    HW3  843   0.884   5.268   6.138 -1.0592 -1.0797 -0.2142
  269SOL    MW4  844   0.955   5.239   6.095 -0.3111 -0.2384  0.7157
  270SOL     OW  845   5.402   4.455   3.566  0.2204  0.1940 -0.0882
  270SOL    HW2  846   5.478   4.502   3.531  2.0785 -1.0471  1.9501
  270SOL    HW3  847   5.375   4.507   3.642 -0.4771  0.2332 -0.3632
  270SOL    MW4  848   5.409   4.468   3.572  0.2616  0.2107 -0.0638
  271SOL     OW  849   1.921   3.573   0.568  0.5112  0.5986 -0.8934
  271SOL    HW2  850   1.877   3.577   0.653  1.3004 -2.2932 -0.2379
  271SOL    HW3  851   1.993   3.636   0.575 -0.4087  1.5956 -0.0715
  271SOL    MW4  852   1.924   3.582   0.580  0.0534  0.3882 -0.5596
  272SOL     OW  853   4.382   3.360   3.847  0.4431  0.1503  0.5023
  272SOL    HW2  854   4.331   3.294   3.894 -1.2949  0.3437 -0.9848
  272SOL    HW3  855   4.427   3.312   3.778  0.8072  0.2406  0.6762
  272SOL    MW4  856   4.381   3.345   3.844  0.7170  0.2439 -0.5115
  273SOL     OW  857   2.573   5.794   1.760  0.1151 -0.5280  0.0189
  273SOL    HW2  858   2.650   5.831   1.803 -1.0440  1.7837  0.2361
  273SOL    HW3  859   2.583   5.820   1.668 -1.0904  1.1562  0.3104
  273SOL    MW4  860   2.584   5.802   1.754 -0.1605  0.0489  0.3065
  274SOL     OW  861   5.777   0.834   6.164  0.0008 -0.3358 -0.1550
  274SOL    HW2  862   5.773   0.885   6.245  1.3176  1.4554 -1.1543
  274SOL    HW3  863   5.865   0.797   6.162 -1.4797 -4.4899  1.5017
  274SOL    MW4  864   5.788   0.836   6.174  0.0346 -0.5183  0.2832
  275SOL     OW  865   3.730   2.842   0.212 -0.0437  0.0883 -0.4501
  275SOL    HW2  866   3.815   2.828   0.169  1.0753 -0.0398  1.6491
  275SOL    HW3  867   3.747   2.911   0.275 -1.9887  1.2670 -1.1297
  275SOL    MW4  868   3.744   2.849   0.214 -0.1514 -0.0133 -0.1367
  276SOL     OW  869   2.522   6.102   4.271 -0.0686  0.3628 -0.3512
  276SOL    HW2  870   2.472   6.100   4.352  0.0810 -2.5577 -0.2063
  276SOL    HW3  871   2.578   6.179   4.279 -1.1364  1.0102  1.6034
  276SOL    MW4  872   2.523   6.112   4.283 -0.6325 -0.0173 -0.0836
  277SOL     OW  873   4.084   1.584   5.251  0.1950 -0.5207 -0.2493
  277SOL    HW2  874   4.052   1.494   5.243 -0.0413 -0.2734 -2.8833
  277SOL    HW3  875   4.014   1.631   5.296 -0.0973 -1.4135  0.2687
  277SOL    MW4  876   4.071   1.578   5.256  0.2952  0.1049  0.0186
  278SOL     OW  877   1.016   2.020   4.218  0.0233  0.0885 -0.1052
  278SOL    HW2  878   0.930   2.063   4.215  0.3845  0.8721  0.4682
  278SOL    HW3  879   1.015   1.960   4.143 -0.0586  1.9175 -1.6240
  278SOL    MW4  880   1.004   2.018   4.208  0.2229 -0.7613  0.3378
  279SOL     OW  881   0.446   0.904   6.260  0.3020 -0.1291 -0.8105
  279SOL    HW2  882   0.369   0.847   6.257 -0.3933  0.8098 -3.4791
  279SOL    HW3  883   0.516   0.853   6.219  1.0943 -0.8417  1.2844
  279SOL    MW4  884   0.445   0.890   6.255 -0.4825  0.1254  0.3668
  280SOL     OW  885   1.332   5.356   0.215 -0.1874  0.0797  0.5758
  280SOL    HW2  886   1.261   5.293   0.225  0.3325 -0.3929  1.3288
  280SOL    HW3  887   1.411   5.303   0.205  0.3342  0.5816  1.7828
  280SOL    MW4  888   1.333   5.341   0.215  0.4515  0.0230  0.0394
  281SOL     OW  889   5.335   5.033   4.344 -0.5943 -0.1684 -0.1695
  281SOL    HW2  890   5.358   4.977   4.270 -2.3688 -1.3555  0.0912
  281SOL    HW3  891   5.245   5.007   4.366 -1.0974  2.0947  0.6560
  281SOL    MW4  892   5.326   5.022   4.337  0.7322  0.0988  0.2132
  282SOL     OW  893   4.491   0.148   4.129  0.5598  0.2624 -0.0377
  282SOL    HW2  894   4.431   0.145   4.054  0.9022 -2.5099 -0.2896
  282SOL    HW3  895   4.439   0.189   4.198 -0.6424  0.5713 -1.0779
  282SOL    MW4  896   4.476   0.153   4.128  0.2751  0.3840  0.4458
  283SOL     OW  897   1.056   5.811   1.782 -0.0350  0.2073 -0.1900
  283SOL    HW2  898   1.040   5.886   1.724  0.5266  1.3350  1.0659
  283SOL    HW3  899   1.038   5.735   1.727  0.2384  1.2321 -1.7785
  283SOL    MW4  900   1.052   5.811   1.767  0.1131 -1.0028  0.1937
  284SOL     OW  901   5.664   5.198   4.247  0.7376  0.2963 -0.3715
  284SOL    HW2  902   5.644   5.112   4.208  2.1017  0.4979 -1.5879
  284SOL    HW3  903   5.578   5.239   4.258  0.2256 -0.0982 -2.4835
  284SOL    MW4  904   5.650   5.192   4.243  0.6000 -0.2610  0.8971
  285SOL     OW  905   5.353   1.843   0.397  0.2114  0.2269  0.0292
  285SOL    HW2  906   5.424   1.873   0.340 -0.8128 -0.8775 -1.9279
  285SOL    HW3  907   5.315   1.923   0.432  1.3006  0.9047 -0.2932
  285SOL    MW4  908   5.358   1.857   0.394 -0.4830  0.3277  0.0054
  286SOL     OW  909   0.883   2.965   1.910  0.6036 -0.2257  0.6549
  286SOL    HW2  910   0.869   3.058   1.928 -0.0407 -0.0446 -0.6988
  286SOL    HW3  911   0.795   2.929   1.899  0.9066 -0.3553 -1.7683
  286SOL    MW4  912   0.870   2.972   1.911 -0.1705  0.4594 -0.3730
  287SOL     OW  913   2.215   6.069   5.226 -0.4276  0.3103 -0.1979
  287SOL    HW2  914   2.207   6.019   5.307 -0.1194  1.4819  0.5683
  287SOL    HW3  915   2.126   6.072   5.191 -0.3675 -1.2790 -0.5958
  287SOL    MW4  916   2.202   6.062   5.232 -0.5456  0.5084  0.6098
  288SOL     OW  917   6.398   4.978   4.123 -0.2256  0.1578 -0.0818
  288SOL    HW2  918   6.341   4.909   4.157  0.0116  0.3134  0.6455
  288SOL    HW3  919   6.338   5.047   4.095 -0.4820 -0.4809 -1.1586
  288SOL    MW4  920   6.383   4.978   4.124 -0.1881  0.1117  0.1538
  289SOL     OW  921   0.900   4.412   5.075  0.3541 -0.1415  0.0319
  289SOL    HW2  922   0.942   4.490   5.038  0.5729  0.7188  1.9796
  289SOL    HW3  923   0.955   4.388   5.150 -1.8034  0.1882  1.8255
  289SOL    MW4  924   0.913   4.419   5.080  0.0470  0.4446  0.5848
  290SOL     OW  925   3.639   1.971   3.249 -0.5341  0.2264 -0.1441
  290SOL    HW2  926   3.641   1.883   3.287 -0.4513 -0.5448 -1.8715
  290SOL    HW3  927   3.709   2.018   3.294  0.3647 -1.0118 -0.1989
  290SOL    MW4  928   3.648   1.965   3.260  0.0155 -0.0349 -0.1342
  291SOL     OW  929   5.452   6.171   2.645 -0.4243 -0.3318 -0.7285
  291SOL    HW2  930   5.508   6.150   2.571 -0.3731  1.9359 -1.4138
  291SOL    HW3  931   5.366   6.187   2.606 -0.5178  0.3753 -0.2624
  291SOL    MW4  932   5.448   6.170   2.630 -0.3599 -0.4029 -0.0394
  292SOL     OW  933   4.745   3.741   0.913  0.2766 -0.2556  0.1211
  292SOL    HW2  934   4.660   3.749   0.957 -0.3292 -1.0920 -0.8589
  292SOL    HW3  935   4.750   3.650   0.886  1.2487 -0.0787 -0.3401
  292SOL    MW4  936   4.735   3.730   0.916 -0.2465  0.2543 -0.0011
  293SOL     OW  937   0.219   1.054   4.447  0.5161  0.3320  0.1989
  293SOL    HW2  938   0.253   0.984   4.390  1.4656  2.2646 -1.7319
  293SOL    HW3  939   0.170   1.111   4.388  0.7069  1.9150  1.5262
  293SOL    MW4  940   0.217   1.052   4.432 -0.2728  0.4080  0.2738
  294SOL     OW  941   2.353   1.505   2.963 -0.0272 -0.5392  0.0589
  294SOL    HW2  942   2.365   1.424   3.012  2.2227 -0.6158 -0.5013
  294SOL    HW3  943   2.336   1.476   2.873  2.4154 -0.4810 -0.4919
  294SOL    MW4  944   2.352   1.491   2.957  1.0177 -0.6326 -0.2058
  295SOL     OW  945   2.699   1.979   0.301 -0.5239 -0.1477  0.6078
  295SOL    HW2  946   2.658   2.013   0.221 -1.2017 -0.6052  0.7463
  295SOL    HW3  947   2.642   1.907   0.328  1.1406 -1.7552  0.0404
  295SOL    MW4  948   2.686   1.974   0.294 -0.0132  0.3299  0.5142
  296SOL     OW  949   5.098   0.278   4.560 -0.1208  0.3362 -0.2186
  296SOL    HW2  950   5.159   0.325   4.503  0.3608  1.1613  0.9351
  296SOL    HW3  951   5.124   0.186   4.554  0.0879  0.4460 -1.1077
  296SOL    MW4  952   5.109   0.272   4.551 -0.2722  0.4412 -0.2681
  297SOL     OW  953   4.913   6.284   3.418  0.0331  0.1364  0.2540
  297SOL    HW2  954   4.877   6.268   3.506  0.4324  1.0524  0.5953
  297SOL    HW3  955   5.006   6.264   3.427  0.0787  0.2569  0.0472
  297SOL    MW4  956   4.921   6.279   3.431  0.1656 -0.4077 -0.5071
  298SOL     OW  957   5.480   2.492   1.202 -0.1180  0.2161  0.3560
  298SOL    HW2  958   5.392   2.511   1.234  0.4230  1.8136  1.0247
  298SOL    HW3  959   5.528   2.462   1.280  0.1198  0.0662  0.1527
  298SOL    MW4  960   5.475   2.490   1.217 -0.6522  0.4552  0.3240
  299SOL     OW  961   3.382   3.069   5.008 -0.0647  0.3180  0.6315
  299SOL    HW2  962   3.320   3.140   5.022  0.5926  0.7447  1.5096
  299SOL    HW3  963   3.454   3.088   5.068  1.1841  0.1474 -0.7438
  299SOL    MW4  964   3.384   3.081   5.018 -0.1501 -0.3091 -0.4659
  300SOL     OW  965   2.949   5.161   0.777 -0.2108 -0.1658  0.3182
  300SOL    HW2  966   2.930   5.155   0.871  0.3599 -1.1302  0.3784
  300SOL    HW3  967   3.044   5.162   0.772 -0.2429 -0.0981 -0.2512
  300SOL    MW4  968   2.959   5.161   0.789  0.7128  0.5184  0.0170
  301SOL     OW  969   4.481   4.311   4.274  0.4462  0.6166 -0.2771
  301SOL    HW2  970   4.385   4.316   4.271  0.2507 -2.0768 -1.5333
  301SOL    HW3  971   4.499   4.247   4.344  1.2981  0.6980 -0.4213
  301SOL    MW4  972   4.471   4.303   4.283 -0.1203  0.0093  0.1052
  302SOL     OW  973   1.425   5.255   5.564 -0.0493  0.4459  0.5456
  302SOL    HW2  974   1.403   5.163   5.552 -0.0724  0.6465 -1.3766
  302SOL    HW3  975   1.520   5.259   5.554 -0.2066  0.8050 -1.0771
  302SOL    MW4  976   1.434   5.244   5.561  0.0034 -0.1475 -0.1138
  303SOL     OW  977   5.745   5.645   1.535 -0.2404  0.0015 -0.1799
  303SOL    HW2  978   5.785   5.694   1.607  1.3798  2.0582 -2.2979
  303SOL    HW3  979   5.654   5.674   1.534 -0.5570 -0.8251  1.6087
  303SOL    MW4  980   5.738   5.656   1.544 -0.0236  0.0448 -0.1862
  304SOL     OW  981   5.777   2.988   1.394 -0.1690  0.2844  0.3167
  304SOL    HW2  982   5.740   3.076   1.386  0.1102  0.3303 -0.6106
  304SOL    HW3  983   5.789   2.975   1.488 -0.9757  0.9144  0.5190
  304SOL    MW4  984   5.774   2.998   1.406  0.0044 -0.2940 -0.7047
  305SOL     OW  985   2.547   4.668   0.958  0.8982  0.1978 -0.1565
  305SOL    HW2  986   2.582   4.692   0.873  1.2125 -0.2095 -0.1490
  305SOL    HW3  987   2.620   4.623   1.002  0.8441  0.6917  0.4521
  305SOL    MW4  988   2.562   4.665   0.953 -0.1257 -0.3388 -0.5394
  306SOL     OW  989   0.484   1.067   3.828 -0.2237 -0.0477  0.2187
  306SOL    HW2  990   0.521   1.057   3.740 -0.9009  0.0303 -0.0867
  306SOL    HW3  991   0.494   0.981   3.868 -0.4276 -0.2432 -0.1452
  306SOL    MW4  992   0.490   1.054   3.822 -0.0507 -0.4016 -0.1742
  307SOL     OW  993   4.769   5.041   5.861 -0.1446 -0.6663 -0.6256
  307SOL    HW2  994   4.726   5.122   5.835  1.0803  0.4178  0.5788
  307SOL    HW3  995   4.818   5.014   5.783  1.6519  1.2977 -0.2897
  307SOL    MW4  996   4.770   5.048   5.847 -0.6405  0.3170 -0.1107
  308SOL     OW  997   0.538   4.488   2.273 -0.3464  0.4342  0.5731
  308SOL    HW2  998   0.609   4.551   2.273 -0.2018  0.3155 -0.8242
  308SOL    HW3  999   0.502   4.493   2.184  0.2174 -1.9995  0.1179
  308SOL    MW4 1000   0.543   4.497   2.261  0.0067  0.2793 -0.2396
  309SOL     OW 1001   6.184   0.308   3.104 -0.1079 -0.9462  0.5726
  309SOL    HW2 1002   6.146   0.275   3.022 -2.3257  1.1596  0.6400
  309SOL    HW3 1003   6.276   0.322   3.084  0.1853 -3.7148 -0.4678
  309SOL    MW4 1004   6.191   0.305   3.091 -0.4143  0.4164  0.2679
  310SOL     OW 1005   2.840   3.017   6.154  0.2013 -0.4537 -0.1385
  310SOL    HW2 1006   2.891   3.045   6.229 -1.4955  2.8222 -0.0241
  310SOL    HW3 1007   2.867   3.075   6.083 -1.8150 -0.0355 -0.6262
  310SOL    MW4 1008   2.850   3.028   6.154 -0.4570 -0.0821 -0.0553
  311SOL     OW 1009   1.170   4.852   3.708  0.5564  0.1628 -0.0221
  311SOL    HW2 1010   1.186   4.796   3.633 -1.4021 -0.2595 -0.1772
  311SOL    HW3 1011   1.151   4.938   3.671  0.2128  0.1023  0.0039
  311SOL    MW4 1012   1.169   4.856   3.694 -0.5873 -0.1957 -0.2994
  312SOL     OW 1013   2.046   2.766   0.759  0.3571  0.3626  0.1453
  312SOL    HW2 1014   2.025   2.860   0.764  0.2276  0.4215 -1.1528
  312SOL    HW3 1015   2.118   2.754   0.821  0.5318  1.3652  0.1518
  312SOL    MW4 1016   2.052   2.777   0.768  0.0516 -0.2412 -0.4446
  313SOL     OW 1017   3.512   4.149   4.234  0.2613 -0.1423 -0.3215
  313SOL    HW2 1018   3.565   4.227   4.222  2.1144 -1.4076 -0.6673
  313SOL    HW3 1019   3.529   4.095   4.157 -1.9348 -0.3994 -0.6991
  313SOL    MW4 1020   3.521   4.152   4.223 -0.6287 -0.2061  0.1681
  314SOL     OW 1021   6.024   4.343   5.894 -0.2577  0.6883 -0.2717
  314SOL    HW2 1022   6.022   4.332   5.799  0.8395  0.2683 -0.2553
  314SOL    HW3 1023   5.932   4.356   5.918 -0.9062 -1.9146 -1.0649
  314SOL    MW4 1024   6.012   4.344   5.885 -0.0702 -0.0317 -0.6491
  315SOL     OW 1025   5.328   3.300   6.020  0.2834  0.1887 -0.1876
  315SOL    HW2 1026   5.342   3.209   6.043  0.7359  0.0974 -0.8132
  315SOL    HW3 1027   5.379   3.314   5.941 -2.8473 -0.0958 -2.4448
  315SOL    MW4 1028   5.337   3.290   6.013 -0.5146 -0.0404 -0.1162
  316SOL     OW 1029   2.264   5.728   2.105  0.0156  0.6201 -0.6005
  316SOL    HW2 1030   2.207   5.659   2.139 -0.1018  0.9753 -0.0697
  316SOL    HW3 1031   2.272   5.709   2.012  1.3059 -1.0571 -0.1900
  316SOL    MW4 1032   2.257   5.717   2.097 -0.3652  0.1534  0.0022
  317SOL     OW 1033   4.830   4.943   4.708  0.3587  0.2729  0.2558
  317SOL    HW2 1034   4.900   4.878   4.699  0.7581  0.7092  0.1643
  317SOL    HW3 1035   4.854   5.012   4.647 -0.6900 -0.0280 -0.5060
  317SOL    MW4 1036   4.843   4.943   4.699  0.2064 -0.2299  0.2372
  318SOL     OW 1037   5.865   5.718   0.115 -0.1029  0.1404 -0.1382
  318SOL    HW2 1038   5.855   5.700   0.208  3.1019 -1.9284 -0.0536
  318SOL    HW3 1039   5.876   5.632   0.074  0.8061  1.1071 -2.0790
  318SOL    MW4 1040   5.865   5.705   0.122 -0.9367 -0.4162 -0.0766
  319SOL     OW 1041   5.256   3.001   5.213 -0.2482 -0.0535  0.1686
  319SOL    HW2 1042   5.218   3.050   5.286  2.4951  2.0092  0.3763
  319SOL    HW3 1043   5.247   3.059   5.137 -1.5126 -1.4527 -0.8129
  319SOL    MW4 1044   5.250   3.015   5.213  0.5387  0.3471  0.3214
  320SOL     OW 1045   2.803   3.899   2.727 -0.1129 -0.0565 -0.5836
  320SOL    HW2 1046   2.825   3.825   2.783 -0.3649 -0.0085 -0.4156
  320SOL    HW3 1047   2.881   3.954   2.726  0.2256 -0.5356 -1.0561
  320SOL    MW4 1048   2.816   3.897   2.734  0.1747  0.7916  0.0694
  321SOL     OW 1049   3.793   6.226   0.354 -0.1621  0.0987  0.1743
  321SOL    HW2 1050   3.807   6.225   0.259  0.7221  1.3047  0.2671
  321SOL    HW3 1051   3.725   6.160   0.369  2.0096 -2.6115 -0.9286
  321SOL    MW4 1052   3.786   6.217   0.343 -0.2005  0.7624  0.4525
  322SOL     OW 1053   5.730   2.866   2.777  0.0731 -0.0002  0.2824
  322SOL    HW2 1054   5.656   2.813   2.747  0.9171 -0.7139 -0.6402
  322SOL    HW3 1055   5.804   2.804   2.780  1.3220  1.2659 -1.7656
  322SOL    MW4 1056   5.730   2.851   2.773 -0.1512 -0.0098  0.0452
  323SOL     OW 1057   6.359   1.861   0.824 -0.2482  0.0729  0.0822
  323SOL    HW2 1058   6.429   1.798   0.808 -0.1622  0.3305 -0.5818
  323SOL    HW3 1059   6.300   1.852   0.749 -1.0822 -0.3355  0.7601
  323SOL    MW4 1060   6.360   1.852   0.812 -0.1702  0.8913 -0.0938
  324SOL     OW 1061   4.577   4.427   2.943  0.6523 -0.3089  0.6260
  324SOL    HW2 1062   4.626   4.345   2.949  1.0208 -0.0667  0.9500
  324SOL    HW3 1063   4.485   4.400   2.943  0.7852 -0.7595  0.0678
  324SOL    MW4 1064   4.571   4.413   2.944 -0.2052 -0.0496  0.6399
  325SOL     OW 1065   2.522   3.822   2.937 -0.2241 -0.8150  0.2001
  325SOL    HW2 1066   2.604   3.866   2.914  0.6441 -2.1383  0.6105
  325SOL    HW3 1067   2.492   3.782   2.855 -0.3044 -0.5774  0.1131
  325SOL    MW4 1068   2.529   3.822   2.923 -0.1827 -0.2795 -0.1444
  326SOL     OW 1069   2.059   1.300   1.650  0.4620 -0.1522  0.0809
  326SOL    HW2 1070   1.994   1.237   1.620  0.1135  0.9293 -1.5523
  326SOL    HW3 1071   2.040   1.380   1.601  1.8439  0.7692  0.9670
  326SOL    MW4 1072   2.048   1.302   1.639  1.2050  0.3597  0.2806
  327SOL     OW 1073   2.731   0.195   1.340 -0.0178 -0.7180  0.0544
  327SOL    HW2 1074   2.639   0.219   1.342 -0.2686 -1.4511 -1.4639
  327SOL    HW3 1075   2.755   0.183   1.432 -0.5270  2.6734  0.7619
  327SOL    MW4 1076   2.722   0.197   1.352  0.2196 -0.3395  0.2941
  328SOL     OW 1077   1.790   1.309   1.440 -0.2021 -0.0158 -0.3790
  328SOL    HW2 1078   1.843   1.386   1.459  0.0232 -0.4251  0.6896
  328SOL    HW3 1079   1.719   1.342   1.384 -0.5830  1.1449  0.7365
  328SOL    MW4 1080   1.787   1.324   1.435  0.4265  0.0325 -0.0897
  329SOL     OW 1081   2.055   4.367   5.062  0.6108 -0.0817 -0.1184
  329SOL    HW2 1082   2.064   4.383   4.968 -1.8161 -0.8181 -0.5371
  329SOL    HW3 1083   1.985   4.426   5.090 -0.6004 -1.8008  0.6357
  329SOL    MW4 1084   2.047   4.377   5.054 -0.8061  0.6097  0.5934
  330SOL     OW 1085   1.001   5.397   3.473  0.2562  0.0683  0.1641
  330SOL    HW2 1086   0.967   5.379   3.386  1.6549 -0.0876 -0.3843
  330SOL    HW3 1087   1.086   5.352   3.475 -0.4044 -1.1966  2.1449
  330SOL    MW4 1088   1.008   5.389   3.462  0.0102 -0.1066 -0.1758
  331SOL     OW 1089   1.960   3.927   0.549 -0.2533 -0.4082 -0.7583
  331SOL    HW2 1090   1.969   3.880   0.466  2.4893  0.7944 -1.2609
  331SOL    HW3 1091   2.008   4.009   0.535  1.0202 -0.5215  2.2746
  331SOL    MW4 1092   1.967   3.932   0.536 -0.5691  0.3621  0.0378
  332SOL     OW 1093   3.325   4.565   4.544  0.2024  0.1017 -0.2736
  332SOL    HW2 1094   3.286   4.648   4.570 -1.4482 -0.2534 -1.4318
  332SOL    HW3 1095   3.250   4.510   4.519  1.3798 -1.0562 -1.4085
  332SOL    MW4 1096   3.310   4.569   4.544 -0.2167 -0.2722 -0.4420
  333SOL     OW 1097   0.203   1.235   4.789 -0.5771  0.4568  0.2294
  333SOL    HW2 1098   0.255   1.239   4.709 -2.5851  0.7191 -1.1344
  333SOL    HW3 1099   0.153   1.154   4.780  1.4927 -1.2828  2.8237
  333SOL    MW4 1100   0.203   1.225   4.777  0.2797 -0.2243 -0.0538
  334SOL     OW 1101   2.393   1.129   1.490 -0.6011 -0.5412  0.6235
  334SOL    HW2 1102   2.339   1.207   1.475 -1.2834 -0.8132  1.6055
  334SOL    HW3 1103   2.396   1.120   1.585  0.5188 -0.9981  0.5548
  334SOL    MW4 1104   2.386   1.138   1.501  0.0322  0.0700 -0.4911
  335SOL     OW 1105   3.239   4.142   1.218  0.1969 -0.1196  0.2496
  335SOL    HW2 1106   3.253   4.204   1.147 -0.4429 -0.4509 -0.1730
  335SOL    HW3 1107   3.266   4.057   1.182 -1.2511 -0.4931 -0.0283
  335SOL    MW4 1108   3.245   4.139   1.204 -0.1518  0.2030 -0.3621
  336SOL     OW 1109   2.489   0.494   5.881  0.3323 -0.4750  0.2654
  336SOL    HW2 1110   2.583   0.493   5.898  0.3093 -0.1659  0.4140
  336SOL    HW3 1111   2.481   0.524   5.791  0.3548  0.0314  0.4266
  336SOL    MW4 1112   2.500   0.498   5.872  0.2566  0.0903 -0.7163
  337SOL     OW 1113   0.418   2.764   5.637 -0.0289  0.1262 -0.0954
  337SOL    HW2 1114   0.430   2.741   5.729  0.1148  0.6923  0.0307
  337SOL    HW3 1115   0.339   2.716   5.610 -0.7441  0.8713  0.6439
  337SOL    MW4 1116   0.409   2.754   5.645  0.1670  0.4724  0.2426
  338SOL     OW 1117   5.741   4.538   4.747 -0.0629  0.2776 -0.2758
  338SOL    HW2 1118   5.727   4.513   4.656 -0.7020 -1.9333  0.3785
  338SOL    HW3 1119   5.780   4.461   4.788 -2.2645  0.2227  1.9140
  338SOL    MW4 1120   5.745   4.525   4.740  0.2827  0.0942  0.0634
  339SOL     OW 1121   0.165   5.573   2.607 -0.0573  0.5193  0.1138
  339SOL    HW2 1122   0.094   5.623   2.567 -2.6967 -3.3237 -0.6009
  339SOL    HW3 1123   0.231   5.563   2.538 -1.6054 -0.6526 -1.2789
  339SOL    MW4 1124   0.164   5.578   2.593  0.0670 -0.3211  0.1656
  340SOL     OW 1125   3.246   4.129   3.657  0.0257  0.0955  0.1536
  340SOL    HW2 1126   3.174   4.067   3.666 -0.1001  0.3844  1.3011
  340SOL    HW3 1127   3.218   4.205   3.708  1.5149 -0.1429  1.4103
  340SOL    MW4 1128   3.233   4.131   3.665  0.0369  0.0595 -0.0716
  341SOL     OW 1129   5.923   3.525   0.292 -0.1594 -0.1158  0.5085
  341SOL    HW2 1130   5.934   3.480   0.376  1.0139 -4.0087 -1.4518
  341SOL    HW3 1131   6.013   3.543   0.263 -0.5555  1.4832  0.1765
  341SOL    MW4 1132   5.937   3.521   0.299  0.0876 -0.0488  0.0979
  342SOL     OW 1133   2.667   6.073   0.329 -0.1410  0.0358 -0.0081
  342SOL    HW2 1134   2.749   6.042   0.368 -0.1563 -0.5717 -0.4380
  342SOL    HW3 1135   2.638   6.143   0.387  2.2612  2.4550 -1.4955
  342SOL    MW4 1136   2.674   6.078   0.342  0.5289  0.0508  0.2232
  343SOL     OW 1137   2.058   5.858   1.885 -0.0551  0.3741 -0.4406
  343SOL    HW2 1138   2.005   5.938   1.881  0.1165  0.4451 -2.2801
  343SOL    HW3 1139   2.141   5.882   1.844  1.2614  0.1058  1.9028
  343SOL    MW4 1140   2.062   5.871   1.879 -0.1722 -0.4363 -0.0909
  344SOL     OW 1141   0.034   2.145   5.602  0.0615 -0.2387  0.0855
  344SOL    HW2 1142   0.129   2.153   5.611  0.1174 -0.2120 -0.4464
  344SOL    HW3 1143   0.020   2.053   5.579 -0.1536 -0.5439  1.3627
  344SOL    MW4 1144   0.045   2.133   5.600 -0.0427  0.4598  0.6374
  345SOL     OW 1145   5.895   4.011   4.341  0.0865  0.0496  0.1865
  345SOL    HW2 1146   5.963   3.976   4.397  0.6983  0.1705 -0.4677
  345SOL    HW3 1147   5.941   4.044   4.264 -0.8535 -1.4004 -1.0507
  345SOL    MW4 1148   5.910   4.011   4.338 -0.0135  0.2236 -0.1295
  346SOL     OW 1149   4.163   0.710   1.273 -0.4257  0.0162  0.3108
  346SOL    HW2 1150   4.225   0.783   1.286 -0.6784  0.1915  0.5530
  346SOL    HW3 1151   4.176   0.654   1.350  0.7704 -0.9424 -0.5627
  346SOL    MW4 1152   4.173   0.712   1.285  0.3478 -0.4181  0.6439
  347SOL     OW 1153   5.313   4.464   3.298 -0.8531  0.0347 -0.1861
  347SOL    HW2 1154   5.327   4.447   3.391  0.5802  0.8024 -0.2267
  347SOL    HW3 1155   5.296   4.558   3.293 -0.3188  0.1093 -0.7496
  347SOL    MW4 1156   5.313   4.474   3.310  0.1185  0.0539 -1.0323
  348SOL     OW 1157   4.135   1.576   6.063 -0.1810  0.1624 -0.5079
  348SOL    HW2 1158   4.195   1.644   6.032 -1.7051  0.8333 -2.1365
  348SOL    HW3 1159   4.158   1.499   6.011  0.4381 -0.1038  0.1484
  348SOL    MW4 1160   4.146   1.575   6.052 -0.6105  0.0868 -0.3224
  349SOL     OW 1161   4.093   4.786   2.192  0.4146  0.0339 -0.7574
  349SOL    HW2 1162   4.043   4.769   2.272  0.9259 -0.5022 -0.5515
  349SOL    HW3 1163   4.057   4.869   2.159  0.2348  0.2795  0.0455
  349SOL    MW4 1164   4.081   4.795   2.198 -0.1416  0.1355 -0.1030
  350SOL     OW 1165   0.899   3.760   1.304 -0.5170 -0.0553 -0.1378
  350SOL    HW2 1166   0.849   3.822   1.251 -0.9266  0.1773  0.5024
  350SOL    HW3 1167   0.986   3.799   1.310 -1.0370  1.0182  1.1110
  350SOL    MW4 1168   0.904   3.774   1.298 -0.1836  0.3007 -0.0132
  351SOL     OW 1169   1.703   3.734   2.984  0.3126 -0.5071  0.0502
  351SOL    HW2 1170   1.638   3.751   2.915 -0.6664 -1.1423  0.7801
  351SOL    HW3 1171   1.786   3.762   2.946 -0.1714 -0.9750 -1.4436
  351SOL    MW4 1172   1.705   3.740   2.970 -0.3991  0.0055 -0.5202
  352SOL     OW 1173   3.696   4.382   2.876 -0.5670 -0.3972 -0.4602
  352SOL    HW2 1174   3.660   4.335   2.951 -0.2317  0.7246  0.4207
  352SOL    HW3 1175   3.628   4.445   2.853  0.4756  1.2581  0.7738
  352SOL    MW4 1176   3.682   4.384   2.883 -0.8868 -0.0207  0.0837
  353SOL     OW 1177   4.132   5.791   4.425  0.4622  0.3971 -0.2497
  353SOL    HW2 1178   4.215   5.811   4.467 -0.0900 -2.8145  2.9346
  353SOL    HW3 1179   4.071   5.857   4.457  0.7896 -0.1396  1.5965
  353SOL    MW4 1180   4.135   5.802   4.435  0.0532  0.2510  0.7248
  354SOL     OW 1181   4.313   1.862   3.140 -0.5910 -0.5154 -0.7395
  354SOL    HW2 1182   4.223   1.891   3.160 -0.0037  0.2342  0.9651
  354SOL    HW3 1183   4.326   1.889   3.049 -0.7257  3.2100  0.1685
  354SOL    MW4 1184   4.303   1.870   3.130  0.3873 -0.3452  0.8182
  355SOL     OW 1185   5.530   4.473   3.902  0.5446  0.0909  0.3111
  355SOL    HW2 1186   5.515   4.383   3.930 -0.7914  0.4530  0.8125
  355SOL    HW3 1187   5.626   4.483   3.904  0.6311 -0.3848  3.2714
  355SOL    MW4 1188   5.541   4.462   3.906 -0.3827  0.5728 -0.2823
  356SOL     OW 1189   0.783   1.674   1.742 -0.3019 -0.2964  0.4761
  356SOL    HW2 1190   0.775   1.662   1.837 -1.2481  0.0307  0.4557
  356SOL    HW3 1191   0.856   1.734   1.731  2.5444 -3.4385  0.7384
  356SOL    MW4 1192   0.791   1.680   1.753 -0.1916  0.0096  0.4121
  357SOL     OW 1193   0.363   3.796   3.796 -0.5651 -0.3596 -0.3121
  357SOL    HW2 1194   0.400   3.847   3.867 -0.3516 -1.5375  0.4612
  357SOL    HW3 1195   0.437   3.745   3.762 -1.2830 -2.3005  0.8664
  357SOL    MW4 1196   0.378   3.796   3.801 -0.1112  0.3835 -0.5069
  358SOL     OW 1197   5.837   2.578   1.990  0.3954 -0.5674  0.5486
  358SOL    HW2 1198   5.889   2.553   2.066  0.7520 -1.8043 -0.0731
  358SOL    HW3 1199   5.786   2.500   1.969  0.1025 -0.1606 -0.3175
  358SOL    MW4 1200   5.837   2.564   1.997 -0.5907 -0.2428  0.5521
  359SOL     OW 1201   3.490   5.703   1.786 -0.0783 -0.6428 -0.2618
  359SOL    HW2 1202   3.415   5.710   1.846  0.3634  1.0857  0.1391
  359SOL    HW3 1203   3.564   5.735   1.836  0.6464 -0.8845 -1.1589
  359SOL    MW4 1204   3.490   5.708   1.801  0.4982  0.5238 -0.2383
  360SOL     OW 1205   3.423   1.639   3.044 -0.0167 -0.0746  0.3557
  360SOL    HW2 1206   3.396   1.695   2.970  1.3051  2.4121  1.6157
  360SOL    HW3 1207   3.509   1.605   3.018 -0.2527 -0.4897  0.1125
  360SOL    MW4 1208   3.431   1.642   3.031  0.3727 -0.1880  0.1840
  361SOL     OW 1209   0.374   2.536   3.646 -0.1448  0.1887 -0.3583
  361SOL    HW2 1210   0.426   2.601   3.599  0.3158 -0.0743 -0.2094
  361SOL    HW3 1211   0.386   2.558   3.739  0.2453 -0.2825 -0.2939
  361SOL    MW4 1212   0.382   2.547   3.652 -0.6261  0.1537  0.4932
  362SOL     OW 1213   1.010   1.838   1.645 -0.2835  0.0537 -0.2438
  362SOL    HW2 1214   1.059   1.759   1.663 -0.3363 -0.0242 -0.4356
  362SOL    HW3 1215   1.027   1.895   1.720  1.9437  0.9392 -1.3377
  362SOL    MW4 1216   1.019   1.835   1.657  0.1209  0.0316 -0.2716
  363SOL     OW 1217   4.618   2.002   2.746 -0.0452  0.0187 -0.1474
  363SOL    HW2 1218   4.665   2.004   2.662 -1.4252 -0.4017 -0.9565
  363SOL    HW3 1219   4.672   1.946   2.802  0.8776  0.2744 -0.7642
  363SOL    MW4 1220   4.631   1.995   2.742  0.0643  0.1157  0.2751
  364SOL     OW 1221   1.908   1.401   3.637  0.1193  0.0038  0.0586
  364SOL    HW2 1222   1.919   1.313   3.674  0.4257 -0.2162 -0.5377
  364SOL    HW3 1223   1.993   1.443   3.650 -1.0632  1.6052  3.7972
  364SOL    MW4 1224   1.921   1.395   3.644  0.6859  0.6006  0.1366
  365SOL     OW 1225   1.787   0.453   1.432  0.6637 -0.5201  0.1927
  365SOL    HW2 1226   1.816   0.543   1.424  1.6449 -0.8303  0.1594
  365SOL    HW3 1227   1.866   0.400   1.421  0.0812 -1.3950  0.0307
  365SOL    MW4 1228   1.801   0.458   1.430 -0.2207 -0.4905  0.0933
  366SOL     OW 1229   0.151   3.670   2.805 -0.3505  0.2348 -0.3318
  366SOL    HW2 1230   0.227   3.612   2.801 -0.2469  0.4310 -1.6036
  366SOL    HW3 1231   0.188   3.756   2.825 -0.5708 -0.1977  2.3212
  366SOL    MW4 1232   0.166   3.674   2.807 -0.2197  0.5164  0.5655
  367SOL     OW 1233   1.276   2.282   4.742 -0.1668  0.3514 -0.6922
  367SOL    HW2 1234   1.200   2.307   4.690  0.6423 -0.7398 -2.4932
  367SOL    HW3 1235   1.258   2.317   4.829 -2.0212  1.4162 -1.4464
  367SOL    MW4 1236   1.264   2.290   4.746 -0.2558  0.3535 -0.2621
  368SOL     OW 1237   5.570   4.710   6.103  0.4242 -0.6909 -0.1054
  368SOL    HW2 1238   5.618   4.658   6.168  0.4283  1.7917  2.0416
  368SOL    HW3 1239   5.637   4.764   6.061  0.0563 -0.2158 -0.0900
  368SOL    MW4 1240   5.585   4.710   6.106 -0.2506 -0.0278 -0.0390
  369SOL     OW 1241   4.777   3.054   2.116  0.2331  0.3595  0.2517
  369SOL    HW2 1242   4.683   3.040   2.128  0.3284 -1.5228 -0.7987
  369SOL    HW3 1243   4.793   3.036   2.023  1.8492 -1.0811  0.7350
  369SOL    MW4 1244   4.767   3.049   2.105 -0.1641 -0.0452 -0.5087
  370SOL     OW 1245   0.655   0.636   4.660  0.2646  0.3413  0.4255
  370SOL    HW2 1246   0.742   0.663   4.632  1.2472 -2.5383  0.3511
  370SOL    HW3 1247   0.617   0.594   4.583 -0.1718 -0.6464  1.1645
  370SOL    MW4 1248   0.661   0.634   4.646 -0.4004  0.2141 -0.1667
  371SOL     OW 1249   4.071   2.792   1.635  0.2329  0.2674  0.3200
  371SOL    HW2 1250   3.993   2.735   1.630  1.3742 -1.2564 -1.2461
  371SOL    HW3 1251   4.097   2.787   1.727 -0.1634 -1.1446  0.3906
  371SOL    MW4 1252   4.064   2.784   1.647 -0.2571  0.3920 -0.1363
  372SOL     OW 1253   6.165   3.455   3.281  0.0476 -0.7326  0.3080
  372SOL    HW2 1254   6.172   3.474   3.375  1.8326 -1.4802  0.3796
  372SOL    HW3 1255   6.155   3.359   3.277  2.3754 -1.0262 -0.2524
  372SOL    MW4 1256   6.165   3.445   3.293  0.2242  0.3466 -0.2077
  373SOL     OW 1257   6.396   2.616   3.499 -0.1581 -0.1045 -0.1994
  373SOL    HW2 1258   6.309   2.581   3.520  0.6176 -2.3856 -0.4425
  373SOL    HW3 1259   6.425   2.660   3.578 -0.1486 -2.4446  1.2112
  373SOL    MW4 1260   6.388   2.617   3.512 -0.2948  0.1066  0.0251
  374SOL     OW 1261   1.957   3.171   1.891 -0.3766 -0.5291 -0.1505
  374SOL    HW2 1262   2.023   3.219   1.941 -0.6537 -1.3083  0.9933
  374SOL    HW3 1263   2.002   3.147   1.809  0.4531 -0.2485  0.2122
  374SOL    MW4 1264   1.972   3.174   1.887 -0.2652 -0.2857 -0.9256
  375SOL     OW 1265   0.347   2.451   0.663  0.2256 -0.1974  0.2498
  375SOL    HW2 1266   0.329   2.379   0.725  0.0356 -1.1423 -0.8769
  375SOL    HW3 1267   0.300   2.427   0.584 -0.2246  1.4341 -0.0019
  375SOL    MW4 1268   0.338   2.438   0.661  0.3110 -0.0244  0.8939
  376SOL     OW 1269   0.903   0.119   3.164 -0.5143 -0.6363  0.5004
  376SOL    HW2 1270   0.830   0.117   3.102 -0.5635  1.8916  0.3877
  376SOL    HW3 1271   0.978   0.089   3.113 -1.3565 -3.1946  0.5948
  376SOL    MW4 1272   0.903   0.115   3.149 -0.2172  0.5721 -0.0152
  377SOL     OW 1273   2.039   3.337   6.125  0.5990 -0.5490 -0.3904
  377SOL    HW2 1274   2.112   3.280   6.100  1.5764  0.2804  0.4815
  377SOL    HW3 1275   2.052   3.353   6.218 -2.5234 -2.9665  0.6198
  377SOL    MW4 1276   2.051   3.332   6.134 -0.6153  0.1852 -0.1431
  378SOL     OW 1277   4.182   4.729   0.379  0.6369  1.3835  0.2977
  378SOL    HW2 1278   4.118   4.682   0.432 -1.4214  1.9339 -1.5795
  378SOL    HW3 1279   4.267   4.700   0.414 -0.5253  1.5193  3.6624
  378SOL    MW4 1280   4.185   4.719   0.391 -0.2479  0.4526 -0.1339
  379SOL     OW 1281   2.849   5.428   5.421  0.1443 -0.0248  0.0768
  379SOL    HW2 1282   2.805   5.365   5.479 -1.2146 -0.5817 -1.4932
  379SOL    HW3 1283   2.871   5.377   5.343  0.1115  1.1612 -0.7286
  379SOL    MW4 1284   2.846   5.413   5.419  0.3413 -0.4451 -0.6736
  380SOL     OW 1285   0.752   1.071   1.262  0.3103 -0.1756  0.2277
  380SOL    HW2 1286   0.773   1.018   1.185 -2.9797 -0.8725 -0.3757
  380SOL    HW3 1287   0.779   1.017   1.336  2.0017 -0.2350 -0.3923
  380SOL    MW4 1288   0.758   1.057   1.262  0.1584 -0.2953 -0.2133
  381SOL     OW 1289   5.007   4.344   2.995 -0.8106 -0.3957  0.0088
  381SOL    HW2 1290   5.063   4.404   2.945 -1.0810 -1.3283 -1.4814
  381SOL    HW3 1291   5.064   4.313   3.066  0.3477 -0.7602 -1.0383
  381SOL    MW4 1292   5.022   4.348   2.998  0.5126 -0.4912 -0.3844
  382SOL     OW 1293   4.366   0.755   3.218 -0.0437 -0.2066 -0.1737
  382SOL    HW2 1294   4.304   0.777   3.287 -0.6484 -0.2314 -0.6976
  382SOL    HW3 1295   4.353   0.824   3.152  0.0080 -0.5847 -0.5827
  382SOL    MW4 1296   4.356   0.767   3.218  0.3464 -0.2907  0.1228
  383SOL     OW 1297   1.337   0.796   4.919 -0.7076 -0.1792  0.2087
  383SOL    HW2 1298   1.292   0.717   4.889 -1.8476 -0.3590  2.1849
  383SOL    HW3 1299   1.300   0.866   4.866  0.0883 -0.8916 -1.3538
  383SOL    MW4 1300   1.326   0.795   4.908  0.6369 -0.3025 -0.0645
  384SOL     OW 1301   6.116   4.288   6.407 -0.4770 -0.4256 -0.3025
  384SOL    HW2 1302   6.200   4.243   6.408  1.1604  2.3468  1.6024
  384SOL    HW3 1303   6.095   4.302   6.499 -0.7050  2.7672 -0.7030
  384SOL    MW4 1304   6.124   4.284   6.419  0.0540 -0.8376  0.1234
  385SOL     OW 1305   5.452   3.252   5.527  0.4778 -0.1393  0.1687
  385SOL    HW2 1306   5.434   3.336   5.569  1.4989  0.5903 -0.7924
  385SOL    HW3 1307   5.541   3.231   5.554 -0.5856 -2.2275  2.4643
  385SOL    MW4 1308   5.461   3.260   5.536 -0.3076 -1.0602 -0.0027
  386SOL     OW 1309   2.753   3.366   3.852 -0.3410 -0.6091  0.1297
  386SOL    HW2 1310   2.775   3.290   3.906 -1.8808 -0.7842  0.5616
  386SOL    HW3 1311   2.704   3.424   3.911  0.4660  0.5548 -0.3043
  386SOL    MW4 1312   2.749   3.364   3.867  0.5063 -0.4007  0.0378
  387SOL     OW 1313   4.128   1.531   2.261 -0.8948  0.7061 -0.0853
  387SOL    HW2 1314   4.210   1.518   2.308 -0.5854  1.2376 -0.4585
  387SOL    HW3 1315   4.154   1.538   2.169 -1.5658 -1.0470 -0.4490
  387SOL    MW4 1316   4.142   1.530   2.255  0.0766  0.0509 -0.2520
  388SOL     OW 1317   3.112   0.955   3.668  0.3795  0.0819 -0.1772
  388SOL    HW2 1318   3.031   1.002   3.691  0.8735  0.8237  0.1077
  388SOL    HW3 1319   3.145   0.923   3.752  0.3709 -0.2334 -0.2949
  388SOL    MW4 1320   3.105   0.957   3.682 -0.6702 -0.3709 -0.4871
  389SOL     OW 1321   3.016   1.189   6.019 -0.1480  0.1190 -0.2254
  389SOL    HW2 1322   3.099   1.169   6.062  0.3792  1.0866 -0.7513
  389SOL    HW3 1323   3.041   1.230   5.936 -1.1476  0.1954 -0.5071
  389SOL    MW4 1324   3.030   1.192   6.013 -0.3946 -0.4354 -0.0568
  390SOL     OW 1325   3.250   1.227   0.900  0.7279  0.2421 -0.3717
  390SOL    HW2 1326   3.172   1.193   0.856  0.3343  1.3216 -0.5520
  390SOL    HW3 1327   3.285   1.292   0.839  1.6201 -0.0436 -0.1764
  390SOL    MW4 1328   3.244   1.231   0.886  0.3668  0.6116 -0.5535
  391SOL     OW 1329   3.756   1.132   4.353  0.5374  0.3538 -0.7758
  391SOL    HW2 1330   3.748   1.097   4.442  0.5264  0.6505 -0.6576
  391SOL    HW3 1331   3.850   1.134   4.337  0.4890 -1.0787 -1.3328
  391SOL    MW4 1332   3.767   1.128   4.363 -0.0587 -0.2897  0.1214
  392SOL     OW 1333   0.694   0.963   3.049 -0.5415  0.3623 -0.1300
  392SOL    HW2 1334   0.762   1.019   3.013  1.5024 -0.7552  1.7555
  392SOL    HW3 1335   0.660   1.011   3.124  0.0235 -0.1583  0.4736
  392SOL    MW4 1336   0.699   0.977   3.054  0.5358  0.1389  0.0467
  393SOL     OW 1337   0.990   1.567   2.637  0.3902  0.8085  0.0352
  393SOL    HW2 1338   1.055   1.505   2.670 -0.8739 -0.0963  0.9487
  393SOL    HW3 1339   0.989   1.553   2.542  1.7796  1.1212 -0.0415
  393SOL    MW4 1340   0.998   1.557   2.629  0.2328  0.4914  0.1975
  394SOL     OW 1341   0.559   2.053   5.681  0.1944 -0.1181 -0.4532
  394SOL    HW2 1342   0.548   2.021   5.771  1.8519 -0.0391 -0.1874
  394SOL    HW3 1343   0.646   2.095   5.681 -0.1243  0.5982 -1.8891
  394SOL    MW4 1344   0.569   2.054   5.693 -0.5970  0.2309 -0.3609
  395SOL     OW 1345   3.874   1.111   0.383  0.1382  0.4700 -0.1775
  395SOL    HW2 1346   3.960   1.121   0.343  0.0008  2.0363 -0.1352
  395SOL    HW3 1347   3.887   1.135   0.474 -0.1283 -0.3776  0.0948
  395SOL    MW4 1348   3.887   1.115   0.390 -0.4500 -0.4598  0.2119
  396SOL     OW 1349   4.919   5.947   0.188  0.4182  0.4642  0.5186
  396SOL    HW2 1350   4.902   6.033   0.225  1.0862 -0.0362  2.0956
  396SOL    HW3 1351   4.970   5.902   0.255 -1.1738 -1.6757  0.4172
  396SOL    MW4 1352   4.923   5.952   0.202 -0.6344  0.3335  0.4195
  397SOL     OW 1353   1.099   0.985   1.169  0.1221  0.0498  0.2393
  397SOL    HW2 1354   1.022   0.978   1.112  0.1012  0.4951  0.2109
  397SOL    HW3 1355   1.084   1.065   1.219  0.6673  0.2467  0.0875
  397SOL    MW4 1356   1.087   0.995   1.168  0.2599  0.2729 -0.2865
  398SOL     OW 1357   1.955   2.895   1.383 -0.4203  0.2912 -0.9491
  398SOL    HW2 1358   1.890   2.925   1.447 -1.2585 -0.7809 -1.2739
  398SOL    HW3 1359   1.932   2.804   1.366  2.8302 -1.0360  0.9652
  398SOL    MW4 1360   1.943   2.887   1.389 -0.2193  0.1304  0.1026
  399SOL     OW 1361   4.280   5.932   4.810 -0.1883  0.0559 -0.1989
  399SOL    HW2 1362   4.312   5.984   4.736  1.4283 -0.7183 -0.0863
  399SOL    HW3 1363   4.274   5.843   4.775  0.3569 -0.2728  0.5178
  399SOL    MW4 1364   4.284   5.927   4.795 -0.1522 -0.0603 -0.0428
  400SOL     OW 1365   0.715   5.633   2.147 -0.4075  0.5085 -0.0446
  400SOL    HW2 1366   0.773   5.698   2.109 -0.6589  1.5270  1.2250
  400SOL    HW3 1367   0.754   5.549   2.124  0.8816  1.1413 -0.2412
  400SOL    MW4 1368   0.728   5.631   2.139  0.5860 -1.3203  0.7446
  401SOL     OW 1369   5.272   1.389   5.087  0.0833 -0.7447 -0.1069
  401SOL    HW2 1370   5.222   1.424   5.161 -1.8111 -0.9611 -1.2271
  401SOL    HW3 1371   5.242   1.439   5.011  0.8265 -1.5880 -0.9953
  401SOL    MW4 1372   5.262   1.400   5.087 -0.0958  0.2885  0.5056
  402SOL     OW 1373   5.085   3.465   6.041  0.5257 -0.2198  0.0097
  402SOL    HW2 1374   5.134   3.540   6.007 -0.8589  0.0288 -1.5527
  402SOL    HW3 1375   5.147   3.392   6.037  1.3232  0.4534 -0.1927
  402SOL    MW4 1376   5.099   3.465   6.036  0.2198  0.5765  0.1518
  403SOL     OW 1377   2.343   2.257   4.132  0.1692  0.0334  0.0160
  403SOL    HW2 1378   2.372   2.166   4.132 -1.1328 -0.4211 -1.2832
  403SOL    HW3 1379   2.356   2.287   4.222  0.0804 -1.6110  0.5986
  403SOL    MW4 1380   2.348   2.249   4.144  0.4837 -0.6349 -0.4216
  404SOL     OW 1381   0.027   0.243   5.019 -0.5119 -0.2547 -0.6122
  404SOL    HW2 1382   0.111   0.207   4.991 -1.1353  0.4710 -3.7342
  404SOL    HW3 1383   0.045   0.336   5.036 -0.3603 -0.4719  0.5153
  404SOL    MW4 1384   0.041   0.251   5.018 -0.3224  0.5410  0.3952
  405SOL     OW 1385   4.355   2.441   4.565  0.2118 -0.1677  0.5761
  405SOL    HW2 1386   4.435   2.491   4.550  0.3743 -0.2737  1.0813
  405SOL    HW3 1387   4.286   2.507   4.567  0.2334 -0.1108 -0.2231
  405SOL    MW4 1388   4.356   2.456   4.563 -0.0783 -0.1549  0.1405
  406SOL     OW 1389   3.526   3.923   0.744 -0.1443 -0.1391  0.2677
  406SOL    HW2 1390   3.570   3.983   0.683 -1.3123  0.9575  0.4855
  406SOL    HW3 1391   3.596   3.893   0.802  0.2735  1.9530  0.9142
  406SOL    MW4 1392   3.541   3.927   0.743  0.1448  0.5777 -0.0040
  407SOL     OW 1393   6.231   1.732   4.907  0.0692  0.6238 -0.8413
  407SOL    HW2 1394   6.310   1.786   4.909  1.4701 -1.3370  1.7017
  407SOL    HW3 1395   6.249   1.664   4.843 -0.2034  1.0548 -1.3804
  407SOL    MW4 1396   6.243   1.730   4.899 -0.0146  0.6743 -0.4484
  408SOL     OW 1397   5.017   3.048   4.498 -0.8518  0.2606 -0.3070
  408SOL    HW2 1398   5.079   3.105   4.545 -0.4253 -2.2469  2.5138
  408SOL    HW3 1399   5.072   2.999   4.437 -0.5569  0.1766  0.0191
  408SOL    MW4 1400   5.032   3.049   4.497  0.1395 -0.1430  0.4590
  409SOL     OW 1401   1.609   1.620   2.771  0.2325  0.5763 -0.3739
  409SOL    HW2 1402   1.601   1.533   2.809 -0.3618  0.6081 -0.4208
  409SOL    HW3 1403   1.625   1.605   2.678 -0.1487  0.5160 -0.4319
  409SOL    MW4 1404   1.610   1.607   2.764  0.1367 -0.2097 -0.5323
  410SOL     OW 1405   2.090   1.051   2.359 -0.0239 -0.0077 -0.1500
  410SOL    HW2 1406   2.150   0.981   2.332  0.9932  1.2225 -1.1839
  410SOL    HW3 1407   2.142   1.131   2.354 -0.9323  0.7579  1.7802
  410SOL    MW4 1408   2.105   1.052   2.355  0.0286  0.5091 -0.3496
  411SOL     OW 1409   6.245   4.804   1.093 -0.4527 -0.2685 -0.5504
  411SOL    HW2 1410   6.179   4.745   1.057 -0.4990  0.5061 -1.7992
  411SOL    HW3 1411   6.264   4.865   1.022  0.0454  0.8385  0.4925
  411SOL    MW4 1412   6.239   4.804   1.079  0.6646  0.1765  0.0552
  412SOL     OW 1413   4.895   5.928   5.309 -1.0186 -0.9760  0.2947
  412SOL    HW2 1414   4.886   5.978   5.228 -0.6976  0.2334  0.9819
  412SOL    HW3 1415   4.989   5.909   5.315 -0.8400  0.0406  0.9971
  412SOL    MW4 1416   4.906   5.932   5.299  0.5236 -0.1692 -0.7023
  413SOL     OW 1417   2.860   2.203   2.585  0.0713 -0.2170 -0.1232
  413SOL    HW2 1418   2.866   2.299   2.588  0.7302 -0.1876 -1.3558
  413SOL    HW3 1419   2.893   2.174   2.670  2.6091  0.5881 -0.7490
  413SOL    MW4 1420   2.865   2.212   2.596 -0.0276 -0.3279  0.3956
  414SOL     OW 1421   4.907   1.485   0.700  0.2112 -0.2148 -0.0413
  414SOL    HW2 1422   4.825   1.469   0.748  0.3749  0.5284  0.5028
  414SOL    HW3 1423   4.898   1.574   0.667  1.9426  0.9604  2.4015
  414SOL    MW4 1424   4.895   1.494   0.702 -0.0359 -0.0078 -0.5784
  415SOL     OW 1425   6.125   1.968   2.748  0.1269 -0.0410  0.0155
  415SOL    HW2 1426   6.210   1.984   2.706 -0.6069  2.2886 -0.6922
  415SOL    HW3 1427   6.105   1.877   2.727  1.3860  0.0491 -1.7948
  415SOL    MW4 1428   6.134   1.958   2.739 -0.2414  0.4497  0.4022
  416SOL     OW 1429   1.602   3.438   6.159 -0.0299 -0.3815  0.3828
  416SOL    HW2 1430   1.676   3.417   6.216  1.9884 -2.3365 -2.6224
  416SOL    HW3 1431   1.530   3.384   6.193  0.4027  0.1768  2.3012
  416SOL    MW4 1432   1.603   3.428   6.171  0.0001  0.4625  0.7395
  417SOL     OW 1433   1.839   2.179   2.676  0.0947 -0.0300 -0.1667
  417SOL    HW2 1434   1.750   2.185   2.642 -0.5252 -0.6455  1.2469
  417SOL    HW3 1435   1.869   2.269   2.682 -0.0500  0.1280 -1.5939
  417SOL    MW4 1436   1.831   2.192   2.673 -0.1011 -0.0782  0.1886
  418SOL     OW 1437   2.159   1.318   4.496  0.5986 -0.4823  0.0368
  418SOL    HW2 1438   2.241   1.362   4.520  0.9170 -0.4585 -1.0306
  418SOL    HW3 1439   2.113   1.305   4.579  0.5334  1.7757  0.4084
  418SOL    MW4 1440   2.164   1.322   4.510 -0.1544  0.8483 -0.5110
  419SOL     OW 1441   3.161   5.971   1.634 -0.0739  0.6472  0.3463
  419SOL    HW2 1442   3.158   5.898   1.573  1.5166  1.6994 -1.0777
  419SOL    HW3 1443   3.185   5.932   1.718 -0.6430 -0.6133 -0.0582
  419SOL    MW4 1444   3.164   5.956   1.637 -0.5602  0.4863 -0.3119
  420SOL     OW 1445   2.722   1.291   5.687 -0.4610 -0.8890  0.3913
  420SOL    HW2 1446   2.750   1.266   5.774 -1.6471  1.7289  1.6712
  420SOL    HW3 1447   2.657   1.360   5.702 -0.4129 -0.0379 -2.5647
  420SOL    MW4 1448   2.717   1.297   5.700 -0.3780 -0.2986  0.1462
  421SOL     OW 1449   0.074   1.105   3.925 -0.3818 -0.1450 -0.4272
  421SOL    HW2 1450   0.024   1.181   3.894  0.5615  0.7510  0.1720
  421SOL    HW3 1451   0.009   1.035   3.931 -1.4269  0.7992 -0.3279
  421SOL    MW4 1452   0.059   1.106   3.922  0.5912  0.2965 -0.5388
  422SOL     OW 1453   2.194   6.068   2.481  0.1728 -0.2754 -0.3071
  422SOL    HW2 1454   2.244   6.008   2.536  1.0650 -0.1566 -0.9594
  422SOL    HW3 1455   2.204   6.154   2.522  0.1010 -0.3337 -0.1685
  422SOL    MW4 1456   2.202   6.071   2.493  0.0834 -0.1193  0.4761
  423SOL     OW 1457   1.120   5.905   2.538 -0.9897 -0.2437  0.4420
  423SOL    HW2 1458   1.161   5.894   2.452 -2.7151 -3.0350 -0.1340
  423SOL    HW3 1459   1.034   5.941   2.520 -1.3582 -0.8262  0.9989
  423SOL    MW4 1460   1.114   5.909   2.525 -0.4598 -0.4508  0.0351
  424SOL     OW 1461   5.943   3.682   3.464 -0.0393 -0.0344  0.2305
  424SOL    HW2 1462   5.974   3.602   3.423 -1.6242  0.7013 -2.6866
  424SOL    HW3 1463   5.927   3.742   3.391 -1.3792  2.0323  2.0953
  424SOL    MW4 1464   5.945   3.680   3.449 -0.3320 -0.1075  0.2841
  425SOL     OW 1465   4.472   5.394   5.154  0.0108  0.1277 -0.1657
  425SOL    HW2 1466   4.533   5.440   5.212  0.0611  1.1782 -1.0227
  425SOL    HW3 1467   4.455   5.311   5.198  1.2079  0.2764  0.6177
  425SOL    MW4 1468   4.478   5.390   5.168  0.6741  0.5375  0.2612
  426SOL     OW 1469   6.246   5.748   3.600 -0.6365 -0.0395  0.1073
  426SOL    HW2 1470   6.159   5.737   3.561 -1.4774  1.6152  1.3846
  426SOL    HW3 1471   6.249   5.685   3.672  0.0550 -1.5242 -1.1643
  426SOL    MW4 1472   6.235   5.738   3.604  0.2636  0.6968 -0.6096
  427SOL     OW 1473   0.985   4.972   2.085 -0.2672  0.5068 -0.1385
  427SOL    HW2 1474   0.917   5.015   2.137 -0.1882  0.4906 -0.0198
  427SOL    HW3 1475   0.986   5.018   2.002 -1.6078 -0.5752 -0.8001
  427SOL    MW4 1476   0.976   4.983   2.081 -0.2184 -0.1982  0.3355
  428SOL     OW 1477   6.147   0.264   5.828 -0.2006 -0.2829 -0.4165
  428SOL    HW2 1478   6.167   0.173   5.805 -0.1982 -0.1103 -1.1276
  428SOL    HW3 1479   6.225   0.313   5.801  1.6830 -0.5576  3.8032
  428SOL    MW4 1480   6.160   0.259   5.821  0.3602  0.3320 -0.0530
  429SOL     OW 1481   3.559   3.184   5.205 -0.3956  0.1825  0.1531
  429SOL    HW2 1482   3.597   3.118   5.262  0.3401  2.2608  2.2583
  429SOL    HW3 1483   3.624   3.195   5.135  0.5488  0.2099  1.0056
  429SOL    MW4 1484   3.573   3.177   5.203  0.1136  0.2338 -0.2587
  430SOL     OW 1485   6.218   3.167   0.052  0.7508  0.3769 -0.0554
  430SOL    HW2 1486   6.127   3.196   0.056  0.8147  0.5865 -0.1212
  430SOL    HW3 1487   6.250   3.198  -0.032 -0.2596 -3.1270 -1.9033
  430SOL    MW4 1488   6.210   3.175   0.042 -0.2016 -0.1423  0.0988
  431SOL     OW 1489   5.758   2.614   1.177  0.4789  0.0866  0.0429
  431SOL    HW2 1490   5.792   2.703   1.168  0.5872  0.1257  0.7722
  431SOL    HW3 1491   5.707   2.599   1.097 -0.1266  1.0679  0.2292
  431SOL    MW4 1492   5.756   2.623   1.166  0.0550  0.0489  0.2744
  432SOL     OW 1493   5.766   2.395   6.228  0.0520 -0.2018 -0.1401
  432SOL    HW2 1494   5.713   2.349   6.293  1.2863 -3.2629 -1.0882
  432SOL    HW3 1495   5.705   2.419   6.159 -0.8192  0.5891  0.8835
  432SOL    MW4 1496   5.751   2.392   6.228 -0.1660  0.1091  0.1076
  433SOL     OW 1497   5.283   1.936   1.344  0.7046 -0.4963 -0.7190
  433SOL    HW2 1498   5.213   1.908   1.285 -0.6784  2.9905 -0.9994
  433SOL    HW3 1499   5.334   1.998   1.291 -0.5878  2.7706  1.5850
  433SOL    MW4 1500   5.280   1.941   1.329  0.1814  0.1765 -0.0513
  434SOL     OW 1501   4.417   6.328   2.000 -0.1613 -0.1339  0.1479
  434SOL    HW2 1502   4.496   6.283   2.027  1.6191  1.2304 -2.3245
  434SOL    HW3 1503   4.384   6.370   2.080  2.0293 -0.1311  1.1079
  434SOL    MW4 1504   4.423   6.328   2.014 -0.6359  0.8125  0.3530
  435SOL     OW 1505   0.168   0.115   3.985 -0.3381 -0.7480 -0.2227
  435SOL    HW2 1506   0.183   0.059   3.909 -1.4194 -0.0939 -0.9388
  435SOL    HW3 1507   0.085   0.083   4.021 -0.9719  0.3849 -0.6482
  435SOL    MW4 1508   0.159   0.103   3.980  0.1233 -0.2007  0.0798
  436SOL     OW 1509   0.169   1.120   0.208 -0.0739 -0.6426 -0.3451
  436SOL    HW2 1510   0.130   1.205   0.192  0.2530 -0.2813  0.6728
  436SOL    HW3 1511   0.233   1.109   0.138  0.1974  0.1584 -0.2360
  436SOL    MW4 1512   0.173   1.129   0.197 -0.4275  0.1246 -0.0897
  437SOL     OW 1513   1.245   4.435   3.675 -0.9781 -0.1054 -0.5538
  437SOL    HW2 1514   1.182   4.411   3.743 -0.2096 -1.9118 -0.4255
  437SOL    HW3 1515   1.278   4.352   3.642  1.1395  0.7685 -0.8201
  437SOL    MW4 1516   1.241   4.421   3.680  0.3990  0.3579  0.3285
  438SOL     OW 1517   1.172   4.084   1.435  0.5564  0.2614 -0.2055
  438SOL    HW2 1518   1.089   4.100   1.481  0.8346  1.5539 -0.0989
  438SOL    HW3 1519   1.220   4.025   1.493  0.4227  0.9394  0.6246
  438SOL    MW4 1520   1.167   4.078   1.449 -0.0049 -0.1920  0.3930
  439SOL     OW 1521   0.375   1.168   5.521 -0.0607  0.1743  0.3394
  439SOL    HW2 1522   0.297   1.117   5.540  0.2993  0.2059  2.0428
  439SOL    HW3 1523   0.351   1.258   5.543  0.4281  0.1931  0.8206
  439SOL    MW4 1524   0.362   1.173   5.526 -0.0017 -0.0888  0.0079
  440SOL     OW 1525   2.756   5.755   5.030 -0.3320 -0.6323  0.1566
  440SOL    HW2 1526   2.703   5.765   4.951 -0.4535 -0.5143  0.2530
  440SOL    HW3 1527   2.763   5.660   5.042  1.5544 -0.7328 -1.2492
  440SOL    MW4 1528   2.750   5.744   5.021  0.0783  0.4014  0.7024
  441SOL     OW 1529   5.971   4.456   0.903 -0.4174 -0.0242  0.5520
  441SOL    HW2 1530   5.930   4.371   0.923 -1.2951  0.5795  1.4656
  441SOL    HW3 1531   5.916   4.493   0.834 -0.5353  0.1551  0.7416
  441SOL    MW4 1532   5.958   4.449   0.897 -0.4825 -0.0678  0.4250
  442SOL     OW 1533   2.032   3.788   3.473  0.3486 -0.3341 -0.1985
  442SOL    HW2 1534   1.946   3.747   3.467  0.2572 -0.5551  1.8099
  442SOL    HW3 1535   2.026   3.866   3.417 -0.3289 -1.6002 -1.9806
  442SOL    MW4 1536   2.020   3.793   3.465 -0.1944  0.1570 -0.6254
  443SOL     OW 1537   0.636   2.641   2.811  0.5426  0.5160 -0.1910
  443SOL    HW2 1538   0.712   2.665   2.865 -0.0246  1.5518  0.1672
  443SOL    HW3 1539   0.634   2.706   2.741 -0.0294  0.5072 -0.1874
  443SOL    MW4 1540   0.646   2.652   2.809 -0.0334  0.0598  0.4671
  444SOL     OW 1541   5.512   1.797   1.420  0.3482  0.5738 -0.0800
  444SOL    HW2 1542   5.426   1.839   1.410  0.2293  0.2237 -0.6097
  444SOL    HW3 1543   5.492   1.703   1.423  0.6972  0.5007  0.0216
  444SOL    MW4 1544   5.498   1.790   1.419 -0.0887  0.0756  0.2593
  445SOL     OW 1545   5.531   5.678   6.042  0.4207 -0.0910  0.0625
  445SOL    HW2 1546   5.561   5.588   6.026  0.0020 -0.6279  2.0916
  445SOL    HW3 1547   5.609   5.732   6.026  0.5277 -0.6972 -1.7831
  445SOL    MW4 1548   5.546   5.673   6.038 -0.0137  0.3425 -0.5257
  446SOL     OW 1549   0.643   6.340   3.748  0.2376  0.4861  0.2466
  446SOL    HW2 1550   0.725   6.328   3.796  0.7376  1.6882 -0.2719
  446SOL    HW3 1551   0.583   6.277   3.788  1.0395  0.4620  1.4864
  446SOL    MW4 1552   0.646   6.330   3.760  0.2084 -0.3922  0.0925
  447SOL     OW 1553   1.803   4.666   5.032 -0.3705  0.0495 -0.3222
  447SOL    HW2 1554   1.843   4.684   4.947  0.0945  0.0197 -0.1154
  447SOL    HW3 1555   1.721   4.714   5.031 -0.6272 -0.3960 -0.9982
  447SOL    MW4 1556   1.798   4.675   5.021 -0.0044  0.4237  0.3126
  448SOL     OW 1557   2.883   2.426   4.589 -0.2953  0.4335 -0.1477
  448SOL    HW2 1558   2.823   2.434   4.663  0.2138  1.0462  0.2063
  448SOL    HW3 1559   2.966   2.401   4.628 -0.7045 -2.1594 -0.7983
  448SOL    MW4 1560   2.886   2.424   4.604 -0.2276 -0.3369 -0.4900
  449SOL     OW 1561   4.788   3.310   3.677 -0.1365 -0.2473  0.3227
  449SOL    HW2 1562   4.699   3.295   3.647 -0.0854 -0.8238  0.4414
  449SOL    HW3 1563   4.843   3.274   3.608  0.0047  0.0290  0.2902
  449SOL    MW4 1564   4.784   3.303   3.664  0.6229  0.0841  0.0041
  450SOL     OW 1565   1.580   2.202   2.535  0.4578 -0.1971 -0.6085
  450SOL    HW2 1566   1.597   2.170   2.446  2.2059 -0.5518 -0.1918
  450SOL    HW3 1567   1.485   2.209   2.540  0.2413 -1.5408 -2.0299
  450SOL    MW4 1568   1.570   2.199   2.524 -0.7542 -0.1947 -0.4286
  451SOL     OW 1569   0.890   6.140   1.828  0.2788 -0.5054 -0.1605
  451SOL    HW2 1570   0.808   6.093   1.840 -1.0772  1.0888 -2.4818
  451SOL    HW3 1571   0.870   6.231   1.849  0.9038  0.2249 -2.4190
  451SOL    MW4 1572   0.877   6.146   1.832 -0.3250  0.0584 -0.4611
  452SOL     OW 1573   5.905   3.085   0.923  0.0198  0.1463 -0.3821
  452SOL    HW2 1574   5.913   3.041   0.838 -0.7098 -0.6594 -0.0408
  452SOL    HW3 1575   5.822   3.133   0.918  0.4602  0.9190 -0.4828
  452SOL    MW4 1576   5.895   3.086   0.911  0.6768  0.7955  0.0338
  453SOL     OW 1577   2.170   2.061   1.921 -0.0879 -0.4643  0.3179
  453SOL    HW2 1578   2.141   2.046   1.831  0.0381 -1.6977  0.4647
  453SOL    HW3 1579   2.139   2.149   1.942  0.6474  0.2038 -1.2198
  453SOL    MW4 1580   2.162   2.071   1.912  0.0572  0.0858 -0.4905
  454SOL     OW 1581   1.579   5.684   3.837 -0.1120  0.4446 -0.2371
  454SOL    HW2 1582   1.579   5.596   3.874  0.2223  0.2070 -0.7903
  454SOL    HW3 1583   1.500   5.687   3.782 -0.6229  0.8059  0.5015
  454SOL    MW4 1584   1.569   5.673   3.835 -0.2699  0.5020 -0.1852
  455SOL     OW 1585   4.291   4.415   2.235 -0.7317 -0.1095  0.3435
  455SOL    HW2 1586   4.260   4.452   2.152  0.8443  2.1078  0.6608
  455SOL    HW3 1587   4.329   4.331   2.211 -0.8813  0.2062 -1.0795
  455SOL    MW4 1588   4.292   4.409   2.221 -0.5145 -0.4469 -0.5209
  456SOL     OW 1589   4.090   1.046   2.494 -0.0497  0.3860 -0.4175
  456SOL    HW2 1590   4.110   1.060   2.401 -1.6409 -0.4673 -0.9326
  456SOL    HW3 1591   4.171   1.010   2.531  1.0087  1.8967 -1.1573
  456SOL    MW4 1592   4.103   1.043   2.487 -0.0326 -0.1346 -0.0868
  457SOL     OW 1593   1.158   3.452   4.019 -0.0576 -0.2093  0.1895
  457SOL    HW2 1594   1.107   3.416   3.946 -1.1698  0.6102  0.5342
  457SOL    HW3 1595   1.180   3.376   4.072 -1.8565 -0.5046  0.5936
  457SOL    MW4 1596   1.154   3.437   4.016 -0.1600  0.3785  0.0003
  458SOL     OW 1597   4.372   2.104   5.181  0.4216 -0.0689  0.1756
  458SOL    HW2 1598   4.374   2.049   5.259 -1.8165 -2.2057 -1.1389
  458SOL    HW3 1599   4.343   2.190   5.212 -0.0155 -0.7623  1.7388
  458SOL    MW4 1600   4.369   2.108   5.195 -0.6798  0.1853 -0.0819
  459SOL     OW 1601   3.278   1.844   5.515  0.1185 -0.2604 -0.2175
  459SOL    HW2 1602   3.200   1.791   5.533 -0.6858  0.1926 -2.1108
  459SOL    HW3 1603   3.294   1.832   5.422 -0.2643  2.9698 -0.8129
  459SOL    MW4 1604   3.269   1.835   5.505  0.4690  0.9082 -0.1390
  460SOL     OW 1605   3.512   4.025   5.134 -0.7518 -0.1853 -0.3093
  460SOL    HW2 1606   3.505   4.120   5.121  0.7760  0.2127  1.3121
  460SOL    HW3 1607   3.547   3.992   5.051 -1.5396  0.6058 -0.9791
  460SOL    MW4 1608   3.516   4.033   5.122 -0.4382 -0.1184 -0.4624
  461SOL     OW 1609   3.797   4.026   6.344  0.2055 -0.1890 -0.2799
  461SOL    HW2 1610   3.802   3.995   6.254 -0.1222 -2.3646  0.3900
  461SOL    HW3 1611   3.887   4.021   6.376 -0.0787 -2.1985  0.3255
  461SOL    MW4 1612   3.809   4.021   6.337 -0.1918  0.2401 -0.6262
  462SOL     OW 1613   2.763   2.117   5.054 -0.0375 -0.1757 -0.7768
  462SOL    HW2 1614   2.693   2.168   5.014 -0.6362 -1.0594 -0.8672
  462SOL    HW3 1615   2.839   2.175   5.052 -1.0085  1.1930  0.2955
  462SOL    MW4 1616   2.764   2.131   5.049  0.1719  0.3312  0.6135
  463SOL     OW 1617   3.741   2.961   1.289  0.3624 -0.2565 -0.3090
  463SOL    HW2 1618   3.736   3.017   1.367 -0.4842 -1.1317  0.2836
  463SOL    HW3 1619   3.654   2.966   1.250  0.3177 -1.0446 -0.3272
  463SOL    MW4 1620   3.729   2.969   1.295  0.2341  0.0718 -0.0387
  464SOL     OW 1621   5.141   0.327   2.014  0.1905 -0.0286 -0.1662
  464SOL    HW2 1622   5.097   0.246   1.989  0.4483 -0.4915  0.8115
  464SOL    HW3 1623   5.166   0.368   1.931 -0.2988 -0.7516 -0.6799
  464SOL    MW4 1624   5.139   0.322   2.000 -0.4208 -0.0501 -0.0176
  465SOL     OW 1625   1.046   3.445   2.237 -0.7474  0.1261 -0.6087
  465SOL    HW2 1626   1.058   3.539   2.247  0.9260 -0.0638 -0.5797
  465SOL    HW3 1627   0.968   3.425   2.289 -2.7358  1.8455 -2.7260
  465SOL    MW4 1628   1.037   3.455   2.245  0.0720 -0.4493 -0.5304
  466SOL     OW 1629   6.046   1.705   2.701 -0.4384 -1.2376  0.2369
  466SOL    HW2 1630   6.128   1.659   2.684 -1.0263 -2.4497  0.5718
  466SOL    HW3 1631   6.015   1.671   2.784 -0.5695  0.2937  0.8578
  466SOL    MW4 1632   6.052   1.695   2.710  0.2576 -0.0500  0.4534
  467SOL     OW 1633   3.990   4.395   6.135  0.2376  0.3690 -0.0439
  467SOL    HW2 1634   3.915   4.390   6.194 -0.8547  0.6154 -1.3459
  467SOL    HW3 1635   4.039   4.471   6.165  0.6812 -0.5378  1.6059
  467SOL    MW4 1636   3.986   4.404   6.146 -0.3890  0.2353 -0.1903
  468SOL     OW 1637   4.114   1.723   5.008 -0.4449 -0.3345  0.0523
  468SOL    HW2 1638   4.089   1.678   5.089 -0.1939 -2.3787 -0.9434
  468SOL    HW3 1639   4.194   1.771   5.031 -0.5795 -0.5876  1.0986
  468SOL    MW4 1640   4.122   1.723   5.022 -0.3202  0.0455  0.1513
  469SOL     OW 1641   5.099   0.985   1.404 -0.1313 -0.2520 -0.3833
  469SOL    HW2 1642   5.028   0.924   1.380 -1.0331 -0.1519  1.8089
  469SOL    HW3 1643   5.073   1.068   1.365 -0.8028 -0.4188 -0.3055
  469SOL    MW4 1644   5.086   0.988   1.395 -0.0925  0.1536 -0.1317
  470SOL     OW 1645   1.211   5.897   0.004  0.3876  0.0867  0.5693
  470SOL    HW2 1646   1.173   5.829   0.061  1.6251 -0.5914  0.6071
  470SOL    HW3 1647   1.241   5.965   0.065 -0.3572  0.4416  0.5616
  470SOL    MW4 1648   1.210   5.897   0.020 -0.0354  0.2555 -0.0910
  471SOL     OW 1649   2.975   6.130   3.335 -0.1433 -0.2262  0.0509
  471SOL    HW2 1650   2.922   6.179   3.272  0.6935 -1.3553 -1.5992
  471SOL    HW3 1651   3.057   6.178   3.340 -0.1902 -0.1659  0.2614
  471SOL    MW4 1652   2.979   6.142   3.327  0.5952 -0.1786  0.5417
  472SOL     OW 1653   0.785   0.075   5.387 -0.8673  0.3809  0.5863
  472SOL    HW2 1654   0.723   0.001   5.387 -1.4045  0.7715  2.8428
  472SOL    HW3 1655   0.869   0.036   5.409 -0.6648  0.1335 -0.5599
  472SOL    MW4 1656   0.788   0.060   5.390  0.2911 -0.0503 -0.0966
  473SOL     OW 1657   3.888   1.031   5.882  0.3458  0.3022  0.3099
  473SOL    HW2 1658   3.897   1.069   5.970 -1.7269  1.5283  0.0798
  473SOL    HW3 1659   3.842   0.948   5.896  0.3943  0.2960  0.4317
  473SOL    MW4 1660   3.883   1.025   5.896  0.1150  0.8524  0.1344
  474SOL     OW 1661   5.345   6.392   5.096  0.6149  0.0257 -0.9296
  474SOL    HW2 1662   5.385   6.479   5.088  0.2359  0.5429  1.6900
  474SOL    HW3 1663   5.366   6.365   5.186  2.5910 -3.6102 -2.2923
  474SOL    MW4 1664   5.353   6.400   5.107 -0.7997 -0.7228  0.2547
  475SOL     OW 1665   3.961   6.164   3.433  0.2199  0.8415  0.2062
  475SOL    HW2 1666   4.035   6.109   3.459  0.5080  1.2753  0.2974
  475SOL    HW3 1667   3.887   6.128   3.483 -0.1308 -1.0262 -1.5439
  475SOL    MW4 1668   3.961   6.152   3.443 -0.2522 -0.1806 -0.5405
  476SOL     OW 1669   1.453   6.161   1.273  0.1301  0.4529  0.4062
  476SOL    HW2 1670   1.465   6.254   1.293 -1.2044  0.8667 -0.5758
  476SOL    HW3 1671   1.362   6.154   1.245  0.4231 -1.0172 -0.2781
  476SOL    MW4 1672   1.442   6.173   1.272 -0.4502  0.0850 -0.2404
  477SOL     OW 1673   6.291   4.513   2.307  0.4105 -0.5471  0.4942
  477SOL    HW2 1674   6.345   4.464   2.369  1.1022  0.2473  0.5496
  477SOL    HW3 1675   6.280   4.454   2.232  0.1928 -1.2355  1.0638
  477SOL    MW4 1676   6.297   4.499   2.305  0.6244  0.6812  0.7466
  478SOL     OW 1677   3.249   6.183   2.122  0.2501 -0.0738 -0.6586
  478SOL    HW2 1678   3.158   6.181   2.093 -0.1951 -0.2443  0.6928
  478SOL    HW3 1679   3.296   6.224   2.049 -0.7359 -0.8817 -1.7963
  478SOL    MW4 1680   3.243   6.188   2.108 -0.2054  0.2807 -0.7237
  479SOL     OW 1681   4.485   1.167   5.134  0.0276  0.5214  0.5950
  479SOL    HW2 1682   4.523   1.202   5.054 -2.3540 -0.5210 -1.1171
  479SOL    HW3 1683   4.548   1.102   5.165  1.6453  1.9552  0.4167
  479SOL    MW4 1684   4.498   1.163   5.128  0.0234  0.2510 -0.1485
  480SOL     OW 1685   4.247   4.649   4.550 -0.3144 -0.0582  0.2760
  480SOL    HW2 1686   4.172   4.594   4.571 -1.7075  1.5785 -0.1269
  480SOL    HW3 1687   4.314   4.588   4.521 -1.3974 -1.6099  0.8897
  480SOL    MW4 1688   4.246   4.634   4.549  0.0889 -0.1491  0.2293
  481SOL     OW 1689   3.060   6.217   6.241  0.0044 -0.1869 -0.3276
  481SOL    HW2 1690   3.073   6.164   6.163  1.4425 -1.0053  0.4221
  481SOL    HW3 1691   3.122   6.181   6.305 -0.8456  0.7174  1.0536
  481SOL    MW4 1692   3.070   6.205   6.239 -0.0048 -0.2270 -0.0963
  482SOL     OW 1693   1.150   5.527   1.940  0.0005 -0.2935 -0.4364
  482SOL    HW2 1694   1.082   5.552   2.002  0.3509  1.0255 -0.5535
  482SOL    HW3 1695   1.116   5.448   1.897 -2.3017  1.3391 -1.8117
  482SOL    MW4 1696   1.137   5.520   1.943 -0.4316 -0.1838 -0.1921
  483SOL     OW 1697   2.881   4.649   2.416  0.4859  0.5524 -0.2290
  483SOL    HW2 1698   2.840   4.563   2.412  1.8223 -0.1288  0.0725
  483SOL    HW3 1699   2.827   4.704   2.359  0.7570 -0.9677 -2.0508
  483SOL    MW4 1700   2.868   4.645   2.408 -0.0002 -0.7487 -0.3897
  484SOL     OW 1701   0.069   0.170   2.024  0.5529  0.5177  0.4361
  484SOL    HW2 1702   0.011   0.239   1.994  0.4471  0.0165 -0.5457
  484SOL    HW3 1703   0.112   0.138   1.945 -1.6959 -2.6347  0.3056
  484SOL    MW4 1704   0.067   0.175   2.010 -0.1013 -0.5210 -0.1894
  485SOL     OW 1705   3.190   1.506   3.383  0.5225 -0.3698  0.5178
  485SOL    HW2 1706   3.126   1.463   3.325  2.8432 -0.7422 -1.9440
  485SOL    HW3 1707   3.262   1.443   3.390  1.6929  1.0000  1.2100
  485SOL    MW4 1708   3.191   1.492   3.376 -0.0494 -0.4478  0.2004
  486SOL     OW 1709   5.369   0.121   1.545 -0.0610  0.4601 -0.1205
  486SOL    HW2 1710   5.304   0.064   1.504  0.2320 -1.2025  1.5799
  486SOL    HW3 1711   5.342   0.209   1.519 -0.6453 -0.3716 -2.7069
  486SOL    MW4 1712   5.357   0.125   1.536 -0.2455  0.0602 -0.1135
  487SOL     OW 1713   6.081   2.482   3.279 -0.4755  0.0052 -0.4996
  487SOL    HW2 1714   6.087   2.447   3.369  1.2592 -0.1041 -0.6157
  487SOL    HW3 1715   6.147   2.432   3.230  0.0062  1.4302 -1.3620
  487SOL    MW4 1716   6.091   2.470   3.285  0.3618 -0.0400 -0.9567
  488SOL     OW 1717   1.334   6.383   4.526 -0.2678 -0.1884  0.5181
  488SOL    HW2 1718   1.321   6.478   4.518  0.3704 -0.2017 -0.8879
  488SOL    HW3 1719   1.428   6.373   4.542 -0.4659 -0.5583  1.5397
  488SOL    MW4 1720   1.345   6.394   4.527 -0.9031 -0.3249  0.0396
  489SOL     OW 1721   5.354   5.028   1.631 -0.0131  0.8651  0.0308
  489SOL    HW2 1722   5.389   4.940   1.619 -0.4701  0.5022  1.2699
  489SOL    HW3 1723   5.426   5.086   1.603  0.2753  0.1254 -0.8234
  489SOL    MW4 1724   5.368   5.024   1.626  0.3129 -0.0858  0.1750
  490SOL     OW 1725   0.517   4.307   5.277 -0.3323  0.1903  0.1082
  490SOL    HW2 1726   0.450   4.348   5.331  0.7177  1.0650  0.7768
  490SOL    HW3 1727   0.576   4.264   5.339  0.0517 -0.0785 -0.4305
  490SOL    MW4 1728   0.516   4.307   5.292  0.1243  0.1268  0.0134
  491SOL     OW 1729   3.607   3.092   6.066 -0.1080  0.5894  0.7667
  491SOL    HW2 1730   3.647   3.086   6.152  0.5997 -0.1755  0.3936
  491SOL    HW3 1731   3.607   3.186   6.046 -1.5780  0.9551  2.1748
  491SOL    MW4 1732   3.612   3.104   6.075 -0.6698 -0.1225  0.6176
  492SOL     OW 1733   5.153   4.617   0.904 -0.7089 -0.4568  0.7748
  492SOL    HW2 1734   5.153   4.623   0.809  1.4531 -1.5998  0.6583
  492SOL    HW3 1735   5.063   4.639   0.929 -0.6861  2.6833 -1.2911
  492SOL    MW4 1736   5.141   4.621   0.895 -0.6527  0.0887  0.8398
  493SOL     OW 1737   2.471   4.433   4.875  0.1296  0.3165 -0.0942
  493SOL    HW2 1738   2.510   4.512   4.914  0.2254 -0.4260  1.3915
  493SOL    HW3 1739   2.406   4.404   4.939  1.2321 -1.7125  0.2092
  493SOL    MW4 1740   2.468   4.440   4.889  0.6333 -0.1782 -0.3620
  494SOL     OW 1741   3.255   0.414   0.170  0.1452  0.4412  0.8705
  494SOL    HW2 1742   3.286   0.503   0.183 -1.7864  1.2554  0.2492
  494SOL    HW3 1743   3.334   0.364   0.149  1.1270  2.2187  0.0925
  494SOL    MW4 1744   3.270   0.419   0.169 -0.0639 -0.2823  0.8986
  495SOL     OW 1745   4.152   3.018   2.029  0.3512 -0.7502  0.2360
  495SOL    HW2 1746   4.064   3.054   2.017  0.4804 -0.2401  0.7712
  495SOL    HW3 1747   4.175   2.982   1.943  0.1798  0.3800 -0.2977
  495SOL    MW4 1748   4.143   3.018   2.016  0.7438  0.1581 -0.1889
  496SOL     OW 1749   2.731   2.889   2.285 -0.2686 -0.7299 -0.0736
  496SOL    HW2 1750   2.646   2.874   2.243 -0.5780  0.1460  0.2232
  496SOL    HW3 1751   2.728   2.980   2.313  1.1682 -0.3775 -0.9656
  496SOL    MW4 1752   2.720   2.899   2.283 -0.0165  0.3563  0.2048
  497SOL     OW 1753   1.127   3.075   4.071 -0.2594 -0.1497 -0.3606
  497SOL    HW2 1754   1.162   3.043   4.153 -0.8816  0.3716  0.1203
  497SOL    HW3 1755   1.131   3.000   4.012 -0.6730 -0.8006  0.4167
  497SOL    MW4 1756   1.132   3.061   4.074  0.2800 -0.3381 -0.4708
  498SOL     OW 1757   6.419   0.352   5.748 -0.1646 -0.3162 -0.1686
  498SOL    HW2 1758   6.514   0.346   5.735  0.3343  2.9039  0.9507
  498SOL    HW3 1759   6.386   0.388   5.665 -0.4009 -1.1692 -0.4558
  498SOL    MW4 1760   6.427   0.356   5.735  0.3950  0.0055 -0.1134
  499SOL     OW 1761   2.319   0.042   2.611  0.0150  0.5119 -0.4936
  499SOL    HW2 1762   2.297   0.075   2.698 -1.1795 -0.0075 -0.5845
  499SOL    HW3 1763   2.240  -0.003   2.581  1.4262 -2.1489 -0.5249
  499SOL    MW4 1764   2.306   0.040   2.619 -0.4461  0.0269  0.2613
  500SOL     OW 1765   0.144   2.472   2.747  0.5936  0.3798 -0.1512
  500SOL    HW2 1766   0.123   2.566   2.754 -1.4826 -0.0644  0.4154
  500SOL    HW3 1767   0.139   2.440   2.837  2.3002 -0.1161 -0.2053
  500SOL    MW4 1768   0.140   2.481   2.760 -0.3469 -0.3261 -0.2631
  501SOL     OW 1769   6.417   4.282   2.423  0.0610 -0.9856  0.1812
  501SOL    HW2 1770   6.428   4.233   2.341  0.3298 -0.4571 -0.1055
  501SOL    HW3 1771   6.327   4.264   2.450 -0.1116 -0.9595 -0.3654
  501SOL    MW4 1772   6.407   4.273   2.415 -0.4853  0.2059  0.1502
  502SOL     OW 1773   3.909   0.875   2.277 -0.1301  0.1193  0.1924
  502SOL    HW2 1774   3.936   0.824   2.354 -0.0527  1.7038  1.2683
  502SOL    HW3 1775   3.983   0.933   2.261 -0.7290  0.7705 -0.2214
  502SOL    MW4 1776   3.923   0.876   2.285 -0.8974 -0.4120 -0.2222
  503SOL     OW 1777   1.535   5.973   4.267  0.0749 -0.0867 -0.9278
  503SOL    HW2 1778   1.511   5.894   4.219  1.6649 -0.1789 -1.6554
  503SOL    HW3 1779   1.510   6.045   4.209 -1.8300  0.0169 -0.0545
  503SOL    MW4 1780   1.529   5.972   4.253  0.1146  0.4148 -0.3841
  504SOL     OW 1781   5.446   1.570   2.780 -0.4403  0.2573 -0.3844
  504SOL    HW2 1782   5.429   1.509   2.851 -0.4629  0.4221 -0.2472
  504SOL    HW3 1783   5.458   1.515   2.702  0.6913  0.0100 -0.0497
  504SOL    MW4 1784   5.445   1.555   2.779 -0.2555  0.3434 -0.5140
  505SOL     OW 1785   0.825   0.951   1.008 -0.5086 -0.2792 -0.2889
  505SOL    HW2 1786   0.811   0.877   0.948  1.3382 -1.0767  0.1980
  505SOL    HW3 1787   0.852   1.023   0.952  0.8096 -0.9069 -0.5021
  505SOL    MW4 1788   0.826   0.951   0.993  0.0099  1.2036 -0.0144
  506SOL     OW 1789   0.801   3.849   6.176 -0.4992 -0.1805  0.6459
  506SOL    HW2 1790   0.769   3.919   6.119 -1.1806 -0.8187  0.2122
  506SOL    HW3 1791   0.802   3.772   6.119  1.4717 -0.2841  0.7532
  506SOL    MW4 1792   0.796   3.848   6.161 -0.6075  0.5022  0.2191
  507SOL     OW 1793   3.614   0.209   4.282 -0.1224 -0.0181 -0.2357
  507SOL    HW2 1794   3.545   0.254   4.232 -2.0549 -1.0281  1.3839
  507SOL    HW3 1795   3.597   0.116   4.268  0.4413 -0.2945  0.8004
  507SOL    MW4 1796   3.603   0.203   4.273 -0.1469 -0.2402  0.0801
  508SOL     OW 1797   3.555   4.653   2.199 -0.2636  0.4457 -0.5040
  508SOL    HW2 1798   3.536   4.734   2.152 -1.5053  1.4313  1.5947
  508SOL    HW3 1799   3.472   4.629   2.241  0.8036 -0.2696  1.3061
  508SOL    MW4 1800   3.542   4.660   2.198 -0.0000  0.6098 -0.1964
  509SOL     OW 1801   3.643   2.573   5.982  0.2331  0.4949 -0.2084
  509SOL    HW2 1802   3.550   2.576   5.959  0.4024  0.0965 -0.9433
  509SOL    HW3 1803   3.681   2.647   5.935  0.1624  1.1400  0.7150
  509SOL    MW4 1804   3.636   2.583   5.973 -0.2914  0.1330 -0.5571
  510SOL     OW 1805   6.220   6.025   4.755 -0.5601  0.2416 -0.0342
  510SOL    HW2 1806   6.193   6.100   4.702  1.1872 -0.5920 -2.2560
  510SOL    HW3 1807   6.157   5.956   4.734 -0.0332 -0.0002 -0.9045
  510SOL    MW4 1808   6.208   6.026   4.745 -0.1603  0.1348 -0.2123
  511SOL     OW 1809   3.676   1.809   4.511 -0.1490 -0.4505 -0.5696
  511SOL    HW2 1810   3.690   1.823   4.605 -0.1112 -2.1164 -0.2929
  511SOL    HW3 1811   3.759   1.774   4.479 -0.6616 -1.4324 -0.8760
  511SOL    MW4 1812   3.689   1.806   4.519 -0.2897  0.4836 -0.6579
  512SOL     OW 1813   4.595   0.580   1.388 -0.1467 -0.2735 -0.2711
  512SOL    HW2 1814   4.568   0.542   1.305  0.5462 -1.0634 -0.1618
  512SOL    HW3 1815   4.684   0.546   1.402 -0.0646  0.2338  0.5528
  512SOL    MW4 1816   4.603   0.570   1.379  0.4051 -0.0760  0.6325
  513SOL     OW 1817   1.759   4.094   0.007  0.1707 -0.2573 -0.7364
  513SOL    HW2 1818   1.694   4.154   0.042  1.4084  0.5313  0.3103
  513SOL    HW3 1819   1.720   4.007   0.016 -0.8680  0.2233 -0.4864
  513SOL    MW4 1820   1.746   4.090   0.013 -0.4696  0.1548  0.1405
  514SOL     OW 1821   1.976   0.155   0.069  0.2801 -0.1226  0.5522
  514SOL    HW2 1822   1.953   0.203  -0.011 -1.1969 -0.7396  0.5809
  514SOL    HW3 1823   1.892   0.131   0.108  0.9853 -0.8476  1.6916
  514SOL    MW4 1824   1.962   0.158   0.064 -0.2828  0.4204  0.3453
  515SOL     OW 1825   5.358   0.396   1.472 -0.4861  0.1824 -0.8282
  515SOL    HW2 1826   5.440   0.417   1.516 -0.4694 -0.6579 -0.4375
  515SOL    HW3 1827   5.298   0.466   1.497  0.3821  1.3881 -1.9477
  515SOL    MW4 1828   5.361   0.408   1.481 -0.2222 -0.7114 -0.4012
  516SOL     OW 1829   6.386   1.803   2.868 -0.0493  0.3333 -0.1121
  516SOL    HW2 1830   6.293   1.803   2.888 -0.3024 -0.2298 -1.2336
  516SOL    HW3 1831   6.394   1.857   2.789  0.6236  0.6789  0.1825
  516SOL    MW4 1832   6.375   1.810   2.860 -0.2456 -0.7579 -0.2605
  517SOL     OW 1833   4.703   0.291   4.001 -0.4432 -0.6927  0.5929
  517SOL    HW2 1834   4.629   0.263   4.055 -0.8621  0.8978  0.8995
  517SOL    HW3 1835   4.780   0.276   4.056 -0.8145  0.3467  1.4355
  517SOL    MW4 1836   4.703   0.285   4.015  0.1870  0.4173  0.3826
  518SOL     OW 1837   5.500   4.065   2.032  0.1812 -0.1175 -0.2714
  518SOL    HW2 1838   5.573   4.033   1.980 -0.2149 -1.4500 -0.0652
  518SOL    HW3 1839   5.540   4.120   2.099  0.9343 -0.3777 -0.4983
  518SOL    MW4 1840   5.515   4.068   2.034 -0.2208  0.0113 -0.0343
  519SOL     OW 1841   0.455   1.184   1.555 -0.1229 -0.1729 -0.4186
  519SOL    HW2 1842   0.515   1.251   1.523  1.1336 -1.0612  0.0156
  519SOL    HW3 1843   0.419   1.221   1.636  0.8232 -0.1536  0.0031
  519SOL    MW4 1844   0.458   1.198   1.561  0.5703  0.1390 -0.0899
  520SOL     OW 1845   6.291   5.045   3.035 -0.4171 -0.8099  0.1407
  520SOL    HW2 1846   6.240   4.964   3.032 -0.4857 -0.9003  2.2375
  520SOL    HW3 1847   6.321   5.051   3.126  0.2754  1.0977 -0.1703
  520SOL    MW4 1848   6.288   5.035   3.047  0.2649 -0.4675  0.6534
  521SOL     OW 1849   4.252   0.775   5.633  0.2764 -0.0275  0.4407
  521SOL    HW2 1850   4.338   0.792   5.672 -0.6427  1.1367  2.0862
  521SOL    HW3 1851   4.231   0.855   5.584 -1.4514  1.3806  3.2232
  521SOL    MW4 1852   4.260   0.788   5.632 -0.1940 -0.3644  0.0501
  522SOL     OW 1853   2.805   2.864   0.027 -1.3466  0.1801  0.1655
  522SOL    HW2 1854   2.744   2.803  -0.015 -2.2113 -0.0223  1.6505
  522SOL    HW3 1855   2.864   2.807   0.076 -1.2594  0.4727  0.3994
  522SOL    MW4 1856   2.805   2.848   0.028 -0.2933 -1.4866 -0.2600
  523SOL     OW 1857   3.497   0.702   4.666  0.1560  0.9600 -0.2877
  523SOL    HW2 1858   3.449   0.623   4.642 -0.0449  1.4002 -1.3932
  523SOL    HW3 1859   3.449   0.737   4.741  0.1691  0.1219  0.1256
  523SOL    MW4 1860   3.484   0.696   4.673 -0.0611 -0.1264  0.5029
  524SOL     OW 1861   5.339   6.036   2.104  0.0113  0.4790 -0.2089
  524SOL    HW2 1862   5.421   6.035   2.054 -0.1995  0.4985 -0.5626
  524SOL    HW3 1863   5.286   5.967   2.064  0.4625 -0.6342  1.0631
  524SOL    MW4 1864   5.343   6.027   2.092 -0.4342 -0.0848  0.3565
  525SOL     OW 1865   2.826   5.027   0.025 -0.1321  0.6201 -0.2971
  525SOL    HW2 1866   2.733   5.033   0.046 -0.3482 -2.1238 -0.0896
  525SOL    HW3 1867   2.831   4.965  -0.049  1.5597  0.0622  0.2209
  525SOL    MW4 1868   2.815   5.019   0.018  1.0081 -0.1599  0.1262
  526SOL     OW 1869   4.942   5.129   1.919 -0.0216 -0.6251 -0.0919
  526SOL    HW2 1870   5.034   5.106   1.908 -0.2534 -1.6679  0.0468
  526SOL    HW3 1871   4.925   5.117   2.013 -0.2894 -0.4112 -0.1123
  526SOL    MW4 1872   4.952   5.124   1.930  0.0557  0.5617 -0.8192
  527SOL     OW 1873   3.587   2.015   0.888  0.0899 -0.4674 -0.2478
  527SOL    HW2 1874   3.545   2.099   0.871  0.6963 -0.0807  0.1521
  527SOL    HW3 1875   3.681   2.034   0.890  0.1716 -0.8988  1.2074
  527SOL    MW4 1876   3.594   2.028   0.886 -0.1346 -0.4864  0.1536
  528SOL     OW 1877   1.606   4.445   5.339  0.0610 -0.0031  0.1780
  528SOL    HW2 1878   1.635   4.355   5.328 -0.0664 -0.0183 -0.0304
  528SOL    HW3 1879   1.592   4.454   5.434 -0.6423 -0.4234  0.1205
  528SOL    MW4 1880   1.608   4.435   5.350  0.5392  0.7714  0.5477
  529SOL     OW 1881   0.895   0.197   0.598 -0.0249 -0.4709 -0.4554
  529SOL    HW2 1882   0.870   0.188   0.506 -1.4049  0.4264 -0.1923
  529SOL    HW3 1883   0.912   0.108   0.627  1.8314 -0.6590 -1.9275
  529SOL    MW4 1884   0.894   0.184   0.590 -0.1164 -0.9307 -0.3479
  530SOL     OW 1885   1.100   0.501   5.779 -0.2817 -0.5862  0.2993
  530SOL    HW2 1886   1.184   0.476   5.741  0.3558 -0.0793  1.3220
  530SOL    HW3 1887   1.045   0.523   5.704  1.7425  2.9948 -0.3332
  530SOL    MW4 1888   1.104   0.501   5.764 -0.4639  0.3656  0.2899
  531SOL     OW 1889   5.217   5.746   5.540  0.0651  0.0648 -0.1692
  531SOL    HW2 1890   5.295   5.693   5.523  1.4033  1.4447  1.2457
  531SOL    HW3 1891   5.179   5.763   5.454  0.5018 -1.8166 -0.7625
  531SOL    MW4 1892   5.222   5.741   5.527 -0.2662 -0.6919  0.2996
  532SOL     OW 1893   4.091   3.108   6.120  0.5263  0.1278 -0.7347
  532SOL    HW2 1894   4.147   3.166   6.171 -0.9975 -0.9219  2.4174
  532SOL    HW3 1895   4.004   3.148   6.124 -0.6436 -2.2816  1.8426
  532SOL    MW4 1896   4.087   3.121   6.127  0.3894  0.5663  0.3146
  533SOL     OW 1897   3.612   0.022   5.177 -0.0080 -0.0847 -0.0170
  533SOL    HW2 1898   3.563   0.030   5.095  0.1100  1.3146  0.0185
  533SOL    HW3 1899   3.700  -0.005   5.149  0.4280  1.7222 -0.5240
  533SOL    MW4 1900   3.617   0.019   5.162  0.2120 -0.0396 -0.0780
  534SOL     OW 1901   4.977   2.834   2.147  0.1411  0.3197 -0.5889
  534SOL    HW2 1902   4.982   2.813   2.240  0.3495  0.4285 -0.5740
  534SOL    HW3 1903   4.934   2.920   2.144  0.8494  0.6875 -0.5393
  534SOL    MW4 1904   4.972   2.843   2.159  0.6493 -0.0334  0.1063
  535SOL     OW 1905   5.938   5.772   4.867 -0.2341 -0.4317  0.6043
  535SOL    HW2 1906   5.925   5.804   4.777 -0.8412  0.4575  0.9985
  535SOL    HW3 1907   5.915   5.679   4.862 -0.4649 -0.3447 -0.1189
  535SOL    MW4 1908   5.933   5.764   4.854  0.4293  0.1796 -0.2525
  536SOL     OW 1909   0.739   6.001   6.338 -0.0274 -0.0491 -0.0008
  536SOL    HW2 1910   0.834   5.989   6.335  0.0397  0.6111 -1.0217
  536SOL    HW3 1911   0.708   5.968   6.254 -0.3218  2.5926 -1.0190
  536SOL    MW4 1912   0.747   5.995   6.327 -0.2056  0.8390  0.3234
  537SOL     OW 1913   0.765   3.072   5.364 -0.3513 -0.1364 -0.1198
  537SOL    HW2 1914   0.683   3.106   5.328 -1.5738 -0.8137  1.8803
  537SOL    HW3 1915   0.738   3.010   5.431  1.8148 -0.0899  0.8786
  537SOL    MW4 1916   0.750   3.068   5.368 -0.0353  0.0460 -0.0535
  538SOL     OW 1917   0.886   4.456   3.177  0.0363  0.2494  0.3534
  538SOL    HW2 1918   0.967   4.505   3.197  0.4786 -0.7474  1.0644
  538SOL    HW3 1919   0.821   4.493   3.236  0.3724 -0.0284  0.9015
  538SOL    MW4 1920   0.888   4.467   3.187  0.0810  0.1410  0.4387
  539SOL     OW 1921   1.077   3.931   4.685  0.2369 -0.1410  0.6751
  539SOL    HW2 1922   1.038   4.017   4.700  1.2844  0.4789  0.0082
  539SOL    HW3 1923   1.139   3.919   4.757  1.1543  0.3344 -0.0076
  539SOL    MW4 1924   1.080   3.941   4.696  0.2277 -0.5109 -0.1412
  540SOL     OW 1925   0.042   1.935   0.468 -0.1267 -0.4031  0.2423
  540SOL    HW2 1926   0.087   1.999   0.413 -0.7707 -1.0565 -1.1127
  540SOL    HW3 1927  -0.031   1.904   0.413 -0.2446 -1.7734  1.1171
  540SOL    MW4 1928   0.038   1.939   0.453 -0.1746 -0.9087 -0.0249
  541SOL     OW 1929   3.045   2.809   3.590  0.3205  0.2049 -0.0478
  541SOL    HW2 1930   3.051   2.749   3.664 -0.8715  0.9073  0.6650
  541SOL    HW3 1931   3.044   2.752   3.513 -1.4646 -0.7807  0.6301
  541SOL    MW4 1932   3.046   2.794   3.589  0.1359 -0.5571  0.3396
  542SOL     OW 1933   3.261   3.589   2.277  0.4328 -0.4497  0.2792
  542SOL    HW2 1934   3.330   3.587   2.211  0.7796 -0.6339  0.6431
  542SOL    HW3 1935   3.303   3.556   2.357  0.2515  0.5701  0.8140
  542SOL    MW4 1936   3.275   3.584   2.279 -0.7211 -0.6469  0.5699
  543SOL     OW 1937   5.877   2.169   3.765 -0.1940  0.2577 -0.1295
  543SOL    HW2 1938   5.799   2.119   3.791 -0.2665  0.0881 -0.6570
  543SOL    HW3 1939   5.857   2.199   3.676  0.5804 -0.2994 -0.5056
  543SOL    MW4 1940   5.864   2.166   3.756  0.0906  0.2847 -0.3497
  544SOL     OW 1941   1.278   6.111   0.149 -0.1062 -0.6290 -0.0056
  544SOL    HW2 1942   1.218   6.178   0.182  0.9117  0.5103 -0.4019
  544SOL    HW3 1943   1.352   6.113   0.209  0.6838 -0.1922 -0.9461
  544SOL    MW4 1944   1.280   6.120   0.161  0.2276 -0.4101 -0.0761
  545SOL     OW 1945   6.372   1.413   6.352 -0.3121  0.1160  0.0072
  545SOL    HW2 1946   6.345   1.322   6.357 -0.7628  0.1945 -0.8575
  545SOL    HW3 1947   6.443   1.420   6.415  0.4551 -1.1008 -0.6780
  545SOL    MW4 1948   6.378   1.402   6.361 -0.2127 -0.2891 -0.1225
  546SOL     OW 1949   3.708   0.310   2.516  0.4692  0.5704  0.0183
  546SOL    HW2 1950   3.801   0.320   2.536  0.2924 -1.1547  2.1502
  546SOL    HW3 1951   3.664   0.368   2.578  0.0826  1.2462 -0.8656
  546SOL    MW4 1952   3.714   0.319   2.527 -0.2153  0.1979 -0.0608
  547SOL     OW 1953   5.442   6.189   0.974  0.3014  0.1760  0.0755
  547SOL    HW2 1954   5.459   6.137   0.896 -1.1269 -0.5203  0.1954
  547SOL    HW3 1955   5.521   6.242   0.986  0.8061 -0.2040 -1.4386
  547SOL    MW4 1956   5.455   6.189   0.965 -0.7343 -0.3049  0.1597
  548SOL     OW 1957   3.331   2.877   2.214 -0.1501  0.0536 -0.2754
  548SOL    HW2 1958   3.317   2.955   2.267 -1.6238 -0.0877 -0.4077
  548SOL    HW3 1959   3.246   2.831   2.216 -0.0619 -0.2684 -2.2122
  548SOL    MW4 1960   3.318   2.881   2.221 -1.1351 -0.5037  0.0095
  549SOL     OW 1961   5.719   4.568   2.384 -0.6590 -0.2846  0.2667
  549SOL    HW2 1962   5.786   4.602   2.325 -0.4067  0.4089  0.9332
  549SOL    HW3 1963   5.710   4.635   2.452 -1.7367 -0.5578  0.4162
  549SOL    MW4 1964   5.727   4.581   2.385 -0.7198 -0.3516  0.3800
  550SOL     OW 1965   0.844   5.092   4.636 -0.2626  0.3579 -0.3119
  550SOL    HW2 1966   0.846   5.149   4.714 -0.0380 -0.4864  0.3149
  550SOL    HW3 1967   0.767   5.120   4.588 -0.5327  0.7437  0.3340
  550SOL    MW4 1968   0.834   5.104   4.640  0.3197  0.8823  0.1305
  551SOL     OW 1969   1.303   2.153   0.752 -0.0292  0.5118  0.6244
  551SOL    HW2 1970   1.245   2.088   0.793  0.8562  0.3049  1.5968
  551SOL    HW3 1971   1.387   2.108   0.742  0.3345  1.2055  0.4559
  551SOL    MW4 1972   1.306   2.139   0.756  0.0632  0.7901  0.0665
  552SOL     OW 1973   4.557   0.322   3.170  0.2716 -0.0334 -0.1098
  552SOL    HW2 1974   4.582   0.373   3.247  1.9630  1.2183 -1.3816
  552SOL    HW3 1975   4.462   0.322   3.170  0.2262 -0.5449  2.2380
  552SOL    MW4 1976   4.548   0.329   3.180 -0.0100  0.7125 -0.0348
  553SOL     OW 1977   1.232   5.392   2.476 -0.1453 -0.2181  0.5130
  553SOL    HW2 1978   1.199   5.475   2.511  1.0004  0.2235  0.5833
  553SOL    HW3 1979   1.297   5.417   2.411  0.0625 -1.0651  0.3814
  553SOL    MW4 1980   1.236   5.406   2.472  0.3431  0.5756 -0.5519
  554SOL     OW 1981   5.471   2.856   3.343  0.1540 -0.4938  0.1492
  554SOL    HW2 1982   5.446   2.764   3.338 -1.4589 -0.0368 -1.4662
  554SOL    HW3 1983   5.511   2.875   3.258  1.2748  0.0935  0.7918
  554SOL    MW4 1984   5.473   2.846   3.331  0.5102  0.1217  0.3161
  555SOL     OW 1985   5.471   3.285   3.839  1.0511  0.1522  1.0716
  555SOL    HW2 1986   5.493   3.343   3.766 -1.5580 -0.4893 -0.3456
  555SOL    HW3 1987   5.457   3.344   3.913 -0.5247  1.2694 -0.0678
  555SOL    MW4 1988   5.472   3.301   3.840  0.2106 -0.7368  0.1380
  556SOL     OW 1989   1.186   2.782   0.850 -0.2387  0.0413 -0.0637
  556SOL    HW2 1990   1.240   2.734   0.788 -0.1134 -1.1583  0.9312
  556SOL    HW3 1991   1.226   2.869   0.854  0.5307 -0.2679 -0.6695
  556SOL    MW4 1992   1.198   2.788   0.842  0.1283  0.0773 -0.0613
  557SOL     OW 1993   2.421   2.932   3.422 -0.1029 -0.0076  0.1331
  557SOL    HW2 1994   2.416   2.837   3.435  1.5755 -0.0413  0.8095
  557SOL    HW3 1995   2.330   2.959   3.412 -0.6463 -1.6437  0.2223
  557SOL    MW4 1996   2.409   2.923   3.422  0.5194 -0.1203  0.0972
  558SOL     OW 1997   2.343   5.163   4.690  0.1680 -0.2631 -0.6262
  558SOL    HW2 1998   2.294   5.086   4.718 -0.9010  0.3216 -0.8229
  558SOL    HW3 1999   2.276   5.231   4.677  0.9070  0.2447 -2.0086
  558SOL    MW4 2000   2.328   5.162   4.692  0.2853 -0.1360  0.3048
  559SOL     OW 2001   2.455   1.684   5.940  0.0439 -0.0030 -0.2003
  559SOL    HW2 2002   2.519   1.743   5.979  1.0122 -1.1890  0.0948
  559SOL    HW3 2003   2.385   1.741   5.908  0.9508  1.2821  0.0288
  559SOL    MW4 2004   2.454   1.699   5.941  0.3532  0.4274  0.1168
  560SOL     OW 2005   4.582   1.620   4.069 -0.1397 -0.0837 -0.0181
  560SOL    HW2 2006   4.491   1.593   4.086 -0.8064  2.1929  0.3472
  560SOL    HW3 2007   4.575   1.710   4.037  2.0182  0.3225  0.4731
  560SOL    MW4 2008   4.569   1.628   4.067 -0.1562 -0.7107  0.1268
  561SOL     OW 2009   6.421   4.677   4.488  0.1978  0.2983  0.2249
  561SOL    HW2 2010   6.445   4.585   4.495  0.0834  0.0156 -2.2108
  561SOL    HW3 2011   6.504   4.724   4.495  0.4253 -0.0842  0.1218
  561SOL    MW4 2012   6.435   4.671   4.490  0.0332 -0.1425  0.0613
  562SOL     OW 2013   0.110   2.427   3.020 -0.3209  0.2254 -0.1418
  562SOL    HW2 2014   0.043   2.493   3.004  0.2736  1.2167  1.2714
  562SOL    HW3 2015   0.063   2.344   3.015 -1.5031  0.8577  0.1084
  562SOL    MW4 2016   0.095   2.425   3.017  0.2324  0.3864  0.0982
  563SOL     OW 2017   1.301   6.405   4.783 -0.1164  0.0253 -0.6291
  563SOL    HW2 2018   1.286   6.500   4.783  0.5885  0.1444  0.0421
  563SOL    HW3 2019   1.301   6.381   4.690  1.6568  1.0216 -0.9254
  563SOL    MW4 2020   1.299   6.414   4.771 -0.9770 -0.2471  0.3667
  564SOL     OW 2021   1.270   3.871   0.428  1.0560  0.2111 -0.0282
  564SOL    HW2 2022   1.360   3.893   0.453  0.6784 -0.2773  1.8763
  564SOL    HW3 2023   1.217   3.942   0.463  0.2755 -1.5751  2.6755
  564SOL    MW4 2024   1.275   3.883   0.436 -0.2297 -1.0946 -0.5160
  565SOL     OW 2025   0.432   3.700   4.423  0.8102  0.0429 -0.1102
  565SOL    HW2 2026   0.485   3.620   4.415  1.7227  0.4638  1.3710
  565SOL    HW3 2027   0.495   3.768   4.448 -0.1625  0.9365 -0.0477
  565SOL    MW4 2028   0.447   3.698   4.425  0.3501  0.3616 -0.3086
  566SOL     OW 2029   2.993   1.172   0.736  0.1293  0.4831 -0.4495
  566SOL    HW2 2030   3.057   1.147   0.670  0.6693  0.4170  0.0983
  566SOL    HW3 2031   2.965   1.260   0.710  1.7649  1.2659  0.2940
  566SOL    MW4 2032   2.997   1.181   0.724 -0.2881 -0.0382 -0.3981
  567SOL     OW 2033   0.331   3.190   1.875  0.2808 -0.2334  0.3477
  567SOL    HW2 2034   0.367   3.165   1.790 -0.6690  1.3097 -0.5535
  567SOL    HW3 2035   0.363   3.279   1.890 -1.0745  0.2132  0.7093
  567SOL    MW4 2036   0.340   3.199   1.866 -0.6508  0.1588 -0.7353
  568SOL     OW 2037   2.673   2.012   3.467  0.4083  1.0617 -0.5732
  568SOL    HW2 2038   2.616   2.010   3.389  1.0740  0.6470 -1.0585
  568SOL    HW3 2039   2.761   1.996   3.433  0.3852 -2.1332  0.5440
  568SOL    MW4 2040   2.677   2.009   3.452  0.3899 -0.6477 -0.4288
  569SOL     OW 2041   5.846   4.033   2.098 -0.1114 -0.0355  0.2626
  569SOL    HW2 2042   5.803   4.006   2.017 -0.0446  0.2550  0.1282
  569SOL    HW3 2043   5.792   4.104   2.132  0.6539  0.8558 -0.3027
  569SOL    MW4 2044   5.833   4.039   2.092 -0.1291 -0.0263 -0.3746
  570SOL     OW 2045   6.160   2.239   0.957  0.2206  0.6223 -0.4190
  570SOL    HW2 2046   6.244   2.207   0.923  0.3410 -0.0570  0.4827
  570SOL    HW3 2047   6.175   2.332   0.974 -0.0674  1.1834 -2.8900
  570SOL    MW4 2048   6.173   2.247   0.955  0.0014  0.2169  0.3649
  571SOL     OW 2049   1.776   6.244   0.127  0.0078  0.1515  0.3260
  571SOL    HW2 2050   1.697   6.236   0.073  1.1629 -0.4917 -1.3565
  571SOL    HW3 2051   1.848   6.225   0.067  1.5013  1.3268  1.6625
  571SOL    MW4 2052   1.775   6.241   0.112  0.0700 -0.7099  0.0811
  572SOL     OW 2053   3.173   3.127   4.530 -0.6450  0.2001  0.5060
  572SOL    HW2 2054   3.188   3.199   4.592  0.8221 -0.8794  1.4645
  572SOL    HW3 2055   3.259   3.110   4.492 -1.3498  0.2113 -1.1799
  572SOL    MW4 2056   3.186   3.134   4.533 -0.2400  0.2976  0.3121
  573SOL     OW 2057   2.670   3.779   5.453 -0.6716 -0.0244 -0.3481
  573SOL    HW2 2058   2.744   3.789   5.393 -1.2142  1.0964 -0.8722
  573SOL    HW3 2059   2.639   3.690   5.438 -1.1266  0.3948 -2.1759
  573SOL    MW4 2060   2.675   3.769   5.443 -0.1237 -0.1808  0.1677
  574SOL     OW 2061   0.026   1.399   5.648 -0.1131  0.1028  0.0621
  574SOL    HW2 2062   0.045   1.422   5.557 -1.4840 -0.1790 -0.3192
  574SOL    HW3 2063  -0.021   1.316   5.643 -0.8814  0.4620  0.9754
  574SOL    MW4 2064   0.023   1.391   5.636  0.5313 -0.1561 -0.6587
  575SOL     OW 2065   2.954   5.853   1.307 -0.4131  0.2075 -0.1366
  575SOL    HW2 2066   3.038   5.855   1.261 -0.4418  2.1753 -0.1885
  575SOL    HW3 2067   2.904   5.925   1.268 -0.5503  1.7829  2.6745
  575SOL    MW4 2068   2.959   5.863   1.296  0.2550 -0.1600 -0.0778
  576SOL     OW 2069   5.515   2.329   5.404 -0.3957 -0.3205 -0.0957
  576SOL    HW2 2070   5.431   2.375   5.397  0.6805  1.5884 -1.5396
  576SOL    HW3 2071   5.551   2.332   5.315  2.0092  0.5717  0.8404
  576SOL    MW4 2072   5.508   2.335   5.391 -0.4563 -0.4270  0.2164
  577SOL     OW 2073   5.120   1.695   0.400 -0.1940  0.1660 -0.2346
  577SOL    HW2 2074   5.091   1.651   0.320  0.0735 -0.2820 -0.0886
  577SOL    HW3 2075   5.204   1.735   0.376  0.4255 -0.8887  0.1183
  577SOL    MW4 2076   5.127   1.694   0.386 -0.1124  0.3322 -0.3440
  578SOL     OW 2077   1.421   0.652   1.598 -0.1963 -0.0169  0.5381
  578SOL    HW2 2078   1.378   0.658   1.684 -0.8630  1.6204  0.1115
  578SOL    HW3 2079   1.493   0.715   1.603 -0.4783  0.3717 -0.2423
  578SOL    MW4 2080   1.425   0.661   1.610  0.1208 -0.7758  0.2062
  579SOL     OW 2081   2.915   6.409   3.096  0.3458  0.2523  0.9640
  579SOL    HW2 2082   2.973   6.485   3.105  0.6245  0.1349  0.2478
  579SOL    HW3 2083   2.828   6.447   3.085  0.7566  0.6282 -1.8639
  579SOL    MW4 2084   2.911   6.424   3.096 -0.4162 -0.5050  0.2880
  580SOL     OW 2085   5.807   1.169   5.175  0.1644 -0.3189 -0.3512
  580SOL    HW2 2086   5.894   1.170   5.216  0.0073 -1.2958  0.0116
  580SOL    HW3 2087   5.753   1.221   5.233 -0.3946 -2.8132  1.4958
  580SOL    MW4 2088   5.811   1.176   5.188  0.3185  0.3500  0.5030
  581SOL     OW 2089   2.266   0.426   3.196  0.5430 -0.0679 -0.7909
  581SOL    HW2 2090   2.267   0.383   3.111  0.8285  1.8970 -1.8401
  581SOL    HW3 2091   2.305   0.361   3.256 -0.4242 -1.7949 -1.9400
  581SOL    MW4 2092   2.272   0.411   3.193  0.4462 -0.0123  0.1774
  582SOL     OW 2093   3.631   0.395   0.800 -0.0123 -0.3375 -0.1279
  582SOL    HW2 2094   3.637   0.396   0.895 -1.1223 -0.1154 -0.0481
  582SOL    HW3 2095   3.705   0.448   0.770  0.3447 -0.4134  0.6058
  582SOL    MW4 2096   3.641   0.402   0.809 -0.5997 -0.2855 -1.0550
  583SOL     OW 2097   3.402   5.175   0.473  0.0829 -0.6676 -0.4921
  583SOL    HW2 2098   3.452   5.221   0.406  0.0408 -0.5993 -0.4769
  583SOL    HW3 2099   3.357   5.105   0.426 -1.3150  0.4312 -0.8437
  583SOL    MW4 2100   3.403   5.172   0.458  0.7014  0.4208 -0.8165
  584SOL     OW 2101   6.191   2.508   5.594 -0.1245 -0.1422  0.4700
  584SOL    HW2 2102   6.136   2.467   5.528 -0.3818 -0.4800  0.8823
  584SOL    HW3 2103   6.163   2.600   5.595 -0.2104 -0.1649  0.2048
  584SOL    MW4 2104   6.180   2.515   5.586 -0.5181 -0.3829  0.1690
  585SOL     OW 2105   4.797   2.202   2.937  0.1261 -0.0682 -0.2389
  585SOL    HW2 2106   4.713   2.215   2.982 -0.4795 -1.3839 -0.9356
  585SOL    HW3 2107   4.779   2.136   2.871  1.6618 -0.1600 -0.6072
  585SOL    MW4 2108   4.783   2.195   2.934 -0.6500  0.2967 -0.3863
  586SOL     OW 2109   0.633   5.717   1.225  0.8026  0.2990 -0.1348
  586SOL    HW2 2110   0.579   5.660   1.170  0.1773  0.2186  0.5592
  586SOL    HW3 2111   0.636   5.800   1.177 -1.8174  1.0486  0.8717
  586SOL    MW4 2112   0.626   5.720   1.211 -0.2274 -0.1846 -0.5954
  587SOL     OW 2113   2.974   4.886   1.021 -0.4111  0.6249 -0.7952
  587SOL    HW2 2114   2.927   4.852   1.096  0.1591  2.0321  0.2529
  587SOL    HW3 2115   2.916   4.870   0.947 -1.2467 -0.2664  0.0270
  587SOL    MW4 2116   2.960   4.880   1.021 -0.3084 -0.1082  0.1381
  588SOL     OW 2117   2.946   3.945   0.738  0.4351  0.2733 -0.8622
  588SOL    HW2 2118   3.006   3.962   0.811  0.9769  2.0086 -1.6517
  588SOL    HW3 2119   2.980   3.865   0.698 -1.0917 -1.9279  1.9369
  588SOL    MW4 2120   2.959   3.937   0.742  0.1994  0.3928 -0.3115
  589SOL     OW 2121   2.474   1.710   2.124 -0.3033  0.0856  0.3034
  589SOL    HW2 2122   2.556   1.758   2.116 -0.7775  0.8947  0.1195
  589SOL    HW3 2123   2.497   1.619   2.107  0.3384  0.4761 -1.0033
  589SOL    MW4 2124   2.488   1.705   2.121  0.3691  0.4648 -0.5745
  590SOL     OW 2125   3.049   4.815   4.105 -0.0387 -0.1764  0.9527
  590SOL    HW2 2126   2.990   4.883   4.139 -0.8603 -0.7776  0.7625
  590SOL    HW3 2127   2.996   4.736   4.105 -1.0909  0.1598 -4.1137
  590SOL    MW4 2128   3.034   4.814   4.109 -0.2554  0.2421  0.9903
  591SOL     OW 2129   1.912   4.433   3.842  0.2487  0.3634 -0.1588
  591SOL    HW2 2130   1.981   4.399   3.898 -0.7147  0.4972  1.1636
  591SOL    HW3 2131   1.832   4.391   3.875 -0.3176  0.2231 -1.6354
  591SOL    MW4 2132   1.910   4.423   3.854  0.9060  0.2682 -0.2270
  592SOL     OW 2133   5.531   3.315   5.832  0.1066 -0.1364  0.2991
  592SOL    HW2 2134   5.525   3.393   5.777 -0.3639 -0.9350 -0.8286
  592SOL    HW3 2135   5.625   3.298   5.839  0.1537 -0.4420 -0.8984
  592SOL    MW4 2136   5.543   3.323   5.826  0.0700  0.4161  0.6558
  593SOL     OW 2137   1.054   5.887   5.159 -0.0440  0.2537 -0.1233
  593SOL    HW2 2138   1.006   5.950   5.214  0.4680 -0.2216  0.9033
  593SOL    HW3 2139   1.084   5.938   5.084  1.8464  1.7310  1.5061
  593SOL    MW4 2140   1.052   5.902   5.157  0.0702 -0.2916  0.4133
  594SOL     OW 2141   2.158   1.023   1.316 -0.5656  0.2648  0.3547
  594SOL    HW2 2142   2.104   1.102   1.316 -1.7155 -0.4767  1.4659
  594SOL    HW3 2143   2.197   1.021   1.404  1.9699  1.1927 -0.6648
  594SOL    MW4 2144   2.156   1.033   1.328  0.3536 -0.4346  0.1011
  595SOL     OW 2145   5.494   2.905   0.853  0.0310 -0.3602  0.4760
  595SOL    HW2 2146   5.435   2.886   0.780 -1.2991  0.0632  1.3869
  595SOL    HW3 2147   5.574   2.938   0.812 -0.6395 -0.2389 -0.7903
  595SOL    MW4 2148   5.497   2.907   0.838  0.2998 -0.4157 -0.5208
  596SOL     OW 2149   4.866   6.030   3.314  0.5470 -0.2259 -0.2210
  596SOL    HW2 2150   4.878   5.973   3.390 -2.2855 -1.1188 -0.3201
  596SOL    HW3 2151   4.868   6.119   3.350  1.3311 -0.5466  0.5489
  596SOL    MW4 2152   4.868   6.034   3.329 -0.2408  0.2087 -0.2083
  597SOL     OW 2153   5.231   1.281   5.473 -0.1314  0.1158  0.2805
  597SOL    HW2 2154   5.230   1.236   5.557  0.6701 -0.8083 -0.1977
  597SOL    HW3 2155   5.300   1.347   5.482 -0.6860  0.6591  0.6602
  597SOL    MW4 2156   5.240   1.284   5.485  0.1949 -0.0904 -0.6444
  598SOL     OW 2157   1.735   5.996   0.572 -0.2453 -0.0882 -0.3902
  598SOL    HW2 2158   1.803   6.028   0.633 -0.4403  0.7257 -0.5883
  598SOL    HW3 2159   1.740   6.056   0.498 -1.2910  0.0801 -0.3353
  598SOL    MW4 2160   1.745   6.008   0.570 -0.2480  0.2641 -0.0525
  599SOL     OW 2161   4.413   5.772   3.979  0.2983  0.3124  0.4359
  599SOL    HW2 2162   4.418   5.854   3.929  0.6899 -0.5109 -0.9177
  599SOL    HW3 2163   4.400   5.704   3.913 -0.1286 -0.7199  1.5472
  599SOL    MW4 2164   4.412   5.774   3.963  0.0041  0.0855 -0.2858
  600SOL     OW 2165   1.436   0.358  -0.004 -0.1337  0.2558 -0.1227
  600SOL    HW2 2166   1.348   0.387  -0.028  0.4332  1.2455 -1.0962
  600SOL    HW3 2167   1.448   0.390   0.085 -0.7714  0.0746  0.0331
  600SOL    MW4 2168   1.426   0.366   0.004  0.0970  0.5021  0.1892
  601SOL     OW 2169   5.653   2.056   3.871  0.3614 -0.4754  0.6791
  601SOL    HW2 2170   5.598   2.105   3.933  1.5276 -1.7335  2.8516
  601SOL    HW3 2171   5.702   1.995   3.927  1.6161 -1.5783 -1.5183
  601SOL    MW4 2172   5.652   2.054   3.887 -0.0413 -0.0601 -0.4204
  602SOL     OW 2173   5.377   4.911   5.626 -0.0424 -0.2098  0.2591
  602SOL    HW2 2174   5.445   4.858   5.667 -0.4220 -1.3155 -0.5135
  602SOL    HW3 2175   5.382   4.995   5.671  1.0520 -0.6589  1.0080
  602SOL    MW4 2176   5.387   4.915   5.637 -0.2507 -0.1029  0.1627
  603SOL     OW 2177   4.644   3.563   6.412 -0.0727 -0.4833 -0.3704
  603SOL    HW2 2178   4.654   3.657   6.394  0.7674 -0.4644  0.1094
  603SOL    HW3 2179   4.668   3.554   6.505 -0.3403 -1.1472 -0.3587
  603SOL    MW4 2180   4.648   3.574   6.422 -0.3775 -0.0137 -0.1164
  604SOL     OW 2181   3.106   3.916   3.165  0.1458 -0.9452 -0.0443
  604SOL    HW2 2182   3.076   3.882   3.249  1.8034  0.5563  1.2430
  604SOL    HW3 2183   3.088   3.846   3.102 -0.6337 -2.3253  1.6431
  604SOL    MW4 2184   3.100   3.903   3.168  0.2657 -0.0263 -0.0566
  605SOL     OW 2185   3.889   3.254   0.975  0.0024  0.1400 -0.0369
  605SOL    HW2 2186   3.860   3.164   0.958 -0.2363  0.6143 -2.4330
  605SOL    HW3 2187   3.825   3.289   1.037 -1.3555 -0.5903 -0.9869
  605SOL    MW4 2188   3.877   3.247   0.981  0.1406 -0.0949 -0.0286
  606SOL     OW 2189   1.059   4.264   5.257 -0.1196  0.2415 -0.1837
  606SOL    HW2 2190   1.047   4.178   5.218 -1.0887  0.9786 -1.6326
  606SOL    HW3 2191   1.153   4.282   5.249  0.0467 -0.5788 -0.0883
  606SOL    MW4 2192   1.070   4.255   5.251  0.3802  0.3419  0.4388
  607SOL     OW 2193   3.126   5.729   1.483  0.1814  0.0772 -0.1915
  607SOL    HW2 2194   3.111   5.634   1.492  0.7627 -0.0565 -0.5760
  607SOL    HW3 2195   3.047   5.762   1.440 -2.2170  0.5613  4.0326
  607SOL    MW4 2196   3.114   5.721   1.478  0.1351  0.3138  0.4662
  608SOL     OW 2197   5.016   0.069   6.398 -0.8645 -0.3205  0.0681
  608SOL    HW2 2198   4.953   0.029   6.338 -0.5502  0.5219 -0.8316
  608SOL    HW3 2199   5.050   0.145   6.352  0.7784 -0.7103  0.5606
  608SOL    MW4 2200   5.012   0.073   6.384  0.3725  0.0100  0.7501
  609SOL     OW 2201   3.714   2.241   5.814  0.3274  0.0783  0.8697
  609SOL    HW2 2202   3.676   2.320   5.775  1.1399  0.2154  0.3358
  609SOL    HW3 2203   3.683   2.242   5.905 -1.1627  0.0348  0.3914
  609SOL    MW4 2204   3.705   2.252   5.821 -0.1585  0.1219  0.1835
  610SOL     OW 2205   2.862   4.671   2.044  0.1019 -0.0993 -0.4706
  610SOL    HW2 2206   2.793   4.670   2.110 -2.3308  1.4266 -2.7816
  610SOL    HW3 2207   2.887   4.580   2.033 -1.1822 -0.6320  0.8351
  610SOL    MW4 2208   2.856   4.659   2.051  0.0592 -0.1784 -0.6041
  611SOL     OW 2209   0.240   5.572   4.963 -0.2856 -0.4809  0.0455
  611SOL    HW2 2210   0.316   5.626   4.940 -0.5259 -0.4793 -0.8021
  611SOL    HW3 2211   0.269   5.520   5.037  0.1253  0.4374  0.5483
  611SOL    MW4 2212   0.254   5.572   4.970  0.1347  0.3719  0.1235
  612SOL     OW 2213   1.910   5.402   0.722 -0.0088  0.0854  0.2952
  612SOL    HW2 2214   1.912   5.486   0.677  1.5379 -0.1602 -0.1609
  612SOL    HW3 2215   1.958   5.417   0.803  0.1393 -0.3156  0.2831
  612SOL    MW4 2216   1.917   5.415   0.726  0.1945  0.1622  0.1749
  613SOL     OW 2217   2.692   1.777   5.534 -0.2551 -0.4603  0.3291
  613SOL    HW2 2218   2.672   1.755   5.443 -1.2485  2.0358 -0.1278
  613SOL    HW3 2219   2.688   1.872   5.538  0.6668 -0.4302  2.8139
  613SOL    MW4 2220   2.689   1.787   5.523 -0.3183  0.4471 -0.2870
  614SOL     OW 2221   0.689   2.487   0.784 -0.1783 -0.2829  0.5884
  614SOL    HW2 2222   0.728   2.523   0.864 -1.8253 -0.4778  1.5203
  614SOL    HW3 2223   0.652   2.403   0.811 -1.0176 -0.2199 -0.3064
  614SOL    MW4 2224   0.690   2.480   0.798 -0.6653 -0.2164 -0.7602
  615SOL     OW 2225   2.435   1.962   1.961  0.3223  0.4194 -0.1586
  615SOL    HW2 2226   2.356   2.011   1.942  1.6364  1.9397 -2.0241
  615SOL    HW3 2227   2.412   1.909   2.038 -2.0148  1.8664  0.2399
  615SOL    MW4 2228   2.422   1.961   1.969 -0.3893 -0.0868  0.3911
  616SOL     OW 2229   2.537   3.128   5.169 -0.3132 -0.0717  0.4435
  616SOL    HW2 2230   2.509   3.206   5.120 -0.5196  0.3592  1.2243
  616SOL    HW3 2231   2.628   3.115   5.144 -0.6405 -0.3554 -0.6776
  616SOL    MW4 2232   2.545   3.137   5.159 -0.5473  0.1531  0.0585
  617SOL     OW 2233   0.639   0.145   1.428 -0.4187 -0.5266  0.0266
  617SOL    HW2 2234   0.591   0.067   1.398 -0.3165 -1.0679  1.2124
  617SOL    HW3 2235   0.725   0.112   1.453 -0.3853 -0.0450  0.5749
  617SOL    MW4 2236   0.644   0.130   1.428  0.1701 -0.2157  0.2143
  618SOL     OW 2237   6.327   6.167   3.718  0.3295 -0.0975  1.0300
  618SOL    HW2 2238   6.374   6.170   3.802  1.0473  0.4421  0.6192
  618SOL    HW3 2239   6.381   6.111   3.662 -0.0138 -0.2437  0.8436
  618SOL    MW4 2240   6.340   6.160   3.722 -0.0905 -0.0608  0.8855
  619SOL     OW 2241   4.815   2.835   5.757 -0.0001  0.5870  0.4821
  619SOL    HW2 2242   4.761   2.869   5.828  1.6124  0.9531  1.6104
  619SOL    HW3 2243   4.800   2.896   5.684 -2.0984 -0.1142  0.2605
  619SOL    MW4 2244   4.806   2.848   5.757  0.4281  0.5380 -0.2223
  620SOL     OW 2245   1.872   3.726   0.053 -0.0145  0.0678 -0.2910
  620SOL    HW2 2246   1.899   3.776  -0.024  1.1147  0.0827  0.0864
  620SOL    HW3 2247   1.921   3.644   0.046  0.0636  0.0511  0.3857
  620SOL    MW4 2248   1.882   3.722   0.042  0.1479 -1.0357  0.3643
  621SOL     OW 2249   0.722   2.299   3.261 -0.3252 -0.6930  0.8955
  621SOL    HW2 2250   0.638   2.263   3.288 -0.4057 -1.1593  0.0664
  621SOL    HW3 2251   0.763   2.329   3.342  0.0750 -3.3589  1.7887
  621SOL    MW4 2252   0.716   2.298   3.275  0.1142 -0.7310  0.6213
  622SOL     OW 2253   4.981   3.793   5.906 -0.4885 -0.6558  1.0034
  622SOL    HW2 2254   5.067   3.751   5.912 -1.8090 -3.5772  0.6535
  622SOL    HW3 2255   4.967   3.805   5.812 -0.9774 -1.3552  0.9826
  622SOL    MW4 2256   4.991   3.789   5.894 -0.1186 -0.4070 -0.0661
  623SOL     OW 2257   4.480   6.257   5.086  0.6900 -0.1215 -0.8702
  623SOL    HW2 2258   4.473   6.162   5.093 -0.9805  0.1203  4.0213
  623SOL    HW3 2259   4.428   6.278   5.009 -0.0472 -3.0484 -1.3139
  623SOL    MW4 2260   4.472   6.247   5.077 -0.0494 -0.9133  0.2893
  624SOL     OW 2261   1.269   1.038   4.317  0.2225 -0.1143 -0.1521
  624SOL    HW2 2262   1.276   1.133   4.314 -0.0415 -0.0951 -3.5152
  624SOL    HW3 2263   1.335   1.007   4.254  0.8618 -2.2443  1.4353
  624SOL    MW4 2264   1.279   1.047   4.308 -0.3811 -0.5721 -0.2512
  625SOL     OW 2265   1.084   0.780   1.348  0.2216  0.1276 -0.0853
  625SOL    HW2 2266   1.124   0.838   1.283  2.0361 -0.1125  0.7423
  625SOL    HW3 2267   1.148   0.709   1.359 -1.4850 -1.5438 -0.3445
  625SOL    MW4 2268   1.098   0.778   1.341  0.0260 -0.1269 -0.1521
  626SOL     OW 2269   1.440   0.469   0.244 -0.6228  0.4830 -0.1439
  626SOL    HW2 2270   1.509   0.529   0.215 -1.2660  1.4155  0.1876
  626SOL    HW3 2271   1.359   0.519   0.233 -1.0271  0.3781  1.8700
  626SOL    MW4 2272   1.438   0.484   0.239 -0.9103 -0.5734  0.5808
  627SOL     OW 2273   2.955   3.585   5.835 -0.6621  0.1809 -0.3019
  627SOL    HW2 2274   2.922   3.514   5.779  0.9283  0.1416 -1.2370
  627SOL    HW3 2275   3.010   3.541   5.900 -0.2538  0.4917 -0.4367
  627SOL    MW4 2276   2.958   3.570   5.836 -0.1469  0.4316 -0.0742
  628SOL     OW 2277   3.309   1.670   6.209  0.1850  0.5045  0.1057
  628SOL    HW2 2278   3.353   1.592   6.243 -0.2531  0.0194 -0.4255
  628SOL    HW3 2279   3.331   1.673   6.116 -0.4754  0.5358 -0.0597
  628SOL    MW4 2280   3.317   1.660   6.201 -0.4114  0.0953 -0.3136
  629SOL     OW 2281   3.873   4.136   3.706  0.3212 -0.0753 -0.7730
  629SOL    HW2 2282   3.920   4.219   3.716  0.8778 -0.1992 -2.0535
  629SOL    HW3 2283   3.818   4.149   3.628 -1.3647 -0.1403  0.3439
  629SOL    MW4 2284   3.872   4.149   3.697 -0.5665  0.0658 -0.8875
  630SOL     OW 2285   6.254   4.394   0.912 -0.4003 -0.1968  0.1610
  630SOL    HW2 2286   6.164   4.425   0.904 -0.3210  0.1157  0.4509
  630SOL    HW3 2287   6.247   4.307   0.950 -0.7450 -1.3880 -2.3890
  630SOL    MW4 2288   6.241   4.386   0.916  0.3840  0.1618  0.2984
  631SOL     OW 2289   3.539   4.665   0.981 -0.2677  0.2937  0.7765
  631SOL    HW2 2290   3.546   4.757   0.954  0.4789  1.0742  3.3167
  631SOL    HW3 2291   3.549   4.668   1.076 -0.6911 -2.4010  0.9639
  631SOL    MW4 2292   3.541   4.678   0.990 -0.3572  0.6502 -0.0142
  632SOL     OW 2293   4.526   5.037   4.518 -0.3401 -0.3367 -0.2726
  632SOL    HW2 2294   4.556   4.946   4.514 -0.9988 -0.5569 -0.2788
  632SOL    HW3 2295   4.451   5.035   4.576 -1.1102 -0.0034 -1.2290
  632SOL    MW4 2296   4.520   5.024   4.525 -0.0197  1.0516  0.1940
  633SOL     OW 2297   6.199   0.167   0.538 -0.0567 -0.4120 -0.0023
  633SOL    HW2 2298   6.144   0.106   0.490 -3.0772  1.8355  0.2904
  633SOL    HW3 2299   6.242   0.114   0.605 -0.7828 -2.5005 -1.1026
  633SOL    MW4 2300   6.198   0.152   0.540  0.4323  0.1434 -0.2158
  634SOL     OW 2301   3.974   0.154   1.684 -0.1626 -0.8521 -0.2714
  634SOL    HW2 2302   3.959   0.216   1.755  0.9857 -1.7137  0.7770
  634SOL    HW3 2303   3.898   0.096   1.686 -0.2567 -0.7175  0.0780
  634SOL    MW4 2304   3.962   0.154   1.693 -0.5739  0.1420 -0.1096
  635SOL     OW 2305   2.622   1.141   3.607  0.6246 -0.1760 -0.1248
  635SOL    HW2 2306   2.640   1.235   3.596  0.2810 -0.2173 -1.1256
  635SOL    HW3 2307   2.557   1.137   3.677  0.0336  0.3995 -0.6277
  635SOL    MW4 2308   2.616   1.153   3.615  0.3323  0.1506 -0.4616
  636SOL     OW 2309   0.366   2.958   4.192 -0.0654  0.2046  0.3407
  636SOL    HW2 2310   0.416   2.993   4.265 -0.1985  0.5788  0.2503
  636SOL    HW3 2311   0.291   2.914   4.233  0.7267 -1.0352  0.5268
  636SOL    MW4 2312   0.363   2.957   4.207 -0.5149 -0.3721 -0.2028
  637SOL     OW 2313   6.220   0.423   6.401 -0.2738  1.1557  0.0037
  637SOL    HW2 2314   6.224   0.349   6.461 -0.2659 -0.2056 -1.6016
  637SOL    HW3 2315   6.245   0.499   6.454  0.4238 -0.0887  1.5255
  637SOL    MW4 2316   6.224   0.423   6.416 -0.3483 -0.8347  0.2747
  638SOL     OW 2317   4.448   3.993   4.715 -0.3025 -0.2703 -0.7404
  638SOL    HW2 2318   4.489   3.931   4.655 -1.2832 -1.1720 -0.5069
  638SOL    HW3 2319   4.496   3.981   4.798 -0.5356 -0.7946 -0.6731
  638SOL    MW4 2320   4.460   3.983   4.718 -0.8517  0.1751 -0.2185
  639SOL     OW 2321   3.734   2.514   2.246  0.1776  0.2376 -0.2923
  639SOL    HW2 2322   3.662   2.568   2.213  0.2953  0.1566 -0.6781
  639SOL    HW3 2323   3.771   2.566   2.317 -1.4832 -0.5428  1.2306
  639SOL    MW4 2324   3.729   2.528   2.251  0.0623 -0.0700 -0.0179
  640SOL     OW 2325   0.975   0.472   3.090  0.5284 -0.4123 -0.2375
  640SOL    HW2 2326   1.047   0.409   3.083  0.7840  0.0067 -1.5559
  640SOL    HW3 2327   0.921   0.455   3.012 -0.0786  0.1811  0.0443
  640SOL    MW4 2328   0.977   0.461   3.079 -0.5204 -0.1535 -0.1556
  641SOL     OW 2329   5.550   3.194   1.344 -0.2185 -0.0730 -0.5780
  641SOL    HW2 2330   5.535   3.149   1.261 -0.0173  0.6456 -1.0089
  641SOL    HW3 2331   5.501   3.142   1.408 -0.0037 -0.8905 -1.0654
  641SOL    MW4 2332   5.541   3.181   1.342  0.1042  0.1486 -0.1718
  642SOL     OW 2333   3.346   4.378   2.728 -0.7856 -0.5751  0.3161
  642SOL    HW2 2334   3.336   4.348   2.819 -0.0905 -2.4361 -0.1610
  642SOL    HW3 2335   3.407   4.452   2.734 -0.6155 -0.7778  1.3524
  642SOL    MW4 2336   3.353   4.384   2.741  0.2414 -0.2627  0.4860
  643SOL     OW 2337   3.761   1.228   6.364 -0.1745  0.3089  0.7414
  643SOL    HW2 2338   3.760   1.324   6.360  2.1882  0.5580  3.0449
  643SOL    HW3 2339   3.705   1.206   6.438 -1.7397 -0.2336 -0.5613
  643SOL    MW4 2340   3.754   1.238   6.373  0.5719 -0.0829 -0.1701
  644SOL     OW 2341   1.562   3.235   4.203  0.0429  0.1688  0.5652
  644SOL    HW2 2342   1.576   3.305   4.139 -1.9646 -0.5944 -0.8388
  644SOL    HW3 2343   1.535   3.160   4.149 -0.5563 -0.8629  2.2387
  644SOL    MW4 2344   1.560   3.234   4.187 -0.4361  0.4139 -0.6374
  645SOL     OW 2345   0.330   4.790   0.947  0.0369  0.2551 -0.0969
  645SOL    HW2 2346   0.360   4.755   0.863  1.0445  0.4977  0.1386
  645SOL    HW3 2347   0.411   4.811   0.994 -0.5198  1.0336  0.5531
  645SOL    MW4 2348   0.345   4.788   0.942 -0.5557 -0.1783 -0.4066
  646SOL     OW 2349   0.592   5.766   2.483 -0.6398 -0.0332  0.0020
  646SOL    HW2 2350   0.556   5.795   2.567 -0.0828  2.7754 -0.6356
  646SOL    HW3 2351   0.537   5.809   2.417  1.8975  1.8666 -0.9977
  646SOL    MW4 2352   0.580   5.775   2.486  0.3403 -0.1574 -0.1164
  647SOL     OW 2353   3.091   2.901   6.363  0.2447  0.0931 -0.5076
  647SOL    HW2 2354   3.069   2.990   6.390  0.4568 -0.0009 -0.0035
  647SOL    HW3 2355   3.008   2.862   6.338 -0.3944 -0.5700  2.2905
  647SOL    MW4 2356   3.077   2.907   6.364  0.2267 -0.8906  0.5149
  648SOL     OW 2357   3.342   0.875   6.246  0.8704 -0.0799  0.2995
  648SOL    HW2 2358   3.403   0.841   6.311  1.5027 -1.4443 -0.9545
  648SOL    HW3 2359   3.359   0.969   6.244  3.6230 -0.4980 -0.6212
  648SOL    MW4 2360   3.353   0.883   6.254 -0.0939  0.0979 -0.1764
  649SOL     OW 2361   0.006   0.074   5.305  0.2565 -0.5185 -1.0628
  649SOL    HW2 2362  -0.023   0.104   5.219  1.1431 -1.6005 -1.7656
  649SOL    HW3 2363  -0.042  -0.008   5.319  1.4550 -1.3175 -1.3879
  649SOL    MW4 2364  -0.004   0.067   5.295 -0.5257  0.2242 -0.6203
  650SOL     OW 2365   0.421   3.545   3.061  0.6608  0.1290  0.6284
  650SOL    HW2 2366   0.443   3.639   3.059 -1.1274  0.5968  1.0218
  650SOL    HW3 2367   0.492   3.506   3.112  2.4478  0.9340 -1.1018
  650SOL    MW4 2368   0.433   3.552   3.068  0.1425  0.4810 -0.6160
  651SOL     OW 2369   3.538   1.365   3.959  0.1465  0.3314 -0.5073
  651SOL    HW2 2370   3.618   1.402   3.923  0.2234  1.1192  0.4114
  651SOL    HW3 2371   3.495   1.439   4.001  0.9799 -0.7868  2.6108
  651SOL    MW4 2372   3.543   1.380   3.960  0.1242 -0.0272  0.2785
  652SOL     OW 2373   1.737   1.827   0.567 -0.3347 -0.0786  0.1616
  652SOL    HW2 2374   1.736   1.779   0.484 -1.1407  1.0291 -0.4972
  652SOL    HW3 2375   1.756   1.760   0.633 -0.7062 -1.1627 -0.7919
  652SOL    MW4 2376   1.740   1.812   0.565 -0.2504 -0.2334  0.3614
  653SOL     OW 2377   4.047   2.163   0.646 -0.1250  0.0579 -0.1416
  653SOL    HW2 2378   3.952   2.157   0.648 -0.1874  0.3886  2.6471
  653SOL    HW3 2379   4.068   2.227   0.715  2.1707 -1.4557  0.6809
  653SOL    MW4 2380   4.037   2.171   0.656 -0.1549 -0.2390  0.7259
  654SOL     OW 2381   6.006   4.663   6.151 -0.2664  0.6605 -0.0071
  654SOL    HW2 2382   6.010   4.757   6.171 -0.1690 -0.0399  4.4219
  654SOL    HW3 2383   6.072   4.625   6.209 -0.2120 -2.1880 -1.7837
  654SOL    MW4 2384   6.015   4.671   6.161 -0.4110  0.0359 -0.8811
  655SOL     OW 2385   1.405   3.907   3.220  0.2078  0.1312  0.1538
  655SOL    HW2 2386   1.409   3.814   3.198  0.3274  0.5822 -1.9965
  655SOL    HW3 2387   1.322   3.937   3.182  0.6716  1.1027 -0.1487
  655SOL    MW4 2388   1.394   3.899   3.212  0.2259  0.4990 -0.2374
  656SOL     OW 2389   2.810   0.389   3.088  0.2358  1.0978  0.1100
  656SOL    HW2 2390   2.769   0.303   3.100  3.8127 -0.8322 -0.2606
  656SOL    HW3 2391   2.875   0.375   3.019  2.2311  3.6454  1.3215
  656SOL    MW4 2392   2.813   0.376   3.080  0.0828 -0.0825  0.1073
  657SOL     OW 2393   1.481   5.045   3.094  0.0652  0.2766 -0.1909
  657SOL    HW2 2394   1.506   5.138   3.096  1.2595 -0.0461  1.0433
  657SOL    HW3 2395   1.458   5.025   3.184  0.0209 -0.6884 -0.4097
  657SOL    MW4 2396   1.481   5.055   3.106 -0.1463 -0.0639 -0.2632
  658SOL     OW 2397   2.861   3.194   5.945  0.5390 -0.3643 -0.0088
  658SOL    HW2 2398   2.807   3.269   5.972  1.0004 -1.0135  3.0542
  658SOL    HW3 2399   2.803   3.143   5.887 -0.2244  1.6270 -1.1032
  658SOL    MW4 2400   2.846   3.197   5.941  0.4525  0.6203  0.3245
  659SOL     OW 2401   6.006   5.941   4.147  0.2696 -0.3798  0.1511
  659SOL    HW2 2402   6.022   5.864   4.201  0.5525 -0.1816  0.3499
  659SOL    HW3 2403   6.005   5.907   4.057  1.2964 -0.4770  0.1717
  659SOL    MW4 2404   6.008   5.927   4.142 -0.2015  0.7227 -0.5995
  660SOL     OW 2405   2.039   4.627   3.165 -0.1936 -0.1926  0.3514
  660SOL    HW2 2406   1.973   4.575   3.210 -0.2853 -0.0724  0.3552
  660SOL    HW3 2407   2.017   4.718   3.185 -0.7339 -0.0971 -0.6110
  660SOL    MW4 2408   2.027   4.632   3.174  0.0753 -0.3588  0.3670
  661SOL     OW 2409   5.949   2.355   3.952  0.1284  0.2655 -0.5137
  661SOL    HW2 2410   6.040   2.335   3.972 -0.2695 -2.2378 -0.8091
  661SOL    HW3 2411   5.924   2.288   3.888 -1.4948  1.8304 -1.6114
  661SOL    MW4 2412   5.957   2.343   3.946  0.1623  0.2400  1.0985
  662SOL     OW 2413   6.365   1.992   4.696 -0.0960  0.0093 -0.8857
  662SOL    HW2 2414   6.272   1.992   4.716 -0.0400 -0.0284 -0.6216
  662SOL    HW3 2415   6.402   1.923   4.751 -0.1160 -0.8879 -1.9706
  662SOL    MW4 2416   6.358   1.983   4.706  0.1452 -0.1946  0.0545
  663SOL     OW 2417   4.855   1.340   1.388  0.3604  0.0955 -0.0196
  663SOL    HW2 2418   4.942   1.331   1.350 -0.2235  1.0906 -1.7100
  663SOL    HW3 2419   4.812   1.256   1.370  0.7778 -0.1934  0.3180
  663SOL    MW4 2420   4.860   1.328   1.380  0.5210 -0.0033 -0.5533
  664SOL     OW 2421   5.896   2.947   4.482 -0.3283  0.2931 -0.0237
  664SOL    HW2 2422   5.904   3.019   4.544 -0.7417 -0.5798  1.1016
  664SOL    HW3 2423   5.963   2.884   4.510 -0.8981 -0.3602 -0.0957
  664SOL    MW4 2424   5.906   2.948   4.494 -0.5844 -0.4892 -0.3590
  665SOL     OW 2425   3.028   3.175   3.711  0.2754  0.4458 -0.0579
  665SOL    HW2 2426   2.961   3.208   3.650 -0.6375 -1.2460 -0.0135
  665SOL    HW3 2427   3.033   3.242   3.779 -2.8769 -0.2367  1.0315
  665SOL    MW4 2428   3.020   3.189   3.712 -0.2277  0.0582  0.1845
  666SOL     OW 2429   6.321   3.733   1.107  0.2619  0.2233  0.0569
  666SOL    HW2 2430   6.395   3.730   1.046 -0.4778  1.5333 -0.9521
  666SOL    HW3 2431   6.244   3.734   1.050 -0.5554 -1.2860  1.0982
  666SOL    MW4 2432   6.321   3.733   1.091 -0.4243  0.5134  0.3363
  667SOL     OW 2433   0.911   2.236   2.299 -0.3212  0.2301  0.6612
  667SOL    HW2 2434   0.999   2.267   2.277  0.4372 -1.7632  0.6429
  667SOL    HW3 2435   0.914   2.224   2.394 -0.3527 -0.4255  0.5848
  667SOL    MW4 2436   0.923   2.239   2.309  0.0390 -0.4359  0.0054
  668SOL     OW 2437   0.267   0.712   5.039 -0.3327  0.2218  0.0086
  668SOL    HW2 2438   0.271   0.749   4.951  0.4911  0.7188  0.2381
  668SOL    HW3 2439   0.337   0.647   5.041 -0.2352  0.3360  0.3495
  668SOL    MW4 2440   0.277   0.709   5.028 -0.3636 -0.3601  0.3387
  669SOL     OW 2441   5.833   3.752   2.076  0.3999  0.4615  0.7545
  669SOL    HW2 2442   5.863   3.843   2.076  1.3110  0.1659 -0.0400
  669SOL    HW3 2443   5.787   3.742   1.992  1.5662 -0.2148  0.1827
  669SOL    MW4 2444   5.831   3.763   2.065 -0.1339 -0.6624  0.2685
  670SOL     OW 2445   0.201   2.425   4.261 -0.1253 -0.7454 -0.3281
  670SOL    HW2 2446   0.239   2.416   4.174 -0.3805 -0.6110 -0.4556
  670SOL    HW3 2447   0.106   2.426   4.246 -0.1812 -1.0547 -0.0181
  670SOL    MW4 2448   0.194   2.424   4.247 -0.0506 -0.3835  0.0339
  671SOL     OW 2449   5.848   2.165   0.129 -0.1197  0.5185 -0.2142
  671SOL    HW2 2450   5.800   2.093   0.089  0.2535  0.4257 -0.4971
  671SOL    HW3 2451   5.929   2.172   0.079  0.0349  0.8655  0.0716
  671SOL    MW4 2452   5.852   2.156   0.117 -0.0337  0.5670  0.3035
  672SOL     OW 2453   4.525   1.743   1.412 -0.5277 -0.5080  0.2071
  672SOL    HW2 2454   4.609   1.774   1.379 -0.2081 -1.7348 -0.1971
  672SOL    HW3 2455   4.535   1.647   1.416 -0.7863 -0.5015  3.2189
  672SOL    MW4 2456   4.537   1.734   1.408  0.2965 -0.0321 -0.1817
  673SOL     OW 2457   2.882   1.707   2.943  0.1864  0.1335 -0.2020
  673SOL    HW2 2458   2.972   1.678   2.963  0.6608  1.6651 -0.0127
  673SOL    HW3 2459   2.857   1.760   3.019 -1.8824 -2.3307  0.9829
  673SOL    MW4 2460   2.891   1.710   2.956 -0.0776 -0.0831  0.8972
  674SOL     OW 2461   5.153   4.812   4.668  0.7619 -0.2818 -0.3244
  674SOL    HW2 2462   5.202   4.807   4.750 -2.0690 -1.7931  1.4412
  674SOL    HW3 2463   5.171   4.729   4.624  0.2608 -0.5956  0.0532
  674SOL    MW4 2464   5.162   4.801   4.673  0.3934  0.1200  0.1256
  675SOL     OW 2465   5.051   5.191   0.851 -0.1018 -0.3663  0.2913
  675SOL    HW2 2466   4.957   5.187   0.868 -0.4813  1.0141 -1.2372
  675SOL    HW3 2467   5.091   5.197   0.938 -1.2899 -2.2700  1.0367
  675SOL    MW4 2468   5.044   5.191   0.865 -0.5094  0.0162  0.3035
  676SOL     OW 2469   6.315   0.695   2.997 -0.5746 -0.5651 -0.0933
  676SOL    HW2 2470   6.333   0.678   3.090  0.6044 -0.5666 -0.3118
  676SOL    HW3 2471   6.227   0.659   2.983 -1.1339  0.2004  1.2197
  676SOL    MW4 2472   6.306   0.688   3.007 -0.5598  0.2472 -0.3291
  677SOL     OW 2473   6.176   3.530   5.719  0.4006 -0.0664  0.0418
  677SOL    HW2 2474   6.147   3.439   5.725  0.8297 -0.3140 -1.2431
  677SOL    HW3 2475   6.191   3.544   5.625 -1.8309  2.0232 -0.0982
  677SOL    MW4 2476   6.175   3.520   5.707  0.4447 -0.0508  0.6269
  678SOL     OW 2477   3.502   1.295   4.579  0.3586  0.3609  0.5517
  678SOL    HW2 2478   3.559   1.293   4.501 -0.0952 -1.7422  0.2170
  678SOL    HW3 2479   3.424   1.342   4.550  0.4137  0.0689 -0.0936
  678SOL    MW4 2480   3.499   1.301   4.565 -0.8533  0.1545 -0.3094
  679SOL     OW 2481   1.837   4.210   4.120 -0.4631  0.0610 -0.2233
  679SOL    HW2 2482   1.742   4.203   4.127 -0.5025 -0.0889 -0.8265
  679SOL    HW3 2483   1.862   4.139   4.060 -0.3888  2.3098 -3.1278
  679SOL    MW4 2484   1.828   4.200   4.113 -0.2262  0.2974 -0.0203
  680SOL     OW 2485   5.322   3.610   2.806  0.0309 -0.0462 -0.0887
  680SOL    HW2 2486   5.340   3.623   2.713  0.0090 -3.9242 -0.8104
  680SOL    HW3 2487   5.395   3.653   2.850  0.5632  1.0748 -1.9216
  680SOL    MW4 2488   5.334   3.618   2.799  0.2117 -0.1529 -0.8017
  681SOL     OW 2489   0.272   0.746   0.465 -0.8275 -0.3815  0.3071
  681SOL    HW2 2490   0.246   0.657   0.489  1.6224 -0.8524  1.4601
  681SOL    HW3 2491   0.259   0.797   0.545 -2.0041  0.3038 -0.2867
  681SOL    MW4 2492   0.267   0.741   0.479 -0.4483 -0.1614 -0.2194
  682SOL     OW 2493   2.389   0.785   0.532 -0.2637  0.0000  0.4540
  682SOL    HW2 2494   2.392   0.761   0.440 -0.2373  0.7543  0.2479
  682SOL    HW3 2495   2.425   0.709   0.578  1.2322  0.2163 -0.2818
  682SOL    MW4 2496   2.394   0.772   0.526 -0.1325 -0.4662 -0.3745
  683SOL     OW 2497   4.872   3.443   3.163 -0.3071  0.0780  0.4649
  683SOL    HW2 2498   4.895   3.412   3.076  0.5572 -0.6601  0.9437
  683SOL    HW3 2499   4.840   3.532   3.149  3.2863  1.4210 -0.2548
  683SOL    MW4 2500   4.871   3.451   3.150 -0.5774  0.1474 -0.2480
  684SOL     OW 2501   0.558   3.937   2.566  0.6806  0.0457  0.4700
  684SOL    HW2 2502   0.584   3.850   2.537  0.6122 -0.2360  1.2342
  684SOL    HW3 2503   0.463   3.934   2.569  0.6957 -0.0996  1.1893
  684SOL    MW4 2504   0.549   3.925   2.563 -0.6558  0.7141  0.0056
  685SOL     OW 2505   1.765   3.716   3.425 -0.1114  0.1292 -0.2029
  685SOL    HW2 2506   1.726   3.802   3.442  1.5273  0.8705 -0.0274
  685SOL    HW3 2507   1.722   3.685   3.346 -0.2243  1.4325 -0.6730
  685SOL    MW4 2508   1.754   3.723   3.417  0.4067  0.3851  0.2673
  686SOL     OW 2509   4.685   6.377   4.135  0.7202  0.5171  0.0963
  686SOL    HW2 2510   4.621   6.447   4.148 -0.4931 -0.5792  0.2467
  686SOL    HW3 2511   4.665   6.342   4.048  1.5691  0.6010 -0.1394
  686SOL    MW4 2512   4.674   6.382   4.126 -0.7477 -0.5736 -0.0477
  687SOL     OW 2513   5.797   4.616   2.881 -0.0595  0.2151  0.5659
  687SOL    HW2 2514   5.706   4.589   2.866  0.9510 -3.1315 -0.4344
  687SOL    HW3 2515   5.847   4.571   2.812  2.5811  0.1812  2.3531
  687SOL    MW4 2516   5.792   4.606   2.870  0.4669 -0.6057  0.1898
  688SOL     OW 2517   3.235   4.855   6.239  0.3147  0.0566  0.2271
  688SOL    HW2 2518   3.171   4.795   6.200  1.5283 -0.4164 -1.1357
  688SOL    HW3 2519   3.309   4.799   6.263  1.0694  0.8544 -0.1692
  688SOL    MW4 2520   3.236   4.839   6.237  0.2354  0.1547  0.1374
  689SOL     OW 2521   4.395   4.286   5.002  0.0936 -0.1364  0.0797
  689SOL    HW2 2522   4.439   4.317   5.081  0.1757  1.2599 -0.4719
  689SOL    HW3 2523   4.456   4.309   4.931 -0.9638  0.7133 -0.5876
  689SOL    MW4 2524   4.409   4.293   5.003 -0.0711 -0.3612  0.1486
  690SOL     OW 2525   2.312   0.404   3.725 -0.4844 -0.3575  0.1536
  690SOL    HW2 2526   2.291   0.497   3.736 -1.6688 -0.5679 -0.2045
  690SOL    HW3 2527   2.317   0.369   3.814 -2.3102 -0.4162  0.2696
  690SOL    MW4 2528   2.310   0.412   3.738  0.4163  0.4195 -0.1956
  691SOL     OW 2529   1.570   2.725   5.928 -0.3618 -0.2675 -0.5941
  691SOL    HW2 2530   1.546   2.771   6.009  0.4609 -0.7612 -0.0572
  691SOL    HW3 2531   1.504   2.753   5.865 -0.5360  0.7807  0.0215
  691SOL    MW4 2532   1.558   2.735   5.931  0.2707 -0.0387 -0.1445
  692SOL     OW 2533   3.018   6.227   2.914  0.5396 -0.2146 -0.2858
  692SOL    HW2 2534   2.984   6.288   2.980 -0.8730 -0.2900 -0.9166
  692SOL    HW3 2535   3.084   6.276   2.867  0.1779  0.4822 -0.0748
  692SOL    MW4 2536   3.022   6.241   2.917 -0.3733  0.1671  0.1454
  693SOL     OW 2537   5.688   4.756   2.608 -0.6763  0.1265  0.1381
  693SOL    HW2 2538   5.669   4.843   2.572  0.2989  0.5435  0.5795
  693SOL    HW3 2539   5.646   4.756   2.694 -0.0250  0.4800  0.4730
  693SOL    MW4 2540   5.680   4.768   2.615 -0.5155  0.0092  0.3597
  694SOL     OW 2541   5.571   4.099   5.037 -0.6699  0.7078  0.0966
  694SOL    HW2 2542   5.498   4.038   5.033  0.3035 -0.6310  1.7062
  694SOL    HW3 2543   5.566   4.137   5.124  1.7327 -1.0364  1.1032
  694SOL    MW4 2544   5.561   4.096   5.048  0.3542 -0.0322 -0.2425
  695SOL     OW 2545   5.136   4.283   5.870 -0.5841 -0.5693  0.0580
  695SOL    HW2 2546   5.070   4.329   5.922 -1.2678 -2.6673  1.1892
  695SOL    HW3 2547   5.213   4.279   5.927  0.8637  2.3613 -1.4620
  695SOL    MW4 2548   5.137   4.288   5.884 -0.4220  0.1226 -0.0939
  696SOL     OW 2549   3.941   5.488   1.510 -0.1761 -0.1107 -0.3877
  696SOL    HW2 2550   3.879   5.488   1.437  0.8103  3.5698 -1.4304
  696SOL    HW3 2551   4.024   5.515   1.471  1.1138 -0.8470  1.6761
  696SOL    MW4 2552   3.944   5.491   1.495  0.2051  0.6530 -0.3137
  697SOL     OW 2553   4.436   1.589   5.226 -0.3285  0.2692 -0.2228
  697SOL    HW2 2554   4.373   1.543   5.171  1.0392 -1.3009 -0.5792
  697SOL    HW3 2555   4.507   1.613   5.167  1.5546 -2.1471  0.8563
  697SOL    MW4 2556   4.437   1.586   5.211 -0.2916  0.9528  0.0798
  698SOL     OW 2557   2.112   0.538   0.307 -0.4259  0.0862  0.2196
  698SOL    HW2 2558   2.114   0.469   0.242 -2.9581 -1.1668  1.3552
  698SOL    HW3 2559   2.110   0.492   0.391  3.2627  1.6243  1.3992
  698SOL    MW4 2560   2.112   0.523   0.310  0.3266 -0.4326  0.3714
  699SOL     OW 2561   2.057   5.975   1.472  0.4941 -0.1831  0.7914
  699SOL    HW2 2562   2.132   5.932   1.514  0.0854 -0.5866  1.1239
  699SOL    HW3 2563   2.050   6.058   1.518  1.8718  0.6840 -0.4895
  699SOL    MW4 2564   2.066   5.980   1.484  0.6862  0.1414  0.2031
  700SOL     OW 2565   5.679   3.337   1.607 -0.0558  0.4024  0.0072
  700SOL    HW2 2566   5.586   3.358   1.620  0.2334  1.6690  0.1926
  700SOL    HW3 2567   5.697   3.267   1.669 -0.5592  1.1276  1.0048
  700SOL    MW4 2568   5.669   3.330   1.617 -0.8220  0.4629  0.3118
  701SOL     OW 2569   3.832   3.681   4.148  0.2723 -0.0236  0.8411
  701SOL    HW2 2570   3.807   3.744   4.080 -0.6802  0.1111  1.2966
  701SOL    HW3 2571   3.835   3.733   4.228  0.6924 -0.3271  1.0261
  701SOL    MW4 2572   3.829   3.696   4.150  0.1711  0.2396  0.6653
  702SOL     OW 2573   5.298   6.240   4.326  0.0634  0.1498  0.1334
  702SOL    HW2 2574   5.314   6.148   4.347  0.0987 -0.0434 -0.7253
  702SOL    HW3 2575   5.373   6.287   4.362  0.4973 -0.2664 -0.2231
  702SOL    MW4 2576   5.310   6.234   4.334  0.4481 -0.1375  0.0638
  703SOL     OW 2577   4.157   2.581   0.444  0.1484 -0.2464  0.3986
  703SOL    HW2 2578   4.244   2.612   0.467  0.5391  0.7710 -2.0912
  703SOL    HW3 2579   4.112   2.658   0.409 -0.3339 -1.4934 -1.9905
  703SOL    MW4 2580   4.162   2.595   0.442  0.4023  0.0799 -0.3296
  704SOL     OW 2581   1.099   1.057   5.517  0.1353 -0.1841  0.1345
  704SOL    HW2 2582   1.111   1.000   5.441 -2.6585 -1.3067  0.4327
  704SOL    HW3 2583   1.061   1.001   5.584  1.0063  1.1616  1.8610
  704SOL    MW4 2584   1.096   1.042   5.516  0.5571 -1.1598  0.7746
  705SOL     OW 2585   2.452   4.911   1.898  0.4743  0.7515  0.1337
  705SOL    HW2 2586   2.548   4.910   1.896  0.4599  0.1570 -0.7109
  705SOL    HW3 2587   2.426   4.876   1.813 -0.5033  0.1550  0.6645
  705SOL    MW4 2588   2.461   4.907   1.887 -0.2535 -0.4607 -0.2575
  706SOL     OW 2589   6.354   0.382   0.821  0.2091  0.3579  0.2727
  706SOL    HW2 2590   6.396   0.464   0.847 -0.6178  0.0502  2.9049
  706SOL    HW3 2591   6.426   0.321   0.807  0.7850  0.5892  1.9783
  706SOL    MW4 2592   6.369   0.384   0.823  0.5299  0.5417  0.4166
  707SOL     OW 2593   3.031   1.330   3.779  0.2138 -0.0912  0.1683
  707SOL    HW2 2594   2.996   1.241   3.768  1.6038 -0.5319 -1.0206
  707SOL    HW3 2595   3.119   1.317   3.813 -0.3991  0.9626  2.3301
  707SOL    MW4 2596   3.038   1.316   3.782  0.0984 -0.2844 -0.0737
  708SOL     OW 2597   2.604   3.168   2.275 -0.0442  0.1891  0.1827
  708SOL    HW2 2598   2.541   3.201   2.339  0.4653 -0.3495  0.9661
  708SOL    HW3 2599   2.571   3.202   2.191 -0.9555  0.5421  0.6608
  708SOL    MW4 2600   2.591   3.177   2.272  0.4621  0.1188  0.3683
  709SOL     OW 2601   4.669   5.030   1.224  0.9912  0.6001  0.4466
  709SOL    HW2 2602   4.675   4.962   1.157  1.7885 -0.3145  1.3942
  709SOL    HW3 2603   4.585   5.073   1.208  0.0773 -1.1523  0.2982
  709SOL    MW4 2604   4.659   5.027   1.213  0.0030 -0.3495 -0.0926
  710SOL     OW 2605   1.430   2.442   5.376  0.0966 -0.1895 -0.0456
  710SOL    HW2 2606   1.399   2.517   5.324  0.1886 -0.8285 -1.0516
  710SOL    HW3 2607   1.523   2.460   5.390  0.3667 -0.5908 -1.1770
  710SOL    MW4 2608   1.438   2.455   5.371 -0.3805 -0.1142  0.3946
  711SOL     OW 2609   5.051   4.929   2.584  0.0671  0.0198 -0.2548
  711SOL    HW2 2610   5.146   4.918   2.597  0.1457  1.1774  0.2267
  711SOL    HW3 2611   5.012   4.894   2.665  0.1044 -0.1258 -0.2996
  711SOL    MW4 2612   5.059   4.923   2.597 -0.3135  0.1860 -0.2300
  712SOL     OW 2613   4.525   3.571   5.997 -0.1512 -0.0725  0.2451
  712SOL    HW2 2614   4.519   3.592   5.904 -0.7283 -1.8336 -0.1508
  712SOL    HW3 2615   4.615   3.593   6.020 -0.3003  1.4161 -0.4231
  712SOL    MW4 2616   4.536   3.577   5.988 -0.0022  0.3085 -0.2642
  713SOL     OW 2617   1.649   3.868   2.148  0.6468 -0.0385 -0.2984
  713SOL    HW2 2618   1.674   3.871   2.240 -0.5992 -0.3081  0.0762
  713SOL    HW3 2619   1.628   3.959   2.126  0.0040 -0.1091 -0.0177
  713SOL    MW4 2620   1.649   3.880   2.157  0.8020 -0.0005  0.0083
  714SOL     OW 2621   5.572   2.127   0.546 -0.6759 -0.8278  0.0555
  714SOL    HW2 2622   5.661   2.097   0.525  0.1231 -0.2735  2.2902
  714SOL    HW3 2623   5.523   2.046   0.563 -0.3374 -1.1056 -0.2882
  714SOL    MW4 2624   5.577   2.112   0.546  0.0658  0.1880  0.5969
  715SOL     OW 2625   0.762   5.022   3.606  0.0369  0.2040  0.7030
  715SOL    HW2 2626   0.851   5.044   3.578 -0.0274 -1.5278 -1.0537
  715SOL    HW3 2627   0.709   5.095   3.575  0.4187 -0.2687 -1.1858
  715SOL    MW4 2628   0.767   5.035   3.599 -0.4124  1.0390 -0.0641
  716SOL     OW 2629   0.370   4.074   4.473  0.1748 -0.4353  0.1948
  716SOL    HW2 2630   0.312   4.056   4.399 -2.8439  3.1287  1.3672
  716SOL    HW3 2631   0.425   4.147   4.444 -1.4779  1.4405  1.4249
  716SOL    MW4 2632   0.370   4.081   4.460  0.1391 -0.2993  0.0706
  717SOL     OW 2633   5.771   3.748   4.299 -0.3358 -0.3077 -0.2409
  717SOL    HW2 2634   5.751   3.736   4.206  1.8668  0.3337 -0.8441
  717SOL    HW3 2635   5.807   3.836   4.305 -0.9217 -0.1475  1.3396
  717SOL    MW4 2636   5.773   3.758   4.288  0.2787  0.2918  0.1779
  718SOL     OW 2637   0.376   6.037   0.683  0.2941  0.6745  0.1857
  718SOL    HW2 2638   0.432   6.114   0.697 -0.1414  1.0968 -0.3627
  718SOL    HW3 2639   0.311   6.041   0.753 -0.9221  1.9107 -0.9476
  718SOL    MW4 2640   0.375   6.048   0.694  0.2358 -0.5228  0.0324
  719SOL     OW 2641   1.198   1.630   5.034 -0.0668  1.0476 -0.1181
  719SOL    HW2 2642   1.184   1.535   5.033  0.8728  0.7897 -3.5083
  719SOL    HW3 2643   1.111   1.667   5.022 -0.6492  0.7993  2.6505
  719SOL    MW4 2644   1.185   1.622   5.032 -0.5759  0.3919 -0.1309
  720SOL     OW 2645   2.786   5.241   4.446  0.5306  0.4093 -0.2526
  720SOL    HW2 2646   2.704   5.194   4.459 -0.0471  1.7364  1.2996
  720SOL    HW3 2647   2.759   5.332   4.435  1.7998  0.9974  1.1268
  720SOL    MW4 2648   2.771   5.247   4.446 -0.7626 -0.3237  0.1278
  721SOL     OW 2649   3.129   2.204   2.364  0.1783  0.0138 -0.0330
  721SOL    HW2 2650   3.133   2.288   2.410 -0.1211 -0.8838  1.7071
  721SOL    HW3 2651   3.072   2.150   2.418 -0.8773 -0.8548 -1.9252
  721SOL    MW4 2652   3.122   2.208   2.377 -0.3472  0.0831 -0.5906
  722SOL     OW 2653   3.225   2.870   4.844  0.0085  0.1148  0.0458
  722SOL    HW2 2654   3.258   2.935   4.906  0.2420 -0.0659  0.1102
  722SOL    HW3 2655   3.131   2.864   4.864 -0.1519  0.9388 -0.4255
  722SOL    MW4 2656   3.217   2.877   4.855 -0.5841 -0.7927  0.0121
  723SOL     OW 2657   6.277   6.053   2.251 -0.2971  0.0140  0.2876
  723SOL    HW2 2658   6.307   6.094   2.170 -0.5613  0.5626  0.4649
  723SOL    HW3 2659   6.358   6.030   2.297 -0.1043  1.6467  0.8448
  723SOL    MW4 2660   6.292   6.055   2.246 -0.2874  0.5094 -0.3926
  724SOL     OW 2661   1.591   0.202   0.495  0.3905  0.1306  0.0005
  724SOL    HW2 2662   1.539   0.280   0.515  1.9267  0.7021  2.1553
  724SOL    HW3 2663   1.665   0.234   0.444  0.5455 -0.0481  0.1108
  724SOL    MW4 2664   1.594   0.216   0.491 -0.7607  0.2279  0.0126
  725SOL     OW 2665   0.339   0.357   4.829 -0.0094  0.1046  0.0376
  725SOL    HW2 2666   0.394   0.392   4.899 -1.5223  0.7911  0.9537
  725SOL    HW3 2667   0.339   0.262   4.843  1.1528  0.0596 -0.1755
  725SOL    MW4 2668   0.346   0.349   4.840  0.6812 -0.1255 -0.1557
  726SOL     OW 2669   5.316   0.113   0.298  0.1978 -0.6589  0.2326
  726SOL    HW2 2670   5.271   0.058   0.362  1.8990  0.2707  2.3321
  726SOL    HW3 2671   5.392   0.061   0.272  0.1561 -0.5387 -0.1355
  726SOL    MW4 2672   5.320   0.099   0.303 -0.0803 -0.6382  0.0330
  727SOL     OW 2673   5.345   2.856   1.472 -0.0244 -0.7629  0.3273
  727SOL    HW2 2674   5.339   2.766   1.502  2.1736 -0.9441  0.3884
  727SOL    HW3 2675   5.415   2.855   1.406  1.4879  1.2031  1.7574
  727SOL    MW4 2676   5.353   2.844   1.467 -0.3093 -0.0885 -0.3351
  728SOL     OW 2677   4.372   0.245   6.019  0.1607 -0.1673  0.3509
  728SOL    HW2 2678   4.335   0.168   5.977 -0.4992  0.5949 -0.5180
  728SOL    HW3 2679   4.296   0.290   6.057  0.5209  0.1182  0.7382
  728SOL    MW4 2680   4.357   0.241   6.019  0.8242 -0.8462 -0.1424
  729SOL     OW 2681   3.021   2.125   0.073  0.8573  0.8336  0.4249
  729SOL    HW2 2682   3.087   2.068   0.113 -0.7962 -0.3289  1.6424
  729SOL    HW3 2683   2.981   2.172   0.147 -1.6836 -0.7107  0.1592
  729SOL    MW4 2684   3.024   2.124   0.088 -0.2045 -0.0580 -0.4010
  730SOL     OW 2685   2.324   3.111   2.383  0.0304 -0.0285  0.2285
  730SOL    HW2 2686   2.261   3.039   2.384 -1.1227  0.9430 -0.2105
  730SOL    HW3 2687   2.280   3.182   2.429  1.2679  0.3229  0.9237
  730SOL    MW4 2688   2.310   3.110   2.389  0.0650 -0.3782 -0.2588
  731SOL     OW 2689   2.603   6.289   3.524 -0.2566  0.3818 -0.2631
  731SOL    HW2 2690   2.580   6.246   3.442 -1.2370  1.7072 -0.7318
  731SOL    HW3 2691   2.531   6.351   3.539  1.4155  2.3743 -0.0509
  731SOL    MW4 2692   2.590   6.292   3.515 -0.8540  0.6126 -0.3852
  732SOL     OW 2693   3.054   5.291   4.939 -0.3872 -0.0137 -0.8051
  732SOL    HW2 2694   3.119   5.354   4.909 -0.4056 -0.0070 -0.8312
  732SOL    HW3 2695   3.052   5.225   4.870 -2.3878  1.3789 -2.1908
  732SOL    MW4 2696   3.062   5.291   4.926  0.3694 -0.1645  0.6263
  733SOL     OW 2697   2.065   2.267   2.973  0.0190  0.0460  0.1354
  733SOL    HW2 2698   2.127   2.222   2.916  2.3032  0.6752  1.9499
  733SOL    HW3 2699   1.987   2.211   2.972  0.8925 -1.2578 -1.5747
  733SOL    MW4 2700   2.063   2.254   2.965 -0.2396  0.9511  0.5080
  734SOL     OW 2701   2.307   4.959   2.208 -0.2743 -0.8881  0.0642
  734SOL    HW2 2702   2.310   4.951   2.304 -0.7858 -1.7284  0.0158
  734SOL    HW3 2703   2.397   4.983   2.184 -0.4242  0.5856  0.8485
  734SOL    MW4 2704   2.319   4.961   2.218 -0.1787  0.1808  0.1905
  735SOL     OW 2705   4.599   0.966   4.077  0.4422 -0.1465  0.2765
  735SOL    HW2 2706   4.632   0.932   4.160 -0.6790  1.3127  1.3893
  735SOL    HW3 2707   4.504   0.975   4.092 -0.0491 -1.4051 -1.7550
  735SOL    MW4 2708   4.591   0.963   4.090  0.0849  0.6769  0.0605
  736SOL     OW 2709   5.325   4.364   2.726  0.5641 -0.7441  0.2754
  736SOL    HW2 2710   5.250   4.417   2.750 -0.1092 -1.0412 -1.0653
  736SOL    HW3 2711   5.356   4.327   2.809  0.4179  0.8881  1.0880
  736SOL    MW4 2712   5.319   4.366   2.740 -0.2153 -0.3831 -0.8298
  737SOL     OW 2713   0.821   6.367   1.977  0.0941 -0.2933 -0.2259
  737SOL    HW2 2714   0.725   6.367   1.974  0.0683 -1.5425  0.0899
  737SOL    HW3 2715   0.843   6.453   2.011 -0.9936 -0.5822  1.3386
  737SOL    MW4 2716   0.811   6.378   1.981 -0.1989 -0.4138  0.3491
  738SOL     OW 2717   4.345   0.923   1.302  0.2202  0.1005  0.4593
  738SOL    HW2 2718   4.402   0.949   1.374  0.8332 -1.8620  0.7468
  738SOL    HW3 2719   4.399   0.931   1.224 -0.4247  2.1638  0.1462
  738SOL    MW4 2720   4.359   0.927   1.301  0.6957  0.5879 -0.5775
  739SOL     OW 2721   3.129   4.745   2.867 -0.4950 -0.7955  0.3195
  739SOL    HW2 2722   3.058   4.707   2.918 -0.2479  0.5887  1.7924
  739SOL    HW3 2723   3.102   4.836   2.853  0.4134 -0.5991 -0.2192
  739SOL    MW4 2724   3.116   4.752   2.872 -0.5061 -0.2522  0.6069
  740SOL     OW 2725   5.205   1.186   2.806 -0.3183  0.3007 -0.1617
  740SOL    HW2 2726   5.156   1.229   2.876 -0.0630  1.3428 -0.6081
  740SOL    HW3 2727   5.177   1.230   2.726  2.0248  1.6274 -0.3490
  740SOL    MW4 2728   5.195   1.197   2.805  0.0851  0.1110  0.4178
  741SOL     OW 2729   5.621   4.600   1.739  0.0084  0.1577  0.0914
  741SOL    HW2 2730   5.594   4.635   1.824  0.3551 -0.4318  0.4511
  741SOL    HW3 2731   5.554   4.631   1.678 -1.9692 -1.8800  1.0764
  741SOL    MW4 2732   5.609   4.608   1.742 -0.7951  0.5312 -0.8461
  742SOL     OW 2733   5.943   0.184   4.868  0.0724  0.6730  0.0159
  742SOL    HW2 2734   5.887   0.262   4.864 -0.5228  0.2710  0.2944
  742SOL    HW3 2735   5.999   0.190   4.791  0.0124  1.3623  0.0232
  742SOL    MW4 2736   5.943   0.195   4.858 -0.0513 -0.2199 -0.2915
  743SOL     OW 2737   4.849   3.744   4.685 -0.0655  0.5097 -0.1746
  743SOL    HW2 2738   4.917   3.799   4.644  0.0100  0.6832  0.1823
  743SOL    HW3 2739   4.889   3.657   4.690  0.4120  0.7623  0.6851
  743SOL    MW4 2740   4.863   3.740   4.680  0.1968 -0.2252 -0.5278
  744SOL     OW 2741   2.550   3.080   1.162  0.4918  0.0453  0.3587
  744SOL    HW2 2742   2.592   3.125   1.088  0.5511 -1.4656 -0.5727
  744SOL    HW3 2743   2.463   3.057   1.130  0.3350 -0.1787  0.9397
  744SOL    MW4 2744   2.544   3.083   1.148 -0.4035 -0.5763 -0.4213
  745SOL     OW 2745   1.173   1.679   4.648 -0.0525 -0.3049 -0.2965
  745SOL    HW2 2746   1.108   1.623   4.690 -0.2153  0.8623  1.0664
  745SOL    HW3 2747   1.122   1.741   4.596 -0.2189  1.5194  1.8709
  745SOL    MW4 2748   1.158   1.680   4.647  0.3784 -0.0969  0.0994
  746SOL     OW 2749   6.003   2.465   5.410 -0.6528  0.2509  0.0085
  746SOL    HW2 2750   6.012   2.492   5.318 -0.7922 -0.1157 -0.1149
  746SOL    HW3 2751   5.919   2.500   5.437  0.9496  3.6778  1.1606
  746SOL    MW4 2752   5.993   2.473   5.401  0.1007 -0.3817  0.0015
  747SOL     OW 2753   4.747   4.159   4.942  0.1971  0.6479 -0.1358
  747SOL    HW2 2754   4.743   4.219   5.017  3.0685  2.0585 -0.9527
  747SOL    HW3 2755   4.769   4.216   4.868  1.4307 -1.2025 -1.2703
  747SOL    MW4 2756   4.749   4.175   4.942 -0.1936 -0.2112  0.2414
  748SOL     OW 2757   4.466   3.203   1.469 -0.3137  0.1780 -0.0545
  748SOL    HW2 2758   4.444   3.165   1.384 -3.4690 -0.8670  1.1075
  748SOL    HW3 2759   4.436   3.294   1.463 -1.2840 -0.1186  0.1802
  748SOL    MW4 2760   4.459   3.210   1.457  0.2819  0.2273 -0.1497
  749SOL     OW 2761   0.206   1.275   2.257 -0.3309 -0.0274 -0.3852
  749SOL    HW2 2762   0.149   1.348   2.236 -0.1763 -0.5403 -2.9266
  749SOL    HW3 2763   0.147   1.206   2.287 -0.7334  0.3842 -0.2281
  749SOL    MW4 2764   0.191   1.276   2.258 -0.3763  0.8042 -0.4048
  750SOL     OW 2765   4.015   3.751   1.688  0.1744 -0.3706  0.3270
  750SOL    HW2 2766   4.067   3.825   1.717  1.3614 -0.7664 -0.7062
  750SOL    HW3 2767   4.035   3.741   1.595  0.1530 -2.0532  0.4610
  750SOL    MW4 2768   4.024   3.759   1.680  0.2494  0.3207  0.0586
  751SOL     OW 2769   4.180   3.246   0.367 -0.4978  0.7708 -0.0082
  751SOL    HW2 2770   4.120   3.318   0.348  1.3962  2.1278 -1.1523
  751SOL    HW3 2771   4.200   3.208   0.282 -1.0461 -0.8142  0.5369
  751SOL    MW4 2772   4.174   3.251   0.354  0.2093  0.8995  0.1871
  752SOL     OW 2773   4.793   5.145   2.473 -0.5222 -0.0871 -0.3383
  752SOL    HW2 2774   4.727   5.215   2.473  0.1127  0.5282 -1.3610
  752SOL    HW3 2775   4.840   5.157   2.391  0.5998 -0.7836  0.1938
  752SOL    MW4 2776   4.790   5.156   2.462 -0.2677 -0.2616 -0.3423
  753SOL     OW 2777   3.061   4.049   2.828 -0.0608  0.0950 -0.1055
  753SOL    HW2 2778   3.086   3.959   2.848  1.3887  0.7973  1.4306
  753SOL    HW3 2779   3.079   4.098   2.908 -0.9760  1.7315 -0.8499
  753SOL    MW4 2780   3.067   4.043   2.841 -0.4017  0.2118 -0.0064
  754SOL     OW 2781   3.179   0.275   5.629 -0.0912  0.3215  0.3215
  754SOL    HW2 2782   3.097   0.317   5.655  0.2415  0.8124  0.6091
  754SOL    HW3 2783   3.166   0.182   5.648 -1.0730  0.1849 -0.9237
  754SOL    MW4 2784   3.167   0.268   5.635  0.4876  0.1967  0.0563
  755SOL     OW 2785   0.280   2.640   4.632 -0.5928 -0.2522  0.6035
  755SOL    HW2 2786   0.186   2.630   4.619 -0.4129 -1.6427  0.1434
  755SOL    HW3 2787   0.319   2.576   4.573  0.5776 -0.9405  2.0459
  755SOL    MW4 2788   0.273   2.630   4.623  0.5961 -0.2428  0.0117
  756SOL     OW 2789   4.883   3.547   3.580 -0.2225 -0.5500 -0.2296
  756SOL    HW2 2790   4.809   3.607   3.587 -0.6644 -1.0967 -0.2438
  756SOL    HW3 2791   4.849   3.462   3.606  0.2590 -0.9174 -0.7675
  756SOL    MW4 2792   4.869   3.544   3.585  0.2146  0.1977 -0.3848
  757SOL     OW 2793   1.800   4.756   2.726 -0.1685 -0.4850  0.0731
  757SOL    HW2 2794   1.770   4.697   2.657  0.7322  0.3078 -1.0612
  757SOL    HW3 2795   1.721   4.798   2.759 -0.5284  0.0235 -1.3624
  757SOL    MW4 2796   1.786   4.754   2.721 -0.2791 -0.4752  0.3053
  758SOL     OW 2797   2.481   2.935   2.180 -0.2882 -0.3234  0.0097
  758SOL    HW2 2798   2.498   3.028   2.195  0.3650 -0.8916  3.8287
  758SOL    HW3 2799   2.391   2.922   2.208  0.4685 -1.2066  2.2930
  758SOL    MW4 2800   2.471   2.946   2.186  0.2199  0.4059  0.0271
  759SOL     OW 2801   2.408   0.910   5.504  0.0060  0.1162 -0.1787
  759SOL    HW2 2802   2.447   0.952   5.580 -0.3243  0.0633  0.0199
  759SOL    HW3 2803   2.326   0.957   5.489 -1.0480 -1.2939  0.8760
  759SOL    MW4 2804   2.402   0.922   5.512 -0.3390 -0.3530  0.1821
  760SOL     OW 2805   2.610   3.475   2.041 -0.2134 -0.1554 -0.2998
  760SOL    HW2 2806   2.530   3.522   2.017 -0.2593  1.5967  2.7339
  760SOL    HW3 2807   2.674   3.501   1.975 -1.5127  0.3463 -1.4021
  760SOL    MW4 2808   2.608   3.485   2.029 -0.4114 -0.6402 -0.1861
  761SOL     OW 2809   5.734   0.167   5.713 -0.6775 -0.2729  0.5457
  761SOL    HW2 2810   5.782   0.085   5.698 -0.2663 -0.3390  2.0830
  761SOL    HW3 2811   5.652   0.155   5.664 -0.4155 -1.3916  0.3335
  761SOL    MW4 2812   5.730   0.154   5.704  0.3947 -0.1021  0.1848
  762SOL     OW 2813   5.127   5.173   5.328  0.4890 -0.4146  0.5055
  762SOL    HW2 2814   5.195   5.106   5.323  0.9298 -0.0376  1.1804
  762SOL    HW3 2815   5.175   5.256   5.331 -0.0438 -0.0709 -0.2011
  762SOL    MW4 2816   5.142   5.175   5.328 -0.3499 -0.1672 -0.5907
  763SOL     OW 2817   4.922   0.369   4.839  0.2292  0.2340 -0.2597
  763SOL    HW2 2818   4.858   0.359   4.768 -0.8284 -0.1403  0.7290
  763SOL    HW3 2819   4.919   0.285   4.886  1.0844  0.3963  0.1084
  763SOL    MW4 2820   4.913   0.356   4.836 -0.4253  0.0161 -0.1563
  764SOL     OW 2821   3.616   1.654   5.446  0.3706 -0.2358  0.1542
  764SOL    HW2 2822   3.602   1.744   5.474  0.5846 -0.1950  0.1346
  764SOL    HW3 2823   3.656   1.612   5.523  0.9579 -0.1245 -0.0845
  764SOL    MW4 2824   3.620   1.660   5.460  1.1043  0.7881 -0.2149
  765SOL     OW 2825   4.572   2.547   5.161  0.0280  0.1776 -0.0489
  765SOL    HW2 2826   4.589   2.468   5.109  0.2643  1.2257 -1.6265
  765SOL    HW3 2827   4.630   2.539   5.236 -1.3689 -2.0901  0.9193
  765SOL    MW4 2828   4.582   2.536   5.164  0.0818  0.4548  0.1213
  766SOL     OW 2829   5.293   0.480   0.774 -0.0411 -0.0236 -0.0466
  766SOL    HW2 2830   5.326   0.433   0.850  0.8505  0.4923 -0.1044
  766SOL    HW3 2831   5.347   0.451   0.701 -1.9233 -1.7625 -0.8616
  766SOL    MW4 2832   5.304   0.470   0.774 -0.3671 -0.0061 -0.0379
  767SOL     OW 2833   0.808   5.740   3.078 -0.5437  0.1894 -0.1315
  767SOL    HW2 2834   0.863   5.818   3.092 -1.7032  0.6625  2.1539
  767SOL    HW3 2835   0.813   5.726   2.983  0.5079  2.4361 -0.5069
  767SOL    MW4 2836   0.816   5.749   3.067  0.0640  0.0612 -0.1841
  768SOL     OW 2837   4.028   5.611   0.727 -0.1327  0.1655 -0.2721
  768SOL    HW2 2838   4.124   5.606   0.732 -0.1472 -0.1328 -0.2748
  768SOL    HW3 2839   4.001   5.642   0.813  0.1653  3.2930 -1.2020
  768SOL    MW4 2840   4.037   5.614   0.739  0.0040 -0.6713  0.5276
  769SOL     OW 2841   2.154   1.631   2.379  0.2213 -0.7315  0.1390
  769SOL    HW2 2842   2.177   1.631   2.286 -0.8022  0.8485 -0.1469
  769SOL    HW3 2843   2.165   1.540   2.406 -0.8580 -1.5338 -1.8945
  769SOL    MW4 2844   2.158   1.619   2.371 -0.0753 -1.0078 -0.0692
  770SOL     OW 2845   1.589   5.771   0.830  0.3348 -0.3059  0.4703
  770SOL    HW2 2846   1.590   5.676   0.833  1.6828 -0.3557 -0.6013
  770SOL    HW3 2847   1.541   5.797   0.909  0.2583 -1.8449  0.9659
  770SOL    MW4 2848   1.582   5.762   0.841  0.2187 -0.0952  0.2166
  771SOL     OW 2849   5.504   5.575   2.336  0.2229  0.4811 -0.0844
  771SOL    HW2 2850   5.579   5.526   2.371 -0.4885 -1.0102 -0.5622
  771SOL    HW3 2851   5.534   5.610   2.252  0.0181 -1.2462 -0.9217
  771SOL    MW4 2852   5.518   5.573   2.329  0.4291  0.2536 -0.1327
  772SOL     OW 2853   1.439   6.343   0.711  0.7040  0.1097  0.1929
  772SOL    HW2 2854   1.523   6.387   0.699 -0.0974  1.3160 -1.3608
  772SOL    HW3 2855   1.453   6.254   0.680  1.6796 -0.0035  0.9433
  772SOL    MW4 2856   1.452   6.337   0.705 -0.2970  0.3313  0.4461
  773SOL     OW 2857   0.121   1.438   0.161  0.2492 -0.2212 -0.3555
  773SOL    HW2 2858   0.150   1.524   0.130 -1.7212 -0.4010 -3.0580
  773SOL    HW3 2859   0.053   1.456   0.226  2.0919  0.1685  1.5796
  773SOL    MW4 2860   0.116   1.452   0.165  0.3550 -0.5554  0.5015
  774SOL     OW 2861   2.942   2.905   0.916  0.9178  0.4170 -0.3132
  774SOL    HW2 2862   2.889   2.915   0.995  0.8305  2.9332 -0.6097
  774SOL    HW3 2863   3.032   2.915   0.947  1.2522 -2.5462 -0.0149
  774SOL    MW4 2864   2.947   2.908   0.931  0.1805 -0.6192 -0.0663
  775SOL     OW 2865   2.471   4.080   5.874  0.4326  0.1412  0.4344
  775SOL    HW2 2866   2.419   4.051   5.948  1.6835 -1.3938  0.7655
  775SOL    HW3 2867   2.430   4.038   5.798 -1.3477  2.3539  0.0405
  775SOL    MW4 2868   2.459   4.071   5.874 -0.3516  0.5856  0.2579
  776SOL     OW 2869   2.386   2.836   0.219  0.4774 -0.2572  0.6489
  776SOL    HW2 2870   2.407   2.782   0.143  1.8406  1.6184 -0.4087
  776SOL    HW3 2871   2.291   2.849   0.213  0.7992  1.8429 -2.2869
  776SOL    MW4 2872   2.376   2.831   0.208 -0.3157  0.2033  0.1310
  777SOL     OW 2873   2.893   4.426   1.748  0.1501 -0.3961 -0.0274
  777SOL    HW2 2874   2.888   4.440   1.654 -0.3410  0.6088  0.1387
  777SOL    HW3 2875   2.979   4.458   1.773 -0.3100  0.8207  0.0845
  777SOL    MW4 2876   2.904   4.432   1.739 -0.0248 -0.5654  0.4190
  778SOL     OW 2877   2.531   2.226   5.291  0.2948  0.1076 -0.1755
  778SOL    HW2 2878   2.504   2.137   5.312 -0.6473  0.8781  2.2806
  778SOL    HW3 2879   2.474   2.254   5.220  1.9227 -1.8342 -2.3872
  778SOL    MW4 2880   2.520   2.218   5.284 -0.4736  0.3005  0.3277
  779SOL     OW 2881   4.927   1.819   1.828 -0.4158  0.3009 -0.5268
  779SOL    HW2 2882   4.958   1.765   1.756 -0.2716  0.1946 -0.3847
  779SOL    HW3 2883   4.861   1.877   1.788  0.1041  0.6650 -0.8705
  779SOL    MW4 2884   4.922   1.820   1.814  0.5176 -0.5085  0.0728
  780SOL     OW 2885   1.643   4.554   3.518  0.1207 -0.1142 -0.6580
  780SOL    HW2 2886   1.645   4.459   3.510  0.6015 -0.0998 -0.7254
  780SOL    HW3 2887   1.731   4.577   3.549 -0.1595  0.2593 -0.1229
  780SOL    MW4 2888   1.655   4.544   3.521  0.3330  0.2621  0.2798
  781SOL     OW 2889   5.618   0.997   3.329  0.3005 -0.4479  0.3930
  781SOL    HW2 2890   5.594   1.089   3.343  2.3513  0.0722  0.8454
  781SOL    HW3 2891   5.535   0.954   3.308 -0.7941  1.4022  0.6425
  781SOL    MW4 2892   5.604   1.004   3.328 -0.0511  0.1613 -0.2943
  782SOL     OW 2893   5.942   2.202   5.264  0.1947  0.1308  0.0798
  782SOL    HW2 2894   5.960   2.290   5.295 -0.5433  0.0893  0.6633
  782SOL    HW3 2895   5.882   2.166   5.329  1.9527 -1.4873  0.9387
  782SOL    MW4 2896   5.937   2.209   5.277 -0.6195 -0.0302  0.1336
  783SOL     OW 2897   1.753   4.952   3.040 -0.0970  0.1661 -0.3070
  783SOL    HW2 2898   1.665   4.988   3.053 -0.2561 -0.5807  0.8213
  783SOL    HW3 2899   1.763   4.887   3.110  2.0635  1.5522  0.7630
  783SOL    MW4 2900   1.743   4.948   3.050 -0.5226  0.3146 -0.4547
  784SOL     OW 2901   4.568   0.008   2.763  0.8475  0.7412  0.6105
  784SOL    HW2 2902   4.489  -0.045   2.757  2.0932 -1.3103  1.3084
  784SOL    HW3 2903   4.614  -0.024   2.840  2.7612  1.2711 -0.2249
  784SOL    MW4 2904   4.564  -0.003   2.772  0.2104 -0.3599  0.6536
  785SOL     OW 2905   1.572   0.411   1.612  0.0977  0.2777  0.2045
  785SOL    HW2 2906   1.648   0.418   1.554  0.1468  1.2832  0.3620
  785SOL    HW3 2907   1.522   0.491   1.594 -0.8498 -0.3074  0.2055
  785SOL    MW4 2908   1.576   0.423   1.602  0.3200  0.0973 -0.0771
  786SOL     OW 2909   1.875   5.372   5.011 -0.1462  0.0911 -0.6327
  786SOL    HW2 2910   1.925   5.293   4.996  0.7763  0.8939 -1.9777
  786SOL    HW3 2911   1.805   5.369   4.946  1.5042  1.6394 -2.6272
  786SOL    MW4 2912   1.872   5.362   5.000  0.4691  0.4868  0.1399
  787SOL     OW 2913   3.819   4.660   3.284  0.2729 -0.3678  0.3518
  787SOL    HW2 2914   3.791   4.575   3.251 -0.1009  0.0797 -0.5206
  787SOL    HW3 2915   3.872   4.640   3.361  0.8177 -1.4283 -0.2801
  787SOL    MW4 2916   3.822   4.646   3.290  0.1311 -0.5264 -0.0457
  788SOL     OW 2917   3.553   0.068   5.800  0.2454 -0.1032 -0.0145
  788SOL    HW2 2918   3.640   0.106   5.815 -0.0857  1.8022 -2.3379
  788SOL    HW3 2919   3.492   0.139   5.820 -0.5937 -0.4062 -1.3914
  788SOL    MW4 2920   3.556   0.083   5.805  0.0094  0.1386 -0.2603
  789SOL     OW 2921   5.014   1.259   1.964  0.1937 -0.0994  0.0708
  789SOL    HW2 2922   4.972   1.174   1.975 -0.7601  0.3492  0.0669
  789SOL    HW3 2923   4.967   1.298   1.890  1.5512 -0.1189 -0.8437
  789SOL    MW4 2924   5.002   1.253   1.955 -0.3297  0.1165 -0.3261
  790SOL     OW 2925   2.794   5.258   4.718  0.2321 -0.4126 -0.2793
  790SOL    HW2 2926   2.790   5.236   4.625  0.8793  0.3449 -0.4962
  790SOL    HW3 2927   2.799   5.353   4.720 -1.7526 -0.2808  0.6096
  790SOL    MW4 2928   2.795   5.267   4.706  0.0072  0.4355  0.0831
  791SOL     OW 2929   1.286   0.679   1.106  0.3555  0.0094 -0.3003
  791SOL    HW2 2930   1.245   0.608   1.155 -0.2859 -0.0113 -0.8395
  791SOL    HW3 2931   1.221   0.701   1.039  1.1812  0.0727 -1.0928
  791SOL    MW4 2932   1.272   0.673   1.104  0.2507 -0.3336  0.7133
  792SOL     OW 2933   5.072   1.814   1.196  0.2882 -0.1004 -0.3449
  792SOL    HW2 2934   5.054   1.758   1.120 -1.3278 -0.8281  0.5355
  792SOL    HW3 2935   5.078   1.753   1.270  0.6242  0.7132  0.3116
  792SOL    MW4 2936   5.070   1.799   1.196  0.3951  0.6858 -0.1714
  793SOL     OW 2937   3.409   5.451   4.028  0.4652  0.7851 -0.0966
  793SOL    HW2 2938   3.433   5.364   4.061 -0.6809  0.4103 -0.2031
  793SOL    HW3 2939   3.488   5.482   3.984  0.7564 -0.4082 -0.4564
  793SOL    MW4 2940   3.422   5.444   4.026  0.2325 -0.2866 -0.2874
  794SOL     OW 2941   2.668   0.651   0.003  0.0814 -0.2848  0.1126
  794SOL    HW2 2942   2.605   0.594   0.045 -0.0489  0.3539  0.8090
  794SOL    HW3 2943   2.704   0.704   0.074  1.3282 -0.5628 -0.2823
  794SOL    MW4 2944   2.665   0.651   0.018  0.6763 -0.1814  0.4828
  795SOL     OW 2945   4.423   0.034   2.288  0.2042  0.4294 -0.3405
  795SOL    HW2 2946   4.473   0.081   2.221  1.4999  1.4416  1.2593
  795SOL    HW3 2947   4.378   0.103   2.337 -1.8706 -0.3899 -1.0065
  795SOL    MW4 2948   4.424   0.050   2.286  0.7996  0.2773 -0.0204
  796SOL     OW 2949   2.463   6.065   5.600 -0.1533 -0.3833  0.0773
  796SOL    HW2 2950   2.551   6.099   5.581  0.6121 -1.8333  0.8654
  796SOL    HW3 2951   2.449   5.996   5.536  1.2897 -3.3683  2.6816
  796SOL    MW4 2952   2.473   6.060   5.589  0.3231  0.7180  0.0038
  797SOL     OW 2953   3.109   4.763   2.522  0.2132 -0.3688  0.1604
  797SOL    HW2 2954   3.023   4.754   2.481  0.3073  1.3731 -0.5377
  797SOL    HW3 2955   3.119   4.685   2.577 -1.4926 -0.9509 -0.3115
  797SOL    MW4 2956   3.099   4.752   2.524 -0.3945 -0.0031  0.0827
  798SOL     OW 2957   3.479   5.909   2.385  0.1983 -0.0413  0.5326
  798SOL    HW2 2958   3.442   5.884   2.301 -1.1477 -1.1522  1.3975
  798SOL    HW3 2959   3.532   5.987   2.367 -1.6784  0.9483 -0.9955
  798SOL    MW4 2960   3.481   5.916   2.372 -0.1777  0.6378  0.1965
  799SOL     OW 2961   0.852   1.615   2.016 -0.1441 -0.3231  0.0993
  799SOL    HW2 2962   0.915   1.550   1.985 -0.4367 -0.4810 -0.1603
  799SOL    HW3 2963   0.903   1.695   2.024  0.1107 -0.4709 -0.0273
  799SOL    MW4 2964   0.867   1.617   2.013 -0.7548  0.5983  0.5278
  800SOL     OW 2965   3.427   4.555   4.813 -0.2684 -0.0754  0.0262
  800SOL    HW2 2966   3.382   4.567   4.729 -1.8499 -1.0496  0.6988
  800SOL    HW3 2967   3.365   4.589   4.878  0.7045  0.1508  0.8569
  800SOL    MW4 2968   3.413   4.561   4.811 -0.1538 -0.2494  0.7274
  801SOL     OW 2969   6.252   2.248   5.420 -0.2275 -0.3187 -0.0747
  801SOL    HW2 2970   6.310   2.197   5.476  0.5398 -0.1669 -0.7224
  801SOL    HW3 2971   6.230   2.190   5.347  0.2430  0.0965 -0.5552
  801SOL    MW4 2972   6.257   2.234   5.418 -0.0051  0.6078 -0.0553
  802SOL     OW 2973   3.873   2.443   3.647 -0.4561  0.2026 -0.2779
  802SOL    HW2 2974   3.855   2.525   3.601 -1.1070  0.7208  0.8403
  802SOL    HW3 2975   3.922   2.470   3.725 -0.5487 -0.4815  0.0250
  802SOL    MW4 2976   3.877   2.458   3.651  0.3462  0.2432 -0.3970
  803SOL     OW 2977   4.323   3.189   5.240  0.1539 -0.2000  0.0574
  803SOL    HW2 2978   4.254   3.198   5.306 -0.4126 -0.4602 -0.4866
  803SOL    HW3 2979   4.354   3.278   5.226  0.9011 -0.2407  1.3139
  803SOL    MW4 2980   4.318   3.202   5.247 -0.2096 -0.4371  0.3272
  804SOL     OW 2981   3.460   0.810   5.977 -0.1990 -0.2442 -0.5733
  804SOL    HW2 2982   3.425   0.798   6.064 -0.3716  0.9471 -0.4550
  804SOL    HW3 2983   3.434   0.899   5.952 -0.5784 -0.7252 -2.0357
  804SOL    MW4 2984   3.452   0.820   5.985  0.1409 -0.5547  0.5483
  805SOL     OW 2985   3.744   2.159   2.570 -0.1071  0.2527  0.1899
  805SOL    HW2 2986   3.781   2.247   2.566 -2.8777  1.4778 -1.8785
  805SOL    HW3 2987   3.750   2.127   2.480 -0.4499 -1.1014  0.6366
  805SOL    MW4 2988   3.750   2.167   2.558  0.2691 -0.5358  0.2732
  806SOL     OW 2989   1.476   0.979   1.934  0.2672 -0.3791 -0.7037
  806SOL    HW2 2990   1.555   0.926   1.926  1.8661  1.2715  2.4657
  806SOL    HW3 2991   1.493   1.057   1.881  1.2435  0.3974  0.6970
  806SOL    MW4 2992   1.489   0.982   1.926  0.2706  0.6298  0.1573
  807SOL     OW 2993   4.399   0.306   5.108 -0.1423 -0.7491 -0.1168
  807SOL    HW2 2994   4.373   0.218   5.137 -1.5340 -0.4643 -0.4324
  807SOL    HW3 2995   4.365   0.364   5.177 -0.7761 -0.3290 -0.7646
  807SOL    MW4 2996   4.391   0.302   5.121 -0.2416 -0.0406 -0.6685
  808SOL     OW 2997   5.171   3.151   2.507  0.4465 -0.0857  0.3338
  808SOL    HW2 2998   5.235   3.168   2.576  1.1145 -2.0986  0.2839
  808SOL    HW3 2999   5.120   3.076   2.539 -2.0552  1.5352  0.4453
  808SOL    MW4 3000   5.173   3.143   2.520 -0.3246  0.1919  0.1143
  809SOL     OW 3001   1.740   0.293   3.480  0.9519  0.0874 -0.4091
  809SOL    HW2 3002   1.724   0.356   3.551  2.8177  0.7650 -0.5433
  809SOL    HW3 3003   1.654   0.280   3.440  0.4775  2.4978 -0.3196
  809SOL    MW4 3004   1.726   0.300   3.484  0.4209  0.0404  0.0813
  810SOL     OW 3005   5.576   4.386   0.749 -0.2171  0.4125 -0.1497
  810SOL    HW2 3006   5.513   4.416   0.683 -0.1876 -0.0045 -0.3753
  810SOL    HW3 3007   5.537   4.410   0.832 -1.7579 -1.7642 -0.1727
  810SOL    MW4 3008   5.563   4.393   0.751  0.2971 -0.4605  0.1797
  811SOL     OW 3009   2.215   5.361   3.906  0.2466  0.2505 -0.0695
  811SOL    HW2 3010   2.163   5.341   3.984  1.1432 -1.3341  0.1626
  811SOL    HW3 3011   2.273   5.431   3.934  0.9338 -0.6643  0.8931
  811SOL    MW4 3012   2.216   5.367   3.920  0.7932  0.1058  0.3088
  812SOL     OW 3013   0.119   4.961   4.559  0.4047 -0.5006  0.1722
  812SOL    HW2 3014   0.100   5.001   4.474  1.2375  0.3452  0.3660
  812SOL    HW3 3015   0.184   5.020   4.599  0.1753 -0.9979  1.3033
  812SOL    MW4 3016   0.125   4.974   4.553 -0.4984 -0.1272 -0.1365
  813SOL     OW 3017   1.452   4.670   3.293 -0.4347 -0.4364 -0.1304
  813SOL    HW2 3018   1.409   4.633   3.216 -0.0333 -0.3887 -0.3804
  813SOL    HW3 3019   1.543   4.681   3.266 -0.4706  0.3916  0.0612
  813SOL    MW4 3020   1.458   4.666   3.279  0.2779 -0.1932  0.5021
  814SOL     OW 3021   4.211   6.194   3.006  0.3237  0.8530  0.5305
  814SOL    HW2 3022   4.227   6.287   3.021 -1.3921  1.2718 -0.0737
  814SOL    HW3 3023   4.182   6.189   2.916 -0.2039 -0.1940  0.7480
  814SOL    MW4 3024   4.210   6.205   2.996 -0.4235 -0.1100  0.1372
  815SOL     OW 3025   2.703   2.652   5.751 -0.2544 -0.0257 -0.1846
  815SOL    HW2 3026   2.719   2.564   5.715  0.6019 -0.1094  0.3916
  815SOL    HW3 3027   2.776   2.705   5.719  0.4591 -0.0690  1.2977
  815SOL    MW4 3028   2.715   2.647   5.742  0.7129 -0.0822  0.0532
  816SOL     OW 3029   3.079   2.453   4.368  0.2471  0.1569  0.0347
  816SOL    HW2 3030   3.105   2.466   4.277 -1.0784 -1.4223 -0.6166
  816SOL    HW3 3031   2.984   2.445   4.366  0.3169 -1.9378  1.2261
  816SOL    MW4 3032   3.070   2.453   4.356  0.0655 -0.0521  0.0646
  817SOL     OW 3033   3.978   3.450   2.217 -0.6412  0.0394 -0.3566
  817SOL    HW2 3034   4.010   3.365   2.248 -0.2711  0.0486 -0.7110
  817SOL    HW3 3035   3.983   3.444   2.122  3.0551  1.8220 -0.4391
  817SOL    MW4 3036   3.983   3.438   2.208  0.0419  0.4204  0.4806
  818SOL     OW 3037   5.082   5.274   4.531  0.1767 -0.0776 -0.0170
  818SOL    HW2 3038   5.036   5.338   4.585 -2.8729 -1.2524 -0.9722
  818SOL    HW3 3039   5.142   5.230   4.591 -0.7604  0.8207  1.6379
  818SOL    MW4 3040   5.084   5.276   4.546 -0.1129  0.1885 -0.0472
  819SOL     OW 3041   1.742   2.883   4.285 -0.0966  0.1325  0.0667
  819SOL    HW2 3042   1.688   2.809   4.260  0.6450 -0.9474  1.5278
  819SOL    HW3 3043   1.771   2.921   4.202 -2.3841  0.2653 -0.7338
  819SOL    MW4 3044   1.739   2.879   4.271 -0.5510  0.2057  0.2867
  820SOL     OW 3045   0.427   2.466   4.796 -0.1197  0.1549 -0.0549
  820SOL    HW2 3046   0.507   2.467   4.744 -1.1912 -1.2600 -1.8015
  820SOL    HW3 3047   0.372   2.534   4.757 -0.6539 -0.4224 -0.3100
  820SOL    MW4 3048   0.431   2.475   4.784 -0.1820 -0.1662 -0.0598
  821SOL     OW 3049   0.922   1.171   0.851 -0.1305  0.3110 -0.0496
  821SOL    HW2 3050   0.976   1.227   0.907 -0.6603  1.2632 -0.4869
  821SOL    HW3 3051   0.850   1.226   0.823  0.9858  0.4301 -3.0620
  821SOL    MW4 3052   0.920   1.185   0.855 -0.2151  0.0994 -0.3477
  822SOL     OW 3053   4.260   3.633   0.536 -0.7327 -0.6396  0.0440
  822SOL    HW2 3054   4.276   3.542   0.510 -0.2646 -0.1132 -1.5781
  822SOL    HW3 3055   4.307   3.642   0.619 -0.7864 -1.8655  0.2316
  822SOL    MW4 3056   4.268   3.622   0.544 -0.5028  0.5663  0.0365
  823SOL     OW 3057   3.039   5.480   3.449  0.1327 -0.0835 -0.4692
  823SOL    HW2 3058   3.087   5.420   3.391 -0.8815  0.5938 -2.0871
  823SOL    HW3 3059   3.090   5.560   3.448  0.2318 -0.1435 -0.2390
  823SOL    MW4 3060   3.052   5.482   3.441  0.5141 -0.2868  0.2128
  824SOL     OW 3061   5.529   1.228   3.954  0.4558  0.5432  1.0514
  824SOL    HW2 3062   5.497   1.308   3.997  0.6640  0.2618  1.7440
  824SOL    HW3 3063   5.527   1.249   3.860 -1.9878  0.4623  1.0173
  824SOL    MW4 3064   5.525   1.241   3.947 -0.2620  0.9316  0.1191
  825SOL     OW 3065   2.350   4.902   0.439 -0.5900  0.6645 -0.1507
  825SOL    HW2 3066   2.376   4.839   0.372 -2.1024  0.1147 -0.2618
  825SOL    HW3 3067   2.372   4.987   0.402  1.0397  0.2446 -0.2069
  825SOL    MW4 3068   2.356   4.905   0.425 -0.3896 -0.2863  0.0894
  826SOL     OW 3069   0.139   3.023   1.979  0.1193 -0.3619 -0.4329
  826SOL    HW2 3070   0.209   3.059   1.924  1.0881 -1.0095  0.3559
  826SOL    HW3 3071   0.089   3.100   2.007  1.5095  0.2903  0.3486
  826SOL    MW4 3072   0.142   3.038   1.975  0.1486  0.1521  0.3339
  827SOL     OW 3073   0.994   0.727   2.975  0.2309  0.3865 -0.1069
  827SOL    HW2 3074   0.966   0.769   3.056  0.9312  0.3416  0.1592
  827SOL    HW3 3075   1.019   0.639   3.001  3.1660  1.1969  0.1629
  827SOL    MW4 3076   0.993   0.721   2.989  0.3579 -0.2255  0.2916
  828SOL     OW 3077   5.563   1.256   1.643  0.3410 -0.2586 -0.5441
  828SOL    HW2 3078   5.539   1.245   1.735  0.1380 -0.4977 -0.6226
  828SOL    HW3 3079   5.617   1.179   1.624 -0.8605 -1.0127 -1.0275
  828SOL    MW4 3080   5.567   1.244   1.653  0.1379  0.6723  0.5850
  829SOL     OW 3081   0.155   3.428   6.225 -0.2874 -0.1778 -0.1537
  829SOL    HW2 3082   0.243   3.425   6.263  0.3917  2.0072 -1.3501
  829SOL    HW3 3083   0.107   3.488   6.282 -0.9946 -1.2776  0.4283
  829SOL    MW4 3084   0.161   3.435   6.238  0.2889 -0.1605 -0.4561
  830SOL     OW 3085   5.101   2.802   5.098  0.1724  0.4913  0.0574
  830SOL    HW2 3086   5.010   2.824   5.078  0.3689  1.0059 -0.2844
  830SOL    HW3 3087   5.135   2.878   5.145  0.5822  0.5340 -0.2983
  830SOL    MW4 3088   5.094   2.815   5.101 -0.8194 -0.1541  0.0378
  831SOL     OW 3089   2.777   4.403   2.455 -0.1316  0.0263 -0.3917
  831SOL    HW2 3090   2.803   4.438   2.540  1.6608  0.1047 -0.9292
  831SOL    HW3 3091   2.683   4.422   2.449 -0.1357  0.7056  1.2241
  831SOL    MW4 3092   2.768   4.410   2.465 -0.3193 -0.2579 -0.1808
  832SOL     OW 3093   4.298   4.171   3.132  0.3058 -0.0126 -0.0957
  832SOL    HW2 3094   4.298   4.243   3.195  0.2602 -0.6567  0.6549
  832SOL    HW3 3095   4.382   4.127   3.146 -0.1506 -0.7836  0.2510
  832SOL    MW4 3096   4.309   4.175   3.142 -0.2667 -0.7934  0.2207
  833SOL     OW 3097   5.647   0.382   1.927  0.1538  0.0792  0.1746
  833SOL    HW2 3098   5.682   0.443   1.862  0.7652  2.0614  2.2266
  833SOL    HW3 3099   5.721   0.364   1.986 -0.7613 -0.3884  1.2231
  833SOL    MW4 3100   5.662   0.388   1.926 -0.1198  0.0295 -0.6074
  834SOL     OW 3101   2.958   5.536   0.164 -0.4667 -0.1975  0.4589
  834SOL    HW2 3102   2.875   5.554   0.122  0.4898  1.1689 -0.9400
  834SOL    HW3 3103   3.023   5.547   0.095  1.2770  3.0682  2.4001
  834SOL    MW4 3104   2.956   5.540   0.149  0.0483 -0.4652 -1.1857
  835SOL     OW 3105   5.542   3.425   3.587  0.5423 -0.2227 -0.4670
  835SOL    HW2 3106   5.584   3.510   3.599 -0.1448  0.2108 -1.0567
  835SOL    HW3 3107   5.452   3.446   3.561  0.5045 -1.1183 -1.1142
  835SOL    MW4 3108   5.536   3.439   3.585 -0.5798 -0.4180  0.6239
  836SOL     OW 3109   2.321   3.495   2.927 -0.0564  0.1743  0.0711
  836SOL    HW2 3110   2.264   3.569   2.947 -0.8809 -0.2669 -0.5243
  836SOL    HW3 3111   2.346   3.460   3.012 -0.1978  0.7416  0.3493
  836SOL    MW4 3112   2.317   3.500   2.941 -0.3809 -0.3709  0.1850
  837SOL     OW 3113   5.723   4.810   5.095 -0.0255 -0.7594  0.5112
  837SOL    HW2 3114   5.761   4.723   5.099 -0.0616 -0.7595  0.8596
  837SOL    HW3 3115   5.630   4.796   5.114 -0.1088 -0.6949  0.1679
  837SOL    MW4 3116   5.715   4.797   5.098 -0.1089  0.3450 -0.0543
  838SOL     OW 3117   5.358   5.431   4.658  0.0141  0.0952  0.4585
  838SOL    HW2 3118   5.293   5.474   4.603  0.2474 -0.1365 -0.0002
  838SOL    HW3 3119   5.308   5.369   4.711 -0.2394  0.4728  0.6725
  838SOL    MW4 3120   5.343   5.429   4.658  0.0365  0.5872  0.4609
  839SOL     OW 3121   3.478   0.842   3.359  0.0894 -0.0832 -0.3943
  839SOL    HW2 3122   3.384   0.854   3.343  0.2217  1.0808 -0.3721
  839SOL    HW3 3123   3.482   0.790   3.439 -0.5535  1.0157  0.3735
  839SOL    MW4 3124   3.466   0.837   3.368 -0.4181 -0.2604 -0.4753
  840SOL     OW 3125   1.705   3.932   5.552  0.0649  0.3306 -0.7608
  840SOL    HW2 3126   1.683   4.009   5.605  0.9850  0.4083 -0.4644
  840SOL    HW3 3127   1.623   3.886   5.540 -0.2963  0.7535  0.0449
  840SOL    MW4 3128   1.692   3.936   5.557 -0.0387 -0.0389 -0.4422
  841SOL     OW 3129   4.215   3.490   3.408 -0.2111 -0.2053 -0.7940
  841SOL    HW2 3130   4.157   3.510   3.481  0.2295  1.7045 -0.9029
  841SOL    HW3 3131   4.158   3.452   3.341 -0.8096 -0.9252  0.1083
  841SOL    MW4 3132   4.200   3.488   3.409  0.6317  0.3862  0.0680
  842SOL     OW 3133   5.019   4.995   0.405  0.3540 -0.4960  0.2080
  842SOL    HW2 3134   4.932   5.036   0.406  0.3493 -0.5085  0.3221
  842SOL    HW3 3135   5.039   4.979   0.498  0.1248 -1.2367  0.1361
  842SOL    MW4 3136   5.010   4.998   0.418 -0.2092 -0.0736 -0.5445
  843SOL     OW 3137   5.417   2.584   3.347 -0.0790  0.7013  0.0883
  843SOL    HW2 3138   5.503   2.573   3.307  0.9545  1.8880  1.8663
  843SOL    HW3 3139   5.421   2.532   3.428 -1.4025 -0.0167 -0.2654
  843SOL    MW4 3140   5.429   2.575   3.353  0.8117  0.1952 -0.1065
  844SOL     OW 3141   5.112   1.492   2.100  0.3758 -0.2075 -0.3015
  844SOL    HW2 3142   5.064   1.413   2.076  1.9643 -0.4977 -2.9470
  844SOL    HW3 3143   5.046   1.562   2.097 -0.6758 -1.1572  0.2124
  844SOL    MW4 3144   5.097   1.491   2.096 -0.0092 -0.2972  1.2101
  845SOL     OW 3145   1.169   4.077   3.293 -0.1147 -0.1440  0.1142
  845SOL    HW2 3146   1.242   4.135   3.314  0.1275 -0.6251  0.6425
  845SOL    HW3 3147   1.091   4.133   3.298  0.1358  0.1814  0.3868
  845SOL    MW4 3148   1.168   4.092   3.296  0.1929  0.5503  0.0607
  846SOL     OW 3149   1.457   6.030   0.690  0.1172  0.0260 -0.0901
  846SOL    HW2 3150   1.544   6.030   0.649 -0.3095 -4.2065 -1.4621
  846SOL    HW3 3151   1.475   6.017   0.783  0.9478 -0.0055 -0.2432
  846SOL    MW4 3152   1.471   6.028   0.697 -0.6105 -0.2115 -0.1909
  847SOL     OW 3153   5.375   5.196   5.681  0.1389 -0.3870 -0.1292
  847SOL    HW2 3154   5.280   5.204   5.692  0.1124 -0.5399 -0.2472
  847SOL    HW3 3155   5.390   5.212   5.588  0.3382  0.6538  0.0695
  847SOL    MW4 3156   5.364   5.199   5.671  0.8993  0.3068 -0.1378
  848SOL     OW 3157   2.485   1.066   2.165  0.6540 -0.3511  0.0644
  848SOL    HW2 3158   2.565   1.062   2.113 -0.4537 -0.7227 -1.6720
  848SOL    HW3 3159   2.430   1.131   2.121 -0.7472 -1.4579  0.1029
  848SOL    MW4 3160   2.488   1.074   2.152 -0.7452  0.6888 -0.2705
  849SOL     OW 3161   2.299   3.638   0.059  0.1338  0.4594  0.0400
  849SOL    HW2 3162   2.358   3.647  -0.016  0.8353 -3.7057 -0.1446
  849SOL    HW3 3163   2.343   3.685   0.130  2.7563 -0.7990 -0.6350
  849SOL    MW4 3164   2.313   3.645   0.059 -0.6672 -0.1447  0.0961
  850SOL     OW 3165   1.472   0.236   0.898 -0.2888 -0.3638  0.1111
  850SOL    HW2 3166   1.475   0.331   0.905 -1.0624 -0.3681  0.6278
  850SOL    HW3 3167   1.564   0.210   0.890 -0.0353  0.3897  0.4369
  850SOL    MW4 3168   1.485   0.245   0.898  0.5351  1.2196 -0.9010
  851SOL     OW 3169   3.584   0.983   2.923  0.1988 -0.3528  0.0867
  851SOL    HW2 3170   3.652   0.970   2.857  1.1669 -0.2367  1.0267
  851SOL    HW3 3171   3.591   0.906   2.979  1.9398  1.2562  2.2225
  851SOL    MW4 3172   3.594   0.971   2.922  0.1170 -0.8519 -0.0635
  852SOL     OW 3173   3.662   4.832   0.030  0.3821  0.6364  0.1760
  852SOL    HW2 3174   3.583   4.830  -0.024 -0.7536  0.7697  1.7544
  852SOL    HW3 3175   3.663   4.920   0.068 -0.0011 -0.1053  1.9645
  852SOL    MW4 3176   3.652   4.843   0.028 -0.3139  0.1764 -0.0102
  853SOL     OW 3177   6.369   4.696   4.757  0.0758  0.1254 -0.2377
  853SOL    HW2 3178   6.366   4.702   4.661  1.3464  1.2729 -0.2309
  853SOL    HW3 3179   6.341   4.606   4.776 -0.6746  0.0240 -1.6444
  853SOL    MW4 3180   6.365   4.685   4.746 -0.1023  0.3528  0.0322
  854SOL     OW 3181   0.070   4.457   5.508 -0.0967 -0.0470  0.0216
  854SOL    HW2 3182   0.015   4.525   5.548  0.8208 -0.0324  1.2979
  854SOL    HW3 3183   0.007   4.394   5.471 -1.0699 -0.9170  2.9063
  854SOL    MW4 3184   0.054   4.458   5.508 -0.1060  0.0364  0.4470
  855SOL     OW 3185   4.341   5.558   2.474  0.6585 -0.4682  0.0602
  855SOL    HW2 3186   4.356   5.619   2.402 -1.3840 -1.2488 -1.0991
  855SOL    HW3 3187   4.411   5.493   2.466  0.1096 -0.8968 -1.6490
  855SOL    MW4 3188   4.352   5.558   2.463 -0.3142 -0.3732  0.2965
  856SOL     OW 3189   0.406   4.887   6.012 -0.3557  0.2988 -0.0735
  856SOL    HW2 3190   0.350   4.862   6.085 -0.8224  1.8890  0.1380
  856SOL    HW3 3191   0.357   4.860   5.934 -0.7536  0.3691  0.1494
  856SOL    MW4 3192   0.392   4.880   6.011 -0.0740  0.2834 -0.5254
  857SOL     OW 3193   5.036   2.325   2.552 -0.0551  0.4937 -0.0128
  857SOL    HW2 3194   5.106   2.330   2.618 -0.2275 -0.0039  0.2175
  857SOL    HW3 3195   5.038   2.410   2.508  1.5397  0.0535 -0.8678
  857SOL    MW4 3196   5.045   2.337   2.555 -0.0405  0.7518 -0.3084
  858SOL     OW 3197   3.018   0.111   0.867  0.0317 -0.2228 -0.7060
  858SOL    HW2 3198   3.048   0.075   0.783 -0.6819  0.4694 -1.2698
  858SOL    HW3 3199   3.046   0.203   0.864  2.4202 -0.7903  0.9888
  858SOL    MW4 3200   3.026   0.118   0.855  0.0574 -0.8002  0.4230
  859SOL     OW 3201   2.070   5.952   4.927 -0.1579  0.4274 -0.3493
  859SOL    HW2 3202   2.163   5.935   4.945 -0.4436 -0.8857 -0.0593
  859SOL    HW3 3203   2.045   6.016   4.994  0.3463  0.2188  0.0518
  859SOL    MW4 3204   2.079   5.958   4.938  1.2996 -0.2626  0.2811
  860SOL     OW 3205   5.085   0.785   3.348  0.2522  0.5200 -0.0174
  860SOL    HW2 3206   5.017   0.818   3.406  2.0992  2.5886  1.1386
  860SOL    HW3 3207   5.134   0.722   3.401  0.1317  0.1500 -0.3419
  860SOL    MW4 3208   5.083   0.781   3.363 -0.0806  0.3907  0.3301
  861SOL     OW 3209   2.281   1.393   3.403 -0.0545  0.4492  0.2821
  861SOL    HW2 3210   2.228   1.343   3.341 -0.4155  0.8306  0.2840
  861SOL    HW3 3211   2.306   1.472   3.356 -0.6384  0.9185  0.7380
  861SOL    MW4 3212   2.277   1.396   3.389  0.1578  0.3494  0.0075
  862SOL     OW 3213   0.033   5.315   2.599  0.2649 -0.2165 -0.1822
  862SOL    HW2 3214   0.042   5.260   2.522  0.5288  1.2490 -1.2439
  862SOL    HW3 3215   0.093   5.388   2.584  1.0159 -0.3420  1.8505
  862SOL    MW4 3216   0.042   5.318   2.587  0.1715 -0.1690  0.3846
  863SOL     OW 3217   1.614   4.267   4.971  0.0668 -0.2967 -0.3923
  863SOL    HW2 3218   1.642   4.232   5.055  1.1138  0.7267 -0.2891
  863SOL    HW3 3219   1.524   4.299   4.986  0.7037  1.0817  0.7296
  863SOL    MW4 3220   1.606   4.267   4.984  0.5392  0.0271 -0.1791
  864SOL     OW 3221   5.064   2.619   5.314 -0.2256  0.0472 -0.3946
  864SOL    HW2 3222   5.095   2.683   5.251 -0.7564 -1.2184 -2.0065
  864SOL    HW3 3223   4.986   2.581   5.274 -0.0008 -1.5322  0.5431
  864SOL    MW4 3224   5.058   2.622   5.301  0.3157 -0.4913 -0.3947
  865SOL     OW 3225   0.131   2.820   4.180 -0.3580  0.6646 -0.7080
  865SOL    HW2 3226   0.066   2.800   4.247  1.8002  0.8785  1.6164
  865SOL    HW3 3227   0.129   2.744   4.122  0.0513 -1.2770  1.6431
  865SOL    MW4 3228   0.122   2.807   4.181  0.2561  0.2014 -0.4865
  866SOL     OW 3229   5.896   3.619   6.385 -0.4112  0.8137  0.1158
  866SOL    HW2 3230   5.972   3.672   6.410  0.2570  0.0131 -0.1318
  866SOL    HW3 3231   5.916   3.589   6.297 -0.5589 -0.1962  0.4118
  866SOL    MW4 3232   5.909   3.622   6.377 -0.3145 -0.4920  0.0328
  867SOL     OW 3233   0.862   3.045   2.301 -0.0872  0.5064  1.0078
  867SOL    HW2 3234   0.792   3.095   2.343 -0.3243 -0.2994  1.5716
  867SOL    HW3 3235   0.905   3.109   2.243 -2.1605  0.6926 -0.4408
  867SOL    MW4 3236   0.859   3.060   2.299  0.2605 -0.2010 -0.6300
  868SOL     OW 3237   5.086   0.104   0.747  0.0200 -0.1389  0.0193
  868SOL    HW2 3238   5.142   0.112   0.669 -0.9385 -1.3844 -0.8195
  868SOL    HW3 3239   5.141   0.058   0.811  0.8627  1.0140  0.1813
  868SOL    MW4 3240   5.101   0.099   0.745 -0.5503  0.2615  0.3225
  869SOL     OW 3241   0.605   3.482   4.374 -0.3226 -0.1118  0.3844
  869SOL    HW2 3242   0.665   3.491   4.449  0.4962  1.1922 -0.3883
  869SOL    HW3 3243   0.587   3.388   4.370  0.2731 -0.3189  1.7118
  869SOL    MW4 3244   0.611   3.471   4.383 -0.8235 -0.1667 -0.0180
  870SOL     OW 3245   3.793   5.855   4.367  0.1393 -0.2102  0.2311
  870SOL    HW2 3246   3.716   5.798   4.365  0.8746 -1.2538  0.8312
  870SOL    HW3 3247   3.803   5.885   4.276  0.9923 -2.7845 -0.5887
  870SOL    MW4 3248   3.784   5.852   4.355 -0.3042  0.0888  0.0802
  871SOL     OW 3249   5.084   2.130   1.986 -0.2903  0.5158  0.0924
  871SOL    HW2 3250   5.076   2.197   2.053 -1.8351 -0.9169  1.4149
  871SOL    HW3 3251   5.016   2.151   1.922 -0.3048  0.5957  0.1347
  871SOL    MW4 3252   5.074   2.141   1.986 -0.3263  0.0402 -0.0129
  872SOL     OW 3253   0.150   6.099   3.269  0.4528  0.0807  0.7073
  872SOL    HW2 3254   0.178   6.008   3.259 -0.4524 -0.4551  2.6257
  872SOL    HW3 3255   0.230   6.146   3.291  0.8433 -0.3279  0.1937
  872SOL    MW4 3256   0.164   6.093   3.270 -0.3170 -0.3284 -0.2991
  873SOL     OW 3257   4.668   3.007   1.609 -0.1012  0.1698 -0.0022
  873SOL    HW2 3258   4.626   3.080   1.654 -2.5672 -1.7611  1.0703
  873SOL    HW3 3259   4.617   2.996   1.528  1.2384  0.5455 -0.9385
  873SOL    MW4 3260   4.655   3.015   1.604  0.3845  0.1635  0.4288
  874SOL     OW 3261   3.890   3.873   4.979  0.1738 -0.5366 -0.0164
  874SOL    HW2 3262   3.978   3.870   4.942  0.4756 -1.4888  0.7191
  874SOL    HW3 3263   3.894   3.813   5.054 -1.3670 -1.3681 -0.5509
  874SOL    MW4 3264   3.902   3.864   4.984  0.2165 -0.7752 -1.0614
  875SOL     OW 3265   3.397   1.019   4.610 -0.7582 -0.0158 -0.3095
  875SOL    HW2 3266   3.439   1.105   4.615  1.6910 -1.2087  1.9609
  875SOL    HW3 3267   3.467   0.957   4.628 -3.1263 -2.2908  1.8606
  875SOL    MW4 3268   3.412   1.022   4.613 -0.7232 -0.4631  0.0744
  876SOL     OW 3269   1.674   1.597   4.134  0.0723 -0.7453 -0.3633
  876SOL    HW2 3270   1.755   1.631   4.171 -0.8882  2.2468 -0.6977
  876SOL    HW3 3271   1.695   1.579   4.043  0.4222 -0.1614 -0.4036
  876SOL    MW4 3272   1.687   1.599   4.127 -0.0810  0.1607  0.3119
  877SOL     OW 3273   1.994   0.999   0.599  0.2352 -0.4230  0.4359
  877SOL    HW2 3274   2.068   1.059   0.602 -0.4865  0.4292  1.7177
  877SOL    HW3 3275   2.011   0.944   0.522  1.9499  0.0533  0.4390
  877SOL    MW4 3276   2.006   0.999   0.589 -0.6053 -0.0264 -0.0503
  878SOL     OW 3277   1.737   1.555   5.813 -0.2104 -0.0774  0.3039
  878SOL    HW2 3278   1.768   1.632   5.765 -0.4984 -0.5423 -0.6642
  878SOL    HW3 3279   1.678   1.511   5.752  0.9754 -1.7979  0.3161
  878SOL    MW4 3280   1.733   1.559   5.799  0.1031  0.4963  0.3767
  879SOL     OW 3281   0.765   5.399   1.923  0.0773 -0.0787 -0.3263
  879SOL    HW2 3282   0.843   5.345   1.930  1.1442  1.5356  1.0640
  879SOL    HW3 3283   0.760   5.423   1.831  0.8793 -0.6846 -0.5348
  879SOL    MW4 3284   0.775   5.395   1.912 -0.0277  0.0716  0.2118
  880SOL     OW 3285   6.009   1.050   5.765 -0.4187  0.4602  0.1043
  880SOL    HW2 3286   5.952   1.081   5.836 -1.1633 -0.8885  0.1255
  880SOL    HW3 3287   6.025   0.958   5.786  1.2048  0.6329 -0.2950
  880SOL    MW4 3288   6.003   1.042   5.777  0.8236 -0.5820 -0.2778
  881SOL     OW 3289   3.903   3.529   0.419  0.3554  0.5035 -0.3303
  881SOL    HW2 3290   3.866   3.564   0.338 -0.5705 -0.8946 -0.5458
  881SOL    HW3 3291   3.850   3.567   0.489  1.3820  1.9958 -0.3191
  881SOL    MW4 3292   3.891   3.539   0.418 -0.0679 -0.7674  0.6692
  882SOL     OW 3293   0.663   4.040   4.750  0.4309 -0.1949 -0.0920
  882SOL    HW2 3294   0.739   4.098   4.760  0.3886 -0.2030  0.3117
  882SOL    HW3 3295   0.681   3.967   4.809  1.0267 -1.1765 -1.4642
  882SOL    MW4 3296   0.675   4.038   4.759 -0.1847  0.2085 -0.1639
  883SOL     OW 3297   3.639   2.844   1.692  0.4725  0.2816 -0.2114
  883SOL    HW2 3298   3.702   2.773   1.680  0.1485 -0.1148  0.3466
  883SOL    HW3 3299   3.655   2.876   1.781 -2.3858 -2.2122  1.4091
  883SOL    MW4 3300   3.649   2.839   1.702 -0.1478  0.7866 -0.5563
  884SOL     OW 3301   3.209   1.161   1.468 -0.3324  0.3026  0.3872
  884SOL    HW2 3302   3.276   1.222   1.437 -0.4355  0.1987 -0.0459
  884SOL    HW3 3303   3.187   1.192   1.556  1.7429 -0.8540  1.3927
  884SOL    MW4 3304   3.215   1.173   1.476 -0.5701 -0.3386  0.3106
  885SOL     OW 3305   1.097   5.545   0.065  0.5828 -0.0020 -0.9196
  885SOL    HW2 3306   1.074   5.605  -0.007  1.3636  0.2097 -1.0044
  885SOL    HW3 3307   1.192   5.542   0.064  0.5763 -0.6698 -0.4293
  885SOL    MW4 3308   1.106   5.553   0.055 -0.1768  0.4851 -0.4589
  886SOL     OW 3309   4.841   2.445   1.940  0.2479  0.8782 -0.1175
  886SOL    HW2 3310   4.766   2.441   2.000 -0.0014  2.6090 -0.2515
  886SOL    HW3 3311   4.864   2.538   1.937  1.2673  0.6159 -1.4727
  886SOL    MW4 3312   4.834   2.456   1.947 -0.5738  0.1570  0.1160
  887SOL     OW 3313   3.013   1.195   1.248  0.6423 -0.4772  0.6835
  887SOL    HW2 3314   3.055   1.270   1.205 -0.3117  0.3990  1.2256
  887SOL    HW3 3315   3.075   1.169   1.316 -0.1441  1.5923  2.3018
  887SOL    MW4 3316   3.027   1.202   1.251  0.6752  0.1669 -0.5242
  888SOL     OW 3317   2.176   2.558   3.862 -0.3432 -0.2102 -0.2276
  888SOL    HW2 3318   2.168   2.607   3.780  1.2616  0.2698 -0.1502
  888SOL    HW3 3319   2.210   2.473   3.836 -1.5830 -0.7307 -0.2080
  888SOL    MW4 3320   2.180   2.553   3.848 -0.0029 -1.0126  0.3851
  889SOL     OW 3321   5.707   5.862   3.794  0.1294 -0.3857  1.0618
  889SOL    HW2 3322   5.629   5.845   3.741  0.4572 -0.4728  0.6086
  889SOL    HW3 3323   5.673   5.871   3.883 -0.4723  0.1629  0.7871
  889SOL    MW4 3324   5.692   5.861   3.799 -0.5440  0.1221  0.1016
  890SOL     OW 3325   1.308   1.688   5.276  0.2380  0.1780  0.0634
  890SOL    HW2 3326   1.224   1.709   5.316  0.9922  0.7526  1.4199
  890SOL    HW3 3327   1.287   1.668   5.185 -1.3977 -0.0270  0.4553
  890SOL    MW4 3328   1.294   1.688   5.269 -0.0254 -0.7089 -0.2815
  891SOL     OW 3329   3.327   2.256   1.677  0.1789 -0.0193 -0.1684
  891SOL    HW2 3330   3.236   2.243   1.702  0.1388 -0.5052 -0.5393
  891SOL    HW3 3331   3.341   2.350   1.684  0.1696 -0.1124  1.6296
  891SOL    MW4 3332   3.317   2.267   1.681  0.6703  0.1024  0.0392
  892SOL     OW 3333   3.101   1.897   1.951  0.1208 -0.1626  0.3443
  892SOL    HW2 3334   3.145   1.931   2.028 -0.0323  0.4014  0.1887
  892SOL    HW3 3335   3.171   1.858   1.898  0.4452  0.7474  0.0840
  892SOL    MW4 3336   3.116   1.896   1.954 -0.0674 -0.1388  0.3436
  893SOL     OW 3337   0.092   4.916   2.092 -0.4861 -0.3811  0.3602
  893SOL    HW2 3338   0.116   4.970   2.016 -0.3026 -0.1038  0.6119
  893SOL    HW3 3339   0.022   4.859   2.060 -0.8913  0.2172  0.1715
  893SOL    MW4 3340   0.086   4.916   2.078 -0.1101  0.6042 -0.2182
  894SOL     OW 3341   2.981   0.383   4.374  0.5788 -0.5000  0.7725
  894SOL    HW2 3342   3.012   0.468   4.407  1.5982 -1.4984  2.5473
  894SOL    HW3 3343   2.886   0.394   4.367  0.7840  1.0679  0.0302
  894SOL    MW4 3344   2.972   0.396   4.378 -0.0416  0.0824  0.6653
  895SOL     OW 3345   1.588   4.829   5.579  0.0081  0.1458  0.7569
  895SOL    HW2 3346   1.663   4.770   5.578  0.1889  0.3007  2.3523
  895SOL    HW3 3347   1.515   4.776   5.547  0.6600 -0.1921 -0.2090
  895SOL    MW4 3348   1.589   4.814   5.575  0.9504 -0.4248  0.1699
  896SOL     OW 3349   2.508   4.101   1.904 -0.2849  0.4601  0.4881
  896SOL    HW2 3350   2.576   4.072   1.964  0.5744  0.6561 -0.3492
  896SOL    HW3 3351   2.476   4.021   1.862  2.5109  0.5569 -2.2750
  896SOL    MW4 3352   2.513   4.087   1.906 -0.0138 -0.2724 -0.1032
  897SOL     OW 3353   2.501   5.761   2.443  0.2056 -0.1430  0.0414
  897SOL    HW2 3354   2.535   5.735   2.358  2.6494 -2.6932  1.6139
  897SOL    HW3 3355   2.535   5.848   2.458  0.3402  0.0421 -1.2570
  897SOL    MW4 3356   2.510   5.769   2.434 -0.0786 -0.2006  0.6684
  898SOL     OW 3357   4.717   1.370   3.016 -0.0620  0.4222  0.3912
  898SOL    HW2 3358   4.786   1.343   2.955 -0.4313 -0.2882  0.2773
  898SOL    HW3 3359   4.638   1.373   2.963 -0.3792 -0.1530  0.8169
  898SOL    MW4 3360   4.716   1.367   3.001  0.3727  0.0566 -0.0369
  899SOL     OW 3361   4.798   2.853   5.310 -0.6509 -0.1914 -0.6137
  899SOL    HW2 3362   4.847   2.918   5.259  0.1850  0.0573  0.4758
  899SOL    HW3 3363   4.793   2.891   5.398  1.4222 -2.3265  0.5458
  899SOL    MW4 3364   4.804   2.867   5.315  0.3452  0.8783  0.2196
  900SOL     OW 3365   2.980   0.513   1.985  0.2693  0.4130 -0.4985
  900SOL    HW2 3366   2.944   0.575   2.048 -0.5053  0.6919 -1.2017
  900SOL    HW3 3367   3.064   0.551   1.959  0.8122  0.0746  0.6725
  900SOL    MW4 3368   2.986   0.526   1.990 -0.3195 -0.0156  0.4046
  901SOL     OW 3369   1.128   4.219   4.297  0.2906 -0.1838 -0.3549
  901SOL    HW2 3370   1.199   4.271   4.260  0.1266  1.0450  0.9543
  901SOL    HW3 3371   1.162   4.185   4.379 -0.8773  1.2117  0.7737
  901SOL    MW4 3372   1.142   4.221   4.303  0.4461  0.3336  0.5156
  902SOL     OW 3373   5.165   6.167   2.616 -0.1899 -0.3589  0.7074
  902SOL    HW2 3374   5.134   6.234   2.677 -0.6794  0.9208 -0.9103
  902SOL    HW3 3375   5.170   6.087   2.670 -0.5385  0.7184  2.4295
  902SOL    MW4 3376   5.162   6.165   2.631 -0.0481  0.2964 -0.3479
  903SOL     OW 3377   1.472   0.607   3.077 -0.2720  0.0062 -0.0864
  903SOL    HW2 3378   1.560   0.616   3.111 -0.4704 -1.5784  0.9727
  903SOL    HW3 3379   1.483   0.608   2.981  0.5239  2.5162 -0.0268
  903SOL    MW4 3380   1.485   0.608   3.069 -0.8436 -0.2641 -0.0088
  904SOL     OW 3381   2.838   4.237   5.359  0.2664 -0.5740  0.3778
  904SOL    HW2 3382   2.825   4.200   5.446 -0.2106 -1.8847 -0.2329
  904SOL    HW3 3383   2.783   4.185   5.302  0.3481  0.4556 -0.6864
  904SOL    MW4 3384   2.829   4.226   5.363  0.3453  0.4273  0.8390
  905SOL     OW 3385   6.023   4.510   2.437 -0.2428 -0.0499 -0.3791
  905SOL    HW2 3386   6.109   4.512   2.395  0.8225 -0.4347  1.6753
  905SOL    HW3 3387   5.994   4.601   2.438  0.3495  0.1461 -0.6700
  905SOL    MW4 3388   6.030   4.522   2.432  0.0955  0.0632  0.1421
  906SOL     OW 3389   3.027   2.733   4.194 -0.5281  0.6993  0.0415
  906SOL    HW2 3390   3.059   2.644   4.179 -1.9388 -0.6227  3.6304
  906SOL    HW3 3391   3.097   2.776   4.243 -0.9061  0.6129  0.6720
  906SOL    MW4 3392   3.040   2.727   4.199  0.8282  0.3762 -0.0892
  907SOL     OW 3393   0.586   5.262   0.358  0.5481 -0.0508 -0.1941
  907SOL    HW2 3394   0.587   5.199   0.429  0.9194 -1.0022 -1.0207
  907SOL    HW3 3395   0.498   5.301   0.362  1.1062  1.1080  1.7723
  907SOL    MW4 3396   0.574   5.259   0.368 -0.2192 -0.1854 -0.0977
  908SOL     OW 3397   0.403   4.991   0.104 -0.3529  0.2983  0.4815
  908SOL    HW2 3398   0.320   5.039   0.097 -0.2670  0.3523 -0.2805
  908SOL    HW3 3399   0.471   5.058   0.096 -0.2336  0.0846 -0.4697
  908SOL    MW4 3400   0.401   5.006   0.102  0.5479 -0.0894 -0.1937
  909SOL     OW 3401   1.824   6.378   3.263 -0.0045  0.2986  0.4829
  909SOL    HW2 3402   1.847   6.471   3.263  0.4494  0.1945 -0.6862
  909SOL    HW3 3403   1.730   6.377   3.247  0.2618  0.5149 -1.2139
  909SOL    MW4 3404   1.815   6.390   3.261 -0.3798 -0.2980 -0.0338
  910SOL     OW 3405   0.118   4.425   4.456  0.0822  0.2801 -0.0378
  910SOL    HW2 3406   0.212   4.429   4.442  0.2681 -0.9720  0.6621
  910SOL    HW3 3407   0.092   4.339   4.422 -0.7090  0.3906  0.2516
  910SOL    MW4 3408   0.127   4.414   4.450 -0.2843  0.7472 -0.1665
  911SOL     OW 3409   3.313   0.075   1.866 -0.2082  0.0592 -0.2047
  911SOL    HW2 3410   3.285   0.153   1.913  0.2833 -0.7288  1.4541
  911SOL    HW3 3411   3.379   0.107   1.804  1.2319  0.7590  1.6051
  911SOL    MW4 3412   3.318   0.089   1.864  0.1545  0.3445  0.3908
  912SOL     OW 3413   3.787   5.205   4.864 -0.2655  0.2437 -0.2039
  912SOL    HW2 3414   3.693   5.217   4.855 -0.2823  1.2794  1.0909
  912SOL    HW3 3415   3.822   5.294   4.870  0.7096 -0.1454  0.0632
  912SOL    MW4 3416   3.779   5.219   4.863 -0.2789 -0.1053  0.3320
  913SOL     OW 3417   0.823   3.979   1.163 -0.5231  0.3123 -0.3781
  913SOL    HW2 3418   0.734   4.011   1.176 -0.0124  2.1261 -0.9865
  913SOL    HW3 3419   0.819   3.929   1.082 -1.1688 -0.4493  0.1112
  913SOL    MW4 3420   0.811   3.976   1.154  0.0151  0.1868  0.1511
  914SOL     OW 3421   5.911   1.281   6.168  0.6132 -0.5532 -0.1932
  914SOL    HW2 3422   5.828   1.274   6.122  0.1869  1.7897  0.1146
  914SOL    HW3 3423   5.977   1.286   6.098  0.2555 -0.0637 -0.5024
  914SOL    MW4 3424   5.909   1.281   6.153 -0.3205  0.1391 -0.3427
  915SOL     OW 3425   5.857   2.071   4.589 -0.4984 -0.6601  0.4240
  915SOL    HW2 3426   5.780   2.099   4.539  0.4835  0.8900 -0.3099
  915SOL    HW3 3427   5.909   2.151   4.599 -0.2338 -1.0744  3.2323
  915SOL    MW4 3428   5.854   2.085   4.583  0.0920  0.5104  0.1798
  916SOL     OW 3429   2.215   6.176   2.218  0.1772 -0.4791 -0.0257
  916SOL    HW2 3430   2.220   6.133   2.303  2.6917  0.4856  0.3892
  916SOL    HW3 3431   2.153   6.123   2.168 -1.2297 -1.1781  2.3059
  916SOL    MW4 3432   2.208   6.164   2.223 -0.2882  0.3734  0.0571
  917SOL     OW 3433   0.547   1.815   5.519  0.0412 -0.4697  0.8292
  917SOL    HW2 3434   0.453   1.803   5.534 -0.1001 -1.0488 -0.3606
  917SOL    HW3 3435   0.562   1.909   5.527 -0.9950 -0.1377 -0.7403
  917SOL    MW4 3436   0.537   1.825   5.522 -0.3540 -0.0576 -0.4138
  918SOL     OW 3437   4.024   4.130   1.584 -0.2165 -0.2341  0.2096
  918SOL    HW2 3438   4.021   4.132   1.488  0.0857  1.0917  0.1998
  918SOL    HW3 3439   3.946   4.178   1.611  1.7158  3.0988  0.5000
  918SOL    MW4 3440   4.014   4.137   1.575  0.5559  0.3593  0.0841
  919SOL     OW 3441   0.706   3.553   0.697  0.0782  0.8645 -0.2251
  919SOL    HW2 3442   0.775   3.614   0.671 -0.2864  1.8161  0.9659
  919SOL    HW3 3443   0.635   3.609   0.728 -0.0712 -0.1847  1.4172
  919SOL    MW4 3444   0.705   3.568   0.697 -1.0114 -0.6706  0.1816
  920SOL     OW 3445   2.533   5.328   4.114 -0.5242 -0.5602 -0.1120
  920SOL    HW2 3446   2.597   5.275   4.065 -0.8491  0.0160 -1.1781
  920SOL    HW3 3447   2.586   5.392   4.161  0.0579 -2.7972  2.5958
  920SOL    MW4 3448   2.549   5.329   4.114 -0.0423 -0.2250  0.1630
  921SOL     OW 3449   6.406   5.080   1.815 -0.5733  0.2744 -0.2095
  921SOL    HW2 3450   6.465   5.146   1.778 -1.0899  1.9253  1.7671
  921SOL    HW3 3451   6.320   5.121   1.816 -0.8005 -0.1515  1.6360
  921SOL    MW4 3452   6.402   5.094   1.810 -0.4227  0.0893 -0.2143
  922SOL     OW 3453   0.829   1.406   5.632 -0.0340  0.0234 -0.1672
  922SOL    HW2 3454   0.739   1.411   5.599  0.0802 -0.8318 -0.6382
  922SOL    HW3 3455   0.879   1.367   5.560  0.3340 -1.3448  0.7872
  922SOL    MW4 3456   0.823   1.401   5.618  0.1020 -0.0986  0.2684
  923SOL     OW 3457   5.937   2.803   6.042 -0.6621 -0.2121  0.0566
  923SOL    HW2 3458   6.031   2.799   6.063 -0.5707 -1.9771 -0.5856
  923SOL    HW3 3459   5.923   2.895   6.019  1.0018  0.0125 -0.2281
  923SOL    MW4 3460   5.948   2.815   6.042  0.2884  0.1923 -0.5489
  924SOL     OW 3461   0.807   1.660   5.435 -0.8149  0.1265 -0.3953
  924SOL    HW2 3462   0.747   1.715   5.486 -0.8949 -1.5739  1.4487
  924SOL    HW3 3463   0.763   1.576   5.429  1.3909 -1.2496  1.2048
  924SOL    MW4 3464   0.793   1.656   5.441 -0.0794  0.1369  0.0345
  925SOL     OW 3465   0.419   2.825   1.159 -0.5820  0.8309  0.3149
  925SOL    HW2 3466   0.387   2.736   1.144  1.1025  0.0364  1.1815
  925SOL    HW3 3467   0.392   2.845   1.249 -0.8508  1.1523  0.1639
  925SOL    MW4 3468   0.411   2.816   1.169  0.2290  0.5673  0.2137
  926SOL     OW 3469   5.772   3.728   5.949  0.1023  0.0463  0.0695
  926SOL    HW2 3470   5.678   3.712   5.943 -0.1986  1.2380  1.0676
  926SOL    HW3 3471   5.780   3.823   5.946  1.0378  0.0997  2.3667
  926SOL    MW4 3472   5.761   3.738   5.948 -0.0570 -0.6986  0.3036
  927SOL     OW 3473   4.765   2.561   0.834  0.2798  0.7786  0.1414
  927SOL    HW2 3474   4.761   2.657   0.829 -0.0892  0.7188 -1.2030
  927SOL    HW3 3475   4.674   2.535   0.848  0.7186  0.7037  3.5771
  927SOL    MW4 3476   4.752   2.570   0.835  0.3768  0.1080  0.0431
  928SOL     OW 3477   0.059   5.338   0.785  0.5885  0.0967  0.1269
  928SOL    HW2 3478   0.066   5.434   0.789  2.6085 -0.0365  0.7629
  928SOL    HW3 3479  -0.004   5.316   0.854  0.9458  0.9067  0.7310
  928SOL    MW4 3480   0.052   5.348   0.795  0.1394 -0.1031  0.7865
  929SOL     OW 3481   3.725   5.016   1.497  0.0560 -1.0311  0.1138
  929SOL    HW2 3482   3.665   5.089   1.479 -0.3842 -1.9214 -2.4336
  929SOL    HW3 3483   3.787   5.018   1.424  1.0481 -2.2418  0.8849
  929SOL    MW4 3484   3.725   5.026   1.485 -0.0217  0.0116 -0.1979
  930SOL     OW 3485   1.055   1.794   5.378 -0.1058 -0.7526  0.1978
  930SOL    HW2 3486   1.079   1.806   5.470 -2.7869 -1.3218  1.0514
  930SOL    HW3 3487   0.981   1.733   5.380 -0.2714 -0.7455 -2.3449
  930SOL    MW4 3488   1.048   1.787   5.391 -0.2649 -0.0285 -0.3651
  931SOL     OW 3489   0.381   1.580   0.322  0.1086 -0.5190 -0.4760
  931SOL    HW2 3490   0.317   1.577   0.393  0.9360 -1.2781  0.2583
  931SOL    HW3 3491   0.377   1.494   0.280  0.6468 -0.5788 -0.4179
  931SOL    MW4 3492   0.372   1.569   0.326 -0.1905 -0.3233  0.9376
  932SOL     OW 3493   4.032   4.380   3.755 -0.0862  0.3843  0.2797
  932SOL    HW2 3494   3.991   4.426   3.828 -0.8939 -0.1436  0.1669
  932SOL    HW3 3495   4.070   4.450   3.701 -1.1579  0.9169  0.1893
  932SOL    MW4 3496   4.032   4.395   3.757 -0.2580 -0.3685  0.3449
  933SOL     OW 3497   3.525   4.856   4.928 -0.6650  0.4363  0.1294
  933SOL    HW2 3498   3.554   4.765   4.929 -1.3579  0.2134 -0.0426
  933SOL    HW3 3499   3.559   4.892   5.010 -0.1191  0.1111  0.0497
  933SOL    MW4 3500   3.534   4.849   4.939 -0.4116 -0.1347 -0.4374
  934SOL     OW 3501   1.674   6.185   3.466 -0.2887  0.3452  0.0676
  934SOL    HW2 3502   1.726   6.143   3.397 -2.4112  0.0761 -1.4708
  934SOL    HW3 3503   1.709   6.274   3.471  0.6950  0.0096 -0.5118
  934SOL    MW4 3504   1.686   6.191   3.457 -0.4490  0.2814 -0.6858
  935SOL     OW 3505   5.858   5.535   0.376 -0.0286  0.2570 -0.3810
  935SOL    HW2 3506   5.930   5.546   0.438  0.4365  0.0622 -0.8813
  935SOL    HW3 3507   5.883   5.459   0.323 -0.7606 -0.0214 -0.3366
  935SOL    MW4 3508   5.871   5.526   0.377 -0.1316  0.2571  0.2345
  936SOL     OW 3509   2.969   4.972   2.317 -0.3235  0.6544  0.4865
  936SOL    HW2 3510   3.010   4.927   2.244  2.0897  2.3231  0.6927
  936SOL    HW3 3511   2.887   5.007   2.282 -0.1989 -0.2935 -0.8066
  936SOL    MW4 3512   2.963   4.970   2.303  0.0768 -0.7330  0.3903
  937SOL     OW 3513   2.792   6.141   5.863  1.0107 -0.1536  0.1337
  937SOL    HW2 3514   2.773   6.212   5.924  1.1628 -0.7600  0.9119
  937SOL    HW3 3515   2.774   6.178   5.777  1.4709  0.9394  0.4909
  937SOL    MW4 3516   2.787   6.155   5.860 -0.7325  0.1029  0.1722
  938SOL     OW 3517   5.495   5.746   4.889  0.8591 -0.1255 -0.4280
  938SOL    HW2 3518   5.513   5.829   4.933 -1.5418 -0.1303  0.7319
  938SOL    HW3 3519   5.566   5.688   4.917  2.2289  1.3115 -0.7679
  938SOL    MW4 3520   5.507   5.749   4.899  0.6238 -0.3510  0.8091
  939SOL     OW 3521   5.786   5.936   5.072  0.4219 -0.9438  0.8709
  939SOL    HW2 3522   5.826   6.021   5.088 -1.6977 -0.1039  2.1005
  939SOL    HW3 3523   5.826   5.905   4.991  2.0530  0.6926  1.0021
  939SOL    MW4 3524   5.796   5.943   5.063 -0.2804  0.5292  0.4467
  940SOL     OW 3525   0.048   1.107   2.380  0.2739  0.2737 -0.2311
  940SOL    HW2 3526   0.029   1.017   2.353 -0.1346 -0.2987  1.8542
  940SOL    HW3 3527   0.098   1.098   2.461 -1.5705  1.9118  1.1638
  940SOL    MW4 3528   0.052   1.094   2.387  0.2003  0.1197  0.3080
  941SOL     OW 3529   6.213   5.162   0.363  0.1567 -0.5695  0.3489
  941SOL    HW2 3530   6.225   5.120   0.278 -1.0477 -1.4761  0.5911
  941SOL    HW3 3531   6.300   5.195   0.386  0.4825 -0.2375 -1.2545
  941SOL    MW4 3532   6.226   5.160   0.355  0.1542  0.1610  0.4389
  942SOL     OW 3533   1.498   2.989   4.443 -0.0810  0.0951  0.3613
  942SOL    HW2 3534   1.572   2.962   4.389 -1.5895  0.7270 -2.2192
  942SOL    HW3 3535   1.523   3.075   4.477 -0.1639  1.0735 -1.8534
  942SOL    MW4 3536   1.511   2.997   4.440 -0.1214  0.2381  0.3829
  943SOL     OW 3537   0.328   5.424   0.483 -0.6179 -0.4114  0.0581
  943SOL    HW2 3538   0.377   5.455   0.559  0.9682 -0.1335 -1.0235
  943SOL    HW3 3539   0.306   5.333   0.503 -3.9801  0.7836  2.6202
  943SOL    MW4 3540   0.332   5.416   0.496  0.2446  0.8081 -0.2145
  944SOL     OW 3541   2.447   2.360   3.452  0.5049  0.2893  0.0501
  944SOL    HW2 3542   2.509   2.332   3.385 -0.6589 -1.2871 -0.3948
  944SOL    HW3 3543   2.385   2.289   3.460  0.2058  0.7159  2.3428
  944SOL    MW4 3544   2.447   2.347   3.444  0.0753 -0.4484 -0.0900
  945SOL     OW 3545   2.062   4.008   3.326 -0.5392 -0.0538  0.0709
  945SOL    HW2 3546   2.014   4.085   3.355 -0.4111  0.9670 -2.2295
  945SOL    HW3 3547   2.151   4.021   3.361 -0.8244  0.2110  0.7128
  945SOL    MW4 3548   2.068   4.020   3.334 -0.2499 -0.7958 -0.1476
  946SOL     OW 3549   4.293   1.105   2.783  0.2363  0.9832  0.9864
  946SOL    HW2 3550   4.213   1.152   2.757 -0.5953 -0.0979  1.5194
  946SOL    HW3 3551   4.360   1.139   2.724 -1.0846  0.2908 -1.0482
  946SOL    MW4 3552   4.291   1.116   2.772  0.3142  0.1146 -0.5279
  947SOL     OW 3553   5.551   5.815   0.947  0.0061  0.5911 -0.4670
  947SOL    HW2 3554   5.488   5.796   1.017  1.5072  0.5740  0.9629
  947SOL    HW3 3555   5.503   5.869   0.885 -1.6647 -0.1877  0.0930
  947SOL    MW4 3556   5.537   5.820   0.948 -0.4464 -0.4543  0.4594
  948SOL     OW 3557   6.066   0.603   0.199  0.0847 -0.3055 -0.0091
  948SOL    HW2 3558   5.995   0.621   0.138 -0.9873  1.9792  1.7490
  948SOL    HW3 3559   6.122   0.681   0.194  0.0614 -0.1417  1.7155
  948SOL    MW4 3560   6.064   0.616   0.190  0.0968  0.2419 -0.3538
  949SOL     OW 3561   5.884   1.969   1.758 -0.0089 -0.3529 -0.8552
  949SOL    HW2 3562   5.886   1.878   1.729 -0.2848 -0.6547  0.0463
  949SOL    HW3 3563   5.976   1.994   1.762  0.1272 -0.9166 -0.1550
  949SOL    MW4 3564   5.897   1.960   1.755  0.6817 -0.3161 -0.1082
  950SOL     OW 3565   5.412   1.755   2.427  0.4480 -0.0898 -0.6672
  950SOL    HW2 3566   5.467   1.676   2.426 -0.8606 -1.1406  1.8072
  950SOL    HW3 3567   5.439   1.801   2.506 -1.9824 -0.5301  0.5098
  950SOL    MW4 3568   5.423   1.751   2.437 -0.0908 -0.1684 -0.1935
  951SOL     OW 3569   1.267   4.101   2.654  0.5324 -0.3157 -0.1227
  951SOL    HW2 3570   1.280   4.155   2.575  1.0905 -2.2602 -1.4280
  951SOL    HW3 3571   1.258   4.012   2.621 -3.3485 -0.8134  1.6932
  951SOL    MW4 3572   1.267   4.097   2.639 -0.2827 -0.3759 -0.1971
  952SOL     OW 3573   6.342   1.758   1.787  0.3356  0.0596  0.3719
  952SOL    HW2 3574   6.343   1.830   1.849 -0.6492 -0.4400  0.9940
  952SOL    HW3 3575   6.396   1.690   1.827 -1.4359 -0.8168  1.4297
  952SOL    MW4 3576   6.349   1.759   1.800 -0.4633  0.2209  0.1643
  953SOL     OW 3577   2.145   0.793   3.511  0.0256 -0.5643 -0.2314
  953SOL    HW2 3578   2.128   0.699   3.500 -0.7184 -0.5081  0.4126
  953SOL    HW3 3579   2.060   0.831   3.529  0.0531  0.4805 -2.0187
  953SOL    MW4 3580   2.132   0.785   3.512 -0.3451  0.2678  0.0148
  954SOL     OW 3581   0.513   0.332   1.221 -0.3616  0.4678  0.2610
  954SOL    HW2 3582   0.564   0.283   1.286  2.6155  1.4720 -1.1242
  954SOL    HW3 3583   0.473   0.402   1.271 -0.4469 -0.3866  1.4400
  954SOL    MW4 3584   0.515   0.335   1.236 -0.0418 -0.5044 -0.1174
  955SOL     OW 3585   0.698   5.221   1.365 -0.3723  0.0875 -0.2112
  955SOL    HW2 3586   0.713   5.193   1.455 -1.1795 -0.8377 -0.3387
  955SOL    HW3 3587   0.623   5.280   1.371 -0.9726 -0.6420 -0.3604
  955SOL    MW4 3588   0.690   5.225   1.378 -0.1882  0.0835 -0.5041
  956SOL     OW 3589   4.340   2.980   1.606 -0.0157  0.0956  0.6222
  956SOL    HW2 3590   4.404   2.927   1.559 -1.7557 -0.0781 -1.7155
  956SOL    HW3 3591   4.361   3.070   1.581 -0.7551  0.0248 -0.3031
  956SOL    MW4 3592   4.351   2.985   1.597  0.8800 -0.0561  0.1873
  957SOL     OW 3593   1.625   3.461   3.509 -0.2479  0.0920  0.5785
  957SOL    HW2 3594   1.628   3.557   3.506  1.4036  0.0769  0.6070
  957SOL    HW3 3595   1.632   3.441   3.602 -2.4707 -0.0643  0.7561
  957SOL    MW4 3596   1.626   3.471   3.521  0.7198  0.0972  0.2176
  958SOL     OW 3597   0.643   1.439   6.034  0.0982 -0.2966 -0.2108
  958SOL    HW2 3598   0.635   1.370   6.100  0.3780 -0.9086 -0.8019
  958SOL    HW3 3599   0.620   1.520   6.081 -0.4583 -0.8115  0.4390
  958SOL    MW4 3600   0.639   1.441   6.049  0.5191  0.5527  0.0785
  959SOL     OW 3601   2.807   2.307   5.329  0.2426 -0.0938  0.7727
  959SOL    HW2 3602   2.832   2.381   5.274  0.7295 -0.9612 -0.2115
  959SOL    HW3 3603   2.719   2.284   5.301  0.4187 -0.4174  0.4770
  959SOL    MW4 3604   2.799   2.314   5.318 -0.0971 -0.2086  0.2192
  960SOL     OW 3605   2.960   6.272   1.957 -0.2130 -0.3453  0.8050
  960SOL    HW2 3606   2.959   6.221   2.037 -0.0911 -0.3092  0.8297
  960SOL    HW3 3607   2.925   6.213   1.890 -0.1391 -0.4368  0.8473
  960SOL    MW4 3608   2.955   6.258   1.959 -0.0549 -0.9839 -0.2803
  961SOL     OW 3609   2.365   3.957   6.118  0.3354 -0.4290 -0.0886
  961SOL    HW2 3610   2.274   3.966   6.091  0.7476 -0.0630 -1.4392
  961SOL    HW3 3611   2.394   3.875   6.078  0.6006 -0.5437  0.3328
  961SOL    MW4 3612   2.357   3.947   6.109 -0.1085 -0.7018  0.0706
  962SOL     OW 3613   2.143   2.387   4.535 -0.2947  0.1812  0.7198
  962SOL    HW2 3614   2.052   2.359   4.524 -0.3765  0.3578  0.9303
  962SOL    HW3 3615   2.195   2.318   4.493 -0.6111  1.1894 -1.4802
  962SOL    MW4 3616   2.138   2.374   4.528  1.0381  0.2805 -0.0387
  963SOL     OW 3617   0.087   3.489   1.643  0.8537 -0.4542  0.4802
  963SOL    HW2 3618   0.077   3.576   1.681  1.4544  0.1717 -0.7271
  963SOL    HW3 3619   0.178   3.465   1.663  1.2918  0.0343 -0.7980
  963SOL    MW4 3620   0.098   3.497   1.650  0.2389 -0.7822  0.4508
  964SOL     OW 3621   4.479   2.049   0.730  0.4009 -0.2430  0.2803
  964SOL    HW2 3622   4.456   2.137   0.701  1.4179 -0.2086 -0.4562
  964SOL    HW3 3623   4.403   2.021   0.782 -1.4805 -0.2764 -2.2840
  964SOL    MW4 3624   4.466   2.057   0.733 -0.8739 -0.4278 -0.2194
  965SOL     OW 3625   1.417   1.330   2.484  0.2691  0.3074  0.2850
  965SOL    HW2 3626   1.362   1.320   2.406  2.9046  1.3634 -1.8514
  965SOL    HW3 3627   1.475   1.255   2.483  3.1814  2.3821 -1.3753
  965SOL    MW4 3628   1.417   1.319   2.474  0.1680 -0.0009  0.6626
  966SOL     OW 3629   4.542   3.240   4.982  0.3973 -0.1131  0.5234
  966SOL    HW2 3630   4.598   3.316   4.996  0.2333  0.1193 -0.0619
  966SOL    HW3 3631   4.569   3.206   4.896  0.8688 -1.0565  1.0219
  966SOL    MW4 3632   4.553   3.245   4.972 -0.1505  0.1407  0.2247
  967SOL     OW 3633   5.534   6.335   4.467  0.0054 -0.3502 -0.1109
  967SOL    HW2 3634   5.541   6.357   4.560 -1.7363 -0.4300  0.0729
  967SOL    HW3 3635   5.594   6.261   4.455  0.0525 -0.5027  1.0094
  967SOL    MW4 3636   5.543   6.328   4.477  0.1149 -0.5966  0.4596
  968SOL     OW 3637   1.023   0.435   3.398 -0.8417  0.0133  0.0102
  968SOL    HW2 3638   1.019   0.339   3.399 -2.9360  0.0323 -1.1058
  968SOL    HW3 3639   1.015   0.458   3.305 -0.2942  1.2808  0.2616
  968SOL    MW4 3640   1.021   0.426   3.385 -0.2503 -0.2782 -0.0463
  969SOL     OW 3641   4.205   2.547   4.921 -0.0246 -0.1847 -0.4918
  969SOL    HW2 3642   4.282   2.493   4.907 -0.6463 -1.4843  0.8452
  969SOL    HW3 3643   4.138   2.486   4.951 -1.1465  1.1370 -0.1988
  969SOL    MW4 3644   4.206   2.532   4.923 -0.3978 -0.1036 -0.3040
  970SOL     OW 3645   5.871   5.454   2.198  0.6343  0.1439 -0.0950
  970SOL    HW2 3646   5.827   5.387   2.147  0.2275 -0.3119  0.8381
  970SOL    HW3 3647   5.827   5.536   2.174 -0.8141 -0.3181  0.9040
  970SOL    MW4 3648   5.859   5.456   2.188  0.0805  0.2543 -0.3247
  971SOL     OW 3649   4.352   0.564   1.844 -0.2782  0.3791 -0.1961
  971SOL    HW2 3650   4.358   0.497   1.911  1.4514 -1.7690 -2.3136
  971SOL    HW3 3651   4.258   0.571   1.825 -0.5374 -1.1615  0.3698
  971SOL    MW4 3652   4.340   0.556   1.850 -0.0444 -0.5104 -0.2758
  972SOL     OW 3653   0.375   1.266   2.927 -0.0680  0.2841  0.4200
  972SOL    HW2 3654   0.406   1.350   2.962 -1.3471  2.2608 -2.7246
  972SOL    HW3 3655   0.282   1.280   2.910 -0.2484 -1.6752 -0.4808
  972SOL    MW4 3656   0.367   1.279   2.929 -0.0156  0.7538  0.5536
  973SOL     OW 3657   3.588   4.134   1.617 -0.1336  0.8842  0.3494
  973SOL    HW2 3658   3.582   4.079   1.695  0.8187 -0.8965 -0.7928
  973SOL    HW3 3659   3.682   4.147   1.604 -0.3071  1.7625 -0.1415
  973SOL    MW4 3660   3.600   4.129   1.626 -0.0139 -0.6356 -0.2384
  974SOL     OW 3661   2.132   1.438   6.069  0.1524  0.0450  0.3351
  974SOL    HW2 3662   2.153   1.435   5.976 -2.4798  0.0762 -0.3176
  974SOL    HW3 3663   2.100   1.527   6.084  0.3016 -0.0400  1.2088
  974SOL    MW4 3664   2.131   1.449   6.059  0.1605  0.1642 -0.2989
  975SOL     OW 3665   3.094   5.206   5.485  0.6678 -0.2148 -0.2955
  975SOL    HW2 3666   3.125   5.116   5.487 -1.7782 -1.1248  0.6122
  975SOL    HW3 3667   3.080   5.225   5.393  2.9469 -0.0548 -0.6542
  975SOL    MW4 3668   3.096   5.197   5.473 -0.6968  0.2102 -0.1019
  976SOL     OW 3669   5.646   1.456   2.145  0.2082 -0.2060  0.0596
  976SOL    HW2 3670   5.643   1.490   2.235  1.1535 -0.9925  0.3992
  976SOL    HW3 3671   5.581   1.508   2.098 -0.9028 -0.3352  1.3925
  976SOL    MW4 3672   5.637   1.467   2.151 -0.1542  0.2963  0.3976
  977SOL     OW 3673   4.083   2.514   0.157  0.3588 -0.2260  0.3779
  977SOL    HW2 3674   4.035   2.596   0.142  0.2858 -0.5640 -1.5296
  977SOL    HW3 3675   4.105   2.516   0.250  0.4684  2.0178  0.3691
  977SOL    MW4 3676   4.079   2.525   0.167 -0.1624 -0.3793  0.3011
  978SOL     OW 3677   4.926   5.146   1.249 -0.0204  0.2699  0.1180
  978SOL    HW2 3678   4.849   5.099   1.218 -0.9247  2.6082 -1.4648
  978SOL    HW3 3679   4.891   5.216   1.304  1.0618  0.6987  0.2888
  978SOL    MW4 3680   4.911   5.149   1.252  0.1009 -0.4428 -0.0769
  979SOL     OW 3681   0.321   5.486   5.511  0.4319  0.2265 -0.4977
  979SOL    HW2 3682   0.313   5.393   5.533  0.2536  0.4339  0.3382
  979SOL    HW3 3683   0.234   5.511   5.480  0.0698  0.4477  0.6359
  979SOL    MW4 3684   0.309   5.477   5.510  0.4569  0.1374 -0.3233
  980SOL     OW 3685   1.441   5.760   4.074  0.4991  0.2079  0.7090
  980SOL    HW2 3686   1.429   5.672   4.108  1.2411 -0.2450 -0.1496
  980SOL    HW3 3687   1.503   5.750   4.002  0.7980  1.4713  0.7584
  980SOL    MW4 3688   1.447   5.747   4.069 -0.1090  0.7255  0.2692
  981SOL     OW 3689   0.645   1.514   3.862  0.2792 -0.3536 -0.1210
  981SOL    HW2 3690   0.722   1.463   3.839 -0.7716 -2.7575  1.2879
  981SOL    HW3 3691   0.674   1.571   3.934  1.3586  0.8304 -1.4271
  981SOL    MW4 3692   0.659   1.515   3.868 -0.0320  0.4849  0.0779
  982SOL     OW 3693   5.363   2.161   2.022  0.2254 -0.3059  0.1556
  982SOL    HW2 3694   5.274   2.129   2.006  0.0456  0.0691  0.4062
  982SOL    HW3 3695   5.413   2.128   1.948  1.0477 -4.8622  2.3688
  982SOL    MW4 3696   5.358   2.152   2.010 -0.0662 -0.4688  0.5138
  983SOL     OW 3697   4.274   5.940   1.877  0.7154  0.3698 -0.3953
  983SOL    HW2 3698   4.322   5.961   1.796 -1.0748 -0.8277 -1.8475
  983SOL    HW3 3699   4.274   5.844   1.880 -1.2595  0.3522 -0.2753
  983SOL    MW4 3700   4.281   5.930   1.867 -0.4401 -0.2328 -0.2480
  984SOL     OW 3701   2.502   1.610   6.293 -0.1876  0.6072  0.0898
  984SOL    HW2 3702   2.469   1.561   6.217 -0.8899  0.4018  0.5130
  984SOL    HW3 3703   2.524   1.543   6.357  1.8878  0.6920 -0.4709
  984SOL    MW4 3704   2.500   1.595   6.291 -0.2593 -0.3847  0.2983
  985SOL     OW 3705   6.105   3.995   0.373 -0.3455 -0.0510 -0.3216
  985SOL    HW2 3706   6.021   3.969   0.335 -0.3805 -2.6198  1.2126
  985SOL    HW3 3707   6.089   3.993   0.468  1.3089 -0.0435 -0.0187
  985SOL    MW4 3708   6.092   3.991   0.381 -0.1355  0.4741 -0.4242
  986SOL     OW 3709   0.894   5.612   5.975  0.1341  0.2768 -0.5316
  986SOL    HW2 3710   0.824   5.555   6.008  0.0054  1.0320  0.5497
  986SOL    HW3 3711   0.972   5.583   6.021  0.8673 -1.3925 -2.6421
  986SOL    MW4 3712   0.895   5.601   5.985 -0.6467  0.2591 -0.3942
  987SOL     OW 3713   4.426   5.603   6.402  0.2847 -0.1249 -0.5920
  987SOL    HW2 3714   4.386   5.518   6.381 -1.1115  0.3467 -0.0182
  987SOL    HW3 3715   4.464   5.590   6.489  0.8436 -0.4102 -0.8795
  987SOL    MW4 3716   4.426   5.590   6.411 -0.4197  0.3773  0.2644
  988SOL     OW 3717   2.286   0.897   4.129 -0.0130  0.0595  0.0322
  988SOL    HW2 3718   2.193   0.880   4.115  0.0807 -0.6938  0.2648
  988SOL    HW3 3719   2.330   0.817   4.101  0.3920 -0.3987  1.8204
  988SOL    MW4 3720   2.280   0.884   4.124 -0.2535  0.3378  0.4792
  989SOL     OW 3721   5.693   4.442   5.086 -0.0442 -0.6896 -0.0906
  989SOL    HW2 3722   5.664   4.405   5.002  0.1525 -0.5616 -0.2162
  989SOL    HW3 3723   5.729   4.367   5.133  1.2017 -0.5088 -0.7157
  989SOL    MW4 3724   5.694   4.427   5.081  0.3109  0.2108 -0.3923
  990SOL     OW 3725   4.041   4.891   5.607 -0.3388  0.0341  0.2205
  990SOL    HW2 3726   4.087   4.859   5.685  0.8939 -1.1317 -0.9194
  990SOL    HW3 3727   4.010   4.811   5.564 -1.6241  0.7008 -0.1261
  990SOL    MW4 3728   4.043   4.876   5.611 -0.2229 -0.7052  0.0842
  991SOL     OW 3729   1.307   1.987   3.420 -0.5864  0.4020 -0.2417
  991SOL    HW2 3730   1.381   2.039   3.389  1.1629 -2.1133 -0.6151
  991SOL    HW3 3731   1.270   1.948   3.341 -0.4131 -0.6842  0.1898
  991SOL    MW4 3732   1.312   1.989   3.406 -0.2512 -0.1712  1.0137
  992SOL     OW 3733   4.074   4.277   2.700  0.3710  0.3720  0.9180
  992SOL    HW2 3734   4.078   4.369   2.727  0.8939  1.4421 -2.3379
  992SOL    HW3 3735   3.989   4.269   2.655  0.0775 -0.9258  1.6556
  992SOL    MW4 3736   4.063   4.288   2.698 -0.2494  0.0990 -0.0837
  993SOL     OW 3737   6.052   2.070   3.279 -0.0961 -0.0677  0.2089
  993SOL    HW2 3738   6.106   2.134   3.325 -0.4020 -0.1249  0.6562
  993SOL    HW3 3739   6.114   2.009   3.239  0.1697 -1.1027  2.0894
  993SOL    MW4 3740   6.067   2.071   3.279 -1.2446  0.3988 -0.3083
  994SOL     OW 3741   3.680   4.501   2.481 -0.0218 -0.4662 -0.2942
  994SOL    HW2 3742   3.616   4.435   2.455 -0.6683 -0.6934  1.6507
  994SOL    HW3 3743   3.630   4.582   2.487  0.1889 -0.3428 -0.1879
  994SOL    MW4 3744   3.665   4.503   2.479 -0.4701 -0.1835  0.1142
  995SOL     OW 3745   1.402   0.095   2.675  0.1471 -0.3751  0.1866
  995SOL    HW2 3746   1.449   0.014   2.694  2.0003  0.5697 -0.1810
  995SOL    HW3 3747   1.375   0.086   2.583  1.0959 -0.2487 -0.1185
  995SOL    MW4 3748   1.405   0.083   2.665  0.2154  0.4852  0.3575
  996SOL     OW 3749   5.827   2.083   3.128 -0.2280  0.1163  0.0594
  996SOL    HW2 3750   5.901   2.095   3.187  0.3863  0.1334 -0.7053
  996SOL    HW3 3751   5.755   2.058   3.185  0.1658  0.8530  0.9053
  996SOL    MW4 3752   5.827   2.081   3.143  0.1332 -0.7150 -0.6750
  997SOL     OW 3753   3.971   2.170   3.982  0.7973  0.0016 -0.4545
  997SOL    HW2 3754   4.044   2.169   4.043  1.0629  0.7154 -0.7508
  997SOL    HW3 3755   3.893   2.176   4.038  1.0415  0.7059 -0.1737
  997SOL    MW4 3756   3.970   2.171   3.997 -0.1111 -0.3447  0.3339
  998SOL     OW 3757   5.093   3.123   0.415 -0.0449  0.6179 -0.3702
  998SOL    HW2 3758   5.095   3.209   0.456  0.9293 -0.5967  2.3494
  998SOL    HW3 3759   5.142   3.134   0.333  0.8350  2.4411  0.3523
  998SOL    MW4 3760   5.100   3.136   0.410  0.5863  0.3701  0.4292
  999SOL     OW 3761   2.314   0.672   1.473 -0.3596 -0.2298  0.3348
  999SOL    HW2 3762   2.278   0.602   1.417 -0.8951  1.1936 -1.2024
  999SOL    HW3 3763   2.390   0.633   1.515 -0.1128 -1.4834 -1.1926
  999SOL    MW4 3764   2.319   0.658   1.471  0.1622 -0.6521 -0.3807
 1000SOL     OW 3765   5.000   5.593   3.478  0.4930 -0.2077  0.7900
 1000SOL    HW2 3766   5.028   5.511   3.436 -2.7088 -1.8265  1.4495
 1000SOL    HW3 3767   4.934   5.566   3.541 -1.3644  2.9656  0.4346
 1000SOL    MW4 3768   4.995   5.579   3.481 -0.0235  0.5047 -1.1585
 1001SOL     OW 3769   3.187   2.624   5.740 -0.1325 -0.0424 -0.0391
 1001SOL    HW2 3770   3.234   2.652   5.819 -1.0503  1.2417  0.0890
 1001SOL    HW3 3771   3.252   2.626   5.670  1.1300 -2.7508  0.8844
 1001SOL    MW4 3772   3.202   2.628   5.741  0.5788  0.3747 -0.4102
 1002SOL     OW 3773   3.311   5.959   0.510 -0.9862  0.3307  0.1473
 1002SOL    HW2 3774   3.292   5.881   0.562  2.2674 -1.3964 -0.9697
 1002SOL    HW3 3775   3.263   5.946   0.428 -1.3583  0.0992  0.3968
 1002SOL    MW4 3776   3.302   5.947   0.506 -0.6429  0.3143 -0.2674
 1003SOL     OW 3777   5.657   1.584   0.308  0.5768 -0.5563 -0.1881
 1003SOL    HW2 3778   5.637   1.558   0.219  1.4948  0.7861 -0.8123
 1003SOL    HW3 3779   5.592   1.537   0.362 -1.7398  0.6533 -1.7616
 1003SOL    MW4 3780   5.646   1.574   0.304 -0.4160 -0.1535  0.0359
 1004SOL     OW 3781   2.790   3.696   3.195 -0.2041  0.2890 -0.3309
 1004SOL    HW2 3782   2.835   3.615   3.219 -0.4758  0.1090 -0.4271
 1004SOL    HW3 3783   2.697   3.674   3.200 -0.2934  0.8676  0.5818
 1004SOL    MW4 3784   2.784   3.682   3.199 -0.5026 -0.0258  0.0584
 1005SOL     OW 3785   2.978   3.592   1.510 -0.4892  0.2727 -0.5035
 1005SOL    HW2 3786   2.925   3.657   1.556  1.3928  1.2644  0.3542
 1005SOL    HW3 3787   2.916   3.522   1.488 -1.4312 -0.7369  4.3073
 1005SOL    MW4 3788   2.963   3.591   1.513  0.1497 -0.1544 -0.5021
 1006SOL     OW 3789   2.098   4.123   4.656 -0.8462 -0.4006  0.1363
 1006SOL    HW2 3790   2.072   4.125   4.564  1.0212 -0.2667 -0.4409
 1006SOL    HW3 3791   2.084   4.213   4.687 -0.8017 -0.2634 -0.2400
 1006SOL    MW4 3792   2.093   4.135   4.648 -0.5218  0.1034  0.3434
 1007SOL     OW 3793   3.159   5.719   3.461 -0.2237 -0.2480 -0.4426
 1007SOL    HW2 3794   3.097   5.777   3.417  0.8184  2.1379  1.0260
 1007SOL    HW3 3795   3.245   5.757   3.443  0.4294 -0.7283  1.3889
 1007SOL    MW4 3796   3.162   5.732   3.453  0.5398 -0.6403 -0.8803
 1008SOL     OW 3797   1.168   2.876   1.946 -0.0545 -0.4928  0.2115
 1008SOL    HW2 3798   1.082   2.891   1.907  0.3711  1.8626  0.0163
 1008SOL    HW3 3799   1.155   2.896   2.039  0.4699  0.9192  0.0053
 1008SOL    MW4 3800   1.155   2.880   1.953  0.2893 -0.6968  0.3957
 1009SOL     OW 3801   2.769   4.470   4.287 -0.4451 -0.0725  0.1483
 1009SOL    HW2 3802   2.685   4.449   4.247 -0.9361  1.3044  0.4188
 1009SOL    HW3 3803   2.748   4.495   4.376  0.3716 -0.5967  0.5040
 1009SOL    MW4 3804   2.756   4.470   4.293  0.2549 -0.0317  0.3850
 1010SOL     OW 3805   2.889   2.684   4.464 -0.2078  0.0058  0.2449
 1010SOL    HW2 3806   2.886   2.593   4.493  1.2306  0.5531  2.3044
 1010SOL    HW3 3807   2.943   2.682   4.385  1.6934 -0.7212  1.4728
 1010SOL    MW4 3808   2.896   2.672   4.457  0.0890  0.0216  0.4500
 1011SOL     OW 3809   4.991   2.235   1.705 -0.7401  1.2386  0.2996
 1011SOL    HW2 3810   5.020   2.323   1.729  0.1285  1.3297 -0.9771
 1011SOL    HW3 3811   5.069   2.193   1.670 -0.7827 -0.5484  2.1271
 1011SOL    MW4 3812   5.005   2.241   1.704  0.3210 -0.4997  0.3325
 1012SOL     OW 3813   5.208   0.690   3.603 -0.4229  0.0201 -0.0630
 1012SOL    HW2 3814   5.136   0.629   3.621 -2.2317  1.3837 -2.0703
 1012SOL    HW3 3815   5.287   0.640   3.621 -1.8419 -2.3685 -0.0418
 1012SOL    MW4 3816   5.209   0.675   3.607 -0.6553  0.6489 -0.2238
 1013SOL     OW 3817   6.344   2.852   2.043  0.1798 -0.0230  0.2671
 1013SOL    HW2 3818   6.412   2.918   2.051 -0.2179  0.3587  0.5202
 1013SOL    HW3 3819   6.310   2.862   1.954  0.5609 -0.3243  0.0838
 1013SOL    MW4 3820   6.348   2.862   2.032  0.0709  0.2291  0.1372
 1014SOL     OW 3821   5.305   6.198   3.115  0.2911 -0.5711 -0.0144
 1014SOL    HW2 3822   5.338   6.167   3.031 -1.2586 -0.5660 -0.6407
 1014SOL    HW3 3823   5.215   6.166   3.119  0.2639 -0.3559  1.5381
 1014SOL    MW4 3824   5.298   6.190   3.105  0.3674 -0.1756 -0.1279
 1015SOL     OW 3825   4.746   6.307   5.662  0.4627 -0.6744  0.3683
 1015SOL    HW2 3826   4.835   6.298   5.694  0.3954 -2.5344  0.1456
 1015SOL    HW3 3827   4.736   6.237   5.597 -1.2181 -0.6419  0.5422
 1015SOL    MW4 3828   4.756   6.296   5.657 -0.0063 -0.6347 -0.2844
 1016SOL     OW 3829   1.276   1.377   6.168 -0.1190 -0.6342 -0.3441
 1016SOL    HW2 3830   1.368   1.402   6.170 -0.2319  0.0456 -2.0300
 1016SOL    HW3 3831   1.229   1.460   6.180 -0.4978 -0.7798 -0.8047
 1016SOL    MW4 3832   1.282   1.391   6.170 -0.5357 -0.2101  0.7770
 1017SOL     OW 3833   0.468   4.355   0.876 -0.4343 -0.3793  0.4190
 1017SOL    HW2 3834   0.505   4.427   0.927  0.9242 -1.6078  1.2412
 1017SOL    HW3 3835   0.494   4.276   0.924  0.1445 -1.5548 -1.7349
 1017SOL    MW4 3836   0.476   4.354   0.889 -0.1428  1.0835  0.4730
 1018SOL     OW 3837   5.342   4.343   0.927  0.0033 -0.0209  0.1808
 1018SOL    HW2 3838   5.347   4.272   0.863  0.6930  0.5517 -0.4128
 1018SOL    HW3 3839   5.256   4.382   0.913 -0.0583 -0.2303 -0.0334
 1018SOL    MW4 3840   5.331   4.339   0.917  0.3748  0.1740 -0.9427
 1019SOL     OW 3841   6.401   4.197   4.343 -0.3096 -0.4338 -0.1755
 1019SOL    HW2 3842   6.320   4.247   4.352 -0.2512 -0.5344  1.0339
 1019SOL    HW3 3843   6.398   4.163   4.254 -1.8509 -0.8838  0.0215
 1019SOL    MW4 3844   6.390   4.199   4.332  0.5456  0.6955  0.1230
 1020SOL     OW 3845   4.384   6.225   6.274 -0.4570  0.0817 -0.1759
 1020SOL    HW2 3846   4.406   6.198   6.185  0.6313 -0.0731  0.1219
 1020SOL    HW3 3847   4.392   6.321   6.272 -0.2002  0.0611 -0.1886
 1020SOL    MW4 3848   4.388   6.234   6.262  0.1644 -0.1139 -0.0461
 1021SOL     OW 3849   4.922   3.299   2.517 -0.3166 -0.0333 -0.1851
 1021SOL    HW2 3850   4.876   3.370   2.472 -0.4863  0.1625  0.2923
 1021SOL    HW3 3851   5.012   3.329   2.524 -0.4957  0.3579  0.4707
 1021SOL    MW4 3852   4.928   3.312   2.512 -0.0395  0.1909  0.6387
 1022SOL     OW 3853   2.227   3.792   4.021  0.2317 -0.0546 -0.4077
 1022SOL    HW2 3854   2.216   3.887   4.018  2.9302  0.3167 -3.5159
 1022SOL    HW3 3855   2.200   3.762   3.934 -2.2034 -2.4834  1.0156
 1022SOL    MW4 3856   2.222   3.800   4.009  0.4425  0.5354 -0.0651
 1023SOL     OW 3857   1.575   5.491   0.824  0.5360  0.1951  0.6569
 1023SOL    HW2 3858   1.485   5.491   0.858  0.8260 -1.8673  1.5355
 1023SOL    HW3 3859   1.570   5.441   0.742  0.9110 -0.0484  0.7827
 1023SOL    MW4 3860   1.562   5.485   0.817  0.6745 -0.1060 -0.0837
 1024SOL     OW 3861   0.025   4.524   1.076 -0.1455  0.0306 -0.2688
 1024SOL    HW2 3862  -0.055   4.495   1.032  0.1402 -0.0986 -0.7085
 1024SOL    HW3 3863   0.096   4.490   1.021  0.2163 -0.1331  0.2984
 1024SOL    MW4 3864   0.024   4.516   1.063  0.0883 -0.2814  0.6402
 1025SOL     OW 3865   6.340   2.627   2.993  0.1486  0.3852  0.3217
 1025SOL    HW2 3866   6.280   2.560   3.025  2.1296 -1.9728 -0.6144
 1025SOL    HW3 3867   6.381   2.662   3.072 -0.4111  0.0164  0.7822
 1025SOL    MW4 3868   6.337   2.623   3.008 -1.3162  0.2502  0.1870
 1026SOL     OW 3869   1.207   2.972   2.211 -0.1994  0.7912  0.3069
 1026SOL    HW2 3870   1.298   2.943   2.216  0.4477  2.8896  2.5132
 1026SOL    HW3 3871   1.164   2.925   2.282 -0.1291  1.9598  1.1400
 1026SOL    MW4 3872   1.214   2.962   2.221  1.1167  0.0685 -0.0445
 1027SOL     OW 3873   5.352   3.453   4.815 -0.1121 -0.2990 -0.4019
 1027SOL    HW2 3874   5.337   3.497   4.899 -0.6429 -0.2385 -0.5256
 1027SOL    HW3 3875   5.322   3.517   4.750 -1.5533 -1.0994 -0.5587
 1027SOL    MW4 3876   5.346   3.468   4.818  0.0816  0.5545 -0.2168
 1028SOL     OW 3877   0.777   2.693   0.009 -0.0922  0.3817  0.5686
 1028SOL    HW2 3878   0.747   2.735   0.090 -0.3035  1.5212 -0.0714
 1028SOL    HW3 3879   0.860   2.735  -0.010 -0.6215  1.0178 -0.4389
 1028SOL    MW4 3880   0.784   2.704   0.017  0.5448 -0.8388  0.7151
 1029SOL     OW 3881   3.315   3.428   5.660  0.4215 -0.2077 -0.3909
 1029SOL    HW2 3882   3.348   3.517   5.648 -1.2164  0.6625  1.1370
 1029SOL    HW3 3883   3.248   3.436   5.728  1.7429 -2.9630  1.4497
 1029SOL    MW4 3884   3.311   3.440   5.668 -0.1205 -0.1646  0.3557
 1030SOL     OW 3885   3.592   1.479   0.367 -0.0635  0.5883 -0.2907
 1030SOL    HW2 3886   3.532   1.420   0.411 -0.0073  0.3448 -0.5382
 1030SOL    HW3 3887   3.631   1.531   0.437  1.1444 -0.8040  0.1304
 1030SOL    MW4 3888   3.589   1.478   0.382 -0.2396 -0.2127 -0.0520
 1031SOL     OW 3889   5.941   4.822   5.311  0.2001 -0.1769 -0.0690
 1031SOL    HW2 3890   5.858   4.830   5.264 -0.0412  0.0710  0.3868
 1031SOL    HW3 3891   6.007   4.855   5.250 -0.1150  0.1907 -0.2135
 1031SOL    MW4 3892   5.939   4.827   5.297 -0.3172  0.3552 -0.1609
 1032SOL     OW 3893   2.120   5.108   5.316 -0.1320  0.1352  0.0269
 1032SOL    HW2 3894   2.054   5.054   5.272 -0.5400  0.8033 -0.2068
 1032SOL    HW3 3895   2.090   5.198   5.301 -1.6414  0.4158  3.6219
 1032SOL    MW4 3896   2.107   5.113   5.308 -0.3922 -0.0446 -0.2634
 1033SOL     OW 3897   1.036   2.046   4.744  0.4507 -0.3011 -0.1582
 1033SOL    HW2 3898   1.078   2.069   4.827  0.8992  0.4138 -0.5731
 1033SOL    HW3 3899   1.108   2.021   4.687  0.0278 -2.2301  0.0922
 1033SOL    MW4 3900   1.051   2.046   4.748  0.0719  0.4592  0.4638
 1034SOL     OW 3901   6.247   4.225   6.037 -0.2592 -0.3866  0.0262
 1034SOL    HW2 3902   6.173   4.241   5.979  1.1292 -0.5666 -1.8573
 1034SOL    HW3 3903   6.249   4.301   6.095 -2.5020 -0.8574  0.8217
 1034SOL    MW4 3904   6.238   4.237   6.037  0.0879 -0.6843 -0.0369
 1035SOL     OW 3905   1.576   2.163   0.461 -0.3933  0.4394 -0.1141
 1035SOL    HW2 3906   1.577   2.115   0.543 -1.5166  1.8899  0.8021
 1035SOL    HW3 3907   1.491   2.144   0.423 -0.8171  1.6080  0.2210
 1035SOL    MW4 3908   1.565   2.154   0.467 -0.6099 -0.0415  0.4457
 1036SOL     OW 3909   2.926   2.158   2.852 -0.1708  0.1847  0.7063
 1036SOL    HW2 3910   2.843   2.111   2.857 -0.3734  0.2771 -1.0862
 1036SOL    HW3 3911   2.992   2.089   2.842 -0.5369  0.1683 -2.6900
 1036SOL    MW4 3912   2.924   2.143   2.851  0.0501 -0.0770 -0.5328
 1037SOL     OW 3913   0.365   4.541   5.802  0.3962  0.6821  0.2531
 1037SOL    HW2 3914   0.302   4.469   5.794  0.0144  1.0645 -0.2224
 1037SOL    HW3 3915   0.413   4.521   5.883  1.0352 -0.6867 -0.4305
 1037SOL    MW4 3916   0.363   4.529   5.812 -0.2481  0.9342  0.2748
 1038SOL     OW 3917   0.294   0.814   3.297  0.0368 -0.0048 -0.2134
 1038SOL    HW2 3918   0.383   0.809   3.263 -0.3966  0.3232 -1.4535
 1038SOL    HW3 3919   0.250   0.875   3.238 -0.7192  0.6969  1.0445
 1038SOL    MW4 3920   0.300   0.822   3.285 -0.4272 -0.2831  0.2739
 1039SOL     OW 3921   4.995   1.760   3.469 -0.1720  0.5093  0.2892
 1039SOL    HW2 3922   5.022   1.841   3.426 -2.7472  0.7166 -1.1645
 1039SOL    HW3 3923   4.900   1.770   3.480 -0.7014 -2.6230 -0.6342
 1039SOL    MW4 3924   4.986   1.772   3.465  0.0275 -0.5381 -0.3984
 1040SOL     OW 3925   1.345   1.064   5.672 -0.1836 -0.8100  0.1331
 1040SOL    HW2 3926   1.320   1.093   5.760  0.7682  0.4079  0.0240
 1040SOL    HW3 3927   1.269   1.086   5.617  0.6331  1.9790 -0.0237
 1040SOL    MW4 3928   1.332   1.071   5.676 -0.8141  0.1945 -0.5454
 1041SOL     OW 3929   3.537   1.573   2.373 -0.3196  0.4222  0.0701
 1041SOL    HW2 3930   3.588   1.593   2.451 -1.1273 -0.5090  0.8752
 1041SOL    HW3 3931   3.550   1.648   2.316  2.1251  0.1386  0.1204
 1041SOL    MW4 3932   3.546   1.585   2.376 -0.4282  0.3367  0.2116
 1042SOL     OW 3933   1.042   1.363   1.043  0.1166  0.3773 -0.4082
 1042SOL    HW2 3934   0.987   1.441   1.057  1.0968  1.2655 -1.3242
 1042SOL    HW3 3935   1.067   1.335   1.131 -1.0795  0.4758 -0.0154
 1042SOL    MW4 3936   1.038   1.370   1.056  0.2197  0.4733  0.2331
 1043SOL     OW 3937   5.687   1.538   3.603 -0.0374  0.0368  0.3598
 1043SOL    HW2 3938   5.604   1.492   3.609  0.6228 -1.2862 -0.2469
 1043SOL    HW3 3939   5.699   1.577   3.689 -0.3266 -1.4790  1.1148
 1043SOL    MW4 3940   5.678   1.537   3.615 -0.0584  0.0581  0.3117
 1044SOL     OW 3941   1.782   5.875   1.513 -0.2904 -0.0433 -0.3955
 1044SOL    HW2 3942   1.868   5.916   1.513 -0.4979  0.4167  0.3084
 1044SOL    HW3 3943   1.734   5.920   1.442 -0.0418 -0.1184 -0.6122
 1044SOL    MW4 3944   1.787   5.887   1.503 -0.0169  0.0255 -0.0507
 1045SOL     OW 3945   1.733   3.794   1.606 -0.8560  0.4114  0.3209
 1045SOL    HW2 3946   1.703   3.706   1.628  0.7042 -0.2304  0.0056
 1045SOL    HW3 3947   1.738   3.840   1.690 -0.5508 -0.1723  0.6244
 1045SOL    MW4 3948   1.729   3.788   1.620  0.1444 -0.5510 -0.0575
 1046SOL     OW 3949   5.960   5.578   2.584  0.5986  0.6174 -0.0464
 1046SOL    HW2 3950   5.884   5.523   2.565 -0.2899  1.5089  0.7959
 1046SOL    HW3 3951   6.033   5.517   2.593 -0.2238 -0.3474  0.1892
 1046SOL    MW4 3952   5.959   5.563   2.582  0.4841 -0.4275 -0.4172
 1047SOL     OW 3953   1.869   3.317   0.422 -0.4721 -0.5278  0.0075
 1047SOL    HW2 3954   1.896   3.402   0.457  1.6977 -1.3477  0.5232
 1047SOL    HW3 3955   1.864   3.259   0.498 -1.5223 -0.9835 -0.3815
 1047SOL    MW4 3956   1.872   3.320   0.437 -0.0953  0.3854  0.1348
 1048SOL     OW 3957   5.113   3.372   3.323  0.2870  0.1337  0.8025
 1048SOL    HW2 3958   5.045   3.412   3.269  1.8984  2.7182  0.5329
 1048SOL    HW3 3959   5.183   3.350   3.261 -0.2308 -2.5538  1.0607
 1048SOL    MW4 3960   5.114   3.374   3.308  0.3503 -0.2489  0.1100
 1049SOL     OW 3961   3.322   1.603   1.099  0.4586 -0.4061  0.6093
 1049SOL    HW2 3962   3.315   1.614   1.193 -0.1571 -1.0253  0.6442
 1049SOL    HW3 3963   3.268   1.526   1.079  0.0584  0.0978 -0.3326
 1049SOL    MW4 3964   3.314   1.594   1.109  0.1870  0.5192  0.7710
 1050SOL     OW 3965   1.565   5.315   2.139  0.7005 -0.1715 -0.4946
 1050SOL    HW2 3966   1.643   5.369   2.153 -0.9145  2.4765 -0.9238
 1050SOL    HW3 3967   1.548   5.320   2.045 -0.6478  0.3773 -0.2518
 1050SOL    MW4 3968   1.573   5.323   2.129  0.2089 -0.2536 -0.2159
 1051SOL     OW 3969   4.174   0.418   2.222  0.3913 -0.0285 -0.5008
 1051SOL    HW2 3970   4.098   0.362   2.208  0.8144 -1.2361  1.5831
 1051SOL    HW3 3971   4.235   0.393   2.153  0.4140 -1.9354  0.1452
 1051SOL    MW4 3972   4.172   0.407   2.211  0.0324 -0.2425 -0.4398
 1052SOL     OW 3973   3.997   4.832   0.192  0.8353  0.1427 -0.0156
 1052SOL    HW2 3974   3.911   4.825   0.233  0.2008  1.0490 -1.1249
 1052SOL    HW3 3975   4.055   4.783   0.250  0.2553  2.3487  2.6615
 1052SOL    MW4 3976   3.993   4.824   0.205  0.2240  0.1376  0.4239
 1053SOL     OW 3977   0.073   1.953   1.630 -0.0019 -0.3984 -0.4712
 1053SOL    HW2 3978   0.038   1.871   1.666 -0.3183  0.1327  0.4865
 1053SOL    HW3 3979  -0.002   2.011   1.627  0.8719  1.1210  2.6484
 1053SOL    MW4 3980   0.059   1.950   1.634 -0.1173 -0.3610  0.0499
 1054SOL     OW 3981   3.649   2.068   2.816  0.0413  0.2171 -0.7280
 1054SOL    HW2 3982   3.609   2.146   2.854 -0.1923  0.2346 -1.0078
 1054SOL    HW3 3983   3.686   2.097   2.733 -0.4093 -0.0557 -1.0283
 1054SOL    MW4 3984   3.649   2.082   2.810  0.3678  0.7568 -0.6318
 1055SOL     OW 3985   4.450   0.918   5.441  0.5780 -0.4932  0.2217
 1055SOL    HW2 3986   4.482   0.853   5.503 -0.5985 -2.1572 -0.8396
 1055SOL    HW3 3987   4.517   0.921   5.372 -0.0660 -1.7802 -0.5038
 1055SOL    MW4 3988   4.463   0.910   5.440  0.3375  0.2826  0.1513
 1056SOL     OW 3989   5.037   4.642   3.034 -0.5636 -0.2252  0.3017
 1056SOL    HW2 3990   4.979   4.717   3.020  0.9686  0.8958 -0.4993
 1056SOL    HW3 3991   4.980   4.572   3.063 -2.1161  1.1644  0.7683
 1056SOL    MW4 3992   5.022   4.643   3.036  0.5526 -0.0331 -0.1426
 1057SOL     OW 3993   5.319   2.480   5.236 -0.0934 -0.2287 -0.2003
 1057SOL    HW2 3994   5.369   2.552   5.199  0.2726 -0.9406 -1.1338
 1057SOL    HW3 3995   5.238   2.520   5.266  0.5111  0.7313  0.2051
 1057SOL    MW4 3996   5.315   2.495   5.235  0.3374  0.7251  0.5845
 1058SOL     OW 3997   3.427   5.754   6.152 -0.2010 -0.1323  0.1061
 1058SOL    HW2 3998   3.449   5.707   6.233 -1.0797 -0.5363  0.1241
 1058SOL    HW3 3999   3.503   5.739   6.095 -0.7320 -2.2006 -0.1458
 1058SOL    MW4 4000   3.440   5.746   6.156 -0.1424  0.2268 -0.7388
 1059SOL     OW 4001   5.210   1.847   1.958  0.2462 -0.2229 -0.8108
 1059SOL    HW2 4002   5.152   1.898   1.902  2.4103  2.0315 -1.1860
 1059SOL    HW3 4003   5.235   1.771   1.906  0.4737  0.6766 -2.0375
 1059SOL    MW4 4004   5.205   1.844   1.944 -0.0727 -0.1423  0.3801
 1060SOL     OW 4005   4.564   6.270   1.368  0.1987 -0.0100 -0.3564
 1060SOL    HW2 4006   4.538   6.298   1.455  1.4953  1.8728 -0.5123
 1060SOL    HW3 4007   4.499   6.308   1.309 -1.3829 -2.2703 -0.2228
 1060SOL    MW4 4008   4.552   6.278   1.371 -0.4988 -0.7762 -0.4380
 1061SOL     OW 4009   1.748   1.185   2.058 -0.0624 -0.1366 -0.2273
 1061SOL    HW2 4010   1.738   1.240   2.135  0.8368 -1.8600  1.2130
 1061SOL    HW3 4011   1.704   1.103   2.081  0.5742 -0.8338 -1.3741
 1061SOL    MW4 4012   1.741   1.181   2.071 -0.0994 -0.2234 -0.2362
 1062SOL     OW 4013   3.459   1.812   0.765  0.5364 -0.0798  0.4884
 1062SOL    HW2 4014   3.511   1.877   0.812  0.5992  0.3925 -0.2318
 1062SOL    HW3 4015   3.494   1.728   0.795 -0.4235  0.1716  2.4275
 1062SOL    MW4 4016   3.471   1.809   0.775  0.1170  0.3217  0.0927
 1063SOL     OW 4017   5.476   2.853   3.028 -0.5957 -0.2143  0.2824
 1063SOL    HW2 4018   5.462   2.765   2.994  0.1343  0.0184 -0.6715
 1063SOL    HW3 4019   5.388   2.892   3.030 -1.3877 -1.8783  3.5272
 1063SOL    MW4 4020   5.463   2.847   3.024  0.4003  0.2329 -0.5166
 1064SOL     OW 4021   1.638   1.287   6.400  0.3700 -0.2287  0.0975
 1064SOL    HW2 4022   1.578   1.274   6.473  1.2448 -1.6621  0.5992
 1064SOL    HW3 4023   1.607   1.226   6.333 -1.1052  1.8493 -1.2362
 1064SOL    MW4 4024   1.626   1.277   6.401 -0.5889  0.5412  0.3407
 1065SOL     OW 4025   5.243   0.727   1.074  0.2311 -0.6005  0.0756
 1065SOL    HW2 4026   5.249   0.770   0.988 -1.4758  2.1802  1.1952
 1065SOL    HW3 4027   5.330   0.691   1.089  0.7205 -0.7011 -2.5778
 1065SOL    MW4 4028   5.255   0.728   1.065  0.0683  0.3204 -0.3982
 1066SOL     OW 4029   3.309   0.929   2.432 -0.2612 -0.1382  0.0238
 1066SOL    HW2 4030   3.236   0.882   2.392 -0.2603 -0.2757  0.1821
 1066SOL    HW3 4031   3.296   0.920   2.526 -0.3380  0.3031  0.0594
 1066SOL    MW4 4032   3.298   0.922   2.439  0.1436  0.1890  0.5789
 1067SOL     OW 4033   3.372   6.162   0.830 -0.1131  0.6793  0.1125
 1067SOL    HW2 4034   3.358   6.079   0.875 -0.1062  0.3890 -0.4205
 1067SOL    HW3 4035   3.443   6.145   0.768 -1.8045  0.3541 -1.8293
 1067SOL    MW4 4036   3.380   6.149   0.828  0.6122  0.0474 -0.4686
 1068SOL     OW 4037   5.382   2.221   0.305 -0.2710 -0.4484 -0.2538
 1068SOL    HW2 4038   5.303   2.183   0.268 -0.4555  0.5044 -0.8795
 1068SOL    HW3 4039   5.452   2.159   0.281 -0.9219 -1.6989  0.9955
 1068SOL    MW4 4040   5.381   2.208   0.297 -0.3985  0.2174 -0.0469
 1069SOL     OW 4041   5.420   0.911   5.125 -0.4090 -0.2378 -0.5801
 1069SOL    HW2 4042   5.398   0.986   5.180  2.3180 -0.3334  0.8213
 1069SOL    HW3 4043   5.496   0.939   5.074 -0.1355 -1.6085 -0.9888
 1069SOL    MW4 4044   5.427   0.924   5.126 -0.6759 -0.6540  0.0580
 1070SOL     OW 4045   0.250   0.712   5.509 -0.5973  0.3567 -0.0652
 1070SOL    HW2 4046   0.289   0.627   5.491 -0.9508  0.0629  0.5510
 1070SOL    HW3 4047   0.237   0.751   5.422 -1.3125 -0.6107 -0.4023
 1070SOL    MW4 4048   0.253   0.706   5.495 -0.3110 -0.1803  0.0683
 1071SOL     OW 4049   6.202   4.338   1.712  0.1233 -0.4673 -0.2521
 1071SOL    HW2 4050   6.166   4.251   1.727  2.0106 -1.0613  1.2699
 1071SOL    HW3 4051   6.127   4.391   1.686 -1.3140 -2.2323  0.1019
 1071SOL    MW4 4052   6.188   4.334   1.711  0.0229  0.4879  0.4611
 1072SOL     OW 4053   0.178   5.838   2.928  0.2135 -0.5483 -0.5186
 1072SOL    HW2 4054   0.245   5.906   2.928  1.0401 -1.0183  4.5141
 1072SOL    HW3 4055   0.226   5.757   2.915  0.2230 -0.6657  0.2253
 1072SOL    MW4 4056   0.193   5.836   2.926  0.4008 -0.2353 -0.2615
 1073SOL     OW 4057   2.276   5.025   1.276  0.4126 -0.3070  0.4673
 1073SOL    HW2 4058   2.316   4.990   1.197  0.6658 -0.7545  0.7923
 1073SOL    HW3 4059   2.276   4.953   1.338 -0.7576 -0.2795  0.5367
 1073SOL    MW4 4060   2.281   5.011   1.273 -0.3677 -0.1053 -0.2276
 1074SOL     OW 4061   4.684   4.130   2.706 -0.0767  0.1032  0.1810
 1074SOL    HW2 4062   4.615   4.195   2.713  0.0535  0.1657  0.8902
 1074SOL    HW3 4063   4.766   4.180   2.713  0.0535  0.0239 -0.6016
 1074SOL    MW4 4064   4.686   4.145   2.708  0.1790 -0.9392 -0.1572
 1075SOL     OW 4065   5.116   1.454   4.835 -0.6350 -0.0921  0.0336
 1075SOL    HW2 4066   5.039   1.466   4.892 -0.4700 -2.7078  0.9261
 1075SOL    HW3 4067   5.109   1.364   4.804  2.4976 -0.7346  0.8504
 1075SOL    MW4 4068   5.105   1.444   4.839 -0.5022  0.5463  0.3123
 1076SOL     OW 4069   5.759   3.380   1.154 -0.3492  0.0052 -0.2834
 1076SOL    HW2 4070   5.732   3.338   1.072 -0.2590 -0.2394 -0.1906
 1076SOL    HW3 4071   5.732   3.471   1.145 -1.7279 -0.3401  0.0332
 1076SOL    MW4 4072   5.752   3.386   1.142  0.0438  0.2558 -0.0874
 1077SOL     OW 4073   5.883   0.310   2.061 -0.1691 -0.9605  0.0765
 1077SOL    HW2 4074   5.844   0.258   2.132 -2.4156 -0.1003 -0.4586
 1077SOL    HW3 4075   5.949   0.364   2.105 -2.1523  0.2431  1.7336
 1077SOL    MW4 4076   5.887   0.310   2.076  0.6588  0.4661  0.1910
 1078SOL     OW 4077   0.830   0.389   3.839  0.4378 -0.9711  0.2849
 1078SOL    HW2 4078   0.799   0.305   3.873  0.0972 -0.7523  0.5261
 1078SOL    HW3 4079   0.808   0.387   3.746 -1.4931 -0.3044  0.6891
 1078SOL    MW4 4080   0.823   0.377   3.831  0.0587 -0.4299 -0.2057
 1079SOL     OW 4081   1.999   0.742   0.983  0.0312 -0.5277  0.7386
 1079SOL    HW2 4082   2.073   0.723   0.926  0.9748  0.5365  1.5527
 1079SOL    HW3 4083   2.038   0.749   1.070 -1.0911 -0.2570  1.2336
 1079SOL    MW4 4084   2.014   0.740   0.987 -0.7336  0.2185 -0.7908
 1080SOL     OW 4085   4.919   0.074   3.817 -0.5843  0.0826  0.9335
 1080SOL    HW2 4086   4.845   0.072   3.877 -0.7243  2.2928  0.9214
 1080SOL    HW3 4087   4.963   0.157   3.837  1.1252 -0.5579  0.0313
 1080SOL    MW4 4088   4.915   0.085   3.828  0.5689 -0.1478  0.2159
 1081SOL     OW 4089   4.884   1.170   2.841  0.1553 -0.3689  0.6789
 1081SOL    HW2 4090   4.801   1.126   2.858 -0.8883  1.0350 -0.5586
 1081SOL    HW3 4091   4.951   1.108   2.872 -1.2713 -2.1990  0.2626
 1081SOL    MW4 4092   4.882   1.156   2.848 -0.2761 -0.4432  0.0916
 1082SOL     OW 4093   1.485   4.098   6.050 -0.2784 -0.1794  0.0426
 1082SOL    HW2 4094   1.562   4.151   6.028 -1.3723  1.4719 -0.0168
 1082SOL    HW3 4095   1.519   4.009   6.062  1.6308  0.5156  0.0917
 1082SOL    MW4 4096   1.499   4.093   6.048  0.3086 -1.1636 -0.2369
 1083SOL     OW 4097   2.418   3.170   4.881 -0.0761 -0.8683 -0.0992
 1083SOL    HW2 4098   2.486   3.107   4.861 -1.0585 -1.8558 -0.4413
 1083SOL    HW3 4099   2.453   3.254   4.854  0.5869 -1.5030 -1.2482
 1083SOL    MW4 4100   2.431   3.173   4.875  0.3480 -0.1114  0.3735
 1084SOL     OW 4101   0.918   5.177   0.896 -0.0124  0.2340 -0.1241
 1084SOL    HW2 4102   0.905   5.269   0.922  2.0197  0.1729  1.3659
 1084SOL    HW3 4103   0.897   5.176   0.802  1.0488  2.5167 -0.4824
 1084SOL    MW4 4104   0.914   5.189   0.887 -0.0307 -0.4510  0.3046
 1085SOL     OW 4105   0.598   0.827   5.870  0.2743  0.3144 -0.2556
 1085SOL    HW2 4106   0.555   0.895   5.819  1.3699 -0.2451 -2.0009
 1085SOL    HW3 4107   0.677   0.869   5.906  0.6469  0.1360 -0.8535
 1085SOL    MW4 4108   0.603   0.841   5.868 -0.6503 -0.2381  0.3552
 1086SOL     OW 4109   6.249   4.832   1.763  0.2252 -0.5724 -0.0894
 1086SOL    HW2 4110   6.302   4.784   1.700  1.9657  1.1174 -0.0324
 1086SOL    HW3 4111   6.293   4.917   1.770 -1.3616  0.1691  1.5348
 1086SOL    MW4 4112   6.262   4.837   1.756  0.2118  0.3088 -0.2247
 1087SOL     OW 4113   5.419   1.411   3.024 -0.7405 -0.0058 -0.5749
 1087SOL    HW2 4114   5.337   1.407   3.074  0.1967 -0.3422  1.0108
 1087SOL    HW3 4115   5.459   1.325   3.036  0.0384  0.2797 -1.0006
 1087SOL    MW4 4116   5.413   1.399   3.032 -0.1025 -0.5263  0.3891
 1088SOL     OW 4117   2.656   4.283   5.062 -0.2981 -0.2257  0.1963
 1088SOL    HW2 4118   2.612   4.337   5.128 -0.7331  1.1458 -1.1674
 1088SOL    HW3 4119   2.605   4.297   4.982 -1.1063 -3.4931 -0.0372
 1088SOL    MW4 4120   2.643   4.292   5.060 -0.0309  0.1375  0.3536
 1089SOL     OW 4121   2.755   2.940   4.264  0.3622  0.3694 -0.5892
 1089SOL    HW2 4122   2.825   2.889   4.223 -0.3456  0.0546 -1.4329
 1089SOL    HW3 4123   2.791   2.966   4.349  1.6649  0.5941 -1.1915
 1089SOL    MW4 4124   2.769   2.936   4.270 -0.0301 -0.1576 -0.3846
 1090SOL     OW 4125   4.224   0.493   3.391 -0.2733  0.3271 -0.3419
 1090SOL    HW2 4126   4.309   0.537   3.390 -0.2323  0.2487 -1.3297
 1090SOL    HW3 4127   4.180   0.525   3.312 -0.8072 -0.3226 -0.3121
 1090SOL    MW4 4128   4.229   0.503   3.380 -0.0751 -0.6349 -0.6997
 1091SOL     OW 4129   4.096   2.974   3.122 -0.1561 -0.1914  0.0304
 1091SOL    HW2 4130   4.139   3.057   3.147  0.4442 -1.0780  2.2052
 1091SOL    HW3 4131   4.077   2.984   3.029  0.0454  2.3254  0.1896
 1091SOL    MW4 4132   4.099   2.987   3.113 -0.2495 -0.0184 -0.0928
 1092SOL     OW 4133   2.588   3.726   2.407 -0.0278 -0.2733  0.3722
 1092SOL    HW2 4134   2.637   3.808   2.417  1.1527 -0.9014 -0.0023
 1092SOL    HW3 4135   2.506   3.752   2.365  0.1495  0.7667  0.6405
 1092SOL    MW4 4136   2.584   3.740   2.402  0.1519  0.3553  0.3593
 1093SOL     OW 4137   0.297   4.016   2.234  0.2546  0.0480 -0.2640
 1093SOL    HW2 4138   0.351   4.095   2.238  1.9779 -1.0130 -1.1161
 1093SOL    HW3 4139   0.279   3.994   2.325  1.6040  0.2364  0.0674
 1093SOL    MW4 4140   0.302   4.023   2.246  0.6054  0.3902 -0.4883
 1094SOL     OW 4141   6.291   0.086   2.704 -0.3263  0.3393 -0.7525
 1094SOL    HW2 4142   6.275   0.165   2.651 -0.6154 -0.4537 -1.8847
 1094SOL    HW3 4143   6.236   0.097   2.781 -1.3759  0.6552 -1.5220
 1094SOL    MW4 4144   6.282   0.098   2.707  0.3716 -0.1957  0.6637
 1095SOL     OW 4145   4.014   3.786   3.485  0.3682 -0.4081  0.0767
 1095SOL    HW2 4146   4.022   3.799   3.390  2.0379  2.0871  0.4675
 1095SOL    HW3 4147   4.062   3.859   3.523 -1.3288 -0.6216  2.8982
 1095SOL    MW4 4148   4.021   3.797   3.478  0.3911  0.1803 -0.3147
 1096SOL     OW 4149   3.198   1.445   4.230  0.0031 -0.8589 -0.3128
 1096SOL    HW2 4150   3.176   1.354   4.213  0.6694 -1.5064  1.9680
 1096SOL    HW3 4151   3.219   1.448   4.323  2.1511  1.1636 -0.7462
 1096SOL    MW4 4152   3.198   1.433   4.240 -0.6044 -0.2378 -0.0650
 1097SOL     OW 4153   4.067   6.365   0.230  0.0476 -0.2705  0.0909
 1097SOL    HW2 4154   4.118   6.289   0.258 -0.9034 -0.7870  0.4859
 1097SOL    HW3 4155   4.126   6.415   0.175  0.6275 -1.4195 -0.3632
 1097SOL    MW4 4156   4.081   6.362   0.227  0.0778  0.1516 -0.2740
 1098SOL     OW 4157   5.183   2.898   4.785 -0.1854  0.2366  0.5434
 1098SOL    HW2 4158   5.209   2.835   4.852 -1.2741 -1.8620 -0.8892
 1098SOL    HW3 4159   5.260   2.908   4.730 -0.1025 -0.1546  0.5840
 1098SOL    MW4 4160   5.196   2.891   4.786 -0.3538 -0.0629 -0.7011
 1099SOL     OW 4161   4.864   2.461   4.478 -0.2045  0.1602  0.3228
 1099SOL    HW2 4162   4.896   2.381   4.520  2.4525  0.9408 -0.0434
 1099SOL    HW3 4163   4.779   2.477   4.519 -0.1104 -2.0175  1.4927
 1099SOL    MW4 4164   4.857   2.453   4.489  0.0459  0.3592 -0.5350
 1100SOL     OW 4165   2.238   5.861   0.581 -0.0739  0.2001  0.4650
 1100SOL    HW2 4166   2.327   5.826   0.571 -0.8534 -2.0000  0.6774
 1100SOL    HW3 4167   2.204   5.817   0.659 -2.0475 -0.6188 -0.7700
 1100SOL    MW4 4168   2.245   5.851   0.590 -0.4064  0.0741  0.4892
 1101SOL     OW 4169   0.338   4.416   5.433  0.0532  0.3490  0.9624
 1101SOL    HW2 4170   0.408   4.477   5.456 -0.3933  0.8183  1.0764
 1101SOL    HW3 4171   0.258   4.460   5.458 -0.2848 -0.2402  0.9399
 1101SOL    MW4 4172   0.337   4.430   5.439 -0.3569 -0.3644 -0.3757
 1102SOL     OW 4173   4.462   5.457   5.548  0.1961 -0.1940 -0.1152
 1102SOL    HW2 4174   4.514   5.526   5.589  0.2650 -0.1053 -0.3511
 1102SOL    HW3 4175   4.371   5.486   5.557  0.0465 -1.0405  1.6229
 1102SOL    MW4 4176   4.457   5.470   5.555 -0.1336 -0.6575  0.4229
 1103SOL     OW 4177   4.916   2.014   1.483  0.0764 -0.5524 -0.1694
 1103SOL    HW2 4178   4.938   2.066   1.405  1.3227 -1.7450 -0.6557
 1103SOL    HW3 4179   4.985   2.035   1.546  1.4530 -2.6089 -0.8843
 1103SOL    MW4 4180   4.928   2.023   1.481  0.3001  0.4290  0.5343
 1104SOL     OW 4181   3.393   1.862   5.269 -0.0755 -0.2052  1.2888
 1104SOL    HW2 4182   3.366   1.891   5.182  0.4322 -0.4808  1.0329
 1104SOL    HW3 4183   3.459   1.925   5.296  1.5858 -1.4872  0.4130
 1104SOL    MW4 4184   3.398   1.874   5.261 -0.4812 -0.0515 -0.0403
 1105SOL     OW 4185   5.216   3.679   5.889 -0.0160 -0.6036 -0.1676
 1105SOL    HW2 4186   5.179   3.622   5.822 -0.8432 -0.5634  0.2409
 1105SOL    HW3 4187   5.310   3.661   5.887 -0.3146 -2.3900  0.3288
 1105SOL    MW4 4188   5.224   3.669   5.880 -0.2879  0.2084 -0.2514
 1106SOL     OW 4189   2.181   1.060   5.517 -0.0688  0.1902 -0.3539
 1106SOL    HW2 4190   2.120   1.084   5.448 -0.3477 -1.8783 -0.8881
 1106SOL    HW3 4191   2.135   1.082   5.598 -0.6174  0.6490 -0.7796
 1106SOL    MW4 4192   2.167   1.066   5.519  0.2147 -0.3554  0.7068
 1107SOL     OW 4193   4.780   4.369   0.156 -0.3958  0.2222 -0.5575
 1107SOL    HW2 4194   4.870   4.348   0.182 -0.5110  0.5735  0.1556
 1107SOL    HW3 4195   4.781   4.367   0.060 -0.0110 -1.3866 -0.5563
 1107SOL    MW4 4196   4.792   4.366   0.147 -0.2600  0.2871  0.5305
 1108SOL     OW 4197   0.606   5.108   4.500 -0.0783  0.3452 -0.4613
 1108SOL    HW2 4198   0.603   5.017   4.471  0.0669  0.0294  0.4885
 1108SOL    HW3 4199   0.531   5.149   4.456 -1.0597 -0.5945  0.2837
 1108SOL    MW4 4200   0.596   5.102   4.490 -0.3620  0.3903 -0.1778
 1109SOL     OW 4201   1.371   5.570   0.054 -0.2068  0.1697 -0.4269
 1109SOL    HW2 4202   1.352   5.480   0.082 -0.0705  0.1770 -0.3186
 1109SOL    HW3 4203   1.362   5.623   0.133 -0.8181  0.3305 -0.5910
 1109SOL    MW4 4204   1.367   5.565   0.068  0.2962 -0.4295  0.0000
 1110SOL     OW 4205   4.294   1.846   1.309 -0.3336  0.7295  0.3112
 1110SOL    HW2 4206   4.261   1.908   1.374  2.0012  0.8324  1.5144
 1110SOL    HW3 4207   4.362   1.797   1.356 -1.5605 -2.2668 -0.8154
 1110SOL    MW4 4208   4.299   1.848   1.324 -0.1938  0.1964  0.2056
 1111SOL     OW 4209   3.314   5.975   4.246  0.1834 -0.0465  0.2351
 1111SOL    HW2 4210   3.344   6.010   4.331 -2.6417  0.5655  1.1010
 1111SOL    HW3 4211   3.379   5.908   4.224  0.0609 -1.6551  3.8861
 1111SOL    MW4 4212   3.327   5.971   4.255  0.2731 -0.6345  0.5575
 1112SOL     OW 4213   2.976   3.876   4.879 -0.2573  0.0437  0.3537
 1112SOL    HW2 4214   3.062   3.848   4.848  0.1355 -1.6841  2.7385
 1112SOL    HW3 4215   2.943   3.801   4.929 -1.4973  1.9944  2.6464
 1112SOL    MW4 4216   2.983   3.862   4.881 -0.3846  0.3307  0.5230
 1113SOL     OW 4217   2.466   2.514   5.926  0.4325  0.4115  0.3619
 1113SOL    HW2 4218   2.409   2.566   5.869  0.4649 -0.8097 -0.8585
 1113SOL    HW3 4219   2.555   2.542   5.904  0.3939  0.9474  0.8640
 1113SOL    MW4 4220   2.470   2.524   5.915 -0.0476 -0.4937  0.4166
 1114SOL     OW 4221   3.296   3.053   4.129  0.1135 -0.7703 -0.1649
 1114SOL    HW2 4222   3.272   2.985   4.192  0.1888  0.3532  1.0929
 1114SOL    HW3 4223   3.390   3.065   4.141  0.1049 -0.4543 -0.4080
 1114SOL    MW4 4224   3.305   3.046   4.139  0.0301 -0.1180 -0.3118
 1115SOL     OW 4225   4.659   0.086   5.167 -0.0066 -0.2630 -0.1279
 1115SOL    HW2 4226   4.673   0.152   5.235  0.4989 -0.2303 -0.2540
 1115SOL    HW3 4227   4.564   0.076   5.161 -0.0593 -0.0619  0.3844
 1115SOL    MW4 4228   4.649   0.094   5.175  0.0463 -0.5426 -0.3119
 1116SOL     OW 4229   4.996   1.620   1.390 -0.7942 -0.1001  0.9382
 1116SOL    HW2 4230   4.904   1.593   1.397 -0.4227 -1.4230  0.9507
 1116SOL    HW3 4231   5.019   1.651   1.477 -0.2452 -3.1363  1.9888
 1116SOL    MW4 4232   4.987   1.621   1.402 -0.0076  0.0105 -0.5744
 1117SOL     OW 4233   1.431   1.788   0.914 -0.1896  0.1435 -0.5520
 1117SOL    HW2 4234   1.464   1.698   0.903  1.2520  0.4372  0.9743
 1117SOL    HW3 4235   1.415   1.796   1.008 -1.8558  0.9893 -0.8834
 1117SOL    MW4 4236   1.433   1.777   0.925 -0.2795 -0.2429  0.2562
 1118SOL     OW 4237   2.196   5.205   2.290  0.1139 -0.2604  0.8482
 1118SOL    HW2 4238   2.213   5.150   2.214 -0.9688  2.2466 -1.3695
 1118SOL    HW3 4239   2.111   5.176   2.323 -0.5931  0.2087 -0.4864
 1118SOL    MW4 4240   2.187   5.194   2.284 -0.2032 -0.0647  0.4365
 1119SOL     OW 4241   5.344   1.086   5.948 -0.4934 -0.6242  0.0850
 1119SOL    HW2 4242   5.425   1.079   5.896 -0.0348 -2.6438  0.9708
 1119SOL    HW3 4243   5.356   1.165   6.001  2.0986 -2.1427  2.0146
 1119SOL    MW4 4244   5.357   1.096   5.948  0.1846 -0.5690 -0.2777
 1120SOL     OW 4245   2.955   4.245   4.205 -0.3776  0.2288  0.0623
 1120SOL    HW2 4246   2.883   4.307   4.215  0.1993  0.8698  0.3515
 1120SOL    HW3 4247   3.033   4.300   4.200  0.1279 -0.4717  0.1210
 1120SOL    MW4 4248   2.956   4.260   4.206  0.1729 -0.1038 -0.0428
 1121SOL     OW 4249   2.432   1.962   3.652 -0.4090 -0.1906 -0.2217
 1121SOL    HW2 4250   2.505   1.965   3.590 -1.5317 -3.5914 -1.9428
 1121SOL    HW3 4251   2.461   1.901   3.720 -0.6985  0.4889  0.5301
 1121SOL    MW4 4252   2.446   1.954   3.653  0.0709  0.0409  0.1596
 1122SOL     OW 4253   1.887   1.009   2.896  0.0633 -0.3392 -0.2248
 1122SOL    HW2 4254   1.969   1.045   2.931 -0.2746 -1.2017  1.5459
 1122SOL    HW3 4255   1.844   0.968   2.971 -0.7931 -2.1613 -1.6257
 1122SOL    MW4 4256   1.892   1.008   2.910  0.1167  0.1873 -0.1651
 1123SOL     OW 4257   6.180   0.897   0.381  0.1129  0.6797 -0.2530
 1123SOL    HW2 4258   6.172   0.812   0.424  2.4822  2.1133  3.5459
 1123SOL    HW3 4259   6.274   0.915   0.380 -0.3244  3.5297 -0.3038
 1123SOL    MW4 4260   6.191   0.888   0.387  0.8251  0.6856 -0.0602
 1124SOL     OW 4261   3.753   4.389   3.258 -0.2764  0.4986  0.2806
 1124SOL    HW2 4262   3.824   4.325   3.252 -0.3652  0.2172  1.7960
 1124SOL    HW3 4263   3.676   4.345   3.222  0.0719  0.4275 -0.3895
 1124SOL    MW4 4264   3.752   4.375   3.253  0.3804 -0.8349  0.1062
 1125SOL     OW 4265   0.082   3.756   1.765  0.1364  0.2249  0.2924
 1125SOL    HW2 4266   0.158   3.732   1.818  1.0408 -0.2349 -1.1700
 1125SOL    HW3 4267   0.118   3.809   1.694 -0.7830 -0.6523 -0.8670
 1125SOL    MW4 4268   0.096   3.760   1.763 -0.4392  0.0876  0.1392
 1126SOL     OW 4269   1.839   2.426   0.639 -0.0078  0.7637  0.0526
 1126SOL    HW2 4270   1.871   2.466   0.720  2.2199  0.6153 -0.6833
 1126SOL    HW3 4271   1.907   2.362   0.616 -1.5804 -0.6499 -0.8822
 1126SOL    MW4 4272   1.852   2.422   0.647 -0.6133 -0.1922  0.0308
 1127SOL     OW 4273   1.782   3.906   0.752 -0.1895  0.3612 -0.2047
 1127SOL    HW2 4274   1.841   3.902   0.676 -1.4982  0.0801 -1.2502
 1127SOL    HW3 4275   1.770   3.814   0.777  0.3375  0.4628  0.4324
 1127SOL    MW4 4276   1.788   3.893   0.745  0.1828 -0.1644  0.0366
 1128SOL     OW 4277   0.052   4.673   3.894  0.0227 -0.1459 -0.4617
 1128SOL    HW2 4278   0.064   4.579   3.880  1.2369  0.0516 -0.8405
 1128SOL    HW3 4279   0.133   4.702   3.936 -0.5277  0.6594  0.0824
 1128SOL    MW4 4280   0.064   4.664   3.898  0.6581 -0.4729  0.4905
 1129SOL     OW 4281   1.136   2.751   4.299  0.1028  0.7684 -0.0253
 1129SOL    HW2 4282   1.054   2.764   4.346  1.1638  0.8600  1.9132
 1129SOL    HW3 4283   1.166   2.664   4.327  1.1880  1.1950  0.1608
 1129SOL    MW4 4284   1.129   2.741   4.309 -0.0629 -0.8311 -0.0770
 1130SOL     OW 4285   1.078   1.487   0.266  0.7924  0.0658  0.0994
 1130SOL    HW2 4286   1.106   1.554   0.328  0.9633 -1.4309  1.6942
 1130SOL    HW3 4287   1.122   1.407   0.295 -1.4105 -1.3132 -0.1746
 1130SOL    MW4 4288   1.088   1.486   0.278 -0.1333  0.4662 -0.5566
 1131SOL     OW 4289   1.192   2.237   3.133  0.3909 -0.0651 -0.3497
 1131SOL    HW2 4290   1.167   2.149   3.163 -0.0134  0.5201  1.1454
 1131SOL    HW3 4291   1.121   2.264   3.076 -0.2648 -0.1182  0.4182
 1131SOL    MW4 4292   1.179   2.229   3.130 -0.2880  0.5028 -0.2778
 1132SOL     OW 4293   1.776   5.869   2.558  0.6994  0.5762 -0.3079
 1132SOL    HW2 4294   1.833   5.926   2.507 -1.3415  1.4641 -1.6650
 1132SOL    HW3 4295   1.823   5.785   2.561  2.5151  1.5442 -0.5216
 1132SOL    MW4 4296   1.790   5.865   2.552 -0.3461  0.0917  0.0521
 1133SOL     OW 4297   3.151   5.886   2.350 -0.4358  0.2291 -0.0260
 1133SOL    HW2 4298   3.195   5.843   2.424  2.5921 -1.3763 -2.5360
 1133SOL    HW3 4299   3.061   5.856   2.355 -0.4006  0.3339  3.0614
 1133SOL    MW4 4300   3.145   5.877   2.361  0.1173 -0.2042 -0.0912
 1134SOL     OW 4301   4.698   3.546   1.152  0.0891 -0.2350 -0.3179
 1134SOL    HW2 4302   4.675   3.546   1.245 -1.6102  0.1401 -0.6863
 1134SOL    HW3 4303   4.788   3.516   1.148  0.3131  0.1292  1.4811
 1134SOL    MW4 4304   4.707   3.542   1.163  0.2339 -0.2384  0.3110
 1135SOL     OW 4305   6.042   5.760   2.395  0.2212 -0.5079 -0.1058
 1135SOL    HW2 4306   6.038   5.699   2.469  1.3815  1.7065  1.9023
 1135SOL    HW3 4307   6.114   5.727   2.341 -0.2150 -1.7839  0.0520
 1135SOL    MW4 4308   6.051   5.747   2.398  0.3500 -0.7061 -0.7182
 1136SOL     OW 4309   4.229   6.176   0.376  0.2098 -0.1133 -0.2992
 1136SOL    HW2 4310   4.291   6.103   0.374  1.2109  0.5594  2.3007
 1136SOL    HW3 4311   4.155   6.142   0.426  0.0460  0.2121 -0.3191
 1136SOL    MW4 4312   4.227   6.162   0.382 -0.3861 -0.1853 -0.3023
 1137SOL     OW 4313   4.916   0.647   4.815 -0.1003 -0.2627 -0.1550
 1137SOL    HW2 4314   4.904   0.552   4.825  0.2348 -0.2481  0.3888
 1137SOL    HW3 4315   4.984   0.670   4.878 -0.2365  0.3551 -0.2259
 1137SOL    MW4 4316   4.923   0.638   4.825 -0.3938 -0.1601 -0.2099
 1138SOL     OW 4317   1.856   3.446   4.962 -0.0360 -0.5246 -0.1884
 1138SOL    HW2 4318   1.945   3.430   4.993  0.4437  1.8170 -0.1998
 1138SOL    HW3 4319   1.853   3.406   4.875  0.9906 -0.6474 -0.1817
 1138SOL    MW4 4320   1.867   3.438   4.955 -0.3865  0.5520 -0.8215
 1139SOL     OW 4321   1.465   3.208   2.061  0.0188  0.2225 -0.3309
 1139SOL    HW2 4322   1.411   3.158   1.999 -0.7591  0.8869 -0.1998
 1139SOL    HW3 4323   1.553   3.173   2.049 -0.2494 -0.1483 -1.3111
 1139SOL    MW4 4324   1.470   3.197   2.051  0.7200 -0.0553  0.9555
 1140SOL     OW 4325   3.063   5.030   2.922  0.0024 -0.2095 -0.0558
 1140SOL    HW2 4326   3.158   5.042   2.929 -0.0948  0.8098 -0.2525
 1140SOL    HW3 4327   3.046   5.028   2.828 -0.3938  1.9674 -0.0984
 1140SOL    MW4 4328   3.073   5.032   2.910 -0.4093  0.4211 -0.1278
 1141SOL     OW 4329   1.421   2.932   5.159 -0.0562  0.5796 -0.3540
 1141SOL    HW2 4330   1.463   3.011   5.124  0.0810  1.1194  0.9921
 1141SOL    HW3 4331   1.336   2.962   5.192 -0.0538  0.1419  0.0667
 1141SOL    MW4 4332   1.415   2.946   5.158 -0.3631  0.4378  0.0942
 1142SOL     OW 4333   4.828   1.076   5.473 -0.1786 -0.1615 -0.0571
 1142SOL    HW2 4334   4.835   1.001   5.532 -0.8462  0.6111  1.0368
 1142SOL    HW3 4335   4.903   1.068   5.415  1.1260 -0.3835  1.5816
 1142SOL    MW4 4336   4.839   1.065   5.473 -0.2180  0.6146  0.2442
 1143SOL     OW 4337   0.118   5.786   0.899 -0.2524 -0.1482 -0.7022
 1143SOL    HW2 4338   0.178   5.758   0.968 -2.5293 -0.6173  1.2512
 1143SOL    HW3 4339   0.131   5.881   0.892 -0.5317  0.0544  1.0331
 1143SOL    MW4 4340   0.127   5.795   0.907  0.0141  0.0065 -0.3444
 1144SOL     OW 4341   2.850   3.834   3.894 -0.0123 -0.0996  0.1337
 1144SOL    HW2 4342   2.865   3.752   3.941  0.6808 -1.6343 -2.5183
 1144SOL    HW3 4343   2.757   3.853   3.908  0.3282 -0.0260  2.6557
 1144SOL    MW4 4344   2.840   3.825   3.902  0.2167  0.1017  0.2750
 1145SOL     OW 4345   4.426   2.000   0.291 -0.6017 -0.3616  0.3249
 1145SOL    HW2 4346   4.354   1.971   0.236 -0.1220 -0.6387 -0.1666
 1145SOL    HW3 4347   4.424   2.096   0.285 -0.9175 -0.3702  0.3010
 1145SOL    MW4 4348   4.416   2.009   0.283  0.2345  0.0165 -0.1615
 1146SOL     OW 4349   3.109   4.433   5.540 -0.5882 -0.7398  0.0911
 1146SOL    HW2 4350   3.027   4.472   5.511  0.5854  0.3784 -1.9609
 1146SOL    HW3 4351   3.120   4.356   5.485 -1.1067 -1.9777  1.6391
 1146SOL    MW4 4352   3.100   4.428   5.529  0.2566 -0.5471  0.6318
 1147SOL     OW 4353   6.055   6.020   2.473  0.4370  0.3474 -0.5858
 1147SOL    HW2 4354   6.142   6.050   2.449  0.8527 -1.2341 -1.2120
 1147SOL    HW3 4355   6.055   5.926   2.452 -2.0617  0.6579 -2.5328
 1147SOL    MW4 4356   6.066   6.011   2.467  0.0607 -0.5743  0.0079
 1148SOL     OW 4357   4.098   4.583   2.815  0.2460 -0.1959  0.3093
 1148SOL    HW2 4358   4.179   4.628   2.837  0.2023  0.4946 -0.8368
 1148SOL    HW3 4359   4.063   4.632   2.740 -0.6823 -1.1227  0.1104
 1148SOL    MW4 4360   4.104   4.596   2.808 -0.1060 -0.4953  0.2667
 1149SOL     OW 4361   0.709   5.046   1.586  0.3591 -0.4633 -0.0733
 1149SOL    HW2 4362   0.748   4.963   1.616 -0.7765 -0.9834  0.0292
 1149SOL    HW3 4363   0.698   5.097   1.667  1.9440  0.2196 -0.2393
 1149SOL    MW4 4364   0.713   5.042   1.601 -0.0190  0.5794  0.0753
 1150SOL     OW 4365   0.091   2.154   2.960  0.1982  0.2953 -0.1141
 1150SOL    HW2 4366   0.004   2.135   2.926  0.3502 -0.0078 -0.3405
 1150SOL    HW3 4367   0.151   2.126   2.890  0.4051  2.7622 -1.0135
 1150SOL    MW4 4368   0.088   2.148   2.946  0.2162  0.0777 -0.3897
 1151SOL     OW 4369   0.777   4.566   3.672  0.1946  0.1941  0.0351
 1151SOL    HW2 4370   0.805   4.645   3.719  1.1449 -0.5839  0.8301
 1151SOL    HW3 4371   0.711   4.597   3.610  0.3158  1.5599  0.5493
 1151SOL    MW4 4372   0.772   4.580   3.670 -0.0280  0.2100  0.1551
 1152SOL     OW 4373   6.408   1.742   3.216  0.3322 -0.1199  0.6714
 1152SOL    HW2 4374   6.429   1.730   3.309  0.6596  0.5552  0.6957
 1152SOL    HW3 4375   6.475   1.803   3.184  0.8007 -1.0807 -0.2441
 1152SOL    MW4 4376   6.420   1.749   3.224 -0.0842 -0.2437 -0.1060
 1153SOL     OW 4377   3.630   6.327   6.107 -0.3664  0.3413  0.4898
 1153SOL    HW2 4378   3.602   6.257   6.167 -0.2704  0.1450  0.3067
 1153SOL    HW3 4379   3.629   6.286   6.020  1.4416  0.0356  0.5826
 1153SOL    MW4 4380   3.626   6.312   6.103  0.1964  0.6576  0.2733
 1154SOL     OW 4381   0.635   5.452   5.203  0.3524 -0.3204  0.1383
 1154SOL    HW2 4382   0.661   5.455   5.111 -0.2065 -2.1324 -0.1148
 1154SOL    HW3 4383   0.542   5.475   5.202  0.5761  0.6587  0.3966
 1154SOL    MW4 4384   0.626   5.455   5.191  0.1432  0.4656  0.6737
 1155SOL     OW 4385   1.790   4.956   2.532  0.2068 -0.3548 -0.0339
 1155SOL    HW2 4386   1.706   4.996   2.554  0.5053  0.4059 -0.2308
 1155SOL    HW3 4387   1.804   4.889   2.599 -0.9568 -1.0983 -0.5031
 1155SOL    MW4 4388   1.781   4.952   2.544  0.2199  0.4304 -0.5597
 1156SOL     OW 4389   3.356   1.868   3.686 -0.3237 -0.5457  0.3177
 1156SOL    HW2 4390   3.273   1.886   3.642 -0.9851 -1.7087  1.0554
 1156SOL    HW3 4391   3.416   1.932   3.648 -1.3548 -0.1741 -0.7880
 1156SOL    MW4 4392   3.353   1.879   3.675  0.4199  0.4893  0.3773
 1157SOL     OW 4393   3.130   1.703   4.455 -0.4944  0.3244 -0.6406
 1157SOL    HW2 4394   3.217   1.707   4.416  0.2217 -0.2717  0.8058
 1157SOL    HW3 4395   3.120   1.785   4.503 -0.4952  0.1403 -0.3254
 1157SOL    MW4 4396   3.140   1.714   4.456  0.2335  0.3116 -0.6546
 1158SOL     OW 4397   3.502   5.567   6.360 -0.1379 -0.3446 -0.1163
 1158SOL    HW2 4398   3.594   5.572   6.334  0.0883 -0.6652  0.5930
 1158SOL    HW3 4399   3.479   5.475   6.347 -0.8344  0.0362 -1.8191
 1158SOL    MW4 4400   3.511   5.555   6.355 -0.3313  0.4775  0.4099
 1159SOL     OW 4401   0.218   1.594   4.680  0.2684  0.2713  0.0609
 1159SOL    HW2 4402   0.170   1.581   4.598  0.2645 -0.1666  0.1306
 1159SOL    HW3 4403   0.234   1.689   4.683 -1.4509  0.5793  0.5083
 1159SOL    MW4 4404   0.214   1.605   4.669 -0.5553  1.1052  0.4220
 1160SOL     OW 4405   3.780   4.229   2.672  0.0659 -0.2847  0.4498
 1160SOL    HW2 4406   3.715   4.160   2.679  1.8662 -1.9719  1.4719
 1160SOL    HW3 4407   3.751   4.296   2.735 -1.1117 -0.5886  0.2454
 1160SOL    MW4 4408   3.767   4.229   2.681 -0.0883  0.0634  0.3654
 1161SOL     OW 4409   0.020   6.228   5.471  0.0694 -0.9404 -0.7465
 1161SOL    HW2 4410  -0.058   6.200   5.519 -0.4149  0.6059 -0.6024
 1161SOL    HW3 4411   0.064   6.289   5.530 -0.0317  0.2659 -1.8934
 1161SOL    MW4 4412   0.016   6.232   5.486 -0.6580  0.1567  0.4844
 1162SOL     OW 4413   3.430   0.446   1.237 -0.0607  0.0967 -0.3516
 1162SOL    HW2 4414   3.346   0.399   1.243  1.1791 -2.1963  0.3732
 1162SOL    HW3 4415   3.448   0.474   1.326 -0.0585  0.6445 -0.5185
 1162SOL    MW4 4416   3.421   0.443   1.249 -0.2431  0.0266 -1.2039
 1163SOL     OW 4417   0.274   0.106   4.960  0.3632 -0.3233 -0.0293
 1163SOL    HW2 4418   0.267   0.052   4.882 -3.1570 -2.1239  1.2940
 1163SOL    HW3 4419   0.316   0.051   5.025 -0.6486 -0.4849  0.5164
 1163SOL    MW4 4420   0.279   0.092   4.958  0.3215 -0.0014 -0.2946
 1164SOL     OW 4421   3.581   0.650   1.726  0.0313 -0.5367  0.6936
 1164SOL    HW2 4422   3.597   0.743   1.743 -1.8624 -0.4068  2.0903
 1164SOL    HW3 4423   3.588   0.608   1.812 -3.2346 -0.9678  0.8744
 1164SOL    MW4 4424   3.584   0.656   1.740  0.4443  0.4158 -0.4331
 1165SOL     OW 4425   6.025   2.730   0.417 -0.3370  0.3275  0.2896
 1165SOL    HW2 4426   5.971   2.674   0.473  0.9057 -0.2997  0.8952
 1165SOL    HW3 4427   6.015   2.692   0.329 -0.0337 -0.4528  0.5839
 1165SOL    MW4 4428   6.017   2.717   0.413 -0.0388  0.2251 -0.0345
 1166SOL     OW 4429   1.658   0.673   0.195  0.0943 -0.1897  0.5143
 1166SOL    HW2 4430   1.695   0.726   0.265 -1.9407  1.9278  0.1147
 1166SOL    HW3 4431   1.609   0.736   0.141 -1.3387 -2.2822 -0.7650
 1166SOL    MW4 4432   1.656   0.688   0.197 -0.6005  0.0352  0.1150
 1167SOL     OW 4433   2.679   2.193   0.494  0.5420  0.2253 -0.4491
 1167SOL    HW2 4434   2.584   2.189   0.503  0.3484  0.3132 -2.1900
 1167SOL    HW3 4435   2.700   2.129   0.427  1.8422 -0.4575  0.5510
 1167SOL    MW4 4436   2.670   2.184   0.487  0.6101 -0.1012  0.3698
 1168SOL     OW 4437   3.428   6.269   1.518 -0.7009  0.1413  0.0952
 1168SOL    HW2 4438   3.498   6.278   1.453  0.3062 -1.5337  0.8804
 1168SOL    HW3 4439   3.361   6.331   1.489 -0.3797 -0.6336 -2.6453
 1168SOL    MW4 4440   3.428   6.278   1.506 -0.4360 -0.1767  0.3201
 1169SOL     OW 4441   2.753   5.162   5.832 -0.1927  0.4619  0.1001
 1169SOL    HW2 4442   2.689   5.232   5.817 -1.9035 -0.8791  0.7437
 1169SOL    HW3 4443   2.765   5.160   5.927 -1.9936 -1.5705  0.3570
 1169SOL    MW4 4444   2.746   5.171   5.842 -0.0690  0.4498 -0.4218
 1170SOL     OW 4445   4.748   0.317   1.097  0.6191  0.5770  0.7385
 1170SOL    HW2 4446   4.814   0.319   1.166  0.6577 -1.6451  0.8412
 1170SOL    HW3 4447   4.798   0.308   1.016  0.4859 -0.7736  0.7873
 1170SOL    MW4 4448   4.763   0.316   1.095  0.1394 -0.2576  0.3377
 1171SOL     OW 4449   4.529   4.150   3.436 -0.2522 -0.5528  0.1623
 1171SOL    HW2 4450   4.546   4.141   3.342 -1.0488  0.3842 -0.0843
 1171SOL    HW3 4451   4.605   4.199   3.469  0.5846 -1.8419  0.2364
 1171SOL    MW4 4452   4.542   4.155   3.428 -1.0865  0.3906 -0.0440
 1172SOL     OW 4453   3.267   5.424   0.265 -0.2532  0.5070 -1.1589
 1172SOL    HW2 4454   3.240   5.505   0.222 -1.5314  0.7952  0.1189
 1172SOL    HW3 4455   3.297   5.368   0.193 -0.3823  1.6998 -2.1818
 1172SOL    MW4 4456   3.268   5.427   0.250  0.3859 -0.3081  0.3139
 1173SOL     OW 4457   1.284   3.942   2.240  0.2412 -0.6699  0.3863
 1173SOL    HW2 4458   1.214   4.003   2.265 -1.5277 -2.5209  0.2931
 1173SOL    HW3 4459   1.266   3.864   2.293  2.1217 -1.3134  0.1429
 1173SOL    MW4 4460   1.272   3.940   2.251  0.3914 -0.2334 -0.0582
 1174SOL     OW 4461   5.188   4.615   1.776 -0.3762 -0.9871  0.0284
 1174SOL    HW2 4462   5.103   4.659   1.774 -0.2368 -0.7428 -0.7545
 1174SOL    HW3 4463   5.166   4.522   1.783 -0.7664 -1.0489 -1.5815
 1174SOL    MW4 4464   5.174   4.608   1.776  0.1577  0.3153  0.1991
 1175SOL     OW 4465   3.252   3.508   4.565 -0.3303 -0.0833 -0.6646
 1175SOL    HW2 4466   3.162   3.531   4.587 -0.6638 -0.5291 -1.4969
 1175SOL    HW3 4467   3.263   3.539   4.475  0.0774 -0.7453 -0.8497
 1175SOL    MW4 4468   3.241   3.515   4.556 -0.2134  0.0830 -0.5512
 1176SOL     OW 4469   3.787   6.082   1.513 -0.4487  0.3027  0.2082
 1176SOL    HW2 4470   3.777   6.127   1.429  1.6448 -0.5058 -0.5629
 1176SOL    HW3 4471   3.760   5.992   1.495  0.4262  0.0218  0.2721
 1176SOL    MW4 4472   3.782   6.076   1.499  0.5036 -0.0378  0.1698
 1177SOL     OW 4473   2.296   5.962   0.948 -0.7176  0.5552  0.0236
 1177SOL    HW2 4474   2.326   5.872   0.964 -0.6741  0.7674  1.2568
 1177SOL    HW3 4475   2.343   5.989   0.868 -0.3639 -0.3484 -0.0879
 1177SOL    MW4 4476   2.306   5.954   0.939  0.1376  0.2257 -0.2521
 1178SOL     OW 4477   5.725   0.240   5.321 -0.0919  0.5924 -0.3326
 1178SOL    HW2 4478   5.756   0.315   5.270 -0.6092  0.3189 -1.0733
 1178SOL    HW3 4479   5.784   0.236   5.396  1.5961  0.1354 -1.6315
 1178SOL    MW4 4480   5.737   0.250   5.324  0.2152  0.2676  0.0205
 1179SOL     OW 4481   6.043   1.132   5.290 -0.2306 -0.0959 -0.5779
 1179SOL    HW2 4482   6.001   1.102   5.371  0.1712 -2.0227 -1.0426
 1179SOL    HW3 4483   6.080   1.217   5.313 -3.7317  1.4298  0.0418
 1179SOL    MW4 4484   6.042   1.139   5.304  0.0211  0.1757  0.1702
 1180SOL     OW 4485   6.002   2.047   4.280 -0.1385  0.0893 -0.2585
 1180SOL    HW2 4486   5.998   1.953   4.300 -1.3689 -0.2452 -1.8479
 1180SOL    HW3 4487   6.095   2.068   4.282  0.1075 -0.9992  0.8293
 1180SOL    MW4 4488   6.014   2.037   4.283 -0.5545  0.7596  0.5335
 1181SOL     OW 4489   0.526   0.358   1.614 -0.0211 -0.0110 -0.5107
 1181SOL    HW2 4490   0.570   0.346   1.698 -0.5991 -0.1949 -0.2217
 1181SOL    HW3 4491   0.583   0.316   1.550  0.5171  0.2964 -0.2331
 1181SOL    MW4 4492   0.539   0.351   1.617 -0.1679  0.5605  0.0620
 1182SOL     OW 4493   2.467   0.802   1.241  0.2703  0.1005 -0.5127
 1182SOL    HW2 4494   2.421   0.783   1.323  1.0681 -1.8326 -0.4724
 1182SOL    HW3 4495   2.457   0.897   1.230 -1.3929  0.1372  0.8691
 1182SOL    MW4 4496   2.460   0.812   1.250 -0.4626  0.6696 -0.7674
 1183SOL     OW 4497   5.776   5.728   2.318  0.4003  0.2432 -0.5411
 1183SOL    HW2 4498   5.857   5.720   2.368 -0.0457 -1.0250  0.0211
 1183SOL    HW3 4499   5.707   5.729   2.385 -0.0286  2.5740 -0.9312
 1183SOL    MW4 4500   5.778   5.727   2.334 -0.6280  0.2226  0.3352
 1184SOL     OW 4501   0.844   3.386   0.296 -0.2046 -0.0662 -0.1512
 1184SOL    HW2 4502   0.756   3.403   0.329  1.0360  2.9856  2.0092
 1184SOL    HW3 4503   0.853   3.445   0.221 -0.9107 -2.5875 -2.3725
 1184SOL    MW4 4504   0.834   3.396   0.290  0.1155 -0.4464 -0.1249
 1185SOL     OW 4505   4.463   1.171   0.626 -0.3225  0.3045  0.0053
 1185SOL    HW2 4506   4.513   1.149   0.547 -0.4148  0.8428 -0.2138
 1185SOL    HW3 4507   4.474   1.266   0.635 -0.6157  0.2996  0.4312
 1185SOL    MW4 4508   4.471   1.181   0.617 -0.1003  0.2047  0.1353
 1186SOL     OW 4509   0.153   4.914   0.524 -0.2809 -0.3961  0.2909
 1186SOL    HW2 4510   0.159   4.930   0.618 -1.4644  0.4293  0.2439
 1186SOL    HW3 4511   0.062   4.890   0.509 -0.3125  0.2967 -0.7506
 1186SOL    MW4 4512   0.142   4.913   0.535  0.1205 -0.0360 -0.0138
 1187SOL     OW 4513   3.116   0.015   2.498  0.1033  0.1493  0.0170
 1187SOL    HW2 4514   3.143  -0.074   2.475  2.7399  0.6632  0.7766
 1187SOL    HW3 4515   3.111   0.060   2.414  2.0754  0.0708 -0.2000
 1187SOL    MW4 4516   3.119   0.009   2.484  0.0219 -0.0826 -0.2803
 1188SOL     OW 4517   0.307   3.329   1.074 -0.3089 -0.0299 -0.3825
 1188SOL    HW2 4518   0.295   3.245   1.030 -0.2543  0.6656 -1.7910
 1188SOL    HW3 4519   0.218   3.361   1.090 -0.3292 -0.2966  0.0481
 1188SOL    MW4 4520   0.294   3.322   1.070 -0.3493  0.6431 -0.3856
 1189SOL     OW 4521   0.140   2.610   0.820  0.0979  0.4857  0.0390
 1189SOL    HW2 4522   0.201   2.575   0.755 -0.2554 -2.3190  1.0571
 1189SOL    HW3 4523   0.164   2.702   0.830  2.4004  0.1171 -1.5141
 1189SOL    MW4 4524   0.151   2.617   0.813 -0.0854 -0.0770 -0.0047
 1190SOL     OW 4525   4.189   5.095   4.807 -0.0972  0.3238  0.0332
 1190SOL    HW2 4526   4.198   5.038   4.730  0.1588  1.0227 -0.4653
 1190SOL    HW3 4527   4.102   5.074   4.842 -0.1617 -0.1024 -0.3720
 1190SOL    MW4 4528   4.178   5.085   4.801 -0.0142  0.0529 -0.2217
 1191SOL     OW 4529   0.748   5.580   6.368 -0.3898  0.0158 -0.2028
 1191SOL    HW2 4530   0.671   5.608   6.318  0.5613 -0.5437 -2.1009
 1191SOL    HW3 4531   0.822   5.625   6.326  0.5993 -1.4388 -0.1150
 1191SOL    MW4 4532   0.748   5.590   6.356 -0.0004  0.2488 -0.3033
 1192SOL     OW 4533   4.447   0.676   2.778  0.3447 -0.1723 -0.3073
 1192SOL    HW2 4534   4.469   0.622   2.854 -0.3844 -0.2720 -0.1603
 1192SOL    HW3 4535   4.439   0.614   2.706  0.8476 -0.0984 -0.4339
 1192SOL    MW4 4536   4.449   0.661   2.778  0.4801 -0.3047  0.3132
 1193SOL     OW 4537   1.727   5.181   0.791  0.5572 -0.1586 -0.7743
 1193SOL    HW2 4538   1.708   5.209   0.881 -1.6393 -1.0204 -0.9114
 1193SOL    HW3 4539   1.764   5.259   0.750  1.9309  0.1618  0.9280
 1193SOL    MW4 4540   1.729   5.195   0.798 -0.2304 -0.0492  0.0267
 1194SOL     OW 4541   2.692   0.304   2.201  0.1700 -0.2325  0.2280
 1194SOL    HW2 4542   2.756   0.243   2.163  0.6545 -0.0998  0.8108
 1194SOL    HW3 4543   2.631   0.247   2.248  1.2600 -0.2467  1.7243
 1194SOL    MW4 4544   2.693   0.288   2.202  0.2897  0.3652 -0.0072
 1195SOL     OW 4545   2.681   6.341   2.246 -0.3121 -0.1295  0.1429
 1195SOL    HW2 4546   2.603   6.285   2.244 -0.4407  0.0726 -0.6632
 1195SOL    HW3 4547   2.724   6.318   2.329 -0.6523 -1.0226  0.0854
 1195SOL    MW4 4548   2.677   6.330   2.257  0.3069  0.3716 -0.6787
 1196SOL     OW 4549   6.252   5.587   3.806  0.1638  0.1254  0.5288
 1196SOL    HW2 4550   6.346   5.568   3.801  0.2475  0.4188  0.9554
 1196SOL    HW3 4551   6.238   5.612   3.897 -0.0651  1.5150  0.1218
 1196SOL    MW4 4552   6.262   5.588   3.818 -0.0804 -0.3769 -0.3348
 1197SOL     OW 4553   2.974   2.467   1.850 -0.0595 -0.5764  0.2300
 1197SOL    HW2 4554   2.954   2.550   1.807  0.7204 -0.4922  0.0166
 1197SOL    HW3 4555   2.911   2.461   1.921  0.2904  0.5184  0.6483
 1197SOL    MW4 4556   2.963   2.477   1.854  0.1528  0.1596 -0.1628
 1198SOL     OW 4557   3.956   3.065   4.453 -0.0367  0.2250  0.3600
 1198SOL    HW2 4558   3.987   3.090   4.366 -1.9267  3.0291  0.3522
 1198SOL    HW3 4559   4.005   3.122   4.513 -0.4457  0.0040  0.9080
 1198SOL    MW4 4560   3.967   3.076   4.449 -0.1860 -0.2294  0.3270
 1199SOL     OW 4561   3.959   5.128   4.310  0.2357 -0.0831  0.2942
 1199SOL    HW2 4562   4.027   5.179   4.354 -1.4733  2.8644 -0.2767
 1199SOL    HW3 4563   3.892   5.113   4.378  0.6784 -1.6501  0.4420
 1199SOL    MW4 4564   3.959   5.132   4.325  0.7392 -0.2049 -0.3474
 1200SOL     OW 4565   4.695   0.311   5.319  0.0163  0.1184  1.0142
 1200SOL    HW2 4566   4.606   0.341   5.335  0.0585  0.4181  0.6968
 1200SOL    HW3 4567   4.726   0.366   5.247 -0.8086 -2.3696 -1.4217
 1200SOL    MW4 4568   4.687   0.322   5.311 -0.4081 -0.4648  0.5118
 1201SOL     OW 4569   1.878   4.012   0.977 -0.0010  0.3756 -0.5379
 1201SOL    HW2 4570   1.856   3.967   0.895 -0.3232  1.4091 -1.0354
 1201SOL    HW3 4571   1.940   3.953   1.020 -2.7009 -2.0354  0.3382
 1201SOL    MW4 4572   1.883   3.998   0.972 -0.2298  0.4414  0.1530
 1202SOL     OW 4573   5.274   0.077   1.802 -0.1152 -0.6011  0.3930
 1202SOL    HW2 4574   5.319   0.125   1.871 -0.2827  2.3671 -1.3941
 1202SOL    HW3 4575   5.314   0.109   1.721 -2.1922 -1.4388 -1.0322
 1202SOL    MW4 4576   5.285   0.087   1.800 -0.3629  0.2473 -0.6517
 1203SOL     OW 4577   1.931   2.247   2.224  0.0756 -0.3592  0.6782
 1203SOL    HW2 4578   1.923   2.164   2.272  0.8830 -1.3885 -0.8910
 1203SOL    HW3 4579   1.861   2.244   2.159  1.3842 -0.8127 -0.7639
 1203SOL    MW4 4580   1.921   2.235   2.222  1.3086 -0.4211 -0.0936
 1204SOL     OW 4581   5.721   4.272   0.266  0.6466 -0.1399  0.4996
 1204SOL    HW2 4582   5.682   4.193   0.230 -0.5221  1.0585 -0.9677
 1204SOL    HW3 4583   5.717   4.259   0.361 -3.1646 -0.2674  0.4886
 1204SOL    MW4 4584   5.715   4.260   0.274 -0.0780  0.4497  0.0266
 1205SOL     OW 4585   3.783   5.459   1.277  0.4812  0.0459 -0.0303
 1205SOL    HW2 4586   3.770   5.377   1.230 -2.4221  0.3114  0.0917
 1205SOL    HW3 4587   3.694   5.485   1.304  1.7068  0.9456  3.8184
 1205SOL    MW4 4588   3.769   5.452   1.275  0.5253 -0.8648  0.1213
 1206SOL     OW 4589   4.002   3.060   4.153 -0.6178 -0.0501  0.1567
 1206SOL    HW2 4590   3.925   3.107   4.185 -0.4102 -0.6066  1.5525
 1206SOL    HW3 4591   4.050   3.125   4.101 -1.4733  0.6106  0.1643
 1206SOL    MW4 4592   3.998   3.075   4.150 -0.1044 -0.4065 -0.2443
 1207SOL     OW 4593   3.123   5.547   5.255 -0.0158  0.2621  0.1080
 1207SOL    HW2 4594   3.087   5.605   5.322 -1.0064  0.0336 -0.2131
 1207SOL    HW3 4595   3.112   5.594   5.173 -2.9494 -1.2283 -0.4809
 1207SOL    MW4 4596   3.117   5.561   5.253  0.5541 -0.1865  0.4035
 1208SOL     OW 4597   3.054   1.614   6.125  0.2567  0.0166  0.0762
 1208SOL    HW2 4598   3.135   1.648   6.163  0.1222  1.9286 -1.1954
 1208SOL    HW3 4599   3.064   1.628   6.031 -1.7275  0.7442 -0.0715
 1208SOL    MW4 4600   3.066   1.620   6.117 -0.5671  0.1328 -0.2140
 1209SOL     OW 4601   3.755   2.230   6.368  0.3750  0.5257 -0.0784
 1209SOL    HW2 4602   3.715   2.255   6.451 -0.4490  0.2326 -0.3761
 1209SOL    HW3 4603   3.846   2.257   6.376  0.4194  0.0724  1.0989
 1209SOL    MW4 4604   3.761   2.237   6.380  0.4695 -0.2576  0.3168
 1210SOL     OW 4605   1.716   5.483   2.918 -0.0881 -0.1148 -0.2007
 1210SOL    HW2 4606   1.655   5.502   2.847 -0.8751 -1.4853  0.0615
 1210SOL    HW3 4607   1.728   5.566   2.964  0.9448  0.9655 -2.2746
 1210SOL    MW4 4608   1.710   5.496   2.915  0.0014 -0.0306  0.1173
 1211SOL     OW 4609   6.318   4.447   5.832 -0.0454 -0.4533  0.1660
 1211SOL    HW2 4610   6.266   4.373   5.801  0.6673 -0.2423 -1.6202
 1211SOL    HW3 4611   6.340   4.496   5.753  2.9451 -0.5653  0.8252
 1211SOL    MW4 4612   6.314   4.444   5.818 -1.4101 -0.2890 -0.2890
 1212SOL     OW 4613   2.679   1.927   5.248 -0.3616  0.6988 -0.0327
 1212SOL    HW2 4614   2.703   1.998   5.188 -0.8203  0.5502 -0.3966
 1212SOL    HW3 4615   2.598   1.956   5.289  0.6073  1.3842  1.5043
 1212SOL    MW4 4616   2.672   1.940   5.246  0.0109  0.0878  0.5877
 1213SOL     OW 4617   3.799   4.294   1.484  0.1515  0.2104 -0.0033
 1213SOL    HW2 4618   3.727   4.355   1.500  1.2802  1.0929  1.9802
 1213SOL    HW3 4619   3.764   4.233   1.419 -2.2649  0.7982  0.6545
 1213SOL    MW4 4620   3.785   4.294   1.478  0.4713 -0.1233  0.5468
 1214SOL     OW 4621   6.011   3.153   5.479  0.0236 -0.3290  0.0213
 1214SOL    HW2 4622   6.079   3.104   5.433 -0.3747 -0.5905 -0.2975
 1214SOL    HW3 4623   6.036   3.148   5.571  0.3365 -0.5842 -0.0759
 1214SOL    MW4 4624   6.023   3.146   5.485  0.2575  0.1459 -0.2270
 1215SOL     OW 4625   0.923   0.534   5.556 -0.3029  0.2674 -0.1292
 1215SOL    HW2 4626   0.877   0.604   5.602  1.0672 -0.0594  1.8723
 1215SOL    HW3 4627   0.863   0.459   5.560 -0.5292  0.4745  0.4439
 1215SOL    MW4 4628   0.909   0.533   5.562  0.2418 -0.1406 -0.3702
 1216SOL     OW 4629   3.911   1.374   5.256 -0.0812 -0.2908 -0.2196
 1216SOL    HW2 4630   3.815   1.365   5.250 -0.1072  0.2746 -0.7790
 1216SOL    HW3 4631   3.944   1.327   5.179 -0.0364  1.3308 -1.2263
 1216SOL    MW4 4632   3.902   1.366   5.245  0.0921  1.0745  0.1619
 1217SOL     OW 4633   0.818   4.938   5.471  0.0442 -0.6049  0.2537
 1217SOL    HW2 4634   0.801   4.853   5.510 -1.1952 -0.5000 -0.0252
 1217SOL    HW3 4635   0.790   4.929   5.380  1.3670 -0.3533 -0.2028
 1217SOL    MW4 4636   0.812   4.926   5.464  0.0280  0.2484  0.5268
 1218SOL     OW 4637   2.960   0.874   0.385 -0.1470  0.1268  0.0925
 1218SOL    HW2 4638   3.029   0.879   0.319  0.1123  1.8309  0.4595
 1218SOL    HW3 4639   2.985   0.800   0.440  1.2713  0.5788  0.0852
 1218SOL    MW4 4640   2.972   0.865   0.383 -0.2044  0.1585 -0.0958
 1219SOL     OW 4641   2.598   0.055   1.875  0.1014 -0.2258  0.3688
 1219SOL    HW2 4642   2.633   0.086   1.959  0.1756 -1.1306  0.6823
 1219SOL    HW3 4643   2.624   0.122   1.812  2.0912 -0.6715  0.6530
 1219SOL    MW4 4644   2.606   0.068   1.878 -0.7222  0.4314  0.1921
 1220SOL     OW 4645   4.893   4.437   5.978 -0.5550  0.3670 -0.1297
 1220SOL    HW2 4646   4.801   4.453   6.002 -0.4746  0.2421  0.2785
 1220SOL    HW3 4647   4.943   4.486   6.043 -0.3019 -1.3606  1.0785
 1220SOL    MW4 4648   4.887   4.445   5.990 -0.2757  0.1681 -0.1700
 1221SOL     OW 4649   0.776   2.623   4.173  0.0868 -0.4780 -0.0014
 1221SOL    HW2 4650   0.791   2.672   4.092  0.6711  0.2923  0.5599
 1221SOL    HW3 4651   0.682   2.629   4.188  0.1183  0.2642 -0.0735
 1221SOL    MW4 4652   0.765   2.630   4.164 -0.6275  0.0435  0.3964
 1222SOL     OW 4653   2.870   4.712   2.988  0.1171  0.4355  0.6044
 1222SOL    HW2 4654   2.787   4.684   3.025 -0.2322  1.2415  0.4470
 1222SOL    HW3 4655   2.850   4.730   2.896  0.2770  1.3931  0.7459
 1222SOL    MW4 4656   2.856   4.710   2.980  0.5641 -0.2579 -0.4543
 1223SOL     OW 4657   3.522   2.387   5.667  0.8946  0.2877 -0.1054
 1223SOL    HW2 4658   3.570   2.417   5.590  0.3675  0.2140 -0.4667
 1223SOL    HW3 4659   3.430   2.395   5.643  0.6891 -2.5795 -0.6335
 1223SOL    MW4 4660   3.516   2.392   5.654  0.5674 -0.0086  0.2991
 1224SOL     OW 4661   2.741   3.677   1.231  0.0751 -0.4854  0.1661
 1224SOL    HW2 4662   2.777   3.703   1.146  0.4734  0.2318  0.5475
 1224SOL    HW3 4663   2.662   3.628   1.209 -0.1348  0.1771 -0.6016
 1224SOL    MW4 4664   2.736   3.674   1.217  0.2399  0.7706  0.3071
 1225SOL     OW 4665   6.023   4.645   4.786 -0.1194  0.2167  0.3420
 1225SOL    HW2 4666   5.981   4.624   4.870 -1.3103 -0.4796 -0.4029
 1225SOL    HW3 4667   6.081   4.571   4.768  1.1782  0.9919  1.1752
 1225SOL    MW4 4668   6.025   4.633   4.795  0.9947 -0.1444 -0.3365
 1226SOL     OW 4669   6.039   1.779   3.015  0.2677  0.0493 -0.2361
 1226SOL    HW2 4670   5.947   1.774   3.043  0.3447 -2.7442 -0.1977
 1226SOL    HW3 4671   6.079   1.699   3.050  2.7260  1.1548 -0.3212
 1226SOL    MW4 4672   6.032   1.767   3.024  0.4546  0.0081  0.1586
 1227SOL     OW 4673   0.121   5.625   4.163 -0.2009 -0.1123  0.1439
 1227SOL    HW2 4674   0.163   5.649   4.246 -1.9315  0.7694  0.8294
 1227SOL    HW3 4675   0.167   5.677   4.097 -1.3752  2.3613  1.1310
 1227SOL    MW4 4676   0.133   5.635   4.165 -0.5364 -0.0774  0.1322
 1228SOL     OW 4677   1.983   5.428   2.874  0.0985  0.1216  0.1704
 1228SOL    HW2 4678   1.975   5.385   2.788 -0.6160  3.1165 -1.3932
 1228SOL    HW3 4679   1.893   5.446   2.900  0.3766  0.5129  0.8701
 1228SOL    MW4 4680   1.970   5.425   2.866 -0.6695  0.2202 -0.1611
 1229SOL     OW 4681   5.613   3.052   0.030  0.0472  0.4779 -1.0022
 1229SOL    HW2 4682   5.531   3.074   0.075  0.7232 -0.2218  0.6252
 1229SOL    HW3 4683   5.605   3.096  -0.055 -2.0046  0.4472 -0.8917
 1229SOL    MW4 4684   5.601   3.061   0.025  0.6005  0.0901 -0.0560
 1230SOL     OW 4685   3.740   0.789   5.903  0.4526  0.1574  0.4253
 1230SOL    HW2 4686   3.764   0.743   5.822  0.9558  0.0866  0.6112
 1230SOL    HW3 4687   3.644   0.792   5.901  0.4796  1.0010 -0.6494
 1230SOL    MW4 4688   3.730   0.783   5.892 -0.3681  0.4586  0.4044
 1231SOL     OW 4689   1.214   2.226   1.084 -0.4545  0.0084 -0.4306
 1231SOL    HW2 4690   1.180   2.270   1.162 -0.3123 -1.0336  0.2361
 1231SOL    HW3 4691   1.299   2.268   1.068  0.0883 -0.6018  0.7291
 1231SOL    MW4 4692   1.221   2.238   1.092 -0.1873  0.6757  0.3951
 1232SOL     OW 4693   0.116   1.774   5.817  0.3184 -0.3183  0.3077
 1232SOL    HW2 4694   0.034   1.789   5.865 -0.5633 -1.2713 -0.8310
 1232SOL    HW3 4695   0.178   1.835   5.857 -0.8655  0.2420  1.3910
 1232SOL    MW4 4696   0.113   1.784   5.828 -0.0689 -1.1179  0.5201
 1233SOL     OW 4697   2.479   2.695   2.633  0.2436  0.5479  0.4787
 1233SOL    HW2 4698   2.499   2.789   2.635 -0.4560  0.7791 -1.5501
 1233SOL    HW3 4699   2.564   2.653   2.626  0.5173  1.0595  0.6511
 1233SOL    MW4 4700   2.493   2.702   2.633  0.1939  0.0502  0.3245
 1234SOL     OW 4701   5.265   2.426   2.250 -0.4530  0.1844  0.1739
 1234SOL    HW2 4702   5.206   2.373   2.195  0.9208 -1.5571  0.2976
 1234SOL    HW3 4703   5.323   2.362   2.291 -1.1750  1.4438  3.4287
 1234SOL    MW4 4704   5.265   2.411   2.248  0.3674 -0.3096  0.1697
 1235SOL     OW 4705   4.782   1.182   3.228  0.2263 -0.5068  0.1284
 1235SOL    HW2 4706   4.769   1.261   3.176 -1.9937 -1.5736 -1.1063
 1235SOL    HW3 4707   4.697   1.166   3.270  0.9415 -1.6442  1.2212
 1235SOL    MW4 4708   4.769   1.190   3.227  0.1736  0.2256  0.7617
 1236SOL     OW 4709   2.891   1.037   4.592 -0.1500  0.5462  0.6443
 1236SOL    HW2 4710   2.978   1.034   4.631  0.4937  0.7081 -0.7035
 1236SOL    HW3 4711   2.883   1.127   4.558  0.7988 -0.4360 -2.6282
 1236SOL    MW4 4712   2.901   1.049   4.592  0.1998  0.0707  0.7025
 1237SOL     OW 4713   5.309   1.331   1.544 -0.9169  0.6022 -0.1494
 1237SOL    HW2 4714   5.261   1.335   1.627 -1.4888 -0.8653 -0.3851
 1237SOL    HW3 4715   5.390   1.285   1.564 -1.5923 -0.8510 -0.6083
 1237SOL    MW4 4716   5.313   1.326   1.558 -0.0250 -0.3508 -0.2156
 1238SOL     OW 4717   6.261   1.134   6.299 -0.0661 -0.0984 -0.3103
 1238SOL    HW2 4718   6.248   1.146   6.205  1.1803 -3.2955 -1.0247
 1238SOL    HW3 4719   6.177   1.103   6.332 -0.4243  0.7631 -0.3792
 1238SOL    MW4 4720   6.248   1.132   6.291  0.0848 -0.1440 -0.6072
 1239SOL     OW 4721   4.572   4.816   5.878  0.8595 -0.2232 -0.0890
 1239SOL    HW2 4722   4.630   4.884   5.843  0.5309  0.4244  0.5879
 1239SOL    HW3 4723   4.614   4.733   5.853  1.3974  0.2258 -0.7073
 1239SOL    MW4 4724   4.585   4.814   5.870 -0.3205 -0.1711  0.0839
 1240SOL     OW 4725   1.587   1.342   4.280  0.0198 -0.1446  0.4435
 1240SOL    HW2 4726   1.589   1.432   4.250  1.5236  0.3119  1.8125
 1240SOL    HW3 4727   1.647   1.339   4.355 -1.5112 -1.8080  1.7151
 1240SOL    MW4 4728   1.595   1.353   4.286  0.3291 -0.4632  0.5613
 1241SOL     OW 4729   4.504   0.459   1.108 -0.0468 -0.6493  0.1290
 1241SOL    HW2 4730   4.586   0.410   1.111  0.1125 -0.4623 -1.0584
 1241SOL    HW3 4731   4.455   0.421   1.035 -0.5615 -0.0367  0.1460
 1241SOL    MW4 4732   4.508   0.447   1.099  0.0487  0.4035  0.6799
 1242SOL     OW 4733   2.556   1.263   2.346 -0.5642  0.3123 -0.0503
 1242SOL    HW2 4734   2.649   1.271   2.370 -0.3474  0.8126 -0.9986
 1242SOL    HW3 4735   2.549   1.177   2.306 -0.7578 -0.1907  1.0320
 1242SOL    MW4 4736   2.568   1.253   2.344  0.1732 -0.2450  0.6209
 1243SOL     OW 4737   4.050   1.745   5.689 -0.2623  0.1681 -0.0506
 1243SOL    HW2 4738   4.086   1.819   5.640 -1.6351  0.7410 -0.2462
 1243SOL    HW3 4739   4.126   1.692   5.712  0.7873  1.7644  0.3094
 1243SOL    MW4 4740   4.065   1.748   5.686  0.2857 -0.1618 -0.3062
 1244SOL     OW 4741   2.557   0.657   0.916 -0.0781  0.4311  0.7717
 1244SOL    HW2 4742   2.592   0.586   0.969  0.7725  0.9438  0.9100
 1244SOL    HW3 4743   2.633   0.709   0.892 -0.6128  0.9350  0.1296
 1244SOL    MW4 4744   2.571   0.654   0.920 -0.4503  0.3856 -0.1920
 1245SOL     OW 4745   3.312   4.329   2.995  0.6041 -0.2600  0.2610
 1245SOL    HW2 4746   3.287   4.405   3.047  0.0219  0.1412 -0.5704
 1245SOL    HW3 4747   3.249   4.261   3.021 -0.7336  0.4194 -1.0269
 1245SOL    MW4 4748   3.300   4.330   3.005 -0.0749 -0.3227 -0.2871
 1246SOL     OW 4749   6.013   1.105   0.383  1.0217  0.2435 -0.6839
 1246SOL    HW2 4750   5.929   1.059   0.389  0.9900  0.1846  5.9265
 1246SOL    HW3 4751   6.077   1.035   0.368  0.2607 -0.3581 -1.2529
 1246SOL    MW4 4752   6.010   1.089   0.382  0.6282 -0.3360  0.3299
 1247SOL     OW 4753   4.194   1.816   3.977 -0.1794  0.7924 -0.0909
 1247SOL    HW2 4754   4.106   1.818   3.939  0.0559 -0.6484 -0.7816
 1247SOL    HW3 4755   4.250   1.790   3.904  0.5337 -0.2619  0.8156
 1247SOL    MW4 4756   4.190   1.813   3.962  0.4793  0.0608  0.2794
 1248SOL     OW 4757   3.004   5.288   5.219  0.9806  0.3684 -0.1889
 1248SOL    HW2 4758   3.026   5.274   5.127  1.5716  1.3461 -0.2058
 1248SOL    HW3 4759   3.040   5.374   5.240  1.6066 -0.2095  1.2018
 1248SOL    MW4 4760   3.011   5.297   5.210  0.0468 -0.1351 -0.2383
 1249SOL     OW 4761   1.811   1.496   0.244 -0.2080  0.1278 -0.0513
 1249SOL    HW2 4762   1.889   1.472   0.296  0.7436  0.7574 -1.1459
 1249SOL    HW3 4763   1.778   1.576   0.285 -0.8121 -0.6068  0.9435
 1249SOL    MW4 4764   1.817   1.503   0.256 -0.1177  0.5020  0.1061
 1250SOL     OW 4765   3.605   2.126   4.828  0.0942 -0.5356 -0.6733
 1250SOL    HW2 4766   3.557   2.145   4.747  1.4419  2.8852 -0.8368
 1250SOL    HW3 4767   3.537   2.128   4.896 -0.8304 -1.9090 -1.5195
 1250SOL    MW4 4768   3.590   2.129   4.826 -0.0705  0.5848  0.3298
 1251SOL     OW 4769   2.726   2.890   5.310 -0.2027  0.0421  0.1542
 1251SOL    HW2 4770   2.736   2.942   5.231 -0.5073 -0.4421 -0.2081
 1251SOL    HW3 4771   2.816   2.868   5.336 -0.1069  0.1383 -0.1005
 1251SOL    MW4 4772   2.739   2.894   5.303  0.4164  0.1340  0.8663
 1252SOL     OW 4773   2.163   4.117   2.677  0.7419 -0.4787  0.5603
 1252SOL    HW2 4774   2.257   4.113   2.658  1.1494 -0.4686  2.3430
 1252SOL    HW3 4775   2.159   4.143   2.769 -1.0639  1.3767  0.0244
 1252SOL    MW4 4776   2.175   4.120   2.687  0.1309  0.4703 -0.1863
 1253SOL     OW 4777   5.198   1.708   4.129  1.1454 -0.6242 -0.1335
 1253SOL    HW2 4778   5.136   1.669   4.068  3.0428 -2.0733 -1.2400
 1253SOL    HW3 4779   5.249   1.769   4.076  0.1638  1.2709  0.9576
 1253SOL    MW4 4780   5.197   1.711   4.114  0.2800 -0.0581  0.0675
 1254SOL     OW 4781   5.165   2.254   1.192  0.3483  0.0292 -0.1998
 1254SOL    HW2 4782   5.248   2.212   1.215 -0.4108 -0.8019  1.1339
 1254SOL    HW3 4783   5.178   2.346   1.216  1.3660  0.2159 -1.3695
 1254SOL    MW4 4784   5.178   2.261   1.198 -0.3513 -0.3797 -0.0602
 1255SOL     OW 4785   1.620   4.140   2.600  0.0460 -0.4246  0.3053
 1255SOL    HW2 4786   1.560   4.119   2.672  1.2485 -1.6618  0.9934
 1255SOL    HW3 4787   1.697   4.176   2.644  0.7873 -1.1767 -0.3578
 1255SOL    MW4 4788   1.622   4.142   2.616 -0.6507 -0.0110  0.9708
 1256SOL     OW 4789   0.439   0.491   0.322  0.3912  0.4945  0.0085
 1256SOL    HW2 4790   0.489   0.490   0.240 -1.2718 -0.3926 -1.0411
 1256SOL    HW3 4791   0.479   0.423   0.375  0.5212  0.0145 -0.6893
 1256SOL    MW4 4792   0.451   0.482   0.318  0.2331  0.1259 -0.1261
 1257SOL     OW 4793   0.450   4.232   2.348 -0.9169  0.5297  0.3570
 1257SOL    HW2 4794   0.527   4.178   2.333 -0.7207  0.8644  0.1531
 1257SOL    HW3 4795   0.483   4.321   2.355 -1.3638  0.7793 -0.5476
 1257SOL    MW4 4796   0.464   4.236   2.347  0.1056 -0.4446  0.5818
 1258SOL     OW 4797   4.297   2.984   3.690  0.2175  0.6616 -0.3932
 1258SOL    HW2 4798   4.378   3.018   3.729  0.1461  1.4347 -0.9059
 1258SOL    HW3 4799   4.230   3.046   3.715 -0.9907 -1.6877  2.9513
 1258SOL    MW4 4800   4.299   2.996   3.699 -0.0297  0.3901 -0.1062
 1259SOL     OW 4801   2.465   1.437   6.046  0.0751 -0.7076 -0.4556
 1259SOL    HW2 4802   2.480   1.518   5.997 -1.3541  0.2146  0.5580
 1259SOL    HW3 4803   2.382   1.404   6.012 -2.3524  1.3008  2.8771
 1259SOL    MW4 4804   2.456   1.443   6.035  0.2390  0.2708 -0.3747
 1260SOL     OW 4805   1.817   1.640   0.759  0.2515  0.0588 -0.4194
 1260SOL    HW2 4806   1.861   1.699   0.820 -2.1266  0.4653  1.0274
 1260SOL    HW3 4807   1.827   1.553   0.798 -1.7494  0.3832  0.9824
 1260SOL    MW4 4808   1.824   1.636   0.772  0.2986 -0.1815 -0.0676
 1261SOL     OW 4809   3.616   2.592   1.879  0.0435 -0.2546 -0.6793
 1261SOL    HW2 4810   3.709   2.616   1.876  0.2086 -0.7399  0.0451
 1261SOL    HW3 4811   3.615   2.499   1.856 -0.0585 -0.6592  0.8029
 1261SOL    MW4 4812   3.628   2.583   1.876  0.3311 -0.1900  0.3714
 1262SOL     OW 4813   3.918   0.350   1.899 -0.1004  0.1994  0.4330
 1262SOL    HW2 4814   3.962   0.307   1.972  1.4153  1.4517  0.3212
 1262SOL    HW3 4815   3.825   0.331   1.912  0.2977 -1.0417  1.6970
 1262SOL    MW4 4816   3.912   0.342   1.911  0.1539 -0.3322  0.0869
 1263SOL     OW 4817   4.210   4.941   0.540  0.0471  0.2739  0.1875
 1263SOL    HW2 4818   4.152   5.007   0.502  1.3967  1.2703 -0.2007
 1263SOL    HW3 4819   4.216   4.874   0.472  2.0312  1.7982 -1.2636
 1263SOL    MW4 4820   4.203   4.941   0.526 -1.3191 -0.0080  0.2082
 1264SOL     OW 4821   4.258   1.510   3.679 -0.3347 -0.4557 -0.0162
 1264SOL    HW2 4822   4.241   1.465   3.761 -3.2684  2.9650  1.5213
 1264SOL    HW3 4823   4.316   1.583   3.702  0.9105 -0.8940 -1.5516
 1264SOL    MW4 4824   4.264   1.514   3.693  0.5544 -0.0419 -0.3712
 1265SOL     OW 4825   5.641   4.247   2.185 -0.2911 -0.2692  0.5228
 1265SOL    HW2 4826   5.707   4.293   2.237  0.0258 -2.1208  1.8438
 1265SOL    HW3 4827   5.581   4.316   2.157  1.3618  1.2492  0.5368
 1265SOL    MW4 4828   5.642   4.263   2.188 -0.4803  0.1291  0.3776
 1266SOL     OW 4829   1.331   0.577   2.001  0.9763  0.2588 -0.1825
 1266SOL    HW2 4830   1.401   0.602   2.061  1.4204  0.9424 -0.9722
 1266SOL    HW3 4831   1.301   0.660   1.963  1.3329 -0.2289 -1.5837
 1266SOL    MW4 4832   1.336   0.591   2.004  0.1678  0.4163 -0.0060
 1267SOL     OW 4833   0.404   3.819   4.823 -0.4442 -0.7548  0.0649
 1267SOL    HW2 4834   0.375   3.906   4.794  0.6995 -0.5304 -0.4585
 1267SOL    HW3 4835   0.486   3.836   4.869  0.0475 -1.6047 -0.4802
 1267SOL    MW4 4836   0.411   3.833   4.825  0.3358 -0.9884  0.1273
 1268SOL     OW 4837   3.942   1.753   1.341 -0.0296 -0.3208 -0.0768
 1268SOL    HW2 4838   3.849   1.738   1.320  0.2220 -1.6876 -0.3325
 1268SOL    HW3 4839   3.990   1.708   1.271  0.8277  0.2247  0.1506
 1268SOL    MW4 4840   3.936   1.745   1.329  0.0210  0.2313 -1.2685
 1269SOL     OW 4841   5.434   3.922   1.103  0.6310 -0.0230 -0.1877
 1269SOL    HW2 4842   5.377   3.847   1.122  0.9375 -0.3746 -0.6354
 1269SOL    HW3 4843   5.388   3.996   1.142 -0.2248 -0.2754 -0.6809
 1269SOL    MW4 4844   5.420   3.922   1.111 -0.0185  0.6317 -0.1567
 1270SOL     OW 4845   1.450   6.393   5.559  0.5944 -0.0997 -0.0667
 1270SOL    HW2 4846   1.385   6.326   5.538 -0.8585  1.2031  0.0996
 1270SOL    HW3 4847   1.437   6.461   5.493 -0.0944  1.4189  1.5394
 1270SOL    MW4 4848   1.440   6.393   5.548 -0.1171 -0.1078 -0.4698
 1271SOL     OW 4849   2.745   6.102   1.516 -0.2675 -0.0922  0.0318
 1271SOL    HW2 4850   2.819   6.101   1.577  0.3510 -1.8730 -0.6814
 1271SOL    HW3 4851   2.777   6.153   1.441 -0.0994 -0.0786  0.1108
 1271SOL    MW4 4852   2.759   6.109   1.514  0.3631 -0.6420 -0.6203
 1272SOL     OW 4853   5.752   4.410   1.573  0.2332  0.0815 -0.4893
 1272SOL    HW2 4854   5.774   4.339   1.633 -0.6921 -0.8658 -1.2442
 1272SOL    HW3 4855   5.705   4.474   1.627  2.9407  1.2239  0.6980
 1272SOL    MW4 4856   5.748   4.409   1.588  0.8468  0.6760 -0.3273
 1273SOL     OW 4857   5.845   3.809   1.676 -0.6528 -0.5076 -0.2150
 1273SOL    HW2 4858   5.772   3.857   1.715 -1.8028 -1.7120 -0.8076
 1273SOL    HW3 4859   5.923   3.844   1.719 -1.7342 -0.7305  2.0226
 1273SOL    MW4 4860   5.845   3.820   1.687  0.5135 -0.4192 -0.4045
 1274SOL     OW 4861   2.166   2.037   5.284  0.7930 -0.2189 -0.0716
 1274SOL    HW2 4862   2.111   2.051   5.362 -1.5589 -2.5962 -1.1417
 1274SOL    HW3 4863   2.126   2.094   5.217  0.7733 -0.5956 -0.3807
 1274SOL    MW4 4864   2.153   2.047   5.285  0.1917  0.1910 -0.2193
 1275SOL     OW 4865   4.874   6.190   2.510 -0.4165 -0.0990  0.1331
 1275SOL    HW2 4866   4.942   6.229   2.456  0.9464  1.0554  2.5336
 1275SOL    HW3 4867   4.795   6.239   2.489  0.2925  0.9404 -0.1511
 1275SOL    MW4 4868   4.872   6.201   2.501 -0.0188 -0.2132  0.0849
 1276SOL     OW 4869   1.641   3.455   4.019 -0.0065  0.5805 -0.2487
 1276SOL    HW2 4870   1.736   3.459   4.026 -0.1179  1.7013  0.9513
 1276SOL    HW3 4871   1.625   3.393   3.948  1.6080  0.2868 -0.3933
 1276SOL    MW4 4872   1.651   3.447   4.010  0.0608  0.2821 -0.2550
 1277SOL     OW 4873   6.199   3.821   3.465  0.0126 -0.0587 -0.1902
 1277SOL    HW2 4874   6.145   3.749   3.497  1.3060 -0.8639  0.2802
 1277SOL    HW3 4875   6.137   3.892   3.447 -0.9974 -0.2399  2.2246
 1277SOL    MW4 4876   6.184   3.821   3.467  0.2490  0.2477  0.0133
 1278SOL     OW 4877   1.405   4.030   4.290  0.3450 -0.2331  0.7708
 1278SOL    HW2 4878   1.361   3.982   4.360  0.5068  0.2841  1.2316
 1278SOL    HW3 4879   1.404   3.969   4.215 -3.5022  0.6239 -0.1095
 1278SOL    MW4 4880   1.399   4.015   4.289 -0.1365 -0.4275  0.0689
 1279SOL     OW 4881   2.475   1.873   2.769  0.3553  0.4960 -0.3488
 1279SOL    HW2 4882   2.447   1.900   2.681  0.8827  2.5905  0.0781
 1279SOL    HW3 4883   2.526   1.947   2.802  0.9450 -0.6218  1.3850
 1279SOL    MW4 4884   2.478   1.886   2.761  0.4805 -0.0874  0.6462
 1280SOL     OW 4885   3.341   5.222   1.590 -0.3311  0.1644  0.0061
 1280SOL    HW2 4886   3.304   5.297   1.636  0.1237 -1.2855  2.9938
 1280SOL    HW3 4887   3.265   5.177   1.553 -0.9031  0.6242  0.6015
 1280SOL    MW4 4888   3.326   5.226   1.591  0.0188 -0.1938 -0.0265
 1281SOL     OW 4889   1.677   0.519   3.651  0.6851  0.3200  0.6733
 1281SOL    HW2 4890   1.589   0.530   3.688  0.4273  1.5794 -0.2608
 1281SOL    HW3 4891   1.730   0.584   3.697  1.5365 -1.4559  2.3474
 1281SOL    MW4 4892   1.672   0.529   3.662 -0.2204 -0.0078  0.1910
 1282SOL     OW 4893   0.271   4.415   1.735  0.5197  0.5411  0.2338
 1282SOL    HW2 4894   0.234   4.479   1.796  1.2326  2.8499 -1.6278
 1282SOL    HW3 4895   0.309   4.468   1.665 -0.3910 -1.9752 -2.3290
 1282SOL    MW4 4896   0.271   4.431   1.734 -0.2932 -0.4192  0.3894
 1283SOL     OW 4897   1.070   2.186   5.726 -0.0019  0.2891  0.3430
 1283SOL    HW2 4898   0.982   2.177   5.763 -0.0942  0.4976  0.1757
 1283SOL    HW3 4899   1.126   2.205   5.802  0.3628 -2.4569  0.8694
 1283SOL    MW4 4900   1.066   2.188   5.741 -0.4754  0.1493  0.0296
 1284SOL     OW 4901   5.774   1.365   2.483  0.5063 -0.1860 -0.1480
 1284SOL    HW2 4902   5.868   1.369   2.471  0.5936  0.0153  0.5428
 1284SOL    HW3 4903   5.747   1.286   2.437  1.2262 -1.0702  0.9141
 1284SOL    MW4 4904   5.783   1.355   2.475  0.3381  0.3533 -0.2044
 1285SOL     OW 4905   5.989   4.782   1.679  0.1272  0.1538 -0.5468
 1285SOL    HW2 4906   5.984   4.686   1.679  0.1853  0.1462 -1.2631
 1285SOL    HW3 4907   6.072   4.801   1.724 -1.0730 -0.0345  1.9229
 1285SOL    MW4 4908   6.000   4.772   1.685  0.4139 -0.5111  0.3254
 1286SOL     OW 4909   0.051   3.402   3.795  0.0171 -0.0558 -0.0144
 1286SOL    HW2 4910  -0.044   3.412   3.799 -0.3035 -2.3603 -0.3578
 1286SOL    HW3 4911   0.066   3.310   3.818  2.2057  0.3668  0.4434
 1286SOL    MW4 4912   0.041   3.391   3.798  0.5895 -0.1733 -0.5758
 1287SOL     OW 4913   1.482   4.630   0.776 -0.0041 -0.0554  0.7549
 1287SOL    HW2 4914   1.526   4.562   0.826 -1.7470 -1.5643  0.3426
 1287SOL    HW3 4915   1.514   4.712   0.813  2.0413 -1.0688  1.3741
 1287SOL    MW4 4916   1.492   4.632   0.787  0.2944 -0.2105 -0.7941
 1288SOL     OW 4917   6.304   2.096   6.286 -0.1110  0.3832  0.2724
 1288SOL    HW2 4918   6.315   2.003   6.302 -1.7900 -0.4728 -2.7028
 1288SOL    HW3 4919   6.232   2.123   6.342  0.9620  0.1727  1.8086
 1288SOL    MW4 4920   6.296   2.087   6.295  0.4979 -0.4345  0.3749
 1289SOL     OW 4921   2.099   0.079   1.535  0.3077  0.6054 -0.0992
 1289SOL    HW2 4922   2.102   0.011   1.467 -0.9900 -0.3220  0.7272
 1289SOL    HW3 4923   2.029   0.052   1.593  1.2091  1.5240  1.4903
 1289SOL    MW4 4924   2.090   0.067   1.534 -0.6018  0.2412  0.5611
 1290SOL     OW 4925   4.339   2.321   2.628 -0.1276  0.4660 -0.0140
 1290SOL    HW2 4926   4.330   2.405   2.584  0.8139  2.0881  2.6166
 1290SOL    HW3 4927   4.321   2.340   2.720  3.4211 -1.4438  1.2732
 1290SOL    MW4 4928   4.335   2.334   2.634  0.0635 -0.0432  1.3037
 1291SOL     OW 4929   4.143   3.588   5.898  0.2740 -0.2660  0.4357
 1291SOL    HW2 4930   4.155   3.493   5.899 -1.1862 -0.4799 -0.1596
 1291SOL    HW3 4931   4.188   3.619   5.977 -1.7700 -1.7975  2.3286
 1291SOL    MW4 4932   4.151   3.579   5.909  0.2170  0.4511 -0.6762
 1292SOL     OW 4933   1.407   5.641   3.434 -0.0919 -0.2783 -0.2253
 1292SOL    HW2 4934   1.369   5.653   3.521 -0.7445 -0.9325 -0.4138
 1292SOL    HW3 4935   1.500   5.627   3.451 -0.2639 -0.7421  0.4003
 1292SOL    MW4 4936   1.414   5.641   3.448 -0.0430 -0.2591 -0.2415
 1293SOL     OW 4937   1.177   5.141   0.267 -0.2317  0.0228 -0.2013
 1293SOL    HW2 4938   1.093   5.132   0.222 -0.2780 -2.1778  0.2293
 1293SOL    HW3 4939   1.228   5.066   0.237  0.4952 -0.3374  1.8296
 1293SOL    MW4 4940   1.173   5.130   0.257 -0.2474  0.0204 -0.3425
 1294SOL     OW 4941   0.703   2.765   4.565 -0.1737 -0.4604  0.5148
 1294SOL    HW2 4942   0.776   2.754   4.503  0.8693 -0.7909  1.7442
 1294SOL    HW3 4943   0.733   2.833   4.625 -2.0011  1.3077 -0.4833
 1294SOL    MW4 4944   0.717   2.772   4.564  0.2590  0.1193  0.5382
 1295SOL     OW 4945   5.403   2.693   0.652 -0.2948 -0.2991 -0.2893
 1295SOL    HW2 4946   5.493   2.701   0.621  0.7262  1.5122  2.7291
 1295SOL    HW3 4947   5.355   2.763   0.608 -0.3566 -1.4018 -2.0697
 1295SOL    MW4 4948   5.409   2.703   0.643 -0.2852 -0.1988  0.5442
 1296SOL     OW 4949   3.589   5.568   0.951 -0.7717  0.1448 -0.2173
 1296SOL    HW2 4950   3.591   5.612   0.866 -1.1087 -1.5051 -1.1191
 1296SOL    HW3 4951   3.681   5.550   0.971 -0.6929  0.5206 -0.2419
 1296SOL    MW4 4952   3.602   5.572   0.942 -0.5423 -0.1917 -0.1702
 1297SOL     OW 4953   1.628   0.851   5.013  0.2524  0.2049 -0.0686
 1297SOL    HW2 4954   1.596   0.883   5.098 -0.1534  1.2581 -0.6097
 1297SOL    HW3 4955   1.548   0.837   4.962  0.5562  1.2573 -0.8603
 1297SOL    MW4 4956   1.613   0.853   5.018  0.7366  0.2194 -0.4466
 1298SOL     OW 4957   6.407   0.297   0.367 -0.6949  0.5136  0.7936
 1298SOL    HW2 4958   6.454   0.361   0.313  0.3486 -0.4399  0.5303
 1298SOL    HW3 4959   6.363   0.350   0.434 -1.1189  1.6293 -0.3084
 1298SOL    MW4 4960   6.407   0.313   0.369  0.1061  0.1943 -0.3883
 1299SOL     OW 4961   2.366   5.006   5.211 -0.6018 -0.4805  0.3682
 1299SOL    HW2 4962   2.284   5.053   5.228 -1.2196 -1.2018 -0.5369
 1299SOL    HW3 4963   2.418   5.018   5.291 -1.9987 -0.8788  1.3613
 1299SOL    MW4 4964   2.362   5.014   5.224  0.0343  0.5626 -0.2176
 1300SOL     OW 4965   3.341   2.806   6.273 -0.2950  0.2805  0.3779
 1300SOL    HW2 4966   3.261   2.798   6.325 -0.3084 -0.1975  0.2937
 1300SOL    HW3 4967   3.345   2.898   6.249  1.3674  1.2755  3.8811
 1300SOL    MW4 4968   3.331   2.817   6.277  0.1359  0.5434  0.4544
 1301SOL     OW 4969   5.361   2.192   3.352  0.1248 -0.1230  0.3740
 1301SOL    HW2 4970   5.330   2.265   3.406  1.1415  0.6152 -0.0094
 1301SOL    HW3 4971   5.304   2.119   3.375 -0.8885  0.7831  0.7969
 1301SOL    MW4 4972   5.350   2.192   3.362  0.8105 -0.3175  0.3906
 1302SOL     OW 4973   3.335   0.000   3.567 -0.1964 -0.3134 -0.1876
 1302SOL    HW2 4974   3.379   0.072   3.613  0.8705 -0.9573 -0.1646
 1302SOL    HW3 4975   3.243   0.010   3.590  0.3837 -1.4228  3.3203
 1302SOL    MW4 4976   3.329   0.011   3.576  0.2249  0.4131 -0.1541
 1303SOL     OW 4977   4.644   3.683   5.381  0.3153  0.1070  0.1708
 1303SOL    HW2 4978   4.548   3.682   5.384  0.3233  0.9054  2.2519
 1303SOL    HW3 4979   4.670   3.593   5.396 -0.0595 -0.4974 -2.2947
 1303SOL    MW4 4980   4.634   3.671   5.383 -0.1948 -0.2987  0.0611
 1304SOL     OW 4981   4.206   2.568   3.519 -0.8939  0.0246  0.0391
 1304SOL    HW2 4982   4.148   2.491   3.518  0.5832 -1.2459  2.5005
 1304SOL    HW3 4983   4.269   2.549   3.589  0.1276  3.0838  0.0658
 1304SOL    MW4 4984   4.207   2.555   3.528  0.1990  0.4514  0.0386
 1305SOL     OW 4985   6.080   4.356   5.287 -0.8241 -0.1716 -0.0288
 1305SOL    HW2 4986   5.994   4.315   5.279 -1.9152  1.7275  1.1071
 1305SOL    HW3 4987   6.136   4.288   5.325 -2.3749 -0.8158  1.1933
 1305SOL    MW4 4988   6.076   4.342   5.291 -0.2819 -0.0303  0.2283
 1306SOL     OW 4989   4.417   2.151   3.377  0.8515  0.0237 -0.4895
 1306SOL    HW2 4990   4.384   2.208   3.308 -1.6365 -1.1533 -0.3737
 1306SOL    HW3 4991   4.457   2.078   3.329  1.1453  0.2911 -0.6569
 1306SOL    MW4 4992   4.418   2.149   3.361 -0.3798  0.5514  0.0364
 1307SOL     OW 4993   6.044   3.149   6.190  0.1294  0.5534 -0.2153
 1307SOL    HW2 4994   6.059   3.241   6.211 -1.2459  0.6507  0.4023
 1307SOL    HW3 4995   6.114   3.127   6.128  1.2486  1.6536  0.6037
 1307SOL    MW4 4996   6.056   3.158   6.185  0.6170 -0.1277 -0.0315
 1308SOL     OW 4997   2.577   1.452   1.477 -0.4844 -0.0292  0.0835
 1308SOL    HW2 4998   2.600   1.495   1.395 -2.7078  2.2795  0.5321
 1308SOL    HW3 4999   2.530   1.373   1.450 -1.0968  0.6487 -0.9060
 1308SOL    MW4 5000   2.573   1.447   1.463  0.3932 -1.0434  0.6322
 1309SOL     OW 5001   0.692   5.942   4.140  0.9503 -1.1325 -0.6753
 1309SOL    HW2 5002   0.682   6.017   4.199  1.7822 -1.9892  0.5938
 1309SOL    HW3 5003   0.675   5.978   4.053  0.3228  0.3039  0.0082
 1309SOL    MW4 5004   0.688   5.957   4.136 -0.1880  0.2663  0.1271
 1310SOL     OW 5005   5.710   4.606   0.379  0.1574 -0.3672 -0.2381
 1310SOL    HW2 5006   5.770   4.589   0.306  1.9597  0.9336  0.8431
 1310SOL    HW3 5007   5.720   4.700   0.397  2.9853 -1.1870  4.2051
 1310SOL    MW4 5008   5.719   4.616   0.372  0.6004 -0.1186 -0.2148
 1311SOL     OW 5009   3.804   0.225   1.241 -0.4954 -0.7909  0.3344
 1311SOL    HW2 5010   3.765   0.141   1.267 -0.8573 -0.7626 -0.0955
 1311SOL    HW3 5011   3.898   0.212   1.252 -0.2728 -2.2461 -2.4338
 1311SOL    MW4 5012   3.811   0.212   1.246  0.0282  0.4799  0.3986
 1312SOL     OW 5013   0.745   0.361   3.577 -0.1918 -0.2639  0.5402
 1312SOL    HW2 5014   0.797   0.338   3.501 -1.1817 -1.3331  0.1526
 1312SOL    HW3 5015   0.655   0.339   3.552 -0.9142  1.8391  1.0403
 1312SOL    MW4 5016   0.740   0.355   3.564  0.6730  0.3121  0.3691
 1313SOL     OW 5017   4.584   2.576   1.487  0.0412  0.4999  0.3265
 1313SOL    HW2 5018   4.503   2.557   1.535  0.8681  0.0662  1.6019
 1313SOL    HW3 5019   4.633   2.494   1.488  2.5307  1.8155  3.6574
 1313SOL    MW4 5020   4.580   2.562   1.493 -0.0372  0.2064 -0.1570
 1314SOL     OW 5021   0.518   5.542   4.402  0.4240  0.3166  0.1485
 1314SOL    HW2 5022   0.586   5.487   4.442  0.1857  1.0637  1.6800
 1314SOL    HW3 5023   0.559   5.576   4.322  1.6886  0.3505  0.7765
 1314SOL    MW4 5024   0.533   5.539   4.397 -0.8803 -0.5639 -0.4523
 1315SOL     OW 5025   2.285   3.624   4.934  1.0292 -0.4297  0.0748
 1315SOL    HW2 5026   2.229   3.565   4.883  1.2011  1.5534 -2.6158
 1315SOL    HW3 5027   2.225   3.690   4.969  1.4039  0.9296 -1.6899
 1315SOL    MW4 5028   2.270   3.625   4.932  0.3146 -0.3664  0.2536
 1316SOL     OW 5029   1.371   3.595   3.868  0.3458 -0.7014  0.0686
 1316SOL    HW2 5030   1.356   3.538   3.943 -0.2618 -0.1242  0.3926
 1316SOL    HW3 5031   1.326   3.552   3.796 -0.3779 -0.4854  0.3830
 1316SOL    MW4 5032   1.363   3.582   3.868 -0.3019 -0.4922 -0.2798
 1317SOL     OW 5033   4.278   2.289   3.143  0.2761  0.2598  0.0468
 1317SOL    HW2 5034   4.279   2.338   3.060  0.1785 -0.9376 -0.6887
 1317SOL    HW3 5035   4.196   2.239   3.139 -1.1284  2.2184  2.1192
 1317SOL    MW4 5036   4.267   2.289   3.131 -0.0048 -0.0657 -0.5575
 1318SOL     OW 5037   6.332   1.819   6.030  0.1617  0.4200 -0.1466
 1318SOL    HW2 5038   6.267   1.795   6.096 -0.3231  0.1076 -0.7222
 1318SOL    HW3 5039   6.289   1.886   5.977  0.5253  0.6294 -0.1779
 1318SOL    MW4 5040   6.318   1.824   6.032  0.0165 -0.0906 -0.6263
 1319SOL     OW 5041   5.338   0.912   1.273 -0.3395  0.1016 -0.3451
 1319SOL    HW2 5042   5.310   0.848   1.208  0.4437  1.4483 -2.0707
 1319SOL    HW3 5043   5.257   0.937   1.318 -0.9553 -0.5689 -1.0503
 1319SOL    MW4 5044   5.324   0.907   1.271 -0.2074  0.0900  0.0852
 1320SOL     OW 5045   3.273   1.018   5.624  0.3159  0.4535 -0.1640
 1320SOL    HW2 5046   3.220   0.960   5.678  0.9450  0.4899  0.5064
 1320SOL    HW3 5047   3.212   1.051   5.558  0.2685 -2.1978 -1.5945
 1320SOL    MW4 5048   3.258   1.015   5.622  0.1458 -0.4899  0.0262
 1321SOL     OW 5049   4.461   1.185   4.344 -0.4772  0.0360  0.1011
 1321SOL    HW2 5050   4.452   1.215   4.434 -1.9076 -1.2748  0.4478
 1321SOL    HW3 5051   4.536   1.125   4.345  0.1817  0.8504  0.1651
 1321SOL    MW4 5052   4.469   1.181   4.356  0.0681  0.0869 -0.7364
 1322SOL     OW 5053   0.792   6.186   3.153  0.5398  0.0363  0.0002
 1322SOL    HW2 5054   0.845   6.109   3.133 -0.1612 -0.2769 -0.6722
 1322SOL    HW3 5055   0.815   6.250   3.086  0.1139 -0.0733 -0.2482
 1322SOL    MW4 5056   0.802   6.185   3.142  0.0892  0.1806 -0.4504
 1323SOL     OW 5057   0.150   0.361   3.785  0.2426  0.1506 -0.1898
 1323SOL    HW2 5058   0.166   0.295   3.852 -1.4148  0.1415  0.2246
 1323SOL    HW3 5059   0.210   0.338   3.714  2.0248  0.1634  1.2471
 1323SOL    MW4 5060   0.160   0.350   3.784  0.1966  0.4972  0.4546
 1324SOL     OW 5061   5.229   1.375   1.803 -0.4572 -0.5623  0.3967
 1324SOL    HW2 5062   5.163   1.339   1.862  0.6263 -0.4660  1.7122
 1324SOL    HW3 5063   5.312   1.351   1.843  0.3058  0.7311 -0.3564
 1324SOL    MW4 5064   5.231   1.367   1.816 -0.2593 -0.0936 -0.3045
 1325SOL     OW 5065   4.963   3.281   5.265  0.0507  0.5523 -0.0845
 1325SOL    HW2 5066   5.051   3.268   5.301 -0.3031 -0.0181  0.5996
 1325SOL    HW3 5067   4.971   3.358   5.209  1.1319  0.1572 -0.5091
 1325SOL    MW4 5068   4.976   3.289   5.262 -0.2669  0.1217  0.2133
 1326SOL     OW 5069   5.091   1.049   0.054 -0.1386 -0.1156 -0.2170
 1326SOL    HW2 5070   5.173   1.025   0.012 -0.7966 -1.5809 -0.7503
 1326SOL    HW3 5071   5.047   0.965   0.070 -0.6286  0.4726  1.9700
 1326SOL    MW4 5072   5.096   1.035   0.051 -0.0403  0.0939  0.1802
 1327SOL     OW 5073   4.477   5.461   0.940  0.5096 -0.4117 -0.0542
 1327SOL    HW2 5074   4.487   5.371   0.971  1.7093 -0.4044 -0.3854
 1327SOL    HW3 5075   4.532   5.466   0.862  1.3897  0.9350  0.6158
 1327SOL    MW4 5076   4.485   5.450   0.933 -0.7021 -0.1674 -0.2113
 1328SOL     OW 5077   2.338   5.158   5.814  0.4869 -0.2816 -0.4247
 1328SOL    HW2 5078   2.267   5.223   5.813  0.5194 -0.2454 -0.3386
 1328SOL    HW3 5079   2.376   5.166   5.901 -0.2756 -1.2446  0.0162
 1328SOL    MW4 5080   2.333   5.168   5.825 -0.9185 -0.1723  0.1859
 1329SOL     OW 5081   1.568   2.010   3.997  0.4526  0.1265 -0.2255
 1329SOL    HW2 5082   1.618   2.003   4.079 -0.3043 -0.9755  0.1710
 1329SOL    HW3 5083   1.477   2.010   4.025  0.1617  2.7905 -0.8967
 1329SOL    MW4 5084   1.563   2.009   4.012  0.5917  0.1808 -0.1773
 1330SOL     OW 5085   4.967   3.100   1.892  0.1420  0.1788 -0.6612
 1330SOL    HW2 5086   4.970   3.193   1.869  0.5216  0.1638 -0.6804
 1330SOL    HW3 5087   4.976   3.054   1.808 -1.5825  0.1110 -0.8480
 1330SOL    MW4 5088   4.968   3.106   1.878  0.0020  0.3269 -0.0174
 1331SOL     OW 5089   0.609   0.141   4.981  0.5260 -0.3206 -0.5007
 1331SOL    HW2 5090   0.628   0.229   4.948 -1.4989  0.1934 -0.4170
 1331SOL    HW3 5091   0.567   0.156   5.066 -0.6635 -1.3017 -0.8890
 1331SOL    MW4 5092   0.606   0.154   4.988 -0.1782  0.0853 -0.7727
 1332SOL     OW 5093   4.356   4.450   1.229  0.4734 -0.1021 -0.4159
 1332SOL    HW2 5094   4.348   4.393   1.153 -1.0118 -1.1064  0.4553
 1332SOL    HW3 5095   4.370   4.391   1.302 -0.1947  0.6924  0.3816
 1332SOL    MW4 5096   4.357   4.435   1.228 -0.3632  0.5033  0.2495
 1333SOL     OW 5097   4.704   4.339   1.064 -0.2267 -0.4767  0.3947
 1333SOL    HW2 5098   4.680   4.251   1.092  2.4366 -0.9586  1.4938
 1333SOL    HW3 5099   4.728   4.384   1.145 -0.4789  0.9132 -0.2758
 1333SOL    MW4 5100   4.704   4.334   1.078  0.0808  0.4541  0.2419
 1334SOL     OW 5101   6.288   4.917   5.650 -0.7556 -0.5912  0.1170
 1334SOL    HW2 5102   6.200   4.948   5.629 -0.9171 -0.1206  1.4334
 1334SOL    HW3 5103   6.344   4.959   5.585 -1.2705  0.6336  0.4446
 1334SOL    MW4 5104   6.284   4.927   5.639  0.2662 -0.4368 -0.5429
 1335SOL     OW 5105   6.354   2.723   0.011  0.3418  0.0283  0.2398
 1335SOL    HW2 5106   6.422   2.775  -0.032  1.1775  0.0964  1.5640
 1335SOL    HW3 5107   6.387   2.710   0.100 -1.3659  0.0043  0.9094
 1335SOL    MW4 5108   6.368   2.728   0.017  0.3395  0.0061  0.1566
 1336SOL     OW 5109   4.568   4.711   5.267 -0.3164  0.0839 -0.3189
 1336SOL    HW2 5110   4.566   4.751   5.354 -0.8103  1.3575 -0.8858
 1336SOL    HW3 5111   4.656   4.727   5.234 -1.2267  3.1943 -1.5928
 1336SOL    MW4 5112   4.579   4.718   5.274  0.1463 -0.0487  0.1650
 1337SOL     OW 5113   4.935   4.109   3.506  0.5718 -0.2889  0.5747
 1337SOL    HW2 5114   5.007   4.166   3.535  0.5744 -0.8466  1.7188
 1337SOL    HW3 5115   4.884   4.164   3.446  1.9984  0.0782 -0.3633
 1337SOL    MW4 5116   4.938   4.124   3.502 -0.2430  0.3866  0.2773
 1338SOL     OW 5117   0.372   2.242   4.059 -0.2994  0.0686 -0.1489
 1338SOL    HW2 5118   0.391   2.168   4.002  1.6080 -0.7049  1.3808
 1338SOL    HW3 5119   0.367   2.317   4.001  2.2796 -0.5623 -1.3128
 1338SOL    MW4 5120   0.374   2.242   4.044 -0.1506  0.0468 -0.2709
 1339SOL     OW 5121   6.253   6.320   5.926 -0.0483  0.4786  0.4139
 1339SOL    HW2 5122   6.260   6.380   5.852  0.4916 -0.8897 -0.6958
 1339SOL    HW3 5123   6.212   6.371   5.995 -1.0750  1.6519 -1.0107
 1339SOL    MW4 5124   6.249   6.334   5.925  0.0206  0.3149  0.2959
 1340SOL     OW 5125   3.247   1.833   0.947  0.2599  0.0273  0.5910
 1340SOL    HW2 5126   3.304   1.830   0.870  0.3062  0.1049  0.6218
 1340SOL    HW3 5127   3.258   1.748   0.989  1.5306  0.5879  1.4486
 1340SOL    MW4 5128   3.256   1.822   0.942  0.0982  0.1317 -0.3303
 1341SOL     OW 5129   2.358   2.631   4.760 -0.0578  0.1288 -0.3907
 1341SOL    HW2 5130   2.339   2.690   4.687  2.8382  2.0684  0.2614
 1341SOL    HW3 5131   2.324   2.676   4.837 -3.5552 -2.1361 -0.3747
 1341SOL    MW4 5132   2.351   2.645   4.760 -0.2300 -0.6642  0.3520
 1342SOL     OW 5133   2.697   0.696   3.927  0.1665  0.3157  0.2996
 1342SOL    HW2 5134   2.690   0.616   3.875 -1.5791  0.1287  0.7556
 1342SOL    HW3 5135   2.789   0.723   3.918  0.2546 -0.4857 -1.6837
 1342SOL    MW4 5136   2.708   0.689   3.919 -0.4773  0.7145 -0.6292
 1343SOL     OW 5137   2.383   2.852   2.990 -0.1391 -0.3223  0.1519
 1343SOL    HW2 5138   2.402   2.760   3.008 -0.1109  0.0178  1.9965
 1343SOL    HW3 5139   2.332   2.850   2.909 -0.0138 -1.9467  0.0797
 1343SOL    MW4 5140   2.379   2.839   2.982 -0.4287  0.0151  0.3857
 1344SOL     OW 5141   5.293   2.229   5.124  0.3878 -0.0436  0.2019
 1344SOL    HW2 5142   5.332   2.308   5.161  0.0213  0.7963 -1.1335
 1344SOL    HW3 5143   5.364   2.165   5.122  0.9708  0.5926  0.3405
 1344SOL    MW4 5144   5.308   2.231   5.128  0.2978 -0.6917 -0.3577
 1345SOL     OW 5145   6.236   3.152   5.056  1.0537  0.5591  0.4136
 1345SOL    HW2 5146   6.149   3.169   5.021  0.4831  0.4494  1.7303
 1345SOL    HW3 5147   6.221   3.129   5.148  2.4192 -0.0487  0.5014
 1345SOL    MW4 5148   6.223   3.151   5.064  0.1306  0.0783 -0.1519
 1346SOL     OW 5149   4.420   1.525   1.657 -0.1769  0.2119  0.5866
 1346SOL    HW2 5150   4.470   1.447   1.634  1.5583  1.2081  0.7538
 1346SOL    HW3 5151   4.482   1.578   1.709 -0.8413  2.2619 -0.6082
 1346SOL    MW4 5152   4.435   1.522   1.661  0.0875 -0.1737 -0.4354
 1347SOL     OW 5153   0.047   2.735   3.741  0.2555 -0.3634 -0.1242
 1347SOL    HW2 5154   0.123   2.793   3.734 -0.1707  0.0329 -1.9716
 1347SOL    HW3 5155  -0.025   2.793   3.765  0.2021 -0.4486 -0.0779
 1347SOL    MW4 5156   0.048   2.750   3.743  0.1079 -0.7263  0.1435
 1348SOL     OW 5157   3.982   1.254   6.059 -0.2196  0.0701 -0.0852
 1348SOL    HW2 5158   3.999   1.231   6.150 -0.4290  0.1831 -0.0169
 1348SOL    HW3 5159   4.068   1.260   6.019  0.2488  4.1695  1.0697
 1348SOL    MW4 5160   3.995   1.252   6.065  0.1074  0.2547 -0.4514
 1349SOL     OW 5161   5.490   0.129   5.564 -0.4257 -0.1191 -0.5848
 1349SOL    HW2 5162   5.404   0.109   5.603 -0.9718 -1.6560 -2.4237
 1349SOL    HW3 5163   5.473   0.200   5.503  0.0142  0.8121  0.3326
 1349SOL    MW4 5164   5.476   0.136   5.561 -0.0359  0.0114 -0.3089
 1350SOL     OW 5165   4.518   5.845   1.200 -0.2186 -0.3165 -0.0360
 1350SOL    HW2 5166   4.593   5.887   1.158  0.1835 -0.6632  0.3280
 1350SOL    HW3 5167   4.485   5.910   1.262 -0.0692 -0.2523 -0.0225
 1350SOL    MW4 5168   4.523   5.859   1.202  0.2730  0.2503  0.1770
 1351SOL     OW 5169   4.658   2.131   1.292  0.2128  0.3973  0.1199
 1351SOL    HW2 5170   4.725   2.068   1.268  0.7732  0.0539  2.3339
 1351SOL    HW3 5171   4.664   2.200   1.226  0.1065 -1.4388 -1.8985
 1351SOL    MW4 5172   4.668   2.132   1.280  0.1017  0.3751 -0.0006
 1352SOL     OW 5173   2.541   6.073   4.715  0.1626  0.3232  0.1900
 1352SOL    HW2 5174   2.481   6.118   4.775 -0.8023 -0.0889 -0.4289
 1352SOL    HW3 5175   2.610   6.039   4.771  0.4181  1.7592  0.7861
 1352SOL    MW4 5176   2.542   6.075   4.730  0.3560 -0.7339  1.1165
 1353SOL     OW 5177   0.378   5.090   1.855  0.0941  0.8771  0.0003
 1353SOL    HW2 5178   0.471   5.109   1.841  0.1685  1.8900  1.6294
 1353SOL    HW3 5179   0.362   5.116   1.946 -1.5631 -0.2048  0.0483
 1353SOL    MW4 5180   0.388   5.096   1.865 -0.0340 -0.1979  0.1623
 1354SOL     OW 5181   2.196   2.943   4.540 -0.4952  0.8506  0.2349
 1354SOL    HW2 5182   2.210   2.966   4.631  1.1068  0.1847  0.1850
 1354SOL    HW3 5183   2.171   2.850   4.542 -0.8908  0.9490  0.0185
 1354SOL    MW4 5184   2.195   2.934   4.552 -0.2105 -0.2180  0.2803
 1355SOL     OW 5185   0.038   0.040   1.018 -0.0443 -0.6229 -0.2500
 1355SOL    HW2 5186   0.076   0.064   0.934 -1.9530  0.9888 -0.7264
 1355SOL    HW3 5187   0.063   0.110   1.077 -1.3472 -0.0621 -0.3247
 1355SOL    MW4 5188   0.046   0.052   1.015 -0.1998 -0.0836 -0.4959
 1356SOL     OW 5189   5.959   4.720   3.154 -0.2010 -0.2288 -0.4370
 1356SOL    HW2 5190   5.975   4.730   3.247  2.1864  1.0332 -0.8937
 1356SOL    HW3 5191   5.935   4.807   3.123  1.4625 -0.0458 -1.3484
 1356SOL    MW4 5192   5.958   4.733   3.162 -0.1849 -0.5885  0.7303
 1357SOL     OW 5193   0.565   0.171   3.441 -0.3608 -0.8104  0.2189
 1357SOL    HW2 5194   0.633   0.107   3.460  1.0409  0.8548  0.9943
 1357SOL    HW3 5195   0.603   0.230   3.375 -1.5703 -0.6497 -0.3850
 1357SOL    MW4 5196   0.579   0.170   3.434  0.0362  0.2503  0.0759
 1358SOL     OW 5197   2.819   3.456   5.226 -0.2127  0.1205 -0.0184
 1358SOL    HW2 5198   2.777   3.467   5.141  0.0534  1.8223  0.0341
 1358SOL    HW3 5199   2.747   3.451   5.289 -0.4210 -1.4143 -0.3226
 1358SOL    MW4 5200   2.804   3.457   5.223 -0.3484  0.1616  0.3275
 1359SOL     OW 5201   0.670   3.583   5.116 -0.1052  0.0203 -0.6553
 1359SOL    HW2 5202   0.628   3.505   5.081  0.1700  0.3994 -1.8762
 1359SOL    HW3 5203   0.763   3.569   5.101  0.0877 -0.1279  0.6145
 1359SOL    MW4 5204   0.677   3.571   5.109 -0.1825  0.0600 -0.0108
 1360SOL     OW 5205   6.158   3.905   4.019 -0.4364  0.7148 -0.0754
 1360SOL    HW2 5206   6.239   3.932   4.064 -0.5614  1.0304 -0.0389
 1360SOL    HW3 5207   6.124   3.833   4.073  0.0759  0.2450 -0.3617
 1360SOL    MW4 5208   6.164   3.899   4.032 -0.0370  0.5756  0.3038
 1361SOL     OW 5209   4.831   2.124   2.565  0.0096  0.4397 -0.3549
 1361SOL    HW2 5210   4.837   2.110   2.471  1.1520 -1.7314 -0.0239
 1361SOL    HW3 5211   4.888   2.198   2.583 -0.0449  0.7243 -1.3314
 1361SOL    MW4 5212   4.839   2.132   2.555 -0.0474  0.0795 -0.1764
 1362SOL     OW 5213   3.388   0.199   3.833  0.1997  0.1786  0.1431
 1362SOL    HW2 5214   3.361   0.282   3.792  0.5174 -0.0277 -0.4970
 1362SOL    HW3 5215   3.471   0.177   3.791  0.8347  0.2455  1.3233
 1362SOL    MW4 5216   3.395   0.207   3.822  0.4860 -0.7493  0.2214
 1363SOL     OW 5217   2.340   5.684   3.426 -0.0506  0.6480 -0.0422
 1363SOL    HW2 5218   2.416   5.714   3.476 -0.3419 -1.1086  1.5846
 1363SOL    HW3 5219   2.366   5.691   3.335  1.4043  1.7098  0.4198
 1363SOL    MW4 5220   2.353   5.689   3.421 -0.4308 -0.6544 -0.1636
 1364SOL     OW 5221   3.194   2.082   5.611 -0.3341  0.1256 -0.0648
 1364SOL    HW2 5222   3.211   1.999   5.565  0.2237  0.7451 -1.0146
 1364SOL    HW3 5223   3.108   2.109   5.581 -1.9662 -1.5997  2.5999
 1364SOL    MW4 5224   3.185   2.075   5.601  0.3332  0.7014 -0.2161
 1365SOL     OW 5225   1.176   6.261   5.017  0.2099  0.5065 -0.2440
 1365SOL    HW2 5226   1.239   6.277   5.087 -1.0898 -0.0431  1.1056
 1365SOL    HW3 5227   1.208   6.312   4.943  1.4220  1.4156  0.8700
 1365SOL    MW4 5228   1.188   6.270   5.017  0.1218  0.0183 -0.1377
 1366SOL     OW 5229   5.824   2.276   5.704  0.2506 -0.7404 -0.5347
 1366SOL    HW2 5230   5.900   2.321   5.741 -0.9237  1.7435 -0.9215
 1366SOL    HW3 5231   5.776   2.244   5.780 -0.2293  1.0463 -0.0341
 1366SOL    MW4 5232   5.828   2.277   5.719 -0.2727 -0.0212 -0.4845
 1367SOL     OW 5233   4.379   3.787   5.369 -0.1679  0.0616 -0.1401
 1367SOL    HW2 5234   4.367   3.817   5.279  2.0098  0.4703 -0.3526
 1367SOL    HW3 5235   4.419   3.862   5.414 -0.8029 -0.2959  1.0614
 1367SOL    MW4 5236   4.383   3.801   5.363  0.4368  0.0364  0.3640
 1368SOL     OW 5237   3.705   2.557   4.331  0.6990 -0.0795  0.1487
 1368SOL    HW2 5238   3.767   2.516   4.393  0.8055  0.9405  0.7465
 1368SOL    HW3 5239   3.712   2.650   4.350  1.1444  0.3289 -1.8008
 1368SOL    MW4 5240   3.714   2.564   4.342  0.4281  0.4248  0.4069
 1369SOL     OW 5241   0.260   1.891   2.422  0.1881  0.4252  0.1038
 1369SOL    HW2 5242   0.171   1.882   2.388  0.4573  0.0079 -0.5083
 1369SOL    HW3 5243   0.290   1.975   2.388  0.3528  0.1408 -0.4725
 1369SOL    MW4 5244   0.252   1.901   2.413 -0.4420 -0.0707  0.0686
 1370SOL     OW 5245   3.285   3.106   3.632 -0.7365 -0.8346 -0.2517
 1370SOL    HW2 5246   3.309   3.148   3.549 -0.5868  0.0733  0.2344
 1370SOL    HW3 5247   3.193   3.128   3.644 -0.3231  0.5889  0.6756
 1370SOL    MW4 5248   3.276   3.115   3.623 -0.1860  0.4647 -0.4765
 1371SOL     OW 5249   5.556   0.786   1.389  0.1712  0.1921 -0.4965
 1371SOL    HW2 5250   5.567   0.836   1.469  2.9309  3.2365 -2.5040
 1371SOL    HW3 5251   5.478   0.824   1.348 -0.5694 -0.5848  0.1492
 1371SOL    MW4 5252   5.547   0.798   1.394  0.6612  0.0005 -0.5589
 1372SOL     OW 5253   4.800   0.143   3.077 -0.5221  0.0632  0.2722
 1372SOL    HW2 5254   4.761   0.227   3.101  2.7360  2.0021 -0.5946
 1372SOL    HW3 5255   4.869   0.129   3.142  0.5244 -0.7194 -0.9544
 1372SOL    MW4 5256   4.804   0.152   3.089 -0.4232 -0.3071  0.3506
 1373SOL     OW 5257   6.341   5.674   1.057  0.1099  0.2149 -0.3914
 1373SOL    HW2 5258   6.298   5.743   1.108 -0.6932 -1.0139  0.6621
 1373SOL    HW3 5259   6.388   5.721   0.988 -0.3964  1.8064  0.2955
 1373SOL    MW4 5260   6.341   5.689   1.054 -0.1251 -0.2173  0.0949
 1374SOL     OW 5261   1.770   1.984   4.212  0.1896 -0.7204 -0.1088
 1374SOL    HW2 5262   1.804   2.070   4.190 -0.6785 -0.1758  0.5829
 1374SOL    HW3 5263   1.824   1.954   4.286 -0.1162 -0.3400  0.2746
 1374SOL    MW4 5264   1.781   1.991   4.219 -0.0774  0.1252 -0.5285
 1375SOL     OW 5265   5.343   5.917   4.164 -0.5642  0.3847 -0.5768
 1375SOL    HW2 5266   5.317   5.894   4.253 -2.2729  3.2874 -0.1746
 1375SOL    HW3 5267   5.275   5.880   4.108  0.3709 -1.2171 -0.7009
 1375SOL    MW4 5268   5.330   5.909   4.168  1.2820 -0.2986  0.1956
 1376SOL     OW 5269   3.478   0.305   5.539 -0.0741 -0.2090 -0.0246
 1376SOL    HW2 5270   3.393   0.281   5.577  0.1595 -0.0865  0.5954
 1376SOL    HW3 5271   3.518   0.361   5.606  0.8553 -0.9743  0.0707
 1376SOL    MW4 5272   3.472   0.309   5.553 -0.1849 -0.5486  0.0145
 1377SOL     OW 5273   6.380   3.453   4.260 -0.4407  0.5546 -0.1212
 1377SOL    HW2 5274   6.446   3.466   4.191 -0.0489  0.9350  0.3168
 1377SOL    HW3 5275   6.407   3.372   4.304  0.1071  1.0462  0.4626
 1377SOL    MW4 5276   6.392   3.444   4.257 -1.0209  0.3215  0.1504
 1378SOL     OW 5277   5.735   0.865   0.751 -0.2333  0.7480 -0.2915
 1378SOL    HW2 5278   5.674   0.843   0.680  1.6664 -0.1898 -1.7365
 1378SOL    HW3 5279   5.738   0.960   0.751 -1.4090  0.7933 -0.4507
 1378SOL    MW4 5280   5.728   0.874   0.741  0.1476  0.0342 -0.1703
 1379SOL     OW 5281   0.552   0.905   0.120 -0.1973 -0.5271  0.0442
 1379SOL    HW2 5282   0.533   0.898   0.026 -1.6847 -1.4919  0.3780
 1379SOL    HW3 5283   0.612   0.979   0.127  0.1786 -0.6229 -1.6945
 1379SOL    MW4 5284   0.557   0.913   0.108  0.0515  0.2310 -0.9130
 1380SOL     OW 5285   4.899   0.886   5.857  0.0113 -0.2000  0.2993
 1380SOL    HW2 5286   4.875   0.856   5.769  1.9669  1.7238 -0.9654
 1380SOL    HW3 5287   4.901   0.805   5.909  0.9386 -1.7252 -1.9273
 1380SOL    MW4 5288   4.896   0.871   5.852 -0.1901  0.3154 -0.5391
 1381SOL     OW 5289   2.370   0.678   0.284 -0.3670  0.5473 -0.1006
 1381SOL    HW2 5290   2.295   0.621   0.301 -0.5896  1.1651  1.0906
 1381SOL    HW3 5291   2.441   0.618   0.259 -0.5843 -0.2706  1.1343
 1381SOL    MW4 5292   2.370   0.663   0.283  0.2868  0.3081 -0.1973
 1382SOL     OW 5293   2.722   4.710   0.734 -0.0529  0.4327  0.2931
 1382SOL    HW2 5294   2.739   4.801   0.711  1.9098 -0.0062 -0.1639
 1382SOL    HW3 5295   2.644   4.686   0.683 -0.3265  1.7156  0.0916
 1382SOL    MW4 5296   2.714   4.719   0.724 -0.0133  0.3020 -0.5061
 1383SOL     OW 5297   3.539   3.087   4.744 -0.1474 -0.4408 -0.0740
 1383SOL    HW2 5298   3.549   3.055   4.834  1.2757  0.8848  0.2845
 1383SOL    HW3 5299   3.460   3.140   4.746  0.5198  0.5826  0.7526
 1383SOL    MW4 5300   3.530   3.090   4.756 -0.1362 -0.4834 -0.0593
 1384SOL     OW 5301   4.577   0.210   2.107  0.2770 -0.6488 -0.0833
 1384SOL    HW2 5302   4.617   0.240   2.189 -0.4181 -2.1473  0.8577
 1384SOL    HW3 5303   4.644   0.156   2.066  0.8430  0.5813 -0.8389
 1384SOL    MW4 5304   4.591   0.207   2.112 -1.0584  0.0275 -0.1166
 1385SOL     OW 5305   0.760   6.394   3.504  0.1646 -1.0224 -0.2100
 1385SOL    HW2 5306   0.715   6.379   3.587 -2.3836 -2.4853 -1.7274
 1385SOL    HW3 5307   0.791   6.308   3.477 -0.4839 -0.8631 -1.5274
 1385SOL    MW4 5308   0.758   6.381   3.511  0.2939 -0.1369  0.3323
 1386SOL     OW 5309   3.732   4.557   4.744 -0.1118 -0.3326 -0.5935
 1386SOL    HW2 5310   3.712   4.557   4.650  0.4152  2.0850 -0.7854
 1386SOL    HW3 5311   3.651   4.586   4.785  0.4018  1.1840 -0.5887
 1386SOL    MW4 5312   3.719   4.561   4.737  0.2194 -0.1202 -0.1484
 1387SOL     OW 5313   5.266   0.218   0.539  0.7010 -0.2531  0.5336
 1387SOL    HW2 5314   5.341   0.251   0.588  0.3583 -0.1156  0.9842
 1387SOL    HW3 5315   5.286   0.237   0.448  0.7040  0.8470  0.7443
 1387SOL    MW4 5316   5.278   0.225   0.534 -0.1826 -0.4614  0.4122
 1388SOL     OW 5317   2.786   5.221   2.617  0.2688  0.5540 -0.4227
 1388SOL    HW2 5318   2.692   5.224   2.637  0.1505 -1.4712 -0.5196
 1388SOL    HW3 5319   2.829   5.246   2.699 -0.3312  1.6132 -0.4100
 1388SOL    MW4 5320   2.779   5.225   2.630 -0.0051 -0.0304 -0.1882
 1389SOL     OW 5321   0.375   5.564   2.413  0.0421 -0.2305  0.3182
 1389SOL    HW2 5322   0.427   5.496   2.371 -0.4457 -0.2607 -0.2579
 1389SOL    HW3 5323   0.437   5.634   2.433  0.3756 -0.4474  0.0512
 1389SOL    MW4 5324   0.390   5.564   2.410 -0.1557 -0.2215 -0.0778
 1390SOL     OW 5325   1.598   4.881   0.884  0.7561 -0.4521  0.2749
 1390SOL    HW2 5326   1.608   4.850   0.974 -1.0318 -2.5663 -0.1864
 1390SOL    HW3 5327   1.526   4.944   0.888 -0.1942 -1.5143  0.1397
 1390SOL    MW4 5328   1.590   4.886   0.896  0.2208  0.1778  0.1888
 1391SOL     OW 5329   0.467   1.776   1.148  0.5968  0.1747  0.0798
 1391SOL    HW2 5330   0.394   1.837   1.138 -1.6205 -2.2925  0.1280
 1391SOL    HW3 5331   0.461   1.747   1.239  0.4874 -1.3487 -0.3803
 1391SOL    MW4 5332   0.457   1.780   1.159 -0.5131 -0.0903 -0.1179
 1392SOL     OW 5333   3.403   2.006   5.023  0.2584  0.7477 -0.0214
 1392SOL    HW2 5334   3.323   1.993   4.973  0.6270  1.9730 -1.0008
 1392SOL    HW3 5335   3.389   2.088   5.070  0.9065  0.9368 -0.1488
 1392SOL    MW4 5336   3.391   2.015   5.023  0.1617  0.1815  0.4738
 1393SOL     OW 5337   5.360   5.160   0.606  0.0940  0.6273  0.1432
 1393SOL    HW2 5338   5.446   5.188   0.636  0.4299 -1.3099  1.1468
 1393SOL    HW3 5339   5.336   5.088   0.664 -1.7217  0.3890 -0.8107
 1393SOL    MW4 5340   5.368   5.154   0.618 -0.4225 -0.3517 -0.0351
 1394SOL     OW 5341   1.034   0.312   1.795 -0.1232 -0.3071  0.1545
 1394SOL    HW2 5342   1.055   0.350   1.881 -1.5940  0.5727  0.1473
 1394SOL    HW3 5343   1.047   0.218   1.807 -0.0983 -0.1727  1.2743
 1394SOL    MW4 5344   1.039   0.305   1.808 -0.4145  0.4808 -0.1923
 1395SOL     OW 5345   1.416   3.288   0.474 -0.3620  0.1316  0.0126
 1395SOL    HW2 5346   1.475   3.315   0.404 -0.3919  1.3507  0.4323
 1395SOL    HW3 5347   1.466   3.223   0.523 -0.4722 -1.0096 -1.3260
 1395SOL    MW4 5348   1.430   3.283   0.471 -0.6585  0.0741  0.4774
 1396SOL     OW 5349   1.924   3.183   3.434  0.1813 -0.2621  0.0385
 1396SOL    HW2 5350   1.886   3.160   3.519 -0.1233 -1.4987 -0.4165
 1396SOL    HW3 5351   1.861   3.151   3.370 -1.2062  3.4335 -0.7062
 1396SOL    MW4 5352   1.911   3.176   3.437 -0.2495  0.0825 -0.0367
 1397SOL     OW 5353   3.718   0.382   6.343 -0.5114 -0.2701 -0.1023
 1397SOL    HW2 5354   3.630   0.396   6.308 -0.9732 -1.7432  0.3710
 1397SOL    HW3 5355   3.713   0.297   6.387  1.1024 -0.3014  0.0971
 1397SOL    MW4 5356   3.706   0.373   6.344  0.6774 -0.6839 -0.1520
 1398SOL     OW 5357   0.064   4.835   3.653 -0.2634  0.0049 -0.2375
 1398SOL    HW2 5358   0.129   4.899   3.682  1.8419 -1.1441 -2.0680
 1398SOL    HW3 5359   0.052   4.777   3.729  2.3849 -0.8574 -0.3589
 1398SOL    MW4 5360   0.071   4.836   3.667 -0.1516 -0.0711  0.5208
 1399SOL     OW 5361   6.179   0.831   2.648 -0.8664  0.0977  0.3692
 1399SOL    HW2 5362   6.242   0.770   2.686 -0.4811  0.4606  0.3201
 1399SOL    HW3 5363   6.223   0.916   2.651 -1.6219  0.4821  0.9875
 1399SOL    MW4 5364   6.193   0.834   2.654  0.2743  0.5283 -0.1718
 1400SOL     OW 5365   0.439   3.540   0.902  0.3236  0.2939  0.0189
 1400SOL    HW2 5366   0.392   3.592   0.837 -0.6105  0.8834  1.1223
 1400SOL    HW3 5367   0.374   3.477   0.933  1.5574 -1.9180 -1.6244
 1400SOL    MW4 5368   0.424   3.538   0.897  0.2747 -0.5075  0.2456
 1401SOL     OW 5369   5.088   0.263   5.353 -0.3155  0.5387  0.7800
 1401SOL    HW2 5370   5.183   0.276   5.357 -0.0219 -0.9863 -0.4446
 1401SOL    HW3 5371   5.051   0.350   5.368  1.1905  0.8607  3.2865
 1401SOL    MW4 5372   5.096   0.276   5.356  0.1841 -0.3422  0.0753
 1402SOL     OW 5373   1.470   0.763   0.924  0.4123 -0.2526 -0.1766
 1402SOL    HW2 5374   1.445   0.753   0.832  0.4281 -2.2472 -0.0087
 1402SOL    HW3 5375   1.395   0.729   0.973  1.3328 -1.3773  0.4763
 1402SOL    MW4 5376   1.457   0.757   0.919  0.3491  0.1263  0.7225
 1403SOL     OW 5377   4.275   4.511   3.991  0.1584  0.0061 -0.6202
 1403SOL    HW2 5378   4.253   4.544   4.078 -0.9550 -1.6900 -0.2139
 1403SOL    HW3 5379   4.227   4.567   3.931  0.8495  1.1228 -0.1483
 1403SOL    MW4 5380   4.266   4.522   3.995  0.5851  0.2109  0.3423
 1404SOL     OW 5381   2.674   1.589   0.864 -0.8376  0.3106 -0.1855
 1404SOL    HW2 5382   2.598   1.571   0.919 -0.7020  1.2670  0.3294
 1404SOL    HW3 5383   2.724   1.655   0.911  0.4830 -0.5022 -0.3660
 1404SOL    MW4 5384   2.671   1.595   0.877 -0.4423 -0.1557 -0.1929
 1405SOL     OW 5385   1.553   1.372   1.277 -0.3325  0.2281 -0.2762
 1405SOL    HW2 5386   1.565   1.298   1.217  1.1270 -0.3111  0.6114
 1405SOL    HW3 5387   1.562   1.450   1.223  2.2042 -0.2274 -0.6318
 1405SOL    MW4 5388   1.556   1.372   1.262 -0.2986  0.0200  0.3615
 1406SOL     OW 5389   0.766   0.309   5.541 -0.2683 -0.1085  0.7176
 1406SOL    HW2 5390   0.679   0.338   5.514 -1.2055 -1.3102  2.2325
 1406SOL    HW3 5391   0.790   0.241   5.479  0.3504  1.3178 -0.6759
 1406SOL    MW4 5392   0.758   0.304   5.530  0.6174 -0.1124  0.0958
 1407SOL     OW 5393   0.807   1.420   2.845 -0.4600  0.4056 -0.0695
 1407SOL    HW2 5394   0.739   1.482   2.873 -1.1369 -0.2095 -0.3428
 1407SOL    HW3 5395   0.861   1.471   2.785 -0.5439  0.9655  0.3121
 1407SOL    MW4 5396   0.805   1.435   2.841 -0.3876  0.2322  0.7968
 1408SOL     OW 5397   2.429   3.367   3.142  0.0832  0.0869 -0.4539
 1408SOL    HW2 5398   2.433   3.358   3.237  1.2654 -0.8512 -0.5648
 1408SOL    HW3 5399   2.511   3.328   3.111 -0.6457 -0.3578 -1.9059
 1408SOL    MW4 5400   2.441   3.360   3.150 -0.4663  0.0995  1.1772
 1409SOL     OW 5401   0.214   0.551   3.507 -0.0035  0.0822 -0.2305
 1409SOL    HW2 5402   0.168   0.468   3.497  1.4490 -0.5984 -1.6907
 1409SOL    HW3 5403   0.224   0.584   3.417  0.9909  0.9608  0.1775
 1409SOL    MW4 5404   0.209   0.545   3.494 -0.1138  0.0434 -0.2059
 1410SOL     OW 5405   6.015   1.377   5.923  0.2506  0.4986  0.2406
 1410SOL    HW2 5406   5.939   1.397   5.868 -0.8309 -0.1142  1.4784
 1410SOL    HW3 5407   6.077   1.446   5.903 -0.9993  1.5617 -0.0988
 1410SOL    MW4 5408   6.013   1.388   5.913  0.2763 -0.0339  0.4352
 1411SOL     OW 5409   4.350   0.337   1.993  0.7397  0.2519 -0.0472
 1411SOL    HW2 5410   4.322   0.270   1.931 -0.7236  0.0433  0.8032
 1411SOL    HW3 5411   4.437   0.307   2.023  1.0801 -0.0790 -1.3268
 1411SOL    MW4 5412   4.358   0.324   1.989  0.3414 -0.4097  0.4443
 1412SOL     OW 5413   0.783   4.025   2.728  0.4375  0.6738  0.0740
 1412SOL    HW2 5414   0.705   3.991   2.685  0.3790  1.6200 -0.6161
 1412SOL    HW3 5415   0.756   4.110   2.763  0.9823  0.7191  0.4029
 1412SOL    MW4 5416   0.769   4.032   2.727  0.4149  0.1419 -0.2200
 1413SOL     OW 5417   1.410   0.258   2.892 -0.5105 -0.3744 -0.7234
 1413SOL    HW2 5418   1.502   0.249   2.917 -0.9530 -0.9391  0.7993
 1413SOL    HW3 5419   1.396   0.188   2.828  0.0906 -0.3307 -0.9111
 1413SOL    MW4 5420   1.420   0.248   2.887 -0.6476 -0.7776 -0.5051
 1414SOL     OW 5421   1.643   0.520   4.648  0.5650 -0.4014  0.1942
 1414SOL    HW2 5422   1.707   0.537   4.717  0.0695  3.0673 -0.0048
 1414SOL    HW3 5423   1.695   0.507   4.569  1.0459 -0.7247  0.5530
 1414SOL    MW4 5424   1.658   0.521   4.647  0.2252  0.1408 -0.1413
 1415SOL     OW 5425   1.038   6.033   0.970 -0.0333  0.4397  0.3429
 1415SOL    HW2 5426   1.060   6.116   0.927  2.1392  0.1106  0.6840
 1415SOL    HW3 5427   1.107   5.972   0.941 -0.9698 -0.9553  0.9504
 1415SOL    MW4 5428   1.050   6.036   0.960 -0.1424 -0.1946  0.1191
 1416SOL     OW 5429   3.662   5.728   4.854  0.4271 -0.6434  0.0473
 1416SOL    HW2 5430   3.728   5.695   4.793 -1.4540 -0.6179 -2.1532
 1416SOL    HW3 5431   3.692   5.816   4.876  1.9812 -1.2555  0.5200
 1416SOL    MW4 5432   3.675   5.735   4.849  0.0416  0.2389 -0.5972
 1417SOL     OW 5433   1.507   2.170   3.355  0.5783 -0.2067 -0.2859
 1417SOL    HW2 5434   1.485   2.238   3.291 -0.2734 -0.8062 -0.6539
 1417SOL    HW3 5435   1.583   2.126   3.318  0.0409 -0.6037 -0.9465
 1417SOL    MW4 5436   1.514   2.173   3.342  0.1736 -0.0288  0.0046
 1418SOL     OW 5437   4.108   5.433   3.694 -0.0069 -0.2091  0.0880
 1418SOL    HW2 5438   4.086   5.341   3.703 -0.7388  0.0687  1.5678
 1418SOL    HW3 5439   4.197   5.440   3.727  0.2596 -0.4682 -0.5671
 1418SOL    MW4 5440   4.117   5.422   3.700 -0.0923  0.6854 -0.8767
 1419SOL     OW 5441   4.618   3.235   1.743  0.4290  0.1428  0.5151
 1419SOL    HW2 5442   4.526   3.256   1.726 -0.3067 -3.5810 -1.0538
 1419SOL    HW3 5443   4.625   3.237   1.838 -2.0807 -1.8672  0.8847
 1419SOL    MW4 5444   4.607   3.238   1.753 -0.5501  0.1512 -0.2375
 1420SOL     OW 5445   3.324   6.138   3.579  0.2274  0.0521 -0.4850
 1420SOL    HW2 5446   3.321   6.232   3.596 -0.4610  0.2066 -1.3857
 1420SOL    HW3 5447   3.232   6.110   3.581  0.5367 -1.2192  2.8562
 1420SOL    MW4 5448   3.312   6.147   3.581 -0.2063 -0.3897 -0.1593
 1421SOL     OW 5449   4.632   0.896   0.190  0.3425  0.2992 -0.2091
 1421SOL    HW2 5450   4.649   0.802   0.194  1.3331  0.5009  1.0517
 1421SOL    HW3 5451   4.564   0.906   0.124 -0.0782 -1.3472 -0.0545
 1421SOL    MW4 5452   4.625   0.885   0.182  0.1355 -0.5702  0.4019
 1422SOL     OW 5453   4.361   1.892   2.368  0.4983 -0.2442 -0.0470
 1422SOL    HW2 5454   4.323   1.964   2.419 -1.0102 -1.8244  1.2255
 1422SOL    HW3 5455   4.292   1.867   2.307  0.4372 -1.4721  0.4866
 1422SOL    MW4 5456   4.347   1.898   2.367  0.6683 -0.2309  0.4551
 1423SOL     OW 5457   1.585   0.502   0.967 -0.1840  0.0380 -0.1247
 1423SOL    HW2 5458   1.569   0.590   0.934  1.5287 -0.2386 -1.8705
 1423SOL    HW3 5459   1.673   0.480   0.937 -0.9586 -2.6951 -0.7330
 1423SOL    MW4 5460   1.595   0.510   0.959 -0.4018 -0.4560  0.3901
 1424SOL     OW 5461   0.215   3.647   1.356 -0.6751 -0.2296 -0.3685
 1424SOL    HW2 5462   0.292   3.683   1.312 -0.2468 -0.6539  0.0355
 1424SOL    HW3 5463   0.195   3.710   1.426 -1.5380  0.6080 -1.3189
 1424SOL    MW4 5464   0.222   3.660   1.359  0.1531  0.0297  0.0230
 1425SOL     OW 5465   5.786   1.008   5.954  0.2753 -0.0153  0.1133
 1425SOL    HW2 5466   5.731   1.082   5.982 -0.6024 -0.3821 -0.5729
 1425SOL    HW3 5467   5.798   0.956   6.034 -0.0861  0.2575  0.3502
 1425SOL    MW4 5468   5.780   1.011   5.968 -0.0490 -0.0838 -0.1897
 1426SOL     OW 5469   4.244   4.119   4.851  0.1284  0.2837 -0.5078
 1426SOL    HW2 5470   4.314   4.069   4.809  0.8319  0.0466  0.9004
 1426SOL    HW3 5471   4.288   4.170   4.919 -1.1615 -0.5185  0.9809
 1426SOL    MW4 5472   4.259   4.119   4.854 -0.3585 -0.2743 -0.2755
 1427SOL     OW 5473   5.251   0.419   4.084 -0.3984 -0.2642  0.1778
 1427SOL    HW2 5474   5.345   0.407   4.093 -0.5629 -0.9677  1.0449
 1427SOL    HW3 5475   5.241   0.507   4.048  0.5559  0.1492  0.8980
 1427SOL    MW4 5476   5.262   0.429   4.080  1.1934  0.6746 -0.1230
 1428SOL     OW 5477   0.223   5.828   3.195  0.2246  0.3572  0.1553
 1428SOL    HW2 5478   0.194   5.827   3.104  1.1022 -0.6010 -0.1342
 1428SOL    HW3 5479   0.148   5.795   3.244  0.0235  0.1028 -0.3133
 1428SOL    MW4 5480   0.209   5.823   3.189  0.0514 -0.1944  0.1345
 1429SOL     OW 5481   6.168   3.872   1.290  0.2407 -0.1193 -0.3122
 1429SOL    HW2 5482   6.228   3.852   1.218  0.2934  2.0105 -0.9508
 1429SOL    HW3 5483   6.196   3.817   1.362  1.5185 -0.8056 -1.3018
 1429SOL    MW4 5484   6.179   3.862   1.290 -0.0713  0.3288 -0.0709
 1430SOL     OW 5485   5.940   1.639   4.902  0.3105  0.3523 -0.5000
 1430SOL    HW2 5486   5.906   1.622   4.989  0.9637 -3.0840 -0.7673
 1430SOL    HW3 5487   6.030   1.669   4.917  0.1947  0.4641 -0.0105
 1430SOL    MW4 5488   5.947   1.641   4.915  0.0887  0.0950 -0.0294
 1431SOL     OW 5489   1.419   0.873   0.268  0.0619 -0.1814  0.3725
 1431SOL    HW2 5490   1.439   0.920   0.187  0.0609  1.8041  1.4573
 1431SOL    HW3 5491   1.379   0.791   0.239  0.0589  0.4642 -1.6229
 1431SOL    MW4 5492   1.417   0.868   0.254 -0.3480 -0.1397 -0.1256
 1432SOL     OW 5493   4.703   0.168   0.231  0.1205  0.5281 -0.1498
 1432SOL    HW2 5494   4.688   0.075   0.247 -0.6176  0.5572 -0.6255
 1432SOL    HW3 5495   4.798   0.179   0.240  0.2448 -0.3153 -0.3323
 1432SOL    MW4 5496   4.714   0.157   0.235  0.3175 -0.7792  0.3538
 1433SOL     OW 5497   1.691   2.237   4.499  0.4585 -0.3541  0.2653
 1433SOL    HW2 5498   1.645   2.154   4.510 -0.0477  0.0067  0.9905
 1433SOL    HW3 5499   1.621   2.301   4.480  0.7845 -0.0183  0.1849
 1433SOL    MW4 5500   1.675   2.235   4.498  0.5517  0.0219 -0.3599
 1434SOL     OW 5501   1.035   1.461   3.882  0.3035  0.1805  0.2307
 1434SOL    HW2 5502   1.010   1.536   3.829  1.2373 -0.9960 -1.9897
 1434SOL    HW3 5503   0.969   1.395   3.863  0.6268 -0.2560  0.5889
 1434SOL    MW4 5504   1.023   1.462   3.873  0.2894 -0.0628 -0.2685
 1435SOL     OW 5505   3.837   0.376   4.357  0.7406 -0.6924 -0.2421
 1435SOL    HW2 5506   3.793   0.460   4.363  1.0833 -0.2837 -2.6418
 1435SOL    HW3 5507   3.768   0.314   4.333  0.6966 -0.9061  0.4086
 1435SOL    MW4 5508   3.822   0.379   4.355 -0.4009  0.3178  0.3539
 1436SOL     OW 5509   3.042   3.987   5.554 -0.4467 -0.0356  0.5068
 1436SOL    HW2 5510   3.054   3.923   5.625  0.9957  0.7278  0.9981
 1436SOL    HW3 5511   2.982   4.052   5.591 -0.8396 -0.3891  0.4988
 1436SOL    MW4 5512   3.036   3.987   5.569 -0.3551 -0.3480  0.0373
 1437SOL     OW 5513   3.447   1.310   1.348  0.3529  0.7758  0.0253
 1437SOL    HW2 5514   3.425   1.260   1.269  1.3542  0.6331 -0.1811
 1437SOL    HW3 5515   3.393   1.389   1.342 -0.0051  0.4937 -0.5082
 1437SOL    MW4 5516   3.437   1.314   1.336  0.2507  0.0905  0.7713
 1438SOL     OW 5517   6.224   1.155   4.643  0.1050 -0.0211  0.2931
 1438SOL    HW2 5518   6.298   1.098   4.623  0.4327  0.4659  0.0974
 1438SOL    HW3 5519   6.147   1.099   4.633  0.5094 -0.9110  1.8230
 1438SOL    MW4 5520   6.223   1.140   4.639  0.0538 -0.0512 -0.1448
 1439SOL     OW 5521   2.808   5.482   5.037 -0.5814  0.0075  0.3311
 1439SOL    HW2 5522   2.789   5.399   5.081  2.2954 -0.5519  0.7095
 1439SOL    HW3 5523   2.849   5.457   4.955  1.3744  1.0062  0.9518
 1439SOL    MW4 5524   2.811   5.468   5.032 -0.3456 -0.5965 -0.5450
 1440SOL     OW 5525   1.201   0.909   4.553 -0.5199 -0.1743 -0.6148
 1440SOL    HW2 5526   1.287   0.878   4.580 -0.7091  0.3248  0.6489
 1440SOL    HW3 5527   1.217   0.959   4.473  0.2834 -0.5255 -0.6793
 1440SOL    MW4 5528   1.215   0.911   4.546  0.3732  0.4364 -0.0821
 1441SOL     OW 5529   0.447   0.103   5.240 -0.4948 -0.0712 -0.1265
 1441SOL    HW2 5530   0.461   0.008   5.235  0.3865  0.0780 -0.7772
 1441SOL    HW3 5531   0.373   0.113   5.300  0.6434 -1.0609  1.5373
 1441SOL    MW4 5532   0.439   0.092   5.247  0.0079 -0.2259 -0.0040
 1442SOL     OW 5533   2.711   0.773   0.254 -0.0143  0.1766  0.5394
 1442SOL    HW2 5534   2.802   0.793   0.273 -0.1524  1.6834 -0.3082
 1442SOL    HW3 5535   2.676   0.852   0.214 -0.6567 -1.6409 -2.8490
 1442SOL    MW4 5536   2.718   0.786   0.251 -0.9554 -0.3116  0.2018
 1443SOL     OW 5537   0.700   6.172   0.420 -0.2517 -0.3467  0.2145
 1443SOL    HW2 5538   0.672   6.136   0.335 -0.0679 -0.3303  0.1466
 1443SOL    HW3 5539   0.697   6.097   0.479  0.1216 -0.4742  0.0740
 1443SOL    MW4 5540   0.695   6.157   0.417  0.7687  0.3036 -0.5480
 1444SOL     OW 5541   1.855   1.646   5.380 -0.2764 -0.4860  0.2549
 1444SOL    HW2 5542   1.843   1.661   5.473 -1.2266 -0.4144  0.1280
 1444SOL    HW3 5543   1.776   1.601   5.352 -0.4111  0.3093 -0.6986
 1444SOL    MW4 5544   1.843   1.642   5.388  0.1874  0.2763 -0.6456
 1445SOL     OW 5545   5.225   1.461   3.862  0.2343 -0.1956 -0.5277
 1445SOL    HW2 5546   5.224   1.371   3.830  3.1730 -0.7903  0.7252
 1445SOL    HW3 5547   5.263   1.511   3.790  0.1846 -0.2526 -0.5941
 1445SOL    MW4 5548   5.229   1.456   3.848 -0.0043  0.3498  0.0745
 1446SOL     OW 5549   3.186   6.296   1.003 -0.0038  0.8858  0.0575
 1446SOL    HW2 5550   3.245   6.251   0.943  0.2383 -0.2329  1.0910
 1446SOL    HW3 5551   3.202   6.390   0.988  0.5190  0.6188 -1.1257
 1446SOL    MW4 5552   3.196   6.303   0.993 -0.2994  0.2869  0.6476
 1447SOL     OW 5553   6.415   6.205   1.135  0.2812  0.2444  0.0740
 1447SOL    HW2 5554   6.321   6.209   1.152  0.4131 -1.7016  1.5109
 1447SOL    HW3 5555   6.437   6.293   1.103 -2.7560 -0.3818 -4.7274
 1447SOL    MW4 5556   6.405   6.217   1.133  0.2082  0.1027  0.4029
 1448SOL     OW 5557   2.842   2.362   1.228  0.3275  0.1257  0.4364
 1448SOL    HW2 5558   2.848   2.453   1.197  0.8901 -0.5159 -1.4769
 1448SOL    HW3 5559   2.892   2.312   1.164  1.8266 -1.3185  2.5842
 1448SOL    MW4 5560   2.850   2.368   1.216  0.6739 -0.0419 -0.2789
 1449SOL     OW 5561   0.468   3.193   3.281 -0.2172  0.2178  0.4631
 1449SOL    HW2 5562   0.373   3.207   3.282 -0.0953  1.1860 -0.1044
 1449SOL    HW3 5563   0.480   3.110   3.236 -0.7792  0.2443  0.2588
 1449SOL    MW4 5564   0.457   3.184   3.275  0.7517 -0.3077 -0.1375
 1450SOL     OW 5565   6.297   5.473   0.376  0.4373 -0.3408 -0.5649
 1450SOL    HW2 5566   6.279   5.423   0.296 -1.2039 -2.7748  1.1480
 1450SOL    HW3 5567   6.387   5.448   0.399 -0.4811 -3.0711  0.4821
 1450SOL    MW4 5568   6.307   5.463   0.368 -0.4550 -0.0041  0.1550
 1451SOL     OW 5569   2.308   4.380   5.141  0.3461  0.2114 -0.0206
 1451SOL    HW2 5570   2.323   4.472   5.165  0.9736 -0.0134  0.4732
 1451SOL    HW3 5571   2.213   4.373   5.133  0.1607  0.5121  1.5785
 1451SOL    MW4 5572   2.298   4.391   5.143 -0.4554 -0.0495 -0.1822
 1452SOL     OW 5573   4.976   4.293   0.801  0.5125  0.5695  0.2763
 1452SOL    HW2 5574   5.001   4.286   0.893 -0.6842 -1.6123  0.4943
 1452SOL    HW3 5575   5.059   4.301   0.754  1.3333 -1.1078  1.3507
 1452SOL    MW4 5576   4.990   4.293   0.807 -0.0878  0.3096 -0.0858
 1453SOL     OW 5577   0.523   1.041   5.732  0.2663 -0.5942  0.1039
 1453SOL    HW2 5578   0.481   1.090   5.662  1.1078  3.1226  1.9170
 1453SOL    HW3 5579   0.606   1.086   5.747  0.5380 -1.7797  2.8428
 1453SOL    MW4 5580   0.529   1.053   5.725  0.2365 -0.3022  0.5198
 1454SOL     OW 5581   2.552   0.068   3.802 -0.0582 -0.0812 -0.6595
 1454SOL    HW2 5582   2.613  -0.005   3.813  0.7973  0.5007 -1.3922
 1454SOL    HW3 5583   2.581   0.132   3.867 -0.3888 -0.1105 -0.4789
 1454SOL    MW4 5584   2.564   0.067   3.812 -0.2019 -0.0995  0.8269
 1455SOL     OW 5585   6.385   0.635   2.720  0.5728  0.3515 -0.8724
 1455SOL    HW2 5586   6.415   0.649   2.810  0.0104  0.2195 -0.6588
 1455SOL    HW3 5587   6.346   0.547   2.722  1.1286  0.0828 -1.4009
 1455SOL    MW4 5588   6.384   0.625   2.732  0.2599 -0.0237 -0.2528
 1456SOL     OW 5589   5.759   2.036   1.517  0.1301 -0.0514 -0.3141
 1456SOL    HW2 5590   5.783   1.980   1.443  0.5514  0.9274 -0.9426
 1456SOL    HW3 5591   5.827   2.018   1.582  1.3481  1.0662 -1.2299
 1456SOL    MW4 5592   5.771   2.026   1.516 -0.4220  0.3426  0.0576
 1457SOL     OW 5593   1.676   3.253   1.794 -0.2744  0.4336  0.4554
 1457SOL    HW2 5594   1.609   3.188   1.817 -0.8395  0.7656 -0.2060
 1457SOL    HW3 5595   1.758   3.215   1.825 -0.1141 -2.0134 -2.4747
 1457SOL    MW4 5596   1.678   3.239   1.802 -0.2486 -0.1176  0.0745
 1458SOL     OW 5597   1.437   3.243   5.546 -0.2497 -0.3646  0.3188
 1458SOL    HW2 5598   1.435   3.245   5.642  2.3210 -0.0365  0.4213
 1458SOL    HW3 5599   1.505   3.179   5.524 -0.5529 -0.1801 -1.3071
 1458SOL    MW4 5600   1.446   3.235   5.556  0.5783 -0.3762  0.9359
 1459SOL     OW 5601   0.844   1.588   1.017  0.8010 -0.2800  0.3736
 1459SOL    HW2 5602   0.784   1.661   1.005 -1.0744 -1.7453  0.3112
 1459SOL    HW3 5603   0.926   1.617   0.979 -0.6694  0.7750 -2.2477
 1459SOL    MW4 5604   0.847   1.601   1.010  0.1170 -0.9212  0.3358
 1460SOL     OW 5605   1.325   4.189   3.547 -0.3986  0.0238 -0.4473
 1460SOL    HW2 5606   1.397   4.183   3.484  1.2873 -1.6366  1.4795
 1460SOL    HW3 5607   1.307   4.098   3.571 -0.0605  0.6027  2.3510
 1460SOL    MW4 5608   1.332   4.176   3.542  0.0488 -0.3574 -0.1395
 1461SOL     OW 5609   3.327   5.333   6.063  0.1682 -0.1516  0.2904
 1461SOL    HW2 5610   3.340   5.242   6.034 -0.8613 -0.0788 -0.4653
 1461SOL    HW3 5611   3.233   5.339   6.080  0.3040  0.6516  0.8067
 1461SOL    MW4 5612   3.316   5.322   6.062  1.0175 -0.0707 -0.5465
 1462SOL     OW 5613   0.247   3.610   5.743  0.2977  0.1315  0.5446
 1462SOL    HW2 5614   0.250   3.701   5.712  0.0089  0.1538  0.5736
 1462SOL    HW3 5615   0.301   3.609   5.822  0.9545  0.0978  0.1011
 1462SOL    MW4 5616   0.254   3.622   5.749 -0.2653 -0.1055  0.0535
 1463SOL     OW 5617   1.046   1.628   5.660 -0.2285  0.2015  0.0149
 1463SOL    HW2 5618   1.097   1.552   5.633  0.5435  0.6865  0.1007
 1463SOL    HW3 5619   0.979   1.637   5.592  1.6576  1.3787 -1.8024
 1463SOL    MW4 5620   1.044   1.619   5.648  0.5315 -0.2528  0.1429
 1464SOL     OW 5621   5.525   5.788   1.817  0.3306  0.0114 -0.3949
 1464SOL    HW2 5622   5.564   5.870   1.846  1.0402  0.1285 -1.6110
 1464SOL    HW3 5623   5.471   5.759   1.891  1.6583  0.5362  0.8196
 1464SOL    MW4 5624   5.523   5.795   1.831  0.4383 -0.3224 -0.0271
 1465SOL     OW 5625   0.964   2.466   1.865  0.6463  0.5025  0.5218
 1465SOL    HW2 5626   0.907   2.500   1.934 -0.5632  1.1940 -0.7648
 1465SOL    HW3 5627   0.916   2.482   1.784  0.5037 -3.2486 -0.3037
 1465SOL    MW4 5628   0.950   2.472   1.863  0.0420  0.0071 -0.1102
 1466SOL     OW 5629   3.687   5.433   2.339  0.0958  0.2101  0.9330
 1466SOL    HW2 5630   3.770   5.421   2.386  1.5706 -0.4694 -1.6342
 1466SOL    HW3 5631   3.688   5.525   2.310  0.7848 -0.1977 -0.4414
 1466SOL    MW4 5632   3.698   5.444   2.341  0.6825 -0.6285 -0.1417
 1467SOL     OW 5633   4.921   0.279   2.483 -0.0714  0.7145 -0.0156
 1467SOL    HW2 5634   4.969   0.361   2.474  2.1733 -0.6330 -1.0596
 1467SOL    HW3 5635   4.979   0.224   2.535 -1.3044 -0.4097  0.2076
 1467SOL    MW4 5636   4.935   0.283   2.489  0.6477  0.6112 -0.6003
 1468SOL     OW 5637   1.751   5.501   0.260  0.0399  0.0975 -0.0532
 1468SOL    HW2 5638   1.722   5.543   0.178 -1.7547 -0.7509  0.0944
 1468SOL    HW3 5639   1.753   5.572   0.324 -0.0584  0.4898 -0.4793
 1468SOL    MW4 5640   1.748   5.516   0.257  0.1642 -0.5147 -0.6044
 1469SOL     OW 5641   5.072   5.385   4.272  0.7261 -0.4661 -0.0282
 1469SOL    HW2 5642   5.086   5.360   4.364 -0.4048 -0.7802  0.0630
 1469SOL    HW3 5643   5.128   5.325   4.222 -1.1689 -2.5710  0.2488
 1469SOL    MW4 5644   5.081   5.374   4.278  0.6045 -0.0770  0.0360
 1470SOL     OW 5645   5.205   2.077   2.778  0.4923 -0.0350 -0.1850
 1470SOL    HW2 5646   5.227   2.170   2.768 -4.5456  1.4398 -0.3761
 1470SOL    HW3 5647   5.152   2.074   2.858  1.9454 -3.2195  0.8341
 1470SOL    MW4 5648   5.201   2.089   2.787 -0.4480 -0.0491 -0.6503
 1471SOL     OW 5649   0.869   2.798   4.360  0.5418 -0.0185  0.1624
 1471SOL    HW2 5650   0.839   2.888   4.361 -0.3121 -0.2764  2.1473
 1471SOL    HW3 5651   0.816   2.756   4.291  0.7348  0.8886 -0.5620
 1471SOL    MW4 5652   0.858   2.804   4.351  0.6983  0.4904 -0.1086
 1472SOL     OW 5653   2.843   5.363   0.607 -0.0534  0.0563 -0.0741
 1472SOL    HW2 5654   2.882   5.289   0.654  0.9892  0.1915 -0.7178
 1472SOL    HW3 5655   2.811   5.325   0.525  0.9328  0.3991 -0.6287
 1472SOL    MW4 5656   2.844   5.348   0.603 -0.5269  0.1166  1.2431
 1473SOL     OW 5657   5.607   4.234   6.365  0.1332 -0.5735  0.4234
 1473SOL    HW2 5658   5.598   4.203   6.275  1.3008 -1.2815  0.5243
 1473SOL    HW3 5659   5.524   4.276   6.385  0.3063  0.7551 -1.4205
 1473SOL    MW4 5660   5.595   4.236   6.356 -0.0901 -0.4949 -0.2810
 1474SOL     OW 5661   3.708   3.334   3.691 -0.0351 -0.1290  0.7333
 1474SOL    HW2 5662   3.753   3.409   3.731 -1.4006  1.7262 -1.0228
 1474SOL    HW3 5663   3.635   3.316   3.751 -0.6777  1.0740  0.3429
 1474SOL    MW4 5664   3.704   3.342   3.704  0.2544 -0.9053 -0.0446
 1475SOL     OW 5665   2.845   6.121   1.230 -0.1630  0.2104  0.0097
 1475SOL    HW2 5666   2.797   6.204   1.230 -0.6753 -0.0853 -0.0890
 1475SOL    HW3 5667   2.926   6.141   1.277 -0.4421  0.6785  0.3076
 1475SOL    MW4 5668   2.849   6.134   1.236 -0.1263 -0.2469  0.4469
 1476SOL     OW 5669   2.945   1.360   2.719 -0.2023  0.1063  0.2860
 1476SOL    HW2 5670   2.983   1.278   2.687 -0.6677 -0.2394  0.6151
 1476SOL    HW3 5671   3.018   1.423   2.715  0.6528 -0.7329  1.6469
 1476SOL    MW4 5672   2.960   1.358   2.714  0.7062 -0.2359 -0.5213
 1477SOL     OW 5673   2.469   3.734   2.661 -0.5470  0.4302 -0.1766
 1477SOL    HW2 5674   2.377   3.712   2.648  0.1446 -2.0567 -1.4043
 1477SOL    HW3 5675   2.507   3.731   2.574  0.9744  0.1379  0.4644
 1477SOL    MW4 5676   2.462   3.731   2.648  0.4420 -0.5831 -0.2756
 1478SOL     OW 5677   5.212   5.999   6.267  0.1424  0.2680 -0.2546
 1478SOL    HW2 5678   5.253   6.074   6.310 -0.1834  0.8795 -0.9744
 1478SOL    HW3 5679   5.281   5.934   6.260  0.5836  0.7180 -0.1170
 1478SOL    MW4 5680   5.226   6.001   6.272 -0.1998 -0.1076 -0.2393
 1479SOL     OW 5681   2.524   6.022   3.399  0.6824 -0.0286  0.2949
 1479SOL    HW2 5682   2.431   6.014   3.417  0.6098 -0.3419 -0.2064
 1479SOL    HW3 5683   2.563   5.948   3.447  1.0251  1.6934  2.8642
 1479SOL    MW4 5684   2.517   6.011   3.408  0.0325 -0.1050  0.4965
 1480SOL     OW 5685   5.406   0.770   5.880  0.4692  0.2363  0.2704
 1480SOL    HW2 5686   5.495   0.778   5.845  0.6698 -0.5123  0.5882
 1480SOL    HW3 5687   5.357   0.839   5.836  1.0484  0.2112 -0.4374
 1480SOL    MW4 5688   5.411   0.780   5.869  0.5162 -0.7173  0.1156
 1481SOL     OW 5689   4.931   3.874   3.351 -0.0970 -0.3136 -0.6096
 1481SOL    HW2 5690   4.855   3.853   3.406  0.7783  1.3616  1.3702
 1481SOL    HW3 5691   4.951   3.965   3.372  1.4585 -0.2003 -2.3615
 1481SOL    MW4 5692   4.924   3.883   3.361 -0.0293  0.6948  0.6743
 1482SOL     OW 5693   2.267   1.230   0.217 -0.1882  0.0426  0.4291
 1482SOL    HW2 5694   2.215   1.152   0.197  0.3884 -0.1990 -0.1740
 1482SOL    HW3 5695   2.356   1.197   0.231 -0.3133  0.3464  2.2373
 1482SOL    MW4 5696   2.272   1.215   0.216  0.0094 -0.2514  0.3408
 1483SOL     OW 5697   4.994   4.137   1.985 -0.2336 -0.5431 -0.0766
 1483SOL    HW2 5698   4.982   4.232   1.979  0.0688 -0.3820  1.4285
 1483SOL    HW3 5699   4.905   4.103   1.999 -0.2202 -0.3673  0.4674
 1483SOL    MW4 5700   4.981   4.145   1.986 -0.0240 -0.1535  0.5858
 1484SOL     OW 5701   4.152   2.742   5.103  0.0785  0.0314  0.3707
 1484SOL    HW2 5702   4.217   2.811   5.102 -1.3723  1.6339  3.0024
 1484SOL    HW3 5703   4.176   2.684   5.031  3.0157  1.7307 -0.1614
 1484SOL    MW4 5704   4.163   2.743   5.094  0.6707 -0.6222 -0.0226
 1485SOL     OW 5705   2.832   6.411   4.693 -0.2972 -0.0344  0.2884
 1485SOL    HW2 5706   2.845   6.474   4.622  1.3037 -1.6370 -0.9247
 1485SOL    HW3 5707   2.921   6.381   4.715 -0.6995  0.5614  3.1791
 1485SOL    MW4 5708   2.846   6.415   4.686  0.8950  0.2728 -0.4160
 1486SOL     OW 5709   2.939   3.233   2.653  0.1601 -0.1765 -0.0126
 1486SOL    HW2 5710   2.900   3.245   2.567  0.3127  1.0140  0.0637
 1486SOL    HW3 5711   2.904   3.150   2.684 -0.0593 -0.5187 -1.1288
 1486SOL    MW4 5712   2.929   3.223   2.646  0.4387 -0.1389  0.4134
 1487SOL     OW 5713   2.634   5.560   5.336  0.0903 -0.0834  0.1536
 1487SOL    HW2 5714   2.624   5.530   5.246 -0.5880  0.5695  0.0021
 1487SOL    HW3 5715   2.711   5.513   5.369 -0.2983 -1.1492 -0.4129
 1487SOL    MW4 5716   2.643   5.550   5.329  0.2261 -0.5056 -0.8585
 1488SOL     OW 5717   1.351   5.739   3.709 -0.4638 -0.5657  0.0518
 1488SOL    HW2 5718   1.337   5.816   3.654 -1.5520 -2.1295 -1.9354
 1488SOL    HW3 5719   1.278   5.741   3.771 -1.6699 -1.0831 -1.3123
 1488SOL    MW4 5720   1.340   5.750   3.710 -0.3168 -0.3906 -0.0110
 1489SOL     OW 5721   0.563   4.160   3.629  0.1039 -0.0984  0.3610
 1489SOL    HW2 5722   0.580   4.235   3.686  2.1219 -0.4729  0.3176
 1489SOL    HW3 5723   0.602   4.184   3.545 -1.9566  0.0294 -0.6246
 1489SOL    MW4 5724   0.570   4.173   3.625 -0.1023 -0.1905 -0.7003
 1490SOL     OW 5725   5.699   2.399   4.587 -0.7140  0.3909 -0.0292
 1490SOL    HW2 5726   5.783   2.417   4.544 -0.0516 -0.8472  0.6984
 1490SOL    HW3 5727   5.722   2.380   4.678 -2.1320  3.4955  1.1379
 1490SOL    MW4 5728   5.713   2.399   4.593  0.8942  0.9751  0.5110
 1491SOL     OW 5729   4.657   1.025   2.865 -0.0387  0.0323  0.3699
 1491SOL    HW2 5730   4.688   0.946   2.909  2.4811 -0.5046 -2.0799
 1491SOL    HW3 5731   4.604   0.992   2.792 -2.4853  0.8377  1.6734
 1491SOL    MW4 5732   4.654   1.010   2.861  0.2492  0.5318  0.4424
 1492SOL     OW 5733   4.224   4.332   4.305  0.5730  0.6471  0.3822
 1492SOL    HW2 5734   4.236   4.284   4.387 -2.0070 -0.6436  0.1204
 1492SOL    HW3 5735   4.167   4.405   4.329  0.6116  0.8315 -0.0805
 1492SOL    MW4 5736   4.218   4.335   4.319  0.7863 -0.3680  0.6093
 1493SOL     OW 5737   2.085   2.066   1.663  0.1342  0.2617  0.1588
 1493SOL    HW2 5738   2.122   2.110   1.587  0.8019  0.3764  0.5351
 1493SOL    HW3 5739   2.006   2.024   1.631 -0.9734  2.3858 -0.0295
 1493SOL    MW4 5740   2.080   2.066   1.649  0.2823 -0.0787 -0.3705
 1494SOL     OW 5741   4.479   0.371   4.729  0.6927  0.1518  0.1938
 1494SOL    HW2 5742   4.569   0.363   4.697  0.6881  0.6065  0.0544
 1494SOL    HW3 5743   4.449   0.281   4.738  0.8746  0.0067 -0.5910
 1494SOL    MW4 5744   4.487   0.358   4.726  0.4679 -0.4609  0.0975
 1495SOL     OW 5745   5.505   3.764   4.895 -0.6841  0.2097 -0.1792
 1495SOL    HW2 5746   5.437   3.722   4.948 -0.8939  1.0256  0.2140
 1495SOL    HW3 5747   5.582   3.764   4.951 -0.8840  0.9975  0.1122
 1495SOL    MW4 5748   5.506   3.758   4.909  0.3694  0.0616  0.3120
 1496SOL     OW 5749   1.560   4.498   2.168 -0.0589 -0.0420  0.0716
 1496SOL    HW2 5750   1.574   4.416   2.216 -2.0253 -0.8577 -0.6529
 1496SOL    HW3 5751   1.646   4.519   2.131  0.1400 -2.7942 -1.2872
 1496SOL    MW4 5752   1.573   4.490   2.170  0.1148  0.0952 -0.6892
 1497SOL     OW 5753   5.953   5.273   0.280  0.0769  0.5332 -0.3182
 1497SOL    HW2 5754   5.921   5.186   0.256 -2.7169  1.2840  0.3190
 1497SOL    HW3 5755   6.025   5.257   0.341 -0.6800 -1.3456  0.1489
 1497SOL    MW4 5756   5.958   5.259   0.285 -0.1889 -0.4952  0.2615
 1498SOL     OW 5757   4.922   6.174   6.313 -0.7790 -0.8131 -0.5137
 1498SOL    HW2 5758   4.882   6.254   6.278 -1.7196 -1.2625 -0.4985
 1498SOL    HW3 5759   4.856   6.106   6.299 -0.3356 -1.4188  0.2417
 1498SOL    MW4 5760   4.908   6.175   6.307  0.1241 -0.3638 -0.2988
 1499SOL     OW 5761   3.078   3.761   3.421 -0.0481 -0.5222  0.4144
 1499SOL    HW2 5762   3.021   3.686   3.404  0.7635 -1.0313 -0.1446
 1499SOL    HW3 5763   3.166   3.723   3.430  0.4928  0.4162 -0.6136
 1499SOL    MW4 5764   3.082   3.746   3.420 -0.3564  0.4536 -0.3139
 1500SOL     OW 5765   4.909   4.062   1.264  0.1323  0.1564 -0.1787
 1500SOL    HW2 5766   4.964   4.054   1.187 -3.5111  0.6254 -3.1290
 1500SOL    HW3 5767   4.914   3.975   1.305  1.3867 -0.4559 -1.5215
 1500SOL    MW4 5768   4.917   4.049   1.259 -0.3514  0.2299 -0.0266
 1501SOL     OW 5769   3.922   4.430   4.014  0.2667  0.4074 -0.4236
 1501SOL    HW2 5770   3.831   4.402   4.021 -0.0393  0.8630 -2.0792
 1501SOL    HW3 5771   3.920   4.524   4.030  0.2432  0.6314 -1.6530
 1501SOL    MW4 5772   3.910   4.439   4.017 -0.3328 -0.1692  0.1625
 1502SOL     OW 5773   1.632   3.514   1.647 -0.2269 -0.4679 -0.0730
 1502SOL    HW2 5774   1.558   3.497   1.706  0.2195 -0.8106  0.4012
 1502SOL    HW3 5775   1.694   3.443   1.667  0.7769  0.5272  0.4462
 1502SOL    MW4 5776   1.630   3.502   1.658 -0.4621  0.0207 -0.4133
 1503SOL     OW 5777   0.020   5.200   3.616 -0.4669  0.1764 -0.4716
 1503SOL    HW2 5778   0.099   5.228   3.661  0.7727 -1.0462 -1.7750
 1503SOL    HW3 5779  -0.027   5.281   3.595  1.6937  1.1399 -1.8752
 1503SOL    MW4 5780   0.024   5.214   3.619 -0.1548  0.2718 -0.3744
 1504SOL     OW 5781   2.215   4.639   4.788  0.3507  0.1110  0.2676
 1504SOL    HW2 5782   2.294   4.665   4.741  0.5915 -1.9954 -0.5834
 1504SOL    HW3 5783   2.218   4.544   4.790 -1.5417  0.0242  1.3397
 1504SOL    MW4 5784   2.225   4.630   4.782 -0.0204  0.1619 -0.3273
 1505SOL     OW 5785   0.300   0.027   4.681 -0.8362  0.7139  0.1635
 1505SOL    HW2 5786   0.333   0.089   4.616  1.7250 -1.0632 -0.3744
 1505SOL    HW3 5787   0.272  -0.049   4.629  0.7151 -0.5094  1.0250
 1505SOL    MW4 5788   0.301   0.025   4.665 -1.0531  0.0505  0.1518
 1506SOL     OW 5789   0.372   5.166   4.327  0.6643  0.5477  0.1173
 1506SOL    HW2 5790   0.379   5.212   4.243  1.0198  0.9326  0.3577
 1506SOL    HW3 5791   0.398   5.076   4.307 -1.1571  0.1395 -0.6059
 1506SOL    MW4 5792   0.376   5.160   4.313  0.0583 -0.0382 -0.7518
 1507SOL     OW 5793   4.983   6.107   3.977 -0.5257 -0.1659 -0.0091
 1507SOL    HW2 5794   5.060   6.146   3.936 -1.2403  1.2234 -0.1012
 1507SOL    HW3 5795   4.997   6.120   4.071  0.1183 -1.4353  0.0886
 1507SOL    MW4 5796   4.995   6.114   3.984  0.1545  0.5620 -0.3148
 1508SOL     OW 5797   2.130   0.661   3.009 -0.1409 -0.0292 -0.3806
 1508SOL    HW2 5798   2.106   0.708   2.930  0.0667 -0.6009 -0.7899
 1508SOL    HW3 5799   2.139   0.730   3.076 -2.4226  0.2579 -0.2952
 1508SOL    MW4 5800   2.128   0.677   3.007 -0.0837 -0.3890 -0.2101
 1509SOL     OW 5801   5.460   6.346   5.360  0.0547 -0.0556 -0.5732
 1509SOL    HW2 5802   5.471   6.416   5.424  0.6202 -2.5125  2.2300
 1509SOL    HW3 5803   5.541   6.348   5.308  0.8417  0.2556  0.6261
 1509SOL    MW4 5804   5.472   6.356   5.361 -0.0408 -0.0417  0.3262
 1510SOL     OW 5805   0.104   5.556   3.779  0.0754  0.4652 -0.1933
 1510SOL    HW2 5806   0.104   5.505   3.860  2.5475 -0.2572 -0.5592
 1510SOL    HW3 5807   0.118   5.646   3.807  2.8823 -0.0020  0.2036
 1510SOL    MW4 5808   0.106   5.561   3.793 -0.2131  0.0090  0.4957
 1511SOL     OW 5809   3.188   2.430   5.198 -0.1002 -0.2572 -0.7090
 1511SOL    HW2 5810   3.140   2.453   5.277  1.4329 -0.1343  0.2225
 1511SOL    HW3 5811   3.259   2.374   5.228  1.3461  0.9128 -1.7664
 1511SOL    MW4 5812   3.191   2.426   5.212 -0.4208  0.5463  0.5420
 1512SOL     OW 5813   4.841   1.979   4.017  0.1842  0.1400 -0.3676
 1512SOL    HW2 5814   4.785   2.047   4.056  1.7122  0.3337  1.6833
 1512SOL    HW3 5815   4.894   1.947   4.091  0.8492 -1.9457 -1.6728
 1512SOL    MW4 5816   4.841   1.984   4.032  0.0881 -0.3435  0.2360
 1513SOL     OW 5817   0.119   0.067   2.855  0.3073  0.1192  0.0859
 1513SOL    HW2 5818   0.031   0.086   2.822 -0.0020 -1.9320 -0.4125
 1513SOL    HW3 5819   0.178   0.095   2.785 -0.2010 -1.7973 -1.1848
 1513SOL    MW4 5820   0.115   0.073   2.841  0.3244  0.2883  0.5030
 1514SOL     OW 5821   6.316   4.828   1.389 -0.4379  0.2738 -0.1691
 1514SOL    HW2 5822   6.308   4.833   1.293 -0.3638  0.6166 -0.1596
 1514SOL    HW3 5823   6.301   4.918   1.418 -0.9538  0.0748  0.1804
 1514SOL    MW4 5824   6.313   4.840   1.380  0.3365  0.6444 -0.1689
 1515SOL     OW 5825   0.835   2.295   5.460  0.1356 -1.1967 -0.2656
 1515SOL    HW2 5826   0.803   2.355   5.393  2.4410  0.7617  0.2335
 1515SOL    HW3 5827   0.907   2.248   5.418  0.4040 -1.2912  0.2838
 1515SOL    MW4 5828   0.841   2.296   5.446 -0.4304 -0.1140 -0.3913
 1516SOL     OW 5829   4.912   2.359   5.169 -0.5325 -0.1199 -0.6058
 1516SOL    HW2 5830   4.830   2.363   5.220 -0.5213 -0.0905 -0.5900
 1516SOL    HW3 5831   4.971   2.306   5.223 -0.5866 -0.2582 -0.6816
 1516SOL    MW4 5832   4.909   2.353   5.183  0.3658 -0.1123 -0.6138
 1517SOL     OW 5833   4.009   4.713   4.359  0.3013 -0.1111 -0.3862
 1517SOL    HW2 5834   3.984   4.755   4.441 -0.7684 -1.5369  0.0591
 1517SOL    HW3 5835   4.004   4.619   4.377 -2.8458 -0.5948 -2.8086
 1517SOL    MW4 5836   4.005   4.706   4.372  0.0243  0.2534 -0.5489
 1518SOL     OW 5837   1.792   0.727   2.251  0.1352 -0.8762  0.0705
 1518SOL    HW2 5838   1.809   0.818   2.231  0.5906 -0.7088  1.1307
 1518SOL    HW3 5839   1.835   0.678   2.182  1.4813 -0.3360  0.4986
 1518SOL    MW4 5840   1.800   0.732   2.240 -0.0142  0.2530  0.6541
 1519SOL     OW 5841   0.324   2.082   1.570  0.3426  0.0060 -0.1627
 1519SOL    HW2 5842   0.250   2.031   1.603  0.9938 -0.2173  1.0352
 1519SOL    HW3 5843   0.309   2.090   1.476 -1.9246  1.1600  0.2419
 1519SOL    MW4 5844   0.312   2.077   1.562 -0.1725  0.7308  0.3222
 1520SOL     OW 5845   3.682   1.868   4.793 -0.3971 -0.0454  0.5411
 1520SOL    HW2 5846   3.714   1.828   4.874 -0.2293 -2.5385 -0.6889
 1520SOL    HW3 5847   3.685   1.962   4.811  2.7102 -0.3346  2.3203
 1520SOL    MW4 5848   3.687   1.875   4.806 -0.2491  0.2236 -0.0751
 1521SOL     OW 5849   4.549   3.947   1.677  0.4608 -0.5222 -0.0998
 1521SOL    HW2 5850   4.624   4.003   1.655  0.5365  0.0180  1.3951
 1521SOL    HW3 5851   4.586   3.878   1.732 -0.4019  1.1695  2.8677
 1521SOL    MW4 5852   4.564   3.946   1.681  0.2187  0.3162  0.0720
 1522SOL     OW 5853   1.149   2.763   2.377 -0.0104  0.7789  0.2070
 1522SOL    HW2 5854   1.196   2.701   2.322  2.1586  2.9027 -0.4785
 1522SOL    HW3 5855   1.176   2.740   2.466  1.4508  1.2423 -0.0976
 1522SOL    MW4 5856   1.158   2.751   2.382  0.3753  0.1531  0.0013
 1523SOL     OW 5857   0.832   1.380   2.371 -0.4055  0.2387 -0.0103
 1523SOL    HW2 5858   0.771   1.388   2.298  0.0844  1.5579 -0.3057
 1523SOL    HW3 5859   0.780   1.346   2.443 -1.6671  1.9595 -0.0571
 1523SOL    MW4 5860   0.817   1.377   2.371 -0.2528 -0.8881 -0.2929
 1524SOL     OW 5861   5.745   4.867   5.941 -0.2788 -0.0822  0.6076
 1524SOL    HW2 5862   5.804   4.914   6.001  0.2349 -1.5014  1.2601
 1524SOL    HW3 5863   5.803   4.827   5.877 -0.7392  0.3770 -0.1174
 1524SOL    MW4 5864   5.761   4.868   5.941  0.3949  0.3999  0.7632
 1525SOL     OW 5865   1.373   2.874   0.111  0.5634  0.1748 -0.1610
 1525SOL    HW2 5866   1.463   2.890   0.083  1.0515  1.3496  1.8666
 1525SOL    HW3 5867   1.351   2.951   0.164 -1.2959 -0.5475  0.1747
 1525SOL    MW4 5868   1.382   2.886   0.114 -0.2799  0.4313  0.5470
 1526SOL     OW 5869   3.719   1.828   2.987 -0.3024  0.3101 -0.4632
 1526SOL    HW2 5870   3.695   1.827   3.080  1.5108  0.1508  0.0337
 1526SOL    HW3 5871   3.701   1.918   2.959  1.6304  1.1462  0.7731
 1526SOL    MW4 5872   3.714   1.840   2.996 -0.3164 -0.5486  0.2431
 1527SOL     OW 5873   4.654   0.440   3.419 -0.1632 -0.1915  0.2214
 1527SOL    HW2 5874   4.661   0.457   3.513  1.4406 -0.9044  0.2612
 1527SOL    HW3 5875   4.628   0.524   3.381 -4.2285 -0.6070  1.5728
 1527SOL    MW4 5876   4.651   0.453   3.426 -0.4763  0.6877 -0.0535
 1528SOL     OW 5877   3.797   2.582   0.397  0.1713  0.3000  0.2775
 1528SOL    HW2 5878   3.821   2.675   0.400 -0.1682  0.5464 -2.3461
 1528SOL    HW3 5879   3.730   2.577   0.329  1.0042 -2.0356 -0.4501
 1528SOL    MW4 5880   3.791   2.594   0.388  0.3726 -0.3312 -0.1330
 1529SOL     OW 5881   5.414   5.319   2.973 -0.3163  1.0926  0.3175
 1529SOL    HW2 5882   5.354   5.262   2.925  0.1831  1.9848 -1.4398
 1529SOL    HW3 5883   5.496   5.314   2.924  0.6341  1.0314  1.8497
 1529SOL    MW4 5884   5.417   5.311   2.960 -0.3356 -0.0564  0.4063
 1530SOL     OW 5885   2.854   2.617   1.166  0.4234 -0.4875 -0.5120
 1530SOL    HW2 5886   2.832   2.710   1.171  1.5009 -0.2548  0.1948
 1530SOL    HW3 5887   2.906   2.608   1.087  2.3919 -0.0081  0.6693
 1530SOL    MW4 5888   2.858   2.628   1.156 -0.2171  0.2920  1.1137
 1531SOL     OW 5889   0.734   3.982   3.747  0.0157  0.1691 -0.5167
 1531SOL    HW2 5890   0.662   4.036   3.713 -0.0702  1.8226  2.0236
 1531SOL    HW3 5891   0.692   3.900   3.773 -0.1140 -0.6613 -3.0385
 1531SOL    MW4 5892   0.719   3.978   3.746  0.0758 -0.3256 -0.1410
 1532SOL     OW 5893   5.381   0.802   2.986 -0.0256 -1.0088 -0.6808
 1532SOL    HW2 5894   5.374   0.813   3.081  0.9779 -0.1066 -0.6895
 1532SOL    HW3 5895   5.475   0.802   2.969  0.0482 -5.1337 -1.2763
 1532SOL    MW4 5896   5.393   0.803   2.996  0.3008  0.4958  0.0558
 1533SOL     OW 5897   1.007   2.151   6.387  0.1171  0.1809  0.1611
 1533SOL    HW2 5898   0.962   2.205   6.322  0.5074 -1.3725 -1.4730
 1533SOL    HW3 5899   1.100   2.175   6.378 -0.0673  2.1442  2.3452
 1533SOL    MW4 5900   1.014   2.161   6.377 -0.7949  0.2080  0.4937
 1534SOL     OW 5901   4.987   0.684   1.856 -1.3321  0.0488 -0.1660
 1534SOL    HW2 5902   5.031   0.769   1.863 -0.9237 -0.1046 -0.7817
 1534SOL    HW3 5903   5.058   0.623   1.835 -1.5199 -0.5551  0.9020
 1534SOL    MW4 5904   5.002   0.687   1.854  0.1170  0.0666  0.8519
 1535SOL     OW 5905   4.351   5.002   6.386  0.1758 -0.4348  0.4088
 1535SOL    HW2 5906   4.369   4.943   6.459  0.9159  0.6358  1.1206
 1535SOL    HW3 5907   4.266   4.973   6.352 -0.4054 -0.6852  1.9819
 1535SOL    MW4 5908   4.342   4.990   6.391  0.1122  0.4989  0.4638
 1536SOL     OW 5909   1.642   2.890   2.506 -0.6941  0.2349 -0.2820
 1536SOL    HW2 5910   1.548   2.889   2.525 -0.8454  0.0057 -1.0338
 1536SOL    HW3 5911   1.663   2.982   2.492 -1.0827  0.1572 -1.4428
 1536SOL    MW4 5912   1.633   2.902   2.507 -0.0813 -0.1616 -0.1165
 1537SOL     OW 5913   4.180   3.288   5.856  0.0196 -0.3564  0.3398
 1537SOL    HW2 5914   4.243   3.243   5.799  0.1408 -0.9364  0.9201
 1537SOL    HW3 5915   4.095   3.251   5.831  0.0319 -0.3472  0.2834
 1537SOL    MW4 5916   4.177   3.277   5.845 -0.1937  0.3037  0.2747
 1538SOL     OW 5917   4.785   1.078   3.788 -0.0946 -0.3335  0.6843
 1538SOL    HW2 5918   4.827   1.163   3.780 -0.3064 -0.2099  0.8662
 1538SOL    HW3 5919   4.745   1.062   3.703  2.7702 -1.7911 -0.5548
 1538SOL    MW4 5920   4.785   1.087   3.776  0.3211 -0.2366  0.3606
 1539SOL     OW 5921   1.845   6.347   3.784  0.1290  0.2987 -0.3849
 1539SOL    HW2 5922   1.846   6.251   3.789  2.0842  0.3060  0.0334
 1539SOL    HW3 5923   1.786   6.366   3.712 -0.2340 -1.2200 -0.5388
 1539SOL    MW4 5924   1.837   6.337   3.775 -0.0976  0.4563 -0.2663
 1540SOL     OW 5925   4.208   1.392   4.365  0.2552  0.0224  0.1160
 1540SOL    HW2 5926   4.252   1.448   4.301 -0.8038  0.0672 -0.6105
 1540SOL    HW3 5927   4.243   1.419   4.450  1.5962  0.0477 -0.4318
 1540SOL    MW4 5928   4.218   1.403   4.368 -0.3114 -1.0427  0.4801
 1541SOL     OW 5929   6.354   3.875   0.333  0.2885 -0.3219 -0.4165
 1541SOL    HW2 5930   6.403   3.935   0.277  0.8981 -2.6181 -2.5063
 1541SOL    HW3 5931   6.274   3.923   0.356  3.2235  3.6063  3.1882
 1541SOL    MW4 5932   6.350   3.890   0.329 -0.2980  0.3740 -0.3229
 1542SOL     OW 5933   0.487   6.263   5.655  0.1824  0.3440  0.5234
 1542SOL    HW2 5934   0.521   6.273   5.744 -0.9325 -1.0369  1.1450
 1542SOL    HW3 5935   0.393   6.252   5.666 -0.3110  2.3794 -1.0251
 1542SOL    MW4 5936   0.479   6.263   5.668 -0.1934  0.2574 -0.0435
 1543SOL     OW 5937   0.187   0.779   3.838  0.0047 -0.5874  0.4637
 1543SOL    HW2 5938   0.239   0.790   3.758 -1.1639 -1.2640 -0.4192
 1543SOL    HW3 5939   0.236   0.715   3.890  0.4791 -0.5815  0.0338
 1543SOL    MW4 5940   0.200   0.772   3.834  0.1373  0.7009 -0.3193
 1544SOL     OW 5941   6.003   4.513   1.626 -0.6382  0.7051 -0.1797
 1544SOL    HW2 5942   5.911   4.492   1.608  0.4851 -3.8577 -2.2203
 1544SOL    HW3 5943   6.037   4.544   1.542  0.2027 -0.1499 -0.1711
 1544SOL    MW4 5944   5.995   4.514   1.612 -0.3770  0.0598  0.0643
 1545SOL     OW 5945   6.088   0.188   2.869 -0.5779 -0.8596 -0.2261
 1545SOL    HW2 5946   6.055   0.098   2.869  0.6148 -1.4220 -3.1226
 1545SOL    HW3 5947   6.037   0.232   2.800 -0.0089  0.1965  0.0109
 1545SOL    MW4 5948   6.077   0.182   2.860 -0.1507  0.5575 -0.6921
 1546SOL     OW 5949   2.453   4.206   3.869  0.3123 -0.6780  0.3810
 1546SOL    HW2 5950   2.489   4.169   3.950  2.1914 -1.4181 -0.7239
 1546SOL    HW3 5951   2.391   4.139   3.838 -0.2176 -0.5088  1.0485
 1546SOL    MW4 5952   2.449   4.192   3.876  0.4594  0.2080  0.0422
 1547SOL     OW 5953   2.074   2.655   3.621  0.2895  0.7646  0.5362
 1547SOL    HW2 5954   2.055   2.702   3.540  0.6869  1.1802  0.6839
 1547SOL    HW3 5955   1.997   2.600   3.635  0.7939 -0.3808 -0.8814
 1547SOL    MW4 5956   2.061   2.654   3.612  0.3584 -0.2943 -0.2278
 1548SOL     OW 5957   4.650   3.638   3.299  0.1966 -0.6571  0.4064
 1548SOL    HW2 5958   4.706   3.676   3.367  1.1132 -1.2168 -0.0174
 1548SOL    HW3 5959   4.563   3.674   3.316  1.0947  2.0450 -0.2725
 1548SOL    MW4 5960   4.646   3.648   3.310  0.2930 -0.0973 -0.3889
 1549SOL     OW 5961   1.011   4.222   0.451 -0.2619  0.1475 -0.8679
 1549SOL    HW2 5962   1.073   4.177   0.508 -0.7472 -0.0300 -0.4671
 1549SOL    HW3 5963   0.948   4.261   0.512 -1.4233 -0.9718 -1.3219
 1549SOL    MW4 5964   1.011   4.221   0.467 -0.3350  0.4789  0.1908
 1550SOL     OW 5965   5.689   0.220   3.026 -0.0170 -0.0195  0.4781
 1550SOL    HW2 5966   5.770   0.271   3.019  0.7651 -1.1470  1.0505
 1550SOL    HW3 5967   5.668   0.222   3.120 -0.0105 -0.6975  0.4969
 1550SOL    MW4 5968   5.697   0.227   3.038 -0.8187  0.4319 -0.1270
 1551SOL     OW 5969   2.722   0.189   0.909  0.2535  0.4378 -0.8532
 1551SOL    HW2 5970   2.712   0.144   0.825  0.9322 -0.3394 -0.5259
 1551SOL    HW3 5971   2.814   0.175   0.933 -0.3318 -0.8247  0.8456
 1551SOL    MW4 5972   2.733   0.181   0.901  0.2186  0.0621  0.0290
 1552SOL     OW 5973   2.981   0.929   1.799  0.0879 -0.0251 -0.2330
 1552SOL    HW2 5974   2.936   0.894   1.722 -0.4507 -1.3637  0.6768
 1552SOL    HW3 5975   3.042   0.860   1.824  0.9783  0.8138 -0.0328
 1552SOL    MW4 5976   2.983   0.916   1.792 -0.2774 -0.1922 -0.6055
 1553SOL     OW 5977   5.670   0.779   2.955 -0.1695  0.0195 -0.2308
 1553SOL    HW2 5978   5.699   0.761   2.865  1.1029 -0.6730  0.2858
 1553SOL    HW3 5979   5.748   0.814   2.998 -0.7617  0.3147  0.6255
 1553SOL    MW4 5980   5.684   0.782   2.949 -0.1156  0.1529 -0.3684
 1554SOL     OW 5981   5.657   5.590   3.229 -0.2722 -0.2783  0.3111
 1554SOL    HW2 5982   5.680   5.657   3.293  0.2498 -0.0653 -0.0870
 1554SOL    HW3 5983   5.566   5.569   3.248  0.0570 -0.6774  1.5221
 1554SOL    MW4 5984   5.648   5.596   3.240 -0.0875  0.0295  0.2981
 1555SOL     OW 5985   2.635   2.170   2.006  0.0245 -0.3257  0.3710
 1555SOL    HW2 5986   2.723   2.139   1.985  1.2162  2.6017  0.5554
 1555SOL    HW3 5987   2.577   2.098   1.981  2.3025 -1.5976 -1.6048
 1555SOL    MW4 5988   2.639   2.157   2.000 -0.3103 -0.3713  0.1409
 1556SOL     OW 5989   2.795   5.621   6.105 -0.3829 -0.0017 -0.5344
 1556SOL    HW2 5990   2.703   5.629   6.082 -0.5273 -0.3038 -0.0657
 1556SOL    HW3 5991   2.836   5.697   6.063 -0.5477 -0.7713 -2.1818
 1556SOL    MW4 5992   2.788   5.632   6.096  0.3282 -0.4460 -0.3849
 1557SOL     OW 5993   2.334   5.764   1.498  0.1340  0.1183 -0.1645
 1557SOL    HW2 5994   2.422   5.800   1.486 -0.2099  0.8577 -0.5588
 1557SOL    HW3 5995   2.299   5.757   1.409  0.0279 -0.8077 -0.0640
 1557SOL    MW4 5996   2.341   5.768   1.484 -0.7018  0.5753  0.3438
 1558SOL     OW 5997   5.751   0.407   4.862 -0.4324  0.0106  0.3796
 1558SOL    HW2 5998   5.788   0.440   4.780  0.9157  0.1593  1.0208
 1558SOL    HW3 5999   5.663   0.378   4.839 -0.0230 -0.0827 -1.1562
 1558SOL    MW4 6000   5.744   0.407   4.848 -0.0764 -0.5494 -0.0023
 1559SOL     OW 6001   4.769   1.499   5.547 -0.3891 -0.0657  0.1585
 1559SOL    HW2 6002   4.819   1.555   5.487  0.9192  0.5419  1.7244
 1559SOL    HW3 6003   4.833   1.435   5.578 -0.6469  0.4527  1.8822
 1559SOL    MW4 6004   4.784   1.498   5.543  0.7517  0.1475  0.0700
 1560SOL     OW 6005   0.390   2.422   1.520 -0.1311  0.9158  0.4139
 1560SOL    HW2 6006   0.319   2.456   1.465 -0.3031  1.4459  0.9453
 1560SOL    HW3 6007   0.455   2.493   1.522  1.8048 -0.5745 -2.3731
 1560SOL    MW4 6008   0.389   2.436   1.513 -0.3719  0.7198 -0.2104
 1561SOL     OW 6009   3.238   2.637   1.173  0.4431 -0.4077 -0.1706
 1561SOL    HW2 6010   3.240   2.542   1.163 -2.1452 -0.7733  1.5772
 1561SOL    HW3 6011   3.267   2.652   1.263 -1.2174  0.1943  0.3072
 1561SOL    MW4 6012   3.242   2.627   1.184 -0.7681 -0.7948 -0.3879
 1562SOL     OW 6013   2.312   4.293   4.516 -0.3361  0.4746  0.2911
 1562SOL    HW2 6014   2.247   4.363   4.513 -2.3240 -1.1213  2.3398
 1562SOL    HW3 6015   2.375   4.320   4.582  0.9382  1.8013 -1.3541
 1562SOL    MW4 6016   2.312   4.306   4.524  0.4477  0.9867 -0.0462
 1563SOL     OW 6017   2.903   4.410   6.213  0.5407  0.0073 -0.3143
 1563SOL    HW2 6018   2.942   4.371   6.135  1.3053  1.0490 -0.4733
 1563SOL    HW3 6019   2.977   4.444   6.263  0.0707 -0.7242  0.9256
 1563SOL    MW4 6020   2.918   4.410   6.209  0.2580 -0.0072 -0.3502
 1564SOL     OW 6021   3.872   0.751   5.356  0.6222 -0.9787  0.1846
 1564SOL    HW2 6022   3.960   0.754   5.393  0.9771 -1.8530 -0.5734
 1564SOL    HW3 6023   3.829   0.830   5.391  2.2393  0.4063 -0.7814
 1564SOL    MW4 6024   3.878   0.762   5.366 -0.0780 -0.4860 -0.1438
 1565SOL     OW 6025   4.353   1.908   1.849  0.1270  0.1266  0.2155
 1565SOL    HW2 6026   4.419   1.904   1.780 -1.4130 -2.6749 -1.2581
 1565SOL    HW3 6027   4.401   1.884   1.929  0.7593 -3.7807 -1.0929
 1565SOL    MW4 6028   4.368   1.904   1.850  0.4559  0.0718  0.1522
 1566SOL     OW 6029   4.941   3.354   2.907 -0.3031 -0.1063 -0.4961
 1566SOL    HW2 6030   4.857   3.310   2.919 -0.3807  0.4514  1.2964
 1566SOL    HW3 6031   4.920   3.432   2.856 -1.0000  0.3386  0.4425
 1566SOL    MW4 6032   4.927   3.359   2.902  0.4414  0.0468 -0.0580
 1567SOL     OW 6033   4.134   0.512   2.711 -0.3550  0.1420 -0.0964
 1567SOL    HW2 6034   4.224   0.488   2.686  0.3569  2.1270  0.3789
 1567SOL    HW3 6035   4.140   0.531   2.805 -1.9185 -2.3592  0.6172
 1567SOL    MW4 6036   4.147   0.511   2.720 -0.0264  0.1631 -0.0187
 1568SOL     OW 6037   0.892   5.458   0.957 -0.0765  0.7712  0.6381
 1568SOL    HW2 6038   0.804   5.446   0.919  1.2481 -3.4653 -1.7874
 1568SOL    HW3 6039   0.887   5.412   1.041  0.0244 -0.4619 -0.0044
 1568SOL    MW4 6040   0.879   5.450   0.963 -0.6206  0.0768  0.8807
 1569SOL     OW 6041   2.161   1.498   3.638 -0.2769  0.0843  0.0629
 1569SOL    HW2 6042   2.200   1.585   3.631 -0.7013  0.3439  0.7369
 1569SOL    HW3 6043   2.201   1.448   3.568  1.4496  0.2605  0.8640
 1569SOL    MW4 6044   2.171   1.503   3.628  0.5482 -0.0149 -0.3377
 1570SOL     OW 6045   6.081   1.122   3.595  0.6658  0.4110  0.3064
 1570SOL    HW2 6046   6.147   1.057   3.617 -1.0448 -0.6527  2.7375
 1570SOL    HW3 6047   6.015   1.074   3.545  0.1076  0.6082  0.8381
 1570SOL    MW4 6048   6.081   1.107   3.591  0.2396 -0.6002  0.0348
 1571SOL     OW 6049   1.889   0.944   4.962 -0.2476 -0.1020  0.3969
 1571SOL    HW2 6050   1.944   0.869   4.939  1.5899  0.1351  3.4810
 1571SOL    HW3 6051   1.806   0.906   4.991 -1.3087 -0.5435 -2.8442
 1571SOL    MW4 6052   1.886   0.929   4.963 -0.2270  0.2334  0.2164
 1572SOL     OW 6053   1.245   1.926   2.541 -0.2214 -0.5974  0.4016
 1572SOL    HW2 6054   1.166   1.918   2.594  0.0695 -1.4926  0.7121
 1572SOL    HW3 6055   1.308   1.866   2.582  0.7970  0.4923  0.4825
 1572SOL    MW4 6056   1.243   1.917   2.553 -0.2489 -0.2337 -0.2703
 1573SOL     OW 6057   4.229   4.614   1.416 -0.1911 -0.6642 -0.3886
 1573SOL    HW2 6058   4.256   4.555   1.346 -1.0606 -1.2914 -0.2105
 1573SOL    HW3 6059   4.152   4.573   1.455 -0.3886  0.2275  0.2184
 1573SOL    MW4 6060   4.223   4.601   1.412 -0.5133  0.2897 -0.0607
 1574SOL     OW 6061   1.455   3.914   5.833 -0.2573 -0.3030 -0.1320
 1574SOL    HW2 6062   1.486   3.988   5.886  0.0532 -1.1104  0.8543
 1574SOL    HW3 6063   1.417   3.854   5.897  1.7299 -2.1474 -0.5656
 1574SOL    MW4 6064   1.454   3.916   5.849  0.5772  0.2764  0.2865
 1575SOL     OW 6065   4.803   5.291   4.277  0.1360  0.0797 -0.3077
 1575SOL    HW2 6066   4.891   5.328   4.285  0.3890 -0.8111  2.0363
 1575SOL    HW3 6067   4.800   5.223   4.345 -1.5647 -1.5900 -1.9224
 1575SOL    MW4 6068   4.814   5.287   4.287 -0.3739  0.5373 -0.0998
 1576SOL     OW 6069   2.594   0.470   3.794  0.2955  0.2355 -0.9739
 1576SOL    HW2 6070   2.608   0.398   3.855 -2.9728  0.6382  0.4669
 1576SOL    HW3 6071   2.506   0.456   3.760 -1.2075  4.2727  0.6198
 1576SOL    MW4 6072   2.584   0.459   3.798 -0.1828  0.4530 -0.5767
 1577SOL     OW 6073   2.339   3.839   2.299  0.2211 -0.1907  0.5105
 1577SOL    HW2 6074   2.379   3.923   2.322 -0.7202  0.5001 -0.2810
 1577SOL    HW3 6075   2.361   3.827   2.206 -0.7353 -0.1760  0.2728
 1577SOL    MW4 6076   2.347   3.848   2.290  0.3373 -0.2448 -0.4381
 1578SOL     OW 6077   5.654   0.907   2.237 -0.0130 -0.8782  0.1094
 1578SOL    HW2 6078   5.588   0.893   2.169 -1.5035 -1.7129  1.6311
 1578SOL    HW3 6079   5.635   0.995   2.271  0.1089 -0.8433  0.0877
 1578SOL    MW4 6080   5.642   0.917   2.232 -0.0375  0.2717 -0.0742
 1579SOL     OW 6081   1.653   0.801   1.613  0.2388  0.1718 -0.1946
 1579SOL    HW2 6082   1.711   0.751   1.555 -0.0635  0.7728 -1.0293
 1579SOL    HW3 6083   1.650   0.889   1.576 -0.6290  0.3534  0.2542
 1579SOL    MW4 6084   1.660   0.806   1.601  0.5624  0.3563  0.3404
 1580SOL     OW 6085   2.888   6.388   4.313  0.0753 -0.2548 -0.1752
 1580SOL    HW2 6086   2.964   6.418   4.264  1.3759  0.0013  1.8433
 1580SOL    HW3 6087   2.920   6.312   4.363 -1.0365 -0.2667  0.5652
 1580SOL    MW4 6088   2.902   6.382   4.313  0.3833 -0.0974 -0.2445
 1581SOL     OW 6089   3.195   4.366   5.061  0.3011  0.1996 -0.0310
 1581SOL    HW2 6090   3.218   4.449   5.018 -0.8332  1.1530  1.1213
 1581SOL    HW3 6091   3.107   4.347   5.029  0.0974  0.0599  0.6048
 1581SOL    MW4 6092   3.187   4.374   5.051  0.0196  0.6724 -0.4154
 1582SOL     OW 6093   2.143   2.327   3.248 -0.1295 -0.2818  0.3405
 1582SOL    HW2 6094   2.065   2.376   3.271 -0.1159  1.0686 -2.1624
 1582SOL    HW3 6095   2.124   2.290   3.162  1.4956 -1.0204  0.2611
 1582SOL    MW4 6096   2.131   2.329   3.240 -0.0928  0.2117 -0.1653
 1583SOL     OW 6097   3.092   1.952   4.567 -0.0405  0.3125  0.3065
 1583SOL    HW2 6098   3.128   1.950   4.656  0.8603  1.0179 -0.0188
 1583SOL    HW3 6099   3.132   2.030   4.527 -0.2681 -0.1095 -0.7763
 1583SOL    MW4 6100   3.102   1.962   4.573  0.0115 -0.0830  0.0541
 1584SOL     OW 6101   2.130   3.328   5.005  0.1917 -0.7276 -0.2561
 1584SOL    HW2 6102   2.221   3.313   5.029  0.8526  2.4332 -0.3590
 1584SOL    HW3 6103   2.133   3.350   4.912 -0.6746 -0.4664 -0.2326
 1584SOL    MW4 6104   2.142   3.329   4.996 -0.6386 -0.0913 -0.6199
 1585SOL     OW 6105   4.846   4.706   5.276  0.5025 -0.5780 -0.1615
 1585SOL    HW2 6106   4.884   4.781   5.322  1.2681  0.1712 -1.9280
 1585SOL    HW3 6107   4.920   4.647   5.262  1.1573  0.8058 -3.4549
 1585SOL    MW4 6108   4.861   4.708   5.280  0.6366  0.9930 -0.5350
 1586SOL     OW 6109   2.693   5.587   4.138 -0.0920 -0.6427 -0.1907
 1586SOL    HW2 6110   2.680   5.681   4.152  0.2074 -0.6347  0.0529
 1586SOL    HW3 6111   2.762   5.582   4.072 -2.0667 -0.6697 -2.3593
 1586SOL    MW4 6112   2.700   5.599   4.131 -0.4475  0.6059  0.2510
 1587SOL     OW 6113   2.452   4.713   0.626 -0.1461 -0.4193 -0.2615
 1587SOL    HW2 6114   2.382   4.648   0.625 -0.5787  0.0462 -0.6158
 1587SOL    HW3 6115   2.414   4.790   0.585  0.8279 -0.4097 -1.1840
 1587SOL    MW4 6116   2.438   4.714   0.621  0.4992  0.0638  0.3945
 1588SOL     OW 6117   5.037   5.456   3.133  0.0236 -0.0762 -0.3172
 1588SOL    HW2 6118   4.967   5.515   3.107  1.2271  1.7280  0.3141
 1588SOL    HW3 6119   5.006   5.415   3.213  0.6105  2.6602  1.4432
 1588SOL    MW4 6120   5.024   5.458   3.140 -0.1052  0.1507  0.5442
 1589SOL     OW 6121   4.524   2.015   5.849  0.3785  0.0737  0.3602
 1589SOL    HW2 6122   4.584   1.943   5.832 -0.0084 -0.5990  1.7126
 1589SOL    HW3 6123   4.578   2.093   5.844  0.6051 -0.1428 -2.2459
 1589SOL    MW4 6124   4.539   2.016   5.846  0.2739  0.1469 -0.4291
 1590SOL     OW 6125   5.298   5.832   5.964  0.1364  0.4181  0.1985
 1590SOL    HW2 6126   5.344   5.913   5.985  0.5301 -0.2766  2.3127
 1590SOL    HW3 6127   5.365   5.776   5.924 -0.5039  1.5960 -2.7307
 1590SOL    MW4 6128   5.313   5.835   5.962 -0.2031  0.1481  0.5238
 1591SOL     OW 6129   5.022   2.860   3.296 -0.5054 -0.0840 -0.1598
 1591SOL    HW2 6130   5.057   2.777   3.266 -1.8347 -0.5577 -0.4750
 1591SOL    HW3 6131   5.085   2.891   3.362  0.4714 -0.8731 -0.7083
 1591SOL    MW4 6132   5.035   2.853   3.301  0.3088  0.2239 -0.3229
 1592SOL     OW 6133   3.890   2.578   4.099  0.0487  0.4437 -0.0886
 1592SOL    HW2 6134   3.879   2.661   4.053  0.2514  0.5533  0.0557
 1592SOL    HW3 6135   3.803   2.556   4.131 -0.3524 -0.2785 -1.5986
 1592SOL    MW4 6136   3.877   2.586   4.097  0.0719 -0.3050  0.2515
 1593SOL     OW 6137   1.145   2.909   0.433 -0.0644 -0.7596  0.3743
 1593SOL    HW2 6138   1.239   2.891   0.438  0.5403  1.7923 -0.0148
 1593SOL    HW3 6139   1.117   2.869   0.350  1.1051 -0.0555 -0.3897
 1593SOL    MW4 6140   1.154   2.902   0.423  0.1438  0.6531  0.1987
 1594SOL     OW 6141   3.422   0.395   4.561  0.0340  0.7728  0.1408
 1594SOL    HW2 6142   3.516   0.404   4.577  0.0452  1.3842 -0.2233
 1594SOL    HW3 6143   3.413   0.406   4.466 -0.1512 -1.6845 -0.1835
 1594SOL    MW4 6144   3.433   0.397   4.551  1.0019  0.5347  0.8472
 1595SOL     OW 6145   2.937   3.045   4.847  0.0201  0.2890 -0.2092
 1595SOL    HW2 6146   2.858   3.054   4.794  1.4886 -1.8072 -2.9811
 1595SOL    HW3 6147   2.978   3.131   4.844 -2.0310  1.4209  1.2830
 1595SOL    MW4 6148   2.932   3.057   4.840  0.3488 -0.2255  0.1904
 1596SOL     OW 6149   3.795   5.264   2.128  0.0898  0.5454 -0.1984
 1596SOL    HW2 6150   3.750   5.314   2.196  0.0045 -0.2391  0.3364
 1596SOL    HW3 6151   3.753   5.291   2.046 -1.0575  0.1679  0.2430
 1596SOL    MW4 6152   3.784   5.274   2.126  1.2135  0.5970 -0.1359
 1597SOL     OW 6153   2.031   1.519   0.584  0.9729 -0.1403  0.0075
 1597SOL    HW2 6154   2.095   1.557   0.644  0.7548  0.6208 -0.2245
 1597SOL    HW3 6155   1.947   1.550   0.617  0.9694  2.5499 -2.1719
 1597SOL    MW4 6156   2.028   1.528   0.596  0.3266 -0.8185 -0.3294
 1598SOL     OW 6157   0.816   1.091   0.525 -0.0673 -0.1360  0.6480
 1598SOL    HW2 6158   0.799   1.176   0.565 -2.0003 -0.0896 -0.1925
 1598SOL    HW3 6159   0.735   1.042   0.536  1.1509 -2.0631  1.4939
 1598SOL    MW4 6160   0.803   1.096   0.532  0.2216  0.0494  0.0193
 1599SOL     OW 6161   5.479   2.734   5.185  0.1687  0.3110 -0.2982
 1599SOL    HW2 6162   5.573   2.720   5.192 -0.2285 -2.1400  1.6030
 1599SOL    HW3 6163   5.454   2.774   5.268 -0.7553 -1.6724  0.4579
 1599SOL    MW4 6164   5.488   2.737   5.197  0.0306 -0.1363  0.0572
 1600SOL     OW 6165   1.833   2.637   0.834  0.5873 -0.5411 -0.2177
 1600SOL    HW2 6166   1.899   2.695   0.795 -0.7247  2.0491  1.1819
 1600SOL    HW3 6167   1.753   2.689   0.836 -0.5920 -2.2886  1.4456
 1600SOL    MW4 6168   1.831   2.651   0.829 -0.2888  0.0579  0.5739
 1601SOL     OW 6169   1.440   2.322   5.756  0.0807  0.2867  0.7486
 1601SOL    HW2 6170   1.395   2.377   5.692  3.3250  1.1351 -1.0151
 1601SOL    HW3 6171   1.457   2.240   5.710  1.8186  0.6381  0.6865
 1601SOL    MW4 6172   1.437   2.318   5.741 -0.1110 -0.1316 -0.5226
 1602SOL     OW 6173   5.634   3.843   2.684 -0.1146 -0.8801  0.4722
 1602SOL    HW2 6174   5.724   3.871   2.668 -0.2417 -0.1316  1.0236
 1602SOL    HW3 6175   5.636   3.804   2.771 -0.0377 -2.2108 -0.1022
 1602SOL    MW4 6176   5.646   3.842   2.693  0.3579  0.1152 -0.1352
 1603SOL     OW 6177   6.035   1.424   3.998 -1.0197 -0.0807  0.2814
 1603SOL    HW2 6178   5.967   1.377   3.950 -0.8451 -0.1401  0.0918
 1603SOL    HW3 6179   6.010   1.415   4.090 -0.5347 -1.2610  0.3098
 1603SOL    MW4 6180   6.022   1.417   4.004  0.2280  0.0120 -0.6147
 1604SOL     OW 6181   6.384   4.807   5.289 -0.5371  0.2836  0.5011
 1604SOL    HW2 6182   6.295   4.833   5.265 -0.0899  1.8878  0.4635
 1604SOL    HW3 6183   6.407   4.740   5.225 -2.1988 -1.2190  1.3757
 1604SOL    MW4 6184   6.375   4.802   5.277  0.0563  0.3584 -0.0480
 1605SOL     OW 6185   5.383   2.853   4.600 -0.1568  0.1853  0.4731
 1605SOL    HW2 6186   5.470   2.894   4.595  0.6023 -1.4856 -1.1224
 1605SOL    HW3 6187   5.399   2.766   4.634 -1.1015 -0.3676 -0.4355
 1605SOL    MW4 6188   5.397   2.847   4.604  0.0136  0.0869 -0.8233
 1606SOL     OW 6189   1.913   1.139   4.041  0.4223  0.5868 -0.4113
 1606SOL    HW2 6190   1.975   1.197   4.084 -0.2303  1.2790 -0.3845
 1606SOL    HW3 6191   1.830   1.155   4.085  0.5740 -1.7025  0.8474
 1606SOL    MW4 6192   1.910   1.149   4.052  0.5469  0.0194  0.1510
 1607SOL     OW 6193   0.177   3.587   5.147  0.2515  0.0486  1.1140
 1607SOL    HW2 6194   0.085   3.574   5.171  0.3591 -2.5797  0.4361
 1607SOL    HW3 6195   0.174   3.637   5.066 -0.5396  0.6737  1.5214
 1607SOL    MW4 6196   0.164   3.592   5.139  0.0532 -0.0374 -0.5296
 1608SOL     OW 6197   3.964   3.806   3.215  0.1050 -0.1762 -0.3935
 1608SOL    HW2 6198   4.040   3.848   3.175 -1.4258  1.6934 -1.5663
 1608SOL    HW3 6199   3.905   3.879   3.236 -1.6865 -1.5841 -0.2780
 1608SOL    MW4 6200   3.966   3.821   3.212  0.2532  0.3439 -0.3279
 1609SOL     OW 6201   2.197   1.797   5.862  0.2529  0.5117  0.0382
 1609SOL    HW2 6202   2.145   1.792   5.942 -0.7940  0.1539 -0.6413
 1609SOL    HW3 6203   2.152   1.740   5.800  1.4256  0.2466 -0.6132
 1609SOL    MW4 6204   2.184   1.789   5.865 -0.4395 -0.1332 -0.0050
 1610SOL     OW 6205   3.877   2.843   4.033  0.4623  0.2892  0.1500
 1610SOL    HW2 6206   3.790   2.850   4.072  0.6169  0.8974  0.4032
 1610SOL    HW3 6207   3.922   2.922   4.062  0.3479  1.1473 -1.8646
 1610SOL    MW4 6208   3.871   2.854   4.042  0.4588 -0.2939 -0.0586
 1611SOL     OW 6209   5.168   5.977   2.855 -0.0918 -0.6178 -0.0934
 1611SOL    HW2 6210   5.097   6.007   2.912  1.5548  0.3251  1.5519
 1611SOL    HW3 6211   5.152   5.883   2.846  0.5409 -1.2606  3.5761
 1611SOL    MW4 6212   5.156   5.968   2.861 -0.5146  0.6938 -0.1382
 1612SOL     OW 6213   4.696   3.017   4.044  0.0180  0.1745 -0.0820
 1612SOL    HW2 6214   4.696   3.010   4.140 -2.6847 -0.3348 -0.0272
 1612SOL    HW3 6215   4.724   3.107   4.026  0.4471  0.3115  1.1823
 1612SOL    MW4 6216   4.700   3.028   4.054  0.6601  0.2042 -0.4962
 1613SOL     OW 6217   5.732   1.808   3.032  0.3127 -0.1324 -0.0555
 1613SOL    HW2 6218   5.773   1.893   3.046  0.3247 -0.1859  0.2558
 1613SOL    HW3 6219   5.702   1.810   2.941  0.7803  0.0031 -0.2087
 1613SOL    MW4 6220   5.733   1.819   3.022 -0.9929 -0.1057  0.1834
 1614SOL     OW 6221   2.475   2.580   3.050  0.0551  0.6998 -0.0390
 1614SOL    HW2 6222   2.457   2.511   2.986  0.3419  0.8911 -0.3249
 1614SOL    HW3 6223   2.566   2.604   3.036 -0.3872  2.0469 -0.8204
 1614SOL    MW4 6224   2.484   2.574   3.040  0.4776  0.0674 -0.5505
 1615SOL     OW 6225   6.304   5.436   3.540  0.1819  0.4233 -0.0770
 1615SOL    HW2 6226   6.388   5.472   3.510  0.7705 -0.7247  0.1146
 1615SOL    HW3 6227   6.288   5.481   3.623  0.7561  0.4545  0.0267
 1615SOL    MW4 6228   6.313   5.447   3.547  0.4689 -0.2675 -0.2452
 1616SOL     OW 6229   2.061   0.563   2.617 -0.3961  0.9263 -0.3918
 1616SOL    HW2 6230   2.124   0.587   2.549  1.1613  1.3021  1.1296
 1616SOL    HW3 6231   2.055   0.640   2.673  0.6672 -0.3515  1.5828
 1616SOL    MW4 6232   2.068   0.576   2.615  0.2110 -0.0313  0.2623
 1617SOL     OW 6233   2.078   2.859   5.718 -0.1653 -0.0090  0.1852
 1617SOL    HW2 6234   2.044   2.897   5.799  0.4775 -0.6651  0.7786
 1617SOL    HW3 6235   2.002   2.818   5.677 -0.0325 -2.1229  1.8620
 1617SOL    MW4 6236   2.064   2.859   5.724  0.4303 -0.0251 -0.0224
 1618SOL     OW 6237   4.563   1.072   6.139 -0.5053  0.2026 -0.1167
 1618SOL    HW2 6238   4.651   1.100   6.166  0.0866 -0.2606 -1.5071
 1618SOL    HW3 6239   4.576   1.032   6.053 -1.8698 -1.1242  0.2496
 1618SOL    MW4 6240   4.577   1.070   6.131 -0.3980 -0.0399  0.0160
 1619SOL     OW 6241   5.251   3.140   3.834  0.2376  0.3036 -0.4143
 1619SOL    HW2 6242   5.208   3.150   3.749  1.8337  1.7924 -1.0937
 1619SOL    HW3 6243   5.328   3.196   3.829  0.1128  0.8314  2.2204
 1619SOL    MW4 6244   5.256   3.149   3.822  0.6319  0.0654 -0.0983
 1620SOL     OW 6245   3.061   6.337   3.632 -0.1038 -0.5015  0.5479
 1620SOL    HW2 6246   3.023   6.251   3.616  0.0314 -0.5528  0.5017
 1620SOL    HW3 6247   3.002   6.398   3.588  0.6117 -0.6928 -0.7238
 1620SOL    MW4 6248   3.048   6.334   3.624  0.1087  0.1523 -0.2010
 1621SOL     OW 6249   3.949   3.162   3.362 -0.2073  0.2605  0.2650
 1621SOL    HW2 6250   3.890   3.117   3.422  0.1175 -0.6563 -0.0813
 1621SOL    HW3 6251   4.026   3.183   3.414  0.4565 -1.3438 -0.0163
 1621SOL    MW4 6252   3.951   3.159   3.377 -0.0683 -0.0917  0.1781
 1622SOL     OW 6253   3.153   6.141   0.104  0.0873 -0.2671 -0.3551
 1622SOL    HW2 6254   3.148   6.076   0.174  1.3312  0.7023  0.6867
 1622SOL    HW3 6255   3.234   6.189   0.122 -1.0089  1.8740 -0.7942
 1622SOL    MW4 6256   3.163   6.139   0.116 -0.2154 -0.0537  0.3465
 1623SOL     OW 6257   2.910   0.180   0.518 -0.0483  0.2902 -0.7729
 1623SOL    HW2 6258   2.986   0.124   0.533 -0.1833  0.2261 -0.2952
 1623SOL    HW3 6259   2.867   0.143   0.441 -0.1472 -0.2722 -0.4507
 1623SOL    MW4 6260   2.915   0.168   0.510 -0.4846  0.0891 -0.5275
 1624SOL     OW 6261   4.246   1.570   1.331  0.3070  0.2013 -0.4796
 1624SOL    HW2 6262   4.246   1.665   1.335  0.7155  0.2344 -1.0462
 1624SOL    HW3 6263   4.266   1.542   1.420 -0.1246  0.6348 -0.2415
 1624SOL    MW4 6264   4.249   1.579   1.343  0.2695  0.0561 -0.5502
 1625SOL     OW 6265   1.953   5.455   3.281  0.4029 -0.1487  0.4679
 1625SOL    HW2 6266   1.972   5.374   3.233 -1.0753 -1.3351  1.7934
 1625SOL    HW3 6267   1.972   5.524   3.218  0.4443 -1.5572 -1.1585
 1625SOL    MW4 6268   1.958   5.453   3.266 -0.2174 -0.5133  0.2329
 1626SOL     OW 6269   0.456   3.963   5.975 -0.6137 -0.3228 -0.2344
 1626SOL    HW2 6270   0.435   4.001   5.890 -0.1020 -1.3475 -0.8273
 1626SOL    HW3 6271   0.552   3.968   5.980 -0.5594 -1.2379 -0.1929
 1626SOL    MW4 6272   0.466   3.969   5.965 -0.0714 -0.0096  0.2436
 1627SOL     OW 6273   2.048   5.122   4.954  0.4446 -0.1471 -0.4499
 1627SOL    HW2 6274   2.129   5.162   4.985  0.4790 -1.0634  0.7274
 1627SOL    HW3 6275   2.016   5.071   5.028 -0.5536 -0.8193 -1.2994
 1627SOL    MW4 6276   2.054   5.120   4.968 -0.3810  1.0855  0.8606
 1628SOL     OW 6277   2.036   0.490   2.224  0.1175 -0.1088 -0.5096
 1628SOL    HW2 6278   2.057   0.481   2.131  2.0195  2.2423 -0.3946
 1628SOL    HW3 6279   2.077   0.415   2.266 -1.0179 -1.3572 -1.5665
 1628SOL    MW4 6280   2.044   0.479   2.217 -0.7562  0.1305 -0.0534
 1629SOL     OW 6281   4.569   4.087   0.607 -0.6979 -0.0415 -0.1100
 1629SOL    HW2 6282   4.635   4.018   0.616  0.4028  0.6221 -2.2250
 1629SOL    HW3 6283   4.620   4.169   0.613 -2.0145  0.6803  2.7222
 1629SOL    MW4 6284   4.585   4.089   0.609  0.3542  0.8339  0.7035
 1630SOL     OW 6285   4.277   5.540   0.608 -0.0476  0.0055  0.2279
 1630SOL    HW2 6286   4.201   5.507   0.559 -0.3926  0.3825  0.5080
 1630SOL    HW3 6287   4.352   5.501   0.563 -0.3074  1.0482 -1.1827
 1630SOL    MW4 6288   4.277   5.531   0.595  0.2129  0.2006 -0.4115
 1631SOL     OW 6289   2.187   5.449   3.438  0.1498 -0.0471 -0.3664
 1631SOL    HW2 6290   2.238   5.530   3.428  0.5942 -0.5020 -2.1535
 1631SOL    HW3 6291   2.107   5.466   3.390 -1.0229  0.2864  1.5855
 1631SOL    MW4 6292   2.183   5.462   3.431  0.6229 -0.5974 -0.3573
 1632SOL     OW 6293   3.350   4.256   0.994 -0.0681 -0.3727 -0.3245
 1632SOL    HW2 6294   3.320   4.200   0.922  1.0121  0.1105 -1.1794
 1632SOL    HW3 6295   3.438   4.225   1.013  0.1990  0.4474 -0.1962
 1632SOL    MW4 6296   3.357   4.245   0.987 -1.1677 -0.1178 -0.5928
 1633SOL     OW 6297   5.699   1.924   5.853  0.0185 -0.1533  0.2480
 1633SOL    HW2 6298   5.788   1.888   5.850  1.2997  2.2214  3.4172
 1633SOL    HW3 6299   5.643   1.847   5.856  2.0183 -1.7600 -0.6233
 1633SOL    MW4 6300   5.704   1.909   5.853 -0.0996 -0.2178  0.0016
 1634SOL     OW 6301   2.264   5.176   2.790  0.1855  0.3418  0.0728
 1634SOL    HW2 6302   2.247   5.270   2.780 -0.2290  0.5601  2.3035
 1634SOL    HW3 6303   2.184   5.141   2.829  0.4830 -0.8890 -0.3845
 1634SOL    MW4 6304   2.251   5.184   2.794 -0.4669  0.3005  0.2283
 1635SOL     OW 6305   4.270   4.531   4.890  0.5533 -0.6742 -0.3855
 1635SOL    HW2 6306   4.316   4.449   4.911  0.8071 -0.1236  1.4159
 1635SOL    HW3 6307   4.201   4.506   4.830  2.2224 -1.7895 -1.9382
 1635SOL    MW4 6308   4.267   4.517   4.885 -0.3180 -0.2910 -0.1675
 1636SOL     OW 6309   2.203   3.349   4.371  0.0994  0.4003 -0.4744
 1636SOL    HW2 6310   2.148   3.271   4.360 -1.1823  1.3472 -1.0134
 1636SOL    HW3 6311   2.268   3.324   4.437  0.6308 -1.5979 -1.6731
 1636SOL    MW4 6312   2.205   3.335   4.378 -0.0323  0.2490  0.0167
 1637SOL     OW 6313   2.156   0.676   0.003 -0.0848  0.0243 -0.1054
 1637SOL    HW2 6314   2.209   0.749  -0.030  3.3331 -2.2271 -0.0521
 1637SOL    HW3 6315   2.145   0.694   0.096 -0.0882  0.8666 -0.2577
 1637SOL    MW4 6316   2.161   0.688   0.011 -0.4929  0.1979  1.1212
 1638SOL     OW 6317   1.549   2.233   2.903  0.2738  0.4529  0.9093
 1638SOL    HW2 6318   1.605   2.305   2.873  1.9966 -1.0264  0.4641
 1638SOL    HW3 6319   1.506   2.268   2.982  0.1813  2.3391  0.0967
 1638SOL    MW4 6320   1.551   2.247   2.910  0.1581 -0.0373  0.4822
 1639SOL     OW 6321   0.366   2.831   6.086 -0.2851 -0.0274  0.1372
 1639SOL    HW2 6322   0.460   2.818   6.096 -0.3745 -1.5394 -0.7711
 1639SOL    HW3 6323   0.355   2.926   6.093  1.1449  0.0954  1.3985
 1639SOL    MW4 6324   0.377   2.842   6.088 -0.5374 -0.0835  0.5247
 1640SOL     OW 6325   4.174   3.150   5.468 -0.8955 -0.3980 -0.0066
 1640SOL    HW2 6326   4.081   3.132   5.461 -0.7560 -1.2580  0.2510
 1640SOL    HW3 6327   4.215   3.064   5.474 -0.2590 -0.0198  2.0315
 1640SOL    MW4 6328   4.167   3.137   5.468  0.4483  0.7077  0.2931
 1641SOL     OW 6329   1.935   2.302   6.197 -0.1206 -0.0574  0.2750
 1641SOL    HW2 6330   1.873   2.266   6.133 -0.6456  2.6674 -0.8926
 1641SOL    HW3 6331   2.015   2.315   6.147  0.0445  0.3748  0.6474
 1641SOL    MW4 6332   1.937   2.299   6.182  0.2637  0.4292 -0.0581
 1642SOL     OW 6333   3.854   5.717   1.156  0.0547  0.3134  0.3170
 1642SOL    HW2 6334   3.853   5.624   1.178  1.8646  0.6115  1.9813
 1642SOL    HW3 6335   3.781   5.755   1.204  0.6873  0.0689  1.5190
 1642SOL    MW4 6336   3.844   5.710   1.165  0.6355  0.3790  0.1658
 1643SOL     OW 6337   5.717   5.766   3.426 -0.6362 -0.3836  0.0351
 1643SOL    HW2 6338   5.711   5.846   3.374  1.0578 -0.1533  0.1408
 1643SOL    HW3 6339   5.653   5.780   3.497  0.3584  1.3710  0.6588
 1643SOL    MW4 6340   5.707   5.779   3.429 -0.1317 -0.2066  0.3279
 1644SOL     OW 6341   0.398   2.880   4.710  0.0901  0.2534 -0.1915
 1644SOL    HW2 6342   0.334   2.808   4.710 -0.4839  0.7517 -0.3972
 1644SOL    HW3 6343   0.434   2.880   4.799  1.5016 -1.4951 -0.7027
 1644SOL    MW4 6344   0.394   2.871   4.722 -0.5040 -0.0293 -0.0368
 1645SOL     OW 6345   3.500   0.367   0.418  0.0548 -0.0454  0.1133
 1645SOL    HW2 6346   3.590   0.397   0.425 -0.0424  0.1001  0.8164
 1645SOL    HW3 6347   3.448   0.441   0.448 -0.2789 -0.2652  0.0841
 1645SOL    MW4 6348   3.505   0.381   0.423  0.1369 -0.4729 -0.0350
 1646SOL     OW 6349   4.705   0.777   2.997 -0.7011 -0.2065  0.3868
 1646SOL    HW2 6350   4.677   0.712   2.932  0.0504  2.6779 -3.1137
 1646SOL    HW3 6351   4.797   0.757   3.013 -1.0403 -1.2887  1.1138
 1646SOL    MW4 6352   4.713   0.765   2.991 -0.9141 -0.3898 -0.3273
 1647SOL     OW 6353   1.886   6.094   3.005  0.3194 -0.0756  0.0063
 1647SOL    HW2 6354   1.980   6.088   2.992  0.1220 -1.2091 -1.0358
 1647SOL    HW3 6355   1.848   6.034   2.941 -1.0886 -0.0834  0.7950
 1647SOL    MW4 6356   1.893   6.085   2.995  0.1076 -0.5717 -0.6150
 1648SOL     OW 6357   5.102   3.670   3.419  0.6431  0.1711 -0.2960
 1648SOL    HW2 6358   5.055   3.749   3.391 -0.6503 -0.7354 -0.7229
 1648SOL    HW3 6359   5.034   3.611   3.451  1.3627 -1.4463 -1.5737
 1648SOL    MW4 6360   5.087   3.673   3.419  0.1669 -0.2095 -0.2217
 1649SOL     OW 6361   6.037   3.960   4.839 -0.0944 -0.2683 -0.2018
 1649SOL    HW2 6362   5.947   3.992   4.839  0.1859  0.5523 -0.5139
 1649SOL    HW3 6363   6.031   3.870   4.872 -1.1880 -0.6842 -1.4521
 1649SOL    MW4 6364   6.024   3.952   4.843  0.4011  0.7850 -0.0032
 1650SOL     OW 6365   3.236   3.291   5.062  0.1658  0.7008  0.0507
 1650SOL    HW2 6366   3.159   3.252   5.105  0.9967  0.6214  1.5207
 1650SOL    HW3 6367   3.262   3.362   5.120 -0.0168  2.0837 -1.5094
 1650SOL    MW4 6368   3.229   3.295   5.076  0.0873  0.4316 -0.0193
 1651SOL     OW 6369   1.133   4.756   5.272 -0.2407 -0.2930  0.7067
 1651SOL    HW2 6370   1.084   4.737   5.352  0.1314 -0.7972  0.8175
 1651SOL    HW3 6371   1.068   4.793   5.213 -0.6325 -0.4219  1.0522
 1651SOL    MW4 6372   1.118   4.759   5.275 -0.0489 -0.6437 -0.3209
 1652SOL     OW 6373   6.121   2.794   2.937  0.3935 -0.2236  0.4675
 1652SOL    HW2 6374   6.186   2.724   2.947 -1.0288 -1.5491  0.9713
 1652SOL    HW3 6375   6.087   2.807   3.026  0.7784  1.2768  0.4119
 1652SOL    MW4 6376   6.125   2.786   2.950 -0.3690 -0.0630  0.3141
 1653SOL     OW 6377   0.909   5.696   1.118  0.1694  0.3038  0.8210
 1653SOL    HW2 6378   0.898   5.628   1.051 -1.1228  1.6245 -0.3646
 1653SOL    HW3 6379   0.823   5.701   1.160  0.2302  1.2612  0.8359
 1653SOL    MW4 6380   0.896   5.687   1.115  0.0846  0.5191 -0.3683
 1654SOL     OW 6381   1.300   4.775   4.290  0.3643  0.5461  0.6453
 1654SOL    HW2 6382   1.222   4.723   4.310 -0.1229  1.0777  0.1710
 1654SOL    HW3 6383   1.276   4.824   4.212  2.0116 -1.0016 -0.9083
 1654SOL    MW4 6384   1.286   4.775   4.282  0.0927 -0.1799  0.6082
 1655SOL     OW 6385   1.720   6.234   5.402  0.7832  0.1930 -0.2239
 1655SOL    HW2 6386   1.683   6.200   5.321  1.1956  0.5399 -0.5618
 1655SOL    HW3 6387   1.725   6.157   5.460 -0.1763  0.0879 -0.2680
 1655SOL    MW4 6388   1.716   6.219   5.399  0.3497  0.5674 -0.0817
 1656SOL     OW 6389   1.307   4.556   3.099 -0.1359 -0.2290  0.4585
 1656SOL    HW2 6390   1.331   4.603   3.020  0.7283 -0.2478  0.6991
 1656SOL    HW3 6391   1.229   4.601   3.131  0.3549  0.6873  0.3805
 1656SOL    MW4 6392   1.300   4.568   3.093 -0.4027  0.4749  0.1714
 1657SOL     OW 6393   2.542   2.217   6.276 -0.1045 -0.2662 -0.4092
 1657SOL    HW2 6394   2.630   2.245   6.248  0.3512 -1.4051 -0.1886
 1657SOL    HW3 6395   2.523   2.141   6.221 -0.8965 -0.1257 -0.3420
 1657SOL    MW4 6396   2.551   2.211   6.265 -1.0086 -0.7589 -0.0282
 1658SOL     OW 6397   3.425   2.607   0.944  0.2870  0.0902 -0.6098
 1658SOL    HW2 6398   3.373   2.623   1.023  0.9215  3.1283 -0.6876
 1658SOL    HW3 6399   3.367   2.630   0.872  0.9340  1.0816 -0.8227
 1658SOL    MW4 6400   3.411   2.612   0.945  0.5587 -0.4251  0.6351
 1659SOL     OW 6401   4.023   5.132   0.442  0.0847 -0.2798 -0.3646
 1659SOL    HW2 6402   4.067   5.115   0.358 -1.6762 -0.1326 -1.3816
 1659SOL    HW3 6403   3.930   5.121   0.422 -0.3791 -0.2604  1.6058
 1659SOL    MW4 6404   4.016   5.128   0.428  0.6680  0.7593 -0.1324
 1660SOL     OW 6405   0.472   0.148   5.682 -0.0793  0.0392 -0.5640
 1660SOL    HW2 6406   0.524   0.068   5.677  1.3394  0.7991  0.8270
 1660SOL    HW3 6407   0.427   0.142   5.766 -2.2210 -0.5457 -1.7001
 1660SOL    MW4 6408   0.473   0.137   5.693  1.0165 -0.4768 -0.4880
 1661SOL     OW 6409   5.820   2.674   4.851 -0.3147 -0.2506 -0.0027
 1661SOL    HW2 6410   5.801   2.580   4.848  0.8033 -0.4935  0.1092
 1661SOL    HW3 6411   5.916   2.679   4.852 -0.3256  0.7949  2.3186
 1661SOL    MW4 6412   5.830   2.662   4.851  0.6618  0.3055 -0.4037
 1662SOL     OW 6413   3.047   0.665   0.534  0.7915 -0.3746 -0.2848
 1662SOL    HW2 6414   3.009   0.587   0.493  2.1662 -2.0065  1.3554
 1662SOL    HW3 6415   3.011   0.664   0.623  1.1634  0.6516 -0.1116
 1662SOL    MW4 6416   3.037   0.654   0.540  0.4099 -1.1577  0.4620
 1663SOL     OW 6417   2.284   4.756   1.334 -0.0996  0.0582  0.3134
 1663SOL    HW2 6418   2.213   4.701   1.367  0.5637 -1.5916 -0.8599
 1663SOL    HW3 6419   2.319   4.708   1.260  2.1720  0.8923  0.7632
 1663SOL    MW4 6420   2.279   4.743   1.328 -0.2899  0.7090  0.5043
 1664SOL     OW 6421   2.384   3.332   3.431  0.3633 -0.1164  1.0967
 1664SOL    HW2 6422   2.326   3.255   3.433  0.5002 -0.2130  1.6640
 1664SOL    HW3 6423   2.372   3.372   3.517  0.5678  0.2936  0.9337
 1664SOL    MW4 6424   2.375   3.327   3.443  0.2444 -0.1842 -0.0099
 1665SOL     OW 6425   3.912   6.213   1.952 -0.1611  0.0620  0.7569
 1665SOL    HW2 6426   3.860   6.183   1.877 -3.8797  0.6734  2.8531
 1665SOL    HW3 6427   4.002   6.188   1.930 -1.2441 -1.1333 -3.1674
 1665SOL    MW4 6428   3.917   6.206   1.939  0.6321  0.1831 -0.8689
 1666SOL     OW 6429   0.827   2.700   3.065 -0.2991 -0.2688  0.9813
 1666SOL    HW2 6430   0.916   2.668   3.053  0.4706  1.5649  1.4909
 1666SOL    HW3 6431   0.792   2.648   3.138  1.3941  0.8736  2.7078
 1666SOL    MW4 6432   0.834   2.689   3.073 -0.1634 -0.5479 -0.0805
 1667SOL     OW 6433   3.625   3.394   0.419 -0.2124  0.3182 -0.5470
 1667SOL    HW2 6434   3.611   3.372   0.511 -0.3912 -1.0677 -0.8768
 1667SOL    HW3 6435   3.706   3.349   0.396  0.0108  0.9324 -0.9906
 1667SOL    MW4 6436   3.634   3.385   0.428 -0.4813 -0.0406  0.2521
 1668SOL     OW 6437   5.496   0.321   0.639 -0.0409 -0.0075 -0.3510
 1668SOL    HW2 6438   5.539   0.291   0.719 -1.2078 -1.0837 -0.0892
 1668SOL    HW3 6439   5.554   0.295   0.568 -0.2054 -1.4039 -0.0050
 1668SOL    MW4 6440   5.509   0.314   0.640  0.2422  0.4194  0.4745
 1669SOL     OW 6441   1.119   3.818   0.158  0.0014  0.2725 -0.6496
 1669SOL    HW2 6442   1.185   3.830   0.226  0.3072 -4.1160  0.0865
 1669SOL    HW3 6443   1.038   3.802   0.206 -0.2760 -0.5868 -1.3867
 1669SOL    MW4 6444   1.117   3.818   0.173  0.5400 -0.1809  0.5549
 1670SOL     OW 6445   2.272   1.354   1.349 -0.1557 -0.5651  0.3364
 1670SOL    HW2 6446   2.189   1.361   1.396 -0.8590  1.0203 -1.0456
 1670SOL    HW3 6447   2.247   1.329   1.260  0.7772  0.4655 -0.2388
 1670SOL    MW4 6448   2.258   1.351   1.343 -0.2629 -0.1495 -0.4129
 1671SOL     OW 6449   2.821   1.302   4.970  0.4536  0.0239 -0.0425
 1671SOL    HW2 6450   2.881   1.239   5.009  1.0537  0.5224 -0.1531
 1671SOL    HW3 6451   2.774   1.253   4.903 -1.2664 -1.1109  1.8757
 1671SOL    MW4 6452   2.823   1.287   4.967 -0.1300  0.4580  0.2877
 1672SOL     OW 6453   1.226   3.490   3.651  0.7349 -0.2315  0.0431
 1672SOL    HW2 6454   1.166   3.510   3.579 -0.5537 -2.5531  0.3786
 1672SOL    HW3 6455   1.290   3.430   3.613  0.0749 -1.4339  0.7679
 1672SOL    MW4 6456   1.227   3.485   3.636  0.5285  0.0640 -0.6490
 1673SOL     OW 6457   2.360   2.401   2.878 -0.6628 -0.0347 -0.5050
 1673SOL    HW2 6458   2.393   2.345   2.808 -1.5532 -1.8226  0.4353
 1673SOL    HW3 6459   2.300   2.462   2.834  2.1259  1.9041 -1.8997
 1673SOL    MW4 6460   2.356   2.402   2.863 -0.3173  0.0944  0.8490
 1674SOL     OW 6461   6.028   5.329   4.157 -0.0232 -0.2145  0.5477
 1674SOL    HW2 6462   5.965   5.264   4.124  1.3005 -0.4658 -1.7329
 1674SOL    HW3 6463   6.018   5.326   4.252 -2.3438 -1.3369  0.3517
 1674SOL    MW4 6464   6.018   5.320   4.165 -0.9359 -0.2958 -0.1821
 1675SOL     OW 6465   6.052   3.256   5.755 -0.6841 -0.1562 -0.5415
 1675SOL    HW2 6466   6.114   3.225   5.821 -1.9433  1.2474  1.4435
 1675SOL    HW3 6467   5.967   3.252   5.800 -1.8412 -0.6384 -2.6645
 1675SOL    MW4 6468   6.049   3.251   5.770 -0.2787 -0.0986  0.0357
 1676SOL     OW 6469   0.398   2.487   4.447 -0.1719  0.1769 -0.2817
 1676SOL    HW2 6470   0.338   2.472   4.373 -0.2928  0.2377 -0.1970
 1676SOL    HW3 6471   0.470   2.426   4.432 -0.8089 -0.7269  0.2312
 1676SOL    MW4 6472   0.399   2.477   4.435  0.4689 -0.0193  0.3074
 1677SOL     OW 6473   6.248   0.330   1.112  0.2904  0.0337  0.1959
 1677SOL    HW2 6474   6.220   0.372   1.030 -0.0935  1.4501  1.0225
 1677SOL    HW3 6475   6.343   0.319   1.101  0.3666  0.9338 -0.1268
 1677SOL    MW4 6476   6.257   0.334   1.100 -0.0037 -0.8230  0.0326
 1678SOL     OW 6477   4.585   3.932   4.957 -0.5895 -0.3422 -0.0524
 1678SOL    HW2 6478   4.648   3.873   5.000 -1.9797 -0.6603  1.6331
 1678SOL    HW3 6479   4.632   4.015   4.950  0.8729 -1.2040 -1.0868
 1678SOL    MW4 6480   4.600   3.935   4.962  0.0212  0.4902 -0.1115
 1679SOL     OW 6481   2.652   4.170   3.198  0.3290  0.4612 -0.4011
 1679SOL    HW2 6482   2.693   4.092   3.160  0.0502  0.8191 -1.4629
 1679SOL    HW3 6483   2.603   4.210   3.126  1.7133  2.4756 -0.3260
 1679SOL    MW4 6484   2.651   4.165   3.183 -0.0179  0.2377  0.2927
 1680SOL     OW 6485   3.626   0.513   3.902  0.4763 -0.1465 -0.7188
 1680SOL    HW2 6486   3.631   0.592   3.955 -0.0350 -1.6725  1.7647
 1680SOL    HW3 6487   3.716   0.497   3.874  0.6736  0.9718 -0.7555
 1680SOL    MW4 6488   3.638   0.521   3.905  0.2982  0.1899  0.3679
 1681SOL     OW 6489   5.147   1.847   0.108 -0.3825  0.0123  0.4130
 1681SOL    HW2 6490   5.108   1.868   0.023  1.8221 -2.1214 -1.2610
 1681SOL    HW3 6491   5.103   1.766   0.134 -1.2492  0.8083  1.5083
 1681SOL    MW4 6492   5.136   1.839   0.100  0.5234 -0.2542 -0.1711
 1682SOL     OW 6493   0.145   5.875   6.344  0.2162  0.3463 -0.1015
 1682SOL    HW2 6494   0.122   5.808   6.280  2.0050 -3.5354  2.9176
 1682SOL    HW3 6495   0.085   5.860   6.417  1.1953  1.4799  0.9906
 1682SOL    MW4 6496   0.134   5.864   6.345 -0.5242  0.2421  0.2854
 1683SOL     OW 6497   1.104   5.739   0.464  0.2905 -0.1870  0.1145
 1683SOL    HW2 6498   1.171   5.782   0.518 -0.7662 -0.1219  1.4332
 1683SOL    HW3 6499   1.126   5.646   0.468 -0.5945 -0.3640  1.9292
 1683SOL    MW4 6500   1.116   5.733   0.472  0.0202  0.5315  0.0497
 1684SOL     OW 6501   2.514   1.025   5.133 -0.0077  0.7673  0.7711
 1684SOL    HW2 6502   2.565   1.033   5.213 -0.6027  2.6752  1.0221
 1684SOL    HW3 6503   2.468   1.109   5.126 -2.2765 -0.4485  0.0051
 1684SOL    MW4 6504   2.515   1.037   5.143 -0.1243 -0.4877  0.0139
 1685SOL     OW 6505   1.905   3.700   5.475  0.5697  0.2580 -0.3731
 1685SOL    HW2 6506   1.836   3.701   5.409 -0.0765 -1.4629  0.2204
 1685SOL    HW3 6507   1.895   3.784   5.521  0.6711  1.2395 -2.0356
 1685SOL    MW4 6508   1.895   3.712   5.472  0.3470  0.5650  0.0841
 1686SOL     OW 6509   4.318   6.086   0.779 -0.7561  0.2569 -0.3437
 1686SOL    HW2 6510   4.271   6.024   0.724 -0.3298  0.5605 -1.0611
 1686SOL    HW3 6511   4.278   6.170   0.761  0.3050  0.5896 -1.2777
 1686SOL    MW4 6512   4.307   6.089   0.769  0.0236  0.0641 -0.7249
 1687SOL     OW 6513   5.323   3.368   2.681  0.4378  0.2221 -0.1941
 1687SOL    HW2 6514   5.335   3.449   2.729  1.2789  0.1394 -0.2614
 1687SOL    HW3 6515   5.405   3.321   2.691  0.4528 -0.0147 -1.2980
 1687SOL    MW4 6516   5.335   3.372   2.689 -0.4270 -0.3384 -0.3405
 1688SOL     OW 6517   4.899   3.751   3.083  0.3480  0.5109 -0.7111
 1688SOL    HW2 6518   4.990   3.733   3.060  0.6382  2.1368 -0.9221
 1688SOL    HW3 6519   4.902   3.779   3.174  0.0514  0.5036 -0.6984
 1688SOL    MW4 6520   4.911   3.752   3.092 -0.4397 -0.3178 -0.6347
 1689SOL     OW 6521   2.282   2.676   5.033 -0.3093  0.3021  0.2479
 1689SOL    HW2 6522   2.268   2.767   5.061  0.6030  0.7391 -0.6851
 1689SOL    HW3 6523   2.202   2.631   5.060 -0.6055  1.2849  1.0949
 1689SOL    MW4 6524   2.270   2.682   5.040 -0.0951  0.1356  0.0599
 1690SOL     OW 6525   6.221   3.149   5.947  0.6044 -0.1676  0.1092
 1690SOL    HW2 6526   6.290   3.215   5.939  0.0239  0.2428 -2.1120
 1690SOL    HW3 6527   6.252   3.076   5.892  0.0680 -0.6891  0.4907
 1690SOL    MW4 6528   6.235   3.148   5.939 -0.4695 -0.3394 -0.3343
 1691SOL     OW 6529   0.901   0.827   3.217  0.2179 -0.1086 -0.6753
 1691SOL    HW2 6530   0.860   0.745   3.243  0.0047 -0.0081 -0.6956
 1691SOL    HW3 6531   0.836   0.871   3.162 -0.5040  1.0039  0.9727
 1691SOL    MW4 6532   0.887   0.822   3.213  0.6356 -0.1910 -0.6318
 1692SOL     OW 6533   0.275   5.979   1.436  0.4933 -0.3577  0.2358
 1692SOL    HW2 6534   0.304   6.002   1.348  0.5741  0.4880  0.4705
 1692SOL    HW3 6535   0.325   6.037   1.494 -0.8356  0.3634  0.7140
 1692SOL    MW4 6536   0.285   5.990   1.432 -0.0427 -0.0078  0.5868
 1693SOL     OW 6537   6.376   5.625   1.862  0.3427 -0.3363  0.1840
 1693SOL    HW2 6538   6.427   5.673   1.927  2.0737  0.5702 -1.7178
 1693SOL    HW3 6539   6.441   5.583   1.806 -1.0886 -3.6673  0.7481
 1693SOL    MW4 6540   6.391   5.626   1.863 -0.3239  0.2521  0.5525
 1694SOL     OW 6541   0.546   6.343   5.928 -0.0702 -0.1983  0.1706
 1694SOL    HW2 6542   0.522   6.411   5.991  3.4862  0.3027  1.2007
 1694SOL    HW3 6543   0.498   6.265   5.956 -1.3520  0.9382  1.2340
 1694SOL    MW4 6544   0.536   6.342   5.940  0.2895 -0.5781  0.4815
 1695SOL     OW 6545   2.149   3.100   6.027  0.0491  0.2673 -0.8517
 1695SOL    HW2 6546   2.214   3.124   5.961 -1.4475 -0.0484 -2.5405
 1695SOL    HW3 6547   2.195   3.043   6.088  1.3755  0.1661 -1.9038
 1695SOL    MW4 6548   2.164   3.096   6.026 -0.0194  0.3615 -0.2861
 1696SOL     OW 6549   3.096   1.315   3.201  0.4376 -0.1604  0.3737
 1696SOL    HW2 6550   3.027   1.325   3.135 -0.4975 -2.3423  0.9303
 1696SOL    HW3 6551   3.145   1.238   3.174  2.9189  1.4731 -0.1359
 1696SOL    MW4 6552   3.093   1.306   3.189  0.1928 -0.2857 -0.0150
 1697SOL     OW 6553   5.684   6.339   6.218  0.0373 -0.4038  0.4367
 1697SOL    HW2 6554   5.614   6.358   6.155 -1.6156 -1.0244  1.9953
 1697SOL    HW3 6555   5.727   6.423   6.231 -0.5607  0.0495 -0.3788
 1697SOL    MW4 6556   5.680   6.353   6.211  0.0846  0.1510 -0.3273
 1698SOL     OW 6557   4.376   4.872   1.303 -0.1044 -0.1069 -0.2643
 1698SOL    HW2 6558   4.387   4.825   1.220 -0.2167 -0.3252 -0.1548
 1698SOL    HW3 6559   4.311   4.821   1.351 -1.6765  1.1751 -0.9153
 1698SOL    MW4 6560   4.369   4.859   1.298 -0.0923  0.0181 -0.3824
 1699SOL     OW 6561   1.560   5.350   0.569  0.0446 -0.1504  0.7632
 1699SOL    HW2 6562   1.550   5.397   0.486  1.6160 -1.2211 -0.0934
 1699SOL    HW3 6563   1.591   5.263   0.543 -0.4320 -0.8517  2.4286
 1699SOL    MW4 6564   1.563   5.345   0.555 -0.2288 -0.2497 -0.0756
 1700SOL     OW 6565   6.216   2.363   3.990  0.1281  0.6195  0.0690
 1700SOL    HW2 6566   6.227   2.318   3.906  1.4647  0.2724  0.4065
 1700SOL    HW3 6567   6.193   2.452   3.966  0.2854  0.4723 -0.6647
 1700SOL    MW4 6568   6.214   2.368   3.975  0.1451  0.3135  0.2546
 1701SOL     OW 6569   4.292   5.089   3.806  0.1909  0.2797 -0.2219
 1701SOL    HW2 6570   4.306   5.137   3.888  1.9047  2.1997 -1.5349
 1701SOL    HW3 6571   4.212   5.128   3.770 -0.0698  0.0572  0.1091
 1701SOL    MW4 6572   4.283   5.101   3.812  0.2352  0.5939 -0.1694
 1702SOL     OW 6573   2.539   2.219   1.041 -0.5724 -0.2628 -0.4093
 1702SOL    HW2 6574   2.570   2.307   1.062 -0.0907 -0.0033 -2.1106
 1702SOL    HW3 6575   2.613   2.177   0.997 -0.4272 -1.9003  1.2651
 1702SOL    MW4 6576   2.553   2.225   1.038  0.2543  0.4765  0.0582
 1703SOL     OW 6577   2.754   3.771   1.514 -0.3525  0.2879  0.1270
 1703SOL    HW2 6578   2.734   3.864   1.504  2.4152  0.8512 -1.2400
 1703SOL    HW3 6579   2.776   3.742   1.425 -0.1016 -1.3800  0.6975
 1703SOL    MW4 6580   2.755   3.780   1.501 -0.1969  0.1345 -0.0581
 1704SOL     OW 6581   6.190   6.394   2.282 -0.6341 -0.3238 -0.7910
 1704SOL    HW2 6582   6.159   6.353   2.201  0.7957 -0.1130 -1.4899
 1704SOL    HW3 6583   6.216   6.321   2.338 -1.9443 -0.4823 -0.3675
 1704SOL    MW4 6584   6.189   6.379   2.278  0.5617 -0.0145 -0.1736
 1705SOL     OW 6585   2.934   3.750   0.102 -0.3513 -0.1076 -0.0997
 1705SOL    HW2 6586   2.934   3.827   0.044  0.0329 -0.0796 -0.0622
 1705SOL    HW3 6587   2.851   3.756   0.149 -1.6149 -1.1981 -2.0659
 1705SOL    MW4 6588   2.923   3.761   0.100 -0.3279 -0.4284 -0.1890
 1706SOL     OW 6589   1.851   2.970   0.326  0.2584  0.3356  0.4486
 1706SOL    HW2 6590   1.929   2.955   0.272 -0.8144 -2.5325 -0.5326
 1706SOL    HW3 6591   1.825   2.882   0.355 -0.8982  1.5010  3.3055
 1706SOL    MW4 6592   1.858   2.957   0.322  0.1819 -0.3848  0.4074
 1707SOL     OW 6593   4.522   3.902   2.757  0.0341  0.3394 -0.2130
 1707SOL    HW2 6594   4.600   3.954   2.737  0.0072  0.6013  0.3422
 1707SOL    HW3 6595   4.449   3.964   2.749 -0.1218  0.1025 -0.7055
 1707SOL    MW4 6596   4.523   3.917   2.754  0.6760  0.3996  0.0608
 1708SOL     OW 6597   0.523   1.392   0.545 -0.3546  0.2748 -0.1066
 1708SOL    HW2 6598   0.541   1.417   0.455 -0.9531 -0.8533 -0.5618
 1708SOL    HW3 6599   0.443   1.339   0.540 -0.6889  0.6181  1.1536
 1708SOL    MW4 6600   0.515   1.388   0.533  0.7923  0.5072 -0.0551
 1709SOL     OW 6601   0.079   2.324   3.291 -0.3777  0.5668 -0.1048
 1709SOL    HW2 6602   0.119   2.381   3.357  0.7114  2.2491 -2.1148
 1709SOL    HW3 6603   0.072   2.378   3.213 -3.2978 -0.7837 -0.9490
 1709SOL    MW4 6604   0.083   2.338   3.290  0.3409 -0.3166 -0.0689
 1710SOL     OW 6605   5.082   2.004   4.974 -0.2486 -0.0688 -0.3593
 1710SOL    HW2 6606   5.074   2.083   4.919 -1.6100  0.2836  0.2974
 1710SOL    HW3 6607   5.029   1.938   4.930  0.3186 -0.4193 -0.5317
 1710SOL    MW4 6608   5.074   2.006   4.961  0.0767 -0.1433  0.4705
 1711SOL     OW 6609   2.222   1.084   4.840  0.0495 -0.2145  0.0617
 1711SOL    HW2 6610   2.215   1.029   4.762 -2.4684  0.6856 -0.4385
 1711SOL    HW3 6611   2.234   1.022   4.912 -0.4317 -1.2672 -0.7373
 1711SOL    MW4 6612   2.223   1.069   4.839  0.2848 -0.1342  0.2837
 1712SOL     OW 6613   5.630   2.311   5.173  0.7524 -0.1848 -0.3638
 1712SOL    HW2 6614   5.700   2.248   5.156  1.2114  0.5668 -1.4061
 1712SOL    HW3 6615   5.641   2.377   5.104 -0.3325  0.4996  0.1005
 1712SOL    MW4 6616   5.641   2.312   5.161 -0.1382 -0.5545 -0.6805
 1713SOL     OW 6617   1.188   6.364   1.390 -0.3372  0.4381 -0.1557
 1713SOL    HW2 6618   1.203   6.359   1.485 -2.4638  0.2496  0.2379
 1713SOL    HW3 6619   1.133   6.288   1.372 -1.6583  1.5950 -1.1561
 1713SOL    MW4 6620   1.183   6.353   1.400  0.0168 -0.5746  0.8198
 1714SOL     OW 6621   6.045   5.678   5.320 -0.9090 -0.3544 -0.0051
 1714SOL    HW2 6622   6.121   5.719   5.361  0.4812 -2.7623  0.0082
 1714SOL    HW3 6623   5.978   5.746   5.320  1.5356  2.2253 -0.9820
 1714SOL    MW4 6624   6.046   5.692   5.325 -0.4985 -0.2725 -0.1582
 1715SOL     OW 6625   1.259   0.526   5.122 -0.5348 -0.1888  0.3039
 1715SOL    HW2 6626   1.230   0.465   5.189 -1.5787  0.8153  0.7983
 1715SOL    HW3 6627   1.305   0.595   5.170 -0.0956 -0.1510 -0.1573
 1715SOL    MW4 6628   1.262   0.527   5.137  0.3325 -0.2683  0.5948
 1716SOL     OW 6629   3.521   0.862   3.718 -0.1847 -0.0564 -0.6349
 1716SOL    HW2 6630   3.517   0.956   3.736 -2.5380  0.1266 -1.7306
 1716SOL    HW3 6631   3.615   0.844   3.708  0.3748  2.0143  0.2822
 1716SOL    MW4 6632   3.533   0.872   3.719 -0.1052  0.0030 -0.1518
 1717SOL     OW 6633   3.166   0.694   1.840 -0.1484 -0.2324 -0.1975
 1717SOL    HW2 6634   3.178   0.663   1.751  0.6940  0.3505 -0.2971
 1717SOL    HW3 6635   3.235   0.759   1.853 -0.1534 -0.4282  0.9348
 1717SOL    MW4 6636   3.177   0.698   1.830 -0.5611  0.5712 -0.1694
 1718SOL     OW 6637   0.069   5.541   6.325 -0.2099  0.1495  0.2308
 1718SOL    HW2 6638   0.045   5.585   6.243  0.7183 -0.3119 -0.3129
 1718SOL    HW3 6639   0.032   5.596   6.394 -1.8470  0.0235 -0.5165
 1718SOL    MW4 6640   0.061   5.554   6.323  0.5361  0.3275 -0.0896
 1719SOL     OW 6641   4.999   6.243   5.802  0.2405 -0.1502  0.7394
 1719SOL    HW2 6642   4.972   6.307   5.869  1.4554  0.3541  0.7727
 1719SOL    HW3 6643   4.959   6.161   5.830  0.8816  0.0043  2.2254
 1719SOL    MW4 6644   4.990   6.241   5.815 -0.2141  0.0419  0.3674
 1720SOL     OW 6645   5.275   5.568   2.704  0.1136 -0.3749 -0.0524
 1720SOL    HW2 6646   5.341   5.599   2.765  0.1482  1.6713 -1.0462
 1720SOL    HW3 6647   5.289   5.619   2.624 -1.2475 -1.4783 -1.0628
 1720SOL    MW4 6648   5.285   5.579   2.701 -0.2251  0.7770  0.4457
 1721SOL     OW 6649   5.255   6.190   3.880  0.3236  0.2285  0.2067
 1721SOL    HW2 6650   5.259   6.286   3.883  1.5040  0.1874  0.6251
 1721SOL    HW3 6651   5.320   6.162   3.945  1.7075 -0.8614 -1.5788
 1721SOL    MW4 6652   5.264   6.199   3.889 -0.2323 -0.6162 -0.2554
 1722SOL     OW 6653   4.825   0.327   5.936  0.8911  0.3636  0.0860
 1722SOL    HW2 6654   4.753   0.296   5.881  0.4475 -0.9283  1.3241
 1722SOL    HW3 6655   4.790   0.402   5.983  0.6748  0.3449 -0.0463
 1722SOL    MW4 6656   4.811   0.333   5.935  0.7582 -0.2268  0.3121
 1723SOL     OW 6657   1.714   0.179   5.907  0.3854  0.2049 -0.0505
 1723SOL    HW2 6658   1.760   0.160   5.825 -2.1237 -2.4755 -0.9970
 1723SOL    HW3 6659   1.754   0.119   5.971  0.3285  0.1388 -0.0767
 1723SOL    MW4 6660   1.726   0.169   5.905 -0.4440  0.1656 -0.0649
 1724SOL     OW 6661   2.841   1.789   0.647 -0.1554 -0.8070 -0.2536
 1724SOL    HW2 6662   2.789   1.711   0.625 -2.6654  0.3357  1.2866
 1724SOL    HW3 6663   2.777   1.858   0.663  1.9697  1.8674 -2.2266
 1724SOL    MW4 6664   2.826   1.788   0.646 -0.0282 -0.6118 -0.3616
 1725SOL     OW 6665   2.752   2.811   2.590 -0.0354 -0.8110 -0.4112
 1725SOL    HW2 6666   2.670   2.856   2.570 -0.6162 -1.8939 -0.5410
 1725SOL    HW3 6667   2.807   2.826   2.513  0.5229  1.2792  0.3358
 1725SOL    MW4 6668   2.749   2.819   2.577  0.1544 -0.7995 -0.2182
 1726SOL     OW 6669   4.473   1.370   5.397 -0.0817 -0.4123 -0.0100
 1726SOL    HW2 6670   4.487   1.461   5.370  1.0336 -0.6032 -0.1113
 1726SOL    HW3 6671   4.473   1.321   5.315 -1.0172 -0.4715  0.0192
 1726SOL    MW4 6672   4.475   1.376   5.382  0.6008 -0.2572  0.5225
 1727SOL     OW 6673   1.142   0.674   3.478  0.5071 -0.3396 -0.2382
 1727SOL    HW2 6674   1.078   0.703   3.544  0.8418 -1.7075  0.7288
 1727SOL    HW3 6675   1.105   0.592   3.444  1.0315 -0.3687 -0.7387
 1727SOL    MW4 6676   1.129   0.667   3.483 -0.5430 -0.1878 -0.3249
 1728SOL     OW 6677   2.029   4.043   0.126 -0.5441 -0.4079  0.3526
 1728SOL    HW2 6678   1.953   4.042   0.068  0.1286  0.6135 -0.5980
 1728SOL    HW3 6679   2.073   4.126   0.107  1.2508 -1.3135  0.2546
 1728SOL    MW4 6680   2.025   4.054   0.116 -0.3202 -0.6737 -0.1804
 1729SOL     OW 6681   3.009   6.324   3.901  0.0556  0.0497  0.8547
 1729SOL    HW2 6682   3.027   6.328   3.807 -1.2096 -1.9763  0.4639
 1729SOL    HW3 6683   3.012   6.231   3.922  1.1172  0.5117  3.0229
 1729SOL    MW4 6684   3.012   6.313   3.891  0.3151 -0.8954  0.0772
 1730SOL     OW 6685   2.080   6.355   2.557 -0.1768  0.0196 -0.0118
 1730SOL    HW2 6686   2.045   6.441   2.578 -2.0714 -0.8622  0.7163
 1730SOL    HW3 6687   2.006   6.308   2.518  1.2302 -0.8064 -1.8866
 1730SOL    MW4 6688   2.065   6.360   2.554 -0.0605 -0.0466  0.1091
 1731SOL     OW 6689   0.399   4.151   0.213 -0.2115 -0.7121  0.3807
 1731SOL    HW2 6690   0.394   4.131   0.119 -0.4541  0.4750  0.1265
 1731SOL    HW3 6691   0.341   4.226   0.224  0.6255 -0.1790  1.2939
 1731SOL    MW4 6692   0.391   4.158   0.202 -0.7784  0.5866 -0.1161
 1732SOL     OW 6693   2.204   1.973   1.341 -0.5174  0.1744 -0.0417
 1732SOL    HW2 6694   2.282   1.960   1.395  0.7957 -0.4252 -2.0068
 1732SOL    HW3 6695   2.198   2.068   1.331 -0.5927  0.2740  0.8559
 1732SOL    MW4 6696   2.214   1.984   1.347  0.0566 -0.3263 -0.2550
 1733SOL     OW 6697   2.544   3.210   2.025 -0.0659 -0.2996  0.2606
 1733SOL    HW2 6698   2.570   3.302   2.024  2.2599 -0.8984  0.0869
 1733SOL    HW3 6699   2.476   3.204   1.958 -0.3807  1.2999  0.3767
 1733SOL    MW4 6700   2.538   3.222   2.016 -0.1407 -0.0234  0.1290
 1734SOL     OW 6701   3.226   1.626   5.710 -0.4880  0.7282  0.2703
 1734SOL    HW2 6702   3.254   1.550   5.660 -1.7218  0.8020 -0.5639
 1734SOL    HW3 6703   3.292   1.692   5.693 -1.2041  0.9605 -1.7977
 1734SOL    MW4 6704   3.238   1.624   5.701 -0.1975  0.4792 -0.3337
 1735SOL     OW 6705   1.816   4.891   1.701 -1.0443 -0.0350 -0.0276
 1735SOL    HW2 6706   1.815   4.957   1.771 -2.1682  0.4782 -0.5016
 1735SOL    HW3 6707   1.903   4.899   1.662 -0.1702 -0.7480  1.6737
 1735SOL    MW4 6708   1.827   4.901   1.705  0.0591 -0.1275  0.3077
 1736SOL     OW 6709   4.591   2.557   4.513 -1.0228 -0.6364  0.2176
 1736SOL    HW2 6710   4.583   2.577   4.419  1.2229 -0.3037  0.0575
 1736SOL    HW3 6711   4.579   2.642   4.556  0.3647 -0.3181  0.0388
 1736SOL    MW4 6712   4.588   2.571   4.506 -0.1064  0.1560  0.4111
 1737SOL     OW 6713   3.633   5.417   0.602  0.2537 -0.3530 -0.1757
 1737SOL    HW2 6714   3.725   5.397   0.619  0.1862  0.2189  0.9598
 1737SOL    HW3 6715   3.584   5.351   0.650  0.0385 -1.6632 -2.0840
 1737SOL    MW4 6716   3.638   5.406   0.610  0.1478 -0.0420 -0.0597
 1738SOL     OW 6717   2.528   0.288   0.605 -0.5288 -0.1778  0.1774
 1738SOL    HW2 6718   2.569   0.201   0.600 -0.3281 -0.0446 -0.6547
 1738SOL    HW3 6719   2.573   0.340   0.539 -1.0775  0.3825  0.2313
 1738SOL    MW4 6720   2.539   0.283   0.595  0.1977  0.0631  0.1391
 1739SOL     OW 6721   2.673   5.517   3.012  0.4103 -0.3862 -0.1111
 1739SOL    HW2 6722   2.623   5.503   3.092 -0.0980  1.3235 -0.0844
 1739SOL    HW3 6723   2.624   5.471   2.944 -0.2338 -0.1959  0.2236
 1739SOL    MW4 6724   2.660   5.509   3.013 -0.0515  0.0773 -0.0837
 1740SOL     OW 6725   0.839   2.127   5.098  0.3175  0.1573  0.0802
 1740SOL    HW2 6726   0.918   2.091   5.139  1.0108 -1.3974 -2.4274
 1740SOL    HW3 6727   0.866   2.213   5.066  1.0446 -0.3753 -0.7885
 1740SOL    MW4 6728   0.853   2.134   5.099  0.5099  0.0260 -0.1451
 1741SOL     OW 6729   3.924   4.575   2.348 -0.2163 -0.4583 -0.2645
 1741SOL    HW2 6730   3.833   4.564   2.378 -0.5069  1.6903 -0.2253
 1741SOL    HW3 6731   3.972   4.600   2.426  0.0758  0.0412 -0.6044
 1741SOL    MW4 6732   3.918   4.577   2.362  0.2677 -0.0576 -0.0164
 1742SOL     OW 6733   1.184   4.513   2.574 -0.1975 -0.3326  0.0571
 1742SOL    HW2 6734   1.105   4.554   2.538 -0.6440  0.2210  1.5842
 1742SOL    HW3 6735   1.256   4.567   2.543 -0.5606  0.0600 -0.1060
 1742SOL    MW4 6736   1.183   4.525   2.565 -1.0853  0.1596  0.2018
 1743SOL     OW 6737   0.285   3.298   5.903  0.3343  0.3831  0.2521
 1743SOL    HW2 6738   0.278   3.295   5.808 -0.9954  0.9446  0.2943
 1743SOL    HW3 6739   0.195   3.317   5.933  1.0665  2.2683  1.4937
 1743SOL    MW4 6740   0.272   3.300   5.895 -0.2585 -0.3474  0.0180
 1744SOL     OW 6741   3.411   2.242   5.885 -0.5158 -0.4824  0.0955
 1744SOL    HW2 6742   3.399   2.307   5.954  2.3987  0.2832 -0.0053
 1744SOL    HW3 6743   3.462   2.288   5.818 -3.2400 -1.1741 -2.6773
 1744SOL    MW4 6744   3.416   2.257   5.885 -0.0501  0.4566  0.3862
 1745SOL     OW 6745   5.170   5.880   5.284 -0.0590  0.1169 -0.3918
 1745SOL    HW2 6746   5.185   5.851   5.194 -0.6742  0.2705 -0.5458
 1745SOL    HW3 6747   5.217   5.964   5.291  1.2521 -0.6072 -0.1100
 1745SOL    MW4 6748   5.178   5.887   5.273  0.2152  0.0070 -1.2568
 1746SOL     OW 6749   4.880   2.458   4.921  0.0896  0.0810  0.2265
 1746SOL    HW2 6750   4.790   2.428   4.908 -0.7921  2.3490  0.6308
 1746SOL    HW3 6751   4.900   2.437   5.012 -0.2447  0.0964  0.3030
 1746SOL    MW4 6752   4.871   2.451   4.931  0.5965  0.1564 -0.4763
 1747SOL     OW 6753   6.338   0.412   1.970  0.7274 -0.5841  0.0132
 1747SOL    HW2 6754   6.411   0.439   1.915  0.8209  0.8534  0.7770
 1747SOL    HW3 6755   6.335   0.478   2.040 -0.6343 -1.2105  0.5946
 1747SOL    MW4 6756   6.347   0.424   1.972 -0.6976  0.0402  0.9298
 1748SOL     OW 6757   4.095   4.665   5.065  0.4043 -0.7659  0.2793
 1748SOL    HW2 6758   4.160   4.609   5.022 -1.4421 -1.2911 -2.0007
 1748SOL    HW3 6759   4.058   4.609   5.134  2.8183 -0.1823  2.2024
 1748SOL    MW4 6760   4.099   4.650   5.068 -0.2970  0.1110 -0.0463
 1749SOL     OW 6761   0.793   3.837   4.039  0.2200  0.0299 -0.2735
 1749SOL    HW2 6762   0.794   3.769   4.106 -0.1771 -1.8355 -2.0471
 1749SOL    HW3 6763   0.886   3.857   4.025  0.3252  0.1148  0.4953
 1749SOL    MW4 6764   0.806   3.830   4.046  0.2851 -0.7499 -0.5009
 1750SOL     OW 6765   2.944   6.122   4.409 -0.5449 -0.3852 -0.2463
 1750SOL    HW2 6766   2.937   6.104   4.316  1.7048  0.1897 -0.5955
 1750SOL    HW3 6767   2.854   6.130   4.440 -1.3203  0.8264 -2.6490
 1750SOL    MW4 6768   2.931   6.121   4.401 -0.3056 -0.6364  0.2148
 1751SOL     OW 6769   3.838   0.747   1.305 -0.6870  0.3183  0.7983
 1751SOL    HW2 6770   3.932   0.729   1.311  0.0245  2.9736 -0.6631
 1751SOL    HW3 6771   3.804   0.727   1.392  1.4842  0.5252  1.7579
 1751SOL    MW4 6772   3.846   0.742   1.318  0.2624  0.3005  0.3959
 1752SOL     OW 6773   5.282   6.227   5.834  0.1059  0.0756  0.0009
 1752SOL    HW2 6774   5.196   6.228   5.877  0.0829  2.5918  0.0791
 1752SOL    HW3 6775   5.271   6.165   5.762 -2.4557  1.6440 -1.1238
 1752SOL    MW4 6776   5.269   6.219   5.830  0.1880 -0.2357  0.2373
 1753SOL     OW 6777   5.324   2.920   1.820 -0.0518 -0.5662 -0.0915
 1753SOL    HW2 6778   5.416   2.906   1.796  0.0468 -1.6159  0.8094
 1753SOL    HW3 6779   5.320   2.900   1.913 -0.9254  0.9255  0.2176
 1753SOL    MW4 6780   5.336   2.915   1.829 -0.0647 -0.1481 -0.8460
 1754SOL     OW 6781   5.806   0.566   0.114  0.0835 -0.5597  0.5220
 1754SOL    HW2 6782   5.745   0.526   0.052 -0.6417 -0.2093  0.9981
 1754SOL    HW3 6783   5.848   0.492   0.157 -0.2249 -0.8047  0.4074
 1754SOL    MW4 6784   5.804   0.551   0.111  0.5250 -0.2840 -0.1130
 1755SOL     OW 6785   2.345   3.900   1.741  0.5714 -0.1084 -0.1860
 1755SOL    HW2 6786   2.366   3.926   1.651 -1.0819 -0.0267 -0.5735
 1755SOL    HW3 6787   2.356   3.805   1.741 -1.4047 -0.3880 -1.0887
 1755SOL    MW4 6788   2.349   3.891   1.729 -0.0250 -0.0489 -0.3864
 1756SOL     OW 6789   1.161   5.617   5.047  0.2370  0.2879  0.7821
 1756SOL    HW2 6790   1.232   5.597   5.108  0.2833  0.1054  0.6699
 1756SOL    HW3 6791   1.120   5.696   5.083  1.4030  1.2567  0.0847
 1756SOL    MW4 6792   1.165   5.625   5.060 -0.0248  0.5239 -0.6554
 1757SOL     OW 6793   0.559   6.384   4.781  0.0061 -0.5652  0.2104
 1757SOL    HW2 6794   0.478   6.412   4.739 -0.0623 -1.3767 -0.2240
 1757SOL    HW3 6795   0.575   6.450   4.848  0.5218  1.2327 -1.5659
 1757SOL    MW4 6796   0.550   6.396   4.784  0.5818 -0.3783  0.2964
 1758SOL     OW 6797   1.766   3.293   3.086  0.2866  0.3916 -0.1487
 1758SOL    HW2 6798   1.853   3.262   3.062 -0.3217 -0.1467 -1.8139
 1758SOL    HW3 6799   1.728   3.222   3.138 -0.3160 -0.8354 -2.1550
 1758SOL    MW4 6800   1.772   3.280   3.090  0.2346 -0.7186 -0.1251
 1759SOL     OW 6801   5.123   0.939   1.867 -0.2870  0.1172  0.5248
 1759SOL    HW2 6802   5.168   0.996   1.929  0.5900 -0.4756  0.4550
 1759SOL    HW3 6803   5.059   0.996   1.824 -0.9205  0.5246  1.9712
 1759SOL    MW4 6804   5.121   0.954   1.869  0.5761 -0.3284 -0.4636
 1760SOL     OW 6805   5.204   2.529   1.271  0.1181 -0.3421  0.5682
 1760SOL    HW2 6806   5.225   2.519   1.364 -0.7591 -0.3056  0.7757
 1760SOL    HW3 6807   5.108   2.536   1.268  0.2176  1.0288 -0.2141
 1760SOL    MW4 6808   5.194   2.529   1.283  0.0453  0.3819  0.3302
 1761SOL     OW 6809   6.141   5.794   0.577  0.8114  0.1959 -0.2959
 1761SOL    HW2 6810   6.050   5.818   0.556  1.2300  1.1782 -1.0422
 1761SOL    HW3 6811   6.152   5.819   0.668  0.6239  0.9877 -0.4854
 1761SOL    MW4 6812   6.130   5.800   0.586 -0.0227  0.4812 -0.3335
 1762SOL     OW 6813   1.649   5.614   1.581 -0.6617 -0.4743 -0.4953
 1762SOL    HW2 6814   1.573   5.610   1.522 -0.7906  0.9719 -0.4656
 1762SOL    HW3 6815   1.697   5.692   1.553  0.3716 -0.9051  0.0323
 1762SOL    MW4 6816   1.645   5.624   1.569  0.2894  0.3388 -0.8194
 1763SOL     OW 6817   3.080   2.876   0.338  0.2476  0.1267  0.2316
 1763SOL    HW2 6818   3.085   2.796   0.390 -0.0671 -0.0011  0.0707
 1763SOL    HW3 6819   3.163   2.879   0.291 -0.4148 -1.0646 -1.1203
 1763SOL    MW4 6820   3.091   2.866   0.338  0.1951  0.1199 -0.3270
 1764SOL     OW 6821   5.043   5.410   2.651  0.4522  0.1737 -0.0875
 1764SOL    HW2 6822   5.122   5.464   2.650  0.4665  0.1472 -0.7120
 1764SOL    HW3 6823   4.983   5.453   2.590  0.3868 -0.3912 -0.4294
 1764SOL    MW4 6824   5.046   5.423   2.643 -0.0700 -0.5973  0.3209
 1765SOL     OW 6825   3.496   5.325   5.454 -0.3075  0.8908  0.1731
 1765SOL    HW2 6826   3.538   5.247   5.491 -0.1597  0.7239 -0.3302
 1765SOL    HW3 6827   3.561   5.394   5.466 -0.6049  1.0326  0.9947
 1765SOL    MW4 6828   3.510   5.323   5.460 -0.3619  0.2915 -0.1440
 1766SOL     OW 6829   3.328   3.777   5.345  0.5209  0.3532 -0.2825
 1766SOL    HW2 6830   3.279   3.856   5.325  0.4403  0.7267  1.2805
 1766SOL    HW3 6831   3.419   3.801   5.335  0.4985  0.6864  0.2550
 1766SOL    MW4 6832   3.333   3.790   5.341  0.0332  0.5353  0.2105
 1767SOL     OW 6833   6.013   3.348   5.262 -0.1776  0.7177  0.1779
 1767SOL    HW2 6834   6.041   3.312   5.346  0.0321  1.4999  0.4497
 1767SOL    HW3 6835   5.947   3.287   5.230  0.4710 -0.1373  0.4237
 1767SOL    MW4 6836   6.008   3.335   5.269 -0.1557 -0.5807 -0.2680
 1768SOL     OW 6837   4.333   5.192   2.545  0.0586 -0.5358  0.7742
 1768SOL    HW2 6838   4.383   5.215   2.623  0.5755 -1.1620  0.6409
 1768SOL    HW3 6839   4.270   5.263   2.534  1.6607  0.8551  0.2918
 1768SOL    MW4 6840   4.331   5.204   2.554 -0.1802  0.5603  0.8647
 1769SOL     OW 6841   6.124   0.154   4.644  0.0423 -0.8331 -0.0671
 1769SOL    HW2 6842   6.146   0.160   4.551  0.6938  2.0566  0.1847
 1769SOL    HW3 6843   6.204   0.122   4.685 -0.4905 -2.8977 -0.5109
 1769SOL    MW4 6844   6.137   0.150   4.637 -0.6643 -0.4110 -0.8729
 1770SOL     OW 6845   6.105   5.476   3.342  0.3521  0.0874  0.2012
 1770SOL    HW2 6846   6.169   5.456   3.411 -0.6059 -0.5342  0.9419
 1770SOL    HW3 6847   6.027   5.426   3.367  0.0071 -0.2183 -1.4016
 1770SOL    MW4 6848   6.103   5.467   3.355  0.4328 -0.6031  0.2999
 1771SOL     OW 6849   3.795   0.962   1.961  0.2892 -0.1659 -0.2547
 1771SOL    HW2 6850   3.799   0.871   1.991  1.7736 -0.1785 -0.4559
 1771SOL    HW3 6851   3.763   0.956   1.871  0.3572 -0.4751 -0.2595
 1771SOL    MW4 6852   3.791   0.949   1.953  0.0708 -0.1521 -0.6335
 1772SOL     OW 6853   4.406   2.015   3.726 -0.0128  0.0966  0.0712
 1772SOL    HW2 6854   4.486   2.034   3.678 -0.4167 -0.6779 -0.9481
 1772SOL    HW3 6855   4.336   2.050   3.671 -0.4459 -0.2110  0.4156
 1772SOL    MW4 6856   4.407   2.022   3.713 -0.1899 -0.1683 -0.9427
 1773SOL     OW 6857   3.058   0.339   4.110  0.2062 -0.3431  0.2668
 1773SOL    HW2 6858   3.001   0.293   4.048 -0.3536 -0.3400  0.7621
 1773SOL    HW3 6859   3.005   0.345   4.190  0.7619  0.0147  0.6117
 1773SOL    MW4 6860   3.044   0.334   4.112 -0.6886  0.2567  0.5787
 1774SOL     OW 6861   2.140   5.518   2.206  0.8070  0.0884  0.8679
 1774SOL    HW2 6862   2.140   5.423   2.204 -0.2438  0.0838 -0.5925
 1774SOL    HW3 6863   2.047   5.542   2.214  0.7015  0.9510 -1.8470
 1774SOL    MW4 6864   2.127   5.509   2.207 -0.3704 -0.1141  0.6036
 1775SOL     OW 6865   3.407   4.786   5.686 -0.1404 -0.7816 -0.4293
 1775SOL    HW2 6866   3.396   4.812   5.777  0.3008  0.4611 -0.7148
 1775SOL    HW3 6867   3.501   4.769   5.678  0.1371  0.8716 -1.0734
 1775SOL    MW4 6868   3.418   4.787   5.697  0.0414  0.0704 -0.7877
 1776SOL     OW 6869   1.991   1.915   3.253 -0.1582 -0.1226 -0.3140
 1776SOL    HW2 6870   1.997   1.917   3.157  1.0528  1.3242 -0.2524
 1776SOL    HW3 6871   2.010   1.825   3.277  0.4082 -0.3100 -1.4032
 1776SOL    MW4 6872   1.994   1.904   3.243 -0.4162  0.3909 -0.7843
 1777SOL     OW 6873   5.027   4.616   3.974  0.0476 -0.3245  0.0862
 1777SOL    HW2 6874   5.061   4.560   4.044  0.0769 -1.1839 -0.6062
 1777SOL    HW3 6875   4.933   4.624   3.994 -0.5045 -2.7572 -1.1857
 1777SOL    MW4 6876   5.019   4.610   3.986 -0.1268  0.1214 -0.4720
 1778SOL     OW 6877   2.931   2.690   6.204  0.0888 -0.3742 -0.5588
 1778SOL    HW2 6878   2.914   2.677   6.111 -1.8267 -2.6134  0.0296
 1778SOL    HW3 6879   2.845   2.690   6.245  0.8223  1.5075  1.1723
 1778SOL    MW4 6880   2.918   2.689   6.197  0.1429  0.0819 -0.5609
 1779SOL     OW 6881   2.995   4.414   2.073  0.0509 -0.4144 -0.1762
 1779SOL    HW2 6882   3.065   4.360   2.037  1.0531  2.1544 -2.4202
 1779SOL    HW3 6883   3.023   4.433   2.162  2.0965  0.2667 -0.9027
 1779SOL    MW4 6884   3.008   4.409   2.080  0.4641 -0.6846 -0.8475
 1780SOL     OW 6885   2.787   0.580   4.653  0.2738  0.4091  0.4299
 1780SOL    HW2 6886   2.814   0.577   4.745  2.0210  1.0466 -0.0244
 1780SOL    HW3 6887   2.766   0.672   4.637 -1.0759  0.1227  0.4465
 1780SOL    MW4 6888   2.788   0.592   4.663  0.2243 -0.4282 -0.1631
 1781SOL     OW 6889   3.284   0.729   4.118 -0.3118 -0.3347 -0.4647
 1781SOL    HW2 6890   3.263   0.643   4.080  1.5653 -2.2685  2.4603
 1781SOL    HW3 6891   3.370   0.751   4.082 -1.0579  0.6773 -1.6850
 1781SOL    MW4 6892   3.293   0.720   4.108  0.3599  0.4435 -0.4048
 1782SOL     OW 6893   0.272   3.620   6.044 -0.1705  0.3038  0.2659
 1782SOL    HW2 6894   0.299   3.683   6.111  3.4900 -0.1962 -0.5566
 1782SOL    HW3 6895   0.233   3.548   6.094 -1.6821  1.8441  1.4253
 1782SOL    MW4 6896   0.270   3.619   6.060 -0.2832 -0.3730  0.3110
 1783SOL     OW 6897   2.023   2.576   1.031 -0.4157  0.2560  0.2544
 1783SOL    HW2 6898   1.982   2.540   1.109 -0.4036 -0.7978 -0.2025
 1783SOL    HW3 6899   1.949   2.593   0.972 -0.3470  0.1090  0.1257
 1783SOL    MW4 6900   2.008   2.573   1.033  0.4171 -0.1790  0.1608
 1784SOL     OW 6901   1.115   4.293   0.904  0.0219  0.8138 -0.4040
 1784SOL    HW2 6902   1.150   4.282   0.993  0.1065  0.2720 -0.5005
 1784SOL    HW3 6903   1.029   4.251   0.907  0.2232  0.3815 -0.7060
 1784SOL    MW4 6904   1.108   4.286   0.916 -0.4606 -0.0889 -0.4535
 1785SOL     OW 6905   2.548   5.025   4.016 -0.0996 -0.0865  0.6513
 1785SOL    HW2 6906   2.523   5.064   4.100 -0.9738 -0.0217  0.3791
 1785SOL    HW3 6907   2.492   5.070   3.952  0.1832 -0.5037  0.1038
 1785SOL    MW4 6908   2.537   5.036   4.018  0.1318  0.5926 -0.4690
 1786SOL     OW 6909   0.250   3.170   5.359  0.4872  0.8602 -0.1388
 1786SOL    HW2 6910   0.240   3.111   5.434 -1.4362  0.1397 -0.9036
 1786SOL    HW3 6911   0.320   3.231   5.386  1.5515 -0.8596  1.2442
 1786SOL    MW4 6912   0.258   3.170   5.373  0.7775 -0.3412  0.4583
 1787SOL     OW 6913   6.238   0.894   6.024  0.2508  0.1005  0.0581
 1787SOL    HW2 6914   6.313   0.891   6.083  0.5738  0.4742 -0.3222
 1787SOL    HW3 6915   6.211   0.985   6.025  0.1903  0.0875 -0.2790
 1787SOL    MW4 6916   6.245   0.905   6.032  0.2551 -0.4867  0.3237
 1788SOL     OW 6917   5.427   4.882   2.131 -0.6099 -0.5417  0.1859
 1788SOL    HW2 6918   5.459   4.951   2.073  0.1125 -0.8349  0.2278
 1788SOL    HW3 6919   5.374   4.928   2.196  0.1663  0.0250  0.4330
 1788SOL    MW4 6920   5.424   4.897   2.132  0.1303 -0.2171 -0.5009
 1789SOL     OW 6921   3.267   2.341   5.574 -0.2739 -0.2947  0.0604
 1789SOL    HW2 6922   3.207   2.376   5.640 -0.4026 -0.3694 -0.0162
 1789SOL    HW3 6923   3.263   2.246   5.585 -0.1895 -0.3012  0.0372
 1789SOL    MW4 6924   3.258   2.333   5.584  1.1222  0.4036  0.1898
 1790SOL     OW 6925   5.877   2.985   0.653 -0.4243  0.2823 -0.9023
 1790SOL    HW2 6926   5.827   2.904   0.646 -0.8095  0.3947  0.2596
 1790SOL    HW3 6927   5.949   2.975   0.591  1.0886 -2.0881  1.0792
 1790SOL    MW4 6928   5.880   2.973   0.644 -0.0128  0.3422 -0.4278
 1791SOL     OW 6929   4.375   1.821   4.347  0.5905  0.1056 -0.2117
 1791SOL    HW2 6930   4.332   1.808   4.431  0.8184 -0.6279 -0.2008
 1791SOL    HW3 6931   4.321   1.886   4.302  0.0791 -0.0192  0.2176
 1791SOL    MW4 6932   4.362   1.828   4.352 -0.0534 -0.0620  0.2937
 1792SOL     OW 6933   1.431   6.125   1.539 -0.0647 -0.8100  0.2270
 1792SOL    HW2 6934   1.406   6.215   1.559  1.9843 -0.3567  0.9824
 1792SOL    HW3 6935   1.450   6.126   1.445  0.3024 -0.3602  0.3026
 1792SOL    MW4 6936   1.430   6.137   1.529 -0.5578 -0.3512  0.2528
 1793SOL     OW 6937   1.590   3.652   5.970  0.0088  1.0910 -0.1836
 1793SOL    HW2 6938   1.585   3.590   6.043 -0.7145 -0.2479 -1.3160
 1793SOL    HW3 6939   1.531   3.616   5.904  0.7323  2.1931 -1.4827
 1793SOL    MW4 6940   1.582   3.639   5.971  0.0208 -0.7234 -0.4141
 1794SOL     OW 6941   4.824   0.425   5.110  0.8803 -0.2939 -0.0310
 1794SOL    HW2 6942   4.743   0.432   5.060  0.1993 -1.3036  0.8893
 1794SOL    HW3 6943   4.886   0.383   5.049  0.2585 -0.9071 -0.2499
 1794SOL    MW4 6944   4.822   0.420   5.095  0.2381 -0.0276  0.2885
 1795SOL     OW 6945   4.616   2.304   2.576 -0.4515 -0.2872 -0.2755
 1795SOL    HW2 6946   4.534   2.296   2.625 -0.1429  0.5045  0.3855
 1795SOL    HW3 6947   4.672   2.235   2.611  0.4304  1.3948  1.8647
 1795SOL    MW4 6948   4.612   2.294   2.587 -0.1339  0.2506 -0.3800
 1796SOL     OW 6949   3.236   5.615   1.097 -0.2808 -0.2708  0.5807
 1796SOL    HW2 6950   3.263   5.533   1.139  2.4939  0.0812 -0.3152
 1796SOL    HW3 6951   3.229   5.593   1.004  3.6707  1.0040 -0.2167
 1796SOL    MW4 6952   3.239   5.601   1.091 -0.2605 -0.4803 -0.2470
 1797SOL     OW 6953   0.988   1.853   1.959 -0.1817  0.9416  0.4693
 1797SOL    HW2 6954   0.993   1.920   2.027  1.6839  0.0935  1.2364
 1797SOL    HW3 6955   1.078   1.825   1.946 -0.9876 -2.3791  1.1623
 1797SOL    MW4 6956   1.000   1.858   1.966 -0.3145  0.0684 -0.3301
 1798SOL     OW 6957   5.720   0.113   4.106 -0.1717  0.4378 -0.4964
 1798SOL    HW2 6958   5.798   0.133   4.157  0.8124 -1.1912 -1.2739
 1798SOL    HW3 6959   5.718   0.017   4.103 -2.0226  0.4411 -0.7984
 1798SOL    MW4 6960   5.730   0.103   4.113  0.2401 -0.1286 -0.0228
 1799SOL     OW 6961   0.235   5.256   0.200  0.1981 -0.1228  0.2251
 1799SOL    HW2 6962   0.189   5.200   0.138  0.9869 -0.5969  0.0524
 1799SOL    HW3 6963   0.185   5.338   0.201 -0.1217 -0.3023 -0.6312
 1799SOL    MW4 6964   0.222   5.260   0.192 -0.3694  0.2046  0.6276
 1800SOL     OW 6965   4.606   0.054   4.657  0.7760 -0.0672  0.0051
 1800SOL    HW2 6966   4.666   0.017   4.722  1.7405  1.4013 -0.0084
 1800SOL    HW3 6967   4.626   0.006   4.576  0.9448 -0.5462  0.3246
 1800SOL    MW4 6968   4.616   0.042   4.655 -0.2097  0.0621  0.9892
 1801SOL     OW 6969   1.049   6.385   2.644 -0.2959 -0.7588  0.6201
 1801SOL    HW2 6970   0.953   6.382   2.652 -0.2966 -0.7989  0.5970
 1801SOL    HW3 6971   1.080   6.329   2.715 -0.2158  1.2744  2.2848
 1801SOL    MW4 6972   1.040   6.377   2.654 -0.0141  0.1596 -0.1121
 1802SOL     OW 6973   0.942   2.913   2.774 -0.1464  0.0740 -0.3203
 1802SOL    HW2 6974   1.010   2.912   2.842 -0.4826 -0.9451  0.0249
 1802SOL    HW3 6975   0.964   2.989   2.719  0.0680  0.9972  0.9872
 1802SOL    MW4 6976   0.954   2.923   2.776  0.1540  0.4140  0.0519
 1803SOL     OW 6977   5.322   1.920   4.864 -0.1521  0.3133 -0.1711
 1803SOL    HW2 6978   5.299   1.837   4.823  1.2931  0.6149 -1.7046
 1803SOL    HW3 6979   5.238   1.958   4.890 -1.0094 -0.6792 -1.3647
 1803SOL    MW4 6980   5.308   1.914   4.862 -0.0905  0.4934 -0.3858
 1804SOL     OW 6981   3.958   0.751   2.866 -0.1750  0.1252  0.3001
 1804SOL    HW2 6982   4.030   0.776   2.808  0.9145 -1.8692  0.6919
 1804SOL    HW3 6983   3.930   0.833   2.907 -0.0403  1.3765 -1.9338
 1804SOL    MW4 6984   3.964   0.765   2.864 -0.3707  0.3198  0.3833
 1805SOL     OW 6985   4.269   3.419   1.510 -0.3992  0.2388  0.1989
 1805SOL    HW2 6986   4.231   3.345   1.462  2.4286 -0.7291 -0.7497
 1805SOL    HW3 6987   4.286   3.485   1.442 -1.2210  1.0586  0.7631
 1805SOL    MW4 6988   4.266   3.418   1.495 -0.2590  0.2953 -0.2837
 1806SOL     OW 6989   4.288   6.405   4.892 -0.2265  0.7980  0.2707
 1806SOL    HW2 6990   4.291   6.439   4.802 -0.2376  3.1336  1.0853
 1806SOL    HW3 6991   4.195   6.407   4.915 -0.2278  0.1663  0.3235
 1806SOL    MW4 6992   4.276   6.410   4.883  0.3266 -0.0556 -0.6564
 1807SOL     OW 6993   0.170   1.922   0.165 -0.3858  0.2057 -0.0439
 1807SOL    HW2 6994   0.225   1.974   0.224  0.8595  0.5834 -1.4512
 1807SOL    HW3 6995   0.128   1.986   0.109 -0.2504 -0.2043 -0.6284
 1807SOL    MW4 6996   0.172   1.937   0.165  0.2511 -0.2884  0.6603
 1808SOL     OW 6997   1.435   1.145   5.269  0.1171 -0.2973  0.2318
 1808SOL    HW2 6998   1.393   1.211   5.324  0.5725  0.6904 -0.5765
 1808SOL    HW3 6999   1.495   1.194   5.214 -0.0006 -1.3115 -0.8489
 1808SOL    MW4 7000   1.437   1.160   5.269 -0.7072 -0.5578 -0.5045
 1809SOL     OW 7001   2.411   1.062   1.163 -0.2617  0.1173  0.1161
 1809SOL    HW2 7002   2.327   1.063   1.208 -0.2750  0.4449  0.0853
 1809SOL    HW3 7003   2.389   1.043   1.072 -0.2817 -0.0134  0.1475
 1809SOL    MW4 7004   2.397   1.060   1.157  0.2715  0.1386 -0.3320
 1810SOL     OW 7005   2.467   1.186   3.388 -0.6482 -0.0898 -0.0025
 1810SOL    HW2 7006   2.519   1.183   3.468  0.5512  2.1790 -0.6297
 1810SOL    HW3 7007   2.407   1.260   3.401  0.3978  1.1039 -1.6433
 1810SOL    MW4 7008   2.466   1.195   3.401 -0.6879 -0.0007 -0.4373
 1811SOL     OW 7009   4.385   0.106   3.291 -0.2204  0.4258  0.4717
 1811SOL    HW2 7010   4.477   0.102   3.318 -0.1294  1.7354  0.4044
 1811SOL    HW3 7011   4.345   0.028   3.331  1.2355 -1.1013 -0.8479
 1811SOL    MW4 7012   4.392   0.095   3.300 -0.1548  0.2150 -0.1230
 1812SOL     OW 7013   2.729   2.938   1.766  0.0525 -1.0197  0.1062
 1812SOL    HW2 7014   2.761   2.987   1.842 -0.8658 -0.1946 -0.0032
 1812SOL    HW3 7015   2.646   2.900   1.796 -0.0898 -1.0589 -0.3335
 1812SOL    MW4 7016   2.722   2.940   1.780 -0.4126 -0.2104 -0.3565
 1813SOL     OW 7017   6.293   1.208   1.769 -0.4140  0.3479 -0.0742
 1813SOL    HW2 7018   6.209   1.208   1.814 -0.0493  1.3890  0.6449
 1813SOL    HW3 7019   6.289   1.283   1.710  0.4171  1.1194  0.8063
 1813SOL    MW4 7020   6.282   1.218   1.767 -0.5205  0.2852  0.2189
 1814SOL     OW 7021   5.018   4.354   4.163 -0.1166 -0.0468  0.4317
 1814SOL    HW2 7022   4.993   4.410   4.236  0.9457  2.9731 -1.3063
 1814SOL    HW3 7023   5.103   4.318   4.188 -0.2521  0.0822  1.0940
 1814SOL    MW4 7024   5.026   4.357   4.176  0.1031 -0.0342  0.3690
 1815SOL     OW 7025   1.848   0.528   4.827 -0.1942  0.3357  0.2247
 1815SOL    HW2 7026   1.912   0.600   4.830  0.0485  0.1404 -0.1636
 1815SOL    HW3 7027   1.899   0.451   4.853  0.1126 -0.0873 -1.5528
 1815SOL    MW4 7028   1.863   0.528   4.831 -0.3542 -0.0780  0.3566
 1816SOL     OW 7029   5.988   5.041   3.172 -0.5823 -0.3436  0.2375
 1816SOL    HW2 7030   6.042   5.084   3.106  0.4648  0.7926  1.7664
 1816SOL    HW3 7031   5.906   5.092   3.173 -0.4713 -0.1612  0.0464
 1816SOL    MW4 7032   5.984   5.053   3.163  0.5454  0.0753 -0.7175
 1817SOL     OW 7033   2.756   2.469   4.839  0.6154 -0.1939  0.4452
 1817SOL    HW2 7034   2.722   2.556   4.859 -0.4174 -0.6577  0.7378
 1817SOL    HW3 7035   2.801   2.441   4.919  2.3616  0.6958 -0.1597
 1817SOL    MW4 7036   2.758   2.476   4.852 -0.0401  0.2725 -0.3794
 1818SOL     OW 7037   3.360   4.454   3.449  0.0638  0.1565 -0.3878
 1818SOL    HW2 7038   3.336   4.485   3.361 -0.6779  0.1495 -0.1852
 1818SOL    HW3 7039   3.436   4.508   3.472  0.3342  0.0850 -1.0783
 1818SOL    MW4 7040   3.367   4.465   3.440 -0.1488  0.4482 -0.2410
 1819SOL     OW 7041   2.131   3.256   2.184 -0.6510 -0.5188  0.5256
 1819SOL    HW2 7042   2.206   3.275   2.241  1.2130 -0.3221 -1.7943
 1819SOL    HW3 7043   2.110   3.340   2.143  1.4417 -1.3723 -2.7388
 1819SOL    MW4 7044   2.138   3.269   2.186 -0.5322  0.0891 -0.0753
 1820SOL     OW 7045   5.175   2.747   3.910  0.6366 -0.2969  0.0249
 1820SOL    HW2 7046   5.139   2.743   3.821 -0.7198 -0.7247  0.5730
 1820SOL    HW3 7047   5.109   2.795   3.960  0.7588 -1.1953  1.0831
 1820SOL    MW4 7048   5.161   2.753   3.905 -0.2763  0.5924  0.2576
 1821SOL     OW 7049   4.836   6.264   5.217 -0.3633 -0.0109 -0.3306
 1821SOL    HW2 7050   4.767   6.328   5.203 -0.8339 -0.4036  0.1359
 1821SOL    HW3 7051   4.907   6.291   5.158 -0.5465  0.9353 -0.1292
 1821SOL    MW4 7052   4.836   6.276   5.207 -0.4599  0.0321  0.3886
 1822SOL     OW 7053   5.239   0.653   3.944 -0.0059 -0.6786  0.1002
 1822SOL    HW2 7054   5.156   0.652   3.895  0.5685 -2.6478 -0.9661
 1822SOL    HW3 7055   5.275   0.740   3.928 -2.3568  0.6572  1.5487
 1822SOL    MW4 7056   5.233   0.665   3.935  0.1508 -0.5472  0.0041
 1823SOL     OW 7057   0.874   5.297   3.259 -0.1908 -0.3795  0.4735
 1823SOL    HW2 7058   0.857   5.375   3.207  0.3120 -0.1129  0.6988
 1823SOL    HW3 7059   0.789   5.253   3.266  0.0585 -1.4873 -2.2525
 1823SOL    MW4 7060   0.861   5.302   3.253 -0.1721  0.2157 -0.4808
 1824SOL     OW 7061   1.700   5.140   6.122  0.6682 -0.5275 -1.1960
 1824SOL    HW2 7062   1.788   5.143   6.083  0.5724  2.1373 -1.4037
 1824SOL    HW3 7063   1.699   5.212   6.185 -1.1851 -0.8645 -0.7769
 1824SOL    MW4 7064   1.712   5.150   6.125  0.4171 -0.3520  0.4920
 1825SOL     OW 7065   1.569   3.655   2.577 -0.3722  0.1300  0.4406
 1825SOL    HW2 7066   1.604   3.723   2.520  0.3904  1.0851  1.9891
 1825SOL    HW3 7067   1.496   3.617   2.527 -0.0555  1.2581 -0.9420
 1825SOL    MW4 7068   1.564   3.659   2.562  0.1566 -0.1504  0.2879
 1826SOL     OW 7069   4.450   3.042   0.051 -0.4842  0.3004  0.5453
 1826SOL    HW2 7070   4.466   3.104   0.122 -0.0851 -0.3226  1.0088
 1826SOL    HW3 7071   4.529   3.046  -0.003  0.2973 -1.0392  1.5254
 1826SOL    MW4 7072   4.463   3.050   0.053  0.2414 -0.1481  0.5980
 1827SOL     OW 7073   1.475   3.817   4.051  0.2147  0.1396 -0.2041
 1827SOL    HW2 7074   1.422   3.757   4.000 -1.2824 -0.3403  1.7748
 1827SOL    HW3 7075   1.542   3.762   4.093  0.3851  0.2568 -0.3186
 1827SOL    MW4 7076   1.477   3.802   4.050  0.7084  0.2146  0.3100
 1828SOL     OW 7077   1.025   5.369   4.647 -0.1683 -0.0856 -0.2165
 1828SOL    HW2 7078   0.998   5.316   4.572  0.5793 -0.6779 -0.0812
 1828SOL    HW3 7079   0.948   5.373   4.703 -0.6881  0.2367 -0.9437
 1828SOL    MW4 7080   1.012   5.363   4.645  0.1257  0.0979 -0.1976
 1829SOL     OW 7081   1.012   0.961   2.496 -0.4482 -0.4557 -0.1225
 1829SOL    HW2 7082   1.096   1.002   2.473 -0.6694  0.9955  1.4074
 1829SOL    HW3 7083   0.954   0.982   2.423 -0.2146  0.9758  0.0737
 1829SOL    MW4 7084   1.016   0.969   2.483 -0.0539 -0.3488 -0.1863
 1830SOL     OW 7085   4.479   4.775   4.321 -0.1478  0.0847  0.1232
 1830SOL    HW2 7086   4.397   4.735   4.295  0.7482 -1.8853  0.1431
 1830SOL    HW3 7087   4.462   4.813   4.408 -1.1209  0.0407 -0.0469
 1830SOL    MW4 7088   4.466   4.775   4.329 -0.5588  0.3528  0.8591
 1831SOL     OW 7089   0.642   5.908   0.534 -0.0267 -0.5931  0.4535
 1831SOL    HW2 7090   0.598   5.870   0.458 -2.6051  1.4362  0.7829
 1831SOL    HW3 7091   0.718   5.851   0.548 -1.0243 -2.7267 -1.8545
 1831SOL    MW4 7092   0.646   5.895   0.526  0.1467 -0.4349 -0.2582
 1832SOL     OW 7093   4.884   0.401   2.111  0.0764 -0.2772 -0.1748
 1832SOL    HW2 7094   4.853   0.433   2.026  0.8132  1.4688  0.1744
 1832SOL    HW3 7095   4.969   0.362   2.092 -0.3474 -1.1002 -0.4313
 1832SOL    MW4 7096   4.891   0.400   2.097 -0.3148  0.2110  0.5126
 1833SOL     OW 7097   1.951   1.857   1.300  1.1056  0.1068  0.1282
 1833SOL    HW2 7098   2.036   1.890   1.328  0.9041  0.6613  0.0941
 1833SOL    HW3 7099   1.969   1.770   1.265  1.5565 -0.0531  0.7450
 1833SOL    MW4 7100   1.964   1.850   1.299 -0.2602  0.5317 -0.3622
 1834SOL     OW 7101   5.050   5.418   0.694  0.5039  0.0980 -0.0401
 1834SOL    HW2 7102   4.978   5.397   0.636  0.1374 -0.1534  0.4934
 1834SOL    HW3 7103   5.055   5.344   0.754  3.1539 -1.3896 -1.8832
 1834SOL    MW4 7104   5.041   5.406   0.694 -0.0731 -0.0368 -0.0540
 1835SOL     OW 7105   3.804   3.792   5.463 -0.4870 -0.2195 -0.1992
 1835SOL    HW2 7106   3.749   3.787   5.384  0.4884  0.4359 -0.9481
 1835SOL    HW3 7107   3.856   3.871   5.451 -0.3871 -0.0657  1.1645
 1835SOL    MW4 7108   3.804   3.802   5.451  0.1872 -0.1780  0.0874
 1836SOL     OW 7109   2.296   3.471   0.472  0.0691  0.2740  0.2366
 1836SOL    HW2 7110   2.305   3.477   0.567 -0.1872  0.4008  0.2561
 1836SOL    HW3 7111   2.231   3.538   0.450  0.2141  0.3247 -0.0417
 1836SOL    MW4 7112   2.288   3.480   0.481  1.2133  0.1695 -0.5928
 1837SOL     OW 7113   3.727   5.933   0.681  0.3298  0.2755 -0.2170
 1837SOL    HW2 7114   3.714   5.838   0.690  0.8087  0.2090 -0.1923
 1837SOL    HW3 7115   3.802   5.952   0.738 -0.5609  0.8800  0.7749
 1837SOL    MW4 7116   3.736   5.923   0.690 -0.0984  0.3120  0.6253
 1838SOL     OW 7117   4.705   1.061   0.901  0.5985 -0.1470  0.4164
 1838SOL    HW2 7118   4.709   1.034   0.809  2.0908 -2.5905  1.0841
 1838SOL    HW3 7119   4.796   1.079   0.924  0.1735  0.9336  1.3200
 1838SOL    MW4 7120   4.717   1.060   0.892  0.1183  0.1694 -0.4618
 1839SOL     OW 7121   5.650   2.101   2.895  0.6575  0.1149  0.2730
 1839SOL    HW2 7122   5.709   2.115   2.970  0.8908 -0.2822  0.1655
 1839SOL    HW3 7123   5.565   2.085   2.934  0.7119  0.2422  0.4457
 1839SOL    MW4 7124   5.647   2.101   2.910 -0.2944 -0.0623 -0.0833
 1840SOL     OW 7125   3.579   1.498   5.814 -0.1826  0.6195  0.2925
 1840SOL    HW2 7126   3.641   1.557   5.771 -1.8688  3.0862  1.0439
 1840SOL    HW3 7127   3.621   1.477   5.898  1.4357 -1.1985 -0.8809
 1840SOL    MW4 7128   3.593   1.503   5.820 -0.2235  0.1253  0.5052
 1841SOL     OW 7129   0.881   5.611   1.613 -0.1571  0.3578  0.2969
 1841SOL    HW2 7130   0.801   5.649   1.576 -0.0685  1.0188  0.7603
 1841SOL    HW3 7131   0.924   5.569   1.539  0.1587  1.8879 -0.4282
 1841SOL    MW4 7132   0.876   5.611   1.599 -0.3789  0.3925 -0.0512
 1842SOL     OW 7133   4.442   0.529   0.670  0.7818 -0.4606  0.2588
 1842SOL    HW2 7134   4.520   0.486   0.706 -0.3723 -2.7220  0.2081
 1842SOL    HW3 7135   4.387   0.546   0.746  2.2129  3.4420  0.6681
 1842SOL    MW4 7136   4.445   0.526   0.685 -0.1415 -0.2509 -0.6727
 1843SOL     OW 7137   3.032   4.070   2.427 -0.4733  0.1369 -0.7253
 1843SOL    HW2 7138   3.093   4.142   2.444 -0.3410 -0.3100  0.9224
 1843SOL    HW3 7139   3.087   3.991   2.426 -0.8778 -0.1628 -0.2312
 1843SOL    MW4 7140   3.047   4.069   2.429  0.3921  0.5048 -0.3612
 1844SOL     OW 7141   4.188   1.546   1.784 -0.3294 -0.1631 -0.4364
 1844SOL    HW2 7142   4.271   1.534   1.738 -0.0402 -0.6903  0.2000
 1844SOL    HW3 7143   4.133   1.596   1.723  0.3153 -0.1538 -1.0197
 1844SOL    MW4 7144   4.192   1.551   1.770 -0.3968 -0.0447  0.2519
 1845SOL     OW 7145   1.548   1.265   3.838 -0.1272 -0.0324  0.1872
 1845SOL    HW2 7146   1.513   1.225   3.918  0.5400 -0.3635  0.3215
 1845SOL    HW3 7147   1.623   1.317   3.868 -1.7763  2.4641  0.2020
 1845SOL    MW4 7148   1.554   1.267   3.853  0.0111 -0.4838 -0.1828
 1846SOL     OW 7149   5.772   6.177   1.815 -0.0367  0.3482  0.2884
 1846SOL    HW2 7150   5.753   6.262   1.777 -2.6796 -0.2812  0.0437
 1846SOL    HW3 7151   5.812   6.127   1.743  2.1761  1.5058  0.6243
 1846SOL    MW4 7152   5.775   6.181   1.800 -0.7840 -0.6748  0.1867
 1847SOL     OW 7153   0.422   5.410   3.266  0.7480 -0.1066 -0.3667
 1847SOL    HW2 7154   0.431   5.503   3.246  1.0286  0.3124  1.5782
 1847SOL    HW3 7155   0.347   5.382   3.213  0.2549  1.3639 -0.4870
 1847SOL    MW4 7156   0.413   5.418   3.256 -0.1707  0.9266  0.1432
 1848SOL     OW 7157   3.806   3.941   1.746  0.5349  0.6876 -0.2829
 1848SOL    HW2 7158   3.869   3.876   1.715 -0.5179  0.0752 -1.2340
 1848SOL    HW3 7159   3.856   4.023   1.749  0.9554  0.5937 -2.7737
 1848SOL    MW4 7160   3.821   3.943   1.742 -0.1399 -0.0757  0.1954
 1849SOL     OW 7161   6.140   1.810   0.638  0.7206 -0.3644  0.0921
 1849SOL    HW2 7162   6.110   1.900   0.652  1.3796 -0.1670  0.2421
 1849SOL    HW3 7163   6.112   1.789   0.548 -1.2883 -0.7568  0.7609
 1849SOL    MW4 7164   6.132   1.819   0.628 -1.4647  0.4659 -0.3656
 1850SOL     OW 7165   5.388   2.068   3.014 -0.4976 -0.5686 -0.7299
 1850SOL    HW2 7166   5.372   2.140   3.074 -4.0004 -1.7563 -0.0032
 1850SOL    HW3 7167   5.350   2.097   2.931  0.0756 -0.7396 -1.0572
 1850SOL    MW4 7168   5.381   2.081   3.011 -0.4889  0.3169  0.0682
 1851SOL     OW 7169   0.117   5.014   0.113 -0.0698 -0.2185  0.1313
 1851SOL    HW2 7170   0.124   4.919   0.104 -0.5591 -0.4143  1.6233
 1851SOL    HW3 7171   0.046   5.037   0.053  2.3953 -0.2347 -3.0832
 1851SOL    MW4 7172   0.108   5.004   0.104  0.2579  0.4097 -0.4166
 1852SOL     OW 7173   3.532   2.693   2.136  0.3232  1.3319  0.3905
 1852SOL    HW2 7174   3.451   2.745   2.135 -0.3626  0.3015  0.0792
 1852SOL    HW3 7175   3.545   2.667   2.045 -1.8215 -2.6290  0.9807
 1852SOL    MW4 7176   3.523   2.696   2.124 -0.1354  0.1374 -0.5683
 1853SOL     OW 7177   2.036   0.670   3.929 -0.8803  0.2080  0.8369
 1853SOL    HW2 7178   2.118   0.686   3.882 -0.6198 -0.6921  0.9716
 1853SOL    HW3 7179   2.027   0.746   3.987 -0.5592  0.7083  0.2452
 1853SOL    MW4 7180   2.046   0.682   3.930  0.0674  0.3849  0.3384
 1854SOL     OW 7181   3.072   0.932   5.814 -0.1220 -0.0074 -0.0040
 1854SOL    HW2 7182   2.993   0.946   5.761  0.1207  0.6521 -0.2062
 1854SOL    HW3 7183   3.063   0.993   5.887 -0.0039 -0.2337  0.1988
 1854SOL    MW4 7184   3.060   0.942   5.816 -0.3527 -0.0775  0.4108
 1855SOL     OW 7185   0.090   4.055   0.157 -0.2821 -0.3343  0.0398
 1855SOL    HW2 7186   0.133   4.126   0.205  0.4315 -0.9706  0.3602
 1855SOL    HW3 7187   0.161   4.009   0.113 -0.7850 -0.6096 -0.4964
 1855SOL    MW4 7188   0.105   4.058   0.158 -0.3938 -0.2507 -0.1942
 1856SOL     OW 7189   6.266   5.304   3.166  0.4907 -0.0725  0.4257
 1856SOL    HW2 7190   6.194   5.270   3.113  0.3854  0.3695  0.2850
 1856SOL    HW3 7191   6.228   5.374   3.218  0.8554  0.2896  0.2153
 1856SOL    MW4 7192   6.252   5.309   3.166  0.2757 -0.1368  0.1278
 1857SOL     OW 7193   1.665   2.650   3.876 -0.3468 -0.0309 -0.7147
 1857SOL    HW2 7194   1.578   2.610   3.884 -0.4218  0.2449 -0.0925
 1857SOL    HW3 7195   1.716   2.611   3.948  0.2917 -0.7888 -1.5518
 1857SOL    MW4 7196   1.660   2.639   3.887 -0.6372 -0.4284 -0.0542
 1858SOL     OW 7197   2.967   5.677   5.452 -0.4234  0.5122 -0.2546
 1858SOL    HW2 7198   2.915   5.600   5.429  1.3695 -0.7431 -0.2947
 1858SOL    HW3 7199   2.958   5.685   5.547  0.0663 -0.2675 -0.1386
 1858SOL    MW4 7200   2.959   5.668   5.461  0.3904  0.2401 -0.0877
 1859SOL     OW 7201   4.695   4.595   4.850  0.4729 -0.0340 -0.0039
 1859SOL    HW2 7202   4.741   4.671   4.885  0.5236  0.8369 -1.7998
 1859SOL    HW3 7203   4.756   4.522   4.861  0.3689  0.1256  1.8728
 1859SOL    MW4 7204   4.709   4.595   4.856 -0.4969  0.4996  0.1419
 1860SOL     OW 7205   5.066   4.974   4.454 -0.2239 -0.2961  0.0863
 1860SOL    HW2 7206   5.104   4.943   4.536 -2.8164 -1.6099  0.9140
 1860SOL    HW3 7207   5.054   5.068   4.466  1.1386 -0.1509  0.4377
 1860SOL    MW4 7208   5.069   4.982   4.466  0.1282 -0.1565 -0.0896
 1861SOL     OW 7209   0.310   1.501   5.283 -0.7476  0.0003  0.5484
 1861SOL    HW2 7210   0.277   1.415   5.308  0.1160 -0.4640  0.1361
 1861SOL    HW3 7211   0.247   1.534   5.219 -1.2010 -0.2276  0.8780
 1861SOL    MW4 7212   0.297   1.494   5.278  0.5475  0.2927  0.2402
 1862SOL     OW 7213   5.285   3.516   3.586 -0.1145  0.0228  0.6771
 1862SOL    HW2 7214   5.229   3.562   3.648  1.1415  0.6182  1.3833
 1862SOL    HW3 7215   5.234   3.516   3.504 -0.8400  1.1784  1.1049
 1862SOL    MW4 7216   5.271   3.522   3.583 -0.1071 -0.0418  0.5336
 1863SOL     OW 7217   2.749   6.038   4.960 -0.1985  0.6832  0.4668
 1863SOL    HW2 7218   2.766   5.949   4.989 -1.0072 -0.1009 -1.3227
 1863SOL    HW3 7219   2.835   6.075   4.943  0.2239  0.7425  2.4986
 1863SOL    MW4 7220   2.762   6.031   4.962 -0.1010  0.1437  0.1505
 1864SOL     OW 7221   0.869   0.003   4.952  0.0594 -0.0231  0.1946
 1864SOL    HW2 7222   0.788   0.054   4.958 -0.5880 -0.8581 -1.0497
 1864SOL    HW3 7223   0.894  -0.014   5.043 -1.6937 -0.5685  0.6100
 1864SOL    MW4 7224   0.862   0.008   4.964  0.0930  0.2137 -0.2629
 1865SOL     OW 7225   6.317   1.111   4.923  0.0650  0.4647  0.1110
 1865SOL    HW2 7226   6.363   1.028   4.930 -0.0760  0.3775  0.0222
 1865SOL    HW3 7227   6.276   1.108   4.836 -0.5850  0.2904  0.4135
 1865SOL    MW4 7228   6.317   1.100   4.913  0.2263 -0.1036  0.2676
 1866SOL     OW 7229   3.160   0.646   6.213  0.3827 -0.0594 -0.0415
 1866SOL    HW2 7230   3.090   0.642   6.278  0.1450  0.8103 -0.2325
 1866SOL    HW3 7231   3.206   0.727   6.232  0.1868  0.3132 -1.0649
 1866SOL    MW4 7232   3.157   0.656   6.224  0.3624  0.0514  0.5569
 1867SOL     OW 7233   6.075   0.580   5.989 -0.0450 -0.0992  0.3657
 1867SOL    HW2 7234   6.072   0.649   6.056  1.5582  0.4085 -0.0203
 1867SOL    HW3 7235   6.162   0.591   5.949 -1.1629  0.0010 -2.1996
 1867SOL    MW4 7236   6.086   0.591   5.993 -0.1218  0.1441  0.6742
 1868SOL     OW 7237   1.204   5.227   1.036 -0.2149  0.1149 -0.2665
 1868SOL    HW2 7238   1.177   5.201   1.124  1.8122 -0.4661  0.2412
 1868SOL    HW3 7239   1.126   5.216   0.982 -1.3340 -0.0908  1.3335
 1868SOL    MW4 7240   1.190   5.222   1.040  0.0972  0.2105 -0.2581
 1869SOL     OW 7241   3.374   0.133   2.525  0.1814  0.2604 -0.4024
 1869SOL    HW2 7242   3.300   0.072   2.522  0.8541 -0.5850 -0.2429
 1869SOL    HW3 7243   3.450   0.080   2.498  0.6893  1.1783 -0.8295
 1869SOL    MW4 7244   3.374   0.118   2.521 -0.8554  0.0159  0.0612
 1870SOL     OW 7245   2.608   5.841   1.476  0.2556 -0.3647 -0.0522
 1870SOL    HW2 7246   2.681   5.779   1.482  1.2725  0.2971 -3.5682
 1870SOL    HW3 7247   2.649   5.927   1.482 -0.5328  0.0195 -0.0553
 1870SOL    MW4 7248   2.623   5.844   1.478  0.1819  1.0565 -0.6561
 1871SOL     OW 7249   6.165   2.797   1.168 -0.0363 -0.6256  0.5766
 1871SOL    HW2 7250   6.173   2.735   1.241 -2.2613 -1.3232  0.2880
 1871SOL    HW3 7251   6.072   2.800   1.149 -0.0416  2.7639  0.4933
 1871SOL    MW4 7252   6.154   2.790   1.175  0.5716  0.2540 -0.0709
 1872SOL     OW 7253   4.158   5.775   0.337  0.4563  0.0652 -0.2902
 1872SOL    HW2 7254   4.073   5.765   0.380  0.4841  0.7172 -0.0710
 1872SOL    HW3 7255   4.171   5.693   0.289  0.4792 -0.7216  1.0308
 1872SOL    MW4 7256   4.148   5.763   0.336  0.5044 -0.4515 -0.1900
 1873SOL     OW 7257   4.401   2.272   0.238 -0.4400 -0.2141 -0.2041
 1873SOL    HW2 7258   4.462   2.336   0.275 -0.4993 -1.4316  2.1983
 1873SOL    HW3 7259   4.315   2.302   0.265 -0.4283 -1.5650  1.5710
 1873SOL    MW4 7260   4.398   2.284   0.247 -0.2082  0.5561 -0.0932
 1874SOL     OW 7261   2.247   1.950   4.837 -0.0281 -0.3635  0.2928
 1874SOL    HW2 7262   2.342   1.958   4.825 -0.1386  0.0835 -0.2895
 1874SOL    HW3 7263   2.231   1.855   4.834  0.4363 -0.4675  0.7451
 1874SOL    MW4 7264   2.258   1.938   4.835  0.0638  0.2013  0.2330
 1875SOL     OW 7265   4.983   3.495   4.649 -0.5768  0.0927 -0.1275
 1875SOL    HW2 7266   5.008   3.450   4.730 -3.1076 -0.4341  0.4758
 1875SOL    HW3 7267   4.943   3.426   4.596  2.2926  0.1026 -2.5486
 1875SOL    MW4 7268   4.981   3.480   4.653 -0.1603 -0.5138  0.0984
 1876SOL     OW 7269   4.904   5.826   6.054  0.2827  0.1840 -0.0066
 1876SOL    HW2 7270   4.848   5.753   6.029  1.4217 -0.5640 -0.4049
 1876SOL    HW3 7271   4.860   5.865   6.130  1.3298 -2.9613  2.3998
 1876SOL    MW4 7272   4.891   5.822   6.061  0.5142  0.1264  0.2704
 1877SOL     OW 7273   3.907   4.706   4.083 -0.2335  0.7210 -0.3836
 1877SOL    HW2 7274   3.824   4.728   4.041 -1.3901 -0.9569  0.9147
 1877SOL    HW3 7275   3.892   4.718   4.176  0.4988 -0.9748 -0.0078
 1877SOL    MW4 7276   3.894   4.710   4.090 -0.2635  0.1123 -0.2856
 1878SOL     OW 7277   0.458   2.060   3.059 -0.2937 -0.1450  0.1551
 1878SOL    HW2 7278   0.423   1.977   3.027 -0.2103 -0.1790  0.1511
 1878SOL    HW3 7279   0.487   2.041   3.149 -0.2691 -0.1214  0.1522
 1878SOL    MW4 7280   0.457   2.047   3.067 -0.2649  0.4525 -0.2908
 1879SOL     OW 7281   0.927   3.689   0.619  0.5626  0.2185 -0.8852
 1879SOL    HW2 7282   0.917   3.716   0.528  0.4733 -0.7430 -1.1765
 1879SOL    HW3 7283   1.016   3.653   0.624  0.7645  0.7629 -0.4542
 1879SOL    MW4 7284   0.937   3.688   0.608 -0.0937 -0.1548  0.2084
 1880SOL     OW 7285   5.135   3.580   6.300  0.4153 -0.0999  0.1388
 1880SOL    HW2 7286   5.101   3.558   6.214 -2.3667  0.8387  0.8943
 1880SOL    HW3 7287   5.135   3.496   6.348  0.0815 -0.2867 -0.1826
 1880SOL    MW4 7288   5.131   3.566   6.295  0.1922 -0.6949 -0.1086
 1881SOL     OW 7289   3.464   2.135   4.559  0.2004  0.2983  0.0931
 1881SOL    HW2 7290   3.500   2.111   4.474  0.6417 -0.1170  0.3936
 1881SOL    HW3 7291   3.373   2.157   4.541 -0.3003 -1.7662 -0.1882
 1881SOL    MW4 7292   3.457   2.135   4.545 -0.0316  0.5697 -0.1957
 1882SOL     OW 7293   0.521   3.125   5.621  0.5244 -0.1670  0.2419
 1882SOL    HW2 7294   0.434   3.085   5.621  0.3428  0.2207 -0.1029
 1882SOL    HW3 7295   0.581   3.052   5.632  0.1840 -0.5128 -0.1553
 1882SOL    MW4 7296   0.517   3.110   5.622  0.0525 -0.2851  0.1358
 1883SOL     OW 7297   4.041   1.075   1.969  0.3954 -0.1399 -0.3844
 1883SOL    HW2 7298   3.950   1.046   1.962  0.3019 -0.6285  1.8761
 1883SOL    HW3 7299   4.037   1.169   1.953 -0.0897 -0.4969 -2.7118
 1883SOL    MW4 7300   4.028   1.083   1.966 -0.1912 -0.8741 -0.5888
 1884SOL     OW 7301   1.808   5.275   3.690  0.1220  0.1338  0.4936
 1884SOL    HW2 7302   1.802   5.201   3.630  1.2157 -0.2080  0.7729
 1884SOL    HW3 7303   1.897   5.308   3.678 -0.7108  2.1869 -0.4985
 1884SOL    MW4 7304   1.819   5.269   3.681 -0.1887  0.2281  0.1996
 1885SOL     OW 7305   4.973   0.312   1.514  0.0853 -0.2432 -0.3283
 1885SOL    HW2 7306   4.893   0.280   1.472 -0.4729  1.8398 -0.9770
 1885SOL    HW3 7307   4.977   0.264   1.596 -0.3757 -2.3056 -1.4293
 1885SOL    MW4 7308   4.963   0.302   1.519 -0.0621 -0.1803  0.0479
 1886SOL     OW 7309   0.570   4.186   1.537 -0.0804 -0.2460  0.1952
 1886SOL    HW2 7310   0.657   4.191   1.497  0.2587 -1.6098  0.7019
 1886SOL    HW3 7311   0.581   4.222   1.625 -0.2409  0.3979 -0.0434
 1886SOL    MW4 7312   0.583   4.191   1.543  0.1462  0.1826 -0.2429
 1887SOL     OW 7313   5.612   2.452   5.994  0.1146 -0.1890  0.2348
 1887SOL    HW2 7314   5.525   2.493   5.995  1.5235  3.0786  0.4901
 1887SOL    HW3 7315   5.600   2.373   5.942 -2.3937  1.7346 -2.4390
 1887SOL    MW4 7316   5.599   2.447   5.987  0.2826  0.1126 -0.7378
 1888SOL     OW 7317   5.601   3.023   5.166  0.3317 -0.4313  0.1965
 1888SOL    HW2 7318   5.602   2.970   5.087 -1.2383 -2.0101  1.1574
 1888SOL    HW3 7319   5.519   3.073   5.161 -0.1611 -1.1187  1.1539
 1888SOL    MW4 7320   5.590   3.023   5.155  0.2257  1.0625  0.2247
 1889SOL     OW 7321   0.472   3.402   4.052 -0.1308  0.2517  0.3671
 1889SOL    HW2 7322   0.564   3.421   4.037 -0.1089 -0.0391  0.1151
 1889SOL    HW3 7323   0.432   3.410   3.966 -0.4727  1.0719  0.5925
 1889SOL    MW4 7324   0.479   3.406   4.039  0.1098 -0.3931 -0.6625
 1890SOL     OW 7325   0.798   6.264   1.194  0.2023  0.2375  0.3704
 1890SOL    HW2 7326   0.803   6.358   1.179  1.2507  0.0166 -0.8155
 1890SOL    HW3 7327   0.848   6.225   1.122  0.6157 -1.1829  1.3756
 1890SOL    MW4 7328   0.805   6.271   1.183  0.2757 -0.5344 -1.0991
 1891SOL     OW 7329   2.691   0.269   3.965  0.3163  0.3540 -0.1271
 1891SOL    HW2 7330   2.778   0.243   3.932  0.5295  1.3020 -0.3429
 1891SOL    HW3 7331   2.710   0.331   4.035 -0.1470 -1.4797  1.7056
 1891SOL    MW4 7332   2.705   0.274   3.970  0.7637  0.5623 -0.4461
 1892SOL     OW 7333   3.777   1.773   1.782 -0.4191  0.4197  0.3585
 1892SOL    HW2 7334   3.776   1.865   1.756  0.9194 -0.0645 -1.7114
 1892SOL    HW3 7335   3.854   1.736   1.738 -1.6148 -1.9585  0.0566
 1892SOL    MW4 7336   3.787   1.780   1.773  0.0219 -0.0093  0.2809
 1893SOL     OW 7337   4.331   3.255   4.631 -0.4570 -0.5472 -0.0353
 1893SOL    HW2 7338   4.236   3.256   4.624 -0.4738 -1.1029  0.0516
 1893SOL    HW3 7339   4.362   3.243   4.541 -0.3117  3.7423 -0.7776
 1893SOL    MW4 7340   4.323   3.253   4.618  0.0644  0.5177 -0.3896
 1894SOL     OW 7341   3.951   5.885   2.012  0.0871  0.1919  0.8993
 1894SOL    HW2 7342   3.944   5.938   2.091 -1.6059 -0.1201  0.9911
 1894SOL    HW3 7343   3.982   5.800   2.043 -1.0291 -0.0807  1.3247
 1894SOL    MW4 7344   3.954   5.881   2.027 -0.3170 -0.0682  0.0436
 1895SOL     OW 7345   4.013   2.366   6.331  0.3067 -0.1087  0.6418
 1895SOL    HW2 7346   4.006   2.412   6.415 -1.6708  1.7370 -0.4498
 1895SOL    HW3 7347   4.054   2.282   6.353  1.1693  0.9014  3.2062
 1895SOL    MW4 7348   4.018   2.361   6.345 -0.6325  0.2000 -0.8858
 1896SOL     OW 7349   4.167   5.794   5.718  0.2006  0.1947 -0.2595
 1896SOL    HW2 7350   4.171   5.699   5.709 -0.9757 -0.0445  1.2896
 1896SOL    HW3 7351   4.144   5.809   5.810  0.5048  1.9893 -0.4268
 1896SOL    MW4 7352   4.164   5.784   5.729  0.1968 -0.2541  1.0828
 1897SOL     OW 7353   2.005   5.696   2.827  0.5312 -0.0877 -0.7112
 1897SOL    HW2 7354   1.915   5.728   2.834  1.1082  1.6489 -0.6452
 1897SOL    HW3 7355   1.997   5.601   2.835 -1.4076 -0.0876 -1.9782
 1897SOL    MW4 7356   1.992   5.688   2.829 -0.1582  0.2621  0.0939
 1898SOL     OW 7357   2.617   5.588   2.661  0.4531 -0.6768  0.1173
 1898SOL    HW2 7358   2.599   5.494   2.662 -3.0640 -0.1736 -1.8123
 1898SOL    HW3 7359   2.623   5.610   2.568  1.6654  1.0073  0.5449
 1898SOL    MW4 7360   2.616   5.578   2.649 -0.1695  0.0069 -0.6397
 1899SOL     OW 7361   5.729   2.183   2.634  0.2218  0.0757 -0.2626
 1899SOL    HW2 7362   5.810   2.143   2.603  0.7588  0.3585  0.7545
 1899SOL    HW3 7363   5.728   2.165   2.728 -0.6209  0.5663 -0.1718
 1899SOL    MW4 7364   5.739   2.175   2.642  0.1571 -0.0222 -0.2200
 1900SOL     OW 7365   3.809   6.393   5.461  0.0345  0.3062 -0.0495
 1900SOL    HW2 7366   3.730   6.446   5.449  0.7662  1.2821 -0.7591
 1900SOL    HW3 7367   3.799   6.353   5.548 -1.9305 -0.8352 -0.7383
 1900SOL    MW4 7368   3.797   6.395   5.471 -0.2612  0.2114 -0.0357
 1901SOL     OW 7369   0.946   2.403   2.779 -0.5972  0.2349 -0.5961
 1901SOL    HW2 7370   0.909   2.354   2.706 -1.2118 -0.3413  0.0836
 1901SOL    HW3 7371   0.947   2.494   2.749  0.1558 -0.1257 -1.7114
 1901SOL    MW4 7372   0.941   2.408   2.765  0.0041 -0.2174 -0.4669
 1902SOL     OW 7373   5.299   3.763   1.390  0.0642  0.1446 -0.3724
 1902SOL    HW2 7374   5.222   3.760   1.447 -1.2998 -1.8438 -2.1929
 1902SOL    HW3 7375   5.369   3.724   1.443 -0.9985 -1.0519  0.1953
 1902SOL    MW4 7376   5.298   3.758   1.405  0.2467 -0.7406 -0.2654
 1903SOL     OW 7377   1.111   1.482   3.166  0.0235 -0.5902  0.4698
 1903SOL    HW2 7378   1.020   1.510   3.156  0.9070  1.9019 -1.2190
 1903SOL    HW3 7379   1.153   1.553   3.215  1.3986 -1.0025 -0.0777
 1903SOL    MW4 7380   1.104   1.495   3.171 -0.1132 -0.2895 -0.1738
 1904SOL     OW 7381   4.943   5.979   5.606 -0.7337  0.1334 -0.4673
 1904SOL    HW2 7382   4.894   5.924   5.545  0.4301  1.1089 -2.3756
 1904SOL    HW3 7383   4.881   5.996   5.677 -1.8566 -1.7664 -0.9035
 1904SOL    MW4 7384   4.928   5.974   5.607 -0.0724 -0.0345  0.0894
 1905SOL     OW 7385   5.106   3.489   4.286  0.1725  0.2940  0.4952
 1905SOL    HW2 7386   5.094   3.504   4.380 -0.1886 -0.4642  0.5724
 1905SOL    HW3 7387   5.112   3.577   4.249 -0.4996  0.6173  1.1258
 1905SOL    MW4 7388   5.105   3.503   4.294  0.4993  0.2018 -0.6516
 1906SOL     OW 7389   3.069   4.397   0.408 -0.2815  0.0474  0.2207
 1906SOL    HW2 7390   3.015   4.321   0.386 -0.5756  0.5224 -0.7524
 1906SOL    HW3 7391   3.087   4.388   0.502  0.6360 -1.8197 -0.0865
 1906SOL    MW4 7392   3.065   4.386   0.418 -0.6972  0.3537 -0.0303
 1907SOL     OW 7393   0.083   2.749   4.989 -0.1318  0.4748 -0.0718
 1907SOL    HW2 7394   0.049   2.669   4.948  0.1615  1.1924 -1.8026
 1907SOL    HW3 7395   0.004   2.800   5.009 -0.2358  0.6077 -0.8034
 1907SOL    MW4 7396   0.068   2.745   4.986  0.2793 -0.0151 -0.4361
 1908SOL     OW 7397   0.483   2.270   3.668  0.3439  0.2740  0.0616
 1908SOL    HW2 7398   0.578   2.269   3.676  0.4699  0.8122 -1.0962
 1908SOL    HW3 7399   0.457   2.360   3.689  0.1305  0.2332 -0.0203
 1908SOL    MW4 7400   0.492   2.282   3.672 -0.1676 -0.2281 -0.7664
 1909SOL     OW 7401   6.048   5.295   1.614 -1.1485  0.1586 -0.2083
 1909SOL    HW2 7402   5.965   5.344   1.612 -0.9090  0.5922 -2.1428
 1909SOL    HW3 7403   6.023   5.206   1.588 -1.1870 -0.0739  0.5958
 1909SOL    MW4 7404   6.034   5.290   1.610  0.2014  0.1140  0.0130
 1910SOL     OW 7405   2.657   2.157   1.339 -0.6838 -0.2155  0.8102
 1910SOL    HW2 7406   2.738   2.203   1.315  0.1380 -1.6465  0.7251
 1910SOL    HW3 7407   2.598   2.170   1.264  0.3645 -1.1804 -0.2301
 1910SOL    MW4 7408   2.660   2.165   1.326  0.0821 -0.1534  0.0276
 1911SOL     OW 7409   3.627   5.596   4.422 -0.6101  0.0572  0.2880
 1911SOL    HW2 7410   3.569   5.558   4.356  0.5102 -1.1555 -0.0541
 1911SOL    HW3 7411   3.681   5.522   4.452  0.1749  0.9632  1.1957
 1911SOL    MW4 7412   3.627   5.581   4.417  0.4260 -0.7003  0.2297
 1912SOL     OW 7413   5.631   0.417   2.699 -0.0656 -0.3471  0.0480
 1912SOL    HW2 7414   5.587   0.374   2.772  1.1838 -0.2791  0.8630
 1912SOL    HW3 7415   5.573   0.489   2.675 -0.9367 -0.9353  0.3584
 1912SOL    MW4 7416   5.618   0.421   2.705 -1.1450  0.2808 -0.0105
 1913SOL     OW 7417   5.425   2.333   3.839 -0.8062 -0.1995  0.1056
 1913SOL    HW2 7418   5.368   2.406   3.860 -0.3707  0.2134 -0.1291
 1913SOL    HW3 7419   5.449   2.295   3.924  0.6372  1.2188  0.3779
 1913SOL    MW4 7420   5.421   2.337   3.853  0.6163 -0.1895 -0.2299
 1914SOL     OW 7421   2.828   0.144   6.205  0.5105 -0.3816 -0.5206
 1914SOL    HW2 7422   2.909   0.134   6.255 -0.0867 -1.1697  0.3230
 1914SOL    HW3 7423   2.849   0.209   6.137  1.8644 -0.6555 -0.3817
 1914SOL    MW4 7424   2.842   0.152   6.202  0.5486 -0.0964 -0.1502
 1915SOL     OW 7425   2.079   4.258   5.795  0.0317  0.1119  0.0986
 1915SOL    HW2 7426   2.163   4.263   5.751  0.0856 -2.3816 -0.2762
 1915SOL    HW3 7427   2.020   4.222   5.729 -0.8067 -0.1517  0.9664
 1915SOL    MW4 7428   2.082   4.254   5.780 -0.0371 -0.3335 -0.3351
 1916SOL     OW 7429   0.473   1.702   3.743 -0.1286 -0.0084 -0.1713
 1916SOL    HW2 7430   0.548   1.644   3.755 -0.1278  0.1444  0.6249
 1916SOL    HW3 7431   0.398   1.653   3.776 -0.5795 -0.5818 -1.9572
 1916SOL    MW4 7432   0.473   1.688   3.749 -0.0271  0.1745 -0.3771
 1917SOL     OW 7433   1.324   0.567   2.648 -0.1681  0.2231  0.1823
 1917SOL    HW2 7434   1.249   0.517   2.679 -0.5200 -0.4964 -1.7533
 1917SOL    HW3 7435   1.297   0.659   2.659 -0.0868  0.0483  2.3474
 1917SOL    MW4 7436   1.311   0.573   2.654 -0.2505 -0.0611  0.0528
 1918SOL     OW 7437   5.440   1.340   2.593  0.8543  0.5778  0.4208
 1918SOL    HW2 7438   5.458   1.297   2.509  1.1998 -1.2205  1.3840
 1918SOL    HW3 7439   5.348   1.367   2.586  1.1384  1.3148 -0.8851
 1918SOL    MW4 7440   5.430   1.338   2.581 -0.0813  0.0249 -0.4640
 1919SOL     OW 7441   3.523   2.287   1.361  0.6294 -0.5266  0.2313
 1919SOL    HW2 7442   3.546   2.369   1.318  1.5461 -0.4621  0.8129
 1919SOL    HW3 7443   3.536   2.220   1.293  0.0566 -0.2226 -0.1889
 1919SOL    MW4 7444   3.528   2.289   1.346 -0.0278 -0.1977 -0.5045
 1920SOL     OW 7445   1.513   4.960   4.430  0.3281  0.2968  0.5633
 1920SOL    HW2 7446   1.505   4.991   4.340  1.6351  1.3479  0.7827
 1920SOL    HW3 7447   1.430   4.917   4.448 -0.2885  0.8420 -0.8474
 1920SOL    MW4 7448   1.501   4.958   4.420 -0.1038 -0.2087  0.2224
 1921SOL     OW 7449   2.039   2.583   4.100 -0.1969  0.0056 -0.5731
 1921SOL    HW2 7450   2.078   2.588   4.012  1.8865 -0.4246  0.2705
 1921SOL    HW3 7451   2.078   2.656   4.148 -0.2014 -0.6116  0.3924
 1921SOL    MW4 7452   2.049   2.593   4.095 -0.3335  0.0361 -0.2628
 1922SOL     OW 7453   2.295   5.906   2.700 -0.0453  0.1744 -0.0662
 1922SOL    HW2 7454   2.295   5.812   2.717  3.2299  0.2549  1.1240
 1922SOL    HW3 7455   2.228   5.941   2.758  0.3231 -1.2288  1.2645
 1922SOL    MW4 7456   2.287   5.898   2.710  0.5634 -0.4561 -0.1892
 1923SOL     OW 7457   2.352   3.608   2.071 -0.5407 -0.3346  0.0651
 1923SOL    HW2 7458   2.358   3.568   2.158 -0.9619 -0.2495  0.1360
 1923SOL    HW3 7459   2.269   3.575   2.036 -0.8546  0.4152  0.0930
 1923SOL    MW4 7460   2.341   3.598   2.078  0.0127 -0.6024  0.0395
 1924SOL     OW 7461   0.241   2.593   5.504  0.6909 -0.7250  0.0900
 1924SOL    HW2 7462   0.169   2.551   5.552 -0.5630  0.2046 -0.8897
 1924SOL    HW3 7463   0.199   2.631   5.427  2.2665 -0.2076 -0.5513
 1924SOL    MW4 7464   0.226   2.593   5.500  0.4938  0.0454 -0.2989
 1925SOL     OW 7465   3.659   4.312   5.537 -0.5823 -0.4141  0.3914
 1925SOL    HW2 7466   3.587   4.363   5.574 -0.7719 -0.3885 -0.0125
 1925SOL    HW3 7467   3.728   4.316   5.604 -0.6023  0.3475  0.3762
 1925SOL    MW4 7468   3.659   4.319   5.551  0.0667  0.1623  0.4476
 1926SOL     OW 7469   3.310   0.149   3.282 -0.2651  0.0241  0.5837
 1926SOL    HW2 7470   3.219   0.167   3.304 -0.4306 -0.5683  0.3842
 1926SOL    HW3 7471   3.356   0.152   3.367 -0.9835 -2.7819  1.1862
 1926SOL    MW4 7472   3.304   0.152   3.296 -0.7570 -0.3243 -0.9882
 1927SOL     OW 7473   4.938   2.696   1.903  0.3809 -0.3678 -0.2828
 1927SOL    HW2 7474   4.955   2.732   1.990 -1.4312  1.6491 -0.6797
 1927SOL    HW3 7475   4.871   2.754   1.865  0.1317 -1.9653 -2.5099
 1927SOL    MW4 7476   4.931   2.709   1.909 -0.3322 -0.0888 -0.6165
 1928SOL     OW 7477   0.987   5.827   0.215 -0.2053  0.2035  0.2191
 1928SOL    HW2 7478   0.907   5.785   0.182  1.3770 -0.3501 -3.5008
 1928SOL    HW3 7479   1.038   5.755   0.251 -1.1399  0.5041  2.2725
 1928SOL    MW4 7480   0.983   5.812   0.215 -0.4046 -0.1687  0.5139
 1929SOL     OW 7481   2.228   5.977   4.050  0.0993 -0.2609  0.8682
 1929SOL    HW2 7482   2.290   5.969   4.123 -1.9018  0.8384  2.8133
 1929SOL    HW3 7483   2.172   5.900   4.058  1.8863 -2.0062 -1.7313
 1929SOL    MW4 7484   2.229   5.966   4.061 -0.0682 -0.2001  0.0639
 1930SOL     OW 7485   5.770   5.162   1.025 -0.0194 -0.5012 -0.0706
 1930SOL    HW2 7486   5.812   5.207   1.098 -0.7454  5.0629 -2.6138
 1930SOL    HW3 7487   5.827   5.179   0.950 -2.2394 -0.6557 -1.8837
 1930SOL    MW4 7488   5.783   5.170   1.025 -0.1334 -0.5347  0.0903
 1931SOL     OW 7489   3.590   4.368   1.209  0.7057  0.4669 -0.3962
 1931SOL    HW2 7490   3.652   4.296   1.205 -1.1846 -1.2239 -2.1102
 1931SOL    HW3 7491   3.521   4.337   1.267 -0.2463  0.7597 -1.3358
 1931SOL    MW4 7492   3.589   4.354   1.216 -0.2002  0.0205  0.0131
 1932SOL     OW 7493   1.979   1.138   0.227  0.1002  0.2516  0.3794
 1932SOL    HW2 7494   1.892   1.110   0.252  0.6239 -1.0790  0.8052
 1932SOL    HW3 7495   1.990   1.224   0.267 -1.0544  0.5088  0.1823
 1932SOL    MW4 7496   1.969   1.146   0.235 -0.1751  0.1834 -0.1910
 1933SOL     OW 7497   6.312   6.339   3.104 -0.3830 -0.0223  0.0404
 1933SOL    HW2 7498   6.314   6.277   3.177 -1.4309  1.4046  1.3519
 1933SOL    HW3 7499   6.224   6.332   3.069  0.0161 -0.4593 -0.9109
 1933SOL    MW4 7500   6.301   6.330   3.109 -0.3370  0.0262  0.3912
 1934SOL     OW 7501   0.088   1.808   4.884 -0.5120 -0.0800  0.0685
 1934SOL    HW2 7502   0.108   1.887   4.935  0.0544 -0.3899  0.3377
 1934SOL    HW3 7503   0.083   1.738   4.948 -2.1775 -0.0846 -0.0395
 1934SOL    MW4 7504   0.090   1.810   4.899  0.3976  0.1168  0.1681
 1935SOL     OW 7505   4.517   2.791   4.693  0.0707 -0.3582 -0.3431
 1935SOL    HW2 7506   4.546   2.762   4.780 -2.8242 -1.5176  0.3456
 1935SOL    HW3 7507   4.467   2.871   4.710 -0.1610 -0.3610 -0.9859
 1935SOL    MW4 7508   4.514   2.797   4.707  0.7022  0.1418  0.3262
 1936SOL     OW 7509   4.437   5.397   3.235  0.1716  0.0234 -0.5726
 1936SOL    HW2 7510   4.375   5.371   3.304  0.5543  0.5532 -0.0314
 1936SOL    HW3 7511   4.399   5.476   3.197  0.9075  0.8033  0.2876
 1936SOL    MW4 7512   4.423   5.404   3.239 -0.7357 -0.3433  0.3857
 1937SOL     OW 7513   1.358   0.871   3.105 -0.3142  0.3633 -0.7692
 1937SOL    HW2 7514   1.382   0.779   3.109 -1.3589  0.1071  0.4332
 1937SOL    HW3 7515   1.336   0.894   3.196  0.1301  1.8600 -1.0027
 1937SOL    MW4 7516   1.358   0.862   3.118  0.3114 -0.6181 -0.2416
 1938SOL     OW 7517   4.284   0.692   5.188  0.8247 -0.0486 -0.4081
 1938SOL    HW2 7518   4.238   0.775   5.175 -0.2961 -0.6139 -0.1981
 1938SOL    HW3 7519   4.258   0.639   5.113  1.1345 -0.3838 -0.2785
 1938SOL    MW4 7520   4.275   0.696   5.177 -0.3993 -0.0165  0.0938
 1939SOL     OW 7521   5.150   3.303   2.257 -0.1353 -0.0740 -0.0773
 1939SOL    HW2 7522   5.150   3.258   2.342 -0.6012 -0.4544 -0.2759
 1939SOL    HW3 7523   5.221   3.367   2.264  0.3211 -0.6124  0.3335
 1939SOL    MW4 7524   5.159   3.305   2.269 -0.1936 -0.2591  0.2458
 1940SOL     OW 7525   3.880   0.919   3.220 -0.1862  0.4257  0.0522
 1940SOL    HW2 7526   3.900   0.827   3.199 -1.7160  0.4124 -1.6122
 1940SOL    HW3 7527   3.965   0.964   3.214  0.3243 -0.5978 -0.7937
 1940SOL    MW4 7528   3.894   0.913   3.217  0.1859 -0.0167 -0.8768
 1941SOL     OW 7529   2.295   2.768   5.970 -0.1466 -0.3001  0.1454
 1941SOL    HW2 7530   2.286   2.821   6.050  1.2774 -0.6207  0.5552
 1941SOL    HW3 7531   2.212   2.721   5.963 -2.3930  3.4462 -1.3850
 1941SOL    MW4 7532   2.283   2.769   5.980  0.5979 -0.1548 -0.3551
 1942SOL     OW 7533   3.381   1.396   2.516  0.4912  0.3565  0.1422
 1942SOL    HW2 7534   3.363   1.319   2.463  1.0199  0.8010 -0.7017
 1942SOL    HW3 7535   3.424   1.457   2.457 -0.0436  1.3644  0.7461
 1942SOL    MW4 7536   3.384   1.394   2.501  0.8445  0.0559  0.1117
 1943SOL     OW 7537   2.504   0.462   3.028  0.3790  0.0450 -0.5267
 1943SOL    HW2 7538   2.565   0.534   3.012 -1.5249  1.6129 -1.0962
 1943SOL    HW3 7539   2.469   0.479   3.116 -1.6834  1.1418 -1.4896
 1943SOL    MW4 7540   2.507   0.474   3.038 -0.3886  0.8390  0.6131
 1944SOL     OW 7541   3.699   1.437   4.410  0.2047  0.5043 -0.1565
 1944SOL    HW2 7542   3.677   1.495   4.338  0.6409  1.6973  0.6344
 1944SOL    HW3 7543   3.740   1.361   4.368  0.7126  1.3006 -1.1502
 1944SOL    MW4 7544   3.702   1.434   4.395  0.3254  0.4845  0.3617
 1945SOL     OW 7545   1.808   4.418   4.853 -0.6269 -0.0833  0.5554
 1945SOL    HW2 7546   1.741   4.369   4.901 -1.1611  0.8370  0.7778
 1945SOL    HW3 7547   1.787   4.510   4.870 -0.5400  0.2683 -1.0590
 1945SOL    MW4 7548   1.796   4.424   4.862  0.5581  0.1920  0.1914
 1946SOL     OW 7549   1.622   1.285   5.937  0.6410 -0.4123 -0.1952
 1946SOL    HW2 7550   1.698   1.227   5.931 -0.3883 -1.7136 -2.1459
 1946SOL    HW3 7551   1.609   1.317   5.847  0.6140  2.1640  0.6644
 1946SOL    MW4 7552   1.630   1.281   5.924 -0.0645  0.0668 -0.6372
 1947SOL     OW 7553   1.802   2.722   5.094 -0.1716 -0.5304  0.4207
 1947SOL    HW2 7554   1.871   2.664   5.126 -0.4077 -0.7962  0.4544
 1947SOL    HW3 7555   1.763   2.759   5.173  1.3276  1.2848  0.3555
 1947SOL    MW4 7556   1.806   2.719   5.109  0.3285  0.3513 -0.2510
 1948SOL     OW 7557   6.100   5.559   2.881  0.2363  0.1503 -0.0674
 1948SOL    HW2 7558   6.176   5.578   2.827  0.2198  0.1330 -0.0968
 1948SOL    HW3 7559   6.112   5.613   2.959  0.3872 -0.0168  0.0246
 1948SOL    MW4 7560   6.112   5.569   2.884  0.4165 -0.0631 -0.0210
 1949SOL     OW 7561   1.775   4.557   2.941  0.2424  0.1038 -0.1167
 1949SOL    HW2 7562   1.863   4.518   2.949  0.0263 -0.5933 -0.9718
 1949SOL    HW3 7563   1.788   4.633   2.885  0.3401  0.1269 -0.0629
 1949SOL    MW4 7564   1.789   4.562   2.935 -0.0537  0.1463 -0.4484
 1950SOL     OW 7565   5.966   4.728   3.460  0.2709 -0.2452  0.0499
 1950SOL    HW2 7566   5.903   4.798   3.480  2.0442  1.2361  0.6787
 1950SOL    HW3 7567   6.051   4.772   3.459  1.3769 -2.2965 -0.1951
 1950SOL    MW4 7568   5.969   4.743   3.463  0.0943  0.2742  0.6144
 1951SOL     OW 7569   2.075   3.311   0.702 -0.4377  0.0396 -0.0480
 1951SOL    HW2 7570   2.129   3.294   0.780 -0.9231 -1.1717  0.0416
 1951SOL    HW3 7571   2.110   3.394   0.667 -0.4226  0.7930  1.6249
 1951SOL    MW4 7572   2.087   3.320   0.708 -0.7307  0.0475  0.7363
 1952SOL     OW 7573   5.768   6.261   2.832 -0.6469  0.6286 -0.3433
 1952SOL    HW2 7574   5.749   6.333   2.771 -1.4054  0.1301 -0.7155
 1952SOL    HW3 7575   5.863   6.260   2.838 -0.5874  1.1219 -1.0045
 1952SOL    MW4 7576   5.778   6.270   2.825  0.0296  0.5403  0.0817
 1953SOL     OW 7577   1.366   2.609   0.060  0.6013  0.4928  1.2007
 1953SOL    HW2 7578   1.294   2.559   0.023  0.4424  0.6821  1.2491
 1953SOL    HW3 7579   1.325   2.688   0.095  0.8378  0.6209  1.1943
 1953SOL    MW4 7580   1.351   2.613   0.060  0.3123 -0.3718 -0.8922
 1954SOL     OW 7581   1.087   6.057   1.645 -0.5753  0.0278  0.0968
 1954SOL    HW2 7582   1.015   6.109   1.679 -0.9587 -0.6576  0.3620
 1954SOL    HW3 7583   1.082   6.068   1.550 -1.3210 -0.3681  0.0821
 1954SOL    MW4 7584   1.077   6.065   1.637  0.1139 -0.8884  0.3593
 1955SOL     OW 7585   1.777   6.218   2.626  0.5588  0.0206  0.3468
 1955SOL    HW2 7586   1.815   6.182   2.546  0.3579  0.3155  0.1162
 1955SOL    HW3 7587   1.751   6.307   2.602 -0.2498 -0.1665  0.5111
 1955SOL    MW4 7588   1.778   6.225   2.613 -0.2299 -0.8940 -0.1633
 1956SOL     OW 7589   1.133   4.836   6.136 -0.4353  0.0899 -0.0827
 1956SOL    HW2 7590   1.151   4.919   6.181  2.4316 -0.0661 -0.7063
 1956SOL    HW3 7591   1.158   4.769   6.200 -1.1349 -0.2743 -0.1785
 1956SOL    MW4 7592   1.139   4.838   6.151 -0.3480 -0.5426 -0.0706
 1957SOL     OW 7593   2.889   3.052   4.487  0.7773 -0.3941  0.4764
 1957SOL    HW2 7594   2.975   3.092   4.496  0.3888  0.2789  1.3887
 1957SOL    HW3 7595   2.876   3.004   4.569 -0.1632  0.4469  0.8494
 1957SOL    MW4 7596   2.898   3.051   4.499 -0.3697 -0.0288 -0.1406
 1958SOL     OW 7597   0.121   6.280   2.395  0.3471 -0.3540  0.1648
 1958SOL    HW2 7598   0.102   6.283   2.489 -0.4608  0.5629 -0.0043
 1958SOL    HW3 7599   0.088   6.364   2.362 -0.3794 -1.1281 -1.1229
 1958SOL    MW4 7600   0.114   6.292   2.403 -0.1680 -0.2180 -0.7486
 1959SOL     OW 7601   5.994   1.708   2.439 -0.5971 -0.0210 -0.5022
 1959SOL    HW2 7602   5.989   1.614   2.420  0.8151 -0.0125 -1.0635
 1959SOL    HW3 7603   6.019   1.713   2.531 -0.2519 -0.2141 -0.5829
 1959SOL    MW4 7604   5.997   1.696   2.449  0.2515 -0.4212  0.5490
 1960SOL     OW 7605   2.894   6.180   5.353 -0.3309 -0.3664  0.5852
 1960SOL    HW2 7606   2.874   6.086   5.356 -0.2735 -0.3475  1.8399
 1960SOL    HW3 7607   2.952   6.195   5.427  0.1384  0.5601  0.0461
 1960SOL    MW4 7608   2.899   6.170   5.363  0.3318 -0.1637 -0.2467
 1961SOL     OW 7609   4.577   1.671   5.690 -0.3580 -0.2966  0.0671
 1961SOL    HW2 7610   4.525   1.610   5.743 -0.1652 -0.8253 -0.3459
 1961SOL    HW3 7611   4.607   1.619   5.616  0.2656  0.1597 -0.0104
 1961SOL    MW4 7612   4.574   1.656   5.688  0.0285 -0.0572  0.4245
 1962SOL     OW 7613   4.739   2.926   4.604  0.1108 -0.3572 -0.0369
 1962SOL    HW2 7614   4.666   2.866   4.620  0.2885 -0.0730  2.1379
 1962SOL    HW3 7615   4.712   3.008   4.643  0.3959  0.6747 -1.8818
 1962SOL    MW4 7616   4.726   2.929   4.611  0.2411  0.1350 -0.0574
 1963SOL     OW 7617   1.011   3.577   6.078 -0.2643 -0.2404  0.1547
 1963SOL    HW2 7618   0.978   3.625   6.002  1.4830  1.0694  0.1637
 1963SOL    HW3 7619   1.018   3.487   6.048  0.2437  0.2294 -1.2236
 1963SOL    MW4 7620   1.008   3.572   6.064 -0.0586  0.4945  0.3320
 1964SOL     OW 7621   0.365   4.827   0.330  0.0858  0.7075 -0.4109
 1964SOL    HW2 7622   0.371   4.881   0.251 -0.8370  0.3056 -0.7735
 1964SOL    HW3 7623   0.313   4.880   0.392  1.0501  1.1425  0.0456
 1964SOL    MW4 7624   0.359   4.841   0.328  0.1444  0.2429  0.0248
 1965SOL     OW 7625   2.174   4.204   2.967  0.4097 -0.2443  0.4224
 1965SOL    HW2 7626   2.094   4.163   3.000  0.3969  0.3707  1.1856
 1965SOL    HW3 7627   2.203   4.261   3.038  0.4904  0.9799 -0.5514
 1965SOL    MW4 7628   2.167   4.207   2.981 -0.5671 -0.5486 -0.0957
 1966SOL     OW 7629   1.673   2.048   2.315  0.1979  0.0689 -0.2789
 1966SOL    HW2 7630   1.760   2.011   2.306  0.0190 -0.7460  1.0810
 1966SOL    HW3 7631   1.614   1.975   2.299 -0.2022  0.3224  0.0105
 1966SOL    MW4 7632   1.677   2.034   2.312  0.5422  0.2900 -1.0942
 1967SOL     OW 7633   4.833   5.090   3.284  0.3076 -0.9931 -0.2334
 1967SOL    HW2 7634   4.747   5.052   3.303 -0.3502  1.2691  1.9868
 1967SOL    HW3 7635   4.813   5.180   3.257  1.9404 -0.8702 -1.1617
 1967SOL    MW4 7636   4.819   5.097   3.283  0.4345 -0.0635  0.9163
 1968SOL     OW 7637   0.297   3.301   5.105 -0.0174  0.1766  0.8946
 1968SOL    HW2 7638   0.217   3.305   5.053  0.0542 -1.3814  0.6090
 1968SOL    HW3 7639   0.281   3.231   5.168  0.8284  0.3723  1.3369
 1968SOL    MW4 7640   0.284   3.292   5.106 -0.1587  0.0977 -0.6127
 1969SOL     OW 7641   3.038   4.676   6.100  0.6188 -0.3736  0.2837
 1969SOL    HW2 7642   3.125   4.640   6.080  1.6120  1.5992  0.8343
 1969SOL    HW3 7643   3.013   4.634   6.182  1.2800 -0.5829  0.3831
 1969SOL    MW4 7644   3.046   4.665   6.108  0.5587 -0.4687  0.8003
 1970SOL     OW 7645   5.365   0.320   5.396  0.2024  0.1594  0.5818
 1970SOL    HW2 7646   5.401   0.368   5.321  0.8660 -0.6229  0.3859
 1970SOL    HW3 7647   5.366   0.384   5.467  2.1938  0.1428  0.6342
 1970SOL    MW4 7648   5.370   0.335   5.395 -0.2530  0.4809  0.1980
 1971SOL     OW 7649   5.720   3.510   0.733  0.2230 -0.6567  0.7805
 1971SOL    HW2 7650   5.627   3.535   0.733  0.3351 -0.1042  2.5933
 1971SOL    HW3 7651   5.766   3.590   0.707  0.1686 -1.3467 -1.7168
 1971SOL    MW4 7652   5.713   3.524   0.730  0.5367  0.3582 -0.4775
 1972SOL     OW 7653   5.112   4.836   5.278  0.2305  0.3974  0.3075
 1972SOL    HW2 7654   5.125   4.749   5.239 -0.0994  0.2693  0.4788
 1972SOL    HW3 7655   5.198   4.877   5.273  0.1543  0.4570 -0.7250
 1972SOL    MW4 7656   5.125   4.830   5.272 -0.0681 -0.0885 -0.8308
 1973SOL     OW 7657   0.642   5.410   0.880 -0.8578  0.0434  0.3061
 1973SOL    HW2 7658   0.618   5.319   0.898 -0.8304  0.1766  1.0927
 1973SOL    HW3 7659   0.589   5.434   0.804 -0.8271 -0.6446  0.0594
 1973SOL    MW4 7660   0.632   5.401   0.873  0.1762 -0.3150  0.0448
 1974SOL     OW 7661   4.842   1.903   3.257 -0.4598 -0.3138  0.2219
 1974SOL    HW2 7662   4.886   1.854   3.188 -0.0569 -0.4549  0.5742
 1974SOL    HW3 7663   4.852   1.995   3.231 -0.3624 -0.3690  0.0596
 1974SOL    MW4 7664   4.849   1.909   3.244 -0.1318 -0.3308  0.3699
 1975SOL     OW 7665   2.450   6.181   1.361 -0.2315  0.2543 -0.7602
 1975SOL    HW2 7666   2.516   6.243   1.331  2.0072 -1.0309  1.2543
 1975SOL    HW3 7667   2.458   6.107   1.301 -1.0123  0.7170 -1.4739
 1975SOL    MW4 7668   2.460   6.179   1.349  0.0002  0.1728  0.0730
 1976SOL     OW 7669   5.464   2.445   4.447 -0.2958 -0.1070 -0.0705
 1976SOL    HW2 7670   5.537   2.413   4.500  1.3464 -0.4414 -2.3928
 1976SOL    HW3 7671   5.503   2.510   4.389 -2.1176  0.6093 -0.5697
 1976SOL    MW4 7672   5.479   2.449   4.446 -0.1574 -0.4408  0.1814
 1977SOL     OW 7673   3.762   2.566   0.823  0.0103 -0.1266 -0.0457
 1977SOL    HW2 7674   3.844   2.566   0.775 -1.0810 -0.1379 -2.0340
 1977SOL    HW3 7675   3.776   2.505   0.895  1.0754 -1.8292 -1.5939
 1977SOL    MW4 7676   3.774   2.558   0.826  0.2010 -0.4539 -0.0563
 1978SOL     OW 7677   0.511   2.694   0.412  0.8647 -0.2751 -0.6200
 1978SOL    HW2 7678   0.499   2.745   0.493  0.7344  0.6114 -1.1854
 1978SOL    HW3 7679   0.517   2.604   0.442 -2.6810 -0.4146  0.1739
 1978SOL    MW4 7680   0.510   2.689   0.427  0.3412 -0.2347 -0.0962
 1979SOL     OW 7681   0.911   4.019   2.494 -0.5762 -0.0251  0.1162
 1979SOL    HW2 7682   0.963   4.093   2.462  0.0398 -0.6137 -0.2724
 1979SOL    HW3 7683   0.885   4.045   2.583  0.9542  0.0254  0.5881
 1979SOL    MW4 7684   0.914   4.032   2.502  0.4083  0.6913 -0.2232
 1980SOL     OW 7685   0.966   6.028   0.460  0.2040 -0.4363 -0.1105
 1980SOL    HW2 7686   0.987   5.935   0.449 -0.2615 -0.5709  0.1398
 1980SOL    HW3 7687   0.912   6.050   0.383  1.0440 -0.1484 -0.6309
 1980SOL    MW4 7688   0.962   6.019   0.448  0.1448 -0.1986 -0.3452
 1981SOL     OW 7689   0.087   5.854   3.824  0.1212  1.0269  0.2602
 1981SOL    HW2 7690   0.164   5.898   3.862 -0.0120  0.4228  1.2599
 1981SOL    HW3 7691   0.017   5.871   3.886 -0.4696  1.2309 -0.4497
 1981SOL    MW4 7692   0.088   5.862   3.837  0.5945 -0.0323 -0.4147
 1982SOL     OW 7693   1.243   4.675   3.489 -0.0914  0.5268  0.5993
 1982SOL    HW2 7694   1.303   4.668   3.415 -0.5782  0.4366  0.2032
 1982SOL    HW3 7695   1.240   4.586   3.526 -1.8471 -0.1007 -0.8938
 1982SOL    MW4 7696   1.250   4.662   3.484  0.4958  0.0768  0.2762
 1983SOL     OW 7697   3.564   3.852   2.400 -0.0722  0.5970 -0.6357
 1983SOL    HW2 7698   3.568   3.928   2.459 -0.1783  1.9051 -2.2307
 1983SOL    HW3 7699   3.471   3.840   2.382 -0.0697 -0.0491 -0.2705
 1983SOL    MW4 7700   3.552   3.861   2.406 -0.7037 -0.1123  0.3936
 1984SOL     OW 7701   3.748   6.396   1.619 -0.1653  0.3754 -0.1622
 1984SOL    HW2 7702   3.670   6.445   1.646 -0.0824  0.0555  0.6880
 1984SOL    HW3 7703   3.755   6.325   1.683 -0.2627 -0.7362 -1.3626
 1984SOL    MW4 7704   3.739   6.393   1.631 -0.1046 -0.0980 -0.6347
 1985SOL     OW 7705   4.612   4.244   1.880  0.3125 -0.0696 -0.0671
 1985SOL    HW2 7706   4.673   4.238   1.806 -0.5347 -0.1238 -0.7851
 1985SOL    HW3 7707   4.530   4.273   1.840  0.2636  1.5069  1.0872
 1985SOL    MW4 7708   4.610   4.247   1.865 -0.1686 -0.0391 -0.2213
 1986SOL     OW 7709   5.863   2.549   2.472 -0.1399 -0.0868  0.1173
 1986SOL    HW2 7710   5.826   2.635   2.453 -1.4542 -1.0768 -2.2378
 1986SOL    HW3 7711   5.792   2.488   2.453  1.2282 -1.7855  0.2232
 1986SOL    MW4 7712   5.849   2.552   2.467 -0.1522  0.2990  0.2478
 1987SOL     OW 7713   4.166   5.548   1.364  0.0230  0.1712 -0.1342
 1987SOL    HW2 7714   4.183   5.578   1.274 -0.4373  0.0223 -0.2754
 1987SOL    HW3 7715   4.185   5.625   1.418  1.0808  0.0249 -0.2796
 1987SOL    MW4 7716   4.171   5.562   1.359 -0.0324  0.3208 -0.0286
 1988SOL     OW 7717   1.759   5.085   1.912  0.0345  0.2934 -0.1336
 1988SOL    HW2 7718   1.678   5.130   1.888  0.1834 -0.2523 -1.8406
 1988SOL    HW3 7719   1.821   5.155   1.930 -0.3751  0.7452 -0.4385
 1988SOL    MW4 7720   1.756   5.100   1.911  0.4487  0.1213  0.3100
 1989SOL     OW 7721   2.040   5.918   4.300  0.0681 -0.5137 -0.5521
 1989SOL    HW2 7722   1.993   5.841   4.268 -0.5832 -0.6695  0.7114
 1989SOL    HW3 7723   2.014   5.989   4.240 -0.6448 -0.9089 -0.7168
 1989SOL    MW4 7724   2.030   5.917   4.288  0.1460  0.6399 -0.8759
 1990SOL     OW 7725   2.221   1.165   0.609  0.2826 -0.1677 -0.3364
 1990SOL    HW2 7726   2.312   1.139   0.620 -0.1526 -1.1792  1.4624
 1990SOL    HW3 7727   2.215   1.249   0.654 -0.0121 -0.9828  1.2357
 1990SOL    MW4 7728   2.232   1.173   0.617  0.2754  0.5342 -0.0462
 1991SOL     OW 7729   6.244   0.743   5.604  0.0529 -0.3430  0.3455
 1991SOL    HW2 7730   6.311   0.795   5.648 -0.3628  0.0273  0.5414
 1991SOL    HW3 7731   6.293   0.673   5.562  0.6539  0.4023 -0.2180
 1991SOL    MW4 7732   6.259   0.740   5.604 -0.3256  0.3022  0.5794
 1992SOL     OW 7733   2.419   5.554   5.111  0.0189  0.1988  0.7159
 1992SOL    HW2 7734   2.358   5.626   5.126 -0.7687 -0.4189  0.5485
 1992SOL    HW3 7735   2.401   5.492   5.181  0.1567 -0.1885  0.4119
 1992SOL    MW4 7736   2.409   5.555   5.122  0.8461  0.0518  0.3607
 1993SOL     OW 7737   3.156   6.157   2.406 -0.7447  0.1206  0.3196
 1993SOL    HW2 7738   3.161   6.191   2.317 -1.1432 -0.8361 -0.0891
 1993SOL    HW3 7739   3.147   6.062   2.395 -1.3160  0.0330  1.3644
 1993SOL    MW4 7740   3.155   6.149   2.393 -0.0133  0.0538  0.6599
 1994SOL     OW 7741   2.028   3.284   1.461 -0.3068  0.0077 -0.0468
 1994SOL    HW2 7742   1.933   3.271   1.458 -0.5088  1.2842 -0.0000
 1994SOL    HW3 7743   2.056   3.277   1.369 -0.7892  1.7135 -0.3613
 1994SOL    MW4 7744   2.019   3.281   1.448 -0.1802 -0.2458 -0.0195
 1995SOL     OW 7745   5.296   2.697   4.961 -0.5063 -0.0594  0.3667
 1995SOL    HW2 7746   5.358   2.723   5.030  0.8045  0.2766 -0.9007
 1995SOL    HW3 7747   5.210   2.711   5.001  0.2092  0.7135  1.7331
 1995SOL    MW4 7748   5.293   2.702   4.976  0.6053 -0.0679 -0.7738
 1996SOL     OW 7749   0.937   5.707   2.346 -0.6969  0.1825 -0.2990
 1996SOL    HW2 7750   0.880   5.659   2.286 -0.4578  0.3076 -0.6304
 1996SOL    HW3 7751   1.010   5.736   2.291  0.7019 -1.6384  0.5150
 1996SOL    MW4 7752   0.939   5.705   2.331  0.3471  0.2189 -0.3983
 1997SOL     OW 7753   3.617   0.545   1.974  0.1696  0.4528  0.1245
 1997SOL    HW2 7754   3.690   0.596   2.010  1.7349 -1.1846 -0.5917
 1997SOL    HW3 7755   3.547   0.556   2.039  0.8734  2.4150  0.6274
 1997SOL    MW4 7756   3.618   0.553   1.988  0.2247 -0.2376 -0.0093
 1998SOL     OW 7757   3.835   3.565   4.769 -0.1586  0.2126 -0.1925
 1998SOL    HW2 7758   3.839   3.470   4.784  0.2484  0.4167  1.0749
 1998SOL    HW3 7759   3.925   3.590   4.749 -0.7788 -0.2366 -4.7313
 1998SOL    MW4 7760   3.847   3.556   4.768  0.6464  0.1695  0.5656
 1999SOL     OW 7761   1.609   2.320   3.577  0.1784  0.0778  0.4041
 1999SOL    HW2 7762   1.571   2.268   3.506  2.0596 -1.3956  0.3712
 1999SOL    HW3 7763   1.588   2.410   3.555  0.0670 -0.3901 -1.6252
 1999SOL    MW4 7764   1.601   2.325   3.565 -0.0662  0.0468  0.0172
 2000SOL     OW 7765   1.324   5.607   5.944  0.0377  0.6603 -0.4592
 2000SOL    HW2 7766   1.350   5.686   5.896  0.6138  0.7662  0.0034
 2000SOL    HW3 7767   1.299   5.545   5.876  0.8182  0.8123 -0.9045
 2000SOL    MW4 7768   1.324   5.609   5.929  0.4002 -0.2951  0.1547
 2001SOL     OW 7769   0.484   0.678   0.739  0.1053  0.1446 -0.3949
 2001SOL    HW2 7770   0.401   0.723   0.726  1.4353  3.3428  1.0464
 2001SOL    HW3 7771   0.472   0.624   0.817 -0.3633  1.3771  0.4021
 2001SOL    MW4 7772   0.472   0.677   0.747  0.0644  0.5039  0.1432
 2002SOL     OW 7773   3.233   0.955   3.297  0.1941  0.0467  0.2232
 2002SOL    HW2 7774   3.245   1.024   3.363 -2.5683  1.9737 -1.0787
 2002SOL    HW3 7775   3.228   1.003   3.214 -1.4796 -1.7353 -0.7892
 2002SOL    MW4 7776   3.234   0.971   3.294  0.7612  0.3846 -0.8677
 2003SOL     OW 7777   2.229   0.813   1.986  0.5517  0.2369  0.3983
 2003SOL    HW2 7778   2.163   0.848   2.045  1.9558  0.3556  1.9752
 2003SOL    HW3 7779   2.275   0.890   1.953  1.0919  0.0789  0.7689
 2003SOL    MW4 7780   2.226   0.828   1.989  0.1497 -0.7768 -0.2981
 2004SOL     OW 7781   6.132   6.083   0.972  0.6104 -0.3448 -0.7503
 2004SOL    HW2 7782   6.104   6.001   0.932 -1.0491 -0.0622 -0.2321
 2004SOL    HW3 7783   6.170   6.134   0.900  1.8708 -1.6180 -1.0360
 2004SOL    MW4 7784   6.133   6.079   0.957 -0.1443  0.2408 -0.7524
 2005SOL     OW 7785   2.240   4.231   2.082  0.2426 -0.0256  0.1986
 2005SOL    HW2 7786   2.335   4.233   2.077  0.2600  1.3699  0.7051
 2005SOL    HW3 7787   2.212   4.319   2.059 -1.0157 -0.7209 -1.1216
 2005SOL    MW4 7788   2.249   4.243   2.078  0.0300 -0.1291  0.4576
 2006SOL     OW 7789   3.557   0.118   0.487  0.5552 -0.1982  0.0899
 2006SOL    HW2 7790   3.526   0.205   0.462  1.2250 -0.4646 -1.8399
 2006SOL    HW3 7791   3.512   0.100   0.570 -2.1509  0.6392 -1.0624
 2006SOL    MW4 7792   3.547   0.127   0.494 -0.2161  0.3136  0.7067
 2007SOL     OW 7793   3.632   6.150   2.351  0.1975 -0.5301 -0.3039
 2007SOL    HW2 7794   3.685   6.181   2.425  0.3421 -1.0624 -0.1757
 2007SOL    HW3 7795   3.661   6.202   2.276  0.7208 -0.6356 -0.1776
 2007SOL    MW4 7796   3.643   6.161   2.351 -0.2869  0.0701 -1.0034
 2008SOL     OW 7797   4.853   3.231   0.616  0.7604 -0.0390 -0.7097
 2008SOL    HW2 7798   4.895   3.188   0.690 -0.7714 -0.2648  0.0548
 2008SOL    HW3 7799   4.819   3.159   0.562 -1.3281  0.1188  0.2929
 2008SOL    MW4 7800   4.854   3.216   0.619  0.0974 -0.2218 -0.1608
 2009SOL     OW 7801   0.757   2.566   2.032 -0.2366  0.4816  0.3422
 2009SOL    HW2 7802   0.671   2.532   2.008  0.1708 -0.3143 -0.0530
 2009SOL    HW3 7803   0.741   2.656   2.061 -1.0187  0.7915 -0.9890
 2009SOL    MW4 7804   0.744   2.573   2.033 -0.4981 -0.3851  0.3022
 2010SOL     OW 7805   2.481   6.171   2.189  0.3666 -0.3764  0.1754
 2010SOL    HW2 7806   2.503   6.104   2.124  0.0893  0.0516 -0.3711
 2010SOL    HW3 7807   2.385   6.177   2.185  0.3423 -0.3933  0.6736
 2010SOL    MW4 7808   2.471   6.163   2.180  0.5029  0.2135  0.2058
 2011SOL     OW 7809   2.570   2.317   0.202  0.8698  0.1783  0.3710
 2011SOL    HW2 7810   2.514   2.261   0.257  0.7295 -0.9196 -0.8475
 2011SOL    HW3 7811   2.642   2.343   0.261 -0.3011  0.6807  1.6298
 2011SOL    MW4 7812   2.572   2.313   0.217 -0.1617 -0.3638  0.3404
 2012SOL     OW 7813   1.259   4.899   4.831  0.2902 -0.5027  0.2919
 2012SOL    HW2 7814   1.271   4.919   4.738 -2.8963  2.5030  0.2980
 2012SOL    HW3 7815   1.281   4.981   4.876 -0.1248 -1.2735  1.9843
 2012SOL    MW4 7816   1.264   4.913   4.825  0.3059 -0.2257  0.0667
 2013SOL     OW 7817   5.799   1.924   1.250 -0.3798  0.7209 -0.1724
 2013SOL    HW2 7818   5.828   2.002   1.203 -1.5332  1.6082  0.5561
 2013SOL    HW3 7819   5.748   1.875   1.186  1.4004 -0.1326 -1.0278
 2013SOL    MW4 7820   5.796   1.928   1.235  0.1045  0.3010  0.1337
 2014SOL     OW 7821   1.736   4.988   3.658  0.4483 -0.0758  0.4328
 2014SOL    HW2 7822   1.693   4.921   3.712 -1.2203  0.9290  0.4510
 2014SOL    HW3 7823   1.750   4.946   3.574 -1.0040 -0.3543  0.2955
 2014SOL    MW4 7824   1.732   4.974   3.654  0.3746  0.1398 -0.0231
 2015SOL     OW 7825   4.915   1.014   2.056  0.1000 -0.4740 -0.0331
 2015SOL    HW2 7826   4.983   0.950   2.037 -0.9667 -1.9726  0.9755
 2015SOL    HW3 7827   4.848   0.965   2.103 -1.0434  1.2642  0.2570
 2015SOL    MW4 7828   4.915   0.999   2.060  0.0478  0.3422 -0.4127
 2016SOL     OW 7829   1.467   2.842   2.217  0.2326 -0.1807  0.0972
 2016SOL    HW2 7830   1.512   2.828   2.300 -0.0808  0.6091  0.4026
 2016SOL    HW3 7831   1.516   2.787   2.155  0.5142 -0.7182  0.7732
 2016SOL    MW4 7832   1.480   2.833   2.220 -0.0653 -0.2736 -0.3288
 2017SOL     OW 7833   3.560   1.384   2.735  0.0413  0.4299 -0.0294
 2017SOL    HW2 7834   3.504   1.401   2.659  0.5989  1.4894 -0.2294
 2017SOL    HW3 7835   3.626   1.322   2.703  0.1312  0.6888 -0.3522
 2017SOL    MW4 7836   3.561   1.378   2.721 -0.1650  0.1071 -0.1219
 2018SOL     OW 7837   4.536   6.024   3.834  0.1135 -0.0057  0.3027
 2018SOL    HW2 7838   4.564   6.106   3.874 -0.0386  1.0827 -1.7361
 2018SOL    HW3 7839   4.568   6.028   3.744 -2.5748 -0.7754 -0.7763
 2018SOL    MW4 7840   4.544   6.035   3.828 -0.1310  0.5733 -0.5775
 2019SOL     OW 7841   2.154   6.052   4.592 -0.1034 -0.2558 -0.3024
 2019SOL    HW2 7842   2.195   6.115   4.532 -0.5978  0.0436 -0.3303
 2019SOL    HW3 7843   2.066   6.039   4.556 -0.5200  0.1828  0.5597
 2019SOL    MW4 7844   2.148   6.058   4.579  0.1911  0.5724 -0.3076
 2020SOL     OW 7845   5.008   5.607   0.288 -0.3910 -0.2737 -0.0600
 2020SOL    HW2 7846   4.940   5.552   0.250 -1.0555 -0.4442  1.2845
 2020SOL    HW3 7847   5.083   5.597   0.230  0.1330 -4.0252  1.0057
 2020SOL    MW4 7848   5.009   5.598   0.276 -0.0993 -0.1639 -0.1856
 2021SOL     OW 7849   2.068   0.286   3.648 -0.2767  0.1842  0.2340
 2021SOL    HW2 7850   2.137   0.296   3.713 -1.1817  0.4296  1.1809
 2021SOL    HW3 7851   1.987   0.304   3.696 -0.9791  0.1936 -0.9184
 2021SOL    MW4 7852   2.066   0.290   3.663 -0.6135  0.2898 -0.2047
 2022SOL     OW 7853   6.004   1.874   5.895  0.0436  0.5938 -0.5837
 2022SOL    HW2 7854   5.989   1.891   5.988  0.6975  0.2588 -0.4131
 2022SOL    HW3 7855   6.053   1.951   5.865 -0.6067  0.9442 -0.7787
 2022SOL    MW4 7856   6.008   1.887   5.904 -0.1139 -0.0871 -0.1314
 2023SOL     OW 7857   3.395   1.709   4.394  0.5545  0.1829  0.6248
 2023SOL    HW2 7858   3.427   1.751   4.473  0.4687  2.5417 -0.5231
 2023SOL    HW3 7859   3.474   1.678   4.350  0.6679 -0.2859  1.1411
 2023SOL    MW4 7860   3.409   1.710   4.399  0.0817 -0.5599 -0.3999
 2024SOL     OW 7861   5.359   0.836   3.295 -0.1162  0.4294  0.0927
 2024SOL    HW2 7862   5.266   0.812   3.298 -0.5623  2.1400  1.2254
 2024SOL    HW3 7863   5.394   0.809   3.379 -0.3284  2.4159  0.8698
 2024SOL    MW4 7864   5.351   0.829   3.306  0.2747 -0.4470  0.2803
 2025SOL     OW 7865   4.063   2.863   0.397 -0.3903 -0.4198  0.0276
 2025SOL    HW2 7866   4.096   2.912   0.322  1.9388 -0.3878  1.0187
 2025SOL    HW3 7867   3.995   2.920   0.435  1.1104  1.3464  0.1964
 2025SOL    MW4 7868   4.058   2.877   0.392 -0.7774  0.3304  0.5612
 2026SOL     OW 7869   3.827   3.764   2.153  0.1981  0.0945  0.2897
 2026SOL    HW2 7870   3.837   3.712   2.232  1.3406  0.1629  0.2115
 2026SOL    HW3 7871   3.916   3.770   2.117 -0.1512  0.8731 -0.4780
 2026SOL    MW4 7872   3.840   3.758   2.159 -0.8948 -0.5472  0.2423
 2027SOL     OW 7873   2.304   4.574   1.117 -0.2359  0.3591 -0.0576
 2027SOL    HW2 7874   2.322   4.482   1.136  1.2280  0.6570  0.1624
 2027SOL    HW3 7875   2.379   4.602   1.065  1.6344  2.4953  3.3955
 2027SOL    MW4 7876   2.317   4.566   1.113 -0.4785  0.1589 -0.2461
 2028SOL     OW 7877   2.810   2.289   0.738  0.2827 -0.5440 -0.5364
 2028SOL    HW2 7878   2.905   2.278   0.740  0.3993  0.4276 -0.2823
 2028SOL    HW3 7879   2.783   2.254   0.653  0.8228 -1.1141 -0.4788
 2028SOL    MW4 7880   2.819   2.283   0.727 -0.3339 -0.1901 -0.2055
 2029SOL     OW 7881   3.549   6.039   0.291 -0.7882  0.3838  0.7740
 2029SOL    HW2 7882   3.541   6.013   0.199 -0.8648  1.5800  0.4292
 2029SOL    HW3 7883   3.582   5.960   0.335  2.3667  0.6221 -0.8245
 2029SOL    MW4 7884   3.553   6.025   0.285  0.5284  0.2316  0.0732
 2030SOL     OW 7885   6.159   4.638   0.596  0.2710 -1.0558 -0.0563
 2030SOL    HW2 7886   6.079   4.690   0.606  0.2274 -1.3526  1.3310
 2030SOL    HW3 7887   6.211   4.660   0.674  1.7702 -0.4896 -1.1736
 2030SOL    MW4 7888   6.155   4.648   0.608 -0.1075  0.2501 -0.4904
 2031SOL     OW 7889   2.325   4.657   5.205  0.0233  0.0401  0.0713
 2031SOL    HW2 7890   2.307   4.622   5.292  2.2138 -1.5500 -0.0270
 2031SOL    HW3 7891   2.387   4.729   5.222  0.7852 -0.5503 -0.1929
 2031SOL    MW4 7892   2.331   4.662   5.219  0.3362  0.2493  0.1506
 2032SOL     OW 7893   0.548   4.681   1.296 -0.9262  0.2169  0.4404
 2032SOL    HW2 7894   0.499   4.662   1.376 -0.5270  0.9200  0.8644
 2032SOL    HW3 7895   0.639   4.663   1.320 -1.0441 -2.4768 -0.7588
 2032SOL    MW4 7896   0.553   4.676   1.310  0.3188  0.2217 -0.0718
 2033SOL     OW 7897   3.679   1.442   1.473 -0.4594 -0.0719  0.8028
 2033SOL    HW2 7898   3.600   1.416   1.425 -0.2575 -1.0833  0.9925
 2033SOL    HW3 7899   3.751   1.416   1.416 -0.2356 -0.6347  1.3238
 2033SOL    MW4 7900   3.678   1.435   1.459  0.4410 -0.0616  0.3095
 2034SOL     OW 7901   3.003   2.552   5.378  0.1172  0.2218 -0.5376
 2034SOL    HW2 7902   3.009   2.648   5.386 -0.5774  0.3134 -1.0984
 2034SOL    HW3 7903   2.940   2.526   5.445  1.4512 -0.0221  0.6701
 2034SOL    MW4 7904   2.996   2.562   5.388 -0.1258 -0.6819  0.4506
 2035SOL     OW 7905   0.013   0.852   5.807 -0.0572 -0.2485 -0.2014
 2035SOL    HW2 7906   0.021   0.760   5.831  0.4020 -0.3675 -0.7972
 2035SOL    HW3 7907  -0.051   0.888   5.869  0.3043 -0.7962  0.5038
 2035SOL    MW4 7908   0.006   0.845   5.818 -0.3536 -0.5142  0.3096
 2036SOL     OW 7909   2.383   0.411   5.142  0.0132 -0.1547  0.2328
 2036SOL    HW2 7910   2.360   0.500   5.116 -0.7556 -0.4027  0.0313
 2036SOL    HW3 7911   2.423   0.372   5.065 -0.9485 -0.4293 -0.1405
 2036SOL    MW4 7912   2.385   0.417   5.129  0.2727 -0.6621 -0.8854
 2037SOL     OW 7913   2.284   4.338   3.397 -0.1691 -0.2095 -0.8031
 2037SOL    HW2 7914   2.233   4.380   3.466 -1.1719  0.4788 -1.9275
 2037SOL    HW3 7915   2.294   4.248   3.426  1.7474  0.6387  1.5178
 2037SOL    MW4 7916   2.279   4.332   3.410  0.1118 -0.3803  0.2501
 2038SOL     OW 7917   0.687   3.282   2.129 -0.7883 -0.6860  0.0712
 2038SOL    HW2 7918   0.637   3.363   2.127 -0.0837 -0.2226  0.9330
 2038SOL    HW3 7919   0.623   3.214   2.107 -1.7596 -0.0885  0.9880
 2038SOL    MW4 7920   0.672   3.284   2.126  0.1771  0.0572 -0.1301
 2039SOL     OW 7921   5.942   4.828   3.868 -0.0936  0.4997  0.3879
 2039SOL    HW2 7922   6.027   4.794   3.840 -0.7733  0.7402 -2.2678
 2039SOL    HW3 7923   5.910   4.765   3.932  0.9845 -1.0164 -0.5017
 2039SOL    MW4 7924   5.949   4.816   3.872  0.1532 -0.2182  0.0650
 2040SOL     OW 7925   6.384   5.144   2.361  0.2775  0.3852  0.2345
 2040SOL    HW2 7926   6.374   5.049   2.365  0.8388  0.1062 -2.5303
 2040SOL    HW3 7927   6.295   5.178   2.362  0.0601 -0.1793  0.8681
 2040SOL    MW4 7928   6.371   5.136   2.362  0.9179  0.6265  0.2796
 2041SOL     OW 7929   0.728   1.720   2.886 -0.2508  0.3668 -0.3818
 2041SOL    HW2 7930   0.824   1.718   2.884 -0.2027 -1.5271  1.0334
 2041SOL    HW3 7931   0.707   1.795   2.942  0.3891  0.9119 -0.8495
 2041SOL    MW4 7932   0.738   1.729   2.893  0.4264 -0.0381  0.4212
 2042SOL     OW 7933   4.560   4.489   1.555  0.3586  0.0435  0.2011
 2042SOL    HW2 7934   4.630   4.513   1.615 -0.0079 -0.1532  0.7162
 2042SOL    HW3 7935   4.520   4.573   1.531  1.2217  0.2223 -0.6720
 2042SOL    MW4 7936   4.564   4.504   1.560 -0.4107 -0.4924  0.0655
 2043SOL     OW 7937   3.652   1.167   2.529 -0.2774 -0.9770  0.0633
 2043SOL    HW2 7938   3.712   1.241   2.521 -0.7114 -0.6101  0.1615
 2043SOL    HW3 7939   3.646   1.131   2.440 -1.1824 -0.0070 -0.2877
 2043SOL    MW4 7940   3.659   1.172   2.516  0.3399 -0.2082  0.5960
 2044SOL     OW 7941   2.586   5.387   5.841 -0.1010 -0.2174  0.1937
 2044SOL    HW2 7942   2.559   5.412   5.753 -0.1268  0.4116  0.3774
 2044SOL    HW3 7943   2.514   5.333   5.874  0.3776 -1.3595 -0.5509
 2044SOL    MW4 7944   2.573   5.383   5.834 -0.1400 -0.2304  0.0076
 2045SOL     OW 7945   3.303   3.491   0.857  0.3552 -0.5498 -0.7119
 2045SOL    HW2 7946   3.353   3.523   0.783  0.3708 -1.0470 -0.9155
 2045SOL    HW3 7947   3.214   3.521   0.841  0.5803  0.3493 -0.3409
 2045SOL    MW4 7948   3.298   3.499   0.845 -0.5023  0.8555  0.2733
 2046SOL     OW 7949   1.496   0.857   4.262  0.5357  0.0217 -0.1896
 2046SOL    HW2 7950   1.470   0.802   4.188  1.3938 -1.0636  0.2866
 2046SOL    HW3 7951   1.568   0.910   4.229 -0.1185  0.6754 -0.5762
 2046SOL    MW4 7952   1.502   0.857   4.248 -0.5333 -0.1479  0.0138
 2047SOL     OW 7953   6.171   1.156   1.461  0.6055 -0.3432  0.2235
 2047SOL    HW2 7954   6.139   1.208   1.534  1.0618 -0.1587  0.2942
 2047SOL    HW3 7955   6.235   1.096   1.500 -2.0135 -3.0725  0.6995
 2047SOL    MW4 7956   6.175   1.155   1.475  0.0598 -0.1982  0.1906
 2048SOL     OW 7957   3.060   6.016   3.629 -0.2601  0.2474 -0.1550
 2048SOL    HW2 7958   3.073   6.006   3.723 -0.2651 -0.8273 -0.2611
 2048SOL    HW3 7959   2.994   5.950   3.606 -0.6128  0.8138 -0.8361
 2048SOL    MW4 7960   3.053   6.006   3.638  0.2208 -0.2547  0.1478
 2049SOL     OW 7961   4.349   4.849   2.283 -0.4714 -0.2496 -0.2603
 2049SOL    HW2 7962   4.382   4.769   2.325 -0.1861 -0.2870 -0.5528
 2049SOL    HW3 7963   4.269   4.821   2.238  0.7575 -0.8726 -2.1729
 2049SOL    MW4 7964   4.343   4.835   2.283  0.5580 -0.4493  0.7029
 2050SOL     OW 7965   3.526   0.760   2.415 -0.7116 -0.1352  0.0892
 2050SOL    HW2 7966   3.444   0.808   2.427  0.3564  1.3266  2.1300
 2050SOL    HW3 7967   3.545   0.723   2.501  0.0895 -1.6732 -0.7038
 2050SOL    MW4 7968   3.518   0.762   2.428  0.2707  0.2363  0.4286
 2051SOL     OW 7969   3.211   2.876   1.024 -0.1780 -0.4352  0.1720
 2051SOL    HW2 7970   3.231   2.790   1.061 -1.3740  0.0197  1.9979
 2051SOL    HW3 7971   3.272   2.884   0.950  1.6487 -1.8325  1.4104
 2051SOL    MW4 7972   3.222   2.866   1.019  0.1003  0.1937  0.3273
 2052SOL     OW 7973   3.072   6.389   0.612 -0.0482 -0.3436 -0.3889
 2052SOL    HW2 7974   3.083   6.296   0.634  1.8090  0.0475  0.5564
 2052SOL    HW3 7975   3.126   6.401   0.534 -0.4105 -0.0806 -0.6023
 2052SOL    MW4 7976   3.081   6.378   0.604  0.3093 -0.3425  0.1167
 2053SOL     OW 7977   0.408   0.538   3.710  0.9610 -0.9124 -0.1058
 2053SOL    HW2 7978   0.360   0.569   3.633  1.5131  0.9573  0.2453
 2053SOL    HW3 7979   0.454   0.460   3.680 -0.5524 -1.4886 -1.0488
 2053SOL    MW4 7980   0.408   0.532   3.696  0.7934  0.6926  0.1917
 2054SOL     OW 7981   0.266   5.043   1.261  0.0665 -0.4193 -0.1070
 2054SOL    HW2 7982   0.247   4.954   1.231  1.3575 -0.3335 -1.2316
 2054SOL    HW3 7983   0.343   5.034   1.317 -0.0880 -0.0571  0.1728
 2054SOL    MW4 7984   0.273   5.030   1.264 -0.1820 -0.0988 -0.1732
 2055SOL     OW 7985   1.759   3.123   2.394  0.5043  0.1090 -0.3152
 2055SOL    HW2 7986   1.717   3.139   2.309  0.5009 -0.2620 -0.3842
 2055SOL    HW3 7987   1.829   3.189   2.398  0.7073 -0.0746 -0.7465
 2055SOL    MW4 7988   1.763   3.134   2.383  0.5169 -0.2824 -0.3951
 2056SOL     OW 7989   0.908   3.106   0.263  0.1138 -0.1535  0.5994
 2056SOL    HW2 7990   0.987   3.093   0.316  1.3410  0.9421 -0.8605
 2056SOL    HW3 7991   0.888   3.199   0.273 -1.1622 -0.4675  1.1348
 2056SOL    MW4 7992   0.916   3.117   0.271 -0.4013  0.6076  0.1159
 2057SOL     OW 7993   0.980   5.140   3.054  1.1377  0.2964 -0.3726
 2057SOL    HW2 7994   0.943   5.212   3.106  0.2025 -0.7539  0.4617
 2057SOL    HW3 7995   0.941   5.152   2.967  0.3622  0.3465 -0.0263
 2057SOL    MW4 7996   0.970   5.151   3.049  1.0221  0.1008  0.0286
 2058SOL     OW 7997   3.589   5.695   5.945  0.1333  0.3713  0.3505
 2058SOL    HW2 7998   3.592   5.740   5.861  0.6842  0.8020  0.5953
 2058SOL    HW3 7999   3.563   5.606   5.923 -0.0087  0.5530 -0.2437
 2058SOL    MW4 8000   3.586   5.689   5.931 -0.1915  0.6860  0.5313
 2059SOL     OW 8001   5.954   0.880   2.239  0.1024  0.3126 -0.2717
 2059SOL    HW2 8002   5.859   0.886   2.248 -0.2205 -1.7790 -1.3888
 2059SOL    HW3 8003   5.972   0.919   2.153  0.1819  0.3463 -0.2388
 2059SOL    MW4 8004   5.943   0.886   2.229  0.3232 -0.2668 -0.4616
 2060SOL     OW 8005   1.349   3.669   1.702  0.5216 -0.2981  0.5378
 2060SOL    HW2 8006   1.327   3.670   1.795  0.7255  0.0257  0.5809
 2060SOL    HW3 8007   1.368   3.760   1.680 -1.5605 -0.0012 -0.2974
 2060SOL    MW4 8008   1.348   3.681   1.712  0.5448 -0.4320  0.1772
 2061SOL     OW 8009   6.240   4.832   3.463 -0.2662 -0.1219  0.4387
 2061SOL    HW2 8010   6.203   4.920   3.464 -0.4390 -0.1529  2.7092
 2061SOL    HW3 8011   6.306   4.833   3.533 -1.0639 -2.0893  1.2992
 2061SOL    MW4 8012   6.244   4.844   3.472  0.9149 -0.2074  0.3960
 2062SOL     OW 8013   2.814   0.857   6.026 -0.1231 -0.1117 -0.1770
 2062SOL    HW2 8014   2.747   0.800   6.065  0.5758 -1.0410 -0.2972
 2062SOL    HW3 8015   2.765   0.921   5.975 -0.8922 -1.6821 -1.4797
 2062SOL    MW4 8016   2.799   0.858   6.025  0.5341 -0.6867 -0.6173
 2063SOL     OW 8017   2.409   2.659   3.530 -0.3356 -0.0865  0.3355
 2063SOL    HW2 8018   2.502   2.662   3.508  0.0184 -0.4126  1.6654
 2063SOL    HW3 8019   2.383   2.568   3.514 -0.1434 -0.2599  0.9688
 2063SOL    MW4 8020   2.418   2.647   3.525  0.0230 -0.6194 -0.3260
 2064SOL     OW 8021   1.030   1.744   6.331 -0.3475 -0.7189 -0.1842
 2064SOL    HW2 8022   1.015   1.656   6.366  0.6005 -0.8222 -0.0224
 2064SOL    HW3 8023   1.008   1.803   6.403 -1.7361 -0.7737 -0.5370
 2064SOL    MW4 8024   1.025   1.740   6.345 -0.1570 -0.0202 -0.2918
 2065SOL     OW 8025   5.972   1.430   0.588 -0.1644  0.2533  0.3247
 2065SOL    HW2 8026   6.054   1.455   0.546 -0.7639  2.3034  0.2908
 2065SOL    HW3 8027   5.913   1.410   0.515 -0.5900  1.8083  0.2116
 2065SOL    MW4 8028   5.975   1.431   0.573 -0.0998  0.2929  0.2827
 2066SOL     OW 8029   3.746   4.194   3.458 -0.0727  0.2550 -0.1589
 2066SOL    HW2 8030   3.751   4.277   3.411 -0.2381  0.7391  0.6505
 2066SOL    HW3 8031   3.652   4.181   3.472  0.0119  0.5061  0.6938
 2066SOL    MW4 8032   3.734   4.203   3.454  0.4375 -0.2057 -0.3606
 2067SOL     OW 8033   5.044   5.512   1.090 -0.3988  0.0193  0.0957
 2067SOL    HW2 8034   5.082   5.562   1.017 -0.9967  0.1922 -0.1081
 2067SOL    HW3 8035   5.056   5.568   1.166  0.1467 -0.1213  0.1201
 2067SOL    MW4 8036   5.051   5.526   1.090  0.0182  0.8704 -0.0352
 2068SOL     OW 8037   4.057   0.231   5.743 -0.0357  0.5309  0.1926
 2068SOL    HW2 8038   3.998   0.204   5.814 -0.8114 -0.1814 -0.6965
 2068SOL    HW3 8039   4.096   0.312   5.774  0.6104 -0.4086  1.9762
 2068SOL    MW4 8040   4.054   0.238   5.757 -0.1305  0.8235 -0.6026
 2069SOL     OW 8041   1.834   4.676   0.501  0.1871  0.1619 -0.4246
 2069SOL    HW2 8042   1.923   4.709   0.496  0.1126  0.5610  0.6406
 2069SOL    HW3 8043   1.844   4.584   0.527  0.2834  0.1808 -0.3959
 2069SOL    MW4 8044   1.847   4.668   0.503  0.0007  0.9133  0.2216
 2070SOL     OW 8045   6.399   3.593   3.218 -0.0496  0.8233  0.0917
 2070SOL    HW2 8046   6.324   3.534   3.222 -0.0954  0.6564 -1.9757
 2070SOL    HW3 8047   6.470   3.539   3.182  0.3560  1.6054 -0.3048
 2070SOL    MW4 8048   6.398   3.578   3.214  0.3746 -0.2931  0.2059
 2071SOL     OW 8049   6.281   5.233   4.036  0.6584  0.6954  0.1626
 2071SOL    HW2 8050   6.209   5.285   4.072  1.0367  1.1545  0.2792
 2071SOL    HW3 8051   6.245   5.192   3.957  0.1856  0.6773  0.3890
 2071SOL    MW4 8052   6.267   5.235   4.030  0.8895  0.4002  0.2260
 2072SOL     OW 8053   4.207   5.454   4.146  0.1452 -0.5850  0.2488
 2072SOL    HW2 8054   4.287   5.487   4.185  1.1512 -0.5099 -1.7540
 2072SOL    HW3 8055   4.225   5.362   4.127 -0.0141 -0.4429 -0.6849
 2072SOL    MW4 8056   4.220   5.446   4.148 -0.2771 -0.1209 -0.4220
 2073SOL     OW 8057   0.903   3.196   3.965 -0.2707  0.1312  0.1384
 2073SOL    HW2 8058   0.992   3.182   3.996 -0.5552 -2.5999 -0.0155
 2073SOL    HW3 8059   0.848   3.152   4.030 -1.2378 -1.0526 -1.4100
 2073SOL    MW4 8060   0.907   3.188   3.978 -0.6215 -0.2285 -0.4131
 2074SOL     OW 8061   3.216   6.378   6.068 -0.2370  0.3481 -0.2887
 2074SOL    HW2 8062   3.149   6.343   6.127 -1.7859  1.5963 -1.2231
 2074SOL    HW3 8063   3.222   6.471   6.090 -0.1474  0.6339 -1.4446
 2074SOL    MW4 8064   3.208   6.386   6.079 -0.1192 -0.3452 -0.3302
 2075SOL     OW 8065   4.374   2.989   4.827  0.5490 -0.2827 -0.2734
 2075SOL    HW2 8066   4.298   2.959   4.777 -0.1833  1.2495 -0.1470
 2075SOL    HW3 8067   4.356   2.963   4.917  1.0538 -1.5308 -0.5237
 2075SOL    MW4 8068   4.361   2.982   4.833  0.1685 -0.0962  0.2639
 2076SOL     OW 8069   2.165   0.299   2.382  0.0016  0.0619 -0.1077
 2076SOL    HW2 8070   2.174   0.208   2.354 -1.6662 -0.3597  0.6293
 2076SOL    HW3 8071   2.233   0.311   2.447  0.5207 -0.5275 -0.5316
 2076SOL    MW4 8072   2.175   0.288   2.387  0.4496 -0.1544  0.2227
 2077SOL     OW 8073   1.719   5.762   3.589  0.2936  0.5324  0.0455
 2077SOL    HW2 8074   1.809   5.780   3.562 -0.1366  1.4786 -0.8468
 2077SOL    HW3 8075   1.724   5.682   3.641  1.7965  1.1793  0.9469
 2077SOL    MW4 8076   1.731   5.754   3.592 -0.9095  0.3151 -0.3965
 2078SOL     OW 8077   5.876   5.709   3.088  0.9326  0.2287  0.2345
 2078SOL    HW2 8078   5.898   5.669   3.004  0.6330 -2.1108  1.1658
 2078SOL    HW3 8079   5.791   5.670   3.111  1.5715 -0.1697  2.1514
 2078SOL    MW4 8080   5.868   5.698   3.080 -0.4977  0.1252 -0.6032
 2079SOL     OW 8081   1.717   5.336   2.563  0.6062  0.1846 -0.0007
 2079SOL    HW2 8082   1.697   5.430   2.571  0.6444  0.5843 -3.2563
 2079SOL    HW3 8083   1.639   5.292   2.595 -0.0381  1.3679  0.1186
 2079SOL    MW4 8084   1.704   5.343   2.568 -0.1308 -0.2966  0.0008
 2080SOL     OW 8085   4.916   2.548   5.588  0.0843 -0.0792  0.2446
 2080SOL    HW2 8086   4.962   2.615   5.639 -0.0211  0.0154  0.2173
 2080SOL    HW3 8087   4.900   2.477   5.650  0.2841 -0.1195  0.2491
 2080SOL    MW4 8088   4.920   2.548   5.603 -0.6309 -0.2535  0.4446
 2081SOL     OW 8089   2.238   2.554   2.674 -0.3705 -0.0143  0.0032
 2081SOL    HW2 8090   2.321   2.601   2.673  0.3932 -1.1227  2.3557
 2081SOL    HW3 8091   2.249   2.485   2.608 -0.4567  1.3736 -1.5139
 2081SOL    MW4 8092   2.251   2.551   2.665  0.1653  0.1040  0.2901
 2082SOL     OW 8093   1.608   4.471   1.048  0.1891  0.2358  0.2250
 2082SOL    HW2 8094   1.570   4.468   1.136 -0.4303 -1.1456 -0.0619
 2082SOL    HW3 8095   1.632   4.380   1.029  0.7798  0.5978 -0.8375
 2082SOL    MW4 8096   1.606   4.459   1.057  0.1898  0.8651 -0.5773
 2083SOL     OW 8097   2.401   4.643   1.994  0.1152  0.5262 -0.4652
 2083SOL    HW2 8098   2.466   4.624   1.926  2.7234  2.6210  1.2447
 2083SOL    HW3 8099   2.378   4.735   1.980  0.2102  0.8069  1.0430
 2083SOL    MW4 8100   2.406   4.653   1.983  0.9172 -0.3604  0.0043
 2084SOL     OW 8101   0.748   1.680   4.072  0.1031 -0.4050 -0.1607
 2084SOL    HW2 8102   0.794   1.626   4.136  0.1598  0.9459  0.9739
 2084SOL    HW3 8103   0.682   1.726   4.122 -1.5870 -1.2353 -1.5351
 2084SOL    MW4 8104   0.746   1.679   4.087 -0.7279 -0.1101  0.4683
 2085SOL     OW 8105   5.636   0.493   3.818 -0.4631  0.0269 -0.0036
 2085SOL    HW2 8106   5.687   0.418   3.789 -2.3336 -0.4319 -2.3504
 2085SOL    HW3 8107   5.591   0.462   3.897 -0.4645 -0.9911 -0.3931
 2085SOL    MW4 8108   5.636   0.479   3.825 -0.1514 -0.2690  0.0799
 2086SOL     OW 8109   6.249   2.675   2.576 -0.0943 -0.0793 -0.3130
 2086SOL    HW2 8110   6.325   2.693   2.632 -1.8391  0.8204  1.9382
 2086SOL    HW3 8111   6.212   2.761   2.558 -2.4896 -0.6286  1.5568
 2086SOL    MW4 8112   6.254   2.689   2.581  0.0566  0.3855  0.3393
 2087SOL     OW 8113   1.575   4.977   5.348  0.2272 -0.7125 -0.0735
 2087SOL    HW2 8114   1.481   4.988   5.335  0.2552 -0.3073  0.0467
 2087SOL    HW3 8115   1.582   4.913   5.419 -0.0604  2.2991  2.9424
 2087SOL    MW4 8116   1.564   4.970   5.355  0.3279 -0.7140 -0.1366
 2088SOL     OW 8117   0.656   2.154   6.312 -0.1282 -0.0340 -0.5282
 2088SOL    HW2 8118   0.684   2.200   6.392  1.1619  1.0525 -1.5507
 2088SOL    HW3 8119   0.561   2.165   6.311 -0.0364  1.0738  0.2067
 2088SOL    MW4 8120   0.647   2.162   6.322 -0.1701 -0.1488 -0.4541
 2089SOL     OW 8121   5.621   5.828   0.592 -0.1152 -0.2967 -0.4385
 2089SOL    HW2 8122   5.567   5.897   0.632  0.5603 -0.0868  0.1283
 2089SOL    HW3 8123   5.567   5.749   0.599 -0.5494  0.0067 -0.3230
 2089SOL    MW4 8124   5.607   5.827   0.598 -0.1590 -0.0208 -0.7974
 2090SOL     OW 8125   1.548   2.020   4.574  0.0155 -0.2235  0.1005
 2090SOL    HW2 8126   1.455   2.002   4.558  0.2896 -0.6293 -1.1960
 2090SOL    HW3 8127   1.579   1.943   4.621  0.0708 -0.9305 -1.0425
 2090SOL    MW4 8128   1.540   2.008   4.578  0.3028  0.1889 -0.5356
 2091SOL     OW 8129   4.903   0.931   4.019 -0.0580  0.0213 -0.0127
 2091SOL    HW2 8130   4.858   0.970   3.943 -0.1178  0.7898  0.4045
 2091SOL    HW3 8131   4.871   0.981   4.094  0.0449 -0.6950  0.5219
 2091SOL    MW4 8132   4.892   0.943   4.019  0.0718  0.0320  0.6294
 2092SOL     OW 8133   2.993   1.236   0.259 -0.2793  0.2530  0.4607
 2092SOL    HW2 8134   3.084   1.248   0.285  0.1601  1.2429 -1.3762
 2092SOL    HW3 8135   2.984   1.287   0.178 -1.7786 -1.8527 -0.8072
 2092SOL    MW4 8136   3.004   1.244   0.252  0.6156 -0.1973  0.5846
 2093SOL     OW 8137   5.878   1.570   2.878  0.2077  0.3217 -0.4391
 2093SOL    HW2 8138   5.854   1.483   2.845  0.3143 -0.8741  2.3486
 2093SOL    HW3 8139   5.817   1.629   2.834 -1.2595 -1.4273 -0.8908
 2093SOL    MW4 8140   5.867   1.566   2.868 -0.4325 -0.1516  0.2848
 2094SOL     OW 8141   1.368   5.695   1.772 -0.8975 -0.2922 -0.2400
 2094SOL    HW2 8142   1.367   5.599   1.767 -1.3483 -0.5411  2.7339
 2094SOL    HW3 8143   1.279   5.718   1.799 -0.4520  0.8556  0.2846
 2094SOL    MW4 8144   1.356   5.685   1.775 -0.5953 -0.5589 -0.6226
 2095SOL     OW 8145   3.322   1.239   6.359 -0.5338 -0.0690 -0.4952
 2095SOL    HW2 8146   3.373   1.319   6.357 -1.9604  0.9583  1.2794
 2095SOL    HW3 8147   3.281   1.235   6.272 -2.6365  2.7038  0.2213
 2095SOL    MW4 8148   3.323   1.249   6.347  0.0353 -0.2415 -0.5790
 2096SOL     OW 8149   0.528   0.065   0.202  0.7166 -0.3370  0.4381
 2096SOL    HW2 8150   0.451   0.120   0.186  0.5462 -0.8048 -0.4097
 2096SOL    HW3 8151   0.534   0.009   0.124  1.7083 -0.5494  0.6540
 2096SOL    MW4 8152   0.518   0.065   0.189  0.5041  0.0477  0.1209
 2097SOL     OW 8153   5.612   1.316   1.276 -0.2032  0.2314 -0.3689
 2097SOL    HW2 8154   5.549   1.379   1.311 -1.4777 -2.1884  2.1061
 2097SOL    HW3 8155   5.559   1.241   1.248  1.4003 -1.0921 -0.0584
 2097SOL    MW4 8156   5.597   1.314   1.277  0.0417  0.6120 -0.3204
 2098SOL     OW 8157   1.149   0.181   2.195  0.4798  0.2205 -0.3959
 2098SOL    HW2 8158   1.217   0.148   2.136  0.7910  2.4677 -1.4204
 2098SOL    HW3 8159   1.166   0.275   2.200 -0.4862  0.3271  2.1048
 2098SOL    MW4 8160   1.160   0.189   2.188  0.1100  0.1925  0.0907
 2099SOL     OW 8161   1.654   4.193   1.026 -0.2616 -0.1123  0.5382
 2099SOL    HW2 8162   1.601   4.209   0.948 -1.2367  0.4053  1.2896
 2099SOL    HW3 8163   1.710   4.120   1.001 -1.4100 -0.7693 -0.2558
 2099SOL    MW4 8164   1.654   4.185   1.013 -0.3405 -0.1593  0.3602
 2100SOL     OW 8165   6.137   0.026   6.149  0.2254  0.3919  0.2989
 2100SOL    HW2 8166   6.228   0.028   6.179 -0.2411 -1.3522  2.0854
 2100SOL    HW3 8167   6.106   0.116   6.159  1.7157  1.0083 -0.3253
 2100SOL    MW4 8168   6.145   0.038   6.155  0.2598  0.3501 -0.1978
 2101SOL     OW 8169   1.708   1.726   2.088  0.8715  0.2852  0.0488
 2101SOL    HW2 8170   1.762   1.649   2.105  0.3599  0.2287  1.5899
 2101SOL    HW3 8171   1.624   1.690   2.058  0.2231  0.1397  1.9125
 2101SOL    MW4 8172   1.704   1.711   2.086 -0.5555 -0.0439 -0.3598
 2102SOL     OW 8173   0.403   2.520   5.796 -0.0013  0.3296  0.4510
 2102SOL    HW2 8174   0.470   2.507   5.729 -0.0466 -2.3764  0.8094
 2102SOL    HW3 8175   0.451   2.532   5.877  0.1317 -1.2460  0.6479
 2102SOL    MW4 8176   0.418   2.520   5.798  0.4825  0.7013 -0.0684
 2103SOL     OW 8177   0.563   1.391   1.401  0.3397 -0.6973 -0.6242
 2103SOL    HW2 8178   0.604   1.402   1.315 -1.4081  1.5422 -1.2531
 2103SOL    HW3 8179   0.532   1.479   1.424  0.5627 -1.2769  2.2336
 2103SOL    MW4 8180   0.564   1.404   1.392  0.2299  0.0967 -0.3269
 2104SOL     OW 8181   2.696   1.407   3.458 -0.4063 -0.0465 -0.2083
 2104SOL    HW2 8182   2.682   1.386   3.365 -0.6457  0.1155 -0.2112
 2104SOL    HW3 8183   2.786   1.382   3.475 -0.1468  0.5553 -0.6610
 2104SOL    MW4 8184   2.706   1.401   3.448 -0.1789 -0.0321  0.0945
 2105SOL     OW 8185   3.766   2.252   2.172 -0.1901  0.3522 -0.1040
 2105SOL    HW2 8186   3.847   2.220   2.212 -0.6588  0.8621  1.3205
 2105SOL    HW3 8187   3.761   2.343   2.199 -0.9549  0.4844 -0.6732
 2105SOL    MW4 8188   3.776   2.259   2.181  0.0595 -0.0347  0.8690
 2106SOL     OW 8189   4.956   1.695   5.416  0.2277  0.6579  0.1360
 2106SOL    HW2 8190   5.019   1.637   5.373  2.6464  2.5114  0.9669
 2106SOL    HW3 8191   5.001   1.779   5.422 -1.8373  1.7297  2.0116
 2106SOL    MW4 8192   4.970   1.698   5.411 -0.2392  0.2085  0.6296
 2107SOL     OW 8193   4.200   3.747   2.010 -0.0366  0.4838  0.3025
 2107SOL    HW2 8194   4.261   3.675   1.995 -0.5569 -0.1595  1.1455
 2107SOL    HW3 8195   4.192   3.752   2.105  1.8166  3.2402  0.4007
 2107SOL    MW4 8196   4.207   3.738   2.021 -0.0121  0.7224 -0.1973
 2108SOL     OW 8197   5.824   1.372   4.632  0.6498  0.0533 -0.2199
 2108SOL    HW2 8198   5.836   1.360   4.726 -3.4398 -1.2013  0.3439
 2108SOL    HW3 8199   5.782   1.458   4.624 -0.5370 -0.5391 -0.6511
 2108SOL    MW4 8200   5.820   1.382   4.643 -0.2344  0.4946  0.2562
 2109SOL     OW 8201   2.018   1.263   5.364  0.4817 -0.0862 -0.3931
 2109SOL    HW2 8202   2.040   1.353   5.341  0.5957  0.3152  1.1347
 2109SOL    HW3 8203   1.970   1.230   5.288 -0.8423  1.7476 -0.4502
 2109SOL    MW4 8204   2.014   1.271   5.351 -0.1284 -0.1363  0.4856
 2110SOL     OW 8205   2.701   6.073   3.177 -0.0357  0.1991  0.0826
 2110SOL    HW2 8206   2.658   6.063   3.262 -0.4321 -0.7820 -0.2302
 2110SOL    HW3 8207   2.674   6.160   3.148 -2.3376 -0.5957 -0.3721
 2110SOL    MW4 8208   2.692   6.083   3.185 -0.3287  0.1167  0.4387
 2111SOL     OW 8209   4.781   4.482   1.311  0.0733 -0.3596 -0.0209
 2111SOL    HW2 8210   4.698   4.447   1.344  0.0660 -1.2460 -0.9264
 2111SOL    HW3 8211   4.848   4.434   1.359  0.0695 -0.0505  0.2990
 2111SOL    MW4 8212   4.779   4.471   1.322 -0.2686  0.0852 -0.3478
 2112SOL     OW 8213   3.504   5.191   4.819 -0.3651  0.4636 -0.1152
 2112SOL    HW2 8214   3.436   5.238   4.770 -1.0047 -0.5527 -0.2324
 2112SOL    HW3 8215   3.455   5.141   4.885  0.2264 -0.6099 -0.4676
 2112SOL    MW4 8216   3.488   5.191   4.822 -0.2744 -0.6625  0.1661
 2113SOL     OW 8217   0.639   6.116   4.558  0.2145  0.4028  0.3055
 2113SOL    HW2 8218   0.575   6.053   4.589  1.0436 -1.0918 -0.8797
 2113SOL    HW3 8219   0.673   6.157   4.638 -0.6478 -0.3430  1.0764
 2113SOL    MW4 8220   0.635   6.113   4.573 -0.3581  0.3630 -0.0361
 2114SOL     OW 8221   4.127   4.250   5.165  0.2762 -0.4480  0.5737
 2114SOL    HW2 8222   4.044   4.202   5.157  0.2644 -0.3108 -0.1243
 2114SOL    HW3 8223   4.181   4.216   5.094  0.9026 -0.6889  1.1582
 2114SOL    MW4 8224   4.123   4.239   5.155 -0.5261 -0.4182  0.4712
 2115SOL     OW 8225   5.209   3.720   2.387  0.3712 -1.0338 -0.5139
 2115SOL    HW2 8226   5.170   3.707   2.300  0.5997  0.4202 -0.8675
 2115SOL    HW3 8227   5.163   3.797   2.422  2.6363  0.5620 -0.8261
 2115SOL    MW4 8228   5.198   3.728   2.380  0.2366 -0.1403  0.9002
 2116SOL     OW 8229   3.562   1.141   3.730  0.1560  0.6924  0.3610
 2116SOL    HW2 8230   3.583   1.225   3.688  1.4003  0.7027  0.9628
 2116SOL    HW3 8231   3.489   1.161   3.788 -0.4505  1.0508 -0.5089
 2116SOL    MW4 8232   3.555   1.155   3.732 -0.4439  0.3140  0.2051
 2117SOL     OW 8233   4.736   0.311   4.644 -0.1379  0.3707  0.0176
 2117SOL    HW2 8234   4.682   0.232   4.639 -0.7623  0.6792  1.3822
 2117SOL    HW3 8235   4.798   0.303   4.571 -0.4462 -1.1750 -0.1031
 2117SOL    MW4 8236   4.737   0.300   4.633 -0.0047  0.4428  0.2544
 2118SOL     OW 8237   5.867   5.631   0.953 -0.6609  0.5534  0.3735
 2118SOL    HW2 8238   5.918   5.573   0.896 -0.7435  1.1475 -0.3248
 2118SOL    HW3 8239   5.777   5.600   0.943 -0.3296 -1.4765  2.7795
 2118SOL    MW4 8240   5.862   5.619   0.944 -0.3859 -0.1701 -0.3639
 2119SOL     OW 8241   5.837   0.774   5.192  0.4412  0.1712 -0.2733
 2119SOL    HW2 8242   5.913   0.767   5.250  0.1864  1.3275  0.2398
 2119SOL    HW3 8243   5.855   0.851   5.138  0.7930 -1.0248 -1.9564
 2119SOL    MW4 8244   5.849   0.783   5.193  0.4902  0.8496  0.0716
 2120SOL     OW 8245   3.003   6.384   0.204 -0.2788 -0.0153  0.0195
 2120SOL    HW2 8246   2.908   6.378   0.189 -0.0820 -0.6458 -1.1431
 2120SOL    HW3 8247   3.037   6.299   0.176  0.7443  0.5810 -0.6310
 2120SOL    MW4 8248   2.995   6.372   0.198 -0.0268 -0.0039 -0.0696
 2121SOL     OW 8249   1.946   3.472   4.454  0.3632  0.1656  0.1404
 2121SOL    HW2 8250   1.889   3.413   4.404  1.7609 -0.3388 -0.9120
 2121SOL    HW3 8251   2.034   3.447   4.428  1.0396  1.6622  0.9203
 2121SOL    MW4 8252   1.950   3.461   4.444 -0.1008 -0.4149  0.0470
 2122SOL     OW 8253   1.797   2.709   0.381 -0.0804 -0.2943  0.1155
 2122SOL    HW2 8254   1.879   2.665   0.403 -0.1045 -0.2329  0.3256
 2122SOL    HW3 8255   1.749   2.645   0.328  0.0002 -0.4199  0.1942
 2122SOL    MW4 8256   1.801   2.694   0.377 -0.1689 -0.3047 -0.2825
 2123SOL     OW 8257   5.195   3.024   4.095  0.3285 -0.1968  0.0004
 2123SOL    HW2 8258   5.221   3.098   4.150 -0.9288  1.1676 -1.1763
 2123SOL    HW3 8259   5.206   3.055   4.005 -1.2326 -1.0523 -0.5270
 2123SOL    MW4 8260   5.200   3.038   4.090 -0.9589 -0.0688  0.1289
 2124SOL     OW 8261   2.757   1.055   0.891  0.1261  0.3802 -0.3415
 2124SOL    HW2 8262   2.744   0.989   0.823  0.2296 -0.2880  0.2724
 2124SOL    HW3 8263   2.827   1.110   0.858  3.1646 -2.3982  0.9471
 2124SOL    MW4 8264   2.764   1.054   0.878 -0.8351 -0.1069 -0.0403
 2125SOL     OW 8265   4.009   4.783   3.128  0.9507 -0.3721 -0.1681
 2125SOL    HW2 8266   3.941   4.720   3.151 -1.1504  0.5063 -3.3154
 2125SOL    HW3 8267   3.969   4.869   3.144  1.9480  0.1754 -0.5297
 2125SOL    MW4 8268   3.995   4.786   3.133 -0.3212 -0.1553  0.1067
 2126SOL     OW 8269   2.828   3.950   1.756  0.0509 -0.2210 -0.2091
 2126SOL    HW2 8270   2.865   3.945   1.667  3.6083  1.8205  0.9533
 2126SOL    HW3 8271   2.784   4.034   1.759  0.5154  0.0164  0.1151
 2126SOL    MW4 8272   2.827   3.960   1.744 -0.3661  0.0134  0.1845
 2127SOL     OW 8273   2.327   6.154   0.294 -0.3785  0.0359  0.2626
 2127SOL    HW2 8274   2.286   6.075   0.260 -3.7872  2.1494 -1.1416
 2127SOL    HW3 8275   2.410   6.161   0.247 -0.3592 -2.2477 -0.1376
 2127SOL    MW4 8276   2.332   6.145   0.283 -0.3872  0.1711 -0.2146
 2128SOL     OW 8277   5.824   3.564   5.291  0.0003  0.1066 -0.0966
 2128SOL    HW2 8278   5.794   3.564   5.382 -0.2969 -0.6226 -0.1955
 2128SOL    HW3 8279   5.903   3.510   5.292  0.3159  0.5566 -0.1737
 2128SOL    MW4 8280   5.830   3.557   5.303 -0.3572  0.0347  0.5834
 2129SOL     OW 8281   3.870   5.280   5.386  0.0068  0.4822  0.7525
 2129SOL    HW2 8282   3.890   5.238   5.470  1.5422  1.4563  0.9209
 2129SOL    HW3 8283   3.928   5.236   5.323 -2.5180 -1.6523 -0.3082
 2129SOL    MW4 8284   3.880   5.268   5.389  0.2418  0.2711 -0.1725
 2130SOL     OW 8285   5.468   1.781   3.945 -0.4515 -0.1564 -0.3207
 2130SOL    HW2 8286   5.451   1.861   3.897  0.4121  1.3173  1.6967
 2130SOL    HW3 8287   5.541   1.739   3.899 -2.0946 -0.8204 -2.4722
 2130SOL    MW4 8288   5.475   1.786   3.933 -0.3020 -0.2607  0.3366
 2131SOL     OW 8289   2.293   0.458   6.319  0.4003 -0.4457  0.6506
 2131SOL    HW2 8290   2.259   0.470   6.230  0.2081 -0.6814  0.6911
 2131SOL    HW3 8291   2.256   0.531   6.369  0.4701 -0.3401  0.5470
 2131SOL    MW4 8292   2.284   0.469   6.314  0.4240  0.5200  0.5697
 2132SOL     OW 8293   5.281   5.145   4.709 -0.0417 -0.0399  0.4069
 2132SOL    HW2 8294   5.366   5.103   4.696 -0.6812 -1.5790  0.9886
 2132SOL    HW3 8295   5.254   5.117   4.796  0.0533  2.6743  1.4028
 2132SOL    MW4 8296   5.289   5.136   4.719 -0.1184 -0.5097  0.1078
 2133SOL     OW 8297   4.932   4.770   6.296  0.0600 -0.3662 -0.1557
 2133SOL    HW2 8298   4.856   4.792   6.350  0.1170 -0.0870 -0.1877
 2133SOL    HW3 8299   4.925   4.828   6.220  1.0958  0.7200  0.5467
 2133SOL    MW4 8300   4.921   4.781   6.293 -0.0484 -0.4509  0.3612
 2134SOL     OW 8301   5.712   1.910   2.236  0.0203 -0.2116  0.6573
 2134SOL    HW2 8302   5.711   1.873   2.325 -1.1876 -1.7494  0.0469
 2134SOL    HW3 8303   5.627   1.888   2.200  0.1228  1.2581 -0.5702
 2134SOL    MW4 8304   5.701   1.902   2.243 -0.3375  0.1211 -0.3092
 2135SOL     OW 8305   2.438   2.836   4.168  0.3578 -0.6473  0.2826
 2135SOL    HW2 8306   2.448   2.931   4.166  2.4199 -0.7777  1.3329
 2135SOL    HW3 8307   2.460   2.807   4.080 -3.3423 -0.0295 -1.0218
 2135SOL    MW4 8308   2.442   2.845   4.156  0.7529 -0.0630  0.2678
 2136SOL     OW 8309   5.002   0.582   1.146  0.0396 -0.1271 -0.2735
 2136SOL    HW2 8310   5.081   0.634   1.129 -0.5262  0.7616 -0.2305
 2136SOL    HW3 8311   4.961   0.572   1.060  0.4005 -0.9355 -0.3599
 2136SOL    MW4 8312   5.007   0.587   1.132  0.1499  0.1252 -0.0664
 2137SOL     OW 8313   5.820   2.576   3.882 -0.1640 -0.0040  0.3988
 2137SOL    HW2 8314   5.732   2.544   3.904  0.2255 -0.5558  1.2012
 2137SOL    HW3 8315   5.877   2.502   3.900  0.7285  1.0164  1.9587
 2137SOL    MW4 8316   5.816   2.562   3.887 -0.4613  0.2188 -0.2426
 2138SOL     OW 8317   4.381   0.400   5.647  0.3633 -0.1701  0.0394
 2138SOL    HW2 8318   4.298   0.423   5.688 -0.0932 -0.3676 -0.7627
 2138SOL    HW3 8319   4.360   0.387   5.555  1.6792  1.9406 -0.6201
 2138SOL    MW4 8320   4.367   0.401   5.641  0.3751  0.3765 -0.4493
 2139SOL     OW 8321   2.468   5.295   2.371 -0.1443 -0.5365 -0.2478
 2139SOL    HW2 8322   2.396   5.262   2.318 -1.0522 -0.0441  0.6388
 2139SOL    HW3 8323   2.456   5.255   2.457  0.7180 -0.5446 -0.1167
 2139SOL    MW4 8324   2.457   5.286   2.376  0.2915 -0.3806 -0.0907
 2140SOL     OW 8325   5.565   2.214   4.092 -0.1962  0.1060  0.1662
 2140SOL    HW2 8326   5.650   2.217   4.137 -0.0819  0.4489 -0.0677
 2140SOL    HW3 8327   5.501   2.209   4.163  0.0434 -0.9508  0.3272
 2140SOL    MW4 8328   5.568   2.214   4.107  0.2329 -0.5321  0.2441
 2141SOL     OW 8329   5.673   4.632   3.169  0.2170  0.2924 -0.0724
 2141SOL    HW2 8330   5.614   4.707   3.163  0.0307  0.0767 -1.3420
 2141SOL    HW3 8331   5.755   4.664   3.131  1.1324  0.7508  2.1433
 2141SOL    MW4 8332   5.676   4.646   3.163 -0.2460  0.2397  0.2826
 2142SOL     OW 8333   2.351   3.018   0.965 -0.0518 -0.0369  0.1357
 2142SOL    HW2 8334   2.336   2.924   0.965 -2.1815  0.2486 -1.0919
 2142SOL    HW3 8335   2.374   3.039   0.875 -2.4001  0.9273 -0.3253
 2142SOL    MW4 8336   2.352   3.008   0.953 -0.7015 -0.4740 -0.1230
 2143SOL     OW 8337   0.591   2.163   2.267 -0.0966 -0.2701  0.1702
 2143SOL    HW2 8338   0.678   2.199   2.283 -0.3035 -0.0773  0.9090
 2143SOL    HW3 8339   0.605   2.091   2.206  0.5597 -0.1539  0.1785
 2143SOL    MW4 8340   0.604   2.158   2.261 -0.6874  0.2382  0.2480
 2144SOL     OW 8341   2.042   0.185   5.331  0.3032 -0.4585  0.4225
 2144SOL    HW2 8342   2.084   0.198   5.416  1.7898  0.5815 -0.4379
 2144SOL    HW3 8343   1.950   0.170   5.352  0.6080 -0.0362  2.1969
 2144SOL    MW4 8344   2.035   0.185   5.345  0.0673  0.3152 -0.0809
 2145SOL     OW 8345   1.365   6.053   3.168  0.0325 -0.1082  0.2729
 2145SOL    HW2 8346   1.372   6.107   3.246 -1.7835 -0.6442  0.8354
 2145SOL    HW3 8347   1.427   6.093   3.106  0.8694  0.8320  1.6616
 2145SOL    MW4 8348   1.374   6.066   3.170 -0.4181 -0.2772  0.0799
 2146SOL     OW 8349   5.704   2.788   5.577  0.3356 -0.0982  0.0499
 2146SOL    HW2 8350   5.632   2.825   5.526  0.6359 -1.2801 -1.3061
 2146SOL    HW3 8351   5.723   2.854   5.644 -2.2667  0.0933  0.7448
 2146SOL    MW4 8352   5.697   2.801   5.579 -0.0294  0.4194 -0.6037
 2147SOL     OW 8353   6.262   2.118   0.537 -0.1146 -0.0392  0.2131
 2147SOL    HW2 8354   6.248   2.179   0.465  0.5489  0.7996  0.7732
 2147SOL    HW3 8355   6.329   2.057   0.505  0.8379  0.8662  0.4053
 2147SOL    MW4 8356   6.269   2.118   0.523  0.0137 -0.3700  0.5775
 2148SOL     OW 8357   6.269   0.817   1.271 -0.8599 -0.5792  0.3432
 2148SOL    HW2 8358   6.319   0.860   1.339 -0.2306  0.7870 -0.9249
 2148SOL    HW3 8359   6.268   0.879   1.198  0.3463 -2.7736 -1.7034
 2148SOL    MW4 8360   6.275   0.831   1.270 -0.6559  0.1515 -0.2733
 2149SOL     OW 8361   5.243   2.986   1.214 -0.1704  0.3523 -0.3881
 2149SOL    HW2 8362   5.193   3.066   1.226  1.2395  1.1566  0.3495
 2149SOL    HW3 8363   5.278   2.965   1.301 -0.6673 -1.1870 -0.5186
 2149SOL    MW4 8364   5.241   2.994   1.227  0.1725 -0.1059 -0.6607
 2150SOL     OW 8365   1.343   4.693   0.356 -0.4781 -0.1192 -0.0535
 2150SOL    HW2 8366   1.436   4.676   0.344 -0.5421 -0.9680  0.5469
 2150SOL    HW3 8367   1.302   4.658   0.278 -0.3507 -0.2830 -0.0468
 2150SOL    MW4 8368   1.350   4.686   0.344  0.0245 -0.2782  0.4028
 2151SOL     OW 8369   0.808   4.631   1.393 -0.2140 -0.1496  0.2563
 2151SOL    HW2 8370   0.801   4.537   1.410  0.9732 -0.5327 -1.0748
 2151SOL    HW3 8371   0.790   4.673   1.477  0.8818 -1.6524  1.3017
 2151SOL    MW4 8372   0.805   4.624   1.406 -0.0480  0.1900 -0.0005
 2152SOL     OW 8373   3.477   0.982   5.418 -0.7787  0.4229  0.0396
 2152SOL    HW2 8374   3.450   1.074   5.418 -0.9792  0.3699 -0.6229
 2152SOL    HW3 8375   3.418   0.940   5.482  0.3758  1.0329  1.5702
 2152SOL    MW4 8376   3.466   0.988   5.427  0.1739 -0.2021 -0.3240
 2153SOL     OW 8377   1.751   5.380   5.842 -0.2963  0.3738  0.1349
 2153SOL    HW2 8378   1.823   5.335   5.799 -0.9754  0.8202 -1.5320
 2153SOL    HW3 8379   1.685   5.313   5.855 -0.1274  0.2589  0.4126
 2153SOL    MW4 8380   1.752   5.366   5.838  0.0972 -0.2034  0.3887
 2154SOL     OW 8381   3.521   6.264   3.780 -0.0964  0.0383  0.1351
 2154SOL    HW2 8382   3.584   6.255   3.852  0.8578  1.8751 -0.4183
 2154SOL    HW3 8383   3.558   6.331   3.723 -2.7155  1.4698 -0.0626
 2154SOL    MW4 8384   3.534   6.272   3.782 -0.3587 -0.0484  0.0125
 2155SOL     OW 8385   5.006   2.677   4.576 -0.6388 -0.8317 -0.1950
 2155SOL    HW2 8386   5.081   2.631   4.614 -0.1762 -0.7267 -0.9509
 2155SOL    HW3 8387   4.955   2.609   4.533 -0.0941 -0.7117 -1.0844
 2155SOL    MW4 8388   5.009   2.662   4.575 -0.0213  0.7414 -0.3226
 2156SOL     OW 8389   3.878   3.236   5.126  0.2989 -0.0975 -0.4841
 2156SOL    HW2 8390   3.901   3.190   5.044 -2.2681 -0.2967 -1.1659
 2156SOL    HW3 8391   3.862   3.326   5.099  1.5980  0.3648  0.2190
 2156SOL    MW4 8392   3.879   3.242   5.111  0.3247  0.0076 -0.1348
 2157SOL     OW 8393   3.441   6.300   0.365 -0.9415 -0.0983  0.0376
 2157SOL    HW2 8394   3.500   6.357   0.414 -3.1437  1.2081  1.3499
 2157SOL    HW3 8395   3.493   6.222   0.346  1.2971  1.1351  0.7342
 2157SOL    MW4 8396   3.456   6.297   0.369  0.3450  0.5353 -0.3457
 2158SOL     OW 8397   0.588   1.823   1.631  0.0370 -0.6044  0.0381
 2158SOL    HW2 8398   0.512   1.800   1.685 -0.1403  0.9440  0.5108
 2158SOL    HW3 8399   0.662   1.785   1.676 -0.1551  0.3586  1.2073
 2158SOL    MW4 8400   0.588   1.815   1.644  0.0301 -0.2678 -0.5564
 2159SOL     OW 8401   5.437   1.830   2.133  0.0474 -0.4002 -0.2473
 2159SOL    HW2 8402   5.356   1.857   2.089 -0.7841 -4.5117 -1.7164
 2159SOL    HW3 8403   5.414   1.831   2.226 -1.0486  0.2912 -0.5031
 2159SOL    MW4 8404   5.423   1.834   2.139 -0.2782 -0.1297 -0.4430
 2160SOL     OW 8405   1.812   0.739   4.274 -0.3413  0.1647 -0.2689
 2160SOL    HW2 8406   1.803   0.740   4.369 -0.5078  0.3551 -0.2870
 2160SOL    HW3 8407   1.821   0.646   4.252  2.1026  0.2491  0.1511
 2160SOL    MW4 8408   1.812   0.727   4.284 -0.1377  0.2939 -0.2077
 2161SOL     OW 8409   3.423   2.696   4.888  0.9666  0.1856  0.3043
 2161SOL    HW2 8410   3.360   2.767   4.875 -1.1024 -1.5285  0.3720
 2161SOL    HW3 8411   3.480   2.699   4.811 -1.1973 -0.1183 -1.3983
 2161SOL    MW4 8412   3.422   2.706   4.876 -0.3015  0.3942 -0.2915
 2162SOL     OW 8413   5.628   2.499   4.961  0.1084  0.7270 -0.1490
 2162SOL    HW2 8414   5.664   2.422   4.919  1.5909  1.4435 -0.2588
 2162SOL    HW3 8415   5.577   2.542   4.892 -0.3585  0.0829 -0.2092
 2162SOL    MW4 8416   5.626   2.495   4.946  0.7443 -0.0882  0.5801
 2163SOL     OW 8417   3.800   1.898   0.252 -0.0973  0.6234 -0.1644
 2163SOL    HW2 8418   3.807   1.807   0.223  1.3435  0.6249  0.1429
 2163SOL    HW3 8419   3.730   1.935   0.197  0.3501 -0.2531 -1.3603
 2163SOL    MW4 8420   3.791   1.891   0.241  0.1658 -0.2627 -0.2136
 2164SOL     OW 8421   6.165   4.129   2.669  0.0091 -0.1865 -0.2568
 2164SOL    HW2 8422   6.225   4.065   2.707  0.8911  0.4634 -0.5268
 2164SOL    HW3 8423   6.084   4.119   2.720  0.8813  0.0726  1.2456
 2164SOL    MW4 8424   6.162   4.119   2.681 -0.1397  0.0613 -0.3275
 2165SOL     OW 8425   0.748   0.672   3.596  0.0770  0.5759  1.1186
 2165SOL    HW2 8426   0.742   0.580   3.623  0.1767  0.5939  1.2021
 2165SOL    HW3 8427   0.808   0.712   3.659  2.8902 -0.0756 -0.9632
 2165SOL    MW4 8428   0.755   0.665   3.608  0.0175  0.2200 -0.2956
 2166SOL     OW 8429   0.679   5.494   3.136  0.3500 -0.2207 -0.2365
 2166SOL    HW2 8430   0.596   5.540   3.130  0.3125 -0.1664  0.6729
 2166SOL    HW3 8431   0.743   5.555   3.100  0.1504  0.1492  0.0391
 2166SOL    MW4 8432   0.677   5.508   3.130 -0.1416  0.1977 -0.3113
 2167SOL     OW 8433   1.596   1.807   4.376  0.0489 -0.2409 -0.5698
 2167SOL    HW2 8434   1.569   1.889   4.417  0.1760 -0.9729  1.0395
 2167SOL    HW3 8435   1.601   1.828   4.283 -0.2448  1.4843 -0.2373
 2167SOL    MW4 8436   1.593   1.821   4.369  0.3652 -0.3831 -0.5651
 2168SOL     OW 8437   4.267   4.901   2.546  0.1521  0.3862 -0.6236
 2168SOL    HW2 8438   4.283   4.995   2.543  2.6887  0.2023  2.1647
 2168SOL    HW3 8439   4.298   4.869   2.461  1.3645  1.8420 -0.7726
 2168SOL    MW4 8440   4.273   4.909   2.534 -0.5084  0.0322 -0.3426
 2169SOL     OW 8441   5.036   4.761   2.359  0.1487  0.2715 -0.3795
 2169SOL    HW2 8442   5.025   4.821   2.432 -0.2827 -0.6628  0.3525
 2169SOL    HW3 8443   5.089   4.689   2.394  1.8805  0.8696 -1.6351
 2169SOL    MW4 8444   5.041   4.759   2.373 -0.5437 -1.1054 -0.1996
 2170SOL     OW 8445   4.572   3.731   3.985  0.5594 -0.1119 -0.5968
 2170SOL    HW2 8446   4.520   3.757   3.908  1.3217  0.0093 -1.0845
 2170SOL    HW3 8447   4.663   3.735   3.955  1.0716  2.3122  0.9830
 2170SOL    MW4 8448   4.577   3.735   3.971 -0.7374  0.5303 -0.2267
 2171SOL     OW 8449   3.603   3.806   5.274  0.3063 -0.1913  0.0404
 2171SOL    HW2 8450   3.603   3.725   5.223 -0.7524  0.1944 -0.5896
 2171SOL    HW3 8451   3.576   3.874   5.212  1.5671  0.7249  0.4568
 2171SOL    MW4 8452   3.600   3.804   5.259 -0.6041  0.0033 -0.3464
 2172SOL     OW 8453   1.113   4.640   4.047 -0.1398 -0.3003  0.2424
 2172SOL    HW2 8454   1.071   4.559   4.076  1.8936 -1.7557 -0.6357
 2172SOL    HW3 8455   1.206   4.619   4.043  0.2687  1.5138 -1.7651
 2172SOL    MW4 8456   1.119   4.627   4.050 -0.2197 -0.1753  0.4554
 2173SOL     OW 8457   0.954   0.211   2.493  0.2327  0.2381 -1.3997
 2173SOL    HW2 8458   1.020   0.159   2.539  1.3270  2.9414  0.3589
 2173SOL    HW3 8459   1.004   0.283   2.453 -1.5140  2.1700 -0.3228
 2173SOL    MW4 8460   0.970   0.214   2.493 -0.0642  0.1937 -0.0209
 2174SOL     OW 8461   2.550   1.061   5.715 -0.5215 -0.6623 -0.2758
 2174SOL    HW2 8462   2.505   1.059   5.800 -1.4903 -0.6480 -0.7742
 2174SOL    HW3 8463   2.575   1.153   5.704 -0.6783 -0.6015 -0.1401
 2174SOL    MW4 8464   2.547   1.073   5.725  0.0354 -0.4840 -0.1416
 2175SOL     OW 8465   4.647   4.839   0.490 -0.1523 -0.0032  0.0387
 2175SOL    HW2 8466   4.633   4.774   0.421 -0.6770  0.1578 -0.0083
 2175SOL    HW3 8467   4.682   4.915   0.443  0.1372 -0.1297  0.0471
 2175SOL    MW4 8468   4.650   4.841   0.474 -0.3082 -0.7108 -0.1693
 2176SOL     OW 8469   3.678   6.269   2.103 -0.3203 -0.6328 -0.5050
 2176SOL    HW2 8470   3.763   6.256   2.061 -0.0145  0.3054 -0.2030
 2176SOL    HW3 8471   3.615   6.269   2.031 -0.1874 -2.1686 -0.6649
 2176SOL    MW4 8472   3.681   6.267   2.088  0.3529 -0.4111 -0.2078
 2177SOL     OW 8473   0.185   1.469   1.586  0.7052 -0.1390  0.3842
 2177SOL    HW2 8474   0.212   1.561   1.588  1.1605 -0.2709  1.7357
 2177SOL    HW3 8475   0.092   1.471   1.608 -0.0058  0.1706 -2.3425
 2177SOL    MW4 8476   0.177   1.481   1.589  0.2659 -0.0375 -0.0102
 2178SOL     OW 8477   2.881   5.873   3.050  0.0294 -0.5733  0.3066
 2178SOL    HW2 8478   2.901   5.851   3.141  0.9610  1.8694  0.7711
 2178SOL    HW3 8479   2.840   5.959   3.054 -0.3325 -0.6175 -1.5626
 2178SOL    MW4 8480   2.878   5.881   3.063  0.0070  0.2242 -0.0875
 2179SOL     OW 8481   4.723   2.223   5.835 -0.0996 -0.2616  0.6351
 2179SOL    HW2 8482   4.766   2.169   5.901  0.8062 -0.9191 -0.4658
 2179SOL    HW3 8483   4.781   2.298   5.823  0.7449 -1.1152 -0.8018
 2179SOL    MW4 8484   4.736   2.226   5.842 -0.1131  0.3844 -0.0043
 2180SOL     OW 8485   2.761   0.576   2.661  0.0688  0.3444  0.2179
 2180SOL    HW2 8486   2.753   0.497   2.607 -3.1144 -0.0542  1.0230
 2180SOL    HW3 8487   2.794   0.544   2.745  0.0517  0.0630  0.1192
 2180SOL    MW4 8488   2.764   0.561   2.665  0.6741 -0.1669  0.4966
 2181SOL     OW 8489   1.277   5.283   4.309  0.3234 -0.2333 -0.2762
 2181SOL    HW2 8490   1.184   5.265   4.322  0.0246 -1.1594 -3.0214
 2181SOL    HW3 8491   1.310   5.205   4.265  2.3449  0.2528  0.2857
 2181SOL    MW4 8492   1.269   5.270   4.305  0.1347  0.7263 -0.5111
 2182SOL     OW 8493   2.724   0.816   1.320 -0.0464 -0.0369  0.0914
 2182SOL    HW2 8494   2.635   0.805   1.287  0.5056  0.5980 -1.7669
 2182SOL    HW3 8495   2.767   0.872   1.254  2.0592 -1.3203  0.2891
 2182SOL    MW4 8496   2.718   0.822   1.307  0.5448  0.5596 -0.1996
 2183SOL     OW 8497   0.905   1.045   5.201  0.0568  0.1745  0.5279
 2183SOL    HW2 8498   0.825   1.071   5.155  0.5603  2.3022  0.7627
 2183SOL    HW3 8499   0.958   1.003   5.133 -0.3854  0.6908 -0.1568
 2183SOL    MW4 8500   0.901   1.043   5.186 -0.2210 -0.5648 -0.3927
 2184SOL     OW 8501   5.326   4.184   0.702  0.6693  0.0634 -0.2942
 2184SOL    HW2 8502   5.263   4.118   0.732  0.6851  0.3103  0.3038
 2184SOL    HW3 8503   5.274   4.248   0.655  0.5880 -0.1347 -0.4778
 2184SOL    MW4 8504   5.311   4.184   0.700  0.7345  0.0638 -0.6890
 2185SOL     OW 8505   4.529   6.163   0.586 -0.0817 -0.4195  0.0237
 2185SOL    HW2 8506   4.469   6.116   0.644  1.0924  0.3168  1.9188
 2185SOL    HW3 8507   4.601   6.102   0.571 -0.3302 -0.5678 -0.6181
 2185SOL    MW4 8508   4.530   6.149   0.592  0.6025 -0.1928  0.4075
 2186SOL     OW 8509   2.358   1.589   4.199  0.1071 -0.1246 -0.0983
 2186SOL    HW2 8510   2.419   1.646   4.153  0.7249 -1.0348 -0.4310
 2186SOL    HW3 8511   2.272   1.612   4.163  0.5668 -0.7927 -1.7203
 2186SOL    MW4 8512   2.354   1.599   4.188 -0.1524  0.3133 -0.4138
 2187SOL     OW 8513   4.510   1.263   1.611 -0.5820 -0.1345 -0.1977
 2187SOL    HW2 8514   4.554   1.227   1.688  1.2008  2.2771  0.0045
 2187SOL    HW3 8515   4.423   1.222   1.613 -0.1547 -1.1421  2.3287
 2187SOL    MW4 8516   4.504   1.253   1.622 -0.2407  0.3448 -0.3584
 2188SOL     OW 8517   3.323   5.408   3.355  0.3188 -0.2833 -0.2511
 2188SOL    HW2 8518   3.402   5.456   3.378 -0.0329  0.5606 -0.7440
 2188SOL    HW3 8519   3.353   5.337   3.297  0.7835 -0.3724  0.0946
 2188SOL    MW4 8520   3.337   5.405   3.350  0.1947 -0.7119  1.0328
 2189SOL     OW 8521   0.749   3.607   1.583 -0.4467  0.2064  0.5726
 2189SOL    HW2 8522   0.772   3.654   1.663 -1.8007  0.6447  0.7274
 2189SOL    HW3 8523   0.668   3.649   1.553  1.2407  1.7258 -2.3616
 2189SOL    MW4 8524   0.741   3.619   1.590  0.8809  0.4459  0.0897
 2190SOL     OW 8525   4.885   5.690   4.803  0.2066  0.3182 -0.3205
 2190SOL    HW2 8526   4.791   5.677   4.792  0.3136 -1.6914  0.7121
 2190SOL    HW3 8527   4.912   5.740   4.726 -1.7031  0.9894 -0.5897
 2190SOL    MW4 8528   4.876   5.695   4.791 -0.4117  0.1420 -0.1582
 2191SOL     OW 8529   2.730   0.854   2.716  0.1817  0.2054 -0.4440
 2191SOL    HW2 8530   2.636   0.853   2.698  0.0683  0.9320  0.0618
 2191SOL    HW3 8531   2.761   0.768   2.686 -0.7867 -0.3777  0.1562
 2191SOL    MW4 8532   2.722   0.842   2.710 -0.2162 -0.2447  0.7410
 2192SOL     OW 8533   0.173   1.023   2.058  0.1424 -0.1201  0.3495
 2192SOL    HW2 8534   0.143   0.943   2.015  0.1815  0.2552 -0.3795
 2192SOL    HW3 8535   0.268   1.021   2.051  0.0848  0.6302 -0.8420
 2192SOL    MW4 8536   0.181   1.012   2.052 -0.0778 -0.5338  0.6930
 2193SOL     OW 8537   6.130   2.978   4.263 -0.4967 -0.6998  0.4169
 2193SOL    HW2 8538   6.082   2.962   4.345  0.2709 -0.0048  1.0276
 2193SOL    HW3 8539   6.201   3.037   4.289 -1.9104  1.9612 -1.2890
 2193SOL    MW4 8540   6.133   2.984   4.277  0.6126 -0.3254 -0.0828
 2194SOL     OW 8541   3.312   3.095   5.319  0.6495 -0.7612  0.1628
 2194SOL    HW2 8542   3.288   3.187   5.327  1.3703 -0.6141  0.7143
 2194SOL    HW3 8543   3.388   3.095   5.261 -0.3588 -1.1853 -1.2329
 2194SOL    MW4 8544   3.319   3.107   5.312 -0.5939 -0.2435 -0.0060
 2195SOL     OW 8545   6.086   4.020   3.067  0.5592  0.8118 -0.6709
 2195SOL    HW2 8546   6.067   3.928   3.086  1.1621  1.2045  2.3274
 2195SOL    HW3 8547   6.181   4.025   3.067  0.5230  1.5351 -0.2652
 2195SOL    MW4 8548   6.096   4.008   3.070 -0.1998  0.0553 -0.2738
 2196SOL     OW 8549   0.629   4.817   4.600 -0.1007 -0.4158  0.5704
 2196SOL    HW2 8550   0.557   4.755   4.588  0.2078 -0.4182 -1.6216
 2196SOL    HW3 8551   0.653   4.808   4.692 -1.6578 -1.7716  0.8941
 2196SOL    MW4 8552   0.623   4.808   4.611 -0.3006 -0.1239 -0.6339
 2197SOL     OW 8553   3.290   4.577   6.026 -0.0766 -0.5647  0.0877
 2197SOL    HW2 8554   3.285   4.539   5.939  1.8821  0.1820 -0.4047
 2197SOL    HW3 8555   3.355   4.524   6.072  2.7011  1.9730 -0.6059
 2197SOL    MW4 8556   3.298   4.565   6.021 -0.1623 -0.0752 -0.2455
 2198SOL     OW 8557   4.879   1.304   3.698 -0.2235  0.2526 -0.4950
 2198SOL    HW2 8558   4.965   1.267   3.717  0.1796  1.2574 -0.2901
 2198SOL    HW3 8559   4.881   1.323   3.604  0.1875  1.2854 -0.2819
 2198SOL    MW4 8560   4.890   1.302   3.688 -0.0186 -0.5826  0.0891
 2199SOL     OW 8561   2.507   0.585   1.638 -0.2673 -0.1465  0.2336
 2199SOL    HW2 8562   2.545   0.512   1.589  1.0313  0.2089  0.6555
 2199SOL    HW3 8563   2.478   0.545   1.720  1.1946 -0.0926  0.8154
 2199SOL    MW4 8564   2.508   0.570   1.643  0.6515  0.2708  0.2618
 2200SOL     OW 8565   6.356   2.470   5.281  0.2634  0.3019 -0.9450
 2200SOL    HW2 8566   6.446   2.449   5.253 -0.0885 -0.2363 -1.7090
 2200SOL    HW3 8567   6.323   2.388   5.318  0.1775  0.5787 -0.3967
 2200SOL    MW4 8568   6.364   2.457   5.282  0.0275 -0.1747 -0.1756
 2201SOL     OW 8569   0.748   0.168   0.351 -0.0585  0.0217 -0.3920
 2201SOL    HW2 8570   0.700   0.242   0.390  1.8248  0.6789  0.7851
 2201SOL    HW3 8571   0.682   0.124   0.297 -1.1944  2.7273 -1.4238
 2201SOL    MW4 8572   0.733   0.172   0.349 -0.1345  0.0952 -0.1195
 2202SOL     OW 8573   5.412   2.428   1.899  0.3035 -0.0044 -0.0350
 2202SOL    HW2 8574   5.384   2.344   1.937 -0.8267  0.1665 -0.4668
 2202SOL    HW3 8575   5.407   2.490   1.972 -0.3652 -0.0001 -0.0772
 2202SOL    MW4 8576   5.408   2.425   1.914  0.2160  0.6483  0.4220
 2203SOL     OW 8577   6.356   3.847   2.223 -0.2757 -0.6131 -0.1091
 2203SOL    HW2 8578   6.275   3.895   2.237 -0.3916 -0.8268 -0.0467
 2203SOL    HW3 8579   6.369   3.847   2.129  0.6304  1.0481 -0.0246
 2203SOL    MW4 8580   6.347   3.853   2.213 -0.0602  0.6945 -0.4386
 2204SOL     OW 8581   2.542   6.397   0.993  0.2562  0.1543 -0.5273
 2204SOL    HW2 8582   2.602   6.471   0.982  0.9742 -0.6817 -2.9401
 2204SOL    HW3 8583   2.457   6.432   0.968  0.5921  0.2385 -1.6573
 2204SOL    MW4 8584   2.539   6.411   0.988  0.4873 -0.0380  0.8576
 2205SOL     OW 8585   0.348   6.078   0.378  0.3278 -0.2459  0.0841
 2205SOL    HW2 8586   0.385   6.072   0.466  0.0409  2.6535  0.5266
 2205SOL    HW3 8587   0.425   6.082   0.321  0.5708 -0.3679  0.4005
 2205SOL    MW4 8588   0.363   6.078   0.382 -0.5703 -0.2149 -0.6919
 2206SOL     OW 8589   0.706   1.820   0.126 -0.2380 -0.4886  0.3598
 2206SOL    HW2 8590   0.800   1.839   0.119  0.0828 -1.2317  2.0545
 2206SOL    HW3 8591   0.699   1.727   0.105 -0.5110 -0.5778  0.8421
 2206SOL    MW4 8592   0.718   1.810   0.122 -0.2333  0.2746  0.1061
 2207SOL     OW 8593   2.078   2.099   6.355  0.1366  0.2434 -0.0217
 2207SOL    HW2 8594   2.061   2.006   6.345  0.4480  0.3638 -1.9632
 2207SOL    HW3 8595   2.015   2.142   6.298 -0.1163  1.2615  0.9775
 2207SOL    MW4 8596   2.068   2.093   6.346  0.1515  0.1667 -0.0472
 2208SOL     OW 8597   4.615   1.721   1.036  0.4241  0.1475  0.4298
 2208SOL    HW2 8598   4.529   1.760   1.018  0.5632  0.1460 -0.2877
 2208SOL    HW3 8599   4.673   1.796   1.051  0.4686  0.1791  0.1025
 2208SOL    MW4 8600   4.611   1.736   1.035 -0.1228 -0.5104  0.6080
 2209SOL     OW 8601   5.968   5.683   3.493  0.2773 -0.1572 -0.2337
 2209SOL    HW2 8602   5.994   5.600   3.452 -0.7321 -0.0206 -1.1799
 2209SOL    HW3 8603   5.887   5.707   3.449  0.8061  1.5864 -0.3000
 2209SOL    MW4 8604   5.961   5.675   3.482 -0.6570  0.0145  0.5705
 2210SOL     OW 8605   4.052   0.254   3.142  0.5479  0.0265 -0.0520
 2210SOL    HW2 8606   4.064   0.186   3.209 -0.5943  1.7553  2.0553
 2210SOL    HW3 8607   4.135   0.303   3.143 -0.0704  1.1321  1.4948
 2210SOL    MW4 8608   4.065   0.252   3.151 -0.7430  0.5619 -0.8029
 2211SOL     OW 8609   4.682   0.695   1.062  0.0092 -0.1429  0.4521
 2211SOL    HW2 8610   4.628   0.615   1.066 -1.0286  0.2434 -2.8290
 2211SOL    HW3 8611   4.621   0.766   1.081  0.0052  0.0823 -0.3438
 2211SOL    MW4 8612   4.667   0.694   1.065 -0.3516  0.0146 -0.1623
 2212SOL     OW 8613   5.855   6.278   5.760 -0.4301  0.5655  0.0156
 2212SOL    HW2 8614   5.774   6.228   5.770  0.3245 -0.6010  0.5968
 2212SOL    HW3 8615   5.869   6.318   5.846  0.5787 -0.8214  0.5401
 2212SOL    MW4 8616   5.846   6.277   5.773  0.2540  0.0179 -0.1594
 2213SOL     OW 8617   2.956   0.615   0.813 -0.0235 -0.5511  0.4050
 2213SOL    HW2 8618   2.946   0.613   0.909  0.8993 -0.2223  0.5210
 2213SOL    HW3 8619   2.933   0.527   0.785 -2.4537 -0.0635  0.6737
 2213SOL    MW4 8620   2.952   0.603   0.822  0.6437 -0.3211  0.2451
 2214SOL     OW 8621   1.920   5.163   1.298  0.0284  0.4934 -0.0152
 2214SOL    HW2 8622   1.853   5.231   1.310 -0.3317  0.1317  0.0600
 2214SOL    HW3 8623   1.888   5.089   1.350  1.1597  0.7651  1.1329
 2214SOL    MW4 8624   1.907   5.162   1.307 -0.4202  0.1533 -0.3439
 2215SOL     OW 8625   1.053   3.734   3.787  0.2614 -0.3372  0.0186
 2215SOL    HW2 8626   1.126   3.673   3.777 -0.5106 -1.1581 -0.7688
 2215SOL    HW3 8627   1.079   3.811   3.736  1.1045 -0.0986  0.7715
 2215SOL    MW4 8628   1.066   3.736   3.779  0.4559 -0.1697 -0.0474
 2216SOL     OW 8629   1.912   0.906   6.410 -0.3394  0.4360 -0.4702
 2216SOL    HW2 8630   1.947   0.940   6.492 -1.5377  1.1656 -0.2362
 2216SOL    HW3 8631   1.955   0.821   6.399 -2.5863 -1.3247  2.6991
 2216SOL    MW4 8632   1.922   0.899   6.419 -0.3152  0.1163 -0.3470
 2217SOL     OW 8633   1.808   0.727   3.783 -0.4199 -0.1310  0.4773
 2217SOL    HW2 8634   1.746   0.760   3.848 -1.6445 -0.5685 -0.4096
 2217SOL    HW3 8635   1.888   0.710   3.831 -1.2618 -0.3486  1.8499
 2217SOL    MW4 8636   1.810   0.729   3.798  0.1218 -0.0035 -0.1716
 2218SOL     OW 8637   6.020   3.478   2.779  0.4414  0.0146  0.0150
 2218SOL    HW2 8638   5.974   3.555   2.814 -0.7718 -1.1320  1.0948
 2218SOL    HW3 8639   6.102   3.475   2.827  1.5717  1.8894 -1.6745
 2218SOL    MW4 8640   6.024   3.487   2.790 -0.0173 -0.1745  0.3616
 2219SOL     OW 8641   1.517   6.009   1.011  0.2662  0.1642  0.0770
 2219SOL    HW2 8642   1.520   6.104   1.025 -2.1170  0.2618  0.3780
 2219SOL    HW3 8643   1.497   5.972   1.097  1.4183 -0.6597  0.0149
 2219SOL    MW4 8644   1.515   6.017   1.024  0.1610  0.3096  0.0112
 2220SOL     OW 8645   4.280   2.299   5.368  0.0909 -0.7427 -0.3821
 2220SOL    HW2 8646   4.288   2.394   5.365  2.0173 -0.8724 -1.3051
 2220SOL    HW3 8647   4.187   2.282   5.378 -0.3167  1.2332 -0.5470
 2220SOL    MW4 8648   4.269   2.309   5.369 -0.1864  0.0084 -0.1383
 2221SOL     OW 8649   0.844   0.615   0.387  0.2237 -0.4712  0.6782
 2221SOL    HW2 8650   0.879   0.678   0.450 -0.6444 -0.2472  0.9500
 2221SOL    HW3 8651   0.756   0.595   0.420 -0.6924  0.4883 -1.0458
 2221SOL    MW4 8652   0.837   0.621   0.399 -0.1690 -0.2868  0.0967
 2222SOL     OW 8653   5.942   3.018   1.749  0.3092  0.0155  0.3118
 2222SOL    HW2 8654   5.976   3.101   1.715  1.9401 -1.0684 -0.8390
 2222SOL    HW3 8655   5.962   3.021   1.843  0.6846  0.7787  0.2200
 2222SOL    MW4 8656   5.949   3.029   1.757 -0.3377  0.1700 -0.1251
 2223SOL     OW 8657   0.229   4.139   1.702 -0.7113  0.3623 -0.4360
 2223SOL    HW2 8658   0.142   4.125   1.739 -0.7708  0.0672 -0.6757
 2223SOL    HW3 8659   0.242   4.233   1.703 -0.8703  0.3776 -0.0273
 2223SOL    MW4 8660   0.220   4.149   1.707  0.1794 -0.9319 -0.3646
 2224SOL     OW 8661   3.772   5.182   3.778  0.2010 -0.0240  0.2114
 2224SOL    HW2 8662   3.815   5.199   3.862 -1.5398  1.2436  0.9220
 2224SOL    HW3 8663   3.728   5.098   3.790 -0.2791  0.2853  0.7209
 2224SOL    MW4 8664   3.772   5.173   3.791 -0.7583 -0.4128  0.3217
 2225SOL     OW 8665   1.006   0.928   5.752  0.9511  0.3947  0.0253
 2225SOL    HW2 8666   0.961   1.010   5.771 -0.0090 -0.3685  1.1307
 2225SOL    HW3 8667   0.937   0.863   5.742  1.7265 -0.4288 -0.1678
 2225SOL    MW4 8668   0.991   0.930   5.753  0.2496 -0.6405 -0.3197
 2226SOL     OW 8669   2.934   5.709   2.400  0.3997  0.5171  0.5456
 2226SOL    HW2 8670   2.975   5.629   2.434 -0.1282  0.2543  0.5668
 2226SOL    HW3 8671   2.893   5.749   2.477  0.4290  0.6674  0.4832
 2226SOL    MW4 8672   2.934   5.703   2.415  0.3003 -0.0928 -0.6757
 2227SOL     OW 8673   6.086   3.112   1.352  0.4289 -0.2679 -0.1739
 2227SOL    HW2 8674   6.128   3.198   1.342  0.4322 -0.4164 -1.7250
 2227SOL    HW3 8675   5.992   3.132   1.354  0.4437 -0.1969 -0.1705
 2227SOL    MW4 8676   6.079   3.126   1.351  0.3631  0.2646 -0.3432
 2228SOL     OW 8677   0.101   6.266   6.004  0.3403  0.5062  0.4115
 2228SOL    HW2 8678   0.017   6.304   5.980  1.0021  1.1997 -0.9003
 2228SOL    HW3 8679   0.085   6.223   6.088 -1.4516  0.1155 -0.1000
 2228SOL    MW4 8680   0.088   6.265   6.012 -0.1335 -0.6594 -0.3062
 2229SOL     OW 8681   4.883   3.315   2.188 -0.7488 -0.3183  0.1131
 2229SOL    HW2 8682   4.978   3.303   2.199 -0.9405 -1.9292  0.3178
 2229SOL    HW3 8683   4.852   3.229   2.161 -2.1754  0.1795  0.1140
 2229SOL    MW4 8684   4.892   3.302   2.186 -0.0353 -0.3310  0.6526
 2230SOL     OW 8685   3.643   5.551   5.547 -0.1153  0.3431  0.2395
 2230SOL    HW2 8686   3.585   5.574   5.620 -0.7873  0.6709 -0.3811
 2230SOL    HW3 8687   3.651   5.632   5.497 -1.1414 -0.3228 -1.0512
 2230SOL    MW4 8688   3.636   5.565   5.550 -0.1171 -0.2789 -0.2588
 2231SOL     OW 8689   2.728   5.179   6.125  0.0054 -0.2294 -0.4982
 2231SOL    HW2 8690   2.730   5.258   6.180  2.7328 -1.2243  1.0444
 2231SOL    HW3 8691   2.637   5.171   6.097 -1.9718 -0.0828  4.7270
 2231SOL    MW4 8692   2.716   5.188   6.129  0.2096  0.6236  0.5544
 2232SOL     OW 8693   0.842   0.739   4.241 -0.6559 -0.0773 -0.3816
 2232SOL    HW2 8694   0.904   0.747   4.313  0.2672 -1.8554 -0.9108
 2232SOL    HW3 8695   0.766   0.791   4.268  0.3706  0.7326  1.0469
 2232SOL    MW4 8696   0.840   0.747   4.254  0.3974 -0.0486 -0.4404
 2233SOL     OW 8697   0.973   3.249   2.879  0.3634  0.8212  0.1515
 2233SOL    HW2 8698   0.936   3.211   2.958  1.2756  0.9607  0.6592
 2233SOL    HW3 8699   0.900   3.253   2.817  0.1369 -1.3578  0.2104
 2233SOL    MW4 8700   0.959   3.245   2.881  0.3290 -0.0058  0.3946
 2234SOL     OW 8701   2.712   4.866   3.568  0.9665 -0.3431  0.1900
 2234SOL    HW2 8702   2.665   4.833   3.644 -0.1771 -1.1255 -0.8199
 2234SOL    HW3 8703   2.716   4.791   3.508  3.6348 -0.3619  0.2544
 2234SOL    MW4 8704   2.706   4.851   3.570  0.2400  0.5998 -0.5653
 2235SOL     OW 8705   2.313   3.843   4.390  0.0781 -0.2860 -0.0708
 2235SOL    HW2 8706   2.319   3.754   4.356 -1.1919 -0.6563  0.6230
 2235SOL    HW3 8707   2.223   3.870   4.371 -0.0675  0.2095  1.2315
 2235SOL    MW4 8708   2.302   3.835   4.383  0.7526  0.1882  0.7141
 2236SOL     OW 8709   3.612   1.549   4.691 -0.2942 -0.2942  0.5877
 2236SOL    HW2 8710   3.603   1.599   4.609  0.7418  1.0288  1.2332
 2236SOL    HW3 8711   3.598   1.458   4.665 -0.0766  0.1055 -1.0539
 2236SOL    MW4 8712   3.609   1.544   4.676  0.3952 -0.4691  0.8158
 2237SOL     OW 8713   4.189   5.106   3.096 -0.4914 -0.7169 -0.3617
 2237SOL    HW2 8714   4.179   5.196   3.066  0.3834  0.0545  1.4771
 2237SOL    HW3 8715   4.203   5.114   3.190  0.3505 -2.7403 -0.2663
 2237SOL    MW4 8716   4.189   5.119   3.105  0.7856 -0.1001  0.2068
 2238SOL     OW 8717   3.745   6.328   3.985  0.0726 -0.2129  0.1051
 2238SOL    HW2 8718   3.723   6.420   3.967  0.1797  0.1898  1.8346
 2238SOL    HW3 8719   3.799   6.301   3.911 -0.7829  0.8091 -0.9239
 2238SOL    MW4 8720   3.749   6.337   3.973  0.1667 -0.1800  0.3948
 2239SOL     OW 8721   2.081   4.642   2.597 -0.0856  0.1359 -0.0961
 2239SOL    HW2 8722   2.086   4.664   2.690 -1.8922 -0.3342  0.1565
 2239SOL    HW3 8723   2.097   4.548   2.594 -0.4035  0.0864 -0.2203
 2239SOL    MW4 8724   2.084   4.632   2.609 -0.2502 -0.4773  0.3905
 2240SOL     OW 8725   6.010   1.064   0.084 -0.2417  0.3026 -0.5031
 2240SOL    HW2 8726   5.968   1.143   0.050 -2.5722 -0.7917 -0.3326
 2240SOL    HW3 8727   6.034   1.086   0.174  0.8200  1.3739 -1.0170
 2240SOL    MW4 8728   6.008   1.077   0.091  0.3113 -0.5100 -0.7719
 2241SOL     OW 8729   5.895   4.986   0.228 -0.0442  0.5715  0.0647
 2241SOL    HW2 8730   5.979   4.947   0.250 -0.9812 -1.7758 -0.2590
 2241SOL    HW3 8731   5.869   4.944   0.146 -1.9175  0.5746  0.5954
 2241SOL    MW4 8732   5.902   4.976   0.220  0.3697  0.1309 -0.0195
 2242SOL     OW 8733   3.217   1.145   4.161  0.4642  0.1154 -0.3397
 2242SOL    HW2 8734   3.254   1.092   4.232  0.9641 -0.8523 -1.2910
 2242SOL    HW3 8735   3.126   1.116   4.155  0.5070 -0.0322 -0.2897
 2242SOL    MW4 8736   3.210   1.134   4.169 -0.1574  0.8482 -0.2091
 2243SOL     OW 8737   4.589   2.766   4.968  0.3474  0.1595  0.0889
 2243SOL    HW2 8738   4.600   2.690   5.025  2.5324 -0.0536 -0.5294
 2243SOL    HW3 8739   4.581   2.840   5.028  0.1538 -0.3334  0.6831
 2243SOL    MW4 8740   4.589   2.766   4.984  0.2578  0.6863  0.7210
 2244SOL     OW 8741   1.144   5.868   3.296 -0.5485  0.3100  0.1497
 2244SOL    HW2 8742   1.224   5.913   3.270  1.2953 -1.3912  2.4288
 2244SOL    HW3 8743   1.156   5.778   3.266 -0.5289 -0.5060  2.4118
 2244SOL    MW4 8744   1.156   5.862   3.289 -0.2666 -0.3543  0.1099
 2245SOL     OW 8745   3.905   4.217   4.294  0.6399 -0.3351  0.6340
 2245SOL    HW2 8746   3.826   4.269   4.278 -0.5746 -2.0245  0.9696
 2245SOL    HW3 8747   3.932   4.188   4.207  0.1299 -0.8349  0.6403
 2245SOL    MW4 8748   3.898   4.220   4.281  0.5201  0.3186  0.2737
 2246SOL     OW 8749   5.466   5.685   1.546 -0.0505  0.0980 -0.2410
 2246SOL    HW2 8750   5.419   5.605   1.568 -2.5687  1.1982 -1.1018
 2246SOL    HW3 8751   5.495   5.720   1.630 -1.9207 -0.0658  0.5323
 2246SOL    MW4 8752   5.463   5.679   1.560 -0.5359 -0.0412  0.4056
 2247SOL     OW 8753   3.868   5.283   3.456 -0.0314  0.2672 -0.3877
 2247SOL    HW2 8754   3.779   5.303   3.483  0.3034  0.4185  0.6598
 2247SOL    HW3 8755   3.909   5.243   3.534  0.9279  0.5851 -0.7069
 2247SOL    MW4 8756   3.862   5.280   3.470 -0.1574 -0.0696 -0.4803
 2248SOL     OW 8757   4.336   6.315   4.373 -0.0831  0.0870 -1.1120
 2248SOL    HW2 8758   4.243   6.334   4.388 -0.0796 -1.2596  1.0415
 2248SOL    HW3 8759   4.336   6.243   4.311 -0.6855 -1.7392  0.8695
 2248SOL    MW4 8760   4.324   6.308   4.367  0.3128  0.3500 -0.9643
 2249SOL     OW 8761   3.446   1.261   4.882  0.1517 -0.3056  0.3370
 2249SOL    HW2 8762   3.387   1.186   4.893 -0.6897  0.1913 -0.6179
 2249SOL    HW3 8763   3.462   1.264   4.787  0.3886  0.5613  0.3996
 2249SOL    MW4 8764   3.440   1.251   4.871  0.3724  0.0085 -0.7096
 2250SOL     OW 8765   3.740   0.346   3.636 -0.1045 -0.2871  0.6737
 2250SOL    HW2 8766   3.678   0.274   3.626  0.9956 -1.2417  0.4003
 2250SOL    HW3 8767   3.826   0.303   3.637  0.5597  0.9949  0.9194
 2250SOL    MW4 8768   3.744   0.331   3.635  0.1755  0.0244  0.0048
 2251SOL     OW 8769   1.942   1.160   5.103  0.0482 -0.3579  0.2841
 2251SOL    HW2 8770   1.918   1.086   5.047  1.1696 -1.0207  0.6537
 2251SOL    HW3 8771   1.942   1.236   5.045 -2.0031 -0.4451  0.0743
 2251SOL    MW4 8772   1.939   1.160   5.088  0.1931 -0.5132  0.3920
 2252SOL     OW 8773   2.403   5.703   0.132  0.3765  0.5023  0.9907
 2252SOL    HW2 8774   2.464   5.741   0.069 -1.8010  0.1625 -1.4930
 2252SOL    HW3 8775   2.376   5.777   0.187  1.7804  0.9578  1.1012
 2252SOL    MW4 8776   2.408   5.718   0.131  0.2563 -0.3756  0.5900
 2253SOL     OW 8777   2.604   5.511   0.733  0.0960  0.1964 -0.0322
 2253SOL    HW2 8778   2.586   5.460   0.813 -1.2411  0.5059 -0.1260
 2253SOL    HW3 8779   2.679   5.466   0.694 -0.9694 -1.6693 -0.0553
 2253SOL    MW4 8780   2.612   5.498   0.738 -0.0488 -0.4458 -0.9386
 2254SOL     OW 8781   5.088   5.268   6.369 -0.1680  0.4298  0.1240
 2254SOL    HW2 8782   5.129   5.308   6.446  1.0388 -0.0238 -0.2485
 2254SOL    HW3 8783   5.071   5.178   6.395  1.4651 -0.1084 -0.5216
 2254SOL    MW4 8784   5.092   5.261   6.382  0.5430 -0.4511 -0.5621
 2255SOL     OW 8785   3.119   2.825   1.902 -0.3723 -0.1355 -0.1286
 2255SOL    HW2 8786   3.158   2.908   1.874 -0.1875 -0.9672 -2.5575
 2255SOL    HW3 8787   3.068   2.847   1.979  0.6556  1.9934  0.0115
 2255SOL    MW4 8788   3.118   2.839   1.909  0.1663  0.5338  0.0264
 2256SOL     OW 8789   3.404   0.107   0.717  0.4287 -0.5561 -0.2336
 2256SOL    HW2 8790   3.324   0.054   0.717 -0.4047  0.3916  3.4044
 2256SOL    HW3 8791   3.376   0.193   0.687 -0.4865  0.2501  2.5839
 2256SOL    MW4 8792   3.390   0.112   0.713  0.1276  0.9890 -0.0169
 2257SOL     OW 8793   2.408   4.682   2.613 -0.0164 -0.5222 -0.3025
 2257SOL    HW2 8794   2.475   4.750   2.623 -1.8010  1.0983  1.3436
 2257SOL    HW3 8795   2.369   4.673   2.700 -2.6772 -0.5937 -1.4044
 2257SOL    MW4 8796   2.412   4.690   2.626 -0.2156 -0.0093  0.0557
 2258SOL     OW 8797   5.040   5.729   2.844 -0.0815 -0.1173  0.3611
 2258SOL    HW2 8798   5.096   5.651   2.839 -0.3322 -0.2239 -1.2942
 2258SOL    HW3 8799   5.009   5.742   2.755  2.6970  3.9308 -0.2652
 2258SOL    MW4 8800   5.043   5.720   2.832 -0.0920 -0.0587 -0.0769
 2259SOL     OW 8801   3.139   2.559   6.347 -0.1075 -0.1347  0.0104
 2259SOL    HW2 8802   3.118   2.470   6.319  0.5209 -0.3882  0.3196
 2259SOL    HW3 8803   3.095   2.616   6.283  0.9153 -0.6912 -1.2272
 2259SOL    MW4 8804   3.130   2.555   6.334 -0.1319 -0.5451 -0.2489
 2260SOL     OW 8805   1.449   1.280   4.893  0.0744  0.0463  0.3061
 2260SOL    HW2 8806   1.453   1.206   4.833 -0.0047  0.1049  0.2275
 2260SOL    HW3 8807   1.501   1.253   4.968  1.5039  0.5837 -0.4538
 2260SOL    MW4 8808   1.457   1.267   4.895 -0.2702  0.0507  0.2040
 2261SOL     OW 8809   1.970   0.260   0.896 -0.1567 -0.8482  1.3688
 2261SOL    HW2 8810   1.921   0.333   0.859  1.7179 -0.2680 -0.1561
 2261SOL    HW3 8811   1.913   0.224   0.964 -1.7876  1.0134  1.0645
 2261SOL    MW4 8812   1.956   0.265   0.900 -0.2388 -0.0571  0.0291
 2262SOL     OW 8813   0.832   1.403   0.364  0.0010 -0.0439 -0.0658
 2262SOL    HW2 8814   0.914   1.434   0.325 -0.0470  1.4860  0.9639
 2262SOL    HW3 8815   0.841   1.423   0.457 -2.1228  1.5089 -0.1247
 2262SOL    MW4 8816   0.844   1.410   0.371  0.0150  0.2434  0.1688
 2263SOL     OW 8817   1.493   0.488   0.519 -0.2103  0.2887 -0.2957
 2263SOL    HW2 8818   1.431   0.558   0.542 -0.5758 -0.2255  0.3215
 2263SOL    HW3 8819   1.478   0.473   0.426 -0.8541  0.3395 -0.2088
 2263SOL    MW4 8820   1.482   0.495   0.510  0.1645 -0.4056  0.4771
 2264SOL     OW 8821   2.144   1.739   4.082  0.1849  0.5184 -0.0741
 2264SOL    HW2 8822   2.164   1.833   4.080  1.1399  0.3329  0.1137
 2264SOL    HW3 8823   2.063   1.732   4.131  1.6056  1.0184  2.5153
 2264SOL    MW4 8824   2.136   1.751   4.088  0.2394 -0.6852 -0.2458
 2265SOL     OW 8825   5.704   0.624   2.409 -0.0688  0.1243  0.3009
 2265SOL    HW2 8826   5.660   0.707   2.392 -1.1960 -0.5404 -0.0806
 2265SOL    HW3 8827   5.656   0.586   2.482  0.4286 -0.2150  0.4541
 2265SOL    MW4 8828   5.692   0.630   2.417  0.0634 -0.1274 -0.4094
 2266SOL     OW 8829   1.909   4.158   5.573 -0.9264 -0.4033  0.1196
 2266SOL    HW2 8830   1.974   4.087   5.577  0.7337  1.0670  0.8021
 2266SOL    HW3 8831   1.939   4.213   5.501 -0.1672  1.3739  1.7007
 2266SOL    MW4 8832   1.922   4.156   5.564  0.0749 -0.4128  0.0130
 2267SOL     OW 8833   3.859   0.534   0.734 -0.7208 -0.4364 -0.0476
 2267SOL    HW2 8834   3.944   0.491   0.739 -0.2734  0.5210  1.0964
 2267SOL    HW3 8835   3.878   0.627   0.749 -1.8898 -0.1076 -0.4546
 2267SOL    MW4 8836   3.873   0.541   0.736 -0.1540  0.2697  0.0983
 2268SOL     OW 8837   5.792   1.245   3.073 -0.6447 -0.0333  0.3644
 2268SOL    HW2 8838   5.707   1.204   3.091 -1.3940  0.7571 -1.2224
 2268SOL    HW3 8839   5.787   1.273   2.982  1.6623 -0.7388 -0.0615
 2268SOL    MW4 8840   5.780   1.243   3.064  0.2934 -0.0021 -0.1680
 2269SOL     OW 8841   0.607   1.336   5.189 -0.2124  0.6383 -0.1016
 2269SOL    HW2 8842   0.591   1.416   5.238 -0.6704  0.5285 -0.0647
 2269SOL    HW3 8843   0.548   1.342   5.113  1.1352  1.2322 -1.1473
 2269SOL    MW4 8844   0.597   1.347   5.185  0.3664 -0.1863 -0.2633
 2270SOL     OW 8845   3.821   0.512   2.700  0.3781  0.2234 -0.2830
 2270SOL    HW2 8846   3.888   0.485   2.636  1.2737  0.4799  0.5260
 2270SOL    HW3 8847   3.869   0.519   2.783 -1.0993 -1.8326  0.8185
 2270SOL    MW4 8848   3.836   0.510   2.702  0.5354 -0.2845  0.0334
 2271SOL     OW 8849   2.757   3.370   6.356  0.6755  0.9174  0.4789
 2271SOL    HW2 8850   2.774   3.445   6.299 -0.2344 -0.0499 -1.1512
 2271SOL    HW3 8851   2.677   3.331   6.321  1.3970 -1.1140  0.9714
 2271SOL    MW4 8852   2.748   3.375   6.344 -0.1590  0.8982  0.8564
 2272SOL     OW 8853   4.755   1.697   6.356  0.3611 -0.4982  0.1825
 2272SOL    HW2 8854   4.802   1.748   6.422 -2.0432  0.9259  0.9006
 2272SOL    HW3 8855   4.763   1.748   6.276  0.1901 -0.3470  0.2614
 2272SOL    MW4 8856   4.762   1.710   6.354 -0.0118 -0.2965  0.0338
 2273SOL     OW 8857   1.191   4.305   1.182 -0.3131  0.2265 -0.1975
 2273SOL    HW2 8858   1.102   4.278   1.204 -0.5121 -0.2020 -1.4561
 2273SOL    HW3 8859   1.191   4.399   1.197  0.1081 -0.1996  3.3118
 2273SOL    MW4 8860   1.179   4.314   1.187  0.3513  0.0400  0.0140
 2274SOL     OW 8861   6.324   2.151   1.499  0.0657 -0.0121 -0.0453
 2274SOL    HW2 8862   6.249   2.093   1.485 -0.5971  0.5199  1.1598
 2274SOL    HW3 8863   6.345   2.185   1.412 -0.9109 -0.3854 -0.4369
 2274SOL    MW4 8864   6.317   2.148   1.486 -0.6885 -0.1814  0.4148
 2275SOL     OW 8865   1.551   6.172   2.960 -0.0444 -0.5167 -0.5538
 2275SOL    HW2 8866   1.625   6.114   2.975 -0.6317 -1.0604  0.3457
 2275SOL    HW3 8867   1.555   6.194   2.867  2.7928  1.6279 -0.0611
 2275SOL    MW4 8868   1.561   6.168   2.950 -0.4284 -0.5633 -0.0787
 2276SOL     OW 8869   5.153   5.448   5.625  0.0108 -0.3689  0.0757
 2276SOL    HW2 8870   5.174   5.459   5.532 -0.7406  1.7753  0.1035
 2276SOL    HW3 8871   5.069   5.403   5.625 -0.5083  0.5646 -0.3490
 2276SOL    MW4 8872   5.145   5.444   5.612  0.3586  0.6209  0.1267
 2277SOL     OW 8873   4.101   4.195   4.063  0.0635 -0.2546  0.2278
 2277SOL    HW2 8874   4.156   4.225   4.135 -0.7373  0.4933  0.5470
 2277SOL    HW3 8875   4.068   4.275   4.022  1.1370 -0.6529 -1.5018
 2277SOL    MW4 8876   4.104   4.209   4.067 -0.0913 -0.0765  0.1188
 2278SOL     OW 8877   0.183   1.802   0.682 -0.1458 -0.1196  0.0849
 2278SOL    HW2 8878   0.268   1.766   0.656  1.6170  2.1612  2.1862
 2278SOL    HW3 8879   0.154   1.852   0.606 -0.1775 -1.7254 -1.0220
 2278SOL    MW4 8880   0.190   1.804   0.669 -0.6596  0.9967  0.4041
 2279SOL     OW 8881   2.206   2.006   3.910 -0.6273  0.4123  0.4577
 2279SOL    HW2 8882   2.208   1.931   3.850  1.4211 -0.4112  1.4895
 2279SOL    HW3 8883   2.231   2.081   3.855 -1.8369  0.2434 -0.3790
 2279SOL    MW4 8884   2.209   2.006   3.895 -0.0541 -0.2626  0.3037
 2280SOL     OW 8885   4.013   0.292   0.683  0.4182  0.0468 -0.2020
 2280SOL    HW2 8886   3.935   0.238   0.699  0.5792  0.0909  0.7716
 2280SOL    HW3 8887   4.076   0.232   0.645  0.0171 -0.0657 -0.6991
 2280SOL    MW4 8888   4.011   0.277   0.680 -0.0849  0.5813  0.0485
 2281SOL     OW 8889   0.541   5.703   4.168 -0.3442  0.3113  0.4333
 2281SOL    HW2 8890   0.584   5.641   4.109  1.3893 -0.2939  2.1738
 2281SOL    HW3 8891   0.596   5.781   4.165 -1.8444  1.3771 -0.8340
 2281SOL    MW4 8892   0.554   5.705   4.160  0.2312 -0.1042  0.0336
 2282SOL     OW 8893   1.499   2.663   6.252  0.3906 -0.2742 -0.1726
 2282SOL    HW2 8894   1.585   2.622   6.259  0.0817 -0.6349  2.2705
 2282SOL    HW3 8895   1.451   2.633   6.329 -1.7789  0.3079 -1.2064
 2282SOL    MW4 8896   1.504   2.654   6.263 -0.2816  0.0410  0.5759
 2283SOL     OW 8897   3.573   5.095   5.585 -0.0560 -0.1073 -0.2434
 2283SOL    HW2 8898   3.479   5.076   5.589 -0.5734  2.2138 -0.3498
 2283SOL    HW3 8899   3.599   5.104   5.677 -0.1355  0.1130 -0.2416
 2283SOL    MW4 8900   3.564   5.093   5.598  0.3828  0.0352 -0.5364
 2284SOL     OW 8901   6.291   5.362   4.629 -0.0875  0.2151  0.1621
 2284SOL    HW2 8902   6.312   5.454   4.645  0.1043 -0.1310  2.2561
 2284SOL    HW3 8903   6.298   5.352   4.534  3.9143  1.3994  0.1284
 2284SOL    MW4 8904   6.295   5.373   4.619 -0.1518 -0.5951  0.3986
 2285SOL     OW 8905   4.549   4.919   2.083  0.1174 -1.0282 -0.2415
 2285SOL    HW2 8906   4.638   4.896   2.108  0.2955  0.0744  0.2091
 2285SOL    HW3 8907   4.497   4.904   2.162  0.1578 -0.3469 -0.0793
 2285SOL    MW4 8908   4.554   4.914   2.097 -0.3529 -0.0962 -0.3763
 2286SOL     OW 8909   4.343   1.946   2.799 -0.0713 -0.8544 -0.4575
 2286SOL    HW2 8910   4.380   2.020   2.752  1.9374 -0.6917  1.2107
 2286SOL    HW3 8911   4.418   1.888   2.817 -1.1458 -2.0432  0.4564
 2286SOL    MW4 8912   4.358   1.948   2.795 -0.0011 -0.3674  0.1239
 2287SOL     OW 8913   4.157   2.934   2.365 -0.0889 -0.7107  0.6425
 2287SOL    HW2 8914   4.127   2.876   2.295  0.3298 -0.0028 -0.1487
 2287SOL    HW3 8915   4.251   2.918   2.370  0.1174  0.2422  0.0652
 2287SOL    MW4 8916   4.166   2.924   2.356  0.2851  0.4401  0.6363
 2288SOL     OW 8917   3.792   2.711   1.370  0.3306  0.3926  0.4069
 2288SOL    HW2 8918   3.877   2.676   1.346  0.7348  0.3275  1.8256
 2288SOL    HW3 8919   3.786   2.794   1.323  0.4796 -0.3462 -0.9418
 2288SOL    MW4 8920   3.802   2.718   1.361 -0.1328 -0.3769  0.1835
 2289SOL     OW 8921   0.022   1.151   0.559 -0.2114 -0.5955 -1.0147
 2289SOL    HW2 8922  -0.052   1.183   0.508 -0.1814  0.3707 -0.4714
 2289SOL    HW3 8923   0.027   1.057   0.538 -0.6357 -0.3674 -2.2201
 2289SOL    MW4 8924   0.013   1.142   0.550  0.3051  0.1515 -0.3314
 2290SOL     OW 8925   1.594   2.719   4.914  0.1582 -0.0600 -0.3570
 2290SOL    HW2 8926   1.525   2.747   4.974  0.2010 -0.5826 -0.0599
 2290SOL    HW3 8927   1.666   2.692   4.972 -0.6025 -2.7244 -0.5507
 2290SOL    MW4 8928   1.595   2.719   4.929 -0.2171  0.2202  0.3608
 2291SOL     OW 8929   3.166   0.022   5.775 -0.0458  0.0424 -0.3809
 2291SOL    HW2 8930   3.237  -0.015   5.723  0.6608  0.0311  0.5467
 2291SOL    HW3 8931   3.175  -0.019   5.861  0.7975  2.3192  0.7141
 2291SOL    MW4 8932   3.177   0.012   5.780  0.0044  0.2222 -0.5321
 2292SOL     OW 8933   3.399   5.335   1.938 -0.2374 -0.0072 -0.4929
 2292SOL    HW2 8934   3.390   5.409   1.997 -1.2317 -0.8267  0.4272
 2292SOL    HW3 8935   3.393   5.373   1.850 -2.7892  0.8147 -0.0446
 2292SOL    MW4 8936   3.397   5.349   1.934  0.8563  0.2418 -0.4265
 2293SOL     OW 8937   1.757   0.225   1.945  0.2017  0.1834 -0.2341
 2293SOL    HW2 8938   1.668   0.190   1.936  0.2123 -0.0391  0.5112
 2293SOL    HW3 8939   1.750   0.292   2.013  0.6843 -0.1062  0.1046
 2293SOL    MW4 8940   1.744   0.229   1.953  0.1025  0.6848 -0.2927
 2294SOL     OW 8941   0.319   0.230   3.564  0.0653  0.2080 -0.3511
 2294SOL    HW2 8942   0.394   0.204   3.511  1.8939 -1.0097  2.5945
 2294SOL    HW3 8943   0.285   0.147   3.599 -1.4121  0.9208  0.0016
 2294SOL    MW4 8944   0.324   0.215   3.562 -0.1985 -0.0437  0.0043
 2295SOL     OW 8945   3.764   0.198   0.150 -0.5613  0.0126  0.8064
 2295SOL    HW2 8946   3.780   0.143   0.227  1.8787 -1.6438 -0.7465
 2295SOL    HW3 8947   3.809   0.281   0.171 -0.0620 -0.3612  1.2638
 2295SOL    MW4 8948   3.772   0.202   0.163 -0.4080 -0.0887 -0.0708
 2296SOL     OW 8949   6.038   1.469   3.407 -0.0247  0.3948  0.1595
 2296SOL    HW2 8950   6.097   1.541   3.430 -2.2599  1.7044  2.3920
 2296SOL    HW3 8951   5.991   1.499   3.329 -0.2101  0.9255  0.4717
 2296SOL    MW4 8952   6.039   1.482   3.400  0.2609 -0.0973  0.0703
 2297SOL     OW 8953   2.547   5.440   5.576  0.1845 -0.3915 -0.7148
 2297SOL    HW2 8954   2.512   5.356   5.548 -2.3009  0.6509 -1.0037
 2297SOL    HW3 8955   2.555   5.491   5.496  0.6374  0.0115 -0.4224
 2297SOL    MW4 8956   2.543   5.436   5.562  0.3138  0.7828 -0.5546
 2298SOL     OW 8957   5.286   0.970   1.640 -0.1738 -0.4158  0.0005
 2298SOL    HW2 8958   5.216   0.970   1.575 -0.7341  3.2171  0.3954
 2298SOL    HW3 8959   5.241   0.984   1.723  0.4954 -5.2465  1.4701
 2298SOL    MW4 8960   5.271   0.972   1.642 -0.4792  0.4972 -0.3357
 2299SOL     OW 8961   2.845   0.592   1.549  0.3015  0.1074  0.1640
 2299SOL    HW2 8962   2.778   0.579   1.482  1.5197 -0.2852 -1.0450
 2299SOL    HW3 8963   2.869   0.684   1.542  1.5527 -0.2704 -1.1211
 2299SOL    MW4 8964   2.840   0.602   1.539 -0.2002 -0.0517 -0.5504
 2300SOL     OW 8965   2.275   2.922   6.210  0.1862  0.3918 -0.1842
 2300SOL    HW2 8966   2.368   2.901   6.218 -0.4112 -2.2178  1.1260
 2300SOL    HW3 8967   2.231   2.862   6.271 -2.4469  0.7465 -1.5502
 2300SOL    MW4 8968   2.281   2.911   6.219 -0.2792 -0.2874 -0.5949
 2301SOL     OW 8969   0.847   2.068   6.113 -0.0432 -0.1054 -0.2341
 2301SOL    HW2 8970   0.781   2.089   6.179 -0.1998 -0.1984 -0.3600
 2301SOL    HW3 8971   0.879   1.982   6.138 -0.2288 -0.2177 -0.3792
 2301SOL    MW4 8972   0.842   2.060   6.125  0.7178 -0.9871 -0.3963
 2302SOL     OW 8973   1.708   0.854   1.882  0.6117  0.3079  0.6279
 2302SOL    HW2 8974   1.769   0.803   1.936 -0.7824 -1.3665  0.6972
 2302SOL    HW3 8975   1.698   0.803   1.802 -0.8461  0.4332  0.7014
 2302SOL    MW4 8976   1.715   0.841   1.879  0.6007 -0.0530  0.6328
 2303SOL     OW 8977   2.437   1.923   1.510 -0.2086  0.4788  0.4165
 2303SOL    HW2 8978   2.485   1.984   1.567  1.7049 -0.0966 -0.5030
 2303SOL    HW3 8979   2.423   1.846   1.565  1.3501  0.0478  0.2774
 2303SOL    MW4 8980   2.442   1.921   1.525 -0.3851  0.1727 -0.4346
 2304SOL     OW 8981   4.482   0.802   0.538 -0.5743 -0.2945  0.5428
 2304SOL    HW2 8982   4.493   0.724   0.593  2.3499  0.2759  0.9149
 2304SOL    HW3 8983   4.562   0.853   0.552 -1.3538  1.6539 -1.4988
 2304SOL    MW4 8984   4.494   0.799   0.547 -0.3352  0.4261  0.3795
 2305SOL     OW 8985   0.769   2.484   2.314 -0.6319 -0.3946 -0.0042
 2305SOL    HW2 8986   0.761   2.489   2.219 -0.5848 -1.6974 -0.0901
 2305SOL    HW3 8987   0.822   2.406   2.329 -0.9406 -0.3985  1.1064
 2305SOL    MW4 8988   0.775   2.475   2.303 -0.2540  0.2001  0.3335
 2306SOL     OW 8989   0.400   3.114   6.076 -0.0795 -0.0366 -0.5057
 2306SOL    HW2 8990   0.488   3.106   6.040  0.8145  1.5176  1.1480
 2306SOL    HW3 8991   0.356   3.175   6.017  0.5369  0.5243 -0.3982
 2306SOL    MW4 8992   0.405   3.121   6.063  0.2655 -0.5317 -0.1667
 2307SOL     OW 8993   4.374   6.350   5.660  0.3773  0.5732 -0.0683
 2307SOL    HW2 8994   4.397   6.262   5.629 -1.1280  0.5975 -1.3728
 2307SOL    HW3 8995   4.410   6.354   5.749  1.1513 -1.0661 -0.2696
 2307SOL    MW4 8996   4.382   6.339   5.668  0.1790 -0.6538 -0.0071
 2308SOL     OW 8997   2.566   2.291   4.938  0.0651 -0.2128 -0.2588
 2308SOL    HW2 8998   2.494   2.335   4.982  0.6387 -0.5200  1.0302
 2308SOL    HW3 8999   2.613   2.361   4.892 -0.3962  0.1467 -0.1835
 2308SOL    MW4 9000   2.563   2.306   4.937  0.1753  0.6005 -0.0885
 2309SOL     OW 9001   0.872   5.900   5.936 -0.0118 -1.0167  0.1892
 2309SOL    HW2 9002   0.966   5.910   5.948 -0.1344  0.0838  0.2528
 2309SOL    HW3 9003   0.855   5.808   5.959  1.0846 -1.3259 -0.1448
 2309SOL    MW4 9004   0.882   5.889   5.940 -0.1356 -0.3048  0.0635
 2310SOL     OW 9005   1.183   0.310   1.404  0.8706 -0.0150 -0.2630
 2310SOL    HW2 9006   1.258   0.256   1.429 -0.0959 -0.3761  2.2053
 2310SOL    HW3 9007   1.211   0.400   1.422  1.1495 -0.0311 -0.6107
 2310SOL    MW4 9008   1.197   0.315   1.410  0.0314  0.0066  0.4361
 2311SOL     OW 9009   5.679   1.850   5.068 -0.7223  0.7923  0.1618
 2311SOL    HW2 9010   5.612   1.899   5.116  0.1469  0.4694  1.8100
 2311SOL    HW3 9011   5.653   1.758   5.078  0.0975  0.6363  1.1236
 2311SOL    MW4 9012   5.667   1.844   5.076 -0.3880  0.3935 -0.4384
 2312SOL     OW 9013   1.371   2.798   4.130 -0.6844  0.1853 -0.1136
 2312SOL    HW2 9014   1.289   2.785   4.178 -1.3274  0.5849 -1.0705
 2312SOL    HW3 9015   1.422   2.719   4.148 -0.7604  0.4541  1.4680
 2312SOL    MW4 9016   1.367   2.786   4.139  0.2646  0.3890  0.5198
 2313SOL     OW 9017   0.895   1.474   0.653  0.2283  0.0631 -0.2280
 2313SOL    HW2 9018   0.852   1.559   0.661  0.0390  0.1187 -1.5232
 2313SOL    HW3 9019   0.839   1.414   0.701 -0.2098  0.4945 -0.1924
 2313SOL    MW4 9020   0.882   1.478   0.660 -0.4179 -0.4786 -0.1095
 2314SOL     OW 9021   0.268   1.709   5.568  0.0794  0.6596  0.2482
 2314SOL    HW2 9022   0.211   1.734   5.641 -1.8356  0.0759 -0.9570
 2314SOL    HW3 9023   0.211   1.713   5.491  1.1353 -1.8369 -0.7789
 2314SOL    MW4 9024   0.253   1.713   5.567  0.7097  0.1198 -0.0785
 2315SOL     OW 9025   4.840   2.767   0.161 -0.2473 -0.4915 -0.3249
 2315SOL    HW2 9026   4.888   2.849   0.167 -1.7268  0.4209 -0.3904
 2315SOL    HW3 9027   4.805   2.766   0.072 -0.3222 -1.1459 -0.2937
 2315SOL    MW4 9028   4.842   2.778   0.150  0.4836  0.4563  0.5669
 2316SOL     OW 9029   3.726   2.924   1.949  0.4136  0.0026 -0.3253
 2316SOL    HW2 9030   3.639   2.961   1.960  0.7034  0.1679  2.0621
 2316SOL    HW3 9031   3.785   3.000   1.954  0.8341 -0.3790  1.6610
 2316SOL    MW4 9032   3.722   2.939   1.951  0.3030  0.4287  0.2392
 2317SOL     OW 9033   6.341   1.947   4.005  0.1577  0.0091 -0.2119
 2317SOL    HW2 9034   6.284   1.929   3.930  1.5826 -0.7637 -1.1567
 2317SOL    HW3 9035   6.429   1.957   3.967  0.9348 -0.5105  1.3626
 2317SOL    MW4 9036   6.345   1.946   3.990  0.7518  0.2526  0.1991
 2318SOL     OW 9037   4.199   6.213   1.882 -0.0874  0.3566  0.1200
 2318SOL    HW2 9038   4.279   6.247   1.923  0.1869 -0.7568  0.5514
 2318SOL    HW3 9039   4.206   6.118   1.892 -0.0352  0.0320 -2.4547
 2318SOL    MW4 9040   4.211   6.205   1.889 -0.5811  0.1566  0.0571
 2319SOL     OW 9041   3.274   5.407   1.291  0.4134  0.4660 -0.7890
 2319SOL    HW2 9042   3.338   5.461   1.335 -0.0455  0.1653  0.2701
 2319SOL    HW3 9043   3.199   5.405   1.350  0.2978 -1.0499 -0.9441
 2319SOL    MW4 9044   3.272   5.414   1.304  0.0544  0.6420 -0.0363
 2320SOL     OW 9045   5.585   0.972   4.071 -0.1412 -0.0494 -0.3255
 2320SOL    HW2 9046   5.590   0.986   4.165  0.2513 -1.2224 -0.1606
 2320SOL    HW3 9047   5.570   1.059   4.034  0.9050  0.5915  0.7208
 2320SOL    MW4 9048   5.583   0.985   4.078  0.1932  0.0555  0.7653
 2321SOL     OW 9049   5.172   3.814   4.883  0.4224 -0.4255  0.2362
 2321SOL    HW2 9050   5.209   3.747   4.941 -1.7292 -2.1889 -0.3193
 2321SOL    HW3 9051   5.078   3.812   4.900  0.1871  1.8731 -0.4523
 2321SOL    MW4 9052   5.165   3.805   4.893  0.1627 -0.2583 -0.0724
 2322SOL     OW 9053   4.651   4.476   2.061 -0.0274  0.4212  0.3899
 2322SOL    HW2 9054   4.640   4.399   2.006 -0.0482  1.0102 -0.4450
 2322SOL    HW3 9055   4.595   4.543   2.021  0.8610  1.2161  0.4465
 2322SOL    MW4 9056   4.642   4.475   2.049  0.7032  0.3822 -0.5264
 2323SOL     OW 9057   3.120   4.542   6.332 -0.2598  0.0968 -1.1018
 2323SOL    HW2 9058   3.165   4.461   6.354  1.1774  1.1075 -0.1410
 2323SOL    HW3 9059   3.109   4.587   6.416  0.8119  1.7865 -1.8171
 2323SOL    MW4 9060   3.124   4.537   6.346  0.5358  0.1783  0.1958
 2324SOL     OW 9061   0.613   1.230   3.550 -0.4074 -0.1056  0.1546
 2324SOL    HW2 9062   0.517   1.228   3.541 -0.3072 -0.6651 -0.9149
 2324SOL    HW3 9063   0.634   1.323   3.557 -0.9258  0.1313 -1.0985
 2324SOL    MW4 9064   0.603   1.242   3.549 -0.2470  0.0736 -0.0173
 2325SOL     OW 9065   0.185   2.882   6.329 -0.2919 -0.1447  0.0043
 2325SOL    HW2 9066   0.220   2.830   6.257 -0.5297  1.5514 -1.4151
 2325SOL    HW3 9067   0.260   2.933   6.359 -0.5319  0.2585 -0.0735
 2325SOL    MW4 9068   0.200   2.882   6.323  0.4844  0.1348  0.5685
 2326SOL     OW 9069   0.482   3.139   2.836 -0.1058  0.0335  0.8120
 2326SOL    HW2 9070   0.522   3.213   2.880  0.5276 -0.4660  1.0996
 2326SOL    HW3 9071   0.389   3.144   2.859  0.2841 -0.5139  2.6826
 2326SOL    MW4 9072   0.475   3.149   2.845 -0.4817  0.5188  0.2009
 2327SOL     OW 9073   4.455   6.161   2.724 -0.1799 -0.4808 -0.5322
 2327SOL    HW2 9074   4.459   6.141   2.817 -0.5070  0.3002 -0.3470
 2327SOL    HW3 9075   4.503   6.089   2.682 -0.2428 -0.9660  0.2113
 2327SOL    MW4 9076   4.462   6.149   2.730  0.1230 -0.3032  0.2901
 2328SOL     OW 9077   5.645   3.634   1.078  0.0923  0.3682  0.4358
 2328SOL    HW2 9078   5.602   3.638   1.163 -2.3003 -2.3874 -0.4507
 2328SOL    HW3 9079   5.641   3.723   1.044  2.6685  1.9832  3.7292
 2328SOL    MW4 9080   5.639   3.646   1.085 -0.0956 -0.6926 -0.6060
 2329SOL     OW 9081   0.506   5.168   6.178  0.1945 -0.4109  0.1204
 2329SOL    HW2 9082   0.578   5.214   6.222  1.6219 -0.8155 -1.6897
 2329SOL    HW3 9083   0.521   5.183   6.085  1.2837 -5.0391 -0.7314
 2329SOL    MW4 9084   0.518   5.176   6.172 -0.3930 -0.3547  0.0796
 2330SOL     OW 9085   1.513   2.478   4.472  0.0933 -0.0001 -0.0922
 2330SOL    HW2 9086   1.536   2.523   4.553  1.1366 -2.0137  0.7938
 2330SOL    HW3 9087   1.417   2.477   4.470  0.0540  1.4021  0.3130
 2330SOL    MW4 9088   1.503   2.484   4.482 -0.6014 -0.2409 -0.8107
 2331SOL     OW 9089   0.325   2.185   4.643  0.5905  0.2243 -0.2270
 2331SOL    HW2 9090   0.374   2.105   4.664 -0.2354 -0.5625 -1.2126
 2331SOL    HW3 9091   0.393   2.253   4.635  1.3011 -0.3444  0.6548
 2331SOL    MW4 9092   0.341   2.183   4.645 -0.1412  0.1457 -0.5307
 2332SOL     OW 9093   4.539   5.876   1.994 -0.7001  0.1352 -0.2296
 2332SOL    HW2 9094   4.522   5.789   1.959  0.5775 -0.5972  0.8780
 2332SOL    HW3 9095   4.546   5.933   1.917 -0.2459 -0.9821 -1.0254
 2332SOL    MW4 9096   4.537   5.872   1.980  0.8395  0.6666  0.2817
 2333SOL     OW 9097   5.647   2.738   2.112 -0.3420 -0.0239  0.2949
 2333SOL    HW2 9098   5.716   2.680   2.080 -0.4386  0.5327 -0.9626
 2333SOL    HW3 9099   5.566   2.687   2.105 -0.4564  0.3110 -1.0046
 2333SOL    MW4 9100   5.645   2.724   2.107 -0.0108 -0.2830 -0.2477
 2334SOL     OW 9101   6.061   3.614   1.973  0.1125 -0.0247  0.1990
 2334SOL    HW2 9102   6.015   3.550   1.919  0.9044 -3.0884  2.8824
 2334SOL    HW3 9103   5.993   3.648   2.031  0.2583 -0.8469  0.8687
 2334SOL    MW4 9104   6.046   3.610   1.974 -0.2729 -0.2317  0.0859
 2335SOL     OW 9105   4.156   4.797   5.935  0.0446  0.2428 -0.0605
 2335SOL    HW2 9106   4.229   4.854   5.911 -1.0761  2.7133  1.9417
 2335SOL    HW3 9107   4.185   4.753   6.014 -0.4842  1.0891  0.6331
 2335SOL    MW4 9108   4.169   4.799   5.942 -0.4071 -0.2079 -0.0443
 2336SOL     OW 9109   4.255   0.238   3.499 -0.2302 -0.0119  0.6607
 2336SOL    HW2 9110   4.251   0.329   3.469 -2.6821 -0.2213  0.1542
 2336SOL    HW3 9111   4.291   0.190   3.425 -1.1749  0.2360  0.0258
 2336SOL    MW4 9112   4.259   0.244   3.485 -0.2411 -0.4695  0.1271
 2337SOL     OW 9113   2.863   5.024   4.874  0.3065  0.2432  0.2319
 2337SOL    HW2 9114   2.880   5.101   4.819  0.6196  0.2822  0.3764
 2337SOL    HW3 9115   2.791   4.978   4.831  0.5869  0.2427 -0.2388
 2337SOL    MW4 9116   2.856   5.028   4.861 -0.1417 -0.0600 -0.3159
 2338SOL     OW 9117   5.102   5.188   2.482  0.3547  0.0969 -0.3004
 2338SOL    HW2 9118   5.070   5.107   2.521  0.8426 -0.8365 -1.7509
 2338SOL    HW3 9119   5.079   5.256   2.545 -0.6304 -1.0811  0.6586
 2338SOL    MW4 9120   5.095   5.187   2.495  0.8226 -0.4632 -0.3784
 2339SOL     OW 9121   0.190   2.988   4.948 -0.5808 -0.0377  1.0247
 2339SOL    HW2 9122   0.160   2.898   4.957 -0.6735 -0.0702  0.4677
 2339SOL    HW3 9123   0.284   2.980   4.929 -0.6642 -0.0421  0.5903
 2339SOL    MW4 9124   0.198   2.975   4.946  0.0927  0.0775  0.3457
 2340SOL     OW 9125   1.451   2.330   3.140 -0.2012  0.1788 -0.5607
 2340SOL    HW2 9126   1.446   2.425   3.132  0.8153  0.2461 -0.4795
 2340SOL    HW3 9127   1.360   2.302   3.148 -0.4613  1.2206  0.3321
 2340SOL    MW4 9128   1.438   2.339   3.140  0.1524 -0.5609 -0.1397
 2341SOL     OW 9129   5.605   4.859   3.910  0.3440 -0.0253  0.0924
 2341SOL    HW2 9130   5.569   4.934   3.861 -0.0124  0.2319  0.7428
 2341SOL    HW3 9131   5.653   4.809   3.844 -1.5513 -0.6159 -0.9173
 2341SOL    MW4 9132   5.606   4.862   3.895 -0.3110  0.7838 -0.0486
 2342SOL     OW 9133   0.153   3.051   4.441  1.0968  0.1548 -0.5972
 2342SOL    HW2 9134   0.133   2.970   4.393  3.8981 -0.0615 -1.5824
 2342SOL    HW3 9135   0.132   3.031   4.532  0.7880 -1.3422 -0.9686
 2342SOL    MW4 9136   0.147   3.038   4.446 -0.6872 -0.4846  0.0155
 2343SOL     OW 9137   4.579   5.107   4.836 -0.3657 -0.2323  0.4441
 2343SOL    HW2 9138   4.630   5.046   4.785  0.5003  0.8570 -0.0317
 2343SOL    HW3 9139   4.502   5.057   4.865  1.5202 -2.2875  2.2324
 2343SOL    MW4 9140   4.575   5.093   4.833  0.0126 -0.0578  0.5710
 2344SOL     OW 9141   2.252   5.400   2.569 -0.6463  0.6157  0.7255
 2344SOL    HW2 9142   2.301   5.439   2.497 -1.6537  2.2030  0.8512
 2344SOL    HW3 9143   2.165   5.382   2.531 -0.7998  0.3087  1.2138
 2344SOL    MW4 9144   2.247   5.403   2.554  0.0657 -0.1582 -0.2221
 2345SOL     OW 9145   3.272   2.351   1.166  0.0717  0.9871 -0.5133
 2345SOL    HW2 9146   3.252   2.337   1.258 -2.8655  1.1023 -1.0467
 2345SOL    HW3 9147   3.290   2.264   1.131  1.1058  0.9347  0.1010
 2345SOL    MW4 9148   3.272   2.338   1.174 -0.4185 -0.5764  0.4170
 2346SOL     OW 9149   6.400   3.842   6.197 -0.8235 -0.3655  0.3828
 2346SOL    HW2 9150   6.482   3.882   6.171 -0.6293 -0.4593  0.8391
 2346SOL    HW3 9151   6.351   3.912   6.240 -0.4897 -0.6057  1.1681
 2346SOL    MW4 9152   6.404   3.856   6.199  0.4904  0.3654 -0.8288
 2347SOL     OW 9153   5.682   3.045   1.683  0.0878 -0.4311 -0.3613
 2347SOL    HW2 9154   5.647   2.958   1.702  1.1578 -0.9389 -0.6795
 2347SOL    HW3 9155   5.773   3.041   1.710  0.1343  0.6201 -0.3276
 2347SOL    MW4 9156   5.689   3.033   1.689  0.0441  0.2349  0.2225
 2348SOL     OW 9157   5.135   0.164   6.143 -0.2393  0.4035 -0.2401
 2348SOL    HW2 9158   5.181   0.169   6.059 -1.6425  2.2420 -0.9782
 2348SOL    HW3 9159   5.052   0.121   6.122  1.1082 -3.2024  1.1416
 2348SOL    MW4 9160   5.130   0.159   6.129 -0.4333  0.2656 -0.4265
 2349SOL     OW 9161   6.234   5.158   4.421 -0.5170 -0.0860 -0.1544
 2349SOL    HW2 9162   6.316   5.152   4.372 -2.0692 -2.3238 -2.8567
 2349SOL    HW3 9163   6.245   5.097   4.494  0.4007 -0.0397 -0.2497
 2349SOL    MW4 9164   6.246   5.149   4.424  0.7241  0.1911  0.1104
 2350SOL     OW 9165   2.611   5.235   5.162 -0.3238 -0.1802  0.1775
 2350SOL    HW2 9166   2.649   5.160   5.206 -1.7565 -2.0725 -1.6308
 2350SOL    HW3 9167   2.604   5.208   5.071  0.0913  2.5841 -0.7656
 2350SOL    MW4 9168   2.615   5.222   5.156  0.4543  0.2617 -0.0594
 2351SOL     OW 9169   1.766   1.855   4.711  0.5176 -0.5887 -0.1193
 2351SOL    HW2 9170   1.857   1.879   4.725  0.5390 -1.9339  2.9416
 2351SOL    HW3 9171   1.769   1.778   4.653  0.9893  1.3158 -2.7938
 2351SOL    MW4 9172   1.778   1.848   4.705 -0.1371  0.5311 -0.8583
 2352SOL     OW 9173   3.740   1.270   2.967  0.0859 -0.2122  0.0195
 2352SOL    HW2 9174   3.690   1.264   3.048  1.8158  0.3864  1.1800
 2352SOL    HW3 9175   3.716   1.355   2.930  1.3462  0.7680  1.3679
 2352SOL    MW4 9176   3.730   1.280   2.973  0.0895  0.5133 -0.0087
 2353SOL     OW 9177   2.898   5.745   0.820  0.1999  0.1821 -0.3766
 2353SOL    HW2 9178   2.960   5.814   0.843 -0.2203  0.0508  1.3294
 2353SOL    HW3 9179   2.877   5.760   0.728  0.8828  1.7097 -0.3050
 2353SOL    MW4 9180   2.903   5.756   0.811  0.6596  0.6565  0.0589
 2354SOL     OW 9181   1.258   0.347   3.845 -0.1065 -0.0163 -0.0157
 2354SOL    HW2 9182   1.184   0.361   3.904  0.0083  1.5493 -0.2221
 2354SOL    HW3 9183   1.292   0.434   3.827  0.4216 -0.5353 -1.6928
 2354SOL    MW4 9184   1.252   0.360   3.851  0.3744  0.1718  0.0886
 2355SOL     OW 9185   2.742   5.485   3.462 -0.1608  0.0156  0.3271
 2355SOL    HW2 9186   2.838   5.485   3.460 -0.0908  2.6344  0.4136
 2355SOL    HW3 9187   2.720   5.468   3.554  0.1536 -1.3361  0.1791
 2355SOL    MW4 9188   2.752   5.483   3.474  0.5441  0.7555  0.6620
 2356SOL     OW 9189   2.197   1.694   1.097 -0.1916 -0.2218 -0.5076
 2356SOL    HW2 9190   2.195   1.789   1.081 -1.1614 -0.1761 -0.2093
 2356SOL    HW3 9191   2.143   1.657   1.027 -0.8410 -0.4278  0.0848
 2356SOL    MW4 9192   2.189   1.702   1.085  0.5987 -0.0960  0.4099
 2357SOL     OW 9193   1.445   5.178   0.855 -0.3792  0.1071  0.1888
 2357SOL    HW2 9194   1.493   5.156   0.935 -0.8511 -0.6934  0.2572
 2357SOL    HW3 9195   1.513   5.189   0.788 -0.0799 -0.7224  0.3521
 2357SOL    MW4 9196   1.460   5.177   0.857 -0.1622 -0.0474 -0.1453
 2358SOL     OW 9197   2.846   3.294   2.394 -0.2182 -0.1461  1.0739
 2358SOL    HW2 9198   2.770   3.250   2.357  0.3905 -0.1043 -0.2625
 2358SOL    HW3 9199   2.829   3.387   2.380 -0.3767 -0.0754  1.6953
 2358SOL    MW4 9200   2.834   3.301   2.387 -0.0779  0.5008  0.4864
 2359SOL     OW 9201   5.636   5.969   1.470 -0.2622 -0.2554  1.1389
 2359SOL    HW2 9202   5.728   5.962   1.493 -0.0800  1.3800  1.0435
 2359SOL    HW3 9203   5.635   5.980   1.375 -0.4682  0.7013  1.2394
 2359SOL    MW4 9204   5.648   5.969   1.461 -0.3676  0.7676 -0.2251
 2360SOL     OW 9205   2.424   2.865   5.405 -0.1122  0.1192 -0.4914
 2360SOL    HW2 9206   2.377   2.946   5.423 -0.0741  0.0847 -0.2410
 2360SOL    HW3 9207   2.516   2.892   5.402  0.0534 -0.1632  1.1051
 2360SOL    MW4 9208   2.430   2.880   5.407 -0.4793  0.3672 -0.1867
 2361SOL     OW 9209   1.179   6.321   4.121  0.1612  0.0898 -0.4167
 2361SOL    HW2 9210   1.148   6.389   4.181 -0.3472  1.3334 -2.0268
 2361SOL    HW3 9211   1.178   6.362   4.035 -0.7693 -2.1366 -1.5659
 2361SOL    MW4 9212   1.175   6.335   4.117  0.5125  0.0367 -0.3636
 2362SOL     OW 9213   3.673   2.950   5.016  0.2374  0.4759 -0.0671
 2362SOL    HW2 9214   3.635   2.881   5.070  0.6251  0.9829  0.8800
 2362SOL    HW3 9215   3.764   2.956   5.045  0.1771  1.4600 -0.0536
 2362SOL    MW4 9216   3.680   2.942   5.027 -0.1379  0.0475 -0.1578
 2363SOL     OW 9217   3.249   3.874   4.819  0.7096  0.6589 -0.5973
 2363SOL    HW2 9218   3.255   3.964   4.852 -0.7167  0.7138 -0.4266
 2363SOL    HW3 9219   3.269   3.881   4.726  0.2408  1.2200 -0.6615
 2363SOL    MW4 9220   3.253   3.887   4.811 -0.0132 -0.0606 -0.7428
 2364SOL     OW 9221   0.661   5.540   3.970 -0.2250  0.2442 -0.1319
 2364SOL    HW2 9222   0.749   5.555   3.935 -0.2570 -2.9542 -2.0373
 2364SOL    HW3 9223   0.675   5.488   4.049 -0.3519  0.4580  0.0287
 2364SOL    MW4 9224   0.675   5.535   3.976  0.2206 -0.0312  0.4416
 2365SOL     OW 9225   2.445   4.915   4.950  0.0829  0.1510 -0.4014
 2365SOL    HW2 9226   2.432   4.958   5.034  1.8345 -0.5197  0.2554
 2365SOL    HW3 9227   2.507   4.970   4.902  1.0436 -0.7280 -0.2187
 2365SOL    MW4 9228   2.451   4.928   4.954  0.1333 -0.1439 -0.7865
 2366SOL     OW 9229   2.810   2.488   5.969 -0.0605 -0.3188  0.1256
 2366SOL    HW2 9230   2.781   2.416   5.913  1.9443 -1.0772 -0.0326
 2366SOL    HW3 9231   2.815   2.563   5.910 -1.8129 -0.0895  0.2145
 2366SOL    MW4 9232   2.807   2.489   5.954 -0.1461 -0.2203 -0.3964
 2367SOL     OW 9233   4.179   0.951   1.763  0.1469  0.0825 -0.2103
 2367SOL    HW2 9234   4.112   0.988   1.821  0.4409  1.8278 -0.9402
 2367SOL    HW3 9235   4.254   0.935   1.820  0.4274  1.7682 -0.0663
 2367SOL    MW4 9236   4.180   0.954   1.778  0.1471  0.4401  0.5866
 2368SOL     OW 9237   5.483   3.095   2.677  0.0266 -0.4660 -0.4379
 2368SOL    HW2 9238   5.473   3.001   2.663  0.6285 -0.5488 -0.3745
 2368SOL    HW3 9239   5.547   3.102   2.748 -0.4587 -0.0110 -0.0398
 2368SOL    MW4 9240   5.490   3.084   2.684 -0.0296  0.2403  0.1947
 2369SOL     OW 9241   5.701   0.187   3.300  0.4605  0.2833 -0.4070
 2369SOL    HW2 9242   5.768   0.120   3.308 -0.8798 -1.3297 -1.8421
 2369SOL    HW3 9243   5.724   0.252   3.366  2.1521 -1.2797  0.6404
 2369SOL    MW4 9244   5.713   0.187   3.310 -0.0771 -0.2590 -0.0616
 2370SOL     OW 9245   5.137   4.951   4.006  0.3078 -0.3753  0.2099
 2370SOL    HW2 9246   5.058   4.927   4.055  0.4210 -0.6266  0.2743
 2370SOL    HW3 9247   5.208   4.905   4.052  0.6182  0.5392  0.6922
 2370SOL    MW4 9248   5.136   4.942   4.019  0.3090 -0.0530 -0.2268
 2371SOL     OW 9249   1.296   2.097   3.835 -0.5352  0.0720 -0.4298
 2371SOL    HW2 9250   1.271   2.032   3.900 -0.4917 -0.0154 -0.5013
 2371SOL    HW3 9251   1.371   2.142   3.874 -0.5641  0.0792 -0.3817
 2371SOL    MW4 9252   1.303   2.095   3.849  0.6765 -0.5273 -0.3218
 2372SOL     OW 9253   5.710   3.771   5.069  0.2053  0.8655  0.7360
 2372SOL    HW2 9254   5.802   3.751   5.051  0.0649  0.1080  0.8250
 2372SOL    HW3 9255   5.709   3.865   5.088  0.5576  1.4527 -1.8199
 2372SOL    MW4 9256   5.722   3.781   5.069  0.0117  0.4762 -0.2281
 2373SOL     OW 9257   3.580   3.376  -0.005 -0.0590 -0.9972 -0.4601
 2373SOL    HW2 9258   3.667   3.375  -0.044 -0.4191 -1.2183 -1.2777
 2373SOL    HW3 9259   3.578   3.301   0.054  1.6947  1.2574  2.7742
 2373SOL    MW4 9260   3.591   3.366  -0.003  0.2081 -0.0654 -0.7328
 2374SOL     OW 9261   5.339   4.844   2.644  0.6022 -0.5053  0.2835
 2374SOL    HW2 9262   5.322   4.761   2.599 -2.5385 -1.6733  3.1350
 2374SOL    HW3 9263   5.393   4.819   2.719 -0.7840 -0.2007  1.4450
 2374SOL    MW4 9264   5.344   4.830   2.648  0.1436  0.0035 -0.4503
 2375SOL     OW 9265   4.461   1.382   2.009  0.0075 -0.5910 -0.7075
 2375SOL    HW2 9266   4.416   1.466   2.015 -0.3530 -0.8629  0.6297
 2375SOL    HW3 9267   4.409   1.322   2.063  0.8364 -1.4173 -0.7959
 2375SOL    MW4 9268   4.449   1.385   2.017 -0.4596 -0.1691 -0.3602
 2376SOL     OW 9269   6.079   6.168   4.943 -0.0497  0.1502  0.3418
 2376SOL    HW2 9270   6.128   6.111   4.883 -3.1040 -3.0905  0.5483
 2376SOL    HW3 9271   6.145   6.225   4.982  3.0948 -2.1713 -1.1306
 2376SOL    MW4 9272   6.094   6.168   4.940 -0.0865 -0.2602 -0.1465
 2377SOL     OW 9273   5.134   1.283   0.268  0.0385 -0.0084 -0.2217
 2377SOL    HW2 9274   5.110   1.342   0.197 -0.3152  1.0946  0.7648
 2377SOL    HW3 9275   5.131   1.196   0.230 -1.7783  0.4141 -1.1332
 2377SOL    MW4 9276   5.131   1.280   0.254  0.5480 -0.4089 -0.2056
 2378SOL     OW 9277   5.987   4.702   1.034  0.4420 -0.2636  0.5247
 2378SOL    HW2 9278   5.988   4.613   1.002 -2.0634  0.1740 -0.9925
 2378SOL    HW3 9279   5.940   4.697   1.118 -0.1459 -0.3200  0.1968
 2378SOL    MW4 9280   5.981   4.690   1.041 -0.1790 -0.4812  0.2183
 2379SOL     OW 9281   1.290   2.505   5.603 -0.1196  0.5191  0.0278
 2379SOL    HW2 9282   1.340   2.491   5.522 -0.7760 -0.1779 -0.2708
 2379SOL    HW3 9283   1.198   2.501   5.575 -0.3763  2.5065  0.4403
 2379SOL    MW4 9284   1.284   2.503   5.589 -0.5298 -0.5014  0.5434
 2380SOL     OW 9285   4.219   4.645   3.259  0.5781 -0.3836  0.8148
 2380SOL    HW2 9286   4.234   4.699   3.336 -1.8900  2.4878 -0.4664
 2380SOL    HW3 9287   4.139   4.682   3.220  1.4594 -1.9298 -2.8586
 2380SOL    MW4 9288   4.210   4.657   3.264  0.2113  0.4218 -0.0264
 2381SOL     OW 9289   1.771   3.429   6.394 -0.4294  0.5650  0.1837
 2381SOL    HW2 9290   1.865   3.449   6.391 -0.8470  2.5882 -0.9568
 2381SOL    HW3 9291   1.734   3.496   6.451 -1.1553 -0.4901  0.9900
 2381SOL    MW4 9292   1.779   3.440   6.401 -0.4770 -0.0987  0.5614
 2382SOL     OW 9293   5.961   5.931   1.882  0.3180  0.5972 -0.3385
 2382SOL    HW2 9294   6.021   5.895   1.947  1.1642  1.8050 -0.4301
 2382SOL    HW3 9295   5.918   5.854   1.844  0.2310 -0.1539  1.2260
 2382SOL    MW4 9296   5.963   5.916   1.885 -0.0740  0.3314  0.0239
 2383SOL     OW 9297   3.299   0.319   2.060  0.0133 -0.0767 -0.0041
 2383SOL    HW2 9298   3.347   0.346   2.138  0.8078  0.4200 -0.6546
 2383SOL    HW3 9299   3.208   0.314   2.088  0.3088 -0.0387  0.9867
 2383SOL    MW4 9300   3.293   0.322   2.074 -0.1132  0.3839 -0.0997
 2384SOL     OW 9301   1.954   5.153   6.027  0.1921  0.0658  0.0920
 2384SOL    HW2 9302   1.998   5.166   6.112 -0.2670  1.9760  0.1008
 2384SOL    HW3 9303   2.002   5.081   5.986  0.6507 -0.6771  1.8224
 2384SOL    MW4 9304   1.966   5.146   6.033 -0.5058  0.8685  0.1059
 2385SOL     OW 9305   4.399   2.305   0.606  0.0188  0.1318  0.0798
 2385SOL    HW2 9306   4.322   2.295   0.550 -1.4151  0.0574  1.9715
 2385SOL    HW3 9307   4.470   2.268   0.555 -1.2654 -0.2007 -1.5681
 2385SOL    MW4 9308   4.398   2.299   0.592  0.1860 -0.2401 -0.3490
 2386SOL     OW 9309   0.401   1.636   0.633  0.0954 -0.0143 -0.0126
 2386SOL    HW2 9310   0.405   1.606   0.724 -0.4213  0.4891  0.1872
 2386SOL    HW3 9311   0.457   1.575   0.585  2.0379  0.9136  0.9569
 2386SOL    MW4 9312   0.409   1.624   0.639  0.4193 -0.5326 -0.3123
 2387SOL     OW 9313   1.712   3.678   5.272 -0.4107 -0.5624 -0.5400
 2387SOL    HW2 9314   1.671   3.595   5.248  2.6667 -1.9492 -1.4476
 2387SOL    HW3 9315   1.757   3.706   5.193  0.1502  1.0193  0.3126
 2387SOL    MW4 9316   1.712   3.671   5.259  0.1266 -0.9549  0.3339
 2388SOL     OW 9317   3.177   0.331   1.229 -0.0971  0.0334  0.1755
 2388SOL    HW2 9318   3.181   0.318   1.134  0.4079  3.2115 -0.3486
 2388SOL    HW3 9319   3.184   0.243   1.266 -2.7748 -1.5987 -2.7262
 2388SOL    MW4 9320   3.178   0.317   1.221 -0.5058 -0.2259 -0.1757
 2389SOL     OW 9321   2.835   1.925   4.635 -0.1441  0.7391  0.3690
 2389SOL    HW2 9322   2.798   2.007   4.604  0.2463  0.6945 -0.2315
 2389SOL    HW3 9323   2.925   1.924   4.601 -0.5730 -0.5760 -0.8544
 2389SOL    MW4 9324   2.842   1.935   4.626  0.2684  0.5704  0.3242
 2390SOL     OW 9325   4.504   3.253   2.217  0.4739 -0.0645  0.1334
 2390SOL    HW2 9326   4.493   3.248   2.312 -1.2098  1.2710  0.0563
 2390SOL    HW3 9327   4.495   3.163   2.187 -1.5041 -0.2280  1.0504
 2390SOL    MW4 9328   4.502   3.240   2.225 -0.2010 -0.2071  0.5560
 2391SOL     OW 9329   2.811   0.083   2.052 -0.7805  0.0840 -0.6574
 2391SOL    HW2 9330   2.780   0.021   2.119  0.4233  0.1201 -0.0212
 2391SOL    HW3 9331   2.889   0.040   2.016 -0.6553  0.6728 -1.0921
 2391SOL    MW4 9332   2.818   0.069   2.056  0.2145 -0.1973  0.6592
 2392SOL     OW 9333   2.828   3.470   1.033  0.3887 -0.2293  0.2413
 2392SOL    HW2 9334   2.750   3.478   1.088  0.2913 -1.1303  0.2515
 2392SOL    HW3 9335   2.804   3.514   0.951  0.3172  0.5829  0.6927
 2392SOL    MW4 9336   2.815   3.477   1.029  0.6694 -0.6109 -0.8203
 2393SOL     OW 9337   2.065   1.500   5.280  0.1829 -0.5038  0.3313
 2393SOL    HW2 9338   2.014   1.564   5.330  0.6955  0.2926 -0.1424
 2393SOL    HW3 9339   2.113   1.552   5.217  2.5823 -1.0694  1.5763
 2393SOL    MW4 9340   2.065   1.515   5.279  0.0095  0.2413 -0.4803
 2394SOL     OW 9341   0.518   0.067   1.719  0.2188 -0.2688 -0.9714
 2394SOL    HW2 9342   0.429   0.042   1.694 -1.7442  3.4508  1.4397
 2394SOL    HW3 9343   0.551   0.114   1.643 -0.2382 -0.8170 -1.5286
 2394SOL    MW4 9344   0.510   0.070   1.705 -0.3870 -0.0105 -0.2993
 2395SOL     OW 9345   2.264   3.546   1.484  0.0787  0.0659  0.0798
 2395SOL    HW2 9346   2.260   3.451   1.472 -0.0778  0.3415 -2.7278
 2395SOL    HW3 9347   2.185   3.568   1.533  0.9946 -1.3690  2.3719
 2395SOL    MW4 9348   2.253   3.536   1.489 -0.1546 -0.3124 -0.4892
 2396SOL     OW 9349   4.404   0.555   3.754  0.3928  0.1314 -0.3986
 2396SOL    HW2 9350   4.422   0.606   3.833 -1.4639 -0.9394  0.8008
 2396SOL    HW3 9351   4.474   0.490   3.751  0.4604  0.1505  0.4094
 2396SOL    MW4 9352   4.416   0.553   3.764  0.1585  0.2392  0.6777
 2397SOL     OW 9353   6.288   2.525   1.378 -0.2268  0.4959  0.2837
 2397SOL    HW2 9354   6.327   2.584   1.443 -0.0272  0.2817  0.3608
 2397SOL    HW3 9355   6.194   2.526   1.398 -0.3285  1.3559 -0.1793
 2397SOL    MW4 9356   6.281   2.533   1.389 -0.3585  0.0908  0.4950
 2398SOL     OW 9357   0.356   1.577   4.925  0.8093 -0.6592 -0.5750
 2398SOL    HW2 9358   0.413   1.653   4.936  0.9293 -0.9386  0.9408
 2398SOL    HW3 9359   0.322   1.586   4.836 -0.2249  1.9201 -0.0252
 2398SOL    MW4 9360   0.359   1.588   4.915 -0.1782 -0.0538 -0.2615
 2399SOL     OW 9361   4.972   1.488   4.577  0.1954  0.6957  0.7435
 2399SOL    HW2 9362   5.065   1.484   4.598 -0.2698 -0.6486  2.7401
 2399SOL    HW3 9363   4.932   1.530   4.653 -0.8629  1.1980 -0.0722
 2399SOL    MW4 9364   4.979   1.493   4.589  0.4976  0.2484  0.0296
 2400SOL     OW 9365   5.934   1.174   0.683 -0.0457 -0.0782  0.1731
 2400SOL    HW2 9366   5.956   1.128   0.602  0.6848 -0.3535  0.5211
 2400SOL    HW3 9367   5.947   1.267   0.663  0.8146 -0.1938  0.1804
 2400SOL    MW4 9368   5.938   1.180   0.669 -0.3220  1.5729 -0.6075
 2401SOL     OW 9369   2.089   3.517   3.657  0.0765 -0.1372  0.0694
 2401SOL    HW2 9370   2.006   3.554   3.688  0.8649  2.1576 -0.3549
 2401SOL    HW3 9371   2.082   3.519   3.561  0.6321  0.1220  0.0295
 2401SOL    MW4 9372   2.077   3.522   3.648  0.3559  0.2481  0.4563
 2402SOL     OW 9373   5.650   2.549   3.191  0.2243  0.4773 -0.2441
 2402SOL    HW2 9374   5.674   2.641   3.198  0.5814  0.3658  0.0107
 2402SOL    HW3 9375   5.729   2.506   3.157 -0.0831  0.3337 -0.7904
 2402SOL    MW4 9376   5.664   2.555   3.187  0.0845  0.1307 -0.8929
 2403SOL     OW 9377   2.174   2.968   2.128 -0.2551  0.3832 -0.3196
 2403SOL    HW2 9378   2.190   3.061   2.145 -0.6905  0.5682 -0.9107
 2403SOL    HW3 9379   2.088   2.951   2.168 -0.1328  0.2148 -0.1302
 2403SOL    MW4 9380   2.164   2.978   2.136 -0.4911 -0.1394 -0.4388
 2404SOL     OW 9381   6.141   3.839   0.633  0.1624 -0.1167 -0.5356
 2404SOL    HW2 9382   6.174   3.755   0.601  1.4471 -0.1284  0.7476
 2404SOL    HW3 9383   6.156   3.837   0.727 -1.5869  0.7858 -0.1912
 2404SOL    MW4 9384   6.147   3.828   0.641  0.4925 -0.3411 -0.0458
 2405SOL     OW 9385   4.798   6.261   1.811  0.6152  0.3905  0.0549
 2405SOL    HW2 9386   4.762   6.221   1.733  0.9829  0.3413 -0.0921
 2405SOL    HW3 9387   4.882   6.298   1.783  0.5868  0.6801  0.3420
 2405SOL    MW4 9388   4.804   6.261   1.797 -0.1047  0.0840  0.0529
 2406SOL     OW 9389   5.625   1.193   6.098 -0.2513 -0.0166 -0.7961
 2406SOL    HW2 9390   5.593   1.117   6.146 -0.4562  0.2182 -0.5614
 2406SOL    HW3 9391   5.550   1.252   6.093  0.5587  1.2411  1.1544
 2406SOL    MW4 9392   5.611   1.191   6.103  0.5404  0.5085 -0.3061
 2407SOL     OW 9393   3.348   0.375   2.353 -0.3165  0.0330 -0.1515
 2407SOL    HW2 9394   3.290   0.442   2.390  0.7885  1.1304 -0.3424
 2407SOL    HW3 9395   3.333   0.298   2.407 -2.1976  0.1733 -0.4157
 2407SOL    MW4 9396   3.338   0.374   2.365  0.7776  0.2094  0.2069
 2408SOL     OW 9397   6.053   1.374   3.667  0.2240 -0.3611 -0.1301
 2408SOL    HW2 9398   6.078   1.281   3.665  1.9427  0.0477 -2.4121
 2408SOL    HW3 9399   6.038   1.397   3.575 -1.0370  1.4385  0.4661
 2408SOL    MW4 9400   6.054   1.365   3.655 -0.1118 -0.0013 -0.4532
 2409SOL     OW 9401   4.117   0.153   2.576 -0.0758 -0.3553  0.4743
 2409SOL    HW2 9402   4.124   0.152   2.671  1.2522  1.6446  0.4653
 2409SOL    HW3 9403   4.057   0.225   2.557 -1.8204 -1.9085 -0.2104
 2409SOL    MW4 9404   4.110   0.162   2.586  0.0356 -0.0444  0.3708
 2410SOL     OW 9405   0.633   3.739   5.365  0.0703 -0.0143 -0.1939
 2410SOL    HW2 9406   0.641   3.701   5.453  0.7755  1.4940  0.4158
 2410SOL    HW3 9407   0.660   3.667   5.307 -0.5935 -1.1008  0.7862
 2410SOL    MW4 9408   0.638   3.724   5.369 -0.1386 -0.3655 -0.3047
 2411SOL     OW 9409   1.572   2.258   0.066  0.3424  0.2609 -0.3012
 2411SOL    HW2 9410   1.580   2.165   0.045  0.8760 -0.1295  1.4077
 2411SOL    HW3 9411   1.660   2.283   0.096  0.5054  1.6274 -1.8053
 2411SOL    MW4 9412   1.585   2.249   0.067  0.3110 -0.2128  0.0230
 2412SOL     OW 9413   1.073   3.892   5.654  0.1235  0.3159  0.2904
 2412SOL    HW2 9414   1.111   3.917   5.569  0.6414  0.0936  0.4519
 2412SOL    HW3 9415   1.034   3.973   5.687 -0.1278  0.3946 -0.1791
 2412SOL    MW4 9416   1.073   3.906   5.647  1.0188  0.0308  0.2030
 2413SOL     OW 9417   4.892   5.288   4.971  0.0079  0.4326 -0.6178
 2413SOL    HW2 9418   4.897   5.290   5.066 -1.5444 -0.2913 -0.4987
 2413SOL    HW3 9419   4.805   5.322   4.950 -0.8101 -2.0251 -1.5963
 2413SOL    MW4 9420   4.881   5.293   4.981 -0.1771  0.3107  0.1384
 2414SOL     OW 9421   1.907   0.630   6.269  0.3214 -0.0698  0.2758
 2414SOL    HW2 9422   1.956   0.580   6.334 -0.2701  0.2618  0.9926
 2414SOL    HW3 9423   1.827   0.579   6.255 -1.0228  1.3411  2.1528
 2414SOL    MW4 9424   1.903   0.617   6.276 -0.7837  0.3672  0.1505
 2415SOL     OW 9425   1.062   6.028   5.553  0.0797 -0.6699  0.3500
 2415SOL    HW2 9426   1.003   6.012   5.480  2.9209  0.4320 -2.4237
 2415SOL    HW3 9427   1.071   5.942   5.596 -2.4247 -1.1233  0.1182
 2415SOL    MW4 9428   1.056   6.014   5.549 -0.1059 -0.3537 -0.0665
 2416SOL     OW 9429   4.303   3.314   2.904  0.1037 -0.0478 -0.2531
 2416SOL    HW2 9430   4.279   3.281   2.991  0.2160 -1.2683 -0.6601
 2416SOL    HW3 9431   4.382   3.366   2.919  0.5533 -0.8568  0.2841
 2416SOL    MW4 9432   4.310   3.316   2.918  0.0844 -0.0607  0.0391
 2417SOL     OW 9433   4.622   4.089   2.452  0.5719  0.4786  0.0393
 2417SOL    HW2 9434   4.653   4.104   2.541  0.8001  0.4457 -0.0358
 2417SOL    HW3 9435   4.622   4.175   2.411 -1.8487  0.9414  0.8051
 2417SOL    MW4 9436   4.626   4.102   2.458  0.2109 -0.0958 -0.6020
 2418SOL     OW 9437   5.627   4.685   2.005  0.3693  0.0743  0.0803
 2418SOL    HW2 9438   5.569   4.760   2.020  1.6837  1.0828  0.3537
 2418SOL    HW3 9439   5.588   4.614   2.056 -2.0190 -0.0606 -1.7771
 2418SOL    MW4 9440   5.614   4.686   2.014 -0.1127  0.1945  0.2500
 2419SOL     OW 9441   5.394   6.379   2.863  0.1241  0.1573  0.2048
 2419SOL    HW2 9442   5.466   6.392   2.925 -0.9748 -1.0015  1.7970
 2419SOL    HW3 9443   5.430   6.319   2.798  1.3500  1.5136 -0.4313
 2419SOL    MW4 9444   5.408   6.373   2.863 -0.0369 -0.1984  0.1310
 2420SOL     OW 9445   4.859   3.704   3.965 -0.0235  0.1603 -0.0436
 2420SOL    HW2 9446   4.929   3.670   3.909  0.1639 -3.1702  1.9363
 2420SOL    HW3 9447   4.902   3.770   4.019  0.8897  0.1417 -0.7137
 2420SOL    MW4 9448   4.874   3.708   3.965  0.2909 -0.3410  0.0637
 2421SOL     OW 9449   5.864   1.353   4.931  0.3093 -0.2326  0.3250
 2421SOL    HW2 9450   5.881   1.441   4.964 -2.4543 -0.1122  1.7439
 2421SOL    HW3 9451   5.846   1.301   5.010 -0.0723 -1.5836 -0.6117
 2421SOL    MW4 9452   5.864   1.358   4.946  0.7321 -0.0600 -0.5374
 2422SOL     OW 9453   2.240   3.569   5.926  0.5107 -0.0777 -0.0999
 2422SOL    HW2 9454   2.204   3.532   6.007  0.4632  1.5250  0.6608
 2422SOL    HW3 9455   2.309   3.628   5.956 -0.2222  1.3581 -1.1506
 2422SOL    MW4 9456   2.245   3.572   5.941 -0.5228  0.0842 -0.3538
 2423SOL     OW 9457   3.740   0.828   6.192  0.1326  0.2966 -0.1160
 2423SOL    HW2 9458   3.735   0.803   6.100 -0.8308 -1.5335  0.4012
 2423SOL    HW3 9459   3.815   0.779   6.227  1.4095  2.0699 -0.1874
 2423SOL    MW4 9460   3.749   0.818   6.184 -0.0411  0.3492 -0.1938
 2424SOL     OW 9461   2.062   4.904   1.548  0.2623 -0.6307  0.0198
 2424SOL    HW2 9462   2.146   4.940   1.575 -0.0734  0.1786  0.0289
 2424SOL    HW3 9463   2.066   4.902   1.452 -0.0147  0.2265 -0.0241
 2424SOL    MW4 9464   2.073   4.908   1.539  0.0211 -0.0879 -0.1436
 2425SOL     OW 9465   6.346   3.280   4.630  0.9933 -0.1684  0.3466
 2425SOL    HW2 9466   6.280   3.306   4.695  1.0658  0.8767  0.0240
 2425SOL    HW3 9467   6.355   3.357   4.574 -1.0884 -1.8906 -2.6011
 2425SOL    MW4 9468   6.338   3.293   4.631  0.2236 -0.3521 -0.0869
 2426SOL     OW 9469   3.932   5.787   0.534 -0.1723 -0.2751 -0.1690
 2426SOL    HW2 9470   3.849   5.819   0.568 -0.0353 -0.3137  0.2076
 2426SOL    HW3 9471   3.967   5.731   0.604  0.4495  0.2141 -0.0762
 2426SOL    MW4 9472   3.926   5.784   0.548 -0.1490  0.2528  0.2068
 2427SOL     OW 9473   3.835   0.176   0.423  0.1238  0.7104 -0.1360
 2427SOL    HW2 9474   3.746   0.163   0.456  0.5052  1.0917  1.0750
 2427SOL    HW3 9475   3.887   0.110   0.468  0.4728  0.5122 -0.8143
 2427SOL    MW4 9476   3.830   0.165   0.433  0.1497  0.1685  0.1786
 2428SOL     OW 9477   3.334   0.255   5.867  0.4812 -0.3158  0.1133
 2428SOL    HW2 9478   3.280   0.277   5.791  1.1250  0.0119 -0.2526
 2428SOL    HW3 9479   3.271   0.249   5.940 -0.2980 -1.6988 -0.6316
 2428SOL    MW4 9480   3.319   0.257   5.867  0.0137  0.0632 -0.5367
 2429SOL     OW 9481   4.319   0.265   2.415  0.4168  0.2289 -0.2079
 2429SOL    HW2 9482   4.281   0.312   2.341 -0.0052 -0.5732 -0.5200
 2429SOL    HW3 9483   4.244   0.245   2.472  0.8373  1.5073  0.8362
 2429SOL    MW4 9484   4.304   0.268   2.413  0.1999  0.3157  0.1413
 2430SOL     OW 9485   2.020   6.209   3.382 -0.5918  0.8028  0.3174
 2430SOL    HW2 9486   2.092   6.212   3.318  0.2794  4.4380  1.1912
 2430SOL    HW3 9487   1.959   6.277   3.351 -0.7782  1.7455  2.6073
 2430SOL    MW4 9488   2.021   6.219   3.369 -0.3345 -0.2165 -0.1353
 2431SOL     OW 9489   0.222   2.104   3.378  0.0026  0.8424 -0.2726
 2431SOL    HW2 9490   0.157   2.173   3.364 -0.6085  0.0785 -1.4507
 2431SOL    HW3 9491   0.205   2.041   3.307  1.0314 -0.1383  0.3172
 2431SOL    MW4 9492   0.211   2.105   3.367 -0.0183 -0.5100  0.7103
 2432SOL     OW 9493   0.772   6.207   4.305 -0.2962 -0.0564 -0.3767
 2432SOL    HW2 9494   0.709   6.279   4.305 -1.6629 -1.1793 -2.0873
 2432SOL    HW3 9495   0.756   6.162   4.389  0.9246  1.8196  0.9497
 2432SOL    MW4 9496   0.761   6.211   4.316 -0.3475  0.0205 -0.7651
 2433SOL     OW 9497   0.276   2.950   1.645  0.9209  0.0007  0.8444
 2433SOL    HW2 9498   0.357   3.000   1.637  0.8497 -0.0888 -1.1318
 2433SOL    HW3 9499   0.207   3.014   1.630  0.7919 -0.4284 -0.6183
 2433SOL    MW4 9500   0.278   2.965   1.642  0.4635 -0.1382 -0.2024
 2434SOL     OW 9501   2.560   2.434   1.903 -0.1039 -0.0065 -0.6629
 2434SOL    HW2 9502   2.611   2.442   1.823  0.4635  0.2730 -0.2787
 2434SOL    HW3 9503   2.574   2.344   1.932 -0.3898 -0.1371 -0.9307
 2434SOL    MW4 9504   2.569   2.423   1.896  0.2293 -0.6203  0.4601
 2435SOL     OW 9505   0.908   3.260   1.177  0.2734  1.0953  0.1446
 2435SOL    HW2 9506   0.837   3.324   1.181 -0.7684 -0.0869  2.6134
 2435SOL    HW3 9507   0.882   3.190   1.237  2.1387 -0.8801 -1.1725
 2435SOL    MW4 9508   0.895   3.259   1.186  0.2466  0.5766  0.0530
 2436SOL     OW 9509   5.195   2.072   1.596  0.1407  0.4008  0.2695
 2436SOL    HW2 9510   5.277   2.089   1.642 -1.0965  0.7342  2.4756
 2436SOL    HW3 9511   5.221   2.019   1.520  2.2291 -0.7181  1.6638
 2436SOL    MW4 9512   5.209   2.067   1.592 -0.3877 -0.5312  0.1003
 2437SOL     OW 9513   6.265   4.538   3.655 -0.0660 -0.2116 -0.4135
 2437SOL    HW2 9514   6.189   4.483   3.670 -0.8798  0.6540 -1.1972
 2437SOL    HW3 9515   6.284   4.528   3.561  1.6904 -1.5244  0.0421
 2437SOL    MW4 9516   6.257   4.529   3.644  0.1960  0.4774  0.3686
 2438SOL     OW 9517   1.656   1.616   1.090 -0.6482  0.3043  0.1902
 2438SOL    HW2 9518   1.581   1.651   1.137 -1.5298 -3.1976  1.6767
 2438SOL    HW3 9519   1.618   1.580   1.009 -0.3580 -0.3063  0.3253
 2438SOL    MW4 9520   1.641   1.616   1.085  0.3297  1.0363 -0.4641
 2439SOL     OW 9521   4.475   5.126   5.645  0.1350  0.3035  0.4125
 2439SOL    HW2 9522   4.544   5.087   5.592  0.1948  0.1610  0.5950
 2439SOL    HW3 9523   4.521   5.188   5.702 -0.1290  1.8362 -0.9725
 2439SOL    MW4 9524   4.490   5.129   5.645 -0.1876 -0.5786  0.0878
 2440SOL     OW 9525   3.585   6.405   3.358 -0.1129  0.1779 -0.5122
 2440SOL    HW2 9526   3.495   6.397   3.389 -0.1475  0.8933 -0.3912
 2440SOL    HW3 9527   3.576   6.437   3.268  0.0227  1.6393 -0.0313
 2440SOL    MW4 9528   3.572   6.408   3.350  0.4787 -0.3197 -0.4871
 2441SOL     OW 9529   5.211   4.212   3.156  0.1792  0.2350 -0.0504
 2441SOL    HW2 9530   5.251   4.164   3.228 -1.4093 -0.0764  0.6847
 2441SOL    HW3 9531   5.199   4.147   3.087  0.2565  0.1428  0.0237
 2441SOL    MW4 9532   5.214   4.197   3.156  0.0669 -0.6317 -0.3657
 2442SOL     OW 9533   5.338   5.079   2.824  0.5637  0.1468  0.6794
 2442SOL    HW2 9534   5.256   5.043   2.857  1.0059  0.4327  2.1669
 2442SOL    HW3 9535   5.364   5.019   2.754 -1.1367  0.3270 -0.1682
 2442SOL    MW4 9536   5.331   5.066   2.819  0.3921 -0.0974  0.8159
 2443SOL     OW 9537   0.911   5.796   3.489  0.0310 -0.1905  0.0339
 2443SOL    HW2 9538   0.976   5.785   3.420 -0.7292  1.1293 -0.9424
 2443SOL    HW3 9539   0.829   5.766   3.450 -0.9459  2.9808 -0.6971
 2443SOL    MW4 9540   0.909   5.791   3.475 -0.3125  0.3011  0.2791
 2444SOL     OW 9541   5.048   0.464   3.679 -0.2488 -0.0587  0.0609
 2444SOL    HW2 9542   5.055   0.438   3.587 -0.4621 -1.4061  0.4077
 2444SOL    HW3 9543   4.961   0.434   3.706 -0.5883  1.2223  0.4462
 2444SOL    MW4 9544   5.038   0.457   3.670 -0.1334  0.1402 -0.2401
 2445SOL     OW 9545   3.614   0.647   4.408  0.3887 -0.2177  0.2522
 2445SOL    HW2 9546   3.600   0.694   4.490  0.2306  1.0965 -0.5098
 2445SOL    HW3 9547   3.526   0.627   4.377  0.3802  0.9970 -0.5497
 2445SOL    MW4 9548   3.600   0.650   4.415  0.5421 -0.4039  0.5060
 2446SOL     OW 9549   5.286   1.480   1.087 -0.0464  0.4407 -0.7500
 2446SOL    HW2 9550   5.256   1.395   1.055  1.0639 -0.4965  0.5544
 2446SOL    HW3 9551   5.338   1.516   1.015 -0.1157 -0.2315 -1.1386
 2446SOL    MW4 9552   5.289   1.473   1.073 -0.1094  0.7508  0.3553
 2447SOL     OW 9553   4.113   2.591   4.641 -0.8724  0.1883  0.4362
 2447SOL    HW2 9554   4.133   2.558   4.729 -3.4096  0.0140  1.0518
 2447SOL    HW3 9555   4.124   2.685   4.647  0.4550  0.0487  0.4645
 2447SOL    MW4 9556   4.117   2.599   4.653 -0.9639 -0.3214  0.3089
 2448SOL     OW 9557   0.643   4.544   3.319  0.4550 -0.5321  0.1965
 2448SOL    HW2 9558   0.584   4.553   3.394  0.6916 -1.7590  0.5415
 2448SOL    HW3 9559   0.591   4.575   3.245  0.1486  0.5077  0.8229
 2448SOL    MW4 9560   0.628   4.550   3.319  0.3229 -0.2053  0.3704
 2449SOL     OW 9561   3.539   5.139   0.828  0.0472 -0.0613 -0.0510
 2449SOL    HW2 9562   3.456   5.117   0.785  0.3766 -1.3617 -0.0479
 2449SOL    HW3 9563   3.514   5.201   0.897 -0.6366  1.1471 -1.3248
 2449SOL    MW4 9564   3.525   5.144   0.832 -0.1570  0.0858 -0.1011
 2450SOL     OW 9565   0.023   3.096   4.124  0.2677 -0.2060  0.2036
 2450SOL    HW2 9566   0.111   3.130   4.112 -0.3978  1.7375  0.4688
 2450SOL    HW3 9567  -0.012   3.147   4.197 -1.4600 -0.1361 -0.6317
 2450SOL    MW4 9568   0.030   3.107   4.132  0.2092  0.1426  0.5051
 2451SOL     OW 9569   0.609   3.301   0.528  0.1608  0.1282  0.3735
 2451SOL    HW2 9570   0.652   3.224   0.566  0.2095 -0.3985 -0.7219
 2451SOL    HW3 9571   0.620   3.370   0.594  1.6504 -0.3233  0.6287
 2451SOL    MW4 9572   0.616   3.300   0.542 -0.3213  0.1542  1.3356
 2452SOL     OW 9573   3.824   3.898   3.966  0.3974  0.4922 -0.1522
 2452SOL    HW2 9574   3.781   3.876   3.883  1.0329 -2.2863  0.1611
 2452SOL    HW3 9575   3.915   3.917   3.942  0.5557 -0.2073 -0.1237
 2452SOL    MW4 9576   3.830   3.897   3.952  0.3699 -0.2149  0.0969
 2453SOL     OW 9577   0.370   2.936   2.142 -0.6789 -0.0985  0.2269
 2453SOL    HW2 9578   0.441   2.949   2.079 -1.6410 -0.3455 -0.9526
 2453SOL    HW3 9579   0.291   2.938   2.089 -1.5798  0.3431  1.5349
 2453SOL    MW4 9580   0.369   2.938   2.127  0.6820  0.2957 -0.5783
 2454SOL     OW 9581   0.110   2.927   2.979  0.1103  0.1522  0.2686
 2454SOL    HW2 9582   0.071   2.978   3.050 -0.4166  0.2281 -0.0688
 2454SOL    HW3 9583   0.167   2.864   3.023 -0.9673 -0.4618  0.8127
 2454SOL    MW4 9584   0.113   2.926   2.994 -0.3109  0.2965 -0.2488
 2455SOL     OW 9585   5.906   5.045   4.036 -0.0695  0.2986  0.3540
 2455SOL    HW2 9586   5.933   4.978   3.974 -0.6918  1.0070 -0.7175
 2455SOL    HW3 9587   5.852   5.105   3.985 -0.3281  1.0899  1.5075
 2455SOL    MW4 9588   5.903   5.044   4.021 -0.4772 -0.3709 -0.0456
 2456SOL     OW 9589   4.073   0.112   2.850 -0.1839  0.2218 -0.1237
 2456SOL    HW2 9590   4.086   0.118   2.945 -0.0920  0.9548 -0.1827
 2456SOL    HW3 9591   3.995   0.056   2.841 -0.0483 -0.0573  0.3706
 2456SOL    MW4 9592   4.064   0.105   2.861  0.5520  0.0255  0.4741
 2457SOL     OW 9593   1.796   4.298   2.161 -0.3907  0.4609  0.6509
 2457SOL    HW2 9594   1.834   4.377   2.123  1.1446 -0.3824  0.3608
 2457SOL    HW3 9595   1.776   4.242   2.086 -0.5507  0.1632  0.9119
 2457SOL    MW4 9596   1.798   4.301   2.146 -0.1277 -0.5134 -0.2574
 2458SOL     OW 9597   0.016   0.704   4.558 -0.7782  0.4377  0.0778
 2458SOL    HW2 9598   0.010   0.625   4.612 -1.8719  0.4855  0.0451
 2458SOL    HW3 9599  -0.073   0.740   4.558 -0.5796  0.9677 -0.9690
 2458SOL    MW4 9600   0.004   0.698   4.565 -0.0528 -0.2257 -0.0573
 2459SOL     OW 9601   3.188   5.298   1.013  0.0312  0.0055  0.3446
 2459SOL    HW2 9602   3.133   5.356   0.960 -0.8277 -0.6111  0.5319
 2459SOL    HW3 9603   3.212   5.226   0.955 -1.3724 -0.9619  0.8872
 2459SOL    MW4 9604   3.184   5.296   0.999 -0.5586  0.0986  0.0553
 2460SOL     OW 9605   3.757   2.037   3.839 -0.5296 -0.0169  0.0024
 2460SOL    HW2 9606   3.677   2.029   3.889 -1.3210  1.6950 -0.9070
 2460SOL    HW3 9607   3.808   2.104   3.884  1.3087 -2.3259  1.6306
 2460SOL    MW4 9608   3.753   2.044   3.851  0.5772  0.0914  0.2017
 2461SOL     OW 9609   3.806   4.876   2.296  0.9561  0.6901  0.2947
 2461SOL    HW2 9610   3.853   4.921   2.227 -1.2174  6.1661  1.8066
 2461SOL    HW3 9611   3.722   4.851   2.257  0.8118  1.2875  0.2038
 2461SOL    MW4 9612   3.801   4.879   2.282  0.0719 -0.5756  0.2165
 2462SOL     OW 9613   4.467   5.032   0.566 -0.1042  0.2441  0.1203
 2462SOL    HW2 9614   4.530   4.970   0.530 -1.1127 -0.3092 -0.7519
 2462SOL    HW3 9615   4.387   4.980   0.579 -1.1279  1.4435 -1.0819
 2462SOL    MW4 9616   4.465   5.017   0.563  0.1939 -0.0762  0.1207
 2463SOL     OW 9617   0.710   3.676   2.771  0.2816 -0.6577 -0.2126
 2463SOL    HW2 9618   0.629   3.718   2.799  0.4101 -1.3024  1.2248
 2463SOL    HW3 9619   0.770   3.686   2.845  1.5631 -0.1148 -1.2808
 2463SOL    MW4 9620   0.707   3.683   2.785 -0.2836 -0.7180 -0.6360
 2464SOL     OW 9621   1.539   2.702   0.819  0.1699  0.2366  0.0972
 2464SOL    HW2 9622   1.532   2.754   0.899 -0.6262  2.4483 -1.3168
 2464SOL    HW3 9623   1.573   2.763   0.753 -2.4844 -0.4434 -2.1012
 2464SOL    MW4 9624   1.542   2.717   0.821 -0.4894 -0.4640 -0.5715
 2465SOL     OW 9625   2.815   3.162   1.902  0.3153  0.2925  0.1097
 2465SOL    HW2 9626   2.729   3.187   1.937 -0.5596 -0.7937 -1.1659
 2465SOL    HW3 9627   2.832   3.228   1.835 -0.0902 -0.1501 -0.4416
 2465SOL    MW4 9628   2.806   3.174   1.898 -0.9063  0.1665  0.5803
 2466SOL     OW 9629   3.831   3.397   4.101 -0.2929  0.0091  0.1925
 2466SOL    HW2 9630   3.841   3.482   4.143  2.3837 -0.8571  1.5664
 2466SOL    HW3 9631   3.888   3.402   4.023  2.5691 -1.4146  2.0070
 2466SOL    MW4 9632   3.840   3.409   4.096  0.4301 -0.7583  0.0556
 2467SOL     OW 9633   2.430   1.680   5.360 -0.7063  0.1398  0.1427
 2467SOL    HW2 9634   2.428   1.776   5.361 -0.8502  0.1425 -0.1157
 2467SOL    HW3 9635   2.500   1.658   5.299  1.4188  0.0616  2.4867
 2467SOL    MW4 9636   2.439   1.690   5.352  0.2559 -0.1935 -0.6880
 2468SOL     OW 9637   2.868   1.012   2.941 -0.0166 -0.2479  0.1286
 2468SOL    HW2 9638   2.831   0.962   2.868  1.1289  0.5232 -1.0301
 2468SOL    HW3 9639   2.854   0.956   3.018 -0.7229 -1.3526 -0.7700
 2468SOL    MW4 9640   2.862   0.998   2.942  0.1779  0.3149 -0.2184
 2469SOL     OW 9641   3.856   3.512   3.825  0.0338  0.8068  0.2404
 2469SOL    HW2 9642   3.810   3.593   3.804 -1.1404 -0.3310 -1.9409
 2469SOL    HW3 9643   3.920   3.502   3.754 -0.6927 -0.7724 -0.2267
 2469SOL    MW4 9644   3.858   3.522   3.813  0.1037 -0.1484  0.1288
 2470SOL     OW 9645   3.521   4.579   2.806 -0.5830 -0.4584 -0.5608
 2470SOL    HW2 9646   3.559   4.637   2.739  1.7480  0.6562  1.5396
 2470SOL    HW3 9647   3.473   4.638   2.864 -0.2341 -0.9533  0.2539
 2470SOL    MW4 9648   3.520   4.595   2.805 -0.1298  0.2141  0.4179
 2471SOL     OW 9649   2.067   2.850   3.830 -0.4535 -0.3131 -0.0462
 2471SOL    HW2 9650   2.010   2.798   3.773  0.0043 -1.3828  0.4424
 2471SOL    HW3 9651   2.155   2.833   3.799 -0.3391  0.9283 -0.4624
 2471SOL    MW4 9652   2.071   2.841   3.819 -0.0669 -0.1444  0.0113
 2472SOL     OW 9653   1.713   4.685   3.203 -0.2394  0.1697 -0.1690
 2472SOL    HW2 9654   1.717   4.651   3.114 -1.7263 -0.7831  0.0783
 2472SOL    HW3 9655   1.766   4.625   3.254 -0.5033 -0.0986 -0.2053
 2472SOL    MW4 9656   1.720   4.673   3.198  0.2818  0.3432  0.0973
 2473SOL     OW 9657   6.295   0.562   3.229  0.2955  0.1281 -0.2930
 2473SOL    HW2 9658   6.255   0.570   3.315  0.7982 -2.2556  0.2404
 2473SOL    HW3 9659   6.242   0.495   3.184  0.7762  0.4557 -1.3840
 2473SOL    MW4 9660   6.282   0.554   3.234 -0.1784  0.0319  0.2700
 2474SOL     OW 9661   6.086   5.189   2.337 -0.0536 -0.0076  0.0278
 2474SOL    HW2 9662   6.070   5.146   2.253  1.5947 -0.6260 -0.0035
 2474SOL    HW3 9663   6.082   5.282   2.318 -1.0311 -0.1340 -0.4447
 2474SOL    MW4 9664   6.084   5.196   2.324  0.1838  0.5828 -0.2688
 2475SOL     OW 9665   4.402   4.711   1.089 -0.1673  0.3507  0.4609
 2475SOL    HW2 9666   4.366   4.642   1.144 -2.0388  1.2247  0.3957
 2475SOL    HW3 9667   4.327   4.745   1.040  0.7720  2.1553  0.1853
 2475SOL    MW4 9668   4.387   4.707   1.090  0.6841 -0.4099 -0.1119
 2476SOL     OW 9669   1.648   0.316   2.423  0.1822  0.3532 -0.0316
 2476SOL    HW2 9670   1.563   0.360   2.421 -1.9416 -3.2732  1.3158
 2476SOL    HW3 9671   1.704   0.372   2.477 -1.9448  1.9219  0.6542
 2476SOL    MW4 9672   1.644   0.329   2.430  0.1066 -0.7125 -0.1849
 2477SOL     OW 9673   0.083   5.711   1.497  0.2204  0.5738  0.3007
 2477SOL    HW2 9674   0.108   5.642   1.558  1.7278  0.7009 -0.1312
 2477SOL    HW3 9675   0.085   5.668   1.411 -1.2780  0.5537  0.2402
 2477SOL    MW4 9676   0.086   5.696   1.493  0.0296  0.3506 -0.6771
 2478SOL     OW 9677   3.178   0.409   0.957 -0.2332  0.4207 -0.6204
 2478SOL    HW2 9678   3.240   0.390   0.887 -0.9839  0.4375 -1.3014
 2478SOL    HW3 9679   3.144   0.496   0.936  0.0742  0.7391  0.1686
 2478SOL    MW4 9680   3.181   0.418   0.945 -0.0446  0.3303 -0.3034
 2479SOL     OW 9681   1.435   6.196   4.117 -0.4906  0.3255  0.5581
 2479SOL    HW2 9682   1.349   6.220   4.151 -1.8021 -5.6597  2.7611
 2479SOL    HW3 9683   1.418   6.161   4.030 -0.1700 -0.1449  0.6782
 2479SOL    MW4 9684   1.421   6.195   4.110  0.6423 -0.4170  0.8059
 2480SOL     OW 9685   5.834   3.265   1.410 -0.3508  0.0387  0.2808
 2480SOL    HW2 9686   5.809   3.292   1.321 -0.7327 -1.4529 -0.0866
 2480SOL    HW3 9687   5.763   3.298   1.466 -0.5416  0.2486 -0.0813
 2480SOL    MW4 9688   5.821   3.273   1.406  0.4636  0.3994  0.0309
 2481SOL     OW 9689   2.930   5.984   0.381  0.1110  0.2484 -0.0241
 2481SOL    HW2 9690   2.903   5.907   0.431  1.3079 -0.8250 -0.9763
 2481SOL    HW3 9691   2.925   5.957   0.290  1.0537  1.1183 -0.3548
 2481SOL    MW4 9692   2.926   5.970   0.376  0.3490 -0.2391  0.4172
 2482SOL     OW 9693   1.601   0.510   5.455 -0.2768 -0.2633 -0.1752
 2482SOL    HW2 9694   1.518   0.468   5.480 -0.0476 -0.5030  0.1823
 2482SOL    HW3 9695   1.607   0.494   5.360 -0.2442 -0.9474 -0.0642
 2482SOL    MW4 9696   1.591   0.502   5.445 -0.0917 -0.3189 -0.3284
 2483SOL     OW 9697   2.851   4.574   0.344  0.5272 -0.6899  0.3727
 2483SOL    HW2 9698   2.774   4.519   0.359 -0.2331 -0.1907 -1.3513
 2483SOL    HW3 9699   2.924   4.526   0.382 -0.4356 -1.8607  0.7911
 2483SOL    MW4 9700   2.850   4.561   0.351  0.2921  0.4099  0.5840
 2484SOL     OW 9701   4.968   5.964   3.624 -0.1620 -0.3427 -0.0911
 2484SOL    HW2 9702   5.059   5.982   3.644 -0.5481 -0.6664  2.2231
 2484SOL    HW3 9703   4.944   5.892   3.682 -1.1099 -2.3742 -2.7617
 2484SOL    MW4 9704   4.976   5.957   3.634 -0.7206  0.3576 -0.4412
 2485SOL     OW 9705   4.815   3.649   6.080 -0.0918 -0.1666 -0.0250
 2485SOL    HW2 9706   4.875   3.677   6.011 -1.2199  0.1744 -0.9095
 2485SOL    HW3 9707   4.843   3.560   6.103  1.5609  0.4717  0.5485
 2485SOL    MW4 9708   4.826   3.641   6.074  0.0462 -0.4729 -0.0971
 2486SOL     OW 9709   2.624   6.186   0.846 -0.6032  0.0480 -0.1969
 2486SOL    HW2 9710   2.715   6.177   0.874 -0.7365 -1.1683 -0.1135
 2486SOL    HW3 9711   2.588   6.254   0.903 -0.6870 -1.8523  2.1665
 2486SOL    MW4 9712   2.631   6.194   0.857  0.3005 -0.2735  0.0357
 2487SOL     OW 9713   3.899   4.543   3.013 -0.1920 -0.0825  0.0827
 2487SOL    HW2 9714   3.955   4.573   2.941  0.3576  0.9366  0.9136
 2487SOL    HW3 9715   3.822   4.506   2.969 -0.7479  2.2173 -1.0607
 2487SOL    MW4 9716   3.896   4.542   2.997  0.2899  0.2918  0.0301
 2488SOL     OW 9717   5.648   2.263   0.923 -0.1493 -0.3632 -0.7321
 2488SOL    HW2 9718   5.703   2.329   0.882 -0.2084 -1.4994 -2.7872
 2488SOL    HW3 9719   5.558   2.292   0.904 -0.3014  0.5994  1.1666
 2488SOL    MW4 9720   5.643   2.276   0.915 -0.6174 -0.0702 -0.1567
 2489SOL     OW 9721   4.418   6.026   1.363 -0.2315  0.8765 -0.0020
 2489SOL    HW2 9722   4.422   5.975   1.443 -0.8001  2.0031  0.7729
 2489SOL    HW3 9723   4.470   6.104   1.381  0.4717  0.6847 -1.0984
 2489SOL    MW4 9724   4.425   6.030   1.376  0.8263  0.1719  0.0530
 2490SOL     OW 9725   0.292   5.271   3.686  0.1479 -0.0661  0.3299
 2490SOL    HW2 9726   0.303   5.177   3.701  1.2638  0.3011  2.1196
 2490SOL    HW3 9727   0.327   5.312   3.764  0.5912  1.9023 -0.8303
 2490SOL    MW4 9728   0.298   5.264   3.698 -0.1207  0.4703 -0.3921
 2491SOL     OW 9729   0.834   1.841   5.770 -0.4418  0.2907  0.1512
 2491SOL    HW2 9730   0.767   1.773   5.760  1.8578 -1.9634 -1.2584
 2491SOL    HW3 9731   0.915   1.792   5.783  1.0444  2.8746  1.4498
 2491SOL    MW4 9732   0.836   1.825   5.771 -0.2351  0.3113 -0.7709
 2492SOL     OW 9733   3.069   4.001   0.976 -0.5755  0.3333 -0.0655
 2492SOL    HW2 9734   3.070   4.092   1.006  0.1804 -0.7906  4.0386
 2492SOL    HW3 9735   3.151   3.991   0.928  0.7206  1.2339  1.8344
 2492SOL    MW4 9736   3.080   4.012   0.974 -0.5275  0.3655 -0.0277
 2493SOL     OW 9737   0.183   1.934   3.165  0.2381  0.1326  0.0002
 2493SOL    HW2 9738   0.144   1.997   3.104 -0.6174  0.5180  0.9137
 2493SOL    HW3 9739   0.262   1.903   3.120  0.5827  1.7017 -0.5574
 2493SOL    MW4 9740   0.188   1.938   3.151 -0.1300 -0.4004  0.5752
 2494SOL     OW 9741   5.658   0.228   0.432 -0.5765 -0.2232 -0.0027
 2494SOL    HW2 9742   5.637   0.301   0.373 -0.4023  0.7346  1.0820
 2494SOL    HW3 9743   5.634   0.150   0.383 -1.5814  0.6053 -0.8785
 2494SOL    MW4 9744   5.652   0.228   0.418 -0.0824 -0.1809  0.1202
 2495SOL     OW 9745   0.908   2.598   5.826  0.6231 -0.0244  0.2696
 2495SOL    HW2 9746   0.869   2.512   5.842 -1.7157  0.7825 -0.5292
 2495SOL    HW3 9747   1.002   2.585   5.837  0.2968 -2.5470  0.6725
 2495SOL    MW4 9748   0.915   2.585   5.829  0.1493  0.2529 -0.5935
 2496SOL     OW 9749   0.404   1.212   2.451  0.3391 -0.3017  0.1510
 2496SOL    HW2 9750   0.435   1.282   2.509  0.4915  0.5759 -0.9479
 2496SOL    HW3 9751   0.367   1.258   2.375 -0.8863 -1.3893  0.0424
 2496SOL    MW4 9752   0.403   1.227   2.448  0.0450  0.0410  0.2449
 2497SOL     OW 9753   0.498   3.057   1.346 -0.0535 -0.0645 -0.3576
 2497SOL    HW2 9754   0.407   3.079   1.325  0.1892  2.3589  0.8115
 2497SOL    HW3 9755   0.546   3.138   1.330  2.0498 -1.4509 -1.5151
 2497SOL    MW4 9756   0.492   3.070   1.341  0.2547 -0.0721 -0.1069
 2498SOL     OW 9757   1.327   1.619   3.795 -0.1121  0.3842 -0.0971
 2498SOL    HW2 9758   1.378   1.558   3.741  0.0015 -0.0640  0.5077
 2498SOL    HW3 9759   1.353   1.706   3.765  1.8834  0.2119  0.9533
 2498SOL    MW4 9760   1.337   1.622   3.784  0.2613 -0.1707  0.2862
 2499SOL     OW 9761   1.537   3.897   0.513  0.4715 -0.1103 -0.0180
 2499SOL    HW2 9762   1.583   3.814   0.500  1.1714  0.1525  0.7120
 2499SOL    HW3 9763   1.517   3.899   0.606  1.6432  1.1265  0.2313
 2499SOL    MW4 9764   1.540   3.886   0.523  0.2235 -0.9313  0.3029
 2500SOL     OW 9765   3.403   6.244   5.915  0.0038  0.3883  0.1612
 2500SOL    HW2 9766   3.438   6.322   5.872  0.6615 -0.2844 -0.5606
 2500SOL    HW3 9767   3.347   6.278   5.985  0.7866  1.4954  0.2701
 2500SOL    MW4 9768   3.400   6.259   5.918  0.4245 -0.3792 -0.1942
 2501SOL     OW 9769   5.029   3.640   0.502  0.2333 -0.9497 -0.0809
 2501SOL    HW2 9770   5.094   3.624   0.434 -0.4666 -0.5162 -0.8674
 2501SOL    HW3 9771   5.076   3.623   0.584  1.7502  0.6911 -0.5492
 2501SOL    MW4 9772   5.044   3.635   0.504 -0.3982 -0.1958 -0.6847
 2502SOL     OW 9773   1.384   0.459   5.835  0.2911  0.6252  0.3948
 2502SOL    HW2 9774   1.436   0.525   5.881 -0.9511  0.4842  2.1258
 2502SOL    HW3 9775   1.364   0.394   5.902 -1.1334  0.1037 -0.4918
 2502SOL    MW4 9776   1.388   0.459   5.850 -0.1632 -0.0680  0.4060
 2503SOL     OW 9777   2.144   0.163   3.385  0.0481 -0.2644 -0.3432
 2503SOL    HW2 9778   2.126   0.195   3.473  0.5747  1.7202 -0.9099
 2503SOL    HW3 9779   2.211   0.096   3.397 -0.7928 -0.9310  0.8593
 2503SOL    MW4 9780   2.150   0.158   3.398 -0.0973 -0.2673 -0.1098
 2504SOL     OW 9781   5.705   2.775   0.092 -0.2731  0.3363  0.2891
 2504SOL    HW2 9782   5.736   2.723   0.018 -0.7335  0.9577 -0.3675
 2504SOL    HW3 9783   5.644   2.838   0.052 -2.1372 -0.6353  1.4625
 2504SOL    MW4 9784   5.701   2.776   0.077 -0.9888 -0.0359  0.5219
 2505SOL     OW 9785   3.172   4.297   4.547  0.9355 -0.2835  0.2924
 2505SOL    HW2 9786   3.224   4.281   4.626  0.3220 -2.9689  0.2421
 2505SOL    HW3 9787   3.128   4.213   4.530 -1.6286  1.2027 -0.9607
 2505SOL    MW4 9788   3.173   4.284   4.555 -0.2358 -0.4124 -0.0419
 2506SOL     OW 9789   2.105   0.091   5.637  0.5124  0.0877  0.0891
 2506SOL    HW2 9790   2.163   0.034   5.586  0.6263 -0.2996  0.6396
 2506SOL    HW3 9791   2.153   0.173   5.645  0.9785 -0.2266  0.5303
 2506SOL    MW4 9792   2.119   0.094   5.631 -0.1901 -0.2391  0.5171
 2507SOL     OW 9793   3.023   2.301   6.294 -0.3916  0.3914 -0.7824
 2507SOL    HW2 9794   3.014   2.249   6.374 -0.9699  0.8391 -0.5540
 2507SOL    HW3 9795   2.935   2.333   6.276 -0.1174  0.9529 -1.1492
 2507SOL    MW4 9796   3.011   2.298   6.302 -0.2451  0.3646 -0.9326
 2508SOL     OW 9797   6.181   3.278   2.955 -0.4753 -0.4447 -0.0610
 2508SOL    HW2 9798   6.190   3.200   2.899 -1.0247 -1.7035  1.5102
 2508SOL    HW3 9799   6.258   3.330   2.935  1.1558 -2.5108  0.4641
 2508SOL    MW4 9800   6.192   3.274   2.945 -0.7046 -0.4563 -0.1817
 2509SOL     OW 9801   1.128   0.426   2.431 -0.2546 -0.0149 -0.1567
 2509SOL    HW2 9802   1.085   0.506   2.461 -3.1001 -1.8583  1.0558
 2509SOL    HW3 9803   1.221   0.440   2.450 -0.8087  2.5135  1.0646
 2509SOL    MW4 9804   1.135   0.439   2.437  0.2143 -0.3100 -0.2334
 2510SOL     OW 9805   5.625   2.414   1.511 -0.2470  0.4815  0.1405
 2510SOL    HW2 9806   5.705   2.393   1.464  1.5029 -0.7328  3.3330
 2510SOL    HW3 9807   5.634   2.507   1.532  0.9633  0.1065  1.4407
 2510SOL    MW4 9808   5.637   2.424   1.508 -0.1726  0.8524  0.3975
 2511SOL     OW 9809   2.844   3.014   2.780  0.3512 -0.4737 -0.0371
 2511SOL    HW2 9810   2.779   3.010   2.850 -0.3392 -0.4092 -0.6576
 2511SOL    HW3 9811   2.824   2.939   2.724  1.0409 -0.6573 -0.0490
 2511SOL    MW4 9812   2.833   3.004   2.782  0.0756 -0.0469 -0.2794
 2512SOL     OW 9813   0.736   3.242   4.650  0.6919  0.4937  0.4722
 2512SOL    HW2 9814   0.750   3.337   4.653  0.7802  0.4589  1.5781
 2512SOL    HW3 9815   0.781   3.214   4.571  1.6083  1.2229  0.7201
 2512SOL    MW4 9816   0.744   3.251   4.640 -0.4619 -0.3205  0.3237
 2513SOL     OW 9817   3.632   6.079   5.849 -0.0218  0.0769 -0.0862
 2513SOL    HW2 9818   3.541   6.097   5.871  0.0072  0.2731 -0.1286
 2513SOL    HW3 9819   3.654   6.143   5.782  0.1134 -0.0439 -0.1587
 2513SOL    MW4 9820   3.623   6.090   5.843 -0.0219  0.3074  1.0112
 2514SOL     OW 9821   5.177   5.182   0.259 -1.1485 -0.1310 -0.1901
 2514SOL    HW2 9822   5.211   5.247   0.321 -1.9163  0.8140 -0.7381
 2514SOL    HW3 9823   5.134   5.116   0.314 -1.4174  0.4545  0.3072
 2514SOL    MW4 9824   5.176   5.182   0.274 -0.5215 -0.1516 -0.2480
 2515SOL     OW 9825   1.426   3.426   1.041  0.1631  0.8360 -0.5289
 2515SOL    HW2 9826   1.351   3.426   1.102  1.0872 -0.8837  0.6699
 2515SOL    HW3 9827   1.468   3.511   1.057 -0.1163  0.7841  0.5966
 2515SOL    MW4 9828   1.421   3.437   1.051  0.4540 -0.2029  0.0635
 2516SOL     OW 9829   2.623   6.199   1.778  0.0275 -0.2484  0.3154
 2516SOL    HW2 9830   2.632   6.295   1.784  1.6311 -0.4571  2.0733
 2516SOL    HW3 9831   2.666   6.177   1.695  2.2805  0.3384  1.2453
 2516SOL    MW4 9832   2.630   6.209   1.768 -0.6324  0.6637  0.5329
 2517SOL     OW 9833   5.441   2.815   2.676 -0.8971  0.4153  0.4945
 2517SOL    HW2 9834   5.356   2.783   2.705 -1.9620  1.1328 -1.6062
 2517SOL    HW3 9835   5.461   2.763   2.598  0.7886  0.0113  1.1638
 2517SOL    MW4 9836   5.433   2.804   2.669 -0.0600  0.1933  0.1944
 2518SOL     OW 9837   6.176   4.365   1.309 -0.3371 -0.3439 -0.1003
 2518SOL    HW2 9838   6.162   4.454   1.341 -0.9228  0.0907 -1.4710
 2518SOL    HW3 9839   6.271   4.354   1.310 -0.1402  0.9246 -1.4625
 2518SOL    MW4 9840   6.186   4.376   1.313  0.8912  0.4560  0.1018
 2519SOL     OW 9841   3.047   1.674   4.102  0.3235 -0.5464  0.3114
 2519SOL    HW2 9842   3.081   1.625   4.177  0.4078 -1.1255 -0.0997
 2519SOL    HW3 9843   3.111   1.658   4.033  0.5677  0.4784  0.2886
 2519SOL    MW4 9844   3.060   1.665   4.103 -0.1594 -0.0457 -0.5094
 2520SOL     OW 9845   3.191   0.222   6.096 -0.5057  0.7298  0.0176
 2520SOL    HW2 9846   3.214   0.291   6.158 -0.5697  0.3592  0.4593
 2520SOL    HW3 9847   3.101   0.243   6.070 -0.5825  0.7199  0.2747
 2520SOL    MW4 9848   3.182   0.234   6.101 -0.3128 -0.0949  0.3822
 2521SOL     OW 9849   5.534   0.698   6.112  0.0846 -0.3187  0.1475
 2521SOL    HW2 9850   5.611   0.752   6.129 -0.6493  0.2286  2.0498
 2521SOL    HW3 9851   5.486   0.745   6.044  1.2784 -0.5470 -0.8829
 2521SOL    MW4 9852   5.538   0.711   6.105  0.3692 -0.7455 -0.1913
 2522SOL     OW 9853   1.320   1.964   4.081  0.6083  0.5123 -0.1452
 2522SOL    HW2 9854   1.275   1.996   4.160  0.9237  2.2606 -0.6231
 2522SOL    HW3 9855   1.335   1.871   4.098  0.7030  0.8507  1.8771
 2522SOL    MW4 9856   1.316   1.956   4.094 -0.7774 -0.0166  0.2379
 2523SOL     OW 9857   0.453   4.893   4.328  0.0804 -0.3294 -0.1454
 2523SOL    HW2 9858   0.416   4.823   4.381 -3.1971 -0.3731 -2.1473
 2523SOL    HW3 9859   0.451   4.859   4.238 -0.6221  1.8772 -1.0583
 2523SOL    MW4 9860   0.448   4.880   4.323 -0.1046 -0.1588  0.5800
 2524SOL     OW 9861   4.093   6.344   6.178 -0.0120 -0.0899 -0.5846
 2524SOL    HW2 9862   4.086   6.265   6.231  2.1155  0.0753  0.0162
 2524SOL    HW3 9863   4.030   6.405   6.218 -0.4880 -0.9064 -0.0453
 2524SOL    MW4 9864   4.084   6.342   6.190  0.1514 -0.6581 -0.3202
 2525SOL     OW 9865   5.512   4.592   4.486 -0.0296 -0.4298 -0.4229
 2525SOL    HW2 9866   5.518   4.599   4.390 -3.0486  0.7773 -0.6519
 2525SOL    HW3 9867   5.559   4.669   4.518  0.2427 -0.3561 -0.9868
 2525SOL    MW4 9868   5.519   4.603   4.477  0.8297 -0.5274  0.1443
 2526SOL     OW 9869   2.539   6.189   0.108 -0.0877 -0.2155 -0.5615
 2526SOL    HW2 9870   2.506   6.123   0.047  0.0216  0.8957 -1.8862
 2526SOL    HW3 9871   2.595   6.141   0.168 -1.1892 -1.5480 -0.5622
 2526SOL    MW4 9872   2.542   6.174   0.108  0.0410 -0.6945  0.0596
 2527SOL     OW 9873   3.278   5.465   1.712 -0.3804  0.2396 -0.9043
 2527SOL    HW2 9874   3.348   5.531   1.712  1.4195 -1.5682  0.3300
 2527SOL    HW3 9875   3.219   5.493   1.782  0.2646  0.6514 -0.5118
 2527SOL    MW4 9876   3.279   5.477   1.721 -0.2459 -0.3492 -0.1954
 2528SOL     OW 9877   3.611   2.183   1.605  0.0438 -0.6701  0.1042
 2528SOL    HW2 9878   3.545   2.123   1.639 -1.0357  0.5260  0.2274
 2528SOL    HW3 9879   3.572   2.218   1.525 -0.1743  1.1454  0.9314
 2528SOL    MW4 9880   3.597   2.180   1.599  0.3378  0.1716  0.3043
 2529SOL     OW 9881   1.957   5.759   4.747  0.3989  0.6186 -0.0552
 2529SOL    HW2 9882   1.949   5.726   4.836  0.0615  2.0008  0.4496
 2529SOL    HW3 9883   2.009   5.839   4.755  3.8154 -1.2137 -1.6243
 2529SOL    MW4 9884   1.963   5.765   4.760 -0.1053  0.1468 -0.5520
 2530SOL     OW 9885   6.381   4.529   3.401 -0.5503 -0.0856 -0.3592
 2530SOL    HW2 9886   6.366   4.597   3.335 -0.1147  0.1687 -0.1983
 2530SOL    HW3 9887   6.339   4.451   3.364  0.2368 -0.1093 -1.2482
 2530SOL    MW4 9888   6.373   4.527   3.387 -0.0072 -0.3993  0.0654
 2531SOL     OW 9889   4.364   3.459   6.327 -0.2796 -0.0834 -0.5506
 2531SOL    HW2 9890   4.315   3.530   6.286  1.3728  1.2658 -0.3280
 2531SOL    HW3 9891   4.456   3.484   6.315  0.3111 -1.3675  0.9586
 2531SOL    MW4 9892   4.370   3.472   6.320 -0.1859 -0.6264 -0.3124
 2532SOL     OW 9893   5.641   5.516   4.955  0.0802 -0.0345 -0.2804
 2532SOL    HW2 9894   5.644   5.486   4.865  0.2261  0.9031 -0.5988
 2532SOL    HW3 9895   5.732   5.515   4.984 -0.1919 -3.7976  1.0931
 2532SOL    MW4 9896   5.654   5.512   4.947  0.0518  0.6791  0.1653
 2533SOL     OW 9897   0.007   2.956   0.455  0.3216 -0.6694 -0.5676
 2533SOL    HW2 9898   0.069   3.025   0.478 -0.0035 -0.6517  0.2869
 2533SOL    HW3 9899  -0.028   2.926   0.539 -0.1920 -1.2696 -0.9849
 2533SOL    MW4 9900   0.011   2.961   0.469 -0.4015 -0.2673  0.2268
 2534SOL     OW 9901   3.617   6.007   3.124 -0.0396  0.6826 -0.3411
 2534SOL    HW2 9902   3.662   5.927   3.149 -0.5641  0.9932  1.8596
 2534SOL    HW3 9903   3.564   6.030   3.201 -1.4287  2.0753 -1.6251
 2534SOL    MW4 9904   3.616   6.000   3.138 -0.3903  0.0723  0.8024
 2535SOL     OW 9905   6.047   0.781   6.182  0.0833  0.1195  0.1186
 2535SOL    HW2 9906   6.104   0.831   6.123  0.3960  1.5332  1.5607
 2535SOL    HW3 9907   6.092   0.782   6.266 -1.0603 -0.5937  0.7704
 2535SOL    MW4 9908   6.060   0.788   6.185 -0.2113  0.6703 -0.5969
 2536SOL     OW 9909   4.858   0.143   4.996 -0.6729  0.3202  0.0124
 2536SOL    HW2 9910   4.787   0.137   5.060 -2.2574  4.7109 -1.0015
 2536SOL    HW3 9911   4.845   0.067   4.939 -3.5791  0.0931  0.8124
 2536SOL    MW4 9912   4.847   0.132   4.997  0.4567 -0.2229  0.2644
 2537SOL     OW 9913   3.760   3.186   4.253 -0.6919 -0.0945 -0.3701
 2537SOL    HW2 9914   3.763   3.230   4.338  2.3893  0.3723 -0.6090
 2537SOL    HW3 9915   3.790   3.252   4.190  1.7910 -1.7244 -1.0656
 2537SOL    MW4 9916   3.764   3.200   4.256  0.3120 -0.4993  0.0138
 2538SOL     OW 9917   3.632   4.580   4.494  0.2420 -0.1352  0.1840
 2538SOL    HW2 9918   3.538   4.565   4.492 -0.0361  0.9936  2.2555
 2538SOL    HW3 9919   3.647   4.649   4.429 -0.2300 -0.7959 -0.6450
 2538SOL    MW4 9920   3.622   4.587   4.485 -0.0805  0.2561  0.0814
 2539SOL     OW 9921   3.051   1.670   2.459 -0.0919 -0.0415  0.9488
 2539SOL    HW2 9922   2.961   1.638   2.462  0.0102 -0.4560 -0.0109
 2539SOL    HW3 9923   3.092   1.632   2.536 -0.9056  0.7230  1.7892
 2539SOL    MW4 9924   3.044   1.661   2.469  0.5181  0.4583  0.7618
 2540SOL     OW 9925   0.036   2.991   4.718 -0.0770 -0.1591 -0.0844
 2540SOL    HW2 9926   0.008   3.083   4.709 -0.0251 -0.2194 -1.0081
 2540SOL    HW3 9927   0.102   2.992   4.787 -0.3716  0.4362  0.1952
 2540SOL    MW4 9928   0.041   3.003   4.726  0.3233 -0.3430  0.3023
 2541SOL     OW 9929   2.087   5.277   4.140 -0.7193  0.1219 -0.5626
 2541SOL    HW2 9930   1.992   5.276   4.147 -0.8853  2.2361 -1.6225
 2541SOL    HW3 9931   2.116   5.339   4.208  0.0625 -1.4515  0.6229
 2541SOL    MW4 9932   2.079   5.285   4.150  0.3099 -0.4045  0.2766
 2542SOL     OW 9933   2.082   2.844   0.210  0.0052 -0.2709  0.7444
 2542SOL    HW2 9934   2.078   2.759   0.166  1.0568  0.0723 -0.0677
 2542SOL    HW3 9935   2.105   2.823   0.301  3.2388 -0.7673 -0.0810
 2542SOL    MW4 9936   2.085   2.830   0.217  0.6790 -0.1673 -0.1902
 2543SOL     OW 9937   4.320   1.577   0.003 -0.0858 -0.5989 -0.2483
 2543SOL    HW2 9938   4.311   1.670   0.026  0.2333 -0.5499 -0.3266
 2543SOL    HW3 9939   4.230   1.547  -0.010 -0.4315 -0.9734  2.4200
 2543SOL    MW4 9940   4.307   1.585   0.005  0.7291  0.1658 -0.6022
 2544SOL     OW 9941   3.067   0.199   3.390 -0.2612 -0.1780  0.2840
 2544SOL    HW2 9942   2.990   0.145   3.373 -0.1735 -0.3965  0.5773
 2544SOL    HW3 9943   3.054   0.231   3.479 -0.8961  1.2522 -0.2848
 2544SOL    MW4 9944   3.055   0.196   3.400 -0.7072 -0.0483 -0.0647
 2545SOL     OW 9945   5.583  -0.002   0.287  0.5210  0.0065  0.0111
 2545SOL    HW2 9946   5.605  -0.094   0.300 -0.5934 -0.1815  0.7666
 2545SOL    HW3 9947   5.621   0.021   0.202 -1.9446 -2.0919 -1.8261
 2545SOL    MW4 9948   5.591  -0.011   0.277 -0.0043 -0.7663  0.0946
 2546SOL     OW 9949   1.404   3.615   4.612  0.2803 -0.3940 -0.5904
 2546SOL    HW2 9950   1.337   3.547   4.620  0.4747 -0.6257 -0.9049
 2546SOL    HW3 9951   1.486   3.572   4.638  0.3175 -0.1358 -0.2863
 2546SOL    MW4 9952   1.406   3.601   4.616  0.6475 -0.0525  0.0374
 2547SOL     OW 9953   0.353   1.128   0.009  0.6141  0.0132  0.1148
 2547SOL    HW2 9954   0.300   1.164  -0.062 -0.7573  0.2722  1.2365
 2547SOL    HW3 9955   0.394   1.051  -0.030  0.1788  0.3447 -1.0655
 2547SOL    MW4 9956   0.351   1.123  -0.006  0.2090 -0.7035  0.4639
 2548SOL     OW 9957   1.481   3.791   2.821  0.1148 -0.0269 -0.1534
 2548SOL    HW2 9958   1.520   3.729   2.759 -0.0015 -1.7640  1.4285
 2548SOL    HW3 9959   1.395   3.754   2.841  0.3014  0.2775  1.3263
 2548SOL    MW4 9960   1.474   3.778   2.815 -0.1817  0.2937 -0.2233
 2549SOL     OW 9961   5.875   1.085   5.522 -0.3488  0.6261  0.6286
 2549SOL    HW2 9962   5.832   1.170   5.532  0.6499  1.0936  1.0624
 2549SOL    HW3 9963   5.925   1.073   5.603  2.2405  1.2187 -0.7976
 2549SOL    MW4 9964   5.876   1.095   5.534  0.6610  0.1877 -0.3531
 2550SOL     OW 9965   4.539   0.148   1.197  0.0435  0.1453  0.0715
 2550SOL    HW2 9966   4.481   0.220   1.223 -0.7038 -0.6170  0.5491
 2550SOL    HW3 9967   4.603   0.189   1.139 -1.1603  0.9579 -0.7369
 2550SOL    MW4 9968   4.540   0.163   1.192 -0.0609  0.1916  0.4153
 2551SOL     OW 9969   1.816   5.119   0.060 -0.0852 -0.4344 -0.2072
 2551SOL    HW2 9970   1.796   5.026   0.052 -1.2104 -0.4281  1.8348
 2551SOL    HW3 9971   1.896   5.122   0.113 -0.2369 -0.2490  0.0144
 2551SOL    MW4 9972   1.824   5.107   0.066  0.3407  0.5650 -0.6127
 2552SOL     OW 9973   2.133   5.436   6.255  0.2462  0.3314 -0.1165
 2552SOL    HW2 9974   2.094   5.480   6.179 -0.9352  2.1046  1.4109
 2552SOL    HW3 9975   2.144   5.506   6.320  0.2176 -1.2961  1.7366
 2552SOL    MW4 9976   2.129   5.451   6.253 -0.3605 -0.0171  0.4606
 2553SOL     OW 9977   1.844   5.810   4.499  0.1411  0.0437  0.3539
 2553SOL    HW2 9978   1.881   5.780   4.582  0.2171  0.8443  0.6180
 2553SOL    HW3 9979   1.905   5.878   4.469  0.5961 -0.8288 -0.7972
 2553SOL    MW4 9980   1.857   5.815   4.506 -0.3802 -0.0485 -0.2404
 2554SOL     OW 9981   0.532   4.567   1.044 -0.1166  0.4665 -0.2991
 2554SOL    HW2 9982   0.537   4.649   0.996 -0.3689  0.7787  0.1966
 2554SOL    HW3 9983   0.517   4.594   1.135  0.3511 -0.1081 -0.0462
 2554SOL    MW4 9984   0.531   4.581   1.050 -0.3174 -0.0475  0.3074
 2555SOL     OW 9985   5.219   0.346   4.804 -0.0555 -0.4470  0.1845
 2555SOL    HW2 9986   5.155   0.368   4.737  1.9693  4.1377 -0.6553
 2555SOL    HW3 9987   5.172   0.354   4.887 -1.0859  0.7853 -0.4805
 2555SOL    MW4 9988   5.205   0.350   4.806  0.3855  0.0777 -0.6055
 2556SOL     OW 9989   4.411   2.166   4.260  0.3605  0.6342  0.7473
 2556SOL    HW2 9990   4.503   2.140   4.270  0.5499  0.8640 -0.3191
 2556SOL    HW3 9991   4.373   2.153   4.347  1.8098  2.0876  1.6701
 2556SOL    MW4 9992   4.418   2.161   4.273  0.2222  0.4792  0.3373
 2557SOL     OW 9993   3.495   3.403   4.905  0.1016  0.4084 -0.1332
 2557SOL    HW2 9994   3.416   3.355   4.882  0.9298 -0.5984 -1.0320
 2557SOL    HW3 9995   3.484   3.426   4.997 -0.8950 -0.3895 -0.0371
 2557SOL    MW4 9996   3.483   3.399   4.914  0.3734 -0.0679 -0.2381
 2558SOL     OW 9997   0.257   3.838   5.575  0.6896  0.4992  0.2284
 2558SOL    HW2 9998   0.163   3.821   5.570  0.2098  2.5260  1.4151
 2558SOL    HW3 9999   0.296   3.770   5.519 -1.3454 -1.1735  0.7082
 2558SOL    MW410000   0.249   3.827   5.567  0.5273 -0.3209  0.2320
 2559SOL     OW10001   2.738   1.097   4.002  0.3709 -0.4896  0.1492
 2559SOL    HW210002   2.686   1.177   4.010 -0.1983 -0.8376  0.0773
 2559SOL    HW310003   2.803   1.103   4.071 -0.0418 -0.2299  0.5226
 2559SOL    MW410004   2.739   1.108   4.012 -0.1885  0.1814  0.6054
 2560SOL     OW10005   3.543   2.311   1.877 -0.6106  0.1362 -0.6985
 2560SOL    HW210006   3.471   2.266   1.922 -1.5163  0.7887 -1.4551
 2560SOL    HW310007   3.529   2.291   1.784 -0.6814  1.4723 -0.9887
 2560SOL    MW410008   3.531   2.302   1.871  0.4772 -0.6120 -0.0497
 2561SOL     OW10009   4.823   6.253   1.248  0.0679 -0.1373 -0.3287
 2561SOL    HW210010   4.728   6.261   1.259  0.0642 -1.7030  1.3107
 2561SOL    HW310011   4.860   6.294   1.326  0.6941 -0.4601 -0.4472
 2561SOL    MW410012   4.815   6.259   1.260  0.0871 -0.2167  0.3664
 2562SOL     OW10013   0.553   3.147   5.226 -0.0807  0.0834 -0.2540
 2562SOL    HW210014   0.567   3.162   5.132 -2.1209 -0.9784 -0.7825
 2562SOL    HW310015   0.531   3.233   5.261  0.8472  0.5198 -0.6904
 2562SOL    MW410016   0.552   3.160   5.218  0.3993 -0.0222 -0.3788
 2563SOL     OW10017   2.890   0.409   1.214 -0.2863 -0.2290  0.1233
 2563SOL    HW210018   2.977   0.374   1.195  0.5623  0.6080  2.2174
 2563SOL    HW310019   2.845   0.338   1.260  0.0286  0.0403  0.8557
 2563SOL    MW410020   2.895   0.395   1.217 -0.3707 -0.8769  0.2003
 2564SOL     OW10021   4.498   0.918   1.074 -0.2701 -0.1325 -0.4042
 2564SOL    HW210022   4.423   0.939   1.018 -0.8876 -1.8656 -0.2837
 2564SOL    HW310023   4.571   0.966   1.035 -1.2800  0.9795 -0.9774
 2564SOL    MW410024   4.498   0.927   1.061 -0.5691  0.1092  0.0445
 2565SOL     OW10025   3.369   0.516   4.305 -0.1197 -0.0518 -0.3371
 2565SOL    HW210026   3.385   0.449   4.239 -2.4646 -1.4788  0.4473
 2565SOL    HW310027   3.325   0.587   4.258  2.4345  1.1184 -1.1824
 2565SOL    MW410028   3.365   0.517   4.290  1.0231  0.4727  0.1184
 2566SOL     OW10029   5.087   3.956   2.486 -0.4463 -0.0118 -0.6235
 2566SOL    HW210030   5.132   4.037   2.510  2.2868 -1.4519 -0.6027
 2566SOL    HW310031   5.019   3.984   2.425  1.3171  2.1576 -1.7292
 2566SOL    MW410032   5.084   3.971   2.481  0.4642  0.7641  0.4331
 2567SOL     OW10033   0.115   1.672   2.152  0.8955 -0.6766  0.0230
 2567SOL    HW210034   0.118   1.767   2.145  0.3022 -0.7373 -1.4275
 2567SOL    HW310035   0.207   1.646   2.164  1.1575  0.0254 -0.3921
 2567SOL    MW410036   0.128   1.681   2.153 -1.0939 -0.3576 -0.4451
 2568SOL     OW10037   2.311   5.860   5.382 -0.0110  0.3274 -0.2887
 2568SOL    HW210038   2.382   5.834   5.322  0.9604  0.2212  0.8634
 2568SOL    HW310039   2.286   5.780   5.426 -0.7385  0.4011 -0.5644
 2568SOL    MW410040   2.317   5.846   5.380  0.5225  0.3362 -0.1388
 2569SOL     OW10041   0.458   5.674   3.149  0.3083 -0.3488 -0.4227
 2569SOL    HW210042   0.375   5.717   3.168  1.2840  0.7799  1.4679
 2569SOL    HW310043   0.505   5.735   3.092 -0.2140 -1.0873 -1.6807
 2569SOL    MW410044   0.453   5.688   3.144  0.1984 -0.4308  0.0619
 2570SOL     OW10045   5.854   5.355   3.402  0.0211 -0.3014 -0.5905
 2570SOL    HW210046   5.763   5.369   3.376  0.2622 -0.4357 -1.5185
 2570SOL    HW310047   5.856   5.379   3.495 -0.7665  0.5618 -0.7826
 2570SOL    MW410048   5.843   5.360   3.411 -0.5787  0.2673 -0.1120
 2571SOL     OW10049   0.521   4.893   5.035  0.2599  0.6216  0.4681
 2571SOL    HW210050   0.574   4.855   4.965  1.0977 -0.9572  1.8764
 2571SOL    HW310051   0.457   4.948   4.990 -0.4431 -1.7876 -1.7008
 2571SOL    MW410052   0.519   4.895   5.020 -0.0241 -0.0796 -0.2226
 2572SOL     OW10053   6.219   3.526   3.566 -0.0850 -0.8515  0.0226
 2572SOL    HW210054   6.194   3.501   3.655 -0.5591 -0.9957 -0.1480
 2572SOL    HW310055   6.305   3.568   3.576  0.5198 -2.1276  0.3757
 2572SOL    MW410056   6.227   3.528   3.579 -0.1173 -0.3747  0.3838
 2573SOL     OW10057   5.725   3.388   5.096  0.1383 -0.0802  0.0168
 2573SOL    HW210058   5.750   3.457   5.158 -1.0477 -0.0106  0.4437
 2573SOL    HW310059   5.649   3.346   5.136  0.5177 -1.3061 -0.4914
 2573SOL    MW410060   5.718   3.391   5.109 -0.4115  0.1555  0.0956
 2574SOL     OW10061   0.987   3.088   2.549  0.2964 -0.4474 -0.0384
 2574SOL    HW210062   0.911   3.141   2.576 -0.8784 -1.0744 -1.9213
 2574SOL    HW310063   0.960   3.049   2.466  2.5876 -0.9568 -0.6003
 2574SOL    MW410064   0.974   3.090   2.541  0.0445  0.0606  0.5466
 2575SOL     OW10065   0.334   2.581   6.389  0.4461 -0.9263  0.7200
 2575SOL    HW210066   0.268   2.593   6.321  0.0788 -2.2477  0.7955
 2575SOL    HW310067   0.326   2.658   6.445  1.3391  0.6058 -1.1682
 2575SOL    MW410068   0.324   2.592   6.388  0.0127 -0.0219  0.2520
 2576SOL     OW10069   3.865   6.366   5.085  0.0026 -0.3260 -0.3924
 2576SOL    HW210070   3.878   6.296   5.150 -0.3204  0.6115  0.6979
 2576SOL    HW310071   3.939   6.425   5.098  0.4220 -0.5634 -1.4988
 2576SOL    MW410072   3.877   6.364   5.095  0.2966 -0.4662  0.7752
 2577SOL     OW10073   3.854   0.461   0.210  0.2104  0.6005 -0.1933
 2577SOL    HW210074   3.829   0.540   0.163 -0.5531  0.6866  0.3361
 2577SOL    HW310075   3.804   0.466   0.292 -0.6705 -0.9399 -0.5988
 2577SOL    MW410076   3.844   0.472   0.215 -0.0561  0.3690  0.4930
 2578SOL     OW10077   0.389   2.115   5.303  0.0675  0.7031  0.4639
 2578SOL    HW210078   0.371   2.057   5.229  1.2377  0.4199  0.3809
 2578SOL    HW310079   0.484   2.108   5.316 -0.3810 -1.4653  3.8121
 2578SOL    MW410080   0.399   2.106   5.295  0.3294 -0.3302  0.3565
 2579SOL     OW10081   4.886   2.024   5.197  0.1538  0.5590  0.6503
 2579SOL    HW210082   4.938   2.018   5.117 -2.3398  3.3068 -1.3776
 2579SOL    HW310083   4.938   2.080   5.255  0.3786  1.7190 -0.6118
 2579SOL    MW410084   4.900   2.031   5.194 -0.0486 -0.5957 -0.2365
 2580SOL     OW10085   0.650   2.735   5.854  0.0383 -0.3293 -0.0538
 2580SOL    HW210086   0.616   2.687   5.929  0.6414 -0.8202 -0.0888
 2580SOL    HW310087   0.740   2.704   5.844  0.5911  1.1244  0.1915
 2580SOL    MW410088   0.657   2.725   5.863 -0.2353 -0.2449 -0.7516
 2581SOL     OW10089   0.863   1.811   4.849  0.1618  0.1150 -0.7858
 2581SOL    HW210090   0.890   1.801   4.940  3.7281 -1.2199 -1.8439
 2581SOL    HW310091   0.912   1.886   4.817  0.4429 -0.5878 -2.0775
 2581SOL    MW410092   0.873   1.820   4.857 -1.0819 -0.0709 -0.3166
 2582SOL     OW10093   0.452   4.544   3.533  0.5465  0.3077 -0.4996
 2582SOL    HW210094   0.413   4.461   3.505  0.1113  1.0306 -2.1708
 2582SOL    HW310095   0.381   4.608   3.523  1.5368  1.2784 -1.5241
 2582SOL    MW410096   0.437   4.542   3.528 -0.8650 -0.0539  0.3816
 2583SOL     OW10097   4.285   2.730   0.768 -0.5424 -0.1060  0.6274
 2583SOL    HW210098   4.285   2.743   0.863 -1.7288  0.1930  0.6070
 2583SOL    HW310099   4.197   2.697   0.749  0.4470 -2.5842 -0.0621
 2583SOL    MW410100   4.273   2.727   0.778 -0.2765 -0.3667  0.2917
 2584SOL     OW10101   0.965   0.656   5.292  0.3862 -0.6786 -0.5758
 2584SOL    HW210102   0.956   0.606   5.374 -2.3384  1.5279  0.6390
 2584SOL    HW310103   1.048   0.703   5.302 -0.1813  0.0400  1.2899
 2584SOL    MW410104   0.975   0.655   5.304  0.3769 -0.3837 -0.1375
 2585SOL     OW10105   5.071   0.445   5.837  0.2223  0.4378  0.3898
 2585SOL    HW210106   4.990   0.401   5.865  0.7631 -0.5932  0.3892
 2585SOL    HW310107   5.126   0.374   5.803  1.2814  1.0639  0.7521
 2585SOL    MW410108   5.067   0.430   5.836  0.0682  0.4681 -0.4451
 2586SOL     OW10109   0.449   3.522   0.221  0.2423  0.1106 -0.1786
 2586SOL    HW210110   0.520   3.582   0.243 -0.5858  0.3009  2.3776
 2586SOL    HW310111   0.475   3.438   0.259  0.7419 -0.8304 -2.4844
 2586SOL    MW410112   0.462   3.519   0.229  0.2471  0.5056  0.6668
 2587SOL     OW10113   3.630   0.261   2.996 -0.2453  0.3638 -0.1877
 2587SOL    HW210114   3.713   0.293   2.961 -1.4692  3.1577 -0.7663
 2587SOL    HW310115   3.565   0.280   2.928 -1.4422 -1.7122  0.2575
 2587SOL    MW410116   3.632   0.267   2.982  0.7649 -0.0696  0.5135
 2588SOL     OW10117   3.900   2.171   4.893  0.2564 -0.4407 -0.1972
 2588SOL    HW210118   3.807   2.182   4.876 -0.0765 -1.3942  0.8985
 2588SOL    HW310119   3.928   2.257   4.925 -0.2877 -0.2057 -0.3371
 2588SOL    MW410120   3.892   2.184   4.895 -0.1343 -0.4420  0.5636
 2589SOL     OW10121   4.507   3.159   1.156 -0.3576  0.0590 -0.3604
 2589SOL    HW210122   4.511   3.091   1.089 -1.6662 -0.6109  0.2253
 2589SOL    HW310123   4.518   3.241   1.107  0.2171 -0.5015 -1.1926
 2589SOL    MW410124   4.509   3.161   1.141 -0.4896 -0.0685  0.0153
 2590SOL     OW10125   4.858   3.061   0.244 -0.0550  0.0894  0.1758
 2590SOL    HW210126   4.836   3.146   0.204  0.5673  0.5611  0.8078
 2590SOL    HW310127   4.937   3.079   0.295 -0.0355 -0.8306  0.4768
 2590SOL    MW410128   4.865   3.075   0.246  0.5146 -0.0250  0.4253
 2591SOL     OW10129   6.111   3.664   4.460 -0.2322  0.1158 -0.2376
 2591SOL    HW210130   6.206   3.677   4.462 -0.3458  1.0906 -0.5187
 2591SOL    HW310131   6.086   3.689   4.371 -0.8441  0.5690  0.0562
 2591SOL    MW410132   6.120   3.669   4.448  0.1660  0.9245 -0.0689
 2592SOL     OW10133   2.265   3.281   6.293  0.0080 -0.8311 -0.2636
 2592SOL    HW210134   2.330   3.306   6.359  0.1999 -2.2790  0.1358
 2592SOL    HW310135   2.233   3.196   6.323 -1.9166 -0.2554 -0.5944
 2592SOL    MW410136   2.269   3.273   6.306  0.5050  0.2400 -0.2200
 2593SOL     OW10137   2.474   0.219   0.280  0.0637  0.1332  0.7479
 2593SOL    HW210138   2.452   0.165   0.356  1.8492  0.1438  1.3222
 2593SOL    HW310139   2.434   0.174   0.206 -1.7143  0.1213  1.6545
 2593SOL    MW410140   2.466   0.206   0.281 -0.3245 -0.1472  0.7758
 2594SOL     OW10141   1.460   6.240   1.935  0.6700 -0.6030 -0.5328
 2594SOL    HW210142   1.374   6.202   1.915  0.7431 -0.7262 -0.6155
 2594SOL    HW310143   1.443   6.333   1.945  0.7172 -0.4395 -1.7321
 2594SOL    MW410144   1.446   6.247   1.933 -0.0818 -0.6989  0.0681
 2595SOL     OW10145   1.761   6.356   1.536  0.1357  0.0218 -0.4629
 2595SOL    HW210146   1.700   6.302   1.586 -0.7000  2.2711  1.1340
 2595SOL    HW310147   1.759   6.441   1.580  2.0026  1.1340 -2.3315
 2595SOL    MW410148   1.753   6.360   1.549  0.2820 -0.1683 -0.2571
 2596SOL     OW10149   2.042   1.586   0.105 -0.3430  0.9246 -0.5186
 2596SOL    HW210150   1.958   1.543   0.125  0.2218 -0.0907 -0.2704
 2596SOL    HW310151   2.075   1.540   0.029  0.7354  0.2459  0.3352
 2596SOL    MW410152   2.035   1.575   0.098  0.4910  0.5049 -0.2728
 2597SOL     OW10153   1.736   5.691   3.097  0.0960  0.0885 -0.5156
 2597SOL    HW210154   1.818   5.727   3.130  0.5621  0.0724 -1.6338
 2597SOL    HW310155   1.668   5.738   3.145  0.7409  0.1501  0.3731
 2597SOL    MW410156   1.738   5.702   3.108  0.1237  0.4310 -0.1404
 2598SOL     OW10157   1.246   3.564   0.254  0.4688 -0.3744  0.3630
 2598SOL    HW210158   1.173   3.625   0.240  0.1869 -0.3913  1.6185
 2598SOL    HW310159   1.225   3.489   0.198 -0.8310 -0.6506  1.1613
 2598SOL    MW410160   1.233   3.562   0.245  0.2775 -0.1917  0.3992
 2599SOL     OW10161   4.660   0.979   5.276  0.0724  0.4673 -0.3020
 2599SOL    HW210162   4.713   0.916   5.228 -0.7942 -1.0445  0.6305
 2599SOL    HW310163   4.720   1.016   5.342  0.8278  1.3470 -1.4481
 2599SOL    MW410164   4.675   0.976   5.279  0.6462  0.5130  0.1246
 2600SOL     OW10165   1.762   6.044   4.109  0.3292  0.4719  0.4707
 2600SOL    HW210166   1.783   6.138   4.115 -0.3516  0.6600 -0.0569
 2600SOL    HW310167   1.707   6.027   4.185 -2.3209  1.2681 -1.1214
 2600SOL    MW410168   1.758   6.054   4.120  0.0867  0.0985 -0.5970
 2601SOL     OW10169   5.089   4.473   6.361  0.0790 -0.4305 -0.7717
 2601SOL    HW210170   5.116   4.563   6.379  0.8061 -0.5723 -1.1388
 2601SOL    HW310171   5.048   4.444   6.443  0.8697 -0.1446 -0.2609
 2601SOL    MW410172   5.087   4.481   6.374  0.2840 -0.3733 -0.0109
 2602SOL     OW10173   4.952   1.306   1.669  0.1895 -0.2718  0.5126
 2602SOL    HW210174   4.911   1.306   1.582 -0.0256 -0.7614  0.6122
 2602SOL    HW310175   4.966   1.214   1.689 -0.1874 -0.1807  1.2058
 2602SOL    MW410176   4.949   1.294   1.660 -0.4860 -0.1498  0.1174
 2603SOL     OW10177   2.502   3.831   4.108 -0.1158  0.0374 -0.2414
 2603SOL    HW210178   2.512   3.862   4.018 -0.9141 -0.8719 -0.6671
 2603SOL    HW310179   2.409   3.809   4.115 -0.3099  1.1866  1.1800
 2603SOL    MW410180   2.491   3.832   4.097 -0.2356  0.2218 -0.7300
 2604SOL     OW10181   5.450   5.299   2.568 -0.4618  0.5554  0.3689
 2604SOL    HW210182   5.405   5.370   2.614 -0.2001  0.6258  0.5172
 2604SOL    HW310183   5.541   5.327   2.563 -0.5075  0.6127 -0.3161
 2604SOL    MW410184   5.456   5.312   2.573 -0.4540 -0.4701 -0.2752
 2605SOL     OW10185   4.167   2.878   2.651 -0.4190  0.2858  0.4056
 2605SOL    HW210186   4.074   2.865   2.667 -0.6752 -0.2863 -1.2997
 2605SOL    HW310187   4.174   2.891   2.556  1.2122  0.5693  0.5228
 2605SOL    MW410188   4.156   2.878   2.641 -0.0428 -0.1096 -0.4374
 2606SOL     OW10189   4.317   3.552   1.241  0.2778 -0.2730 -0.2133
 2606SOL    HW210190   4.357   3.498   1.173  0.4463 -0.7610  0.2649
 2606SOL    HW310191   4.224   3.534   1.235  0.4420 -1.5401  0.7158
 2606SOL    MW410192   4.310   3.543   1.232  0.4553 -0.5532 -0.0663
 2607SOL     OW10193   1.650   0.962   0.700 -0.5935 -0.2405  0.2965
 2607SOL    HW210194   1.669   0.912   0.780 -1.0982  1.4844  1.5577
 2607SOL    HW310195   1.727   1.018   0.689 -0.8206  0.0062 -0.0428
 2607SOL    MW410196   1.663   0.963   0.709  0.5471  0.1772  0.0806
 2608SOL     OW10197   5.204   4.358   5.298 -0.3589 -0.4416 -0.1160
 2608SOL    HW210198   5.206   4.269   5.263  0.1721 -0.4559 -0.0492
 2608SOL    HW310199   5.273   4.405   5.251 -0.0335 -0.3049  0.4796
 2608SOL    MW410200   5.213   4.353   5.287  0.5103 -0.6109  0.1435
 2609SOL     OW10201   2.868   4.620   4.977  0.5090 -0.9910  0.0144
 2609SOL    HW210202   2.917   4.677   4.918  1.0921 -1.1825  0.2947
 2609SOL    HW310203   2.778   4.626   4.948  0.6659 -0.4492 -0.3801
 2609SOL    MW410204   2.863   4.628   4.966 -0.2917 -0.7572 -0.1611
 2610SOL     OW10205   2.337   5.149   1.587  0.2088  0.2666  0.0865
 2610SOL    HW210206   2.310   5.211   1.654  0.0820  2.1256 -1.5771
 2610SOL    HW310207   2.294   5.181   1.507  2.5021 -0.2087 -1.4284
 2610SOL    MW410208   2.327   5.162   1.585  0.0110 -0.2674 -0.0389
 2611SOL     OW10209   0.904   5.701   5.692  0.2391  0.2440 -0.0315
 2611SOL    HW210210   0.875   5.668   5.777 -1.9843  0.6686 -0.5645
 2611SOL    HW310211   0.975   5.762   5.714  0.4216 -0.4468  1.4237
 2611SOL    MW410212   0.910   5.705   5.706  0.0034  0.6519  0.5544
 2612SOL     OW10213   3.631   0.048   2.463  0.5527  0.5844  0.8063
 2612SOL    HW210214   3.698  -0.009   2.503  1.3553  1.0313  0.1442
 2612SOL    HW310215   3.650   0.135   2.499  1.0684  0.9252 -0.2560
 2612SOL    MW410216   3.643   0.052   2.473 -1.0352  0.0072 -0.2688
 2613SOL     OW10217   0.509   1.373   2.676 -0.0405 -0.2444  0.1749
 2613SOL    HW210218   0.591   1.325   2.663  0.7185  1.1001 -0.3391
 2613SOL    HW310219   0.474   1.341   2.759  0.5196 -1.5163 -0.0594
 2613SOL    MW410220   0.515   1.363   2.685 -0.4195  0.0105 -0.1887
 2614SOL     OW10221   5.476   6.404   4.753 -0.3129 -0.6938  0.3362
 2614SOL    HW210222   5.516   6.444   4.830 -0.9333  1.0107 -0.1761
 2614SOL    HW310223   5.382   6.420   4.765 -0.4702 -0.9910 -0.4686
 2614SOL    MW410224   5.469   6.411   4.765  0.1191 -0.4342 -0.3530
 2615SOL     OW10225   3.568   0.336   4.923  0.1275 -0.1643 -0.0747
 2615SOL    HW210226   3.595   0.367   4.836 -0.7210 -0.3762 -0.4266
 2615SOL    HW310227   3.650   0.319   4.969  0.5876 -0.1549 -0.8735
 2615SOL    MW410228   3.582   0.338   4.917  0.2179 -0.0930  0.2398
 2616SOL     OW10229   2.413   5.487   1.500  0.0985  0.3450 -0.2503
 2616SOL    HW210230   2.360   5.453   1.428 -0.1810 -1.2619  0.6789
 2616SOL    HW310231   2.379   5.575   1.515 -0.6913  0.2267 -1.2316
 2616SOL    MW410232   2.402   5.494   1.492 -0.0098  0.2987 -0.7782
 2617SOL     OW10233   1.528   4.738   5.183  0.1270  0.1898  0.4344
 2617SOL    HW210234   1.495   4.826   5.200 -1.5386 -0.1668 -0.7416
 2617SOL    HW310235   1.512   4.691   5.264 -0.5724  0.5295  0.5060
 2617SOL    MW410236   1.522   4.744   5.196 -0.0626  0.3693  0.0982
 2618SOL     OW10237   1.575   2.725   1.604  0.1068 -0.4102  0.1619
 2618SOL    HW210238   1.580   2.673   1.524 -1.2307  0.1180 -0.3031
 2618SOL    HW310239   1.488   2.708   1.639  0.4290 -0.1138  1.1511
 2618SOL    MW410240   1.564   2.716   1.598  0.2204  0.2220  0.0058
 2619SOL     OW10241   2.041   3.523  -0.006  0.1697 -0.8077  0.3505
 2619SOL    HW210242   2.123   3.568  -0.025 -0.4867  0.3303  0.0906
 2619SOL    HW310243   2.063   3.460   0.063  1.1120 -0.0019  0.8111
 2619SOL    MW410244   2.054   3.520   0.001  0.0212  0.2021 -0.7039
 2620SOL     OW10245   0.826   0.505   1.436 -0.0992 -0.5708  0.0960
 2620SOL    HW210246   0.734   0.528   1.447 -0.3534 -1.1666 -0.6832
 2620SOL    HW310247   0.855   0.557   1.361  1.1631  2.2035  2.2855
 2620SOL    MW410248   0.818   0.515   1.428 -0.5301  0.5933 -0.7779
 2621SOL     OW10249   5.526   0.389   4.057  0.2439 -0.0344 -0.0865
 2621SOL    HW210250   5.598   0.330   4.079 -0.7871 -1.1980  0.2479
 2621SOL    HW310251   5.529   0.457   4.125  0.8269 -0.2385  0.0935
 2621SOL    MW410252   5.536   0.390   4.069 -0.6939 -0.4310 -0.5688
 2622SOL     OW10253   3.108   3.774   2.840  0.0892  0.2549  0.4817
 2622SOL    HW210254   3.071   3.722   2.768 -1.5580 -0.0035  1.4510
 2622SOL    HW310255   3.127   3.711   2.909 -0.6998  0.7542  1.1830
 2622SOL    MW410256   3.105   3.759   2.839 -0.0383  0.0960 -0.0746
 2623SOL     OW10257   5.164   4.034   2.953  0.2019  0.6363 -0.1402
 2623SOL    HW210258   5.068   4.037   2.946  0.1618  0.9894  0.4935
 2623SOL    HW310259   5.185   3.941   2.961  0.0126  0.4533 -1.4958
 2623SOL    MW410260   5.154   4.022   2.953 -0.2668 -0.0469  0.4808
 2624SOL     OW10261   3.069   2.071   3.970 -0.0491  0.1296  0.1714
 2624SOL    HW210262   3.067   2.036   4.059  0.3569  0.3763  0.2844
 2624SOL    HW310263   2.981   2.104   3.954 -0.1509 -0.0167  0.4430
 2624SOL    MW410264   3.057   2.071   3.979 -0.0844 -0.1175  0.1628
 2625SOL     OW10265   3.368   5.049   1.983 -0.4725 -0.6881 -0.0073
 2625SOL    HW210266   3.289   5.023   1.936 -0.4507  0.3910 -0.6967
 2625SOL    HW310267   3.378   5.142   1.962  1.7509 -1.1004 -1.1382
 2625SOL    MW410268   3.359   5.058   1.974 -0.4005  0.2998  0.3075
 2626SOL     OW10269   4.504   2.822   4.335 -0.4393 -0.0085 -0.0810
 2626SOL    HW210270   4.429   2.857   4.383 -1.1809 -1.1882 -0.3362
 2626SOL    HW310271   4.580   2.863   4.376 -1.0780 -0.5160  1.7034
 2626SOL    MW410272   4.504   2.832   4.347 -0.6933 -0.6159 -0.0443
 2627SOL     OW10273   2.013   0.334   2.791 -0.1386  0.1375 -0.9730
 2627SOL    HW210274   2.033   0.417   2.748  0.9713  0.4900  0.1420
 2627SOL    HW310275   1.985   0.359   2.879 -2.7251 -0.5347 -1.5279
 2627SOL    MW410276   2.012   0.348   2.797 -0.1080 -0.1023  0.7768
 2628SOL     OW10277   5.084   6.292   1.702 -0.3894  0.1897  0.5298
 2628SOL    HW210278   5.131   6.353   1.760  1.4875 -1.0790  0.4515
 2628SOL    HW310279   5.137   6.212   1.705 -0.9769 -0.3523 -1.9118
 2628SOL    MW410280   5.097   6.290   1.710  0.2346  0.2342 -0.1061
 2629SOL     OW10281   6.065   0.988   2.462 -0.4354 -0.3633 -0.2535
 2629SOL    HW210282   6.115   0.917   2.503  0.1777 -0.3878 -1.0085
 2629SOL    HW310283   6.034   0.950   2.380  0.3658  0.3928 -0.9253
 2629SOL    MW410284   6.068   0.973   2.456 -0.0130  0.0777  0.0789
 2630SOL     OW10285   3.423   1.536   1.643 -0.0936 -0.0376 -0.4434
 2630SOL    HW210286   3.498   1.570   1.691 -0.7178  0.2565  0.3536
 2630SOL    HW310287   3.361   1.509   1.711 -0.5318 -0.6703 -1.0820
 2630SOL    MW410288   3.424   1.537   1.658  0.2236  0.2045  0.2801
 2631SOL     OW10289   0.672   1.163   5.394 -0.3020 -0.2972 -0.3311
 2631SOL    HW210290   0.607   1.093   5.397 -0.9996  0.3005 -0.9894
 2631SOL    HW310291   0.654   1.209   5.312  0.3777  0.4313 -0.0860
 2631SOL    MW410292   0.661   1.160   5.383  1.1254 -0.1134 -0.2480
 2632SOL     OW10293   3.566   3.756   0.336 -0.0361  0.4461  0.0191
 2632SOL    HW210294   3.618   3.686   0.295 -0.7052 -1.3979  2.0936
 2632SOL    HW310295   3.517   3.795   0.264  1.1221 -0.5261 -1.3680
 2632SOL    MW410296   3.567   3.752   0.321  0.0093 -0.0331 -0.0189
 2633SOL     OW10297   0.275   3.836   3.403 -0.6843  0.2096 -0.6585
 2633SOL    HW210298   0.193   3.860   3.359 -2.1892 -0.9860  1.3479
 2633SOL    HW310299   0.283   3.899   3.474 -0.9741 -0.9113  0.3927
 2633SOL    MW410300   0.265   3.847   3.407  0.0090 -0.0215 -0.6414
 2634SOL     OW10301   2.081   0.768   1.292 -0.4390  0.3595 -0.5133
 2634SOL    HW210302   2.136   0.727   1.358  0.2828 -0.7756 -1.7726
 2634SOL    HW310303   2.108   0.860   1.292 -0.8234  0.4909  1.1102
 2634SOL    MW410304   2.092   0.775   1.301  0.7087 -0.0304  0.2787
 2635SOL     OW10305   0.921   0.218   5.747 -0.3621  0.0200  0.7108
 2635SOL    HW210306   0.881   0.171   5.820 -2.6273  1.3635  0.4123
 2635SOL    HW310307   0.848   0.254   5.697  1.1316 -0.1749 -1.8185
 2635SOL    MW410308   0.906   0.217   5.750  0.0327 -0.1091  0.2673
 2636SOL     OW10309   6.217   3.122   2.195 -0.5157 -0.3582 -0.1323
 2636SOL    HW210310   6.252   3.155   2.113 -0.7572 -0.5854 -0.3282
 2636SOL    HW310311   6.154   3.189   2.223  0.0112  0.0116  0.1809
 2636SOL    MW410312   6.213   3.135   2.188  0.1360 -0.6775  0.2138
 2637SOL     OW10313   3.454   5.008   1.715 -0.1721 -0.0156  0.2232
 2637SOL    HW210314   3.430   5.036   1.803 -0.6381  0.3685 -0.0239
 2637SOL    HW310315   3.429   5.081   1.659  0.0413 -0.2957 -0.2425
 2637SOL    MW410316   3.448   5.022   1.719  0.0154  0.1730  0.2673
 2638SOL     OW10317   3.085   3.547   6.095  0.3099 -0.1605  0.1021
 2638SOL    HW210318   3.119   3.458   6.092  0.3563 -0.1085 -1.8054
 2638SOL    HW310319   3.156   3.599   6.135  0.0757 -1.0209  1.7186
 2638SOL    MW410320   3.099   3.542   6.100 -0.0397 -0.2721 -0.3537
 2639SOL     OW10321   6.071   5.100   5.703 -0.7524  0.2362 -0.1896
 2639SOL    HW210322   6.026   5.016   5.715  0.6676 -1.0912 -3.1092
 2639SOL    HW310323   6.121   5.112   5.784 -1.6557 -1.3145  0.6426
 2639SOL    MW410324   6.072   5.090   5.715 -0.2708 -1.1364 -0.1796
 2640SOL     OW10325   5.972   4.459   3.430  0.0578 -0.2383  0.1564
 2640SOL    HW210326   6.061   4.438   3.401  0.2268 -2.2465  1.8719
 2640SOL    HW310327   5.971   4.554   3.439  1.8599 -0.1336 -0.4020
 2640SOL    MW410328   5.983   4.469   3.427  0.4139  0.1372  0.2095
 2641SOL     OW10329   0.152   3.809   0.993 -0.0795  0.4163  0.0298
 2641SOL    HW210330   0.188   3.762   1.068 -1.1975 -0.3982  0.0811
 2641SOL    HW310331   0.134   3.897   1.026 -2.5889 -0.5167  1.4195
 2641SOL    MW410332   0.155   3.814   1.007 -0.5685 -0.5940  0.0557
 2642SOL     OW10333   1.731   2.342   5.725 -0.3301  0.2046 -0.0869
 2642SOL    HW210334   1.784   2.280   5.776  0.1019 -0.3929 -1.2320
 2642SOL    HW310335   1.641   2.315   5.742 -0.1447 -0.9409 -0.7701
 2642SOL    MW410336   1.726   2.330   5.734 -0.4539 -0.2292 -0.6784
 2643SOL     OW10337   0.154   3.612   2.186  0.8566 -0.0353 -0.1327
 2643SOL    HW210338   0.074   3.661   2.203  0.0353 -1.0960 -0.8231
 2643SOL    HW310339   0.125   3.524   2.163  2.2143 -0.4363 -0.4626
 2643SOL    MW410340   0.140   3.607   2.185  0.3176 -0.2437  0.6798
 2644SOL     OW10341   4.266   5.276   0.657 -0.0621  0.0594 -0.2431
 2644SOL    HW210342   4.305   5.274   0.570 -1.4745 -0.2878 -0.8905
 2644SOL    HW310343   4.269   5.368   0.683  2.2276 -0.0980  0.2394
 2644SOL    MW410344   4.271   5.287   0.649  0.1909  0.0346  0.0464
 2645SOL     OW10345   3.330   5.082   2.941 -0.0547  0.0381 -0.0464
 2645SOL    HW210346   3.333   5.144   2.868  1.0220  0.1179  0.0501
 2645SOL    HW310347   3.420   5.050   2.949 -0.8761 -2.7942 -1.1190
 2645SOL    MW410348   3.342   5.086   2.933  0.5077  0.1808  0.6050
 2646SOL     OW10349   4.494   5.779   0.865  0.2331 -0.6252  0.3431
 2646SOL    HW210350   4.550   5.852   0.891  0.3519 -0.4628 -0.3526
 2646SOL    HW310351   4.407   5.803   0.897  0.6183 -1.0680  1.7900
 2646SOL    MW410352   4.490   5.792   0.872  0.2317  0.9107  0.6649
 2647SOL     OW10353   2.419   3.857   5.692  0.5358  0.1210  0.2506
 2647SOL    HW210354   2.469   3.900   5.622  2.0087 -0.6844  0.7570
 2647SOL    HW310355   2.486   3.815   5.747 -0.5623  0.9178  2.2945
 2647SOL    MW410356   2.434   3.857   5.690 -0.7052 -0.6722  0.9566
 2648SOL     OW10357   2.036   1.711   0.381  0.1299  0.0942 -0.1517
 2648SOL    HW210358   2.044   1.679   0.291 -2.3215  0.8815 -0.7472
 2648SOL    HW310359   2.037   1.632   0.435  0.4849 -0.4855 -0.9877
 2648SOL    MW410360   2.037   1.696   0.376 -0.7350  0.4562 -0.1676
 2649SOL     OW10361   1.910   1.065   1.871 -0.1025  0.2288  0.1723
 2649SOL    HW210362   1.844   0.996   1.866 -0.5219  0.6782 -0.9001
 2649SOL    HW310363   1.872   1.130   1.930 -1.6637  1.4789 -2.0098
 2649SOL    MW410364   1.896   1.065   1.878 -0.1790 -0.4719 -0.4945
 2650SOL     OW10365   5.220   0.797   5.309  0.3311  1.1089  0.3579
 2650SOL    HW210366   5.286   0.799   5.378  1.6080 -0.0488 -0.7713
 2650SOL    HW310367   5.265   0.832   5.232  0.2406 -1.2623 -0.8657
 2650SOL    MW410368   5.235   0.802   5.308 -0.0320  0.0230  0.0993
 2651SOL     OW10369   1.186   0.254   4.250 -0.0398  0.0624  0.0706
 2651SOL    HW210370   1.179   0.332   4.304 -0.2715  0.3821 -0.4233
 2651SOL    HW310371   1.175   0.285   4.160  2.3632 -0.1468 -0.3621
 2651SOL    MW410372   1.184   0.268   4.245 -0.1321  0.3150 -0.6829
 2652SOL     OW10373   1.001   4.775   1.770 -0.4487 -0.0545 -0.3467
 2652SOL    HW210374   1.041   4.715   1.707 -2.1629 -1.2123 -0.4244
 2652SOL    HW310375   0.998   4.725   1.852  1.1786  1.2072  0.5184
 2652SOL    MW410376   1.006   4.760   1.773  0.0187 -0.2725 -0.1080
 2653SOL     OW10377   1.689   0.057   0.732  0.1045 -0.3151  0.1957
 2653SOL    HW210378   1.783   0.042   0.717 -0.3913 -3.2367 -0.6188
 2653SOL    HW310379   1.668   0.133   0.678  2.2130  1.2215  1.3977
 2653SOL    MW410380   1.699   0.065   0.723 -0.0560  0.2093 -0.4268
 2654SOL     OW10381   4.521   4.797   3.783  0.2635 -0.2206 -0.4171
 2654SOL    HW210382   4.613   4.821   3.767  0.2228 -0.1291 -0.5158
 2654SOL    HW310383   4.472   4.845   3.716 -0.2036  2.3375  1.5858
 2654SOL    MW410384   4.527   4.806   3.772  0.1361 -0.5583 -0.6720
 2655SOL     OW10385   6.324   0.894   1.559 -0.5620 -0.2846 -0.4382
 2655SOL    HW210386   6.372   0.967   1.598  0.6657 -1.5692  0.5689
 2655SOL    HW310387   6.254   0.876   1.622 -1.6132  0.7490 -1.2696
 2655SOL    MW410388   6.321   0.902   1.573  0.5129  0.3088 -0.2087
 2656SOL     OW10389   1.368   6.323   5.209  0.2111 -0.0635 -0.4792
 2656SOL    HW210390   1.448   6.338   5.159  0.9103  2.6252  1.2425
 2656SOL    HW310391   1.348   6.408   5.248 -2.3348 -1.1601  0.8548
 2656SOL    MW410392   1.376   6.337   5.207  0.4031 -0.0482 -0.0944
 2657SOL     OW10393   0.495   2.225   3.390  0.1852  0.2410  0.2690
 2657SOL    HW210394   0.485   2.256   3.480 -0.5820  0.7453  0.0202
 2657SOL    HW310395   0.410   2.185   3.369  0.7963 -1.0958  0.2180
 2657SOL    MW410396   0.482   2.224   3.399 -0.5101  0.2928  0.1160
 2658SOL     OW10397   4.547   5.601   2.913 -0.0890 -0.1958  0.0047
 2658SOL    HW210398   4.586   5.670   2.968  0.4216  1.2862 -2.1100
 2658SOL    HW310399   4.550   5.637   2.825 -1.6716 -2.1543 -0.9016
 2658SOL    MW410400   4.553   5.615   2.909 -0.1395  0.2121  0.1549
 2659SOL     OW10401   1.392   4.320   1.722 -0.4163  0.1693  0.3256
 2659SOL    HW210402   1.412   4.320   1.815  1.3133 -1.9041  0.0472
 2659SOL    HW310403   1.448   4.252   1.685 -0.3668  1.5104 -2.3905
 2659SOL    MW410404   1.402   4.311   1.729 -0.2291  0.2194  0.3237
 2660SOL     OW10405   2.265   4.121   1.042  0.0139 -0.2622 -1.0142
 2660SOL    HW210406   2.224   4.053   1.097  1.2704  0.2203  0.5985
 2660SOL    HW310407   2.193   4.179   1.018 -0.5267 -0.3108  0.4170
 2660SOL    MW410408   2.250   4.119   1.046 -0.6126 -0.2726 -0.0814
 2661SOL     OW10409   2.203   5.433   0.511 -0.0976 -0.4112  0.1086
 2661SOL    HW210410   2.151   5.432   0.430 -1.7103  0.8773  1.0625
 2661SOL    HW310411   2.165   5.362   0.564  0.4192 -0.7261  0.0626
 2661SOL    MW410412   2.191   5.423   0.507 -0.1048  0.3333  0.1962
 2662SOL     OW10413   1.840   0.490   4.414  0.1469 -0.0725  0.0514
 2662SOL    HW210414   1.849   0.396   4.431  1.3055  0.4352  2.8293
 2662SOL    HW310415   1.890   0.531   4.484 -0.6918  2.6535 -0.8458
 2662SOL    MW410416   1.848   0.483   4.426 -0.2311 -0.4224 -0.0228
 2663SOL     OW10417   0.591   3.923   0.002 -0.1930 -0.3625  0.3678
 2663SOL    HW210418   0.616   3.855  -0.060  0.1683  0.9558 -0.9753
 2663SOL    HW310419   0.519   3.969  -0.041 -0.4316  0.1273  1.2629
 2663SOL    MW410420   0.585   3.920  -0.012  0.0474  0.1168  0.9125
 2664SOL     OW10421   1.605   4.334   0.134 -0.2838  0.0916 -0.2339
 2664SOL    HW210422   1.624   4.419   0.094 -1.4535  0.5030  0.0571
 2664SOL    HW310423   1.686   4.311   0.180 -0.0209  1.1626 -0.1300
 2664SOL    MW410424   1.618   4.343   0.135 -0.7730  0.7108 -0.4442
 2665SOL     OW10425   0.790   4.943   2.647 -0.6987  0.4836 -0.4317
 2665SOL    HW210426   0.862   4.914   2.592 -0.3277  0.9108 -0.1782
 2665SOL    HW310427   0.770   4.867   2.702 -0.7688  0.2067 -0.8352
 2665SOL    MW410428   0.797   4.929   2.647  0.0946 -0.0485 -0.2682
 2666SOL     OW10429   2.055   3.113   4.289 -0.2698 -0.4255  0.1450
 2666SOL    HW210430   2.096   3.039   4.333  0.5852 -0.9143 -1.4007
 2666SOL    HW310431   2.066   3.095   4.195 -0.3045  1.5180 -0.2788
 2666SOL    MW410432   2.062   3.101   4.282 -0.1694 -0.1315 -0.1915
 2667SOL     OW10433   4.302   4.917   4.635 -0.0451  0.1712  0.7553
 2667SOL    HW210434   4.337   4.866   4.708 -0.2163  1.2594  1.6255
 2667SOL    HW310435   4.241   4.858   4.591 -1.7458  0.2182  2.9123
 2667SOL    MW410436   4.298   4.903   4.638  0.3134 -0.4890  0.8338
 2668SOL     OW10437   3.158   0.892   1.441 -0.8139 -0.0611  0.1817
 2668SOL    HW210438   3.210   0.833   1.496  0.3804  1.0811  0.3154
 2668SOL    HW310439   3.185   0.980   1.467 -0.9509  0.5200 -1.5238
 2668SOL    MW410440   3.168   0.896   1.452 -0.5189 -0.6585 -0.1120
 2669SOL     OW10441   4.000   2.283   5.419 -0.6644 -0.2178  0.0481
 2669SOL    HW210442   3.980   2.299   5.511 -0.6335 -0.3017  0.0692
 2669SOL    HW310443   3.946   2.208   5.395 -1.1844  0.2246 -0.1848
 2669SOL    MW410444   3.990   2.276   5.428  0.1666 -0.4239 -0.3386
 2670SOL     OW10445   0.846   4.355   1.459  0.1790  0.2242  0.5803
 2670SOL    HW210446   0.895   4.316   1.531  1.2532  1.6593  0.6741
 2670SOL    HW310447   0.868   4.302   1.383  1.6583  0.6578  0.6851
 2670SOL    MW410448   0.855   4.343   1.459  0.0096 -0.3099  0.0749
 2671SOL     OW10449   0.951   4.593   0.660  0.2659 -0.2806 -0.2907
 2671SOL    HW210450   1.039   4.600   0.623  0.2870  0.5003 -0.1109
 2671SOL    HW310451   0.949   4.660   0.729 -0.5552 -0.1168 -0.4684
 2671SOL    MW410452   0.963   4.603   0.664  0.2882  0.4985  0.0822
 2672SOL     OW10453   0.513   2.587   2.389  0.1276  0.5827 -0.5012
 2672SOL    HW210454   0.538   2.666   2.437  0.3614 -0.0864  0.5151
 2672SOL    HW310455   0.595   2.542   2.372 -0.1579 -0.7267  1.2621
 2672SOL    MW410456   0.527   2.592   2.393  0.1220 -0.0040 -0.4936
 2673SOL     OW10457   4.535   3.293   0.205 -0.0816  0.0714 -0.0991
 2673SOL    HW210458   4.533   3.289   0.301  2.3342 -0.5525 -0.0185
 2673SOL    HW310459   4.503   3.381   0.184 -1.5591 -0.1082  1.1940
 2673SOL    MW410460   4.530   3.304   0.215 -0.4429 -0.4404 -0.0722
 2674SOL     OW10461   0.363   3.629   4.148 -0.2961  0.0637 -0.4519
 2674SOL    HW210462   0.407   3.545   4.132  0.2186  0.2085  0.1666
 2674SOL    HW310463   0.363   3.639   4.243  0.4057  1.1611 -0.5502
 2674SOL    MW410464   0.369   3.619   4.158  0.4442  0.2912 -0.5243
 2675SOL     OW10465   0.405   5.440   3.865  0.1200 -0.8030  0.5988
 2675SOL    HW210466   0.362   5.525   3.866  0.0739 -0.8118 -0.1290
 2675SOL    HW310467   0.494   5.458   3.895  0.3377 -0.3608 -0.2785
 2675SOL    MW410468   0.411   5.453   3.869 -0.0134 -0.4745 -0.2440
 2676SOL     OW10469   5.886   1.849   3.977 -0.5151  0.4997  0.2387
 2676SOL    HW210470   5.973   1.816   4.000 -1.2205 -1.9094 -0.2411
 2676SOL    HW310471   5.846   1.870   4.062 -0.5964 -1.5889  0.7863
 2676SOL    MW410472   5.893   1.847   3.992  0.0471  0.3254 -0.3365
 2677SOL     OW10473   5.523   5.511   5.267 -0.5446  0.2137  0.3265
 2677SOL    HW210474   5.508   5.542   5.178  0.7264  1.9193  0.6579
 2677SOL    HW310475   5.609   5.470   5.264 -1.0819 -0.9716  0.4954
 2677SOL    MW410476   5.532   5.510   5.255 -0.2346 -0.6236 -0.0452
 2678SOL     OW10477   0.349   4.861   2.368  0.2388 -0.0571  0.0268
 2678SOL    HW210478   0.327   4.802   2.440 -0.9193  0.3829  0.0626
 2678SOL    HW310479   0.432   4.900   2.394 -0.2090  0.1804  1.1914
 2678SOL    MW410480   0.357   4.858   2.381 -0.2166  0.1569 -0.1768
 2679SOL     OW10481   2.105   5.237   0.128  0.1028 -0.1331 -0.2128
 2679SOL    HW210482   2.077   5.188   0.205 -1.7512 -0.0773 -0.8091
 2679SOL    HW310483   2.198   5.214   0.118  0.5900  0.3893  2.3958
 2679SOL    MW410484   2.114   5.227   0.137 -0.0193  0.1876 -0.2307
 2680SOL     OW10485   0.080   2.925   5.782  0.3640 -0.5548 -0.1864
 2680SOL    HW210486   0.113   2.843   5.818  0.2816 -0.0879  1.0103
 2680SOL    HW310487   0.101   2.991   5.848 -0.5734  0.1956 -0.6001
 2680SOL    MW410488   0.087   2.923   5.795 -0.1009 -0.2176  0.0182
 2681SOL     OW10489   5.188   4.219   2.555  0.2427 -0.2606  0.2694
 2681SOL    HW210490   5.250   4.264   2.613  2.0563 -1.6578 -0.4634
 2681SOL    HW310491   5.149   4.289   2.502  1.6944  0.6366  0.3244
 2681SOL    MW410492   5.191   4.235   2.555 -0.1899 -0.3226 -1.0510
 2682SOL     OW10493   0.273   3.175   4.039  0.2988 -0.0846 -0.0484
 2682SOL    HW210494   0.294   3.247   4.099 -0.0510  0.1302 -0.1771
 2682SOL    HW310495   0.309   3.097   4.081 -1.5287 -0.2228  1.3793
 2682SOL    MW410496   0.280   3.174   4.053  0.2709  0.5615  0.1488
 2683SOL     OW10497   2.962   5.148   1.061 -0.3537  0.6298 -0.0319
 2683SOL    HW210498   3.044   5.186   1.092 -0.1371 -1.2154  1.8575
 2683SOL    HW310499   2.981   5.055   1.050 -1.3804  0.6489 -2.6614
 2683SOL    MW410500   2.975   5.141   1.063  0.0459 -0.1191  0.1290
 2684SOL     OW10501   1.609   1.388   0.563 -0.0317  0.5090 -0.4519
 2684SOL    HW210502   1.693   1.342   0.568  0.5022  1.5146  0.0651
 2684SOL    HW310503   1.589   1.392   0.469  0.3457 -0.0001 -0.5541
 2684SOL    MW410504   1.617   1.383   0.551  0.0813 -0.0686 -0.3684
 2685SOL     OW10505   3.052   0.310   2.162 -0.1224  0.4310 -0.0135
 2685SOL    HW210506   3.047   0.355   2.246 -0.6543  0.7903 -0.2349
 2685SOL    HW310507   3.008   0.368   2.100 -2.2076 -1.0161 -0.0220
 2685SOL    MW410508   3.045   0.323   2.165  0.0744 -0.3453 -0.3990
 2686SOL     OW10509   0.026   4.428   1.370 -0.8658  0.6094 -0.6470
 2686SOL    HW210510   0.027   4.478   1.289 -0.5127  1.6561 -0.0143
 2686SOL    HW310511   0.100   4.367   1.361  0.7089  2.3657 -0.1381
 2686SOL    MW410512   0.036   4.426   1.358  0.3537 -0.2579 -0.0442
 2687SOL     OW10513   3.231   0.021   1.487  0.1432  0.2566  0.0589
 2687SOL    HW210514   3.247   0.044   1.395 -1.7979  1.3416 -0.0661
 2687SOL    HW310515   3.208   0.104   1.529 -0.3169 -0.4263  1.2024
 2687SOL    MW410516   3.230   0.035   1.480  0.2694 -0.2432 -0.7714
 2688SOL     OW10517   4.367   2.716   2.813  0.0292  0.2680  0.0613
 2688SOL    HW210518   4.364   2.755   2.900 -0.9037  1.7489 -0.5812
 2688SOL    HW310519   4.335   2.785   2.755  0.1279 -0.8523 -1.3964
 2688SOL    MW410520   4.362   2.730   2.817  0.1264  0.3627  0.5700
 2689SOL     OW10521   3.698   3.856   2.810 -0.1455  0.6038 -0.6858
 2689SOL    HW210522   3.728   3.931   2.861  0.7892  0.6322 -1.2649
 2689SOL    HW310523   3.778   3.814   2.780 -0.6017 -1.3517  0.6277
 2689SOL    MW410524   3.713   3.860   2.813  0.2785 -0.3737 -0.3674
 2690SOL     OW10525   1.237   4.983   5.853  0.3478  0.5347  0.0566
 2690SOL    HW210526   1.231   5.061   5.908 -0.4855  0.3332  0.2679
 2690SOL    HW310527   1.330   4.960   5.854  0.5641  1.3887  0.1753
 2690SOL    MW410528   1.248   4.990   5.861 -0.0041  0.5534  0.1766
 2691SOL     OW10529   5.203   1.137   4.495  0.3344  0.2854 -0.6672
 2691SOL    HW210530   5.154   1.122   4.576 -0.0663  0.9963 -0.7673
 2691SOL    HW310531   5.239   1.051   4.472 -3.2594 -1.0006 -2.1851
 2691SOL    MW410532   5.201   1.124   4.503 -0.2334 -0.2024 -0.5583
 2692SOL     OW10533   1.496   5.460   3.979 -0.0232  0.2679 -0.8384
 2692SOL    HW210534   1.436   5.453   4.053 -1.0268  1.5198 -1.4883
 2692SOL    HW310535   1.512   5.369   3.952  0.2943 -0.2057  0.8144
 2692SOL    MW410536   1.490   5.447   3.985 -0.6508 -0.3501  0.4129
 2693SOL     OW10537   2.555   3.516   4.497 -0.0168  0.2649  0.0715
 2693SOL    HW210538   2.583   3.578   4.564  3.9657 -0.0647 -1.0515
 2693SOL    HW310539   2.540   3.570   4.419  3.4333  0.0258 -0.9009
 2693SOL    MW410540   2.557   3.531   4.495 -0.2846  0.2573  0.1341
 2694SOL     OW10541   5.977   4.118   1.093 -0.3763  0.1893  0.0802
 2694SOL    HW210542   5.971   4.167   1.175  1.1800 -3.4070  2.5879
 2694SOL    HW310543   6.071   4.116   1.073 -0.8053  3.1303 -3.4832
 2694SOL    MW410544   5.989   4.125   1.101  0.1483  0.1720  0.4648
 2695SOL     OW10545   0.496   2.924   0.021  0.2378 -0.5335  0.1737
 2695SOL    HW210546   0.550   2.878   0.085 -0.7931 -2.5225 -0.3079
 2695SOL    HW310547   0.525   2.891  -0.064  0.2258  0.5617 -0.2753
 2695SOL    MW410548   0.507   2.914   0.018 -0.5885 -0.0997  0.8169
 2696SOL     OW10549   4.343   4.450   3.629  0.0075  0.5350  0.1696
 2696SOL    HW210550   4.304   4.366   3.655 -1.7034  0.6623 -1.7284
 2696SOL    HW310551   4.390   4.479   3.707 -0.0339 -1.7793  1.1518
 2696SOL    MW410552   4.344   4.442   3.643 -0.0394 -0.2755  0.2731
 2697SOL     OW10553   1.839   0.326   0.417  0.2356  0.4264  0.5234
 2697SOL    HW210554   1.841   0.357   0.327 -1.8546 -0.8162 -0.0093
 2697SOL    HW310555   1.905   0.257   0.420 -0.5733 -0.4167 -0.4470
 2697SOL    MW410556   1.848   0.321   0.405 -0.8202  0.1339  0.0043
 2698SOL     OW10557   5.328   3.637   3.220  0.1828 -0.6999 -0.0770
 2698SOL    HW210558   5.336   3.543   3.205  1.1213 -0.6363 -0.0580
 2698SOL    HW310559   5.249   3.647   3.272 -0.1543 -1.4356 -0.4297
 2698SOL    MW410560   5.319   3.626   3.225  0.2282 -0.2783  0.1064
 2699SOL     OW10561   2.824   1.718   1.736  0.2155  0.3711  0.1103
 2699SOL    HW210562   2.815   1.813   1.732  1.4823  0.4686 -2.4908
 2699SOL    HW310563   2.736   1.685   1.723 -0.0008  1.2069 -0.6331
 2699SOL    MW410564   2.811   1.726   1.734 -0.2556 -0.3847  0.5039
 2700SOL     OW10565   2.035   5.768   5.840 -0.4082  0.3704  0.3265
 2700SOL    HW210566   1.998   5.847   5.880  0.0079  1.1938 -0.8461
 2700SOL    HW310567   2.040   5.789   5.746  0.5152 -0.7281  0.1084
 2700SOL    MW410568   2.031   5.781   5.833 -0.5032 -0.1884  0.7633
 2701SOL     OW10569   2.785   2.615   3.287 -0.6189 -0.6856 -0.1209
 2701SOL    HW210570   2.760   2.677   3.355  1.8866  2.2550 -1.6129
 2701SOL    HW310571   2.852   2.560   3.329  0.4299  0.6664  0.0679
 2701SOL    MW410572   2.791   2.616   3.302  0.5250 -0.1944  0.3988
 2702SOL     OW10573   0.948   5.138   0.096  0.1481  0.2442  0.0470
 2702SOL    HW210574   0.911   5.225   0.115  1.1180  0.6946 -0.0765
 2702SOL    HW310575   0.871   5.081   0.088 -0.5325  1.1761 -0.3030
 2702SOL    MW410576   0.933   5.142   0.097 -0.9442 -0.2870  0.4219
 2703SOL     OW10577   5.914   5.514   4.763 -0.0152 -0.4708 -0.1153
 2703SOL    HW210578   5.873   5.551   4.685  2.0083 -0.1574 -1.0819
 2703SOL    HW310579   5.913   5.419   4.747  0.8145 -0.3793 -0.7609
 2703SOL    MW410580   5.908   5.506   4.751 -0.0494 -0.2750  0.0348
 2704SOL     OW10581   2.084   1.634   4.620 -0.4932 -0.9714 -0.3338
 2704SOL    HW210582   2.139   1.662   4.694 -0.7049  0.1996 -0.5924
 2704SOL    HW310583   2.137   1.653   4.542 -1.0058 -0.4173 -0.5566
 2704SOL    MW410584   2.098   1.640   4.620 -0.1287  0.8792 -0.8413
 2705SOL     OW10585   4.036   5.167   3.689 -0.3124  0.4072  0.6557
 2705SOL    HW210586   4.047   5.087   3.637  1.1133  0.6601  0.5438
 2705SOL    HW310587   3.960   5.148   3.744  0.2545 -1.2006  0.9433
 2705SOL    MW410588   4.027   5.154   3.689 -0.1441  0.0548 -0.6303
 2706SOL     OW10589   5.952   3.768   3.068  0.3483 -0.5398 -0.8116
 2706SOL    HW210590   5.969   3.676   3.089  1.7057  0.1984  1.8155
 2706SOL    HW310591   5.902   3.801   3.143  1.1926  1.1920 -0.9555
 2706SOL    MW410592   5.948   3.761   3.081 -0.1857 -0.2029 -0.1706
 2707SOL     OW10593   5.116   4.585   1.400  0.2150  0.1281 -0.1309
 2707SOL    HW210594   5.132   4.529   1.324 -1.2242  0.1122 -0.4394
 2707SOL    HW310595   5.159   4.539   1.472 -1.5153 -1.7960 -0.2286
 2707SOL    MW410596   5.124   4.571   1.399  0.1843 -0.2410  0.0450
 2708SOL     OW10597   3.032   3.107   2.051  0.3715 -0.3700 -0.3245
 2708SOL    HW210598   2.962   3.152   2.003  0.8689  0.0120 -0.7026
 2708SOL    HW310599   3.112   3.136   2.008  0.8875  0.5375  1.1676
 2708SOL    MW410600   3.033   3.117   2.039 -0.0199  0.6259  0.2756
 2709SOL     OW10601   6.373   5.456   4.360 -0.7821  0.1074  0.2087
 2709SOL    HW210602   6.345   5.475   4.270 -0.4881 -0.2944  0.0326
 2709SOL    HW310603   6.466   5.477   4.360 -1.1635  2.0666  0.9634
 2709SOL    MW410604   6.381   5.462   4.348  0.1834  0.3628  0.3100
 2710SOL     OW10605   1.174   0.073   0.522  0.1275  0.4071 -0.2990
 2710SOL    HW210606   1.209   0.100   0.607  1.3896 -1.2152 -0.2623
 2710SOL    HW310607   1.177  -0.023   0.524 -3.5455  0.1713 -0.6734
 2710SOL    MW410608   1.179   0.064   0.533 -0.4928 -0.0049 -0.3053
 2711SOL     OW10609   0.800   4.429   4.647  0.0181  0.1957 -0.1355
 2711SOL    HW210610   0.732   4.461   4.707  0.4234 -0.2150  0.5490
 2711SOL    HW310611   0.823   4.343   4.680  2.0141  0.9717  0.6029
 2711SOL    MW410612   0.794   4.422   4.659 -0.9621  0.3307  0.2272
 2712SOL     OW10613   5.772   3.863   6.267  0.3008  0.0816 -0.0457
 2712SOL    HW210614   5.831   3.803   6.313  1.0405 -0.3085 -1.4262
 2712SOL    HW310615   5.831   3.922   6.218 -0.4299  0.0278 -1.0302
 2712SOL    MW410616   5.788   3.863   6.266  0.3177  0.1911  0.2766
 2713SOL     OW10617   3.811   2.243   1.881  0.3153  0.6243  0.0309
 2713SOL    HW210618   3.721   2.274   1.875 -0.6093 -1.7725  0.3772
 2713SOL    HW310619   3.822   2.221   1.974  0.7995 -0.2962 -0.2333
 2713SOL    MW410620   3.801   2.245   1.892  0.9062 -0.8630  0.1783
 2714SOL     OW10621   4.818   6.023   5.882  0.2066 -0.0944  0.3319
 2714SOL    HW210622   4.849   5.955   5.942  1.4801  1.1150  1.1195
 2714SOL    HW310623   4.723   6.016   5.884  0.2542 -0.6587  1.8081
 2714SOL    MW410624   4.810   6.013   5.890 -0.6501  0.3828  0.2773
 2715SOL     OW10625   5.753   1.621   6.201 -0.5803  1.0273  0.6609
 2715SOL    HW210626   5.742   1.716   6.205  0.6221  1.2676 -0.6682
 2715SOL    HW310627   5.848   1.608   6.209 -0.7836 -0.1024  1.3641
 2715SOL    MW410628   5.764   1.632   6.202 -0.3371  0.6224 -0.8498
 2716SOL     OW10629   0.600   5.152   3.057  0.2596 -0.1423  0.0847
 2716SOL    HW210630   0.580   5.245   3.045 -1.6004 -0.4389  0.6388
 2716SOL    HW310631   0.671   5.135   2.995 -0.0965  1.3937 -0.7944
 2716SOL    MW410632   0.607   5.162   3.047 -0.0418  0.0110 -0.3565
 2717SOL     OW10633   0.173   4.449   2.301  0.4068  0.3771 -0.7746
 2717SOL    HW210634   0.142   4.535   2.331  3.2940  1.5884 -0.8931
 2717SOL    HW310635   0.132   4.387   2.361  1.5775  2.2509  2.2565
 2717SOL    MW410636   0.164   4.452   2.313  0.6659  0.3598 -0.1138
 2718SOL     OW10637   3.492   0.262   0.154  0.4354 -0.4475 -0.9123
 2718SOL    HW210638   3.584   0.242   0.135  0.7937  0.1477  0.1237
 2718SOL    HW310639   3.493   0.297   0.243 -0.6695  0.4939 -1.2413
 2718SOL    MW410640   3.504   0.264   0.163 -0.1715  0.5892  0.1243
 2719SOL     OW10641   2.032   3.017   4.045  0.2294  0.5240  0.2153
 2719SOL    HW210642   1.939   3.037   4.042  0.2061  0.5425  0.8540
 2719SOL    HW310643   2.051   2.974   3.962 -0.3661  0.4272  0.1303
 2719SOL    MW410644   2.022   3.014   4.033 -0.2950 -0.5937 -0.0408
 2720SOL     OW10645   4.885   0.563   1.405 -0.1403 -0.4005 -0.1559
 2720SOL    HW210646   4.941   0.504   1.456  0.6120 -0.0673 -0.5865
 2720SOL    HW310647   4.933   0.579   1.325 -1.2647 -0.8157 -0.9405
 2720SOL    MW410648   4.898   0.557   1.401 -1.0434  0.4773 -0.0107
 2721SOL     OW10649   2.102   3.898   1.129  0.1171  0.0931  0.2368
 2721SOL    HW210650   2.138   3.810   1.124 -0.3628 -0.1081  0.1893
 2721SOL    HW310651   2.095   3.915   1.223  0.3945  0.1586  0.2455
 2721SOL    MW410652   2.106   3.888   1.141 -0.8255  0.4031  0.2882
 2722SOL     OW10653   3.748   0.848   0.438 -0.3112  0.0903 -0.0970
 2722SOL    HW210654   3.751   0.800   0.355 -1.8698  1.6406 -1.1258
 2722SOL    HW310655   3.799   0.927   0.423  0.6018 -0.2824  0.9286
 2722SOL    MW410656   3.755   0.852   0.425 -0.3339  0.1074 -0.2619
 2723SOL     OW10657   0.702   5.993   4.916 -0.4399 -0.4753 -0.2494
 2723SOL    HW210658   0.627   6.051   4.915 -1.7817 -2.0584  1.3945
 2723SOL    HW310659   0.673   5.916   4.965  1.9067 -1.6349 -0.5030
 2723SOL    MW410660   0.689   5.990   4.922  0.3526  0.5574 -0.2661
 2724SOL     OW10661   0.489   4.661   0.034 -0.0703 -0.0191 -0.4222
 2724SOL    HW210662   0.530   4.724  -0.025  1.8194 -0.6671  0.1109
 2724SOL    HW310663   0.562   4.608   0.067 -1.3527 -1.1905  0.6830
 2724SOL    MW410664   0.504   4.662   0.031  0.0805 -0.3469  0.2556
 2725SOL     OW10665   3.136   4.043   0.328  0.1032 -0.2622  0.0337
 2725SOL    HW210666   3.176   3.957   0.314  0.7757 -0.0175  0.4280
 2725SOL    HW310667   3.146   4.059   0.422  0.9072  0.6852 -0.1973
 2725SOL    MW410668   3.143   4.034   0.338  0.2017 -0.2358 -0.3369
 2726SOL     OW10669   3.345   2.791   0.221  0.4748 -0.1198 -0.3605
 2726SOL    HW210670   3.401   2.844   0.164 -0.6734  0.3699 -1.0693
 2726SOL    HW310671   3.333   2.709   0.172 -0.1250  0.1145 -0.6099
 2726SOL    MW410672   3.351   2.787   0.207  0.0755  0.0737 -0.1819
 2727SOL     OW10673   5.746   4.335   5.970 -0.7861 -0.1729 -0.2310
 2727SOL    HW210674   5.782   4.315   6.056 -2.2127 -0.3389  0.3371
 2727SOL    HW310675   5.708   4.253   5.939  0.4579 -0.3449 -1.4179
 2727SOL    MW410676   5.746   4.321   5.977 -0.2046 -0.1344 -0.4481
 2728SOL     OW10677   1.967   0.392   6.087  0.0756  0.1691 -0.5884
 2728SOL    HW210678   1.988   0.299   6.082  0.9942  0.3671 -0.6003
 2728SOL    HW310679   2.047   0.436   6.059 -0.6595  0.9500 -1.5755
 2728SOL    MW410680   1.980   0.385   6.083  0.0854 -0.2178  0.2051
 2729SOL     OW10681   2.484   6.196   6.009  0.0613 -0.2683  0.3656
 2729SOL    HW210682   2.426   6.129   5.973  0.3923  0.2467 -1.1918
 2729SOL    HW310683   2.551   6.146   6.056  1.1260 -1.1923 -1.9647
 2729SOL    MW410684   2.485   6.180   6.010  0.3709  0.0696  0.3403
 2730SOL     OW10685   2.848   4.620   4.528 -0.3886 -0.4657  0.3388
 2730SOL    HW210686   2.803   4.679   4.587  0.5868  0.6565 -0.0101
 2730SOL    HW310687   2.864   4.541   4.581 -0.3625  0.1528  1.2730
 2730SOL    MW410688   2.844   4.617   4.543  0.5145  0.0088  0.0414
 2731SOL     OW10689   3.062   1.565   3.632 -0.0008  0.2798  0.5604
 2731SOL    HW210690   3.125   1.568   3.560  0.4619  0.0086  0.9530
 2731SOL    HW310691   3.070   1.477   3.667 -0.0654  0.4821  1.0851
 2731SOL    MW410692   3.071   1.554   3.627 -0.4481  0.3329  0.5731
 2732SOL     OW10693   4.782   1.838   6.129  0.5968 -0.4316  0.5261
 2732SOL    HW210694   4.875   1.833   6.150  0.9964  0.6451 -0.8515
 2732SOL    HW310695   4.779   1.840   6.034 -0.7474  0.9406  0.5627
 2732SOL    MW410696   4.794   1.837   6.119  0.3407 -0.2839  0.4188
 2733SOL     OW10697   4.626   1.898   2.464  0.2043 -0.0650 -0.3113
 2733SOL    HW210698   4.680   1.872   2.390  0.8312 -0.0637  0.1363
 2733SOL    HW310699   4.536   1.886   2.434  0.4376  0.5979 -1.3031
 2733SOL    MW410700   4.621   1.893   2.451  0.0169 -0.0891 -0.3632
 2734SOL     OW10701   1.806   1.135   4.751 -0.0804  0.3183  0.0075
 2734SOL    HW210702   1.889   1.182   4.748  1.1930 -1.7352  0.8697
 2734SOL    HW310703   1.815   1.074   4.825 -1.4906 -1.4638 -1.1950
 2734SOL    MW410704   1.818   1.133   4.760  0.4315  0.0145  0.0961
 2735SOL     OW10705   1.401   0.091   2.040  0.1030 -0.0676  0.8735
 2735SOL    HW210706   1.420   0.176   1.999  1.3225 -1.1453 -0.9691
 2735SOL    HW310707   1.465   0.083   2.110  1.9898 -0.6379 -0.8097
 2735SOL    MW410708   1.412   0.101   2.044  0.1312  0.2026  0.2757
 2736SOL     OW10709   3.128   4.936   5.446  0.1873  0.6201 -0.4257
 2736SOL    HW210710   3.146   4.847   5.474 -0.4328  0.7540  0.4353
 2736SOL    HW310711   3.033   4.944   5.452  0.2805  1.5123  0.0489
 2736SOL    MW410712   3.118   4.925   5.450  0.6885  0.0365 -0.6003
 2737SOL     OW10713   1.657   6.266   5.714  0.0957 -0.2977 -0.3342
 2737SOL    HW210714   1.706   6.191   5.682  0.6545 -0.3594  0.6406
 2737SOL    HW310715   1.622   6.307   5.635 -1.2365 -2.2369 -0.8278
 2737SOL    MW410716   1.659   6.262   5.699  0.4946 -0.1387  0.4042
 2738SOL     OW10717   4.974   3.753   1.118 -0.1112 -0.4450  0.2450
 2738SOL    HW210718   4.932   3.749   1.204  0.4986  0.5050  0.6077
 2738SOL    HW310719   4.905   3.730   1.057 -1.0163  0.5133  0.8731
 2738SOL    MW410720   4.960   3.749   1.121  0.3786  0.5338 -0.3527
 2739SOL     OW10721   5.444   6.045   5.988 -0.2048  0.5352 -0.0066
 2739SOL    HW210722   5.459   6.110   6.057  1.5988 -0.0777  0.2497
 2739SOL    HW310723   5.381   6.086   5.930 -1.2925  1.3266  1.6623
 2739SOL    MW410724   5.438   6.059   5.990 -0.3606 -0.6247 -0.1511
 2740SOL     OW10725   0.243   2.368   0.403 -0.6016  0.0698  0.1862
 2740SOL    HW210726   0.294   2.340   0.328 -1.0066 -3.3590  1.0300
 2740SOL    HW310727   0.174   2.424   0.366  0.0301 -0.3840 -1.7717
 2740SOL    MW410728   0.241   2.372   0.388 -0.0114 -0.1257 -0.0846
 2741SOL     OW10729   0.595   2.198   4.682 -0.4868 -0.5098  0.4042
 2741SOL    HW210730   0.601   2.103   4.669 -1.9859 -0.7284  1.1110
 2741SOL    HW310731   0.589   2.208   4.777  0.0150  0.3210  0.3495
 2741SOL    MW410732   0.595   2.187   4.693 -0.0503  0.1466  0.4774
 2742SOL     OW10733   3.712   1.708   6.089 -0.4257 -0.0056  0.1967
 2742SOL    HW210734   3.763   1.650   6.032  1.0000  0.6068  0.8128
 2742SOL    HW310735   3.733   1.796   6.058 -0.9213  0.2721  0.6363
 2742SOL    MW410736   3.721   1.712   6.077 -0.3871 -0.3532 -0.0259
 2743SOL     OW10737   5.273   4.953   3.143 -0.0985 -0.4823 -0.2955
 2743SOL    HW210738   5.238   4.914   3.223  1.0653 -0.0727  0.4340
 2743SOL    HW310739   5.200   4.950   3.081 -1.2270 -0.2317  0.9733
 2743SOL    MW410740   5.259   4.947   3.145 -0.2021 -0.2104 -0.4305
 2744SOL     OW10741   2.448   0.220   3.579 -0.1083  0.1264 -0.2363
 2744SOL    HW210742   2.373   0.267   3.614 -0.1589  0.8640 -1.2918
 2744SOL    HW310743   2.456   0.142   3.634 -1.9489 -0.2227 -0.4254
 2744SOL    MW410744   2.439   0.216   3.591 -0.0624  0.1058 -0.9844
 2745SOL     OW10745   0.326   1.380   4.212 -0.1221  0.4717  0.0530
 2745SOL    HW210746   0.360   1.358   4.125  0.1808  1.7279 -0.1749
 2745SOL    HW310747   0.383   1.452   4.242  0.4297 -0.6207  1.7440
 2745SOL    MW410748   0.338   1.387   4.204  0.3160  0.3277 -0.4677
 2746SOL     OW10749   5.155   1.382   2.599 -0.0294 -0.1614  0.5603
 2746SOL    HW210750   5.129   1.435   2.523  2.0797  0.4031  0.1710
 2746SOL    HW310751   5.109   1.422   2.673  0.3946  1.3380  0.0490
 2746SOL    MW410752   5.145   1.394   2.599  0.2509  0.0103 -0.0197
 2747SOL     OW10753   2.037   5.955  -0.006 -0.5525 -0.2506 -0.2463
 2747SOL    HW210754   2.046   5.896  -0.081 -0.5927 -0.3734 -0.1544
 2747SOL    HW310755   1.955   5.929   0.036 -0.9445  0.3482 -0.6221
 2747SOL    MW410756   2.028   5.944  -0.010 -0.1456 -0.1385  0.2128
 2748SOL     OW10757   0.519   3.227   4.341  0.3379 -0.4476 -0.3416
 2748SOL    HW210758   0.538   3.156   4.403  0.6487  1.6114  2.0940
 2748SOL    HW310759   0.425   3.242   4.351 -0.2255 -1.9535 -2.6050
 2748SOL    MW410760   0.509   3.220   4.351  0.2953 -0.6701 -0.3774
 2749SOL     OW10761   0.793   4.903   0.108  0.4588 -0.3242 -0.1867
 2749SOL    HW210762   0.861   4.842   0.138 -0.1901 -0.7063  0.5679
 2749SOL    HW310763   0.732   4.908   0.182  0.3867  1.0847 -0.3300
 2749SOL    MW410764   0.794   4.895   0.122  0.0764  0.0310  0.1268
 2750SOL     OW10765   1.613   2.544   0.235  0.5690 -0.2880 -0.4772
 2750SOL    HW210766   1.572   2.502   0.311 -0.6381  0.1846 -0.8494
 2750SOL    HW310767   1.542   2.593   0.193  1.2042 -0.5916 -1.9571
 2750SOL    MW410768   1.599   2.545   0.239 -0.1900  0.6489 -0.7468
 2751SOL     OW10769   0.886   3.652   3.012 -0.5640  0.2736 -0.1219
 2751SOL    HW210770   0.862   3.694   3.094 -0.7620  1.6956 -0.8624
 2751SOL    HW310771   0.949   3.712   2.972  1.0952 -1.3818 -0.1036
 2751SOL    MW410772   0.891   3.665   3.017  0.2275  0.1749 -0.3009
 2752SOL     OW10773   1.320   3.888   4.504 -0.0087 -0.1212 -0.1682
 2752SOL    HW210774   1.256   3.898   4.575  0.5610 -1.5122  0.5667
 2752SOL    HW310775   1.373   3.813   4.529  1.6738  0.7455 -0.9704
 2752SOL    MW410776   1.319   3.880   4.517  0.3363  0.8522  0.1025
 2753SOL     OW10777   5.467   5.475   3.425  0.1229  0.2476 -0.0341
 2753SOL    HW210778   5.452   5.398   3.371  0.4429  0.2145 -0.0748
 2753SOL    HW310779   5.490   5.440   3.511 -2.4646  0.2691  0.7558
 2753SOL    MW410780   5.468   5.460   3.429  0.5038 -0.3238  0.1287
 2754SOL     OW10781   4.891   2.477   3.722  0.0428  0.0999  0.3168
 2754SOL    HW210782   4.909   2.489   3.629  1.9879  1.1049  0.7765
 2754SOL    HW310783   4.843   2.556   3.748 -1.5592 -0.7152 -0.0395
 2754SOL    MW410784   4.887   2.489   3.713  0.0967 -0.1151 -0.1999
 2755SOL     OW10785   0.911   1.219   6.313  0.0034  0.1136 -0.3056
 2755SOL    HW210786   0.819   1.221   6.287  0.0167 -2.5496 -0.8176
 2755SOL    HW310787   0.916   1.151   6.379  1.6380  0.1399 -0.3671
 2755SOL    MW410788   0.899   1.210   6.318 -0.5257 -0.0462  0.0157
 2756SOL     OW10789   3.300   4.108   5.644  0.4801  0.4013 -0.0979
 2756SOL    HW210790   3.216   4.079   5.609  0.3182  2.2428 -1.3918
 2756SOL    HW310791   3.360   4.104   5.570  0.8701  1.5601  0.1314
 2756SOL    MW410792   3.297   4.104   5.630 -0.1967  0.0418 -0.5069
 2757SOL     OW10793   0.790   2.951   3.213  0.4633  0.1736 -0.0693
 2757SOL    HW210794   0.834   3.029   3.179  0.8637 -0.2256 -0.4808
 2757SOL    HW310795   0.812   2.882   3.150  0.6245 -0.4125  0.6132
 2757SOL    MW410796   0.799   2.952   3.200 -0.0823  0.0608  0.2241
 2758SOL     OW10797   3.528   6.098   0.623  0.1552 -0.1527  0.4110
 2758SOL    HW210798   3.595   6.030   0.630  0.0484 -0.1469  1.5835
 2758SOL    HW310799   3.459   6.058   0.570  0.5103 -0.6227  0.2970
 2758SOL    MW410800   3.528   6.083   0.617 -0.7064 -0.2158 -0.1519
 2759SOL     OW10801   2.668   1.661   2.773 -0.5348 -0.0643  0.6201
 2759SOL    HW210802   2.741   1.685   2.831 -0.6937  1.2174  0.3083
 2759SOL    HW310803   2.607   1.734   2.780 -1.1050 -0.4465 -0.2685
 2759SOL    MW410804   2.670   1.674   2.782  0.1736  0.1605  0.0981
 2760SOL     OW10805   4.048   6.016   3.167 -0.4055  0.6117  0.3705
 2760SOL    HW210806   4.043   6.049   3.257  1.0856  0.0738  0.6819
 2760SOL    HW310807   4.084   6.089   3.117  0.1719  0.4272  0.5078
 2760SOL    MW410808   4.052   6.030   3.172  0.6282 -0.2352 -0.8268
 2761SOL     OW10809   1.404   2.340   1.845 -0.0650  0.2337 -0.2631
 2761SOL    HW210810   1.324   2.376   1.807 -0.2286  1.1982  0.9238
 2761SOL    HW310811   1.472   2.404   1.823  0.8501 -1.4835 -2.9039
 2761SOL    MW410812   1.403   2.353   1.837  1.0042 -0.8645  0.4265
 2762SOL     OW10813   2.040   4.652   1.090 -0.0831 -0.2900 -0.5172
 2762SOL    HW210814   2.133   4.630   1.087 -0.0705 -0.2027 -0.7729
 2762SOL    HW310815   2.037   4.746   1.075 -0.0659  0.0940  1.5772
 2762SOL    MW410816   2.052   4.661   1.088 -0.2247 -0.3202  0.4545
 2763SOL     OW10817   2.355   1.003   1.807  0.4834 -0.7094 -0.3456
 2763SOL    HW210818   2.401   1.080   1.839 -1.0256  0.0049  0.1689
 2763SOL    HW310819   2.425   0.941   1.786  1.6825  0.4326  0.1361
 2763SOL    MW410820   2.370   1.005   1.809 -0.1231  0.3493 -0.2451
 2764SOL     OW10821   4.270   6.098   3.871 -0.4067  0.2238  0.3487
 2764SOL    HW210822   4.217   6.029   3.833 -0.8794  0.6090  0.2948
 2764SOL    HW310823   4.360   6.068   3.862 -0.5039  0.3113 -1.0973
 2764SOL    MW410824   4.275   6.085   3.865  0.5866  0.2274 -0.2893
 2765SOL     OW10825   3.815   1.589   5.687  0.3320  0.4366  0.1467
 2765SOL    HW210826   3.873   1.660   5.659 -0.6558  0.6156 -1.6077
 2765SOL    HW310827   3.838   1.574   5.779  1.5334  2.0597  0.1624
 2765SOL    MW410828   3.825   1.597   5.695 -0.0118  0.2374  0.3911
 2766SOL     OW10829   1.515   1.994   6.157  0.0925  0.0180  0.4936
 2766SOL    HW210830   1.425   2.026   6.168  0.0357  0.2063 -0.4064
 2766SOL    HW310831   1.543   1.970   6.245 -0.0187  2.1492  1.1568
 2766SOL    MW410832   1.507   1.995   6.170 -0.0568 -0.4444 -0.1296
 2767SOL     OW10833   2.953   0.307   5.988 -0.0973  0.1874 -0.1007
 2767SOL    HW210834   2.908   0.240   5.937 -1.3280 -0.3061  1.5454
 2767SOL    HW310835   2.997   0.362   5.922  3.1055 -3.5556 -1.5285
 2767SOL    MW410836   2.953   0.305   5.972 -0.5946 -0.6767 -0.1768
 2768SOL     OW10837   3.356   2.522   1.674 -0.4349  0.5205 -0.2012
 2768SOL    HW210838   3.439   2.557   1.708  0.2700 -2.0604  0.9271
 2768SOL    HW310839   3.294   2.535   1.746  0.4415 -2.6087  1.2840
 2768SOL    MW410840   3.359   2.529   1.688 -1.3173 -0.3609 -0.3372
 2769SOL     OW10841   1.081   1.562   1.673 -0.1541 -0.1492  0.0659
 2769SOL    HW210842   1.103   1.548   1.765 -0.0118  0.9825  0.2196
 2769SOL    HW310843   1.119   1.487   1.627 -1.7868 -1.6886  1.1253
 2769SOL    MW410844   1.089   1.550   1.679  0.0735 -0.2856  0.5324
 2770SOL     OW10845   0.435   0.162   4.099 -0.0663 -0.4096 -0.0247
 2770SOL    HW210846   0.469   0.164   4.010 -0.2612  2.0180 -0.1073
 2770SOL    HW310847   0.340   0.162   4.089 -0.1557 -2.6718  0.2327
 2770SOL    MW410848   0.427   0.162   4.086 -0.2341 -0.3279  0.3296
 2771SOL     OW10849   5.778   6.179   4.805 -0.1577  0.8528 -0.4835
 2771SOL    HW210850   5.859   6.204   4.849 -1.0304  2.2371  0.4124
 2771SOL    HW310851   5.786   6.215   4.717  0.7867 -0.2829 -0.8912
 2771SOL    MW410852   5.790   6.187   4.799 -0.7461  0.3556  0.1099
 2772SOL     OW10853   3.585   2.428   6.230  0.1044  0.5654 -0.4368
 2772SOL    HW210854   3.640   2.447   6.154  0.1602 -0.3250 -0.6281
 2772SOL    HW310855   3.622   2.347   6.267  0.3372  1.2047  0.7793
 2772SOL    MW410856   3.597   2.420   6.225  0.1794 -0.1536  0.1361
 2773SOL     OW10857   5.191   1.207   5.742  0.4758 -0.2384  0.7593
 2773SOL    HW210858   5.182   1.291   5.787 -0.2705 -0.4429  0.9995
 2773SOL    HW310859   5.279   1.176   5.766  1.3652  1.1527 -0.5157
 2773SOL    MW410860   5.202   1.214   5.751  0.2071  0.6669 -0.0754
 2774SOL     OW10861   4.731   5.639   2.243 -0.1749 -0.2781 -0.0227
 2774SOL    HW210862   4.757   5.673   2.157 -0.0898  1.5820  0.7084
 2774SOL    HW310863   4.758   5.547   2.241 -1.4944 -0.7026 -2.5259
 2774SOL    MW410864   4.738   5.631   2.231 -0.3303 -0.3197 -0.3950
 2775SOL     OW10865   1.156   1.320   5.664 -0.0433  0.0268  0.0946
 2775SOL    HW210866   1.089   1.298   5.729 -0.2539  2.0201  0.6049
 2775SOL    HW310867   1.220   1.371   5.713  0.1210  1.0218 -1.1191
 2775SOL    MW410868   1.156   1.324   5.679 -0.1655 -0.6855 -0.7589
 2776SOL     OW10869   5.416   5.801   6.252  0.1510 -0.3371 -0.8076
 2776SOL    HW210870   5.495   5.843   6.285 -0.6036 -0.8752  2.0150
 2776SOL    HW310871   5.446   5.747   6.179  1.7600  2.0242 -2.0181
 2776SOL    MW410872   5.430   5.800   6.247 -0.2553 -0.0565  0.1215
 2777SOL     OW10873   4.342   5.638   1.114 -0.4051  0.2207  0.2481
 2777SOL    HW210874   4.404   5.601   1.052 -2.8588  0.3603 -2.5213
 2777SOL    HW310875   4.377   5.723   1.138  1.3584 -0.5012  0.3496
 2777SOL    MW410876   4.355   5.644   1.109 -0.4225 -0.7064  0.3315
 2778SOL     OW10877   0.942   2.659   2.680 -0.9248 -0.4488  0.4983
 2778SOL    HW210878   0.929   2.659   2.585  0.5741 -1.4159  0.2596
 2778SOL    HW310879   0.921   2.748   2.707  0.6151  0.4384 -1.0571
 2778SOL    MW410880   0.937   2.671   2.671 -0.1280  0.3326  0.1220
 2779SOL     OW10881   2.842   0.363   5.462 -0.0231  0.0939 -0.3053
 2779SOL    HW210882   2.748   0.368   5.446 -0.0081  0.2160 -0.3585
 2779SOL    HW310883   2.878   0.440   5.417 -0.0273  0.6601  0.6226
 2779SOL    MW410884   2.835   0.374   5.454 -0.5810 -0.2462 -0.7050
 2780SOL     OW10885   0.342   5.454   2.061 -0.0872  0.2811  0.0124
 2780SOL    HW210886   0.353   5.545   2.089 -0.7784 -0.0238  1.3445
 2780SOL    HW310887   0.251   5.433   2.081 -0.1250 -0.5055 -0.9185
 2780SOL    MW410888   0.332   5.463   2.068 -0.2117  0.0982  0.2280
 2781SOL     OW10889   2.884   3.365   2.918  0.4284  0.5256  1.2538
 2781SOL    HW210890   2.861   3.458   2.923 -0.4064  0.3903  0.2442
 2781SOL    HW310891   2.858   3.338   2.830 -0.9749 -1.0761  2.0893
 2781SOL    MW410892   2.877   3.374   2.907  0.4232  0.5523 -0.1810
 2782SOL     OW10893   3.483   4.141   0.079  0.1410 -0.4793 -0.3535
 2782SOL    HW210894   3.451   4.052   0.093 -0.8716 -0.2674 -1.1489
 2782SOL    HW310895   3.497   4.147  -0.016  0.3076  0.1627 -0.2932
 2782SOL    MW410896   3.480   4.130   0.068 -0.7170 -0.9853  0.6971
 2783SOL     OW10897   2.709   2.749   3.540  0.6549 -0.2290  0.0315
 2783SOL    HW210898   2.709   2.667   3.589 -0.4651 -0.6383 -0.6236
 2783SOL    HW310899   2.747   2.813   3.600 -1.5627 -0.4954  1.8378
 2783SOL    MW410900   2.714   2.747   3.554  0.6222  0.3059 -0.4060
 2784SOL     OW10901   1.243   2.125   4.310 -0.6202  0.5807  0.9366
 2784SOL    HW210902   1.157   2.112   4.271 -0.5526 -0.5325  1.1217
 2784SOL    HW310903   1.278   2.202   4.266 -1.4115  0.6134  0.3412
 2784SOL    MW410904   1.236   2.133   4.299  0.3625 -0.2687  0.2642
 2785SOL     OW10905   1.095   5.335   1.639  0.0008  0.0302  0.4726
 2785SOL    HW210906   1.087   5.364   1.548  0.4731  0.7843  0.6544
 2785SOL    HW310907   1.103   5.240   1.634  2.8357  0.2300 -0.5244
 2785SOL    MW410908   1.095   5.327   1.626  0.1461  0.3077  0.3860
 2786SOL     OW10909   2.945   5.990   2.770  0.7748  0.4439  0.4928
 2786SOL    HW210910   2.964   6.078   2.801 -2.2424  1.1920  0.5513
 2786SOL    HW310911   2.888   5.952   2.837 -2.8200  0.7367 -2.0784
 2786SOL    MW410912   2.940   5.997   2.783  0.0348  0.4088 -0.1444
 2787SOL     OW10913   0.078   1.252   1.957 -0.4235  0.2176  0.1996
 2787SOL    HW210914   0.102   1.179   2.013 -0.1125  0.6551  0.6454
 2787SOL    HW310915   0.009   1.217   1.900  0.7698 -0.8722 -0.6332
 2787SOL    MW410916   0.072   1.238   1.957  1.0359  0.1346  0.5264
 2788SOL     OW10917   2.763   1.621   2.485 -0.1631  0.5523 -0.8568
 2788SOL    HW210918   2.679   1.626   2.441 -0.1976 -0.0675 -0.8734
 2788SOL    HW310919   2.741   1.613   2.578 -0.3015 -3.2100 -1.0538
 2788SOL    MW410920   2.749   1.621   2.492 -0.2299 -0.0340  0.3579
 2789SOL     OW10921   1.245   5.206   5.350  0.0086 -0.4782  0.0741
 2789SOL    HW210922   1.171   5.230   5.406 -0.6207  2.8986 -1.9614
 2789SOL    HW310923   1.323   5.231   5.399 -0.5603  3.4509 -0.7245
 2789SOL    MW410924   1.246   5.212   5.364  0.1161  0.3956  0.3062
 2790SOL     OW10925   0.919   4.236   1.226 -0.1105  0.6712  0.2465
 2790SOL    HW210926   0.859   4.296   1.183  0.3769  0.6076 -0.5285
 2790SOL    HW310927   0.884   4.149   1.207  0.5660  0.6056 -0.7356
 2790SOL    MW410928   0.906   4.232   1.218 -0.3161 -0.5909 -0.1242
 2791SOL     OW10929   6.336   1.805   6.382 -0.1913  0.6894 -0.6897
 2791SOL    HW210930   6.402   1.755   6.334  0.3925  1.7985 -1.0798
 2791SOL    HW310931   6.253   1.785   6.337  0.3028  1.4780 -2.0141
 2791SOL    MW410932   6.333   1.796   6.370  0.0834 -0.3620  0.6392
 2792SOL     OW10933   1.787   2.394   5.133  0.2049 -0.0951 -0.5593
 2792SOL    HW210934   1.745   2.425   5.213 -1.0535 -1.4020 -0.6759
 2792SOL    HW310935   1.817   2.306   5.153  3.6286  0.9955 -0.2672
 2792SOL    MW410936   1.785   2.387   5.146  0.3746  0.6560 -0.1586
 2793SOL     OW10937   5.195   4.079   5.227 -0.1387  0.4102 -0.0063
 2793SOL    HW210938   5.141   4.046   5.299  0.0456  1.7633  0.7800
 2793SOL    HW310939   5.261   4.010   5.213 -1.3627 -0.7617 -0.2417
 2793SOL    MW410940   5.197   4.065   5.235 -0.2808  0.4185  0.2282
 2794SOL     OW10941   6.309   1.454   1.645  0.3207  0.1696 -0.1725
 2794SOL    HW210942   6.242   1.427   1.582 -0.1302 -0.8366  0.7116
 2794SOL    HW310943   6.263   1.457   1.729  0.6929  2.4135 -0.0100
 2794SOL    MW410944   6.294   1.451   1.648 -0.2218 -0.0037  1.0972
 2795SOL     OW10945   2.275   6.208   3.702 -0.3781 -0.6696 -0.5489
 2795SOL    HW210946   2.256   6.261   3.780  0.7776  0.1809 -0.8180
 2795SOL    HW310947   2.189   6.178   3.673 -0.7250 -2.3953  1.9574
 2795SOL    MW410948   2.261   6.211   3.708  0.2982  0.6916 -0.2005
 2796SOL     OW10949   0.147   4.102   1.074  0.1523  0.0833 -0.4439
 2796SOL    HW210950   0.159   4.136   0.985 -2.7738  1.8188 -0.3251
 2796SOL    HW310951   0.183   4.170   1.130  0.9545 -0.4824 -0.2578
 2796SOL    MW410952   0.153   4.116   1.070 -0.8204 -0.3385  0.8265
 2797SOL     OW10953   1.850   2.639   1.457  0.1887  0.2944 -0.1772
 2797SOL    HW210954   1.864   2.666   1.548  1.4942 -0.8502 -0.0088
 2797SOL    HW310955   1.929   2.589   1.434 -0.7565 -0.6828 -1.4581
 2797SOL    MW410956   1.862   2.636   1.466 -0.0358  0.3234 -1.1998
 2798SOL     OW10957   3.906   2.026   1.711 -0.1126 -0.3272 -0.1738
 2798SOL    HW210958   3.878   2.110   1.747 -2.7175 -1.6428  1.1577
 2798SOL    HW310959   3.890   2.033   1.617  0.6947  0.9762 -0.2396
 2798SOL    MW410960   3.900   2.038   1.703  0.1803 -0.4546  0.0620
 2799SOL     OW10961   5.260   5.449   3.746  0.0475 -0.1780 -0.0013
 2799SOL    HW210962   5.221   5.368   3.714 -0.7049 -0.5614  1.7606
 2799SOL    HW310963   5.339   5.421   3.792 -0.6119 -0.0279  1.2677
 2799SOL    MW410964   5.265   5.435   3.748  0.0969  0.4540 -0.0386
 2800SOL     OW10965   1.197   4.637   6.330  0.1196 -0.6247 -0.5106
 2800SOL    HW210966   1.203   4.624   6.425  0.4350 -0.0269 -0.4475
 2800SOL    HW310967   1.136   4.568   6.301 -1.5010  0.3538  0.3774
 2800SOL    MW410968   1.189   4.626   6.339 -0.1881 -0.1787 -0.7111
 2801SOL     OW10969   1.532   4.216   3.781 -0.0505  0.4463  0.4333
 2801SOL    HW210970   1.560   4.290   3.836 -0.3356  0.8988 -0.0206
 2801SOL    HW310971   1.469   4.168   3.835  1.5143 -0.5532  1.4551
 2801SOL    MW410972   1.528   4.220   3.796 -0.0364 -0.2545  1.2806
 2802SOL     OW10973   4.522   6.290   1.648 -0.1896  0.2533 -0.3746
 2802SOL    HW210974   4.426   6.287   1.648 -0.3479  2.9093  0.6691
 2802SOL    HW310975   4.548   6.220   1.707 -1.4309 -0.9022 -1.1375
 2802SOL    MW410976   4.512   6.281   1.655 -0.5136 -0.5104 -0.0048
 2803SOL     OW10977   4.593   5.012   6.217  0.3386  0.0389  0.6295
 2803SOL    HW210978   4.526   5.027   6.284 -0.4548 -1.2864  0.1683
 2803SOL    HW310979   4.568   4.929   6.177  1.1173  0.5281 -0.9365
 2803SOL    MW410980   4.581   5.003   6.220  0.2358 -0.6156  0.0250
 2804SOL     OW10981   2.186   1.973   4.308 -0.9298 -0.4690 -0.0477
 2804SOL    HW210982   2.102   1.978   4.354 -0.7069 -1.2186  0.4503
 2804SOL    HW310983   2.230   1.897   4.345  0.7030  0.8608  0.9343
 2804SOL    MW410984   2.181   1.964   4.319 -0.2139 -0.1989  0.5067
 2805SOL     OW10985   5.847   1.424   1.389 -0.7547 -0.2638 -0.1635
 2805SOL    HW210986   5.780   1.374   1.341 -1.4803  0.1184  0.4202
 2805SOL    HW310987   5.797   1.474   1.454  0.1803 -0.7008  0.9380
 2805SOL    MW410988   5.831   1.424   1.391  0.1186  0.2126 -0.2088
 2806SOL     OW10989   6.116   5.095   3.422 -0.6320 -0.3017 -0.2398
 2806SOL    HW210990   6.078   5.049   3.346  0.7825 -1.1052 -0.5078
 2806SOL    HW310991   6.210   5.100   3.402 -0.6697  2.6013 -0.1220
 2806SOL    MW410992   6.124   5.089   3.409  0.7118 -0.0709  0.2546
 2807SOL     OW10993   4.465   1.357   2.870 -0.1715 -0.0207  0.0027
 2807SOL    HW210994   4.490   1.360   2.778 -1.8453  2.7397 -0.4805
 2807SOL    HW310995   4.434   1.267   2.883 -0.6930 -0.2641 -2.3903
 2807SOL    MW410996   4.464   1.345   2.860 -0.9294 -0.0575  0.0776
 2808SOL     OW10997   5.240   0.525   1.814  0.4100  0.0222  0.1258
 2808SOL    HW210998   5.291   0.552   1.737  0.4279 -1.0886 -0.2789
 2808SOL    HW310999   5.300   0.536   1.887  0.8891 -0.2685 -0.2129
 2808SOL    MW411000   5.255   0.530   1.813 -0.7601 -0.1010 -0.1806
 2809SOL     OW11001   6.264   2.888   3.845  0.4663 -0.0205  0.1903
 2809SOL    HW211002   6.289   2.858   3.933  0.0116 -0.6190  0.1188
 2809SOL    HW311003   6.178   2.850   3.830  1.4466 -1.7746 -1.4024
 2809SOL    MW411004   6.256   2.879   3.855 -0.0285 -0.1536  0.1864
 2810SOL     OW11005   6.182   3.428   6.180 -0.2508  0.2718 -0.3995
 2810SOL    HW211006   6.239   3.481   6.236  0.2492 -1.0351  0.3776
 2810SOL    HW311007   6.117   3.490   6.146 -0.0847  1.2554  0.9976
 2810SOL    MW411008   6.181   3.443   6.183 -0.0573 -0.3756  0.2168
 2811SOL     OW11009   1.049   4.594   1.559  0.0292  0.6985  0.7731
 2811SOL    HW211010   1.045   4.506   1.597 -0.1845 -0.3392 -1.4758
 2811SOL    HW311011   0.969   4.601   1.507  0.6061  1.7680 -0.0096
 2811SOL    MW411012   1.038   4.583   1.557  0.1026  0.1163  0.2851
 2812SOL     OW11013   1.433   4.743   1.338 -0.0088 -0.0950 -0.3305
 2812SOL    HW211014   1.449   4.649   1.347  0.7640  0.2233  3.2099
 2812SOL    HW311015   1.346   4.749   1.299  0.7881 -2.1860 -2.6578
 2812SOL    MW411016   1.424   4.732   1.334 -0.5698  0.3614 -0.4879
 2813SOL     OW11017   0.496   3.678   3.501  0.2632 -0.2892  0.1821
 2813SOL    HW211018   0.461   3.590   3.515 -1.1390  0.1997  0.0090
 2813SOL    HW311019   0.419   3.730   3.475  1.1543  0.8598 -0.2508
 2813SOL    MW411020   0.481   3.674   3.500 -0.1233  0.4809  0.4510
 2814SOL     OW11021   4.198   3.949   1.828  0.1364 -0.8564 -0.0886
 2814SOL    HW211022   4.182   3.867   1.874  0.3286 -1.6051 -1.3214
 2814SOL    HW311023   4.154   4.016   1.881  1.0497 -1.5463  1.6359
 2814SOL    MW411024   4.190   3.947   1.841  0.2369  0.0601  0.6329
 2815SOL     OW11025   1.878   1.737   1.780 -0.6155 -0.3312 -0.0933
 2815SOL    HW211026   1.793   1.695   1.769 -0.5390  0.0355 -3.0901
 2815SOL    HW311027   1.862   1.810   1.839 -3.1866  1.4624 -2.6996
 2815SOL    MW411028   1.865   1.741   1.786 -0.2210 -0.1853  0.1550
 2816SOL     OW11029   2.929   5.513   4.751  0.1456  0.0855  0.2122
 2816SOL    HW211030   3.020   5.496   4.776 -0.5643 -1.2394  2.0522
 2816SOL    HW311031   2.912   5.603   4.780  0.4185 -0.2029  1.2992
 2816SOL    MW411032   2.939   5.522   4.758 -0.0625 -0.6026 -0.0434
 2817SOL     OW11033   4.720   6.318   2.968 -0.2970 -0.5822 -0.4000
 2817SOL    HW211034   4.771   6.396   2.989 -3.0286  1.3993 -0.6133
 2817SOL    HW311035   4.772   6.273   2.901  0.0497  2.6587 -2.5143
 2817SOL    MW411036   4.734   6.322   2.962 -0.1906  0.0146 -0.9435
 2818SOL     OW11037   3.748   3.072   6.305  0.0069  0.4689 -0.1703
 2818SOL    HW211038   3.773   3.165   6.308  0.6979  0.3389  3.7513
 2818SOL    HW311039   3.689   3.061   6.380 -0.6077 -2.1611 -0.9372
 2818SOL    MW411040   3.743   3.083   6.315  0.0740 -0.2521  0.0576
 2819SOL     OW11041   0.810   0.121   1.150  0.3083  0.1463  0.0062
 2819SOL    HW211042   0.747   0.160   1.090 -1.1495 -0.5644  1.0205
 2819SOL    HW311043   0.829   0.190   1.213  1.7840  0.8694 -1.1546
 2819SOL    MW411044   0.804   0.135   1.150  0.7946 -0.3088  0.1016
 2820SOL     OW11045   3.071   4.845   2.098 -0.1602 -0.5522  0.0308
 2820SOL    HW211046   3.002   4.781   2.081 -2.1996  1.6963 -0.7900
 2820SOL    HW311047   3.085   4.889   2.015 -0.8007  1.8411  1.1054
 2820SOL    MW411048   3.064   4.843   2.085  0.8733  0.5136  0.4995
 2821SOL     OW11049   3.092   0.470   1.468  0.3232 -0.2405 -0.6906
 2821SOL    HW211050   3.000   0.488   1.490  0.4038  1.8283 -1.7544
 2821SOL    HW311051   3.089   0.431   1.381  0.4699  0.3013 -0.9416
 2821SOL    MW411052   3.079   0.467   1.460  0.3004 -0.3825 -0.1875
 2822SOL     OW11053   5.439   6.280   1.301 -0.0881  0.5562  0.6140
 2822SOL    HW211054   5.470   6.256   1.214  1.2098 -1.1017  1.4785
 2822SOL    HW311055   5.427   6.375   1.297  0.0265  0.5316 -1.3164
 2822SOL    MW411056   5.441   6.290   1.289 -0.1197 -0.4548  0.0350
 2823SOL     OW11057   2.655   6.348   4.181 -0.3337 -0.4375 -0.2928
 2823SOL    HW211058   2.673   6.275   4.122 -0.3950 -0.3747 -0.3884
 2823SOL    HW311059   2.736   6.358   4.231 -0.5256 -0.9541  0.1349
 2823SOL    MW411060   2.668   6.340   4.180  0.1925 -0.3300  0.0614
 2824SOL     OW11061   4.891   4.954   5.620  0.3877 -0.0665 -0.4063
 2824SOL    HW211062   4.898   4.971   5.526  0.5034 -0.1198 -0.4083
 2824SOL    HW311063   4.932   4.868   5.631  1.1500  0.3169 -0.1881
 2824SOL    MW411064   4.897   4.945   5.609  0.2109  0.0521  0.3646
 2825SOL     OW11065   1.184   5.749   3.927 -0.1458 -0.0998  0.6000
 2825SOL    HW211066   1.146   5.836   3.937  1.3930  0.4767  1.6685
 2825SOL    HW311067   1.264   5.751   3.979  1.2125 -1.3670 -1.3206
 2825SOL    MW411068   1.190   5.760   3.935  0.2119  0.1921  0.3466
 2826SOL     OW11069   0.497   5.800   0.804  0.3348  0.1035 -0.3756
 2826SOL    HW211070   0.407   5.834   0.808  0.3636  0.2492 -0.9675
 2826SOL    HW311071   0.541   5.853   0.739  0.2944 -1.2338 -1.5480
 2826SOL    MW411072   0.491   5.811   0.796  0.0857  0.1491  0.1716
 2827SOL     OW11073   1.755   5.765   0.402 -0.3318 -0.1137 -0.2207
 2827SOL    HW211074   1.739   5.847   0.450 -1.2375 -1.1223  1.2777
 2827SOL    HW311075   1.827   5.723   0.450  0.5087  0.0283 -1.3164
 2827SOL    MW411076   1.763   5.770   0.415 -0.2910 -0.3079 -0.3563
 2828SOL     OW11077   0.374   0.577   3.054  0.0279  0.2190 -0.1202
 2828SOL    HW211078   0.433   0.647   3.083  0.5790  0.3472 -1.5026
 2828SOL    HW311079   0.302   0.579   3.118  0.9319  0.8348  0.9118
 2828SOL    MW411080   0.372   0.587   3.066  0.6668 -0.2865 -0.3796
 2829SOL     OW11081   1.489   0.335   1.906  0.5635 -0.5848 -0.4140
 2829SOL    HW211082   1.517   0.340   1.815 -0.4632 -0.4192 -0.7393
 2829SOL    HW311083   1.462   0.424   1.928  1.3695 -0.4902  0.2583
 2829SOL    MW411084   1.489   0.347   1.897 -0.1344  0.0656  0.0826
 2830SOL     OW11085   5.586   0.183   0.894 -0.4664 -0.1162  0.4841
 2830SOL    HW211086   5.627   0.246   0.953 -0.5444 -0.5122  0.9665
 2830SOL    HW311087   5.611   0.097   0.929 -0.0936 -0.3579 -0.3525
 2830SOL    MW411088   5.595   0.180   0.906 -0.3228  0.2134  0.1170
 2831SOL     OW11089   0.982   2.556   4.849 -0.1296 -0.1065 -0.0517
 2831SOL    HW211090   0.926   2.501   4.904 -0.6585 -0.6576 -1.1097
 2831SOL    HW311091   0.948   2.645   4.862 -0.0477 -0.1845  0.7362
 2831SOL    MW411092   0.970   2.561   4.858 -0.6181 -0.0642 -0.2361
 2832SOL     OW11093   4.540   5.197   3.678  0.5914 -0.3832  0.0253
 2832SOL    HW211094   4.484   5.156   3.745 -1.0680  2.3539  0.4887
 2832SOL    HW311095   4.514   5.289   3.679  3.2281  0.4911 -1.7684
 2832SOL    MW411096   4.529   5.204   3.687  0.4533 -0.1344  0.0555
 2833SOL     OW11097   3.308   3.286   4.737 -0.1278  0.5179  0.4989
 2833SOL    HW211098   3.225   3.292   4.785 -2.1045 -2.1227 -2.1924
 2833SOL    HW311099   3.303   3.356   4.672 -0.2547  0.4228  0.4030
 2833SOL    MW411100   3.296   3.296   4.735  0.3608  0.6101 -0.1522
 2834SOL     OW11101   5.280   0.226   4.309 -0.2645 -0.2135 -0.0588
 2834SOL    HW211102   5.276   0.303   4.252  1.6396  0.8636  1.1525
 2834SOL    HW311103   5.315   0.156   4.253  2.4569  1.0503 -0.1096
 2834SOL    MW411104   5.284   0.227   4.294 -0.2744  0.2479 -0.0419
 2835SOL     OW11105   3.202   2.299   1.434  0.0442 -0.1145 -0.4574
 2835SOL    HW211106   3.156   2.217   1.448  0.7455 -0.3033  0.8131
 2835SOL    HW311107   3.286   2.289   1.479  0.0032  1.4188  0.0411
 2835SOL    MW411108   3.207   2.287   1.441  0.5055 -0.4787  0.2987
 2836SOL     OW11109   4.809   3.280   3.949  0.2301 -0.2859 -0.0355
 2836SOL    HW211110   4.804   3.266   3.855  1.0547  3.1305 -0.7366
 2836SOL    HW311111   4.752   3.356   3.965  0.8738 -0.1753  2.0494
 2836SOL    MW411112   4.801   3.288   3.939  0.0018 -0.1316 -0.4289
 2837SOL     OW11113   1.771   6.034   5.599 -0.2172  0.0736 -0.6699
 2837SOL    HW211114   1.841   5.969   5.604 -0.8871 -0.5785  3.3221
 2837SOL    HW311115   1.693   5.983   5.576 -0.1205  0.1224 -1.1227
 2837SOL    MW411116   1.770   6.019   5.596 -1.2538 -0.4067  0.6750
 2838SOL     OW11117   3.058   2.657   3.825  0.1106  0.5414 -0.4440
 2838SOL    HW211118   3.091   2.726   3.881  0.1038  0.4856 -0.3713
 2838SOL    HW311119   2.973   2.634   3.861  0.5911 -0.2781  0.2119
 2838SOL    MW411120   3.051   2.663   3.837  0.1012 -0.2985 -0.3577
 2839SOL     OW11121   3.168   1.947   5.949 -0.6415 -0.7830  0.4858
 2839SOL    HW211122   3.260   1.936   5.922 -0.8416 -2.8909  0.5353
 2839SOL    HW311123   3.174   1.982   6.038  0.1503 -1.7508  0.8382
 2839SOL    MW411124   3.181   1.950   5.957  0.6719 -0.4648 -0.5182
 2840SOL     OW11125   4.648   2.056   0.967 -0.1325  0.1013  0.1032
 2840SOL    HW211126   4.618   2.076   0.878  1.0289 -0.2319 -0.3686
 2840SOL    HW311127   4.569   2.026   1.012 -1.4388  3.1751  0.1155
 2840SOL    MW411128   4.633   2.054   0.961 -0.4769  0.4447  0.7037
 2841SOL     OW11129   3.748   0.959   5.473 -0.5414 -0.5554 -0.2189
 2841SOL    HW211130   3.795   1.030   5.429 -1.6572  1.1262  1.1824
 2841SOL    HW311131   3.657   0.971   5.447 -0.9996 -0.4088  1.3716
 2841SOL    MW411132   3.742   0.970   5.463 -0.2328  0.2923  0.1996
 2842SOL     OW11133   3.233   6.040   5.821 -0.1714 -0.7301 -0.2130
 2842SOL    HW211134   3.299   6.109   5.819  0.7095 -1.5623 -0.7959
 2842SOL    HW311135   3.239   5.998   5.735  0.0434 -2.1888  0.4762
 2842SOL    MW411136   3.242   6.043   5.810  0.0270  0.3393 -0.2451
 2843SOL     OW11137   6.022   4.112   5.446  0.6177  0.1786 -0.1162
 2843SOL    HW211138   6.059   4.056   5.378  1.4819  0.9306 -0.2879
 2843SOL    HW311139   6.046   4.070   5.529  0.3256 -0.2629 -0.2495
 2843SOL    MW411140   6.030   4.099   5.448  0.3033  0.3697  0.9702
 2844SOL     OW11141   2.759   4.794   4.298 -0.0377  0.1313 -0.1622
 2844SOL    HW211142   2.668   4.801   4.270 -0.2797  1.4973  0.8344
 2844SOL    HW311143   2.758   4.727   4.366 -0.7474  1.5517  1.3219
 2844SOL    MW411144   2.747   4.786   4.303 -0.5061 -0.0114  0.3856
 2845SOL     OW11145   5.934   3.274   3.049 -0.3903  0.5278 -0.1265
 2845SOL    HW211146   6.025   3.272   3.020 -1.0101  2.3863 -2.4357
 2845SOL    HW311147   5.884   3.239   2.976 -1.5270 -2.3452  1.8024
 2845SOL    MW411148   5.940   3.269   3.036 -0.0998 -0.2123 -0.2948
 2846SOL     OW11149   3.892   3.742   2.652  0.2545  0.1504 -0.1548
 2846SOL    HW211150   3.956   3.784   2.595  2.0224 -1.1877  0.7603
 2846SOL    HW311151   3.934   3.662   2.682 -0.3069  0.9921  3.4347
 2846SOL    MW411152   3.906   3.737   2.649 -0.0633  0.0075 -0.4902
 2847SOL     OW11153   2.175   0.839   0.721  0.1045 -0.3706  0.1264
 2847SOL    HW211154   2.236   0.827   0.648  0.1511 -2.5850  0.4529
 2847SOL    HW311155   2.095   0.871   0.680  1.2794  2.2100 -0.3577
 2847SOL    MW411156   2.173   0.842   0.706  0.0010  0.2829  0.0864
 2848SOL     OW11157   5.445   5.390   3.933  0.7410  0.1837 -0.6412
 2848SOL    HW211158   5.414   5.439   4.010  1.0573 -1.0090  0.2813
 2848SOL    HW311159   5.540   5.396   3.939  0.7737 -0.2094 -0.7212
 2848SOL    MW411160   5.453   5.397   3.944  0.1547  0.3447  0.3527
 2849SOL     OW11161   2.657   5.485   4.414  0.1268 -0.0526  0.4807
 2849SOL    HW211162   2.736   5.522   4.376 -0.0938  1.1620  1.1869
 2849SOL    HW311163   2.585   5.527   4.366 -0.1151 -0.7047  0.2518
 2849SOL    MW411164   2.658   5.495   4.403 -0.3882 -0.4155  0.1365
 2850SOL     OW11165   2.727   4.447   6.407 -0.1607  0.7541  0.2236
 2850SOL    HW211166   2.730   4.375   6.469 -1.9647  1.7559  1.5634
 2850SOL    HW311167   2.787   4.421   6.337 -2.3462 -3.0922 -0.4930
 2850SOL    MW411168   2.735   4.434   6.406 -0.1302 -0.2538  0.0917
 2851SOL     OW11169   5.974   1.050   1.722  0.1030 -0.2433 -0.1114
 2851SOL    HW211170   5.935   1.035   1.637  1.3140 -1.3542 -0.4985
 2851SOL    HW311171   6.016   1.136   1.714  0.7099 -0.5975 -0.8411
 2851SOL    MW411172   5.975   1.059   1.710 -0.1466  0.7420 -0.0601
 2852SOL     OW11173   1.379   5.782   0.257 -0.3532  0.0150  0.0771
 2852SOL    HW211174   1.445   5.829   0.206 -0.9696  0.4157 -0.3650
 2852SOL    HW311175   1.337   5.849   0.311 -0.3338 -0.2529  0.4272
 2852SOL    MW411176   1.382   5.797   0.257  0.3866 -0.0339 -0.1364
 2853SOL     OW11177   1.446   4.086   2.847 -0.5921  0.5171 -0.4235
 2853SOL    HW211178   1.451   3.991   2.855 -0.0037  0.6643  1.5497
 2853SOL    HW311179   1.385   4.101   2.774 -1.1797 -1.3535 -0.3715
 2853SOL    MW411180   1.439   4.076   2.838 -0.2717  0.2404  0.5863
 2854SOL     OW11181   2.731   2.169   4.109  0.0555 -0.0555  0.0239
 2854SOL    HW211182   2.773   2.237   4.056  1.8705 -0.9004  0.3126
 2854SOL    HW311183   2.706   2.101   4.047  0.2015 -0.0733 -0.0160
 2854SOL    MW411184   2.733   2.169   4.094 -0.4750  0.1905  0.2928
 2855SOL     OW11185   3.237   3.073   5.797  0.0535 -0.1423 -0.3569
 2855SOL    HW211186   3.307   3.031   5.846  0.4056 -0.4960 -1.1540
 2855SOL    HW311187   3.232   3.025   5.714 -1.7576 -0.7356  0.0467
 2855SOL    MW411188   3.246   3.061   5.792  0.2116 -0.3039 -0.1873
 2856SOL     OW11189   2.711   0.672   0.529 -0.4926  0.1960  0.2291
 2856SOL    HW211190   2.707   0.742   0.463 -1.3747  0.6144  0.7010
 2856SOL    HW311191   2.647   0.607   0.499 -0.2158 -0.0561  0.1843
 2856SOL    MW411192   2.702   0.673   0.516 -1.4240 -0.1146 -0.0018
 2857SOL     OW11193   2.028   0.108   6.119  0.1288  0.3235  0.0480
 2857SOL    HW211194   1.990   0.022   6.134 -1.0122  0.8640  0.3910
 2857SOL    HW311195   2.100   0.114   6.182  0.5466 -0.5743 -0.3405
 2857SOL    MW411196   2.032   0.098   6.130  0.1168 -0.1165  0.0037
 2858SOL     OW11197   4.147   3.211   1.111 -0.0912  0.2667  0.0857
 2858SOL    HW211198   4.161   3.116   1.115 -0.3744  0.2391  0.4447
 2858SOL    HW311199   4.068   3.222   1.058  1.3998  0.4411 -2.2460
 2858SOL    MW411200   4.138   3.200   1.105  0.0773 -0.2628 -0.3817
 2859SOL     OW11201   0.973   3.770   0.987 -0.6791  0.7205 -0.1901
 2859SOL    HW211202   0.987   3.676   0.976 -2.1095  0.1609  2.1641
 2859SOL    HW311203   0.992   3.787   1.079  3.0305  3.5031 -1.2048
 2859SOL    MW411204   0.977   3.760   0.997 -0.5699  0.3359 -0.0757
 2860SOL     OW11205   4.928   6.366   1.487  0.6014  0.2430 -0.0997
 2860SOL    HW211206   4.874   6.441   1.510 -0.5895 -0.9694  1.2877
 2860SOL    HW311207   4.981   6.350   1.565 -1.4783 -2.2382  0.9610
 2860SOL    MW411208   4.928   6.374   1.500 -0.4294 -0.2369  0.4890
 2861SOL     OW11209   1.536   0.367   4.103 -0.3382  0.0284 -0.3767
 2861SOL    HW211210   1.624   0.399   4.127 -1.2150  2.4047 -0.0529
 2861SOL    HW311211   1.498   0.339   4.186  0.2274 -1.4306 -0.5797
 2861SOL    MW411212   1.543   0.368   4.117 -0.4010 -0.4550  0.0002
 2862SOL     OW11213   1.422   1.609   5.523 -0.4173  0.0161 -0.0325
 2862SOL    HW211214   1.392   1.610   5.432  0.0681 -0.6289 -0.2019
 2862SOL    HW311215   1.479   1.685   5.531  1.2170 -1.0615 -0.8537
 2862SOL    MW411216   1.425   1.619   5.512 -0.0714  0.1807 -0.3551
 2863SOL     OW11217   3.518   3.582   1.847 -0.1321  0.3374 -0.1474
 2863SOL    HW211218   3.602   3.597   1.805  0.4044 -1.5522  0.1533
 2863SOL    HW311219   3.540   3.556   1.937 -0.8285 -2.4573 -0.6861
 2863SOL    MW411220   3.532   3.581   1.853 -0.5058 -0.1228 -0.8113
 2864SOL     OW11221   1.683   6.332   4.094  0.0685  0.0822 -0.0899
 2864SOL    HW211222   1.604   6.279   4.088  1.4778 -2.2119  0.3483
 2864SOL    HW311223   1.714   6.338   4.003 -1.0807  1.9240 -0.4358
 2864SOL    MW411224   1.677   6.326   4.081 -0.5916 -0.1255  0.5017
 2865SOL     OW11225   3.649   4.942   0.993  0.2380  0.0777 -0.3245
 2865SOL    HW211226   3.744   4.952   0.992  0.0940  1.7725 -1.0180
 2865SOL    HW311227   3.617   5.012   0.937 -1.4121 -0.8036 -0.5465
 2865SOL    MW411228   3.657   4.953   0.986 -0.2511 -0.2423  0.0519
 2866SOL     OW11229   3.596  -0.005   3.082  0.0364  0.0194 -0.0372
 2866SOL    HW211230   3.680  -0.051   3.084 -0.0250 -0.1693 -1.0829
 2866SOL    HW311231   3.618   0.082   3.047 -0.6007 -1.1068 -3.7664
 2866SOL    MW411232   3.610   0.001   3.077 -0.0832 -0.4141  0.2442
 2867SOL     OW11233   4.744   2.676   3.821  0.0603  0.4214 -0.0026
 2867SOL    HW211234   4.782   2.755   3.862  0.9832 -0.0859  0.1505
 2867SOL    HW311235   4.650   2.684   3.837 -0.2581  2.8505 -2.3048
 2867SOL    MW411236   4.737   2.688   3.829  0.3311  0.3071  0.6838
 2868SOL     OW11237   0.505   3.443   5.965 -0.2243 -0.4781 -0.2664
 2868SOL    HW211238   0.426   3.389   5.969  0.0951 -1.3424 -3.2790
 2868SOL    HW311239   0.474   3.531   5.989 -0.7896 -1.7098  4.5036
 2868SOL    MW411240   0.490   3.448   5.968  0.1107 -0.3124 -0.3636
 2869SOL     OW11241   0.772   3.512   1.212  0.5399 -0.4886 -0.0130
 2869SOL    HW211242   0.841   3.556   1.262 -0.1535 -1.3443  1.7878
 2869SOL    HW311243   0.742   3.578   1.149 -0.0163  1.4404  2.1488
 2869SOL    MW411244   0.777   3.527   1.210 -0.2970 -0.1089 -0.1627
 2870SOL     OW11245   2.829   2.834   4.671  0.4889 -0.2703  0.1086
 2870SOL    HW211246   2.850   2.789   4.589  2.2338 -1.5507  1.2082
 2870SOL    HW311247   2.901   2.813   4.730 -0.8799  0.3529  2.1146
 2870SOL    MW411248   2.841   2.825   4.668  0.0294 -0.0723  0.3408
 2871SOL     OW11249   0.297   4.358   3.060  0.4103 -0.1710 -0.2170
 2871SOL    HW211250   0.347   4.415   3.002  2.2192 -0.3094  1.1259
 2871SOL    HW311251   0.250   4.419   3.117  0.4783 -0.0244 -0.3162
 2871SOL    MW411252   0.297   4.374   3.060 -0.2510 -0.5218  0.4011
 2872SOL     OW11253   0.711   3.324   1.666 -0.4461  0.1892 -0.0892
 2872SOL    HW211254   0.709   3.415   1.635  1.2320 -0.4097 -2.1658
 2872SOL    HW311255   0.762   3.277   1.600  0.7012 -1.8338  2.0910
 2872SOL    MW411256   0.718   3.330   1.653  0.3474 -0.1572 -0.6626
 2873SOL     OW11257   2.363   0.527   1.878  0.5413  0.4576 -0.2006
 2873SOL    HW211258   2.442   0.497   1.922  0.1098  0.5023  0.6304
 2873SOL    HW311259   2.340   0.609   1.923  0.3696  0.7758 -0.8522
 2873SOL    MW411260   2.370   0.534   1.890  0.1499  0.1630  0.1291
 2874SOL     OW11261   4.344   5.206   4.079 -0.3816  0.2115 -0.6067
 2874SOL    HW211262   4.421   5.262   4.064 -1.3814  1.7283 -0.3470
 2874SOL    HW311263   4.372   5.144   4.146  0.8467  0.2494 -1.0586
 2874SOL    MW411264   4.358   5.205   4.086 -0.4234 -0.2380 -0.1872
 2875SOL     OW11265   3.719   5.215   1.853 -0.3986  0.1226  0.5168
 2875SOL    HW211266   3.658   5.284   1.825 -0.9569 -0.6182 -0.1178
 2875SOL    HW311267   3.694   5.139   1.801  0.2729 -0.5399  1.1565
 2875SOL    MW411268   3.708   5.214   1.842  0.2825  0.1287 -0.1397
 2876SOL     OW11269   0.534   6.259   1.335 -0.2502  0.2666  0.5292
 2876SOL    HW211270   0.476   6.280   1.262  0.0148  0.4967  0.3797
 2876SOL    HW311271   0.613   6.224   1.293  0.5274  1.8667  0.6117
 2876SOL    MW411272   0.537   6.257   1.320  0.2353  0.2030  0.5239
 2877SOL     OW11273   2.574   2.592   0.159 -0.1512 -0.1447 -0.0015
 2877SOL    HW211274   2.597   2.639   0.239 -1.8750 -0.7370  0.8951
 2877SOL    HW311275   2.587   2.500   0.181  2.7466 -0.2318 -1.5932
 2877SOL    MW411276   2.579   2.586   0.172  0.0505  0.3597  0.2640
 2878SOL     OW11277   4.863   5.026   1.674 -0.2054  0.2909 -0.2244
 2878SOL    HW211278   4.885   5.042   1.766 -0.4683 -1.1592  0.1218
 2878SOL    HW311279   4.935   5.064   1.625 -0.1632  1.2794  0.5630
 2878SOL    MW411280   4.875   5.033   1.680  0.1829  0.0929 -0.3876
 2879SOL     OW11281   1.690   2.883   3.126  0.4692  0.7124 -0.1677
 2879SOL    HW211282   1.612   2.877   3.071  1.0388  0.5789 -0.9779
 2879SOL    HW311283   1.696   2.797   3.167  0.0985  0.7772  0.0263
 2879SOL    MW411284   1.680   2.871   3.124  0.0642  0.3052 -0.0882
 2880SOL     OW11285   5.125   2.823   0.392 -0.1377  0.0584 -0.4559
 2880SOL    HW211286   5.085   2.909   0.379  1.2646  0.8998  0.5668
 2880SOL    HW311287   5.215   2.842   0.420  0.9911 -1.7322 -2.4810
 2880SOL    MW411288   5.132   2.837   0.394 -0.9910  0.2444  0.1314
 2881SOL     OW11289   1.754   3.151   2.100 -0.3994 -0.5211  0.3466
 2881SOL    HW211290   1.825   3.120   2.044 -1.4494  0.4217 -1.5909
 2881SOL    HW311291   1.780   3.240   2.125 -0.2648 -0.6881  0.8313
 2881SOL    MW411292   1.767   3.159   2.096  0.2330  0.1916 -0.0686
 2882SOL     OW11293   2.001   5.298   2.566  0.2440  0.5414  0.4299
 2882SOL    HW211294   1.916   5.295   2.520  0.7130  1.2950 -0.5397
 2882SOL    HW311295   2.020   5.207   2.588 -0.6186  0.3140  0.2826
 2882SOL    MW411296   1.992   5.286   2.563  0.1746  0.3650  0.3411
 2883SOL     OW11297   6.026   4.400   3.694 -0.8824 -0.3183  0.4558
 2883SOL    HW211298   6.018   4.424   3.602  0.7183 -0.3281  0.2855
 2883SOL    HW311299   6.050   4.308   3.693  1.6406  0.2573  0.7239
 2883SOL    MW411300   6.028   4.391   3.682 -0.2443 -0.2230 -0.1645
 2884SOL     OW11301   4.074   1.664   2.882 -0.9453 -0.1236  0.2064
 2884SOL    HW211302   4.147   1.618   2.925 -1.0363  0.2553  0.7776
 2884SOL    HW311303   4.110   1.693   2.798 -0.3469  0.2995  0.6020
 2884SOL    MW411304   4.089   1.662   2.877 -0.6768 -0.4724 -0.5688
 2885SOL     OW11305   2.357   3.489   3.993  0.0405 -0.1689  0.2470
 2885SOL    HW211306   2.278   3.436   4.001 -0.2058  0.3103  1.0830
 2885SOL    HW311307   2.340   3.547   3.919 -0.2026 -0.3838  0.1345
 2885SOL    MW411308   2.345   3.489   3.984 -0.7052  0.0862  0.2826
 2886SOL     OW11309   6.145   3.515   5.072  0.0399  0.0400  0.7507
 2886SOL    HW211310   6.096   3.436   5.092  1.6662 -1.0869  0.4836
 2886SOL    HW311311   6.161   3.511   4.977  1.3760 -0.0935  0.9601
 2886SOL    MW411312   6.141   3.504   5.062  0.4999 -0.3626  0.0546
 2887SOL     OW11313   4.217   3.604   4.383 -0.4123 -1.1574  0.0594
 2887SOL    HW211314   4.209   3.691   4.423 -1.0657 -1.0262 -0.3409
 2887SOL    HW311315   4.193   3.618   4.291  0.4330 -1.5758 -0.2391
 2887SOL    MW411316   4.213   3.618   4.376 -0.1580  0.4086 -0.1955
 2888SOL     OW11317   2.483   3.806   1.211  0.1640 -0.4725  0.2064
 2888SOL    HW211318   2.464   3.899   1.201 -2.0281 -0.6455  1.9348
 2888SOL    HW311319   2.550   3.803   1.280 -1.5998 -0.1880  2.0332
 2888SOL    MW411320   2.490   3.818   1.219 -0.7546  0.4168  0.1598
 2889SOL     OW11321   2.206   5.711   5.132 -0.0454  0.3856 -0.2660
 2889SOL    HW211322   2.135   5.742   5.189  1.0888  1.0631  0.8174
 2889SOL    HW311323   2.161   5.665   5.061 -1.4943 -0.9591  1.4297
 2889SOL    MW411324   2.191   5.709   5.130  0.0152 -0.2389 -0.2318
 2890SOL     OW11325   4.575   0.336   3.737 -0.1116  0.3054  0.5696
 2890SOL    HW211326   4.628   0.321   3.816 -1.0394 -2.5432  0.7644
 2890SOL    HW311327   4.592   0.260   3.682 -1.6321  0.8700 -0.7534
 2890SOL    MW411328   4.584   0.324   3.741 -0.0228  0.2810 -0.0804
 2891SOL     OW11329   0.094   5.069   1.501  0.2312 -0.4551 -0.0005
 2891SOL    HW211330   0.016   5.109   1.464  1.1319  1.4365  0.0463
 2891SOL    HW311331   0.151   5.054   1.425 -0.7872 -3.5288 -0.3101
 2891SOL    MW411332   0.092   5.072   1.486 -0.4435  0.3784 -0.3713
 2892SOL     OW11333   1.853   1.685   4.952  0.6634  0.6845  0.2774
 2892SOL    HW211334   1.777   1.730   4.989 -0.1866  0.2407 -0.8740
 2892SOL    HW311335   1.869   1.730   4.869  0.5014 -0.3932 -0.3589
 2892SOL    MW411336   1.845   1.697   4.946 -0.0274  0.1632 -0.5156
 2893SOL     OW11337   0.433   4.392   6.303 -0.4189 -0.3495  0.6274
 2893SOL    HW211338   0.340   4.395   6.283 -0.4699  0.0202  0.9085
 2893SOL    HW311339   0.449   4.471   6.355  0.3593  0.4024 -0.7060
 2893SOL    MW411340   0.423   4.403   6.307  0.3906 -0.6743 -0.0031
 2894SOL     OW11341   2.524   5.910   3.067  0.8626  0.3045  0.3879
 2894SOL    HW211342   2.541   5.930   2.975 -0.7241 -0.1010 -0.0287
 2894SOL    HW311343   2.592   5.957   3.115  0.6501  2.0136 -0.8797
 2894SOL    MW411344   2.535   5.919   3.061 -0.5480  0.2125 -0.2543
 2895SOL     OW11345   3.261   4.293   6.404  0.1892  0.4236  0.1185
 2895SOL    HW211346   3.239   4.232   6.334 -1.5621 -0.5691  1.4744
 2895SOL    HW311347   3.325   4.246   6.458 -1.2631 -0.3666  1.2416
 2895SOL    MW411348   3.267   4.279   6.402 -1.3875  0.0781 -0.0079
 2896SOL     OW11349   0.097   5.772   5.856  0.5864  0.1730 -0.6648
 2896SOL    HW211350   0.018   5.753   5.805  0.1336 -1.0051  0.4467
 2896SOL    HW311351   0.159   5.705   5.830  0.1304 -0.8422  0.7813
 2896SOL    MW411352   0.095   5.761   5.846  0.5954 -0.2577 -0.7962
 2897SOL     OW11353   0.653   1.438   1.660 -0.3061  0.3114  0.6145
 2897SOL    HW211354   0.652   1.420   1.566  1.8749 -1.6201  0.8705
 2897SOL    HW311355   0.712   1.513   1.670 -1.3857  1.2226  0.4079
 2897SOL    MW411356   0.661   1.445   1.649 -0.1560  0.0481 -0.2999
 2898SOL     OW11357   1.002   5.264   1.992 -0.6810 -0.5456 -0.3872
 2898SOL    HW211358   1.074   5.219   1.948 -1.1119 -1.9320  0.2505
 2898SOL    HW311359   1.041   5.301   2.071 -0.3818 -0.0152 -0.7743
 2898SOL    MW411360   1.016   5.263   1.997  0.0686 -0.4183 -0.8605
 2899SOL     OW11361   3.894   3.504   5.520  0.7277  0.7315  0.2106
 2899SOL    HW211362   3.872   3.590   5.482  0.3664  0.4798 -0.1633
 2899SOL    HW311363   3.840   3.498   5.599 -0.3961  0.2223 -0.5694
 2899SOL    MW411364   3.884   3.515   5.525 -0.1308  0.5293  0.2072
 2900SOL     OW11365   0.709   1.972   2.987 -0.2361  0.2094  0.4842
 2900SOL    HW211366   0.627   2.014   3.014 -0.5420 -2.1289  3.8138
 2900SOL    HW311367   0.776   2.036   3.011 -0.9228  1.1487  0.0067
 2900SOL    MW411368   0.707   1.986   2.994  0.0995  0.1241  0.1562
 2901SOL     OW11369   5.299   2.523   4.034 -0.6276  0.7666 -0.1668
 2901SOL    HW211370   5.268   2.601   3.988 -0.0373 -0.4645 -2.7734
 2901SOL    HW311371   5.394   2.531   4.033 -0.5882  0.3777  0.2420
 2901SOL    MW411372   5.308   2.534   4.028 -0.2463  0.3445  0.4868
 2902SOL     OW11373   0.504   0.921   0.975  0.4526 -0.3068  0.1945
 2902SOL    HW211374   0.556   0.877   1.042  0.7661 -2.2690 -1.2344
 2902SOL    HW311375   0.507   0.862   0.899 -2.0408  0.5438 -0.6895
 2902SOL    MW411376   0.511   0.908   0.974  0.4070 -0.0304 -0.7284
 2903SOL     OW11377   4.749   4.307   0.573  0.0730  0.2911  0.4698
 2903SOL    HW211378   4.685   4.356   0.521  0.0555  1.0204  1.1634
 2903SOL    HW311379   4.765   4.362   0.650 -0.5096 -1.1013  1.6467
 2903SOL    MW411380   4.742   4.320   0.576 -0.0798 -0.3193 -0.0648
 2904SOL     OW11381   3.503   3.558   2.121  0.0319  0.1304 -0.4873
 2904SOL    HW211382   3.581   3.526   2.164  1.2584 -0.1731 -2.7716
 2904SOL    HW311383   3.505   3.653   2.133 -0.2131 -0.0281  0.9189
 2904SOL    MW411384   3.513   3.566   2.128  0.8716  0.0839 -0.5640
 2905SOL     OW11385   3.871   2.816   4.532  0.0035  0.1093  0.0920
 2905SOL    HW211386   3.935   2.752   4.500  0.1636 -0.0746  0.7576
 2905SOL    HW311387   3.905   2.900   4.502  0.0758 -0.0714 -0.3352
 2905SOL    MW411388   3.884   2.819   4.524  0.0020  0.3195  0.0175
 2906SOL     OW11389   5.704   5.101   4.843  0.7676  0.2949 -0.2583
 2906SOL    HW211390   5.686   5.013   4.810 -1.1569 -0.0412  1.4606
 2906SOL    HW311391   5.788   5.092   4.888  0.1617 -0.9428  0.7000
 2906SOL    MW411392   5.712   5.088   4.845  0.1007  0.2610 -0.0167
 2907SOL     OW11393   1.393   5.848   1.524  0.3024  0.0345  0.2810
 2907SOL    HW211394   1.388   5.800   1.607  1.9818  0.3411  0.5983
 2907SOL    HW311395   1.436   5.931   1.546 -0.0064  0.4898 -0.7526
 2907SOL    MW411396   1.398   5.853   1.538 -0.5397 -0.3821 -0.3229
 2908SOL     OW11397   6.209   3.128   3.956 -0.1574 -0.5585  0.0965
 2908SOL    HW211398   6.224   3.042   3.917  3.2063  0.1034 -0.4033
 2908SOL    HW311399   6.294   3.154   3.990 -1.4675  1.8404  1.8679
 2908SOL    MW411400   6.222   3.120   3.955  0.1324  0.4092 -0.2126
 2909SOL     OW11401   3.778   3.995   3.258  0.4319  0.2046 -0.3327
 2909SOL    HW211402   3.779   4.058   3.330  1.6066 -0.7471  0.5174
 2909SOL    HW311403   3.689   4.000   3.223 -0.4089  0.1162  1.6843
 2909SOL    MW411404   3.767   4.004   3.263 -0.7955 -0.3056  0.4024
 2910SOL     OW11405   2.655   3.237   0.932 -0.5372  0.3364  0.0053
 2910SOL    HW211406   2.715   3.186   0.877 -1.1940 -2.4692  1.6895
 2910SOL    HW311407   2.699   3.322   0.942  1.1954 -0.2280 -2.0191
 2910SOL    MW411408   2.669   3.241   0.926 -0.2338  0.1674 -0.0648
 2911SOL     OW11409   3.055   3.120   2.332 -0.4043  0.4683 -0.1787
 2911SOL    HW211410   3.063   3.092   2.241 -0.4483 -0.5983  0.1294
 2911SOL    HW311411   2.992   3.192   2.329  0.7766  1.5181 -1.1807
 2911SOL    MW411412   3.048   3.126   2.320 -0.3434  0.2904 -0.2735
 2912SOL     OW11413   1.157   5.715   1.271  0.2109  0.3544 -0.1180
 2912SOL    HW211414   1.080   5.720   1.214  0.4644 -0.8049 -0.5918
 2912SOL    HW311415   1.156   5.798   1.319 -1.1202  0.5191 -0.3749
 2912SOL    MW411416   1.147   5.727   1.270  0.4575 -0.5364  0.4408
 2913SOL     OW11417   0.596   0.357   2.392  0.4218 -0.6424  0.4988
 2913SOL    HW211418   0.652   0.433   2.374 -0.0443 -0.4176 -0.0250
 2913SOL    HW311419   0.653   0.281   2.377  0.2771 -0.4476 -1.1637
 2913SOL    MW411420   0.611   0.357   2.388 -0.2268  0.1407  0.3261
 2914SOL     OW11421   2.499   5.956   0.743 -0.2347  0.3260 -0.2279
 2914SOL    HW211422   2.538   5.874   0.773  0.9868  0.2321 -1.9001
 2914SOL    HW311423   2.552   6.024   0.784  0.0481  0.2331 -0.4325
 2914SOL    MW411424   2.511   5.954   0.752  0.5383  0.7228  0.4046
 2915SOL     OW11425   5.338   3.325   3.168 -0.4153  0.5598  0.0395
 2915SOL    HW211426   5.424   3.285   3.181 -0.8869 -0.0679  1.4731
 2915SOL    HW311427   5.314   3.300   3.079 -0.4870 -2.0698  0.7024
 2915SOL    MW411428   5.346   3.316   3.158  0.2840  0.0732 -0.1644
 2916SOL     OW11429   1.807   2.619   5.841 -0.0595  0.1506 -0.7501
 2916SOL    HW211430   1.727   2.663   5.870  0.2755 -1.2892  2.8913
 2916SOL    HW311431   1.777   2.534   5.808 -0.0914 -0.4821  0.8284
 2916SOL    MW411432   1.792   2.614   5.841  0.1091  0.0110  0.4685
 2917SOL     OW11433   6.290   1.472   5.959 -0.3298 -0.0276 -0.3479
 2917SOL    HW211434   6.295   1.530   6.036  0.3584  0.9668 -1.1233
 2917SOL    HW311435   6.307   1.385   5.995  2.5046  0.6885  0.3217
 2917SOL    MW411436   6.292   1.468   5.974  0.3053  0.0638  0.3188
 2918SOL     OW11437   0.823   4.014   0.411  0.2022 -0.4705 -0.5574
 2918SOL    HW211438   0.748   4.068   0.383  0.0629  1.3868  2.7938
 2918SOL    HW311439   0.896   4.076   0.413  1.0318 -1.4440 -0.5283
 2918SOL    MW411440   0.823   4.029   0.408 -0.0784  0.3098  0.0752
 2919SOL     OW11441   1.711   1.983   3.274 -0.1323  0.3764  0.3968
 2919SOL    HW211442   1.672   1.948   3.194 -0.2289  0.6556  0.3198
 2919SOL    HW311443   1.803   1.959   3.269 -0.0088  0.9387 -0.1048
 2919SOL    MW411444   1.718   1.975   3.263  0.8192  0.4061 -0.6591
 2920SOL     OW11445   2.800   2.884   1.172 -0.1190 -0.0635  0.1762
 2920SOL    HW211446   2.833   2.965   1.211 -0.6856  0.1773  0.1648
 2920SOL    HW311447   2.711   2.905   1.145  0.0322 -0.4222 -0.6422
 2920SOL    MW411448   2.793   2.897   1.174 -0.0853 -0.7086  0.1702
 2921SOL     OW11449   4.049   3.513   1.280  0.0431  0.2294 -0.2382
 2921SOL    HW211450   4.041   3.426   1.320  0.2958 -0.5172 -1.7511
 2921SOL    HW311451   4.010   3.503   1.193 -3.0535  2.5022  0.7137
 2921SOL    MW411452   4.042   3.500   1.274 -0.0603  0.2056 -0.4241
 2922SOL     OW11453   0.309   3.935   2.826 -0.2471 -0.8989 -0.1689
 2922SOL    HW211454   0.285   3.952   2.735  1.9557 -0.0788 -0.6641
 2922SOL    HW311455   0.266   4.004   2.876  1.0506  0.6010 -1.0306
 2922SOL    MW411456   0.301   3.946   2.820  0.3313  0.8285 -0.3198
 2923SOL     OW11457   1.112   4.193   2.889 -0.1518  0.7481 -0.0101
 2923SOL    HW211458   1.181   4.220   2.950  0.1494  1.0862 -0.4931
 2923SOL    HW311459   1.156   4.183   2.805 -0.1468 -1.8143  0.2404
 2923SOL    MW411460   1.127   4.195   2.886 -0.9469  0.2093  0.2123
 2924SOL     OW11461   2.396   0.705   4.648  0.2719  0.1192  0.5741
 2924SOL    HW211462   2.441   0.623   4.624 -1.6154 -0.6349 -0.6261
 2924SOL    HW311463   2.404   0.760   4.570  0.9417  0.8288  1.1362
 2924SOL    MW411464   2.403   0.701   4.634  0.0533 -0.3327 -0.0465
 2925SOL     OW11465   4.288   1.598   2.037  0.3738  0.0296 -0.5706
 2925SOL    HW211466   4.309   1.691   2.034  0.9515 -0.1245 -2.0594
 2925SOL    HW311467   4.228   1.585   1.963 -0.9596 -0.5072  0.5511
 2925SOL    MW411468   4.283   1.608   2.026 -0.1092 -0.7625  0.0312
 2926SOL     OW11469   5.471   0.574   0.414 -0.2846  0.3415 -0.7697
 2926SOL    HW211470   5.521   0.530   0.346  1.2134 -0.1708  0.5979
 2926SOL    HW311471   5.480   0.518   0.491 -2.8269  0.3252 -0.3763
 2926SOL    MW411472   5.479   0.561   0.415  0.1914  0.4246 -0.5877
 2927SOL     OW11473   2.308   5.482   2.985 -0.1400 -0.0867 -1.1113
 2927SOL    HW211474   2.327   5.523   2.901  0.0190 -1.2147 -1.6456
 2927SOL    HW311475   2.217   5.454   2.978 -0.9869  2.1032  0.0946
 2927SOL    MW411476   2.299   5.484   2.973 -0.0370  0.1018  0.2002
 2928SOL     OW11477   2.214   5.040   4.237  0.1845  0.8629  0.4195
 2928SOL    HW211478   2.212   4.974   4.168  0.5091 -0.1826  1.3902
 2928SOL    HW311479   2.152   5.107   4.208 -0.3622  0.0003 -0.4452
 2928SOL    MW411480   2.206   5.040   4.224  0.9408  0.1030  0.4622
 2929SOL     OW11481   4.294   2.596   3.249 -0.1599 -0.0104 -0.1634
 2929SOL    HW211482   4.362   2.532   3.231  1.1275  1.2951 -0.1848
 2929SOL    HW311483   4.269   2.581   3.340  0.2996 -0.3734 -0.0991
 2929SOL    MW411484   4.299   2.586   3.259 -0.0815  0.2446  0.3668
 2930SOL     OW11485   0.355   0.600   3.970  0.3608  0.5767  0.7521
 2930SOL    HW211486   0.410   0.677   3.957 -0.8379  1.1584 -1.4988
 2930SOL    HW311487   0.355   0.557   3.885 -1.0557 -0.4868  1.2543
 2930SOL    MW411488   0.362   0.605   3.957  0.2917 -0.7231  0.5249
 2931SOL     OW11489   3.372   5.327   4.341 -0.0255 -0.5587 -0.3937
 2931SOL    HW211490   3.298   5.387   4.326  0.0903 -0.5889 -1.1434
 2931SOL    HW311491   3.373   5.314   4.435 -1.8621 -1.6785 -0.4724
 2931SOL    MW411492   3.362   5.333   4.351  0.1655 -0.1972 -0.3298
 2932SOL     OW11493   2.605   1.238   4.399  0.1736 -0.8523 -0.5775
 2932SOL    HW211494   2.549   1.265   4.326 -0.5663 -0.5668  0.0749
 2932SOL    HW311495   2.578   1.294   4.472  0.2130 -1.7940  0.1844
 2932SOL    MW411496   2.594   1.249   4.399 -0.0845 -0.2203  0.8093
 2933SOL     OW11497   3.086   5.375   5.728 -0.5440  0.0610 -0.3585
 2933SOL    HW211498   3.007   5.414   5.765 -0.4853 -1.2820  1.3314
 2933SOL    HW311499   3.053   5.314   5.662 -1.0046 -0.8654  0.6820
 2933SOL    MW411500   3.071   5.372   5.724  0.3160 -0.4192 -0.4657
 2934SOL     OW11501   3.880   6.351   3.743  0.0596 -0.0454  0.4788
 2934SOL    HW211502   3.840   6.333   3.658  1.8725 -1.6368 -0.0994
 2934SOL    HW311503   3.974   6.356   3.726  0.2910  2.2700  1.9953
 2934SOL    MW411504   3.887   6.349   3.730  0.5716 -0.2891 -0.0042
 2935SOL     OW11505   0.563   5.017   2.468 -0.4962 -0.2296 -0.2781
 2935SOL    HW211506   0.496   5.072   2.507  0.2603  0.1720  0.4888
 2935SOL    HW311507   0.633   5.015   2.533  0.8384  0.5198 -1.6321
 2935SOL    MW411508   0.563   5.024   2.482  0.3343 -0.8109 -0.2718
 2936SOL     OW11509   4.757   5.959   2.162 -0.3851 -0.6336 -0.3884
 2936SOL    HW211510   4.693   5.913   2.108 -0.7258 -0.1861 -0.3727
 2936SOL    HW311511   4.820   5.996   2.099 -0.3989 -0.6874 -0.4337
 2936SOL    MW411512   4.757   5.958   2.146  0.1568  0.4602  0.0610
 2937SOL     OW11513   5.317   5.550   5.812 -0.1832 -0.1719 -0.2331
 2937SOL    HW211514   5.266   5.495   5.753 -0.4540 -0.8084  0.5810
 2937SOL    HW311515   5.367   5.489   5.865  2.4396  0.4539 -1.8240
 2937SOL    MW411516   5.317   5.535   5.811  0.7413 -0.1220  0.8605
 2938SOL     OW11517   0.963   3.281   5.350 -0.0246 -0.0747  0.4521
 2938SOL    HW211518   0.955   3.297   5.256 -2.4640  0.7076  0.7209
 2938SOL    HW311519   0.892   3.219   5.370  0.6376 -0.4578  1.7270
 2938SOL    MW411520   0.952   3.274   5.340 -0.2782 -0.2313 -0.8522
 2939SOL     OW11521   3.767   2.509   3.011 -0.2586 -0.3557  0.6336
 2939SOL    HW211522   3.803   2.422   2.995  0.1420 -0.3643  1.4979
 2939SOL    HW311523   3.710   2.497   3.087 -0.2226  0.1326  0.7410
 2939SOL    MW411524   3.764   2.496   3.019  0.0660  0.1134  0.4623
 2940SOL     OW11525   0.171   5.262   5.139 -0.0175  0.7853  0.1055
 2940SOL    HW211526   0.171   5.171   5.169  2.6998 -0.4619 -2.9725
 2940SOL    HW311527   0.088   5.273   5.094  0.2739 -0.8162 -0.8944
 2940SOL    MW411528   0.160   5.252   5.137 -0.3997  0.3237 -0.0544
 2941SOL     OW11529   5.625   2.432   3.642 -0.4374 -0.0954 -0.4796
 2941SOL    HW211530   5.590   2.375   3.711 -0.2692  1.0417  0.5625
 2941SOL    HW311531   5.589   2.518   3.660  0.0618  0.3469 -1.4941
 2941SOL    MW411532   5.616   2.436   3.653 -0.2095  0.0922  0.4913
 2942SOL     OW11533   2.572   5.827   6.377  0.4304 -0.6723 -0.4911
 2942SOL    HW211534   2.554   5.776   6.298 -0.4641  1.5965 -1.8584
 2942SOL    HW311535   2.632   5.773   6.427 -2.8090 -4.5465 -0.2406
 2942SOL    MW411536   2.577   5.813   6.373 -0.2397 -0.0977 -0.0148
 2943SOL     OW11537   0.840   1.420   5.025 -0.3786  0.0315 -0.2593
 2943SOL    HW211538   0.915   1.451   5.076  0.1637  0.1155 -1.0862
 2943SOL    HW311539   0.792   1.363   5.085 -0.4325  1.0872  0.7249
 2943SOL    MW411540   0.844   1.417   5.039 -0.5930 -0.5795 -0.3137
 2944SOL     OW11541   5.786   0.182   4.474 -0.7681  0.0520  0.1023
 2944SOL    HW211542   5.830   0.229   4.544 -1.1016  0.3449  0.1179
 2944SOL    HW311543   5.785   0.091   4.504  0.9903 -0.1975 -0.4934
 2944SOL    MW411544   5.792   0.176   4.487  0.0720 -0.2985 -0.6063
 2945SOL     OW11545   2.642   1.490   5.388 -0.1281  0.3329  0.4847
 2945SOL    HW211546   2.628   1.469   5.296  3.3774 -0.1322 -0.0461
 2945SOL    HW311547   2.565   1.453   5.433 -1.3892 -0.3572 -2.0765
 2945SOL    MW411548   2.630   1.482   5.382 -0.1486 -0.2881  0.0609
 2946SOL     OW11549   2.834   6.141   6.368  0.6964 -0.1043  0.0636
 2946SOL    HW211550   2.760   6.111   6.315  1.3608 -0.2368 -0.8166
 2946SOL    HW311551   2.903   6.159   6.304  1.1303  0.9000  0.7916
 2946SOL    MW411552   2.833   6.139   6.352 -0.5563  0.1863  0.5477
 2947SOL     OW11553   2.584   5.180   4.903  0.4831 -0.6560  0.0952
 2947SOL    HW211554   2.654   5.219   4.850 -2.0849  2.7740 -1.1576
 2947SOL    HW311555   2.504   5.198   4.853 -1.5329 -2.5995  2.3892
 2947SOL    MW411556   2.582   5.188   4.889  0.1469 -0.2100 -0.1109
 2948SOL     OW11557   0.495   2.387   1.790 -0.1603  0.1743  0.6667
 2948SOL    HW211558   0.413   2.422   1.755 -1.0554 -1.2745  1.2482
 2948SOL    HW311559   0.475   2.364   1.881  0.4019 -1.6867  0.3628
 2948SOL    MW411560   0.481   2.389   1.798 -0.3052 -0.2721  0.0030
 2949SOL     OW11561   4.193   1.938   1.576 -0.2829 -0.5418 -0.0455
 2949SOL    HW211562   4.284   1.956   1.598  0.0572 -2.4362  0.3001
 2949SOL    HW311563   4.144   2.013   1.611  1.0720  0.2088  0.2933
 2949SOL    MW411564   4.199   1.950   1.584  0.2602  0.5719 -0.2023
 2950SOL     OW11565   4.425   5.794   3.467 -0.1408 -0.3733  0.2916
 2950SOL    HW211566   4.485   5.723   3.449 -0.3815 -0.7708  1.0402
 2950SOL    HW311567   4.383   5.812   3.383 -1.6256 -2.5525  0.4705
 2950SOL    MW411568   4.427   5.787   3.454  0.0316 -0.2278 -0.3069
 2951SOL     OW11569   5.087   4.497   2.765 -0.2252 -0.1373 -0.0313
 2951SOL    HW211570   5.092   4.564   2.833 -0.2841  0.6415 -0.7754
 2951SOL    HW311571   4.993   4.484   2.750 -0.2345  1.1650 -1.3466
 2951SOL    MW411572   5.075   4.504   2.772 -0.3582  0.1400  0.6031
 2952SOL     OW11573   3.469   0.345   4.097  0.0267  0.0512  0.0703
 2952SOL    HW211574   3.420   0.295   4.032  2.0199 -0.6574 -0.9673
 2952SOL    HW311575   3.532   0.396   4.046 -1.6371  3.4452  1.1123
 2952SOL    MW411576   3.471   0.345   4.082  0.1669 -0.5334 -0.4620
 2953SOL     OW11577   1.183   5.055   2.712 -0.6807 -0.2746  0.1563
 2953SOL    HW211578   1.137   5.137   2.727 -0.3091  0.0367 -0.3463
 2953SOL    HW311579   1.215   5.029   2.798  1.0996  1.2605  0.0316
 2953SOL    MW411580   1.182   5.062   2.725 -0.1040  0.1589 -0.1336
 2954SOL     OW11581   5.968   4.341   5.607  0.4294 -0.1808 -0.5756
 2954SOL    HW211582   5.937   4.427   5.578  1.1105 -0.6160 -2.7679
 2954SOL    HW311583   6.001   4.300   5.527  0.9832 -2.1184  0.6060
 2954SOL    MW411584   5.968   4.347   5.593  0.1826  0.2904 -0.1731
 2955SOL     OW11585   6.414   1.458   5.356 -0.1969 -0.1934 -0.2929
 2955SOL    HW211586   6.423   1.397   5.283 -0.1296 -0.4188 -0.0978
 2955SOL    HW311587   6.447   1.541   5.322  2.5874 -0.9302  0.3443
 2955SOL    MW411588   6.420   1.461   5.342 -0.3057  0.1823  0.0826
 2956SOL     OW11589   5.855   4.640   4.073  0.4307 -0.0522  0.5297
 2956SOL    HW211590   5.794   4.649   4.146 -0.5821  1.1357 -0.4256
 2956SOL    HW311591   5.939   4.619   4.115 -0.3302 -0.4004  1.9511
 2956SOL    MW411592   5.858   4.638   4.089  0.0718 -0.5943  0.2102
 2957SOL     OW11593   4.585   1.689   4.611 -0.5349  0.2638  0.2920
 2957SOL    HW211594   4.629   1.703   4.527 -0.1488  2.3937  0.7915
 2957SOL    HW311595   4.654   1.655   4.668 -0.3107  0.6082  0.2310
 2957SOL    MW411596   4.600   1.686   4.608 -0.1891  0.1971 -0.2070
 2958SOL     OW11597   1.001   1.845   2.629 -0.5489  0.4804 -0.1992
 2958SOL    HW211598   0.995   1.755   2.660  0.0991  0.4041 -0.2699
 2958SOL    HW311599   0.935   1.893   2.678 -0.4635  0.0896  0.3000
 2958SOL    MW411600   0.992   1.840   2.640 -0.0410  0.1058 -0.3541
 2959SOL     OW11601   3.463   2.477   2.409  0.5183 -0.2079  0.0998
 2959SOL    HW211602   3.502   2.447   2.491  1.7656 -1.3552 -0.8575
 2959SOL    HW311603   3.464   2.573   2.416 -0.7557 -0.2847  1.9938
 2959SOL    MW411604   3.468   2.486   2.421  0.1640 -0.1000 -0.4206
 2960SOL     OW11605   4.910   1.649   2.721 -0.2216  0.0450 -0.8519
 2960SOL    HW211606   4.953   1.723   2.679 -1.5971  1.4418  0.1078
 2960SOL    HW311607   4.826   1.641   2.676 -0.5811 -0.1676 -0.1540
 2960SOL    MW411608   4.905   1.658   2.710 -0.2610  0.4288  0.7320
 2961SOL     OW11609   0.192   1.650   2.900 -0.5138  0.2712 -0.1289
 2961SOL    HW211610   0.127   1.719   2.884  0.3690  0.7389 -2.0483
 2961SOL    HW311611   0.225   1.627   2.812 -0.2168 -2.0661  0.5167
 2961SOL    MW411612   0.188   1.656   2.886  0.0785  0.0336  0.2723
 2962SOL     OW11613   2.439   1.323   4.193  0.2145 -0.5182 -0.0554
 2962SOL    HW211614   2.501   1.320   4.121 -0.6556 -0.3956 -0.8281
 2962SOL    HW311615   2.408   1.413   4.196  0.8105 -0.3321  0.9808
 2962SOL    MW411616   2.443   1.334   4.184 -0.5283 -0.2583  0.1575
 2963SOL     OW11617   1.985   5.141   1.037 -0.0647 -0.2448 -0.7191
 2963SOL    HW211618   1.968   5.149   1.131  0.3233 -1.6211 -0.4985
 2963SOL    HW311619   2.026   5.055   1.028 -0.5075 -0.3288 -2.2130
 2963SOL    MW411620   1.988   5.131   1.048  0.0757 -0.0642  0.9152
 2964SOL     OW11621   0.261   6.034   4.001  0.1158 -1.0760  0.4666
 2964SOL    HW211622   0.279   5.980   4.078 -2.3644 -1.5845  0.7936
 2964SOL    HW311623   0.215   6.110   4.035 -0.4500 -0.9956 -0.4373
 2964SOL    MW411624   0.257   6.037   4.016  0.1230 -0.2898  0.0108
 2965SOL     OW11625   4.180   3.571   5.146 -0.5895  0.8637  0.2636
 2965SOL    HW211626   4.129   3.525   5.079  0.9213 -0.6179  0.0612
 2965SOL    HW311627   4.242   3.625   5.097  1.2658 -1.0505  0.3413
 2965SOL    MW411628   4.182   3.572   5.131 -0.3173  0.8051  0.0106
 2966SOL     OW11629   3.218   5.812   1.852  0.4347  0.2297  0.2830
 2966SOL    HW211630   3.164   5.740   1.883 -1.8080  1.9595  0.6634
 2966SOL    HW311631   3.234   5.866   1.930  0.5824  1.0515 -0.2999
 2966SOL    MW411632   3.213   5.810   1.866 -0.4725 -0.4932  0.4234
 2967SOL     OW11633   2.838   2.613   0.558  0.3692  0.1906 -0.7567
 2967SOL    HW211634   2.781   2.590   0.632  0.0556 -2.3688 -1.6979
 2967SOL    HW311635   2.855   2.707   0.570 -2.5289  0.6670  0.5956
 2967SOL    MW411636   2.833   2.623   0.570 -0.8223  0.1203 -0.1483
 2968SOL     OW11637   3.895   5.439   2.552  0.2002 -0.1142 -0.2017
 2968SOL    HW211638   3.854   5.507   2.606 -1.3010  0.8911 -2.4266
 2968SOL    HW311639   3.850   5.358   2.577 -0.7093  0.3849 -0.1712
 2968SOL    MW411640   3.883   5.438   2.563  0.2347 -0.2663 -0.4776
 2969SOL     OW11641   2.521   2.780   3.924  0.1089  0.8324 -0.1055
 2969SOL    HW211642   2.438   2.790   3.877 -0.3320  1.0945  0.7010
 2969SOL    HW311643   2.525   2.687   3.946  0.2731  0.7261 -0.5676
 2969SOL    MW411644   2.511   2.769   3.921 -0.6161  0.2758  0.1623
 2970SOL     OW11645   1.165   3.897   0.814  0.0109  0.0636  0.3553
 2970SOL    HW211646   1.177   3.814   0.769  0.2096  0.6214 -0.6411
 2970SOL    HW311647   1.102   3.878   0.883 -1.0033 -0.6038 -0.7281
 2970SOL    MW411648   1.158   3.883   0.817 -0.1949  0.4790  0.3333
 2971SOL     OW11649   3.693   4.547   0.604 -0.4426 -0.3193  0.2321
 2971SOL    HW211650   3.621   4.490   0.573 -2.8952  1.0231  2.9974
 2971SOL    HW311651   3.717   4.511   0.689  0.1653  0.9605  0.6174
 2971SOL    MW411652   3.686   4.534   0.611  0.2101  0.2800  0.1168
 2972SOL     OW11653   0.392   5.236   4.066  0.2795  0.6467  0.1616
 2972SOL    HW211654   0.364   5.318   4.027  1.2975  0.1405 -1.7230
 2972SOL    HW311655   0.328   5.171   4.036 -0.5919  0.7335  1.7392
 2972SOL    MW411656   0.380   5.238   4.057  0.0331 -0.1621 -0.0271
 2973SOL     OW11657   1.552   0.535   2.818  0.4390  0.0395 -0.8377
 2973SOL    HW211658   1.547   0.448   2.859  0.9531  1.6630  3.1183
 2973SOL    HW311659   1.471   0.542   2.767 -1.3437 -1.5713  1.5350
 2973SOL    MW411660   1.540   0.524   2.817 -0.1328  0.5684 -0.6704
 2974SOL     OW11661   1.266   5.513   4.149 -0.7549  0.4389  0.4668
 2974SOL    HW211662   1.175   5.538   4.138 -0.9414  0.1567  1.3455
 2974SOL    HW311663   1.263   5.430   4.197 -0.0138  0.8568  1.2625
 2974SOL    MW411664   1.254   5.505   4.154  0.1596  0.2753 -0.0112
 2975SOL     OW11665   5.369   3.440   2.090 -0.2236  1.1442  0.3978
 2975SOL    HW211666   5.405   3.454   2.178 -1.5501  1.4678  0.9256
 2975SOL    HW311667   5.438   3.469   2.031  0.7475  0.8041  1.3306
 2975SOL    MW411668   5.383   3.446   2.094 -0.0215 -0.0966 -0.4464
 2976SOL     OW11669   1.642   3.070   5.500  0.0430  0.6611 -0.3135
 2976SOL    HW211670   1.657   2.983   5.463  0.9261  0.5603  0.2454
 2976SOL    HW311671   1.681   3.065   5.588  0.0623  1.6051 -0.2632
 2976SOL    MW411672   1.649   3.058   5.507 -0.3138  0.4664  0.0957
 2977SOL     OW11673   3.081   6.300   4.748 -1.1149 -0.0475  0.0090
 2977SOL    HW211674   3.097   6.234   4.816  0.6563  0.3190  0.0158
 2977SOL    HW311675   3.123   6.264   4.670 -0.9220  0.6580 -0.2169
 2977SOL    MW411676   3.089   6.286   4.747  0.5660  0.4149 -0.1206
 2978SOL     OW11677   1.037   5.479   5.556  0.4297  0.2921  0.3831
 2978SOL    HW211678   0.978   5.543   5.597 -0.6885 -0.8828  0.6423
 2978SOL    HW311679   0.993   5.453   5.476  0.5465 -0.6625  0.6228
 2978SOL    MW411680   1.024   5.484   5.551  0.3893  0.3800  0.2933
 2979SOL     OW11681   1.251   2.228   5.940 -0.3348  0.4685  0.1725
 2979SOL    HW211682   1.218   2.317   5.942 -0.0806  0.5862 -0.5251
 2979SOL    HW311683   1.346   2.238   5.936 -0.3377  0.2007 -1.0594
 2979SOL    MW411684   1.259   2.241   5.939 -0.2297  0.4182 -0.3118
 2980SOL     OW11685   1.826   3.632   5.839 -0.0658  0.0596  0.1563
 2980SOL    HW211686   1.855   3.541   5.851 -1.2164 -0.5888 -1.4978
 2980SOL    HW311687   1.738   3.634   5.876  0.3087  0.7955  1.0557
 2980SOL    MW411688   1.819   3.620   5.845 -0.3940  0.1190  0.2029
 2981SOL     OW11689   1.050   0.729   4.419  0.0915  0.1253 -0.4500
 2981SOL    HW211690   1.106   0.673   4.365  0.6666 -0.4836  0.7466
 2981SOL    HW311691   1.108   0.795   4.455  0.2275 -0.9177  1.3477
 2981SOL    MW411692   1.065   0.730   4.417  0.7335  0.3280  0.0556
 2982SOL     OW11693   1.005   4.545   1.018 -0.3406 -0.1666 -0.2779
 2982SOL    HW211694   1.028   4.497   0.938  0.0277  0.4953 -0.5833
 2982SOL    HW311695   1.088   4.579   1.050 -0.7015  1.1979 -0.6915
 2982SOL    MW411696   1.019   4.544   1.012  0.5279  0.3620  0.0753
 2983SOL     OW11697   3.874   6.011   2.943 -0.3414 -0.0246  0.6413
 2983SOL    HW211698   3.795   6.010   2.998 -0.4675  1.0843  0.4998
 2983SOL    HW311699   3.943   5.979   3.001 -0.6030  0.4962  1.2539
 2983SOL    MW411700   3.873   6.006   2.958  0.4919  0.3079 -0.0279
 2984SOL     OW11701   5.254   3.230   1.744  0.2694  0.3899  0.0988
 2984SOL    HW211702   5.315   3.170   1.699  0.1254 -0.0231  0.4503
 2984SOL    HW311703   5.247   3.195   1.832 -2.9269 -1.4813 -0.7619
 2984SOL    MW411704   5.261   3.217   1.749 -0.6988  0.2471  0.4663
 2985SOL     OW11705   3.959   2.299   1.046  0.0667 -0.1663  0.3745
 2985SOL    HW211706   3.935   2.209   1.023 -0.8188  0.0214  0.5100
 2985SOL    HW311707   3.971   2.297   1.141  2.0053 -0.5613  0.1515
 2985SOL    MW411708   3.957   2.287   1.055  0.2508  0.4955 -0.0306
 2986SOL     OW11709   3.477   4.189   3.460 -0.2785 -0.2555 -0.2182
 2986SOL    HW211710   3.429   4.271   3.448  0.0824  0.1480  0.9335
 2986SOL    HW311711   3.428   4.142   3.527  0.4702 -0.1949  0.3860
 2986SOL    MW411712   3.465   4.194   3.467  0.0518 -0.4066  0.2824
 2987SOL     OW11713   3.270   4.831   2.315 -0.1996 -0.3086  0.5535
 2987SOL    HW211714   3.206   4.814   2.384 -0.8494 -1.7845 -0.3647
 2987SOL    HW311715   3.220   4.823   2.234  0.6145  1.1059 -0.1107
 2987SOL    MW411716   3.255   4.827   2.314  0.3888 -0.2033 -0.1926
 2988SOL     OW11717   5.861   1.560   5.169  0.4602 -0.4432 -0.5188
 2988SOL    HW211718   5.878   1.522   5.256  0.0926 -1.7219 -0.9761
 2988SOL    HW311719   5.770   1.590   5.174  0.0914 -1.4714 -0.7690
 2988SOL    MW411720   5.852   1.559   5.181  0.1855 -0.2631  0.3420
 2989SOL     OW11721   3.469   4.954   4.649 -0.2820  0.1075 -0.4122
 2989SOL    HW211722   3.491   4.904   4.728  0.2484 -0.4293 -0.8872
 2989SOL    HW311723   3.460   5.044   4.679 -0.8260 -0.2029  0.3882
 2989SOL    MW411724   3.470   4.959   4.663 -0.2056  0.3347 -0.1750
 2990SOL     OW11725   2.631   0.473   1.957  0.3286  0.1424  0.2008
 2990SOL    HW211726   2.667   0.437   2.039  0.8582  3.1182  1.4271
 2990SOL    HW311727   2.702   0.465   1.894  1.3092  1.1547  1.1283
 2990SOL    MW411728   2.645   0.468   1.960 -0.5269  0.0617  0.1048
 2991SOL     OW11729   5.391   2.588   6.117  0.2890 -0.5353 -0.2362
 2991SOL    HW211730   5.332   2.531   6.166  0.0235 -1.9638 -2.1034
 2991SOL    HW311731   5.340   2.668   6.103  0.3584 -0.1037  1.7051
 2991SOL    MW411732   5.376   2.591   6.122  0.2478 -0.0437 -0.3433
 2992SOL     OW11733   0.792   0.126   3.950 -0.5474 -0.3762 -0.0096
 2992SOL    HW211734   0.850   0.050   3.942  0.0221  0.1740 -1.2800
 2992SOL    HW311735   0.774   0.131   4.044 -0.8715 -2.2749  0.0813
 2992SOL    MW411736   0.797   0.117   3.962 -0.1202 -0.0353 -0.7818
 2993SOL     OW11737   2.683   2.035   2.912  0.4635 -0.0693  0.1200
 2993SOL    HW211738   2.627   2.103   2.951 -1.4387 -1.0738 -0.7096
 2993SOL    HW311739   2.720   1.990   2.988 -1.8513 -0.9211  0.8607
 2993SOL    MW411740   2.680   2.038   2.927 -0.0830  0.4655 -0.7056
 2994SOL     OW11741   0.238   5.116   6.250 -0.1999  0.1336  0.3598
 2994SOL    HW211742   0.329   5.133   6.227 -0.6208  0.4263 -1.1705
 2994SOL    HW311743   0.235   5.023   6.274  0.5553  0.2167  0.7957
 2994SOL    MW411744   0.249   5.106   6.250 -0.0799  0.1289 -0.3667
 2995SOL     OW11745   5.835   4.992   1.792  0.8508 -0.3460 -0.5248
 2995SOL    HW211746   5.845   4.989   1.887  1.5142  0.4350 -0.5618
 2995SOL    HW311747   5.877   4.912   1.761  0.6203 -0.6111 -0.1715
 2995SOL    MW411748   5.842   4.981   1.800 -0.2986  0.2568  0.7480
 2996SOL     OW11749   1.638   4.771   3.844 -0.2311  0.1182 -0.1388
 2996SOL    HW211750   1.696   4.715   3.792 -1.6687 -0.5507 -1.0604
 2996SOL    HW311751   1.552   4.759   3.806 -0.7173  2.4523  0.0683
 2996SOL    MW411752   1.635   4.762   3.832  0.2640 -0.0803 -0.0731
 2997SOL     OW11753   6.022   0.772   5.764 -0.1943 -0.1761  0.2804
 2997SOL    HW211754   6.096   0.762   5.704  0.0051  0.3532  0.4383
 2997SOL    HW311755   6.043   0.714   5.837 -0.6943 -1.2389 -0.3944
 2997SOL    MW411756   6.034   0.763   5.766  0.2535  0.2755  0.0933
 2998SOL     OW11757   1.627   6.160   1.737  0.3895  0.2915  0.2961
 2998SOL    HW211758   1.557   6.143   1.674 -0.0596 -0.8456  1.0671
 2998SOL    HW311759   1.581   6.191   1.816  0.8751  0.9015  0.3477
 2998SOL    MW411760   1.612   6.162   1.739 -0.1397 -0.0378 -0.3239
 2999SOL     OW11761   5.489   0.276   2.871  0.1977  0.4038 -0.0311
 2999SOL    HW211762   5.557   0.247   2.931 -0.6150 -1.3547  0.0897
 2999SOL    HW311763   5.409   0.276   2.923 -0.8825 -2.9118 -1.4027
 2999SOL    MW411764   5.487   0.272   2.886 -0.0937  0.0688  0.3109
 3000SOL     OW11765   4.859   5.671   3.045  0.1002 -0.0891 -0.0560
 3000SOL    HW211766   4.798   5.741   3.067 -0.0395 -0.8544  2.2486
 3000SOL    HW311767   4.914   5.707   2.976 -0.2899  2.0957  0.7059
 3000SOL    MW411768   4.858   5.685   3.039 -0.3401  0.5822  0.3580
 3001SOL     OW11769   0.924   4.755   0.901 -0.0293 -0.7325  0.2961
 3001SOL    HW211770   0.922   4.824   0.967 -2.6826 -0.9367  0.5188
 3001SOL    HW311771   0.935   4.674   0.951 -0.8203 -0.7806  0.4044
 3001SOL    MW411772   0.926   4.753   0.916  0.0504  0.6566  0.2031
 3002SOL     OW11773   2.953   0.818   4.995 -0.2631  0.1150 -0.2944
 3002SOL    HW211774   2.894   0.889   4.971  1.4829  0.7188 -3.3223
 3002SOL    HW311775   2.901   0.738   4.983 -1.0366  0.6996 -0.9552
 3002SOL    MW411776   2.938   0.817   4.990  0.2930 -0.8910 -0.2798
 3003SOL     OW11777   3.861   3.299   2.818 -0.3786  0.4084  0.1247
 3003SOL    HW211778   3.792   3.291   2.883 -0.1911 -1.8935  0.1105
 3003SOL    HW311779   3.868   3.394   2.802 -3.2782  0.7477  0.3339
 3003SOL    MW411780   3.853   3.311   2.825  0.0508  0.0426 -0.0124
 3004SOL     OW11781   3.718   5.223   5.799  0.2099  0.4025  0.2035
 3004SOL    HW211782   3.672   5.305   5.779  0.5508  0.5359 -0.0523
 3004SOL    HW311783   3.736   5.228   5.892 -0.0580  0.4720  0.2512
 3004SOL    MW411784   3.714   5.235   5.808  0.0783  0.0533 -0.1209
 3005SOL     OW11785   3.375   1.429   0.761  0.6841  0.5875  0.0014
 3005SOL    HW211786   3.318   1.503   0.743 -0.3005 -0.2843 -0.5490
 3005SOL    HW311787   3.414   1.407   0.676  0.6298  0.1912  0.0759
 3005SOL    MW411788   3.373   1.436   0.748 -0.1591  0.5396  0.2939
 3006SOL     OW11789   3.199   0.537   4.650 -0.0114 -0.2152  0.0683
 3006SOL    HW211790   3.263   0.472   4.621  0.6785  0.7344 -0.6304
 3006SOL    HW311791   3.154   0.495   4.724  2.3565 -0.4512  1.5136
 3006SOL    MW411792   3.202   0.523   4.656 -0.0124  0.2539  0.5344
 3007SOL     OW11793   0.152   1.499   3.124 -0.2196 -0.4056 -0.0025
 3007SOL    HW211794   0.113   1.565   3.181  0.8059 -0.3258  0.6492
 3007SOL    HW311795   0.165   1.544   3.040 -0.3694 -0.0565  0.1590
 3007SOL    MW411796   0.149   1.514   3.120  0.4697  0.0420 -0.4744
 3008SOL     OW11797   2.016   4.647   6.176  0.0781  0.4246  0.6413
 3008SOL    HW211798   2.049   4.598   6.101  0.5909 -0.8223  1.6525
 3008SOL    HW311799   1.933   4.683   6.146  1.1369  1.5728 -1.1587
 3008SOL    MW411800   2.010   4.646   6.162  0.2982  0.0008 -0.0128
 3009SOL     OW11801   1.733   2.696   2.691 -0.4682 -0.2773  0.0023
 3009SOL    HW211802   1.773   2.738   2.766  0.0871  1.2357 -1.0852
 3009SOL    HW311803   1.734   2.763   2.622  0.7865 -2.1702 -1.9534
 3009SOL    MW411804   1.738   2.710   2.691 -0.0379 -0.5726 -0.3680
 3010SOL     OW11805   2.456   1.450   2.601  0.1833  0.3313 -0.2412
 3010SOL    HW211806   2.542   1.435   2.641  0.2383 -2.1506 -1.1409
 3010SOL    HW311807   2.475   1.504   2.524  0.7203  0.9669  0.3176
 3010SOL    MW411808   2.470   1.455   2.596 -0.1039  0.2849  0.2331
 3011SOL     OW11809   4.434   4.060   5.235  0.0302  0.1128 -0.3984
 3011SOL    HW211810   4.385   4.100   5.306 -2.1265 -1.4319 -0.9130
 3011SOL    HW311811   4.526   4.069   5.260 -0.6376 -0.2032  2.4727
 3011SOL    MW411812   4.439   4.066   5.247 -0.1360  0.2170  0.3332
 3012SOL     OW11813   2.027   3.543   2.135  0.5969  0.2814 -0.0898
 3012SOL    HW211814   2.018   3.595   2.055 -2.0208  1.6165  0.9405
 3012SOL    HW311815   2.061   3.606   2.199  1.5459 -0.4714  0.1630
 3012SOL    MW411816   2.031   3.558   2.133 -0.8815 -0.6460  0.0231
 3013SOL     OW11817   5.629   6.360   3.037 -0.3442  0.2706 -0.1490
 3013SOL    HW211818   5.655   6.452   3.030 -2.5908  1.1748  2.0505
 3013SOL    HW311819   5.674   6.317   2.964  0.6733  3.1149 -1.3341
 3013SOL    MW411820   5.639   6.366   3.026 -0.4531 -0.0474 -0.1398
 3014SOL     OW11821   0.683   0.251   6.285  0.4244  0.4840 -0.2247
 3014SOL    HW211822   0.772   0.222   6.264 -0.3152 -0.0293 -2.9608
 3014SOL    HW311823   0.660   0.311   6.214 -1.3760  0.7105  0.5083
 3014SOL    MW411824   0.692   0.255   6.273 -0.1807 -0.3828 -0.2920
 3015SOL     OW11825   5.504   0.527   3.333  0.1206 -0.4954 -0.2475
 3015SOL    HW211826   5.494   0.608   3.382  2.9055  1.1692 -2.1520
 3015SOL    HW311827   5.590   0.494   3.357  0.8678 -0.4914 -2.6458
 3015SOL    MW411828   5.514   0.533   3.342  0.1962  0.2223  0.6887
 3016SOL     OW11829   0.873   2.721   2.406 -0.3507 -0.2306  0.7183
 3016SOL    HW211830   0.964   2.735   2.381 -0.5946 -0.3954 -0.2857
 3016SOL    HW311831   0.848   2.640   2.362 -1.6852  1.0300 -0.9667
 3016SOL    MW411832   0.882   2.712   2.397 -0.5168  0.0477  0.0552
 3017SOL     OW11833   4.360   3.803   5.068 -0.4789  0.0280 -0.3282
 3017SOL    HW211834   4.412   3.884   5.074  1.0640 -1.0078  1.5942
 3017SOL    HW311835   4.296   3.821   4.999  1.5355  1.9096 -1.8882
 3017SOL    MW411836   4.359   3.816   5.059 -0.1502 -0.9064 -0.6116
 3018SOL     OW11837   2.044   6.036   3.612 -0.4922 -0.0793 -0.4369
 3018SOL    HW211838   2.002   6.060   3.695  3.3672  2.5913  1.0184
 3018SOL    HW311839   2.010   6.101   3.550 -1.0230 -0.1025 -0.1834
 3018SOL    MW411840   2.034   6.048   3.615  0.2947 -0.0401 -0.8407
 3019SOL     OW11841   4.531   4.156   4.494  0.1768  0.3517 -0.5639
 3019SOL    HW211842   4.511   4.140   4.586  2.1341  2.1493  0.2668
 3019SOL    HW311843   4.487   4.086   4.447 -1.1343 -0.4496  1.7026
 3019SOL    MW411844   4.523   4.145   4.500  0.0400  0.6314  0.6598
 3020SOL     OW11845   0.759   0.583   1.760  0.3157  0.0718 -0.1666
 3020SOL    HW211846   0.718   0.506   1.801  0.4677 -0.5403 -1.1556
 3020SOL    HW311847   0.836   0.549   1.715  0.4324  0.8222 -0.5494
 3020SOL    MW411848   0.764   0.569   1.760 -0.1419 -0.2572 -0.6175
 3021SOL     OW11849   4.271   1.562   5.717  0.3080 -0.4809 -0.8276
 3021SOL    HW211850   4.264   1.504   5.793  0.8060  0.5180  0.0027
 3021SOL    HW311851   4.257   1.504   5.642  1.9279 -1.9233 -0.0914
 3021SOL    MW411852   4.268   1.547   5.717 -0.1960 -0.2208 -0.1495
 3022SOL     OW11853   6.097   1.229   2.773  0.0380 -0.0080 -0.5339
 3022SOL    HW211854   6.069   1.156   2.828  1.5885  0.2228  0.6495
 3022SOL    HW311855   6.171   1.195   2.723  0.2600  0.5097 -0.5733
 3022SOL    MW411856   6.103   1.215   2.774  0.0615  0.5374 -0.5051
 3023SOL     OW11857   3.352   3.242   3.035  0.3324  0.2332 -0.2993
 3023SOL    HW211858   3.258   3.229   3.048  0.4292  0.4084  0.7077
 3023SOL    HW311859   3.392   3.183   3.099  0.8748  1.1211  0.2005
 3023SOL    MW411860   3.345   3.233   3.045  0.9594  0.4228  0.7611
 3024SOL     OW11861   2.151   3.741   5.338  0.3044  1.0670  0.0675
 3024SOL    HW211862   2.200   3.691   5.403  0.6697  0.5764 -0.5683
 3024SOL    HW311863   2.059   3.723   5.359  0.4281  0.1266 -0.1302
 3024SOL    MW411864   2.145   3.732   5.349  0.0012 -0.4915  0.4273
 3025SOL     OW11865   4.735   1.830   5.343  0.1308  0.3680 -0.4534
 3025SOL    HW211866   4.817   1.785   5.363  0.0008 -0.5475 -1.8440
 3025SOL    HW311867   4.760   1.898   5.280  0.0050  0.9713  0.1253
 3025SOL    MW411868   4.749   1.833   5.337  0.0233 -0.6824 -0.3953
 3026SOL     OW11869   6.372   3.278   5.644 -0.2861  0.0552 -0.0553
 3026SOL    HW211870   6.363   3.304   5.552 -0.1137  1.2755  0.2487
 3026SOL    HW311871   6.338   3.189   5.648 -1.3389  0.3893 -1.0947
 3026SOL    MW411872   6.366   3.270   5.633  0.3092 -0.4466 -0.8709
 3027SOL     OW11873   1.253   2.270   0.489  0.4688  0.3783  0.4323
 3027SOL    HW211874   1.170   2.317   0.502  0.0611 -0.4026  0.6812
 3027SOL    HW311875   1.266   2.222   0.570  0.4186 -0.6592 -0.1658
 3027SOL    MW411876   1.243   2.270   0.501  0.3519 -0.0803 -0.3346
 3028SOL     OW11877   1.694   4.261   3.545  0.1444 -0.2071  0.9457
 3028SOL    HW211878   1.637   4.240   3.619  0.4190  3.3269  2.3211
 3028SOL    HW311879   1.639   4.243   3.468 -1.5555 -0.2955  2.1110
 3028SOL    MW411880   1.679   4.256   3.544 -0.2434  0.3077 -0.2257
 3029SOL     OW11881   4.741   1.579   3.717 -0.1389 -0.6410  0.2483
 3029SOL    HW211882   4.825   1.615   3.746 -1.3540  1.6559  1.1926
 3029SOL    HW311883   4.750   1.484   3.727  1.9346 -0.3634  1.4406
 3029SOL    MW411884   4.753   1.571   3.722  0.3419 -0.4802 -0.3281
 3030SOL     OW11885   1.014   4.703   5.549  0.0167  0.1599 -0.3816
 3030SOL    HW211886   1.069   4.638   5.592 -0.1085  0.6128  0.4906
 3030SOL    HW311887   0.985   4.760   5.620 -3.0446 -1.0892 -0.4400
 3030SOL    MW411888   1.017   4.702   5.564 -0.1415 -0.7535 -0.3077
 3031SOL     OW11889   5.147   0.269   3.853 -0.4133 -0.2649  0.3195
 3031SOL    HW211890   5.176   0.326   3.925  0.4209  0.5135 -0.5996
 3031SOL    HW311891   5.135   0.328   3.779  1.9803 -1.4375 -1.1097
 3031SOL    MW411892   5.149   0.284   3.853 -0.1071 -0.0359 -0.5048
 3032SOL     OW11893   1.251   0.663   0.186 -0.5585  0.8597  0.7015
 3032SOL    HW211894   1.186   0.623   0.244 -1.0065 -1.1503 -1.0752
 3032SOL    HW311895   1.202   0.686   0.107  0.2741  2.3998  0.5935
 3032SOL    MW411896   1.236   0.661   0.183  0.4540  0.1399  0.2780
 3033SOL     OW11897   4.357   5.234   1.701 -0.0203  0.4677 -0.0351
 3033SOL    HW211898   4.391   5.157   1.746  1.1915  1.5184  0.9144
 3033SOL    HW311899   4.300   5.198   1.632  1.0402 -1.2761 -0.0625
 3033SOL    MW411900   4.354   5.219   1.697  0.1241  0.2964  0.1213
 3034SOL     OW11901   4.120   3.472   1.730  0.1640  0.2542  0.2301
 3034SOL    HW211902   4.110   3.567   1.729  0.3412  0.2974 -1.3886
 3034SOL    HW311903   4.175   3.454   1.653  0.7579 -1.1005  0.9474
 3034SOL    MW411904   4.126   3.482   1.719 -0.4080  0.3553 -0.3752
 3035SOL     OW11905   1.190   5.098   2.251  0.4747  0.2664 -0.0676
 3035SOL    HW211906   1.165   5.188   2.269  0.4569  0.5006 -1.2066
 3035SOL    HW311907   1.135   5.071   2.178  0.3389 -0.7424  0.3762
 3035SOL    MW411908   1.179   5.106   2.244  0.1420  0.8452 -0.3641
 3036SOL     OW11909   2.582   4.742   1.536 -0.1156  0.1127 -0.5217
 3036SOL    HW211910   2.589   4.679   1.608  0.1915 -0.2894 -0.8924
 3036SOL    HW311911   2.657   4.800   1.548 -0.1349  0.1222 -0.4460
 3036SOL    MW411912   2.593   4.741   1.547 -0.2756 -0.1694  0.6537
 3037SOL     OW11913   4.020   2.023   2.615 -0.5402  0.8393 -0.1913
 3037SOL    HW211914   4.005   1.998   2.706 -0.2077  1.2632 -0.0248
 3037SOL    HW311915   3.936   2.058   2.586 -0.2224  2.1159  0.4018
 3037SOL    MW411916   4.007   2.024   2.623 -0.2184 -0.2425 -0.1355
 3038SOL     OW11917   2.962   3.296   0.302  0.2478 -0.3199 -0.2698
 3038SOL    HW211918   2.911   3.221   0.270 -0.9901  0.3569  0.0646
 3038SOL    HW311919   2.900   3.347   0.353  1.2712  0.5563  0.1314
 3038SOL    MW411920   2.947   3.293   0.305 -0.1916  0.6023 -0.2824
 3039SOL     OW11921   2.787   6.312   2.773  0.2954  0.0245  0.1141
 3039SOL    HW211922   2.822   6.334   2.687  2.0402  0.9035  0.9835
 3039SOL    HW311923   2.862   6.321   2.832 -0.5802 -1.6322  1.5779
 3039SOL    MW411924   2.802   6.316   2.770  0.6544 -0.9923 -0.5904
 3040SOL     OW11925   0.215   3.993   6.118  0.4720 -0.0851  0.2446
 3040SOL    HW211926   0.293   3.965   6.070 -0.4573 -0.9863 -0.7983
 3040SOL    HW311927   0.160   4.034   6.052 -0.5452 -0.7458  0.6586
 3040SOL    MW411928   0.218   3.994   6.103  0.0975  0.5664  0.5040
 3041SOL     OW11929   3.855   5.990   6.035  0.1230 -0.4476  0.0845
 3041SOL    HW211930   3.774   6.030   6.003  0.4776  0.3946  0.2290
 3041SOL    HW311931   3.852   6.002   6.130 -0.4561 -2.0671  0.3120
 3041SOL    MW411932   3.844   5.997   6.044 -0.5469  0.2604  0.4490
 3042SOL     OW11933   1.612   5.302   4.871 -0.2169  0.2306 -0.1896
 3042SOL    HW211934   1.580   5.217   4.840  2.2471 -0.4177 -1.2426
 3042SOL    HW311935   1.607   5.359   4.795  0.6143  0.2495 -0.2400
 3042SOL    MW411936   1.607   5.298   4.857  0.1076  0.5262  0.1112
 3043SOL     OW11937   2.550   5.759   2.109  0.9713  0.0826 -0.5076
 3043SOL    HW211938   2.571   5.835   2.055  1.9991 -2.3181 -3.7764
 3043SOL    HW311939   2.454   5.756   2.111  0.9109  0.2780 -2.2008
 3043SOL    MW411940   2.540   5.768   2.102 -0.1087 -0.2491  0.3027
 3044SOL     OW11941   4.855   0.614   4.304  0.2195  0.0711  0.3153
 3044SOL    HW211942   4.812   0.594   4.220  2.8272 -2.7737 -0.5429
 3044SOL    HW311943   4.927   0.673   4.281  0.1844  0.2821  0.7490
 3044SOL    MW411944   4.859   0.619   4.290  0.4918 -0.1427 -0.0457
 3045SOL     OW11945   1.225   1.663   6.135  0.7861  0.4390 -0.1574
 3045SOL    HW211946   1.176   1.701   6.208 -0.3041 -1.2546  0.0373
 3045SOL    HW311947   1.169   1.678   6.059 -0.1157 -1.5073  0.0662
 3045SOL    MW411948   1.211   1.670   6.135  0.2642 -0.0132  0.5761
 3046SOL     OW11949   1.817   3.974   3.960 -0.5658 -0.0996 -0.6131
 3046SOL    HW211950   1.852   3.905   4.016  0.7203 -0.8068 -2.1818
 3046SOL    HW311951   1.722   3.965   3.967 -0.4230 -1.4915 -0.1195
 3046SOL    MW411952   1.809   3.963   3.968  0.4302  0.4797 -0.4920
 3047SOL     OW11953   0.395   1.935   5.079 -0.3491 -0.5918  0.3214
 3047SOL    HW211954   0.460   1.979   5.025 -0.2576 -1.9676 -0.7331
 3047SOL    HW311955   0.441   1.859   5.115 -1.2214 -1.3203 -0.0583
 3047SOL    MW411956   0.410   1.931   5.077  0.1528  0.3992 -0.0076
 3048SOL     OW11957   5.888   3.960   0.204  0.6587  0.7633  0.7254
 3048SOL    HW211958   5.830   3.892   0.239  0.8426 -0.6847 -1.5364
 3048SOL    HW311959   5.833   4.038   0.202 -0.4227  0.0426  0.9994
 3048SOL    MW411960   5.873   3.961   0.208  0.1981  0.2222 -0.6226
 3049SOL     OW11961   3.405   2.026   2.502  0.2582  0.2521 -0.0489
 3049SOL    HW211962   3.431   2.095   2.441  2.2154 -0.3756  0.0074
 3049SOL    HW311963   3.374   1.955   2.446 -0.1826  0.5422 -0.1800
 3049SOL    MW411964   3.404   2.025   2.487  0.5241  0.0871  0.0854
 3050SOL     OW11965   0.606   1.723   4.759  0.0726  0.1559  0.0784
 3050SOL    HW211966   0.624   1.629   4.760 -0.0760  0.1296  0.2546
 3050SOL    HW311967   0.684   1.763   4.797  0.8122  0.2205 -1.4422
 3050SOL    MW411968   0.619   1.716   4.764 -0.2348 -0.4187 -0.3756
 3051SOL     OW11969   3.527   5.936   0.041 -0.2194  0.6516  0.6177
 3051SOL    HW211970   3.533   6.009  -0.021  1.1159 -0.4301 -0.6060
 3051SOL    HW311971   3.615   5.896   0.039 -0.8424 -0.8386  1.4298
 3051SOL    MW411972   3.540   5.940   0.033 -0.1041 -0.3772  0.1181
 3052SOL     OW11973   2.371   4.001   1.471 -0.3373  0.5130  1.1063
 3052SOL    HW211974   2.280   3.977   1.460 -0.0480 -0.9600  1.6932
 3052SOL    HW311975   2.380   4.085   1.427 -1.3910 -0.5082 -1.1740
 3052SOL    MW411976   2.360   4.009   1.464 -0.0417  0.0229  0.6805
 3053SOL     OW11977   0.131   4.422   4.754 -0.2946  0.5443  0.6121
 3053SOL    HW211978   0.109   4.406   4.663 -4.2135  1.5601  1.2052
 3053SOL    HW311979   0.181   4.503   4.753 -1.3755  1.2255 -0.5718
 3053SOL    MW411980   0.135   4.430   4.742 -0.5109  0.4687 -0.5325
 3054SOL     OW11981   0.720   3.060   0.628  0.0426 -0.4608 -0.1718
 3054SOL    HW211982   0.642   3.008   0.608 -0.4853  0.0286  0.5428
 3054SOL    HW311983   0.791   2.996   0.631  0.0069 -0.6765 -2.5679
 3054SOL    MW411984   0.719   3.045   0.626 -0.3645 -0.1487  0.5092
 3055SOL     OW11985   4.298   5.333   6.175  0.0555 -0.4712 -0.2205
 3055SOL    HW211986   4.273   5.241   6.174  0.2895 -0.5347 -0.7408
 3055SOL    HW311987   4.217   5.380   6.198 -0.2985 -0.7448 -0.8702
 3055SOL    MW411988   4.284   5.327   6.178 -0.4394  0.3703 -0.4671
 3056SOL     OW11989   1.035   2.312   1.336  0.5403  0.4987 -0.2243
 3056SOL    HW211990   1.095   2.356   1.396  1.0082 -0.1385 -0.2187
 3056SOL    HW311991   1.002   2.237   1.386  0.8619  0.0142 -0.7298
 3056SOL    MW411992   1.038   2.308   1.351 -0.2266  0.1405 -0.0618
 3057SOL     OW11993   5.887   4.305   4.391  0.4040 -0.0345 -0.2526
 3057SOL    HW211994   5.818   4.340   4.447  0.8849 -0.3781  0.5665
 3057SOL    HW311995   5.882   4.210   4.402 -0.8413 -0.2912 -2.4048
 3057SOL    MW411996   5.877   4.297   4.400 -0.3115  0.2148  0.0141
 3058SOL     OW11997   3.864   4.229   1.808 -0.3036  0.0753  0.1872
 3058SOL    HW211998   3.942   4.216   1.862 -0.2926  0.1971  0.2021
 3058SOL    HW311999   3.795   4.250   1.871  0.0854  1.9652  0.0527
 3058SOL    MW412000   3.865   4.230   1.824  0.0099 -0.2135  0.3816
 3059SOL     OW12001   1.586   1.752   1.458  0.0217  0.9506  0.0123
 3059SOL    HW212002   1.640   1.823   1.424  0.9288  0.7455  0.9762
 3059SOL    HW312003   1.539   1.792   1.532  0.4134  0.6003  0.4564
 3059SOL    MW412004   1.587   1.767   1.463  0.2572  0.0016  0.0389
 3060SOL     OW12005   3.358   1.376   5.665  0.2929  0.4643 -0.2506
 3060SOL    HW212006   3.371   1.334   5.579  0.2035  0.5387 -0.3007
 3060SOL    HW312007   3.444   1.411   5.688  0.5762 -0.4737  0.1772
 3060SOL    MW412008   3.371   1.375   5.657  0.1049  0.1795  0.0285
 3061SOL     OW12009   2.850   4.457   2.736  0.7019 -0.0854  0.0806
 3061SOL    HW212010   2.807   4.542   2.734  0.1526 -0.3471 -1.9774
 3061SOL    HW312011   2.937   4.472   2.699 -0.1267 -0.7109 -2.2804
 3061SOL    MW412012   2.856   4.470   2.731  0.3128 -0.4220  0.4570
 3062SOL     OW12013   2.103   4.513   4.509  0.0448 -0.5283 -0.1943
 3062SOL    HW212014   2.109   4.608   4.493  1.0194 -0.2643  1.4982
 3062SOL    HW312015   2.038   4.483   4.446  0.8464  1.0016 -1.8656
 3062SOL    MW412016   2.095   4.522   4.498  0.0183  0.1723 -0.1865
 3063SOL     OW12017   6.038   0.278   6.164 -0.1191  0.1738  0.3905
 3063SOL    HW212018   6.055   0.334   6.088 -0.0426  1.5761  1.3918
 3063SOL    HW312019   6.072   0.328   6.238  2.1665 -2.2429  1.1240
 3063SOL    MW412020   6.045   0.292   6.163 -0.0291  0.2503  0.6073
 3064SOL     OW12021   1.098   0.952   0.746 -0.2141 -0.1070 -0.0901
 3064SOL    HW212022   1.189   0.969   0.721  0.3850 -0.1912  1.8712
 3064SOL    HW312023   1.054   1.036   0.735  0.6561  0.5332  1.1036
 3064SOL    MW412024   1.104   0.965   0.741  0.1504  0.3086  0.4003
 3065SOL     OW12025   4.064   2.663   2.955 -0.1912  0.9723 -0.1564
 3065SOL    HW212026   3.992   2.663   2.892  0.4404  0.2010 -0.9051
 3065SOL    HW312027   4.143   2.667   2.901  0.3469  1.4618  0.6373
 3065SOL    MW412028   4.065   2.663   2.939  0.1086 -0.1607  0.2938
 3066SOL     OW12029   2.653   4.448   1.379 -0.2768 -0.4732 -0.5658
 3066SOL    HW212030   2.616   4.532   1.405 -1.2973 -0.8620 -0.7395
 3066SOL    HW312031   2.642   4.445   1.284 -0.1895 -0.7808 -0.5668
 3066SOL    MW412032   2.647   4.459   1.370 -0.0119 -0.1033 -0.1633
 3067SOL     OW12033   2.731   1.822   1.015  0.0032  0.2928  0.3087
 3067SOL    HW212034   2.731   1.908   0.973 -0.1416  0.5942  0.9156
 3067SOL    HW312035   2.683   1.835   1.097 -2.4181 -0.9502 -0.7915
 3067SOL    MW412036   2.725   1.835   1.021  0.0819 -0.4594  0.2210
 3068SOL     OW12037   1.053   6.190   3.654  0.1086  0.0505  0.0981
 3068SOL    HW212038   1.069   6.274   3.612 -1.1365  1.1754  1.7477
 3068SOL    HW312039   0.979   6.152   3.606  0.5467 -0.0230 -0.5236
 3068SOL    MW412040   1.045   6.196   3.642  0.0696  0.8245 -0.1539
 3069SOL     OW12041   3.685   3.663   1.385 -0.6356  0.2626 -0.3507
 3069SOL    HW212042   3.720   3.575   1.402 -0.1350  0.4113 -0.5937
 3069SOL    HW312043   3.672   3.700   1.472  0.7073  0.5473 -0.2383
 3069SOL    MW412044   3.688   3.656   1.399  0.2906  0.3684 -0.3841
 3070SOL     OW12045   6.172   4.367   4.338  0.4348  0.0889 -0.5650
 3070SOL    HW212046   6.087   4.331   4.360 -0.1283  2.2128  1.1277
 3070SOL    HW312047   6.164   4.395   4.247 -0.3233 -0.6385 -0.7300
 3070SOL    MW412048   6.160   4.366   4.329 -0.3483  0.1014 -0.0722
 3071SOL     OW12049   4.478   3.887   2.058  0.1532 -0.1010 -0.5791
 3071SOL    HW212050   4.459   3.808   2.108 -2.6555  0.3582 -0.6982
 3071SOL    HW312051   4.423   3.879   1.979  1.2678  1.1040 -1.5194
 3071SOL    MW412052   4.468   3.876   2.054  0.2968  0.1609  0.4333
 3072SOL     OW12053   3.318   3.276   3.851  0.2299  0.1640 -0.0894
 3072SOL    HW212054   3.231   3.298   3.883  0.9289  0.2650  1.8571
 3072SOL    HW312055   3.302   3.220   3.775 -1.5190  1.2937 -0.6205
 3072SOL    MW412056   3.305   3.271   3.845 -0.1532  0.0685 -0.3050
 3073SOL     OW12057   2.130   2.241   1.307 -0.2227  0.8131 -0.0954
 3073SOL    HW212058   2.043   2.233   1.268 -0.1631 -0.0221 -0.0750
 3073SOL    HW312059   2.187   2.265   1.234 -0.0284 -1.1940 -0.6775
 3073SOL    MW412060   2.126   2.243   1.292 -0.2024 -0.2432 -0.6333
 3074SOL     OW12061   0.821   0.843   1.965 -0.0668  0.4941  0.1537
 3074SOL    HW212062   0.809   0.911   2.032 -0.6430 -0.3206  0.9076
 3074SOL    HW312063   0.755   0.778   1.986 -0.0207  0.0589 -1.0282
 3074SOL    MW412064   0.811   0.844   1.977 -0.7107 -0.4130 -0.0446
 3075SOL     OW12065   6.064   4.806   2.110  0.1752 -0.1694  0.1003
 3075SOL    HW212066   6.027   4.799   2.198  0.2195 -2.6330 -0.0184
 3075SOL    HW312067   6.155   4.778   2.119  0.7361  1.3413 -0.4477
 3075SOL    MW412068   6.071   4.802   2.122  0.4917  0.2200  0.0240
 3076SOL     OW12069   1.028   0.546   1.624 -0.1977  0.5312 -0.1008
 3076SOL    HW212070   0.975   0.537   1.546  0.6687 -0.1681 -0.6394
 3076SOL    HW312071   1.043   0.456   1.654  1.8705  0.5766 -0.8187
 3076SOL    MW412072   1.023   0.533   1.618  0.5908  0.4090  0.2470
 3077SOL     OW12073   4.320   5.633   4.805 -0.9443 -0.2906 -0.6426
 3077SOL    HW212074   4.291   5.551   4.764  0.4970 -0.8163 -0.6473
 3077SOL    HW312075   4.297   5.622   4.898  0.8517 -1.5120 -0.2838
 3077SOL    MW412076   4.313   5.621   4.812  0.1427 -0.3755  0.5686
 3078SOL     OW12077   5.947   0.065   3.933 -0.3143  0.5837 -0.4567
 3078SOL    HW212078   6.016   0.127   3.957  0.9704 -0.4221 -1.4267
 3078SOL    HW312079   5.870   0.094   3.983  1.4311  0.2543  2.6758
 3078SOL    MW412080   5.946   0.077   3.943 -0.7516 -0.6563 -0.4497
 3079SOL     OW12081   4.631   5.817   5.095 -0.4257  0.5062 -0.0222
 3079SOL    HW212082   4.656   5.774   5.177  1.2269 -0.1773 -0.8195
 3079SOL    HW312083   4.651   5.752   5.027 -1.9479  0.9754 -0.9763
 3079SOL    MW412084   4.637   5.803   5.097  0.2450 -0.0059  0.2358
 3080SOL     OW12085   5.765   0.017   1.791 -0.1201 -0.2410  0.2436
 3080SOL    HW212086   5.848   0.056   1.821 -0.8048  1.3313  0.2206
 3080SOL    HW312087   5.736   0.075   1.720 -0.3192 -1.8581 -1.0535
 3080SOL    MW412088   5.773   0.030   1.786  0.6228 -0.2089  0.0605
 3081SOL     OW12089   4.092   5.792   1.554  0.6342  0.2849  0.0665
 3081SOL    HW212090   4.037   5.845   1.612  0.5816 -0.1514  0.4155
 3081SOL    HW312091   4.059   5.809   1.466  0.0230  0.1149  0.2640
 3081SOL    MW412092   4.081   5.802   1.550 -0.8697  0.1167 -0.0197
 3082SOL     OW12093   3.360   5.079   5.972 -0.2278  0.1321 -0.2970
 3082SOL    HW212094   3.378   4.985   5.969 -0.3414  0.0710  0.6681
 3082SOL    HW312095   3.321   5.099   5.887 -0.0250 -0.6556 -0.5821
 3082SOL    MW412096   3.358   5.069   5.960 -0.0570  0.4177  0.0086
 3083SOL     OW12097   4.193   5.758   0.002 -0.5955 -0.2913 -0.0651
 3083SOL    HW212098   4.146   5.794   0.077 -0.4113 -1.8652  0.8608
 3083SOL    HW312099   4.263   5.705   0.041 -0.2017 -0.7697 -1.3571
 3083SOL    MW412100   4.196   5.756   0.017 -0.3783 -1.0748 -0.0607
 3084SOL     OW12101   3.502   4.004   3.182 -0.4004 -0.2902 -0.8294
 3084SOL    HW212102   3.435   4.009   3.250 -0.9377 -0.0619 -1.3599
 3084SOL    HW312103   3.464   3.944   3.117 -0.2707  0.1618 -1.3264
 3084SOL    MW412104   3.488   3.997   3.182  0.0272 -0.0588 -0.6295
 3085SOL     OW12105   0.812   0.762   5.661  0.4900  0.3645 -0.8152
 3085SOL    HW212106   0.793   0.806   5.578 -2.5705  0.1937 -0.3050
 3085SOL    HW312107   0.739   0.785   5.718  2.1616 -0.0539  1.6744
 3085SOL    MW412108   0.800   0.771   5.658  0.0152 -0.3096  0.4929
 3086SOL     OW12109   0.330   2.753   0.221 -0.5819  0.3034 -0.0994
 3086SOL    HW212110   0.334   2.849   0.223 -1.7634  0.4004 -0.8777
 3086SOL    HW312111   0.396   2.725   0.283 -0.8240  1.6453  0.8146
 3086SOL    MW412112   0.339   2.762   0.229 -0.2913  0.2865 -0.4918
 3087SOL     OW12113   3.139   4.993   1.527 -0.1945 -0.4776  0.2252
 3087SOL    HW212114   3.157   4.997   1.433 -0.8250 -1.8064  0.0253
 3087SOL    HW312115   3.177   4.910   1.555 -2.4958 -1.4839  0.5559
 3087SOL    MW412116   3.146   4.983   1.519  0.2147 -0.0237  0.1595
 3088SOL     OW12117   4.728   5.392   2.893 -0.0507  0.3108  0.0333
 3088SOL    HW212118   4.666   5.326   2.923 -0.9691  0.3994 -1.5483
 3088SOL    HW312119   4.679   5.474   2.897  0.3134  0.5451 -0.2247
 3088SOL    MW412120   4.714   5.394   2.897 -0.7055 -0.0990  0.0790
 3089SOL     OW12121   0.995   5.548   4.150 -0.2080 -0.4142  0.1654
 3089SOL    HW212122   0.989   5.552   4.054  1.8377  0.8546  0.0373
 3089SOL    HW312123   0.978   5.638   4.179  0.3932 -0.5326  0.9080
 3089SOL    MW412124   0.992   5.560   4.141  0.6183 -0.1044  0.1924
 3090SOL     OW12125   5.727   2.217   2.153  0.4866  0.5997 -0.0443
 3090SOL    HW212126   5.823   2.216   2.142  0.8386  1.4361  2.3614
 3090SOL    HW312127   5.701   2.125   2.141  2.0470 -0.2232  2.2509
 3090SOL    MW412128   5.737   2.204   2.150 -0.6668 -0.0268 -0.5598
 3091SOL     OW12129   4.398   4.986   5.016 -0.1338 -0.2792  0.1932
 3091SOL    HW212130   4.376   4.907   5.064 -1.9487 -0.1789 -0.4071
 3091SOL    HW312131   4.314   5.021   4.987  0.7496  0.8472 -1.1574
 3091SOL    MW412132   4.384   4.980   5.018 -0.7004  0.6703  0.0318
 3092SOL     OW12133   2.620   3.911   4.925  0.1025  0.6644  0.7145
 3092SOL    HW212134   2.532   3.924   4.962 -1.4889 -1.7040 -1.9166
 3092SOL    HW312135   2.623   3.972   4.851  0.6740  0.6585  0.7334
 3092SOL    MW412136   2.609   3.921   4.920 -0.0830 -0.5162 -0.0614
 3093SOL     OW12137   4.411   3.456   5.240 -0.1732 -0.4990 -0.1034
 3093SOL    HW212138   4.414   3.470   5.335  0.5638  0.3233 -0.2315
 3093SOL    HW312139   4.328   3.494   5.213 -0.7073 -1.3475  0.2905
 3093SOL    MW412140   4.400   3.463   5.249 -0.9895  0.0095  0.5690
 3094SOL     OW12141   1.375   4.965   3.379  0.2227  0.1155  0.5546
 3094SOL    HW212142   1.425   4.980   3.459  1.6989 -0.3553 -0.2338
 3094SOL    HW312143   1.416   4.888   3.339 -0.4989  0.3216 -0.6398
 3094SOL    MW412144   1.387   4.956   3.384 -0.2625  0.2459 -0.2790
 3095SOL     OW12145   3.388   5.986   2.743  0.2873 -0.1633 -0.2739
 3095SOL    HW212146   3.375   6.065   2.690 -1.2506 -0.4335 -0.3242
 3095SOL    HW312147   3.318   5.988   2.808  1.1154 -0.7446  0.6615
 3095SOL    MW412148   3.377   5.997   2.744  0.1840  0.3429  0.0422
 3096SOL     OW12149   4.903   3.852   2.673 -0.1423 -0.0170  0.2755
 3096SOL    HW212150   4.982   3.876   2.625  0.6557 -1.0798  1.0085
 3096SOL    HW312151   4.841   3.825   2.605  0.4789 -0.1448 -0.2504
 3096SOL    MW412152   4.905   3.851   2.658 -0.3689  0.4832  0.4174
 3097SOL     OW12153   5.213   0.949   4.924 -0.2454 -0.0347  0.2527
 3097SOL    HW212154   5.270   0.941   5.001 -0.9788  1.2855  0.9581
 3097SOL    HW312155   5.161   0.869   4.925 -1.0886  0.4825  1.8529
 3097SOL    MW412156   5.214   0.937   4.934  0.4175 -0.0095  0.2053
 3098SOL     OW12157   0.730   4.379   2.536  0.6376  0.4050 -0.5384
 3098SOL    HW212158   0.665   4.317   2.570 -0.5731  2.1905  0.5906
 3098SOL    HW312159   0.807   4.366   2.592  0.3434  0.0071 -0.2221
 3098SOL    MW412160   0.732   4.369   2.548 -0.4543 -0.6413 -0.4704
 3099SOL     OW12161   0.808   4.707   0.441 -0.3009 -0.0188  0.4240
 3099SOL    HW212162   0.836   4.696   0.532 -2.2231  1.8853  1.3213
 3099SOL    HW312163   0.738   4.643   0.430 -0.3481  0.0368  0.4047
 3099SOL    MW412164   0.802   4.697   0.451  0.1326 -0.0810 -0.2419
 3100SOL     OW12165   3.736   6.296   5.714 -0.2565 -0.0075  0.2233
 3100SOL    HW212166   3.798   6.324   5.781 -0.6619 -0.6334  0.8840
 3100SOL    HW312167   3.661   6.354   5.726  0.0788  0.5656 -0.3900
 3100SOL    MW412168   3.734   6.307   5.724  0.1423 -0.1387  0.0680
 3101SOL     OW12169   6.024   4.019   1.500  0.1204 -0.1875 -0.0685
 3101SOL    HW212170   5.952   3.956   1.501  0.0622 -0.1184  0.1848
 3101SOL    HW312171   6.092   3.978   1.447 -1.2240  0.9818 -2.9179
 3101SOL    MW412172   6.023   4.005   1.494 -0.1935 -0.0818  0.4879
 3102SOL     OW12173   0.098   5.527   3.415  0.7718  0.0926  0.3122
 3102SOL    HW212174   0.182   5.529   3.461  0.1066  2.1677  1.5796
 3102SOL    HW312175   0.099   5.605   3.360 -0.5066  0.4219  0.7284
 3102SOL    MW412176   0.109   5.538   3.414 -0.1721 -0.4087  0.4221
 3103SOL     OW12177   6.132   4.897   4.864  0.2003  0.2756 -0.4041
 3103SOL    HW212178   6.193   4.929   4.797 -1.9882  1.0391 -2.1483
 3103SOL    HW312179   6.102   4.812   4.830 -0.6214  0.4747 -0.1982
 3103SOL    MW412180   6.136   4.890   4.851  0.4425 -0.5308 -0.3709
 3104SOL     OW12181   1.004   3.496   0.950 -0.2756 -0.5988  0.0291
 3104SOL    HW212182   0.970   3.430   1.010 -1.8869 -1.1692 -1.4150
 3104SOL    HW312183   0.998   3.454   0.864  0.0319  0.9159 -0.7579
 3104SOL    MW412184   0.998   3.482   0.946 -0.0732 -0.0315  0.3561
 3105SOL     OW12185   4.801   4.055   0.827 -0.4843 -1.1571 -0.4063
 3105SOL    HW212186   4.862   4.122   0.797 -0.7855 -1.8623 -2.7563
 3105SOL    HW312187   4.848   4.011   0.898  0.5803  0.1193 -0.2710
 3105SOL    MW412188   4.816   4.058   0.833 -0.5066 -0.4205 -0.0260
 3106SOL     OW12189   0.574   3.836   0.791  0.1042  0.0344  0.0355
 3106SOL    HW212190   0.616   3.794   0.866  1.7392 -0.3217 -1.0319
 3106SOL    HW312191   0.641   3.895   0.755 -0.2032 -0.6593 -1.8142
 3106SOL    MW412192   0.589   3.839   0.796  0.7034 -0.2172 -0.4393
 3107SOL     OW12193   1.177   5.945   2.950  0.1293 -0.5111 -0.0853
 3107SOL    HW212194   1.232   5.952   2.872  0.4019 -2.4408 -0.1289
 3107SOL    HW312195   1.235   5.966   3.023  0.5893 -1.2052 -0.2373
 3107SOL    MW412196   1.192   5.948   2.949  0.3732 -0.4477  0.1173
 3108SOL     OW12197   4.047   2.548   0.690 -0.0272 -0.3054 -0.6372
 3108SOL    HW212198   4.080   2.573   0.604  0.0975 -2.0474 -1.1148
 3108SOL    HW312199   4.108   2.482   0.722 -1.5467 -1.6371 -0.3832
 3108SOL    MW412200   4.059   2.543   0.683  0.3307  0.0746 -0.0659
 3109SOL     OW12201   5.934   6.356   0.928  0.3377  0.4527  0.0456
 3109SOL    HW212202   5.995   6.410   0.978 -0.3682  1.3223 -0.0109
 3109SOL    HW312203   5.921   6.403   0.846 -0.4508  0.3238  0.0819
 3109SOL    MW412204   5.940   6.369   0.924  0.2883 -0.0125 -0.0780
 3110SOL     OW12205   5.849   5.362   6.186 -0.5419 -0.3234 -0.3373
 3110SOL    HW212206   5.774   5.305   6.201 -2.2013  1.6036 -0.8398
 3110SOL    HW312207   5.826   5.411   6.106  0.0398  2.1222  0.8854
 3110SOL    MW412208   5.836   5.361   6.177  0.0699  0.6434 -0.5135
 3111SOL     OW12209   2.846   1.641   4.649 -0.8392  0.5615 -0.3033
 3111SOL    HW212210   2.820   1.727   4.615 -0.0435  0.8012 -0.3109
 3111SOL    HW312211   2.891   1.598   4.577  1.7512  1.4612  0.6454
 3111SOL    MW412212   2.848   1.647   4.635  0.1911  1.0939 -0.1084
 3112SOL     OW12213   1.789   5.799   2.244  0.2325  0.3531  0.8952
 3112SOL    HW212214   1.734   5.877   2.247  0.5485  0.6023  0.2459
 3112SOL    HW312215   1.878   5.833   2.233  0.4435 -0.0780  1.2305
 3112SOL    MW412216   1.794   5.814   2.243  0.1383 -0.0205  0.3507
 3113SOL     OW12217   4.346   5.837   0.614  0.0705  0.1841  0.3533
 3113SOL    HW212218   4.304   5.754   0.591 -0.3422  0.5127 -0.1168
 3113SOL    HW312219   4.416   5.813   0.674 -0.8717 -0.3725  1.2602
 3113SOL    MW412220   4.350   5.823   0.619  0.6938  0.1241  0.2850
 3114SOL     OW12221   2.241   5.929   1.697 -0.7302 -0.0771 -0.3034
 3114SOL    HW212222   2.285   6.011   1.677 -0.8034 -0.1901 -0.9242
 3114SOL    HW312223   2.302   5.861   1.670 -1.2326 -0.2331 -1.0841
 3114SOL    MW412224   2.255   5.931   1.691  0.0566 -0.0958 -0.1646
 3115SOL     OW12225   0.881   5.193   0.587  0.3357  0.4170  0.2828
 3115SOL    HW212226   0.883   5.260   0.519 -1.0995  0.4557  0.2624
 3115SOL    HW312227   0.789   5.169   0.596  0.6818 -0.7163  1.1189
 3115SOL    MW412228   0.869   5.199   0.579  0.5441 -0.2348  0.0517
 3116SOL     OW12229   3.103   4.509   3.515  0.1314  0.1144 -0.2379
 3116SOL    HW212230   3.059   4.551   3.441  0.6344  0.6219 -0.2544
 3116SOL    HW312231   3.196   4.516   3.494  0.2726  0.1392  0.3820
 3116SOL    MW412232   3.109   4.515   3.502  0.2111 -0.3155  0.4132
 3117SOL     OW12233   3.308   5.254   2.742 -0.5223  0.1841 -0.0174
 3117SOL    HW212234   3.289   5.347   2.747  2.8380  0.9350  1.4420
 3117SOL    HW312235   3.368   5.245   2.667 -0.1511 -0.6465  0.3617
 3117SOL    MW412236   3.313   5.265   2.733 -0.0111 -0.2861 -0.7832
 3118SOL     OW12237   3.787   0.955   2.632  0.1723 -0.0469  0.2674
 3118SOL    HW212238   3.736   1.028   2.597 -0.0032 -0.7891 -1.0998
 3118SOL    HW312239   3.870   0.959   2.584  0.6308 -0.0453  1.0437
 3118SOL    MW412240   3.791   0.965   2.621 -0.0421 -0.6761 -0.4744
 3119SOL     OW12241   3.972   4.693   0.576  0.0302  0.2852 -0.8399
 3119SOL    HW212242   3.968   4.769   0.635  1.1612 -0.9705  0.9719
 3119SOL    HW312243   3.937   4.621   0.629 -0.0658 -0.6724 -2.1652
 3119SOL    MW412244   3.967   4.694   0.591 -0.6459  0.1151  0.1563
 3120SOL     OW12245   2.377   2.413   5.483  0.8459  0.4079  0.5224
 3120SOL    HW212246   2.343   2.493   5.443 -1.2829 -1.0236 -0.7820
 3120SOL    HW312247   2.428   2.370   5.414 -0.9770 -0.9967 -0.0369
 3120SOL    MW412248   2.379   2.418   5.469 -0.0513 -0.4763  0.0342
 3121SOL     OW12249   1.362   5.995   0.431 -0.3425  0.2746 -0.3697
 3121SOL    HW212250   1.371   5.976   0.524 -2.0691  2.4085  0.3139
 3121SOL    HW312251   1.447   6.028   0.405  1.2959 -3.5257 -0.5226
 3121SOL    MW412252   1.374   5.997   0.440  0.4044  0.1982  0.5919
 3122SOL     OW12253   6.109   0.397   1.821  0.4588 -0.2655  0.6564
 3122SOL    HW212254   6.193   0.405   1.866 -0.1864  0.8273  1.7246
 3122SOL    HW312255   6.114   0.459   1.748  0.7372 -0.5343  0.4443
 3122SOL    MW412256   6.121   0.406   1.817  0.1155 -0.5499  0.2605
 3123SOL     OW12257   1.491   4.540   3.765  0.6081  0.0968 -0.0114
 3123SOL    HW212258   1.545   4.545   3.687 -0.1836  0.3480 -0.5552
 3123SOL    HW312259   1.412   4.494   3.737  1.4147 -2.2058  1.2886
 3123SOL    MW412260   1.488   4.535   3.751  0.0135  0.9248 -0.2644
 3124SOL     OW12261   0.221   1.545   2.631  0.4006  0.5626  0.1650
 3124SOL    HW212262   0.154   1.570   2.568  1.5568  1.8536 -0.6080
 3124SOL    HW312263   0.304   1.561   2.586  1.2647  1.1277  1.8490
 3124SOL    MW412264   0.223   1.550   2.617 -0.4027  1.0022  0.6189
 3125SOL     OW12265   0.335   6.080   2.940 -0.4118 -0.1797  0.0333
 3125SOL    HW212266   0.394   6.149   2.969 -0.6289 -0.2544  0.6701
 3125SOL    HW312267   0.247   6.118   2.951 -0.4902  0.4512 -2.1936
 3125SOL    MW412268   0.331   6.094   2.945  0.1019  0.0266 -0.1626
 3126SOL     OW12269   0.959   4.029   4.223 -0.5131  0.1704 -0.7287
 3126SOL    HW212270   1.012   4.103   4.254  0.1855  0.3958 -2.3612
 3126SOL    HW312271   1.021   3.973   4.177 -1.3189 -0.6765 -0.8065
 3126SOL    MW412272   0.975   4.031   4.221  0.0754  0.3309  0.4184
 3127SOL     OW12273   1.274   4.661   0.986  0.1156 -0.1780  0.1053
 3127SOL    HW212274   1.233   4.735   0.941  0.7243  0.7951  1.0691
 3127SOL    HW312275   1.345   4.633   0.928  0.3589  0.4994  0.0674
 3127SOL    MW412276   1.278   4.667   0.973  0.5514 -0.3125  0.2412
 3128SOL     OW12277   2.906   6.191   0.967 -0.1442 -0.8047  0.1454
 3128SOL    HW212278   2.883   6.155   1.053 -2.4826 -0.1898 -0.1526
 3128SOL    HW312279   2.971   6.258   0.986  2.0598 -3.0312  1.0143
 3128SOL    MW412280   2.911   6.195   0.981  0.3707  0.1095  0.3746
 3129SOL     OW12281   1.547   4.497   1.367 -0.3621  0.7702 -0.3582
 3129SOL    HW212282   1.634   4.464   1.389  0.5091  1.5614 -2.4294
 3129SOL    HW312283   1.489   4.421   1.376  0.5136  0.2367  1.0309
 3129SOL    MW412284   1.551   4.483   1.371  0.1650  0.2552 -0.3455
 3130SOL     OW12285   4.622   2.108   2.074  0.4299  0.5799 -0.2397
 3130SOL    HW212286   4.593   2.018   2.063 -0.3786  0.7412  0.4290
 3130SOL    HW312287   4.542   2.156   2.096  1.1543  1.0591  1.5802
 3130SOL    MW412288   4.608   2.102   2.076 -0.2464 -0.0348 -0.1544
 3131SOL     OW12289   1.547   4.351   3.285  0.0075 -0.4622 -0.1376
 3131SOL    HW212290   1.529   4.429   3.338  1.7349 -0.7474  0.9370
 3131SOL    HW312291   1.530   4.378   3.195 -1.5123  0.4939  0.4012
 3131SOL    MW412292   1.542   4.365   3.280  0.4470 -0.1494  0.1952
 3132SOL     OW12293   0.385   3.888   4.066 -0.5084 -0.0502  0.2059
 3132SOL    HW212294   0.380   3.799   4.101 -1.6022  0.1283  0.5446
 3132SOL    HW312295   0.473   3.918   4.087  0.0179 -1.2066 -0.2960
 3132SOL    MW412296   0.396   3.880   4.074 -0.4725  0.5119 -0.1669
 3133SOL     OW12297   3.615   2.584   2.798  0.4875 -0.0466 -0.0617
 3133SOL    HW212298   3.667   2.553   2.871 -0.2895 -1.4626 -0.0729
 3133SOL    HW312299   3.580   2.505   2.757  1.0416  0.6718 -2.0881
 3133SOL    MW412300   3.617   2.570   2.802 -0.1738 -0.5098  0.1554
 3134SOL     OW12301   5.980   1.800   0.421  0.1962  0.4813  0.8098
 3134SOL    HW212302   5.887   1.778   0.422  0.8789 -2.9597  0.0507
 3134SOL    HW312303   5.992   1.849   0.339 -0.6689 -0.8118 -0.1336
 3134SOL    MW412304   5.969   1.804   0.410  0.4140 -0.0487 -0.3375
 3135SOL     OW12305   3.624   6.064   4.189 -0.0893 -0.0839 -0.2487
 3135SOL    HW212306   3.649   6.151   4.157 -0.9820 -0.3512 -1.7306
 3135SOL    HW312307   3.608   6.077   4.282  1.2253  1.0180 -0.1466
 3135SOL    MW412308   3.626   6.077   4.197  0.5206 -0.0762 -0.0057
 3136SOL     OW12309   0.489   4.366   0.589 -0.2953 -0.0176 -0.2293
 3136SOL    HW212310   0.416   4.309   0.566  0.1686 -0.7906  0.1381
 3136SOL    HW312311   0.484   4.374   0.684  0.8666 -1.1946 -0.0408
 3136SOL    MW412312   0.479   4.359   0.599  0.4460 -0.0554 -0.2632
 3137SOL     OW12313   4.177   5.410   2.754  0.2990  0.2500 -1.1002
 3137SOL    HW212314   4.131   5.396   2.671  1.5654  1.7198 -2.1133
 3137SOL    HW312315   4.171   5.504   2.769  0.3963  0.0419  0.3115
 3137SOL    MW412316   4.170   5.420   2.745  0.2863  0.2631  0.0994
 3138SOL     OW12317   0.099   3.348   2.687  0.2550 -0.2681 -0.2930
 3138SOL    HW212318   0.136   3.279   2.632  0.2762 -1.3054  0.9717
 3138SOL    HW312319   0.175   3.392   2.725  0.2594  0.8781 -1.5480
 3138SOL    MW412320   0.114   3.345   2.685  0.5078 -0.5385  0.1851
 3139SOL     OW12321   2.973   3.842   5.334 -0.2290 -0.4217 -0.5600
 3139SOL    HW212322   2.965   3.913   5.270  1.2874  1.4603  1.1614
 3139SOL    HW312323   2.999   3.887   5.415  1.4607 -3.0171  0.4527
 3139SOL    MW412324   2.976   3.858   5.337 -0.0676  0.3060 -0.6916
 3140SOL     OW12325   1.265   4.298   4.038  0.2076  0.4306  0.7942
 3140SOL    HW212326   1.318   4.221   4.018  0.1971  0.9503 -1.4490
 3140SOL    HW312327   1.199   4.301   3.969 -0.3998  1.9104  1.3903
 3140SOL    MW412328   1.264   4.289   4.026  0.0918 -0.3013 -0.4698
 3141SOL     OW12329   3.032   5.443   2.509  0.7363 -0.0675  0.5067
 3141SOL    HW212330   3.007   5.359   2.470 -0.0416  0.5224 -0.2896
 3141SOL    HW312331   3.005   5.435   2.601 -1.1564  0.0091 -0.0031
 3141SOL    MW412332   3.025   5.431   2.516  0.0222 -0.4489  0.0039
 3142SOL     OW12333   3.684   0.902   1.710 -0.5407 -0.6934 -0.3824
 3142SOL    HW212334   3.740   0.929   1.637  0.0404  1.6269  0.8355
 3142SOL    HW312335   3.606   0.958   1.702 -1.6478 -2.2254 -0.6757
 3142SOL    MW412336   3.681   0.913   1.699 -0.7635 -0.1765 -0.0371
 3143SOL     OW12337   3.035   3.156   5.467 -0.0326  0.4321  0.3788
 3143SOL    HW212338   2.947   3.125   5.487 -0.2605  0.1865 -0.9039
 3143SOL    HW312339   3.092   3.104   5.523 -0.4622 -1.7865 -1.1008
 3143SOL    MW412340   3.031   3.145   5.477 -0.6024 -0.2534 -0.2734
 3144SOL     OW12341   1.430   1.180   0.155 -0.9447  0.5611  0.9216
 3144SOL    HW212342   1.382   1.121   0.097 -1.6119  2.2659 -0.3399
 3144SOL    HW312343   1.364   1.211   0.217 -1.5564  2.8422 -0.7615
 3144SOL    MW412344   1.415   1.176   0.155  0.5466 -0.3082 -0.1517
 3145SOL     OW12345   5.725   3.209   5.601 -0.4081  0.2860 -0.6785
 3145SOL    HW212346   5.749   3.301   5.591  2.3236 -0.2790 -0.0882
 3145SOL    HW312347   5.802   3.161   5.570 -0.9861 -1.7599  0.8483
 3145SOL    MW412348   5.738   3.215   5.596 -0.1685  0.6464  0.3091
 3146SOL     OW12349   2.668   4.842   2.309  0.4602  0.2329  0.2099
 3146SOL    HW212350   2.616   4.774   2.266 -1.3534 -0.2061  2.8322
 3146SOL    HW312351   2.653   4.921   2.257  0.9367 -0.8953 -1.7126
 3146SOL    MW412352   2.659   4.843   2.296  0.5954  0.2038 -0.1359
 3147SOL     OW12353   3.375   4.812   1.345 -0.2575  1.2365 -0.8001
 3147SOL    HW212354   3.326   4.776   1.271 -1.0787  0.4637  0.0872
 3147SOL    HW312355   3.436   4.874   1.305  0.4897 -0.3611 -2.3035
 3147SOL    MW412356   3.377   4.816   1.330 -0.3204 -0.4025 -0.3187
 3148SOL     OW12357   3.366   3.738   5.608 -0.4551  0.1399 -0.2385
 3148SOL    HW212358   3.346   3.726   5.515  1.8733 -0.4082 -0.7447
 3148SOL    HW312359   3.285   3.771   5.646 -1.8712 -0.8370 -2.2060
 3148SOL    MW412360   3.353   3.740   5.601 -0.3137  0.6171 -0.1758
 3149SOL     OW12361   4.815   4.479   2.529  0.2001 -1.0059  0.0118
 3149SOL    HW212362   4.819   4.546   2.461 -0.2589 -0.4698  0.4993
 3149SOL    HW312363   4.882   4.416   2.505  0.6323 -0.3758 -0.4624
 3149SOL    MW412364   4.824   4.480   2.517 -0.3140  0.2466 -0.5101
 3150SOL     OW12365   5.857   3.222   2.762 -0.4555 -0.0104  0.2723
 3150SOL    HW212366   5.901   3.159   2.706  0.5579 -0.5746  1.6254
 3150SOL    HW312367   5.923   3.290   2.777 -0.0980 -0.6689  2.0177
 3150SOL    MW412368   5.872   3.223   2.757 -0.2175  0.2896 -0.2165
 3151SOL     OW12369   6.357   4.868   2.491 -0.1832 -0.2475 -0.1554
 3151SOL    HW212370   6.391   4.805   2.427 -0.0808 -1.2936  0.9088
 3151SOL    HW312371   6.434   4.901   2.536 -0.2715  0.3550 -0.4316
 3151SOL    MW412372   6.371   4.864   2.488  0.3669  0.3334  0.0489
 3152SOL     OW12373   6.278   1.629   5.703 -0.2206 -0.2463  0.0296
 3152SOL    HW212374   6.273   1.620   5.798  0.7334 -0.1008  0.1020
 3152SOL    HW312375   6.344   1.566   5.676  1.4642  1.5133 -0.2201
 3152SOL    MW412376   6.286   1.620   5.712  0.1950  0.1630  0.0438
 3153SOL     OW12377   4.168   3.836   4.535  0.2147  0.3778  0.0794
 3153SOL    HW212378   4.240   3.880   4.490  0.7244  1.4721  1.8446
 3153SOL    HW312379   4.089   3.881   4.503  0.3803 -0.1990 -1.1677
 3153SOL    MW412380   4.167   3.848   4.525  0.0780  0.2134 -0.1708
 3154SOL     OW12381   5.534   2.397   0.593  0.2251 -0.5738 -0.7484
 3154SOL    HW212382   5.499   2.413   0.505  1.9829  0.8143 -1.2689
 3154SOL    HW312383   5.569   2.309   0.589  1.4988 -0.0463 -1.9137
 3154SOL    MW412384   5.534   2.388   0.581 -0.0250 -0.0420 -0.6971
 3155SOL     OW12385   0.836   4.750   4.424  0.0058 -0.3501  0.2103
 3155SOL    HW212386   0.802   4.797   4.348  0.1295  1.8246  1.4157
 3155SOL    HW312387   0.772   4.765   4.493 -1.0366 -3.7954  0.1903
 3155SOL    MW412388   0.823   4.758   4.423  0.1721  0.2706  0.0865
 3156SOL     OW12389   5.502   3.173   1.948  0.1503 -0.2808  0.2546
 3156SOL    HW212390   5.523   3.266   1.947  0.6107 -0.3850  0.2187
 3156SOL    HW312391   5.410   3.170   1.975  0.0865  0.1901  0.0931
 3156SOL    MW412392   5.492   3.185   1.952  0.4646 -0.0333  0.1082
 3157SOL     OW12393   4.774   6.104   4.898 -0.1680  0.1011  0.6312
 3157SOL    HW212394   4.864   6.074   4.912 -0.6547 -1.7965  0.0255
 3157SOL    HW312395   4.737   6.111   4.986  0.1752 -0.5107  0.8331
 3157SOL    MW412396   4.781   6.101   4.911 -0.3781  0.0523 -0.4972
 3158SOL     OW12397   4.721   4.058   2.053 -0.3795  0.0100 -0.4129
 3158SOL    HW212398   4.658   3.993   2.084 -0.6851  1.2733  1.8839
 3158SOL    HW312399   4.672   4.110   1.990 -1.5911  0.7034  1.0223
 3158SOL    MW412400   4.706   4.056   2.049 -0.0290 -0.2612  0.3810
 3159SOL     OW12401   3.244   5.743   3.745  0.0606  0.1947  0.2234
 3159SOL    HW212402   3.214   5.741   3.654 -0.3161 -1.3982  0.3600
 3159SOL    HW312403   3.166   5.764   3.796  0.3706  1.5883  0.1764
 3159SOL    MW412404   3.230   5.746   3.740 -0.8925 -0.7347 -0.7189
 3160SOL     OW12405   4.033   4.899   5.246 -0.5077 -0.6076 -0.2184
 3160SOL    HW212406   4.116   4.852   5.251 -2.4983 -4.6472 -0.2902
 3160SOL    HW312407   4.014   4.905   5.153  0.4262  1.9316 -0.2952
 3160SOL    MW412408   4.041   4.893   5.235 -0.4133 -0.3487  0.0425
 3161SOL     OW12409   4.059   1.966   2.908 -0.1261 -0.0436 -0.0816
 3161SOL    HW212410   4.146   1.987   2.872 -0.8201 -0.3550 -2.0503
 3161SOL    HW312411   4.051   1.871   2.898 -0.0155 -0.2851  1.7747
 3161SOL    MW412412   4.070   1.956   2.902 -0.0005  0.3776  0.1500
 3162SOL     OW12413   0.552   1.654   2.683  0.0758  0.3351 -0.4619
 3162SOL    HW212414   0.542   1.559   2.688 -1.3332  0.5361  2.7194
 3162SOL    HW312415   0.613   1.675   2.754  0.0699  1.8640 -0.8878
 3162SOL    MW412416   0.559   1.644   2.693 -0.0616  0.6244 -0.1804
 3163SOL     OW12417   5.076   2.601   2.357  0.2135 -0.1034 -0.3653
 3163SOL    HW212418   5.128   2.529   2.321  1.0037 -2.0308  3.9652
 3163SOL    HW312419   5.140   2.658   2.399 -0.7612  0.4636  0.3884
 3163SOL    MW412420   5.091   2.599   2.358  0.2215  0.0609 -0.0374
 3164SOL     OW12421   1.807   3.254   4.333 -0.2562  0.2159 -0.3924
 3164SOL    HW212422   1.730   3.231   4.280  1.6571  0.7744 -3.7491
 3164SOL    HW312423   1.872   3.188   4.309  1.5490  2.0793 -0.9201
 3164SOL    MW412424   1.805   3.242   4.323 -0.2340  0.1109  0.7143
 3165SOL     OW12425   2.957   5.842   6.017 -0.9584  0.0818 -0.1009
 3165SOL    HW212426   3.043   5.809   5.990 -1.6518  0.3587 -2.9145
 3165SOL    HW312427   2.972   5.935   6.032 -0.5430 -0.0858  0.5767
 3165SOL    MW412428   2.970   5.850   6.015  0.7640  0.2867 -0.2598
 3166SOL     OW12429   5.958   5.182   6.005 -0.6574  0.2632 -0.8270
 3166SOL    HW212430   6.052   5.193   5.989 -0.0708 -1.1301  1.2648
 3166SOL    HW312431   5.936   5.251   6.067 -0.3774 -0.8970  0.6377
 3166SOL    MW412432   5.967   5.192   6.011 -0.1491  0.4102 -0.5654
 3167SOL     OW12433   1.167   0.021   3.581 -0.1317 -1.1910 -0.0175
 3167SOL    HW212434   1.253   0.063   3.591  0.4090 -2.2914  0.0783
 3167SOL    HW312435   1.121   0.076   3.518  1.1857 -1.3791 -1.1869
 3167SOL    MW412436   1.173   0.034   3.574 -0.6516  0.2936 -0.2575
 3168SOL     OW12437   1.750   0.861   0.926 -0.0416  0.1230  0.1871
 3168SOL    HW212438   1.683   0.851   0.994 -0.4323 -2.1337 -0.4438
 3168SOL    HW312439   1.824   0.808   0.956  1.1639  1.8624  0.4376
 3168SOL    MW412440   1.751   0.852   0.939  0.0365 -0.0079 -0.2595
 3169SOL     OW12441   0.331   5.153   2.926 -0.5307 -0.1712 -0.7655
 3169SOL    HW212442   0.342   5.089   2.996 -2.4623  0.1799 -0.0988
 3169SOL    HW312443   0.243   5.137   2.892 -0.9728  1.9657 -0.7340
 3169SOL    MW412444   0.321   5.143   2.930 -0.0295 -0.1263 -0.8560
 3170SOL     OW12445   5.837   3.062   6.032  0.0785 -0.1279  0.3505
 3170SOL    HW212446   5.755   3.096   6.067 -0.5430 -0.6014 -0.5929
 3170SOL    HW312447   5.904   3.090   6.094 -0.8292  0.0747  1.2522
 3170SOL    MW412448   5.835   3.070   6.044 -0.6369  0.4612  0.1371
 3171SOL     OW12449   1.957   1.429   4.352  0.3163 -0.6133  0.3174
 3171SOL    HW212450   2.012   1.391   4.420  2.5782  1.9126  0.0900
 3171SOL    HW312451   1.992   1.393   4.270 -0.7336 -1.6854  0.3148
 3171SOL    MW412452   1.969   1.420   4.350 -0.8337  0.4722 -0.2671
 3172SOL     OW12453   5.144   3.746   4.239  0.3953 -0.1007 -0.0235
 3172SOL    HW212454   5.196   3.787   4.308  0.3504  1.3840 -0.8226
 3172SOL    HW312455   5.196   3.759   4.159  0.3210 -1.5446 -0.3435
 3172SOL    MW412456   5.158   3.753   4.238 -0.0549 -0.2599 -0.7894
 3173SOL     OW12457   4.909   4.262   1.445 -0.1652 -0.0034  0.2687
 3173SOL    HW212458   4.989   4.242   1.493  0.1215  1.7664  0.5945
 3173SOL    HW312459   4.904   4.194   1.378  1.4868 -0.2918  0.3917
 3173SOL    MW412460   4.919   4.250   1.442  0.7560 -0.0931 -0.0068
 3174SOL     OW12461   3.800   4.780   0.381 -0.2390  0.0293 -0.3725
 3174SOL    HW212462   3.754   4.699   0.358 -0.9900  0.1983  0.4511
 3174SOL    HW312463   3.853   4.755   0.457 -0.0133  0.1666 -0.4860
 3174SOL    MW412464   3.801   4.766   0.388  0.7653 -0.3610 -0.1081
 3175SOL     OW12465   0.140   1.042   5.574 -0.2315  0.4478  0.1310
 3175SOL    HW212466   0.162   0.953   5.600 -1.8580  0.1958  0.7628
 3175SOL    HW312467   0.096   1.032   5.489 -0.8601  0.5869  0.4358
 3175SOL    MW412468   0.137   1.029   5.566  0.3079 -0.7031  0.1420
 3176SOL     OW12469   4.804   3.062   2.435  0.2202  0.2008 -0.4557
 3176SOL    HW212470   4.781   3.067   2.342 -1.6807 -1.2783 -0.1495
 3176SOL    HW312471   4.846   3.146   2.454 -2.5364  2.0674 -1.8640
 3176SOL    MW412472   4.806   3.074   2.425  0.3501 -0.4397  0.3569
 3177SOL     OW12473   1.291   3.270   4.263  0.3709  0.0400 -0.1500
 3177SOL    HW212474   1.387   3.271   4.260  0.4728 -0.7005  1.5796
 3177SOL    HW312475   1.270   3.183   4.297 -0.8718  0.5574  0.4523
 3177SOL    MW412476   1.301   3.258   4.267  0.2076  0.0211  0.5984
 3178SOL     OW12477   5.318   1.092   2.048 -0.5878 -0.5302  0.9044
 3178SOL    HW212478   5.325   1.153   2.122 -0.0390 -0.9359  1.1957
 3178SOL    HW312479   5.361   1.012   2.079  0.7549 -0.3106 -0.2618
 3178SOL    MW412480   5.325   1.090   2.062 -0.3216  0.1737 -0.4050
 3179SOL     OW12481   1.093   4.646   3.238 -0.0829 -0.0845 -0.3098
 3179SOL    HW212482   1.125   4.648   3.328 -0.7044 -1.3423 -0.0332
 3179SOL    HW312483   1.062   4.736   3.222 -1.2451 -0.1481  1.2314
 3179SOL    MW412484   1.093   4.658   3.248  0.0063 -0.1737  0.6269
 3180SOL     OW12485   3.297   2.090   1.090 -0.1814  0.5643 -0.4373
 3180SOL    HW212486   3.288   2.016   1.029  1.6818 -0.8164  0.8417
 3180SOL    HW312487   3.298   2.049   1.177  0.6884  2.1207  0.3303
 3180SOL    MW412488   3.296   2.075   1.094 -0.1240  0.2929  0.5002
 3181SOL     OW12489   1.379   3.372   2.705  0.0386  0.4484 -0.6845
 3181SOL    HW212490   1.467   3.351   2.739 -0.4884  0.3148  0.6732
 3181SOL    HW312491   1.359   3.300   2.645 -1.5749 -3.1274  3.5731
 3181SOL    MW412492   1.388   3.359   2.702  0.3728  0.4500 -0.7012
 3182SOL     OW12493   4.811   2.638   2.401  0.1201  0.2096 -0.1386
 3182SOL    HW212494   4.903   2.616   2.386 -0.1367  0.0836 -1.8000
 3182SOL    HW312495   4.787   2.592   2.481  0.5566 -2.7940 -1.6010
 3182SOL    MW412496   4.820   2.629   2.409 -0.1734  0.0512 -0.2664
 3183SOL     OW12497   4.696   5.290   1.649 -0.3130  0.1798 -0.0082
 3183SOL    HW212498   4.714   5.326   1.736  1.9086  1.0798 -0.7807
 3183SOL    HW312499   4.733   5.202   1.651 -2.2007 -0.6611  0.5900
 3183SOL    MW412500   4.703   5.283   1.661  0.0005 -0.1850  0.1514
 3184SOL     OW12501   5.237   2.931   3.466 -0.1210  0.1845  0.4431
 3184SOL    HW212502   5.318   2.919   3.417  0.3657  0.5563  1.1266
 3184SOL    HW312503   5.250   3.014   3.513 -1.5956  1.1713 -0.7776
 3184SOL    MW412504   5.249   2.941   3.466 -0.5891 -0.6092 -0.7989
 3185SOL     OW12505   4.187   0.844   0.663 -0.5495 -0.5506 -0.0849
 3185SOL    HW212506   4.163   0.915   0.604  0.7996 -0.2113 -0.2653
 3185SOL    HW312507   4.276   0.820   0.636 -1.0026 -2.3649 -0.0831
 3185SOL    MW412508   4.196   0.850   0.651 -0.8090 -0.3976  0.1128
 3186SOL     OW12509   3.844   3.573   3.163  0.1205 -0.0787 -0.0155
 3186SOL    HW212510   3.752   3.601   3.160  0.1818  0.0623 -0.7283
 3186SOL    HW312511   3.892   3.653   3.185  0.0034 -0.3425  1.3010
 3186SOL    MW412512   3.838   3.587   3.166 -0.3234 -0.2105 -0.3397
 3187SOL     OW12513   1.689   4.990   1.477  0.0190 -0.1912 -0.5651
 3187SOL    HW212514   1.600   4.969   1.506 -0.2068  1.1557 -0.1844
 3187SOL    HW312515   1.745   4.963   1.550 -0.3472  1.2652  0.2919
 3187SOL    MW412516   1.685   4.984   1.490  0.1583 -0.3865 -0.3687
 3188SOL     OW12517   1.092   5.556   0.780 -0.0330 -0.2538 -0.0162
 3188SOL    HW212518   1.007   5.528   0.815  0.7995 -0.4163  2.0328
 3188SOL    HW312519   1.126   5.478   0.737 -0.6340 -0.3923 -0.2531
 3188SOL    MW412520   1.085   5.542   0.779 -0.2686  0.2624  0.2816
 3189SOL     OW12521   3.601   3.059   5.665  0.0174  0.8259 -0.3348
 3189SOL    HW212522   3.592   3.153   5.681 -1.1800  0.6682  0.0181
 3189SOL    HW312523   3.621   3.052   5.572  0.7195  1.4527 -0.2419
 3189SOL    MW412524   3.603   3.070   5.655  0.1641  0.3401 -0.4085
 3190SOL     OW12525   1.399   5.340   3.660  1.0811 -0.6505 -0.0395
 3190SOL    HW212526   1.423   5.249   3.641  0.9096 -0.7511  0.2094
 3190SOL    HW312527   1.475   5.391   3.634  0.6727 -0.7271 -1.4309
 3190SOL    MW412528   1.412   5.335   3.654 -0.0808  0.7185  0.3037
 3191SOL     OW12529   3.991   4.007   1.343 -0.0739  0.2897  0.3659
 3191SOL    HW212530   4.030   4.040   1.262 -1.9134 -1.3746 -1.3386
 3191SOL    HW312531   4.038   3.924   1.359  0.7826  0.9620  1.4753
 3191SOL    MW412532   4.003   4.000   1.334 -0.1511  0.4805 -0.5604
 3192SOL     OW12533   0.866   3.495   3.772 -0.1131 -0.1107  0.4335
 3192SOL    HW212534   0.802   3.505   3.842  0.0487  1.6535  0.3729
 3192SOL    HW312535   0.932   3.562   3.790 -0.4222  0.8666 -1.7676
 3192SOL    MW412536   0.866   3.505   3.783  0.2652 -0.3056  0.1194
 3193SOL     OW12537   2.863   3.179   1.153 -0.2337 -0.2502  0.1459
 3193SOL    HW212538   2.839   3.254   1.098 -0.9467  1.0745  2.1331
 3193SOL    HW312539   2.958   3.188   1.164  0.0516 -1.0053 -1.4742
 3193SOL    MW412540   2.873   3.190   1.147 -0.1462  0.7855 -0.0005
 3194SOL     OW12541   0.280   5.720   1.118  0.3340 -0.2339  0.0761
 3194SOL    HW212542   0.213   5.687   1.178 -1.4558  0.5273 -1.4199
 3194SOL    HW312543   0.343   5.649   1.111 -0.8829 -1.4193  0.6675
 3194SOL    MW412544   0.280   5.706   1.125 -0.1018 -0.3945 -0.0328
 3195SOL     OW12545   3.089   3.250   3.363  0.2415 -0.1718  0.2631
 3195SOL    HW212546   3.075   3.251   3.269  1.8957  1.3136 -0.0377
 3195SOL    HW312547   3.183   3.232   3.373  0.5756  1.8539  1.4582
 3195SOL    MW412548   3.100   3.248   3.352  0.5559  0.0775 -0.2397
 3196SOL     OW12549   0.963   1.273   5.432 -0.3109  0.0468 -0.0232
 3196SOL    HW212550   1.026   1.221   5.482 -1.2595  0.2858  1.5076
 3196SOL    HW312551   0.882   1.221   5.435 -0.8473  0.8799  0.1949
 3196SOL    MW412552   0.960   1.259   5.439  0.0850  0.6445 -0.4757
 3197SOL     OW12553   5.455   5.309   6.371  0.0515  0.1267 -0.5056
 3197SOL    HW212554   5.406   5.234   6.404  0.1807  0.4253  0.4165
 3197SOL    HW312555   5.411   5.334   6.290 -1.4382  0.4784  0.3716
 3197SOL    MW412556   5.443   5.302   6.365  0.2776 -0.6606  0.0543
 3198SOL     OW12557   3.779   1.550   2.926 -0.2383  0.5722 -0.0686
 3198SOL    HW212558   3.873   1.549   2.911  0.1866  0.7612  2.1906
 3198SOL    HW312559   3.757   1.643   2.931 -0.3457  0.5215  0.4362
 3198SOL    MW412560   3.788   1.562   2.925  0.2085  0.0712 -0.1269
 3199SOL     OW12561   5.384   0.684   1.596  0.0059 -0.1844  0.1159
 3199SOL    HW212562   5.442   0.684   1.519 -1.0995  1.9593 -0.8021
 3199SOL    HW312563   5.368   0.777   1.614 -2.4613 -0.6690  0.8330
 3199SOL    MW412564   5.390   0.697   1.588 -0.2565  0.6640  0.1332
 3200SOL     OW12565   6.322   4.782   6.043 -0.0500  0.4580  0.0135
 3200SOL    HW212566   6.387   4.830   5.991 -0.8433  0.8889 -0.5822
 3200SOL    HW312567   6.266   4.739   5.979 -0.7448  0.6042  0.5153
 3200SOL    MW412568   6.323   4.783   6.028 -0.6386 -0.2475 -0.3634
 3201SOL     OW12569   1.236   3.006   4.359 -0.0607 -0.1198 -0.8928
 3201SOL    HW212570   1.328   2.992   4.382 -0.0532 -0.6293 -1.2044
 3201SOL    HW312571   1.198   2.919   4.362 -0.1844 -0.1350 -2.2231
 3201SOL    MW412572   1.243   2.993   4.362  0.2694 -0.5880 -0.0493
 3202SOL     OW12573   6.002   5.056   2.024 -0.2702 -0.3963  0.2769
 3202SOL    HW212574   6.035   4.968   2.042  0.7524 -0.0140  0.3450
 3202SOL    HW312575   6.069   5.095   1.968  0.4259  1.0809  2.0044
 3202SOL    MW412576   6.015   5.049   2.019  0.3859  0.0078  0.0279
 3203SOL     OW12577   4.200   4.032   5.622  0.1659  0.2136 -0.0198
 3203SOL    HW212578   4.288   4.001   5.644 -0.3626 -0.9844  0.5273
 3203SOL    HW312579   4.158   3.957   5.580 -1.2250  0.0922  1.4866
 3203SOL    MW412580   4.206   4.018   5.619  0.0693 -0.2427  0.0647
 3204SOL     OW12581   1.362   4.422   4.980 -0.0632  0.0927 -0.1112
 3204SOL    HW212582   1.351   4.515   4.962  2.8147  0.8451  1.3993
 3204SOL    HW312583   1.296   4.379   4.926 -1.1807  2.9548 -1.2092
 3204SOL    MW412584   1.352   4.428   4.971 -0.1179 -0.5131  0.0581
 3205SOL     OW12585   1.165   3.369   1.186  0.4081  0.0314  0.5644
 3205SOL    HW212586   1.075   3.336   1.192 -0.2248  1.3799 -0.9677
 3205SOL    HW312587   1.161   3.457   1.223  0.3050  1.4117 -2.5117
 3205SOL    MW412588   1.153   3.376   1.192 -0.3334  0.2808 -0.1442
 3206SOL     OW12589   3.511   1.071   4.051 -0.6234 -0.9002 -0.0028
 3206SOL    HW212590   3.475   1.073   4.140  0.2402 -1.0840  0.3617
 3206SOL    HW312591   3.513   1.163   4.024 -2.7243 -0.9799 -0.6184
 3206SOL    MW412592   3.506   1.084   4.059  0.0425  0.5826 -0.5222
 3207SOL     OW12593   4.403   4.431   0.723  0.5139  0.7680 -0.8550
 3207SOL    HW212594   4.463   4.361   0.696  1.2954  1.1859 -0.2592
 3207SOL    HW312595   4.449   4.475   0.794 -0.3983  1.2755 -0.5652
 3207SOL    MW412596   4.417   4.427   0.729  0.2174  0.1517 -0.1896
 3208SOL     OW12597   1.697   1.106   0.291 -0.4108 -0.0214 -0.0030
 3208SOL    HW212598   1.614   1.149   0.272 -0.5154  0.1599  0.8247
 3208SOL    HW312599   1.672   1.020   0.326 -0.2342 -0.1809 -0.2605
 3208SOL    MW412600   1.683   1.100   0.293  0.1570  0.7697 -0.0378
 3209SOL     OW12601   3.221   3.750   1.791  0.3386  0.7921  0.4280
 3209SOL    HW212602   3.230   3.732   1.697 -1.9755 -2.3262  0.6636
 3209SOL    HW312603   3.300   3.712   1.829  0.4439  0.4746 -0.0893
 3209SOL    MW412604   3.233   3.742   1.783 -0.5196  0.1869 -0.6968
 3210SOL     OW12605   2.076   1.757   6.099  0.0978 -0.0302  0.0592
 3210SOL    HW212606   2.006   1.790   6.154 -0.6171 -2.9942  1.1130
 3210SOL    HW312607   2.156   1.778   6.147 -0.1012  2.0189 -0.4092
 3210SOL    MW412608   2.077   1.764   6.112 -0.0417  0.5950  0.4068
 3211SOL     OW12609   3.474   3.969   1.433  1.0380  0.7714 -0.1559
 3211SOL    HW212610   3.470   3.877   1.406 -1.8633 -0.3837  3.4333
 3211SOL    HW312611   3.522   3.969   1.515  0.4412  2.3831  0.2355
 3211SOL    MW412612   3.480   3.957   1.440 -0.3630 -0.3333 -0.2860
 3212SOL     OW12613   1.728   6.073   5.959  0.1396 -0.5517 -0.1529
 3212SOL    HW212614   1.657   6.136   5.961 -0.4590 -1.2156  0.1569
 3212SOL    HW312615   1.777   6.088   6.040  0.9958  0.6025 -0.8566
 3212SOL    MW412616   1.725   6.083   5.970  0.4212 -0.3810 -0.5355
 3213SOL     OW12617   5.096   4.573   6.109 -0.4587  0.3304 -0.0830
 3213SOL    HW212618   5.089   4.534   6.197  1.7775  0.4547  0.2201
 3213SOL    HW312619   5.076   4.665   6.122  0.1444  0.4046  0.3772
 3213SOL    MW412620   5.093   4.580   6.123  0.9356 -0.1794 -0.0709
 3214SOL     OW12621   1.030   3.819   2.830  0.4339  0.5946 -0.1816
 3214SOL    HW212622   0.968   3.817   2.757 -0.6872 -1.9746  0.7489
 3214SOL    HW312623   0.998   3.890   2.886 -1.1182 -0.0383 -0.2190
 3214SOL    MW412624   1.018   3.828   2.828  0.6370 -0.0204 -0.1939
 3215SOL     OW12625   1.100   4.328   1.723  0.5743  0.2934  0.7176
 3215SOL    HW212626   1.195   4.333   1.720  0.7970 -2.4012  0.4729
 3215SOL    HW312627   1.082   4.250   1.776 -1.4625  0.1860 -0.0526
 3215SOL    MW412628   1.110   4.319   1.730 -0.0042 -0.3027  0.3967
 3216SOL     OW12629   1.125   0.694   0.841 -0.0836  0.2197 -0.0247
 3216SOL    HW212630   1.071   0.634   0.790  0.9180 -0.2157 -0.5971
 3216SOL    HW312631   1.078   0.778   0.838 -1.5435 -0.5290  0.8622
 3216SOL    MW412632   1.112   0.697   0.834  0.5713 -0.5564 -0.0926
 3217SOL     OW12633   0.911   3.619   2.029  0.2223 -0.1551  0.2503
 3217SOL    HW212634   0.924   3.672   2.107  0.0669 -0.7678  0.6993
 3217SOL    HW312635   0.951   3.535   2.050  2.9905  0.5923 -1.4368
 3217SOL    MW412636   0.918   3.615   2.042  0.3842 -0.2622  0.5347
 3218SOL     OW12637   1.994   5.048   2.927 -0.3313  0.3595 -0.2481
 3218SOL    HW212638   1.913   4.998   2.938  0.2086 -0.2444  1.2768
 3218SOL    HW312639   2.058   5.002   2.981  0.9353  1.0676 -1.0930
 3218SOL    MW412640   1.991   5.035   2.935 -0.5419  0.0294  0.7047
 3219SOL     OW12641   4.646   1.092   1.797  0.5916  0.0351  0.2055
 3219SOL    HW212642   4.630   1.080   1.891 -0.1765 -1.3932 -0.0759
 3219SOL    HW312643   4.612   1.012   1.757  2.2916 -0.0584 -1.1574
 3219SOL    MW412644   4.639   1.080   1.804 -0.3212 -0.0105 -0.2490
 3220SOL     OW12645   2.808   2.452   5.569  0.0687  0.4068  0.2581
 3220SOL    HW212646   2.878   2.407   5.617  0.6613  0.3199 -0.6579
 3220SOL    HW312647   2.771   2.384   5.512 -0.8328  0.4288  0.7951
 3220SOL    MW412648   2.812   2.437   5.567 -0.1143 -0.2401  0.2431
 3221SOL     OW12649   2.432   1.432   4.545 -0.0514  0.5956 -0.2860
 3221SOL    HW212650   2.428   1.430   4.640  1.6183  1.8518 -0.1400
 3221SOL    HW312651   2.418   1.524   4.522 -2.0278  0.0737 -1.3857
 3221SOL    MW412652   2.430   1.444   4.554 -0.6533 -0.1755  0.1480
 3222SOL     OW12653   4.754   0.855   4.720  0.1403 -0.3859  0.8495
 3222SOL    HW212654   4.784   0.941   4.749 -0.7645 -0.4561  2.0626
 3222SOL    HW312655   4.811   0.793   4.766  0.8072 -0.4566 -0.0418
 3222SOL    MW412656   4.765   0.858   4.730  0.1115  0.4773  0.7331
 3223SOL     OW12657   2.616   2.603   4.541 -0.0336  0.0110 -0.6288
 3223SOL    HW212658   2.699   2.603   4.494  0.7081 -0.2669  0.6284
 3223SOL    HW312659   2.550   2.614   4.473  0.9003 -1.6147 -1.8863
 3223SOL    MW412660   2.618   2.604   4.526  0.2413 -0.1492  0.1630
 3224SOL     OW12661   0.283   3.382   4.590 -0.3491 -0.4993  0.0982
 3224SOL    HW212662   0.311   3.301   4.633 -0.4677 -1.0169 -0.7808
 3224SOL    HW312663   0.234   3.429   4.658 -0.2836 -1.1639  0.6176
 3224SOL    MW412664   0.280   3.377   4.605 -0.2022 -0.2442  0.3566
 3225SOL     OW12665   5.175   1.411   3.151 -0.0983  0.1606 -0.2663
 3225SOL    HW212666   5.110   1.466   3.196 -1.7079 -0.4652 -1.7311
 3225SOL    HW312667   5.136   1.324   3.151  1.1677 -0.4250 -0.4168
 3225SOL    MW412668   5.161   1.407   3.157 -0.2409 -0.2338  0.6368
 3226SOL     OW12669   0.544   3.267   0.272 -0.3629  0.0807  0.2253
 3226SOL    HW212670   0.562   3.275   0.366 -0.1691  0.3721  0.1653
 3226SOL    HW312671   0.462   3.218   0.267 -0.2129 -0.2053  0.5389
 3226SOL    MW412672   0.535   3.262   0.284 -0.3615 -0.2651  0.0997
 3227SOL     OW12673   2.544   3.268   0.502 -0.1296  0.2120 -0.4459
 3227SOL    HW212674   2.497   3.349   0.483 -0.3934  0.1648 -0.0021
 3227SOL    HW312675   2.499   3.202   0.448 -0.7483  0.1166  0.1717
 3227SOL    MW412676   2.532   3.270   0.492  0.0114 -0.4869 -0.3960
 3228SOL     OW12677   0.182   1.915   3.912 -0.0469  0.7046  0.0804
 3228SOL    HW212678   0.231   1.939   3.834  0.1857 -0.2538 -0.0808
 3228SOL    HW312679   0.236   1.849   3.956 -1.2396 -0.5136 -0.2016
 3228SOL    MW412680   0.195   1.910   3.908  0.3900  0.4708  0.1296
 3229SOL     OW12681   2.996   2.842   5.371  0.5105  0.3359  0.0402
 3229SOL    HW212682   3.057   2.890   5.427  0.9055 -0.8997  0.6861
 3229SOL    HW312683   3.017   2.872   5.282 -0.5137  2.7400  0.5398
 3229SOL    MW412684   3.007   2.852   5.366 -0.1794 -0.0880 -0.7165
 3230SOL     OW12685   4.105   3.247   1.376  0.2231  0.1892 -0.6598
 3230SOL    HW212686   4.099   3.230   1.282 -2.0297  0.1515 -0.5661
 3230SOL    HW312687   4.061   3.172   1.417 -0.2118  0.9554  0.3167
 3230SOL    MW412688   4.098   3.235   1.369 -0.3577 -0.3542 -0.0369
 3231SOL     OW12689   1.096   2.582   1.031 -0.3195  0.2408 -0.2623
 3231SOL    HW212690   1.148   2.643   0.979 -1.0215  0.3533 -0.8528
 3231SOL    HW312691   1.093   2.503   0.978 -0.1373 -0.0138  0.1069
 3231SOL    MW412692   1.102   2.580   1.017  0.5323 -0.0589 -0.4997
 3232SOL     OW12693   2.658   2.950   2.968 -1.0153 -0.3925 -0.2412
 3232SOL    HW212694   2.717   2.879   2.994 -0.2067 -0.7103 -2.7088
 3232SOL    HW312695   2.572   2.908   2.963 -0.8728 -0.7405  0.1497
 3232SOL    MW412696   2.654   2.935   2.971 -0.3057 -0.2036  0.1603
 3233SOL     OW12697   3.269   5.059   3.294  0.5342 -0.3219 -0.2133
 3233SOL    HW212698   3.301   5.124   3.232 -2.0112  1.4265  0.1403
 3233SOL    HW312699   3.210   5.004   3.243 -0.7782  0.4858  0.3827
 3233SOL    MW412700   3.265   5.060   3.279 -0.0649 -0.4594  0.6012
 3234SOL     OW12701   4.000   2.899   0.792  0.1046  0.3552  0.1168
 3234SOL    HW212702   3.933   2.886   0.724  1.4217 -0.3497 -1.1049
 3234SOL    HW312703   3.950   2.922   0.870 -1.5024  0.9568 -1.0135
 3234SOL    MW412704   3.984   2.901   0.793 -0.0785 -1.1247 -0.3134
 3235SOL     OW12705   3.773   1.726   5.050  0.1653 -0.7341 -0.0307
 3235SOL    HW212706   3.689   1.690   5.075  0.3252 -1.1122 -0.0376
 3235SOL    HW312707   3.825   1.724   5.130 -0.2748  0.7982  0.3306
 3235SOL    MW412708   3.769   1.721   5.064  0.6602 -0.3561 -0.2255
 3236SOL     OW12709   1.969   1.532   1.502  0.1634  0.2627  0.4063
 3236SOL    HW212710   2.009   1.609   1.542  0.5051  0.1359  0.3144
 3236SOL    HW312711   1.955   1.557   1.411  0.5556  0.1117  0.3033
 3236SOL    MW412712   1.972   1.546   1.495  0.0837 -0.2275 -0.7025
 3237SOL     OW12713   0.045   1.020   4.663  0.0112  0.3356  0.1377
 3237SOL    HW212714   0.028   0.940   4.714 -0.8306  1.2165  1.2846
 3237SOL    HW312715   0.096   0.990   4.588 -0.9471 -1.3943  0.1400
 3237SOL    MW412716   0.050   1.005   4.660 -0.1563  0.3912 -0.0664
 3238SOL     OW12717   5.355   1.015   0.421 -0.2632 -0.1210  0.1483
 3238SOL    HW212718   5.326   0.928   0.392  0.8738 -0.3472 -0.3700
 3238SOL    HW312719   5.309   1.029   0.503  0.6418 -1.8735  1.0214
 3238SOL    MW412720   5.345   1.005   0.428 -0.3236 -0.0741 -0.0572
 3239SOL     OW12721   0.112   1.578   1.291 -0.6571  0.1990 -0.0492
 3239SOL    HW212722   0.180   1.510   1.297 -1.9864 -1.2403 -0.4578
 3239SOL    HW312723   0.128   1.620   1.206 -0.0708  0.0914  0.0050
 3239SOL    MW412724   0.123   1.574   1.280 -0.3734 -0.0390 -0.7453
 3240SOL     OW12725   2.956   0.432   0.390  0.5326 -0.6187 -0.1077
 3240SOL    HW212726   2.937   0.343   0.421  1.3276 -0.6632  0.2928
 3240SOL    HW312727   2.957   0.424   0.294  0.3811 -0.9976 -0.0789
 3240SOL    MW412728   2.954   0.419   0.381  0.4758  0.2183  0.5185
 3241SOL     OW12729   0.021   0.945   0.033  0.1374  0.7307  0.0287
 3241SOL    HW212730   0.100   0.967   0.081 -0.1270  1.9291 -0.0717
 3241SOL    HW312731  -0.008   1.027  -0.006 -0.7948  0.1806 -0.4841
 3241SOL    MW412732   0.028   0.959   0.034 -0.8888  0.1858  0.0684
 3242SOL     OW12733   6.371   0.603   4.296  0.0278 -0.5478 -0.0618
 3242SOL    HW212734   6.449   0.596   4.241  0.1506  1.2930 -0.1811
 3242SOL    HW312735   6.399   0.652   4.373 -1.0860  0.4996 -0.2971
 3242SOL    MW412736   6.385   0.608   4.299  0.4117 -0.8121  0.2245
 3243SOL     OW12737   3.203   2.419   0.346 -0.6378 -0.1487  0.1910
 3243SOL    HW212738   3.130   2.359   0.331 -0.7068  0.0828 -0.4354
 3243SOL    HW312739   3.161   2.500   0.376 -0.7216  0.2753 -1.0243
 3243SOL    MW412740   3.188   2.422   0.348 -0.3264 -0.1296  0.5843
 3244SOL     OW12741   1.255   2.560   2.205  0.2982  0.1737 -0.3976
 3244SOL    HW212742   1.230   2.470   2.224 -1.1338  0.2985 -1.5630
 3244SOL    HW312743   1.252   2.567   2.110  1.6828  1.1215 -0.4117
 3244SOL    MW412744   1.252   2.549   2.195  0.2228  0.5164 -0.1624
 3245SOL     OW12745   5.452   1.893   4.201 -0.6869  0.5001  0.3500
 3245SOL    HW212746   5.369   1.939   4.192 -0.3565  0.8363 -1.1891
 3245SOL    HW312747   5.450   1.825   4.133 -0.0217  0.0019  0.8063
 3245SOL    MW412748   5.441   1.890   4.191  0.6945  0.4193 -0.2119
 3246SOL     OW12749   4.545   1.012   1.448 -0.1730 -0.4655 -0.1161
 3246SOL    HW212750   4.538   1.093   1.499 -1.6459 -0.8435  0.3224
 3246SOL    HW312751   4.584   0.949   1.509  0.8819 -0.1406 -0.4271
 3246SOL    MW412752   4.549   1.014   1.463 -0.6153  0.0192 -0.0505
 3247SOL     OW12753   6.390   5.763   2.518 -0.5186  0.7048  0.1841
 3247SOL    HW212754   6.369   5.739   2.428  2.8124  0.0189 -0.5320
 3247SOL    HW312755   6.398   5.859   2.516 -0.3662  0.6841 -0.2724
 3247SOL    MW412756   6.388   5.773   2.506  0.4799  0.3785  0.3575
 3248SOL     OW12757   2.618   0.353   5.301  0.2803  0.1397  0.5625
 3248SOL    HW212758   2.650   0.274   5.257  0.2601 -0.2533  1.2377
 3248SOL    HW312759   2.535   0.372   5.257  0.5730  0.1403 -0.0083
 3248SOL    MW412760   2.612   0.345   5.289  0.2647 -0.2102  0.7685
 3249SOL     OW12761   3.350   0.101   6.399 -0.1988 -0.1882 -0.3003
 3249SOL    HW212762   3.395   0.149   6.468 -1.0340  1.4260 -0.8126
 3249SOL    HW312763   3.392   0.131   6.318 -2.7358  2.2180 -0.8941
 3249SOL    MW412764   3.361   0.111   6.397  0.5383  0.3184 -0.2272
 3250SOL     OW12765   4.311   4.813   5.238  0.3732 -0.2516  0.0697
 3250SOL    HW212766   4.401   4.792   5.214  0.0332 -1.0354 -0.5658
 3250SOL    HW312767   4.275   4.730   5.272  0.8132  0.7441  3.3993
 3250SOL    MW412768   4.318   4.799   5.240 -0.3739 -0.0743 -0.3465
 3251SOL     OW12769   0.338   4.033   1.452 -0.0580 -0.0312  0.1777
 3251SOL    HW212770   0.430   4.006   1.461  0.1153  0.9997  2.0659
 3251SOL    HW312771   0.315   4.069   1.538 -1.5431  1.8363 -0.9245
 3251SOL    MW412772   0.347   4.034   1.464 -0.2821 -0.2727 -0.5091
 3252SOL     OW12773   4.888   2.946   1.314  0.3367 -0.3720  0.6026
 3252SOL    HW212774   4.947   2.874   1.337  0.5138  0.2313  2.1467
 3252SOL    HW312775   4.819   2.904   1.263  1.1356 -1.4046  0.3377
 3252SOL    MW412776   4.886   2.931   1.310  0.2773  0.0766  0.4038
 3253SOL     OW12777   6.184   1.036   0.734 -0.4311 -0.3591 -1.0348
 3253SOL    HW212778   6.248   1.100   0.702 -0.1779 -0.0236  0.0867
 3253SOL    HW312779   6.099   1.075   0.714 -0.2758  0.0914 -0.8342
 3253SOL    MW412780   6.181   1.050   0.727  0.1149  0.1547  1.2392
 3254SOL     OW12781   2.239   2.285   3.863  0.3089 -0.4192  0.2774
 3254SOL    HW212782   2.263   2.259   3.952  1.8665  0.6467  0.1983
 3254SOL    HW312783   2.322   2.303   3.819 -0.5258  2.1233 -0.4491
 3254SOL    MW412784   2.253   2.284   3.869  0.4823  0.3854 -0.2707
 3255SOL     OW12785   0.156   4.512   4.175  0.1866 -0.0707 -0.2686
 3255SOL    HW212786   0.188   4.422   4.170 -0.7815 -0.4391 -0.0978
 3255SOL    HW312787   0.116   4.519   4.261  2.1339  1.2000  0.5993
 3255SOL    MW412788   0.155   4.501   4.185 -0.1971 -0.8418  0.3117
 3256SOL     OW12789   5.260   1.467   4.548  0.4347  0.1944  0.1689
 3256SOL    HW212790   5.282   1.381   4.583 -1.5838 -0.2603  0.4575
 3256SOL    HW312791   5.269   1.457   4.453 -1.2217 -0.8526  0.0713
 3256SOL    MW412792   5.264   1.455   4.540  0.1245 -0.3166 -0.3310
 3257SOL     OW12793   0.469   2.927   4.960  0.0140 -0.0765 -0.1216
 3257SOL    HW212794   0.544   2.986   4.957 -0.8758  1.0719 -1.4166
 3257SOL    HW312795   0.454   2.912   5.053  2.9426 -1.8665  0.1658
 3257SOL    MW412796   0.477   2.933   4.972  0.3381  0.0863 -0.6622
 3258SOL     OW12797   6.123   0.668   4.168  0.2587 -0.1812 -0.3270
 3258SOL    HW212798   6.125   0.647   4.074  1.5397 -2.4535  0.1328
 3258SOL    HW312799   6.213   0.657   4.197 -0.1908  0.0738  1.2581
 3258SOL    MW412800   6.135   0.663   4.159 -0.3369 -0.5555 -0.4288
 3259SOL     OW12801   0.426   2.363   0.169 -0.4843 -1.0281 -0.0942
 3259SOL    HW212802   0.385   2.447   0.147  1.5359  0.1430  0.3511
 3259SOL    HW312803   0.424   2.314   0.087 -0.2396  0.1107 -0.8046
 3259SOL    MW412804   0.420   2.368   0.155 -0.3110  0.0984 -0.0998
 3260SOL     OW12805   3.459   5.965   3.768 -0.3891  0.5264 -0.1120
 3260SOL    HW212806   3.426   6.038   3.716  0.8184  0.7549 -0.5853
 3260SOL    HW312807   3.392   5.897   3.759 -0.3349  0.6488 -1.7696
 3260SOL    MW412808   3.446   5.966   3.760 -0.4222 -0.0967  0.9066
 3261SOL     OW12809   3.915   3.292   1.639  0.3732  0.6258 -0.1452
 3261SOL    HW212810   3.976   3.362   1.664 -0.2422  1.5144 -1.0469
 3261SOL    HW312811   3.849   3.292   1.707  0.9118  0.2376  0.3864
 3261SOL    MW412812   3.914   3.301   1.651  0.2427  0.5438  0.7729
 3262SOL     OW12813   3.292   1.810   2.361 -0.5598 -0.6370 -0.2512
 3262SOL    HW212814   3.321   1.727   2.323 -1.3749 -0.2966 -1.6840
 3262SOL    HW312815   3.210   1.789   2.406  0.6345 -1.1367  1.8612
 3262SOL    MW412816   3.285   1.796   2.362  0.2621  0.8746 -0.3825
 3263SOL     OW12817   1.849   4.428   0.811 -0.0144 -0.4049 -0.4419
 3263SOL    HW212818   1.891   4.375   0.879  0.1972 -0.6195 -0.7368
 3263SOL    HW312819   1.904   4.506   0.802 -1.0439  0.5260  0.9303
 3263SOL    MW412820   1.861   4.431   0.819  0.4470  0.8195  0.0450
 3264SOL     OW12821   1.808   2.298   1.759  0.0800 -0.4835 -0.3733
 3264SOL    HW212822   1.764   2.237   1.700 -0.1337 -1.0655  0.3682
 3264SOL    HW312823   1.768   2.282   1.844  0.3856  0.3384 -0.0643
 3264SOL    MW412824   1.797   2.288   1.762  0.1112  0.0786 -0.1604
 3265SOL     OW12825   1.407   5.501   2.293 -0.2675  0.4306 -0.1677
 3265SOL    HW212826   1.439   5.426   2.242  0.3142 -0.7434  1.8317
 3265SOL    HW312827   1.371   5.560   2.227  0.8718 -0.7875 -1.9807
 3265SOL    MW412828   1.406   5.499   2.277 -0.6369 -0.1626  0.1109
 3266SOL     OW12829   0.299   5.577   5.784 -0.1000  0.7096  0.5623
 3266SOL    HW212830   0.292   5.567   5.689  2.3565  0.6549  0.3343
 3266SOL    HW312831   0.318   5.488   5.816 -0.1224  0.8659  1.0179
 3266SOL    MW412832   0.300   5.564   5.776 -1.2856  0.0843 -0.4921
 3267SOL     OW12833   3.023   1.165   5.095 -0.4102 -0.2628  0.3776
 3267SOL    HW212834   2.984   1.114   5.166 -2.3062 -0.7023 -0.9020
 3267SOL    HW312835   3.048   1.248   5.135 -0.3017 -0.9648  1.8004
 3267SOL    MW412836   3.021   1.169   5.109 -0.3410 -0.6573 -0.3186
 3268SOL     OW12837   3.397   2.186   4.171 -0.7630  0.3094 -0.0270
 3268SOL    HW212838   3.349   2.122   4.222 -0.0566  0.2785  0.6265
 3268SOL    HW312839   3.404   2.263   4.229 -0.0793  0.3273 -0.1166
 3268SOL    MW412840   3.392   2.188   4.186 -0.3730  0.0739  0.1765
 3269SOL     OW12841   2.495   3.086   0.168  0.5901 -0.2201  0.0263
 3269SOL    HW212842   2.461   2.998   0.179  1.4419 -0.6412 -0.5650
 3269SOL    HW312843   2.420   3.143   0.186 -0.4542 -1.1027 -1.2424
 3269SOL    MW412844   2.481   3.082   0.172  0.2050 -0.0205  0.3761
 3270SOL     OW12845   5.248   5.914   0.465  0.0999  0.2441  0.2032
 3270SOL    HW212846   5.321   5.894   0.405 -0.0463  1.3557 -0.3806
 3270SOL    HW312847   5.245   6.010   0.467 -2.1456  0.2465 -0.7798
 3270SOL    MW412848   5.258   5.924   0.457  0.0448 -0.1912  0.0959
 3271SOL     OW12849   6.285   5.755   5.712  0.8664 -0.1961  0.0018
 3271SOL    HW212850   6.266   5.783   5.622 -0.4367 -0.7908  0.0734
 3271SOL    HW312851   6.215   5.793   5.764  1.9661  0.6645  0.8871
 3271SOL    MW412852   6.273   5.763   5.707  0.6765  0.1644 -0.4105
 3272SOL     OW12853   2.748   6.397   0.047  0.6337  0.5217 -0.0406
 3272SOL    HW212854   2.678   6.348   0.090  0.4600  1.7678  1.1736
 3272SOL    HW312855   2.798   6.331  -0.001 -1.3476 -0.4055 -0.9344
 3272SOL    MW412856   2.745   6.382   0.046 -0.3425  0.4801 -0.0341
 3273SOL     OW12857   1.218   3.117   0.624 -0.3805  0.2299 -0.5230
 3273SOL    HW212858   1.253   3.199   0.590 -0.2142  1.1349  1.6611
 3273SOL    HW312859   1.212   3.060   0.547  5.9717 -0.1702 -1.3121
 3273SOL    MW412860   1.222   3.120   0.609 -0.1669  0.3735 -0.0349
 3274SOL     OW12861   2.776   3.293   3.589  0.1136 -0.0452  0.4134
 3274SOL    HW212862   2.745   3.303   3.679 -0.5462 -0.8952  0.2922
 3274SOL    HW312863   2.730   3.216   3.556 -0.0796  0.5792 -0.8356
 3274SOL    MW412864   2.766   3.284   3.597 -0.2933  1.1063  0.5792
 3275SOL     OW12865   0.929   5.605   3.895 -0.1020  0.5160 -0.0843
 3275SOL    HW212866   0.949   5.540   3.828 -0.8816 -0.3146  0.4558
 3275SOL    HW312867   0.976   5.684   3.868  2.1982 -0.7216  0.0712
 3275SOL    MW412868   0.938   5.607   3.883 -0.6131 -0.3948  0.3886
 3276SOL     OW12869   4.761   4.107   1.677  0.1784 -0.4729  0.2485
 3276SOL    HW212870   4.822   4.036   1.698 -0.2237 -0.4759  1.4729
 3276SOL    HW312871   4.807   4.160   1.612  1.0097 -1.1211  0.2943
 3276SOL    MW412872   4.775   4.105   1.671 -0.8672 -0.7300  0.0656
 3277SOL     OW12873   1.239   1.255   3.802  0.2359 -0.6892 -0.1699
 3277SOL    HW212874   1.187   1.335   3.802  0.2633 -0.6707 -0.3073
 3277SOL    HW312875   1.329   1.286   3.813  0.4087 -0.5874 -1.7061
 3277SOL    MW412876   1.244   1.270   3.803 -0.1662 -0.3494 -0.2386
 3278SOL     OW12877   1.267   5.117   1.515  0.6896 -0.5081 -0.0698
 3278SOL    HW212878   1.339   5.181   1.512  1.5942 -1.5306 -1.5131
 3278SOL    HW312879   1.309   5.035   1.538  0.0121 -1.1393 -0.9938
 3278SOL    MW412880   1.282   5.115   1.518 -0.1225 -0.3238  0.1893
 3279SOL     OW12881   2.693   3.379   5.490  0.1387  0.2139  0.1273
 3279SOL    HW212882   2.773   3.354   5.536 -0.1746 -0.7046  0.1979
 3279SOL    HW312883   2.645   3.297   5.479 -1.0350  0.8226  0.5460
 3279SOL    MW412884   2.697   3.365   5.494 -0.7073 -0.6629  0.1226
 3280SOL     OW12885   0.879   1.999   3.274  0.0674 -0.2990  0.0498
 3280SOL    HW212886   0.878   2.051   3.354 -0.0013  1.9741 -1.3352
 3280SOL    HW312887   0.792   1.958   3.271  0.8753 -2.4059  2.2644
 3280SOL    MW412888   0.867   2.001   3.284 -0.5162  0.0797 -0.2394
 3281SOL     OW12889   1.676   1.062   4.188  0.1344  0.0799  0.4062
 3281SOL    HW212890   1.746   1.041   4.249 -0.0157 -0.0544  0.5347
 3281SOL    HW312891   1.634   1.140   4.225  1.3790  1.2874 -0.6433
 3281SOL    MW412892   1.680   1.070   4.201  0.2958 -0.2018 -0.1764
 3282SOL     OW12893   1.964   4.214   3.482 -0.1277 -0.1569  0.2309
 3282SOL    HW212894   1.871   4.239   3.476 -0.1059 -0.3618 -1.0550
 3282SOL    HW312895   1.967   4.153   3.556 -1.4686 -2.0942 -1.2149
 3282SOL    MW412896   1.952   4.210   3.491 -0.1945  0.4176 -0.0204
 3283SOL     OW12897   0.489   0.101   6.134 -0.1252  0.0057 -0.0465
 3283SOL    HW212898   0.425   0.165   6.103 -0.2086  0.6490  1.3653
 3283SOL    HW312899   0.547   0.151   6.192  0.4315 -0.9860  0.2838
 3283SOL    MW412900   0.488   0.116   6.138  0.2576  0.1240 -0.3230
 3284SOL     OW12901   2.086   4.657   4.189  0.0070  0.4467  0.5998
 3284SOL    HW212902   2.009   4.702   4.222 -1.1858 -1.8618  1.2099
 3284SOL    HW312903   2.063   4.564   4.194  2.6449 -0.3033  0.3426
 3284SOL    MW412904   2.073   4.651   4.194 -0.0143  0.0632  0.7130
 3285SOL     OW12905   1.373   5.315   2.684  0.2406  0.4125 -0.1995
 3285SOL    HW212906   1.402   5.230   2.652 -2.3754 -0.7550  0.2438
 3285SOL    HW312907   1.318   5.350   2.614 -1.4352  0.1237  0.8881
 3285SOL    MW412908   1.369   5.308   2.671  0.3656  0.6891  0.6462
 3286SOL     OW12909   0.023   0.574   5.923 -0.0304  0.0897 -0.2096
 3286SOL    HW212910   0.000   0.545   6.011  1.2313  0.9685  0.4358
 3286SOL    HW312911   0.007   0.497   5.868 -0.9870 -0.4282  0.7410
 3286SOL    MW412912   0.018   0.560   5.927  0.2216 -0.7895  0.0416
 3287SOL     OW12913   4.698   0.348   2.314  0.4000 -0.5094 -0.0309
 3287SOL    HW212914   4.744   0.329   2.396  0.1668  0.0790  0.2443
 3287SOL    HW312915   4.768   0.356   2.249  0.5720 -1.2113  0.0593
 3287SOL    MW412916   4.714   0.346   2.316  0.2226 -0.2698  0.0936
 3288SOL     OW12917   6.394   4.506   0.107 -0.7238 -0.3935  0.5318
 3288SOL    HW212918   6.334   4.553   0.050  1.4641  1.5066 -0.3409
 3288SOL    HW312919   6.463   4.475   0.049 -0.2360 -1.5157  1.6606
 3288SOL    MW412920   6.395   4.508   0.092  0.1222 -0.0916 -0.0243
 3289SOL     OW12921   5.984   5.086   1.396  0.1226 -0.3679 -0.1155
 3289SOL    HW212922   5.979   4.991   1.392  1.0508 -0.4613  0.6848
 3289SOL    HW312923   6.069   5.107   1.358  0.3277  0.0785  0.5823
 3289SOL    MW412924   5.994   5.076   1.390  0.1762  0.1786 -0.3715
 3290SOL     OW12925   4.304   4.173   3.652 -0.0987  0.6011  0.2290
 3290SOL    HW212926   4.382   4.177   3.597 -0.9722  1.4874 -0.9844
 3290SOL    HW312927   4.338   4.180   3.742  1.2641  0.1436 -0.2313
 3290SOL    MW412928   4.319   4.175   3.657  0.2546  0.4601  0.0286
 3291SOL     OW12929   6.391   5.382   1.443 -0.5994 -0.5978  0.2995
 3291SOL    HW212930   6.449   5.441   1.394 -0.0221 -1.2053  0.2371
 3291SOL    HW312931   6.316   5.436   1.466  0.8305  0.7845  2.0561
 3291SOL    MW412932   6.389   5.397   1.440  0.6597  0.0493  0.1708
 3292SOL     OW12933   1.168   2.899   5.685 -0.4493  0.1579 -0.6281
 3292SOL    HW212934   1.124   2.920   5.767 -2.1695 -0.2380 -1.4073
 3292SOL    HW312935   1.166   2.981   5.635  1.0726  0.5481 -0.1091
 3292SOL    MW412936   1.162   2.913   5.689 -0.5028  0.4905  0.8374
 3293SOL     OW12937   3.155   1.835   6.365 -0.2556 -0.2288  0.0149
 3293SOL    HW212938   3.219   1.772   6.333 -0.8524 -0.8509  0.0085
 3293SOL    HW312939   3.178   1.849   6.457 -1.6555 -2.5211  0.8202
 3293SOL    MW412940   3.166   1.829   6.373 -0.0624  0.6276  0.3641
 3294SOL     OW12941   0.242   2.548   1.768  0.1362 -0.7540  0.1299
 3294SOL    HW212942   0.183   2.509   1.703 -1.5809  0.7478  0.6774
 3294SOL    HW312943   0.183   2.577   1.838  1.7155 -0.4209  1.3632
 3294SOL    MW412944   0.226   2.547   1.769  0.1426  0.7052 -0.1904
 3295SOL     OW12945   4.948   1.547   3.302  0.4573 -0.0223  0.3514
 3295SOL    HW212946   4.958   1.632   3.345  0.4625  0.3307 -0.3309
 3295SOL    HW312947   4.895   1.566   3.224 -1.7044 -1.0659  1.4995
 3295SOL    MW412948   4.942   1.561   3.297 -0.4354 -0.2544 -0.2621
 3296SOL     OW12949   1.252   3.177   0.234  0.2073 -0.2561  0.2493
 3296SOL    HW212950   1.314   3.232   0.185 -0.4748 -0.5147 -0.9541
 3296SOL    HW312951   1.254   3.211   0.323 -1.1870  2.6376 -0.7081
 3296SOL    MW412952   1.260   3.189   0.239  0.4920  0.1329  0.1186
 3297SOL     OW12953   5.761   0.940   0.091 -0.0113  0.5707 -0.4182
 3297SOL    HW212954   5.853   0.964   0.090  0.3205 -0.5811  0.5391
 3297SOL    HW312955   5.715   1.018   0.060  1.2328  1.3648 -0.3061
 3297SOL    MW412956   5.767   0.953   0.087 -0.2003  0.3709 -0.4420
 3298SOL     OW12957   5.321   0.845   4.682 -0.0637  0.5364 -0.3091
 3298SOL    HW212958   5.296   0.885   4.765  0.7599 -1.0011  0.7212
 3298SOL    HW312959   5.413   0.869   4.670 -0.4055  1.4764 -1.2504
 3298SOL    MW412960   5.330   0.854   4.691  0.1877  0.0496 -0.2617
 3299SOL     OW12961   0.984   0.161   3.417 -0.4858  0.2412  0.1503
 3299SOL    HW212962   0.980   0.127   3.327  0.0516 -2.1983  0.9627
 3299SOL    HW312963   0.928   0.101   3.467  0.4233  0.6284  1.6791
 3299SOL    MW412964   0.976   0.148   3.412 -0.1469  0.0030  0.5645
 3300SOL     OW12965   1.621   2.821   0.601  0.1030 -0.3755 -0.2610
 3300SOL    HW212966   1.685   2.772   0.550 -0.8039  1.0139 -2.9071
 3300SOL    HW312967   1.561   2.859   0.536 -0.0262  3.1184  1.6348
 3300SOL    MW412968   1.621   2.820   0.586  0.3227  0.0044  0.2161
 3301SOL     OW12969   2.395   1.993   4.112 -0.1792  0.2859 -0.5777
 3301SOL    HW212970   2.330   1.985   4.182  0.4689  1.3953  0.2016
 3301SOL    HW312971   2.345   1.993   4.031 -1.2037  1.4837  0.0231
 3301SOL    MW412972   2.380   1.992   4.111  0.0869  0.2314  0.2784
 3302SOL     OW12973   6.398   3.286   3.560  0.4461 -0.3359 -0.0393
 3302SOL    HW212974   6.449   3.314   3.636  0.0438  1.1395 -0.2733
 3302SOL    HW312975   6.340   3.361   3.541 -0.0809 -1.0176 -1.2537
 3302SOL    MW412976   6.397   3.300   3.567  0.0380  0.3322  0.0374
 3303SOL     OW12977   2.727   1.817   2.125 -0.2192 -0.2596 -0.3024
 3303SOL    HW212978   2.787   1.856   2.189  0.1283  0.4545 -1.0354
 3303SOL    HW312979   2.785   1.782   2.057 -0.5766 -1.1304 -0.1759
 3303SOL    MW412980   2.743   1.817   2.124  0.7761  0.0267  0.2299
 3304SOL     OW12981   2.606   1.870   1.282 -0.7724 -0.1262  0.4239
 3304SOL    HW212982   2.663   1.946   1.288  1.8153 -2.0131  1.6101
 3304SOL    HW312983   2.533   1.889   1.340 -0.6356  1.7668  0.0308
 3304SOL    MW412984   2.604   1.883   1.290  0.5337 -0.0147  0.1319
 3305SOL     OW12985   3.238   4.285   2.474  0.3477  0.6098 -0.2805
 3305SOL    HW212986   3.320   4.281   2.425  0.0764  0.5876 -0.7420
 3305SOL    HW312987   3.265   4.297   2.565  0.8986 -0.9146 -0.2193
 3305SOL    MW412988   3.252   4.286   2.479 -0.1387  0.0587  0.4206
 3306SOL     OW12989   1.836   0.707   1.381  0.2807 -0.1201 -0.1455
 3306SOL    HW212990   1.925   0.706   1.347  0.0492 -2.5604 -0.8283
 3306SOL    HW312991   1.791   0.773   1.327  1.4664  0.5944 -0.2910
 3306SOL    MW412992   1.842   0.716   1.369 -0.0817  0.0260 -0.2965
 3307SOL     OW12993   5.406   3.721   2.575  0.2372  0.8634 -0.0082
 3307SOL    HW212994   5.476   3.785   2.573  0.4298  0.6531 -0.0690
 3307SOL    HW312995   5.336   3.759   2.523 -0.9272  2.4950  2.5135
 3307SOL    MW412996   5.406   3.734   2.568  0.4466  0.2626 -0.3600
 3308SOL     OW12997   0.437   2.356   5.043 -0.5508  0.0928 -0.6669
 3308SOL    HW212998   0.403   2.403   4.967 -0.4441  1.3515  0.0504
 3308SOL    HW312999   0.461   2.424   5.106  0.0021 -0.8986  0.2376
 3308SOL    MW413000   0.436   2.371   5.041  0.4505  0.3044 -0.4967
 3309SOL     OW13001   5.062   5.728   5.032 -0.2032  0.6925 -0.0771
 3309SOL    HW213002   4.993   5.725   4.966 -1.0866  0.6794  0.8124
 3309SOL    HW313003   5.027   5.675   5.104  0.5102  1.1274  0.5985
 3309SOL    MW413004   5.048   5.721   5.033  0.7052 -0.0954  0.5666
 3310SOL     OW13005   3.256   5.540   2.783 -0.5066 -0.6793  0.1788
 3310SOL    HW213006   3.165   5.539   2.811 -0.0772 -0.5153  1.6618
 3310SOL    HW313007   3.262   5.615   2.723 -1.5596 -1.3634 -0.8286
 3310SOL    MW413008   3.245   5.550   2.778 -0.0190 -0.1722 -0.5053
 3311SOL     OW13009   0.064   2.744   2.725  0.5875  0.5701 -0.0813
 3311SOL    HW213010   0.047   2.772   2.815 -2.3206  0.8240 -0.6247
 3311SOL    HW313011   0.134   2.802   2.695  0.0658  2.0027  1.3122
 3311SOL    MW413012   0.071   2.755   2.733  0.1455 -0.3510  0.6666
 3312SOL     OW13013   0.377   0.447   5.486 -0.2798 -0.2998  0.0343
 3312SOL    HW213014   0.312   0.404   5.430 -0.7087  0.9849 -0.4972
 3312SOL    HW313015   0.460   0.438   5.439 -0.6930  1.0803 -1.0453
 3312SOL    MW413016   0.379   0.440   5.472  0.7053  0.2896  0.1461
 3313SOL     OW13017   4.776   4.531   3.524 -0.2463 -0.3219 -0.7903
 3313SOL    HW213018   4.720   4.584   3.468 -0.5156 -0.3539 -0.5514
 3313SOL    HW313019   4.846   4.501   3.466 -0.8865 -0.9142 -1.2653
 3313SOL    MW413020   4.778   4.534   3.509  0.4643  0.1286  0.5575
 3314SOL     OW13021   1.053   1.135   1.659 -0.2413  0.0138  0.0796
 3314SOL    HW213022   1.088   1.080   1.590 -0.0362  1.0493 -0.6692
 3314SOL    HW313023   1.100   1.108   1.738  1.3921  0.5158 -0.6652
 3314SOL    MW413024   1.064   1.124   1.661 -0.9682  0.6425 -0.6005
 3315SOL     OW13025   4.967   4.299   2.363 -0.3408 -0.3424 -0.0953
 3315SOL    HW213026   4.931   4.355   2.294 -0.0976 -0.8303 -0.6218
 3315SOL    HW313027   4.932   4.212   2.344  0.3270 -0.6255 -0.0382
 3315SOL    MW413028   4.958   4.295   2.351  0.0801  0.0283  0.0737
 3316SOL     OW13029   6.136   4.604   5.375 -0.1441 -0.5358 -0.4698
 3316SOL    HW213030   6.099   4.667   5.313  1.2362 -0.0318 -0.8037
 3316SOL    HW313031   6.139   4.521   5.326 -0.0593 -0.3898 -0.7117
 3316SOL    MW413032   6.131   4.601   5.360  0.4632 -0.2951  0.1808
 3317SOL     OW13033   4.398   6.385   0.148 -0.3335 -0.2028  0.2063
 3317SOL    HW213034   4.411   6.316   0.083 -1.1736 -0.0076 -0.1834
 3317SOL    HW313035   4.326   6.438   0.113  0.4013  0.9760  0.4192
 3317SOL    MW413036   4.390   6.383   0.135  0.3719 -0.3053 -0.6921
 3318SOL     OW13037   6.179   0.818   4.473 -0.1176  0.4140  0.1769
 3318SOL    HW213038   6.218   0.860   4.396 -0.6884 -0.2474 -0.4872
 3318SOL    HW313039   6.127   0.886   4.515  0.6894  0.9438  0.3260
 3318SOL    MW413040   6.177   0.832   4.469 -0.1507  0.8356 -0.4580
 3319SOL     OW13041   3.524   0.712   1.371 -0.0479  0.1424  0.0847
 3319SOL    HW213042   3.564   0.799   1.363 -0.1716  0.3770  1.7061
 3319SOL    HW313043   3.494   0.691   1.282  2.0176  0.7499 -0.8191
 3319SOL    MW413044   3.525   0.721   1.358  0.9009  0.0920  0.3317
 3320SOL     OW13045   4.944   2.340   1.001  0.2796 -0.0221  0.2110
 3320SOL    HW213046   4.987   2.388   0.930 -1.0754  0.2833 -0.4235
 3320SOL    HW313047   4.960   2.248   0.980  2.0536  0.0749  0.9123
 3320SOL    MW413048   4.952   2.334   0.989  0.2948  0.2621 -1.0797
 3321SOL     OW13049   1.573   2.653   4.258 -0.3814  0.4242 -0.1792
 3321SOL    HW213050   1.626   2.604   4.195 -1.2097 -1.2538  0.3674
 3321SOL    HW313051   1.559   2.591   4.330 -1.4750  1.4789  0.5404
 3321SOL    MW413052   1.578   2.638   4.259  0.2425  0.7972  0.1474
 3322SOL     OW13053   3.093   4.692   0.578 -0.0876 -0.6457 -0.0168
 3322SOL    HW213054   3.159   4.672   0.512  0.2755 -0.4550  0.2842
 3322SOL    HW313055   3.023   4.736   0.529  0.1179 -0.6284 -0.2972
 3322SOL    MW413056   3.093   4.696   0.563 -0.1739 -0.4481 -0.1219
 3323SOL     OW13057   0.093   4.505   2.628 -0.8895 -0.2663 -0.8113
 3323SOL    HW213058   0.034   4.569   2.667  1.5118  0.5343  1.8084
 3323SOL    HW313059   0.088   4.429   2.686  0.6017 -0.1750 -0.5293
 3323SOL    MW413060   0.084   4.503   2.640  0.0061  0.2812  0.4545
 3324SOL     OW13061   4.921   4.722   3.301 -0.3244 -0.0201 -0.0783
 3324SOL    HW213062   4.961   4.788   3.245 -0.5962 -0.4458 -0.7790
 3324SOL    HW313063   4.946   4.748   3.390  0.5783  0.3460 -0.4270
 3324SOL    MW413064   4.929   4.734   3.306  0.5172  0.1206 -0.3428
 3325SOL     OW13065   5.349   5.244   3.254  0.1686 -0.4457  0.1073
 3325SOL    HW213066   5.325   5.153   3.239  2.1026 -1.0428  0.3622
 3325SOL    HW313067   5.379   5.276   3.169  2.7926 -1.1577  0.6882
 3325SOL    MW413068   5.350   5.236   3.241 -0.1724  0.1774 -0.4654
 3326SOL     OW13069   2.842   3.183   4.037 -0.2504 -0.3271  0.2997
 3326SOL    HW213070   2.837   3.088   4.042  1.0074 -0.3488  1.9479
 3326SOL    HW313071   2.767   3.214   4.088 -1.0290 -0.3865 -0.7582
 3326SOL    MW413072   2.831   3.175   4.044 -0.0864  0.0098 -0.3136
 3327SOL     OW13073   1.180   4.576   0.176 -0.4529  0.4795 -0.1310
 3327SOL    HW213074   1.166   4.482   0.177 -1.3751  0.6099 -0.4137
 3327SOL    HW313075   1.093   4.614   0.187  0.0043  1.3010  0.7646
 3327SOL    MW413076   1.167   4.569   0.177  0.0152 -0.5876  0.7299
 3328SOL     OW13077   0.738   4.960   1.254 -0.4796  0.4057 -0.4180
 3328SOL    HW213078   0.706   5.047   1.277 -0.2052  0.7337 -1.2665
 3328SOL    HW313079   0.792   4.934   1.328 -1.8052  0.2984  0.5528
 3328SOL    MW413080   0.741   4.968   1.267 -0.1461 -0.2327  0.2981
 3329SOL     OW13081   6.195   1.064   3.136 -0.0368 -0.3807 -0.1754
 3329SOL    HW213082   6.121   1.085   3.079 -0.5731 -0.2264  0.5655
 3329SOL    HW313083   6.214   1.146   3.182  0.1063 -0.6182  0.1894
 3329SOL    MW413084   6.187   1.078   3.135 -0.1469  0.2030  0.2865
 3330SOL     OW13085   3.531   6.366   4.246  0.0911 -0.2615  0.9374
 3330SOL    HW213086   3.477   6.380   4.168  0.4907  0.7212  0.8278
 3330SOL    HW313087   3.470   6.332   4.312 -0.7531  1.2105  0.9458
 3330SOL    MW413088   3.516   6.363   4.244 -0.1539 -0.3163  0.1585
 3331SOL     OW13089   4.878   1.250   1.045  0.0250 -0.2998  0.0131
 3331SOL    HW213090   4.913   1.336   1.070 -0.2184 -0.0126 -0.6063
 3331SOL    HW313091   4.836   1.217   1.124  0.2692  0.0786  0.3031
 3331SOL    MW413092   4.877   1.257   1.058  0.2378 -0.2206  0.2294
 3332SOL     OW13093   4.753   4.209   3.035  0.0647  0.3086 -0.1645
 3332SOL    HW213094   4.814   4.241   3.101 -0.5287  0.3926  0.3558
 3332SOL    HW313095   4.804   4.148   2.982  0.5132  0.1357  0.4614
 3332SOL    MW413096   4.768   4.205   3.037  0.2854 -0.2918 -0.0557
 3333SOL     OW13097   4.714   4.899   0.961  0.3530 -0.5446 -0.1093
 3333SOL    HW213098   4.618   4.902   0.960  0.2610 -0.4691  2.6516
 3333SOL    HW313099   4.741   4.990   0.945 -0.0914 -0.3257  0.3596
 3333SOL    MW413100   4.705   4.912   0.959 -0.0046  0.2353  0.1408
 3334SOL     OW13101   3.888   5.675   0.234 -0.2073 -0.4140 -0.6580
 3334SOL    HW213102   3.876   5.723   0.151  1.7832 -0.5445 -1.0564
 3334SOL    HW313103   3.838   5.726   0.298 -0.9105  0.2795 -1.7232
 3334SOL    MW413104   3.880   5.688   0.231  0.3369  0.2167 -0.0912
 3335SOL     OW13105   3.283   5.005   4.909  0.0349  0.3836 -0.4431
 3335SOL    HW213106   3.219   4.974   4.973 -1.4748  1.8862 -1.1554
 3335SOL    HW313107   3.358   4.947   4.921 -0.1366  0.6299  2.7404
 3335SOL    MW413108   3.285   4.993   4.919 -0.3127  0.0372  0.3150
 3336SOL     OW13109   0.629   2.699   4.989  1.1019  0.0887 -0.1497
 3336SOL    HW213110   0.586   2.781   4.964 -1.4254 -1.1698 -0.2818
 3336SOL    HW313111   0.572   2.662   5.056  2.5481 -1.2568  0.3885
 3336SOL    MW413112   0.616   2.705   4.994  0.7180 -0.6351 -0.1932
 3337SOL     OW13113   2.424   0.302   0.970  0.5009 -0.8608  0.0468
 3337SOL    HW213114   2.470   0.373   1.014 -1.2642  0.6116 -0.3687
 3337SOL    HW313115   2.368   0.263   1.037 -0.3815 -0.2070 -0.2955
 3337SOL    MW413116   2.423   0.306   0.984 -0.9381  0.0983  0.4521
 3338SOL     OW13117   1.892   5.084   4.350  0.8032  0.2699  0.2802
 3338SOL    HW213118   1.918   5.117   4.436  3.7205  2.1312 -1.1647
 3338SOL    HW313119   1.847   5.157   4.309 -3.3258 -1.5148  1.0669
 3338SOL    MW413120   1.889   5.098   4.356 -0.9250 -0.2229 -0.3101
 3339SOL     OW13121   1.377   3.344   3.484  0.7551  0.2745  0.1664
 3339SOL    HW213122   1.468   3.373   3.482  1.0465 -0.6338 -0.1797
 3339SOL    HW313123   1.337   3.387   3.408  1.5643 -1.3804 -1.2722
 3339SOL    MW413124   1.384   3.353   3.474 -0.0178  0.0216  0.1649
 3340SOL     OW13125   4.773   4.300   3.346 -0.1920 -0.2649 -0.1874
 3340SOL    HW213126   4.848   4.358   3.333 -1.3300  0.8387 -2.4716
 3340SOL    HW313127   4.703   4.339   3.293 -2.2715 -1.4860  1.5170
 3340SOL    MW413128   4.774   4.313   3.337 -0.0977  0.1475 -0.4806
 3341SOL     OW13129   2.409   2.184   2.680  0.0995  0.0935 -0.3958
 3341SOL    HW213130   2.345   2.237   2.632  1.5802  2.7355  0.3602
 3341SOL    HW313131   2.481   2.171   2.619 -0.1621 -0.9389 -0.5050
 3341SOL    MW413132   2.410   2.189   2.666 -1.1377 -0.1843 -0.0781
 3342SOL     OW13133   0.094   3.752   3.846 -0.1036 -0.1162 -0.7033
 3342SOL    HW213134   0.061   3.725   3.760  0.2187 -2.9279 -0.0369
 3342SOL    HW313135   0.189   3.761   3.833 -0.0325 -0.7014 -0.6355
 3342SOL    MW413136   0.102   3.750   3.833  0.5221 -0.0628 -0.3191
 3343SOL     OW13137   5.935   1.929   5.016  0.1659 -0.1669 -0.2006
 3343SOL    HW213138   5.844   1.904   5.034 -0.0265  0.7896  0.2583
 3343SOL    HW313139   5.982   1.906   5.096  0.2650 -0.3634 -0.3153
 3343SOL    MW413140   5.929   1.923   5.029  0.5634  0.8310 -1.1327
 3344SOL     OW13141   2.263   5.975   3.453  0.1158  0.5120  0.2785
 3344SOL    HW213142   2.191   5.972   3.517  0.7357 -0.8606  0.9798
 3344SOL    HW313143   2.276   5.883   3.429  0.1745  0.9678 -1.5421
 3344SOL    MW413144   2.255   5.962   3.458  0.3697  0.5148  0.1399
 3345SOL     OW13145   0.516   5.330   1.610  0.1585 -0.1925  0.4805
 3345SOL    HW213146   0.609   5.337   1.632  0.2934  0.7788 -0.3472
 3345SOL    HW313147   0.473   5.396   1.665  0.3954  1.6718 -1.4554
 3345SOL    MW413148   0.522   5.339   1.620  0.0197 -0.2939  0.1452
 3346SOL     OW13149   3.472   2.921   5.873  0.3773  0.1250 -0.3539
 3346SOL    HW213150   3.512   2.971   5.944 -3.0009  2.0708  0.3885
 3346SOL    HW313151   3.500   2.966   5.793  1.6492 -0.1308 -0.0705
 3346SOL    MW413152   3.481   2.933   5.872  0.4206 -0.2075 -0.6876
 3347SOL     OW13153   0.895   1.777   5.127 -0.0250 -0.5017 -0.6932
 3347SOL    HW213154   0.823   1.734   5.173  0.3898 -0.4281  0.0419
 3347SOL    HW313155   0.952   1.811   5.197  0.6332 -0.4078 -1.2573
 3347SOL    MW413156   0.893   1.776   5.143  0.7658 -0.6978  0.1064
 3348SOL     OW13157   0.258   4.346   4.995 -0.8482  0.0949 -0.3063
 3348SOL    HW213158   0.236   4.361   4.903 -0.5781 -0.0754 -0.4013
 3348SOL    HW313159   0.296   4.429   5.025  0.3077 -0.2542 -0.7275
 3348SOL    MW413160   0.260   4.359   4.987  0.2422  0.1460  0.2662
 3349SOL     OW13161   6.207   5.649   4.730  0.3946 -0.0872 -0.3281
 3349SOL    HW213162   6.141   5.715   4.710  0.5122  0.3511  0.6937
 3349SOL    HW313163   6.158   5.579   4.774  0.3898 -0.3779 -0.7842
 3349SOL    MW413164   6.192   5.648   4.733 -0.2970 -0.6242 -0.5831
 3350SOL     OW13165   1.170   3.057   5.279  0.8177  0.5478 -0.5109
 3350SOL    HW213166   1.148   3.074   5.370 -1.7775 -0.2124 -0.9238
 3350SOL    HW313167   1.184   3.143   5.240  1.6472  0.8887  0.4971
 3350SOL    MW413168   1.169   3.070   5.285  0.0990 -0.0986  0.3550
 3351SOL     OW13169   4.214   1.469   2.549  0.3742 -0.6679 -0.4448
 3351SOL    HW213170   4.195   1.558   2.577 -1.5300 -1.1332 -0.1597
 3351SOL    HW313171   4.298   1.476   2.504  1.2541  0.9140  1.2827
 3351SOL    MW413172   4.223   1.482   2.547 -0.1516 -0.4776 -0.1866
 3352SOL     OW13173   0.667   5.701   4.583 -0.0827 -0.1635 -0.0712
 3352SOL    HW213174   0.637   5.631   4.525 -0.6349  0.1783 -0.2119
 3352SOL    HW313175   0.735   5.746   4.532 -1.4525  0.9392 -1.0224
 3352SOL    MW413176   0.672   5.698   4.569  0.3557 -0.4527 -0.2938
 3353SOL     OW13177   0.898   0.624   6.134 -0.4135  0.1012 -0.3158
 3353SOL    HW213178   0.914   0.541   6.087  0.3678  1.1389 -1.9958
 3353SOL    HW313179   0.894   0.599   6.226  0.4079 -1.7323 -0.7258
 3353SOL    MW413180   0.900   0.609   6.140 -0.1912 -0.1493 -0.1893
 3354SOL     OW13181   6.200   6.058   6.003  0.3283  0.4067 -0.0947
 3354SOL    HW213182   6.176   6.071   6.095 -1.0347 -0.8406 -0.2352
 3354SOL    HW313183   6.213   6.146   5.968 -2.0486  1.0896  0.5649
 3354SOL    MW413184   6.199   6.071   6.011 -0.2325 -0.7241 -0.7860
 3355SOL     OW13185   5.710   0.175   0.085  0.2132 -0.4073  0.2656
 3355SOL    HW213186   5.743   0.172  -0.005 -1.4626  0.2387 -0.4236
 3355SOL    HW313187   5.786   0.198   0.138  0.8637  1.1463 -1.2385
 3355SOL    MW413188   5.724   0.178   0.080 -0.0853 -0.3339  0.1127
 3356SOL     OW13189   3.879   1.507   5.975 -0.3291  0.0470  0.0453
 3356SOL    HW213190   3.961   1.529   6.020  0.0558 -1.8079  0.3655
 3356SOL    HW313191   3.874   1.411   5.981 -1.7113 -0.0144 -1.3954
 3356SOL    MW413192   3.889   1.497   5.982  0.1046  0.4331  0.0714
 3357SOL     OW13193   0.663   2.575   3.274 -0.3492 -0.2852  0.4961
 3357SOL    HW213194   0.604   2.590   3.201  1.5401 -0.2180 -1.1118
 3357SOL    HW313195   0.684   2.482   3.271  0.9567  0.0098 -0.0617
 3357SOL    MW413196   0.658   2.565   3.264 -0.3645  0.3759  0.0388
 3358SOL     OW13197   1.376   6.133   3.858 -0.6778  0.2627 -0.1438
 3358SOL    HW213198   1.419   6.058   3.818 -2.1851 -0.3598 -0.6780
 3358SOL    HW313199   1.425   6.209   3.827 -0.6239 -0.3429 -1.6069
 3358SOL    MW413200   1.388   6.133   3.849  0.3190 -0.5422  0.0061
 3359SOL     OW13201   2.575   3.018   1.436 -1.0745  0.1085 -0.2443
 3359SOL    HW213202   2.564   3.056   1.349 -0.4214  1.4796  0.2313
 3359SOL    HW313203   2.670   3.016   1.449 -1.1653  0.0989  0.4915
 3359SOL    MW413204   2.586   3.023   1.426  0.3998 -0.1896 -0.4233
 3360SOL     OW13205   4.914   6.259   0.651  0.4350  0.0525 -0.7231
 3360SOL    HW213206   4.994   6.307   0.675  0.0383  1.0571 -1.3496
 3360SOL    HW313207   4.846   6.326   0.648 -0.6293 -0.9032  0.5568
 3360SOL    MW413208   4.916   6.274   0.654 -0.1909 -0.6289  0.6370
 3361SOL     OW13209   1.381   3.529   2.387  0.7613 -0.2695  0.1918
 3361SOL    HW213210   1.348   3.440   2.371  0.0831 -0.5058  2.5027
 3361SOL    HW313211   1.415   3.558   2.303  0.6658 -2.5888 -0.7100
 3361SOL    MW413212   1.381   3.521   2.374 -0.1514  0.4751  0.0896
 3362SOL     OW13213   4.757   1.226   2.594 -0.0160  0.0862 -0.4661
 3362SOL    HW213214   4.816   1.229   2.669  0.5372  1.8826 -0.9374
 3362SOL    HW313215   4.783   1.147   2.546  2.2378  0.9740 -0.8220
 3362SOL    MW413216   4.768   1.216   2.598 -0.2073 -0.5727 -0.5069
 3363SOL     OW13217   6.198   5.958   3.272  0.3989 -0.4169 -0.4735
 3363SOL    HW213218   6.191   6.005   3.188 -0.5469  1.7748  0.7382
 3363SOL    HW313219   6.109   5.961   3.308  1.0512 -0.1136  1.1819
 3363SOL    MW413220   6.185   5.965   3.265 -0.0541 -0.5977  0.0674
 3364SOL     OW13221   5.813   0.661   2.104  0.0132  0.6693 -0.0607
 3364SOL    HW213222   5.842   0.750   2.128  2.3103  0.4913 -1.8079
 3364SOL    HW313223   5.751   0.637   2.173  0.2521  3.1474  1.1460
 3364SOL    MW413224   5.809   0.670   2.116 -0.5215 -0.4685 -0.3369
 3365SOL     OW13225   5.978   3.275   0.142  0.1487  0.1508 -0.1551
 3365SOL    HW213226   5.906   3.232   0.188 -0.0966 -0.6913 -1.2851
 3365SOL    HW313227   5.951   3.367   0.134 -0.8721 -0.1831 -0.6850
 3365SOL    MW413228   5.965   3.282   0.147 -0.1619 -0.4562 -0.2504
 3366SOL     OW13229   3.984   6.022   4.496 -0.5318  0.3285 -0.1690
 3366SOL    HW213230   3.916   5.984   4.441 -0.7181 -0.8591  0.8510
 3366SOL    HW313231   4.029   6.083   4.438 -2.6833  1.4543 -0.7726
 3366SOL    MW413232   3.981   6.025   4.481  0.1814 -0.1741 -0.4602
 3367SOL     OW13233   1.015   2.484   4.197  0.2937  1.0058  0.2783
 3367SOL    HW213234   0.947   2.550   4.202  0.2296  0.8779  1.4758
 3367SOL    HW313235   0.976   2.406   4.237  0.3579  0.2201 -1.1413
 3367SOL    MW413236   1.001   2.482   4.203 -0.0248  0.2763 -0.1981
 3368SOL     OW13237   2.617   0.071   4.888  0.0353  0.0150 -0.5061
 3368SOL    HW213238   2.648   0.102   4.973 -0.3362 -1.3872  0.1763
 3368SOL    HW313239   2.697   0.043   4.843  0.0499 -1.4847  0.3640
 3368SOL    MW413240   2.632   0.072   4.893 -0.5856  0.9303 -0.1628
 3369SOL     OW13241   4.644   2.330   3.736  0.0662  0.1500 -0.7038
 3369SOL    HW213242   4.727   2.376   3.736  0.5452 -0.5524  1.5685
 3369SOL    HW313243   4.647   2.273   3.659  1.7868 -0.0112 -0.5574
 3369SOL    MW413244   4.655   2.328   3.726  0.5920 -0.0638  0.3936
 3370SOL     OW13245   1.407   3.409   4.936  0.0625 -0.2909  0.5765
 3370SOL    HW213246   1.460   3.423   5.014  0.0040  4.2996  0.0893
 3370SOL    HW313247   1.466   3.426   4.863 -1.1544  1.3184 -0.0919
 3370SOL    MW413248   1.421   3.413   4.937  0.5014  0.1128 -0.4442
 3371SOL     OW13249   5.895   4.821   1.427 -0.4145  0.0179  0.1114
 3371SOL    HW213250   5.925   4.800   1.515  0.1579  0.0370 -0.0754
 3371SOL    HW313251   5.812   4.866   1.440 -1.0255 -1.2003  0.5719
 3371SOL    MW413252   5.888   4.824   1.440 -0.2157 -0.2857 -0.3416
 3372SOL     OW13253   0.878   1.637   3.158 -0.0196 -0.6330  0.3966
 3372SOL    HW213254   0.880   1.699   3.085  0.7781 -0.5305  0.5045
 3372SOL    HW313255   0.868   1.692   3.236  2.5533 -0.4501  0.6766
 3372SOL    MW413256   0.877   1.652   3.159 -0.1995  0.2146  0.1182
 3373SOL     OW13257   2.436   4.312   1.763 -0.4279  0.6758 -0.4999
 3373SOL    HW213258   2.439   4.235   1.819 -0.3641  1.2064  0.2381
 3373SOL    HW313259   2.345   4.340   1.765 -0.4113  0.7374 -0.6024
 3373SOL    MW413260   2.424   4.306   1.771 -0.0403 -0.7055  0.2851
 3374SOL     OW13261   0.566   3.891   1.304  0.2160 -0.2507  0.0695
 3374SOL    HW213262   0.554   3.970   1.251  0.7886 -0.2451 -0.0559
 3374SOL    HW313263   0.620   3.919   1.377  1.8549 -0.8679 -0.8429
 3374SOL    MW413264   0.571   3.905   1.306  0.5166  0.3272 -0.0238
 3375SOL     OW13265   2.873   3.513   1.915 -0.5930  0.2160 -0.0412
 3375SOL    HW213266   2.886   3.603   1.885 -0.2261 -0.4557 -2.0702
 3375SOL    HW313267   2.926   3.505   1.994  0.9560  1.2398 -0.9348
 3375SOL    MW413268   2.882   3.524   1.921 -0.7390  0.1429 -0.0022
 3376SOL     OW13269   4.440   4.967   0.842 -0.4382 -0.2846  0.2357
 3376SOL    HW213270   4.360   4.915   0.834  0.0746 -1.0091 -0.2878
 3376SOL    HW313271   4.463   4.990   0.753  0.9547 -1.6757  0.1962
 3376SOL    MW413272   4.432   4.963   0.829  0.5593 -0.2661  0.2662
 3377SOL     OW13273   1.990   4.686   5.385 -0.2935  0.4046  0.7375
 3377SOL    HW213274   1.946   4.641   5.313 -1.0691  1.9017  0.2510
 3377SOL    HW313275   1.976   4.779   5.369  3.0082  0.9918  0.6023
 3377SOL    MW413276   1.982   4.692   5.374  0.0798  0.4279 -0.4695
 3378SOL     OW13277   5.488   3.317   5.248  0.4932 -0.6043 -0.3640
 3378SOL    HW213278   5.408   3.352   5.211  1.8151  0.3966 -2.4629
 3378SOL    HW313279   5.463   3.283   5.334 -2.2401 -0.7938 -1.1679
 3378SOL    MW413280   5.474   3.317   5.255  0.0738  0.4707  0.7821
 3379SOL     OW13281   6.318   0.469   0.552 -0.2520  0.3724 -0.3515
 3379SOL    HW213282   6.276   0.555   0.554  2.1243  1.6050  0.4470
 3379SOL    HW313283   6.304   0.434   0.640  0.2503  0.7024 -0.1404
 3379SOL    MW413284   6.310   0.476   0.564  0.0239  0.0033  0.8600
 3380SOL     OW13285   4.015   5.711   3.099 -0.2543 -0.0970  0.3750
 3380SOL    HW213286   4.045   5.680   3.014  1.0500 -0.4537  0.9464
 3380SOL    HW313287   3.973   5.635   3.139 -3.9700  0.8823 -1.2224
 3380SOL    MW413288   4.013   5.697   3.093  0.2272 -0.0971  0.6049
 3381SOL     OW13289   3.265   2.754   5.987  0.1270  0.3511 -0.5011
 3381SOL    HW213290   3.283   2.776   6.079  1.4461  3.3483 -1.3421
 3381SOL    HW313291   3.337   2.795   5.938 -0.1372 -1.7579 -2.8723
 3381SOL    MW413292   3.277   2.762   5.993 -0.3874  0.2196 -0.2104
 3382SOL     OW13293   0.079   3.648   4.090 -0.0719 -0.4764  0.3311
 3382SOL    HW213294   0.172   3.650   4.113 -0.4691  1.3414  2.0874
 3382SOL    HW313295   0.075   3.685   4.002  1.2881 -5.5234 -2.2211
 3382SOL    MW413296   0.091   3.653   4.082 -0.1662  0.5222  0.4228
 3383SOL     OW13297   1.685   0.143   2.936 -0.5132  0.0814 -0.2467
 3383SOL    HW213298   1.747   0.211   2.962 -0.4424  0.9825 -2.5434
 3383SOL    HW313299   1.739   0.076   2.894 -0.8371 -0.3400  0.0020
 3383SOL    MW413300   1.700   0.143   2.934  0.3332  0.4226  0.3454
 3384SOL     OW13301   1.872   4.365   1.744 -0.0851 -0.0727  0.1747
 3384SOL    HW213302   1.868   4.457   1.768  0.2059 -0.0005 -0.0524
 3384SOL    HW313303   1.965   4.346   1.737 -0.0807 -0.7277  1.5554
 3384SOL    MW413304   1.884   4.375   1.746  0.3219  0.7020  0.0112
 3385SOL     OW13305   4.345   4.245   1.019  0.6116  0.5469  0.2375
 3385SOL    HW213306   4.393   4.168   0.986  1.2238 -0.1510  2.5736
 3385SOL    HW313307   4.290   4.271   0.946  1.0275 -1.5898 -0.9388
 3385SOL    MW413308   4.344   4.238   1.005 -0.3734  0.2893  0.3919
 3386SOL     OW13309   3.017   0.620   5.952  0.2911 -0.4527 -0.0314
 3386SOL    HW213310   2.980   0.708   5.951 -0.6169 -0.8232 -1.3373
 3386SOL    HW313311   3.059   0.613   6.038 -1.5399  0.4463  0.9874
 3386SOL    MW413312   3.018   0.631   5.963  0.3433  0.3913 -0.2872
 3387SOL     OW13313   0.174   2.910   0.795  0.1021 -0.8698  0.1953
 3387SOL    HW213314   0.240   2.956   0.846  0.6082 -1.6270  0.2253
 3387SOL    HW313315   0.099   2.902   0.854  1.7036 -4.5069  2.0480
 3387SOL    MW413316   0.172   2.915   0.809  0.3461  0.3377  0.0414
 3388SOL     OW13317   3.180   5.591   6.388 -0.0664 -0.5000 -0.5861
 3388SOL    HW213318   3.150   5.671   6.345 -0.3902 -0.8101 -0.9453
 3388SOL    HW313319   3.233   5.547   6.321 -1.5389 -1.5648 -1.1076
 3388SOL    MW413320   3.183   5.596   6.373  0.0289 -0.1195  0.5052
 3389SOL     OW13321   2.638   0.714   3.009 -0.0433  0.3692 -0.4332
 3389SOL    HW213322   2.630   0.770   2.932  1.3476  1.8421  0.4407
 3389SOL    HW313323   2.731   0.693   3.014 -0.5885 -2.6206 -1.0745
 3389SOL    MW413324   2.649   0.719   3.000  0.4664 -0.5866 -0.4559
 3390SOL     OW13325   2.119   2.771   0.471 -0.5837 -0.0545  0.1651
 3390SOL    HW213326   2.085   2.759   0.560  1.9403  1.6706  1.4885
 3390SOL    HW313327   2.184   2.702   0.460 -1.1225 -0.4639 -0.4762
 3390SOL    MW413328   2.123   2.761   0.481 -0.3657 -0.2584 -0.3615
 3391SOL     OW13329   3.642   0.378   1.076 -0.0646  0.5186  0.3038
 3391SOL    HW213330   3.695   0.330   1.140 -0.9088 -1.7594 -0.6180
 3391SOL    HW313331   3.560   0.398   1.122 -0.1088  0.1625  0.3790
 3391SOL    MW413332   3.638   0.374   1.091 -0.6049  0.1329 -0.5403
 3392SOL     OW13333   2.682   2.356   3.209 -0.3806 -0.5340 -0.3882
 3392SOL    HW213334   2.710   2.446   3.229  0.0231 -0.1353 -2.4634
 3392SOL    HW313335   2.761   2.304   3.217 -0.4201 -0.5520 -0.0881
 3392SOL    MW413336   2.696   2.361   3.213 -0.3213  0.4560 -0.6355
 3393SOL     OW13337   3.813   0.798   3.788 -0.0228 -0.5295 -0.1816
 3393SOL    HW213338   3.785   0.817   3.878 -0.9538 -1.4197 -0.2652
 3393SOL    HW313339   3.893   0.747   3.797  0.6703  0.5660  0.0982
 3393SOL    MW413340   3.820   0.794   3.801  0.6829 -0.4736  0.8557
 3394SOL     OW13341   1.014   3.997   5.182 -0.4341 -0.2173  0.4766
 3394SOL    HW213342   0.984   3.927   5.241 -1.5271 -0.6335 -0.5444
 3394SOL    HW313343   0.936   4.022   5.132  0.5791 -0.2800 -1.2056
 3394SOL    MW413344   1.000   3.991   5.183  0.2295 -0.0523  0.1339
 3395SOL     OW13345   3.731   4.808   4.307  0.0315  0.0383 -0.2716
 3395SOL    HW213346   3.815   4.810   4.353  1.2656  0.6218 -2.4277
 3395SOL    HW313347   3.685   4.885   4.340 -0.5301 -1.3024  2.3332
 3395SOL    MW413348   3.736   4.819   4.318 -0.0274 -0.0812 -0.6115
 3396SOL     OW13349   0.976   0.622   2.224  0.2672 -0.3069 -0.7168
 3396SOL    HW213350   0.993   0.706   2.183 -1.2177  0.3067 -0.1594
 3396SOL    HW313351   1.005   0.633   2.314  2.4363 -1.2663 -1.2464
 3396SOL    MW413352   0.982   0.634   2.230  0.8885  0.0723 -0.2668
 3397SOL     OW13353   4.678   4.918   1.491  0.3190  0.2779 -0.2258
 3397SOL    HW213354   4.668   4.982   1.420 -0.6901  0.0470 -0.2995
 3397SOL    HW313355   4.742   4.959   1.550  1.4842  0.2899 -1.4564
 3397SOL    MW413356   4.685   4.932   1.490 -0.0477 -0.0468 -0.1395
 3398SOL     OW13357   1.017   2.689   5.255  0.1433  0.3285  0.3378
 3398SOL    HW213358   0.992   2.779   5.230  1.6322  0.4491 -0.9023
 3398SOL    HW313359   1.110   2.684   5.233  0.0376 -1.5821  0.2300
 3398SOL    MW413360   1.026   2.700   5.248  0.2217 -0.1186  0.4804
 3399SOL     OW13361   4.671   3.278   2.959  0.3856 -0.6025  0.2983
 3399SOL    HW213362   4.613   3.353   2.971  0.1178 -0.6733 -0.4863
 3399SOL    HW313363   4.631   3.208   3.011 -0.7904 -0.9369 -1.0000
 3399SOL    MW413364   4.658   3.278   2.967  0.2132  0.0285  0.1993
 3400SOL     OW13365   2.176   5.253   1.378  0.0368  0.0144  0.3076
 3400SOL    HW213366   2.081   5.253   1.388 -0.2246  0.0534 -1.7551
 3400SOL    HW313367   2.196   5.173   1.331  0.9729  0.2590  0.2628
 3400SOL    MW413368   2.166   5.243   1.373  0.1422  0.0186  0.1162
 3401SOL     OW13369   5.713   6.411   5.242 -0.3959 -0.0297 -0.2071
 3401SOL    HW213370   5.742   6.412   5.151 -0.7696 -0.9839 -0.3476
 3401SOL    HW313371   5.712   6.503   5.268  1.5352  0.1266 -0.5816
 3401SOL    MW413372   5.717   6.423   5.233 -0.1437  0.2169 -0.8631
 3402SOL     OW13373   2.738   4.861   1.844 -0.2434  0.2757 -0.0401
 3402SOL    HW213374   2.771   4.852   1.754 -1.5211 -1.0698 -0.4114
 3402SOL    HW313375   2.775   4.787   1.891 -0.4556  0.3651  0.2708
 3402SOL    MW413376   2.747   4.850   1.838  0.3689 -0.4068 -0.4576
 3403SOL     OW13377   5.006   4.298   1.083  0.7530 -0.4584  0.0251
 3403SOL    HW213378   4.914   4.321   1.095  1.2122  1.3006  0.5084
 3403SOL    HW313379   5.007   4.203   1.087 -0.8931 -0.4869  1.2594
 3403SOL    MW413380   4.994   4.289   1.085 -0.5685  0.0780 -0.0715
 3404SOL     OW13381   2.538   1.522   5.696 -0.3782 -0.4993  0.1562
 3404SOL    HW213382   2.583   1.589   5.646  0.6196 -0.8731  0.5240
 3404SOL    HW313383   2.529   1.559   5.784 -1.6185 -0.0675 -0.1363
 3404SOL    MW413384   2.543   1.535   5.701  0.6739 -0.8984 -0.7180
 3405SOL     OW13385   4.170   1.737   2.628 -0.2246 -0.1843 -0.1220
 3405SOL    HW213386   4.122   1.794   2.569 -0.6725  0.8931  1.2412
 3405SOL    HW313387   4.248   1.787   2.654 -0.7579 -0.0353  1.2982
 3405SOL    MW413388   4.174   1.751   2.624 -0.4541  0.9279  0.1887
 3406SOL     OW13389   3.269   1.038   4.992  0.1241 -0.0007  0.1148
 3406SOL    HW213390   3.190   1.052   5.043  1.1783  1.6430  1.4253
 3406SOL    HW313391   3.335   1.014   5.057  1.3083  1.3347 -0.5184
 3406SOL    MW413392   3.268   1.037   5.008 -0.3134  0.5349  0.1982
 3407SOL     OW13393   1.631   1.177   1.776 -0.0855 -0.5964  0.4582
 3407SOL    HW213394   1.608   1.252   1.721  0.1203 -0.7992  0.0896
 3407SOL    HW313395   1.687   1.215   1.845 -1.2391 -0.1596  1.1778
 3407SOL    MW413396   1.636   1.192   1.778  0.3839 -0.0458  0.4994
 3408SOL     OW13397   1.821   0.906   3.153 -0.5146  0.7070  0.2228
 3408SOL    HW213398   1.910   0.897   3.185 -0.2356  1.5574 -0.2803
 3408SOL    HW313399   1.789   0.816   3.144  0.4555  0.3817 -0.0643
 3408SOL    MW413400   1.828   0.893   3.156 -0.4041  0.6814  0.0659
 3409SOL     OW13401   0.254   3.357   5.613  0.0075 -0.1773 -0.4851
 3409SOL    HW213402   0.235   3.443   5.651 -1.1680 -0.6622  0.0792
 3409SOL    HW313403   0.169   3.314   5.608  0.5962 -1.3563 -0.6596
 3409SOL    MW413404   0.240   3.363   5.617 -0.2387  0.4037 -0.2448
 3410SOL     OW13405   6.232   2.891   0.656 -0.2841 -0.1088 -0.5527
 3410SOL    HW213406   6.212   2.959   0.720  1.1915  0.2867 -0.4705
 3410SOL    HW313407   6.184   2.916   0.578  0.7099  1.3841 -0.7171
 3410SOL    MW413408   6.223   2.903   0.654 -0.7677  0.1278 -0.2010
 3411SOL     OW13409   4.465   6.125   5.535  0.7340 -0.5360  0.0705
 3411SOL    HW213410   4.550   6.123   5.491 -0.3259 -0.1770 -2.0748
 3411SOL    HW313411   4.422   6.044   5.509 -0.4449  0.3124 -0.6903
 3411SOL    MW413412   4.471   6.114   5.526  0.0941  0.0357  0.0656
 3412SOL     OW13413   5.990   2.434   1.192  0.0735 -0.4006  0.0456
 3412SOL    HW213414   6.050   2.485   1.136 -2.2121 -0.0768 -2.3133
 3412SOL    HW313415   5.914   2.491   1.203 -0.4088 -1.3295  1.7863
 3412SOL    MW413416   5.988   2.448   1.186  0.4860 -0.6247  0.5962
 3413SOL     OW13417   3.585   2.456   5.347  0.4152  0.1155  0.0095
 3413SOL    HW213418   3.588   2.367   5.312  1.0708 -0.7823  2.1654
 3413SOL    HW313419   3.671   2.493   5.327  1.2062 -0.7924  1.5044
 3413SOL    MW413420   3.596   2.449   5.340 -0.1785 -0.1739  0.6365
 3414SOL     OW13421   1.013   4.125   5.787 -0.0076 -0.5965  0.1638
 3414SOL    HW213422   1.005   4.202   5.730 -1.4186  1.1753  2.5201
 3414SOL    HW313423   1.092   4.142   5.839  0.1816 -1.1925  0.0730
 3414SOL    MW413424   1.023   4.138   5.787  0.5856  0.0022 -0.2773
 3415SOL     OW13425   3.281   3.910   2.430  0.5011  0.1043  0.2877
 3415SOL    HW213426   3.274   3.922   2.525  0.6967 -0.9530  0.4443
 3415SOL    HW313427   3.207   3.853   2.408  1.1985 -0.6928 -0.0013
 3415SOL    MW413428   3.270   3.904   2.440  0.4869  0.0203 -0.5437
 3416SOL     OW13429   5.692   0.457   4.401 -0.3981 -0.3676  0.4959
 3416SOL    HW213430   5.655   0.376   4.435 -0.8998  0.1789  1.2868
 3416SOL    HW313431   5.661   0.525   4.461  0.8956  0.2747  0.4735
 3416SOL    MW413432   5.683   0.456   4.413 -0.1614  0.3413  0.5912
 3417SOL     OW13433   6.403   5.750   5.011 -0.2027 -0.2867  0.4219
 3417SOL    HW213434   6.472   5.685   5.027  1.2478  1.3283  1.0409
 3417SOL    HW313435   6.380   5.738   4.919 -1.1898 -2.7509  0.9064
 3417SOL    MW413436   6.409   5.740   5.001 -0.3453 -0.3604  0.0906
 3418SOL     OW13437   0.565   2.828   3.993 -0.5225  0.2775  0.4880
 3418SOL    HW213438   0.526   2.900   3.943  1.3526  1.6397  0.8713
 3418SOL    HW313439   0.511   2.823   4.073 -1.9971 -0.2526 -0.4987
 3418SOL    MW413440   0.553   2.837   3.997  0.0924  0.3896  0.2850
 3419SOL     OW13441   3.301   0.443   1.795  0.4509 -0.0032 -0.5585
 3419SOL    HW213442   3.286   0.538   1.794  0.7933  0.0663  0.3529
 3419SOL    HW313443   3.282   0.416   1.885 -0.3833 -0.9348 -0.9956
 3419SOL    MW413444   3.297   0.452   1.807 -0.0297 -0.4941 -0.2477
 3420SOL     OW13445   3.335   2.441   6.071 -0.3509  0.7788  0.5144
 3420SOL    HW213446   3.272   2.510   6.092  0.1200  1.1114  0.8333
 3420SOL    HW313447   3.401   2.446   6.140 -0.5948 -0.3451  0.8598
 3420SOL    MW413448   3.335   2.451   6.083  0.3408 -0.5833 -0.0489
 3421SOL     OW13449   1.377   5.558   5.225 -0.9390 -0.1641 -0.4142
 3421SOL    HW213450   1.447   5.623   5.230 -1.7944  0.6991  1.6930
 3421SOL    HW313451   1.418   5.480   5.188  1.1448  0.3260  0.7099
 3421SOL    MW413452   1.391   5.556   5.221  0.7071  0.7595 -0.5720
 3422SOL     OW13453   5.882   6.280   3.167 -0.2490  0.4308  0.2054
 3422SOL    HW213454   5.895   6.284   3.262 -2.0258 -0.5472  0.5421
 3422SOL    HW313455   5.811   6.343   3.151  0.2700  0.8411 -0.5485
 3422SOL    MW413456   5.874   6.289   3.178  0.6712  0.2431  0.4622
 3423SOL     OW13457   1.633   1.591   1.687 -0.1097  0.5874 -0.3689
 3423SOL    HW213458   1.615   1.659   1.621  1.1698  0.8964 -0.4250
 3423SOL    HW313459   1.587   1.514   1.654  0.9073  0.5909 -1.9058
 3423SOL    MW413460   1.624   1.590   1.674 -0.3572 -0.1911 -0.5327
 3424SOL     OW13461   2.134   3.323   4.008  0.2003 -0.0772 -0.3771
 3424SOL    HW213462   2.172   3.241   4.040  0.0703 -0.4627 -1.1831
 3424SOL    HW313463   2.111   3.305   3.916 -1.9819  0.1073  0.0775
 3424SOL    MW413464   2.136   3.310   4.000 -0.2937 -0.1010 -0.5889
 3425SOL     OW13465   2.268   2.151   3.478 -0.0096  0.3644  0.2745
 3425SOL    HW213466   2.275   2.133   3.384  2.9665  2.2895 -0.0131
 3425SOL    HW313467   2.329   2.088   3.518 -1.6811 -0.8324  1.0561
 3425SOL    MW413468   2.277   2.140   3.471 -0.5128  0.2010  0.1291
 3426SOL     OW13469   4.654   2.010   4.814  0.1136 -0.4493 -0.3820
 3426SOL    HW213470   4.572   1.978   4.776 -1.3238 -1.1566  3.0016
 3426SOL    HW313471   4.637   2.019   4.907  4.0499 -1.0554  0.6049
 3426SOL    MW413472   4.641   2.007   4.821 -0.2461 -0.9112 -0.2064
 3427SOL     OW13473   3.736   5.668   5.144 -0.0311  0.0421  0.2231
 3427SOL    HW213474   3.698   5.708   5.065 -1.3893  1.5145  1.5475
 3427SOL    HW313475   3.811   5.723   5.166  0.4132 -0.4320 -0.0745
 3427SOL    MW413476   3.741   5.680   5.136  0.0251  0.2537  0.1839
 3428SOL     OW13477   4.569   5.625   5.343  0.2515  0.2381  0.1756
 3428SOL    HW213478   4.533   5.552   5.394 -0.6545 -0.9199 -2.0191
 3428SOL    HW313479   4.494   5.683   5.328  0.5748  0.7156  0.3724
 3428SOL    MW413480   4.555   5.623   5.348  0.0369 -0.0380 -0.2910
 3429SOL     OW13481   2.993   2.156   1.083  0.4759  0.3017 -0.1520
 3429SOL    HW213482   2.993   2.079   1.140 -1.0378 -0.0631 -0.6171
 3429SOL    HW313483   3.085   2.165   1.056  0.7986 -0.9041  0.4727
 3429SOL    MW413484   3.005   2.147   1.087 -0.5146 -0.2024  0.6130
 3430SOL     OW13485   3.923   2.004   4.277 -0.0553  0.1944 -0.0592
 3430SOL    HW213486   3.916   1.925   4.224  1.6646 -0.5287  0.7287
 3430SOL    HW313487   4.016   2.027   4.274 -0.4608  1.9523  0.0817
 3430SOL    MW413488   3.934   1.997   4.270  0.3132  0.2636  0.3795
 3431SOL     OW13489   6.355   2.965   6.227 -0.0696 -0.3261  0.2141
 3431SOL    HW213490   6.354   3.060   6.216  0.3532 -0.3488 -0.0403
 3431SOL    HW313491   6.446   2.944   6.250 -0.0212 -0.7296 -0.3171
 3431SOL    MW413492   6.367   2.974   6.228 -0.1042 -0.2142 -0.2287
 3432SOL     OW13493   5.695   1.402   4.096 -0.6212  0.4032  0.0270
 3432SOL    HW213494   5.715   1.353   4.016 -0.0782  0.1986  0.2885
 3432SOL    HW313495   5.613   1.447   4.076 -1.5259 -1.1865  0.0428
 3432SOL    MW413496   5.687   1.402   4.082  0.2038 -0.6780 -0.3401
 3433SOL     OW13497   2.794   2.117   6.039 -0.4889  0.1477 -0.1568
 3433SOL    HW213498   2.879   2.161   6.043 -0.6959  0.5849 -0.5355
 3433SOL    HW313499   2.804   2.040   6.096  0.5338 -0.4458 -1.1028
 3433SOL    MW413500   2.807   2.113   6.047 -0.0674  0.1936 -0.0040
 3434SOL     OW13501   4.116   0.681   1.683  0.0407  0.0290  0.0436
 3434SOL    HW213502   4.129   0.773   1.706  0.5405  0.2902 -1.2310
 3434SOL    HW313503   4.030   0.678   1.642  0.0964 -0.0546 -0.0664
 3434SOL    MW413504   4.106   0.692   1.681 -0.2340  0.2815  0.3136
 3435SOL     OW13505   2.643   4.148   6.074  0.4231 -0.2651 -0.5728
 3435SOL    HW213506   2.580   4.112   6.137  1.2265  0.7107  0.8198
 3435SOL    HW313507   2.614   4.112   5.989  0.1252 -2.7355  0.4736
 3435SOL    MW413508   2.631   4.138   6.071 -0.5456 -0.0574 -0.3608
 3436SOL     OW13509   3.815   4.421   0.097  0.4416 -0.1439 -0.2856
 3436SOL    HW213510   3.786   4.346   0.149 -0.3347  1.5846  1.9557
 3436SOL    HW313511   3.907   4.432   0.120  0.9734 -1.2001 -1.7328
 3436SOL    MW413512   3.824   4.413   0.107 -0.1134 -0.1932  0.1205
 3437SOL     OW13513   4.806   3.452   0.482 -0.0084 -0.5628 -0.4070
 3437SOL    HW213514   4.817   3.371   0.531  0.0431 -1.8610 -2.4222
 3437SOL    HW313515   4.887   3.501   0.496  0.5558 -1.5179 -0.2870
 3437SOL    MW413516   4.818   3.448   0.490 -0.1107 -0.3379 -0.4214
 3438SOL     OW13517   6.148   4.541   4.546  0.2342  0.3779 -0.8738
 3438SOL    HW213518   6.147   4.476   4.475  0.3320  2.1920 -2.6371
 3438SOL    HW313519   6.067   4.590   4.533 -1.1305 -0.8658  1.9847
 3438SOL    MW413520   6.137   4.539   4.535 -0.2359 -0.2586 -0.2029
 3439SOL     OW13521   4.134   0.515   5.770 -0.6258  0.3886  0.9047
 3439SOL    HW213522   4.141   0.587   5.708  0.6175 -0.7683 -0.3591
 3439SOL    HW313523   4.185   0.543   5.846  0.6956  0.4495  0.0182
 3439SOL    MW413524   4.141   0.528   5.772  0.1977  0.0194 -0.5971
 3440SOL     OW13525   3.048   6.110   4.949  0.2720 -0.6637  0.0621
 3440SOL    HW213526   3.097   6.029   4.935  1.3138  0.0158 -0.3416
 3440SOL    HW313527   3.065   6.134   5.040 -0.3027 -1.0609  0.2790
 3440SOL    MW413528   3.057   6.102   4.959  0.5160  0.1960  0.0613
 3441SOL     OW13529   4.875   3.999   2.924  0.0959 -0.9705 -0.1324
 3441SOL    HW213530   4.892   3.921   2.976  1.5044  0.1598  1.2094
 3441SOL    HW313531   4.875   3.968   2.833 -0.0803 -2.6173  0.3939
 3441SOL    MW413532   4.877   3.985   2.919 -0.5105 -0.1993 -0.3574
 3442SOL     OW13533   5.762   3.377   2.163 -0.5580 -0.0894 -0.3372
 3442SOL    HW213534   5.775   3.289   2.130 -2.7329 -0.5281 -0.1447
 3442SOL    HW313535   5.694   3.368   2.230 -0.5282  1.6672 -0.0179
 3442SOL    MW413536   5.755   3.364   2.168 -0.2650  0.0250  0.1055
 3443SOL     OW13537   5.523   1.156   3.061 -0.0371 -0.2987 -0.0655
 3443SOL    HW213538   5.450   1.117   3.110 -1.3978  0.3849 -1.4674
 3443SOL    HW313539   5.510   1.126   2.971 -0.8947  2.8803 -1.1316
 3443SOL    MW413540   5.511   1.146   3.056  0.0902  0.2011 -0.2128
 3444SOL     OW13541   2.895   2.763   2.104 -0.4572  0.4626 -0.6131
 3444SOL    HW213542   2.825   2.721   2.055 -0.4677 -0.8218  0.4440
 3444SOL    HW313543   2.851   2.822   2.164 -0.4851  1.4119 -1.5349
 3444SOL    MW413544   2.880   2.765   2.105  0.1456  0.7507 -0.4809
 3445SOL     OW13545   4.000   4.284   3.078  0.5082 -0.2477  0.9419
 3445SOL    HW213546   3.987   4.377   3.061  0.6269 -0.2480  0.8469
 3445SOL    HW313547   4.044   4.281   3.162  0.3613 -0.2248  1.0198
 3445SOL    MW413548   4.004   4.296   3.087 -0.2786  0.5434  0.4766
 3446SOL     OW13549   5.899   4.094   2.871  0.1926  0.1485  0.1023
 3446SOL    HW213550   5.807   4.082   2.894 -0.1151 -0.9164 -1.4926
 3446SOL    HW313551   5.947   4.061   2.947 -0.7242  0.7103  0.9501
 3446SOL    MW413552   5.893   4.088   2.884  0.5868 -0.0001  0.1059
 3447SOL     OW13553   4.349   0.078   3.882 -0.3522 -0.4332  0.0415
 3447SOL    HW213554   4.283   0.032   3.932  0.6369 -0.8829  0.9609
 3447SOL    HW313555   4.318   0.169   3.879 -0.4999 -0.4341  1.3291
 3447SOL    MW413556   4.336   0.084   3.888  0.8691  0.1859  0.1210
 3448SOL     OW13557   5.135   4.936   1.059  0.2879  0.1826 -0.0407
 3448SOL    HW213558   5.129   4.960   1.151  0.2847 -0.3773  0.1091
 3448SOL    HW313559   5.053   4.891   1.040  0.0941  0.7041 -0.4407
 3448SOL    MW413560   5.124   4.933   1.069  0.6714  0.2170 -0.4923
 3449SOL     OW13561   2.663   3.742   4.325  0.1067 -0.3936 -0.4470
 3449SOL    HW213562   2.606   3.783   4.260 -0.9110 -2.1741 -0.7516
 3449SOL    HW313563   2.739   3.799   4.331 -1.0198  1.2340 -1.1837
 3449SOL    MW413564   2.665   3.755   4.317 -0.2344  0.2701 -0.0827
 3450SOL     OW13565   3.706   0.983   4.580 -0.0128 -0.2074  0.2166
 3450SOL    HW213566   3.787   0.933   4.572 -0.7415 -1.3214 -0.4482
 3450SOL    HW313567   3.705   1.014   4.671  0.6953 -0.9753  0.4908
 3450SOL    MW413568   3.716   0.981   4.591 -0.9483 -0.4651  0.8268
 3451SOL     OW13569   5.246   3.445   1.137 -0.3789  0.1851  0.1743
 3451SOL    HW213570   5.240   3.539   1.122 -0.3785  0.2762  0.7238
 3451SOL    HW313571   5.312   3.415   1.074 -1.3523  0.3287 -0.9442
 3451SOL    MW413572   5.254   3.453   1.127  0.0790 -0.1439  0.0565
 3452SOL     OW13573   4.044   1.172   1.390  0.0976 -0.0279 -0.2389
 3452SOL    HW213574   4.126   1.167   1.439 -1.0836  0.3310  1.9017
 3452SOL    HW313575   3.991   1.101   1.427 -0.3895 -0.6320 -2.0014
 3452SOL    MW413576   4.048   1.162   1.402  0.3831 -0.4039  0.2268
 3453SOL     OW13577   2.159   4.652   1.704 -0.0254 -0.0727 -0.1399
 3453SOL    HW213578   2.217   4.723   1.674 -2.9658  1.8836 -1.6640
 3453SOL    HW313579   2.125   4.683   1.788  0.9291 -1.1445  0.6707
 3453SOL    MW413580   2.162   4.666   1.711 -0.0553 -0.2485  0.2052
 3454SOL     OW13581   3.548   0.434   1.551  0.1324  0.5317 -0.3474
 3454SOL    HW213582   3.470   0.403   1.597 -0.3127 -0.5914 -1.7951
 3454SOL    HW313583   3.565   0.521   1.587  0.0209 -0.4193  2.1686
 3454SOL    MW413584   3.540   0.442   1.562  0.0118  0.0288  0.4362
 3455SOL     OW13585   2.215   1.649   0.754  0.3320  0.0720 -0.4600
 3455SOL    HW213586   2.273   1.575   0.735  1.5804  1.1631 -0.9784
 3455SOL    HW313587   2.271   1.713   0.797 -0.9374  0.3932  0.7855
 3455SOL    MW413588   2.230   1.648   0.757  1.0125  0.4779  0.5635
 3456SOL     OW13589   5.526   0.874   0.950  0.2631  0.9906 -0.3947
 3456SOL    HW213590   5.600   0.887   0.891 -0.0198  2.8689 -0.4068
 3456SOL    HW313591   5.532   0.947   1.012 -0.4488  0.0511  0.8440
 3456SOL    MW413592   5.537   0.886   0.951  0.4266  0.1459  0.5966
 3457SOL     OW13593   3.689   0.413   4.689  0.3307 -0.0819 -0.0927
 3457SOL    HW213594   3.773   0.367   4.681 -0.6146 -1.5309 -3.1318
 3457SOL    HW313595   3.712   0.497   4.729  3.0952 -0.7193 -0.1081
 3457SOL    MW413596   3.703   0.418   4.693  0.6411  0.5469 -0.0532
 3458SOL     OW13597   5.199   2.867   4.378 -0.1507  0.4383 -0.1139
 3458SOL    HW213598   5.181   2.775   4.356  1.6000  0.4344 -1.6732
 3458SOL    HW313599   5.263   2.862   4.449 -0.0738  0.4654 -0.1823
 3458SOL    MW413600   5.205   2.854   4.385  0.4154  0.0859 -0.4367
 3459SOL     OW13601   0.977   0.766   3.771 -0.2454 -0.1127  0.3852
 3459SOL    HW213602   0.930   0.766   3.854 -2.1400 -0.2470 -0.6357
 3459SOL    HW313603   0.984   0.859   3.748 -0.7766 -0.1282  0.1436
 3459SOL    MW413604   0.972   0.778   3.779  0.0734 -0.2946  0.0214
 3460SOL     OW13605   0.208   4.009   4.228 -0.3401  0.0883  0.7687
 3460SOL    HW213606   0.258   3.948   4.174 -1.6658 -0.0778 -0.3190
 3460SOL    HW313607   0.130   3.959   4.254 -1.2566  1.1863  0.1864
 3460SOL    MW413608   0.204   3.994   4.224  0.1162 -0.3543  0.3313
 3461SOL     OW13609   0.054   5.139   2.856 -0.3068 -0.4805  0.6552
 3461SOL    HW213610  -0.009   5.112   2.923 -1.5975  0.6184 -0.0761
 3461SOL    HW313611   0.020   5.221   2.822  1.9443  0.5692  0.7561
 3461SOL    MW413612   0.041   5.146   2.860 -0.3602 -0.1737  0.4873
 3462SOL     OW13613   2.514   0.227   5.794 -0.1739  0.9316 -0.4942
 3462SOL    HW213614   2.498   0.312   5.835 -1.1444  1.5851 -2.1412
 3462SOL    HW313615   2.606   0.209   5.812 -0.5640  1.1240  2.0095
 3462SOL    MW413616   2.524   0.236   5.802 -0.0609  0.2203 -0.3183
 3463SOL     OW13617   6.213   1.617   6.210  0.0668 -0.1420 -0.3893
 3463SOL    HW213618   6.130   1.575   6.234 -1.2253  1.0244 -2.4958
 3463SOL    HW313619   6.278   1.573   6.264 -1.9925 -0.6320  1.8792
 3463SOL    MW413620   6.210   1.606   6.220 -0.1152 -0.0605 -0.2686
 3464SOL     OW13621   4.348   0.424   0.426  0.6685  0.2217 -0.1899
 3464SOL    HW213622   4.380   0.497   0.373 -0.4489  1.5185  0.8369
 3464SOL    HW313623   4.381   0.442   0.514 -0.4177  0.0417  0.2739
 3464SOL    MW413624   4.356   0.436   0.430  0.4511 -1.1233  0.0980
 3465SOL     OW13625   2.681   4.847   4.674 -0.2606  0.4730 -0.1835
 3465SOL    HW213626   2.609   4.786   4.657 -0.9801  1.1263  0.4389
 3465SOL    HW313627   2.666   4.919   4.613 -0.3916  0.8114  0.2444
 3465SOL    MW413628   2.669   4.848   4.664 -0.4520 -0.6333  0.3740
 3466SOL     OW13629   4.182   1.102   0.526  0.7373 -0.1970 -0.1202
 3466SOL    HW213630   4.157   1.193   0.513  1.1958 -0.2956 -1.9187
 3466SOL    HW313631   4.275   1.105   0.551  0.5385 -0.1538  0.6585
 3466SOL    MW413632   4.191   1.114   0.528  0.1055 -0.8432  0.0789
 3467SOL     OW13633   2.002   5.207   3.167 -0.5087 -0.7506  0.1339
 3467SOL    HW213634   2.096   5.205   3.185 -0.7378 -0.1534  1.5482
 3467SOL    HW313635   1.994   5.185   3.075  1.0698 -0.1816 -0.1537
 3467SOL    MW413636   2.013   5.204   3.158  0.5930  0.4162 -0.2728
 3468SOL     OW13637   0.332   1.229   3.499  0.3425 -0.4158 -0.4468
 3468SOL    HW213638   0.278   1.176   3.557  1.6460  0.9630  2.2495
 3468SOL    HW313639   0.294   1.217   3.412 -2.5124 -1.6740  0.8483
 3468SOL    MW413640   0.320   1.221   3.495 -0.6606 -0.0548 -0.0501
 3469SOL     OW13641   0.754   0.764   0.817 -0.1412 -0.1681  0.1291
 3469SOL    HW213642   0.666   0.759   0.781  0.2719  0.3836 -1.0379
 3469SOL    HW313643   0.767   0.682   0.864 -0.8612 -0.7632 -0.6878
 3469SOL    MW413644   0.744   0.753   0.819 -0.0046  0.1476  0.2554
 3470SOL     OW13645   0.567   0.978   0.465  0.0764  0.2475  0.3317
 3470SOL    HW213646   0.564   0.884   0.447  0.4041  0.6055 -1.8583
 3470SOL    HW313647   0.479   0.998   0.499 -0.0207 -0.8316  0.7500
 3470SOL    MW413648   0.555   0.968   0.467 -0.3401  0.5689  0.0613
 3471SOL     OW13649   2.823   4.752   2.718 -0.2085  1.0210 -0.4314
 3471SOL    HW213650   2.747   4.781   2.667 -0.4219  1.5110  0.1619
 3471SOL    HW313651   2.894   4.811   2.691  0.1967  0.0646 -1.5829
 3471SOL    MW413652   2.823   4.764   2.708 -0.8691  0.5927 -0.3585
 3472SOL     OW13653   0.634   4.723   6.011 -0.0835  0.1002 -0.2922
 3472SOL    HW213654   0.713   4.749   6.058 -0.7438  0.6803  0.5088
 3472SOL    HW313655   0.567   4.786   6.037 -0.8362 -0.4108 -0.9135
 3472SOL    MW413656   0.635   4.735   6.021  0.1809 -0.1971  0.1410
 3473SOL     OW13657   1.074   4.262   3.840 -0.0753 -0.1612  0.0262
 3473SOL    HW213658   1.046   4.265   3.749  0.1235  1.6697 -0.0172
 3473SOL    HW313659   0.995   4.236   3.888 -0.5842  0.3211 -0.5322
 3473SOL    MW413660   1.060   4.259   3.835 -0.3381 -0.0536 -0.0991
 3474SOL     OW13661   5.440   0.985   3.685 -0.3445 -0.1175  0.2674
 3474SOL    HW213662   5.445   1.081   3.681 -0.5041 -0.1405 -0.8765
 3474SOL    HW313663   5.415   0.966   3.775 -0.9621  0.9531  0.3366
 3474SOL    MW413664   5.437   0.995   3.696 -0.4953  0.1586 -0.1023
 3475SOL     OW13665   6.296   2.824   4.097  0.3379  0.0078 -0.3692
 3475SOL    HW213666   6.387   2.847   4.118  0.8470 -1.8106 -0.3588
 3475SOL    HW313667   6.244   2.891   4.141  1.6615  1.0822 -0.3478
 3475SOL    MW413668   6.301   2.836   4.106 -0.0447  0.3372 -0.6035
 3476SOL     OW13669   0.399   0.487   1.945 -0.1570  0.4531  0.1441
 3476SOL    HW213670   0.484   0.530   1.954  0.7365 -1.2960  0.6202
 3476SOL    HW313671   0.413   0.399   1.982 -2.2782  0.2497  0.6008
 3476SOL    MW413672   0.412   0.481   1.951  0.1314  0.2626 -0.3892
 3477SOL     OW13673   3.184   1.933   4.858 -0.5698  0.2565  1.0570
 3477SOL    HW213674   3.253   1.878   4.821 -1.4070 -1.2497  1.6729
 3477SOL    HW313675   3.149   1.882   4.931 -1.2592  1.6949  1.7686
 3477SOL    MW413676   3.189   1.919   4.863  0.7353 -0.2219 -0.5892
 3478SOL     OW13677   2.331   6.027   6.361  0.0934 -0.4187 -0.7519
 3478SOL    HW213678   2.339   5.977   6.280 -0.9484  0.4143 -1.3874
 3478SOL    HW313679   2.241   6.011   6.390  0.4083 -0.5926  0.1760
 3478SOL    MW413680   2.320   6.018   6.355  0.2117  0.7306 -0.5785
 3479SOL     OW13681   2.796   3.383   0.513 -0.7581 -0.1564  0.5088
 3479SOL    HW213682   2.717   3.329   0.516 -1.2973  0.5391 -0.4271
 3479SOL    HW313683   2.763   3.473   0.517 -0.1060  0.1717 -0.8993
 3479SOL    MW413684   2.781   3.388   0.514  0.5903 -0.0245 -0.3868
 3480SOL     OW13685   3.389   3.262   4.387  0.2959  0.4223  0.1560
 3480SOL    HW213686   3.307   3.277   4.340  0.4471  0.7419 -0.0078
 3480SOL    HW313687   3.445   3.336   4.363  1.8399 -1.4051 -2.3465
 3480SOL    MW413688   3.385   3.274   4.378 -0.0730 -0.1737  0.0213
 3481SOL     OW13689   6.241   3.029   5.342 -0.5410 -0.0511  0.0873
 3481SOL    HW213690   6.288   2.947   5.329 -0.6362 -0.1279  0.2194
 3481SOL    HW313691   6.307   3.091   5.371 -0.4519 -0.0569 -0.1087
 3481SOL    MW413692   6.256   3.027   5.344  0.1251 -0.1601 -0.3955
 3482SOL     OW13693   2.190   3.712   5.656  0.2784 -0.0545  0.3452
 3482SOL    HW213694   2.267   3.768   5.644 -0.1051  0.2396 -0.9280
 3482SOL    HW313695   2.192   3.687   5.749  1.1678  1.0244  0.6358
 3482SOL    MW413696   2.200   3.716   5.667 -0.1259  0.0278  0.2461
 3483SOL     OW13697   4.924   2.449   1.270 -0.1109  0.0244 -0.1804
 3483SOL    HW213698   4.881   2.397   1.338 -1.1335  0.4252 -0.4860
 3483SOL    HW313699   4.915   2.396   1.190  0.4937 -0.1478 -0.1396
 3483SOL    MW413700   4.917   2.435   1.268  0.4844 -0.0303  0.1377
 3484SOL     OW13701   1.998   4.879   3.284  0.0286 -0.0618  0.2174
 3484SOL    HW213702   2.046   4.856   3.364  0.1911  0.4464  0.2693
 3484SOL    HW313703   2.065   4.913   3.225  0.0360 -1.1932 -0.4445
 3484SOL    MW413704   2.013   4.880   3.287 -0.2031 -0.1710  0.2641
 3485SOL     OW13705   3.713   6.409   4.565 -0.1040 -0.2679  0.3790
 3485SOL    HW213706   3.737   6.319   4.589  0.7936 -0.2449 -0.3598
 3485SOL    HW313707   3.621   6.416   4.587 -0.5691 -1.8533 -0.8339
 3485SOL    MW413708   3.704   6.398   4.571 -0.0539 -0.0946  0.0424
 3486SOL     OW13709   5.663   4.387   4.524 -0.1216 -0.2122 -0.4849
 3486SOL    HW213710   5.611   4.461   4.493 -0.0600 -0.2952 -0.7837
 3486SOL    HW313711   5.609   4.346   4.592 -0.1910  0.0552 -0.3792
 3486SOL    MW413712   5.649   4.391   4.529  0.2432 -0.2620  0.0484
 3487SOL     OW13713   3.310   4.501   0.916  0.8323 -0.2919  0.3114
 3487SOL    HW213714   3.329   4.419   0.961  2.4297 -0.7384 -1.0695
 3487SOL    HW313715   3.388   4.555   0.929  0.2214  0.6162  0.3277
 3487SOL    MW413716   3.323   4.498   0.923 -0.0027  0.6222  0.4007
 3488SOL     OW13717   5.896   5.594   4.451  0.2190 -0.4660 -0.4091
 3488SOL    HW213718   5.830   5.600   4.382  0.3369  0.0706 -0.4790
 3488SOL    HW313719   5.938   5.509   4.437 -0.2818 -0.7008 -0.5194
 3488SOL    MW413720   5.892   5.584   4.440 -0.2364 -0.1901  0.5734
 3489SOL     OW13721   4.116   0.576   0.340 -0.0365 -1.0600  0.9936
 3489SOL    HW213722   4.031   0.540   0.362 -0.3413 -0.8065  0.2626
 3489SOL    HW313723   4.179   0.511   0.371 -0.5475 -1.9375  0.2377
 3489SOL    MW413724   4.113   0.563   0.347  0.3286 -0.5773 -0.7974
 3490SOL     OW13725   5.539   5.033   1.944  0.0696  0.4804 -0.1189
 3490SOL    HW213726   5.587   5.019   1.862  1.6483  0.5159  0.7724
 3490SOL    HW313727   5.536   5.128   1.954  1.1549  0.4627  0.5609
 3490SOL    MW413728   5.545   5.044   1.934  0.2079  0.0882  0.1195
 3491SOL     OW13729   2.595   4.667   4.962  0.0754  0.3351  0.2228
 3491SOL    HW213730   2.540   4.744   4.946  0.7250  0.7406 -0.1198
 3491SOL    HW313731   2.606   4.665   5.057 -0.3229  0.3977  0.2706
 3491SOL    MW413732   2.589   4.677   4.972 -0.3571 -0.2372  0.1227
 3492SOL     OW13733   5.551   1.591   4.864  0.9725  0.4802  1.2053
 3492SOL    HW213734   5.463   1.619   4.836  1.3406  0.4275 -0.0663
 3492SOL    HW313735   5.606   1.607   4.787  1.9344 -0.1655  1.7522
 3492SOL    MW413736   5.546   1.596   4.850  0.6615 -0.8045 -0.3342
 3493SOL     OW13737   4.373   6.344   1.170  0.6191 -0.2440 -0.5796
 3493SOL    HW213738   4.415   6.274   1.120  1.8473  0.2090 -0.2115
 3493SOL    HW313739   4.434   6.418   1.165 -0.6353  0.8049 -0.9248
 3493SOL    MW413740   4.386   6.344   1.163 -0.1172  0.9067 -0.1525
 3494SOL     OW13741   5.041   6.133   4.253  0.6413  0.3553  0.4799
 3494SOL    HW213742   5.134   6.152   4.262  0.4177  1.8197  0.0204
 3494SOL    HW313743   4.999   6.219   4.251 -0.4299 -0.1190 -2.3239
 3494SOL    MW413744   5.048   6.147   4.254  0.3237 -0.2586  0.2575
 3495SOL     OW13745   2.977   5.530   1.213 -0.3215 -0.0388  0.7887
 3495SOL    HW213746   3.070   5.549   1.200  0.1741 -2.1447  0.7815
 3495SOL    HW313747   2.971   5.498   1.303 -0.2263 -3.6504 -0.3235
 3495SOL    MW413748   2.988   5.528   1.223 -0.6303  0.1950 -0.2528
 3496SOL     OW13749   2.952   1.894   0.427 -0.2232 -0.1516 -0.0339
 3496SOL    HW213750   2.887   1.912   0.359  0.3048 -2.5336 -1.2774
 3496SOL    HW313751   2.908   1.836   0.489  0.2050 -0.4562 -0.0056
 3496SOL    MW413752   2.938   1.889   0.426  0.0569 -0.0349  0.6901
 3497SOL     OW13753   0.609   2.368   2.630  0.3012  0.0332 -0.1481
 3497SOL    HW213754   0.598   2.463   2.641  0.4063  0.0329 -0.0351
 3497SOL    HW313755   0.529   2.339   2.587 -0.9146 -0.2262  2.1617
 3497SOL    MW413756   0.597   2.377   2.626  0.2011  0.6547 -0.3909
 3498SOL     OW13757   1.815   2.777   5.625  0.0038 -0.0868  0.7971
 3498SOL    HW213758   1.800   2.869   5.649 -3.6386 -0.6097  1.1822
 3498SOL    HW313759   1.833   2.733   5.708  0.5578  0.0736  0.7666
 3498SOL    MW413760   1.815   2.784   5.639  0.0737  0.2179 -0.1500
 3499SOL     OW13761   0.680   5.142   5.377 -0.5206  0.2351  0.5191
 3499SOL    HW213762   0.741   5.090   5.428  2.5271  2.6880 -0.3555
 3499SOL    HW313763   0.664   5.220   5.430 -1.6978  0.3526  0.0319
 3499SOL    MW413764   0.686   5.145   5.390  0.2611 -0.5650  0.3040
 3500SOL     OW13765   2.312   0.276   1.596  0.8199 -0.3540  0.5922
 3500SOL    HW213766   2.339   0.222   1.670  2.0968  0.5591  0.8229
 3500SOL    HW313767   2.241   0.227   1.555 -0.0466 -0.7938  2.5202
 3500SOL    MW413768   2.306   0.262   1.601 -0.8744  0.0531  0.4739
 3501SOL     OW13769   0.409   5.406   0.045 -0.6874 -0.3063  0.0991
 3501SOL    HW213770   0.345   5.359   0.098 -1.3813  0.2636 -0.2009
 3501SOL    HW313771   0.378   5.497   0.048 -0.9942 -0.3232 -1.6087
 3501SOL    MW413772   0.396   5.412   0.052  0.5362 -0.6555  0.5652
 3502SOL     OW13773   6.363   3.475   2.865  0.8735  1.0295  0.3157
 3502SOL    HW213774   6.402   3.562   2.861 -0.3750  1.5800 -0.4658
 3502SOL    HW313775   6.418   3.422   2.808  1.7365  1.2600  0.9188
 3502SOL    MW413776   6.375   3.480   2.856  0.3170  0.1084 -0.1361
 3503SOL     OW13777   5.663   6.323   3.560  0.4295 -0.5973  0.0741
 3503SOL    HW213778   5.683   6.233   3.588 -0.4564 -0.3613  1.5625
 3503SOL    HW313779   5.601   6.313   3.488  0.2420 -1.1855  0.3124
 3503SOL    MW413780   5.658   6.310   3.554 -0.6222 -0.1492 -0.7192
 3504SOL     OW13781   2.850   2.963   1.498  0.2898  0.0247  0.1777
 3504SOL    HW213782   2.927   2.914   1.468  1.2722  0.3095  2.0602
 3504SOL    HW313783   2.830   2.925   1.584 -1.0104  0.6925  0.1920
 3504SOL    MW413784   2.858   2.952   1.506 -0.2497 -0.6313  0.5809
 3505SOL     OW13785   2.606   4.106   4.087 -0.2939 -0.4666  0.1673
 3505SOL    HW213786   2.568   4.058   4.160 -0.0187 -0.6887  0.1674
 3505SOL    HW313787   2.621   4.194   4.121 -2.1957  0.0731 -0.2773
 3505SOL    MW413788   2.603   4.111   4.101 -0.8654  0.1158 -0.7496
 3506SOL     OW13789   0.885   2.217   3.033 -0.0784 -0.9303  0.1006
 3506SOL    HW213790   0.835   2.243   2.955  1.7511  1.2757 -0.4669
 3506SOL    HW313791   0.830   2.242   3.107 -1.7295 -2.8093 -0.4047
 3506SOL    MW413792   0.871   2.224   3.032 -0.0947 -0.7201  0.4577
 3507SOL     OW13793   6.339   4.794   6.323  0.1413 -0.3410 -0.2696
 3507SOL    HW213794   6.329   4.810   6.229 -0.0399 -0.6648 -0.3073
 3507SOL    HW313795   6.312   4.703   6.335 -0.7829 -0.0210  0.2435
 3507SOL    MW413796   6.334   4.784   6.312 -0.7944  0.1256 -0.3651
 3508SOL     OW13797   1.466   4.435   2.742  0.7601  0.8317 -0.5906
 3508SOL    HW213798   1.517   4.390   2.809 -0.2329 -0.5770 -0.7298
 3508SOL    HW313799   1.531   4.469   2.681  1.5901 -1.4244 -1.0911
 3508SOL    MW413800   1.482   4.433   2.743 -0.5995 -0.3517 -0.5735
 3509SOL     OW13801   4.163   4.335   0.804  0.6971  0.6515  0.4431
 3509SOL    HW213802   4.251   4.354   0.772  0.1188  0.9100 -1.0867
 3509SOL    HW313803   4.145   4.246   0.771 -0.1657  1.1836 -0.5829
 3509SOL    MW413804   4.172   4.326   0.795 -0.4684  0.4346  0.4265
 3510SOL     OW13805   5.192   1.595   6.227  0.2155 -0.4112 -0.1633
 3510SOL    HW213806   5.150   1.537   6.163  0.4927 -1.4567  0.5654
 3510SOL    HW313807   5.280   1.609   6.193 -0.0109 -0.0009 -0.5921
 3510SOL    MW413808   5.198   1.589   6.214 -0.3250 -0.1173  0.7094
 3511SOL     OW13809   3.148   2.848   3.277  0.5837  0.1134  0.4253
 3511SOL    HW213810   3.122   2.880   3.190  1.5059 -0.0053  0.0893
 3511SOL    HW313811   3.156   2.753   3.266  3.6194  0.3363 -0.2279
 3511SOL    MW413812   3.146   2.839   3.264  0.3562  0.6025 -0.2240
 3512SOL     OW13813   6.098   2.060   2.269 -0.1129  0.2695 -0.1063
 3512SOL    HW213814   6.118   1.970   2.244 -0.4514  0.2786 -0.4240
 3512SOL    HW313815   6.045   2.051   2.349 -0.0081  0.1966 -0.0437
 3512SOL    MW413816   6.094   2.047   2.277  0.3983 -0.3854  0.1602
 3513SOL     OW13817   5.521   2.150   1.463  0.6899 -0.0546 -0.3098
 3513SOL    HW213818   5.533   2.242   1.487 -0.5774 -0.0380  0.3589
 3513SOL    HW313819   5.607   2.111   1.474  0.8031  0.6014  1.5023
 3513SOL    MW413820   5.534   2.157   1.468  0.4687  0.0181  0.0003
 3514SOL     OW13821   2.368   0.847   2.854  0.1647  0.3146  0.4938
 3514SOL    HW213822   2.369   0.809   2.942 -0.9681  0.6514  0.6703
 3514SOL    HW313823   2.275   0.846   2.829  0.4374  0.5220 -0.5679
 3514SOL    MW413824   2.356   0.842   2.862  0.3184  0.3257 -0.0469
 3515SOL     OW13825   5.560   3.950   2.363 -0.0043 -0.2400 -0.3484
 3515SOL    HW213826   5.479   4.001   2.356 -0.5525 -1.0083  0.1200
 3515SOL    HW313827   5.620   4.007   2.410  0.0561  0.7059 -1.5277
 3515SOL    MW413828   5.557   3.964   2.368  0.1831  0.6066  0.0410
 3516SOL     OW13829   2.869   2.054   1.918  0.0694 -0.6638  0.1444
 3516SOL    HW213830   2.929   1.990   1.956  1.8231  0.3838 -0.7316
 3516SOL    HW313831   2.859   2.025   1.827 -0.6110 -0.7088  0.2282
 3516SOL    MW413832   2.875   2.041   1.911 -0.7577 -0.1654 -0.0896
 3517SOL     OW13833   1.637   3.497   1.960  0.0562 -0.1851 -0.3127
 3517SOL    HW213834   1.653   3.578   1.910 -0.7105  1.7888  2.4125
 3517SOL    HW313835   1.652   3.427   1.897 -0.2007  2.0835 -3.1199
 3517SOL    MW413836   1.641   3.499   1.945  0.6133  0.8222  0.1085
 3518SOL     OW13837   3.253   0.390   3.130 -0.3145  0.1832 -0.3431
 3518SOL    HW213838   3.312   0.338   3.186 -0.8081 -0.4776 -0.4297
 3518SOL    HW313839   3.189   0.426   3.191 -0.2756  0.2667 -0.3519
 3518SOL    MW413840   3.253   0.388   3.145 -0.2176 -0.8372  0.0251
 3519SOL     OW13841   4.812   2.128   2.293  0.2707  0.1942 -0.0015
 3519SOL    HW213842   4.734   2.139   2.238  1.0680  0.5670 -1.0933
 3519SOL    HW313843   4.867   2.066   2.246  0.5991 -0.1530  0.8148
 3519SOL    MW413844   4.809   2.122   2.280 -0.1567 -0.1210  0.3107
 3520SOL     OW13845   2.209   3.113   3.399 -0.4275 -0.0903 -0.3326
 3520SOL    HW213846   2.168   3.122   3.312 -2.2832  1.3199  0.6037
 3520SOL    HW313847   2.136   3.119   3.460  0.8862 -0.6723  1.3675
 3520SOL    MW413848   2.194   3.115   3.395  0.9249  0.1626 -0.1439
 3521SOL     OW13849   1.765   5.606   2.437 -0.7331  1.2439  0.8930
 3521SOL    HW213850   1.748   5.670   2.368  1.5148  0.1107 -0.8184
 3521SOL    HW313851   1.854   5.624   2.467  1.2170 -2.6321 -1.6822
 3521SOL    MW413852   1.774   5.617   2.432 -0.8466  0.4435 -0.1509
 3522SOL     OW13853   3.558   3.320   5.776 -0.4488 -0.2025  0.1629
 3522SOL    HW213854   3.539   3.338   5.868  0.0190  0.7496  0.0833
 3522SOL    HW313855   3.481   3.351   5.729 -1.1074 -1.5528  0.2818
 3522SOL    MW413856   3.546   3.326   5.782 -0.3435 -0.2899  0.0615
 3523SOL     OW13857   2.308   0.242   4.621 -0.8516  0.0036 -0.1780
 3523SOL    HW213858   2.261   0.196   4.691 -0.6167  0.7884  0.5088
 3523SOL    HW313859   2.377   0.181   4.595 -1.9602 -0.9820 -0.9061
 3523SOL    MW413860   2.311   0.228   4.627  0.2773 -0.1363 -0.8243
 3524SOL     OW13861   2.558   4.009   6.310 -0.1511  0.3506 -0.2217
 3524SOL    HW213862   2.548   4.002   6.405  2.5769  0.0605  0.1137
 3524SOL    HW313863   2.468   4.011   6.277 -1.1864  0.7654  2.3604
 3524SOL    MW413864   2.545   4.008   6.318  0.2381 -0.5972 -0.5864
 3525SOL     OW13865   0.140   4.649   1.808  0.3883 -0.0534 -0.1664
 3525SOL    HW213866   0.090   4.635   1.727 -0.1345  0.4305  0.0690
 3525SOL    HW313867   0.204   4.716   1.786 -1.1249  1.6667  0.3552
 3525SOL    MW413868   0.141   4.656   1.794 -0.3209 -0.4156  0.2572
 3526SOL     OW13869   2.683   2.654   6.319  0.7451 -0.1105 -0.5609
 3526SOL    HW213870   2.636   2.647   6.402 -0.7731 -0.8518 -1.4357
 3526SOL    HW313871   2.623   2.700   6.261  0.5991 -2.0074 -2.0339
 3526SOL    MW413872   2.669   2.659   6.322  0.0970 -0.0939  0.0207
 3527SOL     OW13873   6.130   3.795   0.068  0.2016 -0.4602 -0.7733
 3527SOL    HW213874   6.087   3.839   0.142  2.5448  1.0317 -0.2070
 3527SOL    HW313875   6.174   3.720   0.107  0.9450 -0.0157 -0.7551
 3527SOL    MW413876   6.130   3.791   0.083 -0.0888 -0.2086 -0.0714
 3528SOL     OW13877   4.041   1.789   4.749 -0.0542  0.2505 -0.4152
 3528SOL    HW213878   4.070   1.785   4.840 -1.9976  0.2364  0.2460
 3528SOL    HW313879   3.970   1.725   4.744 -1.5070  1.8787 -1.3454
 3528SOL    MW413880   4.036   1.780   4.760 -0.0983  0.2984  0.1375
 3529SOL     OW13881   5.324   1.872   3.615 -0.0184  0.0943  0.0901
 3529SOL    HW213882   5.413   1.904   3.600 -1.0010  2.5756 -1.0083
 3529SOL    HW313883   5.299   1.908   3.700  0.8120 -2.7483  1.6846
 3529SOL    MW413884   5.332   1.881   3.624 -0.1571 -0.2548  0.1892
 3530SOL     OW13885   2.558   5.076   4.519 -0.3712  0.2633  0.0787
 3530SOL    HW213886   2.525   5.077   4.429  0.8541  3.1154 -0.4577
 3530SOL    HW313887   2.489   5.118   4.571 -0.2828  0.3701  0.1103
 3530SOL    MW413888   2.545   5.082   4.514 -0.4203 -0.7880  0.3689
 3531SOL     OW13889   5.915   3.533   3.182  0.1826  0.2176 -0.3780
 3531SOL    HW213890   6.003   3.500   3.202  0.9081  1.6325 -1.0790
 3531SOL    HW313891   5.880   3.472   3.119  1.5751  0.8271 -1.8109
 3531SOL    MW413892   5.922   3.521   3.177 -0.1505 -0.5503 -0.1154
 3532SOL     OW13893   3.256   5.554   3.082  0.4628  0.8541 -0.1816
 3532SOL    HW213894   3.286   5.643   3.067  0.4193  1.3386  2.1840
 3532SOL    HW313895   3.292   5.531   3.168  0.7424 -1.5456 -0.8587
 3532SOL    MW413896   3.265   5.562   3.091 -0.5021 -0.1603  0.0793
 3533SOL     OW13897   0.346   5.530   6.137 -0.1080  0.1105  0.0714
 3533SOL    HW213898   0.287   5.492   6.072  0.6893 -1.0839  0.0080
 3533SOL    HW313899   0.312   5.498   6.221  0.1655 -0.2021  0.0668
 3533SOL    MW413900   0.334   5.521   6.140 -0.3236 -0.6655 -0.0690
 3534SOL     OW13901   4.110   2.208   1.608 -0.9243  0.4061  0.0335
 3534SOL    HW213902   4.019   2.238   1.599 -0.9892  0.0754 -0.4732
 3534SOL    HW313903   4.140   2.247   1.690 -2.1773 -1.1288  1.2963
 3534SOL    MW413904   4.102   2.217   1.617  0.3917  0.0089  0.7742
 3535SOL     OW13905   5.916   2.863   5.399 -0.3900 -0.9949 -0.0678
 3535SOL    HW213906   5.839   2.826   5.443 -0.7961 -0.4111 -0.2656
 3535SOL    HW313907   5.900   2.957   5.400  1.5746 -0.5922  2.2395
 3535SOL    MW413908   5.904   2.871   5.405 -0.1306 -0.3070 -0.2334
 3536SOL     OW13909   5.606   3.371   2.773 -0.0234 -0.4686 -0.0724
 3536SOL    HW213910   5.628   3.451   2.726 -0.0279 -0.2149  0.3593
 3536SOL    HW313911   5.686   3.318   2.768  0.4450  0.1337  0.8300
 3536SOL    MW413912   5.620   3.374   2.766 -0.4277 -0.2377  0.3951
 3537SOL     OW13913   5.910   1.568   2.084  0.3646  0.3137 -0.1518
 3537SOL    HW213914   5.898   1.661   2.066  0.9711  0.2019 -1.1639
 3537SOL    HW313915   5.821   1.533   2.090  0.1153  0.4637 -2.4170
 3537SOL    MW413916   5.897   1.575   2.083  0.4643  0.2586 -0.2055
 3538SOL     OW13917   3.841   3.295   0.288  0.1792 -0.2278  0.9619
 3538SOL    HW213918   3.895   3.271   0.212 -0.6010 -0.2703  0.4167
 3538SOL    HW313919   3.875   3.380   0.315  0.4511 -0.2061  0.5599
 3538SOL    MW413920   3.853   3.303   0.282 -0.2771  0.1848 -0.2436
 3539SOL     OW13921   6.152   2.446   4.901 -0.4006 -0.0894 -0.8570
 3539SOL    HW213922   6.116   2.468   4.987  0.9307  1.0014 -0.5574
 3539SOL    HW313923   6.102   2.369   4.874 -1.0484 -0.2767  0.7544
 3539SOL    MW413924   6.141   2.438   4.908 -0.0036  0.0964 -0.0033
 3540SOL     OW13925   0.571   4.569   1.721  0.5333  0.0325  0.0214
 3540SOL    HW213926   0.516   4.593   1.796 -1.9271  0.1271 -1.6792
 3540SOL    HW313927   0.608   4.484   1.744  1.5683  1.0066  2.1632
 3540SOL    MW413928   0.569   4.561   1.734 -0.6647 -0.3342 -0.2591
 3541SOL     OW13929   4.596   1.781   0.661  0.0768 -0.1060 -0.1658
 3541SOL    HW213930   4.510   1.738   0.660 -0.2820  0.4865  1.6588
 3541SOL    HW313931   4.580   1.866   0.701  1.1650  0.8735 -1.7430
 3541SOL    MW413932   4.582   1.786   0.666 -0.0441 -0.3053  0.2816
 3542SOL     OW13933   4.048   3.263   4.635  0.3213 -0.3734  0.3812
 3542SOL    HW213934   4.019   3.235   4.722  1.4146  0.1100  0.9178
 3542SOL    HW313935   4.011   3.350   4.624  0.8176 -0.1168  0.6986
 3542SOL    MW413936   4.039   3.270   4.645  0.5439 -0.0291  0.6822
 3543SOL     OW13937   2.127   3.852   5.073 -0.6549  0.6967  0.4883
 3543SOL    HW213938   2.073   3.931   5.062 -0.9626  0.5630  1.0058
 3543SOL    HW313939   2.103   3.819   5.159  0.1160  0.5226  0.6425
 3543SOL    MW413940   2.117   3.858   5.083 -0.1701 -0.1776 -0.4460
 3544SOL     OW13941   5.349   4.205   4.506 -0.3857 -0.7582  0.1267
 3544SOL    HW213942   5.337   4.117   4.470 -0.1576 -0.6629 -0.1877
 3544SOL    HW313943   5.277   4.215   4.568 -1.1711 -0.7000 -0.7612
 3544SOL    MW413944   5.338   4.195   4.509 -0.5317  0.0810  0.8743
 3545SOL     OW13945   4.985   4.827   3.539  0.0606 -0.2961  0.3878
 3545SOL    HW213946   5.048   4.823   3.611 -0.2020 -1.5279  0.5605
 3545SOL    HW313947   4.969   4.921   3.528  0.1096 -0.0700  1.9307
 3545SOL    MW413948   4.991   4.839   3.547  0.2915 -0.1321  0.1837
 3546SOL     OW13949   3.616   1.697   3.309 -0.3082 -0.3953 -0.1767
 3546SOL    HW213950   3.543   1.675   3.251  0.4038  1.4367 -1.8588
 3546SOL    HW313951   3.686   1.636   3.284 -0.6532 -0.9760  0.2292
 3546SOL    MW413952   3.615   1.686   3.298 -0.0400 -0.5706  0.0905
 3547SOL     OW13953   3.380   3.396   1.713 -0.4292  0.8009  0.4441
 3547SOL    HW213954   3.291   3.432   1.708 -0.3949  0.8394  0.0968
 3547SOL    HW313955   3.428   3.459   1.767 -0.7288  0.5372  1.0258
 3547SOL    MW413956   3.375   3.409   1.720  0.0106 -0.5985  0.1990
 3548SOL     OW13957   0.837   1.155   2.920 -0.2903 -0.3776  0.3198
 3548SOL    HW213958   0.913   1.110   2.885 -0.5958 -0.9201  0.3342
 3548SOL    HW313959   0.855   1.248   2.908  0.2071 -0.5181 -0.0127
 3548SOL    MW413960   0.849   1.161   2.914  0.2406 -0.2027  0.1906
 3549SOL     OW13961   4.065   4.151   1.987 -0.0746 -0.1467  0.0248
 3549SOL    HW213962   4.066   4.110   2.073 -1.0112  0.7486  0.4822
 3549SOL    HW313963   4.104   4.237   2.001 -1.4413  0.5325 -0.1290
 3549SOL    MW413964   4.070   4.157   2.000  0.7094  0.2252  0.1633
 3550SOL     OW13965   6.119   3.817   1.796  0.0583 -0.0492 -0.5990
 3550SOL    HW213966   6.168   3.789   1.719  1.6770  0.5127  0.1903
 3550SOL    HW313967   6.092   3.736   1.839  1.5964 -0.3908 -0.2480
 3550SOL    MW413968   6.122   3.803   1.791 -0.9313  0.3365 -0.5799
 3551SOL     OW13969   5.005   6.240   1.022  0.5881 -0.5184 -0.6356
 3551SOL    HW213970   5.018   6.333   1.039  1.5121 -0.6846 -0.3938
 3551SOL    HW313971   4.937   6.214   1.085  2.5157 -0.6649  1.5244
 3551SOL    MW413972   4.998   6.249   1.033  0.1461  0.1396  0.2583
 3552SOL     OW13973   6.223   0.539   3.505  0.0133  0.2248  0.0338
 3552SOL    HW213974   6.261   0.456   3.534 -0.3558  0.0879  0.1405
 3552SOL    HW313975   6.271   0.606   3.554  0.6264  0.1063 -0.3963
 3552SOL    MW413976   6.234   0.537   3.515  0.0757  0.2731  0.0235
 3553SOL     OW13977   2.780   0.377   2.459 -0.6059 -0.1415 -0.0157
 3553SOL    HW213978   2.763   0.374   2.365 -0.9393  0.8885 -0.0042
 3553SOL    HW313979   2.737   0.299   2.494 -1.4628  0.0688 -0.5773
 3553SOL    MW413980   2.772   0.367   2.451 -0.0217 -0.1997 -0.0831
 3554SOL     OW13981   4.447   2.158   5.539 -0.3390  0.2030  0.2947
 3554SOL    HW213982   4.385   2.111   5.595 -0.0880  1.1682  1.4188
 3554SOL    HW313983   4.393   2.212   5.482 -0.6488 -1.6390 -1.2500
 3554SOL    MW413984   4.432   2.159   5.539  0.1987 -0.4859 -0.0338
 3555SOL     OW13985   1.209   3.402   3.241  0.0840 -0.4187  0.3627
 3555SOL    HW213986   1.138   3.391   3.305 -1.0997 -0.6467 -0.9374
 3555SOL    HW313987   1.164   3.423   3.159  1.5254 -0.7056 -0.5319
 3555SOL    MW413988   1.194   3.403   3.239 -0.1366 -0.2407 -0.2631
 3556SOL     OW13989   3.084   2.796   1.440 -0.0412 -0.3044  0.2634
 3556SOL    HW213990   3.061   2.777   1.349  1.5654 -1.2178  0.0120
 3556SOL    HW313991   3.036   2.730   1.491 -1.4331  0.5925  0.1757
 3556SOL    MW413992   3.074   2.785   1.435  0.0975  0.2328 -0.1719
 3557SOL     OW13993   0.269   0.060   5.897 -0.1120  0.1917 -0.1683
 3557SOL    HW213994   0.219   0.138   5.923 -2.3474 -1.1328 -0.2456
 3557SOL    HW313995   0.257  -0.001   5.970  3.1552  0.4650  0.7584
 3557SOL    MW413996   0.261   0.062   5.910  0.2931 -0.5760  0.1841
 3558SOL     OW13997   6.160   2.431   6.332  0.5048  0.1576  0.3264
 3558SOL    HW213998   6.249   2.430   6.366  0.7238 -0.2802 -0.2310
 3558SOL    HW313999   6.160   2.365   6.263 -0.3426 -0.0951  0.5462
 3558SOL    MW414000   6.172   2.422   6.327 -0.5237 -0.1922  0.3394
 3559SOL     OW14001   1.569   3.136   1.247  0.2744 -0.1768  0.1996
 3559SOL    HW214002   1.603   3.224   1.265 -0.3712 -0.1158  1.1937
 3559SOL    HW314003   1.564   3.132   1.152  3.3121 -0.3008 -0.0505
 3559SOL    MW414004   1.573   3.147   1.237  0.4095  0.1461  0.4779
 3560SOL     OW14005   0.041   1.574   0.875 -0.1624 -0.0671 -0.3421
 3560SOL    HW214006  -0.055   1.574   0.873 -0.2008  1.0568  0.5219
 3560SOL    HW314007   0.064   1.482   0.888 -1.1869 -0.1829  0.9565
 3560SOL    MW414008   0.031   1.562   0.877  0.8162  0.6142  0.5163
 3561SOL     OW14009   5.351   0.510   5.594 -0.5819  0.2832 -0.2538
 3561SOL    HW214010   5.388   0.587   5.551 -2.4345  1.3585 -0.0723
 3561SOL    HW314011   5.404   0.498   5.673 -0.7345  1.9020  0.1301
 3561SOL    MW414012   5.363   0.519   5.599 -0.0972 -0.0904 -0.1122
 3562SOL     OW14013   4.097   4.888   6.356  0.6707 -1.0589  0.2137
 3562SOL    HW214014   4.021   4.936   6.324  0.7497 -1.3944 -0.4975
 3562SOL    HW314015   4.071   4.856   6.442  0.0849 -0.9886  0.0659
 3562SOL    MW414016   4.083   4.890   6.363  0.5735 -0.1073 -0.2901
 3563SOL     OW14017   3.272   3.661   1.538  0.1596  0.0933  0.6155
 3563SOL    HW214018   3.327   3.633   1.466  1.0956  2.7945  0.1399
 3563SOL    HW314019   3.183   3.636   1.511  0.8748 -2.4147  0.4047
 3563SOL    MW414020   3.267   3.654   1.525  0.9368  0.6805  0.3238
 3564SOL     OW14021   2.941   1.969   2.271 -0.5242  0.1786 -0.4322
 3564SOL    HW214022   2.874   2.036   2.265 -0.7233 -0.0499 -0.7833
 3564SOL    HW314023   3.023   2.014   2.248 -0.2749  0.8619  1.6511
 3564SOL    MW414024   2.943   1.984   2.267 -0.5301  0.1516 -0.1123
 3565SOL     OW14025   6.237   5.896   1.193  0.2320  0.3304 -0.6536
 3565SOL    HW214026   6.199   5.964   1.138  2.0506  0.4738 -1.7970
 3565SOL    HW314027   6.305   5.941   1.244  0.0735 -0.2382  0.0780
 3565SOL    MW414028   6.241   5.911   1.193 -0.6432  0.0142  0.0239
 3566SOL     OW14029   5.140   5.657   4.196  0.0112  0.5559  0.1272
 3566SOL    HW214030   5.106   5.570   4.173 -0.3464  0.5414  0.6814
 3566SOL    HW314031   5.117   5.712   4.121  2.2953 -0.2964 -1.3047
 3566SOL    MW414032   5.132   5.653   4.183  0.5958 -0.3596 -0.7538
 3567SOL     OW14033   3.020   4.689   5.236 -0.0541 -0.3147  0.3884
 3567SOL    HW214034   2.983   4.681   5.148 -0.2132 -1.4636  0.5384
 3567SOL    HW314035   3.038   4.598   5.262 -1.3809 -0.1335  2.1230
 3567SOL    MW414036   3.017   4.676   5.228  0.0198 -0.4775  0.3743
 3568SOL     OW14037   3.916   6.115   0.794 -0.1597 -0.1045  0.5394
 3568SOL    HW214038   3.956   6.101   0.708 -1.1723 -1.8632  0.3084
 3568SOL    HW314039   3.844   6.175   0.777  1.7081  2.3838  0.8153
 3568SOL    MW414040   3.912   6.121   0.780  0.1297 -0.2111 -0.4258
 3569SOL     OW14041   1.031   3.241   3.391 -0.4932 -0.1743  0.6451
 3569SOL    HW214042   0.954   3.273   3.438 -1.4644 -0.4926 -0.6354
 3569SOL    HW314043   1.067   3.173   3.447 -3.0653 -2.3003 -0.0233
 3569SOL    MW414044   1.026   3.236   3.404  0.2787 -0.8175  0.0652
 3570SOL     OW14045   4.719   0.145   1.430 -0.6057 -0.0719  0.0989
 3570SOL    HW214046   4.654   0.144   1.359 -1.2014  1.2323  0.5974
 3570SOL    HW314047   4.671   0.177   1.506  0.2559 -0.5837  0.8784
 3570SOL    MW414048   4.704   0.149   1.431 -0.4162 -0.2069 -0.6148
 3571SOL     OW14049   3.208   0.925   3.944  0.6008 -0.4391  0.2437
 3571SOL    HW214050   3.234   1.008   3.982  0.1870 -0.9705  1.7464
 3571SOL    HW314051   3.242   0.859   4.004 -0.0685 -1.3132 -0.3145
 3571SOL    MW414052   3.216   0.927   3.957  0.0793 -0.8142 -0.4195
 3572SOL     OW14053   4.859   1.402   5.036 -0.2859  0.4349 -0.0462
 3572SOL    HW214054   4.925   1.348   5.079 -0.6917 -1.0114 -1.1875
 3572SOL    HW314055   4.857   1.482   5.089  0.8362 -0.3494  1.2696
 3572SOL    MW414056   4.868   1.406   5.049 -0.1673  0.0969 -0.2704
 3573SOL     OW14057   0.277   1.996   5.941 -0.0635 -0.2400 -0.0007
 3573SOL    HW214058   0.266   1.974   6.034 -2.0294 -1.7694 -0.5222
 3573SOL    HW314059   0.370   1.982   5.924  0.3801  0.2610  1.7643
 3573SOL    MW414060   0.288   1.992   5.951  0.7685  0.5621 -0.0912
 3574SOL     OW14061   5.270   1.760   0.803 -0.3150  0.4577 -0.4855
 3574SOL    HW214062   5.264   1.666   0.787 -1.9387  0.5291 -0.5167
 3574SOL    HW314063   5.211   1.799   0.738  0.6396  1.5372 -0.7391
 3574SOL    MW414064   5.261   1.753   0.792  0.1072 -0.4753  0.4647
 3575SOL     OW14065   1.077   0.244   0.308  0.4921  0.2691 -0.1875
 3575SOL    HW214066   1.105   0.172   0.364  1.2180  1.5268  1.1382
 3575SOL    HW314067   1.017   0.204   0.245 -0.1950 -1.2395  1.3517
 3575SOL    MW414068   1.073   0.229   0.307  0.0080 -0.1991  0.4551
 3576SOL     OW14069   1.152   1.943   3.193 -0.0875 -0.2382  0.1647
 3576SOL    HW214070   1.144   1.930   3.098  1.2340 -1.7596  0.2332
 3576SOL    HW314071   1.063   1.967   3.220 -0.3015  1.1764 -1.5683
 3576SOL    MW414072   1.139   1.944   3.184 -0.1745 -0.1903 -0.1503
 3577SOL     OW14073   3.666   3.094   1.561 -0.1682  0.1349  0.7052
 3577SOL    HW214074   3.638   3.012   1.601 -2.1119  0.4858  0.1537
 3577SOL    HW314075   3.664   3.158   1.632 -0.1497  0.0159  0.8117
 3577SOL    MW414076   3.662   3.092   1.576  0.8790 -0.4309  0.4051
 3578SOL     OW14077   2.957   2.401   2.172 -0.3222  0.4878 -0.2297
 3578SOL    HW214078   2.889   2.337   2.195 -0.4507  1.0128  0.8822
 3578SOL    HW314079   3.038   2.352   2.173 -0.4571  0.2712  0.3266
 3578SOL    MW414080   2.959   2.386   2.175  0.2544 -0.2778  0.2232
 3579SOL     OW14081   2.034   4.409   2.830 -0.2761 -0.4523 -0.0813
 3579SOL    HW214082   2.089   4.431   2.755  0.1119  1.4315  0.6913
 3579SOL    HW314083   2.093   4.367   2.892  0.7327  2.5394  1.2101
 3579SOL    MW414084   2.049   4.407   2.829 -0.1055  0.6435  0.3364
 3580SOL     OW14085   5.620   1.592   5.909  0.0407 -0.3467  0.1955
 3580SOL    HW214086   5.630   1.598   6.004  0.7424 -0.7287  0.1498
 3580SOL    HW314087   5.546   1.533   5.896  1.3022 -2.0405  0.4877
 3580SOL    MW414088   5.611   1.585   5.920 -0.0778 -0.1813  0.2269
 3581SOL     OW14089   6.394   3.473   2.389 -0.7011  0.2766 -0.2520
 3581SOL    HW214090   6.343   3.463   2.309 -1.4552  2.4209 -0.1005
 3581SOL    HW314091   6.334   3.513   2.452  0.7884  1.8123  0.2895
 3581SOL    MW414092   6.379   3.477   2.387 -0.3000 -0.1859  0.3460
 3582SOL     OW14093   4.335   3.539   2.470 -0.1163 -0.2105  0.2368
 3582SOL    HW214094   4.261   3.561   2.527  0.4032 -0.3170  0.9612
 3582SOL    HW314095   4.330   3.444   2.461  0.5884 -0.3563  1.2212
 3582SOL    MW414096   4.325   3.529   2.477  0.8923 -0.2994 -0.9545
 3583SOL     OW14097   2.108   4.991   5.863  0.1457  0.7220 -0.2449
 3583SOL    HW214098   2.168   4.918   5.878 -1.0574 -0.0715  1.0187
 3583SOL    HW314099   2.165   5.065   5.844  1.4208 -0.4592 -1.2765
 3583SOL    MW414100   2.124   4.991   5.863 -0.4508  0.1160  0.4698
 3584SOL     OW14101   1.286   2.191   2.537  0.2911  0.6277  0.0295
 3584SOL    HW214102   1.264   2.098   2.543  0.6829  0.6014  1.4056
 3584SOL    HW314103   1.260   2.228   2.622  1.8478  1.3754  0.2264
 3584SOL    MW414104   1.280   2.184   2.549 -0.7048  0.4838 -0.1527
 3585SOL     OW14105   1.426   4.300   0.357  0.2715  0.2468 -0.1820
 3585SOL    HW214106   1.479   4.318   0.279  0.8150 -0.3969  0.0277
 3585SOL    HW314107   1.368   4.228   0.330  1.4533 -0.9717  0.4163
 3585SOL    MW414108   1.425   4.293   0.343  0.4454  0.0242  0.2595
 3586SOL     OW14109   2.466   1.062   0.559  0.1302  0.3333  0.2247
 3586SOL    HW214110   2.557   1.058   0.589 -0.2576  0.4734  1.4956
 3586SOL    HW314111   2.435   0.972   0.564  0.2778  0.2455 -0.4629
 3586SOL    MW414112   2.474   1.050   0.564 -0.2363 -0.2720  0.2428
 3587SOL     OW14113   1.612   4.875   4.888 -0.2295 -0.3828  0.5040
 3587SOL    HW214114   1.695   4.859   4.842 -0.7960 -1.3872 -0.1911
 3587SOL    HW314115   1.634   4.943   4.952  1.2315 -0.9053  0.6058
 3587SOL    MW414116   1.626   4.882   4.891  0.0945  0.4420  0.2450
 3588SOL     OW14117   2.181   2.087   2.795 -0.0482 -0.5985  0.4664
 3588SOL    HW214118   2.144   2.120   2.713  0.0999 -1.3370  0.0967
 3588SOL    HW314119   2.276   2.097   2.783  0.0550 -1.9063  0.0030
 3588SOL    MW414120   2.189   2.093   2.782 -0.4772 -0.5111 -0.2108
 3589SOL     OW14121   5.577   1.590   0.674 -0.9722  0.0115  0.4575
 3589SOL    HW214122   5.556   1.564   0.764 -0.1451  1.5713  1.1378
 3589SOL    HW314123   5.543   1.679   0.666 -0.7945 -0.0081 -0.6971
 3589SOL    MW414124   5.569   1.598   0.685 -0.3564 -0.3825  0.5324
 3590SOL     OW14125   6.249   3.022   2.852 -0.3329  0.2683 -0.3369
 3590SOL    HW214126   6.193   2.957   2.897  0.3751 -0.0701  0.0742
 3590SOL    HW314127   6.338   2.989   2.864 -0.0363  0.8357 -0.9362
 3590SOL    MW414128   6.253   3.009   2.860 -0.2520  0.5242 -0.0016
 3591SOL     OW14129   5.723   5.187   4.502  0.0876 -0.2969 -0.0407
 3591SOL    HW214130   5.652   5.154   4.556  0.1420 -0.0748  0.1627
 3591SOL    HW314131   5.692   5.173   4.412 -0.4413  0.2929  0.0428
 3591SOL    MW414132   5.709   5.181   4.497 -0.3215 -0.3395  0.1998
 3592SOL     OW14133   0.061   3.764   2.488  0.4843  0.0643 -0.3240
 3592SOL    HW214134   0.013   3.779   2.407  0.3749  1.6690  0.0088
 3592SOL    HW314135  -0.005   3.730   2.549  0.5753 -1.1817 -0.8853
 3592SOL    MW414136   0.046   3.762   2.486  0.3552  0.4078 -0.1692
 3593SOL     OW14137   2.230   2.899   1.855  0.0654 -0.1088  0.3078
 3593SOL    HW214138   2.145   2.899   1.811  0.2573  1.6060 -0.1329
 3593SOL    HW314139   2.208   2.904   1.949 -0.3327 -0.1561  0.2194
 3593SOL    MW414140   2.216   2.900   1.862  0.3048 -0.1499 -0.2776
 3594SOL     OW14141   3.904   6.040   6.311  0.3223  0.1394  0.1204
 3594SOL    HW214142   3.887   6.103   6.381  0.8901 -0.6762  1.0143
 3594SOL    HW314143   3.996   6.018   6.320  0.0759 -1.0033 -0.0115
 3594SOL    MW414144   3.914   6.046   6.321 -0.4276  0.3583 -0.4870
 3595SOL     OW14145   5.628   6.363   2.012 -0.0745  0.2052  0.1138
 3595SOL    HW214146   5.685   6.380   1.936  0.7090 -2.2248  0.0591
 3595SOL    HW314147   5.573   6.290   1.984  0.3527 -0.8594  1.9148
 3595SOL    MW414148   5.629   6.355   1.998  0.0759  0.1790  0.3222
 3596SOL     OW14149   5.904   6.135   2.271 -0.2659 -0.5656 -0.1112
 3596SOL    HW214150   5.853   6.090   2.204 -0.0850 -0.6469 -0.1943
 3596SOL    HW314151   5.942   6.064   2.324 -0.1348 -0.5088 -0.1271
 3596SOL    MW414152   5.903   6.120   2.269  0.5364  0.4935 -0.3324
 3597SOL     OW14153   2.292   2.631   1.188 -0.1097 -0.1662 -0.4661
 3597SOL    HW214154   2.210   2.615   1.235 -0.4843  2.9774  0.2019
 3597SOL    HW314155   2.352   2.662   1.256  2.0864 -3.3684 -0.7549
 3597SOL    MW414156   2.289   2.633   1.203 -0.4936 -0.3671  0.5190
 3598SOL     OW14157   2.216   3.555   0.724  1.2657  0.0974  0.2402
 3598SOL    HW214158   2.213   3.650   0.715 -0.2518 -0.0422 -1.4364
 3598SOL    HW314159   2.191   3.537   0.814 -1.5826  1.2255 -0.2425
 3598SOL    MW414160   2.212   3.565   0.734 -0.2078 -0.1733  0.0984
 3599SOL     OW14161   5.608   5.714   5.441  0.1922  0.1610  0.1730
 3599SOL    HW214162   5.677   5.768   5.402 -0.6977  0.7498 -0.6294
 3599SOL    HW314163   5.590   5.647   5.376 -0.5811  0.5270  0.0010
 3599SOL    MW414164   5.615   5.713   5.428 -0.4315  0.3460 -0.2708
 3600SOL     OW14165   2.319   2.211   0.009  0.1262  0.2045 -0.1288
 3600SOL    HW214166   2.239   2.186  -0.037 -0.7062 -0.1258  1.4176
 3600SOL    HW314167   2.389   2.198  -0.055 -0.7115 -2.3724 -0.6231
 3600SOL    MW414168   2.318   2.206  -0.005 -0.0621  0.3243  0.1342
 3601SOL     OW14169   5.439   1.720   6.133  0.2039  0.2407 -0.2521
 3601SOL    HW214170   5.511   1.756   6.185 -0.3403 -0.9850  1.4656
 3601SOL    HW314171   5.408   1.794   6.080  1.5639  1.2446  0.2866
 3601SOL    MW414172   5.444   1.735   6.133 -0.2108 -0.4856 -0.7131
 3602SOL     OW14173   5.068   4.960   0.674  0.2630 -0.3323 -0.2177
 3602SOL    HW214174   5.034   5.039   0.716  0.1822  0.2090 -1.2648
 3602SOL    HW314175   5.005   4.892   0.696 -0.9383  0.4104 -1.2237
 3602SOL    MW414176   5.056   4.962   0.682  0.3094 -0.2082  0.1162
 3603SOL     OW14177   3.399   5.813   3.082  0.6142  0.5417  0.4182
 3603SOL    HW214178   3.334   5.861   3.030  0.7406 -1.5705 -1.9488
 3603SOL    HW314179   3.472   5.874   3.092  0.5020  1.1361 -1.8287
 3603SOL    MW414180   3.400   5.827   3.076  0.3815 -0.1318  0.1870
 3604SOL     OW14181   4.996   2.784   0.642 -0.2113  0.1308 -0.4092
 3604SOL    HW214182   5.018   2.765   0.550  0.0784 -1.8220  0.0197
 3604SOL    HW314183   5.036   2.713   0.691 -0.6436  0.9722  1.2222
 3604SOL    MW414184   5.004   2.772   0.636 -0.6652 -0.7351  0.5772
 3605SOL     OW14185   6.265   2.898   3.334 -0.0784  0.1719  0.0297
 3605SOL    HW214186   6.275   2.926   3.425 -0.2393 -0.5446  0.2777
 3605SOL    HW314187   6.345   2.850   3.314 -0.0609  0.2909 -0.1951
 3605SOL    MW414188   6.277   2.895   3.343 -0.1978  0.0650 -0.0519
 3606SOL     OW14189   3.183   1.373   4.740 -0.2061  0.1775 -0.4390
 3606SOL    HW214190   3.251   1.431   4.777 -0.3855 -0.4504  0.9526
 3606SOL    HW314191   3.100   1.415   4.765 -0.3297 -0.2732 -0.0681
 3606SOL    MW414192   3.181   1.386   4.748 -0.7236  0.1083  0.1485
 3607SOL     OW14193   5.713   4.889   6.394 -0.4860  0.0250 -0.0233
 3607SOL    HW214194   5.690   4.978   6.367  0.1010 -0.0964 -0.9693
 3607SOL    HW314195   5.655   4.871   6.468 -2.2023  0.3765 -1.2109
 3607SOL    MW414196   5.703   4.899   6.400  0.2686  0.5392  0.2337
 3608SOL     OW14197   1.169   1.522   0.702 -0.3226  0.1137  0.4710
 3608SOL    HW214198   1.074   1.511   0.700 -0.5159  1.6278  0.6043
 3608SOL    HW314199   1.187   1.564   0.786  0.5206 -0.5230  0.6265
 3608SOL    MW414200   1.159   1.526   0.713  0.5811 -0.1589  0.1201
 3609SOL     OW14201   6.242   5.488   5.672  0.0772  0.3293  0.4597
 3609SOL    HW214202   6.226   5.469   5.765  0.0744 -0.5227  0.2921
 3609SOL    HW314203   6.269   5.580   5.671 -1.2635  0.7647  1.1517
 3609SOL    MW414204   6.244   5.497   5.684 -0.4261  0.2330  0.5630
 3610SOL     OW14205   0.587   0.375   0.096 -0.0569 -0.4127  0.3229
 3610SOL    HW214206   0.509   0.414   0.056  1.0268  1.4022 -0.1318
 3610SOL    HW314207   0.628   0.326   0.025  1.0002  1.4689 -0.4233
 3610SOL    MW414208   0.582   0.374   0.081 -0.2525  0.0378  0.0130
 3611SOL     OW14209   5.077   5.636   1.332  0.1218 -0.7881  0.2029
 3611SOL    HW214210   5.014   5.682   1.388 -1.7552  0.0794 -2.3942
 3611SOL    HW314211   5.147   5.699   1.317 -0.7724  0.0480 -0.6203
 3611SOL    MW414212   5.078   5.650   1.337  0.2942 -0.3345  0.6223
 3612SOL     OW14213   3.583   4.401   5.890  0.3435  0.5384 -0.0699
 3612SOL    HW214214   3.578   4.401   5.795 -0.4152  2.9089 -0.0772
 3612SOL    HW314215   3.510   4.346   5.918  0.9358 -0.6803 -0.8186
 3612SOL    MW414216   3.573   4.393   5.881 -0.2252 -0.2578 -0.1229
 3613SOL     OW14217   0.304   3.545   2.400 -0.0803 -0.1739 -0.1111
 3613SOL    HW214218   0.237   3.562   2.465  0.3577 -0.3315  0.3879
 3613SOL    HW314219   0.267   3.576   2.318 -1.6578 -2.1927 -0.2521
 3613SOL    MW414220   0.290   3.551   2.398  0.1161  0.5115 -0.8968
 3614SOL     OW14221   1.725   5.726   6.131  0.1736 -0.3538  0.2313
 3614SOL    HW214222   1.725   5.631   6.144  1.2046 -0.2003  1.5424
 3614SOL    HW314223   1.685   5.761   6.210 -0.4111  0.3210 -0.3444
 3614SOL    MW414224   1.720   5.718   6.143  0.0448  0.0900  0.3582
 3615SOL     OW14225   1.365   1.853   3.665  0.6123  0.0112  0.1232
 3615SOL    HW214226   1.298   1.883   3.604  1.4925 -0.0754 -0.9127
 3615SOL    HW314227   1.386   1.930   3.718  0.0736  0.1762  0.0972
 3615SOL    MW414228   1.359   1.867   3.664 -0.5338  0.0143 -0.3764
 3616SOL     OW14229   5.792   0.553   1.408  0.1702 -0.0447 -0.1514
 3616SOL    HW214230   5.854   0.610   1.452 -0.1704 -0.0112  0.2915
 3616SOL    HW314231   5.735   0.613   1.358  0.8375 -0.1104 -1.0197
 3616SOL    MW414232   5.793   0.569   1.407 -0.1605  0.5898 -0.2248
 3617SOL     OW14233   1.763   2.887   4.754 -0.0963  0.0446  0.1248
 3617SOL    HW214234   1.778   2.855   4.665 -0.4110 -0.3775  0.2192
 3617SOL    HW314235   1.722   2.813   4.799  0.7564 -0.0074  0.8352
 3617SOL    MW414236   1.759   2.873   4.748  0.4901  0.4104 -0.2797
 3618SOL     OW14237   4.820   0.754   0.817 -0.1117 -0.1805  0.3950
 3618SOL    HW214238   4.889   0.688   0.820  0.3115  0.2891  1.3752
 3618SOL    HW314239   4.758   0.726   0.885  1.1492  1.5542  2.3800
 3618SOL    MW414240   4.821   0.741   0.826  0.0242  0.3040 -0.8557
 3619SOL     OW14241   2.630   2.788   0.368  0.0191 -0.3272 -0.3959
 3619SOL    HW214242   2.560   2.836   0.323 -0.7021  0.3548  1.3503
 3619SOL    HW314243   2.606   2.794   0.461  0.7263 -2.7977 -0.0032
 3619SOL    MW414244   2.617   2.795   0.374  0.1877 -0.7777  0.1415
 3620SOL     OW14245   1.829   3.733   5.024 -0.1821 -0.4019  0.1860
 3620SOL    HW214246   1.872   3.650   5.000 -1.8752 -1.6895  1.3342
 3620SOL    HW314247   1.740   3.724   4.990 -0.7788  0.3608  1.4712
 3620SOL    MW414248   1.823   3.721   5.016  0.0801  0.0505  0.3778
 3621SOL     OW14249   1.439   0.234   4.327  0.0756  0.5881 -0.1613
 3621SOL    HW214250   1.420   0.274   4.412 -0.9522  1.1877 -0.6415
 3621SOL    HW314251   1.352   0.213   4.292  0.5269 -0.2853 -0.7623
 3621SOL    MW414252   1.425   0.237   4.334  0.3221  0.5623 -1.0367
 3622SOL     OW14253   3.145   3.393   2.729  0.4231 -0.2843  0.2439
 3622SOL    HW214254   3.108   3.399   2.817 -1.9894  1.0266 -0.7783
 3622SOL    HW314255   3.088   3.331   2.683  0.7782  0.1294 -0.7807
 3622SOL    MW414256   3.133   3.386   2.735 -0.9314 -0.7864  0.3543
 3623SOL     OW14257   4.315   3.040   0.748 -0.1189 -0.0458 -0.3698
 3623SOL    HW214258   4.260   2.961   0.752  0.5801 -0.6571 -2.0503
 3623SOL    HW314259   4.253   3.112   0.737 -0.8050 -0.2604  1.6257
 3623SOL    MW414260   4.300   3.039   0.747 -0.1593 -0.3077  0.1347
 3624SOL     OW14261   0.472   3.718   1.551 -0.1857 -0.2647 -0.0450
 3624SOL    HW214262   0.499   3.768   1.474  2.3359 -0.4197  0.6499
 3624SOL    HW314263   0.497   3.773   1.625  1.4983 -1.9405  0.7031
 3624SOL    MW414264   0.479   3.732   1.551  0.5996  0.3424  0.6184
 3625SOL     OW14265   1.058   1.519   2.374  0.4794  0.2655  0.6187
 3625SOL    HW214266   1.034   1.611   2.366  0.3672  0.1844 -0.0348
 3625SOL    HW314267   0.974   1.472   2.372  0.6135  0.0225 -1.0733
 3625SOL    MW414268   1.044   1.525   2.373 -0.0923 -0.0203 -0.2646
 3626SOL     OW14269   1.785   4.768   6.065  0.2121  0.1195 -0.2164
 3626SOL    HW214270   1.727   4.701   6.030 -1.0923  0.0197  1.8913
 3626SOL    HW314271   1.792   4.833   5.995 -0.7104 -0.9108 -1.3074
 3626SOL    MW414272   1.778   4.768   6.051 -0.2496  0.1181  0.4356
 3627SOL     OW14273   3.438   6.082   5.614 -0.2517 -0.2842 -0.5225
 3627SOL    HW214274   3.382   6.073   5.537 -1.3650 -2.2990  0.4411
 3627SOL    HW314275   3.528   6.076   5.579 -0.7305 -1.3085 -1.6721
 3627SOL    MW414276   3.443   6.080   5.599 -0.1655  0.3681 -0.0791
 3628SOL     OW14277   5.150   4.163   4.709 -0.5649  0.1091  0.2183
 3628SOL    HW214278   5.109   4.171   4.795  0.8045 -1.4301  1.0722
 3628SOL    HW314279   5.236   4.125   4.726 -0.4120 -0.6543 -1.8676
 3628SOL    MW414280   5.156   4.159   4.722  0.2652 -0.1407 -0.5167
 3629SOL     OW14281   0.577   2.349   5.571 -0.2579 -0.2550  0.1850
 3629SOL    HW214282   0.662   2.305   5.561  0.6170  1.6090 -1.0291
 3629SOL    HW314283   0.518   2.279   5.600  1.3706 -1.9011 -0.2506
 3629SOL    MW414284   0.581   2.334   5.574 -0.4053  0.5020  0.3507
 3630SOL     OW14285   2.241   3.272   1.248 -0.5196 -0.2348  0.2227
 3630SOL    HW214286   2.229   3.177   1.242 -0.1943 -0.3095  0.6674
 3630SOL    HW314287   2.173   3.308   1.192 -0.4181 -0.7392 -0.2391
 3630SOL    MW414288   2.231   3.264   1.240  0.1817 -0.0214 -0.3990
 3631SOL     OW14289   0.387   3.468   1.626  0.1516 -0.4807  0.5703
 3631SOL    HW214290   0.418   3.553   1.598  0.2701 -0.8815 -0.5432
 3631SOL    HW314291   0.379   3.417   1.546 -2.3166 -0.7474  0.9025
 3631SOL    MW414292   0.390   3.472   1.612  0.3458 -0.1839 -0.5985
 3632SOL     OW14293   0.928   1.497   4.200  0.0713 -0.3098 -0.3630
 3632SOL    HW214294   0.905   1.456   4.283 -3.1373  2.0554  0.1230
 3632SOL    HW314295   0.943   1.424   4.140  1.1094 -2.0760  1.9024
 3632SOL    MW414296   0.927   1.482   4.203 -0.6958 -0.0577 -0.1579
 3633SOL     OW14297   6.165   2.502   3.594 -0.0047  0.4508 -0.6123
 3633SOL    HW214298   6.173   2.425   3.651  0.7113 -1.1025 -2.6791
 3633SOL    HW314299   6.113   2.564   3.645 -0.7705 -1.4686  1.0921
 3633SOL    MW414300   6.159   2.500   3.608 -0.3142 -0.2949 -0.2678
 3634SOL     OW14301   6.387   4.207   6.356 -0.9120  0.2742 -0.1894
 3634SOL    HW214302   6.329   4.136   6.330  0.5303 -1.1339  0.2104
 3634SOL    HW314303   6.430   4.175   6.436 -0.3361  1.6699  0.1030
 3634SOL    MW414304   6.385   4.194   6.363 -0.5297  0.2281  0.2090
 3635SOL     OW14305   1.525   1.030   4.722 -0.3875 -0.4998 -0.3858
 3635SOL    HW214306   1.616   1.058   4.716 -0.4559 -0.3715 -0.8320
 3635SOL    HW314307   1.517   0.959   4.658 -0.4082 -1.0419  0.1993
 3635SOL    MW414308   1.536   1.024   4.713  0.0162 -0.0076 -0.7860
 3636SOL     OW14309   0.180   4.854   3.052  0.1681  0.8584  0.2582
 3636SOL    HW214310   0.196   4.838   2.959 -1.0925  0.2360  0.1262
 3636SOL    HW314311   0.265   4.883   3.086  0.4761  1.8445 -1.2307
 3636SOL    MW414312   0.194   4.856   3.044  1.1959 -0.2567  0.0561
 3637SOL     OW14313   5.098   3.217   1.512  0.1481 -0.2632 -0.7189
 3637SOL    HW214314   5.046   3.139   1.531  3.9827 -3.1858 -0.9142
 3637SOL    HW314315   5.138   3.240   1.596 -0.1415  0.8913 -0.8810
 3637SOL    MW414316   5.096   3.210   1.526  0.2074 -0.5053 -0.5280
 3638SOL     OW14317   4.496   2.690   2.228  0.1613  0.1183 -0.3676
 3638SOL    HW214318   4.430   2.624   2.206  1.6321 -2.0466  1.2405
 3638SOL    HW314319   4.580   2.644   2.220  1.1764  1.2546  2.3037
 3638SOL    MW414320   4.498   2.675   2.224 -0.5095 -0.1213  0.1328
 3639SOL     OW14321   1.244   3.106   2.883 -0.3193 -0.1361 -0.5444
 3639SOL    HW214322   1.270   3.151   2.803 -1.2074  1.0960 -0.1762
 3639SOL    HW314323   1.149   3.115   2.885 -0.6616 -2.8993 -0.9278
 3639SOL    MW414324   1.235   3.113   2.873  0.4261 -0.3409 -0.2030
 3640SOL     OW14325   1.398   1.728   0.460  0.6556 -0.0425  0.0150
 3640SOL    HW214326   1.306   1.703   0.456  0.8939 -0.9304 -0.1972
 3640SOL    HW314327   1.407   1.777   0.542  0.1153 -0.4626  0.3282
 3640SOL    MW414328   1.387   1.731   0.470 -0.2299 -0.1570  0.4826
 3641SOL     OW14329   4.616   1.528   2.197 -0.0510  0.2373 -0.6096
 3641SOL    HW214330   4.689   1.481   2.240 -1.4347 -0.8880  0.6170
 3641SOL    HW314331   4.578   1.464   2.138 -0.1325  0.7891 -1.1596
 3641SOL    MW414332   4.621   1.513   2.195  0.2065  0.3709  0.1663
 3642SOL     OW14333   3.799   0.972   4.053 -0.0706 -0.3248  0.0984
 3642SOL    HW214334   3.725   1.033   4.062 -0.7935 -1.1501 -0.1035
 3642SOL    HW314335   3.784   0.906   4.120  0.2729 -0.7083 -0.1972
 3642SOL    MW414336   3.787   0.972   4.063 -0.2544  0.7430 -0.3763
 3643SOL     OW14337   5.158   5.249   1.124  0.1354 -0.1301 -0.9328
 3643SOL    HW214338   5.083   5.191   1.138  1.2240 -1.4422 -0.2814
 3643SOL    HW314339   5.121   5.337   1.128 -1.4029 -0.7368 -0.8875
 3643SOL    MW414340   5.143   5.253   1.126  0.7451  0.5607  0.0198
 3644SOL     OW14341   3.472   3.578   3.804 -0.6686 -0.1302 -0.0999
 3644SOL    HW214342   3.506   3.536   3.883 -2.0807 -0.5430  0.3232
 3644SOL    HW314343   3.419   3.651   3.837  0.0475  0.6957 -0.7474
 3644SOL    MW414344   3.469   3.582   3.819  0.1345 -0.5079  0.1468
 3645SOL     OW14345   3.710   5.352   5.136 -0.0877 -0.0608 -0.3815
 3645SOL    HW214346   3.725   5.342   5.230 -1.6770 -0.5437 -0.1439
 3645SOL    HW314347   3.685   5.444   5.125 -0.9417 -0.2588 -0.1568
 3645SOL    MW414348   3.709   5.363   5.147 -0.3735 -0.2236  0.0165
 3646SOL     OW14349   0.461   4.677   3.108  0.6814  0.7871  0.6524
 3646SOL    HW214350   0.475   4.768   3.133  1.3315  0.8258  0.1667
 3646SOL    HW314351   0.497   4.670   3.020 -0.2665  0.3012  0.2902
 3646SOL    MW414352   0.467   4.688   3.100  0.0137  0.8483  0.0640
 3647SOL     OW14353   2.954   3.610   4.038 -0.2683 -0.2102 -0.4573
 3647SOL    HW214354   3.010   3.678   4.076 -0.2954  0.5062 -1.6338
 3647SOL    HW314355   2.893   3.587   4.109 -1.2468  2.1079 -0.4474
 3647SOL    MW414356   2.953   3.616   4.053  0.1097 -0.1908 -0.4564
 3648SOL     OW14357   1.538   5.103   2.577 -0.4427 -0.4108  0.0020
 3648SOL    HW214358   1.488   5.032   2.617 -1.1411  0.2265  0.2969
 3648SOL    HW314359   1.512   5.101   2.485  0.8725 -1.6311 -0.3776
 3648SOL    MW414360   1.528   5.093   2.570 -0.0733 -0.2836  0.3819
 3649SOL     OW14361   1.888   6.123   4.530  0.1653  0.2244 -0.2124
 3649SOL    HW214362   1.878   6.203   4.480  1.0708  0.5882  0.1689
 3649SOL    HW314363   1.802   6.082   4.528  0.0195  0.5734 -1.4708
 3649SOL    MW414364   1.875   6.128   4.523  0.3201  0.2626  0.2593
 3650SOL     OW14365   2.279   5.256   5.016 -0.1993  0.3051 -0.2771
 3650SOL    HW214366   2.346   5.280   5.080 -0.1822 -0.5085  0.0187
 3650SOL    HW314367   2.309   5.296   4.934 -0.0807  1.1287  0.1520
 3650SOL    MW414368   2.292   5.265   5.014 -0.2325 -0.6894  0.0951
 3651SOL     OW14369   3.804   2.669   3.505 -0.1279  0.2815  0.1662
 3651SOL    HW214370   3.827   2.745   3.558  0.3730  0.4446 -0.2728
 3651SOL    HW314371   3.843   2.687   3.419 -0.9195  0.0198 -0.2553
 3651SOL    MW414372   3.812   2.681   3.500  0.0297  0.0558  0.1833
 3652SOL     OW14373   3.371   4.698   2.995 -0.0370  0.4523 -0.2520
 3652SOL    HW214374   3.400   4.767   3.056 -0.6425  0.8798 -0.4298
 3652SOL    HW314375   3.300   4.739   2.946  0.0025 -0.1127 -0.7851
 3652SOL    MW414376   3.365   4.713   2.997  0.1611 -0.5667 -0.0103
 3653SOL     OW14377   4.989   4.483   5.202 -0.2934  0.2326  0.0913
 3653SOL    HW214378   5.019   4.523   5.120 -0.2703 -1.0521 -0.5482
 3653SOL    HW314379   5.062   4.429   5.231 -0.1630  0.9540  1.1803
 3653SOL    MW414380   5.002   4.481   5.195 -0.4230  0.2132  0.4527
 3654SOL     OW14381   1.716   2.463   6.255 -0.1950 -0.0431  0.4135
 3654SOL    HW214382   1.653   2.395   6.229 -0.4390 -0.5576  2.1888
 3654SOL    HW314383   1.798   2.436   6.215 -0.2626 -1.4816  1.1627
 3654SOL    MW414384   1.718   2.450   6.246 -0.2865  0.5135 -0.2835
 3655SOL     OW14385   0.462   6.158   4.901  0.1834  0.4825 -0.1378
 3655SOL    HW214386   0.396   6.179   4.967 -0.7585  0.2111 -0.9592
 3655SOL    HW314387   0.482   6.241   4.859 -2.9814  0.0767 -2.8748
 3655SOL    MW414388   0.456   6.172   4.904  0.2778 -0.1247  0.0625
 3656SOL     OW14389   2.723   6.252   3.910 -0.1531 -0.1142 -0.1121
 3656SOL    HW214390   2.685   6.180   3.859 -0.2091 -0.4925  0.4522
 3656SOL    HW314391   2.812   6.261   3.875  0.5593 -1.7987  1.1152
 3656SOL    MW414392   2.730   6.244   3.899  0.1335 -0.1132  0.0768
 3657SOL     OW14393   5.945   2.552   0.628  0.3205  0.0310 -0.2271
 3657SOL    HW214394   5.872   2.506   0.670  1.8671 -1.1940  1.2718
 3657SOL    HW314395   5.986   2.487   0.571  1.8538 -0.1963  1.0519
 3657SOL    MW414396   5.941   2.538   0.626 -0.6704  0.6189  0.0573
 3658SOL     OW14397   1.375   0.702   5.399 -0.7560  0.4216  0.3187
 3658SOL    HW214398   1.374   0.718   5.493  0.3507  0.4472  0.3378
 3658SOL    HW314399   1.462   0.730   5.371  0.4884 -3.2619 -0.0483
 3658SOL    MW414400   1.387   0.708   5.408  0.3453  0.1108 -0.6263
 3659SOL     OW14401   3.425   0.700   1.088 -0.2497  0.5898  0.1397
 3659SOL    HW214402   3.442   0.607   1.100 -1.1929  0.5954  1.8267
 3659SOL    HW314403   3.500   0.733   1.039  0.8916 -0.7355  0.9489
 3659SOL    MW414404   3.437   0.692   1.083  0.1976 -0.0283  0.4993
 3660SOL     OW14405   4.629   2.041   5.075  0.1028  0.3350  0.3363
 3660SOL    HW214406   4.559   2.056   5.140 -0.1425 -1.0230  0.4236
 3660SOL    HW314407   4.710   2.053   5.124  0.0426 -4.2371  2.0525
 3660SOL    MW414408   4.630   2.045   5.090 -0.5838 -0.5104  0.4483
 3661SOL     OW14409   2.287   1.292   1.059  0.0602 -0.3771 -0.0803
 3661SOL    HW214410   2.241   1.227   1.005  0.6291 -1.3334  0.5532
 3661SOL    HW314411   2.371   1.251   1.079  1.3299  1.4035 -1.3727
 3661SOL    MW414412   2.292   1.278   1.054 -0.4076  0.1487 -0.6174
 3662SOL     OW14413   1.271   0.005   5.999 -0.1796  0.0107 -0.4441
 3662SOL    HW214414   1.221   0.083   6.023  0.7879  0.4826  0.1061
 3662SOL    HW314415   1.341   0.038   5.943 -1.0919 -0.7828 -2.1212
 3662SOL    MW414416   1.274   0.020   5.995  1.0965  0.3826 -0.3124
 3663SOL     OW14417   3.545   5.699   0.681  0.1734  0.3333  0.5180
 3663SOL    HW214418   3.565   5.617   0.636  0.5128  1.4300 -1.4732
 3663SOL    HW314419   3.450   5.699   0.689  0.1472 -0.1232  0.2326
 3663SOL    MW414420   3.535   5.688   0.676 -0.5270  0.2699  0.3339
 3664SOL     OW14421   0.884   4.334   0.037 -0.1460 -0.2676 -0.6385
 3664SOL    HW214422   0.963   4.306   0.084 -0.5483 -2.3826 -1.0980
 3664SOL    HW314423   0.834   4.253   0.025 -2.8617  1.1174  0.4578
 3664SOL    MW414424   0.888   4.320   0.042 -0.2411 -0.2484  0.4799
 3665SOL     OW14425   2.124   0.430   1.078  0.4026 -0.1871 -0.7235
 3665SOL    HW214426   2.150   0.488   1.006  3.8619 -1.7840 -0.9895
 3665SOL    HW314427   2.075   0.360   1.035 -0.6814  0.7006 -0.9481
 3665SOL    MW414428   2.121   0.428   1.062  0.5026  0.8754  0.5006
 3666SOL     OW14429   4.707   2.474   2.198  0.2755  0.3006  0.7088
 3666SOL    HW214430   4.740   2.525   2.272 -0.2267 -0.5429  1.5456
 3666SOL    HW314431   4.620   2.446   2.227  0.0076  0.0969 -0.2791
 3666SOL    MW414432   4.700   2.477   2.212  0.1412  0.2109 -0.2099
 3667SOL     OW14433   5.490   5.701   0.158  0.0850 -0.4174 -0.0349
 3667SOL    HW214434   5.529   5.614   0.153  2.2637  0.4429  0.7680
 3667SOL    HW314435   5.545   5.755   0.100 -0.4786  0.6694  0.4171
 3667SOL    MW414436   5.503   5.697   0.149 -0.3551 -0.0932 -0.7241
 3668SOL     OW14437   5.910   6.050   0.314  0.4849  0.1457 -0.1532
 3668SOL    HW214438   5.895   6.003   0.233  0.2517 -1.8397  0.9736
 3668SOL    HW314439   5.884   6.140   0.296 -1.1153 -0.6016 -1.7909
 3668SOL    MW414440   5.905   6.056   0.301  0.0896  0.1436  0.3230
 3669SOL     OW14441   6.183   1.516   2.128 -0.0206  0.5166 -0.2590
 3669SOL    HW214442   6.088   1.512   2.133  0.0666 -1.0142  0.6829
 3669SOL    HW314443   6.201   1.537   2.036 -1.2507  0.7088 -0.4746
 3669SOL    MW414444   6.173   1.518   2.116 -0.6225  0.0393 -0.0920
 3670SOL     OW14445   3.241   3.060   2.824  0.3020  0.6475 -0.8769
 3670SOL    HW214446   3.199   3.074   2.909  2.9296 -0.4801  0.7429
 3670SOL    HW314447   3.311   3.125   2.821  1.7530 -0.8582 -1.0244
 3670SOL    MW414448   3.245   3.070   2.835  0.0824 -0.3922  0.0590
 3671SOL     OW14449   5.215   1.746   2.830  0.0043  0.0251 -0.0092
 3671SOL    HW214450   5.284   1.679   2.825 -2.3453 -2.5967  0.2101
 3671SOL    HW314451   5.203   1.761   2.923 -1.9230 -2.1486  0.1873
 3671SOL    MW414452   5.223   1.739   2.842 -0.3546  0.0515  0.1456
 3672SOL     OW14453   6.350   3.853   1.951  0.2952 -0.0947 -0.1770
 3672SOL    HW214454   6.260   3.836   1.923  0.4576  0.2798 -0.9593
 3672SOL    HW314455   6.403   3.797   1.895  0.5256 -0.6881  0.6211
 3672SOL    MW414456   6.345   3.843   1.940  0.3754  0.7288  0.0062
 3673SOL     OW14457   5.765   6.140   3.772  0.0090  0.2019 -0.1701
 3673SOL    HW214458   5.856   6.128   3.745  0.4312 -0.2152  1.3800
 3673SOL    HW314459   5.731   6.051   3.782 -0.8539  0.3353 -1.5517
 3673SOL    MW414460   5.772   6.127   3.769  0.3689 -0.3284  0.0041
 3674SOL     OW14461   4.192   2.542   1.042  0.4978  0.3868 -0.0678
 3674SOL    HW214462   4.176   2.471   0.980 -0.4851  1.0952 -0.6580
 3674SOL    HW314463   4.118   2.602   1.030  2.5917  2.8865 -1.4988
 3674SOL    MW414464   4.180   2.541   1.032 -0.1535  0.2602  0.4315
 3675SOL     OW14465   2.585   2.442   2.444  0.5642  0.0187  0.1785
 3675SOL    HW214466   2.676   2.449   2.414  0.2645  2.2207 -0.4020
 3675SOL    HW314467   2.534   2.487   2.377 -0.9737 -1.0998  0.5452
 3675SOL    MW414468   2.590   2.449   2.431  0.0952 -0.5569  0.0916
 3676SOL     OW14469   5.174   0.028   3.649  0.3449 -0.2750  0.0910
 3676SOL    HW214470   5.085   0.036   3.685  0.2780  0.8752 -0.3063
 3676SOL    HW314471   5.230   0.021   3.727  0.0853  1.0198  0.4189
 3676SOL    MW414472   5.169   0.028   3.664 -0.2659 -0.5137 -0.3718
 3677SOL     OW14473   5.004   1.601   1.674  0.0523  0.0094  0.4940
 3677SOL    HW214474   4.978   1.509   1.665 -0.4067  0.3070 -1.6776
 3677SOL    HW314475   5.093   1.597   1.709 -0.7276 -1.1565  2.5659
 3677SOL    MW414476   5.012   1.588   1.678 -0.2914  0.2223 -0.0016
 3678SOL     OW14477   3.519   3.108   1.938 -0.0741 -0.0172 -0.4446
 3678SOL    HW214478   3.496   3.103   2.031  2.3056  0.3721  0.2267
 3678SOL    HW314479   3.435   3.095   1.893 -1.4834  0.8315  1.7258
 3678SOL    MW414480   3.505   3.105   1.945 -0.5647  0.3337  0.1123
 3679SOL     OW14481   4.893   5.947   1.318  0.2111  0.2868 -1.2685
 3679SOL    HW214482   4.951   6.017   1.347 -1.0209  0.7756  0.1651
 3679SOL    HW314483   4.886   5.889   1.394  0.3762 -0.8396 -2.0915
 3679SOL    MW414484   4.900   5.949   1.332  0.2757 -0.0261 -0.2089
 3680SOL     OW14485   5.462   2.150   1.717  0.2917  0.1189 -0.1587
 3680SOL    HW214486   5.543   2.137   1.766 -1.2303 -0.9800  2.2692
 3680SOL    HW314487   5.489   2.151   1.626  3.0008 -0.3997  0.5521
 3680SOL    MW414488   5.476   2.149   1.712  0.4190 -0.1416 -0.0876
 3681SOL     OW14489   6.280   1.777   0.252  0.5688  0.1348  0.0715
 3681SOL    HW214490   6.337   1.783   0.176  1.0183 -2.1975  0.1524
 3681SOL    HW314491   6.195   1.807   0.220  1.4446  2.2889 -0.4250
 3681SOL    MW414492   6.276   1.782   0.238 -0.0303 -0.3567 -0.6524
 3682SOL     OW14493   6.366   3.983   4.571 -0.1064  0.0944 -0.0495
 3682SOL    HW214494   6.271   3.983   4.560 -0.0989  1.7567 -0.3520
 3682SOL    HW314495   6.400   4.019   4.490  0.8994 -1.6090 -0.4439
 3682SOL    MW414496   6.358   3.987   4.559  0.0954 -0.5615 -0.7459
 3683SOL     OW14497   2.249   0.709   3.751 -0.5039  0.4431 -0.5810
 3683SOL    HW214498   2.335   0.751   3.752 -0.4822  0.4587 -1.9982
 3683SOL    HW314499   2.204   0.748   3.677 -1.0160 -0.9764 -1.0558
 3683SOL    MW414500   2.255   0.719   3.742 -0.3605  0.4693  0.2043
 3684SOL     OW14501   2.407   5.442   4.855 -0.8670  0.5864 -0.5091
 3684SOL    HW214502   2.419   5.463   4.948 -1.3320 -0.1937 -0.2598
 3684SOL    HW314503   2.340   5.504   4.825 -0.7139  0.8419 -0.3255
 3684SOL    MW414504   2.400   5.453   4.863  0.3279 -0.1096  0.1124
 3685SOL     OW14505   1.243   5.421   5.741 -0.1606 -0.1368 -0.0188
 3685SOL    HW214506   1.287   5.374   5.671 -0.4847  0.3136 -0.5332
 3685SOL    HW314507   1.160   5.449   5.702 -0.2884  0.2220  0.5055
 3685SOL    MW414508   1.238   5.418   5.727 -0.1859 -0.0853  0.0654
 3686SOL     OW14509   3.873   5.557   5.709  0.2192 -0.2049 -0.9452
 3686SOL    HW214510   3.788   5.544   5.667  1.0001 -1.2767 -2.2748
 3686SOL    HW314511   3.877   5.651   5.727 -1.1454 -0.1071 -1.0355
 3686SOL    MW414512   3.863   5.568   5.706  0.1789 -0.4133 -0.9172
 3687SOL     OW14513   6.309   5.783   5.388 -0.0690  0.0112  0.2716
 3687SOL    HW214514   6.404   5.776   5.396  0.6177  2.8169 -2.9155
 3687SOL    HW314515   6.290   5.875   5.409 -1.9965 -0.3556  0.3128
 3687SOL    MW414516   6.319   5.795   5.391 -0.8170 -0.0450 -0.2954
 3688SOL     OW14517   3.838   4.590   1.297 -0.1522 -0.0139  0.2190
 3688SOL    HW214518   3.866   4.570   1.386  0.0743  0.9691  0.3805
 3688SOL    HW314519   3.743   4.600   1.304 -0.2164 -0.5902  0.2156
 3688SOL    MW414520   3.829   4.589   1.310 -0.4025 -0.2998  0.3566
 3689SOL     OW14521   1.821   4.248   0.278 -0.1933  0.4157 -0.3961
 3689SOL    HW214522   1.772   4.217   0.354  0.3551 -1.6795 -0.8270
 3689SOL    HW314523   1.855   4.168   0.237  1.3401  1.6199 -1.6208
 3689SOL    MW414524   1.819   4.233   0.283  0.3478  0.3932 -0.6233
 3690SOL     OW14525   0.619   1.013   1.718 -0.0911  1.0134 -0.0904
 3690SOL    HW214526   0.547   1.054   1.670 -0.0866  1.9662  0.6915
 3690SOL    HW314527   0.665   1.086   1.759  1.5286  0.4495 -0.8482
 3690SOL    MW414528   0.615   1.028   1.717 -0.1591  0.2318  0.3496
 3691SOL     OW14529   0.937   4.729   3.831 -0.0074 -0.0341 -0.5810
 3691SOL    HW214530   0.988   4.677   3.893 -0.8487 -0.6856 -0.4215
 3691SOL    HW314531   1.003   4.780   3.784  1.0082 -2.2654 -1.7474
 3691SOL    MW414532   0.953   4.729   3.833  0.5419  0.3419  0.4364
 3692SOL     OW14533   2.522   0.469   4.640 -0.3652  0.0893  0.5746
 3692SOL    HW214534   2.502   0.422   4.721 -1.2665  1.1490  0.9805
 3692SOL    HW314535   2.612   0.502   4.654  0.8065 -2.5218 -0.2354
 3692SOL    MW414536   2.531   0.467   4.653 -1.0005  0.2359  0.0968
 3693SOL     OW14537   0.271   4.998   3.709 -0.1874 -0.1420  0.5800
 3693SOL    HW214538   0.351   4.950   3.689 -0.3321  0.4317 -1.5697
 3693SOL    HW314539   0.262   4.991   3.804  2.7548  0.2978  0.9869
 3693SOL    MW414540   0.281   4.991   3.719  1.1194  0.0151 -0.0726
 3694SOL     OW14541   5.534   3.640   5.269  0.0823 -0.1983  0.3819
 3694SOL    HW214542   5.607   3.682   5.223 -0.0500  0.4219  0.7135
 3694SOL    HW314543   5.544   3.547   5.251 -0.5843  0.1012 -1.7895
 3694SOL    MW414544   5.545   3.634   5.260  0.1383  0.1560  0.3618
 3695SOL     OW14545   4.889   3.865   4.209  0.4268  0.1148 -0.5831
 3695SOL    HW214546   4.907   3.958   4.222 -0.5725  0.7758 -3.2342
 3695SOL    HW314547   4.974   3.822   4.223  0.7153  1.2452  1.5963
 3695SOL    MW414548   4.903   3.871   4.212 -0.0515  0.8263 -0.0396
 3696SOL     OW14549   5.704   3.577   2.592  0.2738  0.2325  0.5629
 3696SOL    HW214550   5.696   3.666   2.625 -2.1446 -0.2057  1.4204
 3696SOL    HW314551   5.755   3.585   2.512  1.4837  2.1337  1.4584
 3696SOL    MW414552   5.709   3.590   2.586  0.2849  0.0386 -0.4360
 3697SOL     OW14553   2.154   4.359   1.408 -0.2615 -0.1310 -0.0875
 3697SOL    HW214554   2.138   4.451   1.431 -0.9906 -0.6568  1.7375
 3697SOL    HW314555   2.249   4.354   1.397 -0.4052  1.3523 -2.9606
 3697SOL    MW414556   2.164   4.371   1.410  0.3792 -0.2618  0.8378
 3698SOL     OW14557   3.520   4.516   4.053 -0.3920  0.6365  0.1790
 3698SOL    HW214558   3.447   4.454   4.050 -0.5778  0.8919 -0.5958
 3698SOL    HW314559   3.552   4.521   3.963  0.0468  1.1715  0.3567
 3698SOL    MW414560   3.515   4.508   4.041 -0.0026 -0.1482 -0.1462
 3699SOL     OW14561   2.654   3.102   3.348  0.0684 -0.1241  0.4441
 3699SOL    HW214562   2.588   3.038   3.377  1.3898 -2.0064 -0.4652
 3699SOL    HW314563   2.737   3.055   3.357  1.2452  1.9842  1.0222
 3699SOL    MW414564   2.656   3.087   3.353 -0.3056  0.3279  0.8684
 3700SOL     OW14565   2.889   1.861   6.157  0.1518 -0.1293 -0.1548
 3700SOL    HW214566   2.883   1.866   6.253  0.4624  0.0010 -0.1420
 3700SOL    HW314567   2.948   1.787   6.140 -1.1234 -1.1570 -0.2778
 3700SOL    MW414568   2.896   1.852   6.168  0.1721 -0.5537  0.4589
 3701SOL     OW14569   2.405   2.355   4.369  0.0350 -0.1165 -0.2988
 3701SOL    HW214570   2.409   2.450   4.355 -1.3018 -0.0142 -0.1461
 3701SOL    HW314571   2.450   2.341   4.452 -0.0843  0.4322 -0.1363
 3701SOL    MW414572   2.411   2.366   4.378  0.0749  0.2575  0.4082
 3702SOL     OW14573   5.294   1.662   4.754  0.3925 -0.0382 -0.0333
 3702SOL    HW214574   5.310   1.607   4.677  0.3785  0.3461 -0.3160
 3702SOL    HW314575   5.234   1.611   4.808  0.8793 -0.5693  0.0120
 3702SOL    MW414576   5.288   1.648   4.751 -0.0737 -0.0530  0.5032
 3703SOL     OW14577   1.801   0.468   4.141 -0.2069 -0.5813  0.0801
 3703SOL    HW214578   1.893   0.459   4.114 -0.4754 -2.7983 -0.3238
 3703SOL    HW314579   1.802   0.450   4.235 -0.3668 -2.2188 -0.1958
 3703SOL    MW414580   1.813   0.464   4.149  0.1983 -0.0273 -0.5789
 3704SOL     OW14581   5.275   4.568   3.787 -0.4727  0.2676 -0.4343
 3704SOL    HW214582   5.238   4.657   3.787 -1.0724  0.0291 -0.2741
 3704SOL    HW314583   5.219   4.520   3.848  0.5956  0.0794  0.4141
 3704SOL    MW414584   5.263   4.573   3.795  0.2537  0.0975  0.3338
 3705SOL     OW14585   0.849   4.739   6.175 -0.1461  0.3800  0.1234
 3705SOL    HW214586   0.925   4.795   6.160 -0.0017  0.4895  1.2003
 3705SOL    HW314587   0.788   4.794   6.223 -0.8697  0.2487 -0.6178
 3705SOL    MW414588   0.851   4.753   6.179  0.4959 -0.3469  0.2571
 3706SOL     OW14589   4.728   3.749   2.459  0.3987  0.5443  0.8113
 3706SOL    HW214590   4.729   3.655   2.441  0.1097  0.3744  1.6686
 3706SOL    HW314591   4.636   3.770   2.472  0.5476  0.7514  1.5971
 3706SOL    MW414592   4.716   3.740   2.458  0.5139  0.1327  0.3484
 3707SOL     OW14593   1.002   3.326   4.788  0.1241  0.0034  0.5659
 3707SOL    HW214594   1.056   3.286   4.856  1.3185 -0.2502 -0.4670
 3707SOL    HW314595   1.025   3.277   4.708 -0.5727  0.8436 -0.1713
 3707SOL    MW414596   1.012   3.314   4.786  0.4076 -0.6371  0.5657
 3708SOL     OW14597   5.052   6.017   4.965 -0.1273 -0.6597 -0.1352
 3708SOL    HW214598   5.057   5.930   5.004  0.5620  0.0224  1.3832
 3708SOL    HW314599   5.116   6.015   4.894 -0.1841 -1.3996 -0.1786
 3708SOL    MW414600   5.061   6.005   4.961  1.2200 -0.0687 -0.1127
 3709SOL     OW14601   3.262   5.740   2.594  0.5636 -0.7855 -0.4126
 3709SOL    HW214602   3.336   5.703   2.546  1.1983  0.0174 -0.0666
 3709SOL    HW314603   3.296   5.820   2.633 -0.0717 -1.1592  0.9776
 3709SOL    MW414604   3.276   5.746   2.593  0.2343  0.1993 -0.0126
 3710SOL     OW14605   3.564   4.313   5.082  0.5629  0.0905  0.2381
 3710SOL    HW214606   3.534   4.361   5.005  0.8002  1.3649  0.9073
 3710SOL    HW314607   3.574   4.380   5.150 -0.7994 -1.1551  1.7596
 3710SOL    MW414608   3.562   4.328   5.081 -0.5535 -0.4905 -0.0652
 3711SOL     OW14609   3.334   3.880   4.545 -0.1919 -0.2240 -0.0566
 3711SOL    HW214610   3.377   3.809   4.498  0.0789 -1.2912  1.6952
 3711SOL    HW314611   3.402   3.947   4.555  0.0861 -0.4880 -0.1529
 3711SOL    MW414612   3.349   3.879   4.540  0.0372 -0.0665 -0.0032
 3712SOL     OW14613   4.083   4.423   4.685 -0.4098  0.0052  0.5508
 3712SOL    HW214614   4.122   4.345   4.644 -1.3103 -0.5611  0.7348
 3712SOL    HW314615   4.008   4.389   4.733 -2.1370  1.2498 -1.1238
 3712SOL    MW414616   4.078   4.408   4.686 -0.0554 -0.0726 -0.0163
 3713SOL     OW14617   1.513   6.225   4.938 -0.4274 -0.1980  0.0755
 3713SOL    HW214618   1.459   6.291   4.895 -1.0351 -1.7869 -1.7174
 3713SOL    HW314619   1.596   6.228   4.891 -0.9367 -1.6381 -0.9680
 3713SOL    MW414620   1.517   6.234   4.926  1.1868 -0.6474 -0.2182
 3714SOL     OW14621   0.648   4.253   3.365 -0.5059 -1.1266 -0.1352
 3714SOL    HW214622   0.715   4.213   3.311  0.5336  0.7096 -0.2782
 3714SOL    HW314623   0.662   4.347   3.356 -0.3280 -0.6951  3.2274
 3714SOL    MW414624   0.659   4.260   3.357  0.5974  0.0097 -0.1023
 3715SOL     OW14625   3.486   5.020   2.338 -0.0871 -0.4340  0.4309
 3715SOL    HW214626   3.522   5.001   2.251  0.4225  0.7134  0.3635
 3715SOL    HW314627   3.416   4.957   2.350  0.0115 -0.7817 -0.7078
 3715SOL    MW414628   3.482   5.009   2.328 -0.1611  0.5253  0.0314
 3716SOL     OW14629   5.670   6.332   2.288 -0.2292  0.3107  0.1060
 3716SOL    HW214630   5.577   6.348   2.302 -1.1109 -2.9154 -1.0672
 3716SOL    HW314631   5.678   6.315   2.194  0.9485 -2.1548  0.5546
 3716SOL    MW414632   5.659   6.332   2.277  0.6889 -0.1159  0.5272
 3717SOL     OW14633   4.667   6.303   0.275 -0.2833 -0.0377 -0.2657
 3717SOL    HW214634   4.589   6.318   0.328 -0.8366 -2.5781 -0.2358
 3717SOL    HW314635   4.641   6.233   0.214  1.7041 -0.3388 -0.8228
 3717SOL    MW414636   4.653   6.295   0.274 -0.2298 -0.4699 -0.2766
 3718SOL     OW14637   4.492   2.488   0.810  0.2075  0.5505  0.1371
 3718SOL    HW214638   4.435   2.564   0.802  0.3939  0.6439 -0.3715
 3718SOL    HW314639   4.472   2.435   0.732 -1.4305 -0.9653  1.4937
 3718SOL    MW414640   4.482   2.491   0.799 -0.1193  0.4201 -0.6672
 3719SOL     OW14641   5.865   6.125   1.137 -0.1428 -0.5169  0.0079
 3719SOL    HW214642   5.892   6.113   1.046  0.7418  1.5991 -0.0495
 3719SOL    HW314643   5.784   6.074   1.144  0.3345 -1.6007 -1.6383
 3719SOL    MW414644   5.858   6.117   1.125  0.3459 -0.2007  0.1653
 3720SOL     OW14645   2.815   2.491   2.879 -0.1557  0.3425 -0.2516
 3720SOL    HW214646   2.846   2.407   2.914 -1.9248 -0.7155 -1.1170
 3720SOL    HW314647   2.855   2.497   2.792 -1.8941 -0.8142 -1.1877
 3720SOL    MW414648   2.824   2.481   2.872  0.1258  0.3332  0.9391
 3721SOL     OW14649   3.148   4.460   4.209 -0.3942  0.1191  0.4308
 3721SOL    HW214650   3.146   4.513   4.289  0.7089  1.0834 -0.1370
 3721SOL    HW314651   3.076   4.495   4.156  0.2582  1.0180  0.1059
 3721SOL    MW414652   3.138   4.472   4.212 -0.4655  0.0786 -0.3638
 3722SOL     OW14653   3.030   4.805   4.856 -0.0285 -0.0412  0.0728
 3722SOL    HW214654   2.975   4.883   4.857 -0.1854 -0.1364 -0.5522
 3722SOL    HW314655   3.071   4.806   4.769 -0.4643 -0.9508 -0.1525
 3722SOL    MW414656   3.028   4.816   4.844  0.5630  0.1453 -0.3291
 3723SOL     OW14657   6.205   3.557   0.249  0.1855 -0.5158  0.0915
 3723SOL    HW214658   6.231   3.591   0.335 -0.9188  0.9328 -0.1192
 3723SOL    HW314659   6.263   3.482   0.236  1.5929  0.2771  1.3228
 3723SOL    MW414660   6.216   3.552   0.259 -0.6346 -0.4013  0.3162
 3724SOL     OW14661   0.229   0.785   4.774 -0.5147 -0.3658  0.4031
 3724SOL    HW214662   0.213   0.710   4.717 -0.8248  0.9750 -1.3855
 3724SOL    HW314663   0.309   0.825   4.740  0.6608 -0.8330  2.4495
 3724SOL    MW414664   0.237   0.780   4.762  0.1581 -0.0846 -0.1598
 3725SOL     OW14665   1.205   1.247   0.342  0.3568 -0.3731  0.0704
 3725SOL    HW214666   1.137   1.180   0.333  0.1047 -0.2993  1.2724
 3725SOL    HW314667   1.240   1.233   0.430 -0.0115  1.3428  0.5229
 3725SOL    MW414668   1.200   1.236   0.352 -0.2784 -0.2132  0.0799
 3726SOL     OW14669   4.204   2.303   5.849  0.1058 -0.1741  0.2830
 3726SOL    HW214670   4.283   2.335   5.804  0.7759 -1.1284  0.7376
 3726SOL    HW314671   4.194   2.361   5.924  0.4981 -0.1617  0.3303
 3726SOL    MW414672   4.213   2.315   5.853  0.0533 -0.2262  0.1757
 3727SOL     OW14673   3.046   1.819   5.060 -0.2969  0.2618  0.0767
 3727SOL    HW214674   3.008   1.758   5.124  0.8636 -1.8940 -1.1725
 3727SOL    HW314675   2.970   1.858   5.016 -1.0835 -1.0679  0.2127
 3727SOL    MW414676   3.031   1.816   5.063  0.5005  0.1968  0.2273
 3728SOL     OW14677   1.663   5.058   5.095 -0.0658  0.3405 -0.1891
 3728SOL    HW214678   1.631   5.032   5.182 -1.3305  0.3822 -0.6157
 3728SOL    HW314679   1.695   5.148   5.108  0.9056 -0.0832  0.4868
 3728SOL    MW414680   1.663   5.067   5.108 -0.1240  0.0935 -0.6401
 3729SOL     OW14681   2.439   4.041   2.629 -0.5806 -0.5606 -0.3591
 3729SOL    HW214682   2.471   3.954   2.655 -2.0220 -0.6962  1.1102
 3729SOL    HW314683   2.487   4.102   2.685  0.2155 -0.4167 -1.1841
 3729SOL    MW414684   2.449   4.038   2.640 -0.3283  0.7761  0.2196
 3730SOL     OW14685   5.921   4.372   3.015 -0.1964  0.5410 -0.2544
 3730SOL    HW214686   5.909   4.328   2.931 -1.6636 -0.3683  0.3985
 3730SOL    HW314687   5.888   4.460   3.002 -0.7685  0.2873 -0.5418
 3730SOL    MW414688   5.915   4.378   3.003 -0.2381  0.0371  0.0817
 3731SOL     OW14689   0.963   4.085   1.887 -0.2143 -0.2307 -0.4729
 3731SOL    HW214690   0.899   4.023   1.923 -0.9126  1.1297  0.7352
 3731SOL    HW314691   1.047   4.039   1.895 -0.6958 -0.9951  0.4953
 3731SOL    MW414692   0.966   4.071   1.893 -0.3411 -0.1860  0.6106
 3732SOL     OW14693   5.770   3.129   0.263 -0.4572 -0.2830  0.1744
 3732SOL    HW214694   5.839   3.062   0.259  0.4603  0.6785 -2.6024
 3732SOL    HW314695   5.701   3.096   0.205 -0.1738  0.8858 -0.8948
 3732SOL    MW414696   5.770   3.116   0.255  0.2853  0.2443  0.8301
 3733SOL     OW14697   5.783   4.248   0.953  1.0629  0.1927 -0.5026
 3733SOL    HW214698   5.757   4.200   0.875  0.5441  0.3293 -0.4175
 3733SOL    HW314699   5.848   4.192   0.996  0.0722 -0.6896 -0.1120
 3733SOL    MW414700   5.788   4.234   0.949 -0.1154  0.7590 -0.1727
 3734SOL     OW14701   5.693   1.614   4.642  0.4251 -0.1763  0.2198
 3734SOL    HW214702   5.765   1.666   4.605  0.6427 -1.3181 -1.0554
 3734SOL    HW314703   5.642   1.588   4.566 -1.6777  1.0176  1.1439
 3734SOL    MW414704   5.696   1.618   4.627 -0.4299  0.4321 -0.4528
 3735SOL     OW14705   6.238   0.106   1.285  0.3259 -0.3330 -0.0570
 3735SOL    HW214706   6.194   0.033   1.242  0.5915 -1.0560  0.8582
 3735SOL    HW314707   6.219   0.182   1.230  0.0874 -1.1000 -1.0569
 3735SOL    MW414708   6.230   0.107   1.272  0.0064 -0.1651  0.1714
 3736SOL     OW14709   0.296   6.202   3.619  0.0101 -0.1062  0.1074
 3736SOL    HW214710   0.237   6.136   3.581 -0.8197  0.5232  0.2737
 3736SOL    HW314711   0.332   6.160   3.697 -0.8311 -0.2189  0.4424
 3736SOL    MW414712   0.293   6.188   3.624  0.3082  0.0746 -0.1244
 3737SOL     OW14713   3.929   2.401   5.066 -0.0364 -0.2742 -0.1406
 3737SOL    HW214714   3.975   2.419   5.148  2.2478  0.0071 -1.4074
 3737SOL    HW314715   3.846   2.361   5.093  0.5251  0.0542  2.2863
 3737SOL    MW414716   3.924   2.398   5.080  0.1268  0.3554  0.5099
 3738SOL     OW14717   4.301   3.688   0.831 -0.0490  0.2447 -0.0044
 3738SOL    HW214718   4.226   3.741   0.858 -0.3594 -0.4083  0.4194
 3738SOL    HW314719   4.270   3.598   0.836  0.3827  0.0356 -1.0400
 3738SOL    MW414720   4.287   3.683   0.835  0.2939  0.7993  0.6099
 3739SOL     OW14721   2.100   4.224   6.100 -0.1529 -0.3906  0.1194
 3739SOL    HW214722   2.099   4.255   6.010 -3.5071  0.8180  0.4120
 3739SOL    HW314723   2.163   4.281   6.145 -1.6645  2.0284 -0.6476
 3739SOL    MW414724   2.108   4.236   6.094  0.0307 -0.2967 -0.4568
 3740SOL     OW14725   2.728   0.161   5.121  0.0140  0.2974 -0.4662
 3740SOL    HW214726   2.822   0.176   5.128  0.0004  0.8396 -1.3638
 3740SOL    HW314727   2.716   0.069   5.145  0.7833  0.1890 -0.4932
 3740SOL    MW414728   2.738   0.151   5.125 -0.1686  0.6287 -0.0069
 3741SOL     OW14729   3.535   1.826   2.668  0.1917  0.2144 -0.4104
 3741SOL    HW214730   3.568   1.876   2.743 -1.0277  0.2946  0.1042
 3741SOL    HW314731   3.500   1.893   2.608 -1.9102  0.0153  0.5109
 3741SOL    MW414732   3.535   1.842   2.670  0.8684  0.0066  0.1078
 3742SOL     OW14733   6.064   5.271   2.961  0.5337  0.3461 -0.5248
 3742SOL    HW214734   5.988   5.315   2.999  0.2271 -0.6391  0.0447
 3742SOL    HW314735   6.113   5.340   2.918  1.1231  1.6161  2.0095
 3742SOL    MW414736   6.060   5.286   2.960  0.1772  0.1856 -0.2405
 3743SOL     OW14737   4.070   0.704   2.458 -0.4918 -0.4339  0.2470
 3743SOL    HW214738   4.088   0.680   2.549 -0.9707  0.7215  0.6568
 3743SOL    HW314739   4.156   0.700   2.415 -0.4161 -1.9660  0.4936
 3743SOL    MW414740   4.084   0.700   2.464  0.3653  0.6469 -0.5078
 3744SOL     OW14741   5.512   1.001   2.535  0.0600 -0.2945  0.4630
 3744SOL    HW214742   5.606   0.987   2.531  0.3593  1.1509  1.5194
 3744SOL    HW314743   5.493   1.011   2.629 -0.9040  0.8253  0.1736
 3744SOL    MW414744   5.522   1.001   2.547  0.5108 -0.6804  0.3779
 3745SOL     OW14745   4.857   0.776   1.621  0.0012  0.7213  0.4355
 3745SOL    HW214746   4.919   0.727   1.676  2.2477  2.1830 -0.6446
 3745SOL    HW314747   4.842   0.719   1.546  0.4946  0.5643  0.4486
 3745SOL    MW414748   4.863   0.762   1.619  0.4165  0.0283 -0.0116
 3746SOL     OW14749   5.346   5.712   0.649 -0.5758 -0.2201  0.2329
 3746SOL    HW214750   5.357   5.663   0.568 -0.4274  0.7624 -0.3590
 3746SOL    HW314751   5.307   5.796   0.622 -0.2815  0.2282  1.1368
 3746SOL    MW414752   5.342   5.717   0.635 -0.3251  0.0634  0.2286
 3747SOL     OW14753   3.159   2.802   4.574  0.2456  0.1209 -0.2765
 3747SOL    HW214754   3.096   2.869   4.548  1.2461  1.7449  1.2451
 3747SOL    HW314755   3.197   2.834   4.656  0.4546 -2.5672  0.7860
 3747SOL    MW414756   3.156   2.815   4.581  0.2104 -0.7241 -0.8279
 3748SOL     OW14757   0.692   4.072   2.284  0.3287  0.9006  0.0567
 3748SOL    HW214758   0.734   4.026   2.357 -0.5570 -0.2492 -0.1305
 3748SOL    HW314759   0.751   4.145   2.265  2.0946 -0.4622 -0.0069
 3748SOL    MW414760   0.705   4.075   2.291  0.1087 -0.0768 -0.5823
 3749SOL     OW14761   4.388   0.041   5.263 -0.3977  0.1824  0.3164
 3749SOL    HW214762   4.442   0.032   5.342  0.4036 -0.6681 -0.3031
 3749SOL    HW314763   4.410  -0.035   5.210 -1.0481  0.6526 -0.6635
 3749SOL    MW414764   4.398   0.030   5.266  0.0512 -0.6204  0.1073
 3750SOL     OW14765   5.832   3.567   1.486 -0.5795 -0.7588  0.4764
 3750SOL    HW214766   5.804   3.490   1.535  0.9751 -1.2298  0.6772
 3750SOL    HW314767   5.855   3.630   1.554 -1.0302 -0.4068  0.3113
 3750SOL    MW414768   5.831   3.565   1.502 -0.1617  0.1697 -0.1686
 3751SOL     OW14769   1.095   3.698   1.633  0.2284  0.3052  0.3727
 3751SOL    HW214770   1.086   3.623   1.574  2.5953  1.2203 -1.2897
 3751SOL    HW314771   1.183   3.689   1.670  0.3539  1.9674  0.5437
 3751SOL    MW414772   1.105   3.687   1.630  0.0363  0.1209  0.2227
 3752SOL     OW14773   1.630   3.922   3.553 -0.5456  0.1921 -0.1336
 3752SOL    HW214774   1.651   3.964   3.636  0.9391  0.4848 -0.6389
 3752SOL    HW314775   1.594   3.993   3.500 -0.3547  0.2759 -0.1514
 3752SOL    MW414776   1.628   3.937   3.557 -0.2632 -0.6695 -0.3494
 3753SOL     OW14777   1.224   1.304   2.274  0.1493 -0.4249 -0.5786
 3753SOL    HW214778   1.183   1.386   2.303  2.9440  0.7613  0.3274
 3753SOL    HW314779   1.185   1.237   2.330 -0.3608  0.6588  0.4234
 3753SOL    MW414780   1.213   1.306   2.285 -0.2602  0.6609  0.0398
 3754SOL     OW14781   0.696   1.288   0.736 -0.0276 -0.2567 -0.2063
 3754SOL    HW214782   0.632   1.318   0.671 -0.0377  1.5212  0.5568
 3754SOL    HW314783   0.643   1.256   0.809 -0.0678  0.5752  0.1430
 3754SOL    MW414784   0.681   1.288   0.737  0.3125  0.0679  0.1651
 3755SOL     OW14785   1.240   5.311   3.172 -0.6210  0.2492  0.3864
 3755SOL    HW214786   1.335   5.309   3.157 -0.6426 -0.1454  0.2986
 3755SOL    HW314787   1.229   5.271   3.258 -0.9136 -2.0834 -0.6640
 3755SOL    MW414788   1.251   5.306   3.181  0.2695  0.2279  0.1038
 3756SOL     OW14789   6.205   3.128   0.789  0.7185  0.3069 -0.4242
 3756SOL    HW214790   6.192   3.177   0.870  0.8826  0.8532 -0.7205
 3756SOL    HW314791   6.199   3.194   0.720  1.9459  0.0870 -0.7694
 3756SOL    MW414792   6.202   3.143   0.790  0.2268 -0.2376 -0.1162
 3757SOL     OW14793   0.911   2.796   6.034 -0.1894  0.2634  0.0996
 3757SOL    HW214794   0.908   2.717   5.980 -3.3328  0.3078  0.0502
 3757SOL    HW314795   0.911   2.868   5.970  2.3638  0.3893  0.1500
 3757SOL    MW414796   0.911   2.795   6.018 -0.5392  0.0006  0.0603
 3758SOL     OW14797   3.526   1.292   2.147  0.2504 -0.5554 -1.1318
 3758SOL    HW214798   3.532   1.202   2.114  0.7517 -1.9009  2.1407
 3758SOL    HW314799   3.459   1.287   2.215  0.8586  1.3357 -0.3407
 3758SOL    MW414800   3.518   1.279   2.152 -0.9216  0.4280  0.4492
 3759SOL     OW14801   6.030   5.226   3.666  0.4409  0.1487  0.3088
 3759SOL    HW214802   6.083   5.179   3.730  1.1318  0.5831  0.0639
 3759SOL    HW314803   6.063   5.197   3.581 -1.6979 -1.8588  0.0591
 3759SOL    MW414804   6.041   5.216   3.663 -0.4061 -0.4155  0.5828
 3760SOL     OW14805   0.150   0.249   6.238  0.5182 -0.0383 -0.5879
 3760SOL    HW214806   0.225   0.290   6.281  1.3872 -0.3152 -1.7713
 3760SOL    HW314807   0.123   0.313   6.171  0.7957 -0.6462 -1.2993
 3760SOL    MW414808   0.157   0.263   6.235 -0.4715  0.7345  0.6457
 3761SOL     OW14809   2.591   5.401   1.950 -0.4111  0.6505 -0.1579
 3761SOL    HW214810   2.633   5.401   2.036  2.5875  1.1762 -1.4703
 3761SOL    HW314811   2.577   5.309   1.929  0.4535  0.4288  0.2038
 3761SOL    MW414812   2.595   5.389   1.959  0.0756  0.0768  0.1580
 3762SOL     OW14813   4.154   3.852   4.886 -0.1395 -0.1830  0.3175
 3762SOL    HW214814   4.193   3.806   4.812 -0.1423 -1.9809  1.3835
 3762SOL    HW314815   4.178   3.944   4.873  1.4654 -0.7417 -0.9044
 3762SOL    MW414816   4.163   3.858   4.875  0.0280  0.1128 -0.2600
 3763SOL     OW14817   3.126   2.037   5.202  0.1502 -0.6511 -0.5959
 3763SOL    HW214818   3.091   1.957   5.161 -1.7515  0.3337 -0.9991
 3763SOL    HW314819   3.062   2.058   5.271  2.0400 -0.9357  1.3575
 3763SOL    MW414820   3.113   2.029   5.206  0.1435  0.4536 -0.0325
 3764SOL     OW14821   1.992   0.297   4.928  0.3618 -0.3354 -0.1363
 3764SOL    HW214822   2.031   0.342   5.003 -1.0463  0.3631  0.1986
 3764SOL    HW314823   1.942   0.225   4.966  0.7095 -0.7833 -0.5100
 3764SOL    MW414824   1.991   0.294   4.943  0.1083 -0.1379  0.7935
 3765SOL     OW14825   0.382   1.340   3.841 -0.0226  0.6081  0.3402
 3765SOL    HW214826   0.386   1.244   3.840  0.2662  0.5885 -1.9006
 3765SOL    HW314827   0.472   1.367   3.859  1.0218  0.3543 -3.6647
 3765SOL    MW414828   0.394   1.331   3.844 -0.3476  0.2493 -0.3529
 3766SOL     OW14829   3.433   0.729   2.931  0.1706 -0.4175  0.0747
 3766SOL    HW214830   3.498   0.740   3.000  0.5787 -2.8901  0.1963
 3766SOL    HW314831   3.482   0.741   2.849 -0.2294  2.1181  0.1418
 3766SOL    MW414832   3.448   0.732   2.929 -0.8574 -0.1213  0.6859
 3767SOL     OW14833   5.099   6.362   2.818 -0.2841  0.4738  0.6142
 3767SOL    HW214834   5.190   6.361   2.850  0.4593 -0.9010 -1.3254
 3767SOL    HW314835   5.089   6.449   2.779  1.1122 -0.1700 -1.3664
 3767SOL    MW414836   5.110   6.374   2.817 -0.0625 -0.1575 -0.4958
 3768SOL     OW14837   4.642   6.086   0.098 -0.2596 -0.1938 -0.0573
 3768SOL    HW214838   4.642   6.004   0.147 -0.8522  0.2537  0.7227
 3768SOL    HW314839   4.662   6.060   0.008  1.6473 -0.9500  0.5337
 3768SOL    MW414840   4.644   6.072   0.092  0.0740  0.0261  0.3825
 3769SOL     OW14841   1.799   0.081   5.654  0.0071  0.5808  0.3316
 3769SOL    HW214842   1.771  -0.002   5.693 -1.7846  0.3691 -1.2397
 3769SOL    HW314843   1.894   0.075   5.649 -0.1847 -2.4093 -1.8144
 3769SOL    MW414844   1.808   0.069   5.659 -0.7584  0.1448  0.1697
 3770SOL     OW14845   6.004   1.697   5.683  0.3516  0.1813 -0.4315
 3770SOL    HW214846   6.095   1.671   5.666  0.9287  2.5998 -1.4893
 3770SOL    HW314847   6.008   1.742   5.767 -0.1580 -0.9089  0.1888
 3770SOL    MW414848   6.017   1.699   5.691  0.2093  0.1192 -0.2452
 3771SOL     OW14849   1.295   5.348   6.265 -0.2591  0.2316  0.2145
 3771SOL    HW214850   1.239   5.287   6.313  0.3736  1.2725  2.4022
 3771SOL    HW314851   1.291   5.318   6.174 -1.3899 -1.9414  0.9151
 3771SOL    MW414852   1.287   5.336   6.259  0.0307  0.4738  0.3331
 3772SOL     OW14853   3.902   5.080   3.097 -0.0704  0.2698  0.0205
 3772SOL    HW214854   3.878   5.021   3.026  0.4853  0.1670 -0.0881
 3772SOL    HW314855   3.998   5.078   3.098  0.0267 -2.4345  2.9391
 3772SOL    MW414856   3.911   5.072   3.088  1.2614 -0.3302  0.0332
 3773SOL     OW14857   5.158   3.962   0.711  0.2369 -0.0049  0.0827
 3773SOL    HW214858   5.178   3.879   0.754  0.0734 -0.1837 -0.1810
 3773SOL    HW314859   5.081   3.942   0.656  1.1042 -0.0715 -1.1477
 3773SOL    MW414860   5.150   3.948   0.709  0.1529  0.1181 -0.2766
 3774SOL     OW14861   0.859   1.866   3.621  0.2427  0.6013 -0.5854
 3774SOL    HW214862   0.915   1.816   3.680  0.7341  1.1031 -0.6251
 3774SOL    HW314863   0.908   1.947   3.603 -0.8047  1.3911 -0.0193
 3774SOL    MW414864   0.873   1.870   3.627 -0.3367 -0.0045 -0.5077
 3775SOL     OW14865   1.767   5.519   1.050  0.3396 -0.1753  0.0966
 3775SOL    HW214866   1.745   5.505   0.958 -0.7517 -3.2991  0.6986
 3775SOL    HW314867   1.685   5.547   1.090  0.2341 -0.9980  0.4704
 3775SOL    MW414868   1.753   5.521   1.043 -0.2752 -0.1340 -0.2279
 3776SOL     OW14869   5.649   4.918   4.205  0.2883 -0.1389  0.0621
 3776SOL    HW214870   5.709   4.929   4.130  0.5194  1.7305  0.4734
 3776SOL    HW314871   5.582   4.858   4.173  1.2505 -0.6326 -1.1134
 3776SOL    MW414872   5.648   4.912   4.191 -0.3745 -0.4048  0.6014
 3777SOL     OW14873   0.424   4.131   5.058 -0.2919 -0.5220 -0.0813
 3777SOL    HW214874   0.466   4.173   5.132  1.3040 -0.7788 -0.8070
 3777SOL    HW314875   0.348   4.186   5.039 -0.5129 -0.2422  1.4734
 3777SOL    MW414876   0.419   4.144   5.065 -0.0028  0.4924 -0.3850
 3778SOL     OW14877   1.844   1.790   2.516 -0.2093 -0.0767 -0.2453
 3778SOL    HW214878   1.896   1.775   2.595  0.9695  0.4899 -0.8870
 3778SOL    HW314879   1.822   1.702   2.485  1.4054 -0.3737 -0.6117
 3778SOL    MW414880   1.848   1.776   2.523 -0.5786  0.4102  0.1683
 3779SOL     OW14881   1.143   4.298   2.026  0.2027  0.7414 -0.1423
 3779SOL    HW214882   1.235   4.289   2.001 -0.2557 -1.3599 -1.3006
 3779SOL    HW314883   1.130   4.393   2.034  2.1423  1.1605 -1.1698
 3779SOL    MW414884   1.154   4.309   2.024 -0.2402 -0.3327  0.0103
 3780SOL     OW14885   5.680   5.976   3.230  0.5278  0.8729  0.2202
 3780SOL    HW214886   5.591   5.981   3.266  0.8831  0.7923  1.1323
 3780SOL    HW314887   5.670   5.928   3.148 -0.1653  0.2432  0.6678
 3780SOL    MW414888   5.667   5.971   3.224 -0.0191 -0.0550  0.5648
 3781SOL     OW14889   4.523   4.755   6.145 -0.8277  0.0559 -0.2610
 3781SOL    HW214890   4.522   4.772   6.051  0.5109 -1.3100 -0.5610
 3781SOL    HW314891   4.595   4.693   6.158  0.5245  1.9202  1.9683
 3781SOL    MW414892   4.533   4.749   6.134 -0.5295 -0.2265 -0.1379
 3782SOL     OW14893   5.612   1.739   1.148  0.5464 -0.6767 -0.6113
 3782SOL    HW214894   5.556   1.789   1.089  2.0406  1.7044 -0.1440
 3782SOL    HW314895   5.593   1.774   1.235  1.4959 -1.0636 -0.2312
 3782SOL    MW414896   5.602   1.750   1.151  0.0059  0.2344 -0.2444
 3783SOL     OW14897   1.838   0.491   0.854  0.2120  0.0175  0.1131
 3783SOL    HW214898   1.898   0.563   0.874  1.5029 -0.9810  0.0030
 3783SOL    HW314899   1.808   0.510   0.765  0.5743  0.4036  0.0659
 3783SOL    MW414900   1.842   0.503   0.845 -0.0755  0.1563  0.1619
 3784SOL     OW14901   3.006   3.573   5.406 -0.5196  0.0541  0.2776
 3784SOL    HW214902   2.965   3.520   5.337 -1.7409  0.8541  0.3558
 3784SOL    HW314903   3.012   3.661   5.369 -0.5092  0.3284  0.9148
 3784SOL    MW414904   3.001   3.577   5.392  0.1897 -0.0629  0.4083
 3785SOL     OW14905   1.129   1.915   1.373  0.1587 -0.4155  0.6160
 3785SOL    HW214906   1.095   1.874   1.452 -2.5379  1.8957  0.8245
 3785SOL    HW314907   1.195   1.977   1.404  0.3821 -0.7657  0.8472
 3785SOL    MW414908   1.133   1.918   1.388  0.3290 -0.2824  0.1713
 3786SOL     OW14909   0.096   5.754   2.060  0.4173  0.0044 -0.3281
 3786SOL    HW214910   0.089   5.847   2.037  1.0612  0.6631  1.8603
 3786SOL    HW314911   0.189   5.740   2.076  0.0522 -0.3050  1.8484
 3786SOL    MW414912   0.107   5.765   2.059  0.2054  0.6468 -0.4871
 3787SOL     OW14913   1.997   3.912   2.629 -0.3030  0.1182 -0.2446
 3787SOL    HW214914   2.045   3.990   2.658 -1.6244  0.3692  1.3685
 3787SOL    HW314915   2.065   3.844   2.623  1.0820  1.5461 -2.7238
 3787SOL    MW414916   2.013   3.913   2.632 -0.3230 -0.1878 -0.7757
 3788SOL     OW14917   2.160   6.368   1.281  0.4170 -0.1588 -0.5770
 3788SOL    HW214918   2.229   6.302   1.270  0.6816  0.1626 -0.8815
 3788SOL    HW314919   2.079   6.321   1.262  0.7453  0.0238 -2.6580
 3788SOL    MW414920   2.158   6.353   1.277  0.3149 -0.1821 -0.5306
 3789SOL     OW14921   1.424   2.072   1.888 -0.0837 -0.1015  0.2089
 3789SOL    HW214922   1.479   2.056   1.965  1.2025 -0.7913 -0.8302
 3789SOL    HW314923   1.423   2.168   1.880  1.2583 -0.0819  0.0551
 3789SOL    MW414924   1.431   2.083   1.897 -0.8126  0.4763 -0.5054
 3790SOL     OW14925   0.235   1.730   1.504  0.0845  0.2829 -0.0899
 3790SOL    HW214926   0.241   1.826   1.498  0.9374  0.4059  1.9716
 3790SOL    HW314927   0.181   1.705   1.429 -2.1825  2.6001  0.6117
 3790SOL    MW414928   0.229   1.740   1.493  0.3857 -0.3103 -0.2409
 3791SOL     OW14929   3.427  -0.002   2.214  0.4189  0.2093 -0.5120
 3791SOL    HW214930   3.499  -0.005   2.277 -0.2000  0.8121  0.2399
 3791SOL    HW314931   3.451  -0.067   2.148  1.3008 -0.1133  0.1015
 3791SOL    MW414932   3.440  -0.011   2.214  0.6456  0.4126  0.3534
 3792SOL     OW14933   4.233   1.313   6.395 -0.2981  0.1028 -0.1936
 3792SOL    HW214934   4.297   1.268   6.450 -0.0440 -0.3209 -0.8222
 3792SOL    HW314935   4.278   1.325   6.312 -0.8532  0.2853 -0.4670
 3792SOL    MW414936   4.247   1.309   6.392 -0.0963 -0.1073  0.0137
 3793SOL     OW14937   3.515   5.520   1.393  0.3383 -0.5813 -0.2726
 3793SOL    HW214938   3.527   5.588   1.459  0.7002  1.1743 -2.0683
 3793SOL    HW314939   3.543   5.440   1.436  4.5428  1.0610  0.4775
 3793SOL    MW414940   3.520   5.518   1.407 -0.0973  0.3349 -0.5191
 3794SOL     OW14941   2.911   5.118   1.376  0.5185 -0.1012  0.1893
 3794SOL    HW214942   2.835   5.105   1.319  0.6348  0.3450 -0.0736
 3794SOL    HW314943   2.979   5.154   1.318  0.7892 -0.0833  0.5125
 3794SOL    MW414944   2.910   5.121   1.361 -0.3733  0.2040  0.3953
 3795SOL     OW14945   1.816   2.412   0.088  0.3832 -0.1098  0.1452
 3795SOL    HW214946   1.753   2.460   0.142  0.5618 -1.2858  1.4648
 3795SOL    HW314947   1.780   2.416  -0.001 -0.0100  1.7366  0.3474
 3795SOL    MW414948   1.803   2.419   0.083  0.6649 -0.1268  0.0583
 3796SOL     OW14949   2.215   0.050   2.279  0.2347  0.4554  0.5310
 3796SOL    HW214950   2.216   0.071   2.186  1.5629  1.1706  0.6691
 3796SOL    HW314951   2.164  -0.030   2.286 -0.1692  0.5799 -0.7650
 3796SOL    MW414952   2.208   0.042   2.268 -0.3147  0.9080 -0.0261
 3797SOL     OW14953   3.026   6.113   5.994  0.1946  0.9279 -0.1865
 3797SOL    HW214954   3.093   6.098   5.928  0.3998 -0.0429  0.2250
 3797SOL    HW314955   2.945   6.124   5.944  0.3081 -0.0276 -0.6009
 3797SOL    MW414956   3.024   6.112   5.979  0.6646 -0.4328 -0.0074
 3798SOL     OW14957   1.233   2.019   6.125  0.1634  0.0877 -0.1266
 3798SOL    HW214958   1.162   2.005   6.187 -0.0378  0.0919 -0.3536
 3798SOL    HW314959   1.211   2.101   6.081  0.0123 -0.2023 -0.5971
 3798SOL    MW414960   1.221   2.028   6.127 -0.1429  0.3715 -0.0920
 3799SOL     OW14961   6.387   1.994   2.346  0.4134 -0.0727  0.0053
 3799SOL    HW214962   6.340   1.916   2.317  0.6053 -0.1832 -0.0081
 3799SOL    HW314963   6.320   2.062   2.351  0.4644  0.0801 -1.1855
 3799SOL    MW414964   6.372   1.993   2.343 -0.6147 -0.8196  0.6996
 3800SOL     OW14965   5.470   2.899   4.257 -0.4156  0.0685  0.3823
 3800SOL    HW214966   5.480   2.888   4.163 -0.0370 -2.2090  0.6374
 3800SOL    HW314967   5.375   2.907   4.270 -0.6471 -1.5548 -0.0673
 3800SOL    MW414968   5.458   2.899   4.246 -0.1395  0.0188 -0.0884
 3801SOL     OW14969   1.435   4.523   6.280 -0.8406  0.4220 -0.2359
 3801SOL    HW214970   1.347   4.561   6.282 -0.7202  0.6703  0.7621
 3801SOL    HW314971   1.422   4.429   6.292 -0.9794  0.4324 -0.3070
 3801SOL    MW414972   1.422   4.516   6.282  0.4736 -0.5481 -0.5146
 3802SOL     OW14973   1.969   2.230   5.837 -0.0945 -0.6326 -0.0316
 3802SOL    HW214974   2.024   2.246   5.760 -2.0600  0.8646 -1.2447
 3802SOL    HW314975   1.955   2.136   5.837  0.3935 -0.7315 -1.1946
 3802SOL    MW414976   1.975   2.220   5.827 -0.2326 -0.3556  1.0403
 3803SOL     OW14977   4.790   4.262   4.562 -0.3364  0.0295  0.2421
 3803SOL    HW214978   4.709   4.221   4.533 -0.3907 -0.4467  1.0228
 3803SOL    HW314979   4.776   4.356   4.550 -1.0694 -0.0427  0.5288
 3803SOL    MW414980   4.778   4.269   4.557  0.4093  0.2929  0.9012
 3804SOL     OW14981   3.632   2.935   3.841 -0.3988  0.1094  0.2365
 3804SOL    HW214982   3.563   2.873   3.819  0.5239 -0.9363  0.1852
 3804SOL    HW314983   3.699   2.882   3.885 -0.3037  1.3626  1.7158
 3804SOL    MW414984   3.632   2.920   3.844  0.1072 -0.3845 -0.1627
 3805SOL     OW14985   0.574   4.101   0.907 -0.5205  0.8787 -0.0247
 3805SOL    HW214986   0.550   4.016   0.869 -2.8577  0.9487  1.1626
 3805SOL    HW314987   0.662   4.118   0.872 -0.6971 -1.1828 -1.6889
 3805SOL    MW414988   0.583   4.092   0.897 -0.6779 -0.3315 -0.2524
 3806SOL     OW14989   0.318   6.011   1.813  0.0279  0.4128 -0.4232
 3806SOL    HW214990   0.230   6.010   1.775 -0.0453 -1.6551 -0.3501
 3806SOL    HW314991   0.372   6.059   1.750 -1.0958  1.5370 -0.5612
 3806SOL    MW414992   0.313   6.017   1.800  0.1373 -0.3827 -0.2403
 3807SOL     OW14993   0.222   0.641   2.103 -0.3684 -0.0326  0.1402
 3807SOL    HW214994   0.154   0.687   2.053  0.7739  1.2685 -0.2632
 3807SOL    HW314995   0.274   0.597   2.037  0.4021  0.6743  0.2625
 3807SOL    MW414996   0.220   0.642   2.087 -0.2034  0.7171  0.2735
 3808SOL     OW14997   6.388   4.610   1.593  0.1670 -0.0795 -0.0457
 3808SOL    HW214998   6.400   4.665   1.515  1.1321  0.2355  0.3157
 3808SOL    HW314999   6.392   4.520   1.559  1.7810  0.0329 -0.2206
 3808SOL    MW415000   6.390   4.605   1.578 -0.6642  0.3483  0.4058
 3809SOL     OW15001   5.065   5.120   1.512 -0.3559 -0.0151 -0.1443
 3809SOL    HW215002   5.043   5.063   1.438  0.4399  1.5721 -1.6636
 3809SOL    HW315003   5.157   5.101   1.530 -0.5879 -0.5133  0.5898
 3809SOL    MW415004   5.074   5.110   1.505  0.5176  0.0544 -0.5540
 3810SOL     OW15005   3.096   1.187   2.562 -0.9133  0.0873 -0.0157
 3810SOL    HW215006   3.147   1.119   2.606  2.3066  1.7985 -0.7679
 3810SOL    HW315007   3.104   1.167   2.469 -1.6088  0.4345 -0.1610
 3810SOL    MW415008   3.104   1.175   2.555  0.1154  0.4495 -0.6457
 3811SOL     OW15009   4.798   4.538   2.796 -0.5991 -0.0930 -0.5892
 3811SOL    HW215010   4.721   4.493   2.830 -1.7979  0.4895 -2.3644
 3811SOL    HW315011   4.801   4.512   2.703  1.3683 -0.1129 -0.5593
 3811SOL    MW415012   4.788   4.529   2.788  0.3830  0.3814 -0.4219
 3812SOL     OW15013   6.270   0.236   5.491  0.2739 -0.3126  0.2075
 3812SOL    HW215014   6.325   0.197   5.422  0.9722  1.1326 -0.0791
 3812SOL    HW315015   6.184   0.246   5.450  0.0638 -1.5192  0.2922
 3812SOL    MW415016   6.266   0.232   5.476 -1.1185 -0.0394 -0.2632
 3813SOL     OW15017   0.604   5.886   6.014 -0.5306  0.2091 -0.3111
 3813SOL    HW215018   0.695   5.903   5.991 -0.4878  0.8946  0.3395
 3813SOL    HW315019   0.571   5.832   5.942  0.1593  0.6237 -0.9490
 3813SOL    MW415020   0.612   5.881   6.002  0.2821 -0.7059 -0.2456
 3814SOL     OW15021   3.560   5.278   6.209 -0.0907  0.2812 -0.1446
 3814SOL    HW215022   3.526   5.271   6.299  0.1808  1.3656  0.0574
 3814SOL    HW315023   3.485   5.307   6.157 -0.2607 -0.3951 -0.2848
 3814SOL    MW415024   3.546   5.281   6.214  0.5534  0.3433  0.1492
 3815SOL     OW15025   6.209   1.231   2.355 -0.1459 -0.1229  0.4616
 3815SOL    HW215026   6.299   1.202   2.343 -1.0954 -2.9365 -0.7627
 3815SOL    HW315027   6.165   1.157   2.397 -2.2241  0.5460 -0.3949
 3815SOL    MW415028   6.215   1.217   2.359  0.0389 -0.2391  0.1838
 3816SOL     OW15029   6.241   5.107   0.043  0.0156  0.3306  0.4106
 3816SOL    HW215030   6.180   5.040   0.014 -1.3310  1.8044 -0.2606
 3816SOL    HW315031   6.279   5.141  -0.038 -0.1761  1.1647  0.6679
 3816SOL    MW415032   6.238   5.102   0.029  0.1776 -0.1622 -0.7330
 3817SOL     OW15033   2.246   3.667   1.238  0.1966 -0.2073  0.1164
 3817SOL    HW215034   2.224   3.640   1.328 -0.7955  1.0821  0.2897
 3817SOL    HW315035   2.327   3.717   1.247 -0.7247  1.2848  0.5706
 3817SOL    MW415036   2.254   3.670   1.251  0.8997  0.1129  0.0591
 3818SOL     OW15037   4.143   1.386   3.947  0.2376  0.3457  0.2059
 3818SOL    HW215038   4.224   1.361   3.992  0.8393 -0.0872 -1.0608
 3818SOL    HW315039   4.093   1.305   3.941  1.2471 -0.1809 -2.0142
 3818SOL    MW415040   4.147   1.372   3.952 -0.0448 -0.0052 -0.1398
 3819SOL     OW15041   1.105   0.428   2.065  0.1227  0.2039  0.5367
 3819SOL    HW215042   1.189   0.473   2.057  0.7610 -0.8866  0.8160
 3819SOL    HW315043   1.050   0.488   2.116  0.6719  1.0058  0.2031
 3819SOL    MW415044   1.109   0.442   2.071  0.1313 -0.0022 -0.1342
 3820SOL     OW15045   4.583   1.466   6.402 -0.3632 -0.1934  0.1072
 3820SOL    HW215046   4.634   1.540   6.435  0.0414  0.1689 -1.2406
 3820SOL    HW315047   4.492   1.496   6.406 -0.2715  0.0647  0.3239
 3820SOL    MW415048   4.578   1.480   6.407  0.1874 -0.1324 -0.7377
 3821SOL     OW15049   5.832   5.864   5.322  0.1842  0.3828  0.5942
 3821SOL    HW215050   5.830   5.949   5.365  2.4574  1.1326 -0.6207
 3821SOL    HW315051   5.823   5.883   5.229  0.7266 -0.6801  0.3053
 3821SOL    MW415052   5.831   5.877   5.316 -0.2559  0.3946  0.1054
 3822SOL     OW15053   0.158   2.427   3.531 -0.0171  0.8241 -0.9070
 3822SOL    HW215054   0.238   2.468   3.561  1.3183 -0.7013 -2.2143
 3822SOL    HW315055   0.089   2.490   3.551  1.1772  1.3271  2.1236
 3822SOL    MW415056   0.159   2.440   3.538 -0.1010  0.1998 -0.3227
 3823SOL     OW15057   5.353   0.054   2.235 -0.7833  0.0631  0.1680
 3823SOL    HW215058   5.382   0.125   2.178  1.5255  0.1107  1.2648
 3823SOL    HW315059   5.305   0.098   2.305 -1.2820  0.2965 -0.3146
 3823SOL    MW415060   5.351   0.069   2.237 -0.0707  0.2733  0.4386
 3824SOL     OW15061   3.012   3.565   1.210 -0.0601 -0.4849  0.3500
 3824SOL    HW215062   2.978   3.571   1.299  0.1459 -1.2975  0.4920
 3824SOL    HW315063   2.935   3.564   1.153 -0.1915  2.9260  0.2750
 3824SOL    MW415064   2.998   3.566   1.214 -0.7940  0.0652  0.2586
 3825SOL     OW15065   5.032   5.013   0.038 -0.2091 -0.3613 -0.1887
 3825SOL    HW215066   4.963   4.952   0.063 -0.3265 -0.3551 -0.4897
 3825SOL    HW315067   5.051   5.061   0.118 -0.9268  0.0081 -0.2324
 3825SOL    MW415068   5.025   5.011   0.052  0.0649  0.2315  0.6352
 3826SOL     OW15069   1.961   1.395   5.774  0.0879 -0.8352 -0.2467
 3826SOL    HW215070   1.888   1.444   5.811  0.2594 -0.2188 -0.6947
 3826SOL    HW315071   1.960   1.311   5.819 -0.2945 -0.4646  0.4483
 3826SOL    MW415072   1.951   1.390   5.785 -0.1016  0.2674  0.6532
 3827SOL     OW15073   5.657   1.720   1.960 -0.0606  0.1106  0.1811
 3827SOL    HW215074   5.627   1.741   2.048  0.3022  1.0924  0.0829
 3827SOL    HW315075   5.748   1.749   1.958  0.0877 -0.3879 -0.3523
 3827SOL    MW415076   5.665   1.727   1.971 -0.3133  0.2980 -0.5096
 3828SOL     OW15077   5.398   2.224   4.311  0.0423  0.5793  0.3861
 3828SOL    HW215078   5.321   2.178   4.344 -0.0202  0.1589 -0.3469
 3828SOL    HW315079   5.400   2.305   4.363 -1.0722  0.7513  0.1946
 3828SOL    MW415080   5.388   2.229   4.322  0.3900 -0.4743  0.0117
 3829SOL     OW15081   5.785   5.668   5.745 -0.0026  0.1159 -0.3757
 3829SOL    HW215082   5.702   5.633   5.712 -1.2096  1.5543  0.9816
 3829SOL    HW315083   5.850   5.643   5.679 -1.5885 -0.6139 -1.7234
 3829SOL    MW415084   5.783   5.660   5.732 -0.1860  0.5389  0.0106
 3830SOL     OW15085   1.130   1.670   0.458  0.1040 -0.0940 -0.3478
 3830SOL    HW215086   1.064   1.733   0.487  0.2666 -0.4719  0.8729
 3830SOL    HW315087   1.147   1.616   0.535 -0.2447 -1.8281 -1.4231
 3830SOL    MW415088   1.123   1.671   0.472  0.1483  0.2300  1.2209
 3831SOL     OW15089   6.293   6.353   4.994  0.2278  0.4452 -0.2639
 3831SOL    HW215090   6.254   6.419   5.052  0.8659  0.2116  0.4523
 3831SOL    HW315091   6.351   6.302   5.052  0.1800 -0.3767 -0.9198
 3831SOL    MW415092   6.296   6.355   5.010  0.4545 -0.0818  0.1090
 3832SOL     OW15093   6.374   4.720   0.801 -0.1139 -0.2223 -0.7478
 3832SOL    HW215094   6.382   4.665   0.879  0.8737  0.2939 -0.4729
 3832SOL    HW315095   6.336   4.801   0.833  1.8737  0.6564 -0.4411
 3832SOL    MW415096   6.370   4.723   0.816 -0.2679  0.4417 -0.4449
 3833SOL     OW15097   3.908   1.331   3.483 -0.0081 -0.3682 -0.2745
 3833SOL    HW215098   3.918   1.252   3.536  0.1118 -1.0395 -1.2683
 3833SOL    HW315099   3.971   1.320   3.412 -1.2379 -0.2454 -1.4331
 3833SOL    MW415100   3.918   1.319   3.481  0.2869 -0.6924 -0.0790
 3834SOL     OW15101   4.551   2.490   3.146  0.0064 -0.0987 -0.1190
 3834SOL    HW215102   4.549   2.398   3.120  0.4274 -1.0376  2.7888
 3834SOL    HW315103   4.628   2.526   3.101 -1.0430 -0.6672 -2.5369
 3834SOL    MW415104   4.561   2.482   3.137 -1.0794  0.0556  0.4634
 3835SOL     OW15105   5.893   6.035   1.580 -0.5996  0.0751  0.1670
 3835SOL    HW215106   5.895   6.103   1.513 -2.4604  1.3730  1.3040
 3835SOL    HW315107   5.931   5.958   1.538 -0.4902  1.1942 -1.9229
 3835SOL    MW415108   5.898   6.034   1.566 -0.6446 -0.9400  0.2240
 3836SOL     OW15109   2.582   3.511   2.836  0.2768 -0.7174  0.1710
 3836SOL    HW215110   2.506   3.516   2.894  1.1872  1.1272  1.3247
 3836SOL    HW315111   2.555   3.559   2.757 -0.6266 -2.3788 -0.5775
 3836SOL    MW415112   2.568   3.518   2.833 -0.2750  0.0866 -0.1412
 3837SOL     OW15113   0.292   6.347   1.182  0.2485 -0.0174  0.4287
 3837SOL    HW215114   0.314   6.374   1.092 -0.2183  0.7860  0.5381
 3837SOL    HW315115   0.262   6.257   1.173  0.3892 -0.0123 -0.1976
 3837SOL    MW415116   0.291   6.339   1.169  0.1347 -0.0996  0.4307
 3838SOL     OW15117   2.232   2.854   2.765  0.6231 -0.0569  0.0081
 3838SOL    HW215118   2.167   2.783   2.770 -0.4090  0.8776  0.1909
 3838SOL    HW315119   2.200   2.911   2.696  0.6689  0.9774  0.8227
 3838SOL    MW415120   2.219   2.852   2.757  0.4290 -0.4178 -0.5140
 3839SOL     OW15121   5.008   6.240   5.458  0.0188 -0.1505  0.1423
 3839SOL    HW215122   4.999   6.249   5.363 -0.1060 -1.3430  0.0217
 3839SOL    HW315123   4.962   6.158   5.478 -0.7621  0.5539  1.3668
 3839SOL    MW415124   5.000   6.230   5.448 -0.2733  0.4510  0.6164
 3840SOL     OW15125   1.575   1.373   5.651 -0.6526  0.5038 -0.1129
 3840SOL    HW215126   1.498   1.399   5.600 -0.7562  1.1421  0.3513
 3840SOL    HW315127   1.641   1.351   5.585 -1.0003  0.6662 -0.5233
 3840SOL    MW415128   1.574   1.374   5.636  0.5883  0.7208 -0.0410
 3841SOL     OW15129   6.371   2.017   1.940  0.1182 -0.3118 -0.2248
 3841SOL    HW215130   6.283   2.054   1.947  0.8130  1.1784  1.1760
 3841SOL    HW315131   6.411   2.062   1.866  0.1441 -0.0464 -0.0481
 3841SOL    MW415132   6.365   2.028   1.931 -0.2434  0.4077  0.3031
 3842SOL     OW15133   4.964   4.187   0.431  0.2558  0.4760  0.6192
 3842SOL    HW215134   4.892   4.238   0.469  0.4337  0.5989  0.7931
 3842SOL    HW315135   4.938   4.096   0.443 -0.8398  0.4999 -1.1429
 3842SOL    MW415136   4.951   4.182   0.437 -0.3089 -0.2704 -0.1378
 3843SOL     OW15137   1.458   0.596   3.806  0.0242 -0.3172 -0.3521
 3843SOL    HW215138   1.430   0.675   3.759 -0.3957 -0.5268 -0.4608
 3843SOL    HW315139   1.516   0.629   3.874  0.4118  0.0169 -0.8364
 3843SOL    MW415140   1.462   0.611   3.809 -0.3525 -0.1680  0.4016
 3844SOL     OW15141   1.840   1.923   1.571 -0.1193  0.3584  0.1780
 3844SOL    HW215142   1.892   1.893   1.496 -0.3335  0.2551  0.0707
 3844SOL    HW315143   1.850   1.854   1.637  2.9193  1.9765  1.6232
 3844SOL    MW415144   1.848   1.910   1.570  0.0407 -0.8810  0.3651
 3845SOL     OW15145   1.366   1.263   2.979 -0.1363 -0.2041  0.3005
 3845SOL    HW215146   1.324   1.265   3.065 -0.3670  1.0796  0.1712
 3845SOL    HW315147   1.293   1.259   2.917  0.0086 -0.3193  0.1359
 3845SOL    MW415148   1.351   1.263   2.982  0.6668  0.4530  0.3384
 3846SOL     OW15149   4.241   0.618   0.834  0.1272 -0.3669  0.1566
 3846SOL    HW215150   4.208   0.707   0.821  3.0971  0.9410  0.7144
 3846SOL    HW315151   4.197   0.588   0.914  0.9521  1.6581  1.4548
 3846SOL    MW415152   4.231   0.626   0.843  0.1292  0.4571  0.2616
 3847SOL     OW15153   3.972   4.620   3.523 -1.1430 -0.9251 -0.2163
 3847SOL    HW215154   4.050   4.653   3.568 -0.8610 -1.9995  0.1066
 3847SOL    HW315155   3.899   4.646   3.578 -1.1427  0.9106 -0.9781
 3847SOL    MW415156   3.973   4.628   3.536  0.4981 -0.5149 -0.6740
 3848SOL     OW15157   1.071   3.305   0.729  0.4711  0.2432  0.3095
 3848SOL    HW215158   1.120   3.226   0.703 -1.8703 -0.6223 -1.8252
 3848SOL    HW315159   1.065   3.356   0.648 -1.4341  0.6713  0.6855
 3848SOL    MW415160   1.077   3.301   0.715  0.5883  0.2447  0.1232
 3849SOL     OW15161   2.954   2.794   5.681  0.0275 -0.3869 -0.0082
 3849SOL    HW215162   2.968   2.818   5.773  0.6830  0.1589 -0.2443
 3849SOL    HW315163   3.033   2.746   5.657  0.6632  1.0335 -0.8048
 3849SOL    MW415164   2.966   2.791   5.690  0.4965  0.1785  0.5523
 3850SOL     OW15165   2.659   3.334   4.210  0.2556  0.0985  0.4209
 3850SOL    HW215166   2.729   3.365   4.268  0.3845 -0.3450  0.5033
 3850SOL    HW315167   2.622   3.414   4.173 -0.6426  0.4873  2.0554
 3850SOL    MW415168   2.664   3.349   4.213  0.1047 -0.1417  0.4275
 3851SOL     OW15169   5.051   0.899   2.623 -0.0057 -0.3123 -0.4203
 3851SOL    HW215170   5.073   0.904   2.716  0.6290  0.7006 -0.6105
 3851SOL    HW315171   4.977   0.838   2.619  0.3280 -0.8098  0.6744
 3851SOL    MW415172   5.044   0.891   2.634 -0.8266 -0.3123 -0.4059
 3852SOL     OW15173   0.530   4.209   2.623 -0.3191  0.6918  0.4971
 3852SOL    HW215174   0.534   4.114   2.612 -0.2881  0.7152  0.2982
 3852SOL    HW315175   0.465   4.238   2.558  1.3321  1.0526 -1.0787
 3852SOL    MW415176   0.522   4.200   2.613  0.1658  0.4850  0.3636
 3853SOL     OW15177   6.201   4.012   6.320 -0.2106 -0.2406 -0.3072
 3853SOL    HW215178   6.139   4.011   6.247  0.3080  0.5948 -0.7821
 3853SOL    HW315179   6.164   3.951   6.384 -1.9245  0.8334 -0.2227
 3853SOL    MW415180   6.188   4.004   6.319 -0.2690 -0.1150 -0.5434
 3854SOL     OW15181   6.063   2.072   0.733 -0.1697  0.0058 -0.1701
 3854SOL    HW215182   6.120   2.099   0.661  1.4702 -1.3132  0.5476
 3854SOL    HW315183   6.070   2.143   0.797  1.2643 -0.4131  0.1877
 3854SOL    MW415184   6.072   2.084   0.732 -0.0892  0.0421  0.0835
 3855SOL     OW15185   4.120   5.111   0.191 -0.0487  0.0126  0.3805
 3855SOL    HW215186   4.086   5.166   0.120  0.0473 -0.4951 -0.0662
 3855SOL    HW315187   4.072   5.029   0.181 -0.5506  0.1732  1.3464
 3855SOL    MW415188   4.109   5.108   0.180  0.3053  0.0057  0.0091
 3856SOL     OW15189   4.270   4.029   2.647  0.1260 -0.0040 -0.8144
 3856SOL    HW215190   4.240   4.055   2.734  1.0709 -0.6287 -0.2895
 3856SOL    HW315191   4.254   4.106   2.592  3.0875  1.8884  0.7298
 3856SOL    MW415192   4.264   4.042   2.651  0.3642  0.1248  0.0236
 3857SOL     OW15193   2.335   2.421   0.672 -0.5899 -0.0958  0.0346
 3857SOL    HW215194   2.286   2.431   0.590 -0.9548 -0.4515  0.2112
 3857SOL    HW315195   2.268   2.412   0.740 -0.2863 -0.2692  0.3143
 3857SOL    MW415196   2.320   2.421   0.670 -0.5077  0.0482 -0.5800
 3858SOL     OW15197   2.180   4.772   3.483  0.5372 -0.0078 -0.6351
 3858SOL    HW215198   2.147   4.685   3.504  2.3958 -0.5561  0.1713
 3858SOL    HW315199   2.208   4.808   3.567  2.4908  0.1793 -1.3096
 3858SOL    MW415200   2.179   4.765   3.497  0.2079 -0.0653 -0.7849
 3859SOL     OW15201   2.125   6.372   0.269  0.6157  0.3920 -0.1837
 3859SOL    HW215202   2.210   6.333   0.288  0.4058 -0.1165 -0.2648
 3859SOL    HW315203   2.105   6.345   0.180  0.0861 -0.0300  0.0540
 3859SOL    MW415204   2.134   6.363   0.260  0.3520 -0.8604 -0.6610
 3860SOL     OW15205   0.788   0.932   1.517 -0.2869 -0.1910 -0.1015
 3860SOL    HW215206   0.864   0.884   1.549  1.3402  2.7842  0.8998
 3860SOL    HW315207   0.730   0.939   1.592 -1.4559 -2.0968 -0.7555
 3860SOL    MW415208   0.790   0.927   1.531  0.0043  0.1484 -1.0598
 3861SOL     OW15209   6.076   3.715   3.816 -0.9365 -0.0836  0.1098
 3861SOL    HW215210   6.068   3.763   3.734 -0.4992 -0.0953  0.0547
 3861SOL    HW315211   6.121   3.776   3.875 -0.7225 -0.2833  0.1572
 3861SOL    MW415212   6.081   3.729   3.813 -0.6071  0.0085  1.0237
 3862SOL     OW15213   5.090   1.479   2.869 -0.6830 -0.5769  0.0613
 3862SOL    HW215214   5.104   1.487   2.963  0.1278 -0.1719 -0.0881
 3862SOL    HW315215   5.022   1.544   2.849  0.2810  0.4716  0.1209
 3862SOL    MW415216   5.083   1.488   2.879 -0.0804 -0.0132  0.3034
 3863SOL     OW15217   2.077   1.794   2.681  0.3811 -0.4896  0.1317
 3863SOL    HW215218   2.109   1.871   2.730 -1.4444  0.6719 -0.4015
 3863SOL    HW315219   2.101   1.812   2.590 -2.4200  0.9045 -0.4533
 3863SOL    MW415220   2.085   1.807   2.676 -0.5749  0.3092 -0.0415
 3864SOL     OW15221   1.208   4.560   1.287  0.2163  0.0342  0.2921
 3864SOL    HW215222   1.148   4.537   1.358 -1.3052 -3.0811 -1.7639
 3864SOL    HW315223   1.178   4.647   1.258 -0.1721  0.6306  2.3415
 3864SOL    MW415224   1.196   4.569   1.292 -0.0489  0.1598  0.1612
 3865SOL     OW15225   1.941   4.422   4.258  0.1264 -0.2064  0.3905
 3865SOL    HW215226   1.869   4.455   4.312 -0.2482  0.5018 -0.5154
 3865SOL    HW315227   1.902   4.350   4.207 -0.1350  0.5844 -0.5634
 3865SOL    MW415228   1.926   4.417   4.258 -0.4044  0.3855 -0.1133
 3866SOL     OW15229   2.241   0.714   5.669  0.4329  0.1293 -0.4121
 3866SOL    HW215230   2.212   0.725   5.759  2.1426 -1.8309  0.4434
 3866SOL    HW315231   2.162   0.728   5.617 -0.8434  0.1725  1.4422
 3866SOL    MW415232   2.227   0.717   5.674 -0.2464 -0.0363 -0.2229
 3867SOL     OW15233   5.019   4.463   3.342 -0.4918 -0.3083 -0.6802
 3867SOL    HW215234   5.105   4.424   3.328  0.0463  1.3079 -2.1103
 3867SOL    HW315235   5.029   4.555   3.317 -2.4312  0.1133 -0.0888
 3867SOL    MW415236   5.032   4.470   3.337  0.6380  0.2666 -0.5734
 3868SOL     OW15237   1.075   4.174   6.180  0.3255 -0.2942  0.2900
 3868SOL    HW215238   1.055   4.122   6.258 -0.9222  0.4439  0.4935
 3868SOL    HW315239   1.042   4.262   6.200  1.4887  0.3408 -0.4291
 3868SOL    MW415240   1.068   4.179   6.193 -0.3724 -0.4379  0.0720
 3869SOL     OW15241   6.309   3.087   1.158  0.0793  0.2703 -0.2262
 3869SOL    HW215242   6.336   3.017   1.098  2.7922  0.9136  0.1122
 3869SOL    HW315243   6.228   3.056   1.197 -0.5528 -1.1837 -2.5152
 3869SOL    MW415244   6.302   3.074   1.155 -0.6923 -0.0366 -0.0510
 3870SOL     OW15245   5.999   0.112   1.888  0.4048 -0.1197 -0.1192
 3870SOL    HW215246   6.001   0.063   1.970  0.0997  0.2161  0.0951
 3870SOL    HW315247   5.991   0.204   1.916  0.7468  0.0316 -0.5146
 3870SOL    MW415248   5.998   0.118   1.903 -0.0918 -0.7076  0.1958
 3871SOL     OW15249   6.365   2.857   0.926  0.2321 -0.1528  0.5202
 3871SOL    HW215250   6.290   2.830   0.979 -0.7468 -0.7351 -1.0839
 3871SOL    HW315251   6.342   2.832   0.837  2.1195  0.1469 -0.1099
 3871SOL    MW415252   6.352   2.850   0.921 -0.2860  0.0920 -0.1158
 3872SOL     OW15253   1.748   6.363   1.066  0.2498 -0.3362  0.0454
 3872SOL    HW215254   1.668   6.347   1.016  1.4798 -2.8836 -1.3058
 3872SOL    HW315255   1.817   6.369   1.000  1.1933  2.3621  1.1391
 3872SOL    MW415256   1.746   6.362   1.050  0.1919  0.3371  0.0160
 3873SOL     OW15257   6.321   0.533   1.296  0.0747  0.8542  0.0058
 3873SOL    HW215258   6.309   0.611   1.242  0.5868  0.8493 -0.1147
 3873SOL    HW315259   6.279   0.463   1.247  0.2577  0.9108 -0.2295
 3873SOL    MW415260   6.314   0.534   1.283  0.0365 -0.0043 -0.8900
 3874SOL     OW15261   3.198   5.107   1.267  0.1607  0.1894  0.5295
 3874SOL    HW215262   3.237   5.044   1.207  0.0552  0.7711 -0.1677
 3874SOL    HW315263   3.249   5.187   1.254 -1.1694  0.9355 -0.3227
 3874SOL    MW415264   3.210   5.109   1.257 -0.0418  0.2914  0.5856
 3875SOL     OW15265   4.735   0.534   1.867 -0.1473 -0.2345 -0.6088
 3875SOL    HW215266   4.687   0.518   1.785 -1.8220  1.5521 -0.0592
 3875SOL    HW315267   4.807   0.592   1.841 -1.2806  1.1954 -0.7307
 3875SOL    MW415268   4.738   0.540   1.853 -0.2538  0.0628  0.7378
 3876SOL     OW15269   3.922   4.237   5.652  0.3423  0.0319 -0.0301
 3876SOL    HW215270   3.959   4.306   5.597 -0.0174  0.5199  0.3299
 3876SOL    HW315271   3.923   4.273   5.740  0.0197 -0.3697  0.1420
 3876SOL    MW415272   3.927   4.251   5.656 -0.3908  0.2997 -0.1544
 3877SOL     OW15273   5.772   4.125   2.508 -0.8187  0.7180  0.1679
 3877SOL    HW215274   5.736   4.197   2.559 -0.1110  1.6605 -0.6035
 3877SOL    HW315275   5.813   4.168   2.432 -0.2340 -0.4831 -0.2249
 3877SOL    MW415276   5.773   4.140   2.505 -0.2374  0.2479  0.3754
 3878SOL     OW15277   2.066   6.316   0.015 -0.2782 -0.0271  0.3430
 3878SOL    HW215278   2.023   6.399   0.034 -1.7546 -0.1832 -1.9200
 3878SOL    HW315279   2.137   6.339  -0.044  0.1401 -0.2491  0.7509
 3878SOL    MW415280   2.070   6.330   0.010 -0.6606 -0.5528 -0.0684
 3879SOL     OW15281   3.858   4.092   2.896 -0.6790 -0.1855  0.0180
 3879SOL    HW215282   3.842   4.149   2.821  0.4571  2.4109  1.6251
 3879SOL    HW315283   3.906   4.146   2.958 -1.9501 -2.0389  2.8509
 3879SOL    MW415284   3.862   4.107   2.894 -0.4087  0.3328 -0.1745
 3880SOL     OW15285   1.839   0.082   5.015  0.0415  0.0846 -0.4258
 3880SOL    HW215286   1.756   0.099   5.061  0.6173  1.4081  0.1788
 3880SOL    HW315287   1.882   0.015   5.069  0.0269  0.5015  0.1172
 3880SOL    MW415288   1.833   0.075   5.028  0.5502 -0.4866 -0.6060
 3881SOL     OW15289   1.996   2.743   5.380 -0.5042 -0.0037  0.7011
 3881SOL    HW215290   1.937   2.758   5.454  0.5226  1.0763  1.3274
 3881SOL    HW315291   2.012   2.830   5.344  0.4775 -0.3124  0.3636
 3881SOL    MW415292   1.990   2.756   5.385 -0.9399 -0.4380  0.0858
 3882SOL     OW15293   2.068   2.575   0.076 -0.2171 -0.1050  0.1792
 3882SOL    HW215294   1.991   2.517   0.077 -1.4964  1.4801 -0.8996
 3882SOL    HW315295   2.142   2.516   0.090 -1.6158 -1.6686  1.4975
 3882SOL    MW415296   2.067   2.560   0.078 -0.4732 -0.1622 -0.2884
 3883SOL     OW15297   0.964   1.487   6.410 -0.3326  0.2385 -0.4911
 3883SOL    HW215298   0.962   1.396   6.381 -0.0670 -0.2960  1.0946
 3883SOL    HW315299   0.965   1.483   6.505  2.5584  1.7889 -0.3216
 3883SOL    MW415300   0.964   1.475   6.419  0.4351  0.4572 -0.6497
 3884SOL     OW15301   6.312   3.221   1.931 -0.3141 -0.2892  0.0599
 3884SOL    HW215302   6.249   3.184   1.870 -1.9390  0.7071  1.0623
 3884SOL    HW315303   6.315   3.314   1.910 -1.1102  0.1260  1.5961
 3884SOL    MW415304   6.304   3.228   1.920  0.0712 -0.5377  0.5764
 3885SOL     OW15305   1.866   2.473   2.388  0.3846  0.3365 -0.4277
 3885SOL    HW215306   1.771   2.462   2.380  0.3116 -0.4112  1.1152
 3885SOL    HW315307   1.903   2.407   2.330 -0.0648 -0.9042  0.6481
 3885SOL    MW415308   1.858   2.463   2.380  0.0679 -0.5246  0.0548
 3886SOL     OW15309   2.040   5.675   3.109  0.4222 -0.1123  0.4968
 3886SOL    HW215310   2.098   5.749   3.130 -0.6977  0.5008  1.5571
 3886SOL    HW315311   2.038   5.672   3.014 -0.2025  1.8082  0.4089
 3886SOL    MW415312   2.048   5.684   3.099 -0.0543 -0.4555 -0.4298
 3887SOL     OW15313   1.712   2.645   3.236 -0.0703 -0.1531 -0.0237
 3887SOL    HW215314   1.686   2.571   3.182  0.6777  1.7572 -3.2687
 3887SOL    HW315315   1.803   2.628   3.259 -1.1726 -2.3923  3.4438
 3887SOL    MW415316   1.721   2.633   3.232 -0.4490  0.4343  0.1702
 3888SOL     OW15317   4.478   1.871   2.096  0.8219 -0.0134 -0.1987
 3888SOL    HW215318   4.450   1.930   2.165 -0.3513  1.9622 -2.2413
 3888SOL    HW315319   4.564   1.840   2.123  1.3083  2.3512  1.1429
 3888SOL    MW415320   4.485   1.875   2.108 -0.1383  0.1504  0.1992
 3889SOL     OW15321   6.027   4.979   4.282  0.9915  0.4916  0.6254
 3889SOL    HW215322   6.083   5.055   4.297  0.0436  1.2933  0.1895
 3889SOL    HW315323   5.986   4.996   4.197  0.5570 -0.3796  0.6540
 3889SOL    MW415324   6.029   4.991   4.273  0.3162  0.1129 -0.1747
 3890SOL     OW15325   1.497   5.811   4.882  0.0936 -0.1785  0.2515
 3890SOL    HW215326   1.462   5.878   4.824  1.1843 -0.4234 -0.7081
 3890SOL    HW315327   1.451   5.731   4.857  0.0759 -0.1475  0.1836
 3890SOL    MW415328   1.486   5.809   4.871  0.0782  0.2281 -0.1901
 3891SOL     OW15329   5.188   4.726   0.001 -0.0432 -0.3741  0.3498
 3891SOL    HW215330   5.177   4.685   0.086 -0.1746 -1.2490 -0.0711
 3891SOL    HW315331   5.101   4.759  -0.022  0.0875  0.2500  0.7397
 3891SOL    MW415332   5.175   4.725   0.009 -0.4886 -0.4247 -0.1852
 3892SOL     OW15333   6.008   3.311   2.270 -0.1882  0.3184 -0.2142
 3892SOL    HW215334   6.024   3.354   2.354  2.1308 -0.5868 -0.1162
 3892SOL    HW315335   5.926   3.349   2.238 -1.1157  0.7018  2.4218
 3892SOL    MW415336   6.000   3.322   2.276  1.0562 -0.2939 -0.3352
 3893SOL     OW15337   4.665   2.036   3.639  0.1355 -0.7023  0.0069
 3893SOL    HW215338   4.740   2.049   3.697  1.1496 -1.6193 -1.0437
 3893SOL    HW315339   4.680   2.097   3.566 -1.3641  0.7792  0.8737
 3893SOL    MW415340   4.677   2.046   3.637 -0.2353  0.0005 -0.5826
 3894SOL     OW15341   5.774   2.815   3.210 -0.2710  0.0972  0.2920
 3894SOL    HW215342   5.865   2.787   3.202 -1.2402 -3.3597 -0.1282
 3894SOL    HW315343   5.760   2.873   3.135  0.9848 -1.2610 -1.0561
 3894SOL    MW415344   5.784   2.819   3.199 -0.5630  0.4119  0.5958
 3895SOL     OW15345   5.507   1.852   0.669 -0.5034 -0.1969  0.3641
 3895SOL    HW215346   5.418   1.846   0.704  0.1693 -2.9057  1.8766
 3895SOL    HW315347   5.561   1.877   0.744  0.2056  0.1525 -0.2458
 3895SOL    MW415348   5.503   1.855   0.683 -0.0860  0.1604  0.8340
 3896SOL     OW15349   0.102   5.154   6.009 -0.3683 -1.1734 -0.0239
 3896SOL    HW215350   0.163   5.205   5.956 -0.8497  2.0712  2.2155
 3896SOL    HW315351   0.151   5.133   6.088 -1.3209 -0.6987  0.7304
 3896SOL    MW415352   0.116   5.158   6.012  0.3415  0.3119 -0.3803
 3897SOL     OW15353   6.071   4.891   2.563 -0.0109  0.7389 -0.3384
 3897SOL    HW215354   6.080   4.948   2.638  2.2538  1.2750 -0.9395
 3897SOL    HW315355   6.160   4.881   2.529 -0.6285 -1.3754 -1.5606
 3897SOL    MW415356   6.084   4.897   2.568  0.1017  0.0675  0.0029
 3898SOL     OW15357   3.075   5.815   4.253 -0.0923  0.1961  0.2490
 3898SOL    HW215358   3.155   5.868   4.255  0.3631 -0.4723  0.1074
 3898SOL    HW315359   3.058   5.796   4.345  0.1012  0.0604  0.2573
 3898SOL    MW415360   3.083   5.820   4.266  0.1978  0.0118 -0.2644
 3899SOL     OW15361   5.200   0.628   6.002  0.0348  0.3853 -0.1343
 3899SOL    HW215362   5.266   0.676   5.953  0.6857 -0.5551 -0.2083
 3899SOL    HW315363   5.163   0.566   5.939 -0.6303  0.6181  0.0169
 3899SOL    MW415364   5.204   0.626   5.987 -0.2214 -0.1647  0.5210
 3900SOL     OW15365   1.362   3.165   3.807  0.0782  0.0977 -0.0655
 3900SOL    HW215366   1.364   3.086   3.754 -0.7187 -0.3255  0.5141
 3900SOL    HW315367   1.275   3.203   3.791  0.8529  1.4781 -1.2107
 3900SOL    MW415368   1.351   3.160   3.798 -0.2880 -0.1567  0.1690
 3901SOL     OW15369   1.170   3.129   5.559 -0.3663 -0.9674 -0.3585
 3901SOL    HW215370   1.255   3.173   5.555 -0.1485 -1.1987  1.1525
 3901SOL    HW315371   1.113   3.191   5.604 -0.4148 -1.6633  0.5666
 3901SOL    MW415372   1.174   3.143   5.564 -0.3540 -0.2335 -0.3147
 3902SOL     OW15373   4.215   4.789   0.817 -0.3097 -0.4087 -0.4055
 3902SOL    HW215374   4.166   4.833   0.747  1.0494 -1.1093 -1.8657
 3902SOL    HW315375   4.150   4.732   0.859 -1.4678  1.0046 -0.1795
 3902SOL    MW415376   4.200   4.787   0.813 -0.0637  0.2180 -0.2268
 3903SOL     OW15377   0.509   3.127   1.641  0.1688  0.3280  0.5808
 3903SOL    HW215378   0.578   3.193   1.648  0.7208 -0.1076 -0.4711
 3903SOL    HW315379   0.511   3.100   1.549 -1.2707  0.1461  0.5754
 3903SOL    MW415380   0.518   3.132   1.630  0.3599 -0.1337 -0.4937
 3904SOL     OW15381   0.344   3.403   1.348  0.2335  0.2065  0.6443
 3904SOL    HW215382   0.329   3.378   1.257 -0.4871 -0.9295  1.0529
 3904SOL    HW315383   0.317   3.495   1.353 -0.0636  0.1725 -0.2017
 3904SOL    MW415384   0.339   3.412   1.337  0.5928 -0.3203  0.1858
 3905SOL     OW15385   0.964   6.303   5.184 -0.6289  0.0753  0.2384
 3905SOL    HW215386   0.994   6.336   5.269 -1.2159  0.7130  0.2129
 3905SOL    HW315387   1.042   6.301   5.130 -0.6013  1.7180  0.1651
 3905SOL    MW415388   0.978   6.307   5.188 -0.0538 -0.1139  0.1269
 3906SOL     OW15389   2.881   2.323   3.925  0.1448 -0.3238 -0.4063
 3906SOL    HW215390   2.937   2.318   3.847 -0.6137 -0.0323 -0.9825
 3906SOL    HW315391   2.870   2.417   3.939  1.5493 -0.3392  0.9946
 3906SOL    MW415392   2.887   2.335   3.916  0.3655 -0.5092  0.1082
 3907SOL     OW15393   6.072   6.312   2.954  0.8391 -0.2804 -0.0159
 3907SOL    HW215394   6.087   6.218   2.951 -1.5755 -0.6949 -0.4085
 3907SOL    HW315395   6.012   6.325   3.027  1.0192  0.9621 -0.0614
 3907SOL    MW415396   6.066   6.301   2.963  0.4993  0.5396  0.0441
 3908SOL     OW15397   2.705   2.045   5.572 -0.9108  0.1972  0.1880
 3908SOL    HW215398   2.634   2.107   5.590  0.1604  1.6857 -0.5438
 3908SOL    HW315399   2.741   2.025   5.658 -0.9532  0.9940  0.3984
 3908SOL    MW415400   2.700   2.050   5.586 -0.1732  0.2754  0.3383
 3909SOL     OW15401   5.397   3.516   5.654 -0.3132 -0.0271  0.0266
 3909SOL    HW215402   5.441   3.571   5.589  0.6322 -0.5975  0.1676
 3909SOL    HW315403   5.305   3.540   5.647  0.0069  1.1703 -0.3072
 3909SOL    MW415404   5.391   3.526   5.645  0.0845  0.0273  0.3576
 3910SOL     OW15405   3.303   0.488   2.791 -0.2403 -0.6863 -0.2625
 3910SOL    HW215406   3.342   0.542   2.859  2.6485 -0.3565 -2.0267
 3910SOL    HW315407   3.340   0.401   2.805 -0.4675 -0.8709 -0.7712
 3910SOL    MW415408   3.313   0.484   2.802 -0.3646  0.3982  0.2293
 3911SOL     OW15409   2.042   3.249   3.723  0.0691 -0.5720  0.5464
 3911SOL    HW215410   2.046   3.344   3.708  1.6620 -0.5291  1.1095
 3911SOL    HW315411   2.133   3.221   3.727 -0.3657 -1.9654  1.4909
 3911SOL    MW415412   2.054   3.258   3.721 -0.2396  0.4710  0.3526
 3912SOL     OW15413   4.228   5.132   5.498 -0.0249  0.2991 -0.1223
 3912SOL    HW215414   4.296   5.134   5.565  1.8118  0.5389 -1.8818
 3912SOL    HW315415   4.167   5.065   5.527  1.4940 -0.6380  1.0527
 3912SOL    MW415416   4.229   5.123   5.510  0.3922 -0.0842 -0.2665
 3913SOL     OW15417   0.296   0.819   0.169  0.3336 -0.5506 -0.1678
 3913SOL    HW215418   0.388   0.846   0.168  0.4576 -0.8659 -2.1728
 3913SOL    HW315419   0.284   0.779   0.255  2.7983 -2.7971 -0.7288
 3913SOL    MW415420   0.307   0.817   0.180 -0.5279  0.0995  0.0198
 3914SOL     OW15421   0.130   2.218   3.698  0.1038 -0.1439  0.3999
 3914SOL    HW215422   0.142   2.293   3.640  0.5970 -0.6613 -0.1781
 3914SOL    HW315423   0.202   2.159   3.676  0.6850 -0.0649  1.9966
 3914SOL    MW415424   0.141   2.220   3.687  0.1278 -0.1942  0.4092
 3915SOL     OW15425   4.750   1.977   1.707  0.0192  0.0561 -0.1543
 3915SOL    HW215426   4.812   1.993   1.635  0.0933  0.3886 -0.0212
 3915SOL    HW315427   4.746   2.061   1.753  0.1978 -0.2352  0.4032
 3915SOL    MW415428   4.758   1.990   1.703 -0.6000  0.3099  0.6958
 3916SOL     OW15429   2.267   1.372   5.824  0.5975 -0.1850 -0.4858
 3916SOL    HW215430   2.222   1.287   5.817 -3.5838  1.7480 -0.0442
 3916SOL    HW315431   2.245   1.416   5.742  3.1973  0.3551 -0.9556
 3916SOL    MW415432   2.258   1.366   5.812 -0.1383 -0.1948  0.2551
 3917SOL     OW15433   0.296   2.255   5.570 -0.6418  0.3020  0.1199
 3917SOL    HW215434   0.279   2.343   5.536  0.1944  0.7580  0.8512
 3917SOL    HW315435   0.328   2.206   5.494  1.7729  1.4586  0.2916
 3917SOL    MW415436   0.298   2.260   5.555 -0.7313 -0.4310 -0.8034
 3918SOL     OW15437   5.334   0.000   6.275 -0.2317 -0.8086  0.2051
 3918SOL    HW215438   5.396   0.067   6.302  0.1940 -0.3328 -1.8066
 3918SOL    HW315439   5.258   0.049   6.244 -0.8504 -1.3367  0.8486
 3918SOL    MW415440   5.332   0.015   6.274 -0.2397 -0.8445  0.3936
 3919SOL     OW15441   1.284   1.060   2.429  0.0805  0.6865  0.1959
 3919SOL    HW215442   1.305   0.996   2.362 -1.1732 -0.7874  1.1438
 3919SOL    HW315443   1.362   1.063   2.485 -0.6933 -1.9568  1.5667
 3919SOL    MW415444   1.297   1.052   2.428 -0.1127 -0.5954  0.1031
 3920SOL     OW15445   4.434   6.393   0.417  0.0738 -0.2937  0.3706
 3920SOL    HW215446   4.382   6.323   0.456  2.2218 -2.2266 -0.0145
 3920SOL    HW315447   4.407   6.397   0.326  0.4721 -1.1833  0.2072
 3920SOL    MW415448   4.424   6.384   0.410 -0.4813 -0.0205 -0.6790
 3921SOL     OW15449   3.097   0.033   2.212 -0.3751  0.4776 -0.7957
 3921SOL    HW215450   3.188   0.053   2.190 -0.4206 -0.3486 -1.7448
 3921SOL    HW315451   3.049   0.114   2.191 -0.2153  0.1549 -2.5385
 3921SOL    MW415452   3.102   0.047   2.207  0.8918  0.4377  0.3789
 3922SOL     OW15453   3.676   3.036   5.400 -0.4483  0.5231 -0.7686
 3922SOL    HW215454   3.730   2.957   5.398 -1.0449  0.0622  0.4657
 3922SOL    HW315455   3.738   3.108   5.401  0.1867 -0.0073  1.2461
 3922SOL    MW415456   3.691   3.035   5.400 -0.1363  0.5722 -0.0613
 3923SOL     OW15457   0.421   1.428   6.371 -0.7697 -0.4165 -0.1189
 3923SOL    HW215458   0.402   1.369   6.444  0.0306 -0.0488  0.4095
 3923SOL    HW315459   0.336   1.444   6.330 -1.5031  0.5334  1.6439
 3923SOL    MW415460   0.408   1.422   6.375  0.6529 -0.4036 -0.0128
 3924SOL     OW15461   3.745   1.956   6.350  0.2784  0.0683 -0.2191
 3924SOL    HW215462   3.652   1.949   6.330 -0.3850 -1.2923  2.7379
 3924SOL    HW315463   3.761   2.050   6.357 -0.5373  0.3662 -2.0134
 3924SOL    MW415464   3.735   1.968   6.349 -0.1189 -0.5272 -0.8424
 3925SOL     OW15465   2.326   2.471   0.118  0.4329  0.2608  0.2005
 3925SOL    HW215466   2.417   2.498   0.130  0.0628  0.9600  1.7344
 3925SOL    HW315467   2.332   2.382   0.082  1.7093  0.3677  0.0999
 3925SOL    MW415468   2.338   2.463   0.115 -0.3557  0.3090  0.3439
 3926SOL     OW15469   5.418   3.926   1.714  0.3223  0.4666  0.1172
 3926SOL    HW215470   5.358   3.852   1.709 -0.2057  0.6868  2.1537
 3926SOL    HW315471   5.381   3.982   1.783  1.1239  2.2456 -0.8200
 3926SOL    MW415472   5.405   3.924   1.723  0.4882 -0.3510  0.4446
 3927SOL     OW15473   2.143   4.510   3.598 -0.0998 -0.5293  0.7647
 3927SOL    HW215474   2.050   4.509   3.617 -0.4927 -0.3013 -0.9712
 3927SOL    HW315475   2.183   4.550   3.676 -1.5728  0.5773  0.9974
 3927SOL    MW415476   2.136   4.515   3.611  0.1758 -0.2997  0.5463
 3928SOL     OW15477   1.773   6.248   4.835 -0.7118  0.2680 -0.3061
 3928SOL    HW215478   1.770   6.162   4.792 -0.3143  0.4599 -0.7298
 3928SOL    HW315479   1.867   6.266   4.845 -0.7941  0.6234 -0.1527
 3928SOL    MW415480   1.785   6.239   4.831  0.3976  0.4274 -0.6000
 3929SOL     OW15481   3.534   3.391   6.035 -0.2290 -0.0296  0.7405
 3929SOL    HW215482   3.477   3.396   6.112  0.3955  1.1459  1.1496
 3929SOL    HW315483   3.538   3.480   6.002  0.7740 -0.2308  0.2786
 3929SOL    MW415484   3.527   3.403   6.041 -0.5855  0.5301  0.3245
 3930SOL     OW15485   5.672   3.323   4.121  0.4525 -0.0127 -0.1651
 3930SOL    HW215486   5.674   3.249   4.182  1.7092  0.4454  0.3710
 3930SOL    HW315487   5.749   3.310   4.065  0.2097  0.4486 -0.6136
 3930SOL    MW415488   5.682   3.311   4.122 -0.1146 -0.7407  0.3146
 3931SOL     OW15489   6.426   5.720   6.119 -0.5546 -0.5372 -0.1427
 3931SOL    HW215490   6.332   5.736   6.127 -0.1082  1.7178  1.6659
 3931SOL    HW315491   6.448   5.748   6.030 -1.4131 -0.1510 -0.2392
 3931SOL    MW415492   6.417   5.725   6.108  0.3657 -0.0903  0.7741
 3932SOL     OW15493   6.253   1.234   0.346 -0.1344 -0.2478  0.5696
 3932SOL    HW215494   6.263   1.329   0.342 -0.6767 -0.2269 -0.7887
 3932SOL    HW315495   6.160   1.219   0.363 -0.1850 -0.5220  0.0971
 3932SOL    MW415496   6.242   1.244   0.347 -0.5232  0.3300  0.3757
 3933SOL     OW15497   6.409   0.002   6.259  0.4836 -0.3649 -0.1558
 3933SOL    HW215498   6.376  -0.019   6.346  1.2059  0.6153  0.3676
 3933SOL    HW315499   6.489   0.052   6.274 -0.3717  1.4587 -1.3581
 3933SOL    MW415500   6.415   0.006   6.272 -0.1711 -0.6706  0.4736
 3934SOL     OW15501   3.810   4.892   2.914 -0.2832 -0.0565 -0.1474
 3934SOL    HW215502   3.794   4.888   2.820  0.4911 -1.0343 -0.2585
 3934SOL    HW315503   3.840   4.804   2.937  1.9555  0.8205  0.5531
 3934SOL    MW415504   3.812   4.880   2.905  0.0788 -0.2227  0.0712
 3935SOL     OW15505   0.093   2.150   0.027 -0.4113 -0.0749  0.1811
 3935SOL    HW215506   0.056   2.224   0.074 -0.3158  0.4359 -0.5362
 3935SOL    HW315507   0.033   2.135  -0.046  0.5941  0.5656 -0.8176
 3935SOL    MW415508   0.081   2.158   0.024  0.2298 -0.2199  0.3093
 3936SOL     OW15509   1.670   1.778   3.782  0.0466  0.0469 -0.4529
 3936SOL    HW215510   1.640   1.792   3.693 -0.7898 -0.1666 -0.2195
 3936SOL    HW315511   1.611   1.830   3.836  0.6732  0.3357 -0.0394
 3936SOL    MW415512   1.658   1.786   3.778 -0.2522 -0.0862  0.1915
 3937SOL     OW15513   2.148   3.444   4.759  0.0517  0.2027 -0.2840
 3937SOL    HW215514   2.211   3.404   4.698  0.3198 -0.2366  0.2744
 3937SOL    HW315515   2.108   3.515   4.709 -0.2463 -0.5936 -1.2223
 3937SOL    MW415516   2.151   3.448   4.744  0.1977 -0.2076  0.3859
 3938SOL     OW15517   2.629   3.247   3.006  0.4188  0.4345 -0.6634
 3938SOL    HW215518   2.648   3.154   3.018  0.7137  0.7169  1.4615
 3938SOL    HW315519   2.714   3.286   2.985  0.8689  0.5793  1.2199
 3938SOL    MW415520   2.643   3.240   3.005 -0.1073  0.2529 -0.1794
 3939SOL     OW15521   6.159   2.472   4.443 -1.2081  0.2719 -0.1691
 3939SOL    HW215522   6.064   2.465   4.436 -1.1180 -3.7710  0.4185
 3939SOL    HW315523   6.191   2.456   4.354 -1.0621 -1.0058  0.1004
 3939SOL    MW415524   6.151   2.469   4.430  0.5138  0.1801 -0.5694
 3940SOL     OW15525   1.108   1.694   4.225 -0.1430 -0.0251 -0.1093
 3940SOL    HW215526   1.047   1.620   4.231 -0.7495  0.4353 -0.5744
 3940SOL    HW315527   1.091   1.745   4.304 -0.1643 -0.0408 -0.1037
 3940SOL    MW415528   1.098   1.691   4.236  0.6241 -0.4005 -0.0525
 3941SOL     OW15529   4.356   5.538   5.942 -0.0622 -0.3068 -0.2812
 3941SOL    HW215530   4.429   5.536   6.004  0.2508  1.1468 -0.5501
 3941SOL    HW315531   4.353   5.450   5.905  1.7540 -0.3335 -0.4808
 3941SOL    MW415532   4.365   5.526   5.945 -0.2354 -0.3867 -0.6190
 3942SOL     OW15533   3.428   6.074   1.735 -0.5488 -0.2228  0.3444
 3942SOL    HW215534   3.350   6.022   1.714  0.8869 -1.2458 -3.1342
 3942SOL    HW315535   3.432   6.140   1.666  0.6450  1.0649  1.5912
 3942SOL    MW415536   3.419   6.075   1.723  0.2448 -0.0178  0.1526
 3943SOL     OW15537   2.940   3.349   0.745  0.4805  0.2286  0.3956
 3943SOL    HW215538   2.919   3.259   0.770  0.9309  0.0661  0.1977
 3943SOL    HW315539   2.889   3.364   0.666  0.2994  0.1944  0.5055
 3943SOL    MW415540   2.930   3.339   0.738 -0.0439 -0.4030 -0.3152
 3944SOL     OW15541   2.956   1.664   0.187 -0.6757  0.4996  0.0407
 3944SOL    HW215542   2.991   1.594   0.132 -1.2669 -0.7845  1.2377
 3944SOL    HW315543   2.871   1.631   0.215 -1.0605  1.8089  0.4708
 3944SOL    MW415544   2.949   1.651   0.183  0.1371  0.1433  0.2554
 3945SOL     OW15545   1.825   4.575   2.054 -0.0974 -0.2173 -0.4024
 3945SOL    HW215546   1.857   4.652   2.100 -1.8808 -0.3194  1.1492
 3945SOL    HW315547   1.812   4.604   1.964 -0.3445  1.1992  0.0698
 3945SOL    MW415548   1.827   4.589   2.048  0.2213 -0.1840 -0.5601
 3946SOL     OW15549   4.757   5.391   4.679 -0.1508  0.3440  0.0037
 3946SOL    HW215550   4.843   5.397   4.721 -0.0659 -1.4976  0.1834
 3946SOL    HW315551   4.696   5.390   4.752 -0.2390  0.4125 -0.0698
 3946SOL    MW415552   4.761   5.392   4.694 -1.1533  0.1334  0.2363
 3947SOL     OW15553   5.887   5.124   5.222  0.2979  0.0470 -0.2057
 3947SOL    HW215554   5.852   5.068   5.291  0.0789  1.5993  1.0115
 3947SOL    HW315555   5.904   5.065   5.149 -0.1821 -1.5351  0.9076
 3947SOL    MW415556   5.885   5.109   5.221 -0.4315 -0.8995 -0.0644
 3948SOL     OW15557   2.320   4.074   3.474  0.0401 -0.3038 -0.8105
 3948SOL    HW215558   2.381   4.004   3.449 -0.3886 -0.5516 -1.1812
 3948SOL    HW315559   2.309   4.063   3.568  0.1027 -0.6384 -0.8391
 3948SOL    MW415560   2.326   4.063   3.483  0.4221  0.5680 -0.0516
 3949SOL     OW15561   3.448   6.393   0.988 -0.4523  0.0844  0.5174
 3949SOL    HW215562   3.468   6.439   0.907 -0.0892  0.6235  0.8996
 3949SOL    HW315563   3.419   6.306   0.961 -0.9535  0.4775 -0.2119
 3949SOL    MW415564   3.447   6.388   0.974 -0.4436 -0.1826 -0.1504
 3950SOL     OW15565   5.430   5.357   4.345 -0.3068  0.8974  0.0526
 3950SOL    HW215566   5.377   5.281   4.322  1.9878 -0.5982 -0.5973
 3950SOL    HW315567   5.419   5.365   4.440 -0.4692 -0.3259  0.1505
 3950SOL    MW415568   5.421   5.348   4.355 -0.2774  0.0531 -0.0925
 3951SOL     OW15569   6.423   5.517   3.061 -0.4764  0.0065  0.4031
 3951SOL    HW215570   6.388   5.436   3.096 -0.4220  0.2387  1.0027
 3951SOL    HW315571   6.352   5.581   3.071  0.2992  0.6560  2.2730
 3951SOL    MW415572   6.409   5.515   3.067  0.3243 -0.2892 -0.0677
 3952SOL     OW15573   5.126   2.602   3.354  0.4614  0.2048  0.0496
 3952SOL    HW215574   5.208   2.554   3.364 -1.1078 -2.3424  1.8738
 3952SOL    HW315575   5.106   2.635   3.441 -0.7158  0.2561 -0.2203
 3952SOL    MW415576   5.134   2.600   3.367 -0.2946  0.1121  0.4003
 3953SOL     OW15577   4.706   4.676   2.329 -0.1594  0.1994 -0.2140
 3953SOL    HW215578   4.725   4.750   2.387 -0.3287 -0.0469  0.1620
 3953SOL    HW315579   4.625   4.639   2.363 -0.3362  0.1353 -0.7008
 3953SOL    MW415580   4.698   4.681   2.341  0.6227 -0.1416  0.0077
 3954SOL     OW15581   5.830   3.964   0.853  0.4240 -0.0402 -0.7494
 3954SOL    HW215582   5.852   3.946   0.945  0.0004  2.4845 -0.0914
 3954SOL    HW315583   5.736   3.951   0.848  0.1361  1.6349 -0.3014
 3954SOL    MW415584   5.821   3.960   0.865 -0.6884  0.1191 -0.0917
 3955SOL     OW15585   5.939   2.214   4.982 -0.4005 -0.1532 -0.0786
 3955SOL    HW215586   5.959   2.230   5.074 -0.2043  1.7239 -0.4078
 3955SOL    HW315587   5.960   2.121   4.969 -1.4437 -0.7388  1.9945
 3955SOL    MW415588   5.945   2.204   4.992  0.1780 -0.7049 -0.2804
 3956SOL     OW15589   4.039   2.505   3.865 -0.1883 -0.4113  0.3131
 3956SOL    HW215590   3.989   2.509   3.947  1.0794 -0.6295  1.1255
 3956SOL    HW315591   4.085   2.589   3.861  1.7853 -1.3804  1.1992
 3956SOL    MW415592   4.039   2.517   3.875  0.4496 -0.0700  0.4993
 3957SOL     OW15593   5.116   4.797   3.779  0.1332 -0.2898  0.5483
 3957SOL    HW215594   5.138   4.875   3.831 -1.6762  0.0810  0.8377
 3957SOL    HW315595   5.061   4.745   3.837 -0.0841 -0.9579 -0.2427
 3957SOL    MW415596   5.112   4.801   3.794 -0.3142 -0.3871 -0.0180
 3958SOL     OW15597   4.709   1.558   1.233 -0.4131  0.2405 -0.8730
 3958SOL    HW215598   4.780   1.521   1.181 -0.4780 -1.6269  0.2870
 3958SOL    HW315599   4.660   1.613   1.172  0.0575 -1.1356 -2.5376
 3958SOL    MW415600   4.712   1.561   1.218 -0.1260 -0.3171 -0.0550
 3959SOL     OW15601   5.177   5.612   4.495 -0.1203  0.0077 -0.3305
 3959SOL    HW215602   5.164   5.620   4.401 -0.1332 -0.0874 -0.3368
 3959SOL    HW315603   5.105   5.663   4.534 -0.0554  0.1336 -0.3722
 3959SOL    MW415604   5.166   5.620   4.488  0.1334  0.1869  0.1784
 3960SOL     OW15605   5.461   0.260   6.297 -0.6432 -0.5195 -0.0891
 3960SOL    HW215606   5.429   0.321   6.230 -0.7996  0.7755  1.1065
 3960SOL    HW315607   5.394   0.262   6.365 -0.1950 -1.3217  0.3907
 3960SOL    MW415608   5.448   0.269   6.297 -0.2284 -0.2030  0.4729
 3961SOL     OW15609   5.639   5.551   2.735  0.0680 -0.3272  0.4742
 3961SOL    HW215610   5.727   5.582   2.755  0.5200 -1.1059 -0.2481
 3961SOL    HW315611   5.583   5.592   2.802  0.9714  0.1511  0.9518
 3961SOL    MW415612   5.643   5.560   2.747 -0.2476 -1.1729 -0.1678
 3962SOL     OW15613   2.562   6.044   2.438  0.0105 -0.0671  0.3185
 3962SOL    HW215614   2.528   6.080   2.356 -2.4594 -0.7417  0.9480
 3962SOL    HW315615   2.521   6.097   2.506  1.4248  0.0014  1.1507
 3962SOL    MW415616   2.552   6.055   2.436 -0.8995  0.6963 -0.3974
 3963SOL     OW15617   3.008   3.613   2.627 -0.3675 -1.0321 -0.6820
 3963SOL    HW215618   3.064   3.538   2.649  1.8567  1.0062  1.2845
 3963SOL    HW315619   3.035   3.637   2.539  1.6855 -0.3777  0.0535
 3963SOL    MW415620   3.019   3.606   2.618  0.7119  0.0004 -0.0129
 3964SOL     OW15621   4.389   2.983   4.054  0.2070 -0.0434  0.3017
 3964SOL    HW215622   4.348   2.914   4.106  0.2606 -0.8811 -0.7371
 3964SOL    HW315623   4.478   2.990   4.090  0.0060 -0.0812  0.8174
 3964SOL    MW415624   4.395   2.975   4.066 -0.2912  1.2146 -0.3055
 3965SOL     OW15625   4.881   5.595   0.824 -0.4478  0.2270 -0.2402
 3965SOL    HW215626   4.878   5.569   0.916 -1.1480  0.4423 -0.1951
 3965SOL    HW315627   4.942   5.533   0.784 -0.3799 -0.0688  0.3070
 3965SOL    MW415628   4.888   5.583   0.831  0.0396  0.7814  0.0569
 3966SOL     OW15629   4.248   3.292   2.073 -0.1208  0.6450 -0.3162
 3966SOL    HW215630   4.310   3.289   2.145  0.3607  0.0372 -0.7409
 3966SOL    HW315631   4.209   3.204   2.072  1.9671 -0.3424 -2.5725
 3966SOL    MW415632   4.251   3.280   2.082 -0.6633 -0.2536 -0.7433
 3967SOL     OW15633   5.893   2.461   4.405  0.1115 -0.1375 -0.1835
 3967SOL    HW215634   5.856   2.545   4.378 -1.9714 -1.3497 -1.3371
 3967SOL    HW315635   5.878   2.403   4.331  1.2106 -1.6254  0.7088
 3967SOL    MW415636   5.886   2.464   4.392 -0.2319 -0.1678  0.3719
 3968SOL     OW15637   4.585   6.197   2.190 -0.0192 -0.5268  0.1288
 3968SOL    HW215638   4.613   6.106   2.187 -0.7742 -0.7575 -1.6226
 3968SOL    HW315639   4.573   6.216   2.283 -0.1654 -2.3053  0.5103
 3968SOL    MW415640   4.587   6.188   2.202 -0.2556 -0.4322 -0.0308
 3969SOL     OW15641   5.581   2.823   1.323  0.2761 -0.6259  0.4318
 3969SOL    HW215642   5.608   2.743   1.277  0.7238  0.5355 -1.4573
 3969SOL    HW315643   5.661   2.876   1.328  0.1741 -0.6164  2.4183
 3969SOL    MW415644   5.595   2.819   1.317  0.2804 -0.1450 -0.4307
 3970SOL     OW15645   1.486  -0.004   0.318 -0.1322 -0.3740  0.4359
 3970SOL    HW215646   1.399   0.027   0.292 -0.8145 -1.2165  1.6132
 3970SOL    HW315647   1.510   0.051   0.392 -0.2029 -0.9246  0.8740
 3970SOL    MW415648   1.477   0.007   0.325  0.1712 -0.5200 -0.2859
 3971SOL     OW15649   0.031   1.507   3.439  0.1510  0.0277  0.3796
 3971SOL    HW215650   0.019   1.437   3.502  0.9240  1.1433  1.8110
 3971SOL    HW315651  -0.043   1.566   3.454 -0.7767 -0.6621 -1.1550
 3971SOL    MW415652   0.020   1.506   3.449 -0.4406  0.1489  0.1981
 3972SOL     OW15653   1.882   0.703   5.695 -0.4290  0.1230 -0.2652
 3972SOL    HW215654   1.802   0.741   5.658 -0.6319 -1.0123 -1.0274
 3972SOL    HW315655   1.873   0.609   5.680  1.0476 -0.0254 -0.3491
 3972SOL    MW415656   1.870   0.696   5.688  0.5169 -0.0933 -0.2034
 3973SOL     OW15657   4.598   6.290   2.466 -0.3610 -0.2384  0.7950
 3973SOL    HW215658   4.569   6.266   2.554 -0.1420  2.0352  1.5582
 3973SOL    HW315659   4.536   6.357   2.438 -0.1584 -0.6150 -0.6074
 3973SOL    MW415660   4.586   6.296   2.474 -0.0972  0.2570  0.1000
 3974SOL     OW15661   5.715   2.546   5.404 -0.2543  0.1365 -0.1611
 3974SOL    HW215662   5.702   2.579   5.493  1.4699 -1.2504  0.6804
 3974SOL    HW315663   5.660   2.467   5.400  0.9654 -0.7774  0.3323
 3974SOL    MW415664   5.706   2.540   5.415 -0.2271 -0.1450  0.2291
 3975SOL     OW15665   2.846   4.115   3.589 -0.7988 -0.7859 -0.3435
 3975SOL    HW215666   2.908   4.166   3.537  0.4785  1.5651  3.1245
 3975SOL    HW315667   2.890   4.033   3.607 -0.2079 -0.5924 -0.8876
 3975SOL    MW415668   2.860   4.111   3.584 -0.5144  0.2739  0.3825
 3976SOL     OW15669   4.013   5.588   1.790 -0.0607 -0.3112  0.0172
 3976SOL    HW215670   3.995   5.575   1.696 -1.8102  0.9798  0.1127
 3976SOL    HW315671   4.106   5.607   1.794 -0.0547  0.1824 -1.5473
 3976SOL    MW415672   4.023   5.589   1.778 -0.7334  0.4445 -0.2702
 3977SOL     OW15673   2.537   6.010   1.966 -0.2734  0.3282 -0.2047
 3977SOL    HW215674   2.499   5.932   1.925  1.0695  0.7873 -2.4786
 3977SOL    HW315675   2.566   6.064   1.893  1.7161  1.5146  1.3548
 3977SOL    MW415676   2.536   6.007   1.951  0.1726  0.3345  0.6224
 3978SOL     OW15677   1.769   3.462   5.532 -0.2132  0.1623 -0.3742
 3978SOL    HW215678   1.805   3.550   5.542 -1.4115  0.4911  1.4617
 3978SOL    HW315679   1.674   3.475   5.531 -0.4341 -1.1574  0.6974
 3978SOL    MW415680   1.761   3.476   5.533 -0.0459  0.4636  0.7229
 3979SOL     OW15681   6.201   3.381   3.807  0.4154  0.2561 -0.2058
 3979SOL    HW215682   6.221   3.287   3.816 -1.4878 -0.2475 -0.7752
 3979SOL    HW315683   6.166   3.406   3.892 -0.3990  0.0663 -0.4701
 3979SOL    MW415684   6.199   3.372   3.820  0.0761  0.4609 -0.8161
 3980SOL     OW15685   0.316   0.850   3.588  0.2111 -0.4366  0.0814
 3980SOL    HW215686   0.396   0.894   3.561  1.0774 -1.4986  0.8071
 3980SOL    HW315687   0.290   0.799   3.511 -1.2074  1.7990 -1.0191
 3980SOL    MW415688   0.323   0.849   3.574 -0.2400  0.6912  0.2786
 3981SOL     OW15689   3.539   3.495   4.318 -0.1544  0.3532 -0.7320
 3981SOL    HW215690   3.616   3.464   4.366  0.6302  1.0217 -1.5204
 3981SOL    HW315691   3.560   3.480   4.226 -1.8579 -1.3825 -0.8860
 3981SOL    MW415692   3.552   3.489   4.312 -0.1081 -0.0852 -0.8061
 3982SOL     OW15693   3.067   4.255   3.444  0.0862  0.0311 -0.3132
 3982SOL    HW215694   3.099   4.340   3.475 -0.9322  0.9106 -1.5595
 3982SOL    HW315695   3.145   4.199   3.446  0.4141  0.4615  2.1709
 3982SOL    MW415696   3.082   4.259   3.448  0.7348 -0.2809  0.6950
 3983SOL     OW15697   2.242   1.830   0.539  0.6358 -0.0761 -0.3030
 3983SOL    HW215698   2.229   1.771   0.613  2.5547  0.3787  0.4604
 3983SOL    HW315699   2.177   1.803   0.474 -1.3397 -0.2624  1.6584
 3983SOL    MW415700   2.232   1.819   0.540 -0.0220  0.1216 -0.5823
 3984SOL     OW15701   0.399   5.920   2.348 -0.1577 -0.0451 -0.0316
 3984SOL    HW215702   0.445   5.997   2.317  0.5770  0.0721  1.2841
 3984SOL    HW315703   0.308   5.949   2.360  0.0705  0.5569  0.2586
 3984SOL    MW415704   0.393   5.934   2.346 -0.0252  0.3570  0.0540
 3985SOL     OW15705   4.006   1.816   6.371 -0.1513  0.5274 -0.0033
 3985SOL    HW215706   4.017   1.721   6.377 -0.7375  0.5379  2.2034
 3985SOL    HW315707   3.911   1.829   6.365 -0.0699  0.9828 -0.3659
 3985SOL    MW415708   3.995   1.805   6.371  0.3120 -0.0880 -0.8744
 3986SOL     OW15709   4.467   6.093   3.010 -0.3603 -0.4602  0.0465
 3986SOL    HW215710   4.382   6.135   3.023 -0.9801 -1.7404  0.2061
 3986SOL    HW315711   4.526   6.140   3.070 -0.4556  1.7905 -1.5119
 3986SOL    MW415712   4.464   6.105   3.020  0.1740 -0.3346 -0.6401
 3987SOL     OW15713   1.734   1.799   6.031 -0.7353 -0.4725  0.3582
 3987SOL    HW215714   1.776   1.713   6.027 -0.4424 -0.2821 -1.3049
 3987SOL    HW315715   1.640   1.780   6.025 -0.6253 -0.6430 -1.1645
 3987SOL    MW415716   1.727   1.785   6.030  0.5364  0.0377 -0.5402
 3988SOL     OW15717   1.282   3.558   5.258  0.3182 -0.1000  0.0947
 3988SOL    HW215718   1.227   3.560   5.180 -2.6412  0.3015  2.0297
 3988SOL    HW315719   1.329   3.475   5.253 -0.7490 -0.6463 -1.4676
 3988SOL    MW415720   1.281   3.548   5.247 -0.3001  0.2371 -0.4053
 3989SOL     OW15721   0.834   5.869   0.822  0.4360 -0.2416 -0.0250
 3989SOL    HW215722   0.833   5.814   0.743  0.5152  0.0172 -0.2058
 3989SOL    HW315723   0.927   5.885   0.838  0.4170 -0.2524  0.0922
 3989SOL    MW415724   0.846   5.864   0.813 -0.5446 -0.6446  0.2210
 3990SOL     OW15725   3.393   2.686   5.537 -0.1691 -0.3540  0.1773
 3990SOL    HW215726   3.392   2.610   5.479 -0.1264 -0.5776  0.4718
 3990SOL    HW315727   3.485   2.700   5.557 -0.2707 -1.0302  1.1802
 3990SOL    MW415728   3.405   2.678   5.532  0.1922 -0.4596  0.0911
 3991SOL     OW15729   4.085   4.681   1.121  0.3187  0.3096  0.0466
 3991SOL    HW215730   4.056   4.633   1.044 -0.8228 -0.4059  0.8986
 3991SOL    HW315731   4.020   4.661   1.189  2.2617 -0.5794  1.7547
 3991SOL    MW415732   4.073   4.672   1.120  0.9638  0.6771 -0.5283
 3992SOL     OW15733   5.794   2.140   3.492  0.3543 -0.3178  0.2458
 3992SOL    HW215734   5.799   2.233   3.473  3.3627 -0.2754  0.7841
 3992SOL    HW315735   5.754   2.101   3.414 -0.5138  1.3236 -0.1678
 3992SOL    MW415736   5.789   2.147   3.479 -0.1896  0.0016 -0.4138
 3993SOL     OW15737   2.131   5.343   5.846  0.5371  0.2215  0.0851
 3993SOL    HW215738   2.062   5.299   5.896  1.2806 -1.4614 -0.2838
 3993SOL    HW315739   2.168   5.406   5.908  0.0116 -0.2935  0.9481
 3993SOL    MW415740   2.127   5.345   5.861 -0.4544  0.4984  0.8538
 3994SOL     OW15741   5.915   1.711   1.690  0.6459 -0.3637 -0.3789
 3994SOL    HW215742   5.962   1.721   1.607 -1.7700  0.4767 -1.7490
 3994SOL    HW315743   5.838   1.659   1.668  0.0369 -0.2767  1.3813
 3994SOL    MW415744   5.911   1.705   1.676  0.1972  0.1819  0.4382
 3995SOL     OW15745   0.410   0.167   4.477 -0.0728  0.1772  0.2219
 3995SOL    HW215746   0.475   0.123   4.423  1.0277 -0.1703  1.7579
 3995SOL    HW315747   0.448   0.253   4.496 -0.5424  0.3790  0.2735
 3995SOL    MW415748   0.424   0.173   4.473  0.1187 -0.2305 -0.5734
 3996SOL     OW15749   0.727   6.085   5.769  0.3252  0.3493  0.2465
 3996SOL    HW215750   0.791   6.150   5.738  0.5579 -0.1712 -0.3824
 3996SOL    HW315751   0.780   6.017   5.811  0.1259  0.2908  0.4042
 3996SOL    MW415752   0.743   6.085   5.771 -0.1081  0.2830  0.2263
 3997SOL     OW15753   3.068  -0.007   5.450  0.3739 -0.4231 -0.4174
 3997SOL    HW215754   3.088   0.035   5.367  1.0959 -1.3157 -0.7055
 3997SOL    HW315755   3.151  -0.042   5.480  0.4526  1.1741  1.4369
 3997SOL    MW415756   3.081  -0.006   5.443 -0.6496 -0.2692 -0.0973
 3998SOL     OW15757   0.534   2.721   3.515 -0.1428  0.2350  0.2504
 3998SOL    HW215758   0.600   2.741   3.582  0.8450 -0.6175 -0.4347
 3998SOL    HW315759   0.585   2.683   3.443 -1.5064 -1.5167  0.1495
 3998SOL    MW415760   0.550   2.719   3.514 -0.3613  0.1742  0.0640
 3999SOL     OW15761   5.679   0.789   5.808  0.0316  0.1078  0.3390
 3999SOL    HW215762   5.728   0.720   5.853  0.1203 -0.0325  0.0345
 3999SOL    HW315763   5.698   0.868   5.857  0.3298  0.0019  0.4002
 3999SOL    MW415764   5.688   0.790   5.820  0.4904  0.2654 -0.1222
 4000SOL     OW15765   4.749   0.628   3.699  0.0635 -0.2194  0.2938
 4000SOL    HW215766   4.676   0.688   3.715 -1.5626 -1.7985 -0.8480
 4000SOL    HW315767   4.815   0.653   3.765 -2.0642  0.3044  2.3793
 4000SOL    MW415768   4.748   0.639   3.710 -0.2941  0.5949 -0.3791
 4001SOL     OW15769   1.659   6.104   5.150  0.6954 -0.2449 -0.1139
 4001SOL    HW215770   1.626   6.147   5.071  0.7136  2.0497  1.0487
 4001SOL    HW315771   1.616   6.018   5.150 -1.6378  0.8384 -1.0931
 4001SOL    MW415772   1.649   6.098   5.140 -0.5463 -0.2413  0.0029
 4002SOL     OW15773   4.054   1.118   5.693  0.0828  0.3224 -0.3939
 4002SOL    HW215774   4.002   1.188   5.652  0.0642  0.9959  0.7561
 4002SOL    HW315775   3.996   1.081   5.760  0.0703 -0.8543 -1.0267
 4002SOL    MW415776   4.039   1.122   5.696  0.0982 -0.7449 -0.6008
 4003SOL     OW15777   5.148   5.664   6.188  0.5790  0.1710  0.5262
 4003SOL    HW215778   5.096   5.726   6.241  1.1227  1.1798 -0.0924
 4003SOL    HW315779   5.237   5.699   6.192  0.8336 -0.4090 -0.0860
 4003SOL    MW415780   5.153   5.677   6.196  0.1537 -0.6533 -0.2634
 4004SOL     OW15781   4.376   4.368   1.737  0.4460  0.6460  0.0984
 4004SOL    HW215782   4.326   4.301   1.689  0.0118  0.5492  0.6650
 4004SOL    HW315783   4.431   4.410   1.671 -0.6182  0.9632 -0.6075
 4004SOL    MW415784   4.376   4.365   1.722 -0.3546  0.5222 -0.4662
 4005SOL     OW15785   5.056   4.323   0.206  0.5835 -0.0739 -0.3162
 4005SOL    HW215786   5.121   4.272   0.157  1.3218 -0.2059  0.7718
 4005SOL    HW315787   5.046   4.277   0.289  0.3317  0.8608  0.1881
 4005SOL    MW415788   5.063   4.310   0.210 -0.5747 -0.4278 -0.1150
 4006SOL     OW15789   0.181   0.514   0.597  0.1913 -0.2530 -0.4631
 4006SOL    HW215790   0.194   0.527   0.691  0.7522 -0.9949 -0.4292
 4006SOL    HW315791   0.088   0.491   0.589  0.6317 -2.5381  0.2160
 4006SOL    MW415792   0.170   0.512   0.609 -0.1910  0.1382 -0.1518
 4007SOL     OW15793   0.650   3.677   2.463 -0.0368  0.0557  0.3799
 4007SOL    HW215794   0.653   3.631   2.547 -1.3346  0.2055  0.5317
 4007SOL    HW315795   0.578   3.635   2.416  0.8125 -0.1725 -0.7662
 4007SOL    MW415796   0.641   3.665   2.468 -0.0739 -0.1063  0.4769
 4008SOL     OW15797   5.338   4.728   1.075  0.4371 -0.0195  0.3457
 4008SOL    HW215798   5.421   4.693   1.042  0.5966  1.3278 -0.7263
 4008SOL    HW315799   5.272   4.696   1.014  0.5265  1.1302 -0.3751
 4008SOL    MW415800   5.341   4.719   1.063 -0.5200  0.3715  0.1463
 4009SOL     OW15801   4.880   4.047   2.320  0.5130  0.1412 -0.2353
 4009SOL    HW215802   4.845   4.043   2.231  0.6473 -0.2061 -0.2738
 4009SOL    HW315803   4.802   4.053   2.376  0.4312  0.4132 -0.3779
 4009SOL    MW415804   4.865   4.047   2.316 -0.0784  0.0252 -0.1528
 4010SOL     OW15805   3.535   3.439   5.349 -0.0674  0.5371 -0.3100
 4010SOL    HW215806   3.440   3.433   5.352 -0.0835  1.0442  1.6964
 4010SOL    HW315807   3.565   3.349   5.339 -0.7353  0.5650 -3.4690
 4010SOL    MW415808   3.527   3.427   5.348 -0.2901 -0.0754  0.4219
 4011SOL     OW15809   6.072   6.303   5.602  0.0356  0.0589  0.4120
 4011SOL    HW215810   6.018   6.283   5.678 -0.2835  2.8807  1.0236
 4011SOL    HW315811   6.015   6.353   5.544  0.9941  0.0640 -0.5671
 4011SOL    MW415812   6.058   6.307   5.604  0.1333 -0.7224  0.2386
 4012SOL     OW15813   0.829   2.995   4.710  0.0304  0.4141  0.1208
 4012SOL    HW215814   0.815   3.086   4.686  0.0233  0.2756 -0.4182
 4012SOL    HW315815   0.827   2.994   4.806 -0.0455  0.9638  0.1249
 4012SOL    MW415816   0.827   3.007   4.719 -0.0274  0.4159 -0.1266
 4013SOL     OW15817   5.929   0.274   0.208 -0.3343 -0.0839  0.4570
 4013SOL    HW215818   6.014   0.262   0.167  0.0903  2.2200  0.5079
 4013SOL    HW315819   5.945   0.339   0.277 -2.0059 -0.0795  0.8831
 4013SOL    MW415820   5.942   0.281   0.212  0.5494 -0.5115  0.4665
 4014SOL     OW15821   2.964   4.991   2.644  0.3687  0.4563  0.3611
 4014SOL    HW215822   2.891   5.053   2.642 -0.1241 -0.1226  0.1451
 4014SOL    HW315823   3.016   5.012   2.567  0.2339  0.6333  0.3172
 4014SOL    MW415824   2.961   5.002   2.634  0.0289  0.6555 -0.1102
 4015SOL     OW15825   5.465   3.075   1.089 -0.0814  0.0072  0.0732
 4015SOL    HW215826   5.486   3.025   1.010 -0.1788 -0.0406  0.0777
 4015SOL    HW315827   5.386   3.034   1.123  0.3561 -0.4251  0.5899
 4015SOL    MW415828   5.458   3.063   1.083  0.1192  0.7254  0.3111
 4016SOL     OW15829   0.357   6.083   2.669 -0.0338  0.1341  0.1761
 4016SOL    HW215830   0.356   6.080   2.764  1.7794  2.7892  0.3656
 4016SOL    HW315831   0.401   6.003   2.642  1.1436  0.2542  1.6778
 4016SOL    MW415832   0.362   6.072   2.678 -0.6099 -0.2524 -0.8128
 4017SOL     OW15833   2.493   0.477   0.114  0.1968 -0.7821 -0.3001
 4017SOL    HW215834   2.404   0.445   0.098 -0.0760 -1.7011  2.5093
 4017SOL    HW315835   2.549   0.401   0.098  0.4591 -0.3659 -1.4798
 4017SOL    MW415836   2.488   0.463   0.110  0.4294 -0.8319  0.6023
 4018SOL     OW15837   4.048   2.401   2.750  0.4687  0.4718 -1.0554
 4018SOL    HW215838   3.999   2.345   2.810  2.8123  0.0807  0.5734
 4018SOL    HW315839   4.000   2.484   2.751 -0.0594  0.1880  0.6555
 4018SOL    MW415840   4.035   2.405   2.758 -0.7608  0.5143 -0.4129
 4019SOL     OW15841   0.482   2.586   5.196 -0.1673  0.0820  0.7156
 4019SOL    HW215842   0.512   2.582   5.287 -0.5229  1.4436  0.9219
 4019SOL    HW315843   0.392   2.619   5.203 -0.2404  0.0729 -0.1283
 4019SOL    MW415844   0.474   2.590   5.209 -0.3331  0.0679  0.8920
 4020SOL     OW15845   1.877   0.169   1.705 -0.2907 -0.2053  0.1318
 4020SOL    HW215846   1.939   0.237   1.680 -0.3036 -0.4759 -0.6867
 4020SOL    HW315847   1.844   0.196   1.790  1.3374 -0.3244  0.8226
 4020SOL    MW415848   1.881   0.181   1.713 -0.5940  0.5062  0.0503
 4021SOL     OW15849   6.186   5.191   5.204 -0.9471 -0.4513 -0.3001
 4021SOL    HW215850   6.091   5.182   5.201 -1.0407  0.6674 -0.9503
 4021SOL    HW315851   6.205   5.211   5.296 -1.8916  4.3877 -0.9108
 4021SOL    MW415852   6.176   5.193   5.216  0.4788 -0.1955  0.1124
 4022SOL     OW15853   1.203   3.881   5.411  0.0304 -0.1852  0.2840
 4022SOL    HW215854   1.296   3.868   5.425  0.0514 -0.1015  0.2229
 4022SOL    HW315855   1.170   3.795   5.386  0.3371  0.0607 -1.0631
 4022SOL    MW415856   1.211   3.868   5.410  0.3430  0.0882 -0.0160
 4023SOL     OW15857   2.334   3.229   3.795 -0.2344  0.0855 -0.4969
 4023SOL    HW215858   2.385   3.281   3.857  0.2516  0.5519 -1.2724
 4023SOL    HW315859   2.400   3.176   3.750 -0.6965 -1.0362  0.1052
 4023SOL    MW415860   2.350   3.229   3.797  0.4260 -0.6145  0.4673
 4024SOL     OW15861   1.867   3.123   1.241  0.0343 -0.0098  0.2672
 4024SOL    HW215862   1.922   3.049   1.265  0.4853  0.2887  0.1607
 4024SOL    HW315863   1.791   3.083   1.198 -0.3329 -0.4831  1.3245
 4024SOL    MW415864   1.864   3.108   1.238  0.0835  0.5297  0.7532
 4025SOL     OW15865   5.544   4.575   0.981 -0.0139  0.6126  0.1002
 4025SOL    HW215866   5.622   4.626   1.002 -0.0986  0.8371 -0.1227
 4025SOL    HW315867   5.544   4.504   1.044  0.8786  0.0747 -0.4903
 4025SOL    MW415868   5.554   4.573   0.992 -0.0811  0.1015 -0.2782
 4026SOL     OW15869   1.256   0.094   0.156  0.2967 -0.0506 -0.2862
 4026SOL    HW215870   1.212   0.167   0.201 -1.1486 -0.6736 -0.6309
 4026SOL    HW315871   1.191   0.024   0.155  0.8138 -0.5398 -2.0675
 4026SOL    MW415872   1.241   0.095   0.162  0.0013  0.4744  0.3946
 4027SOL     OW15873   5.332   2.522   1.520 -0.1986  0.5424 -0.5495
 4027SOL    HW215874   5.413   2.486   1.555  0.6566  1.5911 -1.3490
 4027SOL    HW315875   5.268   2.511   1.590  1.2078  1.7527  1.0177
 4027SOL    MW415876   5.334   2.516   1.534  0.3999  0.0377  0.7537
 4028SOL     OW15877   0.620   4.922   2.008  0.2280  0.1874  0.2080
 4028SOL    HW215878   0.527   4.903   2.013  0.5334 -1.0239  1.6249
 4028SOL    HW315879   0.664   4.838   2.023  1.5611  0.6017 -1.0862
 4028SOL    MW415880   0.614   4.909   2.010  0.4387 -0.0709  0.0331
 4029SOL     OW15881   2.603   1.355   3.974 -0.7059 -0.0025 -0.4889
 4029SOL    HW215882   2.549   1.358   3.895 -2.3685  1.3435  0.6237
 4029SOL    HW315883   2.675   1.415   3.956  0.0995 -1.2859 -1.7335
 4029SOL    MW415884   2.605   1.363   3.961 -0.3809 -0.2803 -0.7314
 4030SOL     OW15885   4.706   5.165   4.050 -0.0803  0.2457  0.0354
 4030SOL    HW215886   4.746   5.174   4.136  0.3171  1.1056 -0.2260
 4030SOL    HW315887   4.650   5.087   4.057  2.5676 -1.7970  0.0466
 4030SOL    MW415888   4.704   5.156   4.062 -0.3342 -0.2973  0.0168
 4031SOL     OW15889   1.527   1.038   2.957  0.1245 -0.2450  0.1691
 4031SOL    HW215890   1.467   1.111   2.944 -0.8175 -1.2670 -1.3806
 4031SOL    HW315891   1.473   0.968   2.992  0.6428 -0.8220 -0.1711
 4031SOL    MW415892   1.512   1.039   2.960 -0.0173  0.4391  0.4718
 4032SOL     OW15893   4.246   4.248   2.480  0.4621  0.5077  0.4423
 4032SOL    HW215894   4.253   4.298   2.399  0.0505 -0.4775 -0.2242
 4032SOL    HW315895   4.165   4.280   2.521 -2.2301 -2.3686 -2.0394
 4032SOL    MW415896   4.236   4.259   2.475 -0.2641 -0.3948  0.3084
 4033SOL     OW15897   2.331   6.362   3.474 -0.1663 -0.6010 -0.2390
 4033SOL    HW215898   2.298   6.312   3.399  0.9059 -0.7776 -0.5972
 4033SOL    HW315899   2.309   6.308   3.549  0.7371 -1.4906 -0.6016
 4033SOL    MW415900   2.324   6.348   3.474  0.1617 -0.0332  0.7850
 4034SOL     OW15901   4.568   3.601   5.713 -0.4002 -0.1760 -0.0590
 4034SOL    HW215902   4.521   3.576   5.634 -1.0071 -0.3922  0.3614
 4034SOL    HW315903   4.618   3.679   5.688 -1.2293  0.2485 -0.4419
 4034SOL    MW415904   4.568   3.608   5.699  0.0993 -0.0922  0.4309
 4035SOL     OW15905   2.257   1.670   4.860 -0.2056 -0.3350 -0.4960
 4035SOL    HW215906   2.326   1.605   4.865  0.3060  0.1624 -1.0289
 4035SOL    HW315907   2.219   1.672   4.948  0.5408 -0.5163 -0.1690
 4035SOL    MW415908   2.261   1.662   4.872 -0.5451  0.2031  0.3336
 4036SOL     OW15909   4.289   2.963   1.188  0.0937 -0.1821  0.3741
 4036SOL    HW215910   4.339   3.044   1.199 -1.5864  0.8160  1.0323
 4036SOL    HW315911   4.329   2.921   1.113 -0.1572  2.2068 -1.2097
 4036SOL    MW415912   4.301   2.968   1.180  0.7231  0.2035  0.0020
 4037SOL     OW15913   4.976   2.165   3.469  0.0110 -0.3690  0.4132
 4037SOL    HW215914   4.948   2.143   3.558 -2.5250 -2.5101 -0.7851
 4037SOL    HW315915   4.964   2.260   3.464 -4.2640 -0.6683  1.1167
 4037SOL    MW415916   4.971   2.175   3.480 -0.0880  0.9513 -0.2956
 4038SOL     OW15917   0.827   3.877   3.218 -0.1449  0.4443  0.5820
 4038SOL    HW215918   0.829   3.926   3.136  1.5459 -0.8623 -0.2000
 4038SOL    HW315919   0.868   3.936   3.282  0.4457  0.6666  0.0094
 4038SOL    MW415920   0.833   3.892   3.216  0.5637 -0.1819  0.1349
 4039SOL     OW15921   3.205   4.239   2.004 -0.8678  0.2108  1.1027
 4039SOL    HW215922   3.237   4.306   1.943 -0.0776 -0.8376  0.3187
 4039SOL    HW315923   3.199   4.160   1.950 -1.5316 -0.4029  2.0716
 4039SOL    MW415924   3.209   4.238   1.989 -0.4906 -0.3119 -0.3160
 4040SOL     OW15925   3.464   3.252   0.270 -0.1570 -0.2619 -0.3735
 4040SOL    HW215926   3.527   3.315   0.303  0.3211 -0.4214 -0.9574
 4040SOL    HW315927   3.418   3.220   0.348 -1.4645  1.8769 -0.1850
 4040SOL    MW415928   3.466   3.256   0.285 -0.0555 -0.1751 -0.1239
 4041SOL     OW15929   6.222   0.216   0.163 -0.1419  0.0814 -0.6003
 4041SOL    HW215930   6.286   0.229   0.233 -1.8325  0.9373  0.8738
 4041SOL    HW315931   6.232   0.124   0.138 -0.0177 -0.4715  1.3344
 4041SOL    MW415932   6.232   0.206   0.169  0.2820 -0.1257 -0.3227
 4042SOL     OW15933   2.579   5.029   5.413 -0.2415 -0.2894  0.0769
 4042SOL    HW215934   2.591   4.934   5.423 -1.6829 -0.2380  3.7142
 4042SOL    HW315935   2.657   5.067   5.453  0.6300  0.1363 -1.9297
 4042SOL    MW415936   2.591   5.021   5.420 -0.5763 -0.2572 -0.4229
 4043SOL     OW15937   0.038   2.702   3.234  0.1002  0.2963 -0.0221
 4043SOL    HW215938   0.035   2.686   3.328  1.7430 -1.6642 -0.2412
 4043SOL    HW315939   0.129   2.725   3.216 -0.5634  2.5429 -0.9237
 4043SOL    MW415940   0.050   2.703   3.244 -0.3789 -0.5792  0.7740
 4044SOL     OW15941   1.999   2.612   1.951  0.5571 -0.0934  0.0813
 4044SOL    HW215942   2.085   2.632   1.990  1.2733 -0.3463 -1.2946
 4044SOL    HW315943   2.000   2.518   1.938  0.4284  0.0086 -0.7208
 4044SOL    MW415944   2.011   2.603   1.955 -0.6129 -0.5939 -0.7188
 4045SOL     OW15945   3.598   1.630   4.232 -0.0433  0.0748 -0.2940
 4045SOL    HW215946   3.534   1.614   4.163 -0.0319 -0.7162 -0.1284
 4045SOL    HW315947   3.670   1.676   4.189 -0.2676  0.0403 -0.7023
 4045SOL    MW415948   3.599   1.634   4.217  0.1592 -0.3959 -0.0831
 4046SOL     OW15949   1.162   1.525   3.515  0.0970 -0.0524 -0.2299
 4046SOL    HW215950   1.197   1.584   3.449  0.5350  0.2361  0.2560
 4046SOL    HW315951   1.219   1.536   3.591 -0.4095 -0.3632  0.2072
 4046SOL    MW415952   1.174   1.534   3.516 -0.0312  0.0294 -0.5298
 4047SOL     OW15953   1.447   3.078   3.422  0.5787 -0.4564  0.1401
 4047SOL    HW215954   1.405   3.047   3.342  3.5278 -0.4503 -1.5329
 4047SOL    HW315955   1.394   3.153   3.449  0.6197  0.8778 -3.0291
 4047SOL    MW415956   1.435   3.084   3.415  0.3791  0.5518 -0.0486
 4048SOL     OW15957   0.581   6.271   1.888  0.5491 -0.0520 -0.4649
 4048SOL    HW215958   0.568   6.336   1.819 -0.0155  0.7922  0.4157
 4048SOL    HW315959   0.498   6.270   1.936  0.7184 -1.0876 -0.1720
 4048SOL    MW415960   0.568   6.279   1.885  0.8371 -0.5137  0.1345
 4049SOL     OW15961   4.108   6.349   1.214 -0.2265 -0.5910 -0.6009
 4049SOL    HW215962   4.204   6.345   1.210 -0.0972 -0.0453  1.0971
 4049SOL    HW315963   4.079   6.321   1.127  1.4529 -1.3609 -0.9487
 4049SOL    MW415964   4.117   6.345   1.202  0.4816 -0.2782  0.0632
 4050SOL     OW15965   2.727   4.985   0.712 -0.3182  0.2614 -0.1525
 4050SOL    HW215966   2.650   5.026   0.752  1.2930  0.6387  2.8937
 4050SOL    HW315967   2.800   5.040   0.740  1.4947 -2.3777  0.7085
 4050SOL    MW415968   2.726   4.997   0.721 -0.1767  0.1501  0.4558
 4051SOL     OW15969   2.425   1.959   5.374 -0.3243 -0.1208  0.1124
 4051SOL    HW215970   2.340   1.993   5.348 -0.9417 -1.7838 -0.1584
 4051SOL    HW315971   2.429   1.973   5.469 -1.6909 -1.5938  0.4328
 4051SOL    MW415972   2.414   1.965   5.383 -0.1627 -0.5135 -0.0835
 4052SOL     OW15973   3.684   2.588   4.717  0.4102  0.0270  0.1922
 4052SOL    HW215974   3.665   2.674   4.680  1.9179 -0.4677 -1.9447
 4052SOL    HW315975   3.604   2.537   4.703  0.3825  0.3561 -0.9135
 4052SOL    MW415976   3.671   2.592   4.710 -0.3343 -0.5918  0.2107
 4053SOL     OW15977   4.904   6.279   4.558  0.2929  0.3617  0.4757
 4053SOL    HW215978   4.838   6.281   4.489  0.2685 -0.7104  0.4527
 4053SOL    HW315979   4.973   6.339   4.528 -0.2019  0.7066  0.0237
 4053SOL    MW415980   4.905   6.287   4.545  0.2359 -0.0710  0.0344
 4054SOL     OW15981   0.428   6.398   2.728  0.0950 -0.5090  0.3926
 4054SOL    HW215982   0.488   6.387   2.655 -0.1150 -2.8588  0.5098
 4054SOL    HW315983   0.346   6.358   2.698 -0.9952  1.3255  0.7778
 4054SOL    MW415984   0.425   6.391   2.714  0.4253  0.0300  0.2566
 4055SOL     OW15985   4.512   1.737   2.901 -0.1656 -0.0594 -0.1530
 4055SOL    HW215986   4.441   1.684   2.937  0.2845 -1.4451 -1.2403
 4055SOL    HW315987   4.571   1.753   2.976 -0.8525 -0.1595  0.4158
 4055SOL    MW415988   4.511   1.732   2.916 -0.1070  0.5971  0.2017
 4056SOL     OW15989   5.178   2.393   5.484  0.3286 -0.5899 -0.2377
 4056SOL    HW215990   5.238   2.462   5.512  1.4039 -1.1938 -0.9663
 4056SOL    HW315991   5.096   2.438   5.466  0.5094  0.2400  0.9152
 4056SOL    MW415992   5.175   2.408   5.485 -0.4885  0.5426 -0.5706
 4057SOL     OW15993   5.516   0.252   4.474 -0.6770 -0.1692 -0.4827
 4057SOL    HW215994   5.590   0.193   4.456 -1.3306 -1.1367 -0.0773
 4057SOL    HW315995   5.449   0.226   4.411 -2.0377 -1.8595  1.5608
 4057SOL    MW415996   5.517   0.241   4.463  0.5217 -0.2295 -0.3024
 4058SOL     OW15997   2.765   1.984   3.858 -0.3281 -0.1057 -0.4475
 4058SOL    HW215998   2.830   1.948   3.798 -0.7503 -1.3620 -0.1903
 4058SOL    HW315999   2.705   1.911   3.874 -0.0989  0.1062  1.6890
 4058SOL    MW416000   2.766   1.969   3.852  0.7026 -0.0685  0.3751
 4059SOL     OW16001   1.437   4.776   1.813 -0.3431  0.5450 -0.3755
 4059SOL    HW216002   1.515   4.831   1.824  0.1333 -0.6482  3.6090
 4059SOL    HW316003   1.466   4.702   1.760  0.4014  1.4971 -1.3377
 4059SOL    MW416004   1.451   4.774   1.807  0.1490 -0.3330 -0.5576
 4060SOL     OW16005   0.871   1.246   4.048  0.1114  0.0610  0.3212
 4060SOL    HW216006   0.895   1.165   4.002 -0.1143  0.3496 -0.3275
 4060SOL    HW316007   0.776   1.241   4.057  0.1463  0.0446  0.6957
 4060SOL    MW416008   0.862   1.234   4.043 -0.3431 -0.1430  0.1956
 4061SOL     OW16009   0.613   6.132   2.605  0.2564  0.3730 -0.3747
 4061SOL    HW216010   0.668   6.098   2.676 -0.5399 -1.8295 -0.7497
 4061SOL    HW316011   0.524   6.119   2.636 -0.1039  2.3100 -0.5034
 4061SOL    MW416012   0.609   6.126   2.619  0.6238 -0.2519 -0.4758
 4062SOL     OW16013   3.240   2.470   2.182 -0.1168 -0.5658  0.0874
 4062SOL    HW216014   3.322   2.449   2.228  0.6457 -1.3684 -1.5475
 4062SOL    HW316015   3.268   2.502   2.096 -1.4550  2.2321  0.5877
 4062SOL    MW416016   3.255   2.471   2.177  0.1013 -0.1409 -0.0877
 4063SOL     OW16017   5.452   1.407   5.738 -0.9095  0.1758 -0.5994
 4063SOL    HW216018   5.359   1.416   5.762 -0.3694  2.0265  1.0548
 4063SOL    HW316019   5.453   1.420   5.643 -2.4493 -1.0953 -0.8366
 4063SOL    MW416020   5.440   1.410   5.728  0.3416  0.7918 -0.5830
 4064SOL     OW16021   5.704   4.247   0.546  0.4391  0.1111 -0.0062
 4064SOL    HW216022   5.687   4.317   0.609 -1.4207  0.4104 -0.7894
 4064SOL    HW316023   5.658   4.171   0.581 -0.6594  0.2967 -1.0011
 4064SOL    MW416024   5.696   4.246   0.559 -0.5302  0.4838  0.0780
 4065SOL     OW16025   2.142   1.126   2.967  0.4970 -0.2415  0.3500
 4065SOL    HW216026   2.195   1.172   2.902  3.5734 -2.3914  1.1355
 4065SOL    HW316027   2.134   1.187   3.040 -1.1591  1.3773 -1.0850
 4065SOL    MW416028   2.148   1.140   2.968  0.9159 -0.1574 -0.1849
 4066SOL     OW16029   1.837   1.422   1.785 -0.6447 -0.2447  0.2620
 4066SOL    HW216030   1.792   1.445   1.704 -0.7611 -1.7680 -0.1360
 4066SOL    HW316031   1.918   1.378   1.756 -1.1910 -1.7641  0.9219
 4066SOL    MW416032   1.842   1.419   1.771 -0.4766  0.4355 -0.5614
 4067SOL     OW16033   3.033   4.185   0.117  0.1033  0.4663  0.0144
 4067SOL    HW216034   3.104   4.244   0.089  1.1274 -1.5175 -1.8516
 4067SOL    HW316035   3.067   4.142   0.195  0.5388  0.2916 -0.2672
 4067SOL    MW416036   3.047   4.187   0.123 -0.3829  0.8242 -0.2288
 4068SOL     OW16037   3.632   1.967   5.391  0.2998 -0.0856  0.5656
 4068SOL    HW216038   3.696   2.011   5.335 -0.6637  1.5903  0.7429
 4068SOL    HW316039   3.659   1.987   5.480 -1.2165  1.8390  0.6472
 4068SOL    MW416040   3.644   1.975   5.395 -0.0678  0.3717  0.2464
 4069SOL     OW16041   2.856   5.744   0.545  0.2537 -0.2810 -0.2431
 4069SOL    HW216042   2.930   5.689   0.517 -0.4909 -1.1808 -0.4980
 4069SOL    HW316043   2.781   5.709   0.496 -0.4215  0.3417  0.3372
 4069SOL    MW416044   2.856   5.732   0.535 -1.0123  0.4692 -0.2192
 4070SOL     OW16045   6.389   0.835   4.874 -0.3963  0.0052 -0.1320
 4070SOL    HW216046   6.472   0.789   4.864  0.2087  1.5054 -2.8332
 4070SOL    HW316047   6.371   0.832   4.969  2.7541 -0.2712  0.5553
 4070SOL    MW416048   6.397   0.828   4.886  0.1184 -0.4455  0.0562
 4071SOL     OW16049   1.753   2.695   1.192 -0.3037 -0.0107 -0.4057
 4071SOL    HW216050   1.737   2.608   1.155  0.0284  0.2210 -1.1090
 4071SOL    HW316051   1.750   2.681   1.286 -1.2585 -0.5992 -0.4978
 4071SOL    MW416052   1.750   2.681   1.199  0.3678 -0.2345 -0.1344
 4072SOL     OW16053   5.078   2.759   1.424  0.0091  0.2121  0.2379
 4072SOL    HW216054   5.084   2.743   1.518 -0.5446 -0.7110  0.1232
 4072SOL    HW316055   5.164   2.794   1.400 -0.1727  1.4355  1.2552
 4072SOL    MW416056   5.090   2.762   1.433 -0.1253 -0.6361  0.8003
 4073SOL     OW16057   2.363   2.695   6.368  0.4219 -0.1514  0.1304
 4073SOL    HW216058   2.392   2.665   6.282  2.9072  0.5915  0.6249
 4073SOL    HW316059   2.353   2.615   6.419 -0.2550 -0.5465 -0.6124
 4073SOL    MW416060   2.366   2.681   6.364 -0.2858  0.6812 -0.0503
 4074SOL     OW16061   6.140   2.091   1.223 -0.0013  0.4166 -0.7363
 4074SOL    HW216062   6.166   2.007   1.184  0.7298  0.7045 -0.8844
 4074SOL    HW316063   6.111   2.143   1.148 -1.1924  0.0516 -0.5586
 4074SOL    MW416064   6.139   2.087   1.208  0.1232 -0.4972 -0.5479
 4075SOL     OW16065   0.527   3.363   4.990 -0.2258  0.2428  0.0371
 4075SOL    HW216066   0.492   3.418   4.920  1.0991  1.5803  0.3673
 4075SOL    HW316067   0.452   3.343   5.045 -0.6184  2.5317  0.4130
 4075SOL    MW416068   0.513   3.368   4.988  0.0239 -0.8080 -0.5585
 4076SOL     OW16069   0.918   3.267   5.070 -0.3680 -0.1108  0.1389
 4076SOL    HW216070   0.997   3.226   5.036 -1.0465  0.8194 -2.8379
 4076SOL    HW316071   0.928   3.360   5.048 -2.7894 -0.1613 -1.6142
 4076SOL    MW416072   0.929   3.274   5.063 -0.2977 -0.2076 -0.5241
 4077SOL     OW16073   6.246   3.010   3.582 -0.0862  0.1757  0.5819
 4077SOL    HW216074   6.301   3.088   3.577  0.2995 -0.1226  0.1008
 4077SOL    HW316075   6.267   2.971   3.667 -0.0719  0.4400  0.7002
 4077SOL    MW416076   6.256   3.015   3.593  0.1792 -0.0872  0.0374
 4078SOL     OW16077   2.945   0.180   3.905 -0.0987 -0.1658 -0.4999
 4078SOL    HW216078   2.975   0.212   3.820 -0.9605  0.0865 -0.7140
 4078SOL    HW316079   2.974   0.088   3.907 -0.9008 -0.4608 -1.4849
 4078SOL    MW416080   2.953   0.172   3.894  0.2721 -0.5630 -0.4299
 4079SOL     OW16081   4.091   5.417   0.429  0.2405  0.1704 -0.2775
 4079SOL    HW216082   3.996   5.412   0.417  0.0835  1.6612  0.0732
 4079SOL    HW316083   4.119   5.326   0.437 -0.8764 -0.4126 -2.3073
 4079SOL    MW416084   4.082   5.404   0.429  0.5941 -0.4907 -0.2694
 4080SOL     OW16085   3.835   0.352   5.020  0.0782 -0.4330 -0.3075
 4080SOL    HW216086   3.916   0.308   4.996 -0.2982 -0.3960 -1.7068
 4080SOL    HW316087   3.859   0.445   5.023  0.6139 -0.5809  1.5969
 4080SOL    MW416088   3.849   0.359   5.017 -0.3650 -0.3077  0.7247
 4081SOL     OW16089   3.326   0.470   5.055 -0.3160  0.1080 -0.2031
 4081SOL    HW216090   3.385   0.453   4.981 -0.8842 -0.9108 -0.4391
 4081SOL    HW316091   3.367   0.426   5.129  0.6215  1.7278  0.2805
 4081SOL    MW416092   3.339   0.462   5.055  0.5416 -0.2297 -0.4518
 4082SOL     OW16093   4.164   1.710   4.519  0.0866 -0.3334  0.1852
 4082SOL    HW216094   4.145   1.755   4.602  0.6829  0.2425  0.0178
 4082SOL    HW316095   4.078   1.686   4.485 -0.2538  0.6129  0.3270
 4082SOL    MW416096   4.150   1.713   4.526 -0.0328  0.2301  0.2651
 4083SOL     OW16097   5.304   5.963   4.434  0.2780  0.0860  0.5158
 4083SOL    HW216098   5.331   5.917   4.513 -0.7772  0.8559  1.3618
 4083SOL    HW316099   5.219   6.003   4.457 -0.4024 -0.2517 -1.2171
 4083SOL    MW416100   5.296   5.962   4.448 -0.1391 -0.2094  0.4243
 4084SOL     OW16101   0.289   0.534   4.620 -0.3884  1.0351 -0.3978
 4084SOL    HW216102   0.248   0.467   4.565  0.8887  0.1788 -0.3674
 4084SOL    HW316103   0.302   0.492   4.705  2.4327  0.4664 -0.9976
 4084SOL    MW416104   0.285   0.520   4.624  0.5426 -0.5489  0.1637
 4085SOL     OW16105   0.041   6.054   1.764 -0.0554 -0.3331 -0.0560
 4085SOL    HW216106   0.016   6.141   1.733 -2.9019 -1.3216 -0.9174
 4085SOL    HW316107   0.005   5.994   1.699  3.5214 -2.2032 -0.5663
 4085SOL    MW416108   0.033   6.057   1.752 -0.6378  0.3247  0.0102
 4086SOL     OW16109   6.332   5.884   2.844 -0.1250 -0.2822  0.6382
 4086SOL    HW216110   6.419   5.890   2.884  0.3547 -1.5220 -0.1648
 4086SOL    HW316111   6.322   5.792   2.821 -0.4874  0.2959 -1.8061
 4086SOL    MW416112   6.342   5.873   2.846 -0.0407  0.3760 -0.2324
 4087SOL     OW16113   0.848   5.726   0.590 -0.0815  0.2076 -0.0014
 4087SOL    HW216114   0.807   5.647   0.554  0.2390 -0.1245  0.3565
 4087SOL    HW316115   0.940   5.720   0.563  0.0051  0.3172  0.2660
 4087SOL    MW416116   0.855   5.715   0.582 -0.3120  0.0719 -0.5244
 4088SOL     OW16117   5.186   2.577   4.295 -0.3324  0.1262  0.2228
 4088SOL    HW216118   5.236   2.578   4.213 -0.6071  2.1993  0.0298
 4088SOL    HW316119   5.095   2.585   4.267 -0.4599  0.3963  0.7023
 4088SOL    MW416120   5.180   2.578   4.281  0.0698 -0.5747 -0.7693
 4089SOL     OW16121   5.635   3.161   6.179  0.0642  0.5486 -0.1007
 4089SOL    HW216122   5.617   3.255   6.177 -0.2139  0.4937 -1.5004
 4089SOL    HW316123   5.554   3.121   6.149 -0.1185 -0.2184  1.3285
 4089SOL    MW416124   5.622   3.168   6.175  0.5718  0.1645 -0.5104
 4090SOL     OW16125   3.528   5.824   1.108 -0.1248 -0.4923 -0.0095
 4090SOL    HW216126   3.585   5.889   1.066 -2.7915  2.0394 -0.0274
 4090SOL    HW316127   3.547   5.742   1.061  1.0311  0.9755 -2.2931
 4090SOL    MW416128   3.538   5.822   1.096  1.0227 -0.0729 -0.4884
 4091SOL     OW16129   5.526   1.078   1.154 -0.2784  0.1762  0.1372
 4091SOL    HW216130   5.611   1.039   1.173 -0.3966 -0.9868 -1.5220
 4091SOL    HW316131   5.464   1.027   1.205 -0.0449  0.8874  1.1784
 4091SOL    MW416132   5.529   1.066   1.164  0.0864  0.2408 -0.2945
 4092SOL     OW16133   3.417   1.075   5.852 -0.3950 -0.3367 -0.2968
 4092SOL    HW216134   3.498   1.067   5.802  0.3958 -0.9200  1.0543
 4092SOL    HW316135   3.348   1.068   5.786  0.6248  0.9868 -1.5922
 4092SOL    MW416136   3.419   1.073   5.836  0.0952  0.4852  0.1396
 4093SOL     OW16137   5.108   0.508   0.161  0.1224 -0.0426  0.7729
 4093SOL    HW216138   5.025   0.473   0.131 -0.4260  1.0450  0.9911
 4093SOL    HW316139   5.093   0.530   0.253  0.7991 -0.2624  0.9461
 4093SOL    MW416140   5.095   0.506   0.169 -0.1553  0.2413  0.0008
 4094SOL     OW16141   3.608   5.351   3.598 -0.3283 -0.4593  0.4668
 4094SOL    HW216142   3.514   5.334   3.606 -0.3400 -0.0771  1.2308
 4094SOL    HW316143   3.645   5.320   3.680  0.1841 -0.3951  0.2640
 4094SOL    MW416144   3.601   5.345   3.610 -0.8509 -0.3494  0.2343
 4095SOL     OW16145   5.398   3.894   5.178 -0.2296 -0.7686 -0.1260
 4095SOL    HW216146   5.453   3.940   5.242 -0.3257  1.1423 -1.3170
 4095SOL    HW316147   5.411   3.801   5.197  1.1238 -0.3031  1.4924
 4095SOL    MW416148   5.407   3.888   5.189 -0.4238  0.4041 -0.2616
 4096SOL     OW16149   0.928   6.167   1.416  0.0829 -0.1817  0.1874
 4096SOL    HW216150   0.882   6.187   1.334 -0.0347 -1.9947 -0.2304
 4096SOL    HW316151   0.879   6.094   1.453  1.3884 -0.7745  0.7972
 4096SOL    MW416152   0.915   6.160   1.410  0.4457  0.1835 -0.3053
 4097SOL     OW16153   4.745   5.667   4.017  0.0321  0.0721  0.0218
 4097SOL    HW216154   4.809   5.665   3.946  0.5979 -2.5103  0.5133
 4097SOL    HW316155   4.745   5.758   4.046  0.5863  0.9766 -2.5331
 4097SOL    MW416156   4.753   5.679   4.012 -0.3814 -0.3069  0.3000
 4098SOL     OW16157   4.968   3.065   4.851  0.2439  0.1952 -0.3331
 4098SOL    HW216158   4.982   3.159   4.860  0.9892  0.0643 -0.1048
 4098SOL    HW316159   5.056   3.027   4.848  0.0884 -0.2059 -3.7139
 4098SOL    MW416160   4.981   3.073   4.852  0.4597 -0.3811 -0.1599
 4099SOL     OW16161   1.348   3.133   3.139  0.3305  0.1496  0.8477
 4099SOL    HW216162   1.319   3.218   3.175 -0.5963 -0.2532  1.0792
 4099SOL    HW316163   1.305   3.128   3.054 -0.9318 -0.7835  1.5070
 4099SOL    MW416164   1.339   3.144   3.133 -0.6385 -0.0589  0.0460
 4100SOL     OW16165   1.917   5.113   2.352 -0.5811 -0.1789  0.5413
 4100SOL    HW216166   1.879   5.073   2.430 -0.6578 -0.2482  0.4696
 4100SOL    HW316167   1.874   5.067   2.279 -0.4103 -0.2082  0.4596
 4100SOL    MW416168   1.906   5.102   2.353 -0.7446  0.7871 -0.2820
 4101SOL     OW16169   3.497   2.301   0.859 -0.6295 -0.0201 -0.6554
 4101SOL    HW216170   3.575   2.356   0.846  0.1415 -0.9007  0.1400
 4101SOL    HW316171   3.436   2.358   0.906 -0.4767  0.6773 -1.2755
 4101SOL    MW416172   3.500   2.316   0.863  0.4509 -0.5900 -0.5615
 4102SOL     OW16173   1.355   0.688   0.669 -0.3257 -0.2515  0.6011
 4102SOL    HW216174   1.287   0.681   0.736 -0.0358  1.4356  1.1156
 4102SOL    HW316175   1.328   0.761   0.614  0.7272  0.0185  0.4166
 4102SOL    MW416176   1.342   0.697   0.671  0.4978 -0.3697  0.1084
 4103SOL     OW16177   0.389   4.953   3.393  0.2361  0.8059  0.1411
 4103SOL    HW216178   0.322   4.885   3.392 -0.7718  1.7683 -0.4047
 4103SOL    HW316179   0.340   5.035   3.404  1.0423  1.7784 -2.5997
 4103SOL    MW416180   0.374   4.955   3.394 -0.1359 -0.2374  0.0653
 4104SOL     OW16181   1.600   1.931   2.605  0.1443  0.2626 -0.1606
 4104SOL    HW216182   1.663   1.889   2.546 -1.0758 -1.9515  0.0035
 4104SOL    HW316183   1.585   2.017   2.566  0.8699 -0.3883 -1.9889
 4104SOL    MW416184   1.606   1.937   2.592 -0.4576 -0.1391  0.1146
 4105SOL     OW16185   2.951   0.682   3.479  0.0508  0.4193 -0.0759
 4105SOL    HW216186   2.879   0.707   3.538  1.8194  1.0858  1.9199
 4105SOL    HW316187   2.952   0.752   3.414  0.5458  1.9208  1.4589
 4105SOL    MW416188   2.941   0.695   3.478  0.5989 -0.5188 -0.1627
 4106SOL     OW16189   4.760   5.925   2.784  0.0171  0.1257 -0.1410
 4106SOL    HW216190   4.807   6.008   2.771  2.2243 -0.8226  1.1748
 4106SOL    HW316191   4.811   5.861   2.734 -0.1107 -0.8684  0.9716
 4106SOL    MW416192   4.773   5.927   2.776 -0.3146 -0.2288  0.2138
 4107SOL     OW16193   2.228   4.088   4.062  0.2340 -0.0005 -0.6697
 4107SOL    HW216194   2.288   4.124   4.126 -1.8047 -0.2066  1.4949
 4107SOL    HW316195   2.207   4.162   4.005  2.0090  0.2125 -1.1128
 4107SOL    MW416196   2.233   4.102   4.063  0.3037  0.2308  0.3912
 4108SOL     OW16197   6.223   4.680   3.023  0.2584  0.6745 -0.2966
 4108SOL    HW216198   6.128   4.674   3.037  0.3740 -1.3465 -0.1842
 4108SOL    HW316199   6.258   4.711   3.107 -0.4167  3.3757 -0.9053
 4108SOL    MW416200   6.215   4.684   3.036 -0.0552  0.1182  0.1569
 4109SOL     OW16201   2.845   4.867   1.558  0.4130  0.1157 -0.0402
 4109SOL    HW216202   2.849   4.955   1.520  0.0223  0.1312 -0.0419
 4109SOL    HW316203   2.919   4.821   1.518  1.8686  1.0199  1.4409
 4109SOL    MW416204   2.855   4.873   1.548  0.2317 -0.8419  0.0003
 4110SOL     OW16205   0.593   6.369   2.212 -0.1198 -0.2521  0.0762
 4110SOL    HW216206   0.665   6.425   2.240 -0.3476  1.3223 -2.2602
 4110SOL    HW316207   0.541   6.423   2.154 -2.6665 -1.6747  0.8804
 4110SOL    MW416208   0.596   6.383   2.208  0.0173 -0.1568 -0.0047
 4111SOL     OW16209   4.541   0.051   5.496 -0.2347 -0.4821 -0.5749
 4111SOL    HW216210   4.497   0.002   5.565 -0.7281  0.4399 -0.2065
 4111SOL    HW316211   4.632   0.021   5.499  0.2207  0.8815  1.7922
 4111SOL    MW416212   4.547   0.041   5.505  0.2404 -0.2143  0.2945
 4112SOL     OW16213   3.896   3.130   2.018 -0.2600 -0.8060  0.0361
 4112SOL    HW216214   3.855   3.134   2.105 -0.0149 -2.6814  0.2786
 4112SOL    HW316215   3.919   3.221   1.998 -1.9825 -0.0815  1.1127
 4112SOL    MW416216   3.893   3.143   2.027 -0.3756  0.4024  0.5876
 4113SOL     OW16217   3.707   3.339   1.160  0.1654 -0.0451  0.3606
 4113SOL    HW216218   3.634   3.287   1.127 -1.4184 -0.1614  3.6332
 4113SOL    HW316219   3.700   3.422   1.114 -2.7144  0.2784  1.1767
 4113SOL    MW416220   3.696   3.343   1.150 -0.1412 -0.2949 -0.0568
 4114SOL     OW16221   1.145   0.759   5.901  0.1777 -0.4808 -0.1348
 4114SOL    HW216222   1.129   0.672   5.864 -0.2365  0.2438 -1.7333
 4114SOL    HW316223   1.089   0.817   5.850  0.7022  0.7780  0.6912
 4114SOL    MW416224   1.136   0.755   5.890 -0.3166 -0.2576 -0.0248
 4115SOL     OW16225   2.263   2.113   0.629  0.8300 -0.0422 -0.0355
 4115SOL    HW216226   2.263   2.018   0.623  1.5799 -0.0598  0.0545
 4115SOL    HW316227   2.332   2.132   0.694  0.7154  0.5570 -0.0867
 4115SOL    MW416228   2.272   2.103   0.637 -0.4436  0.0246  0.4918
 4116SOL     OW16229   4.521   3.502   3.075 -0.3802  0.3664  0.4614
 4116SOL    HW216230   4.570   3.487   3.155  0.2381 -0.0696  0.0119
 4116SOL    HW316231   4.535   3.595   3.055  0.6189  0.1576  0.1159
 4116SOL    MW416232   4.529   3.512   3.083 -0.0118  0.1372  0.4835
 4117SOL     OW16233   2.824   4.895   5.672 -0.0385 -0.6001 -0.5118
 4117SOL    HW216234   2.856   4.908   5.582  3.3262 -1.3224  0.4466
 4117SOL    HW316235   2.899   4.915   5.727 -1.0672 -3.0476  1.9995
 4117SOL    MW416236   2.838   4.899   5.667 -0.1194  0.3585  0.1826
 4118SOL     OW16237   4.367   0.901   6.011  0.8067 -0.5613  0.1792
 4118SOL    HW216238   4.442   0.941   6.055  1.2257  0.8899 -1.7264
 4118SOL    HW316239   4.330   0.972   5.957 -1.3256 -1.5174  0.2750
 4118SOL    MW416240   4.372   0.916   6.010  0.0311 -0.3366 -0.1934
 4119SOL     OW16241   0.874   6.184   4.794  0.0582  0.2305 -0.5084
 4119SOL    HW216242   0.820   6.117   4.835  0.4695 -1.4063 -2.4814
 4119SOL    HW316243   0.882   6.253   4.860 -0.4530 -1.6101  1.5752
 4119SOL    MW416244   0.868   6.184   4.808  0.0270 -0.1263 -0.2497
 4120SOL     OW16245   3.434   5.709   0.182 -0.2773 -0.2760  0.0537
 4120SOL    HW216246   3.457   5.791   0.138  0.7879 -0.8718 -0.5508
 4120SOL    HW316247   3.458   5.640   0.119  1.4082 -1.1677  1.5722
 4120SOL    MW416248   3.440   5.711   0.168  0.3553  0.5052  0.6979
 4121SOL     OW16249   1.648   1.068   5.687 -0.0812 -0.8243  0.1485
 4121SOL    HW216250   1.703   1.143   5.662  0.6035 -0.1225  3.2612
 4121SOL    HW316251   1.560   1.105   5.694  0.3445 -0.0591  2.2304
 4121SOL    MW416252   1.644   1.083   5.685 -0.3880  0.6302  0.1425
 4122SOL     OW16253   6.237   4.318   2.092  0.1215  0.3849  0.2897
 4122SOL    HW216254   6.306   4.372   2.052  0.8499 -1.7385 -1.5102
 4122SOL    HW316255   6.284   4.252   2.142 -0.6651 -0.1814  0.2898
 4122SOL    MW416256   6.252   4.317   2.093  0.3751  0.2902 -0.4303
 4123SOL     OW16257   2.251   3.484   1.013  0.5159 -0.6572  0.5136
 4123SOL    HW216258   2.211   3.515   1.094 -0.2932 -1.0472  0.2736
 4123SOL    HW316259   2.212   3.398   0.998  0.2582 -0.3739 -0.5583
 4123SOL    MW416260   2.240   3.477   1.022 -0.3920 -0.0009  0.1971
 4124SOL     OW16261   2.158   4.083   1.849  0.3663 -0.3976 -0.6071
 4124SOL    HW216262   2.201   4.119   1.926 -0.5068 -0.7931  0.0775
 4124SOL    HW316263   2.224   4.026   1.810  1.1704  0.6128 -0.7548
 4124SOL    MW416264   2.173   4.080   1.854  0.4391  0.2197 -0.1772
 4125SOL     OW16265   1.723   0.058   2.585  0.0666  0.7736 -0.9219
 4125SOL    HW216266   1.796   0.114   2.559 -0.2968  1.4479 -0.4998
 4125SOL    HW316267   1.645   0.110   2.567 -0.2097  1.8705  2.6885
 4125SOL    MW416268   1.722   0.072   2.579 -0.6188  0.3439 -0.5368
 4126SOL     OW16269   3.520   2.297   0.554  0.2474  0.1456  0.2471
 4126SOL    HW216270   3.531   2.390   0.536  0.0831  0.1418  0.1187
 4126SOL    HW316271   3.508   2.292   0.649  1.3295  0.1477  0.3974
 4126SOL    MW416272   3.520   2.309   0.564 -1.3299 -0.2096 -0.5219
 4127SOL     OW16273   3.402   3.002   1.199 -0.2209 -1.3249  0.5072
 4127SOL    HW216274   3.334   2.965   1.143  0.9079  0.2716 -2.1525
 4127SOL    HW316275   3.355   3.058   1.261 -1.4340 -0.8317 -0.7846
 4127SOL    MW416276   3.387   3.005   1.200 -0.6065  0.3833 -0.1122
 4128SOL     OW16277   1.684   0.023   3.581  0.4080  0.1433 -0.1696
 4128SOL    HW216278   1.712   0.111   3.555 -0.9056  0.5612 -0.2572
 4128SOL    HW316279   1.606   0.037   3.635  1.4178 -0.8745  1.6365
 4128SOL    MW416280   1.677   0.037   3.585 -0.5905 -0.8981 -0.3612
 4129SOL     OW16281   6.314   1.376   2.882  0.0927  0.1840 -0.0876
 4129SOL    HW216282   6.285   1.437   2.950 -1.3370 -0.7144  0.1470
 4129SOL    HW316283   6.233   1.332   2.854  1.0775 -1.5231 -0.3308
 4129SOL    MW416284   6.299   1.378   2.887 -0.1396 -0.1862 -0.2064
 4130SOL     OW16285   1.272   3.893   4.893  0.0490  0.6531 -0.0630
 4130SOL    HW216286   1.258   3.931   4.980  1.3638  1.2456 -0.0979
 4130SOL    HW316287   1.367   3.892   4.882 -0.0002 -1.2560 -0.6959
 4130SOL    MW416288   1.282   3.898   4.903 -0.2328  0.8754  0.1583
 4131SOL     OW16289   2.081   0.364   5.745  0.2505  0.2918 -0.1714
 4131SOL    HW216290   2.117   0.416   5.673 -1.8045 -1.5423 -2.6981
 4131SOL    HW316291   1.987   0.362   5.728 -0.2317 -0.8096  2.2334
 4131SOL    MW416292   2.074   0.371   5.733 -0.4211 -0.2721  0.9982
 4132SOL     OW16293   4.077   5.118   1.647 -0.5470  0.3959 -0.1559
 4132SOL    HW216294   4.059   5.190   1.708  1.3131  1.3876 -0.7021
 4132SOL    HW316295   4.070   5.158   1.560  0.7674  0.0163 -0.4596
 4132SOL    MW416296   4.074   5.133   1.643 -0.3882  0.0269 -0.2574
 4133SOL     OW16297   3.972   5.026   2.113 -0.4492  0.1308 -0.6046
 4133SOL    HW216298   3.954   4.993   2.025 -1.2460 -0.5857 -0.2027
 4133SOL    HW316299   3.918   5.104   2.121 -0.3305  0.2292 -0.7759
 4133SOL    MW416300   3.962   5.032   2.102 -0.5127 -0.3285  0.0888
 4134SOL     OW16301   1.044   0.049   1.797 -0.3175 -0.6341 -0.4897
 4134SOL    HW216302   0.977   0.025   1.861  0.1455  0.1396  0.3048
 4134SOL    HW316303   1.012   0.011   1.715 -0.1475 -3.0095  0.4491
 4134SOL    MW416304   1.031   0.041   1.794 -0.8517 -0.0062 -0.8256
 4135SOL     OW16305   1.398   1.965   5.353 -0.1777  0.1982 -0.2595
 4135SOL    HW216306   1.351   1.885   5.376 -1.4405  0.3103 -2.2096
 4135SOL    HW316307   1.399   1.966   5.257  1.5219  1.5578 -0.2760
 4135SOL    MW416308   1.392   1.954   5.343  0.4878  0.0457 -0.3766
 4136SOL     OW16309   3.471   3.639   0.689 -0.1478  0.5291 -0.2474
 4136SOL    HW216310   3.425   3.619   0.607  0.5502 -0.9542 -0.3111
 4136SOL    HW316311   3.480   3.734   0.689 -1.2431  0.6661 -1.2925
 4136SOL    MW416312   3.466   3.649   0.678 -0.2430  0.6172 -0.0241
 4137SOL     OW16313   3.807   4.909   2.579  0.3614 -0.2383 -0.5192
 4137SOL    HW216314   3.795   5.002   2.598 -1.5961 -0.3487 -1.0879
 4137SOL    HW316315   3.811   4.904   2.484  3.0682 -0.4936 -0.4736
 4137SOL    MW416316   3.806   4.920   2.569  0.5220  0.3099  0.2002
 4138SOL     OW16317   6.191   1.783   2.256  0.7873 -0.2412 -0.8533
 4138SOL    HW216318   6.133   1.771   2.331  3.0935 -2.1316  0.7426
 4138SOL    HW316319   6.168   1.712   2.196  0.9467 -0.5420 -0.5597
 4138SOL    MW416320   6.180   1.772   2.258  0.3374  0.3847 -0.0223
 4139SOL     OW16321   0.361   6.267   3.316 -0.4557  0.0268  0.0340
 4139SOL    HW216322   0.369   6.277   3.411  2.9168  1.3409 -0.2598
 4139SOL    HW316323   0.372   6.355   3.281  1.4261 -0.7789 -1.6240
 4139SOL    MW416324   0.363   6.280   3.324 -0.1187  0.4517 -0.2402
 4140SOL     OW16325   1.608   1.560   3.394 -0.2985  0.3689  0.2842
 4140SOL    HW216326   1.649   1.634   3.439  1.9654 -1.0309  0.7289
 4140SOL    HW316327   1.584   1.499   3.464  0.8872 -0.7038 -0.1982
 4140SOL    MW416328   1.611   1.562   3.409 -0.0396  0.2217 -0.4731
 4141SOL     OW16329   5.970   3.069   3.606 -0.1257 -0.4073 -0.9478
 4141SOL    HW216330   6.061   3.045   3.592  0.2608  0.3826  0.1429
 4141SOL    HW316331   5.965   3.162   3.584 -0.4914 -0.2591 -0.2680
 4141SOL    MW416332   5.981   3.078   3.601  0.6926  0.6067  0.0916
 4142SOL     OW16333   1.496   5.794   2.807 -0.5771 -0.4607 -0.1396
 4142SOL    HW216334   1.505   5.702   2.783 -0.3589 -0.7619  1.0079
 4142SOL    HW316335   1.452   5.793   2.892 -1.2424  0.5348 -0.4460
 4142SOL    MW416336   1.491   5.782   2.815 -0.3657 -0.0030 -0.6535
 4143SOL     OW16337   5.229   6.083   1.107  0.5656 -0.0497 -0.6657
 4143SOL    HW216338   5.310   6.119   1.071  0.7291 -0.7138 -0.9852
 4143SOL    HW316339   5.163   6.149   1.088  1.0611  0.5786 -0.2410
 4143SOL    MW416340   5.231   6.096   1.099 -0.4975  0.9047 -0.2658
 4144SOL     OW16341   4.122   6.400   5.597  0.4543  0.3470 -0.0729
 4144SOL    HW216342   4.094   6.482   5.638 -0.5046 -0.8425  1.7959
 4144SOL    HW316343   4.217   6.396   5.612  0.1908  0.1403  1.7820
 4144SOL    MW416344   4.131   6.410   5.604 -0.4340  0.3886 -0.1751
 4145SOL     OW16345   6.211   2.239   3.732 -0.3195 -0.2108 -0.0794
 4145SOL    HW216346   6.176   2.152   3.749 -1.6425  0.3913  0.3671
 4145SOL    HW316347   6.245   2.234   3.643 -0.6959 -1.0811 -0.1807
 4145SOL    MW416348   6.211   2.227   3.723  0.6371 -0.2221  0.3061
 4146SOL     OW16349   0.911   4.080   5.472 -0.3827 -0.2951 -0.0496
 4146SOL    HW216350   0.920   3.990   5.441  1.1780 -0.3325  0.3945
 4146SOL    HW316351   0.994   4.121   5.449  0.0469  0.2334  2.1539
 4146SOL    MW416352   0.923   4.073   5.465 -0.2713  1.0511 -0.3938
 4147SOL     OW16353   4.385   6.127   6.014 -0.3045 -0.4580  0.0796
 4147SOL    HW216354   4.291   6.108   6.021 -0.4709  0.2927 -0.0864
 4147SOL    HW316355   4.405   6.113   5.922 -0.5328  0.5954 -0.1450
 4147SOL    MW416356   4.375   6.122   6.003  0.0169  0.0907  0.5253
 4148SOL     OW16357   0.785   2.469   1.404  0.6126 -0.3401  0.7297
 4148SOL    HW216358   0.779   2.535   1.335 -0.7478 -1.4535 -0.3103
 4148SOL    HW316359   0.872   2.431   1.394  0.1778 -0.9949 -0.9238
 4148SOL    MW416360   0.795   2.473   1.393  0.2432  0.0549 -0.3436
 4149SOL     OW16361   4.496   5.623   1.641 -0.0154 -0.2498  0.4191
 4149SOL    HW216362   4.483   5.569   1.564  1.1003  0.3644 -0.2192
 4149SOL    HW316363   4.503   5.561   1.714 -2.3394 -0.7866  0.2592
 4149SOL    MW416364   4.495   5.608   1.641  0.7330  0.4791 -1.1882
 4150SOL     OW16365   4.342   1.427   1.083 -0.6002 -0.5791 -0.0467
 4150SOL    HW216366   4.429   1.395   1.105 -0.1890  1.2749  1.3142
 4150SOL    HW316367   4.302   1.447   1.168 -1.9316 -0.3941 -0.6983
 4150SOL    MW416368   4.348   1.425   1.097  0.3458 -0.3561 -0.6025
 4151SOL     OW16369   3.987   4.454   4.428 -0.3713 -0.2536  0.7415
 4151SOL    HW216370   3.966   4.367   4.393 -0.0167 -0.6569  1.5141
 4151SOL    HW316371   3.996   4.441   4.522 -0.7301  0.7079  0.9170
 4151SOL    MW416372   3.986   4.441   4.436 -0.3899  0.5081  0.2730
 4152SOL     OW16373   0.696   0.302   1.841 -0.5533  0.1069  0.4918
 4152SOL    HW216374   0.651   0.252   1.908  0.4594 -1.5874 -0.0452
 4152SOL    HW316375   0.771   0.248   1.817 -0.8413  0.6832 -1.9566
 4152SOL    MW416376   0.700   0.289   1.847  0.4644  0.1165  0.1391
 4153SOL     OW16377   3.780   3.547   5.053 -0.1376  0.0229  0.2474
 4153SOL    HW216378   3.811   3.575   4.967 -0.3012 -0.5770 -0.0082
 4153SOL    HW316379   3.835   3.596   5.115  0.6058 -0.2323 -0.1973
 4153SOL    MW416380   3.792   3.557   5.050 -0.3281 -0.0023 -0.2560
 4154SOL     OW16381   5.323   4.788   4.895  0.2960  0.4668 -0.4605
 4154SOL    HW216382   5.389   4.729   4.858  1.5576  0.7830  1.1833
 4154SOL    HW316383   5.371   4.844   4.956 -1.1642  2.0686 -0.6817
 4154SOL    MW416384   5.338   4.788   4.898  0.2757 -0.4597 -0.4465
 4155SOL     OW16385   0.380   4.114   6.355 -0.3892 -0.0666 -0.2694
 4155SOL    HW216386   0.307   4.085   6.300  0.4303 -0.1301 -1.3442
 4155SOL    HW316387   0.394   4.205   6.329 -0.0772 -0.0595 -0.0753
 4155SOL    MW416388   0.372   4.122   6.344  0.0166  0.0167 -0.4551
 4156SOL     OW16389   4.339   0.978   4.196  0.1831 -0.1850 -0.4337
 4156SOL    HW216390   4.247   0.972   4.170 -0.1686  0.7687  0.5547
 4156SOL    HW316391   4.345   1.059   4.247  1.2147 -1.0948  0.9555
 4156SOL    MW416392   4.328   0.988   4.199  0.3851  0.2221  0.4950
 4157SOL     OW16393   1.391   3.300   5.275 -0.1170 -0.0172 -0.7076
 4157SOL    HW216394   1.407   3.269   5.365  0.0372  0.7748 -0.4522
 4157SOL    HW316395   1.452   3.250   5.221 -1.7469 -2.1524 -0.7095
 4157SOL    MW416396   1.401   3.289   5.280  0.7346 -0.3432  0.4856
 4158SOL     OW16397   0.868   1.038   3.677  0.4460 -0.5454  0.1573
 4158SOL    HW216398   0.921   1.073   3.605  0.1225  0.0605  0.2021
 4158SOL    HW316399   0.783   1.019   3.637  0.1833  0.0324  0.4203
 4158SOL    MW416400   0.864   1.040   3.662 -0.5396 -0.6948  0.5122
 4159SOL     OW16401   1.420   1.733   1.233 -0.6687  0.2018  0.3069
 4159SOL    HW216402   1.348   1.670   1.236  1.4228 -2.5149 -0.8587
 4159SOL    HW316403   1.464   1.722   1.317  1.5560 -2.5450 -1.0303
 4159SOL    MW416404   1.417   1.723   1.245 -0.5996  0.3906  0.6148
 4160SOL     OW16405   5.437   6.028   3.389  0.1002 -0.2636 -0.0367
 4160SOL    HW216406   5.371   5.992   3.330  1.0270 -0.7071 -0.8238
 4160SOL    HW316407   5.434   6.122   3.374  0.6861 -0.4083 -1.2068
 4160SOL    MW416408   5.428   6.035   3.379  0.2297 -0.5990 -0.3773
 4161SOL     OW16409   3.073   1.637   1.606  0.1253  0.0490 -0.5640
 4161SOL    HW216410   3.061   1.574   1.534 -1.7370  0.7697 -0.9282
 4161SOL    HW316411   2.985   1.660   1.632  0.7868  1.6589  0.3478
 4161SOL    MW416412   3.060   1.631   1.600  0.9067 -0.6744 -0.0943
 4162SOL     OW16413   0.623   5.801   5.096  0.2023 -0.3947 -0.0054
 4162SOL    HW216414   0.581   5.746   5.030 -0.2044 -2.0795  1.5986
 4162SOL    HW316415   0.708   5.761   5.110 -0.6437 -1.5827  2.2148
 4162SOL    MW416416   0.629   5.789   5.089 -0.5405 -0.2443 -0.0531
 4163SOL     OW16417   5.708   2.978   5.784  0.1432  0.1543  0.4304
 4163SOL    HW216418   5.732   2.999   5.875 -1.8143  0.8857  0.8315
 4163SOL    HW316419   5.711   3.062   5.739  1.9176 -0.3248 -0.4438
 4163SOL    MW416420   5.712   2.992   5.790 -0.1542 -0.0712  0.0643
 4164SOL     OW16421   2.974   0.760   3.973 -0.3485 -0.0154  0.2769
 4164SOL    HW216422   3.052   0.812   3.952  0.0382  0.2293  2.1443
 4164SOL    HW316423   3.007   0.670   3.978 -0.4859 -0.1028 -0.3755
 4164SOL    MW416424   2.989   0.755   3.971  0.3638  0.3162  0.5745
 4165SOL     OW16425   5.706   5.863   4.440 -0.0242  0.3361 -0.5562
 4165SOL    HW216426   5.680   5.799   4.374 -1.4599  0.3573 -0.0430
 4165SOL    HW316427   5.700   5.816   4.524  1.3230  0.4428 -0.3750
 4165SOL    MW416428   5.702   5.848   4.443  0.1624 -0.1262 -0.1942
 4166SOL     OW16429   0.612   4.492   4.893  0.4527 -0.3588  0.5021
 4166SOL    HW216430   0.626   4.501   4.987  1.3233  2.1523  0.2109
 4166SOL    HW316431   0.591   4.400   4.880  0.8734 -0.8781  3.0694
 4166SOL    MW416432   0.611   4.481   4.904  0.0971 -1.0526 -0.2291
 4167SOL     OW16433   3.255   0.680   1.570  0.6934 -0.0976  0.4317
 4167SOL    HW216434   3.207   0.622   1.510 -1.2047  1.0416  0.7533
 4167SOL    HW316435   3.344   0.682   1.535 -0.5065  1.2340 -2.9658
 4167SOL    MW416436   3.260   0.672   1.558  0.6526  0.1543  0.2072
 4168SOL     OW16437   1.728   3.801   4.677 -0.0467 -0.1395 -0.0186
 4168SOL    HW216438   1.809   3.806   4.727 -1.7547 -0.8326  3.0950
 4168SOL    HW316439   1.689   3.888   4.684 -0.8581 -0.5630  0.9558
 4168SOL    MW416440   1.733   3.813   4.684 -0.4932 -0.0854 -0.6001
 4169SOL     OW16441   2.704   1.328   6.176  0.5652 -0.4913  0.2441
 4169SOL    HW216442   2.771   1.384   6.215 -0.0206 -1.8023  3.4623
 4169SOL    HW316443   2.637   1.388   6.146  1.9855  0.7143 -0.6440
 4169SOL    MW416444   2.704   1.343   6.177 -0.4020 -1.2196 -0.2622
 4170SOL     OW16445   5.897   3.486   1.802  0.0310 -0.1982  0.2742
 4170SOL    HW216446   5.935   3.411   1.756  0.5542 -0.3957  1.0174
 4170SOL    HW316447   5.802   3.470   1.800  0.1993 -1.7873  1.9046
 4170SOL    MW416448   5.889   3.474   1.796  0.5087 -0.6058  0.3522
 4171SOL     OW16449   4.874   0.656   6.010  0.4304  0.1773 -0.1789
 4171SOL    HW216450   4.952   0.600   6.011  1.4230  1.4480 -1.9326
 4171SOL    HW316451   4.846   0.659   6.101  3.1437  0.6327  0.7269
 4171SOL    MW416452   4.881   0.649   6.022 -0.2700  0.7916 -0.5482
 4172SOL     OW16453   1.058   3.220   5.801  0.4000 -0.2522 -0.3890
 4172SOL    HW216454   1.058   3.316   5.790 -1.3847 -0.2587 -0.6952
 4172SOL    HW316455   1.142   3.202   5.844  0.1468  1.6097  1.0263
 4172SOL    MW416456   1.069   3.231   5.805  0.5525  0.2400 -0.3365
 4173SOL     OW16457   5.663   5.141   6.263  0.4667 -0.6275  0.6072
 4173SOL    HW216458   5.635   5.104   6.179 -0.4462  0.3070  0.4712
 4173SOL    HW316459   5.583   5.181   6.299  1.2209  0.4586  1.1292
 4173SOL    MW416460   5.649   5.142   6.257  0.1104  0.4291 -0.3100
 4174SOL     OW16461   5.843   3.993   5.883 -0.3981 -0.4888  0.5808
 4174SOL    HW216462   5.900   3.987   5.807  0.1469 -1.7774  1.0663
 4174SOL    HW316463   5.756   4.012   5.847  0.0802  0.1936 -0.2462
 4174SOL    MW416464   5.839   3.995   5.869 -0.0661 -0.4140 -0.2673
 4175SOL     OW16465   4.258   2.871   1.838  0.2630 -0.2583  0.3928
 4175SOL    HW216466   4.321   2.804   1.866  1.0088  0.1724 -0.1884
 4175SOL    HW316467   4.300   2.911   1.761 -0.6701  0.1312  0.0789
 4175SOL    MW416468   4.272   2.867   1.831  0.3816  0.0801 -0.2557
 4176SOL     OW16469   2.999   3.239   5.188 -0.3833  0.2696 -0.3562
 4176SOL    HW216470   2.927   3.302   5.179  0.0579  0.9594  0.8585
 4176SOL    HW316471   3.014   3.233   5.282  0.3090 -0.8410 -0.5253
 4176SOL    MW416472   2.991   3.247   5.199  0.0395 -0.4204 -0.2251
 4177SOL     OW16473   0.611   3.175   2.391 -0.5566 -0.4252 -0.2949
 4177SOL    HW216474   0.585   3.172   2.299 -0.0568 -1.4150 -0.4211
 4177SOL    HW316475   0.539   3.133   2.438  0.7753 -3.3864 -0.6687
 4177SOL    MW416476   0.598   3.169   2.385  0.7619  0.5534  0.1643
 4178SOL     OW16477   4.415   4.613   2.407  0.5055  0.5823 -0.2492
 4178SOL    HW216478   4.412   4.539   2.346 -2.6092  0.1083  0.3214
 4178SOL    HW316479   4.432   4.573   2.492  1.9326  0.9179 -0.3577
 4178SOL    MW416480   4.417   4.598   2.410 -0.3002  0.2537  0.1335
 4179SOL     OW16481   1.150   5.951   1.402  0.7968  0.0145 -0.1059
 4179SOL    HW216482   1.234   5.932   1.445  1.3195  0.4708 -0.8919
 4179SOL    HW316483   1.167   6.029   1.349 -0.0167 -0.1212 -0.5941
 4179SOL    MW416484   1.163   5.959   1.400 -0.1470  0.1689  0.0603
 4180SOL     OW16485   0.589   5.133   0.619 -0.5122  0.4379  0.0657
 4180SOL    HW216486   0.575   5.054   0.567 -1.0391  0.7617 -0.2932
 4180SOL    HW316487   0.519   5.132   0.684 -0.6364  0.7084 -0.0626
 4180SOL    MW416488   0.578   5.122   0.621 -0.0073  0.7553  0.2052
 4181SOL     OW16489   1.579   0.082   2.272  0.3179 -0.1340  0.1980
 4181SOL    HW216490   1.587   0.160   2.326 -0.9066  1.0130 -1.1770
 4181SOL    HW316491   1.507   0.033   2.311  0.7481 -0.3297  0.7581
 4181SOL    MW416492   1.571   0.086   2.284  1.0422  0.8994  0.7947
 4182SOL     OW16493   5.614   0.184   5.966 -0.0340 -0.3043 -0.1995
 4182SOL    HW216494   5.549   0.114   5.976  1.7505 -1.9576  0.5507
 4182SOL    HW316495   5.648   0.171   5.877  2.3702 -2.4500  0.8750
 4182SOL    MW416496   5.610   0.173   5.955  0.1899  0.0237 -0.4124
 4183SOL     OW16497   4.034   5.404   5.132  0.4519 -0.0665 -0.2047
 4183SOL    HW216498   4.058   5.312   5.149  0.3136  0.0233  0.5127
 4183SOL    HW316499   3.939   5.401   5.119  0.2752  0.1251  0.9673
 4183SOL    MW416500   4.024   5.391   5.133  0.1409  0.5661  0.5281
 4184SOL     OW16501   0.851   2.385   3.490  0.2275  0.0542  0.1578
 4184SOL    HW216502   0.822   2.331   3.562  0.8312 -0.2714  0.1648
 4184SOL    HW316503   0.875   2.469   3.530 -0.1097  0.1192  0.2299
 4184SOL    MW416504   0.850   2.389   3.505  0.1995  0.2189 -0.4772
 4185SOL     OW16505   0.849   0.668   5.037  0.4231  0.0660 -0.3956
 4185SOL    HW216506   0.888   0.652   5.122  0.6851 -0.1494 -0.5544
 4185SOL    HW316507   0.900   0.740   5.000 -0.6668  1.2185  0.2621
 4185SOL    MW416508   0.861   0.676   5.043  0.0212 -0.4473 -0.2195
 4186SOL     OW16509   2.737   4.005   0.568  0.4901  0.0383  0.3648
 4186SOL    HW216510   2.676   3.931   0.570  1.4788 -0.9229 -2.0056
 4186SOL    HW316511   2.799   3.986   0.638  1.0743 -1.7437 -0.5651
 4186SOL    MW416512   2.737   3.993   0.578  0.2210  0.0359  0.0135
 4187SOL     OW16513   0.510   5.762   0.318 -0.0454  0.3565  0.0004
 4187SOL    HW216514   0.586   5.777   0.262  0.3528  1.7305  0.8605
 4187SOL    HW316515   0.536   5.689   0.374 -1.1676 -2.4103 -2.7691
 4187SOL    MW416516   0.523   5.754   0.318 -0.0756 -0.0762  0.0272
 4188SOL     OW16517   3.214   2.077   2.939 -0.5532  0.1325  0.2931
 4188SOL    HW216518   3.200   1.985   2.918 -1.3791  0.2040  0.5185
 4188SOL    HW316519   3.270   2.075   3.017 -0.1136 -0.1645 -0.0249
 4188SOL    MW416520   3.220   2.064   2.947  0.4352 -0.2045 -0.3569
 4189SOL     OW16521   0.873   5.399   0.141 -0.0381 -0.0764 -0.6005
 4189SOL    HW216522   0.948   5.455   0.120  0.5831 -0.3452  0.8342
 4189SOL    HW316523   0.799   5.441   0.095  0.6745  1.1140 -0.7106
 4189SOL    MW416524   0.873   5.412   0.132 -0.7606 -0.6792 -0.0560
 4190SOL     OW16525   4.881   1.202   4.182  0.5063 -0.1857  0.2570
 4190SOL    HW216526   4.813   1.148   4.223 -0.6231 -0.5355 -1.9009
 4190SOL    HW316527   4.834   1.278   4.149  1.2222 -0.2133 -0.8708
 4190SOL    MW416528   4.866   1.205   4.183 -0.9527  0.3117 -0.5565
 4191SOL     OW16529   6.091   4.902   6.402  0.4287  0.2974  0.5254
 4191SOL    HW216530   6.094   4.859   6.487  1.2472 -2.0435 -0.6050
 4191SOL    HW316531   6.176   4.882   6.362 -0.6509 -0.3848 -1.5990
 4191SOL    MW416532   6.103   4.894   6.408 -0.2086 -0.2905 -0.2804
 4192SOL     OW16533   2.520   4.320   2.138  0.7776  0.7161 -0.0420
 4192SOL    HW216534   2.591   4.314   2.075  0.6867 -1.1239 -0.0261
 4192SOL    HW316535   2.540   4.253   2.203 -0.1289  1.2827  0.8451
 4192SOL    MW416536   2.532   4.311   2.138  0.2860  0.4047  0.1227
 4193SOL     OW16537   3.693   6.122   3.585 -0.6500 -0.2230 -0.2440
 4193SOL    HW216538   3.631   6.151   3.652 -0.6613  3.1076 -1.5180
 4193SOL    HW316539   3.639   6.104   3.508 -0.2499  0.4753 -0.6942
 4193SOL    MW416540   3.677   6.123   3.583  0.6318 -0.0085  0.1627
 4194SOL     OW16541   0.151   5.524   1.687  0.7785 -0.3512  0.2184
 4194SOL    HW216542   0.241   5.545   1.712  0.8807 -0.6743  0.1353
 4194SOL    HW316543   0.150   5.428   1.681 -0.1023 -0.5212  2.2329
 4194SOL    MW416544   0.163   5.514   1.690  0.4527  0.6759  0.2450
 4195SOL     OW16545   6.041   4.077   3.453  0.1137  0.0762  0.0972
 4195SOL    HW216546   5.955   4.045   3.480 -0.0398  0.6040  0.2461
 4195SOL    HW316547   6.024   4.126   3.373  0.3316 -0.1198 -0.0709
 4195SOL    MW416548   6.027   4.079   3.446 -0.0512  0.1648 -0.1861
 4196SOL     OW16549   4.679   0.812   4.438 -0.5989 -0.0085  0.4149
 4196SOL    HW216550   4.719   0.726   4.424  1.2828  0.9051 -0.2187
 4196SOL    HW316551   4.695   0.831   4.530 -0.0139  0.1158  0.2938
 4196SOL    MW416552   4.687   0.803   4.448 -0.0346  0.1650  0.4098
 4197SOL     OW16553   4.449   5.271   4.358  0.4829  0.4939  0.5938
 4197SOL    HW216554   4.508   5.345   4.369  0.9159 -0.0492  2.1996
 4197SOL    HW316555   4.471   5.212   4.430  1.3219 -2.0017 -1.5462
 4197SOL    MW416556   4.460   5.273   4.369 -0.1903  0.3222  0.0287
 4198SOL     OW16557   1.913   3.711   1.321  0.1469 -0.1065 -0.8239
 4198SOL    HW216558   1.829   3.752   1.301  0.6313  1.3442 -0.0603
 4198SOL    HW316559   1.970   3.737   1.248  0.4139  0.4967 -0.4129
 4198SOL    MW416560   1.909   3.720   1.308  0.6126  0.2666 -0.1394
 4199SOL     OW16561   6.122   2.468   2.725  0.1362  0.1858 -0.1919
 4199SOL    HW216562   6.111   2.399   2.660 -1.6335  0.3040 -0.0568
 4199SOL    HW316563   6.176   2.534   2.682 -0.5100 -0.0126 -1.3326
 4199SOL    MW416564   6.128   2.467   2.711 -0.0637 -0.1442  0.0925
 4200SOL     OW16565   5.343   4.986   5.347 -1.1708  0.1459 -0.8653
 4200SOL    HW216566   5.387   4.946   5.422 -1.8898 -0.9787 -1.0121
 4200SOL    HW316567   5.389   5.069   5.333 -0.9947  0.3616  0.7889
 4200SOL    MW416568   5.355   4.992   5.355 -0.4716 -0.3425  0.3365
 4201SOL     OW16569   3.565   5.212   4.072  0.5389  0.5424 -0.6001
 4201SOL    HW216570   3.509   5.134   4.065  2.5018 -0.9350 -0.7139
 4201SOL    HW316571   3.607   5.204   4.158  2.5575  0.1198 -1.5547
 4201SOL    MW416572   3.563   5.201   4.082 -0.2399  0.6990 -0.4264
 4202SOL     OW16573   0.008   0.094   2.293 -0.4071 -0.0359  0.1246
 4202SOL    HW216574  -0.071   0.041   2.277 -0.4461  0.2491 -0.6807
 4202SOL    HW316575   0.038   0.119   2.206 -0.8900  2.0017  0.4960
 4202SOL    MW416576   0.001   0.090   2.279  0.0458  0.0611 -0.3253
 4203SOL     OW16577   4.384   3.816   3.818 -0.0847 -0.1131 -0.1561
 4203SOL    HW216578   4.393   3.854   3.731 -0.2648 -0.5315 -0.3592
 4203SOL    HW316579   4.349   3.887   3.871  0.0310  0.1454 -0.4236
 4203SOL    MW416580   4.380   3.830   3.814 -0.3574  0.0771 -0.0314
 4204SOL     OW16581   0.558   2.262   0.880  0.5210  0.0692  0.4777
 4204SOL    HW216582   0.462   2.262   0.876  0.4841 -2.2424 -0.5162
 4204SOL    HW316583   0.579   2.191   0.940  1.6384  0.7686  0.9428
 4204SOL    MW416584   0.548   2.252   0.888 -0.3120 -0.2492 -0.3808
 4205SOL     OW16585   2.544   4.561   3.882 -0.3516  0.3891  0.7758
 4205SOL    HW216586   2.589   4.496   3.827  1.5633  0.9820  1.5316
 4205SOL    HW316587   2.562   4.644   3.839 -1.3439  0.5822  0.7320
 4205SOL    MW416588   2.553   4.563   3.869  0.1900 -0.1052 -0.1902
 4206SOL     OW16589   2.957   1.542   0.891  0.0005 -0.1001 -0.2663
 4206SOL    HW216590   2.874   1.512   0.855 -0.2523  0.8577 -0.5153
 4206SOL    HW316591   3.010   1.563   0.815 -1.8004  5.4720 -0.4057
 4206SOL    MW416592   2.953   1.541   0.876  0.2301  0.3444 -0.7252
 4207SOL     OW16593   5.349   3.362   6.290 -0.1176  0.2926 -0.6532
 4207SOL    HW216594   5.331   3.361   6.196 -0.2038  0.8000 -0.6478
 4207SOL    HW316595   5.314   3.279   6.323 -1.9098  0.9790 -0.7351
 4207SOL    MW416596   5.342   3.351   6.282  0.3163  0.0878  0.0204
 4208SOL     OW16597   5.444   3.569   0.671 -0.5474  0.3170  0.2240
 4208SOL    HW216598   5.400   3.629   0.731  0.2774  0.8625  0.2997
 4208SOL    HW316599   5.467   3.624   0.596  0.0340  0.0541  0.2067
 4208SOL    MW416600   5.441   3.584   0.669 -0.1804  0.3719 -0.1538
 4209SOL     OW16601   2.222   6.185   5.878  0.3400 -0.2353 -0.0482
 4209SOL    HW216602   2.230   6.279   5.864 -1.1165 -0.1416 -0.3563
 4209SOL    HW316603   2.192   6.151   5.793  0.5328 -0.9319  0.1587
 4209SOL    MW416604   2.219   6.193   5.865  0.2314  0.6986 -0.5999
 4210SOL     OW16605   6.128   0.505   3.902  0.5031  0.0511  0.4672
 4210SOL    HW216606   6.139   0.410   3.898  0.3526 -0.0322  1.5853
 4210SOL    HW316607   6.211   0.541   3.871  1.8517 -0.5054  3.1674
 4210SOL    MW416608   6.140   0.497   3.897  0.2113 -0.1312 -0.0039
 4211SOL     OW16609   4.073   0.194   1.273 -0.5061 -0.0973  0.3902
 4211SOL    HW216610   4.087   0.101   1.256  2.4539  0.6179 -2.1648
 4211SOL    HW316611   4.151   0.221   1.322 -0.0116  1.4349 -1.1412
 4211SOL    MW416612   4.085   0.185   1.277  0.2959  0.6233  0.6093
 4212SOL     OW16613   3.689   0.556   5.433 -0.1734 -0.8223  0.2803
 4212SOL    HW216614   3.710   0.467   5.406 -1.9688 -0.8884 -1.0906
 4212SOL    HW316615   3.762   0.609   5.399  0.6952 -1.6823  0.7435
 4212SOL    MW416616   3.702   0.551   5.425  0.2916  0.2385 -0.0114
 4213SOL     OW16617   0.890   2.213   0.721 -0.6798  0.4279 -0.0572
 4213SOL    HW216618   0.971   2.259   0.743 -0.8245  0.5533  0.2258
 4213SOL    HW316619   0.874   2.156   0.796  0.1303 -0.9909 -0.9117
 4213SOL    MW416620   0.898   2.211   0.734 -0.0775 -0.3735  0.0702
 4214SOL     OW16621   3.325   1.105   1.162  0.1705  0.7673  0.0734
 4214SOL    HW216622   3.322   1.112   1.066 -2.9849  0.1987  0.0002
 4214SOL    HW316623   3.276   1.025   1.180  2.3634 -0.2105  2.1576
 4214SOL    MW416624   3.318   1.095   1.151  0.7291 -0.1388 -0.1335
 4215SOL     OW16625   1.153   1.512   1.945  0.5749 -0.5187  0.0066
 4215SOL    HW216626   1.195   1.578   2.000  1.1914  0.1860 -1.2688
 4215SOL    HW316627   1.211   1.436   1.951  0.4812 -0.5544  0.5434
 4215SOL    MW416628   1.166   1.511   1.953 -0.4958  0.3562  0.1266
 4216SOL     OW16629   1.114   5.100   6.303 -0.8077  0.1548 -0.1141
 4216SOL    HW216630   1.198   5.081   6.345 -1.7389  0.4294  1.9919
 4216SOL    HW316631   1.051   5.103   6.374 -2.3830  1.3958 -1.4598
 4216SOL    MW416632   1.117   5.098   6.318  0.0911 -0.7311 -0.1719
 4217SOL     OW16633   0.771   4.557   2.954 -0.2407  0.5815  0.2287
 4217SOL    HW216634   0.809   4.644   2.939  2.7370 -0.7551 -0.6842
 4217SOL    HW316635   0.817   4.524   3.031 -0.6981 -0.5433  0.0352
 4217SOL    MW416636   0.782   4.564   2.962 -0.1949 -0.1723  0.0385
 4218SOL     OW16637   6.211   3.498   2.158  0.2109 -0.1480  0.2451
 4218SOL    HW216638   6.149   3.433   2.191  1.3490 -0.8241  1.1186
 4218SOL    HW316639   6.158   3.554   2.100 -0.6469 -2.3726 -1.2901
 4218SOL    MW416640   6.195   3.497   2.154  0.2718 -0.2512  0.3880
 4219SOL     OW16641   3.491   3.260   2.211 -0.0077 -0.4863 -0.4873
 4219SOL    HW216642   3.562   3.197   2.222 -0.8972 -1.2715  1.2222
 4219SOL    HW316643   3.530   3.344   2.230  0.6161 -0.8399 -0.1849
 4219SOL    MW416644   3.505   3.262   2.215 -0.5757 -0.3781 -0.0249
 4220SOL     OW16645   2.060   0.693   4.857 -0.2651  0.1259  0.7426
 4220SOL    HW216646   2.077   0.679   4.950 -0.5297 -1.1351  0.6188
 4220SOL    HW316647   2.131   0.646   4.813 -0.8490 -0.3542  0.2985
 4220SOL    MW416648   2.072   0.685   4.864 -0.0006 -0.0206  0.5224
 4221SOL     OW16649   2.510   0.840   3.754  0.6514  0.5685 -0.2577
 4221SOL    HW216650   2.481   0.905   3.818  1.1169  1.9978 -1.4406
 4221SOL    HW316651   2.561   0.777   3.805  0.1707  1.1018  0.9261
 4221SOL    MW416652   2.513   0.840   3.769 -0.1435 -0.4036 -0.3675
 4222SOL     OW16653   2.504   1.819   0.449  0.1858 -0.7039 -0.1603
 4222SOL    HW216654   2.535   1.738   0.488 -0.5591 -0.9427 -0.0430
 4222SOL    HW316655   2.410   1.821   0.469 -0.5113 -1.4377 -2.8916
 4222SOL    MW416656   2.495   1.809   0.457  0.3934 -0.2674 -0.2705
 4223SOL     OW16657   3.233   4.636   4.994 -0.0042 -0.0396 -0.6708
 4223SOL    HW216658   3.172   4.696   4.951  0.1887 -0.0236 -0.9293
 4223SOL    HW316659   3.237   4.665   5.085  0.7047  0.8430 -0.9716
 4223SOL    MW416660   3.226   4.648   5.000 -0.4428  0.3678 -0.8920
 4224SOL     OW16661   0.692   5.476   5.774  0.8898  0.7329 -0.4251
 4224SOL    HW216662   0.643   5.557   5.789  1.4961  0.9636  0.3949
 4224SOL    HW316663   0.680   5.457   5.681  0.5778  1.6520 -0.5817
 4224SOL    MW416664   0.684   5.484   5.764 -0.0432  0.1927 -0.5151
 4225SOL     OW16665   0.363   1.361   4.585 -0.0585 -0.2661  0.1123
 4225SOL    HW216666   0.309   1.436   4.612 -1.0457 -0.3238 -1.5952
 4225SOL    HW316667   0.430   1.399   4.529  0.4543 -0.4745  0.5681
 4225SOL    MW416668   0.365   1.376   4.581 -0.0342  0.3558  0.0726
 4226SOL     OW16669   3.728   5.574   2.728  0.0514  0.3330  0.0987
 4226SOL    HW216670   3.682   5.548   2.808  0.2685  0.1596  0.1667
 4226SOL    HW316671   3.700   5.664   2.713 -1.0031 -0.0486 -0.3472
 4226SOL    MW416672   3.718   5.582   2.737  0.1826 -0.0800  0.7662
 4227SOL     OW16673   1.584   5.604   1.242  0.0177  0.1235 -0.4873
 4227SOL    HW216674   1.497   5.564   1.235 -0.2250  0.6816 -0.7928
 4227SOL    HW316675   1.566   5.698   1.242  0.5318  0.2330  0.8150
 4227SOL    MW416676   1.570   5.611   1.241  0.2375 -0.8878  0.0375
 4228SOL     OW16677   2.652   6.346   1.236  0.2157 -0.6342 -0.4458
 4228SOL    HW216678   2.615   6.363   1.150  1.3190  1.4337 -0.5749
 4228SOL    HW316679   2.672   6.433   1.271  3.2362 -1.5314  0.3384
 4228SOL    MW416680   2.650   6.360   1.229  0.3606 -0.1130  0.0521
 4229SOL     OW16681   5.321   0.046   3.884 -0.0569 -0.4143 -0.1377
 4229SOL    HW216682   5.399   0.082   3.841 -0.2817 -1.3151 -1.3442
 4229SOL    HW316683   5.255   0.116   3.875  0.4428  0.1464  0.4370
 4229SOL    MW416684   5.322   0.060   3.877  0.3757  0.0419 -0.0291
 4230SOL     OW16685   4.617   5.300   5.796 -0.1987 -0.3755 -0.1388
 4230SOL    HW216686   4.602   5.388   5.762  0.8211  0.7059  2.0025
 4230SOL    HW316687   4.589   5.305   5.888  1.7271 -1.6878  0.5778
 4230SOL    MW416688   4.611   5.312   5.804  0.6070 -0.0377  0.8401
 4231SOL     OW16689   3.417   5.777   1.517 -0.0119 -0.0337  0.0894
 4231SOL    HW216690   3.323   5.762   1.515  0.0071 -0.2863  0.8938
 4231SOL    HW316691   3.445   5.745   1.603  0.6928  0.6982  0.1434
 4231SOL    MW416692   3.408   5.771   1.528 -1.0726  0.4762  0.3732
 4232SOL     OW16693   4.616   3.488   5.041 -0.2535  0.1983 -0.0258
 4232SOL    HW216694   4.586   3.539   4.966 -1.3778 -2.8033 -1.8433
 4232SOL    HW316695   4.547   3.498   5.106  0.3680  2.2365  0.3872
 4232SOL    MW416696   4.603   3.496   5.040 -0.4494 -0.0360 -0.5320
 4233SOL     OW16697   0.110   1.182   4.191 -0.0813 -0.4256  0.3776
 4233SOL    HW216698   0.147   1.270   4.193  1.3485 -0.9743 -0.2532
 4233SOL    HW316699   0.076   1.172   4.102 -0.6716 -0.3384  0.5945
 4233SOL    MW416700   0.111   1.192   4.179  0.5010  0.0795 -0.0197
 4234SOL     OW16701   1.709   5.637   2.002 -0.3613 -0.1170  0.2274
 4234SOL    HW216702   1.674   5.697   1.936  2.6363  0.2825 -1.1692
 4234SOL    HW316703   1.739   5.695   2.073 -0.0398 -0.1859  0.1511
 4234SOL    MW416704   1.709   5.653   2.003  0.3734  0.2970 -0.8748
 4235SOL     OW16705   3.241   4.547   3.206  0.4438  0.0914 -0.1223
 4235SOL    HW216706   3.148   4.571   3.208  0.6622  0.9908  1.9982
 4235SOL    HW316707   3.280   4.607   3.143  0.2253  2.5741  1.9657
 4235SOL    MW416708   3.234   4.558   3.198 -0.1791 -0.2095  0.2397
 4236SOL     OW16709   6.290   2.102   4.249 -0.4532  0.4551 -0.2875
 4236SOL    HW216710   6.335   2.059   4.321 -2.6344  0.5078  1.2134
 4236SOL    HW316711   6.318   2.055   4.171 -0.0238 -1.3243  0.8898
 4236SOL    MW416712   6.300   2.090   4.248 -0.0460  0.0954 -0.4484
 4237SOL     OW16713   1.914   1.963   2.300 -0.1942 -0.0967 -0.3587
 4237SOL    HW216714   1.891   1.912   2.377  0.2575  0.4253  0.1325
 4237SOL    HW316715   1.964   1.902   2.245  0.8629 -0.0365  0.4951
 4237SOL    MW416716   1.918   1.948   2.303 -0.0470  0.2918  0.0623
 4238SOL     OW16717   1.226   0.949   1.542 -0.1598  0.0632  0.0292
 4238SOL    HW216718   1.168   0.874   1.532 -1.6078  1.2665 -1.0756
 4238SOL    HW316719   1.254   0.970   1.453 -0.2266  1.1772  0.2620
 4238SOL    MW416720   1.222   0.942   1.529  0.3877 -0.5325 -0.5548
 4239SOL     OW16721   1.525   1.993   0.034  0.0104  0.0587 -0.4958
 4239SOL    HW216722   1.577   1.995   0.115  0.5194 -0.1037 -0.8126
 4239SOL    HW316723   1.434   1.991   0.064  0.1940 -0.0198  0.0719
 4239SOL    MW416724   1.520   1.993   0.049 -0.1644  0.0962 -0.7933
 4240SOL     OW16725   2.587   4.349   3.422 -0.1814  0.4019  0.1397
 4240SOL    HW216726   2.615   4.284   3.357  0.4150 -0.0390  0.8282
 4240SOL    HW316727   2.492   4.356   3.409 -0.2412 -0.5581  0.0078
 4240SOL    MW416728   2.578   4.341   3.411  0.3341 -0.0640 -0.6563
 4241SOL     OW16729   0.292   3.499   3.795 -0.2473 -0.1632  0.6289
 4241SOL    HW216730   0.201   3.472   3.792 -0.2816  0.0224 -0.5991
 4241SOL    HW316731   0.288   3.592   3.817 -0.5283  0.4221 -1.6003
 4241SOL    MW416732   0.280   3.508   3.797 -0.3370 -0.2335  0.0254
 4242SOL     OW16733   1.026   2.085   0.402  0.3606 -0.1301 -0.1440
 4242SOL    HW216734   0.988   2.171   0.386 -0.6263 -0.6634 -0.6938
 4242SOL    HW316735   1.008   2.034   0.323  0.5779 -0.9737  0.3283
 4242SOL    MW416736   1.019   2.090   0.390  0.2024  0.0231  0.2578
 4243SOL     OW16737   5.461   1.267   3.682 -0.3162 -0.6225 -0.9658
 4243SOL    HW216738   5.373   1.299   3.662  0.4202  0.5454 -2.6507
 4243SOL    HW316739   5.503   1.258   3.596  1.7282  0.4720 -0.1626
 4243SOL    MW416740   5.455   1.270   3.668 -0.3767 -0.7703 -0.1390
 4244SOL     OW16741   6.204   6.254   4.606  0.1888 -1.1972 -0.2608
 4244SOL    HW216742   6.207   6.210   4.520  1.2712 -2.9051  0.5883
 4244SOL    HW316743   6.276   6.318   4.603 -0.9067  0.0331 -1.2341
 4244SOL    MW416744   6.214   6.256   4.594 -0.2862  0.2256 -0.0312
 4245SOL     OW16745   4.865   3.465   0.866  0.6003 -0.2335 -0.4110
 4245SOL    HW216746   4.884   3.420   0.949  1.1171 -0.1443 -0.4790
 4245SOL    HW316747   4.790   3.417   0.830  1.4880 -1.4191 -0.7504
 4245SOL    MW416748   4.858   3.452   0.872 -0.2925 -0.3495  0.4285
 4246SOL     OW16749   5.936   6.225   1.384 -0.6307 -0.1320  0.3080
 4246SOL    HW216750   5.943   6.318   1.404  2.0280 -0.3391  0.7515
 4246SOL    HW316751   5.902   6.221   1.295 -0.0440  1.3064 -0.0008
 4246SOL    MW416752   5.933   6.237   1.375 -0.1175 -1.0018  0.3678
 4247SOL     OW16753   4.764   1.304   4.525  0.4866 -0.5316  0.2121
 4247SOL    HW216754   4.785   1.238   4.591 -0.6355 -0.8469  0.2794
 4247SOL    HW316755   4.837   1.365   4.528  0.8622 -1.0035  1.1512
 4247SOL    MW416756   4.776   1.303   4.534  0.2722  0.4161 -0.6588
 4248SOL     OW16757   1.624   5.809   5.880  0.5119  0.3442  0.0438
 4248SOL    HW216758   1.662   5.746   5.942  1.3326  0.3233 -0.4682
 4248SOL    HW316759   1.661   5.893   5.906 -1.2531  0.8030  1.2776
 4248SOL    MW416760   1.634   5.812   5.891  0.4029 -0.1951 -0.5532
 4249SOL     OW16761   2.036   1.301   4.747 -0.1114  0.2552  0.3487
 4249SOL    HW216762   2.014   1.362   4.817  0.0140  0.4517  0.2177
 4249SOL    HW316763   2.102   1.243   4.785 -1.9876 -1.3841  1.2904
 4249SOL    MW416764   2.041   1.301   4.761 -0.2508 -0.1731 -0.0116
 4250SOL     OW16765   6.086   3.967   5.155 -0.4219 -0.1247 -0.2004
 4250SOL    HW216766   6.084   4.048   5.104 -1.5133  0.1850  0.3229
 4250SOL    HW316767   6.154   3.914   5.112 -0.5794  0.5502 -1.3173
 4250SOL    MW416768   6.095   3.971   5.142  0.1898  0.0861  0.6486
 4251SOL     OW16769   2.226   1.298   2.431 -0.3311 -0.1748 -0.5135
 4251SOL    HW216770   2.163   1.316   2.501 -0.0359  0.1735 -0.3364
 4251SOL    HW316771   2.310   1.324   2.467 -0.2169  0.2994 -1.1085
 4251SOL    MW416772   2.229   1.303   2.445  0.1339 -0.1395 -0.0594
 4252SOL     OW16773   0.981   4.915   3.222  0.4633 -0.0526  0.2846
 4252SOL    HW216774   0.964   4.989   3.163  1.7342 -0.9001 -1.2033
 4252SOL    HW316775   0.893   4.884   3.246 -0.1070  0.2779 -1.2382
 4252SOL    MW416776   0.967   4.921   3.218 -0.3004  0.4441  0.0940
 4253SOL     OW16777   6.315   3.755   4.739 -0.0150 -0.5326 -0.1270
 4253SOL    HW216778   6.376   3.755   4.813 -0.7165 -0.4302  0.4688
 4253SOL    HW316779   6.329   3.840   4.697  0.4643 -0.6346 -0.1759
 4253SOL    MW416780   6.325   3.767   4.743  0.0714  0.2319  0.1223
 4254SOL     OW16781   1.639   2.856   5.299 -0.3287  0.2763  0.6986
 4254SOL    HW216782   1.556   2.890   5.266 -0.7379  0.2556  1.6819
 4254SOL    HW316783   1.616   2.775   5.345 -0.1342  1.4213  2.9664
 4254SOL    MW416784   1.625   2.850   5.301 -0.7896 -0.1874  0.1391
 4255SOL     OW16785   1.855   4.647   3.697  0.1072  1.3868  0.1298
 4255SOL    HW216786   1.878   4.572   3.751 -0.1818  0.7641 -0.6022
 4255SOL    HW316787   1.911   4.718   3.729  0.2240  0.9204  0.9674
 4255SOL    MW416788   1.865   4.647   3.708 -0.5580 -0.5191  0.4390
 4256SOL     OW16789   6.141   1.426   4.714  0.1428  0.2004 -0.4167
 4256SOL    HW216790   6.150   1.347   4.662  0.6771  0.7658 -1.2027
 4256SOL    HW316791   6.049   1.451   4.703 -0.0703 -0.3952 -0.0274
 4256SOL    MW416792   6.130   1.419   4.706 -0.2953  0.7371  0.5378
 4257SOL     OW16793   2.082   2.946   3.160 -0.1247  0.4817  0.5039
 4257SOL    HW216794   2.054   2.916   3.074  0.7894 -0.0851  0.3976
 4257SOL    HW316795   2.161   2.997   3.143 -0.2714  0.8721  0.9545
 4257SOL    MW416796   2.088   2.949   3.146  0.0361  0.2367  0.4176
 4258SOL     OW16797   0.677   5.717   3.369  0.1781 -0.3046  0.1609
 4258SOL    HW216798   0.690   5.647   3.305 -0.0126 -0.9440  0.8042
 4258SOL    HW316799   0.647   5.672   3.448  0.2247  0.4874  0.6435
 4258SOL    MW416800   0.675   5.702   3.371 -0.0955  0.0450  0.0262
 4259SOL     OW16801   6.251   1.330   0.758  0.7446  0.4322  0.4541
 4259SOL    HW216802   6.207   1.295   0.835 -0.5197  0.2552 -0.3127
 4259SOL    HW316803   6.223   1.421   0.752 -0.1712  0.1129 -0.4643
 4259SOL    MW416804   6.241   1.337   0.767  0.5466  0.4367  0.2535
 4260SOL     OW16805   0.769   5.403   4.204 -0.1270 -0.1211  0.1562
 4260SOL    HW216806   0.766   5.405   4.299 -1.3027  1.1855  0.1180
 4260SOL    HW316807   0.846   5.455   4.181 -1.0878  1.4705  0.3827
 4260SOL    MW416808   0.779   5.410   4.213  0.0663  0.1993 -0.3904
 4261SOL     OW16809   4.633   0.182   6.381 -0.1189 -0.6057 -0.2087
 4261SOL    HW216810   4.658   0.271   6.359 -0.4628 -0.4116  0.1720
 4261SOL    HW316811   4.638   0.178   6.476 -3.2826  0.0152  0.0843
 4261SOL    MW416812   4.637   0.193   6.391 -0.1269 -0.5015 -0.5088
 4262SOL     OW16813   1.366   4.733   5.491 -0.2748  0.0025  0.1672
 4262SOL    HW216814   1.315   4.811   5.514 -1.2842 -0.9279  1.1860
 4262SOL    HW316815   1.314   4.690   5.423  0.2471  0.1724 -0.3433
 4262SOL    MW416816   1.352   4.738   5.485  0.0545 -0.3308  0.9857
 4263SOL     OW16817   1.300   5.244   5.972  0.3968 -0.3941 -0.3990
 4263SOL    HW216818   1.281   5.296   5.894  0.5651 -0.4363 -0.4691
 4263SOL    HW316819   1.393   5.223   5.964  0.1668 -1.3213 -0.7352
 4263SOL    MW416820   1.310   5.248   5.961 -0.1615 -0.1991 -0.4521
 4264SOL     OW16821   1.413   2.571   4.750 -0.3150  0.2635 -0.0207
 4264SOL    HW216822   1.372   2.647   4.709 -1.8591 -0.3935  0.2183
 4264SOL    HW316823   1.489   2.606   4.796  0.0626  1.3742 -1.4266
 4264SOL    MW416824   1.417   2.585   4.751 -0.3377 -0.3808  0.5770
 4265SOL     OW16825   4.770   0.378   6.239 -0.1392  0.9871  0.2289
 4265SOL    HW216826   4.850   0.390   6.190 -0.4555 -1.5641 -1.0654
 4265SOL    HW316827   4.700   0.398   6.177 -0.5108 -0.1118  0.2678
 4265SOL    MW416828   4.771   0.382   6.225  0.0146  0.3821 -0.3653
 4266SOL     OW16829   3.402   6.264   0.087  0.4125 -0.3714 -0.0344
 4266SOL    HW216830   3.384   6.349   0.047  0.6335 -0.5405 -0.4974
 4266SOL    HW316831   3.426   6.285   0.178  1.8625  0.1883 -0.5200
 4266SOL    MW416832   3.402   6.278   0.094  0.0294  0.0546  0.0778
 4267SOL     OW16833   0.654   1.430   4.780  0.5881  0.2542 -0.6462
 4267SOL    HW216834   0.598   1.352   4.779 -0.6418  1.1204 -1.2413
 4267SOL    HW316835   0.687   1.434   4.870  0.1241 -0.5768 -0.4289
 4267SOL    MW416836   0.651   1.420   4.792  0.4892 -0.5941  0.0131
 4268SOL     OW16837   3.469   2.398   4.360 -0.3928  0.2169  0.4593
 4268SOL    HW216838   3.410   2.450   4.415  0.2418  0.4552  0.9295
 4268SOL    HW316839   3.553   2.444   4.364  0.3850 -1.2101  1.4736
 4268SOL    MW416840   3.472   2.411   4.368  0.4182 -0.4606 -0.4861
 4269SOL     OW16841   2.286   1.811   6.288 -0.0555 -0.0334 -0.5356
 4269SOL    HW216842   2.346   1.736   6.288 -0.9088 -0.7941  1.6823
 4269SOL    HW316843   2.330   1.877   6.234  1.9900 -1.1598 -0.3446
 4269SOL    MW416844   2.300   1.810   6.281 -0.4516 -0.2740 -0.0020
 4270SOL     OW16845   1.623   2.192   0.763  0.6677  0.4016  0.0219
 4270SOL    HW216846   1.694   2.205   0.700  1.0192  1.6188  0.6528
 4270SOL    HW316847   1.601   2.279   0.794 -0.6613 -0.0190  0.3501
 4270SOL    MW416848   1.629   2.205   0.759 -0.2635 -0.1534 -0.0744
 4271SOL     OW16849   2.572   3.374   4.794  0.3648  0.0720 -0.3137
 4271SOL    HW216850   2.523   3.423   4.729  0.8652 -1.1526 -1.6611
 4271SOL    HW316851   2.651   3.345   4.748  1.1081 -0.1824  1.0660
 4271SOL    MW416852   2.576   3.377   4.780  0.0729 -0.3158  0.1394
 4272SOL     OW16853   3.145   3.611   3.081 -0.0721 -0.4706  0.3242
 4272SOL    HW216854   3.082   3.578   3.144  0.1421 -2.3390 -0.3852
 4272SOL    HW316855   3.231   3.584   3.115  0.2195  0.4359  0.3429
 4272SOL    MW416856   3.148   3.603   3.094 -0.0861  0.0685  0.4242
 4273SOL     OW16857   0.690   1.807   0.978 -0.5300 -0.0716  0.3596
 4273SOL    HW216858   0.623   1.815   1.045 -0.9120  3.0082 -0.2475
 4273SOL    HW316859   0.648   1.841   0.898  1.0219 -0.2729 -0.5828
 4273SOL    MW416860   0.676   1.813   0.976 -0.2467 -0.0690  0.4778
 4274SOL     OW16861   1.914   3.852   6.233  0.0334  0.1507 -0.3195
 4274SOL    HW216862   1.926   3.761   6.204 -1.7793 -0.0679 -0.4602
 4274SOL    HW316863   1.986   3.899   6.192  1.5350 -1.3494  0.4490
 4274SOL    MW416864   1.925   3.846   6.224 -0.3173  0.1061  0.2673
 4275SOL     OW16865   5.991   3.792   5.365 -0.1861 -0.4753  0.6261
 4275SOL    HW216866   5.938   3.714   5.352 -1.1897  0.3596 -0.5326
 4275SOL    HW316867   5.996   3.833   5.279 -1.0419  1.5683  1.4569
 4275SOL    MW416868   5.985   3.787   5.352 -0.5575 -0.3679  0.0202
 4276SOL     OW16869   5.849   2.550   5.902  0.2112  0.4004 -0.5914
 4276SOL    HW216870   5.757   2.553   5.928  0.1200  1.3667 -0.9921
 4276SOL    HW316871   5.886   2.633   5.933  0.9028  0.1159 -0.6208
 4276SOL    MW416872   5.842   2.561   5.910  0.3503  0.2253 -0.0647
 4277SOL     OW16873   5.473   3.828   4.033 -0.1863  0.0952 -0.1127
 4277SOL    HW216874   5.477   3.792   4.121 -1.4382  0.4094  0.0907
 4277SOL    HW316875   5.403   3.780   3.990  0.2368  0.1262 -0.8597
 4277SOL    MW416876   5.465   3.817   4.039 -0.1546  0.6034  0.0598
 4278SOL     OW16877   1.671   1.275   5.111 -0.5537  0.1402 -0.5095
 4278SOL    HW216878   1.672   1.361   5.154 -1.8567 -0.0214 -0.1218
 4278SOL    HW316879   1.754   1.235   5.138 -0.6979  0.6073  0.7269
 4278SOL    MW416880   1.682   1.281   5.120 -0.1213  0.2191  0.1824
 4279SOL     OW16881   5.214   6.024   0.760  0.4920 -0.2779  0.2622
 4279SOL    HW216882   5.176   6.052   0.844 -0.2627 -0.5394  0.0229
 4279SOL    HW316883   5.161   5.949   0.734  0.5569 -0.0491 -0.5672
 4279SOL    MW416884   5.202   6.018   0.768 -1.0509  0.0166 -0.5310
 4280SOL     OW16885   6.209   0.056   0.824  0.3655 -0.4979  0.0109
 4280SOL    HW216886   6.178   0.144   0.847  0.3927  0.1561 -2.1639
 4280SOL    HW316887   6.273   0.034   0.892  1.3905  1.7857 -0.1014
 4280SOL    MW416888   6.214   0.065   0.836 -0.3244 -0.0206 -0.3994
 4281SOL     OW16889   5.454   4.374   1.840 -0.4673 -0.4786  0.1231
 4281SOL    HW216890   5.517   4.439   1.808  1.1896 -1.4178  1.3071
 4281SOL    HW316891   5.400   4.354   1.763  1.0646 -0.0645 -1.1360
 4281SOL    MW416892   5.456   4.380   1.825  0.0682  0.5201  0.2534
 4282SOL     OW16893   3.612   0.588   3.564 -0.3908  0.1928  0.0859
 4282SOL    HW216894   3.614   0.626   3.651 -0.8970  2.7521 -0.9214
 4282SOL    HW316895   3.647   0.500   3.575 -0.1182  0.5610  2.7849
 4282SOL    MW416896   3.617   0.582   3.577  0.2536  0.5864 -0.6750
 4283SOL     OW16897   4.268   2.041   5.728  0.1096 -0.2640  0.2204
 4283SOL    HW216898   4.347   2.015   5.775  0.4998  0.5593  0.0295
 4283SOL    HW316899   4.238   2.120   5.773  0.0011  0.0394 -0.3808
 4283SOL    MW416900   4.274   2.048   5.740  0.7905 -0.1189 -0.2460
 4284SOL     OW16901   0.623   5.693   1.520 -0.0881 -0.6371 -0.3241
 4284SOL    HW216902   0.539   5.726   1.550 -0.0675  1.3502 -2.1946
 4284SOL    HW316903   0.609   5.672   1.428  1.3836 -0.5256 -0.5967
 4284SOL    MW416904   0.610   5.695   1.512  0.6340  0.7424  1.0499
 4285SOL     OW16905   5.431   4.128   1.507 -0.1056 -0.4145  0.8545
 4285SOL    HW216906   5.519   4.119   1.472 -0.4026 -0.8457  0.2119
 4285SOL    HW316907   5.425   4.061   1.575 -0.3509 -1.2294  0.0479
 4285SOL    MW416908   5.442   4.118   1.512  0.5706  0.3122  0.2293
 4286SOL     OW16909   2.266   2.570   3.226  0.2993  0.2496 -0.0983
 4286SOL    HW216910   2.354   2.562   3.191  0.5752  0.0165  0.6457
 4286SOL    HW316911   2.232   2.481   3.226 -0.3551  0.4714 -1.4272
 4286SOL    MW416912   2.273   2.557   3.221 -0.0871  0.0141  0.1693
 4287SOL     OW16913   0.493   3.531   4.732  0.1418 -0.3863 -0.1052
 4287SOL    HW216914   0.433   3.472   4.686 -0.4885 -0.6621  1.0354
 4287SOL    HW316915   0.450   3.616   4.729  0.3404 -0.2954 -0.4493
 4287SOL    MW416916   0.479   3.535   4.726 -0.0346 -0.0370  0.3731
 4288SOL     OW16917   0.083   4.914   5.869 -0.2143  0.5864 -0.3481
 4288SOL    HW216918   0.086   5.000   5.911  2.0853  0.7227 -0.6832
 4288SOL    HW316919   0.011   4.921   5.806 -1.2178  1.6401  0.8525
 4288SOL    MW416920   0.074   4.926   5.866 -0.4880  0.2571 -0.3455
 4289SOL     OW16921   5.247   6.050   5.632 -0.0632  0.3923 -0.3830
 4289SOL    HW216922   5.260   5.955   5.627 -0.3568  0.1588  2.0080
 4289SOL    HW316923   5.152   6.061   5.625  0.0656  0.6948 -2.1625
 4289SOL    MW416924   5.236   6.039   5.630  0.0698 -0.1836 -0.1374
 4290SOL     OW16925   2.472   2.335   3.730 -0.0014 -0.7085 -0.1487
 4290SOL    HW216926   2.465   2.338   3.634  2.4152 -0.9885 -0.3998
 4290SOL    HW316927   2.539   2.268   3.747  1.1184  0.7598  1.6060
 4290SOL    MW416928   2.480   2.327   3.719  0.0029  0.5898  0.7463
 4291SOL     OW16929   5.390   5.584   0.414 -0.1882 -0.2746  0.3663
 4291SOL    HW216930   5.416   5.577   0.322 -0.6237 -2.6834  0.3759
 4291SOL    HW316931   5.337   5.506   0.431 -1.0643  0.6748  2.3822
 4291SOL    MW416932   5.386   5.573   0.404  0.4013  0.3954  1.0175
 4292SOL     OW16933   4.234   3.211   4.966 -0.5504  0.6482 -0.2936
 4292SOL    HW216934   4.306   3.190   4.906 -1.3114 -0.8524 -0.7327
 4292SOL    HW316935   4.273   3.204   5.053 -0.3785 -1.2873 -0.4771
 4292SOL    MW416936   4.249   3.207   4.970 -0.2166 -0.0624 -0.2559
 4293SOL     OW16937   5.662   0.106   1.226 -0.4653 -0.2764 -0.5126
 4293SOL    HW216938   5.598   0.173   1.200  0.1933  0.5620 -0.0152
 4293SOL    HW316939   5.656   0.104   1.322  0.5679  0.1247 -0.4361
 4293SOL    MW416940   5.653   0.114   1.235 -0.4861 -0.0828  0.8422
 4294SOL     OW16941   1.956   3.109   4.801 -0.0918  0.0239  0.5401
 4294SOL    HW216942   1.916   3.028   4.769  0.9989 -0.6283  0.7599
 4294SOL    HW316943   1.937   3.110   4.895  0.0618 -0.0778  0.5724
 4294SOL    MW416944   1.948   3.098   4.809  0.0287  0.2771 -0.3063
 4295SOL     OW16945   3.822   6.351   4.281 -0.2716  0.2112 -0.4755
 4295SOL    HW216946   3.796   6.373   4.370  0.9019  2.7901 -0.6697
 4295SOL    HW316947   3.748   6.380   4.227 -0.3103  0.1370 -0.4629
 4295SOL    MW416948   3.809   6.358   4.285 -0.1681 -0.2887  0.1559
 4296SOL     OW16949   0.827   4.476   4.363 -0.2634 -0.1881 -0.2127
 4296SOL    HW216950   0.805   4.569   4.367 -0.3319 -0.2014 -0.2895
 4296SOL    HW316951   0.815   4.444   4.452 -1.1209 -0.3288 -0.3737
 4296SOL    MW416952   0.823   4.484   4.375 -0.5723  0.3370  0.3265
 4297SOL     OW16953   5.345   0.492   6.175  0.2263  0.2375  0.0959
 4297SOL    HW216954   5.419   0.547   6.199  0.3162  0.1714 -0.0330
 4297SOL    HW316955   5.302   0.539   6.104  0.7804 -0.2589 -0.5825
 4297SOL    MW416956   5.349   0.505   6.169 -0.0986  0.1718  0.4947
 4298SOL     OW16957   0.176   3.720   4.538  0.1045 -0.4439  0.7488
 4298SOL    HW216958   0.189   3.802   4.586  0.2397 -0.3627  0.5707
 4298SOL    HW316959   0.262   3.699   4.501 -0.6367  1.1182 -2.0987
 4298SOL    MW416960   0.189   3.728   4.540  0.8018  0.2404  0.0390
 4299SOL     OW16961   5.699   1.328   1.018  0.2998  0.3787 -0.0620
 4299SOL    HW216962   5.664   1.252   0.972 -0.0221  0.4341  0.0906
 4299SOL    HW316963   5.692   1.305   1.111  2.5432 -0.4620 -0.0357
 4299SOL    MW416964   5.694   1.315   1.024  0.9498  0.6700  0.5182
 4300SOL     OW16965   3.580   4.063   1.033  0.0107 -0.4403  0.5798
 4300SOL    HW216966   3.611   4.085   1.121 -0.0981 -0.7771  0.7025
 4300SOL    HW316967   3.645   4.001   1.000 -0.4326 -1.0057  0.7671
 4300SOL    MW416968   3.593   4.058   1.041 -0.9198  0.5909 -0.1565
 4301SOL     OW16969   0.007   5.264   0.526  0.1896  0.3515 -0.2654
 4301SOL    HW216970   0.008   5.266   0.621 -1.3198 -2.5445 -0.1046
 4301SOL    HW316971   0.090   5.222   0.502 -0.0368 -0.1705 -0.1448
 4301SOL    MW416972   0.018   5.259   0.535 -0.1627 -0.3725 -0.1177
 4302SOL     OW16973   1.691   0.066   0.147  0.1064  0.5923  0.2164
 4302SOL    HW216974   1.726  -0.023   0.147  0.1543  0.6089 -0.2554
 4302SOL    HW316975   1.629   0.067   0.220  1.3447  0.6693  1.3181
 4302SOL    MW416976   1.688   0.055   0.157  0.4011 -0.1833 -0.5262
 4303SOL     OW16977   4.642   4.057   6.286 -0.2569 -0.2073  0.1995
 4303SOL    HW216978   4.584   4.116   6.239  0.2269  0.5671  0.5584
 4303SOL    HW316979   4.639   4.087   6.376  1.0420  0.1550  0.1525
 4303SOL    MW416980   4.634   4.069   6.291 -0.5961 -0.4255  0.9172
 4304SOL     OW16981   2.340   6.265   0.549 -0.2953  0.3926 -0.3773
 4304SOL    HW216982   2.342   6.358   0.526 -0.7405  0.2428 -1.0386
 4304SOL    HW316983   2.357   6.219   0.467  1.2769 -0.0990  0.1799
 4304SOL    MW416984   2.342   6.271   0.535 -0.3459  0.5859 -0.2601
 4305SOL     OW16985   4.085   5.366   5.742 -0.3633 -0.3268  0.1606
 4305SOL    HW216986   4.013   5.429   5.732 -0.1247 -0.2295 -1.0979
 4305SOL    HW316987   4.044   5.281   5.727 -0.5564 -0.4440  1.2362
 4305SOL    MW416988   4.070   5.363   5.739 -0.5870  0.0762  0.1598
 4306SOL     OW16989   5.466   4.225   4.028 -0.1723 -0.1826 -0.2608
 4306SOL    HW216990   5.476   4.163   3.956  0.2938  0.3968 -0.7105
 4306SOL    HW316991   5.549   4.222   4.075 -0.0534  0.2669 -0.4298
 4306SOL    MW416992   5.478   4.217   4.024 -0.3891 -0.3214 -0.4916
 4307SOL     OW16993   1.992   5.875   5.579 -0.0058  0.2242 -0.8348
 4307SOL    HW216994   2.079   5.913   5.570  0.1315  0.6715  1.7025
 4307SOL    HW316995   1.987   5.809   5.510  1.9858  0.8014 -1.5828
 4307SOL    MW416996   2.003   5.871   5.569 -0.2606 -0.1191  0.7584
 4308SOL     OW16997   6.089   2.005   4.785 -0.0193 -0.1079 -0.0941
 4308SOL    HW216998   6.073   1.975   4.875 -0.4296  0.8619  0.1712
 4308SOL    HW316999   6.048   1.939   4.730 -2.1807  0.6770  0.5002
 4308SOL    MW417000   6.082   1.992   4.790 -0.0828  0.0954 -0.3555
 4309SOL     OW17001   2.171   4.381   1.748 -0.0183 -0.3509 -0.1948
 4309SOL    HW217002   2.160   4.474   1.730 -3.0518 -0.4180  0.7404
 4309SOL    HW317003   2.178   4.376   1.843 -0.1044 -1.1033 -0.2236
 4309SOL    MW417004   2.171   4.393   1.758  0.0639  0.3808  0.2900
 4310SOL     OW17005   3.040   1.939   4.211 -0.3764  0.7678 -0.2266
 4310SOL    HW217006   2.956   1.973   4.243 -0.7483 -0.3115 -0.0411
 4310SOL    HW317007   3.018   1.859   4.164  0.6833 -0.4534  1.2402
 4310SOL    MW417008   3.026   1.933   4.209 -0.1910  0.0191  0.3134
 4311SOL     OW17009   1.753   5.377   1.371 -0.5254  0.2516 -0.2737
 4311SOL    HW217010   1.741   5.370   1.466 -0.5619  0.1995 -0.2827
 4311SOL    HW317011   1.710   5.459   1.348 -0.5613  0.2384 -0.2534
 4311SOL    MW417012   1.746   5.387   1.381  0.0539  0.1229 -0.3192
 4312SOL     OW17013   3.465   3.980   3.761 -0.1659  0.0045 -0.3316
 4312SOL    HW217014   3.405   4.049   3.734 -0.6736 -0.7416 -1.1610
 4312SOL    HW317015   3.410   3.913   3.802  0.6512  1.5737  3.9065
 4312SOL    MW417016   3.450   3.980   3.763 -0.1317 -0.1582  0.3178
 4313SOL     OW17017   1.574   5.733   4.589  0.5033 -0.2419 -0.3539
 4313SOL    HW217018   1.510   5.710   4.521  0.6009 -0.1346 -0.4833
 4313SOL    HW317019   1.652   5.760   4.540  0.0605  1.3692 -0.2274
 4313SOL    MW417020   1.576   5.734   4.573  0.0410 -0.3642  0.1334
 4314SOL     OW17021   3.262   3.169   1.373 -0.2254  0.2835  0.1617
 4314SOL    HW217022   3.344   3.213   1.394  1.6826 -2.2725 -1.3956
 4314SOL    HW317023   3.237   3.126   1.455  0.6409  0.1022  0.3403
 4314SOL    MW417024   3.269   3.169   1.387  0.5380  0.5300  0.2617
 4315SOL     OW17025   0.925   1.145   3.233 -0.0876  0.1921  0.5819
 4315SOL    HW217026   0.999   1.165   3.176  0.0286 -0.4057  0.5205
 4315SOL    HW317027   0.880   1.229   3.243  0.7194  0.6081  0.8111
 4315SOL    MW417028   0.929   1.159   3.227 -0.5298  0.2256  0.1757
 4316SOL     OW17029   2.880   5.740   5.748  0.1991 -0.2010 -0.3404
 4316SOL    HW217030   2.940   5.773   5.815 -0.4140 -0.8214  0.5463
 4316SOL    HW317031   2.862   5.650   5.775 -0.5331 -0.2715 -1.0201
 4316SOL    MW417032   2.886   5.732   5.760 -0.1170 -0.6297 -0.2448
 4317SOL     OW17033   1.253   2.499   4.956  0.4108  0.1833 -0.1626
 4317SOL    HW217034   1.172   2.544   4.934  0.5596  0.4922 -0.0956
 4317SOL    HW317035   1.312   2.518   4.882 -0.3239 -2.0261 -1.3881
 4317SOL    MW417036   1.250   2.507   4.943  0.2894  0.2265  0.5288
 4318SOL     OW17037   2.072   6.099   0.999  0.3337 -0.6890  0.7364
 4318SOL    HW217038   2.039   6.047   1.072 -0.6380 -0.3848  0.5210
 4318SOL    HW317039   2.159   6.064   0.982  0.3697 -1.0983  1.7121
 4318SOL    MW417040   2.079   6.088   1.006  0.3996  0.1568 -0.3411
 4319SOL     OW17041   4.652   1.573   0.457  0.1938 -0.5982  0.2476
 4319SOL    HW217042   4.657   1.662   0.422  0.6636 -1.5002 -2.2175
 4319SOL    HW317043   4.718   1.524   0.407 -1.4780 -2.7762  0.0189
 4319SOL    MW417044   4.662   1.578   0.446  0.0767  0.2592  0.1292
 4320SOL     OW17045   4.903   0.930   0.415  0.3211 -0.2124  0.2746
 4320SOL    HW217046   4.873   0.869   0.347  0.4008 -0.8919  0.8395
 4320SOL    HW317047   4.986   0.894   0.445  0.0999 -0.1323  1.0033
 4320SOL    MW417048   4.910   0.918   0.410  0.1259  0.6959  0.7856
 4321SOL     OW17049   1.597   2.169   5.057 -0.3313  0.2358 -0.0820
 4321SOL    HW217050   1.597   2.183   4.962  0.6839  0.7029 -0.0307
 4321SOL    HW317051   1.514   2.206   5.087  0.5370  2.6877 -0.4549
 4321SOL    MW417052   1.586   2.176   5.049 -0.3414 -0.6999 -0.0349
 4322SOL     OW17053   1.892   3.625   3.810 -0.0322 -0.2703 -0.3992
 4322SOL    HW217054   1.873   3.581   3.893 -0.2900 -1.1508 -0.9144
 4322SOL    HW317055   1.807   3.658   3.781  0.4140  2.2934  0.8991
 4322SOL    MW417056   1.878   3.623   3.817 -0.0232 -0.5138 -0.2612
 4323SOL     OW17057   5.967   0.053   0.386  0.3912 -0.3598 -0.2289
 4323SOL    HW217058   5.948  -0.015   0.321  0.0167 -1.0598  0.6024
 4323SOL    HW317059   5.937   0.134   0.345 -0.4224 -0.8735 -0.6689
 4323SOL    MW417060   5.961   0.055   0.372 -0.0302  0.6170  0.1037
 4324SOL     OW17061   5.225   5.562   1.921 -0.1953 -0.1397 -0.0991
 4324SOL    HW217062   5.197   5.527   2.005 -1.5328  0.7783 -0.1374
 4324SOL    HW317063   5.212   5.657   1.929  0.2044  0.0184 -1.1478
 4324SOL    MW417064   5.220   5.570   1.933  0.0414  0.1790  0.2465
 4325SOL     OW17065   0.168   0.391   4.132 -0.3604 -0.1356 -0.3977
 4325SOL    HW217066   0.178   0.425   4.043  0.4527 -1.7024 -0.9486
 4325SOL    HW317067   0.075   0.370   4.139 -0.5121  0.4090 -0.7220
 4325SOL    MW417068   0.157   0.393   4.121 -0.1321 -0.5291  0.0158
 4326SOL     OW17069   5.474   1.272   1.902  0.0626  0.2818  0.5750
 4326SOL    HW217070   5.436   1.194   1.944 -2.1049  1.5286  1.0780
 4326SOL    HW317071   5.497   1.329   1.975 -1.7030  1.5581  0.2072
 4326SOL    MW417072   5.472   1.269   1.917 -0.0598  0.5857 -0.3111
 4327SOL     OW17073   4.949   6.378   4.235 -0.2297 -0.2166 -0.2061
 4327SOL    HW217074   4.857   6.376   4.209 -0.1744  0.3472 -0.4637
 4327SOL    HW317075   4.986   6.452   4.187 -0.1117  0.8641  1.4818
 4327SOL    MW417076   4.942   6.387   4.225 -0.4787  0.6116 -0.7218
 4328SOL     OW17077   5.331   3.648   1.758  0.2356 -0.4699 -0.5540
 4328SOL    HW217078   5.369   3.570   1.718  2.8248  0.2890  0.2370
 4328SOL    HW317079   5.265   3.615   1.818  1.9406 -2.1806  0.5112
 4328SOL    MW417080   5.328   3.634   1.760 -0.2196  0.2875 -0.3466
 4329SOL     OW17081   6.140   5.716   1.701  0.4863  0.6800 -0.0041
 4329SOL    HW217082   6.214   5.676   1.747 -0.0725  0.5212  0.7843
 4329SOL    HW317083   6.180   5.781   1.643  1.3080 -0.0493 -0.2849
 4329SOL    MW417084   6.155   5.719   1.699  0.2696  0.1081 -0.5071
 4330SOL     OW17085   1.719   2.153   6.051 -0.1537 -0.0036  0.5766
 4330SOL    HW217086   1.659   2.081   6.071  0.1833 -0.3700  0.2658
 4330SOL    HW317087   1.740   2.143   5.959  2.1773 -1.2508  1.1680
 4330SOL    MW417088   1.714   2.143   6.042  0.0597  0.0361 -0.1143
 4331SOL     OW17089   2.519   4.751   5.436  0.3333 -0.2070 -0.6085
 4331SOL    HW217090   2.456   4.778   5.503  1.8789  0.1673  0.7932
 4331SOL    HW317091   2.585   4.702   5.485  3.1180  2.5882 -1.2138
 4331SOL    MW417092   2.520   4.748   5.452 -0.1503 -0.1443 -0.8603
 4332SOL     OW17093   5.215   5.471   5.366 -0.2497 -0.6021 -0.1515
 4332SOL    HW217094   5.137   5.518   5.336 -0.4090 -0.5516  0.3317
 4332SOL    HW317095   5.273   5.470   5.290 -0.3798  0.0878 -0.2636
 4332SOL    MW417096   5.212   5.477   5.352  0.4292  0.2966 -0.1212
 4333SOL     OW17097   4.930   0.342   3.448  0.4114  0.2601  0.8077
 4333SOL    HW217098   4.844   0.368   3.416  0.5347 -0.3165 -0.0349
 4333SOL    HW317099   4.964   0.283   3.381  0.6746 -1.0200  2.0075
 4333SOL    MW417100   4.924   0.337   3.435 -0.4205  0.4150  0.0229
 4334SOL     OW17101   3.541   3.670   3.201  0.2588 -0.4279 -0.4454
 4334SOL    HW217102   3.483   3.717   3.140 -0.9700  0.6848  1.4962
 4334SOL    HW317103   3.541   3.723   3.280  2.8041 -1.1937  0.1519
 4334SOL    MW417104   3.533   3.683   3.203 -0.4140  0.2584  0.5247
 4335SOL     OW17105   0.297   0.272   2.117  0.2228  0.1942  0.2173
 4335SOL    HW217106   0.291   0.260   2.211  1.9979  0.9772  0.4649
 4335SOL    HW317107   0.211   0.246   2.084 -0.7589  0.8637  2.1276
 4335SOL    MW417108   0.285   0.267   2.125 -0.3651  0.4376  0.1819
 4336SOL     OW17109   5.125   0.768   4.199 -0.2372  0.6463  0.5795
 4336SOL    HW217110   5.179   0.730   4.130 -0.3374 -1.2810  1.4819
 4336SOL    HW317111   5.183   0.829   4.244  1.3249 -1.4377  1.5792
 4336SOL    MW417112   5.139   0.771   4.196  0.0180 -0.3234  0.0641
 4337SOL     OW17113   5.917   0.717   1.585 -0.3274  0.1740 -0.0592
 4337SOL    HW217114   6.005   0.698   1.618 -0.3268  0.9299  0.3809
 4337SOL    HW317115   5.932   0.766   1.504 -0.3464 -0.4098 -0.4263
 4337SOL    MW417116   5.931   0.721   1.579 -0.1555 -0.5979  0.5383
 4338SOL     OW17117   0.277   3.685   1.940 -0.0503  0.1106  0.0428
 4338SOL    HW217118   0.333   3.753   1.977 -0.7464  1.0908 -0.6538
 4338SOL    HW317119   0.220   3.660   2.013  0.3410  0.1384  0.3593
 4338SOL    MW417120   0.277   3.691   1.955 -0.3133  0.2706  0.5001
 4339SOL     OW17121   5.598   0.877   4.694 -0.4838 -0.8179  0.1738
 4339SOL    HW217122   5.606   0.912   4.783  2.4476 -0.7346 -0.0314
 4339SOL    HW317123   5.581   0.953   4.639 -2.7417 -0.9193  0.6311
 4339SOL    MW417124   5.597   0.891   4.699  0.1469  0.2079  0.0400
 4340SOL     OW17125   4.374   1.276   4.044  0.2129 -0.1847 -0.0870
 4340SOL    HW217126   4.448   1.280   3.984  0.7079 -0.7534  0.4703
 4340SOL    HW317127   4.414   1.265   4.131 -0.5221 -2.3156  0.0477
 4340SOL    MW417128   4.389   1.275   4.048  0.3667  0.5508  0.0472
 4341SOL     OW17129   1.928   4.726   2.352  0.0120 -0.5676 -0.2169
 4341SOL    HW217130   1.857   4.773   2.396 -0.9115 -3.0143  1.1188
 4341SOL    HW317131   1.976   4.683   2.423  2.0267 -0.0490 -1.2135
 4341SOL    MW417132   1.925   4.726   2.367  0.5059  0.3881  0.3199
 4342SOL     OW17133   6.310   1.892   5.627  0.0805 -0.3772  0.1950
 4342SOL    HW217134   6.230   1.911   5.577  1.4585 -0.5249 -2.2061
 4342SOL    HW317135   6.311   1.797   5.635 -0.4883 -0.3141  1.1703
 4342SOL    MW417136   6.300   1.882   5.621  0.1365 -0.4029  0.2174
 4343SOL     OW17137   2.442   3.703   0.938 -0.6189  0.9819 -0.5777
 4343SOL    HW217138   2.371   3.638   0.936  1.3631 -1.3427  0.2483
 4343SOL    HW317139   2.455   3.721   1.031  0.3642  0.8053 -0.6733
 4343SOL    MW417140   2.434   3.697   0.950  0.2280 -0.4166  0.4462
 4344SOL     OW17141   5.253   5.618   2.439  0.1136  0.1231  0.2591
 4344SOL    HW217142   5.338   5.628   2.395 -0.4385  2.0158 -0.4984
 4344SOL    HW317143   5.220   5.708   2.446 -1.4427 -0.4991  1.3283
 4344SOL    MW417144   5.260   5.631   2.434 -0.6004  1.0780  0.1142
 4345SOL     OW17145   5.743   6.134   4.440  0.0110  0.3269  0.5737
 4345SOL    HW217146   5.803   6.135   4.365 -0.2231  5.1501  0.1479
 4345SOL    HW317147   5.725   6.041   4.455  0.8423 -0.9848 -4.6720
 4345SOL    MW417148   5.748   6.122   4.432  0.5467  0.0866 -0.4031
 4346SOL     OW17149   6.425   2.472   4.597 -0.3963 -0.2233  0.4390
 4346SOL    HW217150   6.334   2.450   4.577 -0.1741 -0.4152 -0.4137
 4346SOL    HW317151   6.474   2.393   4.573  0.0800  0.1621  0.1261
 4346SOL    MW417152   6.420   2.459   4.591 -0.2170 -0.5138  0.3893
 4347SOL     OW17153   0.067   1.728   3.747 -0.2611  0.0898 -0.2594
 4347SOL    HW217154  -0.006   1.681   3.787  0.1286 -0.4301 -0.1588
 4347SOL    HW317155   0.085   1.800   3.807  1.9430 -2.0635  1.8852
 4347SOL    MW417156   0.060   1.731   3.760  0.1129 -0.5315  0.0964
 4348SOL     OW17157   3.580   4.032   3.996 -0.1577  0.1603 -0.0562
 4348SOL    HW217158   3.535   4.016   3.913  0.2583 -1.2627 -0.0336
 4348SOL    HW317159   3.664   3.987   3.987 -0.1187 -0.0413  1.1434
 4348SOL    MW417160   3.585   4.024   3.984  0.2765  0.0170 -0.5237
 4349SOL     OW17161   4.057   0.929   4.180 -0.3169 -0.2457  0.0513
 4349SOL    HW217162   3.983   0.933   4.120 -0.5293  0.4701  0.3482
 4349SOL    HW317163   4.053   1.011   4.229  1.8514  0.8061 -1.3502
 4349SOL    MW417164   4.047   0.941   4.178  0.6900 -0.2387 -0.9655
 4350SOL     OW17165   2.552   4.226   5.527 -0.0758  0.1319  0.3956
 4350SOL    HW217166   2.561   4.131   5.515 -0.7690 -0.1816  2.0625
 4350SOL    HW317167   2.569   4.263   5.440 -0.2191 -1.5399 -0.3847
 4350SOL    MW417168   2.556   4.218   5.514  0.6219  0.3289  0.2746
 4351SOL     OW17169   3.209   3.597   5.136  0.2386 -0.4891  0.0196
 4351SOL    HW217170   3.250   3.655   5.200 -1.3824 -0.3527  0.9928
 4351SOL    HW317171   3.270   3.596   5.062  1.9012 -0.1935  1.3071
 4351SOL    MW417172   3.223   3.604   5.135 -0.2653 -0.5152 -0.2387
 4352SOL     OW17173   3.565   1.261   1.785  0.7056  0.5098 -0.4488
 4352SOL    HW217174   3.556   1.298   1.873 -1.1742  2.5471 -1.3811
 4352SOL    HW317175   3.646   1.300   1.751  1.5322 -0.4217  0.4052
 4352SOL    MW417176   3.575   1.271   1.792 -0.1064 -0.3273  0.5591
 4353SOL     OW17177   4.170   0.836   3.407 -0.2921 -0.0850  0.2322
 4353SOL    HW217178   4.175   0.923   3.446 -0.0298  0.7623 -1.6114
 4353SOL    HW317179   4.236   0.785   3.455  0.2007  0.9804  0.7166
 4353SOL    MW417180   4.180   0.841   3.418 -0.2987  0.4481 -0.4765
 4354SOL     OW17181   1.223   1.595   2.931  0.0158  0.5920  0.3085
 4354SOL    HW217182   1.211   1.562   3.020  0.8830  3.8831  1.8168
 4354SOL    HW317183   1.316   1.620   2.927  0.5619 -1.4677 -2.3598
 4354SOL    MW417184   1.234   1.594   2.942 -0.4715  0.2416 -0.0289
 4355SOL     OW17185   4.633   1.282   4.927 -0.0929  0.5236 -0.0911
 4355SOL    HW217186   4.697   1.328   4.981 -0.8675 -0.9829  2.2768
 4355SOL    HW317187   4.606   1.346   4.862  0.5343  2.6508  1.6357
 4355SOL    MW417188   4.638   1.296   4.925  0.4223 -0.2858  0.0393
 4356SOL     OW17189   2.473   3.335   1.370 -0.2159  0.0856 -0.4960
 4356SOL    HW217190   2.447   3.288   1.449  0.3525 -0.8170 -0.8379
 4356SOL    HW317191   2.410   3.308   1.304  0.4305 -0.6238 -0.8323
 4356SOL    MW417192   2.461   3.325   1.372 -0.3225 -0.4186  0.6535
 4357SOL     OW17193   1.732   4.992   2.174  0.0883 -0.5569  0.6427
 4357SOL    HW217194   1.649   5.022   2.210  0.3272 -0.3735  1.0455
 4357SOL    HW317195   1.729   5.019   2.082  0.9451  2.1200  1.3398
 4357SOL    MW417196   1.721   4.999   2.167 -0.3867 -0.1047 -0.0210
 4358SOL     OW17197   3.424   3.558   1.329  0.3468  0.0506  0.0266
 4358SOL    HW217198   3.506   3.587   1.370 -0.6173  1.5516  1.0103
 4358SOL    HW317199   3.421   3.464   1.347  1.2116  0.2074  1.1861
 4358SOL    MW417200   3.435   3.550   1.337  0.0775  0.4858 -0.6175
 4359SOL     OW17201   4.767   5.738   3.372  0.0500  0.2486  0.2925
 4359SOL    HW217202   4.788   5.789   3.294  0.2541  0.5653  0.5461
 4359SOL    HW317203   4.849   5.695   3.396  0.2872  1.0438  0.9657
 4359SOL    MW417204   4.781   5.739   3.365  0.0195  0.2309  0.5931
 4360SOL     OW17205   3.741   6.300   0.671  0.2859 -0.1876 -0.1518
 4360SOL    HW217206   3.648   6.278   0.666  0.0964 -0.2558  2.3043
 4360SOL    HW317207   3.742   6.394   0.691  0.6999 -0.3109  0.4368
 4360SOL    MW417208   3.729   6.310   0.673 -0.0324  0.4640 -0.2342
 4361SOL     OW17209   2.692   6.239   4.532  0.2365 -0.3006 -0.4560
 4361SOL    HW217210   2.651   6.179   4.594  1.4088  0.8549  1.5538
 4361SOL    HW317211   2.741   6.300   4.587  1.3423  0.8068 -2.5516
 4361SOL    MW417212   2.693   6.239   4.548 -0.0344  0.5709 -0.0872
 4362SOL     OW17213   4.732   1.102   1.267 -0.6795 -0.2240 -0.2303
 4362SOL    HW217214   4.788   1.027   1.250  0.3047  0.3300  0.4482
 4362SOL    HW317215   4.660   1.068   1.320 -1.5681 -1.1378 -1.9314
 4362SOL    MW417216   4.730   1.088   1.272 -0.2316 -0.0414 -0.0608
 4363SOL     OW17217   3.878   5.927   4.058  0.6545  0.2208  0.1879
 4363SOL    HW217218   3.916   5.840   4.048  1.1585  0.4366  0.1785
 4363SOL    HW317219   3.845   5.949   3.971  1.0831  0.2959  0.0464
 4363SOL    MW417220   3.878   5.919   4.045  0.1377  0.1316 -0.3469
 4364SOL     OW17221   0.009   1.196   5.180  0.3776 -0.0270  0.2741
 4364SOL    HW217222   0.103   1.209   5.193  0.9408 -1.4433 -1.8489
 4364SOL    HW317223  -0.006   1.220   5.088 -1.0682 -1.1557  0.1790
 4364SOL    MW417224   0.019   1.201   5.169 -0.4733 -0.0479  0.4061
 4365SOL     OW17225   6.240   0.700   0.715 -0.3411  0.0841  0.4712
 4365SOL    HW217226   6.303   0.746   0.772  1.3325  1.2715 -2.1659
 4365SOL    HW317227   6.195   0.770   0.667 -0.7783 -0.9026 -0.5977
 4365SOL    MW417228   6.243   0.716   0.716  0.4070  0.0287  0.3291
 4366SOL     OW17229   3.345   5.279   3.608 -0.0622  0.3128  0.3800
 4366SOL    HW217230   3.323   5.311   3.520 -1.3825 -1.6345 -0.0434
 4366SOL    HW317231   3.327   5.354   3.665  0.5490  1.5252 -0.9548
 4366SOL    MW417232   3.340   5.293   3.604 -0.4165 -0.3631  0.6640
 4367SOL     OW17233   0.205   5.246   1.691 -0.6717  0.3296  0.4156
 4367SOL    HW217234   0.178   5.191   1.618 -0.6342  0.7838  0.0603
 4367SOL    HW317235   0.270   5.193   1.738  0.1929  0.4965 -0.5541
 4367SOL    MW417236   0.210   5.232   1.688  0.0034 -0.3915  0.1674
 4368SOL     OW17237   5.742   2.794   2.364  0.1616 -0.6464  0.0251
 4368SOL    HW217238   5.702   2.775   2.279  1.3268  0.2819 -0.7706
 4368SOL    HW317239   5.732   2.888   2.375 -0.3081 -0.8072  1.1154
 4368SOL    MW417240   5.735   2.804   2.354  0.5439 -0.2408  0.0481
 4369SOL     OW17241   5.847   5.907   0.864 -0.5594  0.1295 -0.8426
 4369SOL    HW217242   5.770   5.850   0.865 -0.2675 -0.2755  0.0036
 4369SOL    HW317243   5.834   5.965   0.789 -0.6073 -1.4052 -2.0635
 4369SOL    MW417244   5.835   5.907   0.855 -0.3808 -0.2866 -0.3402
 4370SOL     OW17245   2.022   5.431   1.668  0.1905 -0.2801 -0.3687
 4370SOL    HW217246   2.004   5.491   1.740  0.1932 -0.3708 -0.2930
 4370SOL    HW317247   2.021   5.486   1.590  3.3068  0.4589 -0.0332
 4370SOL    MW417248   2.020   5.446   1.667  0.8310  0.4540 -0.1956
 4371SOL     OW17249   2.684   2.663   4.179 -0.3737 -0.0787  0.7111
 4371SOL    HW217250   2.593   2.645   4.154 -0.0182 -0.7678 -0.1697
 4371SOL    HW317251   2.684   2.753   4.211 -1.2496  0.1364  0.1196
 4371SOL    MW417252   2.672   2.672   4.180  0.3797  0.3597  0.1122
 4372SOL     OW17253   5.719   4.331   4.155 -0.1881  0.1907 -0.0225
 4372SOL    HW217254   5.794   4.352   4.099 -0.8383  1.1483 -0.5560
 4372SOL    HW317255   5.755   4.330   4.244  0.4600  0.6237 -0.2711
 4372SOL    MW417256   5.734   4.334   4.159  1.1282 -0.0625  0.3758
 4373SOL     OW17257   0.168   2.525   1.382 -0.4072  0.3611  0.4038
 4373SOL    HW217258   0.093   2.541   1.325 -0.8150 -0.7259  0.6100
 4373SOL    HW317259   0.181   2.609   1.427 -0.7332  0.9229 -0.5012
 4373SOL    MW417260   0.160   2.539   1.381  0.6199 -0.3722  0.4160
 4374SOL     OW17261   4.362   1.247   2.228  0.0030  0.0279 -0.2737
 4374SOL    HW217262   4.451   1.214   2.243 -0.2926  0.4447  3.3564
 4374SOL    HW317263   4.305   1.172   2.242 -0.3071 -0.1526 -2.2409
 4374SOL    MW417264   4.367   1.233   2.232 -0.3472  0.0987 -0.0479
 4375SOL     OW17265   5.590   1.028   4.921  0.0269  0.1410  0.4866
 4375SOL    HW217266   5.682   1.031   4.893 -0.9539  0.7891 -3.1415
 4375SOL    HW317267   5.566   1.120   4.932 -1.1070  0.3268 -2.5403
 4375SOL    MW417268   5.599   1.040   4.919  0.1628  0.0935  0.3802
 4376SOL     OW17269   5.551   0.259   2.457  0.5792  0.1583  0.0001
 4376SOL    HW217270   5.591   0.312   2.525 -0.4059  2.0549 -0.8110
 4376SOL    HW317271   5.615   0.258   2.386  1.4605 -1.5318  0.7556
 4376SOL    MW417272   5.565   0.265   2.456 -0.6161  0.4361  0.3329
 4377SOL     OW17273   2.782   4.895   6.192  0.5374 -0.1491  0.1240
 4377SOL    HW217274   2.713   4.831   6.173 -0.0648  0.8575 -1.2639
 4377SOL    HW317275   2.742   4.980   6.171  2.3739  0.4132 -1.3850
 4377SOL    MW417276   2.767   4.898   6.186  0.1988 -0.2097  0.0954
 4378SOL     OW17277   1.628   4.488   5.656 -0.7845  0.6535  0.0627
 4378SOL    HW217278   1.631   4.394   5.676  0.3881  0.4547 -0.9907
 4378SOL    HW317279   1.551   4.519   5.704  0.6559 -0.1769  3.1631
 4378SOL    MW417280   1.618   4.480   5.665  0.0537 -0.3686 -0.0768
 4379SOL     OW17281   5.913   4.353   2.017  0.1413 -0.5922 -0.7495
 4379SOL    HW217282   6.006   4.348   1.994  1.3249 -0.5286  3.3256
 4379SOL    HW317283   5.895   4.446   2.024  0.5657 -0.6157  0.9991
 4379SOL    MW417284   5.923   4.364   2.015  0.1511 -0.2411 -0.3744
 4380SOL     OW17285   3.131   4.951   1.854  0.0383  0.0613 -0.4000
 4380SOL    HW217286   3.082   5.011   1.797 -1.1190 -0.1770  0.3153
 4380SOL    HW317287   3.115   4.865   1.816  0.5561  0.0568 -0.6143
 4380SOL    MW417288   3.122   4.948   1.841 -0.5249  0.2548 -0.1066
 4381SOL     OW17289   1.925   3.540   3.023  0.4780  0.2667 -0.1317
 4381SOL    HW217290   1.873   3.466   3.053 -2.1378  0.8795 -2.6635
 4381SOL    HW317291   1.879   3.617   3.054  1.1961  0.8400 -0.4465
 4381SOL    MW417292   1.912   3.540   3.031  0.2101 -0.1981 -0.0123
 4382SOL     OW17293   4.966   5.816   4.559 -0.3946  0.1565  0.2156
 4382SOL    HW217294   4.885   5.817   4.508  0.6010 -1.2909 -1.5060
 4382SOL    HW317295   5.001   5.905   4.549  0.1316 -0.2466 -2.3749
 4382SOL    MW417296   4.960   5.828   4.551 -0.0936  0.8099  0.2546
 4383SOL     OW17297   2.592   5.182   1.483  0.0553 -0.1921 -0.1081
 4383SOL    HW217298   2.604   5.271   1.449 -3.0229  0.2563 -0.3128
 4383SOL    HW317299   2.502   5.181   1.515  0.3723 -2.9408  0.9149
 4383SOL    MW417300   2.582   5.194   1.483 -0.5145  1.2933 -0.5025
 4384SOL     OW17301   0.661   5.996   1.914 -0.2010  0.2696 -0.2091
 4384SOL    HW217302   0.695   5.988   2.003  2.4605 -1.8759 -1.2689
 4384SOL    HW317303   0.634   6.088   1.906  1.3052  0.9905  2.1896
 4384SOL    MW417304   0.662   6.007   1.924  0.6941  0.2369  0.5098
 4385SOL     OW17305   4.107   5.506   1.035 -0.2597  0.1859 -0.2822
 4385SOL    HW217306   4.177   5.571   1.040 -0.1991  0.1308 -0.4056
 4385SOL    HW317307   4.146   5.426   1.070 -0.4297  0.2944  0.1580
 4385SOL    MW417308   4.121   5.504   1.040  0.2536  0.0429 -0.0200
 4386SOL     OW17309   1.268   3.052   0.884 -0.3902 -0.1373  0.3560
 4386SOL    HW217310   1.256   3.081   0.794  0.6754 -0.9283 -0.0699
 4386SOL    HW317311   1.184   3.071   0.927 -1.8547 -1.9943 -1.4399
 4386SOL    MW417312   1.255   3.058   0.877  0.3916  0.2377 -0.3248
 4387SOL     OW17313   5.555   4.684   3.688 -0.1629 -0.4338 -0.0408
 4387SOL    HW217314   5.613   4.672   3.613  0.4175  2.0196 -0.0830
 4387SOL    HW317315   5.547   4.597   3.726  1.5783 -1.2996 -1.4665
 4387SOL    MW417316   5.562   4.671   3.683  0.3365 -0.2446  1.1053
 4388SOL     OW17317   3.212   3.685   0.071 -0.4158 -0.1627  0.2337
 4388SOL    HW217318   3.211   3.589   0.064 -1.0034 -0.1302 -0.2794
 4388SOL    HW317319   3.121   3.708   0.088 -0.3252  0.3193  0.0654
 4388SOL    MW417320   3.200   3.675   0.072  0.0167 -0.2012 -0.3433
 4389SOL     OW17321   2.216   2.997   4.816  0.4877 -0.4655  0.5980
 4389SOL    HW217322   2.132   3.043   4.818  1.0687  0.8165 -1.6089
 4389SOL    HW317323   2.281   3.064   4.835  1.3049 -0.3791 -2.1171
 4389SOL    MW417324   2.214   3.012   4.819  0.8991 -0.2669  0.2473
 4390SOL     OW17325   2.659   3.980   0.969  0.1555 -0.3078  0.3942
 4390SOL    HW217326   2.585   3.967   0.910  0.4673  0.7066 -0.2376
 4390SOL    HW317327   2.619   4.011   1.050 -0.3023 -2.0078  0.8655
 4390SOL    MW417328   2.644   3.982   0.972 -0.2582 -0.2217  0.2125
 4391SOL     OW17329   1.644   3.891   2.450 -0.6009  0.0692  0.1831
 4391SOL    HW217330   1.740   3.897   2.442 -0.7266  1.2745 -0.6871
 4391SOL    HW317331   1.619   3.972   2.494 -1.2122 -0.2723  0.4597
 4391SOL    MW417332   1.654   3.903   2.454  0.1145  0.4493  0.0952
 4392SOL     OW17333   3.889   4.464   5.098 -0.1419 -0.3642  0.3550
 4392SOL    HW217334   3.912   4.378   5.064  1.6056  0.2930 -0.2768
 4392SOL    HW317335   3.829   4.447   5.171  0.8749 -2.1545  0.8235
 4392SOL    MW417336   3.884   4.451   5.103 -0.3754  0.0468 -0.2126
 4393SOL     OW17337   5.367   1.614   0.036 -0.4274 -0.0681  0.6797
 4393SOL    HW217338   5.362   1.709   0.044  2.3120  0.2873 -0.6103
 4393SOL    HW317339   5.299   1.591  -0.028  0.4133  1.3641 -0.7951
 4393SOL    MW417340   5.357   1.623   0.029 -0.0144 -0.6797  0.2252
 4394SOL     OW17341   2.006   0.888   4.095 -0.1829 -0.1206 -0.1338
 4394SOL    HW217342   1.962   0.850   4.172 -1.0784 -0.1881 -0.6603
 4394SOL    HW317343   1.982   0.981   4.098 -0.3895 -0.1640 -0.4452
 4394SOL    MW417344   1.997   0.896   4.106  0.3311 -0.3955 -0.0430
 4395SOL     OW17345   6.203   2.526   1.023  0.2572  0.1366  0.6264
 4395SOL    HW217346   6.280   2.571   1.057  1.0868 -0.9639  0.2614
 4395SOL    HW317347   6.178   2.577   0.945  2.3246 -1.0489 -0.8871
 4395SOL    MW417348   6.209   2.539   1.017  0.3971  0.6544  0.1082
 4396SOL     OW17349   5.488   0.442   5.185  0.0019  0.2595 -0.8068
 4396SOL    HW217350   5.568   0.476   5.226 -0.8595 -1.4366  2.7179
 4396SOL    HW317351   5.519   0.376   5.123  1.4255 -0.2994  0.4223
 4396SOL    MW417352   5.503   0.437   5.182  0.4085 -0.2513  0.0031
 4397SOL     OW17353   4.841   4.759   4.997 -0.0048  0.3575  0.7502
 4397SOL    HW217354   4.842   4.745   5.092  1.3784  1.5318  0.9312
 4397SOL    HW317355   4.896   4.836   4.983 -0.9951  0.8125 -0.9221
 4397SOL    MW417356   4.848   4.767   5.008 -0.2166 -0.0495 -0.1801
 4398SOL     OW17357   5.146   1.255   4.228 -0.6969  0.2233 -0.3812
 4398SOL    HW217358   5.185   1.233   4.312 -0.2375  1.7004 -0.1707
 4398SOL    HW317359   5.053   1.236   4.238 -0.3381 -1.5766 -0.2591
 4398SOL    MW417360   5.139   1.250   4.240 -0.5100 -0.6436 -0.1263
 4399SOL     OW17361   2.594   1.991   0.048 -0.1034  0.2556  0.0410
 4399SOL    HW217362   2.565   2.074   0.012 -2.4857 -1.5043 -2.5406
 4399SOL    HW317363   2.681   1.977   0.011  0.2056  1.4404  0.2848
 4399SOL    MW417364   2.602   2.000   0.039 -0.5356 -0.1258  0.3335
 4400SOL     OW17365   3.545   3.013   0.114 -0.2899  0.0203 -0.2453
 4400SOL    HW217366   3.530   3.066   0.192  1.5183  1.1010 -0.5671
 4400SOL    HW317367   3.594   2.937   0.145  0.1492  0.2909 -0.2639
 4400SOL    MW417368   3.549   3.010   0.128  0.1017  0.0140 -0.4424
 4401SOL     OW17369   4.886   0.345   4.384  0.0602  0.7825 -0.2952
 4401SOL    HW217370   4.963   0.329   4.439  0.3505  0.9308 -0.6534
 4401SOL    HW317371   4.870   0.440   4.392  1.2732  1.1653 -1.9691
 4401SOL    MW417372   4.894   0.356   4.393  0.3931 -0.1710  0.3701
 4402SOL     OW17373   1.195   1.325   2.691 -0.2521 -0.1906 -0.2074
 4402SOL    HW217374   1.264   1.320   2.626  0.6365 -0.6085  0.7349
 4402SOL    HW317375   1.167   1.234   2.704 -1.2233  0.0065 -0.8191
 4402SOL    MW417376   1.200   1.312   2.684 -0.0043 -0.3220 -0.2545
 4403SOL     OW17377   0.640   4.784   5.719 -0.2401  0.0866 -0.6681
 4403SOL    HW217378   0.704   4.847   5.752 -0.8924  1.0408 -1.1552
 4403SOL    HW317379   0.593   4.754   5.796  1.9693 -2.0492 -0.0453
 4403SOL    MW417380   0.643   4.789   5.733  0.5721  0.0784  0.2152
 4404SOL     OW17381   0.297   2.798   1.414  0.5773  0.1467 -0.1209
 4404SOL    HW217382   0.273   2.860   1.483  3.3056  0.3625  0.7896
 4404SOL    HW317383   0.374   2.752   1.450  2.2031  0.3647 -3.0566
 4404SOL    MW417384   0.304   2.800   1.428  0.0220  0.2248 -0.8499
 4405SOL     OW17385   3.151   2.538   4.942 -0.1606 -0.3640 -0.2294
 4405SOL    HW217386   3.243   2.563   4.945 -0.5723  1.1729  0.6130
 4405SOL    HW317387   3.140   2.477   5.015 -0.0491  0.3459  0.3860
 4405SOL    MW417388   3.162   2.533   4.952 -0.5431  0.3563  0.5686
 4406SOL     OW17389   1.191   2.893   1.166  0.5599 -0.0223  0.2981
 4406SOL    HW217390   1.218   2.974   1.208  2.0102 -0.4748  0.3207
 4406SOL    HW317391   1.239   2.892   1.082 -2.6206  1.0909 -1.7130
 4406SOL    MW417392   1.201   2.903   1.160 -0.0125 -0.2120 -0.3720
 4407SOL     OW17393   0.653   1.202   4.493 -0.0436 -0.0807 -0.5214
 4407SOL    HW217394   0.612   1.209   4.579  1.7213  2.2165  0.2618
 4407SOL    HW317395   0.686   1.112   4.489  1.5041  0.2702  2.0866
 4407SOL    MW417396   0.652   1.191   4.504 -0.4646 -0.5552  0.0994
 4408SOL     OW17397   5.542   3.731   5.530 -0.4253  0.2373  0.5262
 4408SOL    HW217398   5.543   3.706   5.438  0.1944 -0.4033  0.6987
 4408SOL    HW317399   5.602   3.806   5.535  1.1189 -0.9812  0.7374
 4408SOL    MW417400   5.550   3.738   5.519  0.4286  0.3574  0.2823
 4409SOL     OW17401   0.903   2.076   1.473 -0.1416 -0.2103  0.2571
 4409SOL    HW217402   0.939   1.987   1.475 -0.4249 -0.3372 -0.1916
 4409SOL    HW317403   0.824   2.069   1.419 -0.3923  0.2327  0.5637
 4409SOL    MW417404   0.898   2.063   1.466  0.0723 -0.0245 -0.5348
 4410SOL     OW17405   2.908   5.239   2.356 -0.1962 -0.2912 -0.9168
 4410SOL    HW217406   2.855   5.223   2.435 -0.1249 -0.1991 -0.8491
 4410SOL    HW317407   2.972   5.168   2.355  0.6002  0.3910 -0.2055
 4410SOL    MW417408   2.910   5.228   2.367  0.2178 -0.0947 -0.5427
 4411SOL     OW17409   2.748   2.093   0.927 -0.0838  0.2895 -0.0229
 4411SOL    HW217410   2.828   2.099   0.980  0.0883  0.3079 -0.2829
 4411SOL    HW317411   2.767   2.145   0.849 -0.5844  0.8258  0.2000
 4411SOL    MW417412   2.761   2.101   0.924 -0.3896  0.8123  0.0476
 4412SOL     OW17413   5.782   0.964   0.394  0.1986  0.1376  0.0796
 4412SOL    HW217414   5.721   1.018   0.445 -2.0409 -1.8671 -0.2577
 4412SOL    HW317415   5.757   0.979   0.303  1.6167  0.8098 -0.2213
 4412SOL    MW417416   5.770   0.973   0.388 -0.0610 -0.4869 -0.8665
 4413SOL     OW17417   1.879   4.371   2.441 -0.1916 -0.2413 -0.0310
 4413SOL    HW217418   1.961   4.387   2.487  0.0106  0.6895 -0.7024
 4413SOL    HW317419   1.901   4.306   2.375 -0.9157 -3.2214  2.3954
 4413SOL    MW417420   1.893   4.364   2.439 -0.0400 -0.0240 -0.4914
 4414SOL     OW17421   5.087   6.293   5.038  0.6084  0.5862  0.4751
 4414SOL    HW217422   5.176   6.322   5.057  0.7878  1.2903 -1.2593
 4414SOL    HW317423   5.096   6.199   5.022  0.8828  0.4954  1.1057
 4414SOL    MW417424   5.100   6.284   5.039  0.4130  0.1344  0.2293
 4415SOL     OW17425   0.824   6.056   3.497 -0.4186 -0.0186  0.1658
 4415SOL    HW217426   0.734   6.044   3.468 -1.6634  0.8372  3.2302
 4415SOL    HW317427   0.861   5.968   3.497 -2.3521 -0.9205  1.8452
 4415SOL    MW417428   0.817   6.043   3.493 -0.1083 -0.1546 -0.2050
 4416SOL     OW17429   1.282   4.247   5.892 -0.5861 -0.3190 -0.1087
 4416SOL    HW217430   1.356   4.208   5.938 -0.7218 -0.0613  0.3451
 4416SOL    HW317431   1.314   4.267   5.805  0.4932  1.5990  0.6706
 4416SOL    MW417432   1.296   4.245   5.887 -0.2302  0.2048  0.2038
 4417SOL     OW17433   1.324   5.688   2.091 -0.2731 -0.4706 -0.3836
 4417SOL    HW217434   1.279   5.642   2.020 -1.5501  1.0138 -0.6008
 4417SOL    HW317435   1.366   5.763   2.048 -1.9726  1.0713  0.4898
 4417SOL    MW417436   1.324   5.692   2.076 -0.2538  0.9341  0.2893
 4418SOL     OW17437   5.395   1.270   4.699 -0.1532  0.3944 -0.5384
 4418SOL    HW217438   5.472   1.241   4.651 -0.7052  0.9490 -1.8089
 4418SOL    HW317439   5.426   1.284   4.788  0.7933 -1.1518 -0.5871
 4418SOL    MW417440   5.409   1.268   4.704  0.6239 -0.2198  0.0525
 4419SOL     OW17441   0.795   1.404   3.260  0.0773  0.2000 -0.2706
 4419SOL    HW217442   0.702   1.382   3.260 -0.1733  0.9707  2.3096
 4419SOL    HW317443   0.798   1.495   3.232  0.0844  0.1228 -0.5246
 4419SOL    MW417444   0.783   1.413   3.256  0.4473  0.3153 -0.1529
 4420SOL     OW17445   4.331   3.492   4.751 -0.6086  0.1175  0.2558
 4420SOL    HW217446   4.358   3.410   4.709 -0.0373  1.2413 -1.6652
 4420SOL    HW317447   4.413   3.529   4.786 -0.6859  0.4229  0.1159
 4420SOL    MW417448   4.345   3.486   4.750 -0.3951 -0.2074 -1.0137
 4421SOL     OW17449   2.047   2.259   0.200  0.2192  0.0837  0.3022
 4421SOL    HW217450   1.968   2.301   0.167  0.0602 -0.0634  0.4960
 4421SOL    HW317451   2.070   2.195   0.132  0.1740  0.1278  0.2455
 4421SOL    MW417452   2.040   2.256   0.186  0.5350 -0.2520  0.4974
 4422SOL     OW17453   2.559   5.967   2.800  0.4817 -0.5032 -0.2546
 4422SOL    HW217454   2.618   5.954   2.727  0.4462  0.2102 -0.4086
 4422SOL    HW317455   2.476   5.929   2.771  0.6856 -0.9477 -0.2690
 4422SOL    MW417456   2.556   5.960   2.787 -0.3302 -0.2182  0.2988
 4423SOL     OW17457   3.527   3.049   4.267 -0.1575 -0.0341 -0.2498
 4423SOL    HW217458   3.612   3.094   4.262  0.5119 -1.1304  0.6696
 4423SOL    HW317459   3.480   3.094   4.337 -0.0245  0.0867 -0.2372
 4423SOL    MW417460   3.532   3.061   4.276  0.7874  0.2643  0.2784
 4424SOL     OW17461   1.644   5.581   5.702  0.0638 -0.9183  0.1350
 4424SOL    HW217462   1.669   5.505   5.754  2.5636 -0.3880 -0.1782
 4424SOL    HW317463   1.639   5.653   5.765 -1.5142 -1.1320  0.3020
 4424SOL    MW417464   1.647   5.581   5.717 -0.3450  0.4947 -0.0288
 4425SOL     OW17465   6.096   0.642   0.469  0.1858  0.3291  0.4888
 4425SOL    HW217466   6.104   0.614   0.378  0.5209  1.1359  0.2591
 4425SOL    HW317467   6.003   0.663   0.479 -0.1563 -1.2009  0.7842
 4425SOL    MW417468   6.085   0.641   0.458 -0.4273 -0.2198  0.5354
 4426SOL     OW17469   5.996   0.482   3.313 -0.7696 -0.4706 -0.4333
 4426SOL    HW217470   6.066   0.450   3.370 -0.3065  0.6156 -0.3846
 4426SOL    HW317471   5.999   0.577   3.322 -1.6963 -0.3710 -1.0946
 4426SOL    MW417472   6.006   0.490   3.322  0.1625 -0.1720 -0.4707
 4427SOL     OW17473   1.992   2.268   4.807 -0.5620 -0.1017  0.6268
 4427SOL    HW217474   2.062   2.332   4.804  0.9716 -1.7306  0.1818
 4427SOL    HW317475   1.912   2.320   4.799  0.6442  1.6600 -0.9084
 4427SOL    MW417476   1.990   2.283   4.806  0.1237 -0.2275 -0.6381
 4428SOL     OW17477   1.356   4.040   3.922  0.4580 -0.5487  0.2334
 4428SOL    HW217478   1.383   3.962   3.971 -0.5367 -0.6931  0.5978
 4428SOL    HW317479   1.267   4.019   3.892  0.3339  0.2819 -0.0076
 4428SOL    MW417480   1.348   4.027   3.925  0.1389 -0.5756  0.0643
 4429SOL     OW17481   3.197   2.069   6.213  0.0098 -0.1178 -0.0278
 4429SOL    HW217482   3.168   1.991   6.261 -0.9950 -0.8561 -1.7516
 4429SOL    HW317483   3.153   2.142   6.257 -1.9761 -0.9080 -0.6115
 4429SOL    MW417484   3.188   2.068   6.225 -0.0373  0.7973 -0.2671
 4430SOL     OW17485   0.784   1.107   5.663 -0.6080 -0.5073 -0.0564
 4430SOL    HW217486   0.788   1.091   5.569 -3.1676 -0.6684 -0.2060
 4430SOL    HW317487   0.814   1.198   5.673 -0.6684 -0.3679 -1.0591
 4430SOL    MW417488   0.789   1.117   5.652 -0.1259 -0.6043 -0.2426
 4431SOL     OW17489   3.513   6.058   4.467  0.4852  0.4410  0.2295
 4431SOL    HW217490   3.543   5.974   4.500  1.6200  0.0731 -1.5931
 4431SOL    HW317491   3.556   6.123   4.523  1.9003 -0.1600 -0.1241
 4431SOL    MW417492   3.523   6.056   4.478 -0.2195 -0.4788 -0.3803
 4432SOL     OW17493   5.090   2.870   2.523  0.2039  0.2267 -0.0594
 4432SOL    HW217494   5.118   2.827   2.604 -0.0226 -0.2977 -0.2535
 4432SOL    HW317495   4.995   2.858   2.522  0.1824  0.4235 -0.2927
 4432SOL    MW417496   5.081   2.863   2.534  0.8885 -0.2976 -0.1009
 4433SOL     OW17497   2.046   2.556   5.143 -0.0069 -0.3991 -0.0377
 4433SOL    HW217498   1.985   2.486   5.163 -0.5375  0.0415 -0.0898
 4433SOL    HW317499   2.039   2.617   5.217  0.6194 -0.5103  0.1218
 4433SOL    MW417500   2.037   2.555   5.156  0.0917  0.4692  0.4192
 4434SOL     OW17501   1.957   4.149   4.411  0.0647 -0.1495 -0.1239
 4434SOL    HW217502   1.985   4.205   4.339  0.0151  0.1988  0.1224
 4434SOL    HW317503   1.883   4.196   4.450  0.3630 -0.1168  0.4201
 4434SOL    MW417504   1.951   4.163   4.407  0.2068 -0.1532 -0.1472
 4435SOL     OW17505   5.043   1.690   0.962 -0.0664  0.0542 -0.0616
 4435SOL    HW217506   5.130   1.709   0.925 -0.0524 -0.8184 -0.4948
 4435SOL    HW317507   4.982   1.718   0.894 -0.0493 -1.2994 -0.6508
 4435SOL    MW417508   5.047   1.696   0.948 -0.1082  0.5572 -0.1446
 4436SOL     OW17509   4.927   4.419   1.899 -0.5335  0.5276  0.2049
 4436SOL    HW217510   4.869   4.473   1.846 -0.8193  1.0653  1.0475
 4436SOL    HW317511   4.921   4.456   1.987 -1.8188 -1.6966  1.1505
 4436SOL    MW417512   4.919   4.431   1.903 -0.0893 -0.3108 -0.1893
 4437SOL     OW17513   0.962   1.830   4.038  0.0935 -0.1898  0.3124
 4437SOL    HW217514   0.878   1.784   4.042  0.2607 -0.4917  0.3456
 4437SOL    HW317515   1.023   1.772   4.082 -0.1055  0.9925  2.2652
 4437SOL    MW417516   0.959   1.816   4.044 -0.0907 -0.6641 -0.0146
 4438SOL     OW17517   0.921   2.872   0.658  0.0004  0.0016  0.3931
 4438SOL    HW217518   0.870   2.802   0.617  0.1108 -1.0487  1.9811
 4438SOL    HW317519   0.980   2.902   0.589 -0.4001 -1.1148 -0.4639
 4438SOL    MW417520   0.922   2.867   0.644  0.2890 -0.4323 -0.3332
 4439SOL     OW17521   2.057   4.298   5.376  0.8829  0.3928 -0.5029
 4439SOL    HW217522   2.119   4.356   5.421 -0.2829  0.1765  1.5408
 4439SOL    HW317523   2.012   4.355   5.314 -0.1923  1.7391  1.4123
 4439SOL    MW417524   2.059   4.314   5.374  0.5253  0.2414 -0.1175
 4440SOL     OW17525   2.896   0.855   1.549  0.4115 -0.1345 -0.2811
 4440SOL    HW217526   2.841   0.835   1.473  0.7546 -1.6030 -0.1752
 4440SOL    HW317527   2.982   0.873   1.511  0.3076  0.3121 -0.3129
 4440SOL    MW417528   2.900   0.854   1.534  0.2464  0.0628  0.4924
 4441SOL     OW17529   5.938   2.912   0.190 -0.2123  0.1268  0.0368
 4441SOL    HW217530   5.845   2.897   0.173 -0.0948  1.2386 -1.8340
 4441SOL    HW317531   5.972   2.949   0.109  2.0904 -1.0808  0.3772
 4441SOL    MW417532   5.930   2.915   0.177 -0.1029  0.1859 -0.2862
 4442SOL     OW17533   4.028   2.047   0.263 -0.4973 -0.9411 -0.4192
 4442SOL    HW217534   4.000   2.129   0.304  0.4279 -1.3272  1.0269
 4442SOL    HW317535   3.951   1.990   0.270 -0.5311 -0.8169  0.2813
 4442SOL    MW417536   4.014   2.050   0.269  0.0392  0.4292 -0.0688
 4443SOL     OW17537   6.176   6.058   0.301 -0.6210 -0.1096  0.1200
 4443SOL    HW217538   6.209   6.103   0.379  0.4076 -1.2031  0.3444
 4443SOL    HW317539   6.082   6.076   0.301 -0.4084  1.0981  0.8030
 4443SOL    MW417540   6.168   6.066   0.311 -0.2911  0.1176  0.3699
 4444SOL     OW17541   5.518   6.143   4.794 -0.4315  0.5406  0.2055
 4444SOL    HW217542   5.487   6.232   4.781 -0.0378  0.6347 -0.1249
 4444SOL    HW317543   5.613   6.152   4.802 -0.3157  0.0728 -0.5963
 4444SOL    MW417544   5.527   6.156   4.793 -0.1445 -0.3928 -0.4302
 4445SOL     OW17545   6.351   1.580   4.661 -0.0974 -0.0733  0.2731
 4445SOL    HW217546   6.411   1.528   4.714 -0.3531 -1.1634 -0.4757
 4445SOL    HW317547   6.266   1.538   4.672 -0.3737  0.3740 -0.1021
 4445SOL    MW417548   6.348   1.568   4.669 -0.4609 -0.1893 -0.0395
 4446SOL     OW17549   0.875   0.196   2.070 -0.0185  0.4003 -0.3377
 4446SOL    HW217550   0.964   0.205   2.106 -0.6523 -0.5004  1.5695
 4446SOL    HW317551   0.842   0.285   2.064 -0.5324  0.5810  3.1808
 4446SOL    MW417552   0.883   0.209   2.074 -0.0928  0.4687 -0.2199
 4447SOL     OW17553   0.624   0.706   6.126  0.0428  0.2026  0.3992
 4447SOL    HW217554   0.720   0.707   6.119 -0.0364 -0.1070 -1.1620
 4447SOL    HW317555   0.594   0.731   6.038 -1.3076 -0.0519  0.7743
 4447SOL    MW417556   0.633   0.709   6.113 -0.0673 -0.3717  0.4428
 4448SOL     OW17557   4.964   2.056   1.199  0.4143  0.0448 -0.1098
 4448SOL    HW217558   5.009   1.973   1.182 -1.0588 -0.5403 -1.3131
 4448SOL    HW317559   5.031   2.123   1.184  1.9228 -0.9047  1.8985
 4448SOL    MW417560   4.979   2.054   1.195  0.6044 -0.6622  0.5097
 4449SOL     OW17561   4.521   3.573   4.457 -0.1100  0.1217  0.6737
 4449SOL    HW217562   4.569   3.623   4.390 -0.3846 -1.5919 -0.8833
 4449SOL    HW317563   4.434   3.562   4.420  0.6811 -3.8556 -0.4571
 4449SOL    MW417564   4.516   3.578   4.443 -0.0307  0.2637  0.0694
 4450SOL     OW17565   0.738   2.474   1.682  0.7403  0.0715  0.5258
 4450SOL    HW217566   0.736   2.454   1.588  1.2776  1.6872  0.1369
 4450SOL    HW317567   0.652   2.445   1.714  0.3349 -0.0051 -0.5784
 4450SOL    MW417568   0.726   2.467   1.674 -0.1341  0.0679  0.2701
 4451SOL     OW17569   4.952   5.601   5.253  0.5894  0.5681 -0.2560
 4451SOL    HW217570   4.894   5.650   5.311  1.9102  0.6166  1.0680
 4451SOL    HW317571   4.916   5.512   5.253  0.4356  0.6236  0.4496
 4451SOL    MW417572   4.939   5.595   5.261  0.7775 -0.4311  0.1700
 4452SOL     OW17573   4.827   0.734   2.613  0.2780 -0.4939 -0.0687
 4452SOL    HW217574   4.757   0.680   2.576  0.0356 -0.7792  0.7791
 4452SOL    HW317575   4.887   0.671   2.653  0.8829 -0.2321 -0.5584
 4452SOL    MW417576   4.826   0.719   2.614  0.3154 -0.1804 -0.1891
 4453SOL     OW17577   6.336   5.392   2.014 -0.5023 -0.3839  0.4877
 4453SOL    HW217578   6.415   5.365   2.061  0.2518  0.6118 -0.1760
 4453SOL    HW317579   6.359   5.476   1.974 -2.7855  1.4387  2.6275
 4453SOL    MW417580   6.350   5.400   2.015 -0.1866 -0.1623 -0.5045
 4454SOL     OW17581   0.482   3.970   3.192 -0.1473 -0.3851 -0.3952
 4454SOL    HW217582   0.517   3.988   3.280  3.0355 -0.6540 -1.4796
 4454SOL    HW317583   0.395   3.932   3.208 -1.1322  2.5408  2.4715
 4454SOL    MW417584   0.475   3.967   3.206 -0.2274  0.0619 -0.0772
 4455SOL     OW17585   5.744   0.936   1.218  0.7180 -0.3949  0.6639
 4455SOL    HW217586   5.695   0.888   1.285  1.0199 -0.9082  0.5210
 4455SOL    HW317587   5.834   0.903   1.226  0.8552 -0.1109  0.3267
 4455SOL    MW417588   5.749   0.926   1.228  0.0674  0.1332  0.0780
 4456SOL     OW17589   5.982   2.711   3.686  0.4100 -0.5073  0.7640
 4456SOL    HW217590   5.936   2.658   3.752 -0.4676 -0.3071  0.3357
 4456SOL    HW317591   5.915   2.729   3.620  0.4182  1.9357  1.3468
 4456SOL    MW417592   5.967   2.706   3.686 -0.3368 -0.0415 -0.2104
 4457SOL     OW17593   5.566   3.702   1.928  0.5898 -0.0957  0.7353
 4457SOL    HW217594   5.487   3.692   1.875  0.4893  2.2047  0.3415
 4457SOL    HW317595   5.533   3.718   2.017  0.5563  1.1142  0.5268
 4457SOL    MW417596   5.551   3.703   1.933  0.1227  0.1224  0.4168
 4458SOL     OW17597   1.839   0.626   1.995  0.6257 -0.8027  0.0705
 4458SOL    HW217598   1.796   0.548   2.031 -0.3362 -0.3408 -0.0285
 4458SOL    HW317599   1.922   0.594   1.959  0.7496 -1.5875  1.0147
 4458SOL    MW417600   1.844   0.611   1.995 -0.5030 -0.3459  0.4385
 4459SOL     OW17601   2.690   0.495   3.332  0.0409 -0.3923  0.0150
 4459SOL    HW217602   2.721   0.459   3.249  0.6973  0.1120  0.0322
 4459SOL    HW317603   2.643   0.575   3.308  0.3463 -0.1726  0.1232
 4459SOL    MW417604   2.688   0.501   3.318  0.1337 -0.6825 -0.1713
 4460SOL     OW17605   4.209   3.179   3.973  0.0841 -0.4009 -0.2479
 4460SOL    HW217606   4.273   3.110   3.982  2.0436  1.3600  0.0606
 4460SOL    HW317607   4.162   3.158   3.892 -0.0828 -2.5813  0.3732
 4460SOL    MW417608   4.211   3.167   3.963  0.2222  0.5941  0.4980
 4461SOL     OW17609   2.923   0.994   5.308  0.0666 -0.1263 -0.4288
 4461SOL    HW217610   2.836   1.018   5.340 -0.0899 -0.6829 -0.4287
 4461SOL    HW317611   2.964   0.947   5.381 -0.0142 -0.7487 -0.7766
 4461SOL    MW417612   2.917   0.991   5.322 -0.4075 -0.2541  0.8310
 4462SOL     OW17613   6.202   5.655   3.131 -0.1326 -0.0517  0.1363
 4462SOL    HW217614   6.231   5.729   3.185 -0.8005  0.6888 -0.4818
 4462SOL    HW317615   6.153   5.599   3.191 -0.6596  0.6394  0.3606
 4462SOL    MW417616   6.199   5.657   3.146 -0.5259 -0.5518  0.2300
 4463SOL     OW17617   0.934   0.393   5.981 -0.0542  0.1996 -0.1247
 4463SOL    HW217618   0.874   0.345   5.924 -0.0710 -0.6306  0.5684
 4463SOL    HW317619   0.993   0.438   5.921 -0.3799 -0.2543 -0.8016
 4463SOL    MW417620   0.934   0.393   5.965 -0.2841  0.1538  0.7820
 4464SOL     OW17621   4.383   3.537   0.182  0.2744  0.5882  0.2049
 4464SOL    HW217622   4.296   3.528   0.219 -0.4525 -0.2800 -1.5861
 4464SOL    HW317623   4.371   3.522   0.088  2.5724 -1.0470  0.0800
 4464SOL    MW417624   4.370   3.534   0.174 -0.3336  0.2838 -0.5967
 4465SOL     OW17625   4.256   2.600   5.332 -0.0131 -0.5095 -0.7554
 4465SOL    HW217626   4.218   2.652   5.261 -1.6638  0.8002  0.9958
 4465SOL    HW317627   4.194   2.609   5.404  1.7647 -1.5423  0.9845
 4465SOL    MW417628   4.243   2.608   5.332  0.0376  0.5306  0.2105
 4466SOL     OW17629   0.072   1.209   1.355 -0.3845 -0.4628  0.2273
 4466SOL    HW217630   0.143   1.272   1.348  0.0502 -0.9054  0.5615
 4466SOL    HW317631   0.099   1.150   1.426 -2.4120  1.0549  2.3988
 4466SOL    MW417632   0.085   1.209   1.363  0.1001 -0.4857  0.9832
 4467SOL     OW17633   2.056   0.697   1.775 -0.0772  0.5431  0.1878
 4467SOL    HW217634   2.096   0.746   1.704  2.8800 -0.8459  0.7625
 4467SOL    HW317635   2.104   0.725   1.854 -0.0077 -1.3828  0.8785
 4467SOL    MW417636   2.067   0.707   1.776 -0.0964 -0.3570  0.1961
 4468SOL     OW17637   0.064   1.569   1.896  0.7607 -0.1227 -0.2781
 4468SOL    HW217638   0.051   1.474   1.901  0.0171 -0.0150  0.1824
 4468SOL    HW317639   0.089   1.594   1.985  1.6595  0.0225 -0.5701
 4468SOL    MW417640   0.065   1.560   1.909 -0.0362 -0.1823 -0.8303
 4469SOL     OW17641   0.817   0.877   5.388  0.2813 -0.2967 -0.6231
 4469SOL    HW217642   0.857   0.945   5.335  0.8343 -0.2562 -0.1566
 4469SOL    HW317643   0.868   0.798   5.369  1.1562 -0.0502  0.6371
 4469SOL    MW417644   0.829   0.876   5.378  0.3385  0.1236  0.7175
 4470SOL     OW17645   2.676   0.069   0.641 -0.1560  0.4071  0.5637
 4470SOL    HW217646   2.645  -0.015   0.608 -0.5878  0.3513  1.0927
 4470SOL    HW317647   2.770   0.066   0.629 -0.0215 -0.6592  1.6854
 4470SOL    MW417648   2.684   0.058   0.635 -0.1860 -0.3332 -0.1585
 4471SOL     OW17649   4.874   0.382   2.828  0.0728 -0.3137  0.1863
 4471SOL    HW217650   4.903   0.330   2.903 -0.2077  0.4864  0.8749
 4471SOL    HW317651   4.833   0.319   2.769  1.7524 -1.2211 -0.0804
 4471SOL    MW417652   4.873   0.367   2.830 -0.1065 -0.1265 -0.3685
 4472SOL     OW17653   6.143   0.528   1.564  0.4890  0.3347 -0.6670
 4472SOL    HW217654   6.137   0.437   1.534  0.4869  0.8817 -2.4181
 4472SOL    HW317655   6.235   0.552   1.550  0.3317  0.8164 -0.8952
 4472SOL    MW417656   6.154   0.519   1.558  0.2704  0.1181 -0.6826
 4473SOL     OW17657   0.300   2.149   2.324  0.2133 -0.1354 -0.3258
 4473SOL    HW217658   0.390   2.146   2.291  0.2264  0.0602 -0.3056
 4473SOL    HW317659   0.306   2.199   2.405  0.3437 -1.3937  0.4846
 4473SOL    MW417660   0.313   2.155   2.330 -0.1894  0.4805 -0.4153
 4474SOL     OW17661   5.754   5.841   5.991 -0.2806 -0.0571 -0.8444
 4474SOL    HW217662   5.793   5.927   6.008  0.4680 -0.3448 -1.0480
 4474SOL    HW317663   5.798   5.810   5.912 -1.3404 -0.1585 -1.4106
 4474SOL    MW417664   5.765   5.848   5.983  0.0011  0.2329  0.1881
 4475SOL     OW17665   2.451   2.600   2.238  0.6443 -0.0422 -0.5204
 4475SOL    HW217666   2.433   2.677   2.293  3.0540  0.5844 -0.4963
 4475SOL    HW317667   2.521   2.629   2.180  2.8480 -2.6861  0.6243
 4475SOL    MW417668   2.458   2.614   2.238  0.0438  0.9265 -0.6233
 4476SOL     OW17669   0.127   6.008   2.322 -0.3231  0.2328  0.0102
 4476SOL    HW217670   0.130   6.097   2.357 -1.1775 -0.3951  1.8294
 4476SOL    HW317671   0.156   6.017   2.232 -2.7524  2.7693 -0.6665
 4476SOL    MW417672   0.131   6.021   2.315  0.1124 -0.6450 -0.7142
 4477SOL     OW17673   6.401   0.859   2.286 -0.4877  0.1237 -0.1626
 4477SOL    HW217674   6.439   0.808   2.357 -1.3883 -0.0650  0.1919
 4477SOL    HW317675   6.329   0.806   2.253  1.0918 -0.6932 -2.5462
 4477SOL    MW417676   6.397   0.845   2.291 -0.0194 -0.2701  1.0626
 4478SOL     OW17677   5.231   3.871   0.432 -0.0151  0.0007  0.4765
 4478SOL    HW217678   5.196   3.894   0.517  1.7596  0.2267  1.1961
 4478SOL    HW317679   5.295   3.939   0.412  0.3482 -0.6011 -0.5508
 4478SOL    MW417680   5.235   3.883   0.441 -0.0576 -0.4013  0.6728
 4479SOL     OW17681   1.126   5.605   4.555 -0.0364 -0.3199  0.0268
 4479SOL    HW217682   1.089   5.521   4.583  0.8801 -1.2862 -1.5337
 4479SOL    HW317683   1.050   5.658   4.530 -0.5412 -1.3198 -0.6193
 4479SOL    MW417684   1.111   5.601   4.556 -0.1395 -0.2630  0.4482
 4480SOL     OW17685   1.774   2.467   2.896  0.1922 -0.1431  0.0038
 4480SOL    HW217686   1.827   2.476   2.817 -0.2803 -0.8275 -0.4073
 4480SOL    HW317687   1.800   2.382   2.932  0.2834  0.0917  0.4989
 4480SOL    MW417688   1.785   2.457   2.890 -0.0353  0.2670 -0.7090
 4481SOL     OW17689   5.817   4.465   0.087 -0.3346 -0.3518  0.5827
 4481SOL    HW217690   5.762   4.512   0.024  0.7022 -1.3897 -1.2217
 4481SOL    HW317691   5.765   4.387   0.109 -0.3455 -0.4304  0.2929
 4481SOL    MW417692   5.803   4.461   0.081 -0.1218  0.4096  0.0562
 4482SOL     OW17693   1.943   3.459   3.406 -0.2321  0.1042  0.0278
 4482SOL    HW217694   1.853   3.480   3.429 -0.6598 -0.4907 -1.0588
 4482SOL    HW317695   1.945   3.363   3.404  0.5267  0.1047  0.4096
 4482SOL    MW417696   1.932   3.449   3.409  0.1773  0.0228 -0.6693
 4483SOL     OW17697   3.875   2.378   2.539  0.2077  0.1096  0.3064
 4483SOL    HW217698   3.946   2.394   2.601  0.2371 -0.3232  0.3871
 4483SOL    HW317699   3.917   2.379   2.453  0.0443  1.4725  0.2255
 4483SOL    MW417700   3.890   2.380   2.536 -0.0421 -0.1629 -0.2842
 4484SOL     OW17701   3.232   2.938   5.525  0.1566 -0.4465 -0.4611
 4484SOL    HW217702   3.282   2.980   5.455  0.2605  0.9635  0.4309
 4484SOL    HW317703   3.267   2.849   5.529  1.2740 -0.0566 -1.1244
 4484SOL    MW417704   3.244   2.931   5.516  0.1511 -0.3636 -0.4226
 4485SOL     OW17705   4.067   3.211   2.327  0.4066 -0.0229 -0.1303
 4485SOL    HW217706   4.057   3.236   2.419 -0.0998 -0.2553 -0.1191
 4485SOL    HW317707   4.082   3.117   2.329 -0.7160 -0.2139 -0.3458
 4485SOL    MW417708   4.068   3.202   2.339 -0.6595  0.0391 -0.0161
 4486SOL     OW17709   2.379   5.987   3.802 -0.0087 -0.2778  0.7413
 4486SOL    HW217710   2.347   6.063   3.755  0.1562  0.2424  1.4505
 4486SOL    HW317711   2.336   5.992   3.888 -1.0823 -1.7420  0.3392
 4486SOL    MW417712   2.369   5.997   3.807 -0.1536 -0.1001 -0.0489
 4487SOL     OW17713   3.035   4.469   1.092 -0.4507  0.2378 -0.4899
 4487SOL    HW217714   3.077   4.531   1.152 -0.2414  0.1007 -0.4931
 4487SOL    HW317715   3.023   4.519   1.011  2.0947 -0.4330 -1.3983
 4487SOL    MW417716   3.039   4.484   1.089 -0.5495  0.4379  0.9846
 4488SOL     OW17717   4.757   3.020   5.532 -0.4951 -0.7648 -0.0242
 4488SOL    HW217718   4.694   3.009   5.604  0.6102 -1.2206  0.8993
 4488SOL    HW317719   4.806   3.099   5.555  0.0761 -1.0916 -0.1191
 4488SOL    MW417720   4.755   3.029   5.545  0.2958 -0.3693  0.7876
 4489SOL     OW17721   5.995   2.263   2.100  0.0284  0.2075  0.2601
 4489SOL    HW217722   6.034   2.200   2.161  0.6907  0.8781  0.5469
 4489SOL    HW317723   6.008   2.348   2.142 -0.7048  0.5608 -0.1985
 4489SOL    MW417724   6.002   2.266   2.114  0.1841 -0.1609  0.4686
 4490SOL     OW17725   3.769   5.722   1.860 -0.1462 -0.5642  0.1572
 4490SOL    HW217726   3.794   5.782   1.930  1.4740  1.1669 -1.7670
 4490SOL    HW317727   3.845   5.665   1.850 -0.8255 -1.5597  0.5236
 4490SOL    MW417728   3.782   5.722   1.868  0.1111 -0.1108 -0.1103
 4491SOL     OW17729   1.656   0.847   0.422  0.4626  0.1018  0.0148
 4491SOL    HW217730   1.571   0.854   0.379  0.8567  0.7335 -0.6965
 4491SOL    HW317731   1.637   0.866   0.514 -0.3790 -1.1919  0.1263
 4491SOL    MW417732   1.642   0.851   0.428 -0.0522 -0.4341  0.2473
 4492SOL     OW17733   5.179   6.246   3.425 -0.6748  1.3608  0.1911
 4492SOL    HW217734   5.193   6.324   3.478  1.0960  1.0833  0.2104
 4492SOL    HW317735   5.220   6.266   3.341 -2.6294  1.4470 -0.7700
 4492SOL    MW417736   5.187   6.259   3.421  0.3677  0.1292  0.0684
 4493SOL     OW17737   6.121   6.342   4.226  0.3846 -0.4764  0.2720
 4493SOL    HW217738   6.101   6.423   4.180  1.6698 -0.8067 -0.9335
 4493SOL    HW317739   6.035   6.301   4.239 -0.3537  1.3665  1.5463
 4493SOL    MW417740   6.107   6.347   4.221 -0.1129 -0.4153 -0.1480
 4494SOL     OW17741   0.608   5.201   3.351  0.1895  0.0527 -0.2781
 4494SOL    HW217742   0.553   5.260   3.300  1.6100  0.7212 -1.0848
 4494SOL    HW317743   0.601   5.235   3.441 -0.6021  0.1899 -0.3764
 4494SOL    MW417744   0.600   5.213   3.356  0.3622  0.7885 -0.3470
 4495SOL     OW17745   3.974   3.021   1.494 -0.4445 -0.4418 -0.3769
 4495SOL    HW217746   3.913   3.070   1.549  0.6181  0.5073 -0.0039
 4495SOL    HW317747   4.016   2.958   1.554 -0.1684 -0.2422 -0.3580
 4495SOL    MW417748   3.972   3.019   1.509 -0.1808  0.2825  0.5107
 4496SOL     OW17749   4.626   0.562   2.468  0.1109 -0.1943 -0.1101
 4496SOL    HW217750   4.552   0.601   2.422 -1.4699 -2.5105  0.3126
 4496SOL    HW317751   4.655   0.490   2.412  0.7479 -0.5495  0.6511
 4496SOL    MW417752   4.620   0.558   2.455  0.3170  0.3790 -0.5071
 4497SOL     OW17753   5.430   5.394   1.857 -0.0843 -1.0859 -0.3852
 4497SOL    HW217754   5.402   5.368   1.769 -2.2215 -1.5956  0.3885
 4497SOL    HW317755   5.364   5.457   1.886  0.8753 -0.5359  0.6810
 4497SOL    MW417756   5.418   5.399   1.849  0.0970  0.0809 -0.3157
 4498SOL     OW17757   4.797   1.435   4.039 -0.1679  0.2193 -0.7907
 4498SOL    HW217758   4.869   1.483   3.998 -0.4007  1.0651 -0.2314
 4498SOL    HW317759   4.729   1.501   4.053 -0.4991 -0.2711 -0.0076
 4498SOL    MW417760   4.798   1.450   4.035  0.1384  0.1717  0.9220
 4499SOL     OW17761   3.737   0.192   3.992  0.8081  0.2814 -0.2618
 4499SOL    HW217762   3.702   0.208   4.079  1.4776  1.2611 -0.1627
 4499SOL    HW317763   3.832   0.189   4.003  0.8339 -2.1087 -0.5708
 4499SOL    MW417764   3.745   0.194   4.005 -0.1634 -0.2742 -0.1712
 4500SOL     OW17765   1.411   5.928   2.010  0.0578  0.1499 -0.7198
 4500SOL    HW217766   1.352   5.993   1.973  1.1570  1.8609  0.4340
 4500SOL    HW317767   1.483   5.922   1.947  1.1126  1.8447  0.2526
 4500SOL    MW417768   1.413   5.935   1.996  0.1256 -0.0481  0.2320
 4501SOL     OW17769   0.117   5.291   2.175  0.3736  0.4135 -0.1736
 4501SOL    HW217770   0.175   5.229   2.130  1.4283  1.5448 -0.4562
 4501SOL    HW317771   0.070   5.238   2.239  1.9434 -0.5271  0.2705
 4501SOL    MW417772   0.119   5.276   2.177  0.8346 -0.1721  0.7173
 4502SOL     OW17773   2.335   0.907   2.319  0.6449 -0.0448  0.4861
 4502SOL    HW217774   2.391   0.953   2.255 -0.9825  1.7656  0.2617
 4502SOL    HW317775   2.391   0.898   2.396  1.5685  0.8751 -0.0371
 4502SOL    MW417776   2.350   0.912   2.321 -0.3655 -0.0323  0.1043
 4503SOL     OW17777   0.273   5.699   4.401 -0.0895 -0.8566 -0.7996
 4503SOL    HW217778   0.227   5.686   4.484  0.8415  1.8862  0.2591
 4503SOL    HW317779   0.351   5.644   4.409  0.8109  0.5610  0.9236
 4503SOL    MW417780   0.277   5.690   4.413  0.5007 -0.9844  0.5728
 4504SOL     OW17781   1.582   3.773   4.943 -0.2098  0.3650  0.4928
 4504SOL    HW217782   1.537   3.772   5.028  1.9785  2.0143  1.7837
 4504SOL    HW317783   1.577   3.864   4.915 -2.4285 -0.4435 -2.1394
 4504SOL    MW417784   1.575   3.785   4.951  0.4025  0.0558  0.0674
 4505SOL     OW17785   5.278   2.092   0.545 -0.4371  0.1980  0.4113
 4505SOL    HW217786   5.299   2.107   0.637  0.8392 -0.6408  0.2788
 4505SOL    HW317787   5.320   2.163   0.498 -1.8586  1.1556  0.5204
 4505SOL    MW417788   5.286   2.103   0.551 -0.5058  0.0737 -0.0632
 4506SOL     OW17789   5.343   5.204   2.055  0.0026 -0.5868  0.0620
 4506SOL    HW217790   5.331   5.252   2.138  2.0072 -0.8335  0.5563
 4506SOL    HW317791   5.354   5.273   1.989 -2.1203 -0.3814 -0.1374
 4506SOL    MW417792   5.343   5.220   2.058  0.2246  0.2207  0.1473
 4507SOL     OW17793   2.081   5.135   6.277 -0.4835 -0.0634  0.4507
 4507SOL    HW217794   2.039   5.064   6.325 -0.1246  0.5813  1.7826
 4507SOL    HW317795   2.083   5.208   6.339 -2.2505  1.6526 -1.3702
 4507SOL    MW417796   2.076   5.135   6.292  0.7191 -0.7179 -0.0958
 4508SOL     OW17797   0.978   4.374   2.690  0.5132  0.1071  0.3722
 4508SOL    HW217798   1.058   4.424   2.679  1.1732 -1.1964 -1.0453
 4508SOL    HW317799   0.992   4.322   2.769  0.1905  1.4080  1.3195
 4508SOL    MW417800   0.990   4.374   2.699 -0.1876 -0.1813  0.2534
 4509SOL     OW17801   1.936   4.944   5.174 -0.0531  0.3352 -0.3504
 4509SOL    HW217802   1.846   4.959   5.145 -0.5371 -0.7926  0.5291
 4509SOL    HW317803   1.966   4.868   5.124 -0.3844 -0.6968  0.9720
 4509SOL    MW417804   1.928   4.936   5.164 -0.0682 -0.0654  0.9200
 4510SOL     OW17805   2.711   4.625   5.651 -0.0588 -0.6763 -0.2780
 4510SOL    HW217806   2.772   4.696   5.669 -1.6626  0.4973  0.8269
 4510SOL    HW317807   2.731   4.558   5.717  2.2555 -1.8946 -2.0577
 4510SOL    MW417808   2.722   4.625   5.662 -0.4742 -0.2029  0.5165
 4511SOL     OW17809   4.571   0.839   3.793  0.0626 -0.0345  0.0259
 4511SOL    HW217810   4.617   0.882   3.865 -0.2168  0.3916 -0.0489
 4511SOL    HW317811   4.588   0.894   3.717 -1.1875  0.5524  0.1453
 4511SOL    MW417812   4.579   0.852   3.793 -0.1313 -0.7452 -0.0746
 4512SOL     OW17813   5.373   2.425   0.830  0.1323  0.6334  0.2941
 4512SOL    HW217814   5.326   2.500   0.866  0.7462  0.9989  0.3566
 4512SOL    HW317815   5.425   2.462   0.758  1.8833  0.6463  1.5056
 4512SOL    MW417816   5.374   2.440   0.825  0.2272  0.3754  0.0606
 4513SOL     OW17817   3.553   2.619   3.385  0.1116  0.1213 -0.2009
 4513SOL    HW217818   3.544   2.658   3.298 -1.4658  1.3026  0.4497
 4513SOL    HW317819   3.619   2.672   3.429  0.6716 -0.2748 -0.5481
 4513SOL    MW417820   3.560   2.631   3.379 -0.0955 -0.0286 -0.4407
 4514SOL     OW17821   4.485   5.390   2.148 -0.7626 -0.2554 -0.1332
 4514SOL    HW217822   4.390   5.403   2.149 -0.7534 -0.1974  0.7956
 4514SOL    HW317823   4.497   5.307   2.102 -1.5779 -2.3178  3.0225
 4514SOL    MW417824   4.474   5.381   2.142  1.0258  0.6089  0.4948
 4515SOL     OW17825   0.899   1.446   5.926 -0.3276 -0.1276  0.4506
 4515SOL    HW217826   0.809   1.448   5.958 -1.0105 -0.9057 -1.3033
 4515SOL    HW317827   0.891   1.462   5.832  1.6967  3.6803  0.7153
 4515SOL    MW417828   0.886   1.449   5.918 -0.0037 -0.0115 -0.4554
 4516SOL     OW17829   4.259   4.728   6.182  0.0798 -0.0709 -0.2454
 4516SOL    HW217830   4.226   4.773   6.260  0.6440  1.5888 -0.9200
 4516SOL    HW317831   4.352   4.750   6.179  0.2514 -0.8381 -0.9257
 4516SOL    MW417832   4.267   4.737   6.192 -0.0285  0.5013 -0.3375
 4517SOL     OW17833   0.480   1.686   1.412  0.0104  0.7248 -0.2778
 4517SOL    HW217834   0.523   1.743   1.475 -0.5333  0.3926  0.3983
 4517SOL    HW317835   0.388   1.684   1.439 -0.3885  1.1896 -1.5285
 4517SOL    MW417836   0.474   1.693   1.424  0.5037 -0.2461  0.4101
 4518SOL     OW17837   3.376   2.329   3.682 -0.3021 -0.4737  0.4936
 4518SOL    HW217838   3.327   2.327   3.764 -0.9027  1.0939  0.2295
 4518SOL    HW317839   3.467   2.311   3.707 -0.7067 -1.5482  1.2634
 4518SOL    MW417840   3.381   2.327   3.696 -0.0733 -0.5644 -0.5196
 4519SOL     OW17841   4.849   5.375   2.257 -0.6997 -0.6707 -0.5443
 4519SOL    HW217842   4.823   5.321   2.183  2.1889 -0.1898 -2.0732
 4519SOL    HW317843   4.944   5.385   2.247 -0.4910  1.0694  2.1353
 4519SOL    MW417844   4.858   5.369   2.246 -0.5805  0.0612  0.3484
 4520SOL     OW17845   4.753   1.259   0.088 -0.3376  0.3214 -0.0446
 4520SOL    HW217846   4.715   1.212   0.162  0.8962 -0.2161  0.2793
 4520SOL    HW317847   4.683   1.317   0.058 -1.6604 -1.1534  0.0337
 4520SOL    MW417848   4.739   1.260   0.094 -0.4892  0.0317 -0.1153
 4521SOL     OW17849   0.170   0.396   5.317  0.2862  0.3068 -0.0743
 4521SOL    HW217850   0.158   0.301   5.310  0.2321  0.3345 -0.3877
 4521SOL    HW317851   0.136   0.430   5.234 -1.0595  0.7346  0.6180
 4521SOL    MW417852   0.164   0.388   5.305 -0.0309  0.6676 -0.8890
 4522SOL     OW17853   2.035   6.377   0.969 -0.1020  0.2059  0.1757
 4522SOL    HW217854   2.052   6.284   0.982  1.0300  0.0664 -1.8201
 4522SOL    HW317855   2.120   6.419   0.983  0.3043  0.4484 -2.4292
 4522SOL    MW417856   2.048   6.370   0.972  0.1929 -0.4486 -0.1670
 4523SOL     OW17857   3.682   1.260   3.241  0.6097  0.7195 -0.1720
 4523SOL    HW217858   3.705   1.196   3.308 -0.9570  0.0010 -0.2773
 4523SOL    HW317859   3.595   1.292   3.267  1.2438  2.6570 -0.2434
 4523SOL    MW417860   3.673   1.256   3.253  0.3628  0.1468  0.7227
 4524SOL     OW17861   2.215   0.451   1.333  0.1161  0.2011  0.3554
 4524SOL    HW217862   2.141   0.402   1.370  0.4565 -0.4428  0.1906
 4524SOL    HW317863   2.185   0.476   1.245 -0.6070  1.5425  0.9548
 4524SOL    MW417864   2.201   0.448   1.326  0.1042  0.0331 -0.6277
 4525SOL     OW17865   1.851   1.228   0.520 -0.2274 -0.4615  0.5807
 4525SOL    HW217866   1.798   1.200   0.446  1.3643  0.2575 -0.8991
 4525SOL    HW317867   1.918   1.159   0.529  0.9710  0.5631 -0.1696
 4525SOL    MW417868   1.853   1.215   0.512 -0.0066 -0.0865 -0.6750
 4526SOL     OW17869   2.867   5.329   1.579  0.3979  0.2098 -0.1387
 4526SOL    HW217870   2.788   5.331   1.634 -0.5835 -0.3248 -1.4646
 4526SOL    HW317871   2.847   5.264   1.512  1.3331  1.2154 -1.4465
 4526SOL    MW417872   2.854   5.321   1.578 -0.3234  0.1263 -0.2420
 4527SOL     OW17873   5.460   6.384   6.031  0.1118 -0.4201  0.0910
 4527SOL    HW217874   5.407   6.394   6.110  0.0376 -0.0107 -0.0084
 4527SOL    HW317875   5.403   6.340   5.968  0.0575 -0.4354  0.1517
 4527SOL    MW417876   5.446   6.379   6.033  0.3041  0.2164 -1.0558
 4528SOL     OW17877   2.285   2.219   1.073 -0.1424  0.1127 -0.0270
 4528SOL    HW217878   2.380   2.216   1.078 -0.0828 -1.9182 -1.1448
 4528SOL    HW317879   2.266   2.284   1.005  0.3853  1.0793  0.7307
 4528SOL    MW417880   2.295   2.227   1.065  0.5931  0.3102  0.0028
 4529SOL     OW17881   0.192   0.975   3.075 -0.1537 -0.5608 -0.2238
 4529SOL    HW217882   0.114   0.974   3.019  0.3281 -1.5204 -0.9059
 4529SOL    HW317883   0.265   0.966   3.014  0.4533 -0.4003  0.4677
 4529SOL    MW417884   0.191   0.974   3.060  0.2471  0.5875  0.0984
 4530SOL     OW17885   5.480   3.657   4.251 -0.4081 -0.1418 -0.3880
 4530SOL    HW217886   5.502   3.625   4.338 -0.6746  1.5010  0.3163
 4530SOL    HW317887   5.447   3.580   4.205 -0.8356 -0.9257  1.1614
 4530SOL    MW417888   5.478   3.643   4.256 -0.0345 -0.3832 -0.1742
 4531SOL     OW17889   4.550   0.473   1.670  0.1364 -0.3314 -0.1505
 4531SOL    HW217890   4.528   0.507   1.583  1.8077  0.0075 -0.4715
 4531SOL    HW317891   4.473   0.494   1.723  0.1411  1.9225 -0.8965
 4531SOL    MW417892   4.537   0.480   1.665 -0.0646  0.1584 -0.4613
 4532SOL     OW17893   1.645   2.997   2.781 -0.4293 -0.0861 -0.3565
 4532SOL    HW217894   1.600   2.976   2.699  1.2128  0.7448 -1.5294
 4532SOL    HW317895   1.737   3.001   2.757 -0.1476  3.9067  0.6131
 4532SOL    MW417896   1.651   2.995   2.767 -0.4794 -0.1662  0.3667
 4533SOL     OW17897   2.023   5.043   2.657  0.1696  0.6088  0.0176
 4533SOL    HW217898   1.942   5.019   2.612 -0.1080  0.4124  0.6164
 4533SOL    HW317899   2.004   5.029   2.749  0.2921  2.2800  0.3235
 4533SOL    MW417900   2.010   5.038   2.663  0.3031 -0.6036  0.1684
 4534SOL     OW17901   4.191   3.028   0.191  0.8461  0.3396  0.2292
 4534SOL    HW217902   4.145   3.052   0.111  0.8820  1.4201  0.5245
 4534SOL    HW317903   4.265   2.976   0.161  0.3102 -0.1016 -0.3604
 4534SOL    MW417904   4.194   3.024   0.177  0.0441  0.1071  0.0340
 4535SOL     OW17905   3.208   1.678   3.871 -0.1802 -0.2583 -0.1884
 4535SOL    HW217906   3.256   1.751   3.832 -0.3592 -0.1840 -0.2702
 4535SOL    HW317907   3.155   1.643   3.800 -0.7217  0.0573  0.0540
 4535SOL    MW417908   3.207   1.683   3.857  0.7114 -0.1083  0.1453
 4536SOL     OW17909   0.934   0.132   6.275 -0.0402  0.6378 -0.1354
 4536SOL    HW217910   0.907   0.041   6.285  1.7208  0.0285 -0.5790
 4536SOL    HW317911   0.949   0.162   6.365 -0.7403  0.5425  0.0181
 4536SOL    MW417912   0.932   0.124   6.289 -0.2083  0.0742 -0.2075
 4537SOL     OW17913   2.691   4.633   3.339  0.2862 -0.1674  0.6927
 4537SOL    HW217914   2.786   4.634   3.327  0.3192 -0.4076  0.9202
 4537SOL    HW317915   2.674   4.551   3.386  0.0158  0.0847  1.0366
 4537SOL    MW417916   2.701   4.622   3.344  0.0429 -0.1606 -0.5299
 4538SOL     OW17917   3.989   1.159   3.943  0.5568  0.5031 -0.1365
 4538SOL    HW217918   3.958   1.158   3.853 -0.2197  1.4177  0.1064
 4538SOL    HW317919   3.914   1.132   3.995  0.7595  0.7659  0.2988
 4538SOL    MW417920   3.975   1.156   3.938 -0.1743 -0.4621 -0.1702
 4539SOL     OW17921   4.359   2.830   3.093  0.3560  0.2659  0.3828
 4539SOL    HW217922   4.359   2.749   3.143 -0.7908  0.3212  0.4992
 4539SOL    HW317923   4.271   2.865   3.104  0.5569  1.0625 -0.4162
 4539SOL    MW417924   4.348   2.824   3.101 -0.2393  0.0255 -0.3332
 4540SOL     OW17925   0.274   1.837   4.508 -0.7204  0.2633  0.3972
 4540SOL    HW217926   0.201   1.897   4.494  1.1272  2.5512 -0.1621
 4540SOL    HW317927   0.298   1.807   4.421  0.4712  1.4929  0.2525
 4540SOL    MW417928   0.268   1.841   4.495  0.1218  0.1588  0.1495
 4541SOL     OW17929   5.125   1.794   2.424 -0.4668  0.0355  0.4147
 4541SOL    HW217930   5.093   1.844   2.500 -0.7500 -2.1639  1.8403
 4541SOL    HW317931   5.219   1.785   2.439 -0.7071 -1.5267  1.3111
 4541SOL    MW417932   5.133   1.799   2.436  0.1905 -0.4637  0.0229
 4542SOL     OW17933   5.320   1.224   2.334 -0.0745 -0.3119  0.0044
 4542SOL    HW217934   5.237   1.270   2.322 -0.4781 -1.2443 -0.9030
 4542SOL    HW317935   5.296   1.132   2.349  0.7680 -0.4803  0.4481
 4542SOL    MW417936   5.306   1.218   2.335  0.8686 -0.2350 -0.1837
 4543SOL     OW17937   4.474   2.680   3.882 -0.1871 -0.3128 -0.5294
 4543SOL    HW217938   4.469   2.665   3.977 -2.4589  0.1222 -0.5224
 4543SOL    HW317939   4.438   2.600   3.843 -2.2793  0.7113 -0.8533
 4543SOL    MW417940   4.469   2.667   3.890 -0.0886 -0.0867 -1.1624
 4544SOL     OW17941   5.879   2.783   4.054 -0.7669  0.1145  0.1539
 4544SOL    HW217942   5.831   2.715   4.006 -1.0951  0.2922  0.2295
 4544SOL    HW317943   5.892   2.853   3.991  0.9860 -0.6564 -0.4129
 4544SOL    MW417944   5.874   2.783   4.040 -0.1210 -0.2624  0.0212
 4545SOL     OW17945   5.393   2.643   2.086  0.1343  0.0471 -0.3680
 4545SOL    HW217946   5.378   2.592   2.165 -0.8298  1.8852  0.7079
 4545SOL    HW317947   5.365   2.732   2.109  1.8675  1.1187 -2.0854
 4545SOL    MW417948   5.387   2.648   2.099 -0.6067 -0.3279  0.3051
 4546SOL     OW17949   4.666   0.730   5.043  0.1569 -0.3295 -0.0691
 4546SOL    HW217950   4.608   0.790   4.996  0.8631 -0.5940 -1.3219
 4546SOL    HW317951   4.643   0.644   5.010 -0.0565 -0.6535  0.8770
 4546SOL    MW417952   4.655   0.727   5.033  0.0229 -0.3388 -0.6756
 4547SOL     OW17953   1.812   5.323   4.192 -0.3953  0.4135 -0.6141
 4547SOL    HW217954   1.760   5.321   4.112 -0.7411  3.5290 -0.5984
 4547SOL    HW317955   1.769   5.388   4.247 -0.0155 -1.4306  2.0729
 4547SOL    MW417956   1.800   5.331   4.189 -0.6856 -0.0874 -0.5049
 4548SOL     OW17957   0.867   6.296   6.279  0.0632 -0.1664 -0.3587
 4548SOL    HW217958   0.939   6.241   6.309 -1.0425 -1.7295 -0.4282
 4548SOL    HW317959   0.829   6.247   6.206 -1.7217  0.0801  0.3595
 4548SOL    MW417960   0.872   6.283   6.273 -0.4683  0.1887  0.0968
 4549SOL     OW17961   2.313   6.371   0.824  0.3419  0.1483 -0.2690
 4549SOL    HW217962   2.281   6.455   0.792  1.7959  0.4578 -0.9930
 4549SOL    HW317963   2.317   6.315   0.747 -0.6469 -0.6229  0.2131
 4549SOL    MW417964   2.310   6.375   0.810 -0.6256 -0.1447  0.2989
 4550SOL     OW17965   5.857   0.374   3.958 -0.4167 -0.3142 -0.1722
 4550SOL    HW217966   5.845   0.374   4.053 -1.0766 -0.6748 -0.2524
 4550SOL    HW317967   5.918   0.446   3.941 -0.2296 -0.3062  0.5306
 4550SOL    MW417968   5.864   0.383   3.968  0.1432 -0.0639  0.0550
 4551SOL     OW17969   4.678   4.994   5.138 -0.2209  0.0707  0.5147
 4551SOL    HW217970   4.747   5.004   5.072 -0.5790  0.5793  0.2083
 4551SOL    HW317971   4.604   5.043   5.102 -0.8832 -0.8169  0.6433
 4551SOL    MW417972   4.678   5.002   5.124 -0.0741 -0.0324  0.1794
 4552SOL     OW17973   1.094   1.774   5.908 -0.1346  0.0402 -0.1968
 4552SOL    HW217974   1.174   1.827   5.903  0.9656 -1.4094  1.0016
 4552SOL    HW317975   1.103   1.709   5.839  0.1253 -0.6010  0.4212
 4552SOL    MW417976   1.106   1.773   5.899 -0.0895 -0.0757  0.1174
 4553SOL     OW17977   5.023   0.791   0.110 -0.6493  0.5485  0.5345
 4553SOL    HW217978   4.981   0.781   0.195 -0.0415  1.2360  0.9245
 4553SOL    HW317979   5.047   0.701   0.085 -0.6798  0.3603  1.1663
 4553SOL    MW417980   5.021   0.778   0.118  0.2308 -0.4627  0.4392
 4554SOL     OW17981   1.411   5.944   6.033 -0.1303  0.5217  0.1731
 4554SOL    HW217982   1.482   5.907   5.981 -2.0318 -0.9537 -1.5642
 4554SOL    HW317983   1.395   5.879   6.102 -1.0785 -0.1841 -0.6787
 4554SOL    MW417984   1.418   5.930   6.035  0.1079  0.5706 -0.0977
 4555SOL     OW17985   4.975   3.480   1.586  0.1438  0.0992 -0.0467
 4555SOL    HW217986   5.029   3.426   1.528  1.0456  2.3797 -1.4579
 4555SOL    HW317987   4.887   3.444   1.578  1.0590 -2.6814  1.0276
 4555SOL    MW417988   4.971   3.468   1.577 -0.0903 -0.2869  0.1399
 4556SOL     OW17989   4.436   5.622   4.225 -0.3582  0.0001 -0.4237
 4556SOL    HW217990   4.439   5.635   4.130 -0.4717  1.1402 -0.2882
 4556SOL    HW317991   4.520   5.583   4.247 -0.2076  0.0197 -0.9547
 4556SOL    MW417992   4.448   5.619   4.216  0.2278 -0.2521  0.0352
 4557SOL     OW17993   5.116   4.598   0.248 -0.1381 -0.0199  0.7761
 4557SOL    HW217994   5.103   4.504   0.260  0.8929 -0.1390  1.0289
 4557SOL    HW317995   5.027   4.633   0.241 -0.6422 -1.4614 -3.0220
 4557SOL    MW417996   5.103   4.590   0.248 -0.3604 -0.1642  0.0725
 4558SOL     OW17997   0.695   2.267   0.130  0.3305 -0.0477  0.9291
 4558SOL    HW217998   0.666   2.178   0.151  0.0893 -0.1171  0.3459
 4558SOL    HW317999   0.621   2.322   0.155  0.1327 -0.1068  0.4907
 4558SOL    MW418000   0.681   2.262   0.136  0.4972  0.1163 -0.2773
 4559SOL     OW18001   4.164   0.260   1.015 -0.2959 -0.1362  0.1184
 4559SOL    HW218002   4.145   0.241   1.107 -2.1506  1.3904  0.1176
 4559SOL    HW318003   4.153   0.355   1.007  0.7213 -0.1226 -1.4974
 4559SOL    MW418004   4.160   0.270   1.026  0.2187 -0.2340  0.0290
 4560SOL     OW18005   1.264   1.037   4.787  0.5235 -0.0192 -0.0478
 4560SOL    HW218006   1.247   1.032   4.693  2.2339  2.1370 -0.5601
 4560SOL    HW318007   1.359   1.045   4.794  0.5183 -0.9297  1.9505
 4560SOL    MW418008   1.274   1.037   4.776  0.4410  0.0022 -0.0690
 4561SOL     OW18009   0.660   5.491   6.035  0.5455  0.2604 -0.6817
 4561SOL    HW218010   0.567   5.508   6.049  0.1898 -1.2031 -1.1190
 4561SOL    HW318011   0.668   5.475   5.941  1.5625  2.0945 -0.9582
 4561SOL    MW418012   0.649   5.491   6.024 -0.3790 -0.2899 -1.5689
 4562SOL     OW18013   2.401   1.526   3.831 -0.2559 -0.2371  0.2780
 4562SOL    HW218014   2.404   1.473   3.751 -0.5822  0.4592 -0.2065
 4562SOL    HW318015   2.319   1.502   3.873 -2.2429  2.4041 -1.7610
 4562SOL    MW418016   2.391   1.516   3.826  0.1790 -0.6588 -0.0060
 4563SOL     OW18017   3.488   5.329   1.033 -0.2849  0.3056  0.2536
 4563SOL    HW218018   3.394   5.340   1.051 -0.1577  0.4096  0.8841
 4563SOL    HW318019   3.515   5.413   0.997 -0.1691  0.7245  1.2792
 4563SOL    MW418020   3.479   5.342   1.031 -0.7928  0.4711 -0.0095
 4564SOL     OW18021   2.656   3.697   4.733 -0.3007  0.0263 -0.0121
 4564SOL    HW218022   2.577   3.747   4.711  0.3415  1.3221  0.5168
 4564SOL    HW318023   2.688   3.738   4.814  2.0994  1.0016 -1.3623
 4564SOL    MW418024   2.649   3.709   4.741 -0.2065  0.2286  0.0793
 4565SOL     OW18025   4.179   4.170   4.547  0.4715 -0.0027 -0.1063
 4565SOL    HW218026   4.092   4.138   4.523  0.3524  0.0111  0.3104
 4565SOL    HW318027   4.211   4.107   4.612  0.4190  0.4691  0.3843
 4565SOL    MW418028   4.172   4.157   4.552 -1.0424  0.4565 -0.0126
 4566SOL     OW18029   4.504   5.912   6.129 -0.4410  0.3803 -0.0265
 4566SOL    HW218030   4.457   5.987   6.093 -0.6446  0.5838  0.6382
 4566SOL    HW318031   4.435   5.848   6.150 -0.4695  0.7570  1.1334
 4566SOL    MW418032   4.489   5.913   6.127 -0.5441 -0.8919  0.4295
 4567SOL     OW18033   4.697   3.836   0.651  0.1666 -0.5342 -0.2603
 4567SOL    HW218034   4.720   3.841   0.744  1.8790 -0.6765 -0.6425
 4567SOL    HW318035   4.634   3.765   0.645  0.3854 -0.8241  0.7395
 4567SOL    MW418036   4.692   3.828   0.663 -0.3466  0.1269  0.2482
 4568SOL     OW18037   1.381   4.538   4.026  0.4042 -0.0331  0.0822
 4568SOL    HW218038   1.398   4.541   3.932  1.6334 -1.0670  0.2563
 4568SOL    HW318039   1.345   4.451   4.041  1.5508 -0.4028  0.7692
 4568SOL    MW418040   1.378   4.527   4.015  0.2587  0.2711 -0.4142
 4569SOL     OW18041   1.924   5.237   4.614 -0.2060  0.0742  1.0715
 4569SOL    HW218042   1.873   5.314   4.641 -0.8894 -0.4077  1.2000
 4569SOL    HW318043   2.015   5.260   4.633 -0.5215  0.3461  2.3462
 4569SOL    MW418044   1.929   5.250   4.620 -0.2043  0.3072 -0.2312
 4570SOL     OW18045   3.513   4.669   3.483 -0.1222 -0.0501 -0.3579
 4570SOL    HW218046   3.457   4.727   3.535  0.1870  0.1462 -0.2420
 4570SOL    HW318047   3.596   4.715   3.478  0.0053 -0.3081 -0.5950
 4570SOL    MW418048   3.516   4.683   3.489 -0.3284  0.8700  0.0570
 4571SOL     OW18049   1.942   1.115   3.406 -0.9405  0.2919 -0.5067
 4571SOL    HW218050   1.921   1.034   3.453 -1.8460  0.6527 -0.2659
 4571SOL    HW318051   1.875   1.177   3.435 -0.7497  0.8857 -1.3133
 4571SOL    MW418052   1.930   1.112   3.416  0.0340  0.0974  0.2146
 4572SOL     OW18053   1.575   1.826   5.502  0.5749 -0.4737 -0.1670
 4572SOL    HW218054   1.547   1.885   5.432 -0.1060 -1.0127 -0.3495
 4572SOL    HW318055   1.671   1.831   5.500  0.6530 -1.7085 -2.2163
 4572SOL    MW418056   1.584   1.834   5.492  0.1873  0.4000 -0.3225
 4573SOL     OW18057   1.143   5.818   5.729 -0.1192  0.1060 -0.7307
 4573SOL    HW218058   1.223   5.766   5.719 -0.8481 -1.2012  0.0745
 4573SOL    HW318059   1.161   5.876   5.803  0.5323  0.7466 -1.3635
 4573SOL    MW418060   1.156   5.819   5.737 -0.9811 -0.8892  1.0748
 4574SOL     OW18061   2.697   3.409   5.979 -0.1930  0.3055 -0.5996
 4574SOL    HW218062   2.660   3.424   5.892 -0.4694 -0.3421 -0.5969
 4574SOL    HW318063   2.632   3.354   6.024 -0.6063  1.5644  0.4136
 4574SOL    MW418064   2.683   3.404   5.974 -0.1160  0.6959 -0.1486
 4575SOL     OW18065   1.148   0.684   3.976 -0.4962  0.4285  0.0644
 4575SOL    HW218066   1.159   0.773   4.010 -1.4611  0.8046 -0.5711
 4575SOL    HW318067   1.130   0.696   3.883 -0.1438 -0.4665 -0.1300
 4575SOL    MW418068   1.147   0.697   3.968  0.6218  0.4178 -0.2181
 4576SOL     OW18069   5.717   3.659   3.632  0.6475 -0.1124  0.9437
 4576SOL    HW218070   5.776   3.665   3.557 -1.6773 -0.6365 -1.0664
 4576SOL    HW318071   5.665   3.739   3.627 -0.7253 -0.9691  0.8531
 4576SOL    MW418072   5.718   3.670   3.621 -0.0457 -0.0753  0.3897
 4577SOL     OW18073   5.618   4.899   1.086  0.6412  0.0144 -0.4095
 4577SOL    HW218074   5.608   4.907   1.181 -1.2476 -1.9998 -0.3727
 4577SOL    HW318075   5.665   4.979   1.060  0.7843  0.8321  2.1269
 4577SOL    MW418076   5.623   4.911   1.095 -0.2413 -0.0055 -0.5891
 4578SOL     OW18077   4.056   1.545   6.350 -0.5458 -0.4974 -0.5038
 4578SOL    HW218078   4.078   1.471   6.407  1.6084  1.1604  0.9930
 4578SOL    HW318079   4.093   1.522   6.265  0.4508 -0.9896  0.0474
 4578SOL    MW418080   4.064   1.532   6.347  0.5950 -0.2301  0.2622
 4579SOL     OW18081   2.806   3.061   5.103 -0.2695 -0.1992  0.0633
 4579SOL    HW218082   2.838   3.025   5.021 -0.3389 -0.5371  0.1821
 4579SOL    HW318083   2.878   3.116   5.135  0.0014 -0.5592  0.0806
 4579SOL    MW418084   2.820   3.063   5.097 -0.2571  0.2000  0.2906
 4580SOL     OW18085   4.475   3.906   3.556  0.1338 -0.4036 -0.3042
 4580SOL    HW218086   4.512   3.984   3.514  1.7370 -0.6484  0.5371
 4580SOL    HW318087   4.427   3.862   3.487 -0.0030  0.8381 -1.0446
 4580SOL    MW418088   4.474   3.911   3.542 -0.0170  0.6990  0.1771
 4581SOL     OW18089   1.567   1.118   6.185 -0.1236  0.3566 -0.2176
 4581SOL    HW218090   1.625   1.046   6.209  1.3363  1.7633  0.6895
 4581SOL    HW318091   1.587   1.136   6.093 -2.1052 -1.7728 -1.1546
 4581SOL    MW418092   1.577   1.111   6.176 -0.0832 -0.3336 -0.2595
 4582SOL     OW18093   1.877   4.264   6.234 -0.5317  0.7097  0.4385
 4582SOL    HW218094   1.964   4.253   6.195 -0.8869  1.1627 -0.5141
 4582SOL    HW318095   1.856   4.178   6.270 -0.4855  0.0490 -1.0358
 4582SOL    MW418096   1.885   4.251   6.233  0.1049  0.5907 -0.2177
 4583SOL     OW18097   2.551   4.769   6.037 -0.1599 -0.1430 -0.2596
 4583SOL    HW218098   2.575   4.806   5.952 -1.8853 -1.2004 -1.2574
 4583SOL    HW318099   2.587   4.681   6.037 -1.0291 -0.5101 -0.3356
 4583SOL    MW418100   2.559   4.763   6.026  0.1278  0.1510  0.6929
 4584SOL     OW18101   6.283   5.023   4.669  0.2840 -0.3449 -0.3264
 4584SOL    HW218102   6.366   4.987   4.639 -0.0726  0.5861 -2.6690
 4584SOL    HW318103   6.308   5.098   4.723  0.9602 -2.1092  1.9450
 4584SOL    MW418104   6.297   5.029   4.672 -0.4863 -0.1891  0.1220
 4585SOL     OW18105   3.433   6.023   1.359 -0.3078  0.0014  0.3188
 4585SOL    HW218106   3.402   6.099   1.409  0.8100 -0.0746  1.1611
 4585SOL    HW318107   3.460   5.960   1.426  1.0151 -0.1937 -0.3783
 4585SOL    MW418108   3.432   6.025   1.375 -0.3046  0.1250 -0.2205
 4586SOL     OW18109   4.587   0.201   0.484 -0.2524 -0.6346  0.1184
 4586SOL    HW218110   4.526   0.127   0.477  0.1422 -0.9446 -0.0727
 4586SOL    HW318111   4.636   0.199   0.402 -1.7232  1.1616 -0.8733
 4586SOL    MW418112   4.585   0.191   0.472 -0.3787  0.6197 -0.6331
 4587SOL     OW18113   2.158   1.311   1.924  0.9104  0.3351  0.0699
 4587SOL    HW218114   2.145   1.403   1.900 -1.2632  0.1098  0.2105
 4587SOL    HW318115   2.093   1.263   1.872  1.4538 -1.0410  0.6132
 4587SOL    MW418116   2.148   1.317   1.914 -0.4846 -0.2927  0.6108
 4588SOL     OW18117   1.913   3.346   2.423 -0.0930  0.0250 -0.2210
 4588SOL    HW218118   1.851   3.377   2.488  1.3688  0.0477  1.2391
 4588SOL    HW318119   1.885   3.386   2.341 -1.2816  0.9742  0.6273
 4588SOL    MW418120   1.901   3.355   2.421 -0.6708 -0.2955 -0.0929
 4589SOL     OW18121   3.841   3.292   0.706 -0.6706 -0.0571 -0.2394
 4589SOL    HW218122   3.866   3.305   0.797 -0.7075  1.6680 -0.4396
 4589SOL    HW318123   3.850   3.379   0.666 -0.5180 -0.8011 -1.9127
 4589SOL    MW418124   3.845   3.306   0.713 -0.4359  0.5611  0.0099
 4590SOL     OW18125   3.683   4.106   1.283  0.4554  0.2115  0.4541
 4590SOL    HW218126   3.622   4.060   1.341  0.1234  1.1466  0.8629
 4590SOL    HW318127   3.746   4.039   1.258 -0.1252 -0.5180  0.8815
 4590SOL    MW418128   3.683   4.091   1.287  0.0009 -0.5387  0.1126
 4591SOL     OW18129   2.935   1.686   1.977  0.0842  0.1474  0.2713
 4591SOL    HW218130   2.900   1.683   1.888 -1.1297  1.8824  0.6353
 4591SOL    HW318131   2.990   1.763   1.979  1.2914 -0.6962  0.6540
 4591SOL    MW418132   2.938   1.695   1.966  0.4360  0.2069 -0.3626
 4592SOL     OW18133   0.903   6.060   5.305  0.2098  0.5370 -0.3002
 4592SOL    HW218134   0.919   6.145   5.263  1.0609 -0.0864 -1.2997
 4592SOL    HW318135   0.811   6.063   5.331  0.7692  2.6078  1.7306
 4592SOL    MW418136   0.893   6.072   5.303  0.0803 -0.2216  0.0184
 4593SOL     OW18137   5.588   3.717   3.247 -0.5239 -0.2259  0.4825
 4593SOL    HW218138   5.502   3.683   3.223  0.1101 -1.1299 -0.5884
 4593SOL    HW318139   5.645   3.640   3.247  0.4239  0.4632  0.5218
 4593SOL    MW418140   5.584   3.702   3.244 -0.4319 -0.3376 -0.5784
 4594SOL     OW18141   2.044   1.451   1.029  1.0389  0.2510  0.1631
 4594SOL    HW218142   2.126   1.402   1.028  0.3476 -1.0180  1.6947
 4594SOL    HW318143   1.997   1.422   0.951  1.9187  0.8073 -0.5927
 4594SOL    MW418144   2.048   1.441   1.018 -0.5726 -0.4116 -0.6701
 4595SOL     OW18145   5.646   0.103   1.505 -0.6003  0.2009 -0.3978
 4595SOL    HW218146   5.669   0.012   1.524 -1.0536  0.2246  0.3212
 4595SOL    HW318147   5.553   0.109   1.528 -0.4496  0.9647  0.0420
 4595SOL    MW418148   5.636   0.091   1.510 -0.0258 -0.1897  0.5695
 4596SOL     OW18149   1.121   5.983   4.609 -0.6161  0.3450 -0.0929
 4596SOL    HW218150   1.199   5.933   4.633 -0.6009 -1.2964 -3.0033
 4596SOL    HW318151   1.152   6.047   4.544 -1.5034  0.4006 -0.4814
 4596SOL    MW418152   1.136   5.985   4.603  0.4112 -0.2504 -0.6093
 4597SOL     OW18153   1.349   5.021   6.401  0.4906  0.0777 -0.3852
 4597SOL    HW218154   1.390   4.996   6.484  1.1315  1.1459 -0.3594
 4597SOL    HW318155   1.409   4.988   6.334  1.4311  1.6113 -0.3480
 4597SOL    MW418156   1.363   5.013   6.403 -0.1723  0.0607 -0.0621
 4598SOL     OW18157   0.594   2.125   4.966 -0.2583  0.0543  0.4129
 4598SOL    HW218158   0.523   2.180   4.999 -1.8084 -2.1383  0.9919
 4598SOL    HW318159   0.666   2.138   5.027 -1.3156 -0.0957  1.7257
 4598SOL    MW418160   0.594   2.134   4.978  0.3871  0.2958  0.1110
 4599SOL     OW18161   2.695   4.055   1.430  0.3746 -0.4035 -0.7868
 4599SOL    HW218162   2.769   4.113   1.410  1.9141 -2.0136 -0.0675
 4599SOL    HW318163   2.659   4.089   1.512  1.8429 -0.9712  0.1192
 4599SOL    MW418164   2.700   4.067   1.438  0.0946  0.2286  0.2936
 4600SOL     OW18165   3.690   1.677   1.312  0.4690  0.5163  0.1342
 4600SOL    HW218166   3.676   1.621   1.388 -0.7345 -1.8663 -1.7014
 4600SOL    HW318167   3.653   1.762   1.336  0.8611  0.0902  2.4394
 4600SOL    MW418168   3.684   1.681   1.325  0.2394  0.5069 -0.2996
 4601SOL     OW18169   2.086   4.161   1.607  0.2087  0.4533  0.3540
 4601SOL    HW218170   2.110   4.234   1.551 -1.2976  1.8290  1.4132
 4601SOL    HW318171   2.131   4.177   1.689  0.7282 -0.4291  0.2635
 4601SOL    MW418172   2.095   4.173   1.610  0.2297  0.0148  0.5268
 4602SOL     OW18173   6.057   2.756   3.206 -0.3641  0.2645  0.3119
 4602SOL    HW218174   6.063   2.674   3.254 -0.0734  0.6412  0.9272
 4602SOL    HW318175   6.134   2.806   3.232  0.1841  0.2041 -1.0868
 4602SOL    MW418176   6.068   2.752   3.215 -0.2034 -0.1781  0.3478
 4603SOL     OW18177   0.143   2.202   1.826  0.3353  0.3309 -0.2348
 4603SOL    HW218178   0.148   2.281   1.772  3.2181  0.6227  0.2819
 4603SOL    HW318179   0.164   2.231   1.914 -0.8674 -0.6947  0.4235
 4603SOL    MW418180   0.146   2.216   1.830  0.1247  0.2124  0.1935
 4604SOL     OW18181   2.445   0.109   4.163 -0.3105  0.3828 -0.1847
 4604SOL    HW218182   2.534   0.079   4.142  0.1593  0.5902  1.4117
 4604SOL    HW318183   2.456   0.163   4.241 -1.5847  2.0323 -1.0684
 4604SOL    MW418184   2.459   0.112   4.170 -0.1544 -0.6092  0.4868
 4605SOL     OW18185   4.132   6.255   3.696 -0.1164 -0.0315 -0.1358
 4605SOL    HW218186   4.161   6.216   3.613 -1.7078 -0.3495 -0.5714
 4605SOL    HW318187   4.185   6.211   3.762  1.4107  0.4587 -0.9841
 4605SOL    MW418188   4.143   6.244   3.694  0.4442 -0.4645  0.7967
 4606SOL     OW18189   1.636   4.612   0.048 -0.5658  0.0371  0.5014
 4606SOL    HW218190   1.562   4.614  -0.013 -1.1114  1.7602  1.1496
 4606SOL    HW318191   1.705   4.565   0.001 -2.1032 -1.7924 -0.0476
 4606SOL    MW418192   1.635   4.606   0.034  0.3101  0.1060 -0.2711
 4607SOL     OW18193   5.591   2.814   1.834  0.3878 -0.3852  0.4730
 4607SOL    HW218194   5.616   2.788   1.923 -1.5074 -0.6492  0.9740
 4607SOL    HW318195   5.615   2.739   1.780 -1.3606 -1.6069  1.2912
 4607SOL    MW418196   5.597   2.801   1.839 -0.3807  0.4205 -0.4801
 4608SOL     OW18197   0.805   5.392   2.298 -0.5313  0.1931 -0.3919
 4608SOL    HW218198   0.775   5.311   2.256 -0.9012  0.2422 -0.2237
 4608SOL    HW318199   0.799   5.374   2.392  1.2296 -0.2662 -0.3305
 4608SOL    MW418200   0.800   5.379   2.305 -0.1951 -0.3247  0.0296
 4609SOL     OW18201   1.721   2.503   5.381 -0.4080 -0.4762 -0.1376
 4609SOL    HW218202   1.692   2.582   5.427 -1.1118  1.0212 -2.8990
 4609SOL    HW318203   1.800   2.475   5.427 -1.5959  0.2572  2.5082
 4609SOL    MW418204   1.728   2.510   5.393  0.1814  0.0377 -0.0860
 4610SOL     OW18205   0.251   4.703   4.734 -0.3637 -0.5043  0.5842
 4610SOL    HW218206   0.169   4.752   4.728 -0.3218 -0.6170 -1.6382
 4610SOL    HW318207   0.266   4.694   4.828 -2.2180  0.6323  1.0507
 4610SOL    MW418208   0.242   4.708   4.746  0.0921  0.7295  0.1864
 4611SOL     OW18209   3.415   3.886   0.140 -0.2711 -0.2426 -0.4817
 4611SOL    HW218210   3.341   3.825   0.133 -0.0166 -0.5905 -0.1494
 4611SOL    HW318211   3.476   3.858   0.072  0.5171 -1.2939  0.6342
 4611SOL    MW418212   3.413   3.875   0.130  0.0220 -0.1148  0.1947
 4612SOL     OW18213   0.666   1.947   3.796  0.9575  0.4500  0.1066
 4612SOL    HW218214   0.598   1.882   3.777  1.4864  0.1939 -0.9668
 4612SOL    HW318215   0.739   1.923   3.738  1.5846  1.3219  0.5219
 4612SOL    MW418216   0.667   1.935   3.786  0.5010 -0.0844  0.3938
 4613SOL     OW18217   5.230   0.320   2.983  0.0621 -0.1859  0.0203
 4613SOL    HW218218   5.235   0.235   3.026  1.2111 -0.8266 -1.3297
 4613SOL    HW318219   5.193   0.378   3.050  0.9342 -1.3352  1.5579
 4613SOL    MW418220   5.226   0.317   2.998 -0.9160 -0.1276  0.1171
 4614SOL     OW18221   0.408   3.902   0.340 -0.4495  0.3863 -0.7816
 4614SOL    HW218222   0.333   3.885   0.396  1.5539  1.5950  2.6163
 4614SOL    HW318223   0.400   3.995   0.317 -0.2947  0.3761 -0.8762
 4614SOL    MW418224   0.397   3.912   0.345 -0.4832  0.2667 -0.5771
 4615SOL     OW18225   0.279   1.684   0.091 -0.4508  0.0770  0.3090
 4615SOL    HW218226   0.237   1.766   0.114 -0.8864  0.4422 -1.6296
 4615SOL    HW318227   0.332   1.662   0.168 -0.1270  2.2793  0.7798
 4615SOL    MW418228   0.281   1.692   0.104 -0.5529 -0.1294  0.0198
 4616SOL     OW18229   6.174   4.572   6.386  0.1599  0.5304  0.0504
 4616SOL    HW218230   6.114   4.599   6.456  1.4525  0.4610  1.2286
 4616SOL    HW318231   6.152   4.481   6.370  0.2085  0.3808  0.7781
 4616SOL    MW418232   6.163   4.564   6.393  0.9636 -0.3749 -0.0317
 4617SOL     OW18233   0.791   5.364   1.656  0.4339 -0.0768 -0.1432
 4617SOL    HW218234   0.870   5.313   1.640 -0.2716 -0.6560 -2.1342
 4617SOL    HW318235   0.819   5.455   1.645  0.6618 -0.3234 -1.8589
 4617SOL    MW418236   0.805   5.370   1.652  0.5321 -0.2181 -0.0622
 4618SOL     OW18237   2.998   0.391   0.132 -0.3551 -0.3318 -0.4085
 4618SOL    HW218238   3.091   0.407   0.151 -0.2040 -0.2086 -1.2392
 4618SOL    HW318239   2.996   0.306   0.089 -0.8206 -1.1267  1.0877
 4618SOL    MW418240   3.010   0.382   0.129 -0.6075  0.1352  0.0652
 4619SOL     OW18241   5.523   0.820   0.575  0.7057 -0.0481 -0.4116
 4619SOL    HW218242   5.482   0.894   0.530 -2.7280 -0.5551  1.5516
 4619SOL    HW318243   5.485   0.742   0.532  0.6832 -0.5773  0.5475
 4619SOL    MW418244   5.513   0.819   0.563  0.2634 -0.2965 -0.2984
 4620SOL     OW18245   5.211   3.558   0.286  0.2537 -0.2636 -0.2468
 4620SOL    HW218246   5.150   3.515   0.226  1.2023 -0.7678 -0.8763
 4620SOL    HW318247   5.298   3.531   0.255  0.7757 -0.2016  1.1091
 4620SOL    MW418248   5.215   3.548   0.274  0.3516  0.2932  0.4431
 4621SOL     OW18249   2.763   3.112   0.159 -0.0893 -0.1619  0.1055
 4621SOL    HW218250   2.667   3.116   0.157 -0.0971  1.8921  1.3791
 4621SOL    HW318251   2.785   3.030   0.114 -2.4540 -0.9890  0.3153
 4621SOL    MW418252   2.753   3.102   0.153 -0.3946  0.0728 -0.0285
 4622SOL     OW18253   5.048   1.148   3.097 -0.6063 -0.5365  0.1054
 4622SOL    HW218254   4.965   1.143   3.144 -0.7338  2.7974  0.4547
 4622SOL    HW318255   5.113   1.119   3.161 -1.1740  0.0123  0.9532
 4622SOL    MW418256   5.046   1.143   3.112  0.3992  0.5738  0.1354
 4623SOL     OW18257   4.564   2.973   3.785  0.2733 -0.1529 -0.2649
 4623SOL    HW218258   4.586   2.983   3.877 -1.3140 -0.1752  0.1355
 4623SOL    HW318259   4.520   2.888   3.780  0.3176 -0.1393 -1.0416
 4623SOL    MW418260   4.561   2.963   3.796  0.3499 -0.2797  0.6072
 4624SOL     OW18261   2.540   3.380   2.487  0.0896  0.6478  0.2206
 4624SOL    HW218262   2.610   3.437   2.519  0.4564 -0.3005  1.2006
 4624SOL    HW318263   2.515   3.329   2.564 -1.3223  0.6034 -0.2544
 4624SOL    MW418264   2.546   3.381   2.502 -0.2521 -0.7217  0.0056
 4625SOL     OW18265   1.161   3.957   3.645 -0.2833  0.0158 -0.0222
 4625SOL    HW218266   1.095   4.015   3.606 -0.3749 -0.1174 -0.0657
 4625SOL    HW318267   1.187   3.899   3.573 -0.7500 -0.4983  0.2153
 4625SOL    MW418268   1.156   3.957   3.630 -0.1319  0.1939  0.5339
 4626SOL     OW18269   4.191   3.220   3.515 -0.8142  0.5310 -0.4000
 4626SOL    HW218270   4.177   3.314   3.524 -1.2008  0.3868  0.8055
 4626SOL    HW318271   4.277   3.211   3.474 -1.2167  1.4047 -1.4770
 4626SOL    MW418272   4.200   3.231   3.511 -0.0452 -0.0980  0.0035
 4627SOL     OW18273   0.080   5.101   4.339  0.4752 -0.0863  0.1680
 4627SOL    HW218274   0.167   5.123   4.304  0.6369 -0.5977  0.2393
 4627SOL    HW318275   0.037   5.054   4.268  0.7459 -0.9886  0.5860
 4627SOL    MW418276   0.086   5.098   4.325 -0.1222  0.1239  0.3109
 4628SOL     OW18277   4.943   3.808   1.793  0.0581 -0.2528 -0.1466
 4628SOL    HW218278   4.849   3.814   1.810  0.0651 -0.5371 -0.0145
 4628SOL    HW318279   4.982   3.790   1.879  0.3388  0.9663  0.0033
 4628SOL    MW418280   4.936   3.807   1.807  0.1367  0.2820  0.1128
 4629SOL     OW18281   0.334   5.128   2.130  0.3718 -0.0166  0.1276
 4629SOL    HW218282   0.342   5.034   2.144  0.1042  0.1189  1.2962
 4629SOL    HW318283   0.405   5.167   2.182  3.3749  0.2660 -3.7741
 4629SOL    MW418284   0.345   5.121   2.139  0.1765  0.1112  0.3088
 4630SOL     OW18285   1.222   3.823   3.413  0.1156 -0.1263  0.0471
 4630SOL    HW218286   1.299   3.792   3.365  1.3462  1.0524  1.1547
 4630SOL    HW318287   1.196   3.903   3.366  0.5549  0.3430  0.5913
 4630SOL    MW418288   1.229   3.830   3.400 -0.4295  0.3028 -0.3891
 4631SOL     OW18289   3.660   1.342   5.510 -0.1781  0.1072 -0.1727
 4631SOL    HW218290   3.644   1.272   5.574  0.9843  0.3069  0.3737
 4631SOL    HW318291   3.750   1.369   5.527 -0.4305  1.3762 -0.7337
 4631SOL    MW418292   3.670   1.336   5.521 -0.2064  0.1390  0.8255
 4632SOL     OW18293   6.384   4.776   3.227 -0.2660  0.6687 -0.2880
 4632SOL    HW218294   6.441   4.836   3.179 -1.4787  1.1988 -1.1074
 4632SOL    HW318295   6.366   4.820   3.310  1.4754 -0.0525  0.5307
 4632SOL    MW418296   6.389   4.790   3.231 -0.6639 -0.3204  0.0248
 4633SOL     OW18297   1.741   3.238   1.498 -0.7483 -0.2989  0.0889
 4633SOL    HW218298   1.762   3.151   1.462  1.7690  0.0564  0.5423
 4633SOL    HW318299   1.700   3.220   1.582  1.8550 -1.1151  1.2707
 4633SOL    MW418300   1.738   3.224   1.504  0.3904  0.6169 -0.9950
 4634SOL     OW18301   2.752   2.166   2.245 -0.2897  0.4085  0.0386
 4634SOL    HW218302   2.684   2.177   2.312  0.6976  0.8136  0.9979
 4634SOL    HW318303   2.703   2.155   2.164 -1.5440 -1.1814  0.9444
 4634SOL    MW418304   2.737   2.166   2.243 -0.2169  0.2577  0.1331
 4635SOL     OW18305   2.114   1.240   3.237  0.4276  0.1113  0.5643
 4635SOL    HW218306   2.066   1.321   3.218  1.4780  1.3706  2.8341
 4635SOL    HW318307   2.046   1.179   3.267 -0.3744  0.0757 -1.1563
 4635SOL    MW418308   2.098   1.243   3.238 -0.8198 -0.6070 -0.5566
 4636SOL     OW18309   4.001   6.373   0.517  0.3455 -0.1757  0.1261
 4636SOL    HW218310   4.022   6.384   0.424  0.4229  1.5770  0.3273
 4636SOL    HW318311   3.927   6.312   0.517  0.5309 -0.4308 -1.0599
 4636SOL    MW418312   3.994   6.366   0.505 -0.2033 -0.3477 -0.5977
 4637SOL     OW18313   3.794   5.075   4.604  0.4044 -0.0399  0.2180
 4637SOL    HW218314   3.703   5.082   4.634  0.1862 -0.0223 -0.4459
 4637SOL    HW318315   3.843   5.128   4.667  0.0775 -0.7325  1.0891
 4637SOL    MW418316   3.788   5.083   4.616  0.4324 -0.4247 -0.5849
 4638SOL     OW18317   2.043   0.963   5.289 -0.4140  0.0271  0.2515
 4638SOL    HW218318   1.975   1.005   5.235 -0.1513  0.0192 -0.0916
 4638SOL    HW318319   2.108   0.932   5.225 -0.0438  0.1151  0.5849
 4638SOL    MW418320   2.042   0.964   5.273 -1.0755 -0.0952 -0.0136
 4639SOL     OW18321   2.290   4.825   6.041  0.4115  0.4390  0.2492
 4639SOL    HW218322   2.269   4.732   6.034  2.9155 -0.1663  0.0122
 4639SOL    HW318323   2.380   4.832   6.012  0.2638  2.9864  0.1827
 4639SOL    MW418324   2.299   4.814   6.036 -0.0881  0.1373  0.0992
 4640SOL     OW18325   1.585   3.149   5.105 -0.1475 -0.6640 -0.2449
 4640SOL    HW218326   1.581   3.166   5.011  2.7343  1.0939 -0.1838
 4640SOL    HW318327   1.676   3.122   5.120 -0.6628 -1.3324  1.9857
 4640SOL    MW418328   1.597   3.148   5.094  0.1524 -0.2795  0.5788
 4641SOL     OW18329   2.290   4.128   5.266 -0.0472  0.3133  0.7741
 4641SOL    HW218330   2.295   4.216   5.228 -0.8020 -0.0378 -0.1907
 4641SOL    HW318331   2.300   4.069   5.191  2.0611 -0.4789  1.6035
 4641SOL    MW418332   2.292   4.132   5.251  0.1690  0.1784 -0.3652
 4642SOL     OW18333   3.899   2.067   0.906 -0.4822 -0.1388  0.2963
 4642SOL    HW218334   3.913   1.973   0.890  2.2460  0.1189  0.6438
 4642SOL    HW318335   3.900   2.106   0.819  1.4119 -0.1572  0.2659
 4642SOL    MW418336   3.901   2.060   0.893 -0.1709  0.0308 -0.1687
 4643SOL     OW18337   5.787   2.431   0.143 -0.3806  0.0844  0.5297
 4643SOL    HW218338   5.816   2.342   0.127 -2.0605 -0.7620  1.9098
 4643SOL    HW318339   5.696   2.433   0.112  0.0211  1.7375 -0.7378
 4643SOL    MW418340   5.779   2.420   0.137 -0.3581  0.0565 -0.7579
 4644SOL     OW18341   0.767   2.862   0.947  0.3721  0.2813  0.6248
 4644SOL    HW218342   0.725   2.947   0.934 -1.1923 -0.3779  1.0720
 4644SOL    HW318343   0.817   2.847   0.867  0.0804  1.3098  0.2398
 4644SOL    MW418344   0.768   2.871   0.935 -0.0756 -0.4373  0.2864
 4645SOL     OW18345   6.039   5.256   4.708  0.1190  0.5756  0.3398
 4645SOL    HW218346   6.057   5.167   4.678 -0.3253  0.7129 -0.3468
 4645SOL    HW318347   6.121   5.304   4.692  0.2034  0.4114  0.2764
 4645SOL    MW418348   6.053   5.251   4.702 -0.4357  0.0768  0.0446
 4646SOL     OW18349   3.309   4.749   4.022 -0.5359 -0.1636  0.7155
 4646SOL    HW218350   3.221   4.753   4.061 -0.9869 -0.6017 -0.2089
 4646SOL    HW318351   3.301   4.682   3.954  0.0941  0.8769 -0.4182
 4646SOL    MW418352   3.296   4.741   4.018  0.2915 -1.0018 -0.1075
 4647SOL     OW18353   3.500   0.757   0.024  0.2280 -0.1487 -0.1548
 4647SOL    HW218354   3.437   0.728   0.091  3.0144 -0.5654  2.4848
 4647SOL    HW318355   3.548   0.828   0.065  0.7012  1.0557 -2.5825
 4647SOL    MW418356   3.498   0.762   0.038 -0.4164 -0.1682  0.0536
 4648SOL     OW18357   5.190   3.757   3.016 -0.7984  0.3951 -0.1574
 4648SOL    HW218358   5.223   3.705   2.943  0.2544  1.2087 -0.2855
 4648SOL    HW318359   5.238   3.725   3.093 -1.6320 -0.2059  0.1183
 4648SOL    MW418360   5.201   3.746   3.017 -0.5339  0.1919  0.2264
 4649SOL     OW18361   4.844   3.269   4.542 -0.3006  0.5735  0.3031
 4649SOL    HW218362   4.771   3.286   4.482 -0.7197 -0.6663  0.4220
 4649SOL    HW318363   4.870   3.179   4.522  0.9224  0.8501  0.5689
 4649SOL    MW418364   4.838   3.259   4.531  0.2059 -0.1159 -0.5121
 4650SOL     OW18365   2.961   5.764   4.488 -0.1232 -0.5957 -0.4300
 4650SOL    HW218366   2.871   5.796   4.502 -0.0012 -0.5272  0.2189
 4650SOL    HW318367   2.950   5.674   4.457 -0.3998 -0.9716  0.7154
 4650SOL    MW418368   2.947   5.756   4.485 -0.0123  0.2590  0.1723
 4651SOL     OW18369   0.512   2.097   1.128 -0.1917  0.3125 -0.2692
 4651SOL    HW218370   0.467   2.120   1.209 -0.8505  3.3565 -1.3800
 4651SOL    HW318371   0.444   2.060   1.072  0.2942 -1.9410  0.5067
 4651SOL    MW418372   0.497   2.095   1.131 -0.0468  0.3964 -0.2304
 4652SOL     OW18373   3.913   2.171   4.562 -0.0643 -0.0848  0.2102
 4652SOL    HW218374   3.920   2.137   4.473  0.3083  0.0478  0.1894
 4652SOL    HW318375   3.896   2.264   4.551 -0.9804 -0.2419  0.2698
 4652SOL    MW418376   3.912   2.179   4.549  0.0815 -0.1056  0.1783
 4653SOL     OW18377   0.766   6.378   2.604  0.3690 -0.2643  0.1573
 4653SOL    HW218378   0.715   6.297   2.596 -0.7705  0.3022  1.2578
 4653SOL    HW318379   0.727   6.437   2.539 -0.1906  0.0773  0.8015
 4653SOL    MW418380   0.754   6.375   2.594 -0.2391  0.4778  0.3370
 4654SOL     OW18381   2.415   3.077   0.673  0.2361  0.1119  0.0249
 4654SOL    HW218382   2.369   3.062   0.591 -2.2294  0.3911  1.2695
 4654SOL    HW318383   2.490   3.131   0.649 -0.5715  0.3958 -2.0100
 4654SOL    MW418384   2.419   3.082   0.659 -0.4017 -0.5421 -0.8343
 4655SOL     OW18385   1.385   3.630   3.276 -0.9386  0.0277 -0.2183
 4655SOL    HW218386   1.327   3.556   3.255 -0.0109 -1.1385  1.1158
 4655SOL    HW318387   1.470   3.605   3.242 -0.5408  0.3282  0.5339
 4655SOL    MW418388   1.388   3.617   3.269  0.2515 -0.5211  0.1349
 4656SOL     OW18389   2.512   6.222   4.963  0.0247 -0.1298 -0.0122
 4656SOL    HW218390   2.593   6.174   4.980  1.0281  0.9976 -1.3830
 4656SOL    HW318391   2.540   6.313   4.955 -1.3966  0.2841 -0.5057
 4656SOL    MW418392   2.526   6.228   4.964  0.0244  0.1610  0.2309
 4657SOL     OW18393   4.595   3.026   3.105 -0.4477  0.3543  0.3026
 4657SOL    HW218394   4.525   2.967   3.077 -1.1094  0.7878  1.0024
 4657SOL    HW318395   4.674   2.972   3.104 -0.8211 -0.1973 -0.2971
 4657SOL    MW418396   4.596   3.011   3.101 -0.3994  0.1187 -0.4334
 4658SOL     OW18397   6.253   4.794   4.281 -0.1369 -0.4783 -0.1176
 4658SOL    HW218398   6.176   4.851   4.291 -0.2466 -0.4743 -0.9143
 4658SOL    HW318399   6.284   4.780   4.371 -1.7661 -1.4574  0.3475
 4658SOL    MW418400   6.247   4.800   4.295 -0.2389  0.3586  0.0206
 4659SOL     OW18401   1.165   6.242   2.432  0.6606  0.4450 -0.3743
 4659SOL    HW218402   1.117   6.293   2.498  0.7961  0.0063  0.0677
 4659SOL    HW318403   1.227   6.189   2.483  2.3620  1.7444 -0.9659
 4659SOL    MW418404   1.167   6.242   2.447  0.4394  0.0508 -0.3283
 4660SOL     OW18405   2.367   0.812   6.075 -0.1114 -0.1331  0.0984
 4660SOL    HW218406   2.443   0.755   6.091  0.0128  0.0715  0.2490
 4660SOL    HW318407   2.348   0.850   6.161  0.0809  0.3885 -0.0864
 4660SOL    MW418408   2.375   0.810   6.089  0.1196  0.3483  0.6590
 4661SOL     OW18409   4.831   1.159   4.752 -0.1914 -0.3727 -0.3743
 4661SOL    HW218410   4.926   1.169   4.758 -0.3915  0.9664  0.8909
 4661SOL    HW318411   4.796   1.216   4.820 -1.9757  0.3732 -1.8378
 4661SOL    MW418412   4.839   1.168   4.762  0.3087 -0.2561 -0.0323
 4662SOL     OW18413   3.559   2.736   3.154 -0.2108  0.5682  0.5916
 4662SOL    HW218414   3.506   2.779   3.086 -1.1122 -0.4499  0.6277
 4662SOL    HW318415   3.632   2.796   3.168  0.0447  0.7730 -1.3462
 4662SOL    MW418416   3.561   2.750   3.147 -0.7856 -0.1503  0.2880
 4663SOL     OW18417   6.048   0.767   5.367 -0.0883 -0.7677 -0.5387
 4663SOL    HW218418   5.984   0.740   5.434 -1.2387  2.3441 -0.2393
 4663SOL    HW318419   6.123   0.799   5.417 -0.8869  1.4184 -0.6529
 4663SOL    MW418420   6.049   0.767   5.383 -0.1441 -0.1414 -0.5754
 4664SOL     OW18421   5.923   5.678   3.841  0.6664 -0.3994  0.0335
 4664SOL    HW218422   5.850   5.725   3.800  0.4081 -1.9885 -1.4246
 4664SOL    HW318423   6.001   5.731   3.819  0.2761 -0.1326 -0.7385
 4664SOL    MW418424   5.924   5.691   3.832 -0.1090  0.0543  0.3658
 4665SOL     OW18425   5.573   4.059   6.145 -0.5574  0.1854  0.0303
 4665SOL    HW218426   5.548   4.038   6.056 -0.9385 -1.9010  0.5761
 4665SOL    HW318427   5.633   3.989   6.171  0.6321  1.4882  0.9712
 4665SOL    MW418428   5.578   4.047   6.137 -0.7188  0.3782  0.0543
 4666SOL     OW18429   2.961   2.511   1.437 -0.1347 -0.0425 -0.0789
 4666SOL    HW218430   3.041   2.461   1.454  0.1313  0.6143  0.6026
 4666SOL    HW318431   2.919   2.463   1.364  0.4022 -0.9212  0.1684
 4666SOL    MW418432   2.966   2.498   1.429 -0.2633  0.2051  0.1754
 4667SOL     OW18433   5.128   2.983   0.760 -0.1692 -0.2824 -0.0655
 4667SOL    HW218434   5.113   2.956   0.851 -0.4743  2.4953  0.7901
 4667SOL    HW318435   5.089   2.913   0.708 -1.3902 -1.2021  1.9527
 4667SOL    MW418436   5.121   2.970   0.765  0.3247 -0.4437 -0.5397
 4668SOL     OW18437   3.749   3.557   0.978 -0.0720 -0.5003 -0.7333
 4668SOL    HW218438   3.751   3.560   0.882  1.5564  1.0710 -0.7073
 4668SOL    HW318439   3.663   3.591   1.001 -0.1683 -0.0940 -1.6356
 4668SOL    MW418440   3.738   3.562   0.968 -0.2216  0.3569  0.0306
 4669SOL     OW18441   1.754   1.996   1.162 -0.7976  0.8529 -0.1073
 4669SOL    HW218442   1.731   1.964   1.075 -0.0892  0.8500 -0.3020
 4669SOL    HW318443   1.822   1.935   1.192 -1.3255  0.6048  0.6244
 4669SOL    MW418444   1.760   1.983   1.155 -0.6299  0.4722 -0.2832
 4670SOL     OW18445   1.409   2.530   6.019  0.6042  0.0891 -0.3006
 4670SOL    HW218446   1.460   2.584   5.959  0.5970  0.0778 -0.3167
 4670SOL    HW318447   1.415   2.575   6.103  2.8084 -1.2404  0.3290
 4670SOL    MW418448   1.417   2.543   6.022  0.2662 -0.8435 -0.1478
 4671SOL     OW18449   2.984   3.579   4.611  0.1556  0.1958  0.0358
 4671SOL    HW218450   3.004   3.670   4.591  1.5097  0.2124  1.2555
 4671SOL    HW318451   2.971   3.578   4.706  1.0785 -1.0048  0.1812
 4671SOL    MW418452   2.985   3.591   4.621  0.0089 -0.3088 -0.0192
 4672SOL     OW18453   5.618   5.895   4.056 -0.2104  0.2718  0.2852
 4672SOL    HW218454   5.643   5.811   4.096  0.3722  0.2480 -0.1190
 4672SOL    HW318455   5.529   5.911   4.088  0.4353  0.5449  2.1031
 4672SOL    MW418456   5.609   5.886   4.066 -0.5712 -0.2314  0.2065
 4673SOL     OW18457   6.103   2.765   4.529  0.4455  0.6117  0.6518
 4673SOL    HW218458   6.121   2.686   4.478  0.1449  1.3208 -0.5870
 4673SOL    HW318459   6.116   2.738   4.620  0.3247 -0.8727  0.2569
 4673SOL    MW418460   6.107   2.751   4.534  0.1256 -0.3451 -0.1041
 4674SOL     OW18461   4.602   4.168   0.113  0.1731 -0.2931 -0.9104
 4674SOL    HW218462   4.582   4.120   0.194  0.1486 -1.4827 -1.6024
 4674SOL    HW318463   4.659   4.239   0.141 -0.4596 -0.2194  0.2684
 4674SOL    MW418464   4.607   4.171   0.128 -0.1052  0.1962  0.3546
 4675SOL     OW18465   0.353   0.734   4.433 -0.3741  0.8188 -0.2045
 4675SOL    HW218466   0.314   0.676   4.499  0.7535 -0.5318 -0.6560
 4675SOL    HW318467   0.302   0.717   4.354 -0.7691  1.3126 -0.0597
 4675SOL    MW418468   0.341   0.724   4.432  0.2054  0.4157 -0.0449
 4676SOL     OW18469   0.873   2.476   0.561  0.4510  0.4268 -0.1528
 4676SOL    HW218470   0.883   2.412   0.491 -1.6260 -0.6968  0.5035
 4676SOL    HW318471   0.843   2.425   0.637 -2.4642  2.2342  0.0780
 4676SOL    MW418472   0.871   2.461   0.562  0.5152  0.2726  0.1684
 4677SOL     OW18473   5.305   1.095   3.227  0.2840  0.3335 -0.6355
 4677SOL    HW218474   5.292   1.002   3.247 -2.8584  0.2450 -2.4818
 4677SOL    HW318475   5.297   1.139   3.311  0.2574 -0.9445  0.0615
 4677SOL    MW418476   5.302   1.089   3.240  0.3625  0.4132  0.0979
 4678SOL     OW18477   5.091   0.050   1.162  0.0167 -0.6639  0.2948
 4678SOL    HW218478   5.110   0.024   1.252 -1.0545 -1.2255  0.3757
 4678SOL    HW318479   5.046   0.134   1.172  0.3597 -0.4700  0.2412
 4678SOL    MW418480   5.088   0.058   1.176 -0.0624  0.6292 -0.3150
 4679SOL     OW18481   4.593   1.283   1.051  0.3470  0.4630 -0.0937
 4679SOL    HW218482   4.599   1.271   1.146  2.2632  1.0700 -0.0872
 4679SOL    HW318483   4.622   1.200   1.015 -3.8279 -1.1203 -0.2765
 4679SOL    MW418484   4.598   1.271   1.059 -0.1922 -0.4920  0.0219
 4680SOL     OW18485   0.164   2.382   5.152 -0.4820  0.1106  0.2842
 4680SOL    HW218486   0.247   2.336   5.144 -0.7978 -0.3099 -0.7684
 4680SOL    HW318487   0.122   2.371   5.067 -2.3603 -1.1464  1.2781
 4680SOL    MW418488   0.169   2.374   5.140 -0.1454 -0.3474 -0.2947
 4681SOL     OW18489   4.873   3.330   1.109  0.0282 -0.6350 -0.2030
 4681SOL    HW218490   4.958   3.287   1.113 -0.0674 -0.7637  0.6054
 4681SOL    HW318491   4.822   3.289   1.179 -0.5711 -0.2930 -0.4358
 4681SOL    MW418492   4.877   3.319   1.119  0.3439  0.7472  0.1576
 4682SOL     OW18493   1.055   4.963   4.397  0.0077 -0.1136  0.1802
 4682SOL    HW218494   1.037   4.944   4.305  1.1977  1.3569 -0.4025
 4682SOL    HW318495   0.992   4.909   4.445 -3.7218  2.2543 -1.5612
 4682SOL    MW418496   1.044   4.953   4.391  0.1071 -0.1772  0.3675
 4683SOL     OW18497   4.798   5.668   1.939 -0.1963  0.3187 -0.2618
 4683SOL    HW218498   4.806   5.574   1.927 -0.4293  0.3933 -1.0044
 4683SOL    HW318499   4.821   5.706   1.855 -2.6209  0.8009 -0.7787
 4683SOL    MW418500   4.802   5.661   1.926  0.6560  0.5458 -0.1721
 4684SOL     OW18501   4.640   0.967   5.893  0.1351 -0.0343  0.0116
 4684SOL    HW218502   4.656   1.059   5.871  0.2813  0.2795  1.3742
 4684SOL    HW318503   4.726   0.926   5.890  0.2025  0.0826  0.3177
 4684SOL    MW418504   4.653   0.974   5.890 -0.1214 -0.0011 -0.1561
 4685SOL     OW18505   1.632   3.651   0.419  0.1215 -0.3790  0.4322
 4685SOL    HW218506   1.717   3.650   0.464 -0.0263 -2.4980  0.7871
 4685SOL    HW318507   1.575   3.599   0.476 -1.3106  0.6621 -0.0096
 4685SOL    MW418508   1.636   3.644   0.433 -0.2414  0.0913 -0.3929
 4686SOL     OW18509   4.684   1.248   5.784 -0.0537  0.1402 -0.2834
 4686SOL    HW218510   4.620   1.238   5.714  1.8076 -1.5311 -1.8998
 4686SOL    HW318511   4.763   1.280   5.740  1.3092 -1.3394  0.9456
 4686SOL    MW418512   4.686   1.251   5.769  0.2950 -0.4799  0.2653
 4687SOL     OW18513   0.430   1.602   1.991  0.5848 -0.0538  0.1681
 4687SOL    HW218514   0.425   1.510   2.016 -0.8330  0.7608  3.5446
 4687SOL    HW318515   0.487   1.641   2.058  3.6168  1.1718 -2.8395
 4687SOL    MW418516   0.437   1.595   2.003  0.0950 -0.4418  0.2653
 4688SOL     OW18517   3.895   0.348   2.920 -0.6993 -0.4016 -0.4134
 4688SOL    HW218518   3.932   0.350   3.008  0.0443  0.8835 -0.7332
 4688SOL    HW318519   3.968   0.324   2.863  0.2465  3.6622 -1.2393
 4688SOL    MW418520   3.909   0.345   2.924  0.1126 -0.3618 -0.0001
 4689SOL     OW18521   6.390   2.141   0.805 -0.2721  0.0082  0.5456
 4689SOL    HW218522   6.356   2.177   0.723  0.1549  0.4737  0.5651
 4689SOL    HW318523   6.386   2.046   0.793 -0.2161  0.0692 -0.0127
 4689SOL    MW418524   6.385   2.133   0.792 -0.0185  0.1540 -0.3141
 4690SOL     OW18525   3.133   3.259   6.161  0.1817 -0.1470  0.1981
 4690SOL    HW218526   3.209   3.203   6.178  0.1298 -0.2651  0.0415
 4690SOL    HW318527   3.129   3.268   6.066 -0.3930 -0.6927  0.1607
 4690SOL    MW418528   3.142   3.253   6.151  0.1730  0.2370  0.1276
 4691SOL     OW18529   3.580   3.783   1.621  0.6445 -0.1850  0.1734
 4691SOL    HW218530   3.636   3.839   1.675 -0.4381  3.1599 -1.8907
 4691SOL    HW318531   3.505   3.763   1.678  1.5072 -0.3770  1.2770
 4691SOL    MW418532   3.577   3.788   1.636  0.3598 -0.0792 -0.0508
 4692SOL     OW18533   5.466   1.087   2.799 -0.0696  0.0208  0.8067
 4692SOL    HW218534   5.380   1.123   2.821 -0.0658 -0.3054  1.3887
 4692SOL    HW318535   5.515   1.162   2.765 -0.7281  0.1104  0.0379
 4692SOL    MW418536   5.461   1.102   2.798  0.7776 -0.0368  0.2295
 4693SOL     OW18537   2.052   0.647   4.562 -0.1469 -0.0611  0.3951
 4693SOL    HW218538   2.091   0.580   4.619  0.5765  0.0449  0.0427
 4693SOL    HW318539   2.100   0.639   4.480 -1.3768 -0.4067 -0.3149
 4693SOL    MW418540   2.064   0.637   4.559 -0.3217  0.2956 -0.1910
 4694SOL     OW18541   0.444   5.719   5.359 -0.2794  0.5139  0.1062
 4694SOL    HW218542   0.486   5.736   5.444 -1.5537  1.1545  0.6372
 4694SOL    HW318543   0.508   5.748   5.294 -1.0036  4.4985  0.8941
 4694SOL    MW418544   0.458   5.725   5.362 -0.0463 -0.9925 -0.7703
 4695SOL     OW18545   5.908   6.037   6.119  0.2652 -0.8164  0.3025
 4695SOL    HW218546   5.990   6.039   6.169  0.0340 -1.2241  0.7048
 4695SOL    HW318547   5.896   6.127   6.089  2.5997 -1.3150 -2.6379
 4695SOL    MW418548   5.918   6.049   6.121 -0.4282 -0.5096 -0.4273
 4696SOL     OW18549   5.192   3.192   5.414  0.4125  0.5318 -0.4431
 4696SOL    HW218550   5.262   3.224   5.471 -1.6934  2.1992  1.3643
 4696SOL    HW318551   5.121   3.169   5.474 -0.3420 -2.0399 -2.1278
 4696SOL    MW418552   5.192   3.193   5.430 -0.4918  0.5847 -0.0748
 4697SOL     OW18553   2.734   3.667   0.508  0.7380 -0.4849  0.1222
 4697SOL    HW218554   2.669   3.733   0.531  0.5173 -0.6072 -0.1380
 4697SOL    HW318555   2.817   3.702   0.540  0.4629 -0.5880  0.9807
 4697SOL    MW418556   2.736   3.680   0.515 -0.4718  0.0253 -0.0641
 4698SOL     OW18557   3.992   1.512   0.598 -0.0736 -0.2357  0.3505
 4698SOL    HW218558   4.038   1.570   0.659 -1.1429 -0.5254  1.4811
 4698SOL    HW318559   3.984   1.429   0.645  0.5940 -1.0267 -0.8796
 4698SOL    MW418560   3.997   1.509   0.613 -0.3538  0.5337 -0.1583
 4699SOL     OW18561   2.241   5.678   2.430 -0.3738  0.2483  1.0603
 4699SOL    HW218562   2.327   5.719   2.439 -0.6636  0.7316  1.7025
 4699SOL    HW318563   2.247   5.628   2.348  0.4046  0.5432  0.9264
 4699SOL    MW418564   2.253   5.677   2.420 -0.4590 -0.2970 -0.2370
 4700SOL     OW18565   2.935   4.439   1.457 -0.6054 -0.5812  0.4821
 4700SOL    HW218566   2.971   4.355   1.427  0.3307 -0.0289  0.0108
 4700SOL    HW318567   2.844   4.439   1.426 -0.5699 -1.3533  0.3623
 4700SOL    MW418568   2.928   4.428   1.449 -0.0226  0.1574 -0.0928
 4701SOL     OW18569   5.529   1.744   1.705  0.0712 -0.2519  0.2619
 4701SOL    HW218570   5.584   1.761   1.781 -0.3279  0.0427  0.4920
 4701SOL    HW318571   5.548   1.816   1.645  0.5593 -0.6108 -0.0223
 4701SOL    MW418572   5.539   1.756   1.707 -0.0967 -0.3450  0.2693
 4702SOL     OW18573   2.253   5.893   3.169 -0.3535 -0.2298 -0.0169
 4702SOL    HW218574   2.336   5.873   3.125 -1.4117  1.0022 -2.8177
 4702SOL    HW318575   2.263   5.984   3.198 -0.2975 -0.4882  0.7962
 4702SOL    MW418576   2.265   5.902   3.167 -0.4736  0.2318 -0.3163
 4703SOL     OW18577   2.524   2.226   3.043  0.7812 -0.1649  0.2950
 4703SOL    HW218578   2.465   2.294   3.011 -0.5037 -1.6058 -0.4892
 4703SOL    HW318579   2.584   2.273   3.102 -0.2704  1.5754  0.0520
 4703SOL    MW418580   2.524   2.241   3.047  0.1850  0.6632  0.2862
 4704SOL     OW18581   5.005   0.955   0.940 -0.0492  0.1391  0.0228
 4704SOL    HW218582   4.933   0.907   0.898  1.8027 -2.5210 -0.3999
 4704SOL    HW318583   5.064   0.976   0.868  0.6593  0.2810  0.6434
 4704SOL    MW418584   5.003   0.951   0.925 -0.3337  0.5797 -0.2644
 4705SOL     OW18585   3.512   4.032   1.881 -0.1036 -0.8830  0.1947
 4705SOL    HW218586   3.563   3.966   1.928  1.0127  0.0211  0.2833
 4705SOL    HW318587   3.536   4.115   1.922 -1.5776 -0.4132  0.1648
 4705SOL    MW418588   3.522   4.034   1.893  0.1652  0.4047  0.0841
 4706SOL     OW18589   0.157   4.399   6.281 -0.7286  0.2119 -0.5928
 4706SOL    HW218590   0.107   4.448   6.216  0.5990  0.1735 -1.6894
 4706SOL    HW318591   0.102   4.324   6.304 -2.0782  1.3122 -0.1232
 4706SOL    MW418592   0.143   4.396   6.276  0.4728 -0.3304  0.0600
 4707SOL     OW18593   6.043   1.899   5.493 -0.0397 -0.3314  0.7120
 4707SOL    HW218594   6.031   1.824   5.551 -2.5407  0.0368  0.7987
 4707SOL    HW318595   5.959   1.946   5.496  0.4068  0.8160 -1.6447
 4707SOL    MW418596   6.030   1.896   5.501  0.9469 -0.2110  0.2048
 4708SOL     OW18597   4.514   3.288   2.488 -0.1892 -0.4933 -0.0626
 4708SOL    HW218598   4.450   3.244   2.545  0.0961  0.5135  1.0578
 4708SOL    HW318599   4.598   3.252   2.515  0.0482  0.7168  0.8749
 4708SOL    MW418600   4.516   3.277   2.499 -0.2173  0.4925  0.7804
 4709SOL     OW18601   2.083   1.632   5.665 -0.2458 -0.2235 -0.0347
 4709SOL    HW218602   2.053   1.549   5.703  1.5437 -0.9371 -0.1116
 4709SOL    HW318603   2.151   1.607   5.603 -0.1433  1.2713 -0.5582
 4709SOL    MW418604   2.088   1.617   5.662 -0.3517  0.1855 -0.2525
 4710SOL     OW18605   1.975   0.041   4.636 -0.5295 -0.4502 -1.0908
 4710SOL    HW218606   1.887   0.066   4.663 -0.2123 -0.2248 -0.2382
 4710SOL    HW318607   1.988   0.085   4.552 -0.8346  0.3641 -0.7141
 4710SOL    MW418608   1.965   0.050   4.629  0.0772 -0.0533  0.0663
 4711SOL     OW18609   0.523   0.423   4.162 -0.0135  0.4896  0.3708
 4711SOL    HW218610   0.459   0.481   4.119 -0.2655  0.3465  0.5513
 4711SOL    HW318611   0.500   0.335   4.131 -0.2499  0.3761  0.8628
 4711SOL    MW418612   0.512   0.419   4.152  0.1003 -0.1290  0.2759
 4712SOL     OW18613   4.591   0.849   1.663  0.2694  0.5302  0.0317
 4712SOL    HW218614   4.676   0.805   1.656  0.6848  1.5668 -2.9121
 4712SOL    HW318615   4.528   0.785   1.627 -0.5234 -0.7079  3.2802
 4712SOL    MW418616   4.594   0.834   1.657 -0.2833  0.2777 -0.8060
 4713SOL     OW18617   1.211   2.598   1.929  0.1463 -0.7299 -0.0600
 4713SOL    HW218618   1.195   2.692   1.938  0.8435 -0.6712  0.6829
 4713SOL    HW318619   1.125   2.561   1.907 -0.1786  0.0492 -0.1281
 4713SOL    MW418620   1.198   2.605   1.928  0.7593  0.5727  0.5615
 4714SOL     OW18621   2.391   5.154   3.845 -0.3590  0.1468  0.3773
 4714SOL    HW218622   2.320   5.213   3.870 -0.3299  0.0849  0.6049
 4714SOL    HW318623   2.454   5.209   3.799  0.3762  0.5959  1.8674
 4714SOL    MW418624   2.390   5.169   3.842 -0.0291 -0.3301  0.0219
 4715SOL     OW18625   5.340   4.931   0.788  0.2292  0.0835 -0.0572
 4715SOL    HW218626   5.258   4.921   0.741 -0.2657  1.1243  0.5426
 4715SOL    HW318627   5.389   4.851   0.769 -2.7194 -2.8141  3.2172
 4715SOL    MW418628   5.336   4.919   0.779  0.0883  0.0486 -0.1845
 4716SOL     OW18629   1.432   5.716   2.489  0.1834 -0.2304  0.2701
 4716SOL    HW218630   1.482   5.796   2.475  1.1154 -0.6375  1.1795
 4716SOL    HW318631   1.443   5.666   2.408 -0.6025  0.6532 -0.3944
 4716SOL    MW418632   1.440   5.720   2.476 -0.3784  0.4467 -0.0372
 4717SOL     OW18633   3.304   4.608   0.183  0.0042 -0.5114 -0.3306
 4717SOL    HW218634   3.307   4.515   0.202 -0.4076 -0.2495  1.1812
 4717SOL    HW318635   3.210   4.629   0.182  0.1076  0.0550  0.3803
 4717SOL    MW418636   3.292   4.599   0.185  0.5342  0.2011 -0.0151
 4718SOL     OW18637   0.952   4.969   1.083 -0.2871  0.2064  0.0174
 4718SOL    HW218638   0.872   4.963   1.136  1.0152 -0.1253  2.0460
 4718SOL    HW318639   0.930   5.031   1.014 -2.9404 -1.3529 -0.7113
 4718SOL    MW418640   0.938   4.976   1.081 -0.6457  0.2525  0.2326
 4719SOL     OW18641   0.340   1.366   1.003  0.3205 -0.1376  0.0955
 4719SOL    HW218642   0.358   1.454   0.971 -3.2639  1.3130  1.5543
 4719SOL    HW318643   0.275   1.330   0.942  1.5356 -1.7449 -0.3316
 4719SOL    MW418644   0.334   1.373   0.991 -0.5864 -0.4423  0.4757
 4720SOL     OW18645   4.095   3.971   3.915  0.6797  0.1120  0.3808
 4720SOL    HW218646   4.105   3.969   3.820 -0.3729  0.0541  0.2545
 4720SOL    HW318647   4.090   4.064   3.937  1.5260  0.1457  0.4608
 4720SOL    MW418648   4.095   3.983   3.905  0.4045  1.0784 -0.4842
 4721SOL     OW18649   4.177   1.671   0.323  0.5428  0.5455  0.3484
 4721SOL    HW218650   4.176   1.709   0.411  1.3696  0.8113  0.2467
 4721SOL    HW318651   4.246   1.605   0.325 -0.3706 -0.4404  0.2936
 4721SOL    MW418652   4.186   1.667   0.335  0.1713 -0.3548 -0.2407
 4722SOL     OW18653   2.515   4.772   4.096 -0.1380 -0.1707  0.6671
 4722SOL    HW218654   2.495   4.711   4.025 -1.4104 -1.2259  1.8691
 4722SOL    HW318655   2.515   4.858   4.055  0.3374 -0.8556 -0.8221
 4722SOL    MW418656   2.512   4.775   4.082 -0.3191 -0.3296 -0.3060
 4723SOL     OW18657   3.771   2.888   3.228  0.4799  0.0214  0.2005
 4723SOL    HW218658   3.729   2.966   3.266  0.7494  0.5877 -0.6417
 4723SOL    HW318659   3.854   2.881   3.275  0.3620  0.1089  0.4268
 4723SOL    MW418660   3.776   2.898   3.239 -0.2339  0.1269  0.6437
 4724SOL     OW18661   5.572   2.939   4.883  0.7415 -0.1949 -0.6011
 4724SOL    HW218662   5.555   2.845   4.893  0.3602 -0.0661 -0.0072
 4724SOL    HW318663   5.632   2.944   4.808  0.4443 -0.8793 -0.8969
 4724SOL    MW418664   5.578   2.927   4.875  0.1225  0.8342  0.1999
 4725SOL     OW18665   4.616   5.591   0.188  0.8266  0.0685  0.0087
 4725SOL    HW218666   4.643   5.663   0.131  0.9770  1.1451  1.3710
 4725SOL    HW318667   4.617   5.629   0.276 -1.7945 -0.7967  0.5010
 4725SOL    MW418668   4.620   5.606   0.192 -0.2224  0.2383  0.3989
 4726SOL     OW18669   0.995   0.057   4.292  0.0389 -0.3199 -0.2299
 4726SOL    HW218670   0.991   0.043   4.387  1.3421  2.5403  0.3569
 4726SOL    HW318671   1.041   0.140   4.282 -1.1232  0.0803 -3.3611
 4726SOL    MW418672   1.001   0.066   4.303 -0.1395 -0.3522  0.4160
 4727SOL     OW18673   4.064   3.884   2.495  0.1992 -0.0801 -0.1557
 4727SOL    HW218674   4.092   3.815   2.435  2.1996  2.5208 -2.5344
 4727SOL    HW318675   4.140   3.901   2.550 -0.5846 -0.3750  1.0385
 4727SOL    MW418676   4.078   3.877   2.494  0.7884 -0.1913 -0.3636
 4728SOL     OW18677   2.767   2.011   4.314  0.0903  0.2378 -0.3420
 4728SOL    HW218678   2.771   2.068   4.390  0.4837  0.2278 -0.3550
 4728SOL    HW318679   2.758   2.070   4.240  1.9932  0.3777 -0.4973
 4728SOL    MW418680   2.766   2.026   4.314  0.4512 -0.1571 -0.0408
 4729SOL     OW18681   5.963   5.315   4.428  0.2318  0.2757  0.0063
 4729SOL    HW218682   5.880   5.281   4.464 -0.1960  1.0109 -0.2620
 4729SOL    HW318683   6.030   5.281   4.487 -0.2195 -0.6667 -0.0066
 4729SOL    MW418684   5.961   5.306   4.441  0.3406  0.0065  0.5840
 4730SOL     OW18685   5.573   5.325   3.634 -0.3127  0.5178  0.5934
 4730SOL    HW218686   5.577   5.241   3.588  0.1700  0.7216  0.2569
 4730SOL    HW318687   5.663   5.342   3.660 -0.1067  1.7558 -0.8385
 4730SOL    MW418688   5.585   5.316   3.631  0.1934  0.3420  0.2616
 4731SOL     OW18689   4.229   6.229   1.596 -0.4990  0.7086  0.4695
 4731SOL    HW218690   4.206   6.190   1.680 -1.9134  0.0647 -0.1799
 4731SOL    HW318691   4.169   6.188   1.533  2.3479 -0.9712 -1.3730
 4731SOL    MW418692   4.218   6.219   1.599 -0.3933  0.1594 -0.2502
 4732SOL     OW18693   1.794   3.158   3.700  0.5401  0.6448 -0.1339
 4732SOL    HW218694   1.875   3.191   3.740 -0.1314 -1.0876  3.0010
 4732SOL    HW318695   1.793   3.065   3.721 -1.1447  0.1021 -2.2549
 4732SOL    MW418696   1.804   3.150   3.708  0.1777  0.0241 -0.4713
 4733SOL     OW18697   6.032   6.337   6.364  0.5042 -0.8237 -0.4129
 4733SOL    HW218698   6.063   6.408   6.308  0.4671  0.5575  1.2081
 4733SOL    HW318699   6.078   6.260   6.333 -0.5011 -0.4137 -3.1304
 4733SOL    MW418700   6.042   6.336   6.353  0.2985  0.0827 -0.0585
 4734SOL     OW18701   3.616   3.410   3.450  0.5782 -0.4909  0.2683
 4734SOL    HW218702   3.533   3.447   3.478  0.8033  0.3551 -0.1625
 4734SOL    HW318703   3.656   3.376   3.531  1.1025  1.6685  0.9937
 4734SOL    MW418704   3.611   3.410   3.465 -0.6013 -0.6097  0.6086
 4735SOL     OW18705   5.839   0.802   3.942 -0.2692  0.6401  0.5355
 4735SOL    HW218706   5.756   0.753   3.947 -0.9256  1.4661 -1.6008
 4735SOL    HW318707   5.884   0.766   3.866  1.7806 -0.3446  2.0946
 4735SOL    MW418708   5.834   0.790   3.933 -0.2665  0.0024  0.9626
 4736SOL     OW18709   5.294   5.337   2.304 -0.6949 -0.4595 -0.6254
 4736SOL    HW218710   5.255   5.297   2.382  0.8409 -1.8090 -0.4947
 4736SOL    HW318711   5.329   5.421   2.335  0.2990 -1.1840  0.2602
 4736SOL    MW418712   5.293   5.343   2.318  0.0453  0.0748  0.2692
 4737SOL     OW18713   1.500   2.044   1.266 -0.0823 -0.0276 -0.4130
 4737SOL    HW218714   1.578   2.010   1.222 -1.9085 -2.0391 -2.3559
 4737SOL    HW318715   1.427   1.998   1.225 -2.2162  0.3884  2.5768
 4737SOL    MW418716   1.501   2.034   1.255 -0.0666 -0.2811 -0.0880
 4738SOL     OW18717   1.399   6.141   5.735  0.4629  0.2659  0.3028
 4738SOL    HW218718   1.434   6.070   5.680  0.4670 -0.6526  1.4489
 4738SOL    HW318719   1.471   6.204   5.742  1.5395 -1.0454  1.6772
 4738SOL    MW418720   1.413   6.140   5.728  0.2120  0.7272 -0.6410
 4739SOL     OW18721   0.893   6.068   0.140 -0.7443  0.5855 -0.0932
 4739SOL    HW218722   0.918   5.978   0.159  1.2754  1.0939 -0.2149
 4739SOL    HW318723   0.807   6.060   0.099 -0.4766 -1.2997 -0.3709
 4739SOL    MW418724   0.885   6.055   0.137 -0.3612 -0.2890  0.0631
 4740SOL     OW18725   3.060   3.185   3.037 -0.0770  0.1306 -0.1656
 4740SOL    HW218726   2.987   3.229   2.994 -1.4842 -0.8070  1.1490
 4740SOL    HW318727   3.034   3.093   3.042  1.1407 -0.2061  0.4477
 4740SOL    MW418728   3.047   3.179   3.032 -0.7547 -0.5353  0.2752
 4741SOL     OW18729   2.516   3.163   5.462  0.5869  0.0351 -0.1455
 4741SOL    HW218730   2.501   3.157   5.368 -1.2838 -0.6982  0.1419
 4741SOL    HW318731   2.428   3.176   5.499  0.9405 -2.1014  1.6377
 4741SOL    MW418732   2.502   3.164   5.454 -0.1178 -0.1865 -0.1991
 4742SOL     OW18733   1.163   6.239   5.844 -0.1996 -0.0635  0.6876
 4742SOL    HW218734   1.195   6.286   5.921  0.1734 -3.6083  2.9543
 4742SOL    HW318735   1.241   6.223   5.791  0.2358 -0.7334  1.4999
 4742SOL    MW418736   1.178   6.243   5.847 -0.0254 -0.1515  0.8495
 4743SOL     OW18737   3.246   4.439   5.778  0.5818 -0.4491 -0.2681
 4743SOL    HW218738   3.238   4.361   5.833 -3.7331  1.1796  1.8457
 4743SOL    HW318739   3.180   4.427   5.709 -0.8932  1.6248  0.6774
 4743SOL    MW418740   3.236   4.427   5.776 -0.0785 -0.1721 -0.3069
 4744SOL     OW18741   3.781   0.768   4.222  0.2532 -0.1119 -0.4507
 4744SOL    HW218742   3.860   0.714   4.214  0.0800 -0.1614 -2.0519
 4744SOL    HW318743   3.731   0.727   4.293  0.3550 -1.7770 -1.3045
 4744SOL    MW418744   3.785   0.755   4.231  0.3063 -0.2438  0.4566
 4745SOL     OW18745   4.530   4.998   5.376  0.1128 -0.5631  0.1587
 4745SOL    HW218746   4.587   4.975   5.302  0.0887 -1.1915  0.3275
 4745SOL    HW318747   4.441   4.997   5.339  0.1740 -0.0405  0.0013
 4745SOL    MW418748   4.526   4.995   5.361 -0.0338  0.1936  0.2084
 4746SOL     OW18749   2.652   6.055   3.695 -0.0960 -0.1374  0.1570
 4746SOL    HW218750   2.566   6.035   3.732  0.7379 -0.4513  2.0911
 4746SOL    HW318751   2.636   6.127   3.634 -1.4541  1.3866  2.1831
 4746SOL    MW418752   2.638   6.062   3.692  0.2851  0.2169  0.4245
 4747SOL     OW18753   5.934   4.864   2.913  0.1207  0.2105  0.3803
 4747SOL    HW218754   5.870   4.936   2.911  0.7259  0.7455 -0.3727
 4747SOL    HW318755   5.887   4.789   2.880 -0.1559  0.5728 -0.0549
 4747SOL    MW418756   5.919   4.864   2.909 -0.3929  0.1389 -0.4560
 4748SOL     OW18757   0.464   1.953   4.661  0.4432 -0.2925  0.6039
 4748SOL    HW218758   0.530   1.896   4.701  2.3903  0.1315 -1.7304
 4748SOL    HW318759   0.399   1.893   4.625  0.4583 -0.8392  1.4799
 4748SOL    MW418760   0.464   1.938   4.661  0.3214  0.2530  0.3306
 4749SOL     OW18761   1.531   1.500   0.836  0.2712  0.4992  0.5343
 4749SOL    HW218762   1.456   1.440   0.842  0.0516  0.6914 -0.1213
 4749SOL    HW318763   1.580   1.468   0.760  1.7928 -0.6578  1.9333
 4749SOL    MW418764   1.528   1.488   0.826 -0.0195 -0.1599 -0.1514
 4750SOL     OW18765   2.801   4.168   2.295 -1.0124 -0.1021  0.3674
 4750SOL    HW218766   2.873   4.116   2.330  0.5061  0.8299 -1.2116
 4750SOL    HW318767   2.806   4.251   2.341  1.0073  1.1363 -1.8775
 4750SOL    MW418768   2.811   4.172   2.306 -0.8365  0.6108  0.0664
 4751SOL     OW18769   0.467   5.017   5.623  0.3632 -0.4877  0.0355
 4751SOL    HW218770   0.552   5.001   5.664  0.3060  1.2049  0.9276
 4751SOL    HW318771   0.411   4.947   5.655  1.1120 -0.9456  0.3769
 4751SOL    MW418772   0.471   5.006   5.632  0.4495  0.1516 -0.0587
 4752SOL     OW18773   4.399   3.192   4.372  0.3843  0.0289 -0.6753
 4752SOL    HW218774   4.331   3.237   4.321 -0.6938 -1.2021 -0.3727
 4752SOL    HW318775   4.476   3.249   4.364 -1.0992  2.3582  0.3179
 4752SOL    MW418776   4.400   3.206   4.364 -0.5829 -0.5093 -0.3282
 4753SOL     OW18777   0.740   6.042   2.829 -1.0769  0.3475 -0.3235
 4753SOL    HW218778   0.689   6.013   2.906 -1.6876  1.7401 -0.1805
 4753SOL    HW318779   0.806   5.974   2.818 -0.9747  0.1124  1.4444
 4753SOL    MW418780   0.742   6.029   2.838 -0.1147  0.4409 -0.0086
 4754SOL     OW18781   3.261   3.603   4.309  0.3199  0.0654  0.0002
 4754SOL    HW218782   3.235   3.526   4.258  0.8436  1.1691 -2.0425
 4754SOL    HW318783   3.357   3.602   4.306  0.3455  0.4400  0.5277
 4754SOL    MW418784   3.270   3.593   4.302 -0.0997  0.1183 -0.0855
 4755SOL     OW18785   1.524   3.134   0.969  0.2656  0.0314  0.2027
 4755SOL    HW218786   1.435   3.109   0.945  0.5596 -1.5136  0.6282
 4755SOL    HW318787   1.536   3.220   0.929 -1.7007  0.6459  0.8564
 4755SOL    MW418788   1.514   3.142   0.960 -0.5524  0.2611  0.3815
 4756SOL     OW18789   3.513   0.534   6.209 -0.1952 -0.0788 -0.1890
 4756SOL    HW218790   3.436   0.493   6.248  0.4792 -0.2010  1.0715
 4756SOL    HW318791   3.546   0.593   6.277  1.1914 -0.5005 -0.4538
 4756SOL    MW418792   3.507   0.537   6.223 -0.6292 -0.5388 -0.2735
 4757SOL     OW18793   4.962   5.275   3.960 -0.6747  0.2559 -0.0036
 4757SOL    HW218794   5.042   5.278   4.013 -0.2147  1.9182 -0.7248
 4757SOL    HW318795   4.896   5.237   4.018  0.4813 -0.5969  0.8111
 4757SOL    MW418796   4.964   5.270   3.975  0.1667 -0.6062 -0.0015
 4758SOL     OW18797   1.786   2.228   4.061 -0.1835  0.0548  0.1487
 4758SOL    HW218798   1.786   2.175   3.981 -1.6167  0.6689 -0.3002
 4758SOL    HW318799   1.878   2.240   4.082  0.2345 -0.1728 -1.4027
 4758SOL    MW418800   1.798   2.223   4.053  0.4215 -0.2119  0.1994
 4759SOL     OW18801   4.377   5.424   3.761  0.1645  0.4972 -0.3026
 4759SOL    HW218802   4.414   5.399   3.846  0.4215 -0.8957 -0.7935
 4759SOL    HW318803   4.422   5.506   3.738  1.4487 -0.0787  0.0647
 4759SOL    MW418804   4.388   5.432   3.769  0.2962  0.2153  0.4412
 4760SOL     OW18805   0.900   2.982   5.803 -0.1160 -0.1064 -0.1214
 4760SOL    HW218806   0.846   2.946   5.732  1.2140 -0.5782 -0.9271
 4760SOL    HW318807   0.921   3.070   5.775  0.6123 -0.3772 -0.4368
 4760SOL    MW418808   0.895   2.989   5.790  0.4484  0.1992 -0.2309
 4761SOL     OW18809   4.464   2.407   1.838 -0.7236  0.3072 -0.5366
 4761SOL    HW218810   4.521   2.353   1.784 -1.1950 -0.9180  0.1465
 4761SOL    HW318811   4.379   2.401   1.796 -0.9238 -0.0455 -0.1014
 4761SOL    MW418812   4.460   2.399   1.826  0.2560  0.9057  0.0582
 4762SOL     OW18813   0.138   0.496   1.837 -0.0008  0.1850  0.2281
 4762SOL    HW218814   0.133   0.517   1.744  3.2348  0.2909 -0.0169
 4762SOL    HW318815   0.228   0.467   1.850 -0.7184 -1.0707  3.1115
 4762SOL    MW418816   0.149   0.495   1.826  0.1139 -0.7108  0.2378
 4763SOL     OW18817   0.428   4.124   1.908 -0.6282  0.3852 -0.9436
 4763SOL    HW218818   0.409   4.050   1.966 -0.9030  1.7747  0.8248
 4763SOL    HW318819   0.366   4.114   1.836 -1.2734 -0.6149 -0.2774
 4763SOL    MW418820   0.417   4.113   1.906 -0.1741 -0.3568  0.0927
 4764SOL     OW18821   1.318   5.489   0.948 -0.5327 -0.6011 -0.1514
 4764SOL    HW218822   1.298   5.398   0.968 -0.3618 -0.5330  0.3381
 4764SOL    HW318823   1.234   5.527   0.922 -0.4834 -1.0709 -1.0572
 4764SOL    MW418824   1.305   5.482   0.947 -0.5405  0.0596 -0.2931
 4765SOL     OW18825   3.233   5.449   3.820 -0.6594 -0.0655 -0.3644
 4765SOL    HW218826   3.307   5.423   3.874 -1.7402 -0.6962  0.8681
 4765SOL    HW318827   3.246   5.543   3.805  0.4985 -0.2193 -0.3739
 4765SOL    MW418828   3.244   5.458   3.825  0.2763 -0.0083 -0.6669
 4766SOL     OW18829   2.826   5.048   5.202 -0.0669  0.0151 -0.3638
 4766SOL    HW218830   2.880   5.121   5.233 -0.3581  0.6339 -1.2725
 4766SOL    HW318831   2.849   5.039   5.110  1.1615 -2.1242  0.0816
 4766SOL    MW418832   2.836   5.057   5.194  0.1568  0.2595 -0.4316
 4767SOL     OW18833   1.977   0.784   0.399 -0.2775 -0.2543  0.6538
 4767SOL    HW218834   2.010   0.704   0.358 -1.2739 -0.0673 -0.5734
 4767SOL    HW318835   1.905   0.755   0.455 -0.5914 -0.2343  0.2648
 4767SOL    MW418836   1.972   0.770   0.401 -0.2996 -0.2796 -0.1672
 4768SOL     OW18837   1.348   0.874   3.419 -0.1145 -0.3282  0.1017
 4768SOL    HW218838   1.268   0.822   3.433  0.0527 -0.7017 -0.3054
 4768SOL    HW318839   1.387   0.882   3.506  0.7943 -2.4276 -0.0572
 4768SOL    MW418840   1.343   0.868   3.432 -0.4645 -0.2641 -0.0204
 4769SOL     OW18841   0.216   0.513   0.856 -0.4632  0.0504  0.1787
 4769SOL    HW218842   0.258   0.430   0.876 -0.5179 -0.1829 -0.6439
 4769SOL    HW318843   0.185   0.545   0.941 -0.5797 -0.8321  0.4774
 4769SOL    MW418844   0.218   0.506   0.870  0.2685 -0.3220  0.4536
 4770SOL     OW18845   6.020   4.576   0.237 -0.6731 -0.1542  0.4079
 4770SOL    HW218846   6.015   4.534   0.322  0.5696 -0.3848  0.3721
 4770SOL    HW318847   5.962   4.524   0.181  0.6632 -1.7074  0.4149
 4770SOL    MW418848   6.011   4.564   0.241  0.5766 -0.1986  0.7744
 4771SOL     OW18849   3.328   3.535   0.469 -0.4806 -0.0682  0.0454
 4771SOL    HW218850   3.416   3.514   0.439 -0.5038 -0.3198  0.1473
 4771SOL    HW318851   3.287   3.450   0.483 -0.4526  0.0348  0.8232
 4771SOL    MW418852   3.334   3.521   0.467  0.3336  0.7094  0.3893
 4772SOL     OW18853   3.046   1.444   0.057 -0.0305 -0.2001  0.1143
 4772SOL    HW218854   3.001   1.409  -0.020  2.5664  0.4276 -1.8296
 4772SOL    HW318855   3.133   1.403   0.055  1.4433  2.6570  0.4620
 4772SOL    MW418856   3.052   1.434   0.046 -0.3978 -0.3919 -0.0269
 4773SOL     OW18857   1.021   4.522   5.857 -0.7495  0.5299  0.6292
 4773SOL    HW218858   1.030   4.476   5.774 -2.3429  1.4377 -0.0907
 4773SOL    HW318859   0.950   4.478   5.902 -0.1434  0.2814  1.3640
 4773SOL    MW418860   1.013   4.510   5.852 -0.2523 -0.1126  0.1354
 4774SOL     OW18861   5.218   5.350   0.467  0.0416  0.0764  0.3201
 4774SOL    HW218862   5.260   5.283   0.520  0.9076 -0.4207 -0.9393
 4774SOL    HW318863   5.165   5.400   0.528 -0.4953 -1.6566  1.3240
 4774SOL    MW418864   5.217   5.348   0.482 -0.1731 -0.7723  0.0794
 4775SOL     OW18865   5.268   5.681   3.452  0.2467 -0.3991  0.0849
 4775SOL    HW218866   5.316   5.598   3.458 -0.7747 -0.9161  2.2366
 4775SOL    HW318867   5.176   5.656   3.463 -0.0676  1.0011  0.9464
 4775SOL    MW418868   5.262   5.667   3.454 -0.3539 -0.4676 -0.1705
 4776SOL     OW18869   5.264   4.666   5.826  0.2301 -0.1250 -0.3220
 4776SOL    HW218870   5.322   4.629   5.759 -0.9186 -0.8306 -0.9490
 4776SOL    HW318871   5.240   4.591   5.880 -1.6313 -0.2300 -1.2366
 4776SOL    MW418872   5.269   4.651   5.824  0.1536  0.2504 -0.1308
 4777SOL     OW18873   5.578   2.031   4.868  0.5250  0.1722 -1.0763
 4777SOL    HW218874   5.631   1.971   4.921  0.5466  1.0329 -0.0903
 4777SOL    HW318875   5.488   1.999   4.879  0.5726  0.1202 -0.8329
 4777SOL    MW418876   5.573   2.019   4.876  0.1554 -0.0194  0.6354
 4778SOL     OW18877   4.015   6.154   4.181 -0.2911  0.1560  0.1850
 4778SOL    HW218878   3.936   6.204   4.199 -0.9877 -0.6176 -0.6301
 4778SOL    HW318879   3.986   6.082   4.124  0.7924 -0.7977  0.7918
 4778SOL    MW418880   4.001   6.151   4.176  0.1321 -0.2875 -0.8673
 4779SOL     OW18881   6.173   5.214   1.874 -0.1509  0.4708  0.2627
 4779SOL    HW218882   6.212   5.282   1.929  0.9794 -0.5073  0.7029
 4779SOL    HW318883   6.131   5.263   1.802  1.8458  1.5960 -0.2241
 4779SOL    MW418884   6.172   5.229   1.872 -0.3368 -0.0245  0.1951
 4780SOL     OW18885   0.863   0.663   2.728  0.1703 -0.1581  0.3815
 4780SOL    HW218886   0.915   0.689   2.805 -0.3845 -0.6950  0.9509
 4780SOL    HW318887   0.829   0.576   2.750  0.9533 -0.8304 -0.9702
 4780SOL    MW418888   0.865   0.655   2.741  0.1248  0.1711 -0.1164
 4781SOL     OW18889   6.091   0.555   0.962  0.3558  0.0158  0.4429
 4781SOL    HW218890   6.023   0.622   0.953 -0.5183 -0.7524  1.1736
 4781SOL    HW318891   6.156   0.578   0.895  0.7238  2.3298  1.5004
 4781SOL    MW418892   6.091   0.567   0.952  0.1144 -0.0864 -0.3162
 4782SOL     OW18893   1.424   4.857   0.586  0.6312  0.0199 -0.4263
 4782SOL    HW218894   1.381   4.799   0.524  1.5831 -0.7397 -0.4161
 4782SOL    HW318895   1.365   4.862   0.661 -0.0237  0.0662 -0.9438
 4782SOL    MW418896   1.411   4.850   0.588 -0.2847  0.5437  0.1271
 4783SOL     OW18897   3.358   1.566   4.834  0.5899  0.3521 -0.1924
 4783SOL    HW218898   3.452   1.563   4.816  0.9298  1.6505  1.2155
 4783SOL    HW318899   3.352   1.568   4.929 -0.9459 -1.1781 -0.2128
 4783SOL    MW418900   3.370   1.566   4.844 -0.4026 -0.4575  0.6078
 4784SOL     OW18901   1.186   2.283   2.793 -0.1889  0.0549  0.3092
 4784SOL    HW218902   1.242   2.346   2.839 -1.4743 -1.9147  5.2972
 4784SOL    HW318903   1.105   2.331   2.777 -0.0514  0.5611  1.0645
 4784SOL    MW418904   1.183   2.298   2.797  0.2906  0.2589 -0.1134
 4785SOL     OW18905   0.850   4.286   2.273  0.1197 -0.3949 -0.1114
 4785SOL    HW218906   0.809   4.318   2.353  1.4408  2.0637 -0.3365
 4785SOL    HW318907   0.942   4.271   2.297  0.1817 -1.2267 -0.7920
 4785SOL    MW418908   0.857   4.288   2.287  0.2188  0.2442 -0.2536
 4786SOL     OW18909   3.006   5.263   6.394 -0.2336  0.1250  0.2866
 4786SOL    HW218910   3.015   5.276   6.488 -2.1210  1.0462  0.3943
 4786SOL    HW318911   2.933   5.203   6.385  1.1078 -1.4398 -0.5816
 4786SOL    MW418912   2.997   5.257   6.405  0.0958 -0.7057  0.3249
 4787SOL     OW18913   4.127   3.572   2.635  0.5178 -0.5977  0.6505
 4787SOL    HW218914   4.111   3.477   2.633  3.9248 -1.2917  0.6495
 4787SOL    HW318915   4.158   3.589   2.724 -0.2990  0.6021  0.7286
 4787SOL    MW418916   4.129   3.562   2.647  0.1569 -0.5056 -0.0118
 4788SOL     OW18917   0.517   2.571   3.050  0.2071  0.5791 -0.3884
 4788SOL    HW218918   0.486   2.480   3.045 -1.8619  1.2088  0.1089
 4788SOL    HW318919   0.559   2.587   2.966  0.0186 -0.6172 -0.7352
 4788SOL    MW418920   0.519   2.561   3.038  0.4172 -0.1683  0.3843
 4789SOL     OW18921   2.596   1.935   0.682  0.0576 -0.0295 -0.4228
 4789SOL    HW218922   2.586   2.030   0.686 -1.4256 -0.2049  2.4601
 4789SOL    HW318923   2.553   1.910   0.600 -3.2856  1.5317  0.6456
 4789SOL    MW418924   2.589   1.944   0.672  0.2163  0.8786 -0.5545
 4790SOL     OW18925   6.368   5.737   0.064  0.2389 -0.1582  0.3401
 4790SOL    HW218926   6.352   5.755   0.156 -0.9213 -2.1827  0.5986
 4790SOL    HW318927   6.282   5.711   0.030  1.3350 -3.3594 -0.2952
 4790SOL    MW418928   6.355   5.736   0.071  0.5672  0.5133 -0.0676
 4791SOL     OW18929   0.028   4.115   2.194 -0.5413 -0.1726  0.2175
 4791SOL    HW218930   0.123   4.104   2.198 -0.4877  0.6286  3.3707
 4791SOL    HW318931  -0.006   4.025   2.187  0.3879 -0.4164 -1.9458
 4791SOL    MW418932   0.036   4.102   2.193 -0.5590  0.1628  0.3881
 4792SOL     OW18933   1.284   2.607   0.408 -0.3732  0.2021  0.1655
 4792SOL    HW218934   1.356   2.557   0.446  0.4183  0.3716 -1.0718
 4792SOL    HW318935   1.221   2.617   0.480  1.2391  0.8554  1.5637
 4792SOL    MW418936   1.285   2.602   0.423  0.2256  0.2854  0.1859
 4793SOL     OW18937   5.147   5.858   3.977  0.2422 -0.1237  0.8390
 4793SOL    HW218938   5.184   5.856   3.889  3.9286 -0.5587  2.2241
 4793SOL    HW318939   5.078   5.924   3.972  1.3053  0.9446 -2.0350
 4793SOL    MW418940   5.143   5.866   3.965 -0.3133 -0.1399  0.1080
 4794SOL     OW18941   3.854   1.355   2.595  0.5829 -0.4850  0.1852
 4794SOL    HW218942   3.937   1.326   2.635  0.3205 -1.0569  0.3330
 4794SOL    HW318943   3.878   1.376   2.505  1.1271  0.5452  0.5585
 4794SOL    MW418944   3.868   1.354   2.589  0.0839  0.1170 -0.2483
 4795SOL     OW18945   3.417   4.813   5.954 -0.4382  0.1064 -0.8128
 4795SOL    HW218946   3.371   4.749   6.008 -2.2613  1.9899  0.0429
 4795SOL    HW318947   3.509   4.800   5.975 -0.8920 -1.0276  0.7017
 4795SOL    MW418948   3.423   4.803   5.964  0.3793 -0.4336 -0.1130
 4796SOL     OW18949   4.612   6.022   3.518  0.6532 -0.2407 -0.5133
 4796SOL    HW218950   4.525   5.982   3.510  1.3589 -2.0550  0.2174
 4796SOL    HW318951   4.672   5.957   3.482  2.0881 -0.9528  2.7651
 4796SOL    MW418952   4.608   6.008   3.512 -0.0937  0.5191 -0.0749
 4797SOL     OW18953   3.849   4.294   4.815  0.7540  0.3221 -0.4849
 4797SOL    HW218954   3.783   4.354   4.780 -1.7018 -0.1891  2.8574
 4797SOL    HW318955   3.828   4.210   4.774 -0.1978  0.3420 -0.0705
 4797SOL    MW418956   3.838   4.291   4.805  0.4497  0.0720 -0.4130
 4798SOL     OW18957   5.758   4.043   3.493 -0.2062 -0.1147 -0.1921
 4798SOL    HW218958   5.781   4.037   3.586  0.2575  0.1583 -0.2850
 4798SOL    HW318959   5.686   4.105   3.490 -1.5458 -1.5846  0.1960
 4798SOL    MW418960   5.752   4.050   3.505  0.6260 -0.0671  0.2920
 4799SOL     OW18961   4.825   4.754   1.308  0.5686  0.3355 -0.0202
 4799SOL    HW218962   4.752   4.798   1.351  0.9007  0.1837  0.7264
 4799SOL    HW318963   4.804   4.661   1.316  1.6002  0.2080  1.6510
 4799SOL    MW418964   4.812   4.747   1.315  0.0848 -0.0625  0.1823
 4800SOL     OW18965   2.373   3.630   3.735 -0.0589  0.0606  0.0383
 4800SOL    HW218966   2.288   3.604   3.699 -0.3055  0.7096  0.1308
 4800SOL    HW318967   2.437   3.594   3.674 -0.3866 -0.6100  0.0746
 4800SOL    MW418968   2.370   3.622   3.723 -0.1757 -0.1914 -0.5450
 4801SOL     OW18969   5.705   1.815   0.484  0.4231  0.7060 -0.3763
 4801SOL    HW218970   5.641   1.840   0.550 -0.3699  2.3939 -1.7117
 4801SOL    HW318971   5.669   1.736   0.443  1.3241 -0.8555  1.6698
 4801SOL    MW418972   5.692   1.808   0.487 -0.1701 -0.2832  0.1274
 4802SOL     OW18973   3.563   3.711   4.472  0.6038  0.2855  0.2252
 4802SOL    HW218974   3.559   3.628   4.425  3.0155  0.9904 -1.4299
 4802SOL    HW318975   3.557   3.687   4.565  1.3068 -1.7468 -0.2120
 4802SOL    MW418976   3.562   3.697   4.478  0.2257 -0.3249 -0.1858
 4803SOL     OW18977   2.822   4.212   2.879  0.0810 -0.2771 -0.0188
 4803SOL    HW218978   2.903   4.170   2.851 -0.5069 -1.5313  0.0837
 4803SOL    HW318979   2.834   4.304   2.856  0.8045 -0.7469 -1.7134
 4803SOL    MW418980   2.834   4.219   2.872  0.0416  0.0122 -0.0302
 4804SOL     OW18981   6.031   2.327   2.508 -0.0792  0.4852 -0.0253
 4804SOL    HW218982   6.085   2.355   2.434 -2.6755  0.6498 -2.0131
 4804SOL    HW318983   5.963   2.393   2.514 -1.9757 -1.3869  0.1444
 4804SOL    MW418984   6.029   2.339   2.499 -1.2243  0.2338  0.3105
 4805SOL     OW18985   3.019   4.660   0.141  0.1842  0.1887  0.5902
 4805SOL    HW218986   3.025   4.753   0.164 -1.4926  0.6593 -0.6681
 4805SOL    HW318987   2.965   4.622   0.209 -0.2143  0.4314  0.4170
 4805SOL    MW418988   3.013   4.668   0.153  0.1188  0.5516  0.3160
 4806SOL     OW18989   0.293   1.134   5.950 -0.0551 -0.3335  0.2732
 4806SOL    HW218990   0.298   1.038   5.945  0.4613 -0.3657  1.2293
 4806SOL    HW318991   0.362   1.165   5.892  0.9435 -0.5734  1.3141
 4806SOL    MW418992   0.302   1.125   5.942  0.0515  0.0042 -0.0087
 4807SOL     OW18993   3.534   5.002   1.273 -0.1095 -0.9482 -0.2390
 4807SOL    HW218994   3.604   4.971   1.331  1.0337 -0.4242 -1.2849
 4807SOL    HW318995   3.573   4.999   1.186 -1.3495 -0.4642 -0.8268
 4807SOL    MW418996   3.548   4.997   1.270  0.1698 -0.1838 -0.0613
 4808SOL     OW18997   4.827   4.865   2.138  0.4904  0.0841  0.1070
 4808SOL    HW218998   4.831   4.793   2.202 -0.6786 -1.9090 -1.8982
 4808SOL    HW318999   4.905   4.853   2.084 -0.3335 -0.5436 -1.0063
 4808SOL    MW419000   4.838   4.854   2.140  0.7427  0.4684  0.4126
 4809SOL     OW19001   5.307   4.123   1.257  0.4765  0.2162 -0.0180
 4809SOL    HW219002   5.346   4.105   1.342  1.4129 -3.0348 -0.9813
 4809SOL    HW319003   5.276   4.214   1.263  0.9063  0.2663  3.5602
 4809SOL    MW419004   5.308   4.133   1.269  0.0452 -1.0154 -0.0292
 4810SOL     OW19005   4.140   0.337   6.134  0.0893 -0.3748  0.3082
 4810SOL    HW219006   4.046   0.318   6.136 -0.3078  1.4930  2.0833
 4810SOL    HW319007   4.147   0.428   6.163  2.3422  0.1130 -1.4479
 4810SOL    MW419008   4.128   0.347   6.138 -0.9818  0.0299 -0.0320
 4811SOL     OW19009   5.077   4.765   5.547  0.4261 -0.2208  0.0550
 4811SOL    HW219010   5.096   4.814   5.467  1.2479  1.1092  1.0222
 4811SOL    HW319011   5.156   4.775   5.601  0.8358 -3.0383  0.1380
 4811SOL    MW419012   5.090   4.773   5.543 -0.1895 -0.2464  0.4521
 4812SOL     OW19013   3.348   0.404   0.738 -0.1891 -0.4327  0.1018
 4812SOL    HW219014   3.441   0.403   0.759 -0.2551  0.5948  0.4923
 4812SOL    HW319015   3.339   0.473   0.673 -0.8405  0.2161  0.8720
 4812SOL    MW419016   3.359   0.413   0.732  0.1350 -0.1387  0.0402
 4813SOL     OW19017   2.618   0.223   6.397 -0.8617  0.3962 -0.0150
 4813SOL    HW219018   2.696   0.184   6.357 -1.3481 -1.0044  0.3301
 4813SOL    HW319019   2.574   0.267   6.324 -1.0555 -0.9901 -0.7854
 4813SOL    MW419020   2.623   0.224   6.382  0.5872 -0.2531  0.0565
 4814SOL     OW19021   4.187   5.552   5.532  0.2614  0.5407  0.0355
 4814SOL    HW219022   4.127   5.566   5.459 -0.0548  1.7088  0.4968
 4814SOL    HW319023   4.146   5.483   5.584  0.0789  0.2797 -0.4514
 4814SOL    MW419024   4.174   5.545   5.530 -0.1829  0.5906  0.1244
 4815SOL     OW19025   3.221   2.566   1.922  0.0557  0.4537 -0.3901
 4815SOL    HW219026   3.193   2.658   1.925 -1.2149  0.0767  2.0466
 4815SOL    HW319027   3.140   2.516   1.920  0.6145 -0.6119  1.1230
 4815SOL    MW419028   3.207   2.572   1.922 -0.7854  0.0750  0.2110
 4816SOL     OW19029   5.145   4.262   3.645  0.1188 -0.3271  0.5502
 4816SOL    HW219030   5.200   4.329   3.686  0.0069 -1.3878  2.5962
 4816SOL    HW319031   5.059   4.274   3.684 -0.3516 -0.5538 -0.3966
 4816SOL    MW419032   5.141   4.272   3.655 -0.3417 -0.3341  0.0553
 4817SOL     OW19033   5.982   4.846   0.648  0.4931 -0.1740  0.3839
 4817SOL    HW219034   5.931   4.828   0.727  0.4565 -0.7093  0.2427
 4817SOL    HW319035   5.917   4.853   0.579  0.6954 -3.2476 -0.2479
 4817SOL    MW419036   5.967   4.845   0.650  0.2602  0.0767 -0.4877
 4818SOL     OW19037   3.473   1.441   6.270  0.2147 -0.2330  0.6141
 4818SOL    HW219038   3.537   1.481   6.329 -0.4825 -1.3704  2.2318
 4818SOL    HW319039   3.526   1.397   6.204  1.0284  0.8739  0.5012
 4818SOL    MW419040   3.488   1.440   6.269  0.6745  0.3656 -0.0594
 4819SOL     OW19041   2.023   5.497   1.202 -0.1868  0.2582 -0.3062
 4819SOL    HW219042   1.937   5.506   1.162 -0.1861  2.6166  0.0770
 4819SOL    HW319043   2.020   5.554   1.279  1.8642  0.8125 -0.5669
 4819SOL    MW419044   2.011   5.506   1.207  0.0323 -0.2430  0.0233
 4820SOL     OW19045   2.409   2.193   0.400 -0.4247  0.8147 -0.2416
 4820SOL    HW219046   2.365   2.203   0.484 -0.4903 -1.5606  0.0775
 4820SOL    HW319047   2.352   2.134   0.350  1.3934 -0.7593 -0.5605
 4820SOL    MW419048   2.396   2.187   0.404  0.5560  0.4442  0.6153
 4821SOL     OW19049   2.477   4.465   5.686 -0.9452  0.1143 -0.2896
 4821SOL    HW219050   2.491   4.404   5.612  0.8919  0.3619 -0.2024
 4821SOL    HW319051   2.550   4.527   5.679 -2.0210  1.5014  0.4364
 4821SOL    MW419052   2.489   4.465   5.675 -0.1658 -0.1549  0.3718
 4822SOL     OW19053   3.635   4.599   5.023 -0.5400  0.5087 -0.3795
 4822SOL    HW219054   3.615   4.640   5.107 -2.0538 -0.4995 -0.2069
 4822SOL    HW319055   3.730   4.590   5.023 -0.4409  1.2874  0.8558
 4822SOL    MW419056   3.645   4.603   5.034 -0.6135  0.0139  0.5027
 4823SOL     OW19057   4.939   4.732   1.042  0.3141  0.6857 -0.6407
 4823SOL    HW219058   4.869   4.773   0.992  0.0526  1.5763  0.3941
 4823SOL    HW319059   4.903   4.724   1.131  1.1785  0.2648 -0.3176
 4823SOL    MW419060   4.925   4.736   1.047  0.2463  0.6241 -0.0705
 4824SOL     OW19061   2.503   4.508   0.155 -0.1969 -0.6809  0.2418
 4824SOL    HW219062   2.545   4.486   0.239 -0.7501 -3.4536 -0.0890
 4824SOL    HW319063   2.573   4.496   0.090  0.5106  2.4507  0.2970
 4824SOL    MW419064   2.518   4.503   0.157  0.2980 -0.2193  0.6198
 4825SOL     OW19065   2.312   4.846   5.661  0.4621 -0.6621  0.7735
 4825SOL    HW219066   2.257   4.924   5.669  1.4932  0.5240 -2.1512
 4825SOL    HW319067   2.399   4.875   5.690  0.9351 -0.5687 -0.6732
 4825SOL    MW419068   2.316   4.860   5.666 -0.1697  0.2052  0.7286
 4826SOL     OW19069   3.491   2.346   3.232  0.2532 -0.1042 -0.0847
 4826SOL    HW219070   3.580   2.332   3.265  1.1638  1.7463 -1.5947
 4826SOL    HW319071   3.453   2.411   3.292  0.9544  1.2209 -1.0308
 4826SOL    MW419072   3.497   2.353   3.245  0.1863 -0.4085 -0.0441
 4827SOL     OW19073   0.867   5.701   5.206 -0.3919  0.0481  0.2525
 4827SOL    HW219074   0.953   5.740   5.194 -0.4661  0.4595  0.9737
 4827SOL    HW319075   0.884   5.609   5.224 -0.1114  0.1048  0.2830
 4827SOL    MW419076   0.880   5.694   5.207 -0.5580 -0.0589 -0.0964
 4828SOL     OW19077   4.092   1.269   5.054  0.7176 -0.1291 -0.2011
 4828SOL    HW219078   4.126   1.181   5.039 -0.5565 -0.7615  0.4307
 4828SOL    HW319079   4.061   1.298   4.968 -1.4249 -1.4718  0.0385
 4828SOL    MW419080   4.092   1.262   5.040  0.8659  0.4024 -0.4321
 4829SOL     OW19081   5.642   4.841   4.470 -0.4923 -0.8162  0.2955
 4829SOL    HW219082   5.669   4.871   4.384 -0.3510  1.2386  1.0028
 4829SOL    HW319083   5.719   4.854   4.525 -1.1761 -0.2192  1.1383
 4829SOL    MW419084   5.656   4.847   4.466 -0.1104 -0.2845  0.7166
 4830SOL     OW19085   1.044   0.170   2.824  0.2499  0.9110  0.1554
 4830SOL    HW219086   1.058   0.097   2.765  0.2734  1.0021  0.0485
 4830SOL    HW319087   1.078   0.140   2.908  0.4885  0.8930  0.0516
 4830SOL    MW419088   1.050   0.157   2.828 -0.0932  0.0216 -0.0956
 4831SOL     OW19089   3.970   5.955   1.734 -0.0810  0.1465  0.3737
 4831SOL    HW219090   3.989   5.927   1.824 -1.2299  2.0493  1.2653
 4831SOL    HW319091   3.878   5.981   1.736 -0.2762 -0.2662 -1.5221
 4831SOL    MW419092   3.961   5.954   1.746  0.2833  0.3542  0.2613
 4832SOL     OW19093   3.413   0.644   5.330 -0.0589 -0.4163 -0.1649
 4832SOL    HW219094   3.336   0.631   5.385  0.4203  0.3454  0.7137
 4832SOL    HW319095   3.487   0.646   5.392  0.6005 -0.5361 -0.9323
 4832SOL    MW419096   3.413   0.643   5.346 -0.0669 -0.0799  0.2502
 4833SOL     OW19097   1.291   3.353   4.542  0.6330 -0.5360 -0.3197
 4833SOL    HW219098   1.268   3.340   4.450 -0.0751 -3.4792  0.1783
 4833SOL    HW319099   1.224   3.305   4.591  1.2115  0.6163  1.7520
 4833SOL    MW419100   1.279   3.345   4.537  0.1355 -0.5130  0.5288
 4834SOL     OW19101   4.201   5.404   2.186  0.3883 -0.4232 -0.0883
 4834SOL    HW219102   4.168   5.364   2.267  0.9551 -2.6406 -0.8754
 4834SOL    HW319103   4.208   5.331   2.124  3.6679  0.4668 -0.9612
 4834SOL    MW419104   4.197   5.389   2.188  0.7801  0.1656 -0.4013
 4835SOL     OW19105   2.630   1.654   3.527 -0.0232  0.0794 -0.3444
 4835SOL    HW219106   2.649   1.561   3.515 -0.8818 -0.0864 -0.4425
 4835SOL    HW319107   2.707   1.688   3.573  0.0773 -0.7822  0.1483
 4835SOL    MW419108   2.643   1.646   3.532 -0.5544  0.7620 -0.7080
 4836SOL     OW19109   4.870   1.460   6.225 -0.1008 -0.0469  0.0914
 4836SOL    HW219110   4.850   1.552   6.242 -0.0697 -0.0130 -0.0577
 4836SOL    HW319111   4.937   1.462   6.156 -0.8727 -0.2094 -0.6719
 4836SOL    MW419112   4.877   1.472   6.218  0.2980  0.1821 -0.0467
 4837SOL     OW19113   4.521   2.982   5.686 -0.3881  0.0543  0.0961
 4837SOL    HW219114   4.483   2.979   5.774 -0.4360 -0.5477  0.0599
 4837SOL    HW319115   4.446   2.984   5.628 -0.3734 -0.7706  0.0361
 4837SOL    MW419116   4.506   2.982   5.690 -0.1887  0.0882 -0.6692
 4838SOL     OW19117   4.120   3.860   0.993 -0.0611  0.2023  0.1423
 4838SOL    HW219118   4.183   3.876   1.063  1.0211 -0.2733 -0.6789
 4838SOL    HW319119   4.085   3.773   1.011  0.4183 -0.0347 -0.0343
 4838SOL    MW419120   4.124   3.851   1.004  0.5820 -0.0377 -0.0070
 4839SOL     OW19121   2.622   0.442   0.397  0.7881 -0.1217 -0.2508
 4839SOL    HW219122   2.713   0.448   0.368  0.1499 -0.6707 -2.5611
 4839SOL    HW319123   2.581   0.382   0.335 -1.3682  0.8011  0.1996
 4839SOL    MW419124   2.629   0.435   0.385 -0.0432 -0.8586  0.0864
 4840SOL     OW19125   1.377   1.389   4.482  0.0369 -0.3544  0.1927
 4840SOL    HW219126   1.414   1.465   4.526 -0.6830  0.0645  0.0827
 4840SOL    HW319127   1.446   1.360   4.422  0.4270  0.0233  0.4584
 4840SOL    MW419128   1.391   1.395   4.480 -0.3443  0.4353  0.0844
 4841SOL     OW19129   5.477   2.069   5.470  0.4989  0.1135 -0.1784
 4841SOL    HW219130   5.485   2.164   5.463 -0.7604  0.3734  1.2355
 4841SOL    HW319131   5.437   2.055   5.556  0.7701 -1.7114 -0.3064
 4841SOL    MW419132   5.473   2.080   5.480 -0.0862  0.1162 -0.1017
 4842SOL     OW19133   1.232   1.178   5.962 -0.5701 -0.2167  0.0605
 4842SOL    HW219134   1.260   1.090   5.986  0.4097 -0.4319 -1.6542
 4842SOL    HW319135   1.272   1.235   6.028 -2.6957 -1.1313  2.2474
 4842SOL    MW419136   1.241   1.174   5.974 -0.2431  0.0052  0.4433
 4843SOL     OW19137   4.399   0.302   0.124  0.3716 -0.0511  0.1787
 4843SOL    HW219138   4.370   0.322   0.213  0.4535 -0.7188  0.3605
 4843SOL    HW319139   4.423   0.209   0.127  1.8582  0.2883 -0.1340
 4843SOL    MW419140   4.398   0.292   0.136 -0.3117  0.0827 -0.2019
 4844SOL     OW19141   2.789   1.029   3.380 -0.6591  0.3460  0.6082
 4844SOL    HW219142   2.767   0.959   3.441 -0.8589 -0.7150 -0.6584
 4844SOL    HW319143   2.723   1.023   3.311 -0.9824  2.1135  0.7126
 4844SOL    MW419144   2.777   1.019   3.379  0.3467  0.0354 -0.1928
 4845SOL     OW19145   2.016   6.188   5.430 -0.1689 -0.1205 -0.2081
 4845SOL    HW219146   1.926   6.169   5.404  0.2546 -0.5078 -1.4645
 4845SOL    HW319147   2.041   6.265   5.379 -0.1325  0.6950  0.9768
 4845SOL    MW419148   2.008   6.196   5.420  0.5221  0.2943 -0.1569
 4846SOL     OW19149   3.921   5.260   4.017  0.1251 -0.6598  0.4976
 4846SOL    HW219150   3.899   5.198   4.087 -2.2404  0.1520  0.5475
 4846SOL    HW319151   4.013   5.282   4.033  0.0078 -1.4507  2.5905
 4846SOL    MW419152   3.930   5.254   4.028  0.3281  0.3386  0.0843
 4847SOL     OW19153   2.829   1.887   4.908  0.1387  0.4506  0.1830
 4847SOL    HW219154   2.798   1.972   4.940 -0.5057 -0.6484  2.6843
 4847SOL    HW319155   2.835   1.898   4.813 -1.1629  2.8888  0.3077
 4847SOL    MW419156   2.826   1.900   4.899 -0.2080  0.0881 -0.3806
 4848SOL     OW19157   1.041   1.888   0.618 -0.2667  0.1115 -0.0040
 4848SOL    HW219158   1.027   1.973   0.576 -1.1212  0.9342  1.8600
 4848SOL    HW319159   1.081   1.909   0.702  1.6621 -1.5194 -0.4422
 4848SOL    MW419160   1.045   1.902   0.623 -0.1793  0.2469 -0.6070
 4849SOL     OW19161   1.072   0.172   1.053  0.1770  0.7157  0.4972
 4849SOL    HW219162   0.985   0.137   1.070  0.5861 -0.0405  1.1053
 4849SOL    HW319163   1.087   0.157   0.960  1.3590 -3.1967  1.1349
 4849SOL    MW419164   1.062   0.166   1.043  0.0333  0.1069  0.1859
 4850SOL     OW19165   3.544   1.023   2.068 -0.4794  0.0968  0.2678
 4850SOL    HW219166   3.626   1.014   2.020  0.4933  4.4730  0.7086
 4850SOL    HW319167   3.567   1.005   2.159 -0.1420  0.6569  0.2972
 4850SOL    MW419168   3.557   1.020   2.074 -0.1305 -0.2791 -0.2433
 4851SOL     OW19169   3.704   6.286   1.003 -0.0248  0.2100 -0.3887
 4851SOL    HW219170   3.753   6.368   0.997 -0.6301  0.5513 -0.8543
 4851SOL    HW319171   3.612   6.314   1.005 -0.2538 -0.4691 -0.9631
 4851SOL    MW419172   3.698   6.301   1.002 -0.2070  0.3575 -0.9772
 4852SOL     OW19173   1.933   4.507   0.205 -0.1889 -0.1979  0.4675
 4852SOL    HW219174   1.912   4.424   0.247  3.0671 -1.9327 -0.9288
 4852SOL    HW319175   1.893   4.501   0.119 -0.1347 -0.2458  0.4453
 4852SOL    MW419176   1.925   4.495   0.199 -0.3248 -0.2911 -0.1949
 4853SOL     OW19177   3.449   4.825   3.228 -0.8558 -0.5956 -0.0921
 4853SOL    HW219178   3.454   4.767   3.303 -0.7200  1.2800  1.4406
 4853SOL    HW319179   3.377   4.885   3.249  2.3728  3.2525  1.1319
 4853SOL    MW419180   3.440   4.826   3.241  0.5417  0.2491  0.1772
 4854SOL     OW19181   3.750   3.312   4.765 -0.0962  0.3051 -0.4531
 4854SOL    HW219182   3.795   3.258   4.830  0.3634  1.2211  0.0039
 4854SOL    HW319183   3.663   3.273   4.758 -0.6142  0.9125  1.6711
 4854SOL    MW419184   3.745   3.300   4.773 -0.0623 -0.5088 -0.1095
 4855SOL     OW19185   0.925   4.685   2.707 -0.5808  0.4812  0.2397
 4855SOL    HW219186   0.877   4.606   2.729 -0.8899  0.5598 -0.1330
 4855SOL    HW319187   0.968   4.712   2.788 -1.4569  0.6107  0.6705
 4855SOL    MW419188   0.924   4.678   2.721  0.8279  0.1735  0.6237
 4856SOL     OW19189   0.852   3.061   3.719 -0.0993  0.1980  0.1603
 4856SOL    HW219190   0.853   3.085   3.812 -1.6287  0.3282  0.1696
 4856SOL    HW319191   0.838   3.144   3.673 -0.3316 -0.0008 -0.1287
 4856SOL    MW419192   0.851   3.075   3.725  0.1182  0.1272 -0.0688
 4857SOL     OW19193   3.589   5.006   3.021  0.1531 -0.6344  0.5177
 4857SOL    HW219194   3.657   4.948   2.987 -1.4505 -1.9605 -0.5837
 4857SOL    HW319195   3.563   4.967   3.104  0.8641  0.0024  1.0525
 4857SOL    MW419196   3.594   4.993   3.027 -0.3035 -0.1922 -0.4077
 4858SOL     OW19197   2.319   1.717   3.575  0.1496  0.0864  0.0574
 4858SOL    HW219198   2.354   1.707   3.486 -0.6707 -1.2636 -0.1401
 4858SOL    HW319199   2.354   1.801   3.605 -0.6025  1.2101 -2.0212
 4858SOL    MW419200   2.328   1.727   3.567  0.2558 -0.1399  0.1525
 4859SOL     OW19201   3.858   4.590   2.085 -0.6312  0.4051 -0.1646
 4859SOL    HW219202   3.901   4.604   2.169 -0.9273  0.6658 -0.0557
 4859SOL    HW319203   3.775   4.548   2.108 -0.2940 -0.4110 -0.3971
 4859SOL    MW419204   3.853   4.586   2.099 -0.6287  0.0637 -0.3717
 4860SOL     OW19205   5.832   0.318   1.664  0.4205 -0.1422  0.1191
 4860SOL    HW219206   5.870   0.312   1.751 -0.5022 -0.3476  0.5188
 4860SOL    HW319207   5.891   0.266   1.609  0.7175 -0.4545  0.7168
 4860SOL    MW419208   5.845   0.310   1.668 -0.0263  0.4169  0.0435
 4861SOL     OW19209   2.168   1.186   3.613 -0.1847 -0.0838  0.7019
 4861SOL    HW219210   2.122   1.174   3.530  1.7312  2.2694 -0.8248
 4861SOL    HW319211   2.099   1.180   3.680 -2.7275  2.7213 -1.3757
 4861SOL    MW419212   2.153   1.184   3.611 -0.5628 -0.5452 -0.0901
 4862SOL     OW19213   0.862   2.212   4.616  0.4819  0.6368 -0.5534
 4862SOL    HW219214   0.772   2.214   4.650  0.4760 -0.8557 -0.3941
 4862SOL    HW319215   0.912   2.169   4.685  0.7554 -1.1060 -1.7724
 4862SOL    MW419216   0.857   2.207   4.629  0.4024 -0.0882 -0.4381
 4863SOL     OW19217   0.166   4.780   1.179 -0.0548  0.0199  0.3959
 4863SOL    HW219218   0.104   4.713   1.150 -0.8744  1.4153 -1.2831
 4863SOL    HW319219   0.239   4.774   1.117  0.5786 -0.3123  1.1644
 4863SOL    MW419220   0.167   4.771   1.167 -0.0415 -0.0704 -0.8477
 4864SOL     OW19221   1.256   2.398   1.505  0.2406 -0.6193 -0.2078
 4864SOL    HW219222   1.286   2.453   1.577  0.2320 -1.7474  0.6820
 4864SOL    HW319223   1.336   2.378   1.456  0.7482 -2.1667  1.1478
 4864SOL    MW419224   1.271   2.403   1.508 -0.1967  0.1000  0.4623
 4865SOL     OW19225   2.076   0.793   6.128  0.4174 -0.0771 -0.7691
 4865SOL    HW219226   2.163   0.759   6.110 -0.0556 -1.5547 -0.4026
 4865SOL    HW319227   2.035   0.726   6.183 -1.0496  0.4477 -1.1763
 4865SOL    MW419228   2.082   0.780   6.133 -0.3644 -0.0456 -0.0707
 4866SOL     OW19229   2.508   4.968   0.011 -0.1565 -0.3140  0.1144
 4866SOL    HW219230   2.468   4.894   0.056 -1.6157  0.6959  0.5626
 4866SOL    HW319231   2.437   5.006  -0.042  0.2179  1.4204  0.7646
 4866SOL    MW419232   2.493   4.964   0.010 -0.5300  0.0304  0.4519
 4867SOL     OW19233   5.252   4.119   1.846  0.2661 -0.1097 -0.3222
 4867SOL    HW219234   5.311   4.173   1.898  1.3948 -2.5457  1.0638
 4867SOL    HW319235   5.168   4.124   1.893 -0.5190  2.5233 -1.7409
 4867SOL    MW419236   5.249   4.127   1.859  0.0525  0.2786 -0.3922
 4868SOL     OW19237   3.874   3.206   5.423 -0.0975 -0.4926 -0.4560
 4868SOL    HW219238   3.897   3.190   5.332 -0.1931 -0.5775 -0.4643
 4868SOL    HW319239   3.871   3.302   5.431  1.5294 -0.4308 -0.1510
 4868SOL    MW419240   3.877   3.217   5.412 -0.0271  0.3110 -0.1130
 4869SOL     OW19241   1.623   4.695   0.315 -0.1964 -0.8225 -0.3272
 4869SOL    HW219242   1.644   4.657   0.230  3.2358  0.0262 -0.0044
 4869SOL    HW319243   1.682   4.651   0.376  0.3764  1.4765  0.8790
 4869SOL    MW419244   1.633   4.684   0.312 -0.3958  0.4401 -0.0550
 4870SOL     OW19245   0.430   5.986   5.177  0.2693  0.1548  0.0071
 4870SOL    HW219246   0.519   5.969   5.145  0.8477  1.9068  0.5544
 4870SOL    HW319247   0.439   5.993   5.272 -0.7935 -1.3849  0.2585
 4870SOL    MW419248   0.443   5.985   5.185  0.1143  0.3403  0.1152
 4871SOL     OW19249   1.102   4.575   4.378  0.0507 -0.5358  0.4477
 4871SOL    HW219250   1.069   4.608   4.461 -2.6047 -1.0540 -0.3286
 4871SOL    HW319251   1.025   4.565   4.323  1.1856 -4.1066 -0.7615
 4871SOL    MW419252   1.088   4.578   4.382  0.9118 -0.2496  0.2534
 4872SOL     OW19253   5.476   0.336   4.755 -0.0332 -0.5229 -0.1788
 4872SOL    HW219254   5.384   0.349   4.778 -0.7152 -0.9872 -2.4437
 4872SOL    HW319255   5.476   0.319   4.661  2.3839 -0.5192 -0.2551
 4872SOL    MW419256   5.464   0.336   4.745  0.1918  0.1953 -0.0299
 4873SOL     OW19257   0.793   0.513   0.932  0.2700 -0.1162  0.2993
 4873SOL    HW219258   0.702   0.528   0.957  0.1455 -1.4191  0.7209
 4873SOL    HW319259   0.843   0.527   1.013  0.1577 -1.7679  0.6824
 4873SOL    MW419260   0.788   0.517   0.946  0.1518 -0.2077 -0.1892
 4874SOL     OW19261   2.206   5.903   0.265 -0.7141 -0.1103  0.2326
 4874SOL    HW219262   2.145   5.869   0.199 -0.1162 -3.0462  1.0427
 4874SOL    HW319263   2.166   5.879   0.349 -0.2330  1.3105  0.9030
 4874SOL    MW419264   2.192   5.895   0.267  0.3315 -0.2527 -0.4881
 4875SOL     OW19265   2.888   5.671   2.860  0.4857  0.7704 -0.1368
 4875SOL    HW219266   2.930   5.737   2.915  1.8539 -0.2827  0.1509
 4875SOL    HW319267   2.825   5.627   2.918  0.4744  1.0030  0.0267
 4875SOL    MW419268   2.885   5.674   2.875 -0.0194 -0.3830 -0.2342
 4876SOL     OW19269   3.511   4.164   6.226  0.0424 -0.7132 -0.2210
 4876SOL    HW219270   3.515   4.127   6.137  2.7916 -0.1033 -0.4358
 4876SOL    HW319271   3.598   4.199   6.241 -1.2788  2.1441  1.5202
 4876SOL    MW419272   3.523   4.164   6.216 -0.1128 -0.0679  0.1285
 4877SOL     OW19273   0.884   0.361   4.528  0.0524 -0.1208  0.0574
 4877SOL    HW219274   0.807   0.308   4.547 -0.9237  2.0993  3.1423
 4877SOL    HW319275   0.865   0.401   4.443 -1.8378 -0.3015  0.3507
 4877SOL    MW419276   0.871   0.359   4.520 -0.1690  0.3270  0.1615
 4878SOL     OW19277   3.005   5.321   3.714  0.0075  0.1234  0.0891
 4878SOL    HW219278   3.058   5.380   3.767 -1.2117  0.3340  1.0974
 4878SOL    HW319279   3.026   5.346   3.624  1.5171  0.2807  0.4533
 4878SOL    MW419280   3.015   5.332   3.709 -0.0272  0.1839 -0.1156
 4879SOL     OW19281   4.142   5.371   3.043  0.1538  0.3775 -0.5504
 4879SOL    HW219282   4.055   5.409   3.056  1.0736  2.1616  0.8734
 4879SOL    HW319283   4.161   5.386   2.950 -0.6889  0.8167 -0.6633
 4879SOL    MW419284   4.133   5.378   3.032  0.7545 -0.2319  0.1074
 4880SOL     OW19285   4.874   1.207   0.451  0.1631 -0.4632 -0.3814
 4880SOL    HW219286   4.897   1.114   0.445  0.4894 -0.4072 -0.0471
 4880SOL    HW319287   4.860   1.222   0.545  1.9140  0.2364 -0.1943
 4880SOL    MW419288   4.875   1.197   0.463  0.8681  0.2952 -0.6082
 4881SOL     OW19289   4.603   2.693   3.386  0.2103 -0.2584  0.1476
 4881SOL    HW219290   4.530   2.753   3.398  1.1782  1.0001  0.0042
 4881SOL    HW319291   4.564   2.612   3.353 -1.0555  0.5220 -0.2909
 4881SOL    MW419292   4.588   2.690   3.383  0.3121 -0.1897  0.2811
 4882SOL     OW19293   1.801   5.791   3.993 -0.0098 -0.2170 -0.3264
 4882SOL    HW219294   1.729   5.791   3.930 -2.5815  2.0602  2.3171
 4882SOL    HW319295   1.792   5.874   4.041  2.1923 -1.4330  2.5446
 4882SOL    MW419296   1.790   5.802   3.991 -0.2253 -0.0548 -0.4455
 4883SOL     OW19297   3.398   2.965   1.620  0.0140 -0.3864  0.2678
 4883SOL    HW219298   3.404   2.987   1.527  1.7261 -1.9022 -0.0260
 4883SOL    HW319299   3.480   2.920   1.640 -1.7107 -3.1677  1.6862
 4883SOL    MW419300   3.409   2.962   1.611 -0.5088 -0.3905  0.5982
 4884SOL     OW19301   4.124   3.692   2.287 -0.0293 -0.0107  1.0029
 4884SOL    HW219302   4.219   3.678   2.296  0.3704  0.8624 -1.2470
 4884SOL    HW319303   4.086   3.604   2.296  1.1434 -0.5931  0.4956
 4884SOL    MW419304   4.132   3.679   2.289 -0.4142  0.9370 -0.4403
 4885SOL     OW19305   0.690   3.181   0.036  0.0706  0.4236 -0.4723
 4885SOL    HW219306   0.645   3.218   0.112 -2.5472  1.6266 -2.4788
 4885SOL    HW319307   0.680   3.086   0.047  1.3785  0.4443  1.5378
 4885SOL    MW419308   0.683   3.173   0.047  0.1194 -0.1678 -0.1151
 4886SOL     OW19309   5.182   1.989   3.404 -0.0349  0.2011  0.6225
 4886SOL    HW219310   5.120   2.035   3.460  0.8653 -0.6166  2.3682
 4886SOL    HW319311   5.227   1.927   3.462  1.5646 -0.0898 -0.8179
 4886SOL    MW419312   5.180   1.987   3.419 -0.2609  0.0517  0.0739
 4887SOL     OW19313   3.242   4.026   1.814  0.5927  0.2154 -0.5278
 4887SOL    HW219314   3.335   4.045   1.822  0.9364 -0.5481 -2.2855
 4887SOL    HW319315   3.235   3.932   1.828 -0.1778  0.4994  1.2934
 4887SOL    MW419316   3.253   4.016   1.817  0.2803  0.5657  0.2095
 4888SOL     OW19317   1.170   5.818   0.818  0.2430  0.0647  0.0411
 4888SOL    HW219318   1.134   5.729   0.823  1.8429 -0.6520 -0.4839
 4888SOL    HW319319   1.246   5.810   0.760  1.0469  1.5658  0.8163
 4888SOL    MW419320   1.175   5.805   0.811 -0.1617  0.2357 -0.4093
 4889SOL     OW19321   4.517   5.393   1.454 -0.7408  0.5949  0.6361
 4889SOL    HW219322   4.564   5.354   1.527 -0.2946  2.5568  1.4782
 4889SOL    HW319323   4.467   5.321   1.415  0.5857 -0.8970  1.6120
 4889SOL    MW419324   4.516   5.379   1.458  0.3948 -0.5135  0.5804
 4890SOL     OW19325   3.903   4.353   1.129  0.0627 -0.0638  0.3990
 4890SOL    HW219326   3.890   4.421   1.195 -1.1521  0.5618 -0.4335
 4890SOL    HW319327   3.857   4.387   1.052  0.4509 -1.3049 -0.3929
 4890SOL    MW419328   3.895   4.367   1.128 -0.3752  0.0688 -0.7230
 4891SOL     OW19329   1.625   3.439   5.148 -0.2830  0.6631  0.0888
 4891SOL    HW219330   1.634   3.360   5.200 -1.8021  0.9216  0.7783
 4891SOL    HW319331   1.699   3.435   5.086 -0.4071 -1.3474 -0.0018
 4891SOL    MW419332   1.636   3.428   5.147  0.2676 -0.2004  0.7978
 4892SOL     OW19333   0.673   5.932   3.841 -0.1483 -0.0614 -0.5434
 4892SOL    HW219334   0.620   5.858   3.810 -0.1586 -0.1382 -0.3482
 4892SOL    HW319335   0.761   5.915   3.808  0.5593 -1.6925  1.8705
 4892SOL    MW419336   0.677   5.920   3.833  0.2211  0.2638 -0.0607
 4893SOL     OW19337   3.584   5.816   2.642  0.2724  0.8970  0.1363
 4893SOL    HW219338   3.522   5.848   2.708 -0.3100 -1.2399  0.7282
 4893SOL    HW319339   3.541   5.836   2.559 -1.6509 -1.1299  0.5394
 4893SOL    MW419340   3.570   5.823   2.640  0.2924 -0.0136  0.0734
 4894SOL     OW19341   5.567   5.097   6.006  0.1134  0.1260  0.2164
 4894SOL    HW219342   5.639   5.079   5.946  1.5810 -0.4970  2.0677
 4894SOL    HW319343   5.497   5.038   5.979  0.5622  0.2002 -1.1597
 4894SOL    MW419344   5.567   5.087   5.995 -0.2698 -0.7269 -0.3822
 4895SOL     OW19345   1.433   2.397   1.023  0.8401  0.0281 -0.2267
 4895SOL    HW219346   1.431   2.447   0.941 -0.3647  1.7592  0.7821
 4895SOL    HW319347   1.511   2.427   1.069  1.6741 -1.1542 -0.8299
 4895SOL    MW419348   1.443   2.407   1.018 -0.8838 -0.3466  0.5944
 4896SOL     OW19349   0.618   3.870   1.736  0.5957 -0.4573 -0.2936
 4896SOL    HW219350   0.562   3.899   1.808  1.4270  1.3080 -0.3240
 4896SOL    HW319351   0.703   3.855   1.776  1.2300  1.1349 -0.9851
 4896SOL    MW419352   0.622   3.872   1.751 -0.1183 -0.3689  0.2133
 4897SOL     OW19353   3.923   1.032   2.897  0.1713 -0.2509  0.4927
 4897SOL    HW219354   3.851   1.075   2.943  1.2568  1.1367  1.0024
 4897SOL    HW319355   3.894   1.025   2.806 -1.4909 -1.8462  1.0849
 4897SOL    MW419356   3.910   1.037   2.891  0.1322  0.0173  0.6276
 4898SOL     OW19357   2.811   5.648   1.447 -0.3340  0.8148  0.4496
 4898SOL    HW219358   2.760   5.570   1.428  1.3470 -0.6029  1.4734
 4898SOL    HW319359   2.831   5.685   1.360  0.3103 -0.8792 -0.1555
 4898SOL    MW419360   2.807   5.643   1.433  0.1416 -0.1492  0.0875
 4899SOL     OW19361   3.379   2.536   2.961 -0.4669 -0.1550  0.0057
 4899SOL    HW219362   3.465   2.562   2.927 -0.1881 -1.3548 -0.2501
 4899SOL    HW319363   3.317   2.586   2.908  0.0255 -0.5428 -0.9737
 4899SOL    MW419364   3.382   2.546   2.950  0.2325  0.0543  0.4065
 4900SOL     OW19365   6.153   5.513   1.492  0.1554 -0.0044  0.2379
 4900SOL    HW219366   6.139   5.579   1.560  1.9993 -1.3478  2.0560
 4900SOL    HW319367   6.125   5.431   1.533 -0.6688 -0.5947 -1.4247
 4900SOL    MW419368   6.147   5.511   1.506  0.1395  0.2444 -0.0960
 4901SOL     OW19369   3.296   3.327   1.997  0.0448  0.7375 -0.2538
 4901SOL    HW219370   3.368   3.305   2.056 -0.3042  0.0753 -0.0668
 4901SOL    HW319371   3.338   3.338   1.912  0.0543 -2.4614 -0.7713
 4901SOL    MW419372   3.311   3.326   1.994  0.1997 -0.1489 -0.1222
 4902SOL     OW19373   6.370   4.024   3.023  0.1367  0.2124  0.1401
 4902SOL    HW219374   6.369   3.965   3.099  0.0742 -0.5714 -0.4504
 4902SOL    HW319375   6.454   4.069   3.029  1.0955 -1.3893 -0.4468
 4902SOL    MW419376   6.381   4.022   3.034  0.5053 -0.2395  0.7611
 4903SOL     OW19377   2.788   5.212   4.059 -0.1992  0.3319 -1.0143
 4903SOL    HW219378   2.807   5.161   3.981  2.0726 -1.4387  0.5469
 4903SOL    HW319379   2.803   5.151   4.132  1.9831  2.9494  0.9691
 4903SOL    MW419380   2.793   5.197   4.058 -0.4943  0.2460  0.3632
 4904SOL     OW19381   2.353   0.891   6.370 -0.5534 -0.0111 -0.0559
 4904SOL    HW219382   2.306   0.956   6.423  0.7518  0.7187  0.2424
 4904SOL    HW319383   2.436   0.879   6.415  0.0740 -0.3348 -1.2590
 4904SOL    MW419384   2.357   0.898   6.383 -0.0039 -0.4894  0.1729
 4905SOL     OW19385   4.699   1.496   0.891 -0.1911 -0.0572 -0.2636
 4905SOL    HW219386   4.673   1.426   0.951  0.8780 -0.1855  0.0678
 4905SOL    HW319387   4.681   1.577   0.940 -0.4143 -0.1288 -0.2256
 4905SOL    MW419388   4.693   1.497   0.906  0.0310  0.0281 -0.5116
 4906SOL     OW19389   0.123   2.233   4.459  0.0486  0.1891  0.3158
 4906SOL    HW219390   0.154   2.310   4.411 -0.9020  0.1888 -0.3240
 4906SOL    HW319391   0.198   2.206   4.511  2.3193 -1.7877 -3.5756
 4906SOL    MW419392   0.137   2.240   4.459 -0.3108 -0.3636 -0.2744
 4907SOL     OW19393   0.317   4.803   5.739  0.2518 -0.1891  0.2592
 4907SOL    HW219394   0.322   4.709   5.755 -2.6922 -0.5210 -0.2453
 4907SOL    HW319395   0.227   4.826   5.761  0.7414  2.4312 -0.1839
 4907SOL    MW419396   0.306   4.794   5.744  0.1144  0.5770 -0.5363
 4908SOL     OW19397   5.598   2.966   3.574  0.3374 -0.4902  0.3948
 4908SOL    HW219398   5.538   2.940   3.504  0.8096 -1.0925  0.2060
 4908SOL    HW319399   5.677   2.914   3.559  0.7470 -0.0334  0.9002
 4908SOL    MW419400   5.600   2.956   3.563  0.0469 -0.2020  0.4611
 4909SOL     OW19401   3.686   1.991   5.094  0.3740  0.4822  0.0130
 4909SOL    HW219402   3.615   1.983   5.030 -0.8368 -0.6222  1.4397
 4909SOL    HW319403   3.745   1.920   5.072 -0.1394 -0.0184  0.2240
 4909SOL    MW419404   3.684   1.981   5.083  0.5225  0.5016 -0.0830
 4910SOL     OW19405   1.416   0.192   1.539  0.7921  0.0615 -0.5246
 4910SOL    HW219406   1.478   0.145   1.483  2.9322  1.1678  0.7998
 4910SOL    HW319407   1.458   0.275   1.558 -1.4163  1.1403 -0.0541
 4910SOL    MW419408   1.430   0.197   1.534 -0.0183  0.2590  0.4025
 4911SOL     OW19409   1.976   3.016   0.837  0.3172 -0.0563 -0.0809
 4911SOL    HW219410   1.909   3.001   0.903  2.0754 -0.4816  1.7111
 4911SOL    HW319411   1.929   3.055   0.763 -2.4152 -3.2551 -0.2305
 4911SOL    MW419412   1.961   3.019   0.835  0.2016 -0.3047  0.0638
 4912SOL     OW19413   0.071   4.137   5.922 -0.6189 -0.2084  0.1054
 4912SOL    HW219414   0.001   4.178   5.972 -0.3085 -1.5467  1.7126
 4912SOL    HW319415   0.129   4.210   5.898 -1.4040  0.6173  0.6567
 4912SOL    MW419416   0.069   4.152   5.925 -0.6887 -0.2208 -0.2208
 4913SOL     OW19417   2.904   1.296   2.994  0.7799  0.3763 -0.2779
 4913SOL    HW219418   2.935   1.326   2.908  3.8675  0.6405  0.8028
 4913SOL    HW319419   2.887   1.203   2.983 -1.9348  0.9294 -1.8554
 4913SOL    MW419420   2.906   1.288   2.981 -0.6314  0.1159 -0.2606
 4914SOL     OW19421   1.121   2.041   5.005  0.6626 -0.3603  0.0708
 4914SOL    HW219422   1.184   1.974   4.978  2.1101  1.4559 -1.3480
 4914SOL    HW319423   1.175   2.110   5.042 -0.8140 -0.0212  1.6791
 4914SOL    MW419424   1.137   2.041   5.006 -0.3839 -0.6652  0.4830
 4915SOL     OW19425   0.558   0.823   3.945 -0.1023 -0.0162 -0.0685
 4915SOL    HW219426   0.562   0.850   4.037 -0.1056 -1.0917  0.2600
 4915SOL    HW319427   0.628   0.759   3.936  0.6277  0.9037 -1.1143
 4915SOL    MW419428   0.567   0.818   3.956  0.3884 -0.2844 -0.0678
 4916SOL     OW19429   4.545   6.203   1.000 -0.0054  0.0890  0.4584
 4916SOL    HW219430   4.625   6.167   1.040 -0.6147 -0.4034  1.2903
 4916SOL    HW319431   4.513   6.133   0.943 -1.5362 -1.0421  2.5608
 4916SOL    MW419432   4.551   6.189   0.998 -0.1824  0.2183  0.6277
 4917SOL     OW19433   4.595   4.413   0.370  0.2436 -0.3547 -0.6614
 4917SOL    HW219434   4.540   4.491   0.359  1.2022  0.3286 -0.7119
 4917SOL    HW319435   4.663   4.421   0.303  0.6536 -0.9748 -0.3342
 4917SOL    MW419436   4.597   4.424   0.360 -0.2768 -0.5279 -0.4790
 4918SOL     OW19437   1.143   0.022   3.037 -0.6017  0.0076  0.3484
 4918SOL    HW219438   1.170  -0.031   2.962 -0.7654 -0.1140  0.3754
 4918SOL    HW319439   1.225   0.043   3.082 -0.5250 -0.1132  0.2657
 4918SOL    MW419440   1.157   0.018   3.033 -0.1390 -0.0127  0.2398
 4919SOL     OW19441   5.476   2.573   2.969  0.2863  0.0236  0.0993
 4919SOL    HW219442   5.508   2.539   2.885 -1.3256 -0.9149 -0.1819
 4919SOL    HW319443   5.549   2.561   3.029  1.3164  0.2870 -1.0528
 4919SOL    MW419444   5.490   2.567   2.966  0.0401 -0.6574 -0.4180
 4920SOL     OW19445   6.128   4.837   0.264 -0.3020  0.1681  0.4150
 4920SOL    HW219446   6.111   4.745   0.281 -0.0385 -0.1089 -0.7297
 4920SOL    HW319447   6.214   4.853   0.302 -0.0624 -0.2326  0.0515
 4920SOL    MW419448   6.137   4.827   0.271 -0.8080 -0.3361 -0.2274
 4921SOL     OW19449   0.669   3.106   0.904  0.0134 -0.7601 -0.6375
 4921SOL    HW219450   0.673   3.077   0.813  0.2358 -1.9609 -0.2628
 4921SOL    HW319451   0.684   3.200   0.900  0.8043 -0.9145 -1.7741
 4921SOL    MW419452   0.672   3.115   0.891  0.3477 -0.6628  0.5892
 4922SOL     OW19453   0.259   3.053   0.576  0.0943  0.2751 -0.1354
 4922SOL    HW219454   0.220   3.007   0.650 -0.8335 -0.2386 -0.9238
 4922SOL    HW319455   0.263   3.145   0.604  1.2537 -0.1245  1.1550
 4922SOL    MW419456   0.254   3.059   0.590  0.5399 -0.0720 -0.6271
 4923SOL     OW19457   1.349   0.918   5.977 -0.2196 -0.7863  0.0082
 4923SOL    HW219458   1.379   0.893   6.064  2.2309 -0.7041 -0.7350
 4923SOL    HW319459   1.293   0.846   5.950  0.0629 -1.4640  1.1327
 4923SOL    MW419460   1.346   0.905   5.985  0.1358 -0.4905  0.4002
 4924SOL     OW19461   3.571   2.572   1.305  0.2377 -0.2608  0.1518
 4924SOL    HW219462   3.642   2.626   1.340 -0.8049  3.4520 -2.7789
 4924SOL    HW319463   3.492   2.604   1.350 -0.3049  0.1546 -1.0525
 4924SOL    MW419464   3.570   2.584   1.315  0.2974  0.2721 -0.0459
 4925SOL     OW19465   5.890   4.248   3.264  0.3283 -0.1847  0.1757
 4925SOL    HW219466   5.930   4.277   3.182  0.5121 -0.1768  0.2670
 4925SOL    HW319467   5.910   4.318   3.326 -1.1030  0.5383 -0.1377
 4925SOL    MW419468   5.898   4.261   3.261 -0.1223  0.3766 -0.9934
 4926SOL     OW19469   2.209   1.647   2.111 -0.2155  0.4525 -0.8416
 4926SOL    HW219470   2.305   1.654   2.115 -0.1256 -0.9771  0.4411
 4926SOL    HW319471   2.191   1.618   2.022  0.5629  0.4317 -1.0047
 4926SOL    MW419472   2.219   1.644   2.100  0.1723 -0.1629 -0.0384
 4927SOL     OW19473   2.784   1.891   3.144  0.5263  0.3154  0.0604
 4927SOL    HW219474   2.701   1.858   3.179  0.1390  1.1087 -0.0882
 4927SOL    HW319475   2.816   1.951   3.212  1.0448 -0.0770  0.1698
 4927SOL    MW419476   2.777   1.895   3.158 -0.0666  0.2659  0.2919
 4928SOL     OW19477   4.324   0.123   4.645  0.1417 -0.0756 -0.1102
 4928SOL    HW219478   4.302   0.153   4.556 -1.6866 -2.5988 -0.6011
 4928SOL    HW319479   4.408   0.079   4.635  0.7379  1.0410 -0.2191
 4928SOL    MW419480   4.332   0.121   4.632  0.3686  0.2466 -0.1536
 4929SOL     OW19481   4.758   4.869   2.528  0.0768 -0.5748 -0.6626
 4929SOL    HW219482   4.809   4.855   2.608 -1.9739  0.0310  0.8446
 4929SOL    HW319483   4.755   4.964   2.517  1.8454 -0.6566 -2.5822
 4929SOL    MW419484   4.764   4.880   2.537  0.2984 -0.0412 -0.2752
 4930SOL     OW19485   3.984   4.505   1.528  0.3734  0.6304  0.0384
 4930SOL    HW219486   3.980   4.520   1.622 -1.8796  1.2721 -0.0965
 4930SOL    HW319487   3.931   4.427   1.513  0.2968  0.8220 -0.7543
 4930SOL    MW419488   3.977   4.497   1.538  0.5001  0.2638 -0.3440
 4931SOL     OW19489   2.549   0.690   4.878 -0.0641  0.0294  0.1517
 4931SOL    HW219490   2.586   0.778   4.879  0.6881 -0.2807  0.4680
 4931SOL    HW319491   2.499   0.685   4.796  1.5531  0.0818 -0.8876
 4931SOL    MW419492   2.548   0.701   4.867 -0.3715  0.0855  0.0846
 4932SOL     OW19493   5.608   5.451   0.134 -0.5363 -0.3643 -0.3647
 4932SOL    HW219494   5.695   5.440   0.097 -1.2453 -0.1203 -2.2144
 4932SOL    HW319495   5.549   5.412   0.070 -2.1092  3.0183 -1.2300
 4932SOL    MW419496   5.612   5.445   0.121 -0.3839  0.0386  0.0155
 4933SOL     OW19497   3.855   5.448   0.939  0.1614  0.4347 -0.4229
 4933SOL    HW219498   3.944   5.472   0.962  0.4423  0.7236 -1.7213
 4933SOL    HW319499   3.862   5.413   0.850 -1.0906  0.9830 -0.7640
 4933SOL    MW419500   3.868   5.447   0.930  0.1492  0.0520  0.6445
 4934SOL     OW19501   1.414   2.855   0.414  0.1713 -0.2980 -0.4247
 4934SOL    HW219502   1.454   2.905   0.343 -0.3174  0.3119 -0.2812
 4934SOL    HW319503   1.382   2.775   0.372  0.1922 -0.0969 -0.8222
 4934SOL    MW419504   1.415   2.851   0.399  0.1900 -0.2520 -0.2279
 4935SOL     OW19505   2.449   4.801   3.303 -0.1954 -0.1168  0.0085
 4935SOL    HW219506   2.521   4.738   3.302 -1.5123 -1.7020 -1.6749
 4935SOL    HW319507   2.399   4.779   3.382  0.4266  0.1282  0.4747
 4935SOL    MW419508   2.452   4.790   3.313  0.2962  0.2105 -0.0991
 4936SOL     OW19509   2.044   5.885   1.199  0.0152  0.3696  0.2507
 4936SOL    HW219510   1.965   5.832   1.210  0.7183 -0.3991  1.8785
 4936SOL    HW319511   2.049   5.937   1.279  0.3652  1.5133 -0.5001
 4936SOL    MW419512   2.034   5.885   1.211 -0.3955  0.5588 -0.2156
 4937SOL     OW19513   6.344   4.769   0.435  0.5102 -0.5798 -0.5434
 4937SOL    HW219514   6.272   4.728   0.483 -0.2476  1.5296  0.2083
 4937SOL    HW319515   6.414   4.702   0.435  0.0033 -1.2230  2.1698
 4937SOL    MW419516   6.344   4.754   0.441  0.0336  0.1865  0.0223
 4938SOL     OW19517   0.918   4.050   3.533  0.0834 -0.1538  0.3890
 4938SOL    HW219518   0.893   4.143   3.529 -0.3951 -0.3089 -0.7215
 4938SOL    HW319519   0.864   4.014   3.603 -0.5901  0.1744  0.0592
 4938SOL    MW419520   0.907   4.058   3.542 -0.0705  0.0679 -0.8355
 4939SOL     OW19521   2.104   4.813   4.504  0.2997  0.3351  0.4285
 4939SOL    HW219522   2.133   4.887   4.557 -1.4737  0.0479  1.8832
 4939SOL    HW319523   2.029   4.846   4.456 -0.0866 -0.3158  0.5775
 4939SOL    MW419524   2.098   4.827   4.505  0.6832 -0.4622 -0.5366
 4940SOL     OW19525   5.429   3.419   1.642 -0.4067  0.3103  0.0995
 4940SOL    HW219526   5.408   3.416   1.548  2.1813  0.9092 -0.5997
 4940SOL    HW319527   5.384   3.344   1.679 -1.0828 -0.2485 -1.7270
 4940SOL    MW419528   5.420   3.409   1.634 -0.5477  0.4451 -0.2699
 4941SOL     OW19529   2.039   6.209   4.054  0.1572  0.6038 -0.2907
 4941SOL    HW219530   2.060   6.289   4.005 -0.4811 -0.1618 -1.8831
 4941SOL    HW319531   2.115   6.153   4.041 -0.2395  0.1925 -0.8743
 4941SOL    MW419532   2.052   6.212   4.045 -0.4810  0.2244  0.0532
 4942SOL     OW19533   2.716   3.945   5.658 -0.0205 -0.4081  0.7448
 4942SOL    HW219534   2.716   3.883   5.586  2.5624 -1.6866  1.7475
 4942SOL    HW319535   2.725   3.892   5.737  1.3314  1.1463  1.7146
 4942SOL    MW419536   2.717   3.930   5.659  0.4668  0.5979 -0.2374
 4943SOL     OW19537   6.191   2.954   2.583  0.1619  0.3069 -0.1449
 4943SOL    HW219538   6.202   2.962   2.678 -0.2798 -1.8811  0.1407
 4943SOL    HW319539   6.100   2.981   2.567  0.0898  0.2224  0.1234
 4943SOL    MW419540   6.180   2.959   2.593 -0.0651 -0.3190  0.4472
 4944SOL     OW19541   2.459   5.623   3.171 -0.3288  0.0267  0.0245
 4944SOL    HW219542   2.416   5.563   3.111  1.0038 -1.3455  0.3853
 4944SOL    HW319543   2.497   5.690   3.114 -0.1536 -0.5641 -0.5683
 4944SOL    MW419544   2.459   5.624   3.156  0.7518  0.1385 -0.1316
 4945SOL     OW19545   0.938   4.331   3.589  0.1170 -0.4534  0.1393
 4945SOL    HW219546   0.894   4.416   3.586  0.8693  0.0144  1.5077
 4945SOL    HW319547   1.018   4.344   3.537 -0.5730 -0.8547 -1.0693
 4945SOL    MW419548   0.943   4.344   3.582  0.1240  0.3164  0.2304
 4946SOL     OW19549   5.420   6.058   2.890 -0.3445  0.3236 -0.1001
 4946SOL    HW219550   5.334   6.020   2.871 -0.1200  0.5921 -1.8704
 4946SOL    HW319551   5.449   6.094   2.806  0.8280  1.6228  0.8182
 4946SOL    MW419552   5.412   6.058   2.876 -0.1232  0.6041  0.1709
 4947SOL     OW19553   4.410   5.973   5.043  0.6518 -0.6262 -0.4300
 4947SOL    HW219554   4.477   5.905   5.049 -0.2922 -1.5452  0.0734
 4947SOL    HW319555   4.363   5.953   4.961  0.6276 -0.3403 -0.4866
 4947SOL    MW419556   4.412   5.961   5.033  0.6344  0.1976  0.2920
 4948SOL     OW19557   5.806   6.090   5.465 -0.7754 -0.1408 -0.0611
 4948SOL    HW219558   5.856   6.062   5.543  0.0186  0.8656 -0.1862
 4948SOL    HW319559   5.715   6.087   5.493 -0.4495  1.1942  1.2621
 4948SOL    MW419560   5.801   6.086   5.479 -0.5131  0.0282  0.0213
 4949SOL     OW19561   1.242   4.989   2.977 -0.8112 -0.4428  0.0248
 4949SOL    HW219562   1.189   5.066   2.996 -1.4408 -0.6548 -0.8145
 4949SOL    HW319563   1.330   5.012   3.006 -0.9235  0.7148 -0.5358
 4949SOL    MW419564   1.247   5.002   2.983 -0.0709  0.6524 -0.5808
 4950SOL     OW19565   0.022   3.218   1.414 -0.4221 -0.3333 -0.3823
 4950SOL    HW219566  -0.031   3.184   1.341  0.3192 -1.1189 -0.5714
 4950SOL    HW319567  -0.030   3.289   1.450 -1.3568 -0.7234 -0.9189
 4950SOL    MW419568   0.008   3.223   1.409  0.3637 -0.2516 -0.4206
 4951SOL     OW19569   2.187   3.317   2.475 -0.3123 -0.2494 -0.0611
 4951SOL    HW219570   2.180   3.315   2.571  3.4301  0.7903  0.3753
 4951SOL    HW319571   2.096   3.317   2.445 -1.6827  0.9661  3.5242
 4951SOL    MW419572   2.174   3.317   2.484 -0.5591 -0.7282  0.7685
 4952SOL     OW19573   2.533   4.081   2.352  0.6117  0.3643 -0.0426
 4952SOL    HW219574   2.492   4.083   2.438  1.2850 -1.6377  0.3826
 4952SOL    HW319575   2.626   4.092   2.370  0.5158  2.9496 -0.8238
 4952SOL    MW419576   2.540   4.082   2.366  0.1879  0.2708  0.2352
 4953SOL     OW19577   4.974   1.496   1.122  0.1240  0.0739  0.3687
 4953SOL    HW219578   5.020   1.540   1.051  0.7442 -3.1462 -1.4269
 4953SOL    HW319579   5.008   1.535   1.202  0.3005  2.9922 -1.0313
 4953SOL    MW419580   4.985   1.507   1.123 -0.0987  0.3437  0.2094
 4954SOL     OW19581   5.285   1.485   4.286 -0.4913  0.2589 -0.5881
 4954SOL    HW219582   5.260   1.409   4.234 -0.6115 -0.3131  0.2824
 4954SOL    HW319583   5.239   1.559   4.245 -1.8383 -0.4180 -0.3652
 4954SOL    MW419584   5.276   1.485   4.274  0.2303 -0.0068 -0.1561
 4955SOL     OW19585   0.182   3.427   3.116 -0.0649  0.1662  0.1342
 4955SOL    HW219586   0.250   3.493   3.101  0.2732  0.0154  0.9459
 4955SOL    HW319587   0.197   3.362   3.047  0.8712 -0.0617  0.5262
 4955SOL    MW419588   0.193   3.428   3.105  0.0548 -0.0490  0.1486
 4956SOL     OW19589   0.335   4.264   3.853  0.4887  0.0790 -0.1450
 4956SOL    HW219590   0.304   4.266   3.943  0.8601 -0.2841 -0.0054
 4956SOL    HW319591   0.376   4.350   3.840 -0.4019  0.4918 -0.2768
 4956SOL    MW419592   0.336   4.276   3.863 -0.0559 -0.3242 -0.0116
 4957SOL     OW19593   4.735   1.803   2.227  0.2362 -0.1969 -0.6545
 4957SOL    HW219594   4.730   1.711   2.204  3.3293 -0.4185 -0.8851
 4957SOL    HW319595   4.820   1.832   2.193 -0.7685  2.8556 -0.9341
 4957SOL    MW419596   4.746   1.795   2.220  0.6548 -0.0194  0.3521
 4958SOL     OW19597   3.748   3.889   0.921 -0.4328 -0.1053  0.2818
 4958SOL    HW219598   3.766   3.862   1.011 -1.5911  1.4511  1.0438
 4958SOL    HW319599   3.829   3.931   0.892 -0.0735 -0.5595  0.6204
 4958SOL    MW419600   3.761   3.891   0.929 -0.2363 -0.0607 -0.2950
 4959SOL     OW19601   1.625   0.528   6.243  0.1486  0.1074  0.2143
 4959SOL    HW219602   1.548   0.482   6.276 -0.7640  2.7074  2.1296
 4959SOL    HW319603   1.639   0.492   6.156 -2.2930 -1.5585  0.3939
 4959SOL    MW419604   1.616   0.517   6.236  0.0525 -0.4773  0.6000
 4960SOL     OW19605   6.043   6.254   2.074 -0.0195 -0.3793  0.1333
 4960SOL    HW219606   5.992   6.235   2.153 -0.8444  0.3911 -0.1855
 4960SOL    HW319607   5.995   6.209   2.004  0.6747 -1.0129  0.0611
 4960SOL    MW419608   6.030   6.246   2.075 -0.0052  0.2777  0.3440
 4961SOL     OW19609   5.078   1.707   5.019  0.5801  0.2441 -0.1614
 4961SOL    HW219610   5.144   1.764   5.058  0.8024 -0.4771  0.5480
 4961SOL    HW319611   5.001   1.720   5.074  0.8162 -0.5822  0.3818
 4961SOL    MW419612   5.077   1.716   5.032  0.4121  0.1341 -0.1293
 4962SOL     OW19613   0.166   1.058   1.580  0.0546 -0.1543  0.3176
 4962SOL    HW219614   0.223   0.982   1.582 -0.4988 -0.5948 -0.2421
 4962SOL    HW319615   0.217   1.127   1.622  0.1160 -1.1302  1.9212
 4962SOL    MW419616   0.180   1.057   1.586 -0.4819 -0.2173 -0.2391
 4963SOL     OW19617   3.775   2.123   3.418  0.0647  0.0675  1.0865
 4963SOL    HW219618   3.851   2.106   3.474  0.9614 -1.1258 -0.4032
 4963SOL    HW319619   3.804   2.193   3.360  0.2201 -0.7118  0.2044
 4963SOL    MW419620   3.789   2.130   3.418  0.2830 -0.0900 -0.2525
 4964SOL     OW19621   0.548   4.759   2.821  0.8236 -0.3817 -0.3795
 4964SOL    HW219622   0.570   4.738   2.730  0.4476  3.2577 -1.4333
 4964SOL    HW319623   0.452   4.756   2.824  0.8348 -0.5008 -0.0647
 4964SOL    MW419624   0.538   4.756   2.809  0.8882  0.8832  0.0755
 4965SOL     OW19625   4.077   2.561   2.380  0.2643 -0.3706  0.5447
 4965SOL    HW219626   4.164   2.569   2.417  0.0018 -0.1656  1.1223
 4965SOL    HW319627   4.077   2.620   2.305  0.6364 -0.4107  0.5131
 4965SOL    MW419628   4.088   2.570   2.375  0.0827 -0.1384  0.6952
 4966SOL     OW19629   3.691   1.152   1.505  0.0391 -0.0080  0.7318
 4966SOL    HW219630   3.626   1.118   1.445  2.5137 -1.6040 -1.2381
 4966SOL    HW319631   3.675   1.246   1.507 -1.1742 -0.1259 -1.1307
 4966SOL    MW419632   3.680   1.160   1.498 -0.1900  0.1633  0.1107
 4967SOL     OW19633   4.300   0.379   3.086 -0.3333 -0.1316  0.1820
 4967SOL    HW219634   4.262   0.465   3.066  4.3923  2.4835  0.9558
 4967SOL    HW319635   4.337   0.350   3.003  0.5540  0.0324  0.5138
 4967SOL    MW419636   4.300   0.387   3.073  0.6394 -0.1907  0.0447
 4968SOL     OW19637   6.330   5.684   2.268 -0.3809 -0.1178  0.1303
 4968SOL    HW219638   6.278   5.604   2.257 -1.0096 -0.0636  2.2821
 4968SOL    HW319639   6.407   5.669   2.213  0.4094 -3.0397  1.7699
 4968SOL    MW419640   6.333   5.671   2.259  0.3651 -0.0233  0.7461
 4969SOL     OW19641   0.195   5.172   3.402 -0.3251 -0.4231  0.7286
 4969SOL    HW219642   0.194   5.251   3.348 -0.4996  0.2855  1.7452
 4969SOL    HW319643   0.156   5.199   3.485  0.2657 -1.3971  1.3410
 4969SOL    MW419644   0.190   5.186   3.406 -0.3814  0.3115  0.5364
 4970SOL     OW19645   0.595   2.027   0.265 -0.2437  0.0906  0.4924
 4970SOL    HW219646   0.653   2.064   0.332  0.6013  2.7078 -1.5110
 4970SOL    HW319647   0.644   1.954   0.228 -0.2180 -0.6170  1.8613
 4970SOL    MW419648   0.609   2.022   0.269 -0.2604 -0.3126  0.1075
 4971SOL     OW19649   1.870   1.150   0.995 -0.8590  0.0277 -0.1051
 4971SOL    HW219650   1.836   1.064   0.970  1.5221 -1.0819  0.1816
 4971SOL    HW319651   1.823   1.172   1.075 -0.1246 -1.9911  0.9447
 4971SOL    MW419652   1.859   1.142   1.002  0.3001  0.1412  0.1481
 4972SOL     OW19653   5.657   2.504   5.688  0.2920 -0.2763 -0.7841
 4972SOL    HW219654   5.709   2.579   5.715  0.8331 -0.7395 -0.5172
 4972SOL    HW319655   5.711   2.428   5.710 -0.8165 -0.8097  0.2457
 4972SOL    MW419656   5.671   2.504   5.694 -0.6537 -0.1448 -0.0790
 4973SOL     OW19657   0.115   3.499   4.790 -0.0014  0.1235  0.1292
 4973SOL    HW219658   0.119   3.437   4.862 -0.6240 -0.8408 -0.6355
 4973SOL    HW319659   0.026   3.489   4.755 -0.2955  1.8202  0.3009
 4973SOL    MW419660   0.104   3.489   4.795 -0.0337 -0.2017 -0.2019
 4974SOL     OW19661   4.472   1.245   2.617 -0.4102  0.1123  0.2581
 4974SOL    HW219662   4.556   1.203   2.596 -1.9269 -2.1465 -1.8069
 4974SOL    HW319663   4.467   1.319   2.557 -0.0954 -0.0134  0.0695
 4974SOL    MW419664   4.483   1.249   2.606  0.5171 -0.3714  0.0830
 4975SOL     OW19665   5.940   4.425   2.711 -0.4905  0.2430  0.2162
 4975SOL    HW219666   5.858   4.384   2.682  0.8365 -1.7102 -1.0110
 4975SOL    HW319667   5.985   4.448   2.630  0.7110  0.1775  0.8433
 4975SOL    MW419668   5.935   4.423   2.696 -0.3313 -0.4634 -0.7336
 4976SOL     OW19669   3.729   5.037   0.671  0.4392  0.1917 -0.3708
 4976SOL    HW219670   3.671   4.963   0.654  2.2489 -1.7379  1.3098
 4976SOL    HW319671   3.684   5.086   0.740  0.7486 -1.3174  0.9736
 4976SOL    MW419672   3.715   5.034   0.678  0.2245 -0.0631 -0.3076
 4977SOL     OW19673   5.204   3.187   5.028  0.0889  0.2340 -0.4684
 4977SOL    HW219674   5.250   3.261   5.068  1.1619 -0.8345  0.3111
 4977SOL    HW319675   5.255   3.168   4.949 -0.3896  0.5212 -0.8575
 4977SOL    MW419676   5.217   3.194   5.023 -0.0457  0.0771  0.3966
 4978SOL     OW19677   2.396   1.258   4.964  0.0635 -0.4682  0.0382
 4978SOL    HW219678   2.348   1.223   4.888 -0.7816  1.5562 -0.4089
 4978SOL    HW319679   2.331   1.259   5.034 -0.0837  0.6486 -0.0988
 4978SOL    MW419680   2.381   1.253   4.963 -0.2592  0.4064  0.0167
 4979SOL     OW19681   2.674   1.139   4.752  0.4236  0.1697  0.1878
 4979SOL    HW219682   2.757   1.111   4.712  0.3846 -0.0257  0.2439
 4979SOL    HW319683   2.607   1.109   4.691  0.4520  1.3048 -0.4174
 4979SOL    MW419684   2.676   1.131   4.739  0.4453 -0.2314  0.2346
 4980SOL     OW19685   2.371   2.074   2.257 -0.2904  0.2897 -0.3639
 4980SOL    HW219686   2.440   2.081   2.191 -0.3067 -0.5319 -0.4751
 4980SOL    HW319687   2.318   2.153   2.243  0.5909  0.9135 -0.2985
 4980SOL    MW419688   2.373   2.085   2.246 -0.3709 -0.0788 -0.0790
 4981SOL     OW19689   1.902   1.581   1.235  0.0503 -0.2737  0.0251
 4981SOL    HW219690   1.929   1.516   1.170 -1.4754 -1.8369  0.8567
 4981SOL    HW319691   1.819   1.616   1.202  0.5279  0.7856 -0.0881
 4981SOL    MW419692   1.894   1.577   1.222  0.1966 -0.0707  0.1569
 4982SOL     OW19693   0.472   2.997   2.586  0.1652  0.1978 -0.0421
 4982SOL    HW219694   0.458   3.056   2.660 -0.1810 -0.2543  0.2563
 4982SOL    HW319695   0.452   2.910   2.620  0.8365 -0.1175 -0.4329
 4982SOL    MW419696   0.467   2.994   2.600 -0.5892  0.7337  0.3423
 4983SOL     OW19697   1.027   4.675   2.390 -0.1301  0.0078  0.2679
 4983SOL    HW219698   1.051   4.760   2.427 -1.2347  0.2415  0.4629
 4983SOL    HW319699   1.081   4.668   2.311 -0.3365  1.0776  0.0166
 4983SOL    MW419700   1.037   4.686   2.385  0.1572  0.4001  0.0782
 4984SOL     OW19701   3.607   5.652   3.946  0.2694 -0.1230 -0.2479
 4984SOL    HW219702   3.600   5.676   3.854  0.1066  0.6930 -0.0340
 4984SOL    HW319703   3.687   5.601   3.952  0.5054  0.1804 -0.7684
 4984SOL    MW419704   3.616   5.648   3.935 -0.0894 -0.8167  0.1718
 4985SOL     OW19705   3.784   1.865   2.421 -0.5303  0.4336  0.3533
 4985SOL    HW219706   3.764   1.822   2.504 -0.7361 -0.5172 -0.1733
 4985SOL    HW319707   3.874   1.839   2.402  0.4097  2.6227  1.4492
 4985SOL    MW419708   3.793   1.856   2.430 -0.9369 -0.0528  0.4791
 4986SOL     OW19709   5.128   3.225   1.235  0.1995 -0.5187 -0.4635
 4986SOL    HW219710   5.120   3.231   1.330 -1.3301  1.2564 -0.6411
 4986SOL    HW319711   5.156   3.312   1.208 -0.7556 -0.5733 -1.7286
 4986SOL    MW419712   5.131   3.237   1.244 -0.2772 -0.0083  0.2503
 4987SOL     OW19713   1.385   1.008   1.331 -0.0600  0.0526  0.1777
 4987SOL    HW219714   1.466   1.026   1.379 -0.1734 -0.1637  0.4508
 4987SOL    HW319715   1.407   0.934   1.273 -0.2772 -0.5218  0.8153
 4987SOL    MW419716   1.399   1.001   1.330 -0.1924  0.2942 -0.2479
 4988SOL     OW19717   5.227   5.664   0.904 -0.0516  0.6573 -0.3530
 4988SOL    HW219718   5.279   5.676   0.825  0.1263 -0.0467 -0.3461
 4988SOL    HW319719   5.180   5.747   0.915 -1.6988  0.0680 -2.3447
 4988SOL    MW419720   5.228   5.677   0.895  0.1068 -0.5416  0.5937
 4989SOL     OW19721   4.843   6.008   0.804  0.3857 -0.2669 -0.4670
 4989SOL    HW219722   4.913   5.943   0.805 -0.8575 -1.6387 -0.0061
 4989SOL    HW319723   4.889   6.092   0.798  2.0074 -1.1913 -3.4318
 4989SOL    MW419724   4.859   6.011   0.803  0.0233 -0.1357  0.3130
 4990SOL     OW19725   6.380   3.533   4.505 -0.3300 -0.2026 -0.1025
 4990SOL    HW219726   6.447   3.599   4.521  0.2818 -0.6760 -0.6394
 4990SOL    HW319727   6.375   3.527   4.410 -0.4798 -0.8224 -0.0601
 4990SOL    MW419728   6.388   3.541   4.495  0.6667  0.0089  0.3220
 4991SOL     OW19729   0.789   3.639   4.232 -0.0857 -0.2992  0.4824
 4991SOL    HW219730   0.727   3.596   4.291 -1.2992 -0.3603 -0.7974
 4991SOL    HW319731   0.873   3.632   4.277 -0.2653 -3.6376  0.5677
 4991SOL    MW419732   0.792   3.632   4.246 -0.9877 -0.5533 -0.2122
 4992SOL     OW19733   4.581   0.461   4.986  0.3259 -0.0266  0.5822
 4992SOL    HW219734   4.518   0.418   5.044 -2.1551  1.9182 -0.5380
 4992SOL    HW319735   4.547   0.447   4.898  0.9946  1.7574 -0.0045
 4992SOL    MW419736   4.568   0.453   4.982 -0.2991 -0.2347  0.4057
 4993SOL     OW19737   1.620   6.060   4.538 -0.1210 -0.0219  0.4240
 4993SOL    HW219738   1.583   6.018   4.460 -0.2390  0.5487  0.1660
 4993SOL    HW319739   1.619   5.991   4.605  0.2371 -0.5995 -0.1478
 4993SOL    MW419740   1.615   6.045   4.536 -0.2183  0.1869  0.0364
 4994SOL     OW19741   3.948   1.126   1.144  0.2208 -0.3915 -0.0268
 4994SOL    HW219742   4.001   1.172   1.080 -0.6878  0.8257  0.0524
 4994SOL    HW319743   4.002   1.123   1.223 -0.0449  1.5037  0.2916
 4994SOL    MW419744   3.962   1.132   1.146  0.2985  0.4364 -0.3400
 4995SOL     OW19745   2.593   3.096   6.312 -0.1453 -0.5599 -0.2200
 4995SOL    HW219746   2.683   3.093   6.344  0.0475  1.2822 -0.4938
 4995SOL    HW319747   2.540   3.111   6.390 -0.3042 -2.2104  0.0217
 4995SOL    MW419748   2.598   3.097   6.327 -0.0179 -0.4794 -0.1373
 4996SOL     OW19749   0.888   5.391   3.714  0.8370  0.3261  0.1314
 4996SOL    HW219750   0.926   5.398   3.627  3.1306  2.3670  1.1498
 4996SOL    HW319751   0.933   5.317   3.754 -0.5061 -0.8642 -0.4940
 4996SOL    MW419752   0.899   5.382   3.708  0.7599 -0.1393  0.2265
 4997SOL     OW19753   2.600   4.605   2.205 -0.0342 -0.7680  0.3876
 4997SOL    HW219754   2.533   4.642   2.147 -1.2524 -0.0092  2.1803
 4997SOL    HW319755   2.580   4.511   2.207 -0.0201 -0.7947 -0.3423
 4997SOL    MW419756   2.589   4.597   2.197 -0.7486 -0.1528  0.1546
 4998SOL     OW19757   3.039   6.022   3.954 -0.4142  0.3433 -0.2837
 4998SOL    HW219758   2.985   6.011   4.033 -1.2987  0.3785 -0.8642
 4998SOL    HW319759   3.128   6.034   3.987 -0.3743 -1.9483  0.6554
 4998SOL    MW419760   3.043   6.022   3.969 -0.1486  0.0130  0.0580
 4999SOL     OW19761   2.719   2.412   1.666  0.1140  0.5108 -0.1194
 4999SOL    HW219762   2.796   2.468   1.680 -1.3116  2.3786  0.7411
 4999SOL    HW319763   2.670   2.457   1.597 -1.6196  1.0189  1.3567
 4999SOL    MW419764   2.723   2.425   1.659 -0.0089  0.2609 -0.1038
 5000SOL     OW19765   1.461   5.283   4.510  0.3794  0.0186 -0.3793
 5000SOL    HW219766   1.404   5.274   4.586  1.0932 -0.8426  0.0690
 5000SOL    HW319767   1.400   5.296   4.436 -0.3814 -0.5178  0.1328
 5000SOL    MW419768   1.445   5.283   4.510 -0.7781 -0.0233 -0.0867
 5001SOL     OW19769   5.799   1.302   2.799  0.0533  0.7903  0.1370
 5001SOL    HW219770   5.876   1.264   2.757  0.5062  0.6272  1.0899
 5001SOL    HW319771   5.738   1.318   2.727 -0.3917 -2.2022 -0.3047
 5001SOL    MW419772   5.801   1.299   2.784  0.5617 -0.5358  0.6373
 5002SOL     OW19773   1.044   2.510   3.057  0.3073  0.1649  0.4000
 5002SOL    HW219774   1.006   2.489   3.142 -2.0732  2.2220 -0.0306
 5002SOL    HW319775   0.989   2.464   2.993 -1.2417  2.6247 -0.1986
 5002SOL    MW419776   1.032   2.501   3.059  0.0220  0.1670  0.0431
 5003SOL     OW19777   4.272   2.559   2.102 -0.1881 -0.1285  0.0382
 5003SOL    HW219778   4.217   2.636   2.117  1.1949  0.7419  0.9729
 5003SOL    HW319779   4.224   2.507   2.038 -2.3196  0.3194  1.1664
 5003SOL    MW419780   4.259   2.563   2.096  0.0393 -0.0635  0.2313
 5004SOL     OW19781   1.639   1.826   3.488  0.2001 -0.3806  0.2778
 5004SOL    HW219782   1.546   1.812   3.468  0.3576 -0.9200 -0.0869
 5004SOL    HW319783   1.673   1.869   3.409  0.2873 -0.2783  0.3714
 5004SOL    MW419784   1.631   1.830   3.475 -0.5082 -0.2836  0.4839
 5005SOL     OW19785   2.406   0.796   4.372 -0.1411 -0.4515  0.3706
 5005SOL    HW219786   2.486   0.764   4.332 -0.5124 -1.1040  0.1305
 5005SOL    HW319787   2.353   0.829   4.299 -0.4731 -0.8881  0.4031
 5005SOL    MW419788   2.409   0.796   4.357 -0.3344  0.2163 -0.6966
 5006SOL     OW19789   4.868   6.144   0.398  0.5481  0.2140  0.0947
 5006SOL    HW219790   4.799   6.203   0.367  0.7122  1.2453  1.5689
 5006SOL    HW319791   4.887   6.175   0.487  1.9091 -0.9527  0.2372
 5006SOL    MW419792   4.861   6.156   0.406 -0.0505 -0.4071  0.3092
 5007SOL     OW19793   2.960   6.084   2.195  0.4300 -0.1010 -0.1199
 5007SOL    HW219794   2.931   6.100   2.285 -0.1571  1.4461 -0.5463
 5007SOL    HW319795   2.918   6.002   2.170  0.5674 -0.5313  0.9907
 5007SOL    MW419796   2.951   6.076   2.204  0.0959  0.0688 -0.3718
 5008SOL     OW19797   6.163   6.024   3.013  0.0372  0.1385  0.2690
 5008SOL    HW219798   6.071   6.022   2.987 -0.5744  0.4291  2.2826
 5008SOL    HW319799   6.206   5.964   2.953 -1.5848 -0.5193 -0.2774
 5008SOL    MW419800   6.156   6.016   3.002  0.1077 -0.0527  0.7580
 5009SOL     OW19801   5.321   4.907   6.016 -0.4800  0.1553 -0.4393
 5009SOL    HW219802   5.316   4.816   5.985  0.3140  0.2496 -0.8912
 5009SOL    HW319803   5.348   4.900   6.107 -0.2136 -0.0662 -0.5323
 5009SOL    MW419804   5.324   4.894   6.024  0.1093 -0.1084  0.1143
 5010SOL     OW19805   5.601   3.999   0.116 -0.3378 -0.1654 -0.5322
 5010SOL    HW219806   5.595   4.046   0.033 -3.1304 -1.7318 -1.3595
 5010SOL    HW319807   5.643   3.916   0.094 -0.4419 -0.2971 -0.2380
 5010SOL    MW419808   5.606   3.994   0.102  0.4937 -0.1031 -0.2755
 5011SOL     OW19809   6.077   5.885   5.853  0.0305 -0.2928 -0.4493
 5011SOL    HW219810   6.116   5.956   5.905 -1.8772 -0.4203  1.2768
 5011SOL    HW319811   6.005   5.928   5.807  0.3363 -0.6505 -1.2635
 5011SOL    MW419812   6.072   5.900   5.854 -0.2322  0.4943  0.1537
 5012SOL     OW19813   0.678   2.922   2.890 -0.3011 -0.2056 -0.8783
 5012SOL    HW219814   0.759   2.936   2.842 -0.1972 -0.6657 -0.8401
 5012SOL    HW319815   0.620   2.993   2.862  0.1158  0.1242 -0.9018
 5012SOL    MW419816   0.681   2.933   2.880 -0.5390 -0.5767 -0.6894
 5013SOL     OW19817   3.539   3.836   2.108 -0.2058  0.0703 -0.1897
 5013SOL    HW219818   3.614   3.841   2.167 -0.0145  1.0211 -0.5023
 5013SOL    HW319819   3.477   3.900   2.144 -1.0248 -0.9365  0.2647
 5013SOL    MW419820   3.540   3.845   2.121 -0.2903 -0.1011 -0.2127
 5014SOL     OW19821   1.263   2.055   4.588 -0.9947  0.1732 -0.1786
 5014SOL    HW219822   1.270   2.085   4.497  1.9143 -0.2439 -0.1676
 5014SOL    HW319823   1.296   2.128   4.640 -1.2758 -0.1413  0.4462
 5014SOL    MW419824   1.268   2.068   4.583 -0.3740 -0.4657  0.3037
 5015SOL     OW19825   4.904   2.080   3.765 -0.0812 -0.0841 -0.6672
 5015SOL    HW219826   4.968   2.145   3.795 -2.2944  1.5356  0.8223
 5015SOL    HW319827   4.876   2.036   3.845 -2.2132  0.5915 -1.0042
 5015SOL    MW419828   4.909   2.083   3.780 -0.4002 -0.2330 -0.0665
 5016SOL     OW19829   3.623   2.302   0.187 -0.7491  0.0484  0.2362
 5016SOL    HW219830   3.555   2.273   0.248 -0.0429  0.0143  1.0193
 5016SOL    HW319831   3.616   2.397   0.185 -0.7951  0.0473  0.3520
 5016SOL    MW419832   3.613   2.310   0.194  0.0956 -0.3204 -0.2939
 5017SOL     OW19833   3.894   2.628   2.743 -0.0505 -0.2506 -0.3512
 5017SOL    HW219834   3.804   2.595   2.742 -0.1619 -0.1580  1.9722
 5017SOL    HW319835   3.884   2.723   2.733 -0.2342 -0.2143  0.1579
 5017SOL    MW419836   3.881   2.636   2.741 -0.5591 -0.2806 -0.4471
 5018SOL     OW19837   2.508   0.272   3.309 -0.3210  0.1147  0.8840
 5018SOL    HW219838   2.563   0.349   3.322  0.3057 -0.2145  0.2391
 5018SOL    HW319839   2.500   0.234   3.396 -2.1647  1.8995  1.5746
 5018SOL    MW419840   2.514   0.277   3.322  0.4165  0.1708 -0.2215
 5019SOL     OW19841   3.338   3.875   1.140 -0.5076  0.0430 -0.5491
 5019SOL    HW219842   3.424   3.916   1.131 -0.4125 -0.0551 -0.1025
 5019SOL    HW319843   3.340   3.802   1.078 -0.3113  0.1143 -0.6277
 5019SOL    MW419844   3.350   3.870   1.131 -0.9562  0.4680  0.3572
 5020SOL     OW19845   0.014   3.370   1.127  0.3814  0.4966  0.2398
 5020SOL    HW219846  -0.031   3.286   1.126 -0.3695  0.8916 -0.6564
 5020SOL    HW319847  -0.034   3.423   1.191  0.6321  0.3594  0.5411
 5020SOL    MW419848   0.001   3.366   1.135 -0.1212  0.1151 -0.1255
 5021SOL     OW19849   2.136   1.125   5.812 -0.5011 -0.2783 -0.2420
 5021SOL    HW219850   2.063   1.073   5.845  0.4120 -0.9573  0.8065
 5021SOL    HW319851   2.214   1.078   5.842  0.3636  0.6914 -0.8991
 5021SOL    MW419852   2.137   1.112   5.820 -0.0788 -0.6225  0.5543
 5022SOL     OW19853   1.423   3.195   6.212  0.0132  0.2712 -0.1329
 5022SOL    HW219854   1.372   3.236   6.283 -0.2625  0.2269 -0.3051
 5022SOL    HW319855   1.459   3.116   6.252  1.8408  1.4516  0.6739
 5022SOL    MW419856   1.421   3.190   6.227 -0.8680 -0.2902 -0.1262
 5023SOL     OW19857   4.904   1.031   1.697 -0.0747  0.0981 -0.3794
 5023SOL    HW219858   4.893   0.945   1.655 -0.1951 -0.7446  1.2882
 5023SOL    HW319859   4.817   1.050   1.733  0.4441 -0.0656  1.0106
 5023SOL    MW419860   4.891   1.022   1.696  0.2395  0.0485 -0.6093
 5024SOL     OW19861   4.093   0.891   5.169 -0.0508 -0.0347 -0.6611
 5024SOL    HW219862   4.146   0.943   5.109 -0.3594 -1.4495 -2.2326
 5024SOL    HW319863   4.045   0.955   5.221  3.4049  1.3464  1.1584
 5024SOL    MW419864   4.094   0.906   5.168 -0.6130  0.0309 -0.6044
 5025SOL     OW19865   6.320   6.184   0.528 -0.6293 -0.5662 -0.8013
 5025SOL    HW219866   6.261   6.172   0.602  0.1047  2.1320  0.3404
 5025SOL    HW319867   6.393   6.125   0.546  0.4347  1.3623  1.7340
 5025SOL    MW419868   6.322   6.174   0.540  0.4436  0.1087  0.6867
 5026SOL     OW19869   0.264   0.941   4.124  0.0535 -0.1880  0.6649
 5026SOL    HW219870   0.255   0.936   4.029  1.7943 -0.9116  0.5013
 5026SOL    HW319871   0.199   1.007   4.151  0.0554  0.5822 -1.0926
 5026SOL    MW419872   0.254   0.949   4.115  0.2029 -0.0449  0.2932
 5027SOL     OW19873   3.231   4.016   5.234 -0.0864  0.4527 -0.6525
 5027SOL    HW219874   3.154   4.006   5.178 -0.1312 -0.7496 -0.4007
 5027SOL    HW319875   3.210   4.090   5.291 -0.6699  0.7095 -1.1779
 5027SOL    MW419876   3.218   4.025   5.234  0.4926 -0.1373  0.4548
 5028SOL     OW19877   3.851   2.981   1.015  0.1361 -0.8214  0.1921
 5028SOL    HW219878   3.884   2.992   1.104 -0.2925  1.8822  0.1059
 5028SOL    HW319879   3.789   2.908   1.020  0.6399 -1.1657  1.9198
 5028SOL    MW419880   3.847   2.973   1.027 -0.5682 -0.4669 -0.3795
 5029SOL     OW19881   0.619   3.962   5.161 -0.7075 -0.3845 -0.0590
 5029SOL    HW219882   0.617   3.905   5.238 -2.7942  1.0047  0.9893
 5029SOL    HW319883   0.530   3.997   5.154  0.3960  2.5676 -0.7690
 5029SOL    MW419884   0.607   3.959   5.170  0.2009 -0.6730  0.9998
 5030SOL     OW19885   3.927   5.795   0.903  0.1468  0.4786  0.1443
 5030SOL    HW219886   3.897   5.768   0.990 -1.0755  1.0479 -0.0727
 5030SOL    HW319887   4.018   5.820   0.915 -0.0282  0.6061  1.2782
 5030SOL    MW419888   3.935   5.794   0.916  0.1385 -0.2128 -0.0302
 5031SOL     OW19889   1.455   5.845   1.236  0.2533 -0.0961 -0.2070
 5031SOL    HW219890   1.363   5.819   1.229 -0.1998  1.4809 -0.4711
 5031SOL    HW319891   1.468   5.863   1.329  0.7518 -1.7997  0.0874
 5031SOL    MW419892   1.445   5.844   1.247 -0.4644  0.2013  0.1989
 5032SOL     OW19893   3.674   6.054   5.479 -0.0670  0.7003 -0.0364
 5032SOL    HW219894   3.679   6.116   5.406 -0.8387  0.8926  0.0736
 5032SOL    HW319895   3.764   6.050   5.512 -0.1473  2.4449  0.5255
 5032SOL    MW419896   3.687   6.062   5.474 -0.3582  0.1375  0.4883
 5033SOL     OW19897   2.869   5.974   4.166  0.0575 -0.2780 -0.1325
 5033SOL    HW219898   2.783   5.941   4.193 -0.0103 -0.2126 -0.2655
 5033SOL    HW319899   2.932   5.922   4.216 -0.0030 -1.4340 -1.2108
 5033SOL    MW419900   2.866   5.963   4.176  0.2557 -0.0892  0.3521
 5034SOL     OW19901   3.475   1.997   6.230  0.2166  0.1548  0.0829
 5034SOL    HW219902   3.394   2.040   6.205  0.5425  0.9786  0.4294
 5034SOL    HW319903   3.456   1.959   6.316 -0.5257 -1.6652 -0.8360
 5034SOL    MW419904   3.462   1.997   6.238  0.7752 -0.3682 -0.1431
 5035SOL     OW19905   0.165   4.243   3.568  0.3684 -0.7088  0.0417
 5035SOL    HW219906   0.218   4.166   3.590  0.8527 -0.2827  0.3908
 5035SOL    HW319907   0.214   4.287   3.499  0.1218 -0.6779 -0.1157
 5035SOL    MW419908   0.178   4.238   3.562  0.2000 -0.1139  0.1558
 5036SOL     OW19909   4.739   2.252   4.675 -0.1855 -0.3578 -0.0357
 5036SOL    HW219910   4.701   2.175   4.717 -0.8871 -0.7570 -1.3801
 5036SOL    HW319911   4.718   2.243   4.583 -0.3621  1.4951 -0.2145
 5036SOL    MW419912   4.731   2.241   4.669  0.5905  0.8301  0.1626
 5037SOL     OW19913   2.836   3.079   0.708 -0.6891  0.0537 -0.9884
 5037SOL    HW219914   2.839   3.050   0.617 -1.7435 -0.9683 -0.7198
 5037SOL    HW319915   2.873   3.006   0.758  0.7191  0.9641 -0.6531
 5037SOL    MW419916   2.841   3.066   0.703  0.1771 -0.0426  0.0276
 5038SOL     OW19917   3.072   5.826   6.301  0.1432  0.0239  0.1626
 5038SOL    HW219918   3.136   5.896   6.294 -2.6186  2.9022  1.4340
 5038SOL    HW319919   3.046   5.807   6.211  1.4269  0.0917 -0.2408
 5038SOL    MW419920   3.077   5.832   6.289  0.8557 -0.6935  0.8089
 5039SOL     OW19921   3.420   2.644   3.818  0.4264 -0.6857 -0.1861
 5039SOL    HW219922   3.429   2.560   3.774 -1.3301 -0.3428 -1.3074
 5039SOL    HW319923   3.401   2.706   3.748  2.5911  0.8770  0.5022
 5039SOL    MW419924   3.419   2.641   3.803  0.2038  0.1749 -0.6826
 5040SOL     OW19925   0.325   6.015   1.157  0.5992  0.4302  0.0514
 5040SOL    HW219926   0.390   6.061   1.104  0.1810  2.4369  1.1518
 5040SOL    HW319927   0.347   5.923   1.147  3.5997  1.0028  0.3185
 5040SOL    MW419928   0.336   6.009   1.149  0.0520 -0.6240 -0.1501
 5041SOL     OW19929   0.040   0.362   2.913 -0.1469  0.5908 -0.2667
 5041SOL    HW219930   0.071   0.356   2.823  0.7554 -0.9556  0.0986
 5041SOL    HW319931   0.108   0.411   2.959 -1.0539  2.2081 -0.5727
 5041SOL    MW419932   0.053   0.367   2.907 -0.8576  0.2389 -0.0650
 5042SOL     OW19933   0.537   4.608   5.467  0.7016  0.7853 -0.1693
 5042SOL    HW219934   0.525   4.648   5.554  1.7775 -1.0331  0.8772
 5042SOL    HW319935   0.484   4.662   5.409 -2.9346  0.0764  2.1472
 5042SOL    MW419936   0.529   4.621   5.471 -0.2952  0.4382 -0.4124
 5043SOL     OW19937   6.146   6.084   6.290 -0.3523 -0.2373  0.0443
 5043SOL    HW219938   6.131   6.026   6.365  0.1105  1.0030  1.1617
 5043SOL    HW319939   6.241   6.084   6.279 -0.3963 -0.1790 -0.3422
 5043SOL    MW419940   6.157   6.076   6.299  0.1437  0.1507 -0.5430
 5044SOL     OW19941   2.795   0.160   1.632 -0.1407 -0.4695  0.5228
 5044SOL    HW219942   2.873   0.109   1.654 -0.1858 -0.2997  1.1083
 5044SOL    HW319943   2.812   0.246   1.669  0.1347  0.0963 -0.8539
 5044SOL    MW419944   2.808   0.164   1.640  0.1480 -0.1021 -0.2553
 5045SOL     OW19945   6.103   5.901   3.800  0.1829  0.3813 -0.9039
 5045SOL    HW219946   6.062   5.972   3.750 -0.5785  0.2903 -0.4201
 5045SOL    HW319947   6.178   5.875   3.747  1.8959  3.1133 -0.0523
 5045SOL    MW419948   6.107   5.907   3.786 -0.6624  0.3949  0.0421
 5046SOL     OW19949   1.589   4.288   2.382  0.1834  0.1813 -0.2371
 5046SOL    HW219950   1.666   4.345   2.383 -0.4703  1.0962  0.0774
 5046SOL    HW319951   1.591   4.244   2.467 -0.8136  1.8821  0.7182
 5046SOL    MW419952   1.599   4.290   2.393 -0.1501  0.7649  0.1598
 5047SOL     OW19953   6.123   1.940   5.225 -0.3234 -0.1504 -0.4781
 5047SOL    HW219954   6.091   1.891   5.300  2.5657  0.4504  1.3033
 5047SOL    HW319955   6.084   2.027   5.234  0.0205 -0.0783  0.3730
 5047SOL    MW419956   6.114   1.945   5.236  0.5166 -0.1240 -0.7712
 5048SOL     OW19957   6.256   5.400   0.988  0.1906  0.2511 -0.2763
 5048SOL    HW219958   6.178   5.423   0.937 -0.6389  0.3801  1.0119
 5048SOL    HW319959   6.279   5.480   1.035 -0.1175 -0.3297  0.9022
 5048SOL    MW419960   6.249   5.413   0.988 -0.6210 -0.0758 -0.0574
 5049SOL     OW19961   2.083   3.723   2.353 -0.1540 -0.3388 -0.4714
 5049SOL    HW219962   2.170   3.758   2.332 -0.4755 -1.0887 -3.5973
 5049SOL    HW319963   2.026   3.800   2.353  0.3088  0.0138  0.3935
 5049SOL    MW419964   2.087   3.738   2.350 -0.4948 -0.1165 -0.0408
 5050SOL     OW19965   5.058   6.271   2.337  0.1303 -0.0080  0.3201
 5050SOL    HW219966   5.080   6.281   2.244 -0.0813  0.7863  0.3410
 5050SOL    HW319967   5.136   6.232   2.376  0.2605 -0.2534 -0.1724
 5050SOL    MW419968   5.071   6.267   2.330 -0.1571 -0.2704 -0.0006
 5051SOL     OW19969   1.568   5.182   5.895  1.0402  0.4676 -0.5460
 5051SOL    HW219970   1.553   5.093   5.863 -2.3656 -0.0002  1.8179
 5051SOL    HW319971   1.613   5.170   5.979  0.0348  0.8743  0.0718
 5051SOL    MW419972   1.572   5.169   5.902 -0.4210 -0.0358  0.4532
 5052SOL     OW19973   5.813   1.479   5.748  0.2295  0.4843  0.3440
 5052SOL    HW219974   5.757   1.529   5.808  1.9650  1.8333  0.9297
 5052SOL    HW319975   5.866   1.546   5.704 -0.6798 -0.4911 -2.4518
 5052SOL    MW419976   5.812   1.495   5.750 -0.3095 -0.1765  0.0707
 5053SOL     OW19977   6.255   4.254   0.643  0.3160  0.0438 -0.7388
 5053SOL    HW219978   6.162   4.234   0.642  0.7514 -2.2778 -0.8138
 5053SOL    HW319979   6.266   4.316   0.715 -1.8585  4.1417 -3.5370
 5053SOL    MW419980   6.244   4.259   0.653  0.0338 -0.0588 -0.5377
 5054SOL     OW19981   5.064   3.780   2.081  0.5008 -0.6001 -0.1941
 5054SOL    HW219982   5.142   3.831   2.101 -0.0437 -0.0281  0.5131
 5054SOL    HW319983   5.098   3.699   2.041  1.4458 -0.3435  0.0648
 5054SOL    MW419984   5.079   3.776   2.078  0.0577  0.4763 -0.1636
 5055SOL     OW19985   0.327   0.000   6.371 -0.1813  0.0811  0.2863
 5055SOL    HW219986   0.360   0.051   6.296  0.9104  0.5307  1.0517
 5055SOL    HW319987   0.319  -0.089   6.337 -2.5096  0.7533 -1.2006
 5055SOL    MW419988   0.330  -0.005   6.357 -0.2338 -0.3897  0.0281
 5056SOL     OW19989   3.723   1.623   2.563 -0.5549 -0.0482  0.8505
 5056SOL    HW219990   3.675   1.628   2.646 -1.7748 -2.3451  0.3813
 5056SOL    HW319991   3.783   1.550   2.575  0.4388  0.6585  0.2510
 5056SOL    MW419992   3.724   1.614   2.576 -1.3391 -0.3808 -0.2298
 5057SOL     OW19993   0.903   3.805   5.401 -0.1989  0.1711 -0.0782
 5057SOL    HW219994   0.808   3.793   5.404 -0.0309 -1.3613 -0.1156
 5057SOL    HW319995   0.936   3.757   5.477  0.6524 -0.6620 -0.9425
 5057SOL    MW419996   0.895   3.798   5.412  0.0757 -0.2964 -0.3438
 5058SOL     OW19997   3.433   0.293   5.260  0.3925 -0.4714  0.0431
 5058SOL    HW219998   3.492   0.342   5.318  0.7905  0.1823 -0.8962
 5058SOL    HW319999   3.490   0.227   5.219  0.4275 -0.0220 -0.6516
 5058SOL    MW420000   3.448   0.290   5.262  0.3936  0.4010 -0.2776
 5059SOL     OW20001   6.347   5.934   4.320  0.4127 -0.1333 -0.6277
 5059SOL    HW220002   6.433   5.967   4.294  0.4495 -0.1768 -0.5611
 5059SOL    HW320003   6.366   5.862   4.379  0.3696 -1.3853 -2.0767
 5059SOL    MW420004   6.361   5.929   4.324 -0.7470  0.2867 -0.2292
 5060SOL     OW20005   4.525   3.749   0.317 -0.1981  0.0652  0.0760
 5060SOL    HW220006   4.472   3.688   0.265 -1.5021  0.1132  1.2984
 5060SOL    HW320007   4.605   3.700   0.337 -1.0239 -1.1019  0.6512
 5060SOL    MW420008   4.528   3.735   0.312  0.9169  0.3379  0.2846
 5061SOL     OW20009   3.074   1.283   5.753 -0.6956  0.6076  0.3885
 5061SOL    HW220010   3.157   1.323   5.727 -0.8693  0.3708 -0.5802
 5061SOL    HW320011   3.010   1.354   5.748 -0.5251  0.8303  1.3032
 5061SOL    MW420012   3.076   1.298   5.749  0.1066 -0.0476  0.0921
 5062SOL     OW20013   5.610   3.044   3.860 -1.1678 -0.7314 -0.6119
 5062SOL    HW220014   5.605   3.032   3.765 -0.9109  1.9480 -1.0525
 5062SOL    HW320015   5.573   3.132   3.875  0.9660 -0.0757  1.4585
 5062SOL    MW420016   5.605   3.054   3.850  0.2323 -0.3563  0.4947
 5063SOL     OW20017   0.030   3.723   3.563  0.2931 -0.1956 -0.0385
 5063SOL    HW220018  -0.034   3.788   3.535  0.9323  0.7947  0.7652
 5063SOL    HW320019   0.100   3.728   3.497  0.8067  0.6407  0.5627
 5063SOL    MW420020   0.031   3.732   3.550 -0.2224  0.1571 -0.4249
 5064SOL     OW20021   1.275   0.532   4.311  1.1923 -0.0167 -0.9861
 5064SOL    HW220022   1.352   0.553   4.260  1.0578  3.1969 -0.0470
 5064SOL    HW320023   1.306   0.526   4.401  0.4257  1.0773 -0.6275
 5064SOL    MW420024   1.289   0.534   4.316 -0.1607 -0.2316  0.1347
 5065SOL     OW20025   2.360   2.218   5.933  0.6173  0.2063  0.2372
 5065SOL    HW220026   2.433   2.268   5.968 -0.0689  2.6084 -1.4874
 5065SOL    HW320027   2.372   2.221   5.838 -0.2843 -1.7163  0.0101
 5065SOL    MW420028   2.371   2.225   5.925  0.0612  0.0841  0.6882
 5066SOL     OW20029   4.042   3.532   3.615 -0.9041  0.1758 -0.4148
 5066SOL    HW220030   4.016   3.620   3.587  0.1001  0.6149  0.0095
 5066SOL    HW320031   4.090   3.546   3.697  0.3052 -0.6467 -0.9619
 5066SOL    MW420032   4.045   3.545   3.622 -0.1557  0.0043  0.1307
 5067SOL     OW20033   5.146   3.981   3.750  0.8794 -0.4758 -0.8089
 5067SOL    HW220034   5.052   3.965   3.749  0.9178 -1.3610  1.5437
 5067SOL    HW320035   5.155   4.076   3.737 -0.4771 -0.1360  0.4025
 5067SOL    MW420036   5.135   3.992   3.748 -0.1877  0.3459  0.1548
 5068SOL     OW20037   3.876   6.318   2.830 -0.2919  0.2850 -0.4379
 5068SOL    HW220038   3.782   6.324   2.811  0.1745  3.0250 -2.4172
 5068SOL    HW320039   3.911   6.264   2.759 -0.2522 -0.2115 -0.0487
 5068SOL    MW420040   3.868   6.311   2.818  0.6642  0.0943 -0.6782
 5069SOL     OW20041   0.602   0.750   4.940 -0.0787 -0.1494 -0.4785
 5069SOL    HW220042   0.605   0.737   4.845  1.5744 -1.2303 -0.3208
 5069SOL    HW320043   0.690   0.729   4.970 -0.2851  1.1615  1.1941
 5069SOL    MW420044   0.614   0.745   4.931  0.4568 -0.2170 -0.0391
 5070SOL     OW20045   1.246   2.489   4.431  0.2866  0.1070  0.0139
 5070SOL    HW220046   1.171   2.441   4.467 -1.5510  1.2300 -2.0287
 5070SOL    HW320047   1.262   2.448   4.346  1.3158  0.5876 -0.0394
 5070SOL    MW420048   1.238   2.477   4.424 -0.5146  0.0270  0.0048
 5071SOL     OW20049   3.109   4.169   3.064 -0.0919  0.1377 -0.0143
 5071SOL    HW220050   3.116   4.088   3.113 -0.2018  0.1501  0.0236
 5071SOL    HW320051   3.037   4.216   3.107 -0.5561 -0.0928 -0.5327
 5071SOL    MW420052   3.100   4.165   3.077 -0.0575  0.4197 -0.2181
 5072SOL     OW20053   1.843   4.228   2.731 -0.5118 -0.4992 -0.4755
 5072SOL    HW220054   1.850   4.166   2.803 -0.1653 -0.1910 -0.2380
 5072SOL    HW320055   1.896   4.303   2.758  0.4918 -0.8060 -1.4922
 5072SOL    MW420056   1.851   4.230   2.744  0.2831 -0.4593  0.3520
 5073SOL     OW20057   0.031   6.318   1.636 -0.3433  0.5084  0.4929
 5073SOL    HW220058   0.033   6.322   1.540 -2.1241  0.2999  0.4180
 5073SOL    HW320059  -0.061   6.332   1.658 -0.1116 -0.3779  2.1350
 5073SOL    MW420060   0.019   6.320   1.626 -0.5097 -0.5977 -0.3192
 5074SOL     OW20061   0.279   0.931   1.164 -0.5217 -0.5219 -0.0468
 5074SOL    HW220062   0.329   0.976   1.232 -0.5460  1.4902 -1.2798
 5074SOL    HW320063   0.330   0.944   1.084 -1.5837 -0.9134 -0.8101
 5074SOL    MW420064   0.292   0.938   1.163  0.2365 -0.2867  0.2760
 5075SOL     OW20065   1.299   0.553   1.378  0.3256  0.5216  0.2210
 5075SOL    HW220066   1.374   0.530   1.324  1.3004 -1.8930  2.4339
 5075SOL    HW320067   1.335   0.608   1.447 -0.1830  0.4055  0.5823
 5075SOL    MW420068   1.313   0.557   1.380  0.5401 -0.0131  0.1125
 5076SOL     OW20069   3.561   2.950   3.445  0.2367  0.5209 -0.4660
 5076SOL    HW220070   3.609   2.994   3.515 -0.1657  2.7759 -1.4976
 5076SOL    HW320071   3.502   2.890   3.490  0.6770  1.1846  1.0647
 5076SOL    MW420072   3.560   2.948   3.460  0.6243 -0.4264  0.5667
 5077SOL     OW20073   4.133   5.686   6.016  0.6160  0.4909 -0.6758
 5077SOL    HW220074   4.201   5.620   6.004 -1.4382 -1.7594 -0.6180
 5077SOL    HW320075   4.051   5.641   5.995 -1.2036  2.1728  2.1193
 5077SOL    MW420076   4.131   5.672   6.011  0.4735  0.7997  0.0356
 5078SOL     OW20077   0.358   5.502   5.212  0.0207 -0.0583  0.3589
 5078SOL    HW220078   0.379   5.578   5.267  0.8185 -0.0821  0.0976
 5078SOL    HW320079   0.359   5.428   5.273  1.7469 -0.2070  0.1965
 5078SOL    MW420080   0.361   5.502   5.228 -0.0024 -0.0241 -0.3277
 5079SOL     OW20081   2.678   1.450   3.139 -0.1073 -0.3412  0.1875
 5079SOL    HW220082   2.599   1.423   3.093  0.5732 -2.3516  0.1219
 5079SOL    HW320083   2.750   1.408   3.092  0.6855 -1.7165  2.4346
 5079SOL    MW420084   2.677   1.441   3.127 -0.1508 -0.3976 -0.5974
 5080SOL     OW20085   3.652   0.993   2.325  0.3120  0.2867 -0.4507
 5080SOL    HW220086   3.747   0.983   2.312  0.4841  1.1228  0.0985
 5080SOL    HW320087   3.625   0.910   2.365  1.3826  1.1465  2.3045
 5080SOL    MW420088   3.661   0.981   2.329 -0.3254 -0.3288 -0.3522
 5081SOL     OW20089   1.276   0.821   1.820 -0.3286 -0.6481 -0.1999
 5081SOL    HW220090   1.235   0.855   1.740  0.0521  0.4478  0.0663
 5081SOL    HW320091   1.346   0.882   1.840 -0.8565 -0.5139  1.3772
 5081SOL    MW420092   1.280   0.833   1.812  1.0139  0.1231  0.4355
 5082SOL     OW20093   3.000   3.923   1.538  0.0514 -0.1640  0.2129
 5082SOL    HW220094   3.089   3.958   1.543 -0.5131  1.2660  0.6865
 5082SOL    HW320095   2.992   3.889   1.449  0.7301  0.6573 -0.1771
 5082SOL    MW420096   3.011   3.923   1.527  0.4474  0.4627  0.3340
 5083SOL     OW20097   1.196   0.227   4.588  0.5884  0.0927  0.3056
 5083SOL    HW220098   1.130   0.230   4.657  0.3289  0.2521  0.0494
 5083SOL    HW320099   1.215   0.318   4.568 -0.2589  0.0620 -0.7097
 5083SOL    MW420100   1.190   0.239   4.594 -0.0152 -0.0516  0.1085
 5084SOL     OW20101   5.612   5.068   3.466  0.3429  0.7255  0.3667
 5084SOL    HW220102   5.682   5.025   3.516  0.6913  0.6376 -0.1814
 5084SOL    HW320103   5.532   5.024   3.494  0.5022  0.8378  1.0148
 5084SOL    MW420104   5.611   5.057   3.476  0.1376 -0.1213  0.5668
 5085SOL     OW20105   6.182   3.512   4.786  0.2776  0.1403 -0.3753
 5085SOL    HW220106   6.227   3.593   4.762 -0.1557  1.1509  1.9430
 5085SOL    HW320107   6.097   3.519   4.742 -0.1037  1.4187  0.4909
 5085SOL    MW420108   6.177   3.524   4.777 -0.1415 -0.4494  0.1186
 5086SOL     OW20109   6.131   5.614   6.400 -0.4721 -0.2798  0.5531
 5086SOL    HW220110   6.149   5.520   6.400  0.0080 -0.2073 -0.7105
 5086SOL    HW320111   6.069   5.626   6.329  1.5981  0.7024 -1.1920
 5086SOL    MW420112   6.125   5.603   6.391 -0.3467  0.5570  0.3124
 5087SOL     OW20113   3.898   0.870   4.921 -0.5916  0.3913 -0.2905
 5087SOL    HW220114   3.953   0.844   4.995  0.6399 -0.0006 -1.3005
 5087SOL    HW320115   3.828   0.922   4.960 -0.5841 -0.6852  1.2671
 5087SOL    MW420116   3.896   0.873   4.936  0.1443  0.2403  0.1405
 5088SOL     OW20117   3.896   4.706   5.439  0.3545  0.2409 -0.1570
 5088SOL    HW220118   3.929   4.762   5.369 -1.9490  2.0195  0.0910
 5088SOL    HW320119   3.824   4.657   5.399  0.2481 -0.1367  0.4900
 5088SOL    MW420120   3.891   4.707   5.424  0.1145 -0.5093 -0.2979
 5089SOL     OW20121   1.066   1.022   3.439 -0.0257  0.1161  0.2393
 5089SOL    HW220122   1.061   1.103   3.388 -0.2246  0.0202  0.1055
 5089SOL    HW320123   1.006   0.962   3.395  0.1836 -0.1317  0.2908
 5089SOL    MW420124   1.057   1.025   3.427  0.1568 -0.4676  0.3653
 5090SOL     OW20125   3.327   0.587   0.515  0.2272 -0.3357 -0.6442
 5090SOL    HW220126   3.375   0.664   0.545  1.0398 -0.9950 -0.2018
 5090SOL    HW320127   3.235   0.610   0.527  0.4747  0.3704  0.0007
 5090SOL    MW420128   3.321   0.600   0.521 -0.2063 -0.3281  0.3173
 5091SOL     OW20129   0.645   0.393   4.869 -0.2204  0.6696 -0.1963
 5091SOL    HW220130   0.635   0.468   4.811  0.5503 -0.5468 -1.9946
 5091SOL    HW320131   0.739   0.376   4.871 -0.2598  0.4839  1.1885
 5091SOL    MW420132   0.656   0.401   4.862  0.2374 -0.3994 -0.0354
 5092SOL     OW20133   4.082   2.082   6.394 -0.1533 -0.5221 -0.1741
 5092SOL    HW220134   4.057   1.998   6.356 -1.0492 -0.0489 -0.6674
 5092SOL    HW320135   4.069   2.071   6.488  0.0780 -1.0402 -0.1993
 5092SOL    MW420136   4.077   2.069   6.402  0.4486  0.0637 -0.6732
 5093SOL     OW20137   1.388   0.192   3.674  0.3770 -0.3353 -0.1311
 5093SOL    HW220138   1.419   0.237   3.596 -1.5918  0.3611 -0.5810
 5093SOL    HW320139   1.328   0.255   3.715 -2.4802 -2.4272 -0.7618
 5093SOL    MW420140   1.384   0.207   3.669  0.0111 -0.1106 -0.3089
 5094SOL     OW20141   4.704   2.213   1.838 -0.4228  0.4161 -0.2355
 5094SOL    HW220142   4.687   2.175   1.924 -0.3406 -1.9249 -1.1945
 5094SOL    HW320143   4.779   2.271   1.851  1.1142 -1.7170  0.8418
 5094SOL    MW420144   4.712   2.216   1.851 -0.3369 -0.2165  0.0531
 5095SOL     OW20145   3.954   0.349   5.492  0.2316 -0.2887 -0.7946
 5095SOL    HW220146   3.995   0.321   5.573  0.0535 -0.2944 -0.7070
 5095SOL    HW320147   3.962   0.444   5.492 -0.4313 -0.2297 -0.4150
 5095SOL    MW420148   3.960   0.358   5.502 -0.2384  0.0568 -0.7392
 5096SOL     OW20149   0.922   1.480   1.442 -0.1849 -0.3921 -0.1547
 5096SOL    HW220150   0.955   1.513   1.525  1.4552  0.0564 -0.9356
 5096SOL    HW320151   0.884   1.556   1.399 -1.5931 -0.7483  0.4100
 5096SOL    MW420152   0.922   1.494   1.447  0.2421 -0.5464  0.0995
 5097SOL     OW20153   0.638   3.708   3.828 -0.0385 -0.1632 -0.5008
 5097SOL    HW220154   0.721   3.690   3.783  0.7222  1.4831  0.1687
 5097SOL    HW320155   0.664   3.728   3.918 -1.1712  0.4873 -0.3061
 5097SOL    MW420156   0.653   3.708   3.834  0.3992 -0.4743 -0.6073
 5098SOL     OW20157   1.953   1.448   3.185 -0.3122 -0.3885  0.1589
 5098SOL    HW220158   1.988   1.509   3.120 -1.4800  0.6094  0.4226
 5098SOL    HW320159   1.860   1.439   3.161 -0.5316 -0.7429  1.1226
 5098SOL    MW420160   1.945   1.455   3.173  0.2041  0.2746  0.4140
 5099SOL     OW20161   3.670   4.644   1.735  0.4627 -0.6189  0.6988
 5099SOL    HW220162   3.755   4.608   1.760  0.9285  0.5974  0.9129
 5099SOL    HW320163   3.691   4.722   1.684 -0.5199  0.2004  1.5107
 5099SOL    MW420164   3.684   4.649   1.731  0.0648 -0.1482  0.0975
 5100SOL     OW20165   3.282   1.249   3.891  0.3922 -0.4069 -0.5112
 5100SOL    HW220166   3.335   1.327   3.903 -0.0795 -0.0478 -0.7540
 5100SOL    HW320167   3.251   1.227   3.979  0.6776 -0.4345 -0.4151
 5100SOL    MW420168   3.285   1.256   3.904  0.0969 -0.1032  1.2641
 5101SOL     OW20169   6.373   4.123   4.073  0.3874  0.1198  0.1263
 5101SOL    HW220170   6.435   4.086   4.010  0.6892 -0.4270  0.7323
 5101SOL    HW320171   6.368   4.215   4.049  1.3669  0.1566  0.0024
 5101SOL    MW420172   6.381   4.130   4.061  0.1163 -0.7441 -0.4718
 5102SOL     OW20173   1.333   5.150   4.960 -0.2400 -0.2183  0.0540
 5102SOL    HW220174   1.332   5.207   4.883  2.8489 -2.1134 -1.5821
 5102SOL    HW320175   1.414   5.173   5.005  0.5812 -2.5595 -0.1175
 5102SOL    MW420176   1.344   5.160   4.955  0.4889  0.2730  0.5891
 5103SOL     OW20177   5.706   5.403   2.422 -0.0411 -0.6768 -0.6438
 5103SOL    HW220178   5.761   5.429   2.348  1.2319 -1.6293 -0.0578
 5103SOL    HW320179   5.750   5.327   2.460 -0.6771 -0.2207  1.1093
 5103SOL    MW420180   5.719   5.396   2.417  0.4655  0.0512 -0.2959
 5104SOL     OW20181   1.010   3.294   6.074  0.4676  0.1558  0.3214
 5104SOL    HW220182   1.095   3.254   6.095  0.5015 -0.1315 -0.3534
 5104SOL    HW320183   0.994   3.271   5.983 -1.0029 -0.9887  0.8389
 5104SOL    MW420184   1.019   3.286   6.065 -0.4829 -0.5623 -0.4117
 5105SOL     OW20185   5.878   0.011   0.656  0.6079 -0.2663 -0.2069
 5105SOL    HW220186   5.821   0.089   0.660  0.1030 -0.6106 -0.5348
 5105SOL    HW320187   5.920   0.017   0.570  1.7022  0.4117  0.3509
 5105SOL    MW420188   5.876   0.022   0.645 -0.3459  0.0250  0.3866
 5106SOL     OW20189   0.455   1.924   2.678  0.2615 -0.0489 -0.1658
 5106SOL    HW220190   0.453   1.831   2.700 -1.4783  0.0494  0.2847
 5106SOL    HW320191   0.423   1.929   2.588 -1.6050  0.1993  0.4477
 5106SOL    MW420192   0.450   1.913   2.669 -0.2617  0.8750  0.4007
 5107SOL     OW20193   0.039   0.840   6.171 -0.5175 -0.0890  0.5732
 5107SOL    HW220194   0.122   0.837   6.123 -0.2422  1.0484  0.9573
 5107SOL    HW320195   0.053   0.904   6.241 -1.7539  0.2287  0.5668
 5107SOL    MW420196   0.052   0.848   6.174  0.5557 -0.0380 -0.0617
 5108SOL     OW20197   0.908   2.842   1.200  0.5959  0.6177 -0.4773
 5108SOL    HW220198   1.003   2.853   1.202  0.6908 -0.0524 -0.8783
 5108SOL    HW320199   0.884   2.850   1.108 -0.0863  3.2871 -0.1613
 5108SOL    MW420200   0.917   2.844   1.188  0.0722 -0.1286  0.0002
 5109SOL     OW20201   2.178   0.470   5.505  0.4150  0.2279 -0.5307
 5109SOL    HW220202   2.134   0.548   5.470 -2.3994 -1.8892 -2.2024
 5109SOL    HW320203   2.254   0.458   5.449  0.4746  1.3651 -0.7104
 5109SOL    MW420204   2.182   0.479   5.493  0.3730 -0.2248 -0.1261
 5110SOL     OW20205   5.729   3.934   5.478  0.1759 -0.2133 -0.2508
 5110SOL    HW220206   5.815   3.908   5.444  0.4807  0.6086 -0.1276
 5110SOL    HW320207   5.747   4.010   5.534 -0.5723 -0.3268  0.1643
 5110SOL    MW420208   5.743   3.941   5.481 -0.5195  0.8281 -0.1351
 5111SOL     OW20209   4.709   0.245   2.664 -0.0274 -0.0957  0.3136
 5111SOL    HW220210   4.674   0.156   2.667 -0.1209 -0.0747 -0.1388
 5111SOL    HW320211   4.777   0.242   2.597 -0.1140  0.2039  0.2119
 5111SOL    MW420212   4.713   0.233   2.656  0.0353  0.7409  0.2890
 5112SOL     OW20213   2.039   2.863   1.085  0.0052  0.1299  0.3433
 5112SOL    HW220214   1.945   2.874   1.101 -0.3485  0.9456 -1.9259
 5112SOL    HW320215   2.048   2.771   1.058 -0.2731  0.2589 -0.1982
 5112SOL    MW420216   2.027   2.852   1.084 -0.0013  0.0062  0.6864
 5113SOL     OW20217   1.732   5.351   5.254 -0.4368 -0.1910  0.1401
 5113SOL    HW220218   1.789   5.380   5.183  1.7090  0.4530  1.9817
 5113SOL    HW320219   1.779   5.376   5.334 -1.0399 -3.8799  1.8855
 5113SOL    MW420220   1.746   5.358   5.256 -0.2032  0.0701  0.5780
 5114SOL     OW20221   1.306   3.293   2.272  0.1558  0.6007 -0.9527
 5114SOL    HW220222   1.220   3.280   2.232 -0.8645  3.0879  0.2387
 5114SOL    HW320223   1.367   3.256   2.208 -1.7062 -0.1949 -2.3862
 5114SOL    MW420224   1.303   3.287   2.258  0.2147 -0.7697  0.2778
 5115SOL     OW20225   5.063   6.056   3.113 -0.2361  0.0054  0.1230
 5115SOL    HW220226   5.114   5.978   3.136 -0.7064 -0.5025 -0.5347
 5115SOL    HW320227   5.003   6.068   3.187  1.8769  1.5862  1.7330
 5115SOL    MW420228   5.062   6.047   3.126 -0.2881 -0.6308  0.3290
 5116SOL     OW20229   4.682   5.798   1.471  0.1572 -0.1063 -0.1300
 5116SOL    HW220230   4.619   5.755   1.530 -1.2923 -0.8752 -2.1366
 5116SOL    HW320231   4.657   5.769   1.384  1.7770  1.5685 -1.2220
 5116SOL    MW420232   4.670   5.789   1.467  0.2803  0.6628 -0.0460
 5117SOL     OW20233   0.228   4.773   1.441 -0.3528 -0.3984 -0.0121
 5117SOL    HW220234   0.183   4.764   1.357 -0.2328  1.2242 -0.2903
 5117SOL    HW320235   0.175   4.836   1.490  0.7315  0.3249  0.2651
 5117SOL    MW420236   0.215   4.780   1.436 -0.6132 -0.2918  0.2657
 5118SOL     OW20237   1.202   0.172   0.797 -0.3457 -0.0451  0.2562
 5118SOL    HW220238   1.168   0.247   0.749 -0.3271 -0.1047  0.1487
 5118SOL    HW320239   1.296   0.189   0.806 -0.3622  0.0020  0.3373
 5118SOL    MW420240   1.210   0.184   0.792  0.0386  0.2340  0.0955
 5119SOL     OW20241   3.395   4.753   0.393  0.2424  0.7523  0.5344
 5119SOL    HW220242   3.360   4.834   0.357 -1.6804 -0.5050 -0.5840
 5119SOL    HW320243   3.400   4.694   0.318  1.1902 -0.3102  1.4028
 5119SOL    MW420244   3.391   4.756   0.378 -0.7067  0.1381  0.0212
 5120SOL     OW20245   1.178   0.526   4.852  0.5000 -0.2363  0.1325
 5120SOL    HW220246   1.199   0.513   4.944 -1.4824 -0.8979  0.5302
 5120SOL    HW320247   1.084   0.543   4.850  1.0400  3.7512 -1.4068
 5120SOL    MW420248   1.168   0.527   4.864  0.1352 -0.4007 -0.5716
 5121SOL     OW20249   5.378   1.333   6.051  0.2640 -0.0019 -0.2854
 5121SOL    HW220250   5.357   1.336   6.144 -0.6926 -0.2821 -0.4827
 5121SOL    HW320251   5.307   1.381   6.008 -0.2686 -1.3770 -1.0136
 5121SOL    MW420252   5.366   1.339   6.057  0.1957 -0.6298  0.0354
 5122SOL     OW20253   1.041   2.789   6.387 -0.1266 -0.3208  0.2143
 5122SOL    HW220254   1.106   2.853   6.357 -2.9133  2.3479 -0.6622
 5122SOL    HW320255   1.072   2.705   6.353  1.4835  1.2356 -2.5158
 5122SOL    MW420256   1.054   2.787   6.379  0.4310 -0.1620  0.1762
 5123SOL     OW20257   0.368   5.794   1.626  0.0270 -0.4769  0.4348
 5123SOL    HW220258   0.361   5.855   1.699  0.7581  0.5232 -0.2885
 5123SOL    HW320259   0.292   5.812   1.572  0.7295  0.5153 -0.2703
 5123SOL    MW420260   0.357   5.805   1.628 -0.3442  0.6025 -0.1455
 5124SOL     OW20261   1.844   2.108   0.629  0.7173  0.3052 -0.1090
 5124SOL    HW220262   1.900   2.151   0.564 -1.6871  1.8696 -1.3406
 5124SOL    HW320263   1.816   2.027   0.587 -1.3080  1.5885 -1.4660
 5124SOL    MW420264   1.847   2.103   0.615  0.5829 -0.2095 -0.3663
 5125SOL     OW20265   3.704   3.429   2.269 -0.2581 -0.6863  0.2650
 5125SOL    HW220266   3.792   3.435   2.234 -0.0838 -1.2745  0.5976
 5125SOL    HW320267   3.710   3.468   2.356 -0.4888 -0.0759  0.0160
 5125SOL    MW420268   3.716   3.435   2.276  0.3684 -0.9497  0.1029
 5126SOL     OW20269   6.141   0.836   1.754  0.2992  0.5589 -0.0192
 5126SOL    HW220270   6.108   0.787   1.829  1.1523 -0.5916 -0.3714
 5126SOL    HW320271   6.085   0.913   1.749 -0.5708  0.0162  1.0276
 5126SOL    MW420272   6.129   0.840   1.763 -0.3651 -0.4286 -0.2690
 5127SOL     OW20273   6.091   2.706   4.790 -0.2491  0.2931 -0.1939
 5127SOL    HW220274   6.123   2.618   4.813  0.1381  0.5306  0.1942
 5127SOL    HW320275   6.139   2.764   4.849 -1.4984  0.6537  0.5141
 5127SOL    MW420276   6.101   2.702   4.801 -0.1606  0.5426  0.1984
 5128SOL     OW20277   5.323   6.099   5.278  0.1868  0.2646  0.4668
 5128SOL    HW220278   5.329   6.183   5.323  0.4570 -0.1551  1.2199
 5128SOL    HW320279   5.394   6.101   5.214 -0.1633  0.8355  0.0821
 5128SOL    MW420280   5.333   6.111   5.275 -0.4959  0.3188 -0.2123
 5129SOL     OW20281   5.712   4.799   4.806  0.3506  0.1292  0.0586
 5129SOL    HW220282   5.743   4.709   4.791 -0.1410 -0.4330  2.1140
 5129SOL    HW320283   5.712   4.809   4.902 -3.2025  1.0051  0.0885
 5129SOL    MW420284   5.716   4.788   4.817  0.1267 -0.0337 -0.2589
 5130SOL     OW20285   1.603   5.822   1.817  0.2736 -0.1141 -0.0158
 5130SOL    HW220286   1.528   5.766   1.797 -1.0486  2.2279 -2.1400
 5130SOL    HW320287   1.642   5.841   1.732 -0.1132  3.1267  0.4239
 5130SOL    MW420288   1.598   5.817   1.803 -0.4050 -0.0768  0.5021
 5131SOL     OW20289   5.369   0.630   5.029  0.2019 -0.4463  0.9172
 5131SOL    HW220290   5.413   0.711   5.055  0.8874  0.0377 -1.4293
 5131SOL    HW320291   5.399   0.564   5.091  1.4593  0.6387  1.5009
 5131SOL    MW420292   5.378   0.632   5.040  0.3570  0.2804 -0.3588
 5132SOL     OW20293   3.198   3.753   0.351  0.4551  0.4005 -0.2380
 5132SOL    HW220294   3.252   3.688   0.397 -0.6759 -0.4032 -0.0249
 5132SOL    HW320295   3.181   3.714   0.266 -1.9504 -0.5761  0.6091
 5132SOL    MW420296   3.203   3.739   0.346  0.2427 -0.7262 -0.2765
 5133SOL     OW20297   4.959   0.199   1.751 -0.2781 -0.1017  0.0534
 5133SOL    HW220298   4.997   0.133   1.808 -0.3896 -0.5832 -0.4230
 5133SOL    HW320299   4.866   0.180   1.749 -0.7957  1.8336  2.2096
 5133SOL    MW420300   4.952   0.188   1.758  0.3891 -0.2317 -0.1600
 5134SOL     OW20301   4.604   5.681   4.824 -0.3802 -0.3639  0.8394
 5134SOL    HW220302   4.587   5.767   4.786 -0.7714 -0.0913  1.5979
 5134SOL    HW320303   4.522   5.633   4.812  0.0027 -0.8178 -0.0396
 5134SOL    MW420304   4.591   5.686   4.817  0.5344  0.1995  0.2393
 5135SOL     OW20305   2.386   1.072   5.956 -0.3173 -0.1594  0.5053
 5135SOL    HW220306   2.324   1.110   6.018 -1.0162  0.9136 -0.7787
 5135SOL    HW320307   2.395   0.980   5.983 -2.2644 -0.2757  0.9044
 5135SOL    MW420308   2.379   1.065   5.967 -0.1381 -0.2735 -0.8405
 5136SOL     OW20309   2.385   4.084   4.741  0.0099  0.0273  0.2142
 5136SOL    HW220310   2.405   3.994   4.714  0.6358  0.3236 -0.3578
 5136SOL    HW320311   2.301   4.103   4.699 -0.3555 -0.4448  0.7216
 5136SOL    MW420312   2.377   4.075   4.732 -0.5050 -0.1911  0.1557
 5137SOL     OW20313   0.511   3.408   2.528  0.6318 -0.1999  1.1528
 5137SOL    HW220314   0.546   3.329   2.486  0.2076 -1.2083  2.6117
 5137SOL    HW320315   0.426   3.421   2.486  1.0963  0.0306  0.2627
 5137SOL    MW420316   0.504   3.399   2.517  0.4418 -0.3565 -0.6436
 5138SOL     OW20317   5.047   3.926   4.553  0.4798  0.3398 -0.4231
 5138SOL    HW220318   5.085   3.999   4.602  2.2795 -0.8428  0.0215
 5138SOL    HW320319   5.108   3.910   4.481  0.0261 -0.6115 -0.6127
 5138SOL    MW420320   5.060   3.933   4.550 -0.1242 -0.5441  0.3204
 5139SOL     OW20321   4.839   5.372   1.420  0.5674 -0.4630  0.1858
 5139SOL    HW220322   4.788   5.367   1.501 -0.2101 -2.1997 -0.3745
 5139SOL    HW320323   4.778   5.408   1.356  0.1599 -2.0899 -0.3703
 5139SOL    MW420324   4.824   5.376   1.423 -0.5014 -0.0116  0.1894
 5140SOL     OW20325   1.166   6.251   6.313  0.7065 -0.1857 -0.0669
 5140SOL    HW220326   1.205   6.198   6.382  1.4391  1.1011  0.5388
 5140SOL    HW320327   1.222   6.329   6.307 -0.3668  0.5624 -0.8816
 5140SOL    MW420328   1.178   6.254   6.321  0.1935  0.1800  0.0983
 5141SOL     OW20329   0.793   4.542   5.513  0.2113  0.2334  0.2701
 5141SOL    HW220330   0.701   4.564   5.494  0.3679  0.6146 -0.0564
 5141SOL    HW320331   0.837   4.626   5.521  0.3818  0.0615  1.2248
 5141SOL    MW420332   0.786   4.556   5.512  0.1018  0.5219  0.3670
 5142SOL     OW20333   4.929   3.037   5.139 -0.8296  0.9240 -0.0136
 5142SOL    HW220334   4.965   3.055   5.052  0.7056  0.2427  0.4439
 5142SOL    HW320335   4.938   3.119   5.187  2.3699  0.2431  0.7996
 5142SOL    MW420336   4.935   3.050   5.134  0.0872 -0.2984 -0.3006
 5143SOL     OW20337   1.833   4.406   0.542  0.4692  0.0941 -0.1903
 5143SOL    HW220338   1.840   4.409   0.638 -1.1441  0.0074 -0.0447
 5143SOL    HW320339   1.739   4.401   0.525  0.7356  0.0574 -1.7899
 5143SOL    MW420340   1.822   4.406   0.553  0.0391  0.6029 -0.4810
 5144SOL     OW20341   1.850   0.480   0.164  0.3973  0.3281  0.5762
 5144SOL    HW220342   1.776   0.540   0.173 -1.2157 -1.6124  0.9819
 5144SOL    HW320343   1.841   0.443   0.077  1.5765  0.8884  0.1997
 5144SOL    MW420344   1.839   0.483   0.154 -0.1762  0.2405  0.6454
 5145SOL     OW20345   1.804   5.852   0.103 -0.6619  0.4989 -0.2596
 5145SOL    HW220346   1.776   5.767   0.069  0.3555  0.3560 -0.7674
 5145SOL    HW320347   1.810   5.839   0.197 -0.5350  0.0025 -0.3305
 5145SOL    MW420348   1.801   5.839   0.111  0.2002 -0.4062  0.3385
 5146SOL     OW20349   1.661   3.886   6.129  0.4031  0.3713 -0.1667
 5146SOL    HW220350   1.663   3.812   6.067  2.2098  1.0894 -1.0130
 5146SOL    HW320351   1.748   3.887   6.168  0.6058  2.3679 -0.5819
 5146SOL    MW420352   1.672   3.876   6.126  0.0617 -0.1131  0.1585
 5147SOL     OW20353   0.679   3.832   4.928 -0.4657 -0.3227  0.0180
 5147SOL    HW220354   0.668   3.884   5.008  2.0346 -0.4173  0.4945
 5147SOL    HW320355   0.674   3.741   4.957  0.7051 -0.3606  0.1457
 5147SOL    MW420356   0.677   3.827   4.942  0.1891 -0.4963 -0.2196
 5148SOL     OW20357   3.417   1.629   0.230  0.3814 -0.2794 -0.0147
 5148SOL    HW220358   3.352   1.680   0.278 -0.3825 -2.1530  1.0451
 5148SOL    HW320359   3.479   1.601   0.297 -0.1241 -2.0633 -0.2348
 5148SOL    MW420360   3.417   1.632   0.246 -0.0508  0.4044 -0.3079
 5149SOL     OW20361   0.615   1.782   4.306  0.1984  0.2876 -0.4855
 5149SOL    HW220362   0.677   1.774   4.378  0.7652 -0.5066 -1.0395
 5149SOL    HW320363   0.564   1.861   4.326 -0.5866 -0.6316  1.4792
 5149SOL    MW420364   0.616   1.791   4.318 -0.7351 -0.3258 -0.2166
 5150SOL     OW20365   4.183   1.216   0.976 -0.3383 -0.1425 -0.0693
 5150SOL    HW220366   4.251   1.273   1.011  0.3864  0.5637 -2.4364
 5150SOL    HW320367   4.230   1.142   0.938 -1.0303 -0.5937 -0.0689
 5150SOL    MW420368   4.198   1.214   0.976  0.3431  0.3144  0.1506
 5151SOL     OW20369   1.273   5.008   5.585  0.3089  0.5956 -0.0132
 5151SOL    HW220370   1.183   5.033   5.565 -0.0403  0.5343  1.4381
 5151SOL    HW320371   1.276   4.999   5.680  1.5070 -0.7360 -0.1370
 5151SOL    MW420372   1.262   5.010   5.595  0.0188 -0.1230  0.4271
 5152SOL     OW20373   1.343   2.492   2.850 -0.3678 -0.0425 -0.0737
 5152SOL    HW220374   1.428   2.479   2.807 -0.6639  0.9490 -0.9815
 5152SOL    HW320375   1.365   2.525   2.937  0.1788 -0.1751 -0.1566
 5152SOL    MW420376   1.357   2.495   2.856  0.2949  0.4086  0.2217
 5153SOL     OW20377   4.786   2.095   0.657 -0.3370  0.0358 -0.1311
 5153SOL    HW220378   4.850   2.131   0.595 -0.6765  0.1844 -0.4027
 5153SOL    HW320379   4.838   2.069   0.733  0.1822 -0.8035 -0.7523
 5153SOL    MW420380   4.801   2.096   0.658  0.2626  0.0967  0.4929
 5154SOL     OW20381   5.484   3.534   4.495  0.4662 -0.5891 -0.3715
 5154SOL    HW220382   5.468   3.443   4.473 -0.2467 -0.6852  0.4833
 5154SOL    HW320383   5.401   3.565   4.532  1.3501 -0.2510  1.4550
 5154SOL    MW420384   5.471   3.526   4.497  0.4302 -0.2022 -0.5831
 5155SOL     OW20385   2.971   2.237   0.333  0.1080 -0.1602 -0.4988
 5155SOL    HW220386   2.894   2.294   0.339  0.2849  0.1139 -0.8189
 5155SOL    HW320387   2.953   2.167   0.395 -0.6812 -0.4198 -1.0040
 5155SOL    MW420388   2.958   2.235   0.342  0.5537 -0.2160 -0.3499
 5156SOL     OW20389   4.306   0.438   4.497  0.0531  0.4565  0.4618
 5156SOL    HW220390   4.345   0.396   4.573  0.8566 -0.2348 -0.3151
 5156SOL    HW320391   4.290   0.367   4.435 -0.3875  1.0353 -0.1036
 5156SOL    MW420392   4.309   0.423   4.499  0.5348  0.0187  0.5951
 5157SOL     OW20393   4.860   2.685   1.084  0.2338 -0.0267  0.1323
 5157SOL    HW220394   4.875   2.615   1.147 -2.2794 -0.8151 -0.0133
 5157SOL    HW320395   4.845   2.639   1.001 -0.4331  0.7310 -0.1791
 5157SOL    MW420396   4.860   2.670   1.081  0.1343 -0.6056  0.6319
 5158SOL     OW20397   4.971   1.571   4.307 -0.2299  0.1752 -0.1942
 5158SOL    HW220398   4.937   1.537   4.390 -1.8830  0.6824 -0.6222
 5158SOL    HW320399   4.932   1.514   4.240  0.3154  0.3635 -0.6788
 5158SOL    MW420400   4.961   1.559   4.309  0.9411  0.2451  0.4268
 5159SOL     OW20401   2.464   2.639   0.750 -0.4926  0.2041 -0.3041
 5159SOL    HW220402   2.551   2.609   0.777 -0.8114 -0.0734  0.4440
 5159SOL    HW320403   2.428   2.566   0.700 -0.1737  0.4455 -0.8945
 5159SOL    MW420404   2.471   2.625   0.747 -0.3525  0.2605  0.3186
 5160SOL     OW20405   1.470   5.057   4.169  0.4251  0.4561  0.3611
 5160SOL    HW220406   1.499   4.977   4.125  2.1535 -0.2113  2.4882
 5160SOL    HW320407   1.506   5.128   4.115 -0.9495 -0.1385 -1.4342
 5160SOL    MW420408   1.479   5.056   4.156  0.4499  0.3110  0.4793
 5161SOL     OW20409   2.046   4.633   1.422 -0.6087  0.1561  0.5308
 5161SOL    HW220410   1.980   4.697   1.399 -1.0209 -0.1442  0.8561
 5161SOL    HW320411   2.079   4.663   1.507  0.9186  1.2728 -0.3988
 5161SOL    MW420412   2.042   4.645   1.431  0.3620 -0.0692  0.2976
 5162SOL     OW20413   3.450   1.050   1.653  0.2186  0.6997  0.2519
 5162SOL    HW220414   3.467   1.054   1.559  1.6735 -0.6100  0.4161
 5162SOL    HW320415   3.481   1.134   1.686 -0.4790  1.2497 -0.4393
 5162SOL    MW420416   3.456   1.061   1.645  0.3479  0.0540 -0.5630
 5163SOL     OW20417   0.921   4.895   5.121 -0.0125  0.1187 -0.1298
 5163SOL    HW220418   0.882   4.977   5.091  0.1924 -0.0886 -0.9946
 5163SOL    HW320419   0.849   4.848   5.164  0.3044  1.5500  2.1604
 5163SOL    MW420420   0.906   4.899   5.123  0.0582 -0.6552 -0.4051
 5164SOL     OW20421   3.533   3.025   0.852 -0.3288  0.1317 -0.4256
 5164SOL    HW220422   3.531   3.082   0.929 -1.7603 -0.5101  0.0446
 5164SOL    HW320423   3.576   2.945   0.882  0.0406  0.2698 -0.5832
 5164SOL    MW420424   3.538   3.022   0.866 -0.4028 -0.3349 -0.3648
 5165SOL     OW20425   3.920   3.570   2.887 -0.1771 -0.3856 -0.0913
 5165SOL    HW220426   3.872   3.563   2.969  0.1113  0.0150  0.1192
 5165SOL    HW320427   4.012   3.580   2.913  0.0493 -1.2935 -0.4878
 5165SOL    MW420428   3.926   3.571   2.901 -0.2542 -0.2349  0.5519
 5166SOL     OW20429   4.945   3.904   0.554  0.0320 -0.3622  0.4086
 5166SOL    HW220430   4.856   3.879   0.579  0.8544 -3.1670  0.8702
 5166SOL    HW320431   4.984   3.823   0.519  2.3599  0.8032  0.1015
 5166SOL    MW420432   4.939   3.890   0.553  0.1406  0.7822  0.1216
 5167SOL     OW20433   0.345   0.832   2.490  0.0944  0.0736 -0.0261
 5167SOL    HW220434   0.301   0.914   2.514  0.9498  0.3721  0.5597
 5167SOL    HW320435   0.273   0.771   2.474 -0.5537  0.2858  1.8042
 5167SOL    MW420436   0.329   0.835   2.491 -0.2170 -0.2084  0.0405
 5168SOL     OW20437   5.407   4.289   5.999 -0.0581 -0.3649  0.1850
 5168SOL    HW220438   5.389   4.250   6.085 -1.2721 -0.8606 -0.2642
 5168SOL    HW320439   5.486   4.342   6.012 -1.7168  1.8292  2.3382
 5168SOL    MW420440   5.415   4.291   6.012 -0.1987 -0.3976  0.7874
 5169SOL     OW20441   5.682   2.398   1.836 -0.5200 -0.6224 -0.3444
 5169SOL    HW220442   5.594   2.391   1.871 -0.7369 -1.8968 -1.0939
 5169SOL    HW320443   5.671   2.391   1.741  0.2183  1.0442 -0.6064
 5169SOL    MW420444   5.669   2.396   1.828 -0.0919 -0.1651 -0.1723
 5170SOL     OW20445   3.068   3.594   0.803  0.1820  0.0373  1.1819
 5170SOL    HW220446   3.040   3.503   0.791 -1.0790  0.3346  1.6480
 5170SOL    HW320447   3.018   3.624   0.879  0.9239  0.9916  1.3066
 5170SOL    MW420448   3.057   3.586   0.811 -0.1955  0.5666  0.8516
 5171SOL     OW20449   1.589   4.525   6.025 -0.2966  0.5141 -0.1099
 5171SOL    HW220450   1.536   4.546   6.102 -1.6763  0.5705 -1.0482
 5171SOL    HW320451   1.527   4.524   5.952  0.4858 -2.1021 -0.8716
 5171SOL    MW420452   1.574   4.527   6.025 -0.0856  0.0516 -0.3966
 5172SOL     OW20453   1.984   4.033   3.062 -0.0938  0.2666  0.4306
 5172SOL    HW220454   1.993   4.012   3.155 -3.0020 -0.3521  0.6495
 5172SOL    HW320455   1.986   3.948   3.018 -0.3340  0.4399  0.0844
 5172SOL    MW420456   1.986   4.019   3.069  0.1732 -0.9504  0.6558
 5173SOL     OW20457   3.032   5.317   4.151  0.1972 -0.5007  0.3216
 5173SOL    HW220458   3.089   5.241   4.165 -0.9836 -1.1516  1.9235
 5173SOL    HW320459   2.952   5.280   4.113 -0.3746 -0.0754  1.0868
 5173SOL    MW420460   3.029   5.302   4.148  0.6583  0.6377 -0.4002
 5174SOL     OW20461   0.460   5.871   4.630 -0.2286  0.3045  0.1303
 5174SOL    HW220462   0.385   5.825   4.592  0.7371 -0.3108 -1.1005
 5174SOL    HW320463   0.536   5.818   4.606  0.4674 -0.4242  3.3845
 5174SOL    MW420464   0.460   5.858   4.622  0.7133  0.0929  0.5629
 5175SOL     OW20465   0.508   1.506   2.999  0.2783 -0.1802 -0.2415
 5175SOL    HW220466   0.521   1.516   3.094  2.0874 -2.0155 -0.2299
 5175SOL    HW320467   0.522   1.594   2.964 -1.7871  0.8447  1.2619
 5175SOL    MW420468   0.512   1.519   3.007 -0.2766 -0.0131  0.2211
 5176SOL     OW20469   0.576   2.455   0.522  0.3477 -0.4219 -0.2301
 5176SOL    HW220470   0.495   2.446   0.572 -0.7843  0.3915 -1.8373
 5176SOL    HW320471   0.639   2.491   0.584 -0.9451  0.3313  0.6828
 5176SOL    MW420472   0.574   2.459   0.537 -0.0506  0.7804  0.3346
 5177SOL     OW20473   1.352   1.898   5.846 -0.1303  0.0249  0.1516
 5177SOL    HW220474   1.350   1.971   5.909 -0.8628 -0.2866  0.4915
 5177SOL    HW320475   1.397   1.828   5.892 -1.9889 -0.7208  0.9139
 5177SOL    MW420476   1.358   1.899   5.861 -0.0256 -0.3765  0.3377
 5178SOL     OW20477   1.342   0.894   2.175  0.0780 -0.1771 -0.7104
 5178SOL    HW220478   1.353   0.952   2.100  0.8242  0.4566 -0.1288
 5178SOL    HW320479   1.255   0.856   2.164  0.2875 -0.2957 -2.0263
 5178SOL    MW420480   1.332   0.897   2.164  0.1950 -0.2339  0.6937
 5179SOL     OW20481   1.651   4.380   3.944  0.8059 -0.3352  0.3950
 5179SOL    HW220482   1.618   4.346   4.027  0.3822 -0.0134  0.3621
 5179SOL    HW320483   1.603   4.462   3.930  0.7600 -0.4589 -0.2399
 5179SOL    MW420484   1.641   4.386   3.953 -0.1337  0.3439 -0.4567
 5180SOL     OW20485   0.498   6.152   1.005 -0.3243  0.1804 -0.4059
 5180SOL    HW220486   0.562   6.081   1.001 -1.9923 -1.3494 -1.5548
 5180SOL    HW320487   0.519   6.208   0.930  0.7183  0.6548  0.2348
 5180SOL    MW420488   0.509   6.150   0.994  0.6387 -0.4802 -0.4893
 5181SOL     OW20489   3.623   0.806   3.131  0.0593  0.4868 -0.1457
 5181SOL    HW220490   3.566   0.830   3.204  0.6803  0.9141  0.2058
 5181SOL    HW320491   3.705   0.853   3.148 -0.3265  1.9011 -1.9721
 5181SOL    MW420492   3.626   0.815   3.143  0.0430 -0.3339 -0.3498
 5182SOL     OW20493   1.287   4.178   4.570 -0.0593 -0.6147  0.4165
 5182SOL    HW220494   1.307   4.266   4.537 -1.2110 -0.2689  0.6039
 5182SOL    HW320495   1.370   4.132   4.566 -0.0397 -0.5969 -3.0105
 5182SOL    MW420496   1.300   4.184   4.565 -0.6514 -0.2655 -0.0296
 5183SOL     OW20497   4.212   3.440   0.847 -0.0421 -0.4564 -0.2322
 5183SOL    HW220498   4.230   3.385   0.923  0.0315  0.2184  0.2535
 5183SOL    HW320499   4.191   3.379   0.777 -1.5588 -1.0691  0.7043
 5183SOL    MW420500   4.212   3.425   0.848 -0.3315 -0.9394 -0.4436
 5184SOL     OW20501   0.839   1.323   3.753  0.1769 -0.6730  0.3670
 5184SOL    HW220502   0.874   1.324   3.663 -0.6173  0.2538  0.0436
 5184SOL    HW320503   0.807   1.234   3.765 -0.2898 -0.6371 -0.5136
 5184SOL    MW420504   0.840   1.312   3.742  0.5089  0.4703  0.0695
 5185SOL     OW20505   0.340   0.520   2.789 -0.6735 -0.3974 -0.5472
 5185SOL    HW220506   0.313   0.610   2.770 -0.8364 -0.3490 -0.0793
 5185SOL    HW320507   0.364   0.521   2.881 -0.9772 -0.9088 -0.4633
 5185SOL    MW420508   0.340   0.532   2.798  0.0382 -0.0258  0.0326
 5186SOL     OW20509   5.830   5.384   3.091  0.9152 -0.6737 -0.0435
 5186SOL    HW220510   5.812   5.301   3.136  1.5820 -0.9015 -0.1806
 5186SOL    HW320511   5.812   5.451   3.157 -0.6460 -0.8610 -0.2508
 5186SOL    MW420512   5.825   5.382   3.106 -0.4333 -0.2917 -0.1566
 5187SOL     OW20513   3.925   2.875   5.177 -0.4035  0.0900 -0.7957
 5187SOL    HW220514   3.945   2.899   5.267 -3.4386 -2.9349  0.9009
 5187SOL    HW320515   4.004   2.830   5.146  0.6383  1.0707  0.3396
 5187SOL    MW420516   3.938   2.872   5.185 -0.5300  0.3708 -0.7594
 5188SOL     OW20517   1.988   3.881   5.817  0.3495  0.1434  0.5259
 5188SOL    HW220518   2.062   3.848   5.766  0.6597 -0.7967  1.5381
 5188SOL    HW320519   1.918   3.818   5.801  0.3585  0.0018  1.0342
 5188SOL    MW420520   1.989   3.868   5.808  0.3863  0.4447  0.1597
 5189SOL     OW20521   3.302   5.096   5.703 -0.1549 -0.0989  1.0022
 5189SOL    HW220522   3.231   5.036   5.726 -0.0652  0.4615  2.8761
 5189SOL    HW320523   3.261   5.182   5.699 -0.3052 -0.1911 -1.7936
 5189SOL    MW420524   3.287   5.099   5.706  0.5003  0.5007 -0.3712
 5190SOL     OW20525   0.116   0.149   0.789 -0.4390 -0.2437  0.1112
 5190SOL    HW220526   0.196   0.171   0.740  0.8886  2.2135  3.0840
 5190SOL    HW320527   0.056   0.114   0.722  2.3456 -0.2255 -2.6107
 5190SOL    MW420528   0.118   0.148   0.773  0.3057 -0.7179 -0.3722
 5191SOL     OW20529   3.341   2.159   1.963  0.1852  0.2679  0.3795
 5191SOL    HW220530   3.257   2.176   1.921 -0.9782 -0.2140  2.3957
 5191SOL    HW320531   3.319   2.116   2.045  2.5309 -2.4495 -0.2426
 5191SOL    MW420532   3.327   2.155   1.968  0.4718  0.3055  0.1970
 5192SOL     OW20533   1.665   5.520   4.347  0.2660 -0.3462 -0.3914
 5192SOL    HW220534   1.675   5.489   4.437 -0.5622  0.9503  0.1879
 5192SOL    HW320535   1.571   5.535   4.337  0.2575 -1.1211 -1.7211
 5192SOL    MW420536   1.654   5.518   4.358  0.3238  0.3278 -0.2176
 5193SOL     OW20537   0.811   5.371   2.568  0.0390  1.2501  0.3002
 5193SOL    HW220538   0.790   5.457   2.603 -0.3337  1.8084 -1.2079
 5193SOL    HW320539   0.894   5.347   2.610 -0.2373  1.9810  1.3096
 5193SOL    MW420540   0.819   5.379   2.578 -0.0367 -0.2163  0.3063
 5194SOL     OW20541   5.645   3.664   4.683  0.2860 -0.3775  0.5244
 5194SOL    HW220542   5.596   3.595   4.638 -0.5259  0.3926  0.2125
 5194SOL    HW320543   5.579   3.710   4.735  0.1495  2.2260 -1.7655
 5194SOL    MW420544   5.630   3.661   4.684  0.1298  0.6519 -0.2713
 5195SOL     OW20545   2.822   2.726   3.043 -0.4870 -0.1795 -0.5905
 5195SOL    HW220546   2.843   2.643   3.000 -1.8101 -0.1232 -1.3998
 5195SOL    HW320547   2.804   2.701   3.134  0.5493 -0.5599 -0.4778
 5195SOL    MW420548   2.822   2.712   3.050  0.2165  1.1236 -0.3794
 5196SOL     OW20549   2.139   4.359   2.544 -0.0491 -0.2357 -0.2647
 5196SOL    HW220550   2.141   4.269   2.576  0.1402  0.0465  0.5348
 5196SOL    HW320551   2.178   4.354   2.456  0.5745 -0.8329  0.0365
 5196SOL    MW420552   2.144   4.347   2.536 -0.1835  0.2434 -0.0831
 5197SOL     OW20553   1.914   3.500   4.065  0.4650  0.1312  0.4656
 5197SOL    HW220554   1.964   3.576   4.096  2.3625 -0.1631 -1.6059
 5197SOL    HW320555   1.980   3.431   4.054 -0.7107 -0.8700 -0.5593
 5197SOL    MW420556   1.929   3.501   4.067 -0.2761 -0.6137  0.4289
 5198SOL     OW20557   4.168   1.009   2.222  0.4935  0.0443 -0.4345
 5198SOL    HW220558   4.210   0.926   2.197 -1.0195 -0.3756 -1.7420
 5198SOL    HW320559   4.133   1.044   2.141 -0.9569  0.7815  0.4577
 5198SOL    MW420560   4.169   1.002   2.208 -0.8856  0.0430 -0.0820
 5199SOL     OW20561   6.369   3.239   6.255  0.0172  0.1024 -0.0796
 5199SOL    HW220562   6.308   3.308   6.227 -1.2787 -0.2784  1.6205
 5199SOL    HW320563   6.454   3.282   6.257 -0.4917  1.1924 -0.6367
 5199SOL    MW420564   6.372   3.254   6.251  0.6226  0.0005 -0.0204
 5200SOL     OW20565   4.013   1.316   2.985  0.1100  0.3078 -0.1455
 5200SOL    HW220566   4.041   1.270   2.906 -1.3698 -0.7733 -0.0772
 5200SOL    HW320567   3.919   1.298   2.991 -0.7222  3.7542 -0.4060
 5200SOL    MW420568   4.004   1.308   2.975 -0.9395  0.2494  0.4555
 5201SOL     OW20569   4.941   5.756   1.553 -0.0204  0.7365  0.1849
 5201SOL    HW220570   4.957   5.679   1.606 -0.1755  2.2941  2.6363
 5201SOL    HW320571   4.848   5.752   1.533 -0.5705  1.4393  2.3578
 5201SOL    MW420572   4.931   5.745   1.557 -0.0617 -0.6083  0.1673
 5202SOL     OW20573   3.573   2.836   4.603 -0.6590  0.2832 -0.2037
 5202SOL    HW220574   3.551   2.918   4.647 -3.1082  0.4840 -1.6358
 5202SOL    HW320575   3.656   2.854   4.559 -1.0290  1.9295 -0.2913
 5202SOL    MW420576   3.581   2.849   4.603  0.7753  0.0528  0.0497
 5203SOL     OW20577   1.120   5.021   0.548  0.5129 -0.5100 -0.1590
 5203SOL    HW220578   1.039   5.068   0.565  2.3332  2.1143  2.0633
 5203SOL    HW320579   1.147   5.050   0.460  0.1398  0.3537  0.0038
 5203SOL    MW420580   1.113   5.031   0.538  0.3532 -0.4078  0.4288
 5204SOL     OW20581   1.486   1.638   6.385 -0.3313  0.2417  0.5841
 5204SOL    HW220582   1.433   1.568   6.423 -0.4582 -1.7045 -2.7709
 5204SOL    HW320583   1.436   1.666   6.308  1.6938  1.0716 -0.4986
 5204SOL    MW420584   1.473   1.632   6.379  0.1306 -0.1777 -0.4351
 5205SOL     OW20585   3.811   1.956   5.931  0.0304 -0.4838  0.3300
 5205SOL    HW220586   3.806   1.964   5.836  0.5418  1.3903  0.4112
 5205SOL    HW320587   3.756   2.028   5.964 -2.2557 -2.6182  1.5286
 5205SOL    MW420588   3.803   1.967   5.923  0.0782 -0.4769  0.1960
 5206SOL     OW20589   4.243   4.794   3.503 -0.3182 -0.0388  0.3039
 5206SOL    HW220590   4.317   4.853   3.520  0.1827 -0.5515 -0.0662
 5206SOL    HW320591   4.168   4.852   3.491 -0.0116  0.4797  0.8704
 5206SOL    MW420592   4.243   4.809   3.504 -0.3408 -0.0401  0.1450
 5207SOL     OW20593   3.308   4.135   4.984  0.1445  0.1249 -0.2900
 5207SOL    HW220594   3.264   4.213   5.019  1.7320  1.4475 -1.1209
 5207SOL    HW320595   3.328   4.082   5.062 -1.0560  0.4790  0.2745
 5207SOL    MW420596   3.305   4.138   4.999  0.5026  0.0338 -0.6344
 5208SOL     OW20597   6.355   1.997   3.567  0.2614 -0.4559 -0.2904
 5208SOL    HW220598   6.400   2.055   3.628  0.0351  1.1591 -1.5918
 5208SOL    HW320599   6.272   1.977   3.610 -0.4731  1.7221 -0.5657
 5208SOL    MW420600   6.350   2.002   3.581 -0.4357 -0.3581 -0.5347
 5209SOL     OW20601   2.976   0.672   1.080 -0.4380  0.2330 -0.1956
 5209SOL    HW220602   2.940   0.644   1.164 -0.4236  0.6513 -0.0442
 5209SOL    HW320603   3.027   0.751   1.101 -2.0038  1.4883 -0.8588
 5209SOL    MW420604   2.978   0.679   1.094  0.3537 -0.8035 -0.2832
 5210SOL     OW20605   2.428   6.385   4.580 -0.4362  0.4501 -0.1883
 5210SOL    HW220606   2.518   6.353   4.578 -0.3840  0.5393  0.7360
 5210SOL    HW320607   2.411   6.407   4.671 -0.3335  3.5265 -0.7945
 5210SOL    MW420608   2.438   6.383   4.592 -0.0887 -0.6455 -0.5600
 5211SOL     OW20609   2.427   1.996   6.109 -0.0710 -0.6261  0.0286
 5211SOL    HW220610   2.505   1.944   6.090  0.4807 -0.0232  0.5989
 5211SOL    HW320611   2.408   2.041   6.027  0.5305 -0.3220  0.0538
 5211SOL    MW420612   2.435   1.995   6.095 -0.3577 -0.1644  0.0276
 5212SOL     OW20613   3.372   4.779   4.291 -0.4057 -0.1292  0.1505
 5212SOL    HW220614   3.331   4.713   4.346 -0.3891  0.6439  1.1190
 5212SOL    HW320615   3.380   4.737   4.205 -1.2917 -1.0284  0.4815
 5212SOL    MW420616   3.367   4.765   4.287 -0.0665  0.1094  0.1460
 5213SOL     OW20617   3.902   2.027   5.345 -0.6560  0.7406  0.0301
 5213SOL    HW220618   3.930   2.015   5.254 -3.4007 -4.2003 -0.4903
 5213SOL    HW320619   3.969   1.982   5.396 -0.7336  0.8145  0.1976
 5213SOL    MW420620   3.915   2.020   5.339  0.3698  0.0331  0.0311
 5214SOL     OW20621   0.037   2.599   1.094  0.3410  0.0231 -0.2059
 5214SOL    HW220622   0.064   2.595   1.002 -0.2371  0.4030 -0.4001
 5214SOL    HW320623   0.045   2.692   1.117  0.0276  0.0055 -0.0208
 5214SOL    MW420624   0.041   2.611   1.085 -0.2332  0.3321 -0.2208
 5215SOL     OW20625   1.376   2.658   3.601  0.2400 -0.5127 -0.0841
 5215SOL    HW220626   1.328   2.658   3.519  0.6092 -1.4222 -0.3078
 5215SOL    HW320627   1.467   2.643   3.576  0.1796 -2.2035  0.5705
 5215SOL    MW420628   1.382   2.656   3.587  0.3337  0.7359  0.2833
 5216SOL     OW20629   0.161   1.753   1.036  0.8501  0.0543  0.4372
 5216SOL    HW220630   0.095   1.706   0.986 -2.5584  2.6304  2.1282
 5216SOL    HW320631   0.190   1.823   0.978  0.9122 -0.1267  0.2471
 5216SOL    MW420632   0.156   1.756   1.022 -0.4009 -0.4281 -0.0809
 5217SOL     OW20633   2.841   3.504   4.371  0.3409 -0.3989 -0.0525
 5217SOL    HW220634   2.789   3.584   4.359  0.2406 -0.6860 -1.8606
 5217SOL    HW320635   2.915   3.531   4.425 -1.3935  0.1261  2.1787
 5217SOL    MW420636   2.844   3.518   4.376  0.1557 -0.0331  0.7973
 5218SOL     OW20637   2.459   0.597   2.478  0.4406 -0.4890 -0.5094
 5218SOL    HW220638   2.398   0.599   2.404 -1.3223 -0.6096  0.8850
 5218SOL    HW320639   2.465   0.505   2.501  0.5781 -0.3969 -0.1822
 5218SOL    MW420640   2.452   0.585   2.471  0.3355  0.0287  0.7561
 5219SOL     OW20641   3.127   3.315   0.546  0.1274  0.3976  0.4510
 5219SOL    HW220642   3.073   3.307   0.625 -0.3708  2.6678  0.3894
 5219SOL    HW320643   3.070   3.286   0.475 -0.7324  1.8518  0.5095
 5219SOL    MW420644   3.112   3.310   0.547  0.4071  0.5021  0.2758
 5220SOL     OW20645   0.983   1.205   5.867 -0.1341  0.4686 -0.0516
 5220SOL    HW220646   0.953   1.287   5.906 -0.9407 -0.4975  1.4320
 5220SOL    HW320647   1.066   1.186   5.910 -0.0344  0.4218 -0.2632
 5220SOL    MW420648   0.990   1.213   5.877 -0.3560 -0.1119  0.0708
 5221SOL     OW20649   5.536   4.364   5.493 -0.3386 -0.0012  0.1178
 5221SOL    HW220650   5.481   4.387   5.568  1.0538 -0.3401  1.2918
 5221SOL    HW320651   5.610   4.318   5.531  0.9381  0.7374 -1.3556
 5221SOL    MW420652   5.539   4.361   5.508  0.3687  0.0062  0.4892
 5222SOL     OW20653   4.936   5.751   3.785 -0.3591  0.6914 -0.2608
 5222SOL    HW220654   4.908   5.663   3.758  1.8754  0.3034 -1.5513
 5222SOL    HW320655   5.027   5.740   3.813 -0.0759  2.5668 -0.3379
 5222SOL    MW420656   4.944   5.738   3.785 -0.4376 -0.0142  0.0827
 5223SOL     OW20657   0.718   5.106   2.235  0.0805 -0.4844 -0.8007
 5223SOL    HW220658   0.672   5.081   2.315 -0.6122 -0.8323 -1.2886
 5223SOL    HW320659   0.677   5.052   2.167  0.4755 -0.0038 -1.4266
 5223SOL    MW420660   0.706   5.095   2.236  0.2966 -0.5768 -1.1474
 5224SOL     OW20661   4.324   5.772   5.231  0.1245  0.8539 -0.2717
 5224SOL    HW220662   4.327   5.848   5.173 -0.1139 -1.3791 -3.5063
 5224SOL    HW320663   4.294   5.700   5.175 -0.0958 -1.5718  2.6754
 5224SOL    MW420664   4.321   5.772   5.216  0.1917 -0.4242 -0.1233
 5225SOL     OW20665   5.896   2.884   1.127  0.2195 -0.1569  0.4540
 5225SOL    HW220666   5.909   2.951   1.060 -0.2079 -0.9333 -0.4213
 5225SOL    HW320667   5.863   2.933   1.203 -0.3381  0.5936 -0.2482
 5225SOL    MW420668   5.893   2.900   1.128 -0.2566  0.6394  0.5332
 5226SOL     OW20669   0.468   2.014   4.370  0.4110  0.1941 -0.2313
 5226SOL    HW220670   0.436   2.005   4.460 -1.3250 -0.5041 -0.8733
 5226SOL    HW320671   0.389   2.030   4.318  1.2212 -0.5670 -1.7707
 5226SOL    MW420672   0.453   2.015   4.375 -0.6747 -0.2065 -0.0199
 5227SOL     OW20673   2.014   2.055   5.529 -0.2389  0.0262  0.3604
 5227SOL    HW220674   1.969   2.139   5.521  0.4576  0.2885 -1.2554
 5227SOL    HW320675   1.961   1.994   5.478 -0.9390 -0.6332  1.8213
 5227SOL    MW420676   2.001   2.058   5.521  0.4984 -0.4038  0.7237
 5228SOL     OW20677   4.164   3.894   4.204 -0.0484  0.3868  0.0878
 5228SOL    HW220678   4.093   3.930   4.151 -0.4737 -0.5571 -0.0091
 5228SOL    HW320679   4.178   3.806   4.169 -0.3921 -0.3026  1.5613
 5228SOL    MW420680   4.156   3.887   4.193  0.2882  0.2205 -0.0140
 5229SOL     OW20681   2.023   0.935   2.113 -0.1483  0.5457 -0.0428
 5229SOL    HW220682   1.987   0.993   2.046 -0.0159  1.4684  0.6698
 5229SOL    HW320683   2.049   0.993   2.184  1.4785 -0.2237  0.0324
 5229SOL    MW420684   2.022   0.950   2.113  0.2920 -0.0266  0.8502
 5230SOL     OW20685   0.163   4.997   2.616 -0.3872 -0.0195  0.4059
 5230SOL    HW220686   0.227   5.038   2.557  0.3406 -2.1037 -0.3480
 5230SOL    HW320687   0.128   5.069   2.667  1.4908  1.4022 -0.2010
 5230SOL    MW420688   0.167   5.012   2.615 -0.0546 -0.0081 -0.4962
 5231SOL     OW20689   2.534   1.120   2.931  0.1043  0.2646 -0.8304
 5231SOL    HW220690   2.467   1.082   2.873 -0.0644  1.6875 -1.6069
 5231SOL    HW320691   2.587   1.175   2.874  0.1796  1.3985  0.2896
 5231SOL    MW420692   2.532   1.122   2.916  0.6075  0.0639 -0.9737
 5232SOL     OW20693   0.553   6.073   3.238  0.7774 -0.0956 -0.5242
 5232SOL    HW220694   0.492   6.146   3.226  0.0570 -0.0138  2.6573
 5232SOL    HW320695   0.640   6.113   3.231  0.5713  0.0513 -3.6739
 5232SOL    MW420696   0.556   6.088   3.236  0.1938 -0.5888  0.6124
 5233SOL     OW20697   5.417   1.524   1.363  0.1129 -0.1260  0.4368
 5233SOL    HW220698   5.355   1.514   1.291  1.5995 -1.6168 -0.7336
 5233SOL    HW320699   5.385   1.464   1.431 -0.2334 -0.1841  0.2261
 5233SOL    MW420700   5.405   1.515   1.363 -0.6422  0.3875 -0.0363
 5234SOL     OW20701   6.263   5.520   5.205  0.1882  0.2329  0.4597
 5234SOL    HW220702   6.178   5.544   5.242 -2.1395 -1.6698 -3.0656
 5234SOL    HW320703   6.303   5.603   5.179 -1.9545  1.0777 -0.3693
 5234SOL    MW420704   6.257   5.534   5.206 -0.3379 -0.6227  0.2919
 5235SOL     OW20705   0.601   0.004   4.326  0.3699  0.2712 -0.2731
 5235SOL    HW220706   0.644   0.031   4.407  0.6744  1.7809 -0.9057
 5235SOL    HW320707   0.629   0.068   4.261  1.0288 -1.5412 -1.8629
 5235SOL    MW420708   0.610   0.016   4.328  0.3828  0.0467  0.3256
 5236SOL     OW20709   5.929   4.788   2.354 -0.4604  0.1091  0.5129
 5236SOL    HW220710   5.974   4.818   2.433  1.0729  1.9166 -0.9311
 5236SOL    HW320711   5.854   4.847   2.345  0.7484  1.5868 -0.5991
 5236SOL    MW420712   5.925   4.800   2.363  0.3728  0.2173 -0.1609
 5237SOL     OW20713   4.528   1.086   3.349  0.1880  0.6283 -0.3008
 5237SOL    HW220714   4.451   1.136   3.377 -0.5733 -0.1573 -0.9167
 5237SOL    HW320715   4.521   1.085   3.253  0.8157  0.3183 -0.3433
 5237SOL    MW420716   4.517   1.092   3.340  0.0633  0.3599 -0.0129
 5238SOL     OW20717   4.714   3.859   5.586 -0.6686  0.1085  0.1215
 5238SOL    HW220718   4.809   3.856   5.596 -0.8025 -1.2834  1.3974
 5238SOL    HW320719   4.697   3.811   5.505 -0.2343  1.4754 -0.8106
 5238SOL    MW420720   4.724   3.852   5.577 -0.2915 -0.1179 -0.1974
 5239SOL     OW20721   6.084   3.933   4.555  1.2408 -0.0609 -0.1999
 5239SOL    HW220722   6.081   3.925   4.650  2.2626 -0.8349 -0.2107
 5239SOL    HW320723   6.096   3.843   4.524  1.1983  0.2169 -1.0388
 5239SOL    MW420724   6.085   3.920   4.563  0.0790 -0.1523  0.1987
 5240SOL     OW20725   3.997   0.225   3.581  0.0561  0.6532 -0.2555
 5240SOL    HW220726   3.945   0.166   3.526  0.0398 -0.3609  0.8151
 5240SOL    HW320727   4.083   0.227   3.539 -0.1667  0.4803 -0.7290
 5240SOL    MW420728   4.001   0.217   3.568  0.7600 -0.1868 -0.2906
 5241SOL     OW20729   1.327   1.351   0.962  0.0710 -0.2435  0.0376
 5241SOL    HW220730   1.233   1.371   0.963  0.1530  0.1469  0.2767
 5241SOL    HW320731   1.336   1.276   1.020 -0.2434 -0.9934 -0.8600
 5241SOL    MW420732   1.316   1.344   0.969  0.4294  0.7741 -0.0664
 5242SOL     OW20733   1.396   5.765   6.264 -0.6016 -0.5059 -0.1233
 5242SOL    HW220734   1.359   5.823   6.331 -1.3391 -1.4136  0.2663
 5242SOL    HW320735   1.377   5.677   6.295 -0.1113 -0.9522 -1.0651
 5242SOL    MW420736   1.389   5.761   6.277 -0.1083  0.1105  0.4601
 5243SOL     OW20737   6.292   1.788   1.492 -0.5694  0.1888 -0.6777
 5243SOL    HW220738   6.291   1.765   1.586  0.4020  0.4375 -0.5994
 5243SOL    HW320739   6.259   1.709   1.449 -0.1326 -0.2774 -0.1882
 5243SOL    MW420740   6.287   1.774   1.499  0.0960  0.3372 -0.1602
 5244SOL     OW20741   2.399   5.680   3.770 -0.0742  0.2576  0.9256
 5244SOL    HW220742   2.402   5.775   3.780 -2.6033  0.2948  2.2267
 5244SOL    HW320743   2.314   5.663   3.729  0.1050 -1.4721  1.2044
 5244SOL    MW420744   2.388   5.690   3.766  0.4333  0.1941 -0.5718
 5245SOL     OW20745   2.065   4.389   4.768 -0.3472  0.2775  0.4774
 5245SOL    HW220746   2.086   4.430   4.684  0.8542 -0.5771  0.3362
 5245SOL    HW320747   1.971   4.405   4.780 -0.5716  0.2762 -1.0945
 5245SOL    MW420748   2.055   4.397   4.759 -0.3137  0.3366 -0.0645
 5246SOL     OW20749   0.794   4.084   0.078  0.2324 -0.7443 -0.6151
 5246SOL    HW220750   0.867   4.043   0.031 -0.1828 -1.3958 -0.7117
 5246SOL    HW320751   0.718   4.029   0.057  0.2844 -1.9257  1.9802
 5246SOL    MW420752   0.793   4.071   0.069  0.7237 -0.2077 -0.4396
 5247SOL     OW20753   3.822   2.268   0.381  0.6830 -0.2192  0.0108
 5247SOL    HW220754   3.758   2.261   0.310  0.0115 -0.4615  0.6305
 5247SOL    HW320755   3.838   2.362   0.388  2.6614 -0.3030 -2.1054
 5247SOL    MW420756   3.816   2.280   0.372  0.2410 -0.1481 -0.0463
 5248SOL     OW20757   0.362   5.730   2.120 -0.3800  0.1991 -0.1124
 5248SOL    HW220758   0.384   5.774   2.202  0.2493 -0.6034  0.1619
 5248SOL    HW320759   0.435   5.751   2.061  0.5038 -1.3593  0.3725
 5248SOL    MW420760   0.374   5.738   2.123 -0.0989 -0.3101 -0.2107
 5249SOL     OW20761   0.865   3.764   1.795 -0.2636 -0.4473  0.2994
 5249SOL    HW220762   0.894   3.738   1.882  0.3454 -0.7807  0.0003
 5249SOL    HW320763   0.938   3.743   1.737 -0.7974 -0.5766 -0.3507
 5249SOL    MW420764   0.878   3.758   1.799  0.1205  0.8125  1.0155
 5250SOL     OW20765   2.723   0.453   6.027  0.3090  0.1383  0.4287
 5250SOL    HW220766   2.797   0.394   6.015 -1.1082 -1.5417 -0.4819
 5250SOL    HW320767   2.655   0.399   6.068 -1.0029  1.1420 -0.3404
 5250SOL    MW420768   2.723   0.438   6.031  0.1335  0.9801 -0.1696
 5251SOL     OW20769   5.745   1.303   5.552 -0.4206 -0.1111  0.6685
 5251SOL    HW220770   5.717   1.348   5.473  2.3396 -0.3693 -0.5989
 5251SOL    HW320771   5.778   1.373   5.609  0.1232 -0.1368  0.3979
 5251SOL    MW420772   5.746   1.318   5.549 -0.2808 -0.1326 -1.3943
 5252SOL     OW20773   4.835   0.671   0.302 -0.3974 -0.5691 -0.1270
 5252SOL    HW220774   4.830   0.653   0.395 -1.7582 -0.0386 -0.0660
 5252SOL    HW320775   4.802   0.592   0.259  1.9182 -1.5337 -0.2898
 5252SOL    MW420776   4.830   0.658   0.308 -0.2079 -0.5250  0.2322
 5253SOL     OW20777   3.559   5.232   1.446 -0.4522 -0.1573 -0.2913
 5253SOL    HW220778   3.513   5.188   1.375  0.0841  0.7084 -1.2174
 5253SOL    HW320779   3.493   5.245   1.514 -1.7546  1.4225 -1.7442
 5253SOL    MW420780   3.544   5.228   1.446 -0.4260 -0.4470  0.5574
 5254SOL     OW20781   2.952   2.265   3.239  0.1603 -0.7184 -0.2237
 5254SOL    HW220782   2.990   2.282   3.153 -1.2845  1.1888 -0.5652
 5254SOL    HW320783   3.001   2.322   3.299 -2.1643  2.1223 -0.7391
 5254SOL    MW420784   2.963   2.275   3.236  0.6356  0.0942  0.2013
 5255SOL     OW20785   4.654   0.449   0.240  0.4680 -0.1442 -0.0582
 5255SOL    HW220786   4.578   0.506   0.231  1.8026  1.7127 -0.0555
 5255SOL    HW320787   4.617   0.361   0.251 -1.6933  0.9058  1.6815
 5255SOL    MW420788   4.639   0.445   0.240  0.0926  0.3055 -0.4084
 5256SOL     OW20789   2.091   4.695   2.886 -0.3204 -0.3019 -0.3872
 5256SOL    HW220790   2.179   4.689   2.922 -0.8910  1.5969  1.5392
 5256SOL    HW320791   2.034   4.670   2.959 -1.4148 -0.8489 -1.3972
 5256SOL    MW420792   2.095   4.691   2.900  0.0824 -0.1261  0.1691
 5257SOL     OW20793   0.589   1.978   3.321  0.3091 -0.4579  0.3849
 5257SOL    HW220794   0.529   1.913   3.356 -0.4978 -0.3230 -0.7196
 5257SOL    HW320795   0.571   2.057   3.372  1.1483 -0.9975  1.5875
 5257SOL    MW420796   0.579   1.980   3.332  0.0262  0.4504  0.3099
 5258SOL     OW20797   0.378   4.043   5.696 -0.0101 -0.6285 -0.1027
 5258SOL    HW220798   0.466   4.022   5.664 -0.5765 -0.3367 -1.9568
 5258SOL    HW320799   0.321   3.977   5.656 -0.8774  0.3202 -0.4908
 5258SOL    MW420800   0.382   4.031   5.686  0.2405 -0.7137  0.4850
 5259SOL     OW20801   1.229   0.299   3.096  0.4973 -0.1830  0.1229
 5259SOL    HW220802   1.268   0.347   3.169 -0.3430 -0.3882  0.7229
 5259SOL    HW320803   1.302   0.282   3.036  1.2151 -0.0759  0.9526
 5259SOL    MW420804   1.243   0.303   3.097  0.3585 -0.7002 -0.2843
 5260SOL     OW20805   5.184   6.398   1.412 -0.0788 -0.2640  0.3273
 5260SOL    HW220806   5.207   6.306   1.400 -0.0768 -0.1566 -0.5749
 5260SOL    HW320807   5.090   6.396   1.434  0.1106 -0.5267  1.1334
 5260SOL    MW420808   5.174   6.385   1.413  0.1861  0.0173  0.1285
 5261SOL     OW20809   2.645   4.341   3.744 -0.0691  0.1236  0.6092
 5261SOL    HW220810   2.573   4.287   3.776  1.7371 -2.4265  0.7274
 5261SOL    HW320811   2.659   4.310   3.654 -0.1753  1.7854 -0.0063
 5261SOL    MW420812   2.638   4.330   3.736  0.2210 -0.3576 -0.4892
 5262SOL     OW20813   5.415   1.136   5.301 -0.2801  0.0987  0.4691
 5262SOL    HW220814   5.489   1.190   5.274 -1.5563  1.6276 -0.1155
 5262SOL    HW320815   5.369   1.190   5.365 -1.4850 -0.3672  0.0119
 5262SOL    MW420816   5.419   1.151   5.306  0.3114 -0.2614  0.1135
 5263SOL     OW20817   4.729   3.781   3.562  0.2422  0.5103 -0.1487
 5263SOL    HW220818   4.772   3.832   3.631 -1.3990  0.4677  0.9421
 5263SOL    HW320819   4.638   3.810   3.563 -0.8118 -2.4943  0.6075
 5263SOL    MW420820   4.723   3.791   3.571  0.1345  0.0634  0.1762
 5264SOL     OW20821   5.917   1.468   1.105  0.5718  0.7129 -0.5069
 5264SOL    HW220822   5.840   1.428   1.065  0.2117  1.1765 -0.2895
 5264SOL    HW320823   5.895   1.476   1.197  0.8358  0.9543 -0.4628
 5264SOL    MW420824   5.904   1.464   1.112 -0.4896  0.5715  0.5340
 5265SOL     OW20825   0.847   1.783   6.117 -0.7826 -0.1883 -0.6417
 5265SOL    HW220826   0.909   1.763   6.187 -1.0819 -1.0513 -0.6027
 5265SOL    HW320827   0.897   1.768   6.036 -1.0508 -1.3306 -0.6142
 5265SOL    MW420828   0.862   1.778   6.115 -0.0320 -0.0596 -0.0559
 5266SOL     OW20829   2.511   4.360   2.998 -0.1400 -0.2276 -0.3936
 5266SOL    HW220830   2.421   4.389   3.014  0.2782  1.5600 -1.0196
 5266SOL    HW320831   2.511   4.336   2.905  0.3427  1.1759 -0.7817
 5266SOL    MW420832   2.499   4.361   2.988  0.1933 -0.3717  0.0147
 5267SOL     OW20833   0.376   1.620   0.923 -0.1134 -0.3080 -0.0929
 5267SOL    HW220834   0.295   1.661   0.952  0.9354  1.0469  1.0771
 5267SOL    HW320835   0.441   1.648   0.987  1.4466 -0.7194 -1.4279
 5267SOL    MW420836   0.374   1.629   0.935  0.5455  0.2567  0.0680
 5268SOL     OW20837   4.492   1.317   3.638  0.0837  0.7528 -0.3987
 5268SOL    HW220838   4.419   1.377   3.652  0.5486  1.3333 -0.4177
 5268SOL    HW320839   4.542   1.321   3.719 -1.1457 -1.4272  0.5452
 5268SOL    MW420840   4.489   1.325   3.651  0.1414 -0.7095  0.2966
 5269SOL     OW20841   3.729   2.829   5.845 -0.7925 -0.1305 -0.2708
 5269SOL    HW220842   3.643   2.863   5.867  0.3073  1.9478  1.2048
 5269SOL    HW320843   3.780   2.838   5.926  1.4644  1.0330 -1.6946
 5269SOL    MW420844   3.725   2.835   5.858 -0.3862  0.0432 -0.0346
 5270SOL     OW20845   2.118   3.046   1.573 -0.4026 -0.2472 -0.3057
 5270SOL    HW220846   2.070   2.973   1.536 -1.8256 -0.4752  1.8027
 5270SOL    HW320847   2.092   3.122   1.521 -1.3770 -0.7362 -0.5341
 5270SOL    MW420848   2.109   3.046   1.561 -0.2659  0.2300 -0.2639
 5271SOL     OW20849   2.387   5.331   5.301 -0.2696  0.1345  0.1271
 5271SOL    HW220850   2.374   5.284   5.383 -1.9971 -1.6918 -1.1121
 5271SOL    HW320851   2.470   5.297   5.267  0.4399  0.8764  1.0453
 5271SOL    MW420852   2.397   5.320   5.307 -0.2585 -0.1301  0.5775
 5272SOL     OW20853   2.905   4.386   4.680 -0.1576 -0.4773  0.1153
 5272SOL    HW220854   2.975   4.349   4.626 -1.4424 -1.8173 -0.7280
 5272SOL    HW320855   2.918   4.347   4.766  0.6605  0.0028  0.2158
 5272SOL    MW420856   2.916   4.376   4.684  0.3750  0.3475  0.4175
 5273SOL     OW20857   1.954   5.622   0.554 -0.0219  0.4669  0.3152
 5273SOL    HW220858   1.995   5.675   0.622 -0.1839 -1.8231  2.3144
 5273SOL    HW320859   2.026   5.572   0.516 -0.2955 -0.1760  0.6323
 5273SOL    MW420860   1.969   5.623   0.558  0.2717  0.7086 -0.2424
 5274SOL     OW20861   5.892   6.162   4.217 -0.4322  0.4498 -0.2294
 5274SOL    HW220862   5.936   6.086   4.179 -1.6978 -0.2355 -0.3541
 5274SOL    HW320863   5.836   6.194   4.147  1.9445  3.1214 -1.1172
 5274SOL    MW420864   5.890   6.156   4.203  0.2879  0.0392  0.0158
 5275SOL     OW20865   3.915   5.023   1.277  0.0567  0.0676 -0.5791
 5275SOL    HW220866   3.980   4.960   1.309 -0.1757 -0.0877 -0.4176
 5275SOL    HW320867   3.950   5.108   1.303 -0.0026 -0.0402 -0.1346
 5275SOL    MW420868   3.929   5.026   1.285  0.3221  0.2261 -0.1766
 5276SOL     OW20869   1.502   2.043   5.685 -1.0399  0.5927  0.1667
 5276SOL    HW220870   1.524   1.993   5.606 -0.4952 -0.0821  0.7276
 5276SOL    HW320871   1.446   1.983   5.735  1.3968 -0.4340  1.8935
 5276SOL    MW420872   1.498   2.028   5.681  0.1751  0.0309 -0.4536
 5277SOL     OW20873   4.419   0.481   6.303 -0.9227 -0.0233  0.1356
 5277SOL    HW220874   4.339   0.532   6.291 -1.3230 -0.5814  0.3771
 5277SOL    HW320875   4.400   0.424   6.378 -0.3687 -0.2968  0.0730
 5277SOL    MW420876   4.406   0.480   6.311  0.0399 -0.3816 -0.4167
 5278SOL     OW20877   0.921   5.799   4.497  0.1288  0.4695  0.2085
 5278SOL    HW220878   0.966   5.877   4.529  0.8481  0.5551 -0.9498
 5278SOL    HW320879   0.912   5.813   4.403 -1.0272 -0.2185  0.1962
 5278SOL    MW420880   0.926   5.811   4.489 -0.2308  0.2527  0.0705
 5279SOL     OW20881   5.858   1.095   1.443  0.4666  0.3137 -0.8987
 5279SOL    HW220882   5.776   1.084   1.396  0.0062 -2.2872  0.3481
 5279SOL    HW320883   5.923   1.110   1.374 -0.7401  0.4793 -2.0462
 5279SOL    MW420884   5.856   1.096   1.428 -0.2105  0.5193  0.1786
 5280SOL     OW20885   1.282   3.979   5.152 -0.5774 -0.0179  0.1745
 5280SOL    HW220886   1.328   3.902   5.186  0.7699  1.6150  2.3526
 5280SOL    HW320887   1.192   3.968   5.183 -0.2784 -0.4647  0.9165
 5280SOL    MW420888   1.276   3.967   5.161 -0.6979 -0.4484  0.0105
 5281SOL     OW20889   4.503   0.913   2.324  0.1936 -0.0669  0.3146
 5281SOL    HW220890   4.584   0.864   2.313 -0.1881 -0.7405  0.4636
 5281SOL    HW320891   4.494   0.925   2.418 -0.7002 -1.4176  0.4233
 5281SOL    MW420892   4.512   0.908   2.335  0.4490  0.0761  0.4272
 5282SOL     OW20893   3.829   4.066   5.385 -0.1715  0.4947  0.0104
 5282SOL    HW220894   3.849   4.062   5.291 -0.1261 -1.8649  0.0593
 5282SOL    HW320895   3.822   4.160   5.404  1.2841  1.0945 -2.0270
 5282SOL    MW420896   3.831   4.078   5.375  0.1452  0.4952 -0.6100
 5283SOL     OW20897   3.671   3.202   3.266 -0.1862 -0.0785 -0.0145
 5283SOL    HW220898   3.648   3.268   3.332 -0.3976  1.6667 -1.7480
 5283SOL    HW320899   3.764   3.217   3.249 -0.3537  0.1458 -0.7784
 5283SOL    MW420900   3.680   3.213   3.273  0.5223 -0.1631 -0.0789
 5284SOL     OW20901   4.869   1.629   2.030  0.3294 -0.2844 -0.0172
 5284SOL    HW220902   4.888   1.692   1.961  0.0871 -0.8127 -0.5790
 5284SOL    HW320903   4.827   1.556   1.984 -2.0423  0.3433  0.9678
 5284SOL    MW420904   4.866   1.628   2.015  0.1877  0.8820 -0.0686
 5285SOL     OW20905   4.883   5.743   2.608 -0.0803 -0.1744 -0.1582
 5285SOL    HW220906   4.864   5.788   2.526 -0.7170  0.5145  0.3520
 5285SOL    HW320907   4.850   5.654   2.595 -2.3617  0.5588  0.1457
 5285SOL    MW420908   4.876   5.737   2.596 -0.1776  0.6157  0.0704
 5286SOL     OW20909   6.300   3.174   4.361  0.0867 -0.0157 -0.2233
 5286SOL    HW220910   6.347   3.132   4.433  0.4215  1.7839  0.6849
 5286SOL    HW320911   6.242   3.237   4.405  0.6972  1.5124 -1.5228
 5286SOL    MW420912   6.299   3.177   4.377  0.1550  0.5509 -0.1268
 5287SOL     OW20913   3.044   3.750   2.375 -0.2627  0.5707 -0.0081
 5287SOL    HW220914   2.978   3.779   2.313  0.7116  0.5617 -1.0806
 5287SOL    HW320915   3.102   3.692   2.324  0.7874  0.8873  0.7850
 5287SOL    MW420916   3.043   3.746   2.360 -0.1301  0.1717 -0.4282
 5288SOL     OW20917   4.505   2.841   1.402  0.0936 -0.3571  0.4800
 5288SOL    HW220918   4.548   2.859   1.319  0.0848  0.2968  0.6113
 5288SOL    HW320919   4.539   2.756   1.430 -2.3016 -2.2269 -1.7698
 5288SOL    MW420920   4.515   2.832   1.395 -0.2460 -0.1711  0.3753
 5289SOL     OW20921   2.137   0.909   3.139 -0.3948 -0.5478  0.0375
 5289SOL    HW220922   2.204   0.916   3.206  0.7919 -1.7421 -0.9703
 5289SOL    HW320923   2.156   0.981   3.078 -1.2958  0.3568  0.7848
 5289SOL    MW420924   2.148   0.920   3.139 -0.1737 -0.1135  0.6128
 5290SOL     OW20925   0.207   5.332   3.134 -0.2167 -0.0031 -0.4018
 5290SOL    HW220926   0.146   5.402   3.109 -0.4645 -0.1621 -0.2383
 5290SOL    HW320927   0.234   5.293   3.051  1.0181  1.2049 -0.6006
 5290SOL    MW420928   0.202   5.336   3.120  0.5554 -0.0768  0.3339
 5291SOL     OW20929   0.327   0.008   1.462  0.1656  0.2369  0.0666
 5291SOL    HW220930   0.359  -0.001   1.373 -0.5208 -0.2022 -0.1438
 5291SOL    HW320931   0.237  -0.024   1.459  0.6556 -1.4174  1.2567
 5291SOL    MW420932   0.320   0.003   1.450 -0.6530  0.3211 -0.2608
 5292SOL     OW20933   0.023   4.908   4.931  0.2992 -0.1080  0.5525
 5292SOL    HW220934  -0.021   4.989   4.956 -0.5645 -0.5737  0.5614
 5292SOL    HW320935  -0.031   4.870   4.863  0.7961 -0.5911  0.4165
 5292SOL    MW420936   0.010   4.913   4.925 -0.4532 -0.4432  0.1193
 5293SOL     OW20937   4.272   1.824   0.082 -0.0001 -0.1128  0.2533
 5293SOL    HW220938   4.228   1.782   0.156 -0.9951 -0.6696 -0.6348
 5293SOL    HW320939   4.202   1.869   0.034  0.6144  0.1745 -0.4049
 5293SOL    MW420940   4.257   1.824   0.085  0.0341  0.8475  0.2753
 5294SOL     OW20941   4.707   0.115   3.616 -0.0397 -0.0839 -0.5444
 5294SOL    HW220942   4.742   0.117   3.527  0.0399 -0.1369 -0.5143
 5294SOL    HW320943   4.784   0.115   3.673 -0.0886  2.0590 -0.4176
 5294SOL    MW420944   4.721   0.115   3.612  0.5114  0.1307 -1.0005
 5295SOL     OW20945   0.225   3.296   4.330 -0.1217 -0.0901 -0.0932
 5295SOL    HW220946   0.254   3.353   4.401  0.9782 -0.4975 -0.1981
 5295SOL    HW320947   0.199   3.215   4.373 -1.1992  0.2830  0.0040
 5295SOL    MW420948   0.225   3.293   4.345 -0.9107  0.2668  0.2281
 5296SOL     OW20949   5.766   0.409   3.428 -0.2205  0.2462  0.3737
 5296SOL    HW220950   5.856   0.408   3.396 -0.0294  0.6821  0.8840
 5296SOL    HW320951   5.769   0.363   3.512 -0.1078  1.8568  1.2967
 5296SOL    MW420952   5.778   0.403   3.435 -0.8297  0.3403  0.1880
 5297SOL     OW20953   2.420   1.193   6.348 -0.1289  0.0978 -0.1152
 5297SOL    HW220954   2.352   1.207   6.282 -0.3366 -0.1900  0.0393
 5297SOL    HW320955   2.430   1.098   6.353 -0.8397  0.0740  1.0204
 5297SOL    MW420956   2.413   1.182   6.340  0.0036 -0.0323 -0.7411
 5298SOL     OW20957   6.081   0.431   2.212  0.2596  0.4434 -0.3637
 5298SOL    HW220958   6.057   0.482   2.289  2.5004  1.5876 -0.3619
 5298SOL    HW320959   6.157   0.379   2.240  0.5816  0.2394 -1.5610
 5298SOL    MW420960   6.088   0.431   2.226 -0.2981  0.0146 -0.3042
 5299SOL     OW20961   4.527   5.134   2.790 -0.0493 -0.5847  0.6210
 5299SOL    HW220962   4.518   5.039   2.791  0.6074 -0.6601  0.0553
 5299SOL    HW320963   4.620   5.150   2.804 -0.2789  0.0142  1.5693
 5299SOL    MW420964   4.538   5.123   2.792 -0.3415  0.1355 -0.5308
 5300SOL     OW20965   5.096   4.627   0.619 -0.0328 -0.0491  0.8510
 5300SOL    HW220966   5.017   4.680   0.605  0.4069  0.9026  1.8042
 5300SOL    HW320967   5.155   4.653   0.549 -0.0187  0.3483  1.0078
 5300SOL    MW420968   5.093   4.637   0.608  0.2671 -0.1351  0.7868
 5301SOL     OW20969   2.043   0.416   4.034 -0.0015  0.2377  0.7958
 5301SOL    HW220970   1.975   0.376   3.980 -1.4913  0.8659  2.1206
 5301SOL    HW320971   2.056   0.503   3.995  1.8408 -0.7249 -0.9068
 5301SOL    MW420972   2.035   0.422   4.022 -0.9956 -0.1129 -0.0765
 5302SOL     OW20973   0.309   3.755   0.762 -0.4840  0.2472 -0.1896
 5302SOL    HW220974   0.379   3.818   0.746  0.0232  0.0126  0.9991
 5302SOL    HW320975   0.259   3.794   0.835 -0.0731 -0.7683  0.6576
 5302SOL    MW420976   0.311   3.769   0.770  0.0483 -0.1924 -0.0534
 5303SOL     OW20977   4.585   0.890   2.602 -0.1805 -0.0782 -0.3181
 5303SOL    HW220978   4.679   0.879   2.595 -0.0511  0.7695 -0.0199
 5303SOL    HW320979   4.558   0.821   2.663  0.2019 -0.4803 -0.5944
 5303SOL    MW420980   4.594   0.879   2.609  0.2526  0.3133 -0.1367
 5304SOL     OW20981   1.180   4.840   1.219  0.1792  0.3812  0.4073
 5304SOL    HW220982   1.246   4.899   1.182 -0.5527  0.1861 -1.2862
 5304SOL    HW320983   1.100   4.861   1.172 -1.0628  0.7774  2.5972
 5304SOL    MW420984   1.178   4.850   1.208  0.5082 -0.4812 -0.2268
 5305SOL     OW20985   5.947   3.708   5.719  0.5865 -0.2700 -0.0535
 5305SOL    HW220986   6.005   3.635   5.737  1.1813  0.3997  0.8441
 5305SOL    HW320987   5.892   3.715   5.797 -0.2074 -0.4364 -0.5875
 5305SOL    MW420988   5.947   3.699   5.732  0.5473 -0.0231  0.4655
 5306SOL     OW20989   5.667   3.160   0.538 -0.4435 -0.2960 -0.0178
 5306SOL    HW220990   5.688   3.167   0.445 -1.1088 -0.1134 -0.1653
 5306SOL    HW320991   5.739   3.110   0.576 -0.2890 -0.5888 -0.6790
 5306SOL    MW420992   5.679   3.154   0.531  0.1728 -0.0095  0.5682
 5307SOL     OW20993   2.359   5.601   2.753  0.2062  0.2884  0.3660
 5307SOL    HW220994   2.450   5.594   2.726  0.2786 -1.6339  0.9668
 5307SOL    HW320995   2.313   5.538   2.698 -0.7364  1.0515  0.2460
 5307SOL    MW420996   2.365   5.592   2.742  0.0918  0.4576  0.0436
 5308SOL     OW20997   4.316   0.034   3.025  0.1727  0.5340  0.1070
 5308SOL    HW220998   4.324   0.063   3.115  0.5553 -0.1036  0.2917
 5308SOL    HW320999   4.347   0.107   2.972 -0.5436  1.0996  0.4661
 5308SOL    MW421000   4.321   0.047   3.030  0.9101 -0.1709  0.3743
 5309SOL     OW21001   1.842   4.837   0.735  0.1403  0.2212  0.0551
 5309SOL    HW221002   1.823   4.797   0.651 -0.9981  2.8971 -1.0758
 5309SOL    HW321003   1.757   4.840   0.780  0.4055  0.3972  0.5522
 5309SOL    MW421004   1.828   4.832   0.730  0.1564 -0.2542  0.4543
 5310SOL     OW21005   0.769   5.053   5.806 -0.1916 -0.0724  0.0141
 5310SOL    HW221006   0.823   5.131   5.798  0.7630 -0.7477 -0.2996
 5310SOL    HW321007   0.831   4.982   5.822 -1.0990 -0.6641  1.0449
 5310SOL    MW421008   0.784   5.053   5.807 -0.5124  0.4150  0.3298
 5311SOL     OW21009   3.335   4.301   1.628  0.1294 -0.7519 -0.3681
 5311SOL    HW221010   3.289   4.218   1.611  0.2154 -0.6293 -1.2748
 5311SOL    HW321011   3.428   4.278   1.626  0.1675 -1.2054  2.5515
 5311SOL    MW421012   3.341   4.287   1.625  0.4085  0.3082 -0.0322
 5312SOL     OW21013   0.232   5.549   2.872 -0.8734 -0.4124 -0.3196
 5312SOL    HW221014   0.206   5.543   2.780 -1.7729  0.0378 -0.1013
 5312SOL    HW321015   0.151   5.533   2.921 -0.6804  0.6727  0.3791
 5312SOL    MW421016   0.218   5.546   2.866 -0.8500 -0.3911 -0.4665
 5313SOL     OW21017   0.606   3.332   1.329  0.6905  0.1114 -0.5240
 5313SOL    HW221018   0.672   3.394   1.298  1.4047 -0.1144  0.5054
 5313SOL    HW321019   0.524   3.381   1.325  1.0534  0.7102 -0.9191
 5313SOL    MW421020   0.604   3.347   1.324  0.6814 -1.1199  0.2026
 5314SOL     OW21021   3.750   0.306   5.309 -0.0231 -0.1650  0.1301
 5314SOL    HW221022   3.822   0.292   5.370  0.6126  0.1828 -0.5361
 5314SOL    HW321023   3.791   0.313   5.223 -1.0597 -2.6515 -0.6571
 5314SOL    MW421024   3.765   0.305   5.306  0.0657 -0.0354  0.3274
 5315SOL     OW21025   3.496   6.074   3.369 -0.0361  0.0501 -0.4204
 5315SOL    HW221026   3.485   5.980   3.386 -0.3159 -0.1144 -1.4639
 5315SOL    HW321027   3.446   6.117   3.438 -0.2821 -0.5787 -0.2020
 5315SOL    MW421028   3.488   6.067   3.380 -0.5178  0.0378  0.4101
 5316SOL     OW21029   2.307   5.896   4.343 -0.2116  0.1391 -0.4633
 5316SOL    HW221030   2.314   5.895   4.439  1.1424  2.0810 -0.4937
 5316SOL    HW321031   2.213   5.897   4.326 -0.4717 -0.0953  0.8351
 5316SOL    MW421032   2.296   5.896   4.354 -0.3107  0.2612  0.3289
 5317SOL     OW21033   0.263   0.163   5.443 -0.0240  0.2320 -0.1512
 5317SOL    HW221034   0.319   0.171   5.521 -1.3518  1.4651  0.7193
 5317SOL    HW321035   0.203   0.091   5.464  0.3892 -0.2336 -0.5480
 5317SOL    MW421036   0.263   0.155   5.456 -0.0925  0.1434 -0.0783
 5318SOL     OW21037   0.250   0.717   6.301  0.2579  0.4488  0.3048
 5318SOL    HW221038   0.161   0.739   6.271  0.6491  1.4122 -0.1905
 5318SOL    HW321039   0.249   0.735   6.395 -0.8130 -2.0492  0.8630
 5318SOL    MW421040   0.238   0.722   6.309  0.4892 -0.3964  0.1694
 5319SOL     OW21041   5.924   0.790   0.935  0.1570  0.0715 -0.1608
 5319SOL    HW221042   5.856   0.812   0.872 -0.9411 -1.6472  0.3574
 5319SOL    HW321043   5.972   0.872   0.948  0.6231  0.4576 -3.4016
 5319SOL    MW421044   5.922   0.804   0.928  0.3317  0.0385 -0.8959
 5320SOL     OW21045   4.977   1.899   4.236  0.1526  0.7637 -0.3247
 5320SOL    HW221046   4.987   1.804   4.242  0.8865  0.8074 -0.6754
 5320SOL    HW321047   4.909   1.920   4.299  0.5034  0.0831  0.2986
 5320SOL    MW421048   4.969   1.889   4.245  0.4311 -0.3343  1.1266
 5321SOL     OW21049   1.647   1.060   3.680 -0.4143  0.1030  1.1322
 5321SOL    HW221050   1.679   1.119   3.612  1.6668 -0.1756  1.7765
 5321SOL    HW321051   1.612   1.119   3.747 -0.7919  0.4657  0.6248
 5321SOL    MW421052   1.647   1.076   3.680 -0.1727 -0.1302  0.2053
 5322SOL     OW21053   3.637   0.087   3.680  0.5217  0.9119  0.1424
 5322SOL    HW221054   3.711   0.086   3.741  0.6470  2.8330  0.0756
 5322SOL    HW321055   3.677   0.087   3.593  0.3564 -0.9640  0.0344
 5322SOL    MW421056   3.652   0.087   3.677 -0.2352 -0.4124  0.0688
 5323SOL     OW21057   4.093   1.965   1.116  0.4227 -0.7798 -0.2032
 5323SOL    HW221058   4.099   1.883   1.166  0.6253 -0.5927  0.0782
 5323SOL    HW321059   4.119   2.033   1.177 -0.2671 -0.4410 -0.2756
 5323SOL    MW421060   4.097   1.963   1.130 -0.4707  0.0388  0.6215
 5324SOL     OW21061   3.087   4.480   2.328 -0.2189 -0.2544 -0.3336
 5324SOL    HW221062   3.130   4.439   2.403  1.3522  1.5127 -0.1961
 5324SOL    HW321063   3.023   4.539   2.366  0.4030  0.4543 -0.3537
 5324SOL    MW421064   3.084   4.483   2.343 -0.0730  0.9209 -0.3511
 5325SOL     OW21065   4.942   0.658   3.934 -0.2167  0.2059  0.3351
 5325SOL    HW221066   4.926   0.748   3.963  2.0553  1.1595 -1.1041
 5325SOL    HW321067   4.875   0.606   3.978 -1.0325  2.4654  1.9176
 5325SOL    MW421068   4.931   0.663   3.943 -0.0928 -0.0086  0.7196
 5326SOL     OW21069   2.073   6.271   4.827 -0.3411  0.0170  0.1933
 5326SOL    HW221070   2.053   6.347   4.771 -0.8916 -0.2567  0.0051
 5326SOL    HW321071   2.074   6.197   4.767  1.2056 -0.0080  0.2144
 5326SOL    MW421072   2.070   6.272   4.812 -0.3415 -0.0816 -0.0647
 5327SOL     OW21073   4.418   5.848   4.396 -0.2250 -0.2153 -0.3333
 5327SOL    HW221074   4.507   5.876   4.416  0.1319 -0.2824 -1.6965
 5327SOL    HW321075   4.430   5.768   4.344 -1.1101 -0.7143  0.2177
 5327SOL    MW421076   4.431   5.841   4.392 -0.5805 -0.4258 -0.4275
 5328SOL     OW21077   0.777   3.093   4.365 -0.0401 -0.0292  0.0479
 5328SOL    HW221078   0.841   3.163   4.380  0.2002 -0.3408  0.4834
 5328SOL    HW321079   0.722   3.127   4.294 -1.9192  1.9754  2.2862
 5328SOL    MW421080   0.778   3.107   4.358 -0.3658  0.0278 -1.3775
 5329SOL     OW21081   1.295   3.788   6.365 -0.2063 -0.3683 -0.0206
 5329SOL    HW221082   1.273   3.823   6.451  2.3325  2.9344 -0.5206
 5329SOL    HW321083   1.391   3.788   6.362 -0.1763 -2.1148 -2.2537
 5329SOL    MW421084   1.305   3.792   6.376  0.4592 -0.3735 -0.1339
 5330SOL     OW21085   5.073   5.862   1.076  0.1172 -0.4601 -0.1193
 5330SOL    HW221086   5.136   5.930   1.096  0.4780 -0.8849  0.2050
 5330SOL    HW321087   5.012   5.864   1.150  0.2080 -0.5816 -0.0409
 5330SOL    MW421088   5.073   5.871   1.088  0.0161  0.1354 -0.0433
 5331SOL     OW21089   0.753   1.958   2.725  0.2071  0.2331  0.3204
 5331SOL    HW221090   0.667   1.935   2.691  0.4254  0.5540 -0.4692
 5331SOL    HW321091   0.739   1.971   2.819 -0.5832  0.1725  0.2158
 5331SOL    MW421092   0.740   1.957   2.733 -0.5325  0.2324  0.2475
 5332SOL     OW21093   3.047   1.184   1.694 -0.0918  0.0921  0.4851
 5332SOL    HW221094   3.014   1.099   1.723  0.4946  0.0982  1.1987
 5332SOL    HW321095   2.977   1.219   1.638  0.8166 -2.1501 -2.3139
 5332SOL    MW421096   3.033   1.177   1.691  0.4830  0.4387  0.7637
 5333SOL     OW21097   4.598   5.950   4.745 -0.3244 -0.2269 -0.0494
 5333SOL    HW221098   4.527   5.988   4.693 -0.1962 -1.0699 -0.8862
 5333SOL    HW321099   4.644   6.025   4.782  0.0410  0.4634 -1.7880
 5333SOL    MW421100   4.595   5.965   4.743 -0.3427  0.3584  0.1310
 5334SOL     OW21101   1.726   0.121   4.727 -0.4177  0.1318 -0.1572
 5334SOL    HW221102   1.764   0.103   4.813  1.2510 -0.8436 -1.0660
 5334SOL    HW321103   1.691   0.037   4.698  0.6543  0.0286 -1.1948
 5334SOL    MW421104   1.726   0.108   4.734  0.3010  0.4104  0.5476
 5335SOL     OW21105   5.270   0.222   5.910 -0.3386 -0.7063  0.1005
 5335SOL    HW221106   5.363   0.241   5.911 -0.1754 -1.0831 -2.0554
 5335SOL    HW321107   5.258   0.164   5.835 -2.7044  1.9385 -1.8103
 5335SOL    MW421108   5.280   0.217   5.900 -0.4122 -0.0837 -0.3626
 5336SOL     OW21109   2.277   0.154   2.884 -0.7272  0.4038  0.4047
 5336SOL    HW221110   2.232   0.233   2.852  0.0989 -0.1163 -2.2433
 5336SOL    HW321111   2.369   0.178   2.888 -0.8024  0.5490  2.9458
 5336SOL    MW421112   2.283   0.168   2.881  0.2514  0.5203 -0.4614
 5337SOL     OW21113   1.047   2.105   3.507  0.4834 -0.0898  0.5934
 5337SOL    HW221114   1.127   2.057   3.488  1.4015  1.9626 -1.2157
 5337SOL    HW321115   1.075   2.174   3.568 -0.1253 -0.0232  0.8014
 5337SOL    MW421116   1.061   2.108   3.512  0.2069  0.1901  0.7361
 5338SOL     OW21117   1.007   0.690   2.514 -0.3088 -0.1579 -0.1924
 5338SOL    HW221118   1.025   0.783   2.526  0.4691 -0.1304 -1.3901
 5338SOL    HW321119   0.957   0.665   2.591  0.1833  1.0649  0.5513
 5338SOL    MW421120   1.003   0.699   2.525  0.2819  0.2584  0.0225
 5339SOL     OW21121   0.048   6.222   5.180  0.5693 -0.4291  0.6756
 5339SOL    HW221122   0.040   6.223   5.276  0.1954 -1.3266  0.6631
 5339SOL    HW321123   0.067   6.131   5.159  0.9890 -0.1750 -0.0879
 5339SOL    MW421124   0.050   6.210   5.190 -0.9583 -0.1586 -0.3617
 5340SOL     OW21125   1.056   5.039   1.724 -0.6627  0.0483  0.2206
 5340SOL    HW221126   1.143   5.057   1.759 -0.3343  0.2952 -0.6968
 5340SOL    HW321127   1.033   4.954   1.761 -0.1442  0.0998  0.6765
 5340SOL    MW421128   1.065   5.030   1.733  0.3778  0.0204  0.2363
 5341SOL     OW21129   2.553   4.387   4.136  0.4102  0.3344  0.1529
 5341SOL    HW221130   2.540   4.414   4.045 -0.4744  1.9399  0.7077
 5341SOL    HW321131   2.464   4.367   4.167  0.5008  1.3295  1.0870
 5341SOL    MW421132   2.539   4.388   4.128 -0.5170 -0.7055 -0.2436
 5342SOL     OW21133   5.770   4.058   4.846 -0.3436 -0.2460  0.4479
 5342SOL    HW221134   5.701   4.068   4.911 -2.4540  0.0037 -1.7061
 5342SOL    HW321135   5.730   4.010   4.775  1.8346 -0.4093 -0.7564
 5342SOL    MW421136   5.756   4.053   4.845 -0.6229 -0.0746 -0.4503
 5343SOL     OW21137   3.193   1.462   1.792  0.1421  0.5628 -0.0747
 5343SOL    HW221138   3.152   1.375   1.785  1.1561 -0.1281  1.9410
 5343SOL    HW321139   3.145   1.515   1.728  0.8856 -1.9518 -2.9809
 5343SOL    MW421140   3.181   1.457   1.782  0.1815 -0.1739  0.7153
 5344SOL     OW21141   6.298   4.973   0.870 -0.2977  0.1099  0.1764
 5344SOL    HW221142   6.387   4.995   0.846 -0.3104  0.4820  0.4552
 5344SOL    HW321143   6.244   5.012   0.802 -0.3586  1.4880  0.9730
 5344SOL    MW421144   6.302   4.981   0.858  0.2974 -0.7258 -0.2823
 5345SOL     OW21145   3.839   2.630   1.639 -0.4917  0.3477 -0.1912
 5345SOL    HW221146   3.814   2.649   1.549 -0.2222  0.0946 -0.3215
 5345SOL    HW321147   3.854   2.536   1.641  0.2334  0.4610 -0.0641
 5345SOL    MW421148   3.838   2.620   1.628 -0.8732 -0.4937  0.0198
 5346SOL     OW21149   4.140   6.098   1.327 -0.3714  0.6181  0.1001
 5346SOL    HW221150   4.122   6.179   1.280 -1.8767 -0.5797 -1.5468
 5346SOL    HW321151   4.235   6.096   1.337 -0.1682  1.8506 -1.2493
 5346SOL    MW421152   4.150   6.108   1.322 -0.0401 -0.1521 -0.2000
 5347SOL     OW21153   4.703   2.988   6.007  1.1102 -0.0190  0.0581
 5347SOL    HW221154   4.610   2.997   5.985  1.2466  1.3174 -0.0326
 5347SOL    HW321155   4.744   3.065   5.969  1.5988  1.7245  3.6414
 5347SOL    MW421156   4.696   2.999   5.999 -0.1543 -0.0247  0.5501
 5348SOL     OW21157   1.702   5.222   3.938  0.3139  0.1103 -0.1219
 5348SOL    HW221158   1.739   5.136   3.957  0.6367  0.5538  1.4240
 5348SOL    HW321159   1.744   5.249   3.856 -0.9847 -1.8366 -1.5272
 5348SOL    MW421160   1.712   5.214   3.930 -0.2459  0.3275 -0.5370
 5349SOL     OW21161   4.398   0.709   3.523  0.4667 -0.0975 -0.2364
 5349SOL    HW221162   4.468   0.769   3.549  1.5133 -0.6833 -1.5485
 5349SOL    HW321163   4.387   0.650   3.597  0.7760  0.5281  0.3104
 5349SOL    MW421164   4.406   0.709   3.536  0.2236  0.1542 -0.0314
 5350SOL     OW21165   1.865   5.401   6.403  0.0221 -1.0260  0.3453
 5350SOL    HW221166   1.864   5.306   6.414  1.2681 -1.2730 -1.2974
 5350SOL    HW321167   1.949   5.419   6.361 -0.3552  0.7763  0.2953
 5350SOL    MW421168   1.876   5.391   6.399 -0.4743  0.4021 -0.1028
 5351SOL     OW21169   4.637   4.712   3.331 -0.3411 -0.4718  0.3887
 5351SOL    HW221170   4.729   4.724   3.308 -0.5395  0.1019 -0.1432
 5351SOL    HW321171   4.615   4.625   3.298 -0.2191 -0.2589 -0.2672
 5351SOL    MW421172   4.646   4.702   3.324 -0.4146  0.0795  0.1723
 5352SOL     OW21173   4.543   3.215   3.665 -0.6734  0.2470  0.2085
 5352SOL    HW221174   4.562   3.132   3.710  1.4451  0.6359  0.1488
 5352SOL    HW321175   4.515   3.188   3.578 -0.5688 -0.4349  0.3775
 5352SOL    MW421176   4.542   3.200   3.659  0.7446  0.1316  0.2276
 5353SOL     OW21177   2.314   3.434   5.669 -0.2396  0.4072 -0.2737
 5353SOL    HW221178   2.271   3.471   5.747 -2.0073  1.0389 -1.4858
 5353SOL    HW321179   2.296   3.341   5.673 -1.8256  0.6625 -0.7682
 5353SOL    MW421180   2.306   3.427   5.680 -0.5343 -0.0468  0.4575
 5354SOL     OW21181   1.548   3.234   4.562 -1.0323  0.0501  0.4716
 5354SOL    HW221182   1.617   3.270   4.505 -2.7900 -1.3120 -2.8227
 5354SOL    HW321183   1.490   3.309   4.579 -0.3681  0.5258  0.7146
 5354SOL    MW421184   1.549   3.249   4.557  0.6460 -0.0471  0.6044
 5355SOL     OW21185   4.901   2.605   0.402 -0.3449 -0.4841  0.1931
 5355SOL    HW221186   4.991   2.583   0.377 -0.7315 -0.7247 -1.0799
 5355SOL    HW321187   4.883   2.687   0.355 -0.5029  0.0498  1.1574
 5355SOL    MW421188   4.910   2.613   0.392 -0.4467  0.0438  0.1048
 5356SOL     OW21189   5.496   4.937   0.501  0.0704  0.1143 -0.2079
 5356SOL    HW221190   5.435   5.009   0.518  1.3471  0.6136  3.1116
 5356SOL    HW321191   5.440   4.859   0.497 -0.9772  0.7839  0.7137
 5356SOL    MW421192   5.481   4.936   0.503  0.6238  0.4054 -0.1584
 5357SOL     OW21193   1.267   2.220   5.386  0.2778 -0.8098  0.1481
 5357SOL    HW221194   1.321   2.144   5.409 -0.3042 -0.4828  2.8922
 5357SOL    HW321195   1.322   2.296   5.406  0.2968 -0.4621 -1.1214
 5357SOL    MW421196   1.281   2.220   5.392 -0.8856 -0.4581  0.0703
 5358SOL     OW21197   0.786   3.398   2.392  0.3397 -0.3224 -0.1009
 5358SOL    HW221198   0.742   3.477   2.423 -0.1757 -0.9957  0.9587
 5358SOL    HW321199   0.715   3.342   2.360  0.2550 -1.7099  2.2743
 5358SOL    MW421200   0.771   3.401   2.392 -0.3918 -0.0301 -0.4312
 5359SOL     OW21201   6.421   5.803   3.379  0.3514 -0.0232  0.3640
 5359SOL    HW221202   6.360   5.775   3.448 -0.1873 -0.0370 -0.1070
 5359SOL    HW321203   6.368   5.860   3.323  0.8149  0.0784  0.0271
 5359SOL    MW421204   6.406   5.807   3.381 -0.0061  0.0471 -0.4832
 5360SOL     OW21205   5.440   3.519   2.376 -0.1039 -0.3934  0.1416
 5360SOL    HW221206   5.449   3.594   2.317  0.8443  0.2090  1.0151
 5360SOL    HW321207   5.422   3.558   2.462 -0.2778 -1.1986  0.4834
 5360SOL    MW421208   5.439   3.534   2.380 -0.4667 -0.7142  0.0293
 5361SOL     OW21209   1.391   3.577   4.323 -0.5261 -0.1385 -0.1085
 5361SOL    HW221210   1.373   3.630   4.401 -0.6709  0.8028 -0.7623
 5361SOL    HW321211   1.475   3.610   4.290 -0.5324 -0.4381 -0.4345
 5361SOL    MW421212   1.400   3.588   4.329 -0.4122  0.2184 -0.2336
 5362SOL     OW21213   3.348   1.093   0.173  0.5148  0.0824 -0.0768
 5362SOL    HW221214   3.330   1.136   0.090  1.8408 -0.4548 -0.6828
 5362SOL    HW321215   3.442   1.074   0.170 -0.0605 -3.3884 -0.1480
 5362SOL    MW421216   3.358   1.096   0.162  0.1735  0.0034 -0.3101
 5363SOL     OW21217   6.109   3.760   0.931 -0.1552  1.1029 -0.4598
 5363SOL    HW221218   6.051   3.816   0.983  1.0115  0.7136  1.3300
 5363SOL    HW321219   6.066   3.675   0.931  0.2834  0.8682  0.6888
 5363SOL    MW421220   6.096   3.756   0.938 -0.0826 -0.6584  0.2045
 5364SOL     OW21221   5.634   5.222   0.558  0.0930 -0.2627 -0.2081
 5364SOL    HW221222   5.662   5.311   0.580  0.0333 -0.4924  0.8568
 5364SOL    HW321223   5.613   5.225   0.465  0.0272  0.8541 -0.1623
 5364SOL    MW421224   5.635   5.234   0.549 -1.0879  0.3161  0.5081
 5365SOL     OW21225   5.971   2.830   5.122 -0.1044 -0.1485 -0.0111
 5365SOL    HW221226   5.955   2.847   5.214  0.4692 -0.7017  0.1991
 5365SOL    HW321227   5.891   2.789   5.090 -0.6950  0.9766 -0.0138
 5365SOL    MW421228   5.959   2.827   5.130  0.0163 -0.2284 -0.1842
 5366SOL     OW21229   4.566   4.927   4.028  0.0169 -0.1424  0.0892
 5366SOL    HW221230   4.556   4.880   3.945 -1.7891  0.7850 -0.2739
 5366SOL    HW321231   4.603   4.862   4.087  0.9783 -0.9410 -1.3244
 5366SOL    MW421232   4.570   4.912   4.025 -0.0584 -0.4532 -0.0321
 5367SOL     OW21233   3.049   0.815   2.430 -0.4943 -0.3361  0.2830
 5367SOL    HW221234   3.090   0.745   2.480 -2.5117 -1.1998  0.8521
 5367SOL    HW321235   3.011   0.770   2.354  0.3515  0.5656 -0.6967
 5367SOL    MW421236   3.049   0.800   2.426  0.3995 -0.0619 -0.4136
 5368SOL     OW21237   3.529   4.515   1.963  0.6130  0.4290  0.4110
 5368SOL    HW221238   3.560   4.591   1.914  0.0500  0.8460  0.6896
 5368SOL    HW321239   3.522   4.546   2.054 -0.3153  0.2651  0.4044
 5368SOL    MW421240   3.532   4.529   1.969 -0.1263  0.1915 -0.8041
 5369SOL     OW21241   0.748   0.141   2.337 -0.1916  0.8057 -0.1321
 5369SOL    HW221242   0.790   0.146   2.251  0.1154 -2.1138 -0.2270
 5369SOL    HW321243   0.816   0.171   2.398  0.0110  1.6659 -0.7497
 5369SOL    MW421244   0.763   0.146   2.334 -0.2874 -0.1648 -0.5981
 5370SOL     OW21245   5.744   3.832   0.429 -0.5363  0.3148  0.4526
 5370SOL    HW221246   5.650   3.816   0.443 -0.3161 -1.2386  0.3013
 5370SOL    HW321247   5.785   3.811   0.513 -0.2434  0.2241  0.2886
 5370SOL    MW421248   5.737   3.827   0.442  0.1818 -0.3127  0.5734
 5371SOL     OW21249   6.355   6.077   2.620  1.1727 -0.3429  1.1567
 5371SOL    HW221250   6.421   6.140   2.649  0.7032  0.1323  1.2199
 5371SOL    HW321251   6.332   6.028   2.700  1.1290 -0.2047  1.2298
 5371SOL    MW421252   6.360   6.079   2.635  0.0979  0.3084  0.6185
 5372SOL     OW21253   3.522   5.428   5.842  0.0158  0.4061 -0.8611
 5372SOL    HW221254   3.492   5.383   5.921 -0.5763 -0.2812 -1.4651
 5372SOL    HW321255   3.445   5.431   5.785 -0.3934  3.4572 -0.3149
 5372SOL    MW421256   3.508   5.422   5.845 -0.1986 -0.0015 -0.3198
 5373SOL     OW21257   4.939   2.074   0.898 -0.3647  0.5538  0.2173
 5373SOL    HW221258   4.866   2.032   0.943  0.6472 -1.6966 -0.1301
 5373SOL    HW321259   5.017   2.039   0.940  0.5682  0.5911 -1.3866
 5373SOL    MW421260   4.939   2.064   0.909 -0.2390  0.2695 -0.1072
 5374SOL     OW21261   3.344   3.565   2.752  0.0641 -1.0332  0.1024
 5374SOL    HW221262   3.268   3.507   2.748  1.0448 -2.3949  0.6405
 5374SOL    HW321263   3.373   3.573   2.661 -1.8959  1.1858 -0.4280
 5374SOL    MW421264   3.338   3.558   2.739 -0.0905 -0.2709  0.2040
 5375SOL     OW21265   5.915   4.601   5.040 -0.4694  0.7399 -0.4615
 5375SOL    HW221266   6.004   4.583   5.070 -0.5354  1.6738  0.3733
 5375SOL    HW321267   5.867   4.520   5.055  0.0086  0.5418  0.0322
 5375SOL    MW421268   5.920   4.588   5.046  0.3807  0.0997 -0.0987
 5376SOL     OW21269   4.492   5.164   1.971  0.5468  0.3389  0.2811
 5376SOL    HW221270   4.496   5.076   2.008  0.4086  0.2017 -0.0253
 5376SOL    HW321271   4.402   5.173   1.942  1.4266 -1.0560 -3.5887
 5376SOL    MW421272   4.481   5.153   1.972 -0.2403  0.3016  0.6620
 5377SOL     OW21273   4.808   6.352   4.810 -0.4212  0.5367  0.1944
 5377SOL    HW221274   4.856   6.330   4.731 -0.2679  0.5765  0.2769
 5377SOL    HW321275   4.776   6.268   4.843 -0.4865  0.5202  0.0909
 5377SOL    MW421276   4.810   6.338   4.804  0.0274 -0.0097  1.0052
 5378SOL     OW21277   3.971   2.710   1.018 -0.2442  0.2040 -0.0531
 5378SOL    HW221278   3.987   2.771   1.090 -0.5146  0.5447 -0.2828
 5378SOL    HW321279   3.983   2.762   0.939  0.1840 -0.2051 -0.2568
 5378SOL    MW421280   3.974   2.725   1.017  0.1516 -0.7734 -0.5238
 5379SOL     OW21281   1.079   0.727   6.393 -0.4385 -0.0820  0.1234
 5379SOL    HW221282   1.055   0.799   6.335 -0.2181 -0.0328  0.0887
 5379SOL    HW321283   1.137   0.673   6.340  0.0793  0.1725  0.4183
 5379SOL    MW421284   1.084   0.729   6.378  0.3302 -0.1759  0.4636
 5380SOL     OW21285   3.855   1.085   0.669  0.2111  0.4460 -0.1425
 5380SOL    HW221286   3.870   0.999   0.709  2.2318  0.0775 -1.5552
 5380SOL    HW321287   3.892   1.147   0.731 -0.9118  0.3126  0.7063
 5380SOL    MW421288   3.862   1.082   0.683  0.1694 -0.1279 -0.6463
 5381SOL     OW21289   2.965   4.593   3.237  0.4746  0.1868 -0.1339
 5381SOL    HW221290   2.956   4.654   3.164  0.0074 -1.4314 -1.4978
 5381SOL    HW321291   2.948   4.507   3.198 -1.8452 -0.5761  2.2742
 5381SOL    MW421292   2.961   4.590   3.222 -0.5803 -0.6426  0.6413
 5382SOL     OW21293   0.812   4.132   5.033 -0.2869 -0.3045 -0.9041
 5382SOL    HW221294   0.836   4.217   5.070 -1.2207 -0.6794  0.6372
 5382SOL    HW321295   0.728   4.111   5.073 -1.5868 -0.5981 -3.5651
 5382SOL    MW421296   0.804   4.141   5.043  0.4706 -0.5183  0.1882
 5383SOL     OW21297   2.656   1.385   2.800 -0.3354  0.8946  0.5017
 5383SOL    HW221298   2.745   1.377   2.765 -1.2706  2.0986 -2.4577
 5383SOL    HW321299   2.647   1.479   2.819 -0.6689  0.6233  1.7473
 5383SOL    MW421300   2.667   1.397   2.798 -0.1059  0.3612  0.5185
 5384SOL     OW21301   4.591   2.574   4.234  0.0448  0.0831 -0.6151
 5384SOL    HW221302   4.522   2.518   4.199  0.9272 -0.8036 -0.9795
 5384SOL    HW321303   4.559   2.663   4.220 -0.4967 -0.2919 -1.8711
 5384SOL    MW421304   4.578   2.579   4.228  0.1245  0.0223 -0.0752
 5385SOL     OW21305   4.066   2.350   3.466 -0.3116  0.4360 -0.0573
 5385SOL    HW221306   4.127   2.297   3.517  0.4950  0.8590 -0.5597
 5385SOL    HW321307   3.992   2.365   3.525  0.5743  0.8645  0.9669
 5385SOL    MW421308   4.064   2.345   3.481  0.2023 -0.2367  0.4426
 5386SOL     OW21309   1.990   0.292   1.350  0.4908 -0.0177 -0.1567
 5386SOL    HW221310   1.939   0.228   1.299  1.1610 -0.3142 -0.4699
 5386SOL    HW321311   2.028   0.241   1.421  1.1682 -0.0078 -0.5068
 5386SOL    MW421312   1.988   0.276   1.352  1.1277  0.4182 -0.6073
 5387SOL     OW21313   3.028   1.906   1.198 -0.0656 -0.4504 -0.2516
 5387SOL    HW221314   2.966   1.836   1.179 -1.1270  0.8628 -1.8343
 5387SOL    HW321315   3.104   1.885   1.144 -1.2773  0.7883 -2.5433
 5387SOL    MW421316   3.030   1.894   1.188 -0.0403 -0.2660 -0.1681
 5388SOL     OW21317   0.135   5.969   5.112 -0.1206  0.1641  1.0294
 5388SOL    HW221318   0.098   5.887   5.079 -0.8226  0.3877  1.2592
 5388SOL    HW321319   0.229   5.951   5.119 -0.0849 -0.1994 -0.1531
 5388SOL    MW421320   0.143   5.956   5.109  0.0910 -0.3821  0.2072
 5389SOL     OW21321   0.753   2.790   3.708  0.6423 -0.4688  0.6778
 5389SOL    HW221322   0.745   2.885   3.705  2.0163 -0.3234  0.7081
 5389SOL    HW321323   0.766   2.769   3.801  0.7102 -0.6399  0.6316
 5389SOL    MW421324   0.754   2.799   3.720 -0.4954 -0.1529 -0.6585
 5390SOL     OW21325   0.700   4.244   5.465  0.2689  0.3574 -0.0357
 5390SOL    HW221326   0.769   4.181   5.448  0.2642  0.2878  0.1969
 5390SOL    HW321327   0.742   4.329   5.454  0.1723  0.3170 -0.7580
 5390SOL    MW421328   0.714   4.247   5.461  0.5509  0.1925 -0.2526
 5391SOL     OW21329   3.274   5.067   0.008  0.2966 -0.3388 -0.1568
 5391SOL    HW221330   3.184   5.098   0.012  0.7426  0.9395  0.3505
 5391SOL    HW321331   3.268   4.982  -0.036 -1.2486 -0.7087  0.6998
 5391SOL    MW421332   3.262   5.060   0.003  0.0674  0.3258 -0.3761
 5392SOL     OW21333   4.189   2.824   4.166 -0.0474 -0.0943  0.2377
 5392SOL    HW221334   4.123   2.893   4.176 -0.8337 -0.6300 -1.0493
 5392SOL    HW321335   4.152   2.748   4.212 -0.6663 -0.5994 -1.0591
 5392SOL    MW421336   4.175   2.823   4.173 -0.9090 -0.4130 -0.1058
 5393SOL     OW21337   2.583   4.033   3.578  0.1119  0.6052 -0.6609
 5393SOL    HW221338   2.525   4.108   3.565 -0.4271  0.5256  1.0990
 5393SOL    HW321339   2.671   4.070   3.578 -0.2267  1.6452  2.4037
 5393SOL    MW421340   2.587   4.048   3.576 -0.5317 -0.8865  0.8016
 5394SOL     OW21341   0.064   0.138   3.131 -0.0198  0.6470  0.2176
 5394SOL    HW221342   0.007   0.061   3.139  0.2373  0.3670 -0.5577
 5394SOL    HW321343   0.073   0.152   3.037  0.2173  1.4262  0.3461
 5394SOL    MW421344   0.057   0.130   3.120  0.0979  0.0314  0.1162
 5395SOL     OW21345   1.946   1.819   0.942 -0.3910  0.2712  0.3218
 5395SOL    HW221346   2.019   1.877   0.918  0.3606 -1.1345 -0.9445
 5395SOL    HW321347   1.868   1.873   0.929  0.3621  1.4761  0.6746
 5395SOL    MW421348   1.945   1.834   0.937  0.1031  0.0445 -0.0338
 5396SOL     OW21349   4.092   4.859   1.431 -0.1967  0.2421  0.2115
 5396SOL    HW221350   4.132   4.872   1.517 -0.5058 -0.6250  0.5055
 5396SOL    HW321351   4.138   4.782   1.395  0.0270  0.6807 -0.4631
 5396SOL    MW421352   4.103   4.850   1.437  0.6404 -0.3619 -0.1282
 5397SOL     OW21353   1.700   0.853   6.164 -0.1870  0.0567  0.0142
 5397SOL    HW221354   1.686   0.878   6.073  2.4531 -0.2562 -0.5494
 5397SOL    HW321355   1.789   0.819   6.167  0.2602  1.1584  2.9669
 5397SOL    MW421356   1.710   0.852   6.153 -0.2582 -0.3839  0.4125
 5398SOL     OW21357   2.755   0.149   0.270 -0.1561 -0.0333  0.6834
 5398SOL    HW221358   2.770   0.094   0.192 -0.0923 -1.1278  1.4390
 5398SOL    HW321359   2.662   0.170   0.266 -0.2725 -0.5354  0.5796
 5398SOL    MW421360   2.745   0.144   0.259  0.3307 -0.0526 -0.2462
 5399SOL     OW21361   0.110   3.935   5.339  0.5001 -0.0960 -0.6539
 5399SOL    HW221362   0.124   4.029   5.330  2.4550  0.0034  2.1659
 5399SOL    HW321363   0.198   3.897   5.340 -0.1879 -1.7919 -0.3564
 5399SOL    MW421364   0.123   3.943   5.338  0.2641 -0.1966 -0.2803
 5400SOL     OW21365   1.794   2.481   4.590 -0.0641 -0.4035  0.6152
 5400SOL    HW221366   1.771   2.396   4.553 -1.2720 -0.9084  2.3860
 5400SOL    HW321367   1.782   2.469   4.685  0.8260  1.4221  0.9916
 5400SOL    MW421368   1.790   2.468   4.598  0.0904  0.3060  0.0523
 5401SOL     OW21369   0.007   2.491   4.907 -0.2943 -0.0699  0.2790
 5401SOL    HW221370  -0.086   2.478   4.924 -0.8303  2.1251 -0.6606
 5401SOL    HW321371   0.020   2.459   4.818 -0.9158  2.4467 -0.8060
 5401SOL    MW421372  -0.003   2.485   4.898 -0.5424  0.3530  0.1690
 5402SOL     OW21373   1.330   0.052   2.397 -0.0568 -1.0652 -0.4248
 5402SOL    HW221374   1.285  -0.030   2.380  0.1566 -1.1790 -0.4437
 5402SOL    HW321375   1.272   0.119   2.362 -0.3570 -1.1877 -0.1644
 5402SOL    MW421376   1.317   0.050   2.390  0.1743 -0.3446 -0.1356
 5403SOL     OW21377   3.127   0.076   4.182  0.1114  0.7673  0.2608
 5403SOL    HW221378   3.190   0.043   4.118  0.4338 -0.8508  1.3536
 5403SOL    HW321379   3.096   0.159   4.145  1.5547  0.7236 -1.1425
 5403SOL    MW421380   3.131   0.083   4.169 -0.6866  0.1245 -0.0370
 5404SOL     OW21381   4.631   6.334   4.413 -0.6147 -0.5999 -0.2881
 5404SOL    HW221382   4.674   6.275   4.351  1.5065  0.3802  0.1718
 5404SOL    HW321383   4.538   6.328   4.390 -0.1252 -1.7301 -2.2775
 5404SOL    MW421384   4.624   6.325   4.402 -0.6527 -0.3404  0.0828
 5405SOL     OW21385   5.078   1.198   0.834  0.0711 -0.4018 -0.2624
 5405SOL    HW221386   5.103   1.288   0.814 -1.3011 -0.0014 -0.2946
 5405SOL    HW321387   5.017   1.205   0.908 -1.7546 -1.0637 -1.6117
 5405SOL    MW421388   5.073   1.211   0.841 -0.1532  0.1031  0.7312
 5406SOL     OW21389   5.957   4.042   6.147  0.5320 -0.1213  0.1801
 5406SOL    HW221390   5.937   4.135   6.157 -2.6094 -0.7776  1.2210
 5406SOL    HW321391   5.927   4.020   6.059  0.4586 -0.3061  0.2505
 5406SOL    MW421392   5.950   4.051   6.137  0.1730  0.2247 -0.1556
 5407SOL     OW21393   5.477   2.734   2.390  0.3457 -0.1093 -0.7444
 5407SOL    HW221394   5.433   2.819   2.378  1.2431  0.2660 -1.5934
 5407SOL    HW321395   5.570   2.755   2.388  0.5961 -0.9129  0.8197
 5407SOL    MW421396   5.483   2.748   2.388 -0.1949  0.0005 -0.6935
 5408SOL     OW21397   5.568   2.019   3.607  0.7631 -0.4288 -0.2181
 5408SOL    HW221398   5.632   2.064   3.551  1.6678  0.3910  1.3986
 5408SOL    HW321399   5.606   2.024   3.694 -0.9998 -0.9305  0.6151
 5408SOL    MW421400   5.582   2.026   3.611 -0.1276  0.4619 -0.1307
 5409SOL     OW21401   5.055   3.387   4.887 -0.1616 -0.5913 -0.2194
 5409SOL    HW221402   4.994   3.422   4.952 -0.1970 -1.2038  0.0863
 5409SOL    HW321403   5.135   3.369   4.936 -0.3958 -1.6537 -0.1925
 5409SOL    MW421404   5.057   3.389   4.902  0.5252 -0.3115 -0.3547
 5410SOL     OW21405   4.571   1.689   4.996 -0.5923  0.2978 -0.5094
 5410SOL    HW221406   4.553   1.631   4.922  0.8506 -0.9360  0.0499
 5410SOL    HW321407   4.500   1.754   4.994 -1.4623 -0.6458 -2.0078
 5410SOL    MW421408   4.559   1.690   4.986 -0.7255  0.0746 -0.0699
 5411SOL     OW21409   2.212   2.464   0.396 -0.8317  0.1439  0.2158
 5411SOL    HW221410   2.147   2.394   0.403 -0.6568  0.0192  0.6472
 5411SOL    HW321411   2.277   2.430   0.334 -0.2130 -0.5174  1.1915
 5411SOL    MW421412   2.212   2.450   0.389 -0.0831 -0.7624 -0.5248
 5412SOL     OW21413   3.832   0.697   2.083 -0.1266  0.0225 -0.5331
 5412SOL    HW221414   3.909   0.674   2.031 -0.2692 -1.5763 -0.0648
 5412SOL    HW321415   3.866   0.755   2.151  0.3744  0.6021 -1.2539
 5412SOL    MW421416   3.846   0.702   2.085  0.1053 -0.0110  0.5326
 5413SOL     OW21417   1.951   3.957   1.946  0.0860  0.1677  0.4713
 5413SOL    HW221418   1.987   3.946   2.034  0.2428 -1.3764  0.2411
 5413SOL    HW321419   2.023   3.993   1.895  0.4215 -0.2018  0.6746
 5413SOL    MW421420   1.965   3.960   1.951  0.1102 -0.0621 -0.1202
 5414SOL     OW21421   1.228   1.406   4.069 -0.0073  0.5051 -0.2472
 5414SOL    HW221422   1.258   1.497   4.070 -1.6781  1.1022  1.2673
 5414SOL    HW321423   1.155   1.406   4.007  1.6283 -0.4555 -2.2793
 5414SOL    MW421424   1.222   1.418   4.061 -0.0643  0.3997 -0.2652
 5415SOL     OW21425   3.126   1.920   0.688 -0.2608  0.7487 -0.9155
 5415SOL    HW221426   3.067   1.887   0.757 -0.4930  1.8245 -0.5835
 5415SOL    HW321427   3.071   1.926   0.610  0.1829 -1.2116 -1.4470
 5415SOL    MW421428   3.111   1.916   0.687  0.1751 -0.1522  0.8464
 5416SOL     OW21429   2.254   4.051   3.746 -0.2860  0.2785 -0.3387
 5416SOL    HW221430   2.163   4.082   3.749 -0.8987 -1.4330  1.6860
 5416SOL    HW321431   2.248   3.959   3.773  1.9278 -0.2396 -1.4434
 5416SOL    MW421432   2.241   4.043   3.750 -0.4555  0.4926  0.7329
 5417SOL     OW21433   2.899   4.338   3.867  0.1788  0.6282 -0.1386
 5417SOL    HW221434   2.908   4.243   3.872 -1.4403  0.4276 -0.6534
 5417SOL    HW321435   2.811   4.352   3.833 -0.4481  2.3370  1.9913
 5417SOL    MW421436   2.889   4.327   3.863  0.0399  0.5912  0.5776
 5418SOL     OW21437   3.097   5.516   0.814  0.4128 -0.2945 -0.0103
 5418SOL    HW221438   3.017   5.567   0.807  0.2531 -0.3576  1.1806
 5418SOL    HW321439   3.105   5.472   0.730  0.3535  1.3805 -0.9367
 5418SOL    MW421440   3.088   5.517   0.802  0.2159 -0.1657 -0.6146
 5419SOL     OW21441   1.843   3.338   4.698 -0.1558  0.1860  0.2411
 5419SOL    HW221442   1.890   3.256   4.712 -2.5112 -1.5495 -1.2032
 5419SOL    HW321443   1.892   3.383   4.629  0.2055 -0.8643 -0.1969
 5419SOL    MW421444   1.856   3.333   4.691  0.5433  0.7519  0.0241
 5420SOL     OW21445   2.433   5.168   0.378 -0.9372 -1.1225  0.2838
 5420SOL    HW221446   2.429   5.192   0.285 -4.1272 -1.0238  0.3348
 5420SOL    HW321447   2.440   5.252   0.424 -4.3795 -0.6745  0.2042
 5420SOL    MW421448   2.434   5.182   0.372 -0.5332  0.1139 -0.4594
 5421SOL     OW21449   1.138   3.125   4.602 -0.1654  0.5565 -0.0748
 5421SOL    HW221450   1.171   3.087   4.521 -0.5089  1.0046 -0.4397
 5421SOL    HW321451   1.188   3.083   4.672 -0.0513 -0.0313 -0.5035
 5421SOL    MW421452   1.149   3.115   4.601 -0.4141  0.2120 -0.3854
 5422SOL     OW21453   2.962   5.864   3.339 -0.7016 -0.7264 -0.0497
 5422SOL    HW221454   2.896   5.862   3.408  0.8215 -0.1904  1.4896
 5422SOL    HW321455   2.987   5.956   3.331 -0.3961 -0.8689 -0.8598
 5422SOL    MW421456   2.957   5.875   3.347 -0.3402 -0.2018 -0.0439
 5423SOL     OW21457   2.510   2.338   4.620  0.1378  0.2700 -0.1540
 5423SOL    HW221458   2.469   2.349   4.706 -0.7458  0.5238 -0.5927
 5423SOL    HW321459   2.536   2.427   4.595  0.3290  0.2053 -0.1870
 5423SOL    MW421460   2.508   2.351   4.628 -0.3890 -0.0960 -0.5323
 5424SOL     OW21461   3.573   4.631   1.268 -0.2761 -0.1552 -0.2617
 5424SOL    HW221462   3.586   4.537   1.257 -1.0776 -0.2549 -0.4497
 5424SOL    HW321463   3.478   4.641   1.276 -0.0782  0.3313  2.6144
 5424SOL    MW421464   3.562   4.620   1.268  0.2309 -0.0757  0.4497
 5425SOL     OW21465   0.955   4.422   4.138  0.0641 -0.0208 -0.3893
 5425SOL    HW221466   1.011   4.345   4.153 -0.4888 -0.4776 -0.6154
 5425SOL    HW321467   0.900   4.426   4.216 -0.1144 -0.0407 -0.5132
 5425SOL    MW421468   0.955   4.412   4.150  0.0939 -0.2731  0.0321
 5426SOL     OW21469   4.979   5.115   3.524 -0.0017 -0.2607  0.3555
 5426SOL    HW221470   4.925   5.167   3.584  0.6622  1.2842 -0.3227
 5426SOL    HW321471   4.928   5.110   3.443  0.4577  0.4541  0.0046
 5426SOL    MW421472   4.965   5.122   3.521 -0.5563  0.1018  0.0595
 5427SOL     OW21473   4.882   1.024   2.442 -0.2360  0.0802  0.2592
 5427SOL    HW221474   4.941   1.079   2.391  0.5026 -1.1411 -0.2621
 5427SOL    HW321475   4.940   0.971   2.496 -0.8613 -0.8296  0.0641
 5427SOL    MW421476   4.897   1.024   2.442  0.0172 -0.2444  0.5842
 5428SOL     OW21477   4.867   0.387   0.091 -0.0128 -0.1214 -0.1414
 5428SOL    HW221478   4.850   0.388  -0.003 -0.4800  1.1656 -0.0663
 5428SOL    HW321479   4.782   0.401   0.132  0.0079 -1.7416  0.5384
 5428SOL    MW421480   4.854   0.389   0.084  0.3164  0.1030  0.0584
 5429SOL     OW21481   0.389   1.326   5.013 -0.1275  0.6993  0.1869
 5429SOL    HW221482   0.327   1.272   4.965  1.2721 -0.1670 -0.7314
 5429SOL    HW321483   0.386   1.411   4.971 -0.7470  0.6850  0.2022
 5429SOL    MW421484   0.381   1.330   5.001 -0.3070  0.0112 -0.0167
 5430SOL     OW21485   4.148   5.200   1.043  0.2029  0.2006  0.9213
 5430SOL    HW221486   4.097   5.159   1.113 -3.4478  1.5669 -0.7022
 5430SOL    HW321487   4.117   5.159   0.962  1.0879  1.7096 -0.2581
 5430SOL    MW421488   4.138   5.189   1.041  0.1118 -0.3119 -0.1896
 5431SOL     OW21489   0.950   2.636   3.613 -0.0711 -0.2151  0.3090
 5431SOL    HW221490   0.892   2.696   3.661 -1.1007  0.1202 -1.2793
 5431SOL    HW321491   0.965   2.680   3.529  0.2242 -1.5793 -0.3832
 5431SOL    MW421492   0.944   2.650   3.608 -0.4996 -0.4433 -0.3229
 5432SOL     OW21493   1.638   2.535   1.802  0.7793 -0.1997 -0.1568
 5432SOL    HW221494   1.634   2.590   1.724  1.5963 -0.8294 -0.6569
 5432SOL    HW321495   1.708   2.472   1.784 -0.2762 -1.5687  0.2757
 5432SOL    MW421496   1.646   2.534   1.789 -0.3260  0.1615  0.2835
 5433SOL     OW21497   1.577   1.706   5.075  0.0782  0.9209 -0.2499
 5433SOL    HW221498   1.523   1.784   5.084  0.1659  1.3877 -2.8361
 5433SOL    HW321499   1.548   1.666   4.993  0.5086 -1.4009  0.6691
 5433SOL    MW421500   1.566   1.711   5.065  0.1235  0.3983  0.2589
 5434SOL     OW21501   2.040   3.068   6.410  0.2445  0.1749 -0.2300
 5434SOL    HW221502   2.035   3.138   6.475 -0.1120 -1.4067  1.5009
 5434SOL    HW321503   2.085   2.997   6.454  0.4439 -0.7799 -1.8922
 5434SOL    MW421504   2.045   3.068   6.424 -0.1470  0.2796 -0.3747
 5435SOL     OW21505   0.143   1.562   0.505  0.1791 -0.3761 -0.0574
 5435SOL    HW221506   0.170   1.483   0.551 -3.0910 -1.1075  0.8235
 5435SOL    HW321507   0.134   1.629   0.573 -0.9926 -0.4005 -0.1723
 5435SOL    MW421508   0.146   1.561   0.520  0.4476  0.0771 -0.1784
 5436SOL     OW21509   5.646   1.116   4.565  0.2873  0.1122  0.0385
 5436SOL    HW221510   5.721   1.174   4.576  0.7685 -0.4829 -0.0062
 5436SOL    HW321511   5.628   1.118   4.471  1.0242 -0.6648 -0.1362
 5436SOL    MW421512   5.654   1.124   4.554 -0.2490  0.3463  0.2700
 5437SOL     OW21513   1.231   4.463   5.524 -0.4378  0.3465  0.5825
 5437SOL    HW221514   1.289   4.404   5.572 -1.2210 -1.1177 -0.1690
 5437SOL    HW321515   1.256   4.451   5.432 -0.1096  1.7927  0.4590
 5437SOL    MW421516   1.242   4.453   5.518 -0.1081  0.1815 -0.2543
 5438SOL     OW21517   1.267   5.227   4.006  0.3982  0.0925  0.1948
 5438SOL    HW221518   1.197   5.170   3.974 -0.5363  1.0499  0.4723
 5438SOL    HW321519   1.232   5.316   3.997  1.3222  0.5562  0.9616
 5438SOL    MW421520   1.253   5.231   4.001  0.0434  0.3612  0.5088
 5439SOL     OW21521   6.343   3.944   2.747  0.2304 -0.4849 -0.8634
 5439SOL    HW221522   6.327   3.852   2.727 -2.1721 -0.4961  0.6997
 5439SOL    HW321523   6.367   3.945   2.840 -1.6246  0.5676 -0.3505
 5439SOL    MW421524   6.344   3.932   2.757  0.2346 -0.0302 -0.1640
 5440SOL     OW21525   4.573   0.055   0.872  0.0150 -0.3614  0.5230
 5440SOL    HW221526   4.562  -0.034   0.905  1.1081 -0.4001  0.8266
 5440SOL    HW321527   4.650   0.050   0.815 -0.4911  0.1910 -0.2454
 5440SOL    MW421528   4.582   0.043   0.869  0.2012  0.0851  0.0496
 5441SOL     OW21529   6.326   5.148   1.111 -0.0315 -0.1551  0.1066
 5441SOL    HW221530   6.292   5.079   1.054 -0.9446  0.0468  0.3862
 5441SOL    HW321531   6.309   5.230   1.064  0.8039 -0.0908 -0.1047
 5441SOL    MW421532   6.319   5.150   1.097 -0.7014 -0.5817 -0.3284
 5442SOL     OW21533   5.073   3.378   0.095  0.3576 -0.6498 -0.2986
 5442SOL    HW221534   5.119   3.296   0.110  1.0881 -0.5262 -1.7427
 5442SOL    HW321535   4.981   3.352   0.084  0.7586 -1.4529 -2.0497
 5442SOL    MW421536   5.067   3.364   0.096 -0.1274  0.1563 -0.1219
 5443SOL     OW21537   3.132   3.293   1.157  0.0421  0.4067 -0.4275
 5443SOL    HW221538   3.116   3.385   1.178 -0.6853 -0.0759  1.3779
 5443SOL    HW321539   3.173   3.257   1.236  0.6312 -0.7464 -1.2285
 5443SOL    MW421540   3.135   3.300   1.170 -0.2860 -0.0872  0.0739
 5444SOL     OW21541   1.638   3.225   5.966  0.3355  0.8316 -0.5775
 5444SOL    HW221542   1.685   3.151   6.005  0.1453  0.7492 -0.4984
 5444SOL    HW321543   1.609   3.276   6.042 -2.0299 -0.5480 -0.4555
 5444SOL    MW421544   1.640   3.222   5.981 -0.4225 -0.2763 -0.4156
 5445SOL     OW21545   1.345   0.855   2.645  0.1449 -0.4216 -0.4925
 5445SOL    HW221546   1.280   0.864   2.715 -0.7876 -0.9348 -1.2664
 5445SOL    HW321547   1.429   0.862   2.689 -0.4181 -1.1208  0.7385
 5445SOL    MW421548   1.347   0.858   2.660  0.1348 -0.5467  0.3728
 5446SOL     OW21549   5.551   3.886   3.600  0.2153 -0.2942 -0.1113
 5446SOL    HW221550   5.464   3.856   3.571 -0.7085  1.2413  0.9154
 5446SOL    HW321551   5.592   3.921   3.521  0.2839 -1.8072 -0.7856
 5446SOL    MW421552   5.545   3.887   3.585  0.0413  0.1897  0.4290
 5447SOL     OW21553   0.738   3.321   6.224  0.2212 -0.1240  0.0907
 5447SOL    HW221554   0.831   3.305   6.212  0.0077 -0.5966 -1.0360
 5447SOL    HW321555   0.717   3.280   6.308  1.3156  1.2811  1.1013
 5447SOL    MW421556   0.747   3.314   6.233  0.3668  0.2653  0.0912
 5448SOL     OW21557   0.665   0.297   5.852 -0.3317  0.3430 -0.5597
 5448SOL    HW221558   0.616   0.249   5.786 -0.1256 -0.6987  0.0255
 5448SOL    HW321559   0.694   0.230   5.914 -2.7350  1.5155  2.0505
 5448SOL    MW421560   0.662   0.282   5.851  0.3983 -0.1605 -0.2178
 5449SOL     OW21561   5.653   4.345   2.662  0.2008  0.2826 -0.1364
 5449SOL    HW221562   5.573   4.357   2.611 -0.0052 -2.2453 -0.5263
 5449SOL    HW321563   5.629   4.287   2.733  1.6077 -0.2485 -0.0565
 5449SOL    MW421564   5.640   4.339   2.664  0.3427  0.3332  0.0018
 5450SOL     OW21565   5.637   5.130   1.613  0.4551  0.3964 -0.0580
 5450SOL    HW221566   5.700   5.065   1.646  0.3490 -1.3429 -2.9702
 5450SOL    HW321567   5.685   5.213   1.615  1.9322 -0.4310  0.1990
 5450SOL    MW421568   5.652   5.132   1.618 -0.4392  0.2896  0.0327
 5451SOL     OW21569   5.936   4.945   6.144 -0.1592 -0.3498  0.4101
 5451SOL    HW221570   5.951   5.029   6.101 -2.2581 -0.6486 -1.0378
 5451SOL    HW321571   5.982   4.953   6.228 -1.1018  2.6525  0.7817
 5451SOL    MW421572   5.944   4.957   6.150  0.5050  0.1029  0.1031
 5452SOL     OW21573   2.829   1.020   1.162  0.3146  0.1808 -0.2204
 5452SOL    HW221574   2.798   1.020   1.071 -0.4424 -1.3906 -0.0018
 5452SOL    HW321575   2.916   1.059   1.158  0.2892  0.1564 -1.6246
 5452SOL    MW421576   2.836   1.025   1.149 -0.1356  0.1852  0.0827
 5453SOL     OW21577   5.023   1.824   6.200  0.0860 -0.0832  0.0452
 5453SOL    HW221578   5.067   1.909   6.192 -0.8020  0.5699  1.5679
 5453SOL    HW321579   5.094   1.761   6.206  0.7811  0.6932  0.1614
 5453SOL    MW421580   5.038   1.827   6.200 -0.0500  0.3096  0.4132
 5454SOL     OW21581   1.282   0.996   0.000  0.3759  0.6217  0.0040
 5454SOL    HW221582   1.228   1.075  -0.005 -0.4693 -0.0053 -1.5687
 5454SOL    HW321583   1.219   0.925   0.005  1.0517 -0.0829 -1.0315
 5454SOL    MW421584   1.266   0.997   0.000  0.1445  0.2052 -0.0066
 5455SOL     OW21585   0.082   2.393   1.612 -0.4784 -0.0610 -0.3622
 5455SOL    HW221586   0.059   2.301   1.598  0.8852 -0.5311  0.3256
 5455SOL    HW321587   0.112   2.423   1.526 -1.8996  0.0737 -0.8453
 5455SOL    MW421588   0.083   2.385   1.599 -0.2025 -0.2667  0.3076
 5456SOL     OW21589   0.090   5.999   0.569 -0.2072  0.4131 -0.0177
 5456SOL    HW221590   0.183   6.020   0.579 -0.2750  0.3516  0.8284
 5456SOL    HW321591   0.089   5.905   0.552 -0.1600  0.1564  1.2445
 5456SOL    MW421592   0.102   5.989   0.568 -0.0243  0.2950  0.2205
 5457SOL     OW21593   4.206   2.002   4.193 -0.1186 -0.0821  0.4142
 5457SOL    HW221594   4.227   1.936   4.127 -0.3872  1.2323 -1.0337
 5457SOL    HW321595   4.283   2.059   4.194 -1.1847  1.4364 -0.7329
 5457SOL    MW421596   4.219   2.001   4.185  0.7427 -0.4199 -0.4542
 5458SOL     OW21597   2.618   5.844   4.236  0.0705 -0.0336  0.2131
 5458SOL    HW221598   2.615   5.808   4.325  0.8440  1.4277  0.8552
 5458SOL    HW321599   2.555   5.916   4.237  2.0907  1.8050  0.4518
 5458SOL    MW421600   2.609   5.848   4.248 -0.0272  0.0198  0.1001
 5459SOL     OW21601   6.081   3.353   4.479  0.0332 -0.0945 -0.2337
 5459SOL    HW221602   6.114   3.442   4.471  1.1981 -0.5939 -1.3513
 5459SOL    HW321603   6.027   3.340   4.401 -2.3759  0.4880  1.2468
 5459SOL    MW421604   6.078   3.363   4.468  0.1016  0.8613 -0.7522
 5460SOL     OW21605   5.998   1.026   4.551  0.0886  0.1338  0.0720
 5460SOL    HW221606   5.960   1.075   4.479  0.4853  0.1798 -0.1108
 5460SOL    HW321607   5.937   1.038   4.624 -0.5654 -0.3174 -0.3912
 5460SOL    MW421608   5.985   1.034   4.551  0.1800 -0.6895 -0.2916
 5461SOL     OW21609   5.465   0.816   2.052  0.3502 -0.3561 -0.4547
 5461SOL    HW221610   5.456   0.721   2.048 -0.8384 -0.2454 -0.6458
 5461SOL    HW321611   5.519   0.838   1.976 -0.4087 -0.7735 -1.1373
 5461SOL    MW421612   5.471   0.806   2.041 -0.0265  0.4767  0.0550
 5462SOL     OW21613   0.306   1.037   0.528  0.2889  0.1956 -0.5845
 5462SOL    HW221614   0.264   1.005   0.448  1.8837 -1.0782 -0.9623
 5462SOL    HW321615   0.290   1.131   0.527 -3.6591 -0.3049  0.0054
 5462SOL    MW421616   0.298   1.045   0.517 -0.1943  0.1618  0.2897
 5463SOL     OW21617   5.019   5.825   0.709  0.1028  0.3372 -0.6874
 5463SOL    HW221618   4.999   5.833   0.616 -0.0329 -0.9579 -0.7940
 5463SOL    HW321619   4.994   5.735   0.731  2.0447 -0.0595  0.1108
 5463SOL    MW421620   5.013   5.814   0.700  0.4248 -0.0434  0.0717
 5464SOL     OW21621   5.239   0.973   2.422  0.3464  0.3120 -0.0973
 5464SOL    HW221622   5.185   0.943   2.496  0.8661 -1.5152 -0.4177
 5464SOL    HW321623   5.329   0.950   2.447  0.8000  1.7102 -0.3481
 5464SOL    MW421624   5.244   0.966   2.435  0.2476  0.0035 -0.5373
 5465SOL     OW21625   3.555   3.442   4.038 -0.6004 -0.0901  0.0104
 5465SOL    HW221626   3.650   3.447   4.028 -0.5573 -1.6399 -0.5369
 5465SOL    HW321627   3.533   3.352   4.016 -2.2146  0.2623  0.0745
 5465SOL    MW421628   3.565   3.431   4.034  0.7812 -0.1388 -0.1449
 5466SOL     OW21629   5.214   4.780   3.369 -0.0527 -0.0118 -0.5943
 5466SOL    HW221630   5.131   4.805   3.410 -0.4140  1.1516 -1.9510
 5466SOL    HW321631   5.280   4.801   3.435 -0.8421 -1.8416  0.8950
 5466SOL    MW421632   5.211   4.786   3.383  0.7496 -0.2489 -0.3279
 5467SOL     OW21633   3.474   3.616   5.887 -0.7893 -0.7728  0.0289
 5467SOL    HW221634   3.472   3.660   5.802  0.0126  0.0379  0.4154
 5467SOL    HW321635   3.472   3.687   5.951 -2.8522 -1.4014  0.7398
 5467SOL    MW421636   3.473   3.631   5.884  0.0354  0.4454  0.5834
 5468SOL     OW21637   2.855   5.900   5.314  0.5635 -0.3431  0.2316
 5468SOL    HW221638   2.786   5.863   5.260  0.1688  0.8291 -0.0961
 5468SOL    HW321639   2.893   5.825   5.360 -0.7441 -1.0297  0.2215
 5468SOL    MW421640   2.851   5.885   5.313 -0.8845 -0.1864  0.4267
 5469SOL     OW21641   4.347   5.863   1.600 -0.0574 -0.0094 -0.0323
 5469SOL    HW221642   4.383   5.777   1.623 -1.6877 -0.1268  2.4205
 5469SOL    HW321643   4.253   5.847   1.590 -0.3059  1.3935 -0.1016
 5469SOL    MW421644   4.339   5.849   1.601 -0.3002  0.1288  0.5670
 5470SOL     OW21645   1.960   3.826   0.290  0.5969 -0.2865 -0.5623
 5470SOL    HW221646   1.918   3.780   0.217  1.7746 -1.5309 -0.4950
 5470SOL    HW321647   2.001   3.903   0.249 -0.6570  0.2712 -0.8166
 5470SOL    MW421648   1.960   3.830   0.275  1.2477  0.2077  0.1614
 5471SOL     OW21649   4.619   0.545   5.724 -0.2858 -0.6620  0.0102
 5471SOL    HW221650   4.532   0.525   5.690 -0.6865 -0.3210  0.8078
 5471SOL    HW321651   4.651   0.462   5.759 -0.6599 -0.5959  0.5145
 5471SOL    MW421652   4.611   0.532   5.724  0.5040  0.8503 -0.0502
 5472SOL     OW21653   1.921   6.072   2.423  0.4293  0.3235 -0.1717
 5472SOL    HW221654   1.900   6.084   2.330  0.2701 -0.2798 -0.2155
 5472SOL    HW321655   2.016   6.055   2.424 -0.0109 -2.5502 -0.5203
 5472SOL    MW421656   1.931   6.071   2.411 -0.6359 -0.6087  0.2032
 5473SOL     OW21657   5.552   2.718   0.315  0.7763  0.6393  0.3840
 5473SOL    HW221658   5.595   2.727   0.230 -0.5284  3.1663 -0.0885
 5473SOL    HW321659   5.488   2.648   0.303 -0.0627  1.6058 -1.0521
 5473SOL    MW421660   5.549   2.710   0.302 -0.2784 -0.4906  0.2748
 5474SOL     OW21661   4.264   6.391   5.979 -0.7284  0.1095  0.8094
 5474SOL    HW221662   4.345   6.339   5.979  0.1956  1.4593 -0.6727
 5474SOL    HW321663   4.217   6.362   6.058  1.5908 -0.0935  2.2018
 5474SOL    MW421664   4.269   6.380   5.990  0.3166 -0.3495 -0.0088
 5475SOL     OW21665   0.471   6.120   1.566 -0.0394 -0.1887 -0.1770
 5475SOL    HW221666   0.495   6.163   1.484 -0.2003  0.2684  0.0113
 5475SOL    HW321667   0.541   6.058   1.583  0.5576  0.5031 -0.0871
 5475SOL    MW421668   0.483   6.118   1.557 -0.1431 -0.2049  0.0100
 5476SOL     OW21669   0.795   3.961   0.699  0.1472  0.1879 -0.0056
 5476SOL    HW221670   0.790   3.972   0.604  2.9503 -0.6426 -0.3348
 5476SOL    HW321671   0.880   3.920   0.714 -0.5280 -0.3773  2.8325
 5476SOL    MW421672   0.806   3.957   0.688  0.2695  0.1579 -0.4984
 5477SOL     OW21673   4.657   3.338   4.372  0.1264 -0.1162  0.4146
 5477SOL    HW221674   4.628   3.426   4.395 -2.4457 -0.7317 -0.1942
 5477SOL    HW321675   4.732   3.351   4.315 -0.0066  1.6613  0.6066
 5477SOL    MW421676   4.663   3.351   4.368  0.4334  0.1729 -0.1915
 5478SOL     OW21677   5.731   4.201   5.589  1.0990  0.3067 -0.1743
 5478SOL    HW221678   5.696   4.179   5.675 -0.6620  0.3424 -0.8517
 5478SOL    HW321679   5.821   4.229   5.606  0.3914  1.5376  1.8076
 5478SOL    MW421680   5.739   4.202   5.602  0.1993 -0.1287 -0.0156
 5479SOL     OW21681   3.837   1.380   1.054  0.0966 -0.1213 -0.3022
 5479SOL    HW221682   3.847   1.344   1.142 -2.3553 -1.8775 -0.6345
 5479SOL    HW321683   3.749   1.417   1.053 -1.0997 -2.7020 -2.7589
 5479SOL    MW421684   3.827   1.380   1.065 -0.3322 -1.0649  0.2527
 5480SOL     OW21685   3.512   4.101   4.538  0.3786  0.0654  0.4689
 5480SOL    HW221686   3.485   4.171   4.598 -4.2906 -0.7004 -0.3329
 5480SOL    HW321687   3.505   4.140   4.451  1.6317 -0.3564  0.1656
 5480SOL    MW421688   3.507   4.115   4.534 -0.2900 -0.6646  0.0545
 5481SOL     OW21689   0.101   0.626   1.077 -0.2438  0.0739 -0.6345
 5481SOL    HW221690   0.167   0.688   1.108  0.5611 -0.8450 -0.4397
 5481SOL    HW321691   0.060   0.593   1.157  0.2645 -0.6291 -0.6589
 5481SOL    MW421692   0.105   0.630   1.092  0.2543  0.4975 -0.3368
 5482SOL     OW21693   3.001   0.198   5.110 -0.3145  0.3087  0.5439
 5482SOL    HW221694   3.058   0.234   5.178 -0.8589 -2.1076  2.4058
 5482SOL    HW321695   3.060   0.173   5.040  0.8027 -0.8334  1.8375
 5482SOL    MW421696   3.016   0.200   5.110 -0.1554  0.5257  0.0193
 5483SOL     OW21697   1.191   2.812   1.562  0.1637 -0.3539  0.1962
 5483SOL    HW221698   1.239   2.893   1.543  0.9051 -0.9292 -0.4551
 5483SOL    HW321699   1.107   2.842   1.597  0.6663  0.6880  0.5710
 5483SOL    MW421700   1.186   2.827   1.564 -0.4897 -0.7201  0.4986
 5484SOL     OW21701   5.933   5.008   4.553  0.0859 -0.0271  0.5543
 5484SOL    HW221702   5.863   5.067   4.527  0.7166  0.4373 -0.1009
 5484SOL    HW321703   5.977   4.983   4.472  1.9463  1.2811  1.0909
 5484SOL    MW421704   5.930   5.012   4.539 -0.2253  0.7784 -0.0460
 5485SOL     OW21705   1.019   1.717   3.793 -0.0870 -0.2449  0.1245
 5485SOL    HW221706   1.114   1.715   3.780 -0.0897  1.8675 -0.6991
 5485SOL    HW321707   1.007   1.762   3.877 -0.3343  1.0662 -0.5739
 5485SOL    MW421708   1.030   1.723   3.803 -0.2597 -0.3879 -0.1659
 5486SOL     OW21709   0.403   1.782   3.013  0.1221 -0.2192  0.2695
 5486SOL    HW221710   0.341   1.729   2.962 -0.9311  0.7239  0.5261
 5486SOL    HW321711   0.435   1.723   3.080 -0.3204 -0.8010 -0.0164
 5486SOL    MW421712   0.399   1.767   3.015  0.8595 -0.0178 -0.1425
 5487SOL     OW21713   5.872   5.550   4.094  0.3686  0.4052 -0.7046
 5487SOL    HW221714   5.870   5.579   4.003  0.7551 -1.2145 -1.2684
 5487SOL    HW321715   5.955   5.503   4.103 -0.7222 -1.5772 -0.2553
 5487SOL    MW421716   5.883   5.547   4.083 -1.0807  0.4574 -0.8370
 5488SOL     OW21717   2.067   0.419   1.668  0.0771  0.4979  0.4989
 5488SOL    HW221718   2.069   0.514   1.681  2.1562  0.5599  0.1176
 5488SOL    HW321719   2.159   0.392   1.673 -0.2355 -1.2005 -1.3916
 5488SOL    MW421720   2.080   0.428   1.670 -0.4595 -0.8262 -0.1105
 5489SOL     OW21721   0.687   0.336   0.744  0.6125 -0.4716 -0.1186
 5489SOL    HW221722   0.773   0.305   0.712  0.3975  0.5743 -1.8759
 5489SOL    HW321723   0.708   0.397   0.814  1.1517 -2.3173  1.4041
 5489SOL    MW421724   0.701   0.340   0.749  0.1366  0.6070 -0.4137
 5490SOL     OW21725   4.913   0.887   1.202  0.6960  0.1005 -0.4967
 5490SOL    HW221726   4.872   0.805   1.174 -0.6712  0.7480 -0.4803
 5490SOL    HW321727   4.960   0.918   1.125  0.9266 -0.5207 -0.6077
 5490SOL    MW421728   4.914   0.880   1.188  0.2071  0.0835  0.1689
 5491SOL     OW21729   6.141   2.891   1.543  0.1822 -0.7271  0.4982
 5491SOL    HW221730   6.060   2.865   1.587 -1.7565 -2.1358 -3.4260
 5491SOL    HW321731   6.115   2.958   1.481  1.4340 -2.6445 -2.3292
 5491SOL    MW421732   6.127   2.896   1.541 -0.0440  0.2225  0.6717
 5492SOL     OW21733   2.771   5.266   0.347 -0.4846  0.1303  0.0329
 5492SOL    HW221734   2.862   5.245   0.324 -0.7656 -0.0535 -0.9536
 5492SOL    HW321735   2.727   5.181   0.348 -0.5828  0.1872  0.8246
 5492SOL    MW421736   2.777   5.252   0.344  0.8521  0.5057  0.0177
 5493SOL     OW21737   2.701   6.216   5.584  0.1477  0.3690 -0.6876
 5493SOL    HW221738   2.629   6.279   5.580  0.0690  0.2627 -0.9812
 5493SOL    HW321739   2.745   6.225   5.499 -0.1564 -0.3154 -0.9233
 5493SOL    MW421740   2.697   6.226   5.572 -0.4828 -0.5285  0.4449
 5494SOL     OW21741   2.443   2.533   4.031 -0.3639 -0.4628  0.6058
 5494SOL    HW221742   2.349   2.543   4.014 -0.0984 -0.3763 -0.9096
 5494SOL    HW321743   2.453   2.441   4.057 -0.8659 -0.4598  0.8219
 5494SOL    MW421744   2.432   2.522   4.033  0.8412 -0.7273 -0.0535
 5495SOL     OW21745   1.128   0.259   5.554 -0.0293  0.6858  0.7263
 5495SOL    HW221746   1.062   0.262   5.623 -1.3064 -1.0527 -0.3404
 5495SOL    HW321747   1.128   0.168   5.524  1.8404  0.9627 -0.2951
 5495SOL    MW421748   1.119   0.247   5.559  0.1723 -0.3874  0.4894
 5496SOL     OW21749   2.383   5.627   4.304 -0.1817  0.2553 -0.2087
 5496SOL    HW221750   2.386   5.619   4.209 -1.8764 -1.3154 -0.2003
 5496SOL    HW321751   2.362   5.719   4.320  1.0648  0.7483 -1.2936
 5496SOL    MW421752   2.380   5.638   4.294 -0.3546 -0.2463  0.1555
 5497SOL     OW21753   0.356   1.609   2.299 -0.3151  0.4352  0.5926
 5497SOL    HW221754   0.338   1.688   2.351  0.6294  0.7383  0.4860
 5497SOL    HW321755   0.448   1.589   2.317 -0.3530 -0.2376  0.0737
 5497SOL    MW421756   0.366   1.617   2.308 -0.6725 -0.0046  0.1120
 5498SOL     OW21757   4.008   4.432   5.479 -0.5576 -0.2912 -0.3848
 5498SOL    HW221758   3.980   4.520   5.453 -0.3040 -0.3497 -0.8565
 5498SOL    HW321759   4.099   4.443   5.506 -1.2319  0.0908  2.0765
 5498SOL    MW421760   4.016   4.445   5.479 -1.0021  0.2072 -0.3213
 5499SOL     OW21761   5.048   2.758   2.996  0.3864 -0.2633  0.3034
 5499SOL    HW221762   5.121   2.820   2.999  0.7786 -0.5654 -1.5195
 5499SOL    HW321763   4.971   2.811   3.014  0.8927  0.3953  0.5689
 5499SOL    MW421764   5.047   2.773   2.999  0.9226  0.2538  0.3992
 5500SOL     OW21765   3.269   5.122   0.790 -0.6224 -0.0186  0.4546
 5500SOL    HW221766   3.268   5.030   0.762 -1.1453  0.2698 -0.5126
 5500SOL    HW321767   3.251   5.171   0.711 -0.1258  0.9454  0.9239
 5500SOL    MW421768   3.267   5.116   0.776 -0.0648  0.5354 -0.0100
 5501SOL     OW21769   0.046   3.355   0.834 -0.0270 -0.4719  0.2192
 5501SOL    HW221770  -0.044   3.327   0.814 -0.2440  0.1956  0.2256
 5501SOL    HW321771   0.054   3.344   0.929 -0.7345  1.1798  0.5051
 5501SOL    MW421772   0.035   3.350   0.844 -0.3441 -0.5248 -0.1539
 5502SOL     OW21773   2.195   0.175   2.035 -0.2984  0.5316  0.3902
 5502SOL    HW221774   2.263   0.158   1.970 -1.6034 -1.5742 -0.5134
 5502SOL    HW321775   2.152   0.255   2.005  0.3937  0.6845 -0.2140
 5502SOL    MW421776   2.198   0.183   2.023 -0.3020 -0.3183  0.1134
 5503SOL     OW21777   2.283   3.234   0.325  0.4151 -0.4724  0.0128
 5503SOL    HW221778   2.248   3.169   0.387 -1.9227  0.4373 -0.2644
 5503SOL    HW321779   2.280   3.317   0.373 -2.0453  0.3626 -1.4252
 5503SOL    MW421780   2.278   3.236   0.340 -0.1220 -0.1072 -0.0580
 5504SOL     OW21781   2.693   4.197   1.699  0.1880 -0.0475 -0.5661
 5504SOL    HW221782   2.621   4.213   1.759  0.5315  1.1145 -0.4159
 5504SOL    HW321783   2.765   4.250   1.735  0.1813  1.2683 -2.3850
 5504SOL    MW421784   2.693   4.206   1.712  0.7117 -0.1154  0.6278
 5505SOL     OW21785   1.655   1.728   0.305  0.2090 -0.7662  0.3983
 5505SOL    HW221786   1.564   1.717   0.332  0.0519 -0.0017  0.1930
 5505SOL    HW321787   1.663   1.821   0.283  1.4354 -0.4667  1.9064
 5505SOL    MW421788   1.644   1.739   0.306 -0.4441  0.5249 -0.2986
 5506SOL     OW21789   4.463   2.415   2.305  0.1097  0.3133  0.3314
 5506SOL    HW221790   4.491   2.334   2.347 -0.0546  0.2092  0.2399
 5506SOL    HW321791   4.413   2.387   2.228  0.3587  0.5041  0.1000
 5506SOL    MW421792   4.460   2.401   2.300  0.3319 -0.0101  0.5645
 5507SOL     OW21793   6.399   3.811   5.542  0.1017 -0.0102 -0.0959
 5507SOL    HW221794   6.427   3.870   5.472  0.7888  0.9863  0.9748
 5507SOL    HW321795   6.383   3.869   5.617 -2.5708 -0.8107  0.0623
 5507SOL    MW421796   6.401   3.827   5.543 -0.0448 -0.4234  0.4743
 5508SOL     OW21797   5.231   0.060   3.128  0.2440  0.3124  0.2431
 5508SOL    HW221798   5.264  -0.024   3.095  1.1176  0.7849 -0.1296
 5508SOL    HW321799   5.296   0.088   3.193  0.5386  1.2127 -0.4206
 5508SOL    MW421800   5.244   0.053   3.132 -0.3323 -0.8429  0.2369
 5509SOL     OW21801   5.527   6.104   5.526 -0.4524 -0.9601  0.7625
 5509SOL    HW221802   5.446   6.056   5.506 -0.2614 -0.5325 -1.2172
 5509SOL    HW321803   5.504   6.196   5.512  0.3273 -0.8258  0.3269
 5509SOL    MW421804   5.513   6.110   5.522  0.3949 -0.0106 -0.2560
 5510SOL     OW21805   0.395   4.721   5.233  0.5877  0.5223 -0.2838
 5510SOL    HW221806   0.407   4.797   5.176  1.0895  0.3007 -0.4786
 5510SOL    HW321807   0.322   4.745   5.290  0.9612  1.2892 -0.1167
 5510SOL    MW421808   0.387   4.734   5.233 -0.0222  0.2954  0.7793
 5511SOL     OW21809   0.486   5.814   2.741  0.0923  0.8680  0.2710
 5511SOL    HW221810   0.509   5.722   2.758 -1.8844  0.2314 -0.1913
 5511SOL    HW321811   0.532   5.863   2.808  1.5995 -0.3928  0.2339
 5511SOL    MW421812   0.495   5.808   2.752 -0.0448  0.2559 -0.4780
 5512SOL     OW21813   3.738   5.676   1.563 -0.0019 -0.3915 -0.0054
 5512SOL    HW221814   3.817   5.623   1.551 -0.7871 -1.7926  0.7535
 5512SOL    HW321815   3.737   5.695   1.657 -0.4643 -0.2237 -0.0449
 5512SOL    MW421816   3.749   5.671   1.574  0.3010  0.0266  0.0096
 5513SOL     OW21817   1.790   1.957   1.939 -0.0370  0.1648  0.1121
 5513SOL    HW221818   1.873   1.955   1.987  0.1083 -1.0083 -0.1613
 5513SOL    HW321819   1.740   1.883   1.974 -0.7038  0.4657 -0.1882
 5513SOL    MW421820   1.795   1.947   1.950  0.0603  1.4919  0.3970
 5514SOL     OW21821   2.677   3.399   0.192  0.3941  0.0433 -0.7077
 5514SOL    HW221822   2.727   3.398   0.110 -0.2429 -0.6979 -1.0982
 5514SOL    HW321823   2.688   3.311   0.228  1.9500  0.7988  0.8265
 5514SOL    MW421824   2.685   3.388   0.186 -0.1574 -0.0365  0.2907
 5515SOL     OW21825   2.977   5.437   3.148  0.0489  0.1634  0.8457
 5515SOL    HW221826   2.954   5.490   3.225 -0.0950  2.3480 -0.6187
 5515SOL    HW321827   3.062   5.472   3.121  0.2270 -0.7750  0.1653
 5515SOL    MW421828   2.985   5.449   3.155  0.2473 -0.3871 -0.1264
 5516SOL     OW21829   4.802   1.589   4.766  0.0407 -0.3048  0.0755
 5516SOL    HW221830   4.779   1.546   4.849 -2.5934  0.3409 -0.2208
 5516SOL    HW321831   4.831   1.676   4.791  2.0174 -1.0190  0.4463
 5516SOL    MW421832   4.803   1.595   4.781 -0.4930  0.5928 -0.4853
 5517SOL     OW21833   4.773   2.598   5.363 -0.6460  0.0775  0.7052
 5517SOL    HW221834   4.833   2.574   5.434 -0.8415 -0.3213  0.7343
 5517SOL    HW321835   4.803   2.685   5.336  0.6727 -0.5797 -0.0645
 5517SOL    MW421836   4.785   2.607   5.369 -0.0780 -0.3676  0.8810
 5518SOL     OW21837   0.478   5.205   1.012  0.3139  0.2318  0.2896
 5518SOL    HW221838   0.445   5.221   1.100 -1.7004 -1.6063 -0.0554
 5518SOL    HW321839   0.508   5.114   1.013  1.6244  0.6135 -0.5733
 5518SOL    MW421840   0.478   5.195   1.024  0.3245  0.6188 -1.4601
 5519SOL     OW21841   1.858   3.057   6.026  0.5973 -0.4201 -0.8181
 5519SOL    HW221842   1.850   2.991   6.095 -0.4089  0.0627 -0.4511
 5519SOL    HW321843   1.948   3.090   6.035  0.7638 -0.9939 -0.3197
 5519SOL    MW421844   1.869   3.053   6.036 -0.3685  0.2728 -0.1673
 5520SOL     OW21845   0.418   0.936   2.911  0.1526 -0.4650 -0.3324
 5520SOL    HW221846   0.489   0.938   2.975 -1.3778  0.2321  1.4345
 5520SOL    HW321847   0.406   1.027   2.885  0.0130 -0.5975 -0.7378
 5520SOL    MW421848   0.426   0.948   2.916 -0.5377 -0.2732  0.7326
 5521SOL     OW21849   1.576   6.174   0.419 -0.2418  0.3525  0.3149
 5521SOL    HW221850   1.656   6.185   0.369 -1.4762 -0.0976 -1.8905
 5521SOL    HW321851   1.523   6.251   0.397 -0.3645  0.7855  1.9499
 5521SOL    MW421852   1.579   6.186   0.409 -0.0393  0.3259  0.1056
 5522SOL     OW21853   5.004   2.429   0.726  0.1832 -0.0466  0.5766
 5522SOL    HW221854   5.063   2.484   0.778 -0.9103  1.2453  0.5234
 5522SOL    HW321855   4.919   2.473   0.734 -0.4503 -1.0269 -0.5615
 5522SOL    MW421856   5.000   2.442   0.734 -0.8126 -0.2368 -0.2007
 5523SOL     OW21857   4.373   3.718   3.363 -0.6918  0.3207 -0.2517
 5523SOL    HW221858   4.334   3.631   3.376 -0.5207 -0.0383 -1.9718
 5523SOL    HW321859   4.330   3.752   3.284  0.7281  0.9400 -0.7778
 5523SOL    MW421860   4.362   3.711   3.354 -0.2912 -0.1522 -0.1713
 5524SOL     OW21861   2.132   3.734   4.650  0.3627 -0.0579 -0.1976
 5524SOL    HW221862   2.069   3.786   4.700  0.5258 -0.3224  0.2915
 5524SOL    HW321863   2.144   3.782   4.569 -1.2482 -0.5194 -0.7409
 5524SOL    MW421864   2.125   3.747   4.646 -0.0250 -0.8522 -0.2627
 5525SOL     OW21865   0.885   0.247   0.118  0.0715  0.0264 -0.3311
 5525SOL    HW221866   0.825   0.232   0.190  0.9356 -0.9574  0.1971
 5525SOL    HW321867   0.869   0.338   0.092 -1.9326 -0.3256 -0.4993
 5525SOL    MW421868   0.875   0.257   0.124 -0.8567  0.5273 -0.2316
 5526SOL     OW21869   0.719   0.805   2.545  0.8858 -0.8813 -0.1054
 5526SOL    HW221870   0.640   0.804   2.599  1.1466 -0.5382  0.2875
 5526SOL    HW321871   0.782   0.751   2.593  0.6920 -1.6935 -0.7362
 5526SOL    MW421872   0.717   0.798   2.558  0.1461 -0.4718  0.2799
 5527SOL     OW21873   4.456   0.647   0.302 -0.1145 -0.4330  0.3592
 5527SOL    HW221874   4.462   0.708   0.376 -1.9767 -1.0546  1.0675
 5527SOL    HW321875   4.371   0.665   0.263  0.4872 -0.7024 -1.1525
 5527SOL    MW421876   4.446   0.657   0.307  0.1492 -0.2539  0.1015
 5528SOL     OW21877   1.678   4.180   5.255  0.4402 -0.6363 -0.4072
 5528SOL    HW221878   1.606   4.137   5.301  0.3663  1.4554  1.5855
 5528SOL    HW321879   1.752   4.120   5.265 -0.6858 -2.3207 -1.5772
 5528SOL    MW421880   1.678   4.166   5.263 -0.0646  0.1734 -0.2277
 5529SOL     OW21881   0.632   1.386   2.162 -0.4519 -0.1186  0.0747
 5529SOL    HW221882   0.563   1.340   2.113  1.8027  0.1758 -3.8314
 5529SOL    HW321883   0.639   1.471   2.119  0.4031  1.0202  2.3233
 5529SOL    MW421884   0.624   1.391   2.150 -0.2272 -0.6581  0.7787
 5530SOL     OW21885   1.425   4.619   4.690  0.1035  1.0912  0.4446
 5530SOL    HW221886   1.401   4.649   4.777  1.3104  2.3696  0.3738
 5530SOL    HW321887   1.490   4.683   4.660  0.2415  0.2663 -1.0984
 5530SOL    MW421888   1.431   4.632   4.697 -0.3279 -0.0957 -0.5188
 5531SOL     OW21889   5.444   0.175   2.002  0.1910  0.2948  1.1579
 5531SOL    HW221890   5.508   0.104   2.004 -1.7236 -1.7868 -2.1906
 5531SOL    HW321891   5.494   0.251   1.969  1.3079 -0.7831  0.2806
 5531SOL    MW421892   5.459   0.176   1.998 -0.3198  0.0031  0.6663
 5532SOL     OW21893   2.606   2.184   2.474 -0.0780  0.2607 -0.4286
 5532SOL    HW221894   2.580   2.275   2.461 -0.2444  0.0509 -1.7289
 5532SOL    HW321895   2.682   2.189   2.532 -0.2775  1.2016 -0.2258
 5532SOL    MW421896   2.612   2.197   2.480  0.2644  0.3519 -0.4801
 5533SOL     OW21897   3.324   1.972   1.335  0.3785  0.2610  0.3666
 5533SOL    HW221898   3.419   1.968   1.344  0.7166 -0.2405 -2.3332
 5533SOL    HW321899   3.290   1.940   1.418  2.5851 -0.6263  0.9943
 5533SOL    MW421900   3.332   1.967   1.347 -0.3372  0.5998 -0.1558
 5534SOL     OW21901   0.058   2.740   0.267 -1.2223 -0.2606 -0.0769
 5534SOL    HW221902   0.030   2.820   0.310 -1.1919 -0.5979  0.5828
 5534SOL    HW321903   0.154   2.746   0.263 -1.3057  0.4612 -1.4809
 5534SOL    MW421904   0.067   2.751   0.272 -0.6264  0.8796  0.1741
 5535SOL     OW21905   1.599   1.539   4.818  0.7669 -0.5311 -0.4859
 5535SOL    HW221906   1.563   1.455   4.846  0.7462 -0.0717  0.9654
 5535SOL    HW321907   1.543   1.566   4.746  0.1425 -1.2850 -0.3062
 5535SOL    MW421908   1.587   1.531   4.812 -0.1183 -0.8788 -0.0639
 5536SOL     OW21909   1.194   3.619   4.974  0.0376 -0.0993  0.0903
 5536SOL    HW221910   1.227   3.703   4.942  0.6781 -0.1183  0.6895
 5536SOL    HW321911   1.266   3.557   4.960 -0.0567 -0.3271  0.6034
 5536SOL    MW421912   1.208   3.622   4.968 -0.2546  0.1638 -0.0996
 5537SOL     OW21913   1.288   4.297   2.453  0.1881  0.1464  0.4065
 5537SOL    HW221914   1.255   4.365   2.512 -0.2294 -1.8731  2.6761
 5537SOL    HW321915   1.374   4.329   2.425  0.0784  1.5295  1.5386
 5537SOL    MW421916   1.295   4.310   2.457  0.2502 -0.4682  0.1394
 5538SOL     OW21917   2.234   0.472   6.050 -0.1846 -0.3756  0.4529
 5538SOL    HW221918   2.316   0.501   6.009 -0.7595  0.1799 -0.3413
 5538SOL    HW321919   2.221   0.384   6.017 -0.2379 -0.2226  0.0556
 5538SOL    MW421920   2.243   0.465   6.040 -0.5463  0.0010 -0.1671
 5539SOL     OW21921   6.145   6.240   1.204  0.7770  0.2604 -0.6438
 5539SOL    HW221922   6.089   6.204   1.135  0.4863 -0.2596 -0.1414
 5539SOL    HW321923   6.097   6.224   1.285  0.4245  2.1935 -0.4261
 5539SOL    MW421924   6.131   6.233   1.205  0.5022 -0.3930 -0.1894
 5540SOL     OW21925   4.447   4.964   3.537 -0.2255 -0.0030 -0.2938
 5540SOL    HW221926   4.465   5.043   3.587 -1.4485 -0.5010  0.9689
 5540SOL    HW321927   4.506   4.970   3.462  0.3134  1.6731  0.2215
 5540SOL    MW421928   4.457   4.975   3.533 -0.0932 -0.0810  0.2974
 5541SOL     OW21929   0.293   1.944   6.214 -0.0220 -0.2754  0.1980
 5541SOL    HW221930   0.305   2.037   6.236  0.0453 -0.0450 -0.7791
 5541SOL    HW321931   0.361   1.899   6.264  1.1679  0.4026 -0.7472
 5541SOL    MW421932   0.303   1.951   6.224  0.2526 -0.1912 -0.0483
 5542SOL     OW21933   4.747   4.620   5.806 -0.4885 -0.3445 -0.0215
 5542SOL    HW221934   4.771   4.584   5.720 -1.2334 -0.4126 -0.2100
 5542SOL    HW321935   4.718   4.544   5.856 -2.3947 -0.0129 -0.5318
 5542SOL    MW421936   4.746   4.605   5.801 -0.0493  0.5647 -0.2934
 5543SOL     OW21937   4.123   6.033   5.958 -0.1794  0.2589 -0.3030
 5543SOL    HW221938   4.066   5.974   6.008 -0.3317  0.8780  0.2701
 5543SOL    HW321939   4.063   6.081   5.901 -0.3245  1.2916  0.6805
 5543SOL    MW421940   4.107   6.031   5.957 -0.0351 -0.7569  0.6949
 5544SOL     OW21941   4.145   0.585   6.336  0.1635  0.9078 -0.3092
 5544SOL    HW221942   4.166   0.652   6.401  0.3133  0.3113  0.2623
 5544SOL    HW321943   4.062   0.614   6.298 -0.1378  1.0509  0.4458
 5544SOL    MW421944   4.136   0.598   6.339 -0.0519  0.1624 -0.6719
 5545SOL     OW21945   4.720   3.472   2.377  0.0058  0.2394  0.5763
 5545SOL    HW221946   4.745   3.409   2.309  0.0334  0.5374  0.3073
 5545SOL    HW321947   4.632   3.446   2.403 -0.5693  0.9426 -0.5629
 5545SOL    MW421948   4.712   3.461   2.372  0.1253 -0.2764  0.1165
 5546SOL     OW21949   2.494   5.453   0.037 -0.3801  0.0390  0.3621
 5546SOL    HW221950   2.588   5.470   0.031 -0.2589 -0.6962  0.0788
 5546SOL    HW321951   2.460   5.526   0.089  0.5579 -0.3709  1.6215
 5546SOL    MW421952   2.502   5.465   0.043  0.1605  0.8280 -0.0052
 5547SOL     OW21953   0.533   5.715   5.808 -0.9330  0.3496  0.0481
 5547SOL    HW221954   0.448   5.673   5.820 -1.5703  1.6507  0.2704
 5547SOL    HW321955   0.515   5.790   5.751  0.1099  0.4849 -0.1110
 5547SOL    MW421956   0.519   5.720   5.802  0.6213  0.1831  0.5630
 5548SOL     OW21957   3.636   2.906   2.573  0.8594 -0.2249 -0.8443
 5548SOL    HW221958   3.594   2.984   2.609  1.9576  0.2474 -0.5434
 5548SOL    HW321959   3.564   2.856   2.536 -0.0110  0.4141 -0.0934
 5548SOL    MW421960   3.621   2.910   2.573  0.4001 -0.1956  0.6205
 5549SOL     OW21961   4.094   5.552   6.247 -0.4029 -0.4625  0.0418
 5549SOL    HW221962   4.087   5.598   6.164 -0.2749 -0.7116 -0.1065
 5549SOL    HW321963   4.136   5.616   6.306  1.5929 -1.0383 -0.6880
 5549SOL    MW421964   4.099   5.566   6.244 -0.2450  0.3963  0.1097
 5550SOL     OW21965   3.793   0.594   5.717  0.3667 -0.1964  0.3948
 5550SOL    HW221966   3.783   0.570   5.625  0.8157 -0.1973  0.3431
 5550SOL    HW321967   3.713   0.562   5.759 -0.7866  1.5657 -0.3327
 5550SOL    MW421968   3.781   0.587   5.710  0.1710  0.4480 -0.0567
 5551SOL     OW21969   0.153   0.528   3.232  0.0513 -0.0913 -0.3882
 5551SOL    HW221970   0.135   0.440   3.266  0.6022  0.0824  0.3788
 5551SOL    HW321971   0.067   0.569   3.225 -0.1287 -0.3647  0.1620
 5551SOL    MW421972   0.139   0.522   3.235 -0.8041  0.1115  0.3149
 5552SOL     OW21973   4.468   1.256   4.632 -0.5571 -0.0752  0.7534
 5552SOL    HW221974   4.412   1.331   4.651  1.4059  1.7669 -0.2741
 5552SOL    HW321975   4.553   1.294   4.609  0.4226 -2.6037 -0.2438
 5552SOL    MW421976   4.472   1.271   4.632  0.0105 -0.4114  0.4316
 5553SOL     OW21977   2.922   3.587   3.719 -0.1351 -0.2122 -0.2079
 5553SOL    HW221978   2.867   3.520   3.758  0.7797 -0.2178  1.1268
 5553SOL    HW321979   2.891   3.669   3.756 -1.2632  0.1582 -1.8495
 5553SOL    MW421980   2.911   3.589   3.729  0.0915 -0.3341 -0.0602
 5554SOL     OW21981   3.523   5.504   2.918 -0.1622 -0.5047  0.3584
 5554SOL    HW221982   3.540   5.529   3.009 -0.4795 -1.0958  0.5812
 5554SOL    HW321983   3.428   5.510   2.908 -0.0032  1.2068 -0.4273
 5554SOL    MW421984   3.513   5.508   2.928  1.4097 -0.0037  0.7737
 5555SOL     OW21985   2.407   5.938   5.857 -0.0230 -0.0133 -0.2188
 5555SOL    HW221986   2.495   5.908   5.877 -0.6480 -1.3962  0.6769
 5555SOL    HW321987   2.416   5.988   5.776  1.5600 -0.1708 -0.1712
 5555SOL    MW421988   2.419   5.940   5.849  0.1206 -0.0857  0.3416
 5556SOL     OW21989   2.276   4.432   2.294  0.2907  0.1163 -0.1188
 5556SOL    HW221990   2.320   4.393   2.218  1.4799 -1.8188  1.4868
 5556SOL    HW321991   2.235   4.511   2.259  1.6200 -0.1750 -2.5608
 5556SOL    MW421992   2.276   4.437   2.279  0.4289  0.0440 -0.3607
 5557SOL     OW21993   0.510   4.413   2.876 -0.0888 -0.2630 -0.3802
 5557SOL    HW221994   0.600   4.444   2.871  0.6479 -1.1281  4.0300
 5557SOL    HW321995   0.507   4.338   2.816  2.1115 -0.1926 -0.6432
 5557SOL    MW421996   0.522   4.407   2.867  0.0911  0.4477  0.1779
 5558SOL     OW21997   5.866   3.764   0.661  0.2241  0.2264 -0.0256
 5558SOL    HW221998   5.961   3.760   0.648  0.2792 -0.1633  0.4345
 5558SOL    HW321999   5.854   3.834   0.725 -0.0731  2.3756 -2.2935
 5558SOL    MW422000   5.877   3.773   0.668 -0.0174 -0.1310  0.3699
 5559SOL     OW22001   2.918   1.638   1.174  0.0385 -0.4137  0.2991
 5559SOL    HW222002   2.934   1.628   1.081  0.8777 -2.7288  0.6315
 5559SOL    HW322003   2.823   1.628   1.184 -0.0471 -0.1823 -0.2908
 5559SOL    MW422004   2.908   1.636   1.163  0.0284  0.3382 -0.3194
 5560SOL     OW22005   4.826   1.140   6.239 -1.1558  0.4469  0.6767
 5560SOL    HW222006   4.833   1.060   6.292  1.8204  0.7159  0.8474
 5560SOL    HW322007   4.831   1.211   6.302  0.4015  0.7596  0.2296
 5560SOL    MW422008   4.827   1.139   6.254  0.2276 -0.3303 -0.6615
 5561SOL     OW22009   1.603   1.122   1.140 -0.1386 -0.2695  0.0495
 5561SOL    HW222010   1.524   1.071   1.119  0.0467 -0.4864 -0.1248
 5561SOL    HW322011   1.668   1.056   1.166  0.9477 -0.4067 -2.7219
 5561SOL    MW422012   1.601   1.107   1.141  0.1305  0.2577 -0.1704
 5562SOL     OW22013   5.727   2.487   0.776 -0.0892 -0.2977  0.2657
 5562SOL    HW222014   5.679   2.546   0.835  0.8484 -0.0190  0.7625
 5562SOL    HW322015   5.661   2.459   0.712 -0.8839  0.1773  0.8578
 5562SOL    MW422016   5.712   2.491   0.775 -0.0413 -0.2538  0.5484
 5563SOL     OW22017   2.868   1.400   0.630  0.3781  0.1216 -0.5446
 5563SOL    HW222018   2.793   1.450   0.599  0.9877 -0.1153 -2.5525
 5563SOL    HW322019   2.942   1.433   0.579  0.7523 -2.9751 -2.2614
 5563SOL    MW422020   2.868   1.411   0.620  0.9091  0.1012  0.4054
 5564SOL     OW22021   1.299   5.329   4.725 -0.2750  0.3323  0.4952
 5564SOL    HW222022   1.336   5.414   4.748  0.9196 -0.1446  0.4037
 5564SOL    HW322023   1.213   5.349   4.689  0.3252  1.5789 -0.3149
 5564SOL    MW422024   1.293   5.343   4.723 -0.0686 -0.6899  0.4873
 5565SOL     OW22025   2.830   0.957   5.663 -0.6518 -0.2690 -0.1930
 5565SOL    HW222026   2.751   0.977   5.713  0.2819  0.9082  0.8849
 5565SOL    HW322027   2.865   1.043   5.638 -0.7427 -0.8084 -2.3740
 5565SOL    MW422028   2.825   0.971   5.666 -0.0005 -0.1538 -0.0386
 5566SOL     OW22029   0.196   6.064   0.902 -0.0718  0.0681 -0.4471
 5566SOL    HW222030   0.142   6.137   0.930  0.2643  0.8280 -1.7096
 5566SOL    HW322031   0.252   6.045   0.978  0.8406  2.0786 -0.5407
 5566SOL    MW422032   0.197   6.071   0.916  0.1873 -0.3772  0.0811
 5567SOL     OW22033   2.349   2.290   1.544  0.2395 -0.2671  0.5422
 5567SOL    HW222034   2.434   2.262   1.578  1.0968  1.8437  0.3180
 5567SOL    HW322035   2.362   2.296   1.449 -0.8286 -1.9376  0.2467
 5567SOL    MW422036   2.362   2.287   1.536  0.0058 -0.2159  0.3799
 5568SOL     OW22037   1.824   0.974   1.311  0.1603 -0.2643  0.3913
 5568SOL    HW222038   1.894   0.957   1.248  1.2943  0.9026  1.2853
 5568SOL    HW322039   1.865   0.960   1.396 -0.1603  2.0847  1.0020
 5568SOL    MW422040   1.839   0.970   1.314 -0.6816  0.0538 -0.1131
 5569SOL     OW22041   2.551   1.578   1.723 -0.2066 -0.3408  0.7473
 5569SOL    HW222042   2.554   1.529   1.641 -2.1495  0.4410  0.1364
 5569SOL    HW322043   2.596   1.523   1.786  0.2550 -1.5375 -0.5719
 5569SOL    MW422044   2.557   1.564   1.721 -0.0730  0.1588  0.5369
 5570SOL     OW22045   1.488   5.090   3.599  0.3004  0.0797 -0.0252
 5570SOL    HW222046   1.574   5.049   3.591  0.0440 -0.5520  0.3090
 5570SOL    HW322047   1.472   5.094   3.693 -0.6562 -1.1935 -0.1034
 5570SOL    MW422048   1.497   5.085   3.610  1.1990 -0.0013  0.4445
 5571SOL     OW22049   2.114   5.492   4.324  0.3315 -0.1146 -0.0374
 5571SOL    HW222050   2.199   5.533   4.312  0.2295 -0.2368 -1.3438
 5571SOL    HW322051   2.051   5.556   4.292 -0.1546  0.3088  1.6886
 5571SOL    MW422052   2.117   5.506   4.318 -0.3308 -0.3787  0.2627
 5572SOL     OW22053   0.124   1.425   4.415 -0.5315 -0.3266 -0.0596
 5572SOL    HW222054   0.188   1.365   4.452 -1.3188 -0.8044  0.5648
 5572SOL    HW322055   0.041   1.378   4.421 -0.8890  0.1263 -1.2136
 5572SOL    MW422056   0.121   1.411   4.420 -0.4242  0.0154 -0.0011
 5573SOL     OW22057   2.922   1.545   4.384 -0.1330 -0.3654  0.3594
 5573SOL    HW222058   2.984   1.618   4.392  1.1770 -1.2559 -1.1707
 5573SOL    HW322059   2.841   1.586   4.356 -0.2981  0.8316  2.4209
 5573SOL    MW422060   2.920   1.560   4.382 -0.3346  0.0048 -0.6723
 5574SOL     OW22061   3.322   3.216   0.023  0.2261  0.7290  0.1701
 5574SOL    HW222062   3.236   3.256   0.035 -1.1079 -1.5694 -1.0945
 5574SOL    HW322063   3.363   3.220   0.110 -2.4436 -0.8761  1.6120
 5574SOL    MW422064   3.316   3.222   0.036  0.5515  0.0696  0.1209
 5575SOL     OW22065   1.394   0.153   5.367 -0.2392 -0.1947  0.0083
 5575SOL    HW222066   1.434   0.188   5.287 -0.7811 -0.0088 -0.1835
 5575SOL    HW322067   1.386   0.229   5.425 -2.2353  0.2329 -0.7367
 5575SOL    MW422068   1.398   0.168   5.364 -0.1538  0.1033 -0.1172
 5576SOL     OW22069   5.698   3.992   1.843  0.2442  0.1691  0.2141
 5576SOL    HW222070   5.726   4.081   1.822 -2.5136  2.0868  3.4274
 5576SOL    HW322071   5.613   3.983   1.799 -0.4959  0.0460  1.6092
 5576SOL    MW422072   5.690   4.002   1.835  0.0562  0.3835 -0.3615
 5577SOL     OW22073   5.582   4.341   1.111 -0.1385 -0.5733 -0.6433
 5577SOL    HW222074   5.515   4.278   1.084 -0.2806  0.3646 -2.7214
 5577SOL    HW322075   5.662   4.311   1.067 -0.2042  0.6045 -1.6344
 5577SOL    MW422076   5.584   4.329   1.101  0.3536  0.1659 -0.6068
 5578SOL     OW22077   4.558   5.337   2.430 -0.2997 -0.3264  0.3521
 5578SOL    HW222078   4.486   5.277   2.447 -0.3754 -0.4570 -0.4080
 5578SOL    HW322079   4.548   5.362   2.338  1.2142 -1.1532 -0.0810
 5578SOL    MW422080   4.547   5.332   2.420 -0.2613  0.1130  0.0867
 5579SOL     OW22081   2.554   4.279   2.735  0.1434 -0.8150  0.3352
 5579SOL    HW222082   2.545   4.336   2.659  0.8823  1.8925  2.1349
 5579SOL    HW322083   2.649   4.266   2.744  0.1704  0.1222  1.6000
 5579SOL    MW422084   2.566   4.285   2.726  0.0617  0.7266 -0.2549
 5580SOL     OW22085   4.220   2.161   3.582  0.5651  0.3659  0.2782
 5580SOL    HW222086   4.168   2.080   3.576  0.9421  0.0202  1.3636
 5580SOL    HW322087   4.276   2.159   3.504  0.6309 -0.4706  0.3312
 5580SOL    MW422088   4.220   2.150   3.571  0.4609 -0.3365  0.2604
 5581SOL     OW22089   0.274   3.011   5.602  0.5065 -0.2396 -0.1668
 5581SOL    HW222090   0.207   3.010   5.669  0.2941  0.2463 -0.3732
 5581SOL    HW322091   0.321   2.928   5.615 -0.2640 -0.6876 -0.1654
 5581SOL    MW422092   0.272   3.000   5.613 -0.0386 -0.2800  0.0278
 5582SOL     OW22093   6.381   0.617   0.125  0.1682  0.8780 -0.0457
 5582SOL    HW222094   6.419   0.534   0.155  1.5430  1.5665  0.1933
 5582SOL    HW322095   6.453   0.680   0.131 -0.4292  1.7692 -1.6378
 5582SOL    MW422096   6.396   0.614   0.129  0.1387  0.2263 -0.8241
 5583SOL     OW22097   0.181   1.443   5.898  0.2179  0.4498  0.6969
 5583SOL    HW222098   0.148   1.403   5.818  0.4973  1.2896  0.1511
 5583SOL    HW322099   0.149   1.533   5.895  0.6880  0.6439  1.2606
 5583SOL    MW422100   0.173   1.450   5.887  0.2152 -0.3161 -0.0001
 5584SOL     OW22101   2.328   5.834   4.612  0.0519  0.0481 -0.5642
 5584SOL    HW222102   2.283   5.918   4.626  0.4888 -0.0800  2.1905
 5584SOL    HW322103   2.406   5.839   4.668  0.5490 -1.8703 -1.0094
 5584SOL    MW422104   2.332   5.846   4.621  0.1190 -0.4305  0.1890
 5585SOL     OW22105   4.441   3.621   2.743  0.4673  0.4982 -0.0607
 5585SOL    HW222106   4.447   3.597   2.650  2.0131  2.0461 -0.4019
 5585SOL    HW322107   4.470   3.712   2.747  3.2513 -0.3250  2.2733
 5585SOL    MW422108   4.445   3.629   2.731  0.0876 -0.0014 -0.0575
 5586SOL     OW22109   0.974   4.858   5.826  0.1722  0.1645  0.3631
 5586SOL    HW222110   1.051   4.908   5.851  0.9934 -1.4641  1.2179
 5586SOL    HW322111   0.991   4.769   5.857 -1.7907 -0.3819  0.0402
 5586SOL    MW422112   0.986   4.853   5.833  0.0417  0.5688  0.0308
 5587SOL     OW22113   5.577   6.035   1.951 -0.2114 -0.0074 -0.3093
 5587SOL    HW222114   5.654   6.005   1.999 -0.5685 -1.0013 -0.3270
 5587SOL    HW322115   5.612   6.083   1.877  0.4444 -1.2372 -0.8315
 5587SOL    MW422116   5.592   6.037   1.947  0.1691  0.4482  0.1577
 5588SOL     OW22117   5.242   3.722   1.117  0.1759 -0.0504  0.0038
 5588SOL    HW222118   5.254   3.713   1.212 -0.0483  0.6070  0.1043
 5588SOL    HW322119   5.147   3.726   1.106  0.2125  0.2460 -0.2085
 5588SOL    MW422120   5.231   3.721   1.128  0.1431  0.0863 -0.7317
 5589SOL     OW22121   2.455   1.477   4.812 -0.2292  0.7741  0.1670
 5589SOL    HW222122   2.524   1.540   4.831 -0.6846  1.2049  0.4324
 5589SOL    HW322123   2.454   1.418   4.887  0.3956  0.2625 -0.2183
 5589SOL    MW422124   2.464   1.478   4.824 -0.1182 -0.4309  0.4561
 5590SOL     OW22125   2.041   4.656   0.778  0.6062 -0.0432  0.5813
 5590SOL    HW222126   1.970   4.719   0.769  0.5047 -0.3148 -0.7789
 5590SOL    HW322127   2.061   4.655   0.872  0.4829  1.8446  0.6675
 5590SOL    MW422128   2.034   4.664   0.789  0.4276 -0.1322 -0.0565
 5591SOL     OW22129   4.499   0.848   4.858 -0.2866  0.3453 -0.2019
 5591SOL    HW222130   4.580   0.854   4.807  0.2330 -0.9044  0.4091
 5591SOL    HW322131   4.449   0.779   4.814 -2.0016  2.4471 -1.7935
 5591SOL    MW422132   4.503   0.839   4.845 -0.1421 -0.2428  0.1311
 5592SOL     OW22133   2.462   5.198   6.069  0.2891  0.0663  0.0310
 5592SOL    HW222134   2.450   5.285   6.109 -0.3360  0.5474 -1.1358
 5592SOL    HW322135   2.409   5.140   6.123 -0.8207  0.7615 -0.2765
 5592SOL    MW422136   2.453   5.202   6.081 -0.0471 -0.0156 -0.3460
 5593SOL     OW22137   2.401   4.923   2.885 -0.2209 -1.0585  0.1519
 5593SOL    HW222138   2.484   4.961   2.915 -1.5745  2.0493  0.2474
 5593SOL    HW322139   2.356   4.994   2.840 -3.8095 -1.9042  2.0183
 5593SOL    MW422140   2.406   4.937   2.883 -0.4787 -0.1195  0.5724
 5594SOL     OW22141   2.851   4.259   1.172 -0.1975 -0.2598 -0.0009
 5594SOL    HW222142   2.912   4.332   1.171 -1.4487  0.8797  1.2736
 5594SOL    HW322143   2.884   4.201   1.240  0.8507 -0.9541 -1.0789
 5594SOL    MW422144   2.863   4.261   1.181  0.2196  0.3512  0.4639
 5595SOL     OW22145   3.023   3.304   4.773  0.2168  0.2825 -0.1588
 5595SOL    HW222146   2.951   3.318   4.712 -0.5162  1.1169  0.8505
 5595SOL    HW322147   3.028   3.386   4.823  1.1809 -0.1517  0.4899
 5595SOL    MW422148   3.015   3.317   4.772 -0.0806 -0.5906 -0.0902
 5596SOL     OW22149   0.305   0.585   1.599  0.7247  0.0239 -0.3310
 5596SOL    HW222150   0.347   0.662   1.637  0.3143 -0.8651  2.1268
 5596SOL    HW322151   0.364   0.513   1.620  0.1535 -0.6013 -0.8323
 5596SOL    MW422152   0.318   0.586   1.607  0.5735 -0.3069 -0.9842
 5597SOL     OW22153   0.957   5.961   3.117 -0.0995  0.2580  0.0152
 5597SOL    HW222154   1.010   5.928   3.189  1.2495  1.8466 -0.1797
 5597SOL    HW322155   1.015   5.957   3.041 -1.7313 -2.1338 -1.2476
 5597SOL    MW422156   0.972   5.956   3.116  0.3943  0.2115 -0.7802
 5598SOL     OW22157   5.608   1.156   4.282 -0.2711  0.4550 -0.2096
 5598SOL    HW222158   5.601   1.227   4.218 -1.2382  0.1503 -0.4694
 5598SOL    HW322159   5.702   1.146   4.297 -0.1237  2.0333  0.1125
 5598SOL    MW422160   5.619   1.164   4.276 -0.2481  0.2067  0.5312
 5599SOL     OW22161   2.411   4.789   0.191  0.2514 -0.0843  0.2739
 5599SOL    HW222162   2.453   4.703   0.182 -1.9985 -1.1739 -0.5886
 5599SOL    HW322163   2.317   4.771   0.182 -0.3832  2.3286  1.2384
 5599SOL    MW422164   2.404   4.775   0.189 -0.0547 -0.1000  0.1176
 5600SOL     OW22165   0.678   1.173   0.239 -0.0350  0.2505 -0.2264
 5600SOL    HW222166   0.732   1.247   0.266 -1.0977  1.0152 -0.1630
 5600SOL    HW322167   0.684   1.111   0.312  2.4321 -0.6581 -1.0812
 5600SOL    MW422168   0.686   1.174   0.252 -0.4056  0.1761  0.0965
 5601SOL     OW22169   0.355   0.328   0.989  0.1255  0.1029  0.0472
 5601SOL    HW222170   0.358   0.243   0.947  2.2364  0.5323 -0.7995
 5601SOL    HW322171   0.415   0.321   1.063 -2.8442 -0.3559  2.6140
 5601SOL    MW422172   0.363   0.316   0.993  0.4655 -0.2980  0.3504
 5602SOL     OW22173   2.453   3.955   5.422  0.1714  0.2401 -0.6123
 5602SOL    HW222174   2.426   4.004   5.345  0.9940 -0.9750 -1.7092
 5602SOL    HW322175   2.530   3.906   5.394  0.4336 -0.3181  0.9558
 5602SOL    MW422176   2.460   3.955   5.408 -0.4289 -0.0687 -0.5837
 5603SOL     OW22177   3.205   5.746   5.669  0.2832 -0.5606  0.7041
 5603SOL    HW222178   3.262   5.669   5.667  3.3129  1.5490 -0.6910
 5603SOL    HW322179   3.178   5.758   5.578  0.1588  0.2214  0.8365
 5603SOL    MW422180   3.209   5.737   5.657 -0.1042 -0.0902  0.0347
 5604SOL     OW22181   1.195   1.015   3.692  0.3612  0.4101 -0.8227
 5604SOL    HW222182   1.149   1.034   3.611 -1.4456 -1.2005 -0.2207
 5604SOL    HW322183   1.205   1.101   3.734 -2.3653  0.8095 -0.8554
 5604SOL    MW422184   1.190   1.029   3.687 -0.5868 -0.2247  0.0410
 5605SOL     OW22185   1.169   1.298   4.316  0.5870  0.0244 -0.0760
 5605SOL    HW222186   1.182   1.346   4.233  0.9515 -0.7655 -0.4840
 5605SOL    HW322187   1.216   1.351   4.381 -2.3783  2.4558  0.3075
 5605SOL    MW422188   1.177   1.312   4.313 -0.2659  0.4306 -0.0394
 5606SOL     OW22189   5.595   0.045   3.786 -0.6420 -0.0862 -0.0876
 5606SOL    HW222190   5.627   0.001   3.865 -2.1489 -0.4377  0.3662
 5606SOL    HW322191   5.631  -0.006   3.714 -0.3479 -0.5841  0.4005
 5606SOL    MW422192   5.604   0.032   3.787  0.2933  0.1527  0.0530
 5607SOL     OW22193   3.786   1.392   2.119  0.3142  0.4986  0.2979
 5607SOL    HW222194   3.691   1.381   2.123  0.2308  1.3384  1.1125
 5607SOL    HW322195   3.798   1.480   2.083  0.8138  0.0695 -0.6170
 5607SOL    MW422196   3.775   1.402   2.115 -0.5088 -0.3450  0.1050
 5608SOL     OW22197   1.029   5.475   1.394  0.3484  0.2910 -0.3332
 5608SOL    HW222198   1.079   5.538   1.343 -1.4743  1.6368 -0.5460
 5608SOL    HW322199   0.963   5.443   1.333 -1.0425  0.9424  0.7821
 5608SOL    MW422200   1.027   5.479   1.379 -0.5284 -0.5239  0.3396
 5609SOL     OW22201   3.181   0.582   2.526 -0.2081  0.2342 -0.2280
 5609SOL    HW222202   3.216   0.562   2.613  1.3081 -0.8389 -1.0355
 5609SOL    HW322203   3.132   0.503   2.501 -0.1857  0.3228 -0.5606
 5609SOL    MW422204   3.179   0.569   2.534 -0.6530 -0.5770  0.2754
 5610SOL     OW22205   0.187   2.273   5.830 -0.5946 -0.0164 -0.1308
 5610SOL    HW222206   0.229   2.313   5.754  0.8621 -0.2143  0.5361
 5610SOL    HW322207   0.214   2.181   5.827 -2.6151 -0.6334 -0.7602
 5610SOL    MW422208   0.196   2.266   5.820  0.1827  0.4565  0.6658
 5611SOL     OW22209   2.301   3.107   3.087  0.1360  0.2083  0.0381
 5611SOL    HW222210   2.354   3.028   3.071 -0.2368 -0.5377  2.1851
 5611SOL    HW322211   2.365   3.178   3.093  0.4886  0.1033 -1.8094
 5611SOL    MW422212   2.317   3.106   3.085  0.4889 -0.0142 -0.1997
 5612SOL     OW22213   0.117   1.585   5.058  0.0033 -0.2082  0.0576
 5612SOL    HW222214   0.197   1.577   5.007 -0.6336 -1.1407 -0.8378
 5612SOL    HW322215   0.061   1.513   5.027 -1.2364  0.5049  0.5614
 5612SOL    MW422216   0.120   1.574   5.047 -0.0069  0.3211  0.0384
 5613SOL     OW22217   3.100   4.663   4.407 -0.2154  0.1834  0.1113
 5613SOL    HW222218   3.091   4.716   4.327 -0.8472 -0.5319 -0.3067
 5613SOL    HW322219   3.011   4.635   4.427 -0.1177  0.6682  1.3075
 5613SOL    MW422220   3.087   4.667   4.399 -0.0845  0.2840 -0.3598
 5614SOL     OW22221   0.922   5.424   5.309 -0.0834  1.0667  0.3695
 5614SOL    HW222222   0.982   5.385   5.245  0.2271  0.9742  0.7139
 5614SOL    HW322223   0.837   5.384   5.290 -0.3624  2.2388 -1.0532
 5614SOL    MW422224   0.919   5.414   5.298 -0.0562  0.4206 -0.2316
 5615SOL     OW22225   1.104   0.381   0.652  0.2368 -0.4423  0.6953
 5615SOL    HW222226   1.040   0.332   0.601 -0.5195  1.7730 -0.6300
 5615SOL    HW322227   1.141   0.443   0.590  0.1438  1.5975  2.5744
 5615SOL    MW422228   1.101   0.383   0.637  0.0844  0.7139 -0.0316
 5616SOL     OW22229   1.124   4.920   2.467  0.3197 -0.1446  0.5084
 5616SOL    HW222230   1.139   4.995   2.410  0.0417 -0.2612  0.2805
 5616SOL    HW322231   1.135   4.954   2.555 -1.4362  0.5643  0.4959
 5616SOL    MW422232   1.127   4.934   2.471  0.4138  0.4612  0.4315
 5617SOL     OW22233   3.842   3.024   0.384 -0.2768  0.3525  0.4305
 5617SOL    HW222234   3.846   3.119   0.381 -0.8956  0.3615 -0.5562
 5617SOL    HW322235   3.800   3.005   0.468 -0.8711  0.9824  0.2860
 5617SOL    MW422236   3.837   3.034   0.395 -0.3115  0.1687  0.6272
 5618SOL     OW22237   5.001   5.849   6.368 -0.6312  0.8116  0.4494
 5618SOL    HW222238   5.052   5.922   6.332  0.4850  0.0261  0.4036
 5618SOL    HW322239   4.976   5.878   6.456 -0.3219  1.3071  0.3755
 5618SOL    MW422240   5.004   5.862   6.375 -0.3928 -0.6565  0.0498
 5619SOL     OW22241   3.355   5.208   5.221  0.2542  0.5048 -0.6480
 5619SOL    HW222242   3.432   5.174   5.175  0.4460 -0.8829  0.6030
 5619SOL    HW322243   3.391   5.257   5.295 -0.0555  0.7498 -0.6593
 5619SOL    MW422244   3.370   5.210   5.225  0.3107 -0.0293 -0.0409
 5620SOL     OW22245   2.516   1.445   2.109  0.0875 -0.6386  0.1809
 5620SOL    HW222246   2.536   1.399   2.191 -3.2998 -0.2922  1.3274
 5620SOL    HW322247   2.456   1.388   2.063  0.6078 -0.0368 -1.3055
 5620SOL    MW422248   2.511   1.432   2.114 -0.1158 -0.4335  0.0113
 5621SOL     OW22249   0.473   2.645   2.099  0.1681 -0.0701 -0.0902
 5621SOL    HW222250   0.419   2.705   2.046 -1.4407 -0.3319  1.1488
 5621SOL    HW322251   0.491   2.695   2.179  1.3266 -0.1932 -0.2696
 5621SOL    MW422252   0.468   2.660   2.103  0.3645  0.0084 -0.6545
 5622SOL     OW22253   1.401   5.783   3.074  0.2606 -0.4885 -0.1004
 5622SOL    HW222254   1.453   5.831   3.139 -1.0662  1.3475 -0.3214
 5622SOL    HW322255   1.342   5.728   3.125  0.6689 -0.6414  0.2042
 5622SOL    MW422256   1.400   5.782   3.089  0.3799 -0.0503 -0.5261
 5623SOL     OW22257   1.357   0.506   3.292  0.0562  0.1708  0.0279
 5623SOL    HW222258   1.405   0.561   3.230  2.0441  0.2968  1.5897
 5623SOL    HW322259   1.305   0.568   3.344 -0.2853  0.2192 -0.3609
 5623SOL    MW422260   1.356   0.521   3.291 -0.0221 -0.4667  0.2565
 5624SOL     OW22261   5.614   4.944   1.366 -0.3343  0.5301  0.4114
 5624SOL    HW222262   5.560   4.995   1.425 -1.1816  0.9599 -0.6963
 5624SOL    HW322263   5.575   4.857   1.367 -0.2111  0.4776  0.6518
 5624SOL    MW422264   5.601   4.939   1.374 -0.3487  0.5075  0.3028
 5625SOL     OW22265   4.538   3.168   0.639 -0.4367  0.3516  0.2491
 5625SOL    HW222266   4.460   3.117   0.663 -1.9509  1.4798 -1.9444
 5625SOL    HW322267   4.585   3.112   0.578 -0.4079  0.3380  0.2835
 5625SOL    MW422268   4.534   3.154   0.634 -0.4200  0.4828 -0.0251
 5626SOL     OW22269   6.036   3.677   4.179  0.0154  0.2341  0.5323
 5626SOL    HW222270   6.088   3.605   4.142  0.4209  0.3786  0.8056
 5626SOL    HW322271   5.946   3.644   4.179  0.2398 -0.4004  0.9490
 5626SOL    MW422272   6.031   3.663   4.174 -0.4956  0.2063 -0.3910
 5627SOL     OW22273   4.092   5.648   2.131 -0.2403 -0.0410 -0.2655
 5627SOL    HW222274   4.076   5.710   2.201  0.5624 -0.1510  0.0319
 5627SOL    HW322275   4.117   5.567   2.176 -1.4075 -0.6264 -0.6422
 5627SOL    MW422276   4.094   5.645   2.146  0.0229 -0.4592  0.3370
 5628SOL     OW22277   3.128   6.180   1.254  0.0168  0.4799 -0.2575
 5628SOL    HW222278   3.139   6.089   1.226 -0.0718  0.4137 -0.0748
 5628SOL    HW322279   3.158   6.232   1.179 -1.8456  0.3192 -1.1915
 5628SOL    MW422280   3.133   6.175   1.240 -0.3252 -0.1226 -0.1953
 5629SOL     OW22281   3.894   5.351   0.647 -0.3133 -0.2327  0.3543
 5629SOL    HW222282   3.956   5.421   0.631 -2.0191  1.7523  1.8668
 5629SOL    HW322283   3.949   5.276   0.672  1.5389  0.6314 -0.9177
 5629SOL    MW422284   3.909   5.350   0.648  0.8034  0.0917 -0.2391
 5630SOL     OW22285   6.124   1.946   3.736  0.5701 -0.2336  0.3275
 5630SOL    HW222286   6.076   1.905   3.664  1.4157 -1.1453  0.2591
 5630SOL    HW322287   6.063   1.947   3.809  0.1222 -0.4683 -0.0425
 5630SOL    MW422288   6.110   1.941   3.736  0.2119 -0.0681 -0.2689
 5631SOL     OW22289   3.602   5.431   1.696  0.0464 -0.5395 -0.2768
 5631SOL    HW222290   3.592   5.517   1.736 -0.1117 -0.7577  0.1649
 5631SOL    HW322291   3.684   5.435   1.648 -0.2252  0.0298 -0.7031
 5631SOL    MW422292   3.611   5.443   1.694  0.0187  0.2316  0.0538
 5632SOL     OW22293   4.817   1.870   2.904 -0.3364 -0.3833  0.4314
 5632SOL    HW222294   4.825   1.816   2.983  0.8254 -0.5481  0.2214
 5632SOL    HW322295   4.862   1.819   2.836 -1.3883 -0.2796 -0.3593
 5632SOL    MW422296   4.824   1.856   2.906 -0.1997  0.0570 -0.0756
 5633SOL     OW22297   1.002   3.589   4.394  0.7216 -0.3236  0.0700
 5633SOL    HW222298   0.990   3.678   4.428  0.7230 -0.3635  0.1734
 5633SOL    HW322299   1.079   3.596   4.337  0.3233 -0.1108 -0.4546
 5633SOL    MW422300   1.011   3.602   4.391  0.2461 -0.0689 -0.2121
 5634SOL     OW22301   2.987   3.737   0.567 -0.3311 -0.0210  0.2132
 5634SOL    HW222302   3.032   3.739   0.483 -0.1446  1.4889  0.3156
 5634SOL    HW322303   3.032   3.670   0.618  0.1228 -0.3259 -0.5823
 5634SOL    MW422304   2.999   3.728   0.563 -0.0730 -0.6354 -0.6348
 5635SOL     OW22305   0.128   3.749   4.918 -0.4820  0.2684  0.0014
 5635SOL    HW222306   0.199   3.804   4.885 -0.7167  1.0982  0.8345
 5635SOL    HW322307   0.130   3.671   4.862  2.2535 -0.5806  1.1302
 5635SOL    MW422308   0.138   3.746   4.906  0.0638  0.4118  0.4411
 5636SOL     OW22309   2.450   5.124   2.592  0.4171 -0.3184 -0.2170
 5636SOL    HW222310   2.395   5.150   2.665  0.5855  2.2627 -0.8910
 5636SOL    HW322311   2.393   5.071   2.536 -0.2876 -0.6870  0.8282
 5636SOL    MW422312   2.435   5.120   2.594 -0.0834  0.2616  0.0445
 5637SOL     OW22313   2.176   3.695   2.614  0.8239  0.2029  0.3931
 5637SOL    HW222314   2.142   3.689   2.525 -1.2124  0.3960  1.1105
 5637SOL    HW322315   2.116   3.641   2.666  1.0720  1.3072  1.8761
 5637SOL    MW422316   2.164   3.687   2.609 -0.0998 -0.7382  0.3992
 5638SOL     OW22317   4.565   0.473   6.031  0.2829 -0.4453  0.2833
 5638SOL    HW222318   4.501   0.485   6.102 -1.4092  3.2641 -1.5534
 5638SOL    HW322319   4.537   0.393   5.986 -2.2830  0.2698  0.4325
 5638SOL    MW422320   4.553   0.464   6.034 -0.1123 -0.2203 -0.6105
 5639SOL     OW22321   2.252   3.453   5.392 -0.0094  0.0767 -0.6233
 5639SOL    HW222322   2.157   3.455   5.381  0.0283  1.9736 -0.9646
 5639SOL    HW322323   2.266   3.467   5.486 -0.0599 -2.6343 -0.1302
 5639SOL    MW422324   2.242   3.455   5.403 -0.3289 -0.3810  0.1821
 5640SOL     OW22325   3.967   1.299   0.813  0.6796  0.2402 -0.2142
 5640SOL    HW222326   3.909   1.329   0.883  1.5540  2.4393 -0.3620
 5640SOL    HW322327   4.039   1.256   0.859  0.7085  0.7065  0.1884
 5640SOL    MW422328   3.969   1.297   0.828  0.4124 -0.6912 -0.7765
 5641SOL     OW22329   2.782   3.937   4.678 -0.1663  0.1981  0.2162
 5641SOL    HW222330   2.861   3.912   4.726 -0.6181  0.3307  1.0603
 5641SOL    HW322331   2.729   3.858   4.677 -0.0352  0.1114 -0.3449
 5641SOL    MW422332   2.785   3.923   4.684  0.1460 -0.5151  0.1276
 5642SOL     OW22333   3.022   4.983   6.071  0.4861  0.1177 -0.5522
 5642SOL    HW222334   3.094   4.963   6.131  0.0918  2.4746  0.8431
 5642SOL    HW322335   2.950   4.927   6.102  1.1971 -1.0645 -0.9477
 5642SOL    MW422336   3.022   4.973   6.083  0.6165 -0.4358 -0.2421
 5643SOL     OW22337   1.511   4.120   2.173 -0.4011  0.5463  0.0858
 5643SOL    HW222338   1.440   4.069   2.212  0.1496 -0.2560  0.0643
 5643SOL    HW322339   1.551   4.166   2.246 -0.4110  0.3233  0.2334
 5643SOL    MW422340   1.507   4.119   2.188  0.6186 -0.5439 -0.3850
 5644SOL     OW22341   0.918   1.752   2.359 -0.0965 -0.6943  0.1871
 5644SOL    HW222342   0.941   1.797   2.440  0.4770  0.0292 -0.3624
 5644SOL    HW322343   0.947   1.811   2.290 -1.4238 -0.8797 -0.5501
 5644SOL    MW422344   0.925   1.765   2.361 -0.2959 -0.1951 -0.1358
 5645SOL     OW22345   4.055   0.206   4.244 -0.1545  0.3121  0.1535
 5645SOL    HW222346   3.997   0.282   4.238  1.9463  2.0324  0.1668
 5645SOL    HW322347   4.053   0.166   4.157 -1.5563  0.1419  0.2460
 5645SOL    MW422348   4.047   0.211   4.232 -0.6652  0.6794 -0.2433
 5646SOL     OW22349   6.177   0.520   5.275  0.3669  0.6333 -0.2633
 5646SOL    HW222350   6.124   0.596   5.297 -1.4535 -1.2008  2.2535
 5646SOL    HW322351   6.166   0.509   5.180 -0.4501  2.6531 -0.4379
 5646SOL    MW422352   6.169   0.528   5.265 -0.3277 -0.0071  0.0388
 5647SOL     OW22353   2.416   5.194   5.542  0.2904 -0.4897 -0.3314
 5647SOL    HW222354   2.359   5.167   5.615 -0.1548  0.3453 -0.3578
 5647SOL    HW322355   2.461   5.113   5.516  0.2453 -0.8573  0.6782
 5647SOL    MW422356   2.414   5.179   5.548 -0.3774  0.3103  0.1262
 5648SOL     OW22357   3.794   5.273   6.057  0.1720  0.8887 -0.3566
 5648SOL    HW222358   3.844   5.194   6.080 -2.6200 -1.0408 -0.3636
 5648SOL    HW322359   3.729   5.281   6.127  1.6255  4.5534  0.8283
 5648SOL    MW422360   3.792   5.264   6.070 -0.1333  0.4060 -0.1166
 5649SOL     OW22361   6.008   3.224   4.194 -0.4850 -0.3917 -0.2884
 5649SOL    HW222362   5.976   3.224   4.103  1.2690 -0.8305 -0.9337
 5649SOL    HW322363   6.053   3.140   4.203  1.7573  0.7803  0.0862
 5649SOL    MW422364   6.009   3.213   4.183  0.5235  0.4092 -0.1108
 5650SOL     OW22365   1.530   0.238   1.197  0.3610  0.1383  0.1286
 5650SOL    HW222366   1.514   0.332   1.211  1.7032  0.3092  0.6716
 5650SOL    HW322367   1.506   0.223   1.106  0.6139  1.1155 -0.1142
 5650SOL    MW422368   1.524   0.249   1.187 -0.5945 -0.4017  0.1184
 5651SOL     OW22369   6.257   3.365   1.566 -0.1512  0.5003  1.0046
 5651SOL    HW222370   6.230   3.427   1.498 -1.5807  1.2868  2.2431
 5651SOL    HW322371   6.330   3.409   1.610 -0.3730  0.7671  1.1061
 5651SOL    MW422372   6.263   3.379   1.563 -0.0753 -0.0150 -0.0604
 5652SOL     OW22373   4.394   0.098   6.256 -0.0483 -0.1454  0.2698
 5652SOL    HW222374   4.374   0.145   6.175  1.7045  0.4418  0.1512
 5652SOL    HW322375   4.472   0.141   6.290 -0.2426 -0.9681  1.8143
 5652SOL    MW422376   4.402   0.110   6.249  0.3200 -0.3450  0.7091
 5653SOL     OW22377   5.020   0.442   6.144 -0.0892 -0.4448 -0.4102
 5653SOL    HW222378   5.069   0.505   6.196  2.0728 -0.3837 -2.3691
 5653SOL    HW322379   5.085   0.378   6.116 -1.1941 -0.6916 -2.6484
 5653SOL    MW422380   5.035   0.442   6.147  0.0088  0.7893 -0.2322
 5654SOL     OW22381   4.984   0.122   3.298 -0.6532  0.3285  0.3380
 5654SOL    HW222382   5.066   0.086   3.266 -0.3757  1.0712  0.2008
 5654SOL    HW322383   4.944   0.051   3.348 -1.0237 -0.7984 -1.4856
 5654SOL    MW422384   4.989   0.108   3.301 -0.4852 -0.2742 -0.1525
 5655SOL     OW22385   6.282   5.258   5.475  0.3395  0.3125 -0.2689
 5655SOL    HW222386   6.334   5.338   5.482  2.4261 -1.0023 -0.2034
 5655SOL    HW322387   6.224   5.260   5.551  0.4200  1.6943 -0.2244
 5655SOL    MW422388   6.281   5.269   5.486 -0.1276 -0.0070 -0.4903
 5656SOL     OW22389   5.315   5.606   5.056  0.1909  0.1759 -0.3830
 5656SOL    HW222390   5.377   5.663   5.010  1.6053  0.7119  2.0143
 5656SOL    HW322391   5.235   5.657   5.061  2.0783  3.3202  3.8300
 5656SOL    MW422392   5.313   5.620   5.051 -0.0770  0.1235  0.7922
 5657SOL     OW22393   2.705   0.843   4.611 -0.1908 -0.1361 -0.1516
 5657SOL    HW222394   2.629   0.901   4.599  0.8152  1.5047  1.0405
 5657SOL    HW322395   2.780   0.902   4.612  0.9699 -1.5751  0.1851
 5657SOL    MW422396   2.705   0.859   4.609 -0.5258  0.5213  0.3497
 5658SOL     OW22397   1.083   6.300   0.203 -0.3009  0.1294 -0.5462
 5658SOL    HW222398   1.021   6.236   0.168 -0.2823  0.2464 -0.7979
 5658SOL    HW322399   1.051   6.321   0.290  0.0294 -0.6849 -0.2187
 5658SOL    MW422400   1.071   6.294   0.210  0.4171 -0.0738  0.4468
 5659SOL     OW22401   5.709   5.402   1.865  0.0167 -1.0603  0.2766
 5659SOL    HW222402   5.729   5.333   1.927 -0.3131  0.7359  2.5220
 5659SOL    HW322403   5.613   5.406   1.864  0.0356 -0.2545  0.6650
 5659SOL    MW422404   5.699   5.394   1.873 -0.0501 -0.2400 -0.1456
 5660SOL     OW22405   0.243   6.045   5.570 -0.5493 -0.1003 -0.1336
 5660SOL    HW222406   0.224   6.037   5.664  0.0828  1.4166  0.1570
 5660SOL    HW322407   0.181   6.111   5.538 -2.2202 -2.1304 -1.2957
 5660SOL    MW422408   0.233   6.053   5.578  0.7819 -0.9026 -0.0503
 5661SOL     OW22409   4.955   3.167   6.307 -0.3252  0.0133  0.0294
 5661SOL    HW222410   5.026   3.222   6.339 -0.4469  0.7713 -0.9437
 5661SOL    HW322411   4.989   3.127   6.227  0.0206 -1.9441  1.1017
 5661SOL    MW422412   4.969   3.169   6.301 -0.1059 -0.5281  0.1319
 5662SOL     OW22413   2.335   2.820   3.739  0.0043  0.3343  0.6562
 5662SOL    HW222414   2.380   2.903   3.722  1.4124 -0.2399  1.4664
 5662SOL    HW322415   2.347   2.769   3.659  1.2650 -0.0064  1.0468
 5662SOL    MW422416   2.343   2.824   3.726  0.3674 -0.1503 -0.0450
 5663SOL     OW22417   5.602   2.627   4.283 -0.3162  0.4196  0.1234
 5663SOL    HW222418   5.685   2.669   4.303 -1.8344  2.2480  3.3299
 5663SOL    HW322419   5.542   2.700   4.267 -2.0309 -0.6544  1.3211
 5663SOL    MW422420   5.605   2.642   4.283 -0.3010  0.0887 -0.3167
 5664SOL     OW22421   2.496   4.291   0.843 -0.0274 -0.1203 -0.2483
 5664SOL    HW222422   2.588   4.274   0.863  0.4726  1.9832 -0.4689
 5664SOL    HW322423   2.485   4.266   0.752  0.3262 -0.3376 -0.2323
 5664SOL    MW422424   2.507   4.286   0.834  0.0843  0.0294  0.7626
 5665SOL     OW22425   3.218   5.893   1.229 -0.4783 -0.2453  0.3665
 5665SOL    HW222426   3.297   5.931   1.267 -0.5014  0.6691 -0.4655
 5665SOL    HW322427   3.243   5.803   1.206  0.3225  0.0334  0.1027
 5665SOL    MW422428   3.232   5.886   1.231  0.2876  0.1124 -0.1943
 5666SOL     OW22429   4.582   4.983   3.304  0.2637  0.0926 -0.9615
 5666SOL    HW222430   4.570   4.889   3.291  2.1203 -0.3903  0.3970
 5666SOL    HW322431   4.555   5.022   3.222 -1.0334 -1.5683 -1.3926
 5666SOL    MW422432   4.577   4.976   3.292 -0.0546  0.0878  0.3128
 5667SOL     OW22433   3.121   5.126   4.699 -0.0074  0.1129 -0.7746
 5667SOL    HW222434   3.100   5.086   4.614 -0.9342 -0.2100 -0.3969
 5667SOL    HW322435   3.165   5.056   4.747  0.4230  0.2636 -0.9389
 5667SOL    MW422436   3.124   5.111   4.694 -0.3952 -0.5535 -0.2497
 5668SOL     OW22437   3.281   2.519   3.503 -0.0868 -0.8090  0.1529
 5668SOL    HW222438   3.360   2.566   3.476 -0.2660 -0.8213 -0.3970
 5668SOL    HW322439   3.309   2.465   3.576  0.4657 -0.9723 -0.1789
 5668SOL    MW422440   3.295   2.518   3.509  0.0610  0.3516  0.2419
 5669SOL     OW22441   5.474   2.005   5.178  0.5189  0.1109  0.7951
 5669SOL    HW222442   5.406   1.938   5.186  0.4377  0.1431  0.3938
 5669SOL    HW322443   5.482   2.042   5.266 -0.6125  0.7209  0.6626
 5669SOL    MW422444   5.466   2.001   5.191 -0.2869 -0.5499 -0.6107
 5670SOL     OW22445   2.060   2.626   5.993 -0.5068  0.0868  0.1771
 5670SOL    HW222446   2.094   2.538   6.004 -0.7568  0.1400  1.5203
 5670SOL    HW322447   1.982   2.615   5.938  1.1475 -0.1135 -2.2806
 5670SOL    MW422448   2.054   2.613   5.987  0.3840  0.0163  0.6430
 5671SOL     OW22449   3.736   2.915   0.633 -0.3773  0.0567 -0.7668
 5671SOL    HW222450   3.686   2.978   0.685 -1.8894 -1.5763 -0.1361
 5671SOL    HW322451   3.670   2.853   0.601  0.8347 -0.2919 -2.7314
 5671SOL    MW422452   3.721   2.915   0.635 -0.5668 -0.3116 -0.7277
 5672SOL     OW22453   0.277   1.279   1.747 -0.1516  0.2141  0.7913
 5672SOL    HW222454   0.207   1.270   1.812 -0.7544 -2.9144 -0.1362
 5672SOL    HW322455   0.241   1.338   1.681 -0.2394  1.9454  2.2870
 5672SOL    MW422456   0.263   1.286   1.747 -0.4738 -0.1801 -0.2055
 5673SOL     OW22457   4.054   6.275   0.974  0.2908 -0.1408  0.4459
 5673SOL    HW222458   4.129   6.275   0.916  0.6435 -1.5272  0.8731
 5673SOL    HW322459   3.990   6.217   0.932 -0.1168  0.1708  0.6181
 5673SOL    MW422460   4.055   6.267   0.961 -0.2178  0.7338 -1.2492
 5674SOL     OW22461   2.522   3.556   5.396  0.5288 -0.0933  0.5157
 5674SOL    HW222462   2.439   3.523   5.361  0.7310  0.1312 -0.1917
 5674SOL    HW322463   2.558   3.483   5.446 -0.1420 -0.1571  0.9200
 5674SOL    MW422464   2.515   3.542   5.398 -0.0154 -0.3891  0.4835
 5675SOL     OW22465   1.958   3.918   4.797  0.4433  0.1232 -0.1404
 5675SOL    HW222466   1.979   4.001   4.754  0.8622 -0.6555 -1.4960
 5675SOL    HW322467   1.959   3.938   4.891  2.0537  1.2992 -0.3763
 5675SOL    MW422468   1.961   3.932   4.804  0.1685  0.0775  0.1136
 5676SOL     OW22469   5.681   1.782   2.752 -0.2686 -0.3224 -0.3249
 5676SOL    HW222470   5.611   1.717   2.746 -0.0461 -0.6595  0.6050
 5676SOL    HW322471   5.635   1.866   2.751 -0.7168 -0.5409  0.4522
 5676SOL    MW422472   5.665   1.784   2.751  0.5728 -0.0031  0.0406
 5677SOL     OW22473   2.179   2.380   6.081 -0.3678  0.2131 -0.0580
 5677SOL    HW222474   2.243   2.443   6.114 -0.0118  0.0174 -0.3641
 5677SOL    HW322475   2.226   2.332   6.013 -0.9560  0.3212 -0.5485
 5677SOL    MW422476   2.193   2.382   6.077 -0.2880 -0.2491  0.3059
 5678SOL     OW22477   3.904   5.790   4.721 -0.2047 -0.5098  0.3671
 5678SOL    HW222478   3.936   5.878   4.738 -1.4000  0.1371 -0.5849
 5678SOL    HW322479   3.900   5.784   4.625  0.1762 -1.7312  0.4007
 5678SOL    MW422480   3.908   5.801   4.711  0.2222  0.1004 -0.3409
 5679SOL     OW22481   5.199   2.362   2.816 -0.2313  0.1590  0.1492
 5679SOL    HW222482   5.110   2.384   2.845 -0.6503 -0.2555 -0.7668
 5679SOL    HW322483   5.256   2.393   2.886 -1.1435 -0.1392  1.0354
 5679SOL    MW422484   5.195   2.369   2.829  0.6454  0.3881 -0.8377
 5680SOL     OW22485   3.686   4.678   5.623 -0.2465  0.0192 -0.4050
 5680SOL    HW222486   3.730   4.673   5.708 -0.2145 -0.1501 -0.4316
 5680SOL    HW322487   3.747   4.727   5.568  0.9467 -2.0982 -1.0784
 5680SOL    MW422488   3.700   4.684   5.627  1.0408 -0.0567  0.5132
 5681SOL     OW22489   0.721   5.800   0.117  0.1608  0.0552 -0.3163
 5681SOL    HW222490   0.715   5.875   0.057  0.7713  0.0982 -0.3386
 5681SOL    HW322491   0.710   5.724   0.061  0.0990  0.1120 -0.3823
 5681SOL    MW422492   0.719   5.800   0.102 -0.7046 -0.7636 -0.3011
 5682SOL     OW22493   2.971   4.039   5.118 -0.2867 -0.2881 -0.5094
 5682SOL    HW222494   2.877   4.059   5.119 -0.3259 -0.3930 -1.4397
 5682SOL    HW322495   2.985   3.996   5.034  0.5124 -0.6978 -0.1728
 5682SOL    MW422496   2.960   4.036   5.107  0.1297 -0.0593  0.8893
 5683SOL     OW22497   0.775   0.610   3.319 -0.3713 -0.3364  0.4399
 5683SOL    HW222498   0.799   0.518   3.308  1.2169  0.1217 -0.2265
 5683SOL    HW322499   0.774   0.623   3.414 -0.2300 -0.9532  0.5311
 5683SOL    MW422500   0.778   0.600   3.330 -0.8026  0.8719  0.1027
 5684SOL     OW22501   3.878   5.472   2.995  0.2363 -0.4760  0.4713
 5684SOL    HW222502   3.880   5.517   2.911  1.2863  0.6798  1.0878
 5684SOL    HW322503   3.864   5.380   2.972  0.1786 -0.1447 -0.9343
 5684SOL    MW422504   3.876   5.465   2.981  0.0604 -0.1601  0.4330
 5685SOL     OW22505   1.729   2.391   4.857  0.2439 -0.4985 -1.0290
 5685SOL    HW222506   1.732   2.392   4.953 -0.4609  0.8216 -1.0038
 5685SOL    HW322507   1.652   2.337   4.837 -0.4881  0.4421 -0.8064
 5685SOL    MW422508   1.719   2.384   4.867 -0.0820 -0.1040 -0.0559
 5686SOL     OW22509   5.264   1.210   1.037  0.3263 -0.1295  0.3007
 5686SOL    HW222510   5.350   1.175   1.014  0.7348  1.1274 -0.1895
 5686SOL    HW322511   5.210   1.194   0.960  0.2956 -0.3730  0.3734
 5686SOL    MW422512   5.269   1.204   1.024  0.2096  0.1023  0.2708
 5687SOL     OW22513   2.535   1.745   4.573  0.6077 -0.0797 -0.4131
 5687SOL    HW222514   2.544   1.714   4.663 -1.2618 -0.1317 -0.2019
 5687SOL    HW322515   2.611   1.710   4.528  0.8782 -1.1958  0.8405
 5687SOL    MW422516   2.546   1.736   4.579 -0.3552 -0.1479  0.1690
 5688SOL     OW22517   3.270   6.047   5.383  0.3396 -0.5506 -0.1834
 5688SOL    HW222518   3.312   5.985   5.323  0.2525  0.7329 -1.6442
 5688SOL    HW322519   3.213   6.099   5.326 -1.1391 -0.4462  1.3176
 5688SOL    MW422520   3.268   6.046   5.368  0.4712  0.4028  0.1412
 5689SOL     OW22521   4.412   3.047   5.958 -0.1580 -0.1325  0.2575
 5689SOL    HW222522   4.425   3.142   5.960  0.7045 -0.1624 -1.7390
 5689SOL    HW322523   4.317   3.036   5.959 -0.2584  0.7376  0.8877
 5689SOL    MW422524   4.401   3.058   5.958  0.4999 -0.1551  0.1278
 5690SOL     OW22525   5.027   1.194   6.042 -0.1360  0.2698 -0.1516
 5690SOL    HW222526   4.962   1.180   6.110  1.4148  2.3899  1.9271
 5690SOL    HW322527   5.048   1.287   6.048  0.4080  0.4569 -3.2921
 5690SOL    MW422528   5.021   1.204   6.051 -0.2098 -0.2329 -0.0040
 5691SOL     OW22529   6.271   1.565   2.632  0.4736  0.2539 -0.4981
 5691SOL    HW222530   6.328   1.530   2.701 -0.6216  0.8398  0.7524
 5691SOL    HW322531   6.318   1.547   2.551  1.7873 -0.5107  0.3899
 5691SOL    MW422532   6.285   1.558   2.631 -0.4831 -0.6710  0.3841
 5692SOL     OW22533   0.320   4.708   4.061  0.0443  0.2408 -0.2904
 5692SOL    HW222534   0.261   4.639   4.092 -1.5924  0.8079 -1.9020
 5692SOL    HW322535   0.378   4.664   3.999 -1.1878  0.3001 -1.5381
 5692SOL    MW422536   0.320   4.693   4.057  0.1986  0.0125  0.1693
 5693SOL     OW22537   0.074   4.719   2.318 -0.3497  0.7432 -0.3263
 5693SOL    HW222538   0.092   4.788   2.254  1.9224 -0.5638 -1.2310
 5693SOL    HW322539   0.005   4.666   2.278  0.9834 -0.0104 -1.7668
 5693SOL    MW422540   0.067   4.721   2.304 -0.0737  0.0882  0.0438
 5694SOL     OW22541   3.169   0.786   5.166  0.1278 -0.1158 -0.0364
 5694SOL    HW222542   3.095   0.776   5.106  0.0248 -0.3001  0.1219
 5694SOL    HW322543   3.130   0.787   5.253  0.2632  0.3138  0.0206
 5694SOL    MW422544   3.155   0.785   5.170  0.0270  0.6649 -0.1646
 5695SOL     OW22545   6.222   1.568   3.075 -0.6133  0.0049  0.1337
 5695SOL    HW222546   6.195   1.500   3.137  0.4909 -0.9852 -0.4400
 5695SOL    HW322547   6.291   1.617   3.120 -3.6287  3.0639  1.9282
 5695SOL    MW422548   6.227   1.566   3.089  0.3811  0.8015  0.0798
 5696SOL     OW22549   1.138   1.630   1.234  0.6538 -0.4827  0.5820
 5696SOL    HW222550   1.070   1.696   1.244 -0.5906 -1.4207 -0.9809
 5696SOL    HW322551   1.115   1.562   1.298  0.2256 -0.7000  0.2037
 5696SOL    MW422552   1.126   1.629   1.244 -0.6004  0.3548 -0.0083
 5697SOL     OW22553   1.213   0.078   3.903 -0.0585 -0.1665 -0.4718
 5697SOL    HW222554   1.152   0.051   3.835 -1.3986 -0.3389  0.7365
 5697SOL    HW322555   1.222   0.172   3.891 -0.6211 -0.1294 -0.6405
 5697SOL    MW422556   1.206   0.087   3.893  0.5162  0.3810 -0.4482
 5698SOL     OW22557   0.397   0.832   1.720 -0.3722  0.1677 -0.1967
 5698SOL    HW222558   0.389   0.828   1.815  1.1875  0.2323 -0.0514
 5698SOL    HW322559   0.491   0.838   1.703 -0.6336  0.3576 -1.7373
 5698SOL    MW422560   0.408   0.832   1.730  0.5717 -0.5662 -0.1480
 5699SOL     OW22561   6.062   2.725   1.887  0.3972 -0.0188 -0.3124
 5699SOL    HW222562   5.984   2.677   1.917 -0.7892  0.6077 -2.2427
 5699SOL    HW322563   6.068   2.801   1.946 -0.8428  0.2679 -0.5372
 5699SOL    MW422564   6.053   2.729   1.899  0.2191  0.5519  0.1081
 5700SOL     OW22565   1.797   0.566   0.581  0.1684  0.2753 -0.0403
 5700SOL    HW222566   1.821   0.482   0.544  1.1414  0.5329 -0.0216
 5700SOL    HW322567   1.702   0.570   0.573  0.2393 -0.2298 -1.2947
 5700SOL    MW422568   1.788   0.556   0.575 -0.3444  0.1652 -0.0104
 5701SOL     OW22569   1.399   4.571   5.798 -0.1022 -0.2719 -0.3907
 5701SOL    HW222570   1.343   4.559   5.875  0.4580  0.4439  0.1460
 5701SOL    HW322571   1.356   4.640   5.747 -0.2903 -0.5011 -0.5416
 5701SOL    MW422572   1.386   4.579   5.802 -0.0367  0.1702  0.1488
 5702SOL     OW22573   5.277   0.297   0.080  0.0955 -0.4517 -0.1950
 5702SOL    HW222574   5.204   0.357   0.097  0.1710 -0.9714  2.3419
 5702SOL    HW322575   5.272   0.233   0.151  3.6028  0.0671  0.6642
 5702SOL    MW422576   5.267   0.296   0.092 -0.0623 -0.1847 -0.2504
 5703SOL     OW22577   3.558   3.247   0.688 -0.0257 -0.0741 -0.4331
 5703SOL    HW222578   3.551   3.189   0.763  0.3130  0.0058 -0.3397
 5703SOL    HW322579   3.648   3.278   0.690  0.1749 -0.5664 -1.2322
 5703SOL    MW422580   3.569   3.243   0.698 -1.2242  0.3072 -0.8085
 5704SOL     OW22581   2.603   0.538   1.359 -0.6603  0.7736  0.5043
 5704SOL    HW222582   2.563   0.607   1.306 -2.1910  1.1226  2.0274
 5704SOL    HW322583   2.625   0.469   1.296 -0.6694  1.9252 -0.8129
 5704SOL    MW422584   2.601   0.538   1.344  0.0700 -0.4408 -0.1310
 5705SOL     OW22585   0.157   2.626   3.960 -0.2815 -0.1778 -0.0934
 5705SOL    HW222586   0.128   2.682   3.888 -0.4874 -0.7464 -0.4632
 5705SOL    HW322587   0.131   2.537   3.934 -1.0304 -0.3077  1.0224
 5705SOL    MW422588   0.150   2.621   3.947  0.2278  0.1499  0.3822
 5706SOL     OW22589   5.053   1.339  -0.006 -0.5807  0.5877 -0.1742
 5706SOL    HW222590   5.016   1.251  -0.011  1.2130 -0.2113 -0.0586
 5706SOL    HW322591   4.994   1.393  -0.058  0.2576 -1.3740 -3.4162
 5706SOL    MW422592   5.040   1.335  -0.013  0.2273 -0.4833 -0.0318
 5707SOL     OW22593   2.740   4.211   0.144 -0.1130 -0.0715 -0.0313
 5707SOL    HW222594   2.829   4.188   0.119 -0.9463 -2.4390 -1.0755
 5707SOL    HW322595   2.744   4.222   0.239  1.1436 -0.9195  0.0326
 5707SOL    MW422596   2.752   4.210   0.153  0.5543 -0.5988 -0.5897
 5708SOL     OW22597   3.076   2.172   0.754  0.0502 -0.3687  0.2348
 5708SOL    HW222598   3.158   2.220   0.739  0.5898 -0.4768  2.3980
 5708SOL    HW322599   3.098   2.081   0.736  0.2156 -0.3162  0.1693
 5708SOL    MW422600   3.090   2.166   0.750 -0.3092 -0.6072  0.1731
 5709SOL     OW22601   4.406   1.726   3.768 -0.2539  0.1474 -0.3620
 5709SOL    HW222602   4.498   1.703   3.783 -0.3133  0.6784  0.9615
 5709SOL    HW322603   4.409   1.817   3.738 -0.1779 -0.7450 -3.3559
 5709SOL    MW422604   4.419   1.735   3.766  0.1342 -0.5634  0.2115
 5710SOL     OW22605   4.432   5.163   1.042  0.4868 -0.0757  0.3589
 5710SOL    HW222606   4.339   5.166   1.018  0.4587  0.4122  0.5260
 5710SOL    HW322607   4.468   5.093   0.987 -0.2206 -1.1018  1.1423
 5710SOL    MW422608   4.425   5.154   1.032 -0.5155 -0.3282 -0.4649
 5711SOL     OW22609   2.149   6.039   2.921 -0.3672 -0.6788 -0.4558
 5711SOL    HW222610   2.170   6.129   2.946  0.3610 -0.5927 -1.3424
 5711SOL    HW322611   2.178   5.986   2.995 -1.2910 -0.1622  0.3140
 5711SOL    MW422612   2.155   6.044   2.934  0.2258  0.0533  0.0962
 5712SOL     OW22613   5.888   3.524   3.779  0.1883  0.8409  0.0900
 5712SOL    HW222614   5.816   3.555   3.725  0.1944  1.2280  0.3033
 5712SOL    HW322615   5.943   3.601   3.793 -0.0442  0.8589  1.0059
 5712SOL    MW422616   5.885   3.538   3.774 -0.5812 -0.4296  0.0073
 5713SOL     OW22617   4.407   3.902   1.249  0.2086  0.3453 -0.2186
 5713SOL    HW222618   4.463   3.980   1.243  2.8984 -1.3279  1.0936
 5713SOL    HW322619   4.424   3.855   1.168 -1.8122  1.2471 -1.2501
 5713SOL    MW422620   4.417   3.906   1.237  0.6354 -0.3955  0.5648
 5714SOL     OW22621   0.969   2.829   3.404 -0.0392 -0.1497  0.3252
 5714SOL    HW222622   0.905   2.875   3.349  0.4636  0.9956  0.6859
 5714SOL    HW322623   0.998   2.894   3.468  1.7151 -0.5418 -0.0161
 5714SOL    MW422624   0.964   2.844   3.405  0.5297 -0.3943 -0.1213
 5715SOL     OW22625   2.339   0.340   2.615  0.1893  0.2700  0.1011
 5715SOL    HW222626   2.343   0.244   2.614  1.7492  0.3007  0.9853
 5715SOL    HW322627   2.298   0.361   2.699  1.4986  0.3794  0.7434
 5715SOL    MW422628   2.334   0.330   2.626 -0.3184  0.2267  0.2730
 5716SOL     OW22629   4.751   3.809   6.329 -0.5509 -0.0900  0.9209
 5716SOL    HW222630   4.714   3.895   6.308 -0.2486 -0.0076  0.7150
 5716SOL    HW322631   4.776   3.773   6.244 -1.4601 -0.7516  0.9126
 5716SOL    MW422632   4.749   3.816   6.315  0.7103  0.0402 -0.1916
 5717SOL     OW22633   1.146   0.175   5.088  0.2775  0.6804 -0.0720
 5717SOL    HW222634   1.078   0.176   5.021 -0.1439 -1.0768  0.2883
 5717SOL    HW322635   1.226   0.200   5.042 -0.3340  1.3281 -0.8119
 5717SOL    MW422636   1.148   0.179   5.073 -0.1156 -1.1992 -0.3375
 5718SOL     OW22637   5.215   2.025   4.110 -0.0174 -0.1319 -0.3406
 5718SOL    HW222638   5.187   2.116   4.100  1.1113  0.2712  0.0799
 5718SOL    HW322639   5.147   1.986   4.166  0.2050  0.8153  0.6190
 5718SOL    MW422640   5.202   2.032   4.116 -0.1570  0.4736 -0.1537
 5719SOL     OW22641   4.750   6.119   1.562  0.3061  0.5544  0.0410
 5719SOL    HW222642   4.788   6.058   1.498  2.1511  0.7649  0.8709
 5719SOL    HW322643   4.693   6.176   1.509  0.3338 -0.4344 -1.1054
 5719SOL    MW422644   4.748   6.118   1.546  0.2239 -0.0066 -0.2309
 5720SOL     OW22645   2.064   4.208   0.561 -0.3332 -0.0972 -0.3937
 5720SOL    HW222646   2.118   4.245   0.631  0.1740  0.2474 -0.9604
 5720SOL    HW322647   1.988   4.267   0.557 -0.2739 -0.0104 -0.2607
 5720SOL    MW422648   2.061   4.221   0.570  0.0705 -0.4124  0.5136
 5721SOL     OW22649   2.240   0.345   4.367 -0.3417 -0.1731 -0.3916
 5721SOL    HW222650   2.241   0.314   4.457 -0.0247  0.6292 -0.1125
 5721SOL    HW322651   2.184   0.283   4.321 -0.3135 -0.7241  0.3049
 5721SOL    MW422652   2.233   0.333   4.373  0.3330 -0.8489 -0.3173
 5722SOL     OW22653   0.937   5.842   4.224  0.3609  0.6467  0.0895
 5722SOL    HW222654   0.848   5.875   4.207  0.2317 -0.4370 -1.5102
 5722SOL    HW322655   0.993   5.917   4.207 -0.1281  0.8410 -0.7268
 5722SOL    MW422656   0.932   5.857   4.219 -0.2444 -0.9126 -0.3677
 5723SOL     OW22657   5.575   4.045   0.648 -0.4262  0.2276 -0.3036
 5723SOL    HW222658   5.500   4.100   0.672 -0.9226 -0.1629 -0.9285
 5723SOL    HW322659   5.548   4.003   0.566 -0.2087 -1.2424  0.3596
 5723SOL    MW422660   5.561   4.047   0.640 -0.0908  0.4116  0.0025
 5724SOL     OW22661   3.080   3.480   2.096  0.2721 -0.5381 -0.1833
 5724SOL    HW222662   3.137   3.529   2.155  0.7284  2.1945 -2.6469
 5724SOL    HW322663   3.139   3.423   2.048  0.1278 -1.5244  0.7649
 5724SOL    MW422664   3.095   3.479   2.098 -0.4094  0.1013  0.2042
 5725SOL     OW22665   5.560   2.641   0.951  0.0972 -0.8466  0.2297
 5725SOL    HW222666   5.503   2.594   1.012  1.6928  0.6395  3.0469
 5725SOL    HW322667   5.521   2.728   0.944  1.0437 -0.3579  0.8344
 5725SOL    MW422668   5.547   2.646   0.958 -0.2884  0.7018  0.3013
 5726SOL     OW22669   2.302   5.889   6.122 -0.7960  0.8016  0.2946
 5726SOL    HW222670   2.326   5.910   6.032 -0.5208 -0.0589  0.1550
 5726SOL    HW322671   2.210   5.866   6.117 -0.1957 -1.8222 -0.2770
 5726SOL    MW422672   2.293   5.889   6.109 -0.3003 -0.2809 -0.2210
 5727SOL     OW22673   3.969   3.128   4.873 -0.1417  0.3708  0.1958
 5727SOL    HW222674   4.054   3.115   4.915  0.1342  0.8438 -0.1910
 5727SOL    HW322675   3.933   3.040   4.862  0.5893  0.1173 -0.2232
 5727SOL    MW422676   3.976   3.115   4.877 -0.3660  0.2972 -0.2977
 5728SOL     OW22677   6.026   1.318   1.629 -0.0413  0.5231  0.0965
 5728SOL    HW222678   5.986   1.358   1.706 -2.0469 -0.0599 -0.5700
 5728SOL    HW322679   5.955   1.311   1.566  1.0281 -0.9809 -1.0303
 5728SOL    MW422680   6.012   1.322   1.631 -0.0932  0.3386 -1.0886
 5729SOL     OW22681   1.666   4.178   5.685  0.5398 -0.1708 -0.1786
 5729SOL    HW222682   1.693   4.193   5.775 -1.1281 -0.2891  0.3804
 5729SOL    HW322683   1.747   4.179   5.635  1.7275 -1.9757  1.5583
 5729SOL    MW422684   1.680   4.180   5.690 -0.0743 -0.0582  0.1917
 5730SOL     OW22685   3.544   1.102   0.685  0.2129 -0.0875 -0.1607
 5730SOL    HW222686   3.640   1.097   0.685  0.1653 -1.1657  0.2072
 5730SOL    HW322687   3.516   1.023   0.730 -0.8146  1.3178  1.8045
 5730SOL    MW422688   3.553   1.091   0.691 -0.0552 -0.7207 -0.5542
 5731SOL     OW22689   1.308   5.982   2.715 -0.2920 -0.0472 -0.3046
 5731SOL    HW222690   1.381   5.922   2.723 -1.4879 -1.3050  2.4461
 5731SOL    HW322691   1.242   5.933   2.665  0.0712  0.4208 -1.2623
 5731SOL    MW422692   1.309   5.968   2.709 -0.1980  0.2856 -0.2684
 5732SOL     OW22693   0.174   5.789   5.443 -0.1982 -0.1246  0.6332
 5732SOL    HW222694   0.171   5.863   5.503 -0.9261  0.6060 -0.2646
 5732SOL    HW322695   0.265   5.761   5.442  0.0128  0.5342  1.2551
 5732SOL    MW422696   0.185   5.795   5.451  0.2929 -0.0017 -0.2432
 5733SOL     OW22697   2.656   5.885   5.892  0.1979  0.5771 -0.5188
 5733SOL    HW222698   2.683   5.973   5.866 -1.6525  1.3791  0.0797
 5733SOL    HW322699   2.721   5.827   5.853  0.7186  2.1067 -2.0415
 5733SOL    MW422700   2.668   5.889   5.884 -0.0867  0.8233 -0.0102
 5734SOL     OW22701   4.470   4.242   1.425 -0.4530 -0.0650  0.3124
 5734SOL    HW222702   4.418   4.190   1.486  0.3688  0.2938  1.3586
 5734SOL    HW322703   4.487   4.324   1.471  0.7229 -0.0267 -0.1365
 5734SOL    MW422704   4.466   4.246   1.439 -0.4187 -0.3058 -0.3133
 5735SOL     OW22705   3.628   0.661   5.040  0.1252 -0.0955  1.0249
 5735SOL    HW222706   3.644   0.616   4.957  0.5084  0.8045  0.5901
 5735SOL    HW322707   3.700   0.633   5.097 -0.1490 -0.7314  1.0682
 5735SOL    MW422708   3.640   0.652   5.036  0.4109  0.3071 -0.0842
 5736SOL     OW22709   5.979   3.610   1.259 -0.3362  0.6770  0.2029
 5736SOL    HW222710   5.972   3.699   1.227 -0.9704  1.0046  1.1904
 5736SOL    HW322711   5.922   3.608   1.337 -1.5391 -0.9784 -0.6394
 5736SOL    MW422712   5.970   3.621   1.265  0.1860  0.4020 -0.1364
 5737SOL     OW22713   6.213   3.767   6.010 -0.3787 -0.2660 -0.2652
 5737SOL    HW222714   6.263   3.803   6.084 -0.9925  0.8623 -0.3881
 5737SOL    HW322715   6.274   3.706   5.968  0.2837 -0.2454  0.6343
 5737SOL    MW422716   6.228   3.763   6.014 -0.1552  0.2091 -0.1370
 5738SOL     OW22717   5.877   5.298   5.604 -0.3683  0.1272 -0.4477
 5738SOL    HW222718   5.950   5.238   5.616 -0.1905  0.5799  0.9265
 5738SOL    HW322719   5.917   5.385   5.606 -0.7401  0.3304 -1.4293
 5738SOL    MW422720   5.892   5.302   5.606 -0.1640  0.3154 -0.0360
 5739SOL     OW22721   0.530   0.341   3.087  0.2326 -0.5150 -0.2670
 5739SOL    HW222722   0.537   0.303   2.999 -0.0909  0.8855 -0.9221
 5739SOL    HW322723   0.479   0.421   3.074  0.7907  0.0786  1.0958
 5739SOL    MW422724   0.524   0.347   3.073 -0.0299  0.3103  0.0595
 5740SOL     OW22725   0.290   0.259   2.703  0.4844 -0.1597  0.3749
 5740SOL    HW222726   0.269   0.279   2.612  0.3965  0.1282  0.4584
 5740SOL    HW322727   0.341   0.334   2.733  2.8220 -1.4124 -0.2268
 5740SOL    MW422728   0.294   0.271   2.695 -0.1570 -0.1929  0.4882
 5741SOL     OW22729   0.160   4.165   0.787 -0.2658 -0.2430 -0.5267
 5741SOL    HW222730   0.207   4.166   0.704 -1.5392  0.2111 -1.2766
 5741SOL    HW322731   0.086   4.107   0.773 -0.8258  0.2941  0.0926
 5741SOL    MW422732   0.157   4.158   0.774  0.2639  0.3228  0.1330
 5742SOL     OW22733   4.406   2.802   0.185  0.1667 -0.8848  0.0337
 5742SOL    HW222734   4.446   2.865   0.124  0.4956 -0.9488  0.1833
 5742SOL    HW322735   4.474   2.736   0.199  0.4906 -0.3047  1.3211
 5742SOL    MW422736   4.420   2.802   0.179  0.1590  0.5170  0.4854
 5743SOL     OW22737   5.411   0.540   2.033 -0.2639 -0.1414  0.6479
 5743SOL    HW222738   5.485   0.488   2.001  1.2561  1.9564  0.5742
 5743SOL    HW322739   5.380   0.492   2.110  1.0167 -1.1968  0.5501
 5743SOL    MW422740   5.416   0.527   2.039  0.6552 -0.5077 -0.5026
 5744SOL     OW22741   4.771   4.329   6.301  0.0109  0.3260  0.7736
 5744SOL    HW222742   4.856   4.302   6.268 -0.0329  0.6524  0.4004
 5744SOL    HW322743   4.726   4.246   6.321 -0.1278  0.1084 -0.3873
 5744SOL    MW422744   4.776   4.314   6.299 -0.4730 -0.5777  0.2551
 5745SOL     OW22745   3.606   4.531   3.784  0.2873  0.2241 -0.2443
 5745SOL    HW222746   3.652   4.449   3.802 -0.1635 -0.0035 -0.1239
 5745SOL    HW322747   3.676   4.594   3.767  0.6489 -0.0773  0.1094
 5745SOL    MW422748   3.622   4.528   3.784  0.2385  0.1139  0.5118
 5746SOL     OW22749   1.575   4.029   4.828 -0.3532  0.1547 -0.2289
 5746SOL    HW222750   1.583   4.098   4.893 -0.5254 -0.6466  0.6521
 5746SOL    HW322751   1.559   4.076   4.746  0.4081  1.1941  0.1973
 5746SOL    MW422752   1.574   4.045   4.825  0.1577 -0.5570  0.0350
 5747SOL     OW22753   5.561   0.729   0.081  0.2023 -0.6684 -0.0815
 5747SOL    HW222754   5.575   0.650   0.030  0.4634 -0.2925 -0.6000
 5747SOL    HW322755   5.646   0.773   0.083 -0.0175 -0.2331 -0.0815
 5747SOL    MW422756   5.574   0.725   0.075 -0.0408 -0.0826  0.4153
 5748SOL     OW22757   3.192   0.852   1.163 -0.2045 -0.1529 -0.1211
 5748SOL    HW222758   3.204   0.841   1.257  0.9177  0.3382 -0.1919
 5748SOL    HW322759   3.263   0.801   1.124  1.1373  1.9777 -0.6075
 5748SOL    MW422760   3.203   0.844   1.170  0.6706  0.1015  0.5763
 5749SOL     OW22761   2.631   1.690   5.124  0.5513 -0.3909  0.2965
 5749SOL    HW222762   2.659   1.780   5.141 -2.0320  0.7728 -1.0904
 5749SOL    HW322763   2.640   1.680   5.029 -2.5386 -0.2502 -0.1094
 5749SOL    MW422764   2.636   1.700   5.114 -0.2028  0.0587 -0.4854
 5750SOL     OW22765   5.990   3.607   6.083  0.2941 -0.4786 -0.2578
 5750SOL    HW222766   5.908   3.628   6.037  0.0287  0.8062  0.7299
 5750SOL    HW322767   6.050   3.676   6.057  0.5412 -0.4771  0.3026
 5750SOL    MW422768   5.987   3.619   6.073 -0.0961 -0.1492  0.3005
 5751SOL     OW22769   2.619   4.618   3.071  0.5697  0.3235  0.1613
 5751SOL    HW222770   2.633   4.527   3.043 -0.9719  0.1286 -0.0973
 5751SOL    HW322771   2.645   4.619   3.163 -0.0350 -0.5724  0.3612
 5751SOL    MW422772   2.624   4.606   3.079  0.0241 -0.1916 -0.3315
 5752SOL     OW22773   4.441   0.230   2.856 -0.4486  0.0026  0.4128
 5752SOL    HW222774   4.487   0.149   2.834  0.9754  0.6494  0.8685
 5752SOL    HW322775   4.491   0.298   2.811 -1.2535  0.6925  0.5481
 5752SOL    MW422776   4.454   0.228   2.847  0.0990 -0.5042 -0.0394
 5753SOL     OW22777   4.635   4.841   2.987 -0.2572  0.6163  0.3087
 5753SOL    HW222778   4.632   4.763   2.931  0.0092 -0.2438  1.4558
 5753SOL    HW322779   4.545   4.853   3.015  0.0040 -0.5662  1.7994
 5753SOL    MW422780   4.623   4.832   2.983  0.0257 -0.0873  0.7110
 5754SOL     OW22781   3.168   1.076   2.030  0.2733 -0.3714 -0.3990
 5754SOL    HW222782   3.101   1.016   2.062  1.2919 -0.5654  1.5005
 5754SOL    HW322783   3.213   1.026   1.961  0.0425 -1.1666  0.0145
 5754SOL    MW422784   3.165   1.061   2.025  0.5990 -0.4752 -0.2326
 5755SOL     OW22785   4.624   6.212   3.208  0.0371  0.3676  0.3609
 5755SOL    HW222786   4.699   6.157   3.232  2.1164  3.0979  0.5934
 5755SOL    HW322787   4.652   6.258   3.129 -0.6837  2.6273  1.3331
 5755SOL    MW422788   4.638   6.211   3.201 -0.2545  0.7842 -0.0244
 5756SOL     OW22789   3.661   3.283   1.759  0.4178  0.1374 -0.0468
 5756SOL    HW222790   3.629   3.224   1.827 -0.0514  0.1805 -0.2248
 5756SOL    HW322791   3.581   3.317   1.718  0.6861  1.0394  0.1789
 5756SOL    MW422792   3.646   3.279   1.763  0.0374 -0.3205  0.3366
 5757SOL     OW22793   2.802   5.827   2.619  0.8584  0.8416  0.2618
 5757SOL    HW222794   2.861   5.882   2.670  0.6325  0.9579  0.3968
 5757SOL    HW322795   2.782   5.754   2.678  1.5261  0.3705 -0.0812
 5757SOL    MW422796   2.807   5.824   2.634  0.7582 -0.8578  0.1206
 5758SOL     OW22797   3.238   4.197   5.907  0.0738 -0.8040 -0.4473
 5758SOL    HW222798   3.249   4.153   5.822  1.2115  0.2636 -0.8919
 5758SOL    HW322799   3.321   4.182   5.952 -0.6563 -1.6735  0.6590
 5758SOL    MW422800   3.250   4.189   5.902  0.5350 -0.5580 -0.0543
 5759SOL     OW22801   2.657   5.011   0.437  0.3567 -0.6904 -0.3618
 5759SOL    HW222802   2.661   5.007   0.533  0.9463  0.3861 -0.3182
 5759SOL    HW322803   2.572   5.050   0.419 -0.1705 -1.7939 -0.3272
 5759SOL    MW422804   2.647   5.016   0.448 -0.1254  0.5139  0.0390
 5760SOL     OW22805   0.445   3.176   4.699 -0.1582 -0.0510 -0.4031
 5760SOL    HW222806   0.425   3.083   4.715  1.0083 -0.3615 -0.6701
 5760SOL    HW322807   0.541   3.181   4.703 -0.1737  1.0193 -1.0966
 5760SOL    MW422808   0.455   3.164   4.702 -0.1566  0.6907  0.6390
 5761SOL     OW22809   0.624   4.886   6.306 -0.1948  0.0808 -0.0732
 5761SOL    HW222810   0.587   4.974   6.296  0.3158  0.2326 -0.6913
 5761SOL    HW322811   0.672   4.889   6.389  2.2213  1.2881 -1.4108
 5761SOL    MW422812   0.625   4.898   6.316  0.3390  0.1721  0.4014
 5762SOL     OW22813   5.604   0.450   1.585  0.1539 -0.0826 -0.2659
 5762SOL    HW222814   5.653   0.489   1.512  0.2900 -0.0035 -0.1310
 5762SOL    HW322815   5.650   0.370   1.606 -1.6957 -1.8460 -2.4124
 5762SOL    MW422816   5.616   0.445   1.578  0.1390  0.0573  0.2585
 5763SOL     OW22817   2.681   3.570   1.700 -0.1254 -0.4971 -0.3215
 5763SOL    HW222818   2.697   3.623   1.622  0.5864 -0.6058 -0.2523
 5763SOL    HW322819   2.686   3.633   1.772  0.3556 -0.5873 -0.2711
 5763SOL    MW422820   2.684   3.586   1.699  0.0375 -0.1187  0.6908
 5764SOL     OW22821   0.053   3.679   0.141  0.4128  0.0004  0.4534
 5764SOL    HW222822   0.007   3.722   0.213  0.7993  1.3819 -0.0987
 5764SOL    HW322823   0.136   3.726   0.134  1.3206 -1.5379  0.5075
 5764SOL    MW422824   0.058   3.691   0.150  0.2561  0.0423  0.1276
 5765SOL     OW22825   3.763   5.433   0.173 -0.1101  0.6578 -0.1985
 5765SOL    HW222826   3.686   5.418   0.227  0.5096  1.9998  1.1064
 5765SOL    HW322827   3.786   5.524   0.188  2.2584  0.0601  0.1760
 5765SOL    MW422828   3.756   5.443   0.182  0.5849 -0.8668 -0.1412
 5766SOL     OW22829   5.516   2.903   5.405 -0.5651 -0.3218 -0.5686
 5766SOL    HW222830   5.433   2.948   5.419  0.3457  1.0971  0.5840
 5766SOL    HW322831   5.554   2.944   5.328  0.7459  1.7708  1.0787
 5766SOL    MW422832   5.510   2.914   5.397  0.2714 -0.6340  0.1167
 5767SOL     OW22833   1.537   5.843   5.163  0.3834  0.0297 -0.5189
 5767SOL    HW222834   1.499   5.816   5.080 -0.1024  0.8565 -0.5808
 5767SOL    HW322835   1.461   5.866   5.218  0.6549 -1.1973  0.4137
 5767SOL    MW422836   1.522   5.842   5.159  0.5898  0.1514 -0.4463
 5768SOL     OW22837   0.885   5.809   2.008  0.0617 -0.0576 -0.0848
 5768SOL    HW222838   0.946   5.809   1.934 -0.5550 -0.3397 -0.6137
 5768SOL    HW322839   0.931   5.854   2.078  1.1024 -0.7883 -0.2801
 5768SOL    MW422840   0.899   5.815   2.007  0.0465  0.0861  0.5565
 5769SOL     OW22841   4.904   4.937   6.078  0.5039 -0.5354 -0.1337
 5769SOL    HW222842   4.833   4.990   6.040 -0.2169 -1.3166  0.0798
 5769SOL    HW322843   4.917   4.866   6.015  0.6565 -0.7474  0.1360
 5769SOL    MW422844   4.896   4.934   6.065  0.2891  0.2822  0.1335
 5770SOL     OW22845   1.932   6.348   4.271  0.3529  0.1355  0.1611
 5770SOL    HW222846   1.845   6.346   4.231  1.3796 -3.2269 -2.4399
 5770SOL    HW322847   1.987   6.301   4.208  3.9697  1.6386  1.9585
 5770SOL    MW422848   1.928   6.341   4.257  0.6343  0.7710  0.3164
 5771SOL     OW22849   4.881   0.283   0.856 -0.4728 -0.0589  0.0030
 5771SOL    HW222850   4.804   0.287   0.800  0.0936 -0.7391 -0.8486
 5771SOL    HW322851   4.937   0.217   0.816 -0.5862 -1.5186  2.0618
 5771SOL    MW422852   4.878   0.275   0.844 -0.9117  0.1440  0.3162
 5772SOL     OW22853   5.647   6.182   0.029  0.4122  0.2645  0.3974
 5772SOL    HW222854   5.554   6.169   0.047  0.4955 -0.1695  0.5260
 5772SOL    HW322855   5.649   6.227  -0.056  0.0838  0.4142  0.4662
 5772SOL    MW422856   5.635   6.186   0.020 -0.6139  0.6681 -0.5050
 5773SOL     OW22857   1.294   2.637   5.222 -0.0725  0.0936 -0.6981
 5773SOL    HW222858   1.258   2.608   5.139  0.1032  1.6075 -1.3256
 5773SOL    HW322859   1.348   2.713   5.200 -1.5588  1.7414  1.0156
 5773SOL    MW422860   1.297   2.643   5.208  0.6178  0.0721 -0.1791
 5774SOL     OW22861   1.500   5.341   3.125 -0.5363  0.1857 -0.2845
 5774SOL    HW222862   1.539   5.377   3.204  0.6176 -0.6832 -0.4439
 5774SOL    HW322863   1.559   5.367   3.055  0.1205 -1.6308 -0.4519
 5774SOL    MW422864   1.513   5.349   3.126 -0.1524 -0.9951  0.2257
 5775SOL     OW22865   2.875   3.796   1.029 -0.0454 -0.2112  0.3304
 5775SOL    HW222866   2.951   3.841   1.065  0.6620 -1.5988  0.6377
 5775SOL    HW322867   2.820   3.866   0.994 -0.1737  1.1191  2.9544
 5775SOL    MW422868   2.878   3.811   1.029  0.3583  0.1014 -0.2686
 5776SOL     OW22869   1.705   3.077   3.311  0.3145  0.1904  0.3643
 5776SOL    HW222870   1.610   3.081   3.327  0.4250  1.1450  0.8876
 5776SOL    HW322871   1.714   3.021   3.235 -0.9087  2.2219 -1.3988
 5776SOL    MW422872   1.693   3.070   3.303 -0.3639  0.4436 -0.2554
 5777SOL     OW22873   4.775   5.182   0.906  0.5960  0.1632  0.5595
 5777SOL    HW222874   4.775   5.254   0.970  0.7020 -1.9732  3.1717
 5777SOL    HW322875   4.716   5.211   0.837 -0.4006  2.2144  2.1504
 5777SOL    MW422876   4.767   5.196   0.906  0.1571 -0.3138  0.0789
 5778SOL     OW22877   0.875   2.025   0.918 -0.5189  0.5026  0.4070
 5778SOL    HW222878   0.869   2.096   0.983  0.0490  0.8448  0.0936
 5778SOL    HW322879   0.824   1.954   0.956 -0.8313  0.9692  0.8773
 5778SOL    MW422880   0.868   2.025   0.932 -0.1846 -0.3836 -0.0664
 5779SOL     OW22881   5.484   3.719   0.436  0.7196  0.0665  0.4339
 5779SOL    HW222882   5.509   3.640   0.387 -0.6242 -0.3579  0.3953
 5779SOL    HW322883   5.391   3.730   0.417  0.4624  0.6095  1.9235
 5779SOL    MW422884   5.475   3.710   0.427  0.3169  0.4334 -0.1069
 5780SOL     OW22885   3.341   2.531   0.129 -0.1463  0.0544 -0.3053
 5780SOL    HW222886   3.288   2.485   0.195 -0.6132  1.6787  0.5153
 5780SOL    HW322887   3.295   2.515   0.047  1.6618 -3.9024 -0.7737
 5780SOL    MW422888   3.328   2.523   0.127  0.1053  0.4572  0.6199
 5781SOL     OW22889   5.552   4.222   3.470  0.3633  0.4576 -0.0322
 5781SOL    HW222890   5.481   4.261   3.520  0.5211 -0.3469  0.8626
 5781SOL    HW322891   5.556   4.273   3.389 -1.0371  0.6938  0.0200
 5781SOL    MW422892   5.543   4.234   3.466 -0.3452  0.1662  0.1644
 5782SOL     OW22893   4.384   0.685   1.509 -0.0993 -0.2976  0.3728
 5782SOL    HW222894   4.448   0.654   1.445  1.4685 -2.2046  2.6812
 5782SOL    HW322895   4.339   0.756   1.464  1.6810 -0.7206 -2.3942
 5782SOL    MW422896   4.387   0.690   1.494  0.0025 -0.3111  0.1110
 5783SOL     OW22897   1.601   5.857   3.286 -0.2091  0.0614 -0.6767
 5783SOL    HW222898   1.672   5.920   3.300  2.2190 -2.1328 -2.2010
 5783SOL    HW322899   1.584   5.820   3.373  2.4832 -1.2051 -0.5900
 5783SOL    MW422900   1.608   5.860   3.300  0.4134  0.4927  0.5599
 5784SOL     OW22901   0.232   0.847   5.990  0.3275 -0.0009  0.2281
 5784SOL    HW222902   0.276   0.763   5.974  2.1712  0.8748  0.4673
 5784SOL    HW322903   0.180   0.862   5.911 -0.1932 -1.4530  0.2661
 5784SOL    MW422904   0.231   0.838   5.977 -0.7213  0.1937  0.4139
 5785SOL     OW22905   0.930   5.411   0.416  0.2208 -0.2454  0.2445
 5785SOL    HW222906   0.891   5.414   0.329  0.1078  2.0625  0.3357
 5785SOL    HW322907   1.023   5.425   0.401  0.1910  0.2372  0.4974
 5785SOL    MW422908   0.937   5.413   0.402  0.4514 -0.3856  0.0936
 5786SOL     OW22909   2.423   1.814   0.870 -0.0039  0.5008  0.1276
 5786SOL    HW222910   2.471   1.816   0.952  0.5021  0.7446 -0.1671
 5786SOL    HW322911   2.486   1.845   0.805 -0.2714 -0.0692 -0.4111
 5786SOL    MW422912   2.437   1.818   0.872  0.7090  0.0516 -0.0639
 5787SOL     OW22913   3.749   0.146   0.740 -0.1169  0.2365  0.1254
 5787SOL    HW222914   3.807   0.140   0.816 -0.1348  0.7184  0.1825
 5787SOL    HW322915   3.690   0.219   0.761  0.4498  0.9566 -0.7366
 5787SOL    MW422916   3.749   0.155   0.753  0.2660 -0.5665 -0.4802
 5788SOL     OW22917   2.847   0.120   5.586 -0.2782  0.6294 -0.0163
 5788SOL    HW222918   2.860   0.210   5.558  0.2285  0.4110 -0.5155
 5788SOL    HW322919   2.926   0.074   5.557 -0.3332  0.1169  0.6220
 5788SOL    MW422920   2.859   0.126   5.578  0.5339  0.3874  0.1354
 5789SOL     OW22921   0.976   1.219   1.322 -0.6038  0.0424  0.2640
 5789SOL    HW222922   0.950   1.297   1.371 -1.5012  0.6162 -1.0620
 5789SOL    HW322923   0.894   1.182   1.289 -0.1723 -1.3619  0.6998
 5789SOL    MW422924   0.962   1.224   1.324  0.1642 -0.1086 -0.3797
 5790SOL     OW22925   3.651   4.273   1.976 -0.1214 -0.1689 -0.2229
 5790SOL    HW222926   3.681   4.265   2.067  1.7971  1.3781 -0.6533
 5790SOL    HW322927   3.597   4.353   1.976 -3.2366 -2.1005  0.2159
 5790SOL    MW422928   3.648   4.283   1.988 -0.0998  0.0756  0.1325
 5791SOL     OW22929   3.572   5.909   2.048  0.2810  0.3147 -0.1253
 5791SOL    HW222930   3.476   5.902   2.047  0.3810 -1.4971  0.1861
 5791SOL    HW322931   3.589   5.999   2.022 -1.4565  0.0676 -2.4956
 5791SOL    MW422932   3.561   5.920   2.044  0.1155 -0.6211  0.2654
 5792SOL     OW22933   2.279   4.574   3.835 -0.2530 -0.2437  0.3123
 5792SOL    HW222934   2.265   4.659   3.875  0.9556  0.3018 -0.3563
 5792SOL    HW322935   2.374   4.570   3.820 -0.6374 -0.4119 -2.4644
 5792SOL    MW422936   2.290   4.584   3.838 -0.1361 -0.3770  0.3258
 5793SOL     OW22937   3.152   0.115   3.004  0.1375 -0.4280 -0.0584
 5793SOL    HW222938   3.170   0.193   3.058 -0.4976  1.3743 -2.2624
 5793SOL    HW322939   3.201   0.045   3.047 -0.0242  0.9351  2.5929
 5793SOL    MW422940   3.161   0.116   3.017  0.3727  0.4423  0.1017
 5794SOL     OW22941   5.880   5.224   0.759 -0.1049 -0.1440  0.6063
 5794SOL    HW222942   5.803   5.174   0.731 -0.4065  0.3965  0.4566
 5794SOL    HW322943   5.953   5.184   0.712 -0.1703 -1.1641  1.3419
 5794SOL    MW422944   5.879   5.212   0.749 -0.0619 -0.2925  0.4458
 5795SOL     OW22945   0.511   5.333   2.274 -0.4476 -0.0618  0.0054
 5795SOL    HW222946   0.600   5.363   2.260 -0.9457  1.7724  0.4629
 5795SOL    HW322947   0.466   5.352   2.192 -1.2398  2.4988  0.9046
 5795SOL    MW422948   0.517   5.340   2.262 -0.0683 -0.3724  0.3194
 5796SOL     OW22949   2.677   0.737   4.340  0.5661 -0.3179 -0.1661
 5796SOL    HW222950   2.684   0.769   4.430 -0.4104  0.9037 -0.5005
 5796SOL    HW322951   2.755   0.771   4.296  0.2399  0.4296 -0.1708
 5796SOL    MW422952   2.688   0.745   4.346  0.8761  0.0814 -0.1241
 5797SOL     OW22953   0.933   0.767   0.593 -0.2083  0.7541 -0.0837
 5797SOL    HW222954   0.863   0.767   0.659 -1.0536 -1.5551 -0.8574
 5797SOL    HW322955   0.986   0.843   0.615  0.7699 -0.8947  4.5839
 5797SOL    MW422956   0.931   0.777   0.605 -0.7762  0.5122  0.2859
 5798SOL     OW22957   3.670   5.237   2.903  0.3216  0.2334 -0.3312
 5798SOL    HW222958   3.624   5.171   2.955  0.2711  0.7476  0.2980
 5798SOL    HW322959   3.619   5.318   2.918 -1.7521 -0.2233 -3.8614
 5798SOL    MW422960   3.657   5.239   2.912  0.6561  0.2463 -0.1668
 5799SOL     OW22961   3.634   1.279   5.984  0.4772 -0.3851  0.1127
 5799SOL    HW222962   3.611   1.247   5.897  0.2868 -0.8951  0.3483
 5799SOL    HW322963   3.606   1.210   6.043  0.3397  0.0891  0.6064
 5799SOL    MW422964   3.628   1.266   5.980  0.2409 -0.5916 -0.2521
 5800SOL     OW22965   0.658   4.516   5.167 -0.0166 -0.0773  0.4777
 5800SOL    HW222966   0.603   4.445   5.201  0.3665 -1.8092 -2.2608
 5800SOL    HW322967   0.746   4.479   5.166  0.5517  1.2076  0.9102
 5800SOL    MW422968   0.662   4.502   5.172 -0.4462 -0.1214  0.2743
 5801SOL     OW22969   0.121   6.400   5.656 -0.0306  0.1841  0.0853
 5801SOL    HW222970   0.038   6.445   5.672  0.5764  1.6950 -0.8519
 5801SOL    HW322971   0.170   6.410   5.738 -1.5042 -2.6018  1.4815
 5801SOL    MW422972   0.117   6.407   5.669 -0.1295 -0.2091 -0.2363
 5802SOL     OW22973   1.617   0.924   2.739 -0.2738 -0.4218  0.1689
 5802SOL    HW222974   1.600   0.969   2.821 -0.5650 -2.6990  1.4260
 5802SOL    HW322975   1.702   0.882   2.752 -0.4739 -1.0788 -0.5636
 5802SOL    MW422976   1.626   0.924   2.751  0.3050  0.3099  0.0379
 5803SOL     OW22977   4.102   3.608   4.710 -0.0365 -0.4083 -0.4660
 5803SOL    HW222978   4.091   3.633   4.618 -0.5545  0.5961 -0.1443
 5803SOL    HW322979   4.182   3.555   4.711  0.4987  0.3427 -1.3545
 5803SOL    MW422980   4.111   3.604   4.698  0.2917 -0.3359  0.3146
 5804SOL     OW22981   4.005   2.916   5.441  0.1620 -0.0097  0.1541
 5804SOL    HW222982   3.981   2.935   5.532 -0.3369 -2.8148  0.6992
 5804SOL    HW322983   4.055   2.835   5.446 -0.1989 -0.4357 -2.1035
 5804SOL    MW422984   4.008   2.908   5.454  0.1316 -0.1461  0.1021
 5805SOL     OW22985   3.247   4.607   1.198 -0.5133  0.5659 -0.5126
 5805SOL    HW222986   3.268   4.575   1.111  3.6364  0.1532  0.4483
 5805SOL    HW322987   3.263   4.533   1.256 -0.7723  1.5018  0.8184
 5805SOL    MW422988   3.252   4.593   1.194  0.0587 -0.1135 -0.2098
 5806SOL     OW22989   4.739   5.797   5.503  0.3440  0.3207 -0.2335
 5806SOL    HW222990   4.735   5.730   5.571 -2.4465 -0.3497 -0.9304
 5806SOL    HW322991   4.693   5.758   5.428  1.6088  1.7702 -1.8402
 5806SOL    MW422992   4.732   5.783   5.502  0.1971 -0.1087 -0.5972
 5807SOL     OW22993   1.093   3.015   3.559 -0.2052 -0.1276 -0.1114
 5807SOL    HW222994   1.158   2.958   3.600 -0.2532  1.0008  1.6311
 5807SOL    HW322995   1.033   3.039   3.630 -1.9472 -0.2918 -1.4497
 5807SOL    MW422996   1.094   3.011   3.573  0.3383 -0.1778  0.2278
 5808SOL     OW22997   3.078   4.933   5.800 -0.1347 -0.4438 -0.2516
 5808SOL    HW222998   3.104   4.841   5.798  0.7428 -0.1928 -0.9601
 5808SOL    HW322999   3.069   4.953   5.893  0.9803 -0.8983 -0.0281
 5808SOL    MW423000   3.080   4.924   5.812  0.3099  0.3848 -0.4393
 5809SOL     OW23001   1.338   4.691   4.948  0.3219 -0.1399 -0.1554
 5809SOL    HW223002   1.323   4.781   4.919 -2.0108  0.5199  2.5522
 5809SOL    HW323003   1.405   4.699   5.016  1.3007 -0.7329 -1.0279
 5809SOL    MW423004   1.345   4.704   4.953  0.0018  0.1252  0.0753
 5810SOL     OW23005   5.903   6.271   2.520  0.2268 -0.2900  0.4238
 5810SOL    HW223006   5.885   6.249   2.429 -0.6033 -0.4876  0.6202
 5810SOL    HW323007   5.986   6.228   2.540 -0.7640 -2.2770  0.4478
 5810SOL    MW423008   5.911   6.263   2.511  0.4878  0.4436 -0.4199
 5811SOL     OW23009   0.391   2.329   2.987  0.1630  0.7373 -0.5599
 5811SOL    HW223010   0.411   2.249   3.036  2.0040  1.4223 -0.1320
 5811SOL    HW323011   0.298   2.344   3.004  0.1870 -0.3753  0.7687
 5811SOL    MW423012   0.381   2.320   2.996  0.0076 -0.5583 -0.0625
 5812SOL     OW23013   4.442   4.287   2.686  0.7766  0.1444 -0.0021
 5812SOL    HW223014   4.374   4.305   2.750  1.5164 -1.9719  1.4893
 5812SOL    HW323015   4.394   4.269   2.605 -0.4757 -1.0402  0.9471
 5812SOL    MW423016   4.426   4.287   2.684 -0.2189  0.5166  0.5526
 5813SOL     OW23017   2.614   3.560   4.044  0.6931  0.4434 -0.4247
 5813SOL    HW223018   2.602   3.653   4.066  0.2832  0.5578 -1.0921
 5813SOL    HW323019   2.535   3.537   3.995  1.5764  0.2187 -1.7947
 5813SOL    MW423020   2.602   3.570   4.041  0.4820 -0.2967  0.3740
 5814SOL     OW23021   1.842   4.493   6.349 -0.2547  0.2126  0.3109
 5814SOL    HW223022   1.835   4.404   6.316 -0.1215  0.1123  0.5535
 5814SOL    HW323023   1.904   4.536   6.291  0.2798 -0.0725  0.6603
 5814SOL    MW423024   1.849   4.487   6.337  0.6744 -0.8770 -0.3547
 5815SOL     OW23025   3.176   5.130   2.518  0.6041  0.6207  0.0788
 5815SOL    HW223026   3.220   5.175   2.446  1.3584  0.6617  0.5581
 5815SOL    HW323027   3.167   5.196   2.587 -2.2830  1.2751 -0.8073
 5815SOL    MW423028   3.181   5.144   2.518 -0.6727  0.1842  0.0300
 5816SOL     OW23029   2.487   4.041   0.158  0.3150  0.5065  0.3538
 5816SOL    HW223030   2.428   4.116   0.157  1.5221  1.5182 -1.3726
 5816SOL    HW323031   2.575   4.079   0.158  0.9593 -0.8998  0.0753
 5816SOL    MW423032   2.491   4.056   0.158  0.0756  0.0021 -0.2365
 5817SOL     OW23033   3.631   0.730   2.685  0.5314  0.2891 -0.2427
 5817SOL    HW223034   3.691   0.656   2.693 -0.4862 -0.6296 -0.8816
 5817SOL    HW323035   3.688   0.806   2.673  1.5536 -0.6361 -1.4535
 5817SOL    MW423036   3.646   0.730   2.685 -0.1688  0.4807  0.3562
 5818SOL     OW23037   1.832   5.501   5.501 -0.3340 -0.3774 -0.0237
 5818SOL    HW223038   1.901   5.458   5.552 -0.1359 -1.5020 -1.1724
 5818SOL    HW323039   1.763   5.520   5.565  0.9411  0.5877  1.1067
 5818SOL    MW423040   1.832   5.498   5.517 -0.0034  0.0469 -0.0293
 5819SOL     OW23041   4.630   4.114   1.233  1.0283  0.1329  0.1139
 5819SOL    HW223042   4.591   4.143   1.315  0.3348 -0.5798  0.0503
 5819SOL    HW323043   4.716   4.080   1.258  1.1397  0.6330  0.4275
 5819SOL    MW423044   4.636   4.113   1.247  0.8903  0.3788 -0.4121
 5820SOL     OW23045   4.631   1.746   4.325 -0.0055  0.3268 -0.1935
 5820SOL    HW223046   4.643   1.709   4.238 -1.4184 -2.3763  0.6265
 5820SOL    HW323047   4.536   1.740   4.340  0.2469  0.2853  1.6590
 5820SOL    MW423048   4.620   1.740   4.316  0.5532 -0.1045  0.0132
 5821SOL     OW23049   6.328   6.394   0.106 -0.6555 -0.0350  0.1652
 5821SOL    HW223050   6.290   6.307   0.118 -3.0902  1.0411  0.9304
 5821SOL    HW323051   6.418   6.386   0.136 -1.0925 -2.0814  1.0613
 5821SOL    MW423052   6.335   6.382   0.112 -0.2767 -0.2918  0.2322
 5822SOL     OW23053   5.835   1.295   3.849  0.0790 -0.0982 -0.1313
 5822SOL    HW223054   5.883   1.330   3.774 -0.6169  0.7478 -0.2021
 5822SOL    HW323055   5.813   1.205   3.824  1.6240 -0.5119 -0.0814
 5822SOL    MW423056   5.838   1.288   3.836 -0.2591 -0.3729 -0.4579
 5823SOL     OW23057   2.154   5.638   0.055  0.3588  0.2394 -0.6724
 5823SOL    HW223058   2.115   5.602   0.134  0.5822  0.5417 -0.4195
 5823SOL    HW323059   2.240   5.669   0.084 -0.0148  1.4038 -0.7763
 5823SOL    MW423060   2.161   5.637   0.070  0.4343  0.2091  0.2808
 5824SOL     OW23061   1.896   5.162   5.703 -0.2153 -0.2980 -0.2977
 5824SOL    HW223062   1.836   5.166   5.629 -0.5950 -0.4918 -0.0048
 5824SOL    HW323063   1.871   5.082   5.750  0.9068 -0.9208 -0.7098
 5824SOL    MW423064   1.885   5.152   5.700 -0.2156 -0.7155 -1.3226
 5825SOL     OW23065   3.306   1.544   1.372  0.2242 -0.8639  0.2481
 5825SOL    HW223066   3.347   1.546   1.459  0.5087 -2.4779  0.1831
 5825SOL    HW323067   3.217   1.513   1.388  0.3293 -1.3296 -0.0425
 5825SOL    MW423068   3.300   1.540   1.386  0.0301 -0.2792 -0.0591
 5826SOL     OW23069   4.947   5.015   5.038 -0.0463  0.0677  0.6991
 5826SOL    HW223070   4.916   5.100   5.006 -1.3093 -0.4367  0.5160
 5826SOL    HW323071   5.042   5.024   5.042  0.2851  0.0800 -3.4602
 5826SOL    MW423072   4.955   5.028   5.034 -0.3100  0.3727  0.1184
 5827SOL     OW23073   1.834   1.758   5.654 -0.1370  0.3867 -0.6621
 5827SOL    HW223074   1.841   1.840   5.704  2.3017 -0.5796  0.7793
 5827SOL    HW323075   1.921   1.720   5.660 -0.8734 -1.7307 -2.3826
 5827SOL    MW423076   1.846   1.764   5.662  0.7114  0.4884  0.7684
 5828SOL     OW23077   5.162   3.938   0.176  0.3138  0.0124  0.1067
 5828SOL    HW223078   5.175   3.913   0.268  2.4781 -1.7708 -0.5873
 5828SOL    HW323079   5.091   3.882   0.146  1.2483 -1.2073  0.0965
 5828SOL    MW423080   5.154   3.927   0.184 -0.3084 -0.8195  0.7845
 5829SOL     OW23081   5.143   2.277   4.029 -0.2405  0.4513 -0.4475
 5829SOL    HW223082   5.186   2.358   4.058 -0.2733  0.5139 -0.5721
 5829SOL    HW323083   5.057   2.278   4.071  0.3171 -0.2538  0.7552
 5829SOL    MW423084   5.138   2.288   4.038 -0.0053  0.8849 -0.0043
 5830SOL     OW23085   2.838   1.239   2.439  0.5456 -0.4833 -0.0727
 5830SOL    HW223086   2.888   1.279   2.510 -0.2558 -0.0316  0.2421
 5830SOL    HW323087   2.816   1.151   2.472 -0.0808 -0.1669  0.3642
 5830SOL    MW423088   2.842   1.232   2.453  0.5297  0.4889 -0.2102
 5831SOL     OW23089   4.458   0.969   6.409 -0.1316 -0.0412  0.0693
 5831SOL    HW223090   4.513   1.003   6.339 -0.4668 -2.0114 -1.2442
 5831SOL    HW323091   4.375   0.947   6.366 -1.2191  0.8677  1.5789
 5831SOL    MW423092   4.454   0.970   6.394 -0.0122  0.8300 -0.0959
 5832SOL     OW23093   1.889   1.408   4.978 -0.0468 -0.0737  0.4442
 5832SOL    HW223094   1.799   1.374   4.975  0.0300 -0.2157 -2.1364
 5832SOL    HW323095   1.878   1.503   4.984 -0.2829 -0.1990  3.1850
 5832SOL    MW423096   1.876   1.416   4.978  0.5938 -0.7843  0.4222
 5833SOL     OW23097   5.232   4.985   2.285 -0.1825  0.0061  0.5151
 5833SOL    HW223098   5.207   5.062   2.337  1.7665  0.0121  1.5225
 5833SOL    HW323099   5.166   4.919   2.308 -0.7783  0.7766  1.1026
 5833SOL    MW423100   5.220   4.987   2.295  0.0785 -0.7083  0.0330
 5834SOL     OW23101   4.264   1.092   3.890  0.0016  0.0105  0.5530
 5834SOL    HW223102   4.172   1.091   3.917  0.0132 -0.5808  0.6031
 5834SOL    HW323103   4.310   1.134   3.962 -0.2514  0.4707  0.4480
 5834SOL    MW423104   4.258   1.097   3.903  0.6745  0.7904  0.2549
 5835SOL     OW23105   4.232   4.708   4.201 -0.3280 -0.3208 -0.1198
 5835SOL    HW223106   4.231   4.760   4.120  0.3816  2.4495  1.5495
 5835SOL    HW323107   4.157   4.739   4.250 -0.6843 -1.9040  0.3840
 5835SOL    MW423108   4.222   4.719   4.197  0.0441  0.1697  0.3905
 5836SOL     OW23109   4.687   0.138   1.705  0.5255  0.0993  0.1403
 5836SOL    HW223110   4.629   0.212   1.722  0.3997  0.7075 -2.4481
 5836SOL    HW323111   4.630   0.069   1.673  0.9588 -0.0749 -0.2730
 5836SOL    MW423112   4.672   0.139   1.703 -0.3907 -0.6136 -0.7265
 5837SOL     OW23113   4.023   5.672   4.096 -0.1833 -0.7482 -0.4666
 5837SOL    HW223114   4.097   5.614   4.110 -0.3872 -0.8857  0.0724
 5837SOL    HW323115   3.983   5.681   4.183  1.1725  2.0367 -0.0157
 5837SOL    MW423116   4.027   5.666   4.110 -0.0092 -0.5666  0.1938
 5838SOL     OW23117   1.589   2.133   1.663  0.5073 -0.3196  0.2099
 5838SOL    HW223118   1.528   2.100   1.729  0.0816 -0.6211 -0.3215
 5838SOL    HW323119   1.628   2.054   1.625  0.5169 -0.1636 -0.1082
 5838SOL    MW423120   1.586   2.118   1.667 -0.5047 -0.4047  0.1876
 5839SOL     OW23121   2.393   5.663   0.973 -0.6959  0.1466 -0.1922
 5839SOL    HW223122   2.484   5.689   0.958 -0.1784 -0.6896  1.3304
 5839SOL    HW323123   2.370   5.613   0.894  0.1064  0.4638 -0.6495
 5839SOL    MW423124   2.402   5.660   0.960  1.1683 -0.0043  0.4005
 5840SOL     OW23125   3.550   0.784   0.643 -0.4409 -0.1187 -0.0929
 5840SOL    HW223126   3.631   0.802   0.596  0.1711 -2.5952 -0.0937
 5840SOL    HW323127   3.575   0.784   0.736 -0.7098  0.3496 -0.0186
 5840SOL    MW423128   3.564   0.786   0.649 -0.5715 -0.1286 -0.0567
 5841SOL     OW23129   5.916   3.843   1.124 -0.4859  0.3069 -0.1004
 5841SOL    HW223130   5.978   3.912   1.147  0.7225 -0.9666  0.6353
 5841SOL    HW323131   5.839   3.862   1.178 -0.8960  2.0784 -1.2415
 5841SOL    MW423132   5.914   3.854   1.134 -0.1180  0.1610 -0.4686
 5842SOL     OW23133   0.836   5.979   2.458  0.0696  0.7655  0.1644
 5842SOL    HW223134   0.844   5.891   2.422  0.2995  1.1374 -0.7269
 5842SOL    HW323135   0.754   5.978   2.507 -1.8473  1.0154 -2.7677
 5842SOL    MW423136   0.826   5.967   2.459 -0.2126  0.0616  0.5973
 5843SOL     OW23137   1.405   2.464   0.742  0.5333 -0.0826  0.2954
 5843SOL    HW223138   1.419   2.459   0.647  3.0665  0.3224  0.5749
 5843SOL    HW323139   1.457   2.539   0.770 -0.7231  0.2253  1.9553
 5843SOL    MW423140   1.414   2.473   0.733  0.2459  0.7053  0.0301
 5844SOL     OW23141   3.372   3.240   3.394 -0.2609  0.4356  0.9872
 5844SOL    HW223142   3.359   3.318   3.341  1.6593 -0.6978 -1.3657
 5844SOL    HW323143   3.460   3.209   3.369 -0.7820 -2.1950  2.1365
 5844SOL    MW423144   3.382   3.246   3.383 -0.6041  0.4307  0.7513
 5845SOL     OW23145   0.288   3.838   0.079  0.2110 -0.6409 -0.0253
 5845SOL    HW223146   0.351   3.847   0.151 -0.0716 -0.6598  0.2240
 5845SOL    HW323147   0.343   3.824   0.002  0.5141 -0.6904  0.1955
 5845SOL    MW423148   0.304   3.837   0.078  0.1173  0.6362 -0.7250
 5846SOL     OW23149   0.221   1.458   6.182  0.1404 -0.0676 -0.3768
 5846SOL    HW223150   0.226   1.456   6.086  0.2078  0.4999 -0.3910
 5846SOL    HW323151   0.160   1.530   6.201 -0.1364 -0.4009 -0.0009
 5846SOL    MW423152   0.214   1.468   6.171  0.1630 -0.2081  0.3735
 5847SOL     OW23153   5.935   4.731   4.527 -0.2041  0.3458  0.0670
 5847SOL    HW223154   5.947   4.825   4.541  0.5091  0.0456  1.7071
 5847SOL    HW323155   5.918   4.696   4.614  1.6282 -1.3200 -0.1671
 5847SOL    MW423156   5.934   4.739   4.540  0.7239  0.0999 -0.4923
 5848SOL     OW23157   3.784   3.504   5.770  0.0173  0.0731 -0.4419
 5848SOL    HW223158   3.753   3.571   5.832  1.1187  0.4260 -0.2628
 5848SOL    HW323159   3.712   3.441   5.765 -0.0739  0.0075  1.2372
 5848SOL    MW423160   3.770   3.505   5.777  0.0587  0.3843  0.0864
 5849SOL     OW23161   0.284   0.409   5.745 -0.1673  0.3176 -0.4759
 5849SOL    HW223162   0.297   0.504   5.754 -0.6182  0.3241  0.1222
 5849SOL    HW323163   0.325   0.388   5.661 -0.7121  1.1656 -0.9682
 5849SOL    MW423164   0.291   0.419   5.735  0.4726  0.6272  0.2327
 5850SOL     OW23165   1.755   5.366   1.658 -0.0656  0.3142  0.1968
 5850SOL    HW223166   1.714   5.452   1.648  0.0747  0.3048 -0.5306
 5850SOL    HW323167   1.849   5.384   1.650 -0.0937 -0.0874 -1.6184
 5850SOL    MW423168   1.762   5.380   1.655  0.0941  0.1253 -0.4856
 5851SOL     OW23169   4.382   1.452   0.352 -0.3294  0.2685  0.0796
 5851SOL    HW223170   4.449   1.511   0.388  1.0052 -0.6425 -0.8217
 5851SOL    HW323171   4.419   1.421   0.269 -2.1247  0.1562 -0.7233
 5851SOL    MW423172   4.396   1.456   0.346  1.1213  0.4199 -0.5494
 5852SOL     OW23173   3.683   6.007   4.892  0.1353  0.0976 -0.5922
 5852SOL    HW223174   3.726   6.031   4.810 -1.1435 -1.3898 -1.7624
 5852SOL    HW323175   3.607   6.066   4.898  1.0269  1.1942  0.3118
 5852SOL    MW423176   3.678   6.018   4.882  0.3331 -0.6818  0.0729
 5853SOL     OW23177   6.118   6.021   4.442  0.6104  0.2629  0.4482
 5853SOL    HW223178   6.196   5.992   4.395  0.7431  0.5027  0.5202
 5853SOL    HW323179   6.049   6.021   4.375  0.7915  0.5733  0.2615
 5853SOL    MW423180   6.119   6.017   4.427 -0.5644  0.6019 -0.5069
 5854SOL     OW23181   5.628   5.773   2.578 -0.4129 -0.4729 -0.4331
 5854SOL    HW223182   5.693   5.831   2.619  1.1022 -1.0710 -1.8685
 5854SOL    HW323183   5.621   5.700   2.639 -2.5013  1.1922  1.5037
 5854SOL    MW423184   5.636   5.771   2.592 -0.2263  0.9244 -0.0552
 5855SOL     OW23185   4.505   1.933   1.606  0.1456  1.1475  0.1868
 5855SOL    HW223186   4.526   1.861   1.546 -0.3906  0.0189  1.3016
 5855SOL    HW323187   4.586   1.949   1.654 -0.7752 -1.9695  3.2062
 5855SOL    MW423188   4.518   1.926   1.605  0.1942 -0.2861 -1.1479
 5856SOL     OW23189   0.073   3.211   2.378 -0.1190  0.6273 -0.2622
 5856SOL    HW223190   0.000   3.149   2.381  0.7920 -0.5677 -1.5105
 5856SOL    HW323191   0.043   3.286   2.429 -2.1932  0.1408 -0.6793
 5856SOL    MW423192   0.059   3.213   2.385 -0.0887  0.4597  0.0503
 5857SOL     OW23193   5.324   4.292   4.961 -0.4555 -0.1825  0.4529
 5857SOL    HW223194   5.350   4.358   5.025 -0.4579  0.9658 -0.7032
 5857SOL    HW323195   5.240   4.259   4.993  0.4388 -1.0476  2.0611
 5857SOL    MW423196   5.316   4.296   4.974  0.5744  0.1316 -0.1104
 5858SOL     OW23197   0.960   6.164   4.121 -0.4351  0.3051 -0.3146
 5858SOL    HW223198   1.034   6.224   4.122 -0.8848  0.9399 -2.0796
 5858SOL    HW323199   0.900   6.198   4.187 -0.0930  1.0003 -0.3623
 5858SOL    MW423200   0.962   6.176   4.130  0.0940 -0.0867  0.1841
 5859SOL     OW23201   3.629   3.875   4.925 -0.4293 -0.4991 -0.1114
 5859SOL    HW223202   3.611   3.799   4.870 -1.3048 -1.9782  2.0460
 5859SOL    HW323203   3.721   3.866   4.948 -0.1991 -0.1753 -0.8920
 5859SOL    MW423204   3.638   3.863   4.921 -0.2739 -0.2263  0.2452
 5860SOL     OW23205   1.141   2.077   1.839  0.0242  0.5138 -0.0778
 5860SOL    HW223206   1.217   2.054   1.893  1.3941  2.8525 -0.8626
 5860SOL    HW323207   1.075   2.106   1.903  0.5395  0.4141  0.5164
 5860SOL    MW423208   1.142   2.078   1.855 -0.1797 -0.1984 -0.2026
 5861SOL     OW23209   4.788   5.408   1.096  0.0708 -0.2152 -0.1671
 5861SOL    HW223210   4.723   5.465   1.138  0.6965  0.4219 -0.0364
 5861SOL    HW323211   4.872   5.448   1.118  0.4603 -0.4121 -1.2219
 5861SOL    MW423212   4.791   5.421   1.104 -0.1658  0.0137 -0.4751
 5862SOL     OW23213   1.592   1.371   2.868  0.3121  0.4966  0.0477
 5862SOL    HW223214   1.639   1.364   2.951  1.0858 -1.0852 -0.4713
 5862SOL    HW323215   1.501   1.354   2.890  0.1964  1.9984  0.8374
 5862SOL    MW423216   1.586   1.368   2.882  0.2894 -0.5402 -0.1633
 5863SOL     OW23217   5.025   1.206   2.282  1.0267  0.7778  0.3790
 5863SOL    HW223218   5.005   1.173   2.195 -0.1126  0.0552  0.8947
 5863SOL    HW323219   4.954   1.267   2.302  0.2091 -0.5069  1.5444
 5863SOL    MW423220   5.013   1.210   2.273 -0.0155  0.0270 -0.1493
 5864SOL     OW23221   5.375   5.751   1.232 -0.1940 -0.7666  0.7206
 5864SOL    HW223222   5.432   5.796   1.293  1.8937 -2.6417  0.2739
 5864SOL    HW323223   5.416   5.666   1.219  0.0589 -0.1927 -3.9559
 5864SOL    MW423224   5.388   5.746   1.238  0.1868 -0.5423 -0.1638
 5865SOL     OW23225   3.665   6.162   1.280 -0.2733  0.2637 -0.0616
 5865SOL    HW223226   3.680   6.157   1.186  1.6407 -1.1311  0.2686
 5865SOL    HW323227   3.595   6.098   1.296 -0.0679 -0.0537 -0.4245
 5865SOL    MW423228   3.658   6.153   1.270 -1.0127 -0.6363 -0.0736
 5866SOL     OW23229   5.991   0.967   4.119  0.4106  0.2069 -0.1808
 5866SOL    HW223230   6.025   0.888   4.160  0.5821  0.0847 -0.5580
 5866SOL    HW323231   5.946   0.936   4.040 -0.2280  0.4050  0.1016
 5866SOL    MW423232   5.989   0.953   4.114 -0.4338 -0.7860 -0.1147
 5867SOL     OW23233   1.433   4.902   1.554  0.2769 -0.6806 -0.2410
 5867SOL    HW223234   1.415   4.838   1.622 -0.1169  0.0893  0.3903
 5867SOL    HW323235   1.428   4.852   1.472 -0.0218 -1.4485  0.2395
 5867SOL    MW423236   1.430   4.887   1.552 -0.3134 -0.3406 -0.4748
 5868SOL     OW23237   0.369   6.147   6.293 -0.9487 -0.0754 -0.0178
 5868SOL    HW223238   0.401   6.060   6.319  0.6725  0.6690  0.6195
 5868SOL    HW323239   0.365   6.143   6.197 -1.5255 -1.0563  0.0402
 5868SOL    MW423240   0.373   6.135   6.284 -0.1583  0.0821 -0.4403
 5869SOL     OW23241   5.807   2.077   5.466 -0.0190 -0.2659  0.1653
 5869SOL    HW223242   5.822   2.151   5.525  0.9393 -0.9729  0.8204
 5869SOL    HW323243   5.719   2.047   5.487 -1.0040  1.5079 -1.0530
 5869SOL    MW423244   5.797   2.083   5.476  0.4560 -0.7171  0.4079
 5870SOL     OW23245   2.413   6.197   2.631  0.0082  0.2372  0.0829
 5870SOL    HW223246   2.405   6.291   2.612  1.2580  0.0823 -1.3303
 5870SOL    HW323247   2.420   6.193   2.726 -1.1264  1.4846  0.2561
 5870SOL    MW423248   2.413   6.209   2.641 -0.1705  0.6561  0.1861
 5871SOL     OW23249   3.739   2.851   2.253  0.3967  0.1939  0.1417
 5871SOL    HW223250   3.665   2.804   2.216 -0.2521  1.6431 -0.4833
 5871SOL    HW323251   3.754   2.810   2.338  0.1254 -1.3678 -0.5283
 5871SOL    MW423252   3.732   2.840   2.259  0.1832 -0.8828 -0.1597
 5872SOL     OW23253   3.856   0.046   3.449  0.0137  0.0680  0.5091
 5872SOL    HW223254   3.773   0.054   3.402  0.4741  3.7686 -0.0034
 5872SOL    HW323255   3.915   0.002   3.388 -0.8587 -0.2496 -0.1253
 5872SOL    MW423256   3.853   0.041   3.435 -0.3187  0.4776  0.0462
 5873SOL     OW23257   2.132   1.070   0.975 -0.0354 -0.0730 -0.0280
 5873SOL    HW223258   2.036   1.068   0.975 -0.0674 -2.8869  0.7999
 5873SOL    HW323259   2.158   1.013   0.903  1.0423  0.4440 -0.0772
 5873SOL    MW423260   2.123   1.062   0.966  0.1482  0.8752  0.3708
 5874SOL     OW23261   0.097   2.507   2.223  0.2045  0.0987  0.2052
 5874SOL    HW223262   0.141   2.426   2.197  0.1555 -0.0110  0.4606
 5874SOL    HW323263   0.147   2.538   2.298 -0.2073 -0.0730  0.5531
 5874SOL    MW423264   0.110   2.500   2.229  0.1769  0.4567 -0.1914
 5875SOL     OW23265   0.852   4.200   0.892  0.4241 -0.1558  0.1247
 5875SOL    HW223266   0.849   4.225   0.800  0.1978  0.5270  0.3108
 5875SOL    HW323267   0.810   4.273   0.938 -1.4494 -1.4632  0.5776
 5875SOL    MW423268   0.846   4.213   0.886 -0.4771  0.2028  0.5584
 5876SOL     OW23269   2.740   4.568   1.114  0.6399  1.0506 -0.4492
 5876SOL    HW223270   2.778   4.640   1.165  1.7612 -1.4327  2.5352
 5876SOL    HW323271   2.815   4.512   1.093 -0.6239 -1.4753  1.3030
 5876SOL    MW423272   2.755   4.570   1.118  0.0539 -0.3565  0.2067
 5877SOL     OW23273   4.017   2.812   3.347  0.3343  0.3384 -0.2159
 5877SOL    HW223274   4.046   2.724   3.327  1.0907  0.5660 -0.1339
 5877SOL    HW323275   4.054   2.866   3.278 -1.0507  0.4482 -0.9077
 5877SOL    MW423276   4.026   2.808   3.335  0.4305 -0.2256 -0.2434
 5878SOL     OW23277   5.367   3.006   2.362  0.4199  0.1223  0.0418
 5878SOL    HW223278   5.297   3.041   2.419  0.0795 -1.5144  0.6874
 5878SOL    HW323279   5.320   2.960   2.292  0.8088 -1.3093  0.6824
 5878SOL    MW423280   5.351   3.004   2.360  0.4347 -0.9039  0.7111
 5879SOL     OW23281   4.114   3.595   4.117  0.5843 -0.5210 -0.2052
 5879SOL    HW223282   4.153   3.578   4.031  2.4295 -0.6325  0.5947
 5879SOL    HW323283   4.024   3.620   4.099  1.1413  0.1808 -2.2265
 5879SOL    MW423284   4.107   3.596   4.103  0.4575  0.0319  0.4707
 5880SOL     OW23285   4.308   6.090   4.230 -0.0433 -0.4651 -0.1344
 5880SOL    HW223286   4.236   6.073   4.169 -0.2802 -3.1157  0.7248
 5880SOL    HW323287   4.355   6.007   4.233  1.0514  0.1783  1.8840
 5880SOL    MW423288   4.305   6.076   4.222  0.0948 -0.6877 -0.6146
 5881SOL     OW23289   4.308   2.667   5.618  0.1912 -0.4370  0.2359
 5881SOL    HW223290   4.301   2.662   5.713 -1.0591 -0.1963  0.1671
 5881SOL    HW323291   4.390   2.621   5.597  1.2980  0.8535  1.5443
 5881SOL    MW423292   4.318   2.661   5.627 -0.2678 -0.2586  0.3851
 5882SOL     OW23293   2.013   1.246   1.294 -0.4528  0.3024 -0.5064
 5882SOL    HW223294   1.928   1.242   1.337 -0.6852  0.5934 -0.9240
 5882SOL    HW323295   1.993   1.280   1.206  0.0591  0.1109 -0.6985
 5882SOL    MW423296   1.999   1.250   1.288 -0.2860 -1.0059 -0.7748
 5883SOL     OW23297   0.678   4.255   0.280 -0.7257  0.4342  0.4894
 5883SOL    HW223298   0.598   4.219   0.243 -1.5345  2.7793 -0.2611
 5883SOL    HW323299   0.748   4.220   0.226 -1.3480 -0.7280  0.4143
 5883SOL    MW423300   0.677   4.246   0.268  0.2634  0.5862  0.3020
 5884SOL     OW23301   1.598   5.261   0.174 -0.1711  0.3894 -0.0269
 5884SOL    HW223302   1.649   5.180   0.161 -1.9316 -1.2193  2.1882
 5884SOL    HW323303   1.657   5.319   0.222  1.1196  0.4806 -1.6352
 5884SOL    MW423304   1.613   5.258   0.179 -0.1318  0.2947  0.2726
 5885SOL     OW23305   2.622   5.769   3.473  0.2247  0.4977 -0.8051
 5885SOL    HW223306   2.698   5.780   3.530 -0.4025  0.4302  0.0556
 5885SOL    HW323307   2.632   5.681   3.437  0.2122  0.2456 -0.1897
 5885SOL    MW423308   2.633   5.759   3.476  0.3188 -0.0772  0.0505
 5886SOL     OW23309   3.177   6.087   4.560 -0.4395 -0.6424  0.0477
 5886SOL    HW223310   3.240   6.150   4.525  1.5218 -1.7368  1.4093
 5886SOL    HW323311   3.096   6.106   4.514  0.7758  1.0867 -1.5204
 5886SOL    MW423312   3.175   6.098   4.549  0.4574 -0.0277  0.0676
 5887SOL     OW23313   2.064   1.611   2.986  0.0960 -0.5210 -0.0093
 5887SOL    HW223314   2.147   1.568   2.967 -0.0779 -1.2429  0.7828
 5887SOL    HW323315   2.080   1.704   2.972  1.1663 -0.6084  0.5838
 5887SOL    MW423316   2.077   1.617   2.982  0.7586  0.1560 -0.3913
 5888SOL     OW23317   5.893   4.613   2.083 -0.0761 -0.0446 -0.3974
 5888SOL    HW223318   5.967   4.674   2.079 -0.0903  0.0166  0.2012
 5888SOL    HW323319   5.817   4.666   2.057 -0.4395  0.7897  2.1332
 5888SOL    MW423320   5.893   4.628   2.079 -0.2700  0.1047 -0.2138
 5889SOL     OW23321   2.453   0.232   1.362 -0.3704 -0.6682 -0.1123
 5889SOL    HW223322   2.414   0.268   1.442 -1.4386 -0.4698 -0.6982
 5889SOL    HW323323   2.379   0.225   1.301  0.2963 -1.4713 -0.8508
 5889SOL    MW423324   2.438   0.236   1.365  0.2135 -0.3523  0.3771
 5890SOL     OW23325   4.140   0.618   5.409  0.3119 -0.3107 -0.1814
 5890SOL    HW223326   4.189   0.660   5.479 -1.9381  0.7387  0.8629
 5890SOL    HW323327   4.178   0.654   5.329 -0.2023  2.2778  0.6445
 5890SOL    MW423328   4.152   0.629   5.407 -0.3026  0.0143  0.4630
 5891SOL     OW23329   1.701   5.231   1.084 -0.1665  0.6014  0.1759
 5891SOL    HW223330   1.724   5.315   1.124  0.1449 -0.0884  1.4922
 5891SOL    HW323331   1.786   5.189   1.066 -0.2824 -0.5310  1.9792
 5891SOL    MW423332   1.716   5.236   1.087 -0.0682  0.2145  0.4406
 5892SOL     OW23333   2.346   6.278   4.125 -0.5482 -0.0092  0.2195
 5892SOL    HW223334   2.396   6.203   4.158  0.7720  0.8229  0.1732
 5892SOL    HW323335   2.387   6.354   4.165 -1.3321  0.7547 -0.3930
 5892SOL    MW423336   2.358   6.278   4.135 -0.3270 -0.4850  0.0058
 5893SOL     OW23337   6.002   5.822   4.597 -0.1104 -0.3491 -0.2460
 5893SOL    HW223338   5.949   5.771   4.536  1.8529 -0.4781 -1.9547
 5893SOL    HW323339   6.036   5.895   4.545  2.4541 -1.0274  0.3151
 5893SOL    MW423340   6.000   5.825   4.582 -0.0879 -0.3755  0.0481
 5894SOL     OW23341   2.791   0.977   2.471 -0.1468  0.2312 -0.0493
 5894SOL    HW223342   2.871   0.929   2.451 -0.7047 -1.3135  1.2501
 5894SOL    HW323343   2.764   0.944   2.557 -2.9709 -0.3655 -1.0834
 5894SOL    MW423344   2.798   0.967   2.480  0.2581 -0.1291 -0.1107
 5895SOL     OW23345   6.385   4.111   1.872  0.1039 -0.0188 -0.0596
 5895SOL    HW223346   6.323   4.177   1.903 -0.8753  0.1844 -2.3048
 5895SOL    HW323347   6.356   4.030   1.913  1.0293  0.7598  2.3394
 5895SOL    MW423348   6.373   4.109   1.882 -0.2331 -0.0999  0.3610
 5896SOL     OW23349   0.678   3.390   0.900 -0.0072  0.0279  0.3401
 5896SOL    HW223350   0.594   3.433   0.911  0.3792  0.8223  0.2631
 5896SOL    HW323351   0.715   3.429   0.820  0.5447 -0.1164  0.5199
 5896SOL    MW423352   0.672   3.400   0.891  0.2026 -0.0845  0.1864
 5897SOL     OW23353   5.227   3.195   4.604 -0.5952 -0.5387  0.9285
 5897SOL    HW223354   5.266   3.156   4.683 -3.8624 -0.8365  2.5550
 5897SOL    HW323355   5.223   3.288   4.624 -1.2264 -0.5884  1.0586
 5897SOL    MW423356   5.232   3.202   4.617 -0.0379  0.6634 -0.3842
 5898SOL     OW23357   6.350   4.113   3.461 -0.4510 -0.4988 -0.2532
 5898SOL    HW223358   6.426   4.166   3.485 -0.6417 -0.2641 -0.1576
 5898SOL    HW323359   6.294   4.114   3.538 -1.0736  0.2754 -0.6984
 5898SOL    MW423360   6.353   4.120   3.474  0.8821  0.0672  0.4191
 5899SOL     OW23361   5.706   2.859   4.659 -0.0847 -0.7673  0.2298
 5899SOL    HW223362   5.740   2.794   4.721  1.4976  1.3954  1.7671
 5899SOL    HW323363   5.775   2.869   4.594  0.7078  0.9904  1.2968
 5899SOL    MW423364   5.719   2.852   4.659  0.3733 -0.0127  0.3618
 5900SOL     OW23365   0.303   5.281   5.859 -0.2424 -0.3076 -0.0609
 5900SOL    HW223366   0.266   5.263   5.772 -0.6950  0.4916 -0.0459
 5900SOL    HW323367   0.375   5.219   5.867  0.3502  0.1708 -1.3667
 5900SOL    MW423368   0.308   5.271   5.848  0.7651 -0.3763 -0.3988
 5901SOL     OW23369   0.369   3.043   0.977  0.0751  0.7064  0.1568
 5901SOL    HW223370   0.363   2.965   1.032 -0.5231 -0.0897 -0.9919
 5901SOL    HW323371   0.462   3.051   0.957  0.1821  0.4856  0.5607
 5901SOL    MW423372   0.381   3.034   0.982  0.4331 -0.6158 -0.6749
 5902SOL     OW23373   4.260   1.776   5.912 -0.5371 -0.4253  0.0858
 5902SOL    HW223374   4.178   1.813   5.878 -1.6008 -3.6173 -1.1319
 5902SOL    HW323375   4.299   1.732   5.837  0.3073 -2.3000  1.5627
 5902SOL    MW423376   4.254   1.775   5.897 -0.1570  0.0799  0.0880
 5903SOL     OW23377   3.587   4.482   1.506  0.1133 -0.7987 -0.4546
 5903SOL    HW223378   3.573   4.548   1.438 -0.7268 -1.6330 -1.1237
 5903SOL    HW323379   3.598   4.531   1.587 -2.7021  0.1244 -0.5460
 5903SOL    MW423380   3.587   4.497   1.508 -0.1714 -0.0116 -0.0220
 5904SOL     OW23381   0.507   3.798   2.968 -0.6908 -0.1497 -0.2178
 5904SOL    HW223382   0.518   3.864   3.035  1.2111  0.9841 -1.5345
 5904SOL    HW323383   0.445   3.836   2.905 -1.1670 -0.5023  0.0277
 5904SOL    MW423384   0.500   3.811   2.968  0.5576  0.0711 -0.3295
 5905SOL     OW23385   1.041   5.421   2.995  0.4054 -0.1375  0.3627
 5905SOL    HW223386   1.088   5.504   2.983  2.3571 -1.1403  0.5733
 5905SOL    HW323387   1.096   5.371   3.056 -0.0810 -2.0295 -0.6621
 5905SOL    MW423388   1.055   5.425   3.001 -0.2906  0.0343  1.0557
 5906SOL     OW23389   3.368   3.089   6.199 -0.6090  0.4204 -0.6947
 5906SOL    HW223390   3.451   3.116   6.161 -1.2393  0.8286 -1.8354
 5906SOL    HW323391   3.369   3.125   6.288  0.6727 -0.0926 -0.4860
 5906SOL    MW423392   3.379   3.097   6.206  0.0526  0.5214 -0.3511
 5907SOL     OW23393   5.158  -0.002   4.563 -0.0315  0.5180 -0.9197
 5907SOL    HW223394   5.206   0.009   4.645 -1.7838  1.4797  0.0400
 5907SOL    HW323395   5.225  -0.025   4.499  1.0592 -4.0985  1.4202
 5907SOL    MW423396   5.173  -0.004   4.566  0.3454 -0.4408  0.3415
 5908SOL     OW23397   4.642   1.686   2.653 -0.2936 -0.1793  0.5129
 5908SOL    HW223398   4.612   1.702   2.743 -0.8262  0.4564  0.2341
 5908SOL    HW323399   4.621   1.767   2.606 -0.2858 -0.6110 -0.2547
 5908SOL    MW423400   4.635   1.699   2.659  0.1635 -0.2537 -0.1761
 5909SOL     OW23401   1.257   4.499   6.024  0.0327  0.1508  0.0224
 5909SOL    HW223402   1.273   4.410   5.992  0.2057  0.5587 -1.0483
 5909SOL    HW323403   1.168   4.520   5.995 -0.5605 -0.1831  1.5029
 5909SOL    MW423404   1.247   4.490   6.016  0.1533 -0.5725  0.0764
 5910SOL     OW23405   5.629   6.085   2.451 -0.2606  0.2043 -0.2530
 5910SOL    HW223406   5.689   6.064   2.522 -1.0686 -1.2394  0.0468
 5910SOL    HW323407   5.657   6.172   2.421  1.4482 -0.0814  0.3839
 5910SOL    MW423408   5.640   6.094   2.457 -0.3168 -0.3382 -1.6741
 5911SOL     OW23409   2.483   1.147   2.596  0.2047 -0.1786 -0.1875
 5911SOL    HW223410   2.512   1.180   2.511 -0.1321  1.0850  0.1678
 5911SOL    HW323411   2.450   1.059   2.578  0.5498 -0.0938 -1.2822
 5911SOL    MW423412   2.482   1.140   2.582  0.5990 -0.4100  0.1002
 5912SOL     OW23413   3.279   0.422   6.295 -0.2927 -0.5134 -0.0343
 5912SOL    HW223414   3.255   0.425   6.388 -0.8316 -0.2593 -0.1783
 5912SOL    HW323415   3.240   0.501   6.258 -0.4300 -0.8275 -0.5591
 5912SOL    MW423416   3.271   0.433   6.303 -0.2078 -0.5124  0.1452
 5913SOL     OW23417   5.197   2.036   0.976  0.0791 -0.3732 -0.0858
 5913SOL    HW223418   5.207   2.113   1.031 -0.2515  0.5493 -1.2745
 5913SOL    HW323419   5.268   1.978   1.003  1.3739  1.0511 -0.3006
 5913SOL    MW423420   5.208   2.038   0.987  0.5445 -0.0436  0.0239
 5914SOL     OW23421   4.239   0.724   0.131 -0.2515 -0.6155  0.1406
 5914SOL    HW223422   4.170   0.684   0.184 -2.3236  2.0234 -0.4139
 5914SOL    HW323423   4.226   0.818   0.140  0.3798 -0.0109 -3.6379
 5914SOL    MW423424   4.229   0.731   0.140  0.0453 -0.2111  0.3330
 5915SOL     OW23425   5.872   3.092   5.201  0.2936 -0.6630 -0.3013
 5915SOL    HW223426   5.930   3.044   5.143  0.8403 -1.4432  0.8591
 5915SOL    HW323427   5.784   3.062   5.176  0.5969 -2.0044  0.1337
 5915SOL    MW423428   5.868   3.082   5.190  0.1794  0.5425 -0.5382
 5916SOL     OW23429   3.342   6.343   5.584 -0.0738  0.5759 -0.0157
 5916SOL    HW223430   3.377   6.255   5.599  2.2509  1.8312  3.2313
 5916SOL    HW323431   3.417   6.393   5.551 -1.0436  1.6307 -0.7148
 5916SOL    MW423432   3.357   6.338   5.581 -0.0455  0.4609  0.1503
 5917SOL     OW23433   4.514   4.375   4.759  0.2546  0.0670 -0.4075
 5917SOL    HW223434   4.477   4.389   4.672  1.5202 -1.9594 -1.3432
 5917SOL    HW323435   4.580   4.445   4.768 -0.5960  0.9172 -0.6064
 5917SOL    MW423436   4.518   4.386   4.749 -0.4441  0.4661 -0.0387
 5918SOL     OW23437   5.509   3.717   2.199 -0.1986 -0.4537  0.1047
 5918SOL    HW223438   5.587   3.724   2.253  0.8370 -1.1109 -1.2602
 5918SOL    HW323439   5.465   3.802   2.209  2.0502  0.9359 -1.1271
 5918SOL    MW423440   5.513   3.730   2.207 -0.1784  0.3867  0.9327
 5919SOL     OW23441   3.725   1.267   0.239 -0.2156 -0.1524 -0.4621
 5919SOL    HW223442   3.787   1.220   0.295 -1.4776 -3.4179 -1.5802
 5919SOL    HW323443   3.696   1.340   0.293  3.3008  0.5962  0.6947
 5919SOL    MW423444   3.730   1.270   0.253 -0.2776  0.6467 -0.1983
 5920SOL     OW23445   5.220   5.016   1.865  0.3485  0.2245 -0.0240
 5920SOL    HW223446   5.273   5.053   1.935 -1.3085  1.5967  0.5921
 5920SOL    HW323447   5.268   5.038   1.785  0.4713  1.9507  0.4693
 5920SOL    MW423448   5.233   5.024   1.864 -0.2673 -0.3376  0.0039
 5921SOL     OW23449   2.146   2.417   5.650  1.2413  0.2183  0.3839
 5921SOL    HW223450   2.219   2.418   5.589 -0.4560  1.3501 -1.7441
 5921SOL    HW323451   2.161   2.492   5.707  1.1714  1.1113 -0.7578
 5921SOL    MW423452   2.158   2.427   5.650  0.3041 -0.3616 -0.4106
 5922SOL     OW23453   2.318   1.551   0.201  0.0920  0.0610  0.2553
 5922SOL    HW223454   2.352   1.640   0.193 -1.9181  0.8936  0.2791
 5922SOL    HW323455   2.230   1.556   0.164  0.3674 -2.2382 -0.8937
 5922SOL    MW423456   2.311   1.563   0.195  0.0328  0.3479  0.1714
 5923SOL     OW23457   3.046   3.829   4.529  0.6119 -0.1239  0.8067
 5923SOL    HW223458   3.141   3.833   4.519  0.4541  0.1246 -0.8700
 5923SOL    HW323459   3.016   3.918   4.512 -0.0144 -0.4980 -0.1549
 5923SOL    MW423460   3.054   3.841   4.526  0.2245  0.6640  0.5182
 5924SOL     OW23461   5.187   5.929   2.390 -0.2087 -1.0141 -0.0586
 5924SOL    HW223462   5.281   5.910   2.384 -0.0141  0.1815 -1.9249
 5924SOL    HW323463   5.183   6.015   2.432 -0.2625 -0.0868 -1.8415
 5924SOL    MW423464   5.199   5.938   2.394  0.4054 -0.1424  0.3323
 5925SOL     OW23465   5.106   2.307   3.757  0.0274  0.2601  0.3267
 5925SOL    HW223466   5.128   2.308   3.850  0.7779  0.6508  0.1478
 5925SOL    HW323467   5.045   2.380   3.746  1.2458  1.2841  0.2066
 5925SOL    MW423468   5.101   2.316   3.768 -0.6163 -0.4743 -0.8403
 5926SOL     OW23469   3.433   2.852   2.920  0.6069  0.2493 -0.3468
 5926SOL    HW223470   3.381   2.921   2.963  0.4935  0.3265 -0.6011
 5926SOL    HW323471   3.408   2.859   2.827  0.2809 -0.4124 -0.3109
 5926SOL    MW423472   3.423   2.862   2.913 -0.0039 -0.7366 -0.0527
 5927SOL     OW23473   5.906   1.841   2.027  0.0060  1.1648 -0.7219
 5927SOL    HW223474   5.868   1.890   2.100  0.6589 -0.2844  0.6439
 5927SOL    HW323475   5.919   1.907   1.959 -1.9772  2.2831 -0.0929
 5927SOL    MW423476   5.903   1.856   2.028  0.5836  0.2198  0.6903
 5928SOL     OW23477   3.315   0.776   4.867  0.2367  0.2851 -0.5813
 5928SOL    HW223478   3.290   0.864   4.895 -0.7492 -0.4682  1.0654
 5928SOL    HW323479   3.238   0.742   4.822  1.4969  1.1409 -3.5899
 5928SOL    MW423480   3.301   0.783   4.865 -0.2177  0.4642 -0.4509
 5929SOL     OW23481   3.119   0.517   3.696  0.1872  0.4000 -0.5047
 5929SOL    HW223482   3.088   0.569   3.622 -0.9212  0.0680 -0.2959
 5929SOL    HW323483   3.211   0.499   3.676  0.8334  3.0109 -0.2514
 5929SOL    MW423484   3.127   0.522   3.684  0.9935 -0.4520  0.3236
 5930SOL     OW23485   2.149   3.213   0.959  0.3640  0.4089 -0.4641
 5930SOL    HW223486   2.087   3.150   0.922 -0.8615  0.6700  1.0320
 5930SOL    HW323487   2.228   3.162   0.975 -1.0142 -1.1908  1.9454
 5930SOL    MW423488   2.151   3.198   0.956  0.7397  0.4259  0.3528
 5931SOL     OW23489   4.090   4.137   1.105  0.2774  0.1414  0.2431
 5931SOL    HW223490   4.036   4.216   1.109  2.5204  1.7374  0.8740
 5931SOL    HW323491   4.180   4.170   1.102  1.2520 -2.3969 -0.6306
 5931SOL    MW423492   4.095   4.152   1.106  0.3260 -0.7599  0.5041
 5932SOL     OW23493   0.665   2.119   5.321 -0.2341  0.3153  0.0740
 5932SOL    HW223494   0.720   2.169   5.382  0.7273 -0.7994  0.1507
 5932SOL    HW323495   0.719   2.110   5.242 -0.0225 -1.3515  0.3861
 5932SOL    MW423496   0.679   2.125   5.319 -0.2578  0.3389 -0.8324
 5933SOL     OW23497   5.095   4.858   1.340  0.4451  0.4150 -0.2849
 5933SOL    HW223498   5.147   4.779   1.356  1.9713  0.6052 -3.5189
 5933SOL    HW323499   5.005   4.826   1.328  0.6046 -0.4951  0.8121
 5933SOL    MW423500   5.090   4.843   1.340 -0.3852 -0.0097 -0.1318
 5934SOL     OW23501   1.543   4.100   4.554 -0.0993  0.6332 -0.7381
 5934SOL    HW223502   1.545   4.066   4.465 -0.3244 -0.2382 -0.4186
 5934SOL    HW323503   1.600   4.177   4.552  1.4892 -0.5083 -1.1677
 5934SOL    MW423504   1.551   4.106   4.542 -0.8282  0.2985  0.1976
 5935SOL     OW23505   5.825   0.667   0.442 -0.1151  0.1638 -0.8865
 5935SOL    HW223506   5.835   0.645   0.349 -1.3651  1.1914 -1.3030
 5935SOL    HW323507   5.793   0.758   0.441 -2.1458 -0.4615  0.4401
 5935SOL    MW423508   5.822   0.676   0.430  0.4083 -0.4195  0.0281
 5936SOL     OW23509   3.477   3.109   2.640  0.5286  0.2363  0.0985
 5936SOL    HW223510   3.485   3.200   2.667 -0.7323  0.3538  0.1498
 5936SOL    HW323511   3.423   3.112   2.561  1.0092 -0.4174 -0.2699
 5936SOL    MW423512   3.471   3.121   2.633 -0.4319 -0.5802 -0.1293
 5937SOL     OW23513   3.143   4.077   6.169 -0.3205  0.0099 -0.4020
 5937SOL    HW223514   3.071   4.119   6.123  0.3926 -0.0347 -1.6167
 5937SOL    HW323515   3.178   4.014   6.105  1.7354  1.1048 -0.4312
 5937SOL    MW423516   3.138   4.074   6.154 -0.0293 -0.3365 -0.2544
 5938SOL     OW23517   2.443   0.869   2.584 -0.0089 -0.2183 -0.3812
 5938SOL    HW223518   2.441   0.778   2.553 -1.4147  0.7024 -3.3144
 5938SOL    HW323519   2.393   0.867   2.666 -0.1761 -2.0278 -0.4709
 5938SOL    MW423520   2.436   0.856   2.591 -0.0908 -0.2352  0.1163
 5939SOL     OW23521   1.785   3.418   2.182 -0.4085  0.1678 -0.1032
 5939SOL    HW223522   1.722   3.462   2.125 -1.5084 -1.1596  0.0394
 5939SOL    HW323523   1.870   3.451   2.153 -1.1119  1.6251 -0.6356
 5939SOL    MW423524   1.788   3.428   2.170  0.7280 -0.2437  0.0938
 5940SOL     OW23525   4.052   5.977   5.393  0.2088  0.0204  0.1097
 5940SOL    HW223526   4.028   5.977   5.485 -0.7672 -2.2095 -0.0864
 5940SOL    HW323527   4.148   5.981   5.393  0.2423 -0.4307  1.2286
 5940SOL    MW423528   4.062   5.978   5.405  0.6102  0.0047 -0.6333
 5941SOL     OW23529   4.293   2.408   2.890 -0.5344 -0.0191  0.3076
 5941SOL    HW223530   4.210   2.398   2.843 -1.0792  0.5020  1.1299
 5941SOL    HW323531   4.321   2.497   2.872 -1.6195  0.7850  2.2782
 5941SOL    MW423532   4.286   2.418   2.882  0.3167 -0.4169 -0.7752
 5942SOL     OW23533   2.811   1.671   3.718  0.0728 -0.0022  0.0047
 5942SOL    HW223534   2.889   1.635   3.676 -0.0522 -1.8329  1.2008
 5942SOL    HW323535   2.807   1.627   3.804 -1.1514  1.5640  0.8144
 5942SOL    MW423536   2.820   1.660   3.724 -0.6351  0.3593 -0.0277
 5943SOL     OW23537   2.427   4.344   5.928  0.4493 -0.4665 -0.1293
 5943SOL    HW223538   2.443   4.380   5.842 -0.0614  0.4103  0.1331
 5943SOL    HW323539   2.443   4.250   5.918 -0.0171 -0.4339 -1.2710
 5943SOL    MW423540   2.431   4.336   5.916 -0.1270 -0.0330  0.6323
 5944SOL     OW23541   4.008   6.328   2.206  0.4529 -0.0927 -0.3622
 5944SOL    HW223542   4.007   6.297   2.115 -0.1113 -1.3747  0.0483
 5944SOL    HW323543   4.096   6.308   2.236  1.4561  2.5650 -1.3043
 5944SOL    MW423544   4.019   6.321   2.198 -0.3108 -0.0355  0.1778
 5945SOL     OW23545   2.506   2.047   3.244  0.1409  0.1556 -0.4319
 5945SOL    HW223546   2.419   2.008   3.232  0.3940 -0.1354 -1.4282
 5945SOL    HW323547   2.514   2.110   3.172  1.1115 -0.4759 -0.8990
 5945SOL    MW423548   2.496   2.051   3.233  0.0776 -0.0991 -0.4768
 5946SOL     OW23549   1.167   0.941   4.053 -0.2375 -0.0973 -0.8880
 5946SOL    HW223550   1.166   0.967   4.145  1.0557  0.2607 -0.9499
 5946SOL    HW323551   1.085   0.974   4.017 -1.3763 -1.3492  0.4135
 5946SOL    MW423552   1.156   0.948   4.061  0.8102  0.3063  1.2512
 5947SOL     OW23553   0.649   5.433   4.783  0.2689 -0.0522 -0.3985
 5947SOL    HW223554   0.605   5.348   4.779  1.6187 -0.7444 -1.4261
 5947SOL    HW323555   0.735   5.413   4.821  0.4433  0.9254 -0.2576
 5947SOL    MW423556   0.655   5.419   4.788  0.3049  0.8279 -0.0034
 5948SOL     OW23557   1.956   1.146   6.239  0.4357 -0.1291 -0.3559
 5948SOL    HW223558   1.919   1.223   6.282  0.5593 -0.1058 -0.2904
 5948SOL    HW323559   1.934   1.073   6.296 -2.4195 -0.6319 -1.9210
 5948SOL    MW423560   1.948   1.147   6.252 -0.0295 -0.2311  0.2591
 5949SOL     OW23561   3.218   1.975   0.198  0.6930  0.1645  0.0533
 5949SOL    HW223562   3.273   2.043   0.238 -0.3429  0.6703  0.6710
 5949SOL    HW323563   3.208   1.909   0.266 -0.3386  0.5976  0.3400
 5949SOL    MW423564   3.224   1.976   0.212 -0.6301  0.3033  0.0845
 5950SOL     OW23565   1.549   1.085   2.515 -0.4050 -0.2555  0.3462
 5950SOL    HW223566   1.634   1.092   2.472  0.0058 -0.3268  1.1412
 5950SOL    HW323567   1.566   1.036   2.595 -1.4081 -1.3193 -0.0541
 5950SOL    MW423568   1.562   1.079   2.520 -0.0952 -0.1532 -0.0358
 5951SOL     OW23569   0.779   2.691   0.412 -0.1714 -0.3143  0.8427
 5951SOL    HW223570   0.807   2.616   0.464  1.4924 -1.6696 -1.7927
 5951SOL    HW323571   0.684   2.692   0.419 -0.2852 -3.0494  0.4962
 5951SOL    MW423572   0.770   2.681   0.420 -0.1293 -1.0849  0.0237
 5952SOL     OW23573   0.060   5.950   4.771  0.3177  0.0334 -0.1099
 5952SOL    HW223574   0.063   5.955   4.866  2.0337  3.1780 -0.1824
 5952SOL    HW323575  -0.025   5.985   4.747 -0.8151 -2.3240  0.2194
 5952SOL    MW423576   0.049   5.955   4.780 -0.2102 -0.6950 -0.7861
 5953SOL     OW23577   1.607   2.956   1.851 -0.2216 -0.7040 -0.6568
 5953SOL    HW223578   1.514   2.977   1.857 -0.1221 -0.2064 -0.8270
 5953SOL    HW323579   1.619   2.880   1.909 -0.1215  1.2170  2.0101
 5953SOL    MW423580   1.597   2.949   1.860 -0.1429  0.0950  0.2645
 5954SOL     OW23581   1.102   4.298   0.202 -0.0551  0.3600  0.1209
 5954SOL    HW223582   1.083   4.282   0.295  0.0016  0.8214  0.2154
 5954SOL    HW323583   1.182   4.248   0.185  0.0787  0.4784  0.3908
 5954SOL    MW423584   1.110   4.289   0.212  0.4051 -0.1887  0.0680
 5955SOL     OW23585   1.040   4.558   4.684  0.0398  0.1556  0.2413
 5955SOL    HW223586   1.042   4.589   4.774 -0.5746 -0.5269  0.4996
 5955SOL    HW323587   0.952   4.522   4.673  0.7095 -1.4884 -0.0329
 5955SOL    MW423588   1.028   4.557   4.694 -0.1175  0.1231 -0.5687
 5956SOL     OW23589   1.407   0.869   3.698 -0.5637  0.3874  0.5897
 5956SOL    HW223590   1.482   0.927   3.710  0.3029 -0.4099 -0.6509
 5956SOL    HW323591   1.331   0.927   3.696  0.1448  1.3363  0.6018
 5956SOL    MW423592   1.407   0.884   3.700 -0.5866 -0.1885  0.3458
 5957SOL     OW23593   3.059   0.357   2.455  0.0863  0.1403  0.1922
 5957SOL    HW223594   2.969   0.380   2.478 -0.0384 -0.5381  0.4039
 5957SOL    HW323595   3.088   0.299   2.526  1.4319  2.0114  1.2977
 5957SOL    MW423596   3.051   0.353   2.468  0.4559  0.2617 -0.2671
 5958SOL     OW23597   2.012   4.260   0.981  0.0676  0.1926  0.0560
 5958SOL    HW223598   1.982   4.305   1.060 -0.8125  0.3907 -0.3800
 5958SOL    HW323599   1.953   4.185   0.972  0.5871 -0.2084 -0.0449
 5958SOL    MW423600   2.000   4.256   0.990  0.4297  0.0919 -0.3718
 5959SOL     OW23601   6.142   1.332   1.019 -0.5022 -0.5115  0.1804
 5959SOL    HW223602   6.068   1.390   1.037  0.4089  0.7351  0.0059
 5959SOL    HW323603   6.213   1.366   1.072  0.9030  0.3918 -2.1163
 5959SOL    MW423604   6.142   1.344   1.028  0.3222  0.1098  0.1772
 5960SOL     OW23605   0.541   0.304   0.502 -0.3692 -0.3558  0.1070
 5960SOL    HW223606   0.468   0.252   0.536 -0.9658  0.7240  0.5178
 5960SOL    HW323607   0.589   0.333   0.580 -0.3187  0.1045 -0.0907
 5960SOL    MW423608   0.538   0.301   0.517  0.8514  0.4661  0.0355
 5961SOL     OW23609   5.661   3.224   3.440 -0.2703 -0.0638 -0.5494
 5961SOL    HW223610   5.612   3.295   3.481  0.1980  0.1920 -0.4238
 5961SOL    HW323611   5.643   3.147   3.495 -1.0735 -0.1303 -0.8988
 5961SOL    MW423612   5.652   3.223   3.453  0.0639  0.1950 -0.0492
 5962SOL     OW23613   3.877   6.043   2.237  0.0481 -0.5851 -0.3666
 5962SOL    HW223614   3.913   6.131   2.228 -0.1685 -0.4082  0.3559
 5962SOL    HW323615   3.791   6.057   2.277  0.6842 -1.2135  1.3089
 5962SOL    MW423616   3.870   6.056   2.241  0.3361  0.2448  0.2237
 5963SOL     OW23617   0.767   2.807   2.144  0.1026 -0.3105  0.0363
 5963SOL    HW223618   0.793   2.820   2.236 -1.8080  2.3720  0.3053
 5963SOL    HW323619   0.825   2.865   2.095 -1.2650  1.1193  0.0196
 5963SOL    MW423620   0.778   2.817   2.150  0.0839  0.7939 -0.6490
 5964SOL     OW23621   1.132   2.796   2.962 -0.5360  0.2680  0.0387
 5964SOL    HW223622   1.135   2.708   2.998 -0.9803  0.5864  0.8734
 5964SOL    HW323623   1.224   2.818   2.945 -0.4565 -0.5115 -0.5994
 5964SOL    MW423624   1.145   2.787   2.965  1.1139 -0.1610  0.2035
 5965SOL     OW23625   0.094   5.579   1.261  0.0180 -0.1929  0.7539
 5965SOL    HW223626   0.108   5.496   1.217 -2.3965 -0.8941  1.1820
 5965SOL    HW323627   0.033   5.627   1.205  0.8416  1.0557  0.8554
 5965SOL    MW423628   0.088   5.575   1.248 -0.4907 -0.2305 -0.4282
 5966SOL     OW23629   3.173   1.533   2.665 -0.0813 -0.1653  0.6500
 5966SOL    HW223630   3.203   1.524   2.756  0.6782  0.8566  0.5239
 5966SOL    HW323631   3.239   1.487   2.613  0.1629  0.3052  0.5336
 5966SOL    MW423632   3.186   1.526   2.670 -0.3184  1.3800  0.1998
 5967SOL     OW23633   5.761   3.097   2.082  0.1221 -0.0129 -0.2023
 5967SOL    HW223634   5.711   3.084   2.162  0.9698  0.7915  0.4893
 5967SOL    HW323635   5.696   3.098   2.012 -0.7040 -0.0343  0.5532
 5967SOL    MW423636   5.746   3.096   2.083  0.3764 -0.5344  0.0067
 5968SOL     OW23637   1.233   6.100   1.899 -0.2046  0.4273 -0.0562
 5968SOL    HW223638   1.185   6.084   1.818  0.5047 -0.8317 -0.2623
 5968SOL    HW323639   1.172   6.074   1.968  0.7962 -3.4004 -0.3681
 5968SOL    MW423640   1.219   6.094   1.898 -0.7830  0.7346  0.2988
 5969SOL     OW23641   4.109   2.447   6.086 -0.0867 -0.4176  0.4151
 5969SOL    HW223642   4.083   2.418   6.174  1.3470 -0.6354  0.7952
 5969SOL    HW323643   4.058   2.527   6.071  0.0077 -0.0993  1.6539
 5969SOL    MW423644   4.099   2.454   6.096  0.0430  0.2145 -0.0463
 5970SOL     OW23645   0.917   3.791   2.267  0.2521 -0.3477  0.0359
 5970SOL    HW223646   0.986   3.795   2.333  0.4597 -1.4076 -0.0957
 5970SOL    HW323647   0.838   3.768   2.316 -0.1918  1.5178  0.2872
 5970SOL    MW423648   0.916   3.789   2.282  0.0823  0.0137 -0.0209
 5971SOL     OW23649   1.373   5.746   0.626  0.0265 -0.5544  0.1258
 5971SOL    HW223650   1.418   5.694   0.559 -1.3722  0.4153 -1.6502
 5971SOL    HW323651   1.443   5.784   0.678  1.1332 -2.3808  0.0685
 5971SOL    MW423652   1.388   5.744   0.624 -0.0962  0.3562  0.1305
 5972SOL     OW23653   0.609   0.465   2.675  0.3182  0.2336  0.0928
 5972SOL    HW223654   0.554   0.540   2.692 -1.1226 -0.9663  0.9857
 5972SOL    HW323655   0.596   0.445   2.582  0.9103  1.2105 -0.2087
 5972SOL    MW423656   0.600   0.472   2.665  0.6213  0.1196 -0.0762
 5973SOL     OW23657   4.630   5.356   4.906 -0.1834 -0.3081  0.1562
 5973SOL    HW223658   4.570   5.373   4.979  0.3348  0.2757  0.4529
 5973SOL    HW323659   4.614   5.264   4.883 -0.3476 -0.5032  1.0115
 5973SOL    MW423660   4.620   5.346   4.913 -0.6195  0.0283 -0.2860
 5974SOL     OW23661   3.222   5.523   4.769 -0.1503 -0.2846  0.0645
 5974SOL    HW223662   3.296   5.565   4.812  0.7772 -0.9658 -0.8141
 5974SOL    HW323663   3.203   5.579   4.693 -1.8246  0.9529  1.3246
 5974SOL    MW423664   3.229   5.536   4.765 -0.0238  0.3595  0.2975
 5975SOL     OW23665   4.075   5.847   1.254 -0.0693 -0.3336  0.2271
 5975SOL    HW223666   4.072   5.936   1.289  0.2018  0.0315 -0.6458
 5975SOL    HW323667   3.984   5.828   1.231 -0.1604 -0.3639  0.6095
 5975SOL    MW423668   4.062   5.856   1.256  0.2687 -0.5108 -1.1255
 5976SOL     OW23669   6.321   1.410   1.233  0.1447  0.0683 -0.2809
 5976SOL    HW223670   6.355   1.326   1.266 -0.1048 -0.0949 -0.4339
 5976SOL    HW323671   6.387   1.474   1.259  0.3389 -0.1758 -0.1611
 5976SOL    MW423672   6.334   1.407   1.241  0.2027  0.2543  0.0567
 5977SOL     OW23673   3.422   5.562   2.097 -0.1300  0.0460 -0.2872
 5977SOL    HW223674   3.487   5.618   2.140 -0.2280  0.7485 -1.0296
 5977SOL    HW323675   3.348   5.561   2.157  0.4229 -0.4624  0.3965
 5977SOL    MW423676   3.421   5.569   2.111  0.6163 -0.3396  0.2531
 5978SOL     OW23677   6.076   5.047   2.780  0.5798  0.2267  0.1479
 5978SOL    HW223678   6.067   5.120   2.841 -2.7482  0.8682 -0.9226
 5978SOL    HW323679   6.017   4.980   2.814  2.3912 -1.4207  0.2314
 5978SOL    MW423680   6.067   5.047   2.792 -0.6385 -0.2265 -0.7030
 5979SOL     OW23681   2.657   5.569   4.690 -0.9507  0.8761 -0.7435
 5979SOL    HW223682   2.586   5.518   4.729 -2.1259  0.7802 -2.8121
 5979SOL    HW323683   2.668   5.531   4.602  0.6872  1.8250 -1.0014
 5979SOL    MW423684   2.649   5.557   4.683  0.0967 -0.8872  0.7277
 5980SOL     OW23685   5.026   0.369   0.423 -0.2146  0.4733 -0.4087
 5980SOL    HW223686   5.084   0.317   0.479 -0.7529 -0.5670 -0.7740
 5980SOL    HW323687   5.018   0.317   0.343  0.8414  2.0985 -1.6404
 5980SOL    MW423688   5.032   0.355   0.420 -0.2588  0.3781  0.2240
 5981SOL     OW23689   0.844   6.136   0.686  0.4651  0.5050  0.0415
 5981SOL    HW223690   0.892   6.117   0.605 -0.7094  1.6463 -0.9864
 5981SOL    HW323691   0.827   6.050   0.724  0.7568 -0.0923 -1.1166
 5981SOL    MW423692   0.848   6.122   0.680 -0.6700 -0.9164 -0.1326
 5982SOL     OW23693   1.253   5.115   1.899  0.1842 -0.3811 -0.0535
 5982SOL    HW223694   1.291   5.036   1.938  1.0502  0.9644  1.9785
 5982SOL    HW323695   1.326   5.176   1.892 -0.8572  0.9629  0.4087
 5982SOL    MW423696   1.268   5.113   1.903 -0.1833  0.5514 -0.0707
 5983SOL     OW23697   4.472   4.479   4.501  0.0417  0.2089 -0.0631
 5983SOL    HW223698   4.560   4.501   4.529  0.5937 -1.9417  0.0842
 5983SOL    HW323699   4.484   4.438   4.415 -0.7766 -0.3915  0.0958
 5983SOL    MW423700   4.485   4.476   4.493 -0.4590  0.1255 -0.6936
 5984SOL     OW23701   6.034   1.793   4.376  0.1180  0.1207  0.0297
 5984SOL    HW223702   5.992   1.786   4.462  0.7260 -0.8298  0.2649
 5984SOL    HW323703   5.975   1.745   4.317 -1.5032  2.6832 -0.5861
 5984SOL    MW423704   6.020   1.785   4.380 -0.0428 -1.2695 -0.3370
 5985SOL     OW23705   0.340   0.092   3.140 -0.0392 -0.8585 -0.4461
 5985SOL    HW223706   0.378   0.179   3.132  1.1385 -1.1633  1.2552
 5985SOL    HW323707   0.246   0.105   3.130  0.1604  0.5214 -0.7027
 5985SOL    MW423708   0.333   0.105   3.137  0.2448  0.2293  0.2300
 5986SOL     OW23709   1.961  -0.007   0.685  0.4016 -0.2242 -0.1316
 5986SOL    HW223710   1.993   0.031   0.767  2.1636 -2.5091  0.3632
 5986SOL    HW323711   1.946  -0.099   0.706  1.2673 -0.9647 -2.4307
 5986SOL    MW423712   1.963  -0.014   0.699 -0.3971 -0.3355 -0.1818
 5987SOL     OW23713   0.217   0.029   1.807  0.6972  0.5434 -0.4671
 5987SOL    HW223714   0.251   0.106   1.761  0.7221 -0.2514 -1.8236
 5987SOL    HW323715   0.154  -0.010   1.746 -0.2981  0.2006  0.7282
 5987SOL    MW423716   0.213   0.034   1.793  0.2862 -0.0090  0.3335
 5988SOL     OW23717   5.477   5.242   5.394  0.1802 -0.1181 -0.1404
 5988SOL    HW223718   5.441   5.330   5.381 -0.5985  0.0543  2.5670
 5988SOL    HW323719   5.572   5.254   5.392  0.1750  0.1937 -2.7396
 5988SOL    MW423720   5.485   5.255   5.392 -0.7456  0.0089  0.2427
 5989SOL     OW23721   1.017   3.958   6.349  0.3245  0.0619  0.2467
 5989SOL    HW223722   1.044   3.891   6.413 -1.9297 -2.6099 -1.3279
 5989SOL    HW323723   0.949   3.914   6.297 -0.6755  3.3728 -1.5118
 5989SOL    MW423724   1.011   3.943   6.351  0.5145  0.1054  0.2405
 5990SOL     OW23725   1.688   5.399   3.315 -0.0006  0.7676 -0.1425
 5990SOL    HW223726   1.758   5.455   3.282 -1.4871  1.1510 -2.9605
 5990SOL    HW323727   1.734   5.327   3.359  2.1357  1.3084 -1.3280
 5990SOL    MW423728   1.704   5.397   3.316  0.3454 -0.0111 -0.4213
 5991SOL     OW23729   4.733   2.833   0.796  0.3462 -0.0088  0.3345
 5991SOL    HW223730   4.817   2.850   0.752  1.2916 -0.5847  1.8466
 5991SOL    HW323731   4.670   2.825   0.724  1.3979  1.3127 -0.7996
 5991SOL    MW423732   4.736   2.834   0.780 -0.1930 -0.4290  0.1587
 5992SOL     OW23733   5.707   0.578   0.696 -0.4232  0.4698  0.4305
 5992SOL    HW223734   5.737   0.604   0.609 -0.7310  0.9727  0.4732
 5992SOL    HW323735   5.669   0.657   0.734 -2.9268 -0.3689 -0.1096
 5992SOL    MW423736   5.706   0.592   0.690 -0.4153 -0.2259 -0.5326
 5993SOL     OW23737   1.475   0.278   3.415 -0.0867 -0.3017  0.2133
 5993SOL    HW223738   1.414   0.213   3.379 -0.0614  0.5640 -1.5230
 5993SOL    HW323739   1.450   0.360   3.372  2.2253  0.1005 -0.4972
 5993SOL    MW423740   1.464   0.280   3.404  0.2541  0.0357 -0.2495
 5994SOL     OW23741   2.761   3.344   1.405 -0.3610 -0.0232  0.0115
 5994SOL    HW223742   2.807   3.306   1.330 -0.1080 -2.2010  1.1867
 5994SOL    HW323743   2.668   3.332   1.385 -0.2830 -1.5916  0.4781
 5994SOL    MW423744   2.755   3.337   1.392 -0.2099  0.0629  0.3147
 5995SOL     OW23745   4.293   1.096   5.815 -0.2710 -0.0370  0.2187
 5995SOL    HW223746   4.203   1.088   5.782 -0.7776 -1.3092  1.8013
 5995SOL    HW323747   4.345   1.115   5.737 -1.9706  1.3405 -0.6538
 5995SOL    MW423748   4.288   1.098   5.800  0.6148  0.5079 -0.8552
 5996SOL     OW23749   1.070   2.292   3.715  0.2164 -0.5576 -0.5936
 5996SOL    HW223750   1.124   2.371   3.711  1.0759 -1.1678 -1.6617
 5996SOL    HW323751   1.112   2.238   3.781  0.5575 -0.7644 -0.9730
 5996SOL    MW423752   1.083   2.296   3.723  0.2227 -0.3733 -0.1688
 5997SOL     OW23753   1.875   3.383   0.907 -0.4451  0.1067 -0.0156
 5997SOL    HW223754   1.924   3.382   0.988 -0.2330 -1.5082 -0.1395
 5997SOL    HW323755   1.940   3.367   0.838 -0.9564 -0.9459 -0.2751
 5997SOL    MW423756   1.890   3.381   0.908  0.3006 -0.2509  1.0810
 5998SOL     OW23757   4.730   5.950   4.065  0.3972  0.0881 -0.7762
 5998SOL    HW223758   4.665   5.962   3.996 -1.4300 -0.1517  0.7813
 5998SOL    HW323759   4.811   5.987   4.031 -0.8078  1.2571 -2.4608
 5998SOL    MW423760   4.732   5.956   4.052 -0.4516  0.4753 -0.3287
 5999SOL     OW23761   3.585   1.524   1.105  0.1605 -0.0568 -0.1376
 5999SOL    HW223762   3.627   1.576   1.173 -1.1922  0.3870  0.4054
 5999SOL    HW323763   3.495   1.557   1.103  0.2616  0.2075 -2.4223
 5999SOL    MW423764   3.578   1.535   1.114 -0.3185 -0.3972  0.5945
 6000SOL     OW23765   3.748   4.844   3.471  0.0409 -0.0691 -0.2398
 6000SOL    HW223766   3.684   4.911   3.444 -0.8815 -1.1070 -0.7138
 6000SOL    HW323767   3.759   4.790   3.393 -0.2356 -1.2452  0.5085
 6000SOL    MW423768   3.741   4.846   3.457 -0.8454  0.2407 -0.7722
 6001SOL     OW23769   1.710   0.465   5.966  0.0468 -0.5013  0.6681
 6001SOL    HW223770   1.799   0.469   6.002 -0.3523 -1.5086  1.8573
 6001SOL    HW323771   1.695   0.372   5.948  0.2358 -0.0497 -2.3011
 6001SOL    MW423772   1.720   0.453   5.969  0.9185 -0.8694  0.3028
 6002SOL     OW23773   5.454   4.478   2.382 -0.3332 -0.8447 -0.2455
 6002SOL    HW223774   5.449   4.471   2.287  0.1453 -1.2388 -0.2478
 6002SOL    HW323775   5.533   4.528   2.399  0.0112 -1.4422 -0.0407
 6002SOL    MW423776   5.464   4.483   2.372 -0.1968  0.1309  0.3431
 6003SOL     OW23777   4.410   1.865   4.722  0.2258  0.1290 -0.1718
 6003SOL    HW223778   4.374   1.923   4.656  1.0005  0.0542 -0.6739
 6003SOL    HW323779   4.474   1.812   4.675  0.6461 -0.0640  0.6009
 6003SOL    MW423780   4.414   1.865   4.707  0.4157  0.1611 -0.5815
 6004SOL     OW23781   5.294   5.342   5.108 -0.3033 -0.9983  0.2879
 6004SOL    HW223782   5.383   5.308   5.097  0.9818  0.6974  3.7363
 6004SOL    HW323783   5.300   5.434   5.083 -0.9716 -0.8043  0.8018
 6004SOL    MW423784   5.307   5.350   5.103 -0.4651 -0.0940  0.8391
 6005SOL     OW23785   5.018   0.719   3.049  0.3672 -0.4242  0.0462
 6005SOL    HW223786   5.042   0.770   3.127 -1.0712 -0.2382  0.4073
 6005SOL    HW323787   5.052   0.770   2.976  0.7495 -0.0076  0.5064
 6005SOL    MW423788   5.026   0.733   3.050  0.0420 -0.5471 -0.2433
 6006SOL     OW23789   0.759   3.443   4.028 -0.7254  0.3235 -0.1011
 6006SOL    HW223790   0.803   3.359   4.017  0.8239  1.0997 -0.1752
 6006SOL    HW323791   0.806   3.485   4.100  0.0614  2.0402 -1.5443
 6006SOL    MW423792   0.771   3.437   4.036 -0.2574  0.4229 -0.4736
 6007SOL     OW23793   6.393   4.226   4.967  0.6018  0.0697  0.7012
 6007SOL    HW223794   6.484   4.253   4.962  0.8990 -1.0961 -1.1064
 6007SOL    HW323795   6.396   4.138   5.004  0.3547 -0.4718 -0.5162
 6007SOL    MW423796   6.405   4.218   4.971 -0.0350 -0.1051  0.3252
 6008SOL     OW23797   2.140   2.659   4.543  0.4433  0.5778  0.4254
 6008SOL    HW223798   2.050   2.690   4.531  1.2294  2.2605 -1.7606
 6008SOL    HW323799   2.133   2.564   4.541 -1.0774  0.6745 -1.8421
 6008SOL    MW423800   2.127   2.651   4.541 -0.2211 -0.5423  0.0483
 6009SOL     OW23801   4.555   5.997   1.729  0.1643 -0.6232  0.0647
 6009SOL    HW223802   4.484   5.945   1.693 -1.5006  0.6185  1.3579
 6009SOL    HW323803   4.619   6.004   1.658 -2.7558  1.4733 -2.6302
 6009SOL    MW423804   4.554   5.991   1.715 -0.2985  0.4270 -0.0745
 6010SOL     OW23805   2.242   0.217   0.765 -0.4355  0.0737  0.3853
 6010SOL    HW223806   2.312   0.253   0.820 -1.2607 -0.9429  2.2095
 6010SOL    HW323807   2.162   0.247   0.807 -1.1088 -0.4433 -0.4974
 6010SOL    MW423808   2.241   0.226   0.778  0.5529  0.2743 -0.3859
 6011SOL     OW23809   2.083   4.981   0.732  0.2317 -0.3087 -0.1391
 6011SOL    HW223810   2.061   5.058   0.679 -0.6014 -1.4477 -1.5620
 6011SOL    HW323811   2.000   4.933   0.739  1.1341 -2.1849 -1.2637
 6011SOL    MW423812   2.069   4.984   0.726 -0.3005  0.2549  0.3190
 6012SOL     OW23813   2.426   3.833   4.645 -0.1014 -0.4903  0.1644
 6012SOL    HW223814   2.367   3.771   4.687  0.3365 -1.5272 -0.6836
 6012SOL    HW323815   2.391   3.844   4.556 -0.5049  0.9590  0.4808
 6012SOL    MW423816   2.414   3.826   4.638  0.2609 -0.2509 -0.3064
 6013SOL     OW23817   1.762   2.963   1.598  0.0976 -0.1774  0.3459
 6013SOL    HW223818   1.737   2.998   1.683 -1.5767  1.5642 -0.7642
 6013SOL    HW323819   1.706   2.885   1.586 -1.0959  0.6958  0.0695
 6013SOL    MW423820   1.751   2.957   1.607 -0.3981  0.3408  0.6589
 6014SOL     OW23821   4.166   4.667   3.746  0.2949  0.4788 -0.3752
 6014SOL    HW223822   4.224   4.679   3.671 -0.8612  2.2597 -1.0246
 6014SOL    HW323823   4.178   4.745   3.800 -0.3681  0.1533  0.2793
 6014SOL    MW423824   4.175   4.679   3.744  0.5095 -0.4267 -0.1474
 6015SOL     OW23825   5.613   5.879   2.962  0.1532  0.0665  0.0965
 6015SOL    HW223826   5.527   5.919   2.948  0.1276  0.6375  1.7392
 6015SOL    HW323827   5.674   5.936   2.914 -0.6248 -2.2562 -4.1669
 6015SOL    MW423828   5.610   5.892   2.954  0.3981 -0.2954 -0.5698
 6016SOL     OW23829   5.525   4.415   1.374  0.3537 -0.0543 -0.1575
 6016SOL    HW223830   5.550   4.378   1.290  0.9968  0.3064 -0.1292
 6016SOL    HW323831   5.604   4.409   1.427  1.0392  2.9794 -0.7042
 6016SOL    MW423832   5.539   4.409   1.370  0.0162  0.2084  0.7741
 6017SOL     OW23833   0.277   0.247   1.636 -0.2357  0.6877  0.0534
 6017SOL    HW223834   0.260   0.173   1.577 -1.0561  1.5448 -0.8020
 6017SOL    HW323835   0.368   0.271   1.618 -0.3292  0.6282 -0.5025
 6017SOL    MW423836   0.287   0.240   1.626 -0.0570  0.1362  0.6269
 6018SOL     OW23837   0.802   2.383   5.965  0.1946  0.0381  0.2954
 6018SOL    HW223838   0.850   2.363   6.045 -0.6881  0.0743  0.8482
 6018SOL    HW323839   0.772   2.299   5.932  0.4500  0.0346  0.0644
 6018SOL    MW423840   0.804   2.370   5.971 -0.4021 -0.1236  0.3187
 6019SOL     OW23841   0.207   4.427   0.855  0.0920 -0.2688  0.2145
 6019SOL    HW223842   0.164   4.355   0.809 -0.8277 -0.1835  0.8991
 6019SOL    HW323843   0.292   4.393   0.881 -0.8331 -1.6047  1.6924
 6019SOL    MW423844   0.212   4.413   0.852 -0.3853  0.2685 -0.2847
 6020SOL     OW23845   3.569   3.629   4.739  0.0757 -0.5377 -0.4155
 6020SOL    HW223846   3.543   3.560   4.800  1.8225 -0.0147  1.0166
 6020SOL    HW323847   3.664   3.623   4.736  0.2147  1.3442 -0.7883
 6020SOL    MW423848   3.578   3.619   4.747 -0.4017 -0.2493 -0.1365
 6021SOL     OW23849   4.835   5.109   2.761 -0.3190 -0.0590 -0.1366
 6021SOL    HW223850   4.891   5.168   2.811 -0.7818 -0.2401  0.6287
 6021SOL    HW323851   4.847   5.134   2.670  0.1446  0.6393  0.1140
 6021SOL    MW423852   4.844   5.120   2.756 -0.8691 -0.4674 -0.5395
 6022SOL     OW23853   4.393   2.257   2.065 -0.0161 -0.5418 -0.3746
 6022SOL    HW223854   4.417   2.317   1.995 -0.6841  1.5919  1.1153
 6022SOL    HW323855   4.307   2.222   2.039  0.1254 -0.4310 -0.9939
 6022SOL    MW423856   4.385   2.260   2.053  0.3072 -0.5361 -0.0141
 6023SOL     OW23857   6.167   3.178   3.317 -0.6219  0.2040 -0.0287
 6023SOL    HW223858   6.085   3.128   3.316  0.1863 -1.2069  1.0363
 6023SOL    HW323859   6.235   3.113   3.302  0.4269  1.0880  0.7369
 6023SOL    MW423860   6.165   3.163   3.315  0.2640 -0.3038 -0.6481
 6024SOL     OW23861   4.598   1.391   3.360 -0.4051 -0.4200  0.1942
 6024SOL    HW223862   4.608   1.486   3.365 -1.0311 -0.3562  0.2905
 6024SOL    HW323863   4.586   1.363   3.451 -0.3245 -0.5810  0.1561
 6024SOL    MW423864   4.597   1.400   3.372 -0.2345 -0.3493 -0.1715
 6025SOL     OW23865   0.486   1.015   1.316 -0.1556  0.4392  0.4384
 6025SOL    HW223866   0.465   1.061   1.397  2.8338  0.1042  1.5614
 6025SOL    HW323867   0.572   1.049   1.291  0.1685 -1.3524 -1.1268
 6025SOL    MW423868   0.495   1.026   1.323 -0.4453 -0.2019 -0.3197
 6026SOL     OW23869   1.356   2.925   3.649 -0.4180 -0.0260  0.1305
 6026SOL    HW223870   1.408   2.964   3.578  1.1481  0.0952  1.2715
 6026SOL    HW323871   1.388   2.835   3.655  2.0139  0.8662  2.8214
 6026SOL    MW423872   1.367   2.919   3.640  0.1508 -0.4320  0.0527
 6027SOL     OW23873   5.858   5.469   5.931 -0.0610  0.1256  0.1931
 6027SOL    HW223874   5.843   5.547   5.878 -0.8059  1.1348  1.8481
 6027SOL    HW323875   5.837   5.396   5.872  2.0994  1.0447 -1.8719
 6027SOL    MW423876   5.853   5.470   5.916  0.0452 -0.4655  0.1336
 6028SOL     OW23877   5.607   3.223   3.181 -0.5701  0.5363  0.1576
 6028SOL    HW223878   5.654   3.163   3.123  1.1445  0.3125  1.6896
 6028SOL    HW323879   5.644   3.207   3.268 -0.2155  3.6364  0.6840
 6028SOL    MW423880   5.618   3.213   3.185  0.0912  0.8533 -0.7832
 6029SOL     OW23881   1.790   3.277   5.328  0.0107 -0.2750 -0.0154
 6029SOL    HW223882   1.774   3.206   5.390 -0.5404 -0.0352  0.1190
 6029SOL    HW323883   1.786   3.356   5.382  1.7656 -0.1966  0.0610
 6029SOL    MW423884   1.788   3.278   5.343 -0.3327 -0.5515  0.0552
 6030SOL     OW23885   3.211   0.031   0.386 -0.0212  0.2195 -0.6830
 6030SOL    HW223886   3.170   0.018   0.300  1.3477 -0.6009 -1.2467
 6030SOL    HW323887   3.303   0.009   0.372  0.0540 -0.9410  1.2382
 6030SOL    MW423888   3.217   0.026   0.372  0.3535 -0.0481 -0.1902
 6031SOL     OW23889   3.056   3.342   3.951  0.1474 -0.3876 -0.0163
 6031SOL    HW223890   2.986   3.290   3.989  0.7476 -0.8783  0.4321
 6031SOL    HW323891   3.026   3.433   3.959 -1.5519 -0.6825 -2.0875
 6031SOL    MW423892   3.043   3.347   3.957 -0.5241 -0.3522 -0.5251
 6032SOL     OW23893   2.611   5.442   1.678  0.1491 -0.1193 -0.0334
 6032SOL    HW223894   2.569   5.446   1.763 -0.3324 -3.0947 -0.0249
 6032SOL    HW323895   2.539   5.441   1.615  0.4792  1.3158 -0.4687
 6032SOL    MW423896   2.596   5.442   1.681 -0.1836  0.5770 -0.3425
 6033SOL     OW23897   5.829   4.209   5.215 -0.2312 -0.0787  0.0118
 6033SOL    HW223898   5.749   4.168   5.249 -0.1884  0.5061  0.8603
 6033SOL    HW323899   5.848   4.162   5.134 -2.3747  0.8416 -1.1178
 6033SOL    MW423900   5.821   4.198   5.209 -1.0079  0.0448 -0.4579
 6034SOL     OW23901   6.419   3.265   5.359  0.7589  0.2982  0.1899
 6034SOL    HW223902   6.402   3.344   5.307  0.2601 -0.1524 -0.3450
 6034SOL    HW323903   6.514   3.259   5.364  0.8006  1.0730  0.4514
 6034SOL    MW423904   6.429   3.275   5.353  0.1934 -0.4713  0.0932
 6035SOL     OW23905   3.572   4.140   0.566  0.2181  0.2046  0.2936
 6035SOL    HW223906   3.645   4.094   0.525 -0.1455 -0.5472  0.4760
 6035SOL    HW323907   3.534   4.192   0.495 -0.1856 -0.8065 -0.2638
 6035SOL    MW423908   3.576   4.141   0.551  0.0144  0.1949  0.3734
 6036SOL     OW23909   3.279   3.592   4.867  0.4243  0.1859  0.1389
 6036SOL    HW223910   3.326   3.539   4.803 -1.8121 -1.2623 -0.4142
 6036SOL    HW323911   3.314   3.680   4.855  0.3713 -0.0848 -2.8458
 6036SOL    MW423912   3.290   3.596   4.857 -0.0590  0.0650 -0.5994
 6037SOL     OW23913   2.074   0.814   2.793  0.1233  0.0601 -0.0191
 6037SOL    HW223914   2.101   0.895   2.750  0.5739 -0.8075 -1.4260
 6037SOL    HW323915   1.980   0.827   2.810  0.6356  1.7804  1.9317
 6037SOL    MW423916   2.065   0.827   2.789 -0.2449  0.3992  0.9322
 6038SOL     OW23917   6.017   0.359   0.453 -0.1947 -0.7809 -0.3466
 6038SOL    HW223918   6.081   0.298   0.489  0.0998 -0.6554 -0.6529
 6038SOL    HW323919   6.032   0.441   0.500  0.4030 -0.5257 -0.9650
 6038SOL    MW423920   6.028   0.362   0.464 -0.4495  0.1307 -0.3147
 6039SOL     OW23921   6.047   0.281   0.867 -0.1294  0.2520 -0.1262
 6039SOL    HW223922   6.049   0.365   0.914 -2.0645 -0.8333  2.1189
 6039SOL    HW323923   5.978   0.293   0.801 -0.2402  0.5160  0.0323
 6039SOL    MW423924   6.038   0.294   0.864  0.4793 -0.5252 -0.1830
 6040SOL     OW23925   5.501   0.764   3.506  0.1843 -0.1176 -0.5237
 6040SOL    HW223926   5.588   0.734   3.534 -0.1447  0.3025  1.0214
 6040SOL    HW323927   5.479   0.833   3.568 -1.1259 -0.0070 -1.0988
 6040SOL    MW423928   5.510   0.769   3.518 -0.0455  0.0102 -0.0672
 6041SOL     OW23929   2.541   1.401   0.067 -0.5522 -0.2209  0.2109
 6041SOL    HW223930   2.524   1.329   0.006 -0.0376 -0.5260  0.4145
 6041SOL    HW323931   2.455   1.425   0.101 -0.8209 -0.1987 -0.4642
 6041SOL    MW423932   2.528   1.395   0.064 -0.0592  0.5221 -0.7271
 6042SOL     OW23933   6.252   2.872   5.032 -0.1023 -0.2429 -0.2749
 6042SOL    HW223934   6.263   2.967   5.043 -0.8833 -0.2905  1.1059
 6042SOL    HW323935   6.177   2.850   5.087  1.7213 -2.0759  1.6820
 6042SOL    MW423936   6.244   2.882   5.041  0.3283 -0.6214  0.0785
 6043SOL     OW23937   1.386   4.263   5.625 -0.3305 -0.2966  0.2627
 6043SOL    HW223938   1.372   4.233   5.536 -0.2071 -0.2056  0.2119
 6043SOL    HW323939   1.472   4.229   5.649 -0.6579 -0.9011  0.5930
 6043SOL    MW423940   1.395   4.255   5.617 -0.5111 -0.4663 -0.0857
 6044SOL     OW23941   3.316   1.742   3.291  0.1509 -0.5752 -0.4488
 6044SOL    HW223942   3.325   1.723   3.198  0.5770 -0.2721 -0.4700
 6044SOL    HW323943   3.281   1.661   3.329  2.7275 -1.7342 -0.3962
 6044SOL    MW423944   3.312   1.729   3.284 -0.1764  0.2119  0.7701
 6045SOL     OW23945   0.658   4.924   0.373  0.1140 -0.7454  0.5563
 6045SOL    HW223946   0.724   4.861   0.401  0.6064 -0.6255 -0.2806
 6045SOL    HW323947   0.584   4.871   0.346 -0.2221 -0.8758  1.6769
 6045SOL    MW423948   0.657   4.909   0.373 -0.2176 -0.5568  0.4313
 6046SOL     OW23949   3.448   6.275   1.945  0.6457 -0.6728  0.5785
 6046SOL    HW223950   3.404   6.355   1.918  0.0757 -1.1980 -0.0864
 6046SOL    HW323951   3.437   6.215   1.871  0.4015 -1.6189  1.3620
 6046SOL    MW423952   3.441   6.278   1.932  0.3264 -0.1048 -0.0348
 6047SOL     OW23953   6.352   4.390   0.414 -0.5535  0.8299 -0.3927
 6047SOL    HW223954   6.334   4.339   0.493 -0.0767  0.3809 -0.5654
 6047SOL    HW323955   6.271   4.388   0.365 -0.9450  1.3510  0.2106
 6047SOL    MW423956   6.339   4.383   0.418 -0.2934 -1.1160  0.1002
 6048SOL     OW23957   4.382   2.723   1.053  0.4075  0.2341  0.1694
 6048SOL    HW223958   4.316   2.653   1.052  0.8135 -0.1640  0.7900
 6048SOL    HW323959   4.452   2.689   1.109  2.1225 -0.2294 -2.1166
 6048SOL    MW423960   4.382   2.709   1.060 -0.1759 -0.5695 -0.1460
 6049SOL     OW23961   5.079   2.180   5.312 -0.2668 -0.0424  0.1779
 6049SOL    HW223962   5.119   2.229   5.384 -0.1987 -0.6305  0.5493
 6049SOL    HW323963   5.143   2.186   5.241  1.0839 -1.9156  1.1253
 6049SOL    MW423964   5.093   2.187   5.312 -0.0299  0.0826  0.2723
 6050SOL     OW23965   6.098   3.972   2.311 -0.0466  0.3952  0.5232
 6050SOL    HW223966   6.111   4.054   2.359  2.9711  0.4590 -0.1937
 6050SOL    HW323967   6.027   3.992   2.249 -0.2655  2.0334  1.2458
 6050SOL    MW423968   6.091   3.986   2.309  0.2788 -0.1434  0.8646
 6051SOL     OW23969   3.712   6.153   1.761  0.3402 -0.3973  0.4204
 6051SOL    HW223970   3.622   6.121   1.763  0.0883  0.0986 -1.3883
 6051SOL    HW323971   3.740   6.140   1.670  1.5304  0.9809  0.5565
 6051SOL    MW423972   3.704   6.147   1.749  0.6319 -0.2085  0.1471
 6052SOL     OW23973   1.557  -0.004   3.128 -0.0430  0.6033  0.1446
 6052SOL    HW223974   1.551  -0.089   3.084 -1.0527  0.0991  1.2129
 6052SOL    HW323975   1.602   0.053   3.064  2.6784 -1.2568  0.2357
 6052SOL    MW423976   1.562  -0.007   3.114  0.4089  0.2754  0.4418
 6053SOL     OW23977   2.667   5.562   3.746  0.0309 -0.1536 -0.0914
 6053SOL    HW223978   2.603   5.631   3.730 -0.9555 -0.6713  1.4086
 6053SOL    HW323979   2.742   5.608   3.783 -0.4398  0.1757  0.4647
 6053SOL    MW423980   2.668   5.577   3.749  0.1776 -0.1103  0.4171
 6054SOL     OW23981   1.938   2.428   2.669 -0.5761 -0.4798 -0.2556
 6054SOL    HW223982   2.031   2.450   2.670 -1.0536  1.8633 -0.0054
 6054SOL    HW323983   1.908   2.454   2.582 -1.4638  1.3567  0.5370
 6054SOL    MW423984   1.946   2.435   2.658 -0.0490  0.1269  0.1673
 6055SOL     OW23985   4.909   5.333   5.779 -0.0964  0.0828  0.1197
 6055SOL    HW223986   4.958   5.258   5.744 -0.3669  0.1267 -0.3605
 6055SOL    HW323987   4.818   5.311   5.763 -0.1723  0.5765 -0.1471
 6055SOL    MW423988   4.904   5.320   5.772 -0.1280  0.3805  0.8644
 6056SOL     OW23989   5.882   5.426   0.037 -0.0716  0.5323 -0.1643
 6056SOL    HW223990   5.885   5.348   0.091  1.6606  1.3427  1.0126
 6056SOL    HW323991   5.894   5.394  -0.053 -1.1700 -0.6677  0.0872
 6056SOL    MW423992   5.884   5.412   0.032 -0.0583  0.1941  0.0508
 6057SOL     OW23993   1.526   0.679   5.883  0.0055 -0.1278 -0.0760
 6057SOL    HW223994   1.564   0.761   5.914  0.5791  0.4258 -2.1317
 6057SOL    HW323995   1.588   0.612   5.911  0.7502  0.4002 -0.4360
 6057SOL    MW423996   1.539   0.681   5.891 -0.6018  0.4283  0.1660
 6058SOL     OW23997   4.981   0.147   0.260  0.3257  0.2745 -0.8367
 6058SOL    HW223998   4.976   0.121   0.168 -1.3125 -3.0184  0.0033
 6058SOL    HW323999   5.009   0.067   0.305 -2.1105  0.7807  1.8197
 6058SOL    MW424000   4.984   0.133   0.254 -0.2368  0.4170  0.5187
 6059SOL     OW24001   5.260   4.189   0.089 -0.1409 -0.2165 -0.4461
 6059SOL    HW224002   5.266   4.184  -0.006  1.7714 -2.6320 -0.2807
 6059SOL    HW324003   5.256   4.098   0.118  0.8386  0.4043  1.8466
 6059SOL    MW424004   5.260   4.176   0.080  0.1899 -0.2374 -0.7914
 6060SOL     OW24005   3.023   2.896   3.028 -0.2694 -0.3832 -0.0118
 6060SOL    HW224006   2.940   2.848   3.033  0.5056 -1.7181  0.4245
 6060SOL    HW324007   3.082   2.838   2.979  0.6656  0.1466  0.4589
 6060SOL    MW424008   3.020   2.882   3.023 -0.1013  0.0688 -0.0460
 6061SOL     OW24009   3.431   5.024   3.637 -0.4082 -0.5468 -0.3813
 6061SOL    HW224010   3.370   4.951   3.649 -0.8344 -0.1176  0.1128
 6061SOL    HW324011   3.387   5.099   3.677  1.1398 -0.5545  1.4998
 6061SOL    MW424012   3.417   5.024   3.644  0.6144 -0.8851 -0.0192
 6062SOL     OW24013   5.817   3.869   3.288 -0.0199  0.7790  0.3405
 6062SOL    HW224014   5.804   3.945   3.345 -0.1944  0.2190  1.0727
 6062SOL    HW324015   5.729   3.834   3.275 -0.2415  1.9704 -1.8494
 6062SOL    MW424016   5.804   3.875   3.294 -0.2840  0.1032  0.0579
 6063SOL     OW24017   3.731   3.931   0.472 -0.1634  0.1364 -0.2443
 6063SOL    HW224018   3.797   3.943   0.403 -0.3921  2.0569 -0.1753
 6063SOL    HW324019   3.671   3.866   0.436  1.2598 -1.0153 -0.6625
 6063SOL    MW424020   3.732   3.924   0.458 -0.6769 -0.0931 -0.0002
 6064SOL     OW24021   6.068   4.102   1.751 -0.1427  0.0318 -0.0711
 6064SOL    HW224022   6.089   4.014   1.784 -1.6168 -0.1894  0.3875
 6064SOL    HW324023   6.064   4.091   1.656  1.6763  0.0945 -0.1873
 6064SOL    MW424024   6.070   4.089   1.743  0.4770  0.2321  0.1127
 6065SOL     OW24025   3.554   3.765   6.117  0.2543  0.3181 -0.1340
 6065SOL    HW224026   3.630   3.780   6.060  0.3509  1.1690  0.2065
 6065SOL    HW324027   3.497   3.839   6.101 -1.3181 -1.1256 -1.6191
 6065SOL    MW424028   3.557   3.777   6.107  0.0051 -0.4216  0.0465
 6066SOL     OW24029   3.710   2.440   1.064 -0.0374  0.1294 -0.0981
 6066SOL    HW224030   3.690   2.505   1.131  1.0880  0.1355  0.2477
 6066SOL    HW324031   3.802   2.418   1.078  0.1409 -0.0895 -1.4540
 6066SOL    MW424032   3.720   2.446   1.075  0.2061  0.3274 -0.3711
 6067SOL     OW24033   4.012   1.986   5.091  0.4760 -0.3986  0.0129
 6067SOL    HW224034   4.021   1.904   5.043 -1.0499  0.2627 -1.4976
 6067SOL    HW324035   3.971   2.046   5.029 -1.1161  0.6620  1.9823
 6067SOL    MW424036   4.008   1.983   5.077 -0.1165 -0.0997  0.6262
 6068SOL     OW24037   3.441   3.500   2.488  0.2303  1.1006  0.6253
 6068SOL    HW224038   3.517   3.557   2.479  1.1236 -0.2294 -0.6091
 6068SOL    HW324039   3.467   3.435   2.553  0.2915  0.4442 -0.0444
 6068SOL    MW424040   3.454   3.499   2.496 -0.5605 -0.5942 -0.1556
 6069SOL     OW24041   0.890   0.001   1.561 -0.2716  0.2325  0.5462
 6069SOL    HW224042   0.911   0.066   1.494 -2.8415  1.1494  0.5317
 6069SOL    HW324043   0.894  -0.083   1.516  1.1881  0.5274  0.0799
 6069SOL    MW424044   0.893  -0.001   1.546 -0.2509  0.2518  0.1267
 6070SOL     OW24045   5.231   2.526   4.650  0.1136  0.3439 -0.5676
 6070SOL    HW224046   5.272   2.473   4.581 -0.1020  0.0273 -0.4531
 6070SOL    HW324047   5.243   2.475   4.730 -3.2738 -1.3473 -0.9706
 6070SOL    MW424048   5.238   2.512   4.651 -0.4562 -0.5758  0.2648
 6071SOL     OW24049   5.825   0.312   0.693 -0.1290 -0.5830 -0.3721
 6071SOL    HW224050   5.853   0.317   0.602 -1.4624  0.8532 -0.7494
 6071SOL    HW324051   5.778   0.394   0.709  0.5324 -0.5475  1.7850
 6071SOL    MW424052   5.823   0.323   0.683 -0.2288  0.1076  0.7421
 6072SOL     OW24053   1.537   5.137   1.284 -0.2288  0.1619 -0.4219
 6072SOL    HW224054   1.603   5.109   1.347 -0.6577  0.6162  0.2435
 6072SOL    HW324055   1.588   5.169   1.209  0.2986  0.0961 -0.1009
 6072SOL    MW424056   1.553   5.137   1.282 -0.6210 -0.2526 -0.2745
 6073SOL     OW24057   4.944   4.932   4.205  0.3540 -0.5594  0.0377
 6073SOL    HW224058   4.998   4.909   4.280  0.9294 -1.7587 -0.7106
 6073SOL    HW324059   4.865   4.878   4.214  0.7273 -1.2251 -0.5609
 6073SOL    MW424060   4.940   4.922   4.216 -0.8154 -0.0451 -0.0779
 6074SOL     OW24061   2.232   4.537   5.981 -0.9885  0.0207 -0.6392
 6074SOL    HW224062   2.194   4.558   5.896 -0.5058 -1.9080 -1.3985
 6074SOL    HW324063   2.296   4.468   5.962  1.8737  2.0504  0.7674
 6074SOL    MW424064   2.236   4.530   5.967  0.3423  0.2632 -0.3934
 6075SOL     OW24065   5.963   5.092   4.922  0.1779  0.0964  0.2816
 6075SOL    HW224066   6.021   5.019   4.902  0.2505 -0.2302  1.6103
 6075SOL    HW324067   5.984   5.158   4.857  3.2389  0.6547  1.6913
 6075SOL    MW424068   5.973   5.091   4.911 -0.5256  0.0399 -0.1124
 6076SOL     OW24069   1.517   5.994   2.454  0.4171  0.1298  0.1521
 6076SOL    HW224070   1.595   5.961   2.499  0.9592  1.0737 -0.0628
 6076SOL    HW324071   1.549   6.019   2.367  0.4008  2.6918  0.8227
 6076SOL    MW424072   1.532   5.993   2.448  0.2580  0.2242  0.4138
 6077SOL     OW24073   4.838   5.930   2.431 -0.1866  0.1062  0.8962
 6077SOL    HW224074   4.833   5.935   2.336  4.2789 -1.2245  0.3417
 6077SOL    HW324075   4.862   6.019   2.459  2.3523 -0.2724  0.1877
 6077SOL    MW424076   4.841   5.943   2.422  0.5426  0.2604  0.4992
 6078SOL     OW24077   0.317   5.232   0.787  0.3581 -0.2514  0.5067
 6078SOL    HW224078   0.368   5.245   0.867  0.4314 -0.2762  0.4646
 6078SOL    HW324079   0.231   5.269   0.806  0.6238  0.4801  0.3181
 6078SOL    MW424080   0.313   5.238   0.800 -0.4504 -0.2868 -0.7337
 6079SOL     OW24081   0.507   1.715   5.212  0.0823  0.7022  0.0295
 6079SOL    HW224082   0.519   1.758   5.296  2.2872 -0.6716  0.5122
 6079SOL    HW324083   0.443   1.646   5.229  0.5815  0.3755  0.6407
 6079SOL    MW424084   0.500   1.712   5.225 -0.2114 -0.3087  0.3076
 6080SOL     OW24085   3.769   1.631   0.162 -0.3411  0.2610 -0.1609
 6080SOL    HW224086   3.697   1.570   0.176  0.9097 -1.3553 -0.4543
 6080SOL    HW324087   3.848   1.581   0.184  0.6989  2.0390  0.3590
 6080SOL    MW424088   3.770   1.617   0.166 -0.3871 -0.1675 -0.2133
 6081SOL     OW24089   2.505   3.218   1.640 -0.6654 -0.5804 -0.6773
 6081SOL    HW224090   2.585   3.266   1.660 -0.8576 -0.6868  0.4054
 6081SOL    HW324091   2.536   3.133   1.610 -0.3655 -0.6624 -0.1543
 6081SOL    MW424092   2.520   3.213   1.639  0.6130 -0.3727 -0.4900
 6082SOL     OW24093   3.961   3.392   1.954 -0.0937  0.0036 -0.0149
 6082SOL    HW224094   4.052   3.399   1.923 -0.3418 -0.7712 -0.9790
 6082SOL    HW324095   3.920   3.474   1.926  0.4524  0.6506  1.0019
 6082SOL    MW424096   3.968   3.404   1.946 -0.0885  0.0027 -0.1971
 6083SOL     OW24097   5.004   0.317   1.206 -0.0180  0.2279 -0.3239
 6083SOL    HW224098   5.015   0.320   1.301 -2.3659  0.4906  0.0116
 6083SOL    HW324099   4.995   0.409   1.180 -0.4464  0.1076 -0.6174
 6083SOL    MW424100   5.004   0.330   1.215 -0.0347 -1.0847  0.6159
 6084SOL     OW24101   5.632   5.409   4.692  0.0996 -0.0316 -0.2285
 6084SOL    HW224102   5.537   5.412   4.686  0.1991  0.2333 -2.0109
 6084SOL    HW324103   5.656   5.324   4.654  0.6999  0.9428 -2.1329
 6084SOL    MW424104   5.623   5.398   4.686  0.2399  0.3843 -0.0413
 6085SOL     OW24105   0.041   0.926   0.397  0.5848 -0.0347  0.1651
 6085SOL    HW224106   0.102   0.852   0.390  2.4155  1.4635 -0.6562
 6085SOL    HW324107   0.068   0.986   0.328 -0.1034  1.9258  1.5139
 6085SOL    MW424108   0.053   0.924   0.387 -0.6345 -0.0552 -0.2203
 6086SOL     OW24109   4.739   5.977   6.258  0.6022  0.0331  0.7033
 6086SOL    HW224110   4.654   5.943   6.232  0.7873 -1.4541  1.9343
 6086SOL    HW324111   4.777   5.909   6.313  2.1244  1.1375  1.0936
 6086SOL    MW424112   4.733   5.964   6.262  0.7471 -0.2597 -0.2251
 6087SOL     OW24113   0.707   3.608   3.340  0.8273 -0.4550 -0.3968
 6087SOL    HW224114   0.653   3.629   3.416  2.0322 -0.5885  0.5217
 6087SOL    HW324115   0.714   3.691   3.292  1.4332  0.0529  0.5401
 6087SOL    MW424116   0.700   3.622   3.343  0.4009  0.3722  0.4456
 6088SOL     OW24117   0.099   0.290   3.369 -0.1215  0.5307 -0.1759
 6088SOL    HW224118   0.066   0.224   3.308  1.1838 -1.0290  0.7235
 6088SOL    HW324119   0.173   0.248   3.412 -1.2524  1.3545  2.8498
 6088SOL    MW424120   0.104   0.275   3.367  0.7121  0.6611  0.2353
 6089SOL     OW24121   2.418   5.432   6.201 -0.0539 -0.1893 -0.1945
 6089SOL    HW224122   2.323   5.422   6.214  0.0299 -0.8688 -0.0724
 6089SOL    HW324123   2.451   5.461   6.286 -0.2106  0.5010 -0.3637
 6089SOL    MW424124   2.410   5.434   6.214  0.9491  0.1319 -0.2677
 6090SOL     OW24125   0.800   2.403   5.016 -0.1463  0.4221 -0.0626
 6090SOL    HW224126   0.753   2.435   5.093 -3.2725  0.8560 -1.9845
 6090SOL    HW324127   0.732   2.367   4.960  2.0037  0.1184 -2.6572
 6090SOL    MW424128   0.785   2.402   5.019 -0.0693  0.3874 -0.0733
 6091SOL     OW24129   0.978   2.959   1.658  0.2357 -0.4809 -0.1654
 6091SOL    HW224130   0.954   3.042   1.617  3.3185  0.5122 -0.2581
 6091SOL    HW324131   0.935   2.960   1.743  0.6686  1.5173  0.0757
 6091SOL    MW424132   0.969   2.970   1.664 -0.5370 -0.1054 -0.0868
 6092SOL     OW24133   3.243   3.884   5.968 -0.0263  0.9444  0.0350
 6092SOL    HW224134   3.260   3.823   6.040  0.0810  2.0349  0.9616
 6092SOL    HW324135   3.329   3.915   5.942  0.0232 -0.2552 -1.3201
 6092SOL    MW424136   3.256   3.880   5.974 -0.4616 -0.6317 -0.2453
 6093SOL     OW24137   2.182   6.073   5.606 -0.0365 -0.3235 -0.3917
 6093SOL    HW224138   2.265   6.109   5.576 -0.4239  1.0246  0.0880
 6093SOL    HW324139   2.116   6.119   5.554 -0.5518 -0.2312  0.3320
 6093SOL    MW424140   2.184   6.084   5.595 -0.2181  0.3582  0.7951
 6094SOL     OW24141   2.557   4.419   5.309  0.3104 -0.0351  0.3534
 6094SOL    HW224142   2.608   4.490   5.270  0.6623 -0.7519 -0.5167
 6094SOL    HW324143   2.468   4.454   5.314  0.6583  0.8136  0.8341
 6094SOL    MW424144   2.552   4.433   5.304  0.0043 -0.5368 -0.0347
 6095SOL     OW24145   4.399   1.875   5.353  0.2550  0.1188  0.4514
 6095SOL    HW224146   4.490   1.858   5.378  0.3283 -0.2734 -0.0709
 6095SOL    HW324147   4.375   1.801   5.298 -0.5203  0.0103  0.9206
 6095SOL    MW424148   4.408   1.863   5.349  0.2430  0.1385 -0.7453
 6096SOL     OW24149   2.512   3.277   6.126  0.2532  0.6704 -0.4002
 6096SOL    HW224150   2.544   3.191   6.154  1.7953  0.9130 -1.3017
 6096SOL    HW324151   2.430   3.289   6.175 -0.0450 -1.3280 -0.3236
 6096SOL    MW424152   2.505   3.267   6.136 -0.1348 -0.5178 -0.0412
 6097SOL     OW24153   4.501   1.575   6.119 -0.4073  0.9145  0.1419
 6097SOL    HW224154   4.534   1.561   6.207 -0.3934  0.0085  0.0002
 6097SOL    HW324155   4.536   1.502   6.068 -2.0345  0.2985 -0.1615
 6097SOL    MW424156   4.510   1.563   6.124  0.1163  0.0195  0.5969
 6098SOL     OW24157   1.247   1.704   3.301  0.6491 -0.0867 -0.1941
 6098SOL    HW224158   1.323   1.703   3.242  0.5033  1.6842 -0.4841
 6098SOL    HW324159   1.200   1.784   3.276 -0.4643 -0.3372  1.0430
 6098SOL    MW424160   1.251   1.714   3.290  0.4065  0.0087  0.2018
 6099SOL     OW24161   2.011   1.339   2.598 -0.0548 -0.0398  0.5566
 6099SOL    HW224162   2.048   1.405   2.657 -1.1978  0.2726  0.9421
 6099SOL    HW324163   1.932   1.307   2.643  0.4030 -1.5996  0.3311
 6099SOL    MW424164   2.006   1.343   2.612 -0.0680 -0.0057  0.1221
 6100SOL     OW24165   6.188   2.274   6.101  0.2458 -0.6118 -0.1389
 6100SOL    HW224166   6.239   2.196   6.126  0.1419 -1.0059 -1.1280
 6100SOL    HW324167   6.216   2.293   6.012  0.9806  1.0810  0.4238
 6100SOL    MW424168   6.198   2.266   6.093 -0.3620 -0.5089  0.2126
 6101SOL     OW24169   2.710   1.718   4.356 -0.6397  0.2084  0.3200
 6101SOL    HW224170   2.648   1.712   4.283 -1.4006  0.6472  0.9114
 6101SOL    HW324171   2.742   1.808   4.353  0.8841 -0.3380 -0.6909
 6101SOL    MW424172   2.706   1.729   4.346 -0.0002 -0.0227  0.8621
 6102SOL     OW24173   0.607   6.280   5.408  0.6944  0.2144 -0.0037
 6102SOL    HW224174   0.571   6.298   5.495  0.6002  1.3361 -0.2628
 6102SOL    HW324175   0.607   6.184   5.402 -0.3777  0.1476  0.7707
 6102SOL    MW424176   0.603   6.269   5.419  0.1996 -0.4084 -0.8675
 6103SOL     OW24177   5.457   3.298   0.665 -0.1651  0.4142 -0.2630
 6103SOL    HW224178   5.545   3.277   0.632 -0.2290  1.4494 -1.1723
 6103SOL    HW324179   5.451   3.393   0.655 -1.1209  0.4320  0.4858
 6103SOL    MW424180   5.468   3.308   0.659 -0.2880  0.1568  0.3469
 6104SOL     OW24181   1.350   4.893   2.040  0.4357 -0.7769 -0.4843
 6104SOL    HW224182   1.372   4.844   1.961 -0.4743  1.2934 -2.1015
 6104SOL    HW324183   1.293   4.834   2.090 -2.8349 -0.5499 -3.5919
 6104SOL    MW424184   1.345   4.878   2.036 -0.4387  0.0456  0.0032
 6105SOL     OW24185   3.245   5.603   4.502 -0.3982 -0.0519 -0.2981
 6105SOL    HW224186   3.247   5.688   4.547 -1.7258  0.6915 -1.5534
 6105SOL    HW324187   3.261   5.625   4.410 -0.6057 -1.1974 -0.6225
 6105SOL    MW424188   3.248   5.617   4.496 -0.4870  0.4708  0.9211
 6106SOL     OW24189   5.916   0.399   3.027 -0.4812  0.3891 -0.2483
 6106SOL    HW224190   5.974   0.381   3.100 -0.1096 -1.5381 -0.9385
 6106SOL    HW324191   5.845   0.452   3.064 -0.2855 -0.5102  1.4982
 6106SOL    MW424192   5.914   0.403   3.041 -0.0671  0.0272  0.4471
 6107SOL     OW24193   2.849   1.307   1.535 -0.3818  0.2390 -0.1161
 6107SOL    HW224194   2.860   1.237   1.470  0.7035  0.5309 -0.2608
 6107SOL    HW324195   2.765   1.287   1.577 -0.4802 -0.6849 -0.7163
 6107SOL    MW424196   2.839   1.295   1.532  0.2036  0.2995 -0.0470
 6108SOL     OW24197   5.460   0.722   5.456  0.1894 -0.1656 -0.0211
 6108SOL    HW224198   5.522   0.790   5.482  1.3609 -1.5251  0.8992
 6108SOL    HW324199   5.505   0.676   5.384  1.0985 -2.2159  1.7345
 6108SOL    MW424200   5.474   0.725   5.450  0.4017  0.2898 -0.0255
 6109SOL     OW24201   4.842   5.389   0.502 -0.2353  0.5142 -0.1095
 6109SOL    HW224202   4.860   5.386   0.408  0.5954 -0.4198  0.0705
 6109SOL    HW324203   4.773   5.455   0.511 -1.3313 -0.3879 -1.5397
 6109SOL    MW424204   4.835   5.397   0.491 -0.1428 -0.2083 -0.6190
 6110SOL     OW24205   5.407   6.264   1.793 -0.1668  0.2181  0.2958
 6110SOL    HW224206   5.368   6.347   1.819 -0.4952  0.6299 -1.3882
 6110SOL    HW324207   5.465   6.286   1.720  0.1702 -0.9557  0.1831
 6110SOL    MW424208   5.410   6.278   1.787 -0.1672  0.0155  0.8627
 6111SOL     OW24209   3.722   4.189   0.217 -0.3477 -0.4401  0.1039
 6111SOL    HW224210   3.760   4.113   0.263  0.0595 -0.7352 -0.7100
 6111SOL    HW324211   3.642   4.154   0.177  0.1381 -0.5887 -0.7487
 6111SOL    MW424212   3.716   4.174   0.218  0.3585 -0.4198 -0.1320
 6112SOL     OW24213   4.368   5.178   1.311  0.0145 -0.1587  0.3030
 6112SOL    HW224214   4.372   5.084   1.332  1.1972 -0.2833 -0.3752
 6112SOL    HW324215   4.378   5.181   1.216  0.7672  0.6953  0.3950
 6112SOL    MW424216   4.369   5.166   1.301 -0.0477  0.5371 -0.0715
 6113SOL     OW24217   2.494   1.655   2.389 -0.2395  0.1660  0.1621
 6113SOL    HW224218   2.511   1.745   2.418 -1.5707  0.4553  0.1113
 6113SOL    HW324219   2.477   1.663   2.295  0.5138 -0.2828 -0.0243
 6113SOL    MW424220   2.494   1.668   2.381  0.2863  0.7362  0.9112
 6114SOL     OW24221   2.268   6.202   3.218  0.0499 -0.5047 -0.2291
 6114SOL    HW224222   2.358   6.208   3.185 -0.7902 -1.5151 -2.9961
 6114SOL    HW324223   2.225   6.280   3.184  0.1579  0.7957  2.3821
 6114SOL    MW424224   2.274   6.213   3.209 -0.1097  0.9356 -0.3194
 6115SOL     OW24225   2.755   0.812   0.761  0.6323 -0.2772  0.1657
 6115SOL    HW224226   2.824   0.746   0.764  0.6495 -0.3867 -1.7005
 6115SOL    HW324227   2.715   0.801   0.675 -0.3184  1.1852  0.3948
 6115SOL    MW424228   2.759   0.802   0.750 -0.3069  0.1556  0.7656
 6116SOL     OW24229   1.520   4.198   0.778  0.1310 -0.0802  0.4494
 6116SOL    HW224230   1.451   4.261   0.757  0.2963  0.7435  2.1282
 6116SOL    HW324231   1.591   4.220   0.718  0.2887  1.5903  1.1755
 6116SOL    MW424232   1.521   4.209   0.768 -0.2795 -0.4740  0.0047
 6117SOL     OW24233   2.815   5.838   2.160  0.4449 -0.2127 -0.1432
 6117SOL    HW224234   2.863   5.777   2.215  0.8830 -0.6309 -0.9801
 6117SOL    HW324235   2.728   5.799   2.152  0.2474  0.0637  0.5898
 6117SOL    MW424236   2.810   5.825   2.166  0.5513  0.0485  0.4900
 6118SOL     OW24237   4.760   3.573   0.239 -0.1711  0.0026 -0.2245
 6118SOL    HW224238   4.826   3.638   0.217  0.0568 -0.5244 -1.1946
 6118SOL    HW324239   4.780   3.547   0.329 -0.0685  1.0123  0.0561
 6118SOL    MW424240   4.771   3.578   0.248 -0.1735 -0.4687 -0.5330
 6119SOL     OW24241   4.982   0.516   5.326  0.4425 -0.0748 -0.3495
 6119SOL    HW224242   4.933   0.486   5.250 -0.1783  2.3322 -0.9608
 6119SOL    HW324243   4.916   0.529   5.394  0.6380  0.2627 -0.2217
 6119SOL    MW424244   4.967   0.514   5.325 -0.0397  0.1320  0.1491
 6120SOL     OW24245   2.001   3.637   1.572  0.0990  0.2094  0.1115
 6120SOL    HW224246   1.926   3.664   1.625  1.2258  1.7273  1.0083
 6120SOL    HW324247   1.972   3.650   1.481 -0.5377  1.3470  0.4578
 6120SOL    MW424248   1.987   3.642   1.567  0.5209  0.0080  0.7363
 6121SOL     OW24249   3.950   4.888   0.757  0.0094 -0.4361 -0.4434
 6121SOL    HW224250   3.952   4.888   0.853  2.3766  0.1883 -0.4268
 6121SOL    HW324251   3.873   4.940   0.734 -0.8102 -0.9141  1.0980
 6121SOL    MW424252   3.940   4.895   0.766 -0.0898 -0.0684  0.4654
 6122SOL     OW24253   3.700   2.935   2.936 -0.0824  0.4628 -0.1216
 6122SOL    HW224254   3.616   2.890   2.926 -0.0162  0.2051  0.4526
 6122SOL    HW324255   3.725   2.920   3.027 -0.3993  2.2537  0.3061
 6122SOL    MW424256   3.692   2.927   2.947 -0.2378  0.3131 -0.0984
 6123SOL     OW24257   3.637   1.966   4.263  0.7194  0.3365 -0.1400
 6123SOL    HW224258   3.629   1.887   4.317  0.6775  0.9853  0.8381
 6123SOL    HW324259   3.722   2.003   4.288  1.6240 -0.3735 -1.9741
 6123SOL    MW424260   3.647   1.961   4.274  0.4709 -0.2237  0.5488
 6124SOL     OW24261   2.559   1.898   2.503  0.1962 -0.0783  0.1612
 6124SOL    HW224262   2.532   1.982   2.464 -1.9667 -0.7933  0.0340
 6124SOL    HW324263   2.645   1.917   2.541  0.1970  1.9404 -0.6964
 6124SOL    MW424264   2.567   1.912   2.503  0.4586 -0.2112 -0.1915
 6125SOL     OW24265   3.731   5.179   2.641 -0.5525 -0.3297  0.0641
 6125SOL    HW224266   3.715   5.206   2.731  1.4998  1.1680  0.0422
 6125SOL    HW324267   3.646   5.189   2.597 -1.3467 -0.1450  1.5838
 6125SOL    MW424268   3.718   5.184   2.647  0.4279  0.2693  0.5259
 6126SOL     OW24269   2.480   5.410   0.503 -1.3485  0.4529  0.8759
 6126SOL    HW224270   2.519   5.435   0.587 -3.1972  0.7558  1.7111
 6126SOL    HW324271   2.389   5.440   0.510 -1.7624 -0.2791 -0.9169
 6126SOL    MW424272   2.473   5.418   0.515 -0.1714 -0.3673  0.9415
 6127SOL     OW24273   0.429   0.840   2.061  0.9300 -0.0887  0.4408
 6127SOL    HW224274   0.372   0.771   2.092 -0.1002  0.0056 -1.1432
 6127SOL    HW324275   0.434   0.902   2.134  0.9955 -1.2763  1.4734
 6127SOL    MW424276   0.422   0.839   2.075  0.3902  0.1786  0.6345
 6128SOL     OW24277   1.500   0.808   4.547  0.2955  0.0081 -0.2023
 6128SOL    HW224278   1.594   0.801   4.563  0.5928  0.5547 -1.6064
 6128SOL    HW324279   1.491   0.806   4.452 -1.1807 -0.7057 -0.0823
 6128SOL    MW424280   1.511   0.807   4.537 -0.5265 -0.2966  1.2632
 6129SOL     OW24281   6.135   2.656   0.792  0.1320  0.3706 -0.7890
 6129SOL    HW224282   6.151   2.740   0.749  0.7449  0.7944  0.2375
 6129SOL    HW324283   6.049   2.629   0.761 -0.3801  1.7221 -0.6071
 6129SOL    MW424284   6.126   2.663   0.782  0.1474 -0.1893 -0.7371
 6130SOL     OW24285   3.919   1.786   0.881  0.6561 -0.1743 -0.3882
 6130SOL    HW224286   3.985   1.780   0.812 -0.4495 -0.4400 -1.4708
 6130SOL    HW324287   3.957   1.738   0.955  1.8888  0.1553 -0.7776
 6130SOL    MW424288   3.933   1.778   0.882  0.3856 -0.0291 -0.2311
 6131SOL     OW24289   4.751   4.533   4.516 -0.5607  0.1587 -0.1710
 6131SOL    HW224290   4.822   4.556   4.457 -1.6854 -0.8147 -2.0107
 6131SOL    HW324291   4.708   4.616   4.536  0.2447  0.5798 -0.1881
 6131SOL    MW424292   4.754   4.547   4.511  0.1474 -0.0557 -0.3168
 6132SOL     OW24293   6.198   2.764   6.118 -0.0700  0.2979  0.5312
 6132SOL    HW224294   6.245   2.710   6.054  0.0638  2.9580 -1.8250
 6132SOL    HW324295   6.264   2.820   6.156 -0.6030  0.7414  0.8126
 6132SOL    MW424296   6.213   2.764   6.114  0.0233  0.1537  0.2693
 6133SOL     OW24297   5.813   1.324   3.468  0.3892 -0.1847  0.3970
 6133SOL    HW224298   5.897   1.363   3.443  0.2591 -0.4971 -0.5538
 6133SOL    HW324299   5.783   1.379   3.541  0.7158  0.8459 -0.2163
 6133SOL    MW424300   5.821   1.336   3.474 -0.1253  0.2309  0.2460
 6134SOL     OW24301   2.889   2.725   1.790  0.3586  0.0291 -0.4464
 6134SOL    HW224302   2.829   2.800   1.789  0.2687  0.1631  3.2669
 6134SOL    HW324303   2.965   2.754   1.838  1.8858 -1.2997 -1.9066
 6134SOL    MW424304   2.891   2.738   1.796  0.5015 -0.4423  0.5056
 6135SOL     OW24305   0.713   3.698   0.981 -0.8342  0.3334 -0.0388
 6135SOL    HW224306   0.804   3.728   0.973 -0.8697  0.1995 -1.1067
 6135SOL    HW324307   0.716   3.606   0.953 -1.4284  0.5670 -0.9067
 6135SOL    MW424308   0.725   3.690   0.976  0.8290  0.1378  0.1338
 6136SOL     OW24309   2.771   5.423   6.333 -0.5560 -0.6643 -0.1747
 6136SOL    HW224310   2.858   5.388   6.350 -0.6183 -0.4490  0.6207
 6136SOL    HW324311   2.784   5.493   6.269 -0.0786 -0.2826  0.3384
 6136SOL    MW424312   2.784   5.427   6.327 -0.2137 -0.4265 -0.4592
 6137SOL     OW24313   3.924   4.292   2.418  0.0909 -0.1721  0.4155
 6137SOL    HW224314   3.862   4.273   2.488 -1.6771  0.8855 -0.7965
 6137SOL    HW324315   3.914   4.385   2.401  1.1015 -0.2355 -0.6926
 6137SOL    MW424316   3.915   4.302   2.425 -0.2746 -0.3809 -0.4648
 6138SOL     OW24317   0.609   1.676   5.748 -0.4473 -0.1753 -0.0689
 6138SOL    HW224318   0.600   1.740   5.677  0.1696  1.8130  1.5700
 6138SOL    HW324319   0.570   1.718   5.824 -1.3138 -2.3544  0.7844
 6138SOL    MW424320   0.603   1.690   5.749 -0.0548  0.1163  0.8154
 6139SOL     OW24321   1.541   4.086   3.344 -0.2543  0.2662  0.2533
 6139SOL    HW224322   1.545   4.156   3.278  0.9709  0.9340  0.9807
 6139SOL    HW324323   1.486   4.019   3.305 -0.1608  0.9619 -1.1424
 6139SOL    MW424324   1.534   4.087   3.330 -0.4576  0.2159  0.0232
 6140SOL     OW24325   0.504   0.997   2.289  0.2756 -0.0708  0.4967
 6140SOL    HW224326   0.476   0.919   2.337  2.8859 -0.9281  0.7695
 6140SOL    HW324327   0.463   1.070   2.335 -0.1570 -1.1243  1.8324
 6140SOL    MW424328   0.495   0.996   2.301  0.0253  0.0793  0.6289
 6141SOL     OW24329   0.885   6.273   2.893  0.5791  0.0873  0.0836
 6141SOL    HW224330   0.826   6.348   2.889  0.6988  0.1987  0.4047
 6141SOL    HW324331   0.833   6.199   2.862 -0.1291 -0.0742  1.5882
 6141SOL    MW424332   0.871   6.273   2.888 -0.6300 -0.6763 -0.4569
 6142SOL     OW24333   4.554   5.244   6.051  0.1327 -0.4863 -0.0772
 6142SOL    HW224334   4.469   5.264   6.090 -0.8218 -1.5947 -1.4805
 6142SOL    HW324335   4.568   5.151   6.071  0.9902 -0.3337  0.0782
 6142SOL    MW424336   4.545   5.234   6.059  0.3374  0.4133 -0.1532
 6143SOL     OW24337   1.716   1.359   2.309  0.3886  0.1575  0.0441
 6143SOL    HW224338   1.736   1.271   2.341  1.3781 -0.0127 -0.9538
 6143SOL    HW324339   1.796   1.409   2.327  0.3626  0.4687 -0.6608
 6143SOL    MW424340   1.730   1.354   2.315 -0.3459  0.1117  0.5678
 6144SOL     OW24341   1.845   3.038   5.059  0.4548  0.3043 -0.5504
 6144SOL    HW224342   1.842   2.949   5.024  0.9740 -0.8635  2.1287
 6144SOL    HW324343   1.898   3.031   5.138 -0.1669  2.8536  0.1808
 6144SOL    MW424344   1.851   3.025   5.065  0.0451  0.6172 -0.8187
 6145SOL     OW24345   1.476   0.087   5.819 -0.0422 -0.3407  0.5563
 6145SOL    HW224346   1.566   0.116   5.837  1.0542 -3.4279  0.7664
 6145SOL    HW324347   1.474   0.072   5.725 -1.4747  2.7556 -0.0349
 6145SOL    MW424348   1.488   0.089   5.809 -0.0706  0.0928  0.0872
 6146SOL     OW24349   4.878   1.848   4.843 -0.0539  0.3934 -0.4499
 6146SOL    HW224350   4.938   1.878   4.774  0.1761 -0.1570 -0.4939
 6146SOL    HW324351   4.806   1.911   4.841 -0.3207  0.0734 -1.5604
 6146SOL    MW424352   4.877   1.861   4.833  0.3644 -0.4270  0.6982
 6147SOL     OW24353   2.600   5.076   2.188  0.1194 -0.0513 -0.0737
 6147SOL    HW224354   2.568   5.156   2.230 -0.7693  1.4249 -3.2525
 6147SOL    HW324355   2.676   5.103   2.138 -0.1638 -1.1782 -1.1891
 6147SOL    MW424356   2.606   5.090   2.187 -0.0657  0.2975  0.4480
 6148SOL     OW24357   1.129   0.353   5.310 -0.5398  0.2725 -0.1679
 6148SOL    HW224358   1.134   0.339   5.404  1.1489 -0.0489 -0.2793
 6148SOL    HW324359   1.148   0.268   5.271 -0.8587  0.4870 -0.8190
 6148SOL    MW424360   1.132   0.340   5.317  0.1301  0.0569 -0.6710
 6149SOL     OW24361   5.737   2.670   5.157  0.2557 -0.0944 -0.7822
 6149SOL    HW224362   5.699   2.618   5.086 -1.3064  1.5922 -1.2649
 6149SOL    HW324363   5.724   2.617   5.236  0.5671 -1.2945 -1.5050
 6149SOL    MW424364   5.730   2.656   5.158  0.9794 -0.3787  0.6206
 6150SOL     OW24365   6.199   2.285   0.312  0.5126 -0.5908  0.4824
 6150SOL    HW224366   6.109   2.309   0.333  0.2890 -2.2764  1.6823
 6150SOL    HW324367   6.247   2.368   0.313 -0.5540  0.0642  2.3960
 6150SOL    MW424368   6.194   2.299   0.315  0.2845 -0.0150  0.1827
 6151SOL     OW24369   6.274   3.658   2.638  0.6951 -0.1412 -0.7775
 6151SOL    HW224370   6.275   3.605   2.718  2.0021  0.5520 -0.3023
 6151SOL    HW324371   6.182   3.661   2.612  0.3614 -1.0906  0.2217
 6151SOL    MW424372   6.262   3.651   2.645 -0.9367 -0.3303  0.4103
 6152SOL     OW24373   1.607   5.060   0.546 -0.0607 -0.4126  0.5688
 6152SOL    HW224374   1.650   5.066   0.631 -0.9387 -2.1565  1.1958
 6152SOL    HW324375   1.535   4.998   0.560 -0.8004 -0.0110 -1.2154
 6152SOL    MW424376   1.604   5.052   0.559  0.3633 -0.0848  0.0372
 6153SOL     OW24377   5.162   6.225   6.082 -0.2697 -0.3583 -0.4286
 6153SOL    HW224378   5.194   6.138   6.107  0.9095  0.2059  0.0780
 6153SOL    HW324379   5.076   6.231   6.125 -0.0887 -1.0235  0.0564
 6153SOL    MW424380   5.155   6.214   6.091 -0.1142  0.5394 -0.3552
 6154SOL     OW24381   5.909   0.422   4.225  0.2472  0.2084  0.1517
 6154SOL    HW224382   5.860   0.439   4.305 -0.7029 -1.2001 -0.0806
 6154SOL    HW324383   5.980   0.485   4.226 -1.5688  2.3568  0.4993
 6154SOL    MW424384   5.912   0.432   4.236 -0.2422 -0.2864 -0.0918
 6155SOL     OW24385   5.269   0.211   2.455  0.5407 -0.3663  0.3602
 6155SOL    HW224386   5.361   0.234   2.454  0.7362 -1.1127 -0.3050
 6155SOL    HW324387   5.230   0.263   2.385  0.6841 -0.8724 -0.1065
 6155SOL    MW424388   5.276   0.221   2.445 -0.0399 -0.1470  0.9037
 6156SOL     OW24389   3.907   1.618   4.425  0.1398 -0.4067 -0.1173
 6156SOL    HW224390   3.845   1.546   4.433 -0.2747 -0.1100 -0.6355
 6156SOL    HW324391   3.933   1.618   4.333  2.2095 -1.5978  0.4028
 6156SOL    MW424392   3.902   1.609   4.414 -0.2100  0.0314  0.6019
 6157SOL     OW24393   1.711   2.017   0.272  0.8478 -0.4726 -0.5586
 6157SOL    HW224394   1.683   2.054   0.355 -0.7584 -3.2017  0.2414
 6157SOL    HW324395   1.805   2.004   0.282  0.8857  0.3773  0.3292
 6157SOL    MW424396   1.720   2.020   0.284 -0.1127  0.1064  0.2268
 6158SOL     OW24397   5.675   3.902   1.270  0.0140  0.0526  0.5869
 6158SOL    HW224398   5.636   3.829   1.318  0.1298 -0.3424  0.0883
 6158SOL    HW324399   5.619   3.914   1.194  2.2609 -2.3033 -1.6429
 6158SOL    MW424400   5.663   3.894   1.266  0.0805 -0.0093 -0.3713
 6159SOL     OW24401   4.313   1.105   3.592 -0.1251 -0.0758  0.4781
 6159SOL    HW224402   4.264   1.086   3.672  1.0965 -0.1267  1.2258
 6159SOL    HW324403   4.389   1.155   3.621 -0.9073  2.1186 -0.9364
 6159SOL    MW424404   4.316   1.109   3.606  0.3422  0.0005  0.3009
 6160SOL     OW24405   0.519   0.557   0.995 -0.0872 -0.3798 -0.4769
 6160SOL    HW224406   0.527   0.573   1.089  0.4088 -0.0510 -0.5685
 6160SOL    HW324407   0.472   0.474   0.988 -0.6898 -0.0885  0.0490
 6160SOL    MW424408   0.514   0.548   1.006 -0.2152  0.7494  0.1898
 6161SOL     OW24409   5.007   0.445   3.129 -0.5531 -0.1825  0.3472
 6161SOL    HW224410   5.014   0.532   3.089  1.6030 -0.7638 -0.6778
 6161SOL    HW324411   5.066   0.449   3.205  0.0132 -0.9178 -0.0464
 6161SOL    MW424412   5.016   0.457   3.134  0.6117 -0.0670 -0.0793
 6162SOL     OW24413   3.591   5.107   3.425  0.0791 -0.6638 -0.0360
 6162SOL    HW224414   3.534   5.093   3.501  0.2921  0.1743  0.2833
 6162SOL    HW324415   3.534   5.144   3.359  0.5649  1.8426  0.8600
 6162SOL    MW424416   3.576   5.110   3.427  0.2296  0.3297  0.5106
 6163SOL     OW24417   4.194   5.089   6.078 -0.2825  0.4295  0.1730
 6163SOL    HW224418   4.239   5.008   6.052 -0.9336 -0.1852  0.8897
 6163SOL    HW324419   4.109   5.059   6.109  0.0313  1.2184  1.9052
 6163SOL    MW424420   4.189   5.074   6.079  0.1962  0.2105  0.0215
 6164SOL     OW24421   6.348   4.211   5.665  0.1196 -0.1355  0.0996
 6164SOL    HW224422   6.323   4.125   5.697  0.0395 -1.4980 -3.1796
 6164SOL    HW324423   6.430   4.231   5.710 -0.6459 -1.1462  2.0771
 6164SOL    MW424424   6.355   4.203   5.675 -0.1168 -0.0450 -0.2226
 6165SOL     OW24425   3.186   5.329   0.584  0.0602  0.0274 -0.3482
 6165SOL    HW224426   3.134   5.382   0.524  3.7066  1.8396 -2.2111
 6165SOL    HW324427   3.254   5.291   0.529  0.1262 -3.2589  1.7179
 6165SOL    MW424428   3.188   5.331   0.569 -0.0244 -0.4463  0.2153
 6166SOL     OW24429   2.344   6.384   5.503  0.6303  0.0419 -0.0016
 6166SOL    HW224430   2.379   6.465   5.467 -1.1161  0.6181 -0.4954
 6166SOL    HW324431   2.393   6.370   5.583  1.5685  1.0986 -0.3650
 6166SOL    MW424432   2.355   6.393   5.508 -0.4840  0.1297  0.2840
 6167SOL     OW24433   2.605   4.860   2.591  0.3569 -0.6087  0.3179
 6167SOL    HW224434   2.635   4.866   2.500  0.4715 -0.8348  0.3411
 6167SOL    HW324435   2.556   4.941   2.605 -2.1694 -1.8480 -0.8573
 6167SOL    MW424436   2.603   4.872   2.581 -0.1314 -0.0640 -0.0676
 6168SOL     OW24437   1.960   2.676   6.262  0.5241 -0.0817  0.2450
 6168SOL    HW224438   1.998   2.623   6.332 -1.4592 -3.4060 -0.9543
 6168SOL    HW324439   2.003   2.645   6.182  0.5736  1.4756 -0.3736
 6168SOL    MW424440   1.971   2.665   6.260  0.1580  0.2628  0.4042
 6169SOL     OW24441   5.220   0.549   4.389  0.1962  0.6022  0.2834
 6169SOL    HW224442   5.185   0.614   4.329  3.0799  1.4808 -0.5949
 6169SOL    HW324443   5.181   0.571   4.474 -1.6991  1.1298 -0.6721
 6169SOL    MW424444   5.210   0.560   4.392 -0.3252  0.1730  0.0878
 6170SOL     OW24445   2.979   4.243   6.006 -0.2915  0.0384  0.0979
 6170SOL    HW224446   2.924   4.165   5.999  1.0706 -1.0194  0.6973
 6170SOL    HW324447   3.035   4.241   5.928  1.1352 -0.7459  1.0895
 6170SOL    MW424448   2.979   4.232   5.995  0.3209 -0.3418  0.1725
 6171SOL     OW24449   0.214   3.075   1.287 -0.0851  0.0648  0.1143
 6171SOL    HW224450   0.170   3.147   1.332  0.6053 -1.0377  2.7614
 6171SOL    HW324451   0.145   3.010   1.273 -0.0542 -0.1424  0.8726
 6171SOL    MW424452   0.199   3.076   1.291  0.5832  0.0575  0.0681
 6172SOL     OW24453   2.216   3.449   1.847  0.0368 -0.1723 -0.1569
 6172SOL    HW224454   2.237   3.361   1.815  3.3878  0.9319 -1.4228
 6172SOL    HW324455   2.275   3.507   1.800 -0.8323  2.6190  1.8810
 6172SOL    MW424456   2.226   3.445   1.837  0.4513  0.3892 -0.0412
 6173SOL     OW24457   5.763   3.559   5.580 -0.2282  0.2761  0.1995
 6173SOL    HW224458   5.827   3.612   5.628 -0.2925  0.7607 -0.2504
 6173SOL    HW324459   5.683   3.611   5.582 -0.1134  0.5083 -0.8256
 6173SOL    MW424460   5.761   3.573   5.587  0.0579  0.8181 -0.3936
 6174SOL     OW24461   1.133   6.247   0.804 -0.2606  0.0933  0.0558
 6174SOL    HW224462   1.117   6.214   0.716  0.1454  4.4958 -1.9743
 6174SOL    HW324463   1.205   6.310   0.793 -0.2910  0.9659  3.5290
 6174SOL    MW424464   1.141   6.251   0.791  0.1687 -0.6028 -0.1378
 6175SOL     OW24465   3.079   4.695   1.784 -0.2938 -0.0315  0.1370
 6175SOL    HW224466   3.081   4.641   1.863  1.3695  0.9574  0.8149
 6175SOL    HW324467   3.156   4.668   1.733 -1.4056 -0.7467 -1.2489
 6175SOL    MW424468   3.090   4.685   1.787 -0.5436 -0.1701 -0.4895
 6176SOL     OW24469   4.189   4.017   2.920 -0.1023  0.2635 -0.1218
 6176SOL    HW224470   4.094   4.020   2.917 -0.0962  2.0937  0.2826
 6176SOL    HW324471   4.213   4.079   2.989  1.3812  0.0979 -0.4512
 6176SOL    MW424472   4.180   4.026   2.929  0.6568 -0.6169  0.1125
 6177SOL     OW24473   2.308   0.335   3.990  0.2524  0.0306 -0.1107
 6177SOL    HW224474   2.218   0.348   4.018  0.6545  0.2779  1.1105
 6177SOL    HW324475   2.345   0.275   4.054  0.9785 -0.0093 -0.5568
 6177SOL    MW424476   2.301   0.329   4.002  0.4456  0.0973 -0.1914
 6178SOL     OW24477   0.855   1.206   2.055 -0.4644  0.2576 -0.3189
 6178SOL    HW224478   0.824   1.205   1.965 -1.9140 -0.0888  0.1604
 6178SOL    HW324479   0.811   1.280   2.096 -0.9408 -0.4364  0.4667
 6178SOL    MW424480   0.845   1.216   2.049  0.1400  0.3903  0.2326
 6179SOL     OW24481   5.632   2.672   1.581 -0.0660  1.0821  0.2181
 6179SOL    HW224482   5.615   2.728   1.505 -0.1403  0.9999  0.1738
 6179SOL    HW324483   5.725   2.685   1.599  0.5465 -0.6257 -1.3192
 6179SOL    MW424484   5.642   2.681   1.573 -0.1047 -0.4291  0.7371
 6180SOL     OW24485   3.596   2.433   4.034  1.1985 -0.3498  0.5403
 6180SOL    HW224486   3.609   2.405   3.943 -1.2065 -1.9928  0.6175
 6180SOL    HW324487   3.646   2.370   4.086  0.9906 -0.5838  0.4540
 6180SOL    MW424488   3.605   2.421   4.029 -0.2911 -0.0927  0.3085
 6181SOL     OW24489   3.794   1.501   3.211  0.6236  0.1359  0.6032
 6181SOL    HW224490   3.774   1.408   3.213  1.9984 -0.1822  2.9391
 6181SOL    HW324491   3.802   1.522   3.117 -2.2350 -1.4242 -0.1089
 6181SOL    MW424492   3.792   1.492   3.199  0.0552 -0.3121  0.0731
 6182SOL     OW24493   2.609   0.056   5.440  0.6158 -0.5719 -0.7171
 6182SOL    HW224494   2.690   0.094   5.474  0.1248 -0.5406  0.4613
 6182SOL    HW324495   2.636   0.007   5.362  1.9549 -1.5629  0.3248
 6182SOL    MW424496   2.623   0.055   5.434 -0.2424 -0.2853 -0.1062
 6183SOL     OW24497   3.129   2.163   3.583 -0.4768  0.2071  0.0317
 6183SOL    HW224498   3.148   2.100   3.513 -0.0058 -0.2005  0.5140
 6183SOL    HW324499   3.214   2.199   3.607 -0.2152 -1.6387  2.2172
 6183SOL    MW424500   3.143   2.159   3.577 -0.2256 -0.4010 -0.0001
 6184SOL     OW24501   6.057   1.430   2.472 -0.1794  0.2299  0.5350
 6184SOL    HW224502   6.117   1.464   2.537  0.7598  0.5897 -0.4944
 6184SOL    HW324503   6.105   1.359   2.430 -0.7971 -0.0399  0.2756
 6184SOL    MW424504   6.071   1.425   2.475 -0.3549 -0.1865  0.6672
 6185SOL     OW24505   4.356   1.318   3.229 -0.0049  0.4170  0.4596
 6185SOL    HW224506   4.397   1.266   3.160 -0.3017 -1.8165  1.8711
 6185SOL    HW324507   4.429   1.356   3.278  0.3303 -0.5937  0.7794
 6185SOL    MW424508   4.371   1.316   3.227 -0.5629  0.0322 -0.3259
 6186SOL     OW24509   5.570   4.103   5.323  0.1714 -0.1041  0.1309
 6186SOL    HW224510   5.522   4.170   5.372  0.6514  0.3380  0.0101
 6186SOL    HW324511   5.612   4.049   5.390 -0.3515 -0.3892  0.2321
 6186SOL    MW424512   5.569   4.105   5.339  0.3906  0.7830 -0.0376
 6187SOL     OW24513   1.274   3.604   2.841 -0.4417 -0.4194 -0.2729
 6187SOL    HW224514   1.195   3.568   2.882 -0.0905 -0.8736  0.0124
 6187SOL    HW324515   1.309   3.531   2.790 -0.4556 -0.0812 -0.7689
 6187SOL    MW424516   1.268   3.590   2.840  0.1940  0.5015  0.3684
 6188SOL     OW24517   1.856   5.865   0.867  0.1172  0.2810 -0.2157
 6188SOL    HW224518   1.766   5.836   0.853  0.2522 -0.3494  0.1636
 6188SOL    HW324519   1.858   5.956   0.836 -0.5684  0.1996 -0.5054
 6188SOL    MW424520   1.845   5.873   0.861 -0.2522 -0.1588 -0.2397
 6189SOL     OW24521   4.448   4.736   4.796  0.0904 -0.1158  0.2713
 6189SOL    HW224522   4.520   4.705   4.851  0.3327  0.5074  0.3167
 6189SOL    HW324523   4.377   4.674   4.812 -0.5494  1.1298  2.8301
 6189SOL    MW424524   4.448   4.724   4.805 -0.2361 -0.2589  0.0324
 6190SOL     OW24525   0.561   5.743   1.928  0.6852  0.4172 -0.2302
 6190SOL    HW224526   0.631   5.711   1.985  2.4560  0.0965 -2.4624
 6190SOL    HW324527   0.579   5.836   1.916  0.2348  0.5161 -0.1907
 6190SOL    MW424528   0.572   5.751   1.934 -0.1925 -0.0093  0.3748
 6191SOL     OW24529   4.301   1.613   0.833 -0.3710  0.2358 -0.2832
 6191SOL    HW224530   4.358   1.576   0.766  0.9893  1.7799 -0.0375
 6191SOL    HW324531   4.318   1.560   0.911  0.1850  0.2164 -0.4114
 6191SOL    MW424532   4.311   1.601   0.835 -0.8176 -0.4034 -0.4625
 6192SOL     OW24533   0.698   0.052   2.976 -0.2580 -0.5050 -0.3700
 6192SOL    HW224534   0.635  -0.007   3.017 -0.5494 -0.4910 -0.7866
 6192SOL    HW324535   0.643   0.117   2.931  0.0387  0.8831  1.2036
 6192SOL    MW424536   0.682   0.053   2.975  0.0267  0.3734 -0.2416
 6193SOL     OW24537   5.737   1.805   2.486 -0.4256 -0.2181 -0.1978
 6193SOL    HW224538   5.829   1.778   2.482 -0.1492  0.5668  0.6767
 6193SOL    HW324539   5.714   1.800   2.578 -0.7713  1.1722 -0.1944
 6193SOL    MW424540   5.746   1.801   2.497 -0.0949 -0.1017 -0.3551
 6194SOL     OW24541   0.650   3.394   2.852 -0.5321  0.3812  0.4685
 6194SOL    HW224542   0.676   3.392   2.944  1.1510 -1.1674  0.0150
 6194SOL    HW324543   0.658   3.487   2.828 -1.4563  0.8878  1.9629
 6194SOL    MW424544   0.655   3.406   2.861 -0.6213  0.0088  0.5924
 6195SOL     OW24545   3.084   3.476   3.514 -0.1323  0.0321  0.0619
 6195SOL    HW224546   3.065   3.385   3.490 -0.7003 -0.0315  0.7421
 6195SOL    HW324547   3.024   3.495   3.586  0.3063  0.8017  0.2305
 6195SOL    MW424548   3.073   3.466   3.520  0.1070 -0.1036 -0.0009
 6196SOL     OW24549   3.542   2.340   2.640 -0.4424  0.3303 -0.3925
 6196SOL    HW224550   3.604   2.280   2.599 -0.8468 -0.4359  0.0880
 6196SOL    HW324551   3.479   2.283   2.684 -1.0717  1.1054 -0.2613
 6196SOL    MW424552   3.542   2.324   2.640 -0.1895  0.5017  0.4825
 6197SOL     OW24553   0.462   2.372   2.083 -0.2703  0.3386 -0.5931
 6197SOL    HW224554   0.495   2.325   2.160  0.5878  1.0131 -0.5494
 6197SOL    HW324555   0.451   2.462   2.112  0.0769  0.6047 -1.2639
 6197SOL    MW424556   0.465   2.377   2.097 -0.2990  0.2398 -0.0478
 6198SOL     OW24557   0.144   1.944   2.111 -0.2406  0.4301  0.4656
 6198SOL    HW224558   0.090   1.965   2.034  1.2333  2.2835 -0.1333
 6198SOL    HW324559   0.094   1.980   2.185 -0.2924  1.2758  0.0318
 6198SOL    MW424560   0.130   1.952   2.111  0.7818 -0.2065 -0.2791
 6199SOL     OW24561   4.525   6.038   5.800  0.4343 -0.1148 -0.5245
 6199SOL    HW224562   4.493   5.948   5.810  2.0613 -0.8641 -1.6893
 6199SOL    HW324563   4.511   6.059   5.708  1.7541  0.1405 -0.6801
 6199SOL    MW424564   4.519   6.029   5.789 -0.2811  0.3117  0.0457
 6200SOL     OW24565   2.765   4.402   5.789  0.0030  0.3728  0.2733
 6200SOL    HW224566   2.848   4.426   5.830  0.3119  1.9522 -1.1607
 6200SOL    HW324567   2.705   4.388   5.862  0.6944  2.3867  1.2938
 6200SOL    MW424568   2.768   4.403   5.804  0.5449  0.2328  0.0932
 6201SOL     OW24569   3.643   1.403   3.567 -0.5049  0.2450 -0.2282
 6201SOL    HW224570   3.663   1.462   3.640  0.7602 -2.0799  1.4356
 6201SOL    HW324571   3.726   1.394   3.520 -0.8183  0.1507 -0.7770
 6201SOL    MW424572   3.656   1.410   3.570  0.1135 -0.2157  0.4091
 6202SOL     OW24573   1.724   1.318   4.522  0.1823  0.3190 -0.0571
 6202SOL    HW224574   1.768   1.403   4.533 -0.3737  0.6277 -0.1592
 6202SOL    HW324575   1.766   1.261   4.586 -0.1528  0.9561  0.7495
 6202SOL    MW424576   1.735   1.322   4.532 -0.4445  0.5349  0.6456
 6203SOL     OW24577   1.428   1.686   4.055 -0.7270 -0.7870  0.2840
 6203SOL    HW224578   1.413   1.641   3.972 -0.3947  1.5336 -1.1138
 6203SOL    HW324579   1.517   1.661   4.080  1.1799  2.1908 -2.6963
 6203SOL    MW424580   1.438   1.676   4.047  0.2020 -0.3232 -0.0214
 6204SOL     OW24581   0.899   1.403   4.487  0.5018 -0.2713  0.3068
 6204SOL    HW224582   0.975   1.378   4.540 -0.3421 -1.7872  0.8738
 6204SOL    HW324583   0.833   1.336   4.507 -0.2289 -0.2719 -1.8671
 6204SOL    MW424584   0.900   1.391   4.497 -0.0524  0.0267  0.9782
 6205SOL     OW24585   1.842   1.922   5.366  0.6166 -0.1529 -0.6473
 6205SOL    HW224586   1.835   1.827   5.354 -0.4894 -0.3131  1.0744
 6205SOL    HW324587   1.825   1.958   5.279 -1.6680 -1.4432 -0.8058
 6205SOL    MW424588   1.839   1.914   5.353 -0.4854 -0.3796  0.1477
 6206SOL     OW24589   5.369   4.873   6.293  0.2854  0.6812  1.0933
 6206SOL    HW224590   5.296   4.824   6.330 -0.2914  0.4584 -0.2706
 6206SOL    HW324591   5.432   4.806   6.266  0.3103  0.7919  0.8775
 6206SOL    MW424592   5.368   4.858   6.294 -0.1809 -0.1366  0.0992
 6207SOL     OW24593   3.283   0.495   3.462 -0.6306 -0.0416 -0.1391
 6207SOL    HW224594   3.321   0.579   3.487 -0.0127 -0.2648 -0.3185
 6207SOL    HW324595   3.206   0.518   3.411 -0.1399  0.4250 -0.6870
 6207SOL    MW424596   3.278   0.509   3.458 -0.0888 -0.0245  0.2751
 6208SOL     OW24597   2.943   1.259   3.417 -0.2067 -0.2085  0.0496
 6208SOL    HW224598   2.875   1.193   3.400 -1.5282  1.3221 -0.8961
 6208SOL    HW324599   2.981   1.276   3.331  1.8975 -1.5078  0.6574
 6208SOL    MW424600   2.939   1.252   3.403 -0.0953 -0.7535  0.5182
 6209SOL     OW24601   4.217   4.420   1.962 -0.0377 -0.9047 -0.2875
 6209SOL    HW224602   4.274   4.407   1.886  0.8626 -1.2401  0.4176
 6209SOL    HW324603   4.178   4.507   1.948  2.0771  0.1868  0.0627
 6209SOL    MW424604   4.220   4.430   1.950 -0.0752  0.1719  0.1489
 6210SOL     OW24605   0.919   5.491   4.964 -0.1534  0.5421  0.4832
 6210SOL    HW224606   0.896   5.578   4.934  1.5213  0.9995  0.4442
 6210SOL    HW324607   0.998   5.503   5.016  0.3933 -1.0043  0.0770
 6210SOL    MW424608   0.926   5.504   4.967  0.5498 -0.0938  0.2167
 6211SOL     OW24609   0.357   0.447   6.384  0.8342 -0.3584  0.4070
 6211SOL    HW224610   0.342   0.519   6.323  0.3533 -0.4363  0.4281
 6211SOL    HW324611   0.290   0.457   6.451  1.3629 -0.2768  0.9267
 6211SOL    MW424612   0.346   0.458   6.385 -0.8823 -0.2551 -0.0934
 6212SOL     OW24613   3.079   5.446   1.487 -0.0516 -0.2965 -0.6576
 6212SOL    HW224614   3.127   5.440   1.569 -0.4136 -1.7509 -0.5207
 6212SOL    HW324615   2.988   5.428   1.511 -0.4772  1.0572 -1.1249
 6212SOL    MW424616   3.073   5.443   1.501 -0.3782  0.1345  0.2528
 6213SOL     OW24617   0.112   5.742   0.473  0.6878 -0.4890 -0.0308
 6213SOL    HW224618   0.029   5.749   0.427  1.2800  0.1129 -1.0400
 6213SOL    HW324619   0.178   5.761   0.406  1.5804  0.2199  1.0266
 6213SOL    MW424620   0.110   5.745   0.458  0.0973  0.3667  0.5564
 6214SOL     OW24621   5.897   0.314   2.688  0.0116  0.1933 -0.3554
 6214SOL    HW224622   5.804   0.331   2.703 -0.2034 -1.3903  0.3040
 6214SOL    HW324623   5.898   0.236   2.632  0.9152 -1.7931  2.2803
 6214SOL    MW424624   5.885   0.306   2.682 -0.1927  0.2921  0.1885
 6215SOL     OW24625   1.451   2.242   2.140 -0.2280 -0.3941  0.6877
 6215SOL    HW224626   1.415   2.304   2.077 -0.5447  1.2304  2.3760
 6215SOL    HW324627   1.497   2.297   2.203  2.7812 -2.1805  0.2296
 6215SOL    MW424628   1.452   2.258   2.140  0.0157 -0.2552 -0.3770
 6216SOL     OW24629   3.554   0.486   5.777 -0.1536  0.6369 -0.0298
 6216SOL    HW224630   3.469   0.529   5.781  0.5697  2.2795 -1.2004
 6216SOL    HW324631   3.554   0.427   5.852 -2.3940  0.4266 -0.1226
 6216SOL    MW424632   3.543   0.484   5.787 -0.1024  0.0850 -0.0591
 6217SOL     OW24633   3.613   5.782   5.403  0.1009  0.1681 -0.0105
 6217SOL    HW224634   3.642   5.867   5.436 -0.9374  0.0034  1.4175
 6217SOL    HW324635   3.642   5.781   5.312  0.1768  2.0234 -0.0523
 6217SOL    MW424636   3.621   5.793   5.395 -0.2412 -0.3968  0.3458
 6218SOL     OW24637   5.743   5.634   2.015 -0.2526  0.0900  0.4191
 6218SOL    HW224638   5.652   5.664   2.021 -1.4415 -3.0200  0.0029
 6218SOL    HW324639   5.737   5.551   1.968  2.7193 -0.6647  1.1840
 6218SOL    MW424640   5.730   5.627   2.010  0.0601  0.0983 -0.2486
 6219SOL     OW24641   4.779   3.744   2.165  0.1009  0.5898  0.3726
 6219SOL    HW224642   4.865   3.772   2.134  0.0959  0.1352 -0.0560
 6219SOL    HW324643   4.782   3.758   2.259  0.9626 -0.2376  0.4840
 6219SOL    MW424644   4.790   3.750   2.173  0.2536 -0.3780  0.2292
 6220SOL     OW24645   4.111   3.760   1.398  0.3724 -0.4271  0.3277
 6220SOL    HW224646   4.206   3.761   1.393  0.4205  0.1920  1.1270
 6220SOL    HW324647   4.086   3.674   1.364  1.0288  0.4203 -2.5526
 6220SOL    MW424648   4.120   3.749   1.393  0.1481 -0.0891 -0.4075
 6221SOL     OW24649   5.492   5.175   0.926 -0.0016 -0.3160  0.3480
 6221SOL    HW224650   5.567   5.204   0.978 -0.0862 -0.5316  0.5935
 6221SOL    HW324651   5.440   5.254   0.913  0.3779 -0.1182 -0.0121
 6221SOL    MW424652   5.495   5.189   0.931  0.5926 -0.4960  0.0235
 6222SOL     OW24653   3.238   5.493   2.299  0.0717  0.0062 -0.0827
 6222SOL    HW224654   3.200   5.511   2.386  0.1059  1.1637 -0.2891
 6222SOL    HW324655   3.265   5.401   2.303  0.3840  0.1331  1.2538
 6222SOL    MW424656   3.237   5.483   2.311  0.3741 -0.6975  0.2873
 6223SOL     OW24657   5.037   4.012   1.004 -0.2142 -0.0070  0.2661
 6223SOL    HW224658   5.075   3.995   0.918  1.0415  1.1320  0.5626
 6223SOL    HW324659   5.064   3.936   1.056  0.2392 -0.0191  0.0224
 6223SOL    MW424660   5.046   3.999   1.000 -0.2734  0.5495 -0.0431
 6224SOL     OW24661   0.988   1.744   2.914  0.0853 -0.1961 -0.3778
 6224SOL    HW224662   1.066   1.690   2.921 -0.2839 -1.1381 -2.6757
 6224SOL    HW324663   1.020   1.830   2.885  0.2792 -0.6758 -1.6389
 6224SOL    MW424664   1.002   1.749   2.911 -0.4164 -0.5997 -0.2249
 6225SOL     OW24665   2.257   2.367   4.792  0.1624 -0.2292  0.6623
 6225SOL    HW224666   2.227   2.369   4.701  1.6878  1.4324  0.1536
 6225SOL    HW324667   2.296   2.453   4.807 -0.0020 -0.4780  2.8992
 6225SOL    MW424668   2.258   2.378   4.782  0.3023 -0.3393 -0.0514
 6226SOL     OW24669   6.174   5.457   2.229  0.7006 -0.7338  0.0431
 6226SOL    HW224670   6.084   5.484   2.210  0.5857 -1.7734 -0.9557
 6226SOL    HW324671   6.210   5.431   2.144  1.7077 -1.0164  0.5454
 6226SOL    MW424672   6.167   5.457   2.215  0.0930  0.2964  0.2003
 6227SOL     OW24673   0.641   1.508   3.572  0.2065  0.0797  0.1454
 6227SOL    HW224674   0.669   1.476   3.658 -1.3158 -0.2084  0.5652
 6227SOL    HW324675   0.551   1.539   3.586  0.3008  0.9939 -1.1219
 6227SOL    MW424676   0.632   1.508   3.585  0.0663 -0.3296  0.1206
 6228SOL     OW24677   6.323   4.745   2.011  0.4191  0.2915 -0.2311
 6228SOL    HW224678   6.299   4.782   1.926 -0.8132  2.0805  0.8392
 6228SOL    HW324679   6.359   4.659   1.989  0.9482  1.0308 -2.6173
 6228SOL    MW424680   6.324   4.738   1.997  0.3926  0.5708 -0.3472
 6229SOL     OW24681   3.566   0.543   2.265 -0.2050  0.0807  0.1250
 6229SOL    HW224682   3.542   0.626   2.308  1.1325  0.0804  0.9171
 6229SOL    HW324683   3.502   0.480   2.299 -1.2309  0.7642 -0.4777
 6229SOL    MW424684   3.554   0.546   2.275  0.3958  0.1249 -0.3807
 6230SOL     OW24685   0.933   4.188   4.762  0.9533 -0.3478  0.0623
 6230SOL    HW224686   0.908   4.175   4.854  0.3369  0.5489  0.0278
 6230SOL    HW324687   1.005   4.251   4.766 -0.0608  0.8660 -0.1436
 6230SOL    MW424688   0.939   4.195   4.775  0.1857 -0.6817 -0.3667
 6231SOL     OW24689   1.530   2.483   2.328 -0.2821  0.2390  0.6791
 6231SOL    HW224690   1.464   2.529   2.276  2.3427  2.7713 -0.7332
 6231SOL    HW324691   1.500   2.493   2.418 -1.1872  2.5436  0.2116
 6231SOL    MW424692   1.517   2.491   2.333  0.4098 -0.1902 -0.2194
 6232SOL     OW24693   2.566   6.308   3.173 -0.6968 -0.3519 -0.4669
 6232SOL    HW224694   2.612   6.392   3.178  0.1578 -0.8411  0.0639
 6232SOL    HW324695   2.556   6.291   3.079  1.0659 -0.6965 -0.6109
 6232SOL    MW424696   2.571   6.317   3.161 -0.1475  0.0772  0.1884
 6233SOL     OW24697   1.896   4.463   5.839 -0.5256 -0.5500  0.8625
 6233SOL    HW224698   1.977   4.412   5.832 -0.2095 -0.4338  2.9729
 6233SOL    HW324699   1.839   4.410   5.893 -1.2024  0.1647  0.8660
 6233SOL    MW424700   1.899   4.450   5.845 -0.1267 -0.1485  0.2307
 6234SOL     OW24701   5.666   5.864  -0.008 -0.0620 -0.0015  0.1817
 6234SOL    HW224702   5.688   5.957  -0.016  0.5488 -0.1729 -0.1853
 6234SOL    HW324703   5.744   5.824   0.030 -0.1188 -0.4531 -0.1694
 6234SOL    MW424704   5.679   5.871  -0.004  0.4449  0.0374 -0.9145
 6235SOL     OW24705   2.961   2.085   5.430  0.0054  0.4486  0.2815
 6235SOL    HW224706   2.904   2.139   5.375  0.1925 -0.4338 -0.8061
 6235SOL    HW324707   2.901   2.036   5.486 -0.3334 -0.5468 -0.9239
 6235SOL    MW424708   2.946   2.086   5.430  0.0343 -0.4448 -0.2727
 6236SOL     OW24709   5.808   0.589   5.946 -0.3914  0.6812  0.4676
 6236SOL    HW224710   5.775   0.536   5.874 -1.2504  1.8468 -0.0293
 6236SOL    HW324711   5.901   0.569   5.950 -0.2128  0.9899 -1.3249
 6236SOL    MW424712   5.816   0.580   5.937 -0.4963 -0.0584 -0.6042
 6237SOL     OW24713   5.626   3.428   1.935 -0.1180 -1.0218 -0.0723
 6237SOL    HW224714   5.685   3.431   2.011  0.7902  0.3145 -0.7926
 6237SOL    HW324715   5.612   3.520   1.913 -0.6282 -1.3921 -1.3439
 6237SOL    MW424716   5.632   3.441   1.942  0.2419  0.0563 -0.2791
 6238SOL     OW24717   3.756   5.998   1.017  0.1383  0.0876 -0.7542
 6238SOL    HW224718   3.833   5.962   0.973  0.9410  1.7736 -0.7944
 6238SOL    HW324719   3.751   6.089   0.986  0.1415  1.0586  1.8361
 6238SOL    MW424720   3.765   6.005   1.007  0.0055 -0.3784  0.0248
 6239SOL     OW24721   4.538   3.003   0.931 -0.2397  0.0154  0.2618
 6239SOL    HW224722   4.471   3.006   0.862  0.7262  0.5326 -0.6981
 6239SOL    HW324723   4.613   2.960   0.889 -0.2333 -1.3155  1.5691
 6239SOL    MW424724   4.539   2.998   0.916  0.2220  0.6440  0.0792
 6240SOL     OW24725   4.447   1.172   5.585 -0.0361  0.0099  0.4243
 6240SOL    HW224726   4.458   1.087   5.542  2.3915  0.5892 -0.2989
 6240SOL    HW324727   4.459   1.236   5.515 -0.4527  0.9628  1.1985
 6240SOL    MW424728   4.450   1.169   5.570  0.7500  0.3084 -0.4101
 6241SOL     OW24729   2.168   2.383   0.873  0.2770  0.0308 -0.3369
 6241SOL    HW224730   2.121   2.447   0.928 -1.3322 -0.8967 -0.5767
 6241SOL    HW324731   2.108   2.309   0.866  0.9713 -0.3955 -2.3302
 6241SOL    MW424732   2.153   2.382   0.879 -0.2662 -0.8444 -0.0515
 6242SOL     OW24733   0.724   0.089   4.574  0.1740  0.3601 -0.2537
 6242SOL    HW224734   0.817   0.069   4.583  0.2920  0.4042 -1.2534
 6242SOL    HW324735   0.681   0.039   4.644  1.0649  1.3816  1.0793
 6242SOL    MW424736   0.731   0.080   4.584 -0.0607 -0.3104 -0.0056
 6243SOL     OW24737   3.055   0.796   5.450 -0.0419  0.0456  0.0324
 6243SOL    HW224738   2.968   0.759   5.464 -0.3463  0.7601  0.0744
 6243SOL    HW324739   3.114   0.735   5.495 -0.6425  0.2309  1.1060
 6243SOL    MW424740   3.051   0.783   5.458  0.4009 -0.2212  0.1923
 6244SOL     OW24741   3.585   1.066   6.158  0.1053  0.4785  0.1404
 6244SOL    HW224742   3.612   1.097   6.244 -1.1533  1.8645  0.0643
 6244SOL    HW324743   3.639   0.988   6.143  1.6200  1.2202  1.4057
 6244SOL    MW424744   3.596   1.059   6.167 -0.3572 -0.6479  0.2607
 6245SOL     OW24745   5.919   5.669   6.207 -0.6429  0.0062  0.8330
 6245SOL    HW224746   5.862   5.740   6.179 -1.0140 -1.4036 -2.3988
 6245SOL    HW324747   5.860   5.595   6.221  0.1158 -0.8419 -0.2686
 6245SOL    MW424748   5.904   5.668   6.206 -0.4296 -0.0218 -0.4480
 6246SOL     OW24749   0.288   2.076   1.279 -0.2384  0.2795  0.0642
 6246SOL    HW224750   0.250   2.149   1.229 -0.8387  0.7253  1.1312
 6246SOL    HW324751   0.215   2.016   1.292  0.2349 -0.4925 -0.7319
 6246SOL    MW424752   0.273   2.078   1.274 -0.6531 -0.0894 -0.1297
 6247SOL     OW24753   3.645   4.787   4.034 -0.3679 -0.4071 -0.5899
 6247SOL    HW224754   3.640   4.819   4.124 -1.2252 -0.0014 -0.7723
 6247SOL    HW324755   3.568   4.731   4.024 -0.4228 -0.2367 -1.1482
 6247SOL    MW424756   3.634   4.784   4.045  0.1797  0.1075 -0.1334
 6248SOL     OW24757   2.467   3.859   3.339 -0.5612  0.3505  0.0918
 6248SOL    HW224758   2.429   3.772   3.350 -1.6631  0.6856 -0.8640
 6248SOL    HW324759   2.469   3.873   3.244  1.4523  0.5869  0.1263
 6248SOL    MW424760   2.462   3.849   3.328 -0.1507  0.2333 -0.3020
 6249SOL     OW24761   5.374   4.351   0.287 -0.3746  0.1838 -0.0308
 6249SOL    HW224762   5.420   4.405   0.222 -0.8413  2.7884  1.6471
 6249SOL    HW324763   5.338   4.278   0.237 -1.0786  2.2727 -2.7984
 6249SOL    MW424764   5.376   4.349   0.272 -0.4521 -0.1736  0.7321
 6250SOL     OW24765   0.468   1.127   4.279 -0.2345 -0.1366  0.1754
 6250SOL    HW224766   0.507   1.141   4.365 -0.7939 -0.5160  0.4954
 6250SOL    HW324767   0.394   1.189   4.276 -0.5439 -0.5013  0.1851
 6250SOL    MW424768   0.463   1.137   4.290  0.2003  0.0429 -0.1751
 6251SOL     OW24769   2.291   6.410   3.886  0.2318  0.0473 -0.6090
 6251SOL    HW224770   2.297   6.370   3.973 -0.3674 -0.3810 -0.7598
 6251SOL    HW324771   2.373   6.459   3.877  1.1239 -1.4083 -0.5648
 6251SOL    MW424772   2.303   6.411   3.897  0.1257  0.4270 -0.2304
 6252SOL     OW24773   0.050   6.013   0.265 -0.1642 -0.0873  0.4863
 6252SOL    HW224774  -0.045   5.999   0.264  0.0278 -1.7560  1.2207
 6252SOL    HW324775   0.069   6.035   0.356  0.3796 -1.9452  0.8639
 6252SOL    MW424776   0.040   6.014   0.277 -0.3435 -0.3418 -0.3497
 6253SOL     OW24777   2.433   2.469   6.185 -0.0693  0.6657  0.0891
 6253SOL    HW224778   2.473   2.482   6.099  2.4580  0.9891  1.2181
 6253SOL    HW324779   2.460   2.381   6.210 -1.0691  0.4471  0.4398
 6253SOL    MW424780   2.442   2.459   6.177  0.2350  0.1956  0.1131
 6254SOL     OW24781   4.636   2.717   2.769  0.3685 -0.2475  0.2307
 6254SOL    HW224782   4.627   2.795   2.714  0.5817 -1.1297 -1.0794
 6254SOL    HW324783   4.547   2.696   2.796  0.1975 -0.1683 -0.2721
 6254SOL    MW424784   4.623   2.725   2.765  0.1736  0.4819 -0.4674
 6255SOL     OW24785   1.825   4.979   4.715  0.1735  0.4714 -0.3018
 6255SOL    HW224786   1.735   5.012   4.708 -1.0332 -2.1512  1.4079
 6255SOL    HW324787   1.879   5.058   4.718 -1.9859  2.1403 -1.8436
 6255SOL    MW424788   1.820   4.994   4.714  0.0820 -0.0050 -0.0566
 6256SOL     OW24789   4.145   1.883   3.527  0.4888 -0.2606  0.3518
 6256SOL    HW224790   4.211   1.824   3.490 -0.6725 -0.2302 -1.9521
 6256SOL    HW324791   4.064   1.857   3.485 -0.5704  1.2152  1.3889
 6256SOL    MW424792   4.143   1.872   3.517 -0.1880  0.0174  0.0198
 6257SOL     OW24793   1.373   0.348   6.087 -0.3251  0.3423  0.5520
 6257SOL    HW224794   1.295   0.293   6.083 -0.6363  0.7813  0.4425
 6257SOL    HW324795   1.340   0.433   6.116  0.2259  0.3290  1.2472
 6257SOL    MW424796   1.358   0.352   6.090  0.4690  0.1103 -0.1942
 6258SOL     OW24797   5.025   5.888   1.784 -0.3260  0.6477  0.2177
 6258SOL    HW224798   4.990   5.854   1.702  0.2313  1.3836 -0.3291
 6258SOL    HW324799   5.086   5.957   1.758 -0.1304  0.8779  1.2469
 6258SOL    MW424800   5.028   5.892   1.770 -0.4890  0.0126 -0.0592
 6259SOL     OW24801   1.128   0.419   1.158  0.5713 -0.1261 -0.4173
 6259SOL    HW224802   1.149   0.369   1.237  1.3599 -0.5517 -0.8866
 6259SOL    HW324803   1.106   0.353   1.093  2.0581  0.0726 -1.1775
 6259SOL    MW424804   1.128   0.404   1.160 -0.9987  0.4765 -0.0980
 6260SOL     OW24805   5.095   1.871   0.611  0.5008  0.5441  0.7285
 6260SOL    HW224806   5.089   1.815   0.534 -0.0935 -0.6092  1.5813
 6260SOL    HW324807   5.159   1.938   0.587  0.1313  0.3699 -0.8514
 6260SOL    MW424808   5.103   1.872   0.598  0.2918  0.3244  0.2002
 6261SOL     OW24809   5.501   3.731   5.965 -0.0441  0.3035  0.2480
 6261SOL    HW224810   5.492   3.823   5.939 -0.7151  0.1096 -0.2597
 6261SOL    HW324811   5.459   3.727   6.051  0.7441  0.6356  0.6536
 6261SOL    MW424812   5.494   3.743   5.973 -0.1780  0.5020 -0.0612
 6262SOL     OW24813   5.857   6.301   0.176  0.6044 -0.1897 -0.2181
 6262SOL    HW224814   5.915   6.325   0.104  2.0526 -0.2370  0.8823
 6262SOL    HW324815   5.780   6.263   0.134  2.0171 -1.5268 -1.7044
 6262SOL    MW424816   5.855   6.300   0.161  0.6482 -0.0090 -0.0599
 6263SOL     OW24817   0.616   1.026   4.995  0.0026  0.9271 -0.1289
 6263SOL    HW224818   0.586   1.090   4.931  2.1518 -0.3385 -2.6094
 6263SOL    HW324819   0.599   0.941   4.955  1.0733  0.0625  1.1401
 6263SOL    MW424820   0.610   1.024   4.981  0.0159  0.4318 -0.2406
 6264SOL     OW24821   1.943   2.282   3.778  0.6135  0.0971 -0.0509
 6264SOL    HW224822   1.957   2.230   3.699 -0.5844 -0.4580  0.0898
 6264SOL    HW324823   2.030   2.318   3.798  1.5963 -2.1389  0.0639
 6264SOL    MW424824   1.957   2.280   3.770  0.2791  0.0796 -0.5895
 6265SOL     OW24825   1.324   4.863   3.952 -0.1559 -0.0808  0.1823
 6265SOL    HW224826   1.269   4.840   3.876  2.5116 -2.2228 -1.2974
 6265SOL    HW324827   1.370   4.942   3.925  0.6649 -0.7449 -0.4088
 6265SOL    MW424828   1.323   4.870   3.938  0.5762 -0.3335 -0.0295
 6266SOL     OW24829   6.421   3.965   5.088 -0.5008 -0.3581 -0.1314
 6266SOL    HW224830   6.456   3.949   5.176  2.2389  3.3439 -0.3043
 6266SOL    HW324831   6.469   3.904   5.032 -0.0141 -0.6526  0.5848
 6266SOL    MW424832   6.432   3.955   5.093 -0.3837  0.7896 -0.1723
 6267SOL     OW24833   4.339   5.200   0.364  0.0689 -0.2851  0.3594
 6267SOL    HW224834   4.291   5.156   0.293  0.3448  2.2065 -1.5135
 6267SOL    HW324835   4.384   5.129   0.410  2.0253 -1.9422 -3.5802
 6267SOL    MW424836   4.339   5.185   0.360  0.1295  0.1156 -0.0067
 6268SOL     OW24837   3.548   3.188   3.936  0.0379  0.1173  0.0077
 6268SOL    HW224838   3.455   3.191   3.917  0.4615  1.7203 -2.0868
 6268SOL    HW324839   3.573   3.097   3.921 -1.5334 -0.9275  2.8799
 6268SOL    MW424840   3.539   3.176   3.932 -1.1618  0.4010  0.0914
 6269SOL     OW24841   4.989   4.767   5.884  0.4658  0.9063  0.0197
 6269SOL    HW224842   4.923   4.705   5.853  0.4552  0.7999  0.2532
 6269SOL    HW324843   5.071   4.736   5.846  0.8201 -0.4669  1.7847
 6269SOL    MW424844   4.991   4.755   5.875  0.2768 -0.5814 -0.1443
 6270SOL     OW24845   1.788   1.218   2.684 -0.2654 -0.0566 -0.1084
 6270SOL    HW224846   1.727   1.265   2.741 -0.9324 -2.0884  0.9531
 6270SOL    HW324847   1.796   1.132   2.724  1.4457 -0.6381 -1.5891
 6270SOL    MW424848   1.781   1.213   2.697  0.0270 -0.4814 -0.5656
 6271SOL     OW24849   0.179   4.225   5.279 -0.6883  0.4849 -0.5327
 6271SOL    HW224850   0.193   4.235   5.185 -1.2636  1.0023 -0.5747
 6271SOL    HW324851   0.232   4.294   5.319 -0.6496  0.4338 -0.4955
 6271SOL    MW424852   0.188   4.236   5.272 -0.3114  0.1644  0.2066
 6272SOL     OW24853   2.923   0.951   2.075  0.1640  0.4454 -0.3817
 6272SOL    HW224854   2.886   0.947   1.987  1.1917  1.7642 -0.9111
 6272SOL    HW324855   2.886   1.031   2.113  2.4239  1.8777 -0.9738
 6272SOL    MW424856   2.914   0.961   2.068  1.0022 -0.4352 -0.6261
 6273SOL     OW24857   3.173   1.081   3.047 -0.0069  0.3560  0.4281
 6273SOL    HW224858   3.253   1.116   3.009  0.6056 -0.9916  0.4325
 6273SOL    HW324859   3.163   0.995   3.008 -1.5514  0.5600  0.3158
 6273SOL    MW424860   3.182   1.075   3.037  0.1714  0.6009  0.1035
 6274SOL     OW24861   3.793   0.640   1.040  0.5456  0.1454  0.2741
 6274SOL    HW224862   3.778   0.549   1.065  0.8101 -0.3058 -1.1505
 6274SOL    HW324863   3.798   0.687   1.124 -2.9537 -0.5660  1.0679
 6274SOL    MW424864   3.791   0.635   1.055 -0.2423 -0.2183 -0.2311
 6275SOL     OW24865   1.117   3.279   3.795  0.1512 -0.3584 -1.3954
 6275SOL    HW224866   1.133   3.328   3.715 -0.7756 -0.6667 -1.7756
 6275SOL    HW324867   1.024   3.257   3.793  0.1541 -0.5376 -0.3285
 6275SOL    MW424868   1.107   3.282   3.784  0.0878 -0.1886  0.1257
 6276SOL     OW24869   0.688   5.954   1.609 -0.2117  0.6252  0.2434
 6276SOL    HW224870   0.679   5.946   1.704  1.0022 -0.1297  0.3142
 6276SOL    HW324871   0.671   5.866   1.576 -0.3520  0.8244 -0.2240
 6276SOL    MW424872   0.685   5.941   1.617  0.5031 -0.1118  0.5042
 6277SOL     OW24873   4.549   3.211   5.395 -0.5384  0.4957 -0.2896
 6277SOL    HW224874   4.605   3.142   5.359  0.9876  1.7562 -0.3907
 6277SOL    HW324875   4.462   3.191   5.359  0.2040 -0.4077 -1.6734
 6277SOL    MW424876   4.545   3.199   5.385 -0.0128  0.5826  0.2587
 6278SOL     OW24877   6.035   3.972   5.692 -0.1433  0.2619  0.7525
 6278SOL    HW224878   6.017   3.889   5.647  1.6362  0.2791 -0.0836
 6278SOL    HW324879   6.116   3.956   5.740 -0.2332  1.2758  1.2598
 6278SOL    MW424880   6.043   3.959   5.692  0.0535  0.0303 -0.0644
 6279SOL     OW24881   2.349   3.487   2.311  0.0944 -0.1818  0.3884
 6279SOL    HW224882   2.282   3.472   2.377  0.5411  2.1504  1.4489
 6279SOL    HW324883   2.425   3.437   2.342 -0.2902 -0.6545  0.5852
 6279SOL    MW424884   2.350   3.478   2.324 -0.0550  0.1615  0.0788
 6280SOL     OW24885   1.600   1.911   3.029  0.2074 -0.7268 -0.2657
 6280SOL    HW224886   1.665   1.906   2.959  0.0380 -0.8168 -0.4214
 6280SOL    HW324887   1.524   1.952   2.988 -0.3965 -2.0502 -0.5438
 6280SOL    MW424888   1.598   1.915   3.014  0.1745 -0.3039  0.6228
 6281SOL     OW24889   0.262   0.861   0.744 -0.2739  0.2267 -0.5518
 6281SOL    HW224890   0.169   0.852   0.765  0.0249  0.4571  1.0012
 6281SOL    HW324891   0.267   0.941   0.693 -0.8050  0.8288  0.3034
 6281SOL    MW424892   0.250   0.870   0.740 -0.0751  0.6720  0.1596
 6282SOL     OW24893   2.227   4.301   0.763 -0.8142  0.1423  0.5780
 6282SOL    HW224894   2.304   4.287   0.818 -1.5461 -0.6200  1.4380
 6282SOL    HW324895   2.153   4.291   0.822 -1.6021  0.1795 -0.3756
 6282SOL    MW424896   2.228   4.298   0.778 -0.9147 -0.5568  0.2367
 6283SOL     OW24897   5.289   3.861   3.531 -0.1923  0.4820 -0.5345
 6283SOL    HW224898   5.257   3.791   3.475 -1.3850  2.0476 -1.9039
 6283SOL    HW324899   5.226   3.863   3.604  0.5754 -0.6418  0.2080
 6283SOL    MW424900   5.276   3.852   3.533  0.1892 -0.1722 -0.5279
 6284SOL     OW24901   3.183   5.098   3.794 -0.2050 -0.4040 -0.9949
 6284SOL    HW224902   3.143   5.173   3.751  0.3773  1.0744  0.9075
 6284SOL    HW324903   3.133   5.023   3.762 -1.8030  0.9259 -1.7933
 6284SOL    MW424904   3.171   5.098   3.784 -0.0303 -0.5194  0.4880
 6285SOL     OW24905   5.957   0.079   1.181  0.1852  0.1393 -0.1028
 6285SOL    HW224906   5.963   0.163   1.226 -1.7070  0.2961 -0.0779
 6285SOL    HW324907   5.871   0.045   1.206  0.9956 -1.9119  0.0605
 6285SOL    MW424908   5.946   0.086   1.190  1.0439  0.0281 -0.2749
 6286SOL     OW24909   4.610   1.686   1.817 -0.0050 -0.5577 -0.0698
 6286SOL    HW224910   4.679   1.745   1.786 -0.0815 -1.1064 -1.3823
 6286SOL    HW324911   4.656   1.606   1.842 -0.1607 -1.1455 -1.5104
 6286SOL    MW424912   4.625   1.683   1.816  0.1062  0.9072  0.2235
 6287SOL     OW24913   0.736   2.869   0.204 -0.6097 -0.0446  0.8428
 6287SOL    HW224914   0.714   2.838   0.292  0.2551 -1.8024  0.4792
 6287SOL    HW324915   0.806   2.933   0.219  0.2481 -1.0729  1.3981
 6287SOL    MW424916   0.743   2.873   0.218  0.0831  0.5161 -0.0313
 6288SOL     OW24917   2.640   3.077   5.748 -0.0731 -0.0534  0.2147
 6288SOL    HW224918   2.692   3.064   5.669  2.0896  0.1861  1.4932
 6288SOL    HW324919   2.616   2.989   5.776 -1.0874 -0.1220 -0.8215
 6288SOL    MW424920   2.644   3.064   5.742 -0.0442  0.0163  0.0558
 6289SOL     OW24921   0.561   4.172   3.036  0.0971 -0.0569  0.0532
 6289SOL    HW224922   0.491   4.237   3.039  0.4182  0.3608 -1.0618
 6289SOL    HW324923   0.525   4.097   3.083 -0.9433  0.3094 -0.1167
 6289SOL    MW424924   0.547   4.171   3.042 -0.2302  0.5402  0.1411
 6290SOL     OW24925   3.361   3.523   3.542 -0.1798 -0.6550  0.0911
 6290SOL    HW224926   3.393   3.518   3.632 -0.0939  1.8799  0.2851
 6290SOL    HW324927   3.276   3.479   3.544  0.2869 -1.5600  1.1422
 6290SOL    MW424928   3.354   3.517   3.554 -0.1578 -0.0534  0.0636
 6291SOL     OW24929   1.404   0.633   4.087  0.2106  0.0591 -0.3279
 6291SOL    HW224930   1.442   0.560   4.038  0.9527  1.3062 -1.6735
 6291SOL    HW324931   1.324   0.655   4.039  0.5236  0.7805 -0.5248
 6291SOL    MW424932   1.399   0.626   4.074 -0.3852 -0.0893  0.1558
 6292SOL     OW24933   4.386   0.844   1.914 -0.3584 -0.4578 -0.4141
 6292SOL    HW224934   4.405   0.774   1.851  1.6550 -0.0579 -0.3081
 6292SOL    HW324935   4.344   0.799   1.988  0.6532 -1.5362 -0.4630
 6292SOL    MW424936   4.383   0.829   1.915  0.2664  0.2933 -0.0299
 6293SOL     OW24937   2.185   0.876   1.595  0.2516  0.3970  0.1611
 6293SOL    HW224938   2.233   0.801   1.559  0.2512  1.2469 -1.7528
 6293SOL    HW324939   2.250   0.922   1.649  0.0084 -1.4053  2.1405
 6293SOL    MW424940   2.200   0.872   1.597 -0.0212  0.5594  0.8746
 6294SOL     OW24941   0.499   4.252   4.794 -0.6901 -0.4720 -0.5747
 6294SOL    HW224942   0.551   4.177   4.765  0.1420  0.1042 -0.5908
 6294SOL    HW324943   0.450   4.219   4.869 -1.1403 -1.3312 -1.2302
 6294SOL    MW424944   0.499   4.237   4.800 -0.4581 -0.6130  0.2176
 6295SOL     OW24945   5.016   0.087   2.013 -0.0399  0.1499 -0.2660
 6295SOL    HW224946   4.929   0.055   2.039 -0.4553  0.8613 -0.7376
 6295SOL    HW324947   5.077   0.023   2.049 -0.6227  0.6809  1.8079
 6295SOL    MW424948   5.012   0.075   2.021 -0.0929  0.2403 -0.0045
 6296SOL     OW24949   5.833   1.772   0.119 -0.0861 -0.1572  0.3892
 6296SOL    HW224950   5.790   1.689   0.134  0.3729 -0.4384  0.1746
 6296SOL    HW324951   5.770   1.824   0.069  0.8730 -1.6198 -2.6021
 6296SOL    MW424952   5.819   1.768   0.114  0.1870  0.9148 -0.4468
 6297SOL     OW24953   0.340   6.296   2.010  0.0516  0.6842 -0.3182
 6297SOL    HW224954   0.275   6.229   2.029  0.6500  0.0366 -0.5492
 6297SOL    HW324955   0.292   6.362   1.960 -1.0371  1.4168  1.5866
 6297SOL    MW424956   0.325   6.296   2.006  0.0414  0.0021 -0.1724
 6298SOL     OW24957   2.284   5.341   1.769 -0.1867 -0.6707  0.4830
 6298SOL    HW224958   2.337   5.421   1.774  0.7015 -1.1547 -0.7352
 6298SOL    HW324959   2.201   5.369   1.732  0.3974 -0.4069 -0.6820
 6298SOL    MW424960   2.280   5.355   1.765 -0.4437  0.2983  0.1706
 6299SOL     OW24961   6.325   0.310   4.437  0.0434 -0.1347 -0.0159
 6299SOL    HW224962   6.406   0.361   4.432  1.0111 -1.6969 -1.9888
 6299SOL    HW324963   6.353   0.224   4.468 -0.9889 -0.4675  0.0258
 6299SOL    MW424964   6.340   0.306   4.440  0.2479 -0.5677 -0.1087
 6300SOL     OW24965   5.702   3.714   0.169  0.3625  0.2567  0.2188
 6300SOL    HW224966   5.761   3.665   0.112 -0.3812  0.0029 -0.3497
 6300SOL    HW324967   5.746   3.716   0.254  1.9609  1.4938 -0.5849
 6300SOL    MW424968   5.716   3.708   0.173  0.0867  0.0672 -0.4616
 6301SOL     OW24969   5.582   2.501   4.056 -0.5875 -0.5534  0.3530
 6301SOL    HW224970   5.595   2.409   4.080 -1.4682 -0.6124  0.6588
 6301SOL    HW324971   5.602   2.549   4.136  0.9101 -0.3739 -0.0964
 6301SOL    MW424972   5.586   2.495   4.070 -0.0298  0.6315  0.4598
 6302SOL     OW24973   5.272   0.025   0.951 -0.0297 -0.2761 -0.1875
 6302SOL    HW224974   5.212   0.022   1.025 -0.0325  0.6532 -0.1409
 6302SOL    HW324975   5.302  -0.065   0.941 -1.1274 -0.6846  0.0307
 6302SOL    MW424976   5.268   0.013   0.959 -0.7099 -0.5455  0.1906
 6303SOL     OW24977   5.364   4.426   5.721 -1.0253 -0.2539 -0.1973
 6303SOL    HW224978   5.421   4.448   5.794 -1.0172 -0.9756  0.0188
 6303SOL    HW324979   5.297   4.368   5.759 -0.8118 -0.9259 -0.8268
 6303SOL    MW424980   5.363   4.421   5.736 -0.2578  0.0019  0.3896
 6304SOL     OW24981   1.561   2.448   0.494  0.3046 -0.5056 -0.3987
 6304SOL    HW224982   1.568   2.354   0.478 -0.6861 -0.3676 -1.9149
 6304SOL    HW324983   1.642   2.471   0.539  0.2211 -2.1979  0.7072
 6304SOL    MW424984   1.572   2.439   0.498 -0.3772 -0.2780  0.4510
 6305SOL     OW24985   1.204   5.954   4.215 -0.2256  0.3216  0.1693
 6305SOL    HW224986   1.240   5.869   4.243  0.3514  0.9102  1.2864
 6305SOL    HW324987   1.239   6.017   4.278  0.1459  1.5554 -1.2274
 6305SOL    MW424988   1.213   5.951   4.227 -0.2968  0.1722 -0.1288
 6306SOL     OW24989   5.835   2.252   4.201 -0.0327 -0.2575  0.2073
 6306SOL    HW224990   5.897   2.197   4.249  0.3668  0.3589  0.3975
 6306SOL    HW324991   5.868   2.253   4.111  0.1821 -0.0111  0.2874
 6306SOL    MW424992   5.847   2.245   4.196  0.1769  0.2261 -0.0610
 6307SOL     OW24993   5.502   5.513   1.186 -0.1490  0.1600  0.1960
 6307SOL    HW224994   5.448   5.478   1.116  1.0112 -1.7463  0.1585
 6307SOL    HW324995   5.591   5.513   1.150  0.1938  1.0326  1.0000
 6307SOL    MW424996   5.507   5.508   1.172 -0.1469  0.3205 -0.1355
 6308SOL     OW24997   6.133   1.207   2.016 -0.3029  0.0568  0.0603
 6308SOL    HW224998   6.185   1.133   2.046  0.0844  0.0459 -0.6023
 6308SOL    HW324999   6.152   1.278   2.078 -3.2747 -1.2979  2.7735
 6308SOL    MW425000   6.143   1.207   2.028 -0.0952  0.0496  0.5253
 6309SOL     OW25001   3.186   0.255   1.636  0.2278 -0.4932  0.9349
 6309SOL    HW225002   3.233   0.292   1.710  1.3023  0.9430 -0.3986
 6309SOL    HW325003   3.154   0.331   1.587 -1.7771 -1.4212  0.7073
 6309SOL    MW425004   3.188   0.270   1.639 -0.1463  0.0709  0.2273
 6310SOL     OW25005   0.150   5.517   0.270 -0.1087  0.0899 -0.0232
 6310SOL    HW225006   0.214   5.507   0.341 -1.0000 -0.6571  0.7113
 6310SOL    HW325007   0.162   5.606   0.239  0.3160  0.4298  1.0687
 6310SOL    MW425008   0.160   5.527   0.276  0.5207  0.3699 -0.7297
 6311SOL     OW25009   5.944   3.534   0.987  0.1471 -0.2129 -0.2593
 6311SOL    HW225010   5.927   3.554   1.079  1.2506  0.8347 -0.2480
 6311SOL    HW325011   5.859   3.544   0.944 -0.4978 -1.2664  0.7117
 6311SOL    MW425012   5.931   3.538   0.993  0.2901 -0.1188  0.9096
 6312SOL     OW25013   0.635   2.838   6.219 -0.1482  0.1207 -0.3886
 6312SOL    HW225014   0.684   2.906   6.174  0.6043  0.6428  1.1661
 6312SOL    HW325015   0.700   2.788   6.268 -0.8141 -1.0897 -0.6779
 6312SOL    MW425016   0.650   2.840   6.220 -0.1595 -0.5404  0.1556
 6313SOL     OW25017   2.190   2.666   1.592 -0.0369  0.1408  0.0979
 6313SOL    HW225018   2.226   2.617   1.666 -0.3306  1.0041  0.8406
 6313SOL    HW325019   2.117   2.716   1.630 -1.2550 -0.6308 -1.1078
 6313SOL    MW425020   2.185   2.666   1.607  0.2433  0.0262 -0.4472
 6314SOL     OW25021   1.852   2.665   2.173 -0.3616 -0.0996 -0.2764
 6314SOL    HW225022   1.866   2.604   2.246 -1.8176 -1.6362 -1.2030
 6314SOL    HW325023   1.907   2.632   2.102 -0.0420  0.5550 -0.3453
 6314SOL    MW425024   1.861   2.653   2.173 -0.7881  0.7262  0.3600
 6315SOL     OW25025   5.444   0.298   1.228 -0.0743 -0.6797  0.1588
 6315SOL    HW225026   5.416   0.331   1.313 -0.2550 -2.2326  0.7258
 6315SOL    HW325027   5.365   0.300   1.174  0.1462  0.7664 -0.1497
 6315SOL    MW425028   5.430   0.303   1.232  0.5018  0.1732 -0.0198
 6316SOL     OW25029   0.862   2.240   2.571 -0.1374 -0.3648  0.4458
 6316SOL    HW225030   0.772   2.273   2.565 -0.4700 -1.4419 -1.0239
 6316SOL    HW325031   0.853   2.155   2.613  0.2185 -0.4242  0.4034
 6316SOL    MW425032   0.849   2.233   2.576  0.1917  0.7264 -0.0420
 6317SOL     OW25033   3.653   2.308   3.760 -0.4962 -0.0817 -0.2050
 6317SOL    HW225034   3.715   2.358   3.707 -1.8986  0.8801 -0.9974
 6317SOL    HW325035   3.663   2.218   3.729  0.1405  0.1416 -0.6717
 6317SOL    MW425036   3.662   2.302   3.749  0.5110  0.1074 -0.3221
 6318SOL     OW25037   3.212   6.014   2.968  0.0128  0.0960 -0.2606
 6318SOL    HW225038   3.127   6.033   2.929  0.5306  0.0738 -1.4255
 6318SOL    HW325039   3.240   6.098   3.005  0.7022  0.8396 -2.3034
 6318SOL    MW425040   3.205   6.028   2.968 -0.7100 -0.3669  0.2015
 6319SOL     OW25041   3.671   0.263   1.962  0.1509  0.0127 -0.3130
 6319SOL    HW225042   3.624   0.346   1.973 -1.4934 -0.5642 -2.3327
 6319SOL    HW325043   3.669   0.223   2.049 -2.5187  0.3879 -0.1084
 6319SOL    MW425044   3.665   0.269   1.975 -0.5585 -0.1074  0.0282
 6320SOL     OW25045   1.862   6.083   6.245 -0.3376  0.1988 -0.0453
 6320SOL    HW225046   1.917   6.154   6.211 -0.9326  0.9505  0.5354
 6320SOL    HW325047   1.911   6.049   6.320 -0.9750  1.3419  0.9118
 6320SOL    MW425048   1.876   6.088   6.250  0.0016 -0.3636 -0.3884
 6321SOL     OW25049   3.977   5.601   5.325 -0.3430  0.1725  0.1981
 6321SOL    HW225050   3.901   5.569   5.373 -2.1842  3.7126  0.0076
 6321SOL    HW325051   4.000   5.530   5.266 -1.5470 -2.1609  2.3196
 6321SOL    MW425052   3.970   5.588   5.324  0.0862  0.1860  0.5241
 6322SOL     OW25053   6.134   5.856   2.108  0.5363 -0.1150 -0.1328
 6322SOL    HW225054   6.149   5.935   2.161 -0.6313  0.6493 -0.9156
 6322SOL    HW325055   6.207   5.798   2.132  0.6457  0.6268  1.5033
 6322SOL    MW425056   6.146   5.859   2.118 -0.8030  0.9280  0.1798
 6323SOL     OW25057   0.944   0.992   0.081  0.1900 -0.0716  0.5345
 6323SOL    HW225058   0.890   0.914   0.091 -0.3806 -0.0071 -1.6395
 6323SOL    HW325059   0.973   1.012   0.170 -1.9645 -1.1044  1.5487
 6323SOL    MW425060   0.940   0.984   0.094  0.2313  0.0021 -0.4070
 6324SOL     OW25061   1.581   0.805   1.186 -0.1883  0.8420 -0.6351
 6324SOL    HW225062   1.527   0.798   1.107  1.0486 -0.8847 -1.3974
 6324SOL    HW325063   1.553   0.731   1.240 -1.2503  2.1997  0.7471
 6324SOL    MW425064   1.570   0.794   1.183 -0.3775 -0.4577  0.2822
 6325SOL     OW25065   2.318   6.272   6.245  0.0732  0.3940 -0.3873
 6325SOL    HW225066   2.337   6.192   6.294 -1.5784  0.9553  1.3041
 6325SOL    HW325067   2.378   6.270   6.171  1.6945 -1.2308  0.8769
 6325SOL    MW425068   2.328   6.261   6.242 -0.0592 -0.2066 -0.1069
 6326SOL     OW25069   5.874   3.356   0.541 -0.2506  0.2560  0.3273
 6326SOL    HW225070   5.811   3.299   0.497 -1.9190  1.2080  1.3877
 6326SOL    HW325071   5.822   3.406   0.603  1.8604 -0.3206  2.7220
 6326SOL    MW425072   5.859   3.355   0.543  0.7804 -0.3095 -0.1013
 6327SOL     OW25073   5.023   2.230   4.800 -0.1483 -0.2599 -0.1321
 6327SOL    HW225074   5.063   2.292   4.860 -1.3939 -1.5274  2.1828
 6327SOL    HW325075   4.938   2.269   4.778 -0.8755 -0.9934  1.2200
 6327SOL    MW425076   5.017   2.243   4.805 -0.4370  0.6201  0.8506
 6328SOL     OW25077   2.048   3.879   4.383  0.0737 -0.9015  0.7366
 6328SOL    HW225078   2.009   3.966   4.374  0.6324 -0.4953  1.9485
 6328SOL    HW325079   1.973   3.819   4.386 -0.3347 -0.4202  0.3489
 6328SOL    MW425080   2.033   3.882   4.382  0.0517  0.2514 -0.0519
 6329SOL     OW25081   3.634   4.254   0.810  0.2733  0.0677 -0.0349
 6329SOL    HW225082   3.595   4.248   0.723 -2.4685  0.1107  1.1038
 6329SOL    HW325083   3.598   4.180   0.858 -1.0698  1.9444  2.0554
 6329SOL    MW425084   3.624   4.244   0.805 -0.0786 -0.2611  0.1817
 6330SOL     OW25085   4.532   2.134   2.382 -0.1438 -0.5166  0.3846
 6330SOL    HW225086   4.575   2.051   2.401  1.8626  0.1273 -1.0063
 6330SOL    HW325087   4.562   2.194   2.450  0.6188 -0.2473 -0.1811
 6330SOL    MW425088   4.542   2.131   2.393 -0.2009 -0.2903  0.0569
 6331SOL     OW25089   1.439   1.941   5.085  0.9484 -0.7906 -0.4445
 6331SOL    HW225090   1.514   1.998   5.067  0.1550 -0.0948 -1.6989
 6331SOL    HW325091   1.397   1.928   5.000 -1.5009  0.4909  0.4549
 6331SOL    MW425092   1.443   1.947   5.072  0.6351  0.2110  0.1832
 6332SOL     OW25093   2.959   3.387   5.605  0.3586 -0.6382  0.6878
 6332SOL    HW225094   2.987   3.461   5.552  1.5646 -0.9447  0.8692
 6332SOL    HW325095   3.006   3.312   5.569  0.1135 -1.0928  1.2873
 6332SOL    MW425096   2.969   3.387   5.594 -0.1203  0.7187 -0.7071
 6333SOL     OW25097   1.483   3.553   5.524 -0.3988 -0.1598 -0.0656
 6333SOL    HW225098   1.463   3.528   5.615  1.3330  1.1081  0.7405
 6333SOL    HW325099   1.456   3.478   5.472 -1.0572 -1.1060  1.5478
 6333SOL    MW425100   1.477   3.540   5.529 -0.2523 -0.3561 -0.3988
 6334SOL     OW25101   3.567   4.735   2.586  0.3266 -0.2265  0.4396
 6334SOL    HW225102   3.489   4.790   2.575 -0.8348 -1.9517 -0.5405
 6334SOL    HW325103   3.640   4.795   2.574 -0.8576  1.2729  0.3606
 6334SOL    MW425104   3.566   4.750   2.583  0.3501  0.6642 -0.0153
 6335SOL     OW25105   4.322   2.416   1.259  0.1336  0.3025 -0.1019
 6335SOL    HW225106   4.259   2.461   1.201 -1.2844  0.3276  1.3955
 6335SOL    HW325107   4.402   2.467   1.250 -0.2149  0.6560 -1.5799
 6335SOL    MW425108   4.324   2.429   1.250 -0.0949 -0.0748 -0.0845
 6336SOL     OW25109   3.288   6.131   3.998 -0.2815  0.6857 -0.5136
 6336SOL    HW225110   3.331   6.090   4.074 -0.1517  3.2379  0.8947
 6336SOL    HW325111   3.344   6.107   3.924 -0.2452 -1.6383  0.1819
 6336SOL    MW425112   3.301   6.122   3.998 -0.7217 -0.2825  0.5752
 6337SOL     OW25113   3.500   1.644   5.079  0.3353 -0.7746  0.7046
 6337SOL    HW225114   3.481   1.556   5.113  1.4772 -1.1372  0.4249
 6337SOL    HW325115   3.464   1.703   5.146 -0.1492 -1.4471  1.0536
 6337SOL    MW425116   3.493   1.640   5.092 -0.0022 -0.3759  0.3990
 6338SOL     OW25117   3.108   3.397   0.088  0.2266 -0.4997 -0.5394
 6338SOL    HW225118   3.069   3.366   0.170  0.4169 -0.8153 -0.5685
 6338SOL    HW325119   3.033   3.420   0.034  0.1080  0.5300  0.0340
 6338SOL    MW425120   3.093   3.396   0.092 -0.3614  0.3872 -0.4113
 6339SOL     OW25121   2.710   3.378   3.291  0.5232  0.1709 -0.2913
 6339SOL    HW225122   2.694   3.445   3.357  1.0948  1.0013 -0.9852
 6339SOL    HW325123   2.699   3.295   3.339 -1.0859  0.7185  0.3671
 6339SOL    MW425124   2.706   3.376   3.306  0.2067 -0.2082  0.5229
 6340SOL     OW25125   2.206   1.537   2.719  0.4881 -0.3806  0.2266
 6340SOL    HW225126   2.289   1.546   2.671  0.2786 -1.0057 -0.2671
 6340SOL    HW325127   2.166   1.624   2.713  0.9374 -0.1710  0.1577
 6340SOL    MW425128   2.212   1.550   2.711 -0.0564  0.5247  0.0877
 6341SOL     OW25129   4.176   6.037   6.309  0.0264  0.2638  0.0265
 6341SOL    HW225130   4.247   6.090   6.274  1.2699  0.5338  2.6898
 6341SOL    HW325131   4.217   5.955   6.337 -0.8816  0.0074  0.6941
 6341SOL    MW425132   4.190   6.033   6.308 -0.4583 -0.4918 -0.4531
 6342SOL     OW25133   1.655   5.612   0.021  0.2918  0.0750 -0.0165
 6342SOL    HW225134   1.690   5.536  -0.026  0.8709  0.9113 -1.0019
 6342SOL    HW325135   1.560   5.606   0.009  0.3061 -0.6744  0.2164
 6342SOL    MW425136   1.647   5.601   0.013 -0.1802 -0.7426  0.8237
 6343SOL     OW25137   6.166   5.382   2.585  0.2009  0.2275 -0.3457
 6343SOL    HW225138   6.256   5.350   2.590  0.2839  0.4729 -0.2192
 6343SOL    HW325139   6.112   5.304   2.589  0.2828  0.1975  2.7114
 6343SOL    MW425140   6.171   5.368   2.586 -0.4998 -0.3091 -0.4047
 6344SOL     OW25141   1.274   4.877   4.569  0.3691 -0.2862  0.3635
 6344SOL    HW225142   1.219   4.888   4.492 -0.7356 -0.1478  1.1445
 6344SOL    HW325143   1.317   4.792   4.556 -0.2091 -0.5075 -0.1569
 6344SOL    MW425144   1.272   4.867   4.557  0.5031 -0.1791  0.3802
 6345SOL     OW25145   5.359   4.066   3.368  0.8013 -0.0804  0.6559
 6345SOL    HW225146   5.323   4.010   3.436 -0.2404 -0.3217 -0.0737
 6345SOL    HW325147   5.425   4.119   3.413 -1.3844  1.3639  2.3842
 6345SOL    MW425148   5.363   4.066   3.383 -0.2232 -0.0186 -0.1444
 6346SOL     OW25149   0.020   4.658   5.066 -0.1321 -0.5488 -0.2312
 6346SOL    HW225150  -0.065   4.614   5.061 -0.3597 -0.3115  1.1022
 6346SOL    HW325151   0.011   4.735   5.010 -1.1232 -0.0277  0.6248
 6346SOL    MW425152   0.008   4.662   5.058 -0.2409  0.4908 -0.2086
 6347SOL     OW25153   4.883   4.999   5.344 -0.2131 -0.1031  0.0378
 6347SOL    HW225154   4.820   5.011   5.272  1.1240  0.9340 -1.0150
 6347SOL    HW325155   4.968   4.992   5.300  0.3640 -2.3806  1.3695
 6347SOL    MW425156   4.886   5.000   5.329  0.2081 -0.0103  0.4211
 6348SOL     OW25157   3.992   6.070   0.512 -0.5623 -0.4874 -0.2349
 6348SOL    HW225158   3.971   5.978   0.529 -1.2828 -0.1354  0.8993
 6348SOL    HW325159   3.921   6.100   0.455  0.0407 -0.7968 -1.1679
 6348SOL    MW425160   3.980   6.062   0.507  0.3602  0.4846 -0.3782
 6349SOL     OW25161   0.496   6.365   0.455  0.1889 -0.2555  0.4238
 6349SOL    HW225162   0.562   6.296   0.452  2.5572  1.8477  0.7728
 6349SOL    HW325163   0.503   6.408   0.369  0.7257  1.1803  1.1391
 6349SOL    MW425164   0.506   6.362   0.443 -0.4298 -0.5424  0.2711
 6350SOL     OW25165   4.754   5.473   2.604  0.2681  0.3065 -0.1239
 6350SOL    HW225166   4.726   5.420   2.529  1.9683 -0.7910 -0.0467
 6350SOL    HW325167   4.744   5.415   2.679 -1.8934  1.5614  0.6362
 6350SOL    MW425168   4.749   5.458   2.604 -0.1761 -0.0550  0.5111
 6351SOL     OW25169   0.129   4.148   2.638 -0.0116 -0.3771  0.0978
 6351SOL    HW225170   0.073   4.197   2.578 -2.0475  0.6422  2.5984
 6351SOL    HW325171   0.072   4.080   2.675  0.4339  0.3565  2.3323
 6351SOL    MW425172   0.114   4.146   2.635 -0.2651 -0.1253  0.3700
 6352SOL     OW25173   1.547   2.481   2.670  0.1098  0.1481  0.0019
 6352SOL    HW225174   1.612   2.420   2.635 -0.0752  0.9275 -1.8134
 6352SOL    HW325175   1.598   2.555   2.700  0.2065 -0.1501  0.5825
 6352SOL    MW425176   1.562   2.482   2.669 -0.4377  0.2293  0.6734
 6353SOL     OW25177   0.389   3.412   6.402 -0.2863 -0.0704  0.1424
 6353SOL    HW225178   0.381   3.317   6.412  1.9258 -0.3255 -0.0401
 6353SOL    HW325179   0.412   3.442   6.490 -0.4294  0.2164  0.0799
 6353SOL    MW425180   0.391   3.403   6.415 -0.1108  0.0495  0.0401
 6354SOL     OW25181   6.340   5.180   4.909 -0.3014 -0.5560  0.2437
 6354SOL    HW225182   6.430   5.205   4.886 -0.5288  0.2105  0.1634
 6354SOL    HW325183   6.296   5.263   4.927 -1.8916 -0.6085 -2.9105
 6354SOL    MW425184   6.346   5.195   4.909  0.1492  0.3373  0.1474
 6355SOL     OW25185   0.519   2.291   4.283 -0.2589  0.1215  0.1766
 6355SOL    HW225186   0.485   2.277   4.196  0.5072  1.4013 -0.3715
 6355SOL    HW325187   0.510   2.207   4.328  0.2938 -0.8532 -1.4669
 6355SOL    MW425188   0.514   2.278   4.278 -0.1950 -0.2870  0.4178
 6356SOL     OW25189   2.367   1.817   0.116 -0.4348  0.9532 -0.2323
 6356SOL    HW225190   2.453   1.861   0.108  0.0451 -0.0775 -0.9914
 6356SOL    HW325191   2.338   1.806   0.025 -0.8450  0.2787 -0.0221
 6356SOL    MW425192   2.375   1.821   0.103 -0.4910  0.3489 -0.4003
 6357SOL     OW25193   6.055   0.051   1.490 -0.3823  0.3968  0.6282
 6357SOL    HW225194   6.110   0.028   1.564  0.3090  1.6315  0.5252
 6357SOL    HW325195   6.117   0.070   1.419 -1.0484 -2.8549 -0.9707
 6357SOL    MW425196   6.070   0.051   1.490  0.2657  0.4025  0.5344
 6358SOL     OW25197   2.428   0.539   0.678  0.0585  0.0418  0.1622
 6358SOL    HW225198   2.489   0.568   0.746  0.4284 -2.1610  0.8412
 6358SOL    HW325199   2.444   0.445   0.671  0.9232  0.3142 -3.8616
 6358SOL    MW425200   2.438   0.530   0.686  0.1565  0.1780 -0.3431
 6359SOL     OW25201   1.926   5.683   4.231  0.6395  0.0782 -0.4298
 6359SOL    HW225202   1.868   5.659   4.303  1.4275  0.1510  0.2495
 6359SOL    HW325203   1.868   5.698   4.157 -0.1622 -0.2993  0.1127
 6359SOL    MW425204   1.911   5.682   4.231  0.0316 -0.1078  0.1171
 6360SOL     OW25205   2.216   1.190   6.156  0.4840 -0.3760  0.2130
 6360SOL    HW225206   2.133   1.165   6.196  0.9600 -0.4295  1.2022
 6360SOL    HW325207   2.209   1.285   6.143  0.0958 -0.4496 -0.1376
 6360SOL    MW425208   2.204   1.199   6.160  0.1572  0.4607  0.4230
 6361SOL     OW25209   3.060   0.146  -0.003 -0.2130 -0.3577 -0.1335
 6361SOL    HW225210   3.027   0.094   0.071 -0.3410 -1.1558 -0.7414
 6361SOL    HW325211   3.146   0.108  -0.021 -0.0755  0.0049 -0.2352
 6361SOL    MW425212   3.067   0.134   0.005 -0.1425  0.2337 -0.5495
 6362SOL     OW25213   4.038   0.149   5.032  0.0384  0.0372 -0.1322
 6362SOL    HW225214   4.044   0.165   5.127 -0.5671  1.5375 -0.3195
 6362SOL    HW325215   4.095   0.215   4.993 -1.7247  1.1762 -0.9131
 6362SOL    MW425216   4.046   0.160   5.040  0.1865 -0.4399 -0.5111
 6363SOL     OW25217   2.196   0.301   0.183 -0.5123  0.1636  0.0945
 6363SOL    HW225218   2.124   0.259   0.137  1.5217 -1.6357 -1.7099
 6363SOL    HW325219   2.232   0.232   0.239  0.1813  0.8368  0.5084
 6363SOL    MW425220   2.192   0.286   0.184  0.8941 -0.4262 -0.0936
 6364SOL     OW25221   2.167   3.820   0.726 -0.2232  0.1069 -0.0149
 6364SOL    HW225222   2.116   3.847   0.651 -0.0295  0.4696 -0.0190
 6364SOL    HW325223   2.220   3.897   0.748 -1.1608  0.4297  1.2431
 6364SOL    MW425224   2.168   3.834   0.719  0.2335 -0.2447 -0.0174
 6365SOL     OW25225   5.878   5.505   5.086 -0.1344 -0.0113  0.5796
 6365SOL    HW225226   5.968   5.538   5.089 -0.7030  1.6406  0.6739
 6365SOL    HW325227   5.862   5.471   5.174  0.3165 -0.0950  0.6314
 6365SOL    MW425228   5.887   5.505   5.098 -0.3251  0.4177 -0.5612
 6366SOL     OW25229   2.917   1.100   4.202 -0.9880 -0.2457  0.3015
 6366SOL    HW225230   2.911   1.007   4.225 -1.5949 -0.5102 -0.8253
 6366SOL    HW325231   2.909   1.146   4.285 -0.2458 -1.2055  0.9292
 6366SOL    MW425232   2.915   1.094   4.216 -0.3798  0.3448  0.6159
 6367SOL     OW25233   5.662   3.462   3.032  0.7115 -0.7439 -0.3705
 6367SOL    HW225234   5.643   3.389   3.091  0.5125 -0.2979  0.1193
 6367SOL    HW325235   5.625   3.434   2.948  1.4063 -1.5765 -0.4067
 6367SOL    MW425236   5.654   3.449   3.029  0.0199  0.8273 -0.7484
 6368SOL     OW25237   5.385   1.557   2.096 -0.1300  0.0817 -0.2751
 6368SOL    HW225238   5.292   1.538   2.108 -0.1882  1.8607  3.8082
 6368SOL    HW325239   5.394   1.649   2.122  2.6802  0.2316 -1.4140
 6368SOL    MW425240   5.374   1.567   2.101  0.1329  0.0181  0.2482
 6369SOL     OW25241   1.807   2.273   3.399  0.6294 -0.0805  0.5883
 6369SOL    HW225242   1.874   2.212   3.428  1.6708  0.6620 -0.1989
 6369SOL    HW325243   1.751   2.285   3.475  1.4710 -0.5907  1.3040
 6369SOL    MW425244   1.808   2.266   3.413  0.2291  0.5558 -0.3850
 6370SOL     OW25245   4.420   3.906   2.450  0.4613  0.1396  0.3964
 6370SOL    HW225246   4.489   3.971   2.433  0.1593  0.0896 -1.1775
 6370SOL    HW325247   4.364   3.947   2.516  1.5622  0.4940  1.1508
 6370SOL    MW425248   4.422   3.920   2.457  0.1713 -0.2466  0.2370
 6371SOL     OW25249   0.525   5.130   5.897 -0.3961 -0.1769 -0.3537
 6371SOL    HW225250   0.497   5.045   5.930  0.7792  0.0260  1.3024
 6371SOL    HW325251   0.613   5.115   5.863  0.5801  0.6726  1.6231
 6371SOL    MW425252   0.533   5.117   5.897 -0.3110 -0.1886 -0.1370
 6372SOL     OW25253   2.176   1.020   2.640 -0.3582  0.2940 -0.3630
 6372SOL    HW225254   2.113   1.029   2.568 -0.7384 -0.6083 -0.1563
 6372SOL    HW325255   2.187   1.109   2.673 -1.5865  0.4680 -0.3728
 6372SOL    MW425256   2.169   1.033   2.635 -0.7564  0.0015  0.3085
 6373SOL     OW25257   0.229   5.795   0.236 -0.1566  0.0398  0.8977
 6373SOL    HW225258   0.324   5.802   0.237  0.0676 -2.2023  1.3839
 6373SOL    HW325259   0.198   5.885   0.226  1.9963  0.8136  0.6998
 6373SOL    MW425260   0.237   5.808   0.235  0.4620  0.2883 -0.1622
 6374SOL     OW25261   5.215   6.064   1.740  0.6269  0.2519  0.2396
 6374SOL    HW225262   5.292   6.098   1.786  0.5489  0.0783  0.5028
 6374SOL    HW325263   5.248   6.034   1.656  0.8301  0.2732  0.3121
 6374SOL    MW425264   5.229   6.065   1.735 -0.3976  0.1480  0.2575
 6375SOL     OW25265   4.943   4.519   2.159  0.1706  0.1404  0.0642
 6375SOL    HW225266   4.857   4.557   2.139 -0.3529 -0.0597  1.7520
 6375SOL    HW325267   4.993   4.592   2.195  0.5643  0.1554 -0.5082
 6375SOL    MW425268   4.938   4.534   2.161 -0.2281 -0.5513  0.1984
 6376SOL     OW25269   4.636   4.346   2.326 -0.3600  0.1634  0.2656
 6376SOL    HW225270   4.691   4.394   2.387  1.8785 -3.2602  1.2001
 6376SOL    HW325271   4.667   4.372   2.239  0.9188  0.3235  0.7491
 6376SOL    MW425272   4.647   4.355   2.322 -0.0674 -0.1534 -0.0755
 6377SOL     OW25273   2.483   2.207   0.758  0.2090  0.1281 -0.6620
 6377SOL    HW225274   2.436   2.286   0.733 -0.0326  0.6346  1.2072
 6377SOL    HW325275   2.494   2.215   0.853  2.4611 -0.8513 -0.7815
 6377SOL    MW425276   2.478   2.219   0.767 -0.6592 -0.2564 -0.0945
 6378SOL     OW25277   4.112   5.168   5.243  0.2924 -0.5989 -0.2289
 6378SOL    HW225278   4.104   5.075   5.222 -0.7084 -0.9154  1.3880
 6378SOL    HW325279   4.144   5.170   5.333 -1.0110  0.5770  0.2439
 6378SOL    MW425280   4.115   5.156   5.252  0.2240  0.1350  0.4331
 6379SOL     OW25281   3.761   5.243   1.102 -0.7959 -0.0675 -0.3275
 6379SOL    HW225282   3.676   5.281   1.081 -0.7378  0.6015  0.5946
 6379SOL    HW325283   3.824   5.298   1.057 -0.7741  0.3139  0.1603
 6379SOL    MW425284   3.758   5.255   1.093  0.1478 -0.6124  0.2409
 6380SOL     OW25285   0.409   4.392   4.553 -1.0228  0.6312  0.6359
 6380SOL    HW225286   0.424   4.334   4.627  0.1955  1.7961  1.3527
 6380SOL    HW325287   0.464   4.357   4.483 -1.7066 -0.1232  0.4714
 6380SOL    MW425288   0.418   4.380   4.554  0.2406  0.0299  0.4011
 6381SOL     OW25289   2.666   1.602   0.567 -0.3266 -0.7042  0.0806
 6381SOL    HW225290   2.610   1.542   0.518 -1.5515 -0.2075  0.8262
 6381SOL    HW325291   2.647   1.583   0.659 -0.5371  0.6287  0.3305
 6381SOL    MW425292   2.656   1.592   0.573  0.5266 -0.0317  0.7382
 6382SOL     OW25293   5.583   1.569   5.134  0.1996  0.3190 -0.0171
 6382SOL    HW225294   5.565   1.587   5.042 -2.0530 -1.0647  0.0842
 6382SOL    HW325295   5.502   1.591   5.179  0.2157 -1.8545  1.2017
 6382SOL    MW425296   5.570   1.574   5.128 -0.6764 -0.6594  0.6058
 6383SOL     OW25297   4.819   1.672   5.115 -0.9928  0.3518  0.1917
 6383SOL    HW225298   4.750   1.692   5.052 -1.1469  1.3045  0.6421
 6383SOL    HW325299   4.782   1.697   5.200 -1.0712 -1.5935  0.7911
 6383SOL    MW425300   4.805   1.678   5.118  0.3853 -0.9561  0.4875
 6384SOL     OW25301   1.498   0.384   5.176  0.0017  0.0523  0.0724
 6384SOL    HW225302   1.560   0.446   5.139  1.4846 -1.2883  0.1702
 6384SOL    HW325303   1.418   0.396   5.126  0.6675  1.1141 -0.7677
 6384SOL    MW425304   1.496   0.393   5.165 -1.1131  0.1304 -0.7371
 6385SOL     OW25305   2.358   4.876   1.635 -0.1398 -0.3449  0.5683
 6385SOL    HW225306   2.433   4.843   1.585 -1.2532  0.3920 -1.7303
 6385SOL    HW325307   2.364   4.971   1.625 -0.9530 -0.2478  0.9916
 6385SOL    MW425308   2.369   4.884   1.627 -0.0793 -0.4169 -0.2444
 6386SOL     OW25309   2.673   4.527   6.032 -0.3000  0.3854  0.0542
 6386SOL    HW225310   2.753   4.518   6.084 -0.6784 -0.8387  0.4673
 6386SOL    HW325311   2.607   4.481   6.083 -0.7855 -0.4434 -1.2880
 6386SOL    MW425312   2.675   4.520   6.046  0.4155 -0.4089  1.0813
 6387SOL     OW25313   2.375   5.561   4.028 -0.5643 -0.2414  0.0205
 6387SOL    HW225314   2.445   5.497   4.037 -1.2881 -0.8715  1.4791
 6387SOL    HW325315   2.403   5.617   3.955  2.2744  0.5340  1.5251
 6387SOL    MW425316   2.388   5.560   4.020 -0.8616  0.2489 -0.4381
 6388SOL     OW25317   4.925   4.710   1.667 -0.2429 -0.1942 -0.4421
 6388SOL    HW225318   4.932   4.735   1.575 -0.9570  0.3890 -0.3508
 6388SOL    HW325319   4.915   4.794   1.714 -2.6987 -0.5916 -0.1238
 6388SOL    MW425320   4.925   4.725   1.661 -0.5444  0.8372 -0.2018
 6389SOL     OW25321   4.253   6.221   2.320  0.2908  0.5183  0.0543
 6389SOL    HW225322   4.282   6.144   2.273 -0.0161  0.9629 -0.8804
 6389SOL    HW325323   4.312   6.291   2.291 -0.1646  0.8859  0.0003
 6389SOL    MW425324   4.265   6.220   2.310  0.6838  0.3182  0.0028
 6390SOL     OW25325   5.950   4.357   4.007 -0.2339 -0.6124 -0.2737
 6390SOL    HW225326   5.981   4.271   4.034 -0.3736 -0.2270  1.2347
 6390SOL    HW325327   6.024   4.416   4.025 -1.0624 -0.0114  1.3968
 6390SOL    MW425328   5.964   4.353   4.013  0.4765 -0.3579 -0.3043
 6391SOL     OW25329   5.899   6.172   5.202 -0.0605 -0.5433  0.4366
 6391SOL    HW225330   5.871   6.142   5.288 -1.1342  0.4489  0.4448
 6391SOL    HW325331   5.871   6.263   5.197  1.9207  0.0880 -0.1173
 6391SOL    MW425332   5.892   6.180   5.213 -0.0005  0.5821 -0.0042
 6392SOL     OW25333   1.552   0.503   1.247 -0.7251 -0.2082  0.3821
 6392SOL    HW225334   1.581   0.510   1.156 -0.5212 -1.4558  0.3241
 6392SOL    HW325335   1.633   0.492   1.296 -0.8569  0.1310  0.6713
 6392SOL    MW425336   1.567   0.502   1.241  0.2719  0.3692  0.0983
 6393SOL     OW25337   1.298   3.140   1.281  0.0071  0.5740  0.1715
 6393SOL    HW225338   1.266   3.223   1.246 -0.0733 -0.1137 -1.4774
 6393SOL    HW325339   1.393   3.146   1.273 -0.0600  0.0459 -1.0589
 6393SOL    MW425340   1.306   3.152   1.276  0.0275  0.4432 -0.5327
 6394SOL     OW25341   0.407   2.514   3.929  0.1412  0.2612 -0.1234
 6394SOL    HW225342   0.322   2.556   3.937  0.4251  0.8600 -0.2064
 6394SOL    HW325343   0.467   2.570   3.978  1.0040  1.4119 -2.3322
 6394SOL    MW425344   0.404   2.527   3.936  0.0320 -0.3130 -0.4469
 6395SOL     OW25345   4.039   2.868   1.230  0.1412 -0.3365 -0.0314
 6395SOL    HW225346   4.007   2.901   1.314 -0.2604  0.8568 -0.6153
 6395SOL    HW325347   4.134   2.874   1.237  0.0824  1.7294 -0.3602
 6395SOL    MW425348   4.047   2.873   1.242 -0.3821  0.2188  0.5747
 6396SOL     OW25349   5.269   0.403   2.244  0.0042 -0.0128  0.2961
 6396SOL    HW225350   5.222   0.379   2.164  0.0631  0.9185 -0.0373
 6396SOL    HW325351   5.205   0.452   2.295  0.2764  0.2978  0.3426
 6396SOL    MW425352   5.255   0.407   2.240  0.2069 -0.1649 -0.3903
 6397SOL     OW25353   3.879   5.537   5.982  0.3287 -0.1318  0.2639
 6397SOL    HW225354   3.867   5.449   6.017 -2.4246 -0.4985 -1.3228
 6397SOL    HW325355   3.857   5.530   5.889  0.5154  2.1293 -0.0219
 6397SOL    MW425356   3.874   5.525   5.974  0.0482  0.1725  0.1871
 6398SOL     OW25357   1.284   0.908   0.508  0.2798 -0.0987  0.1331
 6398SOL    HW225358   1.340   0.949   0.573  1.1966 -2.8714  1.2444
 6398SOL    HW325359   1.333   0.914   0.426  2.5408 -2.7656  1.1409
 6398SOL    MW425360   1.298   0.914   0.506  0.2726  0.3170 -0.1895
 6399SOL     OW25361   4.447   3.173   3.398 -0.3466  0.3130 -0.3734
 6399SOL    HW225362   4.526   3.224   3.382  0.4663 -0.9696 -0.5883
 6399SOL    HW325363   4.463   3.089   3.355 -1.5018 -0.2668  0.2603
 6399SOL    MW425364   4.459   3.169   3.390 -0.7215 -0.2714  0.2184
 6400SOL     OW25365   5.921   1.948   6.190  0.1668 -0.1011 -0.0678
 6400SOL    HW225366   5.917   2.039   6.160  1.2999 -0.5118 -1.6048
 6400SOL    HW325367   5.833   1.929   6.221 -0.0273  1.5883  0.5148
 6400SOL    MW425368   5.909   1.957   6.190 -0.5442  0.0040 -0.1777
 6401SOL     OW25369   3.043   3.920   3.677  0.0295 -0.3633 -0.2426
 6401SOL    HW225370   3.024   3.859   3.605 -0.2307 -1.1887  0.5135
 6401SOL    HW325371   2.985   3.893   3.748  0.9421 -0.1525  0.6012
 6401SOL    MW425372   3.033   3.909   3.677 -0.4075 -0.2464  0.1711
 6402SOL     OW25373   0.892   5.337   1.218  0.5598  0.0889  0.4605
 6402SOL    HW225374   0.825   5.299   1.274  0.9427 -0.4490  0.5691
 6402SOL    HW325375   0.970   5.285   1.236  1.6826  2.2170  2.1548
 6402SOL    MW425376   0.894   5.325   1.228  0.4834  0.9752  0.0328
 6403SOL     OW25377   3.116   2.715   2.256  0.0126 -0.0935  0.1466
 6403SOL    HW225378   3.161   2.632   2.246  1.3333  0.3954  1.6821
 6403SOL    HW325379   3.039   2.708   2.198  0.1206 -2.3239  0.2066
 6403SOL    MW425380   3.112   2.703   2.247  0.5567  0.0740 -0.1558
 6404SOL     OW25381   6.155   5.091   0.657  0.4669 -0.5040  0.1803
 6404SOL    HW225382   6.102   5.013   0.648 -2.2371  1.0050  1.7065
 6404SOL    HW325383   6.153   5.132   0.570 -1.8804  0.0335  0.4123
 6404SOL    MW425384   6.148   5.086   0.644  0.1402 -0.0749 -0.4169
 6405SOL     OW25385   5.563   3.868   0.842  0.0946 -0.5376  0.2860
 6405SOL    HW225386   5.562   3.939   0.778  0.7356 -0.3048  0.5291
 6405SOL    HW325387   5.499   3.894   0.908  1.6405  0.7457  1.3555
 6405SOL    MW425388   5.555   3.881   0.842  0.4522 -0.1289  0.2817
 6406SOL     OW25389   4.553   5.657   2.651 -0.2565  0.4787 -0.3929
 6406SOL    HW225390   4.467   5.648   2.609  0.4221  1.5356 -2.0983
 6406SOL    HW325391   4.594   5.571   2.638 -0.7795  0.1991 -0.2184
 6406SOL    MW425392   4.547   5.644   2.644 -0.2673  0.0150 -0.1181
 6407SOL     OW25393   5.349   1.820   3.168  0.4484 -0.0066 -0.3566
 6407SOL    HW225394   5.373   1.897   3.117  3.4969 -0.1570  0.6322
 6407SOL    HW325395   5.420   1.757   3.150  0.3179 -0.9609  2.0833
 6407SOL    MW425396   5.362   1.822   3.159  0.4455 -0.0049  0.4704
 6408SOL     OW25397   0.064   1.114   1.086 -0.4089 -0.9452 -0.1807
 6408SOL    HW225398   0.139   1.054   1.088  1.1314  0.7909 -1.7580
 6408SOL    HW325399   0.073   1.167   1.165 -1.0737 -1.9055  0.5736
 6408SOL    MW425400   0.075   1.113   1.097  0.8572  0.0695  0.1523
 6409SOL     OW25401   2.091   3.817   3.760 -0.9119  0.2370 -0.8017
 6409SOL    HW225402   2.032   3.745   3.781  0.7768 -1.0967 -0.4334
 6409SOL    HW325403   2.076   3.834   3.667 -0.4170 -1.5171 -1.2391
 6409SOL    MW425404   2.082   3.810   3.750 -0.0164 -0.0933 -0.4367
 6410SOL     OW25405   0.647   2.793   2.527 -0.1291  0.6946  1.0981
 6410SOL    HW225406   0.731   2.787   2.482 -2.7363 -1.4594 -4.3477
 6410SOL    HW325407   0.628   2.887   2.530  0.7789  1.0464 -1.5034
 6410SOL    MW425408   0.656   2.804   2.522 -0.4234 -0.3701  0.1929
 6411SOL     OW25409   1.388   1.139   4.039  0.0754 -0.1670  0.0209
 6411SOL    HW225410   1.341   1.060   4.014 -2.0613  0.7980  0.7763
 6411SOL    HW325411   1.320   1.204   4.055  1.6710  1.3063  1.2485
 6411SOL    MW425412   1.373   1.137   4.037  0.0373  0.1214 -0.1150
 6412SOL     OW25413   2.088   0.397   5.166 -0.8574  0.2931 -0.5806
 6412SOL    HW225414   2.184   0.398   5.167 -0.8516  0.1433 -0.9675
 6412SOL    HW325415   2.064   0.324   5.223 -0.7075 -0.7870 -1.8534
 6412SOL    MW425416   2.097   0.387   5.174  0.1700 -0.0897  0.0961
 6413SOL     OW25417   3.870   0.346   1.479  0.0613 -0.0352 -0.1960
 6413SOL    HW225418   3.830   0.307   1.401  2.2634  0.0576 -1.4525
 6413SOL    HW325419   3.869   0.276   1.544  0.4854 -0.9658 -1.1627
 6413SOL    MW425420   3.864   0.332   1.477  0.2157  0.4449 -0.0944
 6414SOL     OW25421   4.403   4.646   0.538 -0.1251 -0.0312  0.0500
 6414SOL    HW225422   4.474   4.697   0.577  1.6365 -1.4341 -1.1319
 6414SOL    HW325423   4.382   4.580   0.604  0.3300 -0.1724  0.0611
 6414SOL    MW425424   4.410   4.644   0.552  0.2986  0.4337 -0.2839
 6415SOL     OW25425   3.487   5.249   2.501 -0.8009 -0.2863  0.2723
 6415SOL    HW225426   3.471   5.322   2.440 -1.9687  0.3256  1.2805
 6415SOL    HW325427   3.502   5.173   2.444  0.8383  0.7791 -0.8109
 6415SOL    MW425428   3.487   5.249   2.485 -0.1744  0.0492  0.0632
 6416SOL     OW25429   3.659   6.003   5.173  0.3423 -0.5474  0.1657
 6416SOL    HW225430   3.712   6.081   5.186 -0.4131 -0.2661  1.7839
 6416SOL    HW325431   3.670   5.982   5.080  2.2458  0.2156  0.1754
 6416SOL    MW425432   3.667   6.011   5.162 -0.1942  0.2371  0.3290
 6417SOL     OW25433   6.369   5.078   3.310 -0.0837  0.1528 -0.7061
 6417SOL    HW225434   6.367   5.162   3.265  1.4371  0.6032 -0.0014
 6417SOL    HW325435   6.441   5.086   3.372 -1.0326 -1.0653  0.6019
 6417SOL    MW425436   6.379   5.090   3.312 -0.1308  0.1352  0.0278
 6418SOL     OW25437   5.710   0.630   1.758  0.6139 -0.0405 -0.3135
 6418SOL    HW225438   5.671   0.570   1.695 -0.9938  1.7506 -1.1472
 6418SOL    HW325439   5.790   0.661   1.715  1.3648 -1.4106  0.0553
 6418SOL    MW425440   5.715   0.626   1.744  0.5584 -0.2208 -0.8387
 6419SOL     OW25441   3.892   4.861   1.902 -0.0827 -0.0702 -0.3191
 6419SOL    HW225442   3.856   4.778   1.935 -0.3723 -1.4141 -3.6256
 6419SOL    HW325443   3.901   4.847   1.807  0.7979  3.3776 -0.8653
 6419SOL    MW425444   3.889   4.848   1.894 -0.2130 -0.4353 -0.3581
 6420SOL     OW25445   4.507   4.019   5.571  0.4243  0.6946  0.2360
 6420SOL    HW225446   4.542   4.101   5.605  0.7018  1.9216 -2.6931
 6420SOL    HW325447   4.578   3.956   5.581  1.0093  1.3904  0.5421
 6420SOL    MW425448   4.521   4.022   5.577 -0.2259 -0.5429 -0.2640
 6421SOL     OW25449   5.555   4.105   2.839 -0.5764 -0.1486  0.3907
 6421SOL    HW225450   5.503   4.089   2.917 -0.6369  1.8781  0.8089
 6421SOL    HW325451   5.537   4.030   2.782 -0.1103 -1.9599  2.4904
 6421SOL    MW425452   5.546   4.093   2.842 -0.1735  0.3615 -0.0433
 6422SOL     OW25453   0.059   0.322   1.431 -0.0274 -0.5041 -0.1730
 6422SOL    HW225454   0.096   0.336   1.518  2.1440 -1.6786 -0.8483
 6422SOL    HW325455   0.014   0.404   1.411  0.4350  0.2140  1.5673
 6422SOL    MW425456   0.058   0.335   1.440 -0.2324 -0.0639 -0.4310
 6423SOL     OW25457   3.423   2.657   4.112 -0.6254  0.4228 -0.3778
 6423SOL    HW225458   3.420   2.664   4.016 -0.5760  1.1550 -0.3299
 6423SOL    HW325459   3.473   2.577   4.128 -1.2463 -0.0954 -0.9662
 6423SOL    MW425460   3.430   2.647   4.101  0.4770 -0.4359 -0.1141
 6424SOL     OW25461   4.141   0.489   1.470  0.3015 -0.0249 -0.0196
 6424SOL    HW225462   4.155   0.546   1.546  2.4310 -0.4835  0.0074
 6424SOL    HW325463   4.057   0.447   1.486  0.7999 -0.2967  2.2251
 6424SOL    MW425464   4.132   0.491   1.482 -0.1508 -0.9882  0.1945
 6425SOL     OW25465   3.405   5.575   5.246  0.4908  0.2233  0.0489
 6425SOL    HW225466   3.445   5.512   5.306  0.5018 -0.1156 -0.3083
 6425SOL    HW325467   3.311   5.568   5.262  0.4646 -0.1690 -0.2629
 6425SOL    MW425468   3.398   5.566   5.256 -0.1094 -0.3035  0.3939
 6426SOL     OW25469   2.510   5.703   6.132 -0.2192 -0.3781 -0.0059
 6426SOL    HW225470   2.501   5.611   6.105 -0.1205  0.2072 -2.2907
 6426SOL    HW325471   2.423   5.740   6.118  0.1667  0.2518 -0.8466
 6426SOL    MW425472   2.498   5.696   6.127  0.0607 -0.1236 -0.1532
 6427SOL     OW25473   2.090   5.397   5.295  0.3305  0.0175  0.6059
 6427SOL    HW225474   2.084   5.395   5.390  0.6930 -1.2140  0.6204
 6427SOL    HW325475   2.175   5.358   5.276 -0.5181 -1.4989 -0.2743
 6427SOL    MW425476   2.100   5.392   5.305  0.0519 -0.4377 -0.3829
 6428SOL     OW25477   0.891   3.213   3.148  0.6723  0.1683 -0.3086
 6428SOL    HW225478   0.943   3.220   3.227 -1.4019  0.1540  1.1336
 6428SOL    HW325479   0.811   3.261   3.167 -1.1433 -2.2303 -1.2540
 6428SOL    MW425480   0.887   3.220   3.161 -0.1294  0.0996  0.0110
 6429SOL     OW25481   5.376   5.432   0.949  0.2329  0.1220 -0.0096
 6429SOL    HW225482   5.314   5.503   0.939  1.7227  2.2377  3.7150
 6429SOL    HW325483   5.455   5.462   0.904  0.1439 -0.2647 -0.4298
 6429SOL    MW425484   5.378   5.445   0.941  0.1860 -0.7627 -0.3130
 6430SOL     OW25485   3.954   2.303   5.689 -0.8044 -0.1526 -0.0930
 6430SOL    HW225486   3.872   2.279   5.734 -0.2976  1.9514  2.1302
 6430SOL    HW325487   4.021   2.298   5.757  0.4876  0.6210 -1.2651
 6430SOL    MW425488   3.952   2.299   5.704  0.2503 -0.4139  0.6153
 6431SOL     OW25489   1.896   4.444   3.308  0.3058 -0.2276 -0.1976
 6431SOL    HW225490   1.968   4.392   3.343  0.8803  0.4320 -0.3699
 6431SOL    HW325491   1.820   4.386   3.311  0.0567  0.0537  3.1117
 6431SOL    MW425492   1.896   4.430   3.313 -0.1853  0.0206 -0.1489
 6432SOL     OW25493   1.386   6.030   4.781  0.6417 -0.2022 -0.4407
 6432SOL    HW225494   1.440   6.094   4.827 -1.5666  1.4843 -0.0290
 6432SOL    HW325495   1.299   6.037   4.821 -0.0216 -2.6085 -1.2208
 6432SOL    MW425496   1.381   6.039   4.792 -0.4406 -0.2446 -0.1710
 6433SOL     OW25497   3.867   2.449   4.545 -0.2374 -0.4016  0.0674
 6433SOL    HW225498   3.810   2.490   4.610 -0.4830  0.0706 -0.4401
 6433SOL    HW325499   3.952   2.491   4.558 -0.2756 -0.3384  0.1140
 6433SOL    MW425500   3.871   2.460   4.556 -0.4854  0.4986 -0.1978
 6434SOL     OW25501   5.227   4.576   4.541 -0.2807  0.0705  0.3094
 6434SOL    HW225502   5.219   4.515   4.614 -0.0503 -1.2498 -0.7381
 6434SOL    HW325503   5.319   4.571   4.516 -0.4785  0.0964 -0.4304
 6434SOL    MW425504   5.238   4.567   4.548  0.3096 -0.5334  0.6551
 6435SOL     OW25505   3.005   4.921   3.554  0.2653 -0.1175  0.3771
 6435SOL    HW225506   3.002   5.016   3.543  0.8497  0.2923  3.0837
 6435SOL    HW325507   2.913   4.896   3.568 -0.0055 -0.1390 -1.2030
 6435SOL    MW425508   2.992   4.930   3.554 -0.0536 -0.1773  0.3390
 6436SOL     OW25509   5.852   4.982   3.630 -0.1592 -0.1467 -0.0040
 6436SOL    HW225510   5.891   4.918   3.688 -1.0843  0.7335  1.6558
 6436SOL    HW325511   5.912   5.056   3.630 -0.3392  0.0001  0.1137
 6436SOL    MW425512   5.865   4.984   3.637 -0.4604 -0.3200 -0.3464
 6437SOL     OW25513   5.882  -0.004   3.404 -0.1120 -0.0746 -0.6788
 6437SOL    HW225514   5.935   0.028   3.477 -1.3096 -0.4241  0.3897
 6437SOL    HW325515   5.803  -0.038   3.446 -0.6303 -0.7045 -2.1177
 6437SOL    MW425516   5.879  -0.004   3.419  0.1785  0.3057  0.1098
 6438SOL     OW25517   5.463   5.644   2.899  0.4180 -0.6358  0.7700
 6438SOL    HW225518   5.423   5.604   2.977  0.3349 -1.0522  0.5152
 6438SOL    HW325519   5.521   5.711   2.934 -1.6929  1.1052  1.1102
 6438SOL    MW425520   5.465   5.647   2.914  0.1965  0.6050  0.4410
 6439SOL     OW25521   1.607   0.832   3.977  0.0409 -0.0978 -0.1360
 6439SOL    HW225522   1.598   0.927   3.981  0.8457 -0.0346  0.2446
 6439SOL    HW325523   1.644   0.807   4.061  0.0834 -0.7193 -0.3332
 6439SOL    MW425524   1.610   0.841   3.988 -0.4563  0.8277  0.1892
 6440SOL     OW25525   4.719   4.559   1.752 -0.5534 -0.4050 -0.1451
 6440SOL    HW225526   4.789   4.613   1.716  1.0609 -1.5265  1.1802
 6440SOL    HW325527   4.669   4.618   1.808  0.6638 -0.0500  0.6056
 6440SOL    MW425528   4.722   4.574   1.754  0.5624 -0.1674  0.2397
 6441SOL     OW25529   0.159   1.184   6.218 -0.6997 -0.2002  0.2339
 6441SOL    HW225530   0.193   1.165   6.130 -1.5005 -0.8260  0.0424
 6441SOL    HW325531   0.141   1.278   6.217 -1.1293 -0.2828 -0.4288
 6441SOL    MW425532   0.161   1.194   6.206 -0.2145  0.1177 -0.2794
 6442SOL     OW25533   1.188   3.225   4.979  0.4132 -0.4534  0.4292
 6442SOL    HW225534   1.206   3.151   4.921  0.6822  0.2640 -0.4247
 6442SOL    HW325535   1.254   3.291   4.955 -0.0964  0.2300  0.8607
 6442SOL    MW425536   1.199   3.224   4.968 -0.2096  0.4281  0.0623
 6443SOL     OW25537   1.131   0.466   2.811  0.3160 -0.5909 -0.6528
 6443SOL    HW225538   1.047   0.434   2.779  0.7948 -0.2847 -2.3542
 6443SOL    HW325539   1.177   0.388   2.840  0.0134 -0.9616 -1.1551
 6443SOL    MW425540   1.126   0.452   2.811 -0.0903  0.0912 -0.3166
 6444SOL     OW25541   4.215   2.200   4.927  0.1842  0.3370 -0.4394
 6444SOL    HW225542   4.208   2.167   5.016  0.1715 -0.8414 -0.8559
 6444SOL    HW325543   4.171   2.134   4.873 -0.8100  1.5682 -1.2099
 6444SOL    MW425544   4.208   2.187   4.931  0.1239  0.8899 -0.3082
 6445SOL     OW25545   2.211   2.302   2.226  0.1832  0.2934 -0.3209
 6445SOL    HW225546   2.199   2.390   2.189 -0.5876  0.6918  0.8326
 6445SOL    HW325547   2.122   2.268   2.234  0.3104  0.3111  1.3611
 6445SOL    MW425548   2.198   2.309   2.222  0.2903 -0.6238 -0.6135
 6446SOL     OW25549   4.420   2.395   4.100  0.2066 -1.0183  0.1233
 6446SOL    HW225550   4.380   2.383   4.014  1.2688  0.6504 -0.6605
 6446SOL    HW325551   4.426   2.307   4.137 -2.4489 -1.5221 -0.4701
 6446SOL    MW425552   4.416   2.382   4.094  0.3766 -0.7146 -0.4963
 6447SOL     OW25553   2.126   5.062   5.599  0.6309 -0.4010  0.2233
 6447SOL    HW225554   2.050   5.104   5.639 -0.2856 -1.7589 -0.0049
 6447SOL    HW325555   2.121   5.085   5.507  1.2439  0.5597  0.4165
 6447SOL    MW425556   2.115   5.070   5.592  0.4035  0.4061  0.6099
 6448SOL     OW25557   3.392   6.190   2.577 -0.4730  0.0021  0.5668
 6448SOL    HW225558   3.480   6.180   2.540 -0.2945  1.1694  0.6439
 6448SOL    HW325559   3.334   6.171   2.504 -0.1257  1.6249 -0.1805
 6448SOL    MW425560   3.396   6.186   2.562  0.4533 -0.6844 -0.2766
 6449SOL     OW25561   3.887   0.086   0.959 -0.0289 -0.4362 -0.4872
 6449SOL    HW225562   3.965   0.036   0.935 -0.1318 -0.3788 -0.9517
 6449SOL    HW325563   3.913   0.133   1.038 -0.0635 -1.5158  0.1845
 6449SOL    MW425564   3.901   0.086   0.966 -0.6229 -0.2259 -0.1829
 6450SOL     OW25565   2.047   2.320   4.150  0.8809 -0.0728  0.1297
 6450SOL    HW225566   2.136   2.287   4.158  1.4254  0.7671 -1.8304
 6450SOL    HW325567   2.057   2.414   4.138 -0.2578  0.0239 -0.1643
 6450SOL    MW425568   2.060   2.328   4.149  0.1694 -0.2044  0.3285
 6451SOL     OW25569   5.572   5.205   0.286  0.0054  0.1843  0.0958
 6451SOL    HW225570   5.520   5.156   0.222  0.1355 -0.1700  0.2594
 6451SOL    HW325571   5.582   5.292   0.247 -0.5269  0.1876 -0.0340
 6451SOL    MW425572   5.567   5.210   0.272 -0.0773  0.5118 -0.0286
 6452SOL     OW25573   0.490   2.885   0.623 -0.0226 -0.5879 -0.2052
 6452SOL    HW225574   0.420   2.947   0.605 -1.1727 -1.9235 -0.5400
 6452SOL    HW325575   0.457   2.832   0.696  0.7067 -1.1306 -0.2561
 6452SOL    MW425576   0.477   2.886   0.630 -0.0042  0.2965  0.3913
 6453SOL     OW25577   4.754   0.581   5.469  0.3654  0.2245 -0.3110
 6453SOL    HW225578   4.717   0.551   5.552  0.7801  0.9168  0.1273
 6453SOL    HW325579   4.678   0.596   5.413  0.0230  0.8197  0.3063
 6453SOL    MW425580   4.739   0.579   5.473 -0.3649  0.3217  0.7576
 6454SOL     OW25581   5.546   2.684   3.748  0.2466 -0.1438  0.3356
 6454SOL    HW225582   5.585   2.761   3.707  0.9858 -0.1274  1.0427
 6454SOL    HW325583   5.512   2.716   3.831  2.2970 -0.9270  1.5378
 6454SOL    MW425584   5.547   2.699   3.753  0.4718  0.2369 -0.2022
 6455SOL     OW25585   1.541   4.930   6.234  0.0120 -0.2865  0.4274
 6455SOL    HW225586   1.511   4.876   6.161  0.9722 -0.5812  0.2299
 6455SOL    HW325587   1.598   4.995   6.194 -0.6779  0.5162  0.7356
 6455SOL    MW425588   1.545   4.931   6.219 -0.4965  0.1425 -0.6982
 6456SOL     OW25589   1.897   2.227   1.139  0.2049  0.5570 -0.2441
 6456SOL    HW225590   1.923   2.216   1.048 -0.2247  1.1483 -0.4477
 6456SOL    HW325591   1.838   2.154   1.156  2.4922 -1.2232  0.4476
 6456SOL    MW425592   1.892   2.216   1.129 -0.7899 -0.2468  0.4609
 6457SOL     OW25593   1.601   5.989   3.674  0.1470  0.3839  0.1085
 6457SOL    HW225594   1.635   5.907   3.638  1.5489  0.6564  0.7618
 6457SOL    HW325595   1.622   6.055   3.607 -2.3088  0.0515 -1.1251
 6457SOL    MW425596   1.608   5.987   3.660  0.3060 -0.6899  0.1916
 6458SOL     OW25597   0.330   0.347   6.021  0.0328  0.1644 -0.4525
 6458SOL    HW225598   0.314   0.376   5.931 -0.4566  0.1256 -0.3804
 6458SOL    HW325599   0.405   0.399   6.050 -1.2202  1.8304 -0.0968
 6458SOL    MW425600   0.338   0.358   6.013  0.0766  0.2160  0.1330
 6459SOL     OW25601   5.730   0.019   4.942  0.0382 -0.6554  0.1006
 6459SOL    HW225602   5.797   0.080   4.911 -0.0231  0.4207  1.9055
 6459SOL    HW325603   5.712  -0.038   4.868  2.6301 -0.6910 -0.5769
 6459SOL    MW425604   5.736   0.020   4.928  0.1813  0.9926 -0.0969
 6460SOL     OW25605   4.772   5.102   0.429  0.0035 -0.2939 -0.7014
 6460SOL    HW225606   4.770   5.172   0.495  0.6728 -0.4778 -0.4845
 6460SOL    HW325607   4.695   5.119   0.375  0.5527  1.0681 -1.1100
 6460SOL    MW425608   4.762   5.114   0.430  0.1981  0.8910  0.0085
 6461SOL     OW25609   2.897   5.038   4.263 -0.6525 -0.2518  0.2455
 6461SOL    HW225610   2.849   4.959   4.291  1.6510 -0.9147  2.7823
 6461SOL    HW325611   2.876   5.103   4.330  2.9900 -1.0726  2.5120
 6461SOL    MW425612   2.888   5.036   4.276 -0.7119 -0.2093  0.1622
 6462SOL     OW25613   3.253   3.398   5.364 -0.0868 -0.7752  0.5923
 6462SOL    HW225614   3.195   3.465   5.326  0.7296 -0.7053 -0.5791
 6462SOL    HW325615   3.256   3.420   5.457 -1.8277 -0.7083  0.6676
 6462SOL    MW425616   3.246   3.410   5.371  0.0395  0.1705  0.0834
 6463SOL     OW25617   4.531   3.670   4.855 -0.4286 -0.6614 -0.3482
 6463SOL    HW225618   4.531   3.706   4.767 -1.0722 -0.4245 -0.2581
 6463SOL    HW325619   4.487   3.737   4.908 -0.5839 -1.0670  0.0418
 6463SOL    MW425620   4.526   3.684   4.851  0.4540  0.1947 -0.2703
 6464SOL     OW25621   4.634   2.356   4.950  1.1387  0.0463  0.4629
 6464SOL    HW225622   4.623   2.264   4.975 -0.0102 -0.4625 -1.6816
 6464SOL    HW325623   4.556   2.376   4.898  2.5516  1.4711 -1.2229
 6464SOL    MW425624   4.622   2.347   4.947  0.2582 -0.2664 -0.6795
 6465SOL     OW25625   6.149   1.602   1.856 -0.2726  0.0956  0.2245
 6465SOL    HW225626   6.213   1.671   1.840 -0.1900  0.0215  0.2326
 6465SOL    HW325627   6.071   1.629   1.806 -0.5408  0.6247  0.9150
 6465SOL    MW425628   6.147   1.615   1.847  0.1716  0.2962  0.8201
 6466SOL     OW25629   6.411   2.488   0.387  0.1349  0.5286  0.1676
 6466SOL    HW225630   6.389   2.580   0.373  2.3552  1.2529  0.9533
 6466SOL    HW325631   6.424   2.481   0.482  1.0402 -0.3134 -0.0007
 6466SOL    MW425632   6.410   2.499   0.398  0.0117  0.6278 -0.7243
 6467SOL     OW25633   0.329   3.072   0.255 -0.0739 -0.4902 -0.3854
 6467SOL    HW225634   0.246   3.100   0.218 -0.7500 -0.3306  1.1579
 6467SOL    HW325635   0.307   3.044   0.344  1.2791 -1.9186 -0.4687
 6467SOL    MW425636   0.315   3.072   0.262 -0.1861  0.2029 -0.2598
 6468SOL     OW25637   4.488   3.813   1.010 -0.1998 -0.1014 -0.5948
 6468SOL    HW225638   4.472   3.899   0.969 -0.7909  0.2639  0.3708
 6468SOL    HW325639   4.438   3.752   0.956 -0.3239  0.2626 -0.9007
 6468SOL    MW425640   4.479   3.817   0.997 -0.1449 -0.0858  0.4052
 6469SOL     OW25641   6.270   1.322   4.364  0.6120  0.1237 -0.4438
 6469SOL    HW225642   6.257   1.248   4.424  0.8301 -0.6049 -1.2705
 6469SOL    HW325643   6.282   1.281   4.278 -0.0889  1.1704 -1.0592
 6469SOL    MW425644   6.270   1.307   4.361  0.5433 -0.2862 -0.4433
 6470SOL     OW25645   3.640   4.603   0.218 -0.2748  0.0890 -0.3452
 6470SOL    HW225646   3.626   4.663   0.144  0.5626  1.9034  0.8838
 6470SOL    HW325647   3.706   4.541   0.186  0.1149  0.8744 -1.1178
 6470SOL    MW425648   3.647   4.603   0.204  0.1240 -0.3847 -0.4210
 6471SOL     OW25649   5.230   1.460   0.477  0.1891 -0.1755 -0.3098
 6471SOL    HW225650   5.189   1.544   0.456  1.2638  0.3207 -0.5002
 6471SOL    HW325651   5.176   1.395   0.431 -0.0959  0.4966 -0.9503
 6471SOL    MW425652   5.218   1.462   0.468  0.3620 -0.3619 -0.1098
 6472SOL     OW25653   2.421   1.266   5.464 -0.8406  0.0079 -0.3805
 6472SOL    HW225654   2.355   1.197   5.461 -1.5821  0.7241 -1.8758
 6472SOL    HW325655   2.375   1.341   5.503  0.0762 -0.3939  1.6391
 6472SOL    MW425656   2.406   1.267   5.469 -0.3530  0.1351 -0.1024
 6473SOL     OW25657   5.451   3.448   4.064  0.1048 -0.0041  0.1523
 6473SOL    HW225658   5.387   3.385   4.096  0.4804 -0.1287  0.6618
 6473SOL    HW325659   5.536   3.405   4.077  0.2921  0.0941 -0.6582
 6473SOL    MW425660   5.454   3.434   4.070  0.7072  0.3846 -0.3772
 6474SOL     OW25661   0.195   4.321   5.716 -0.5276  0.3076 -0.5292
 6474SOL    HW225662   0.247   4.247   5.685  2.5182  1.4116  1.5179
 6474SOL    HW325663   0.174   4.369   5.636  2.8411  0.4708 -1.4795
 6474SOL    MW425664   0.199   4.318   5.701  0.7381  0.1736 -0.4026
 6475SOL     OW25665   2.721   0.819   3.569 -0.0741 -0.6230  0.2854
 6475SOL    HW225666   2.666   0.764   3.514  0.0312 -1.0071  0.5602
 6475SOL    HW325667   2.660   0.864   3.628 -0.0854 -1.2460  0.7672
 6475SOL    MW425668   2.706   0.818   3.570  0.2244  0.7936  0.1949
 6476SOL     OW25669   4.589   1.062   2.068 -0.2745 -0.4450  0.6547
 6476SOL    HW225670   4.642   1.031   2.142  0.0710 -0.2483  0.4934
 6476SOL    HW325671   4.502   1.028   2.085 -0.3972  0.3090  1.6057
 6476SOL    MW425672   4.585   1.054   2.080 -0.3267 -0.6779  0.1994
 6477SOL     OW25673   3.346   0.927   1.874 -0.5738 -0.6319  0.1650
 6477SOL    HW225674   3.404   0.954   1.945 -0.9104 -0.3607  0.3339
 6477SOL    HW325675   3.365   0.987   1.802  0.6791 -1.6748 -0.4352
 6477SOL    MW425676   3.356   0.938   1.874 -0.7098  0.6666 -0.0035
 6478SOL     OW25677   0.465   3.071   3.866 -0.2501  0.3151  0.1967
 6478SOL    HW225678   0.414   3.137   3.912  0.7353  1.6888 -0.6192
 6478SOL    HW325679   0.505   3.118   3.793  1.5226 -0.8930  0.3245
 6478SOL    MW425680   0.463   3.086   3.862  0.2752  0.5643 -0.2364
 6479SOL     OW25681   6.003   0.097   2.439 -0.6284 -0.3769 -0.4059
 6479SOL    HW225682   6.074   0.071   2.380 -0.4158 -0.2438 -0.2121
 6479SOL    HW325683   5.981   0.017   2.487  0.1570 -0.1661  0.3261
 6479SOL    MW425684   6.010   0.083   2.437  0.0047  0.0069 -0.4904
 6480SOL     OW25685   3.081   1.179   5.451  0.2022 -0.2746 -0.3011
 6480SOL    HW225686   3.021   1.127   5.398 -0.2348 -0.9879  0.8472
 6480SOL    HW325687   3.031   1.256   5.476 -0.1626 -0.7318  0.4181
 6480SOL    MW425688   3.067   1.182   5.447  0.4682 -0.1197 -0.6376
 6481SOL     OW25689   0.157   5.597   0.721  0.1949 -0.1198 -0.5051
 6481SOL    HW225690   0.132   5.631   0.635  0.3731  1.0872 -0.0990
 6481SOL    HW325691   0.125   5.662   0.783  0.4509 -0.7602  0.3220
 6481SOL    MW425692   0.149   5.610   0.717 -0.1845 -0.0054  0.3631
 6482SOL     OW25693   0.640   6.000   5.399  0.0596 -0.0690  0.1027
 6482SOL    HW225694   0.677   5.912   5.393  1.2577  0.3751  0.6087
 6482SOL    HW325695   0.580   5.995   5.474 -0.0582 -0.5077 -0.0159
 6482SOL    MW425696   0.637   5.988   5.408  0.2406 -0.4008 -0.0022
 6483SOL     OW25697   2.689   2.264   5.828  0.4199  0.0081  0.4616
 6483SOL    HW225698   2.693   2.189   5.887  0.6128 -1.0378 -0.8509
 6483SOL    HW325699   2.608   2.252   5.779  0.6936  0.3842 -0.0972
 6483SOL    MW425700   2.679   2.253   5.830 -0.1840 -0.3206  0.3908
 6484SOL     OW25701   5.390   3.432   1.365  0.0680 -0.3199  0.0914
 6484SOL    HW225702   5.448   3.357   1.356  1.0844  0.4786 -0.1965
 6484SOL    HW325703   5.354   3.446   1.278 -1.4381 -1.4664  0.4828
 6484SOL    MW425704   5.393   3.424   1.352  0.5470  0.9256 -0.4776
 6485SOL     OW25705   1.945   1.945   4.456 -0.8568 -0.1366 -0.1772
 6485SOL    HW225706   1.962   1.913   4.545 -0.6567 -0.6567 -0.3984
 6485SOL    HW325707   1.910   2.033   4.469 -1.2981 -0.3916  0.4433
 6485SOL    MW425708   1.943   1.952   4.470 -0.1517 -0.5039 -0.6779
 6486SOL     OW25709   2.175   5.244   0.857 -0.5798 -0.2499 -0.3464
 6486SOL    HW225710   2.193   5.161   0.812 -0.0344  0.9711 -2.5715
 6486SOL    HW325711   2.099   5.226   0.912 -2.9024 -1.3736 -3.5835
 6486SOL    MW425712   2.168   5.230   0.858 -0.1674 -0.1500  0.0777
 6487SOL     OW25713   5.209   5.098   4.989 -0.4663 -1.0018  0.5334
 6487SOL    HW225714   5.221   5.183   5.032  1.2555 -0.1758 -1.3735
 6487SOL    HW325715   5.285   5.047   5.016 -0.3811 -1.1559  0.0123
 6487SOL    MW425716   5.221   5.103   4.998  0.6674  0.0548  0.0430
 6488SOL     OW25717   1.250   2.281   6.347 -0.0616  0.5555  0.2623
 6488SOL    HW225718   1.325   2.270   6.289 -0.4188  2.2634 -0.5846
 6488SOL    HW325719   1.283   2.257   6.434  1.0149 -0.1822 -0.3323
 6488SOL    MW425720   1.264   2.276   6.351 -0.1323 -0.2046  0.1015
 6489SOL     OW25721   2.747   3.542   2.579 -0.0355 -0.3065 -0.8797
 6489SOL    HW225722   2.840   3.535   2.599 -0.4374 -0.4679  1.2316
 6489SOL    HW325723   2.723   3.630   2.608 -0.5681 -0.3110 -1.2860
 6489SOL    MW425724   2.756   3.553   2.586  0.2509  0.1728 -0.1085
 6490SOL     OW25725   1.735   0.649   3.151 -0.2573  0.3109  0.3925
 6490SOL    HW225726   1.792   0.593   3.097 -0.4176  0.5273 -0.0089
 6490SOL    HW325727   1.765   0.634   3.241  1.9894  2.1428  0.0451
 6490SOL    MW425728   1.747   0.640   3.155  0.3679  0.1730 -0.1825
 6491SOL     OW25729   1.397   2.012   2.835  0.0449 -0.1523  0.1397
 6491SOL    HW225730   1.444   1.970   2.763  1.6016 -0.0384  1.0307
 6491SOL    HW325731   1.446   2.092   2.853 -1.1404  0.5313  0.4155
 6491SOL    MW425732   1.410   2.017   2.828 -0.0272  0.7704  0.7124
 6492SOL     OW25733   5.559   1.618   3.153  0.4002  0.0186  0.0885
 6492SOL    HW225734   5.635   1.633   3.096  0.0498  0.8681 -0.1577
 6492SOL    HW325735   5.499   1.566   3.099  0.7172 -0.4864  0.2157
 6492SOL    MW425736   5.561   1.613   3.138 -0.0067 -0.3333 -0.0099
 6493SOL     OW25737   0.332   6.336   4.194  0.2656 -0.2307 -0.2600
 6493SOL    HW225738   0.384   6.413   4.174  0.5320 -0.7534 -1.6597
 6493SOL    HW325739   0.268   6.331   4.123 -0.0664 -1.0238  0.0814
 6493SOL    MW425740   0.330   6.346   4.182 -0.0588 -0.7320 -0.3630
 6494SOL     OW25741   4.558   3.567   0.589 -0.4535 -0.0967 -0.4827
 6494SOL    HW225742   4.634   3.537   0.539 -0.0176  0.7348 -0.3469
 6494SOL    HW325743   4.482   3.541   0.537 -0.0206  0.4164 -1.3795
 6494SOL    MW425744   4.558   3.559   0.576  0.0285  0.2353  0.4972
 6495SOL     OW25745   0.154   4.982   0.813 -0.5876  0.1424 -0.4400
 6495SOL    HW225746   0.205   5.061   0.795  0.5149 -0.8103 -1.6845
 6495SOL    HW325747   0.206   4.934   0.878 -1.0722  0.2623  0.0398
 6495SOL    MW425748   0.168   4.986   0.820 -0.2639 -0.0654  0.1299
 6496SOL     OW25749   0.251   2.930   3.707  0.5804 -0.0462 -0.1616
 6496SOL    HW225750   0.277   2.912   3.617  2.6900 -1.0167  0.5790
 6496SOL    HW325751   0.331   2.962   3.749 -0.9296  2.8201  0.8202
 6496SOL    MW425752   0.265   2.932   3.701  0.5363  0.0976  0.4815
 6497SOL     OW25753   4.717   3.425   5.410 -0.2922 -0.2657 -0.0138
 6497SOL    HW225754   4.795   3.371   5.396  0.6819  0.4793  2.1232
 6497SOL    HW325755   4.644   3.364   5.403  0.5524 -1.1785 -1.0706
 6497SOL    MW425756   4.718   3.410   5.408  0.5438  0.2502 -0.2831
 6498SOL     OW25757   1.207   5.482   0.408  0.0074 -0.2262  0.3013
 6498SOL    HW225758   1.247   5.458   0.492 -0.0203 -0.6573  0.1916
 6498SOL    HW325759   1.270   5.455   0.342  1.3154  2.5844  0.2488
 6498SOL    MW425760   1.220   5.475   0.410  0.4206  0.3479  0.1675
 6499SOL     OW25761   1.995   3.513   2.757 -0.1009 -0.6758  0.0503
 6499SOL    HW225762   1.908   3.498   2.718  0.0333 -0.3939 -0.3639
 6499SOL    HW325763   1.979   3.521   2.851 -0.4442 -1.2885  0.0486
 6499SOL    MW425764   1.981   3.512   2.764  0.3510  0.0665 -0.2618
 6500SOL     OW25765   5.221   5.727   3.728 -0.2270 -0.0690  0.5923
 6500SOL    HW225766   5.211   5.756   3.637  0.6034  0.2079  0.5737
 6500SOL    HW325767   5.233   5.633   3.723  3.1642  0.2482  0.0521
 6500SOL    MW425768   5.221   5.719   3.715 -0.0785 -0.2909  0.0463
 6501SOL     OW25769   3.014   2.869   2.465  0.1591 -0.3485 -0.4395
 6501SOL    HW225770   3.059   2.804   2.411  0.4684 -0.2860 -0.2606
 6501SOL    HW325771   3.043   2.953   2.431 -0.5511 -0.2917 -0.9315
 6501SOL    MW425772   3.023   2.871   2.453 -0.1688 -0.0627 -0.0519
 6502SOL     OW25773   4.763   3.251   5.967  0.0893  0.1186  0.1503
 6502SOL    HW225774   4.678   3.278   5.933 -0.2393 -0.4778  0.4709
 6502SOL    HW325775   4.765   3.283   6.057 -0.7237 -1.6963  0.8754
 6502SOL    MW425776   4.752   3.259   5.975 -0.3968 -0.0906 -0.1528
 6503SOL     OW25777   4.207   5.195   2.008  0.0478  0.0140  0.5714
 6503SOL    HW225778   4.137   5.234   1.956  1.5759  2.6931  0.3663
 6503SOL    HW325779   4.168   5.117   2.046 -2.7428  0.8964 -0.2801
 6503SOL    MW425780   4.193   5.190   2.006  0.0985  0.1386  0.7525
 6504SOL     OW25781   2.977   1.357   6.228 -0.5890 -0.2699 -0.1559
 6504SOL    HW225782   2.985   1.443   6.189 -0.0206  0.0339  0.6008
 6504SOL    HW325783   2.979   1.296   6.154  1.7784  0.2069 -0.5684
 6504SOL    MW425784   2.978   1.360   6.213 -0.4114  0.1509  0.1158
 6505SOL     OW25785   0.685   2.537   4.710  0.0045 -0.0813  0.3501
 6505SOL    HW225786   0.670   2.571   4.798  0.5016 -1.6481  1.0818
 6505SOL    HW325787   0.702   2.614   4.656  2.2100  0.7853  2.1258
 6505SOL    MW425788   0.685   2.551   4.714  0.1890  0.4778  0.0766
 6506SOL     OW25789   4.014   2.566   3.221 -0.1024  0.1542  0.1050
 6506SOL    HW225790   4.001   2.595   3.130  1.3544 -1.3989 -0.6628
 6506SOL    HW325791   4.108   2.548   3.226  1.1453  5.3101  3.5565
 6506SOL    MW425792   4.024   2.568   3.209  0.1365  0.0686 -0.1878
 6507SOL     OW25793   1.384   0.794   5.652 -0.7092  0.0041  0.1191
 6507SOL    HW225794   1.411   0.751   5.733  0.8712 -1.2667 -0.9966
 6507SOL    HW325795   1.374   0.886   5.676 -1.6369 -0.5447  2.0313
 6507SOL    MW425796   1.387   0.801   5.666 -0.6346  0.0501  0.3790
 6508SOL     OW25797   1.863   5.163   3.392 -0.6165 -0.0324 -0.2111
 6508SOL    HW225798   1.903   5.178   3.306  0.3741 -0.9861  0.0685
 6508SOL    HW325799   1.935   5.137   3.448 -1.0173  1.7855  1.2725
 6508SOL    MW425800   1.878   5.162   3.388 -0.1936 -0.0337 -0.4290
 6509SOL     OW25801   0.858   1.768   1.264 -0.2779  0.4445 -0.0995
 6509SOL    HW225802   0.811   1.711   1.204 -0.9705  1.2531 -0.3378
 6509SOL    HW325803   0.829   1.857   1.242  1.3608  0.9782 -0.2543
 6509SOL    MW425804   0.848   1.772   1.253  0.9584 -0.0829 -0.1182
 6510SOL     OW25805   2.353   4.016   5.020  0.1237  0.7100  0.3855
 6510SOL    HW225806   2.367   4.041   4.928  0.7471 -0.9891 -0.0346
 6510SOL    HW325807   2.269   3.971   5.020  0.5019 -0.0174  0.4621
 6510SOL    MW425808   2.344   4.013   5.008 -0.3511 -0.3464  0.4014
 6511SOL     OW25809   6.020   2.970   2.031  0.6380  0.5005  0.3227
 6511SOL    HW225810   5.936   3.003   2.063 -0.6638 -1.8586 -0.4293
 6511SOL    HW325811   6.082   2.991   2.101 -0.9365  0.6383  1.7444
 6511SOL    MW425812   6.017   2.977   2.045  0.1561  0.5027 -0.2290
 6512SOL     OW25813   6.041   2.264   4.693 -0.0744 -0.5578 -0.5824
 6512SOL    HW225814   6.127   2.305   4.678  0.2612 -0.3903  1.4853
 6512SOL    HW325815   6.062   2.182   4.738 -0.9963 -0.1005  0.7508
 6512SOL    MW425816   6.055   2.259   4.697 -0.0518 -0.7422  0.2838
 6513SOL     OW25817   3.184   2.517   4.124 -0.1196  0.2360  0.2168
 6513SOL    HW225818   3.196   2.448   4.058  0.3060  0.6491 -0.1387
 6513SOL    HW325819   3.263   2.569   4.119 -0.0557  0.2333  1.1105
 6513SOL    MW425820   3.196   2.514   4.115 -0.5099 -0.4779  0.1850
 6514SOL     OW25821   5.860   2.399   3.102  0.2610  0.0130  0.1079
 6514SOL    HW225822   5.889   2.317   3.061  0.0371  0.1957 -0.4210
 6514SOL    HW325823   5.925   2.415   3.171 -0.0328 -0.9296  0.6216
 6514SOL    MW425824   5.873   2.390   3.106 -0.5484 -0.2387  0.5987
 6515SOL     OW25825   6.097   0.978   5.067  0.4323 -0.4509 -0.2271
 6515SOL    HW225826   6.065   1.042   5.129  0.2717 -0.7384 -0.0113
 6515SOL    HW325827   6.165   1.024   5.017  0.3646 -0.1390 -0.0297
 6515SOL    MW425828   6.102   0.992   5.068  0.3405 -0.2871  0.1287
 6516SOL     OW25829   1.611   3.720   3.758 -0.4906  0.5588  0.0729
 6516SOL    HW225830   1.592   3.763   3.675 -1.4087 -0.7462 -0.4271
 6516SOL    HW325831   1.527   3.684   3.786  0.0692 -0.1480  0.9102
 6516SOL    MW425832   1.597   3.721   3.751 -0.5622 -0.0693 -0.2518
 6517SOL     OW25833   1.500   4.919   5.823  0.2510 -0.2079 -0.5383
 6517SOL    HW225834   1.514   4.860   5.896 -0.5023  0.2020 -0.0485
 6517SOL    HW325835   1.522   4.867   5.745  1.4030 -0.5265 -0.0119
 6517SOL    MW425836   1.505   4.904   5.822 -0.1582  0.0756  0.0367
 6518SOL     OW25837   5.421   3.258   4.432  0.2534 -0.2700  0.2974
 6518SOL    HW225838   5.369   3.208   4.496  0.1969 -0.6708 -0.0546
 6518SOL    HW325839   5.512   3.246   4.461  0.2130 -0.2845  0.4185
 6518SOL    MW425840   5.427   3.250   4.445 -0.0865 -0.0210  0.9913
 6519SOL     OW25841   1.774   1.993   5.830  0.3413 -0.0272  0.3867
 6519SOL    HW225842   1.760   1.923   5.894 -0.9273 -0.9383 -0.8334
 6519SOL    HW325843   1.698   1.989   5.773  0.8369  1.5826 -0.4479
 6519SOL    MW425844   1.762   1.984   5.831 -0.3038 -0.4325  0.0427
 6520SOL     OW25845   1.768   5.914   2.850  0.0926  0.6280  0.6588
 6520SOL    HW225846   1.778   5.924   2.756  0.8000 -0.7555  0.5707
 6520SOL    HW325847   1.679   5.881   2.862  1.2657 -3.2870  0.0647
 6520SOL    MW425848   1.758   5.911   2.839  0.0326  0.0436 -0.9041
 6521SOL     OW25849   5.181   4.424   4.755 -0.3424  0.0045 -0.1933
 6521SOL    HW225850   5.224   4.405   4.838  0.9220 -0.4681 -0.9228
 6521SOL    HW325851   5.158   4.338   4.720 -2.4053  0.2685  0.4179
 6521SOL    MW425852   5.184   4.410   4.761  0.6998  0.0290  0.1829
 6522SOL     OW25853   3.703   3.691   3.492  0.4354  0.0225  0.3140
 6522SOL    HW225854   3.671   3.607   3.456  0.2127 -0.2273  1.0745
 6522SOL    HW325855   3.779   3.712   3.438 -0.1844 -0.0860 -0.6323
 6522SOL    MW425856   3.708   3.682   3.480 -0.1599  0.2424 -0.1449
 6523SOL     OW25857   0.667   4.166   5.707  0.7606 -0.4836  0.0336
 6523SOL    HW225858   0.646   4.236   5.768  0.4767 -1.4899  1.1341
 6523SOL    HW325859   0.674   4.209   5.622  0.7299  0.8822  0.7027
 6523SOL    MW425860   0.665   4.181   5.704  0.6723  0.2394 -0.3418
 6524SOL     OW25861   4.335   3.293   1.802  0.1157  0.0439 -0.2707
 6524SOL    HW225862   4.334   3.293   1.898 -0.3585 -0.4808 -0.2721
 6524SOL    HW325863   4.255   3.337   1.777  0.1836  0.0778 -0.4254
 6524SOL    MW425864   4.325   3.299   1.812 -0.1144 -0.1211 -0.0743
 6525SOL     OW25865   3.685   1.128   5.712 -0.1728 -0.4567 -0.3793
 6525SOL    HW225866   3.751   1.105   5.778 -0.1161 -1.0567 -0.6379
 6525SOL    HW325867   3.703   1.070   5.638 -0.5473 -0.1333 -0.7317
 6525SOL    MW425868   3.696   1.117   5.711  0.1191 -0.0715  0.0367
 6526SOL     OW25869   6.306   0.036   3.613  0.6087  0.1249 -0.0967
 6526SOL    HW225870   6.300  -0.059   3.627  0.9605 -0.0868 -1.2356
 6526SOL    HW325871   6.284   0.047   3.520 -0.8834  1.3256  0.3709
 6526SOL    MW425872   6.303   0.025   3.602  0.1110  0.0090 -0.4046
 6527SOL     OW25873   3.867   2.011   1.406  0.0816  0.3986  0.3220
 6527SOL    HW225874   3.863   2.082   1.341  3.8934  1.9774  1.5441
 6527SOL    HW325875   3.896   1.935   1.356 -0.4257  0.6688 -0.3997
 6527SOL    MW425876   3.870   2.010   1.391 -0.4810 -0.2008 -0.1737
 6528SOL     OW25877   5.375   3.701   6.197  0.1585 -0.4447  0.0032
 6528SOL    HW225878   5.407   3.729   6.283 -1.0305  0.0030  0.3056
 6528SOL    HW325879   5.290   3.661   6.214  0.5343 -1.6839 -0.7909
 6528SOL    MW425880   5.368   3.699   6.211  0.5315 -0.4262 -0.2754
 6529SOL     OW25881   5.225   0.066   4.816  0.2913 -0.0223  0.1113
 6529SOL    HW225882   5.207   0.157   4.791 -0.3776 -0.3126 -0.4697
 6529SOL    HW325883   5.143   0.034   4.853 -0.0721 -0.9790 -1.4442
 6529SOL    MW425884   5.212   0.074   4.818  0.3524 -1.1886 -0.4598
 6530SOL     OW25885   4.119   0.139   5.313  0.0152  0.1059  0.5354
 6530SOL    HW225886   4.205   0.102   5.290 -0.4148  0.6270 -2.3289
 6530SOL    HW325887   4.095   0.095   5.394  2.4838 -0.8762  0.8375
 6530SOL    MW425888   4.127   0.128   5.321  0.2148 -0.0656  0.0316
 6531SOL     OW25889   3.628   5.236   4.343  0.5354  0.0160  0.5485
 6531SOL    HW225890   3.552   5.288   4.318  0.7689 -1.2828 -3.5717
 6531SOL    HW325891   3.593   5.150   4.367  0.5935 -0.6929 -1.6898
 6531SOL    MW425892   3.614   5.232   4.343  0.5862  0.2708 -0.5439
 6532SOL     OW25893   0.482   5.531   1.087  0.0229 -0.2080 -0.4098
 6532SOL    HW225894   0.488   5.468   1.159 -0.7615  0.4899  0.2916
 6532SOL    HW325895   0.518   5.484   1.011 -0.6018 -1.5209  0.0690
 6532SOL    MW425896   0.488   5.516   1.087 -0.1260 -0.3281  0.2673
 6533SOL     OW25897   0.783   0.746   0.131 -0.1471  0.1553  0.0527
 6533SOL    HW225898   0.693   0.780   0.128 -0.2880 -0.2706 -1.7108
 6533SOL    HW325899   0.801   0.733   0.224 -0.8887  2.8836  0.6673
 6533SOL    MW425900   0.773   0.749   0.143  1.1706  0.6238  0.3996
 6534SOL     OW25901   3.708   3.731   3.776  0.1118  0.7478  0.0148
 6534SOL    HW225902   3.625   3.689   3.799  0.3393 -0.3822 -1.1382
 6534SOL    HW325903   3.712   3.727   3.680  1.9247 -0.0836  0.0772
 6534SOL    MW425904   3.698   3.725   3.766 -0.0716  0.2613 -0.0518
 6535SOL     OW25905   1.346   0.028   6.323 -0.1972 -0.1292  0.1230
 6535SOL    HW225906   1.408   0.087   6.280  1.0807 -0.4215  1.4918
 6535SOL    HW325907   1.329   0.068   6.408 -1.1528 -0.5602  0.1529
 6535SOL    MW425908   1.352   0.041   6.329 -0.2411 -0.0319 -0.0979
 6536SOL     OW25909   3.003   5.413   2.774  0.5039  0.7114  0.4535
 6536SOL    HW225910   2.963   5.496   2.802  0.7705  0.7248  0.8090
 6536SOL    HW325911   2.962   5.347   2.829  0.5081  0.6485  0.3797
 6536SOL    MW425912   2.992   5.415   2.785 -0.2035 -0.6151  0.0579
 6537SOL     OW25913   4.137   3.590   5.618  0.1606  0.9537  0.0247
 6537SOL    HW225914   4.063   3.543   5.580 -0.1625  0.8549  0.7543
 6537SOL    HW325915   4.129   3.576   5.712  2.0870 -0.4826  0.0323
 6537SOL    MW425916   4.126   3.582   5.625 -0.3527 -0.2296  0.2385
 6538SOL     OW25917   1.128   6.008   4.907  0.0547  0.1103  0.4613
 6538SOL    HW225918   1.074   6.002   4.828  1.4603 -0.8824 -0.4764
 6538SOL    HW325919   1.117   6.098   4.938 -0.6338  0.4683 -0.7866
 6538SOL    MW425920   1.119   6.019   4.901 -0.0090  0.0634 -1.2639
 6539SOL     OW25921   0.940   4.694   0.204  0.1633 -0.2329  0.3035
 6539SOL    HW225922   0.914   4.701   0.296 -0.4105 -2.0190  0.3257
 6539SOL    HW325923   0.866   4.649   0.162 -0.0085  1.3955 -1.2538
 6539SOL    MW425924   0.927   4.689   0.211  0.6285 -0.3228 -0.3924
 6540SOL     OW25925   5.640   2.088   4.422 -0.1438 -0.4409 -0.2103
 6540SOL    HW225926   5.577   2.048   4.482  0.7042  0.1892  1.1410
 6540SOL    HW325927   5.597   2.168   4.392 -0.4101 -0.5551 -0.1368
 6540SOL    MW425928   5.626   2.093   4.426  0.2505 -0.1387  0.3975
 6541SOL     OW25929   1.151   3.898   1.211 -0.1898  0.4300 -0.0126
 6541SOL    HW225930   1.146   3.976   1.266  1.2582 -0.1692  1.0522
 6541SOL    HW325931   1.234   3.907   1.164 -1.4011  0.9340 -2.1874
 6541SOL    MW425932   1.161   3.909   1.212  0.4413 -0.3470 -0.1454
 6542SOL     OW25933   3.113   3.806   5.749 -0.1142  0.5588 -0.2080
 6542SOL    HW225934   3.059   3.729   5.763 -0.2627  0.6256 -0.4100
 6542SOL    HW325935   3.140   3.834   5.837 -0.5368  0.6200 -0.0983
 6542SOL    MW425936   3.110   3.800   5.763  0.0436 -0.0216 -0.1746
 6543SOL     OW25937   1.120   5.170   1.297  0.1892 -1.0923 -0.4334
 6543SOL    HW225938   1.064   5.095   1.317  2.0463 -2.9156 -1.5917
 6543SOL    HW325939   1.185   5.171   1.368  0.4052 -0.8210 -0.6331
 6543SOL    MW425940   1.121   5.160   1.309  0.4100 -0.1350 -0.2385
 6544SOL     OW25941   2.085   5.720   0.772  0.3819 -0.1242 -0.1761
 6544SOL    HW225942   2.081   5.632   0.810 -0.6983 -0.6088 -1.2939
 6544SOL    HW325943   2.033   5.774   0.831 -0.8901 -0.7597 -0.6700
 6544SOL    MW425944   2.078   5.715   0.784  0.1116  0.0720  0.3326
 6545SOL     OW25945   6.269   2.995   1.778  0.9282  0.2767  0.2600
 6545SOL    HW225946   6.223   2.950   1.707 -0.4450  1.3503  0.4187
 6545SOL    HW325947   6.345   3.036   1.736  1.8410 -1.5682  0.0040
 6545SOL    MW425948   6.273   2.994   1.763 -0.0786  0.3441  0.2291
 6546SOL     OW25949   5.948   1.103   4.847  0.0949  0.1480  0.8154
 6546SOL    HW225950   5.977   1.057   4.926  1.0025 -0.5954  0.0723
 6546SOL    HW325951   5.936   1.194   4.876  1.4457  0.1100  1.5947
 6546SOL    MW425952   5.951   1.109   4.861  0.4627  0.3929 -0.5105
 6547SOL     OW25953   2.524   5.106   0.870 -0.3051  0.2671 -0.3642
 6547SOL    HW225954   2.526   5.195   0.904 -0.3465 -0.2355  1.0220
 6547SOL    HW325955   2.457   5.107   0.802  0.0105  1.3879 -0.6792
 6547SOL    MW425956   2.516   5.118   0.865 -0.0703  0.2558 -0.5841
 6548SOL     OW25957   0.457   0.875   4.655  0.2345  0.2151  0.3106
 6548SOL    HW225958   0.521   0.805   4.670 -2.9835 -2.5214  2.9802
 6548SOL    HW325959   0.423   0.858   4.567  3.2596  2.0269 -1.3683
 6548SOL    MW425960   0.461   0.864   4.645  0.0458 -0.4641  0.1419
 6549SOL     OW25961   6.112   5.790   0.890 -0.2949 -0.2229  0.2762
 6549SOL    HW225962   6.020   5.763   0.887 -0.8476  1.5820  0.2810
 6549SOL    HW325963   6.151   5.735   0.959 -1.5827 -0.3669  0.9121
 6549SOL    MW425964   6.105   5.779   0.899  0.3135 -0.1767 -0.3768
 6550SOL     OW25965   2.842   4.199   5.639  0.0632  0.7057 -0.2967
 6550SOL    HW225966   2.783   4.126   5.663 -0.7877  0.8971 -1.6864
 6550SOL    HW325967   2.810   4.273   5.691 -1.0816  0.8519 -1.1603
 6550SOL    MW425968   2.830   4.199   5.649 -0.7676  0.1746 -0.1813
 6551SOL     OW25969   5.226   0.434   3.296 -0.4398  0.6938 -0.0247
 6551SOL    HW225970   5.228   0.368   3.365 -0.6680  0.9477  0.2272
 6551SOL    HW325971   5.318   0.460   3.285 -0.5093  1.4460  0.9618
 6551SOL    MW425972   5.239   0.429   3.304 -0.5867 -0.0642  0.3178
 6552SOL     OW25973   2.969   4.106   4.467  0.1971 -0.2470  0.4775
 6552SOL    HW225974   2.896   4.135   4.522 -1.0141 -1.6589 -0.3088
 6552SOL    HW325975   2.954   4.149   4.383 -0.7491 -1.8469 -0.2183
 6552SOL    MW425976   2.958   4.116   4.463  0.4997  0.0686 -0.2097
 6553SOL     OW25977   1.373   5.690   5.664  0.0682 -0.4616 -0.3344
 6553SOL    HW225978   1.323   5.666   5.586  0.5515 -3.4763  0.1973
 6553SOL    HW325979   1.449   5.633   5.663  1.6196  1.4626  0.8506
 6553SOL    MW425980   1.376   5.680   5.654 -0.4270 -0.3210  0.2496
 6554SOL     OW25981   3.923   5.091   6.256  0.2476 -0.7873  0.2550
 6554SOL    HW225982   3.833   5.062   6.251  0.5583 -1.5844 -1.1324
 6554SOL    HW325983   3.919   5.174   6.304 -1.4241  0.0159 -1.1719
 6554SOL    MW425984   3.911   5.098   6.262  0.0335  0.5229 -0.6229
 6555SOL     OW25985   2.652   5.866   4.544  0.0563 -0.2278 -0.5101
 6555SOL    HW225986   2.607   5.940   4.584  1.3196  0.2852  0.0052
 6555SOL    HW325987   2.619   5.789   4.590  0.8789  0.2803  1.0080
 6555SOL    MW425988   2.642   5.865   4.555  0.4160  0.8052 -0.2185
 6556SOL     OW25989   3.566   0.148   1.729 -0.6848  0.4160  0.1739
 6556SOL    HW225990   3.606   0.157   1.815 -1.5603 -0.6650  0.7204
 6556SOL    HW325991   3.564   0.237   1.694  2.4785  0.5333 -0.0674
 6556SOL    MW425992   3.571   0.161   1.736 -0.2537 -0.1740 -0.0780
 6557SOL     OW25993   0.638   1.972   2.055  0.8399 -0.2673 -0.3495
 6557SOL    HW225994   0.627   1.965   1.961  0.3907 -0.6997 -0.2689
 6557SOL    HW325995   0.610   1.887   2.089  1.9340 -0.4699  0.0956
 6557SOL    MW425996   0.633   1.960   2.047  0.3375  0.0480 -0.1033
 6558SOL     OW25997   0.878   3.735   4.737  0.4138 -0.1257 -0.2192
 6558SOL    HW225998   0.830   3.796   4.794  0.4400  0.4737 -0.8160
 6558SOL    HW325999   0.950   3.787   4.702  1.3867 -0.9674  0.5051
 6558SOL    MW426000   0.881   3.750   4.740  0.5310  0.0987  0.0660
 6559SOL     OW26001   4.505   5.667   3.730 -0.2057  0.4482 -0.3014
 6559SOL    HW226002   4.566   5.718   3.785 -0.5685  0.9600 -0.3697
 6559SOL    HW326003   4.505   5.713   3.646 -0.4679  0.2780 -0.3924
 6559SOL    MW426004   4.513   5.680   3.726 -0.4308 -0.0523 -0.2105
 6560SOL     OW26005   5.939   3.159   4.661  0.7919  0.3959  0.2435
 6560SOL    HW226006   5.992   3.216   4.606 -0.2494  0.7918 -0.3859
 6560SOL    HW326007   5.850   3.195   4.655 -0.0650 -1.7343 -0.8154
 6560SOL    MW426008   5.934   3.172   4.653  0.0476  0.2761 -0.1313
 6561SOL     OW26009   3.325   4.902   2.643  0.0916 -0.3543  0.1147
 6561SOL    HW226010   3.264   4.848   2.593  1.0778  0.3825 -2.0473
 6561SOL    HW326011   3.292   4.992   2.632  0.0906 -0.2118  1.1955
 6561SOL    MW426012   3.313   4.907   2.635 -0.0377  0.0554  0.1553
 6562SOL     OW26013   4.793   2.522   2.650 -0.4994  0.0109 -0.8330
 6562SOL    HW226014   4.727   2.454   2.645 -0.5894 -0.0977  1.0928
 6562SOL    HW326015   4.751   2.593   2.698  1.0230 -0.4710  1.3872
 6562SOL    MW426016   4.779   2.522   2.655 -0.5251 -0.0943 -0.0452
 6563SOL     OW26017   3.290   4.446   1.857  0.7291  0.3397  0.1971
 6563SOL    HW226018   3.374   4.478   1.893  0.0141  3.0691 -0.2826
 6563SOL    HW326019   3.315   4.394   1.781  2.0435  1.5621 -0.2696
 6563SOL    MW426020   3.305   4.444   1.851  0.6067  0.4410 -0.4830
 6564SOL     OW26021   0.221   3.177   2.912  0.3396  0.3358 -0.5469
 6564SOL    HW226022   0.174   3.202   2.833 -0.5999 -1.3858 -0.5802
 6564SOL    HW326023   0.183   3.093   2.938  1.0785  0.5222  1.3617
 6564SOL    MW426024   0.210   3.169   2.905 -0.0306  0.3846 -0.6236
 6565SOL     OW26025   3.729   2.169   1.184  0.2329  0.2650  0.1156
 6565SOL    HW226026   3.722   2.263   1.171 -1.8915 -0.0281 -1.2276
 6565SOL    HW326027   3.722   2.131   1.097  1.0168 -1.1698  0.6294
 6565SOL    MW426028   3.727   2.176   1.171  0.1719  0.4708 -0.6655
 6566SOL     OW26029   4.409   1.920   1.058 -0.2342  0.2534 -0.1609
 6566SOL    HW226030   4.337   1.907   0.996  0.2271 -0.4997 -0.5625
 6566SOL    HW326031   4.377   1.882   1.140 -0.1833 -0.4065 -0.4322
 6566SOL    MW426032   4.396   1.913   1.060 -0.0614  0.1682  0.5098
 6567SOL     OW26033   4.022   4.728   2.589  0.1020 -0.2520  0.2433
 6567SOL    HW226034   4.102   4.778   2.574  0.8658 -1.2875  0.6844
 6567SOL    HW326035   3.953   4.794   2.596  0.7916  0.6250 -0.8549
 6567SOL    MW426036   4.023   4.743   2.588 -0.6471  0.0073  0.1035
 6568SOL     OW26037   6.071   0.589   2.929 -0.3659 -0.2871 -0.1322
 6568SOL    HW226038   6.006   0.525   2.960 -1.5100  1.1072  0.4648
 6568SOL    HW326039   6.069   0.581   2.833 -2.9468  1.0676 -0.2824
 6568SOL    MW426040   6.062   0.579   2.920  0.3061  0.0965  0.0868
 6569SOL     OW26041   6.160   4.905   5.160  0.2290  0.1334  0.5414
 6569SOL    HW226042   6.155   4.902   5.064 -1.0476  1.1270  0.5432
 6569SOL    HW326043   6.194   4.993   5.179  1.6636 -0.4829  1.0065
 6569SOL    MW426044   6.164   4.916   5.150  0.0297 -0.3268 -0.8727
 6570SOL     OW26045   1.177   2.538   3.782 -0.1347 -0.0272  0.1802
 6570SOL    HW226046   1.217   2.580   3.706 -0.4871  1.4715  0.7944
 6570SOL    HW326047   1.086   2.566   3.780 -0.1221  0.1197  1.2080
 6570SOL    MW426048   1.170   2.547   3.772 -0.4640 -0.4458 -0.2821
 6571SOL     OW26049   1.548   5.982   0.133  0.0546  0.0272  0.3219
 6571SOL    HW226050   1.638   5.957   0.114 -0.6539 -1.8976 -0.7902
 6571SOL    HW326051   1.515   6.016   0.049 -0.3189  0.5312  0.6666
 6571SOL    MW426052   1.556   5.983   0.119  0.2424 -0.2520  0.2977
 6572SOL     OW26053   4.001   0.400   2.501 -0.7369  0.0820  0.2307
 6572SOL    HW226054   3.979   0.458   2.428 -1.2377  2.0801  1.8728
 6572SOL    HW326055   4.045   0.457   2.564 -0.7318 -1.4629  1.6918
 6572SOL    MW426056   4.004   0.415   2.500 -0.1634 -0.1200 -0.0162
 6573SOL     OW26057   1.963   4.101   3.721  0.1066 -0.1528 -0.0854
 6573SOL    HW226058   1.971   4.193   3.747  1.3884 -0.3544  0.3043
 6573SOL    HW326059   1.917   4.059   3.794  0.7850 -0.0843  0.3876
 6573SOL    MW426060   1.958   4.107   3.734  0.7475 -0.3363 -0.4796
 6574SOL     OW26061   2.126   5.775   3.705 -0.1647 -0.2894 -0.4004
 6574SOL    HW226062   2.107   5.860   3.664 -1.3425  0.0301  0.7660
 6574SOL    HW326063   2.107   5.788   3.798  1.1288 -1.4015  0.0566
 6574SOL    MW426064   2.121   5.788   3.712  0.2053 -0.2225  0.3052
 6575SOL     OW26065   0.826   5.712   4.848 -0.2655  0.6583 -0.2441
 6575SOL    HW226066   0.767   5.685   4.778 -0.2315  1.2574 -0.5104
 6575SOL    HW326067   0.813   5.807   4.855 -0.1552  0.6254  0.4572
 6575SOL    MW426068   0.817   5.721   4.840  0.4827  0.4080 -0.5068
 6576SOL     OW26069   0.517   0.437   4.470  0.4212  0.0162 -0.0160
 6576SOL    HW226070   0.522   0.442   4.374  1.1585 -0.4140 -0.0053
 6576SOL    HW326071   0.446   0.497   4.493  0.8685  0.8569 -0.7657
 6576SOL    MW426072   0.508   0.446   4.460  0.1315  0.2236 -0.1735
 6577SOL     OW26073   5.854   2.637   6.302  0.0393 -0.2944 -0.2316
 6577SOL    HW226074   5.838   2.684   6.220  2.6489 -0.6280 -1.0009
 6577SOL    HW326075   5.824   2.548   6.285 -0.4994 -0.0864 -0.4018
 6577SOL    MW426076   5.848   2.631   6.289 -0.0602 -0.6056  0.1811
 6578SOL     OW26077   6.420   5.267   6.307  0.3535 -0.3935  0.0314
 6578SOL    HW226078   6.424   5.362   6.292  0.6958 -0.3846  0.1763
 6578SOL    HW326079   6.498   5.233   6.264 -1.6054 -1.0986 -3.4035
 6578SOL    MW426080   6.431   5.275   6.299  0.0537  0.0910 -0.1294
 6579SOL     OW26081   4.675   3.003   3.401 -0.2964  0.2621  0.1950
 6579SOL    HW226082   4.698   2.922   3.447  0.4707  0.2044 -0.2643
 6579SOL    HW326083   4.665   2.977   3.310  1.1943  0.8652 -0.1791
 6579SOL    MW426084   4.677   2.989   3.395  0.1680  0.1410  0.1139
 6580SOL     OW26085   3.053   5.716   5.058  0.5745 -0.1687 -0.4331
 6580SOL    HW226086   3.097   5.771   4.993 -0.0540  0.0091 -0.7196
 6580SOL    HW326087   2.961   5.743   5.053  0.5817  0.1487  0.8345
 6580SOL    MW426088   3.046   5.727   5.048 -0.5077 -0.3708 -0.1607
 6581SOL     OW26089   3.941   1.348   2.333 -0.1693 -0.0568 -0.6299
 6581SOL    HW226090   4.006   1.411   2.303 -0.1067 -0.5173 -1.5253
 6581SOL    HW326091   3.873   1.350   2.266 -1.1165  0.4480  0.3176
 6581SOL    MW426092   3.940   1.356   2.320 -0.4305 -0.3426 -0.0824
 6582SOL     OW26093   0.383   0.571   1.304 -0.1632  0.2231  0.3133
 6582SOL    HW226094   0.457   0.630   1.286 -1.7799  1.8804 -1.3244
 6582SOL    HW326095   0.368   0.580   1.398  2.1735 -0.8002  0.8662
 6582SOL    MW426096   0.391   0.580   1.314  0.6745 -0.2284 -0.0038
 6583SOL     OW26097   0.732   5.116   5.077  0.6027  0.5571 -0.3539
 6583SOL    HW226098   0.671   5.047   5.052  0.1585  0.7814  0.1117
 6583SOL    HW326099   0.728   5.120   5.172  0.8428  1.0309 -0.3582
 6583SOL    MW426100   0.724   5.107   5.086 -0.6806 -0.4479  0.0201
 6584SOL     OW26101   1.598   1.078   1.512  0.5418  0.2523  0.3382
 6584SOL    HW226102   1.669   1.125   1.468 -0.8494  2.7835  0.5775
 6584SOL    HW326103   1.599   1.112   1.602 -0.9546  0.4037  0.3339
 6584SOL    MW426104   1.607   1.089   1.518 -0.5536 -0.0102 -0.4710
 6585SOL     OW26105   1.726   3.769   1.895  0.6942 -0.3867 -0.4712
 6585SOL    HW226106   1.690   3.823   1.965 -0.9269 -0.4634 -1.1946
 6585SOL    HW326107   1.821   3.775   1.905  0.6224  2.9875 -0.7938
 6585SOL    MW426108   1.734   3.776   1.905  0.5241 -0.4439  0.2079
 6586SOL     OW26109   0.745   4.673   2.324  0.1289  0.1362 -0.2126
 6586SOL    HW226110   0.836   4.663   2.352  0.1000 -1.6383 -0.6124
 6586SOL    HW326111   0.695   4.670   2.405  0.1286 -3.9388 -0.1249
 6586SOL    MW426112   0.751   4.671   2.338  0.3971  0.3603 -0.0590
 6587SOL     OW26113   5.696   0.587   5.334 -0.6774 -0.2482  0.1211
 6587SOL    HW226114   5.744   0.588   5.416 -0.3988  1.7195 -0.0323
 6587SOL    HW326115   5.739   0.653   5.280 -2.0085 -0.2162 -0.9423
 6587SOL    MW426116   5.708   0.596   5.338 -0.1912 -0.8464 -0.0468
 6588SOL     OW26117   2.306   5.673   5.898 -0.2301  0.2539  0.1135
 6588SOL    HW226118   2.218   5.705   5.877  0.1949  1.1381 -0.3811
 6588SOL    HW326119   2.363   5.748   5.881  0.4990  0.0472  1.4928
 6588SOL    MW426120   2.302   5.687   5.893  0.4121  0.7528  0.0036
 6589SOL     OW26121   1.958   3.048   2.748  0.1204  0.1897 -0.3269
 6589SOL    HW226122   1.945   2.992   2.824  0.9104 -1.2407 -1.2053
 6589SOL    HW326123   2.002   3.126   2.783 -2.0840  0.9082  1.1097
 6589SOL    MW426124   1.962   3.051   2.763  0.3372  1.0806  0.4526
 6590SOL     OW26125   5.045   1.538   2.391  0.5190 -0.4496 -0.0844
 6590SOL    HW226126   5.060   1.630   2.414 -1.5880 -0.3032  0.9603
 6590SOL    HW326127   5.087   1.527   2.306  1.5816  1.2277  0.1794
 6590SOL    MW426128   5.052   1.548   2.383  0.5106 -0.2391 -0.3021
 6591SOL     OW26129   2.767   4.224   0.906  0.3988 -0.0161  0.5482
 6591SOL    HW226130   2.808   4.258   0.985 -0.5687 -0.2242  1.1557
 6591SOL    HW326131   2.752   4.131   0.925 -1.6097  0.3427  0.9111
 6591SOL    MW426132   2.771   4.216   0.919  0.1581 -0.0319  0.0221
 6592SOL     OW26133   4.026   5.990   4.905  0.2791  0.7287  0.0900
 6592SOL    HW226134   4.115   5.965   4.884 -0.6013 -3.3398  0.3519
 6592SOL    HW326135   4.009   5.951   4.991 -1.9625  0.7507 -0.2684
 6592SOL    MW426136   4.035   5.982   4.914  0.5071 -0.0683  0.6577
 6593SOL     OW26137   5.808   3.326   5.911 -0.0647 -0.2579  0.1987
 6593SOL    HW226138   5.761   3.388   5.966  1.1391  0.5443  0.3637
 6593SOL    HW326139   5.851   3.267   5.974  0.5536  0.0832  0.0994
 6593SOL    MW426140   5.808   3.326   5.927  0.2060 -0.1583 -0.0398
 6594SOL     OW26141   6.413   2.441   6.400  0.1944  0.2724 -0.2591
 6594SOL    HW226142   6.397   2.533   6.419  2.1801  0.6168  0.0037
 6594SOL    HW326143   6.459   2.442   6.316 -0.4039 -0.5477 -0.6099
 6594SOL    MW426144   6.417   2.453   6.391  0.1378  0.5965 -0.4051
 6595SOL     OW26145   2.669   4.645   5.227 -0.4543 -0.1149  0.0402
 6595SOL    HW226146   2.623   4.706   5.285  1.2026  0.6770  0.5846
 6595SOL    HW326147   2.760   4.649   5.256  0.3459 -0.0567 -2.2915
 6595SOL    MW426148   2.675   4.654   5.238  0.0294 -0.3319  0.4177
 6596SOL     OW26149   0.332   3.127   6.352 -0.2754  0.4542 -0.4860
 6596SOL    HW226150   0.358   3.135   6.260 -0.3164 -0.7240 -0.6147
 6596SOL    HW326151   0.393   3.064   6.389 -0.4611  0.6816  0.2230
 6596SOL    MW426152   0.343   3.120   6.345 -0.7203  0.0672 -0.2649
 6597SOL     OW26153   3.066   6.114   0.580 -0.2342  0.4038 -0.2998
 6597SOL    HW226154   3.011   6.071   0.515 -0.8051  0.9230 -0.1697
 6597SOL    HW326155   3.154   6.083   0.561 -0.5704 -0.4701 -0.4859
 6597SOL    MW426156   3.070   6.104   0.569  0.0678  1.0013  0.0454
 6598SOL     OW26157   4.593   3.383   0.798  0.0391  0.2804 -0.3948
 6598SOL    HW226158   4.589   3.303   0.745  1.0962 -0.0402 -0.0122
 6598SOL    HW326159   4.565   3.453   0.739 -0.9132 -0.3580 -0.7344
 6598SOL    MW426160   4.588   3.382   0.783 -1.0103  0.4833 -0.1773
 6599SOL     OW26161   0.755   1.772   0.662 -0.3262  0.1016 -0.1320
 6599SOL    HW226162   0.701   1.740   0.589  1.7627 -4.2623 -0.1289
 6599SOL    HW326163   0.836   1.801   0.622 -0.0567 -0.0954  0.2535
 6599SOL    MW426164   0.758   1.771   0.647  0.4182  0.1410  0.6134
 6600SOL     OW26165   0.951   1.055   4.277 -0.2992 -0.3910 -0.0889
 6600SOL    HW226166   1.031   1.101   4.300 -0.3762  0.1776 -0.9073
 6600SOL    HW326167   0.915   1.104   4.203 -1.2885 -0.7614  0.1236
 6600SOL    MW426168   0.957   1.067   4.271 -0.2216  0.4538 -0.5715
 6601SOL     OW26169   0.351   4.325   3.369  0.1151  0.5103  0.1120
 6601SOL    HW226170   0.436   4.282   3.360  0.1080  0.2270  1.2353
 6601SOL    HW326171   0.312   4.318   3.282 -0.4344 -2.9759  0.4579
 6601SOL    MW426172   0.357   4.318   3.357  0.6886  0.1312 -0.3872
 6602SOL     OW26173   0.103   3.887   1.505  0.0044  0.1738 -0.1834
 6602SOL    HW226174   0.182   3.916   1.458  0.4195 -0.5914  0.0202
 6602SOL    HW326175   0.065   3.968   1.539 -0.7900  0.8663 -2.5402
 6602SOL    MW426176   0.109   3.902   1.503  0.7170 -0.3343  0.0520
 6603SOL     OW26177   0.850   3.037   6.193 -0.0750 -0.4974 -0.2481
 6603SOL    HW226178   0.807   3.101   6.136  0.6456  1.2185  1.0452
 6603SOL    HW326179   0.880   2.969   6.133  0.9930  1.4127 -2.0436
 6603SOL    MW426180   0.848   3.037   6.178  0.4398  0.5401 -0.3978
 6604SOL     OW26181   2.755   1.270   0.377  0.6257  0.5973  0.4004
 6604SOL    HW226182   2.767   1.199   0.440 -1.0043 -1.1111 -1.0647
 6604SOL    HW326183   2.840   1.279   0.335  1.0091 -0.1335  0.9765
 6604SOL    MW426184   2.768   1.262   0.380  0.4376 -0.4556 -0.3486
 6605SOL     OW26185   0.657   1.679   0.417 -0.2145  0.1913  0.1943
 6605SOL    HW226186   0.711   1.685   0.338  0.9405 -0.3948  0.9116
 6605SOL    HW326187   0.572   1.648   0.385  0.5191 -0.9983 -0.7267
 6605SOL    MW426188   0.653   1.675   0.402  0.3192 -0.2187  0.4017
 6606SOL     OW26189   0.235   2.603   2.470  0.2880  0.2553  0.0710
 6606SOL    HW226190   0.328   2.587   2.452  0.4458  0.7309  0.4526
 6606SOL    HW326191   0.224   2.697   2.456 -0.3298  0.0626 -0.8100
 6606SOL    MW426192   0.246   2.613   2.465  0.2394  0.1034 -0.3834
 6607SOL     OW26193   3.867   4.827   1.623  0.0850 -0.1965  0.1288
 6607SOL    HW226194   3.897   4.800   1.536 -0.6398  0.6747 -0.3945
 6607SOL    HW326195   3.819   4.908   1.609 -2.0758 -1.2429  1.0147
 6607SOL    MW426196   3.865   4.834   1.610 -0.0415 -1.0717  0.3702
 6608SOL     OW26197   3.945   3.714   5.207  0.0529  0.3334 -0.1586
 6608SOL    HW226198   4.016   3.652   5.192 -0.2940 -0.2489  0.5197
 6608SOL    HW326199   3.973   3.765   5.283  0.8304  1.7817 -1.3647
 6608SOL    MW426200   3.958   3.713   5.215  0.5444 -0.0609  0.2355
 6609SOL     OW26201   2.249   2.965   5.078  0.7094 -1.1166 -0.0528
 6609SOL    HW226202   2.333   3.010   5.090 -0.6487  1.5890  0.1775
 6609SOL    HW326203   2.231   2.973   4.984  0.7234 -1.7834 -0.1189
 6609SOL    MW426204   2.258   2.972   5.067  0.1888  0.2773  0.3488
 6610SOL     OW26205   5.625   3.453   6.151 -0.1634 -0.5925 -0.2814
 6610SOL    HW226206   5.633   3.461   6.246 -0.6618 -2.5350 -0.0272
 6610SOL    HW326207   5.568   3.526   6.126 -1.7275 -1.2105  1.2211
 6610SOL    MW426208   5.618   3.464   6.160 -0.2149 -0.1344  0.2453
 6611SOL     OW26209   0.324   0.272   2.405 -0.5863 -0.1319 -0.2631
 6611SOL    HW226210   0.415   0.299   2.398 -0.2171 -0.9627  1.0541
 6611SOL    HW326211   0.326   0.177   2.393 -1.5066  0.0058 -1.9044
 6611SOL    MW426212   0.336   0.263   2.403  0.3591  0.3757  0.4757
 6612SOL     OW26213   4.880   4.909   3.098 -0.0223  0.3400 -0.3104
 6612SOL    HW226214   4.863   4.988   3.149 -2.3618 -1.9243  2.8783
 6612SOL    HW326215   4.799   4.894   3.050 -0.2180 -0.8266  0.3296
 6612SOL    MW426216   4.867   4.917   3.099 -0.1496 -0.0722 -0.3358
 6613SOL     OW26217   2.289   4.350   4.224  0.0626 -0.2836  0.0516
 6613SOL    HW226218   2.301   4.442   4.247 -0.7108 -0.0934 -0.2846
 6613SOL    HW326219   2.298   4.303   4.307 -0.2988  0.1646  0.3499
 6613SOL    MW426220   2.292   4.356   4.238 -0.2077 -0.5608 -0.0627
 6614SOL     OW26221   1.895   1.524   2.437 -0.5323 -0.4419 -0.2886
 6614SOL    HW226222   1.974   1.560   2.398 -1.1701 -1.8158 -3.0667
 6614SOL    HW326223   1.927   1.456   2.497  0.4289 -0.2648 -0.5878
 6614SOL    MW426224   1.909   1.519   2.440  0.4453  0.4626  0.2415
 6615SOL     OW26225   4.604   2.781   0.559 -0.3020  0.0412 -0.4560
 6615SOL    HW226226   4.508   2.787   0.561 -0.3217  0.4146 -1.5924
 6615SOL    HW326227   4.622   2.688   0.546 -0.4645 -0.2148  1.0256
 6615SOL    MW426228   4.594   2.770   0.557 -0.3000  0.0738 -0.3155
 6616SOL     OW26229   5.036   5.449   5.986 -0.4364  0.2546 -0.2873
 6616SOL    HW226230   5.107   5.407   6.035 -2.2658  0.2958  2.5640
 6616SOL    HW326231   5.007   5.381   5.924  0.7915 -0.4223 -0.1524
 6616SOL    MW426232   5.042   5.434   5.984  0.0443  0.5246 -0.5600
 6617SOL     OW26233   5.277   4.220   6.249  0.4173 -0.3848  0.0443
 6617SOL    HW226234   5.266   4.134   6.210  1.8342 -0.0833 -1.0824
 6617SOL    HW326235   5.193   4.264   6.234  0.3626 -0.8757 -1.1951
 6617SOL    MW426236   5.264   4.215   6.242 -0.4256 -0.4294 -0.3300
 6618SOL     OW26237   1.137   5.988   5.936 -0.4294  0.5709  0.3903
 6618SOL    HW226238   1.150   6.077   5.904  1.1283  0.1266 -0.2656
 6618SOL    HW326239   1.206   5.975   6.000  0.1523 -0.5839 -0.4350
 6618SOL    MW426240   1.148   5.998   5.940 -0.0088 -0.8633 -0.0387
 6619SOL     OW26241   2.113   4.001   5.447  0.0137  0.3697 -0.1317
 6619SOL    HW226242   2.161   4.072   5.404  0.5403 -0.2746 -0.6159
 6619SOL    HW326243   2.154   3.921   5.415  2.5748 -0.1852  3.8221
 6619SOL    MW426244   2.125   4.000   5.437 -0.2000 -0.8395  0.0073
 6620SOL     OW26245   2.682   4.146   4.541 -0.1256  0.0987  0.1329
 6620SOL    HW226246   2.634   4.117   4.463 -1.8006 -0.1076  1.2006
 6620SOL    HW326247   2.698   4.066   4.591  0.5086  0.2906  0.2432
 6620SOL    MW426248   2.678   4.131   4.537 -0.1948 -0.6739  0.2202
 6621SOL     OW26249   5.576   4.576   4.208  0.1373 -0.0100  0.4552
 6621SOL    HW226250   5.489   4.566   4.169  0.2085  1.5327 -0.1833
 6621SOL    HW326251   5.622   4.496   4.184  0.1475  0.7724 -2.6381
 6621SOL    MW426252   5.571   4.564   4.200  0.2538 -0.0162  0.0543
 6622SOL     OW26253   5.846   2.169   1.099  0.5577 -0.7764  0.2592
 6622SOL    HW226254   5.769   2.190   1.047  1.3782 -1.1565 -1.1514
 6622SOL    HW326255   5.899   2.249   1.097  1.1977 -1.2162 -0.6033
 6622SOL    MW426256   5.843   2.183   1.092  0.3001  0.2050 -0.0371
 6623SOL     OW26257   5.244   2.892   2.131  0.0297  0.2686  0.1694
 6623SOL    HW226258   5.152   2.863   2.123  0.4294 -0.6218 -1.9764
 6623SOL    HW326259   5.245   2.980   2.094  0.0739  0.1876 -0.0237
 6623SOL    MW426260   5.232   2.899   2.125 -0.2894  0.1212 -0.6882
 6624SOL     OW26261   3.435   6.154   4.857 -0.3093 -0.2154  0.4285
 6624SOL    HW226262   3.358   6.100   4.870 -0.7592  0.3790  0.2897
 6624SOL    HW326263   3.415   6.236   4.904 -0.3469  0.4727 -0.7489
 6624SOL    MW426264   3.423   6.158   4.865 -0.4769 -0.1013  0.3452
 6625SOL     OW26265   4.041   1.620   1.109 -0.3108  0.0352  0.6632
 6625SOL    HW226266   3.983   1.546   1.096 -1.0828  0.6937  0.2499
 6625SOL    HW326267   4.129   1.584   1.103 -0.6560 -1.0796  1.8658
 6625SOL    MW426268   4.045   1.606   1.107  0.4954 -0.2651  0.0255
 6626SOL     OW26269   2.155   4.327   3.949 -0.1398  0.0271 -0.0441
 6626SOL    HW226270   2.204   4.401   3.911 -0.7789  0.8937  0.7760
 6626SOL    HW326271   2.167   4.336   4.043  0.6668 -1.5760  0.0361
 6626SOL    MW426272   2.163   4.338   3.956 -0.0436  0.0228  0.3001
 6627SOL     OW26273   5.593   0.586   4.636 -0.0155  0.2169 -0.3856
 6627SOL    HW226274   5.576   0.672   4.674 -2.9350  0.4617 -1.9965
 6627SOL    HW326275   5.554   0.524   4.697  0.0700  0.2061 -0.3418
 6627SOL    MW426276   5.586   0.589   4.649  0.6574  0.4289 -0.6913
 6628SOL     OW26277   5.376   3.052   6.147  0.7044 -0.7699  0.2123
 6628SOL    HW226278   5.353   3.068   6.239 -0.6347  2.0420 -0.4987
 6628SOL    HW326279   5.344   2.964   6.130 -0.7224 -0.6639  1.9788
 6628SOL    MW426280   5.369   3.043   6.157 -0.9785  0.0378  0.1675
 6629SOL     OW26281   0.672   2.688   1.231 -0.0249  0.1431  0.0083
 6629SOL    HW226282   0.745   2.747   1.248 -0.6639  0.5738  1.3699
 6629SOL    HW326283   0.601   2.746   1.201 -0.0122 -0.2066 -0.7370
 6629SOL    MW426284   0.672   2.704   1.229  0.1566  0.0340  0.1626
 6630SOL     OW26285   5.578   0.388   0.228  0.0024 -0.3699  0.2817
 6630SOL    HW226286   5.632   0.359   0.154 -0.4825  3.4201 -1.8025
 6630SOL    HW326287   5.488   0.375   0.199 -0.2977 -2.3645  1.8782
 6630SOL    MW426288   5.574   0.383   0.214  0.4554  0.7348  0.4417
 6631SOL     OW26289   4.006   3.592   1.001 -0.4219  0.2483  0.1512
 6631SOL    HW226290   3.914   3.580   0.980 -0.7118 -1.1913  1.9690
 6631SOL    HW326291   4.050   3.520   0.955 -0.5752 -0.6410  1.3533
 6631SOL    MW426292   4.000   3.581   0.992  0.3849  0.7995 -0.1630
 6632SOL     OW26293   4.081   0.364   0.077  0.4492 -0.2099  0.1478
 6632SOL    HW226294   4.108   0.437   0.022  0.3068 -0.5629 -0.4052
 6632SOL    HW326295   4.032   0.403   0.149 -1.6042  0.0838 -1.3447
 6632SOL    MW426296   4.078   0.379   0.079  0.6022 -0.2079 -0.3272
 6633SOL     OW26297   2.834   5.843   1.883 -0.1198 -0.1398  0.2337
 6633SOL    HW226298   2.843   5.755   1.847 -0.8961 -0.0782 -0.1326
 6633SOL    HW326299   2.822   5.830   1.977  0.0382 -0.4101  0.2163
 6633SOL    MW426300   2.834   5.830   1.890  0.0539  0.2997  0.0341
 6634SOL     OW26301   0.750   2.252   3.723 -0.1899 -0.2435 -0.1493
 6634SOL    HW226302   0.747   2.162   3.756  1.5191 -0.1061  0.4354
 6634SOL    HW326303   0.778   2.305   3.797  1.5309  0.3728 -1.1833
 6634SOL    MW426304   0.753   2.247   3.737 -0.3411 -0.5149  0.2513
 6635SOL     OW26305   1.022   1.819   4.469 -0.6183  0.3624 -0.5188
 6635SOL    HW226306   0.981   1.892   4.422 -0.6779 -0.5967 -2.0139
 6635SOL    HW326307   0.949   1.763   4.496 -0.4273 -1.1072 -2.7825
 6635SOL    MW426308   1.007   1.821   4.466  0.2128  0.1332 -0.1684
 6636SOL     OW26309   4.649   5.469   4.392 -0.3136 -0.0079 -0.4509
 6636SOL    HW226310   4.693   5.513   4.465 -0.6772 -0.3027 -0.0488
 6636SOL    HW326311   4.711   5.401   4.364 -0.9246 -1.1295  0.8097
 6636SOL    MW426312   4.663   5.466   4.398  0.2498 -0.0608 -0.2324
 6637SOL     OW26313   1.490   1.375   1.617  0.5900 -0.0000  0.5136
 6637SOL    HW226314   1.400   1.387   1.646  0.8471 -0.5610  1.6254
 6637SOL    HW326315   1.482   1.332   1.531 -0.1924  0.7798  0.1807
 6637SOL    MW426316   1.477   1.371   1.609  0.2778  0.3946 -0.3278
 6638SOL     OW26317   4.294   0.948   3.018 -0.4789  0.0695 -0.1612
 6638SOL    HW226318   4.290   1.006   2.941  1.6685  2.7025  1.5316
 6638SOL    HW326319   4.237   0.989   3.082 -1.3475 -1.4740  0.1011
 6638SOL    MW426320   4.286   0.961   3.016 -0.2974 -0.0272 -0.2614
 6639SOL     OW26321   1.035   2.712   0.245 -0.0374 -0.3971 -0.2418
 6639SOL    HW226322   0.951   2.683   0.280 -0.1445 -1.2392 -1.1284
 6639SOL    HW326323   1.018   2.730   0.153  0.9307 -1.4804 -0.6663
 6639SOL    MW426324   1.022   2.710   0.238 -0.5979  0.5208 -0.7553
 6640SOL     OW26325   5.431   1.911   2.672 -0.3426  0.0167 -0.2721
 6640SOL    HW226326   5.362   1.873   2.726 -0.6501  1.1424  0.1628
 6640SOL    HW326327   5.404   2.002   2.659  1.1759  0.5667  0.1465
 6640SOL    MW426328   5.419   1.918   2.677 -0.3993  0.1107  0.0153
 6641SOL     OW26329   1.728   4.105   3.064 -0.1115 -0.1646  0.4303
 6641SOL    HW226330   1.665   4.034   3.045 -0.3469  0.6536 -2.3093
 6641SOL    HW326331   1.810   4.059   3.082 -0.9238 -1.1778  1.8509
 6641SOL    MW426332   1.730   4.089   3.064  0.1952  0.0257  0.6052
 6642SOL     OW26333   5.729   1.013   3.765  0.3449 -0.6254  0.3583
 6642SOL    HW226334   5.752   0.938   3.820 -0.1081 -1.0158  0.0155
 6642SOL    HW326335   5.639   0.997   3.737  1.0887 -1.2923 -1.8712
 6642SOL    MW426336   5.721   1.001   3.768 -0.0880  0.3597  0.1554
 6643SOL     OW26337   0.827   3.293   3.559  0.6572 -0.8376  0.5856
 6643SOL    HW226338   0.735   3.269   3.560  0.4270 -0.0063  0.4738
 6643SOL    HW326339   0.835   3.362   3.625  1.6496 -2.3991  2.1956
 6643SOL    MW426340   0.816   3.299   3.568 -0.2555  0.2113 -0.7409
 6644SOL     OW26341   4.636   5.870   0.288 -0.2559  1.0077  0.0478
 6644SOL    HW226342   4.701   5.897   0.353  1.7406  2.1892 -2.2755
 6644SOL    HW326343   4.555   5.913   0.317  1.2074  3.8378  0.3199
 6644SOL    MW426344   4.634   5.879   0.300  0.1484  0.6281  0.0957
 6645SOL     OW26345   0.918   2.436   3.883 -0.2220 -0.1536  0.1815
 6645SOL    HW226346   0.870   2.394   3.954  2.6501 -1.6968  1.3861
 6645SOL    HW326347   0.955   2.363   3.833 -0.7325  0.9439 -1.9123
 6645SOL    MW426348   0.916   2.421   3.886  0.3524 -0.5648  0.3906
 6646SOL     OW26349   4.556   5.565   6.136  0.2498  0.2330  0.8607
 6646SOL    HW226350   4.585   5.479   6.166  1.9854  0.1694 -0.8422
 6646SOL    HW326351   4.502   5.599   6.208 -0.9894 -2.5026  1.3244
 6646SOL    MW426352   4.553   5.558   6.149 -0.2522 -0.0615 -0.0853
 6647SOL     OW26353   1.554   4.069   1.249 -0.0814  0.3547 -0.3747
 6647SOL    HW226354   1.499   4.144   1.275  0.7920  0.8199  0.1593
 6647SOL    HW326355   1.602   4.101   1.172  0.2294  0.3108 -0.1970
 6647SOL    MW426356   1.553   4.083   1.242  0.8896  0.4183  1.1212
 6648SOL     OW26357   2.383   6.150   1.635 -0.3011 -0.3376 -0.1719
 6648SOL    HW226358   2.459   6.156   1.692  0.5246 -1.3924 -1.1261
 6648SOL    HW326359   2.418   6.165   1.547 -0.9377 -2.0753 -0.7694
 6648SOL    MW426360   2.398   6.153   1.631 -0.2357 -0.2440 -0.3034
 6649SOL     OW26361   2.381   3.641   1.712 -0.1234  0.7930 -0.6508
 6649SOL    HW226362   2.476   3.628   1.707  0.3183  3.2611 -0.3659
 6649SOL    HW326363   2.351   3.637   1.621 -0.2142 -2.3008 -0.5883
 6649SOL    MW426364   2.390   3.639   1.700 -0.4393 -0.5012  0.0142
 6650SOL     OW26365   2.548   3.580   5.011  0.6444  0.6109  0.2063
 6650SOL    HW226366   2.573   3.512   4.948  1.3054 -0.5837  1.7000
 6650SOL    HW326367   2.461   3.608   4.983  0.6868 -0.2990 -0.8984
 6650SOL    MW426368   2.540   3.575   4.999  0.5445 -0.4695  0.5699
 6651SOL     OW26369   6.080   1.140   1.203  0.0411 -0.3560  0.4312
 6651SOL    HW226370   6.085   1.216   1.146 -0.7428 -0.4565  0.2192
 6651SOL    HW326371   6.132   1.164   1.280  0.2305  0.1859  0.1363
 6651SOL    MW426372   6.087   1.153   1.206  0.3406 -1.0042  0.2324
 6652SOL     OW26373   5.013   0.092   5.566 -0.2328  0.4166  0.5373
 6652SOL    HW226374   5.047   0.147   5.495  2.9445  1.2578  2.5043
 6652SOL    HW326375   5.006   0.005   5.528  0.3442  1.0320 -1.0755
 6652SOL    MW426376   5.016   0.088   5.551  0.1627 -0.3820  0.2310
 6653SOL     OW26377   3.200   5.715   5.961  0.0270 -0.2694 -1.0503
 6653SOL    HW226378   3.268   5.718   6.029 -1.3700 -2.1113  0.5657
 6653SOL    HW326379   3.248   5.719   5.879  1.8468  1.4216 -0.0031
 6653SOL    MW426380   3.215   5.716   5.959 -0.0377  0.1727 -0.1826
 6654SOL     OW26381   4.335   4.982   5.859 -0.2720 -0.0313 -0.4913
 6654SOL    HW226382   4.366   5.060   5.813  0.8656  0.7698  1.5209
 6654SOL    HW326383   4.406   4.918   5.848  0.3608  0.4311  0.7528
 6654SOL    MW426384   4.349   4.984   5.852 -0.2937  0.1602 -0.3076
 6655SOL     OW26385   0.724   4.893   4.219 -0.0768 -0.0028 -0.0551
 6655SOL    HW226386   0.697   4.970   4.168  1.6725  0.0553 -0.9406
 6655SOL    HW326387   0.704   4.819   4.163 -2.3421 -0.3365  1.0395
 6655SOL    MW426388   0.718   4.894   4.205  0.3036 -0.8351  0.3088
 6656SOL     OW26389   0.212   2.869   2.402 -0.1939  0.0320 -0.1217
 6656SOL    HW226390   0.125   2.906   2.391 -1.1073 -2.1025 -0.6051
 6656SOL    HW326391   0.255   2.882   2.318 -0.3831  0.2380 -0.1873
 6656SOL    MW426392   0.206   2.876   2.390  0.0794 -0.0033  0.1073
 6657SOL     OW26393   2.896   2.486   5.121 -0.0145 -0.0627 -0.3310
 6657SOL    HW226394   2.964   2.530   5.173 -0.4718 -0.9482  1.0981
 6657SOL    HW326395   2.827   2.552   5.111  1.1128  0.9297 -2.0232
 6657SOL    MW426396   2.896   2.500   5.127 -0.4507  0.7018  0.2343
 6658SOL     OW26397   4.633   3.150   4.724  0.1240  0.5345 -0.0822
 6658SOL    HW226398   4.538   3.150   4.719  0.1433 -1.3918 -1.4634
 6658SOL    HW326399   4.660   3.221   4.665 -0.4312  1.2028  0.4483
 6658SOL    MW426400   4.624   3.160   4.716  0.4664  0.0207  0.3176
 6659SOL     OW26401   6.347   3.535   5.262 -0.4470 -0.4814  0.1271
 6659SOL    HW226402   6.303   3.567   5.341 -0.9608  0.7066 -0.6252
 6659SOL    HW326403   6.280   3.537   5.194  0.4588  0.2939 -0.7795
 6659SOL    MW426404   6.332   3.539   5.264  0.3602  0.2208 -0.5281
 6660SOL     OW26405   1.650   0.821   5.540  0.1500 -0.3643 -0.2326
 6660SOL    HW226406   1.569   0.781   5.572 -0.0774 -0.0820 -0.4482
 6660SOL    HW326407   1.657   0.904   5.587 -0.7197  0.5338 -1.6148
 6660SOL    MW426408   1.640   0.826   5.550 -0.5846 -0.6550 -0.1222
 6661SOL     OW26409   4.571   0.625   2.064 -0.2191  0.3458 -0.0745
 6661SOL    HW226410   4.557   0.710   2.024  0.8790 -0.3090 -2.0109
 6661SOL    HW326411   4.623   0.576   1.999  0.9622 -1.0927  1.8244
 6661SOL    MW426412   4.576   0.630   2.050  0.8364 -0.0542 -0.3439
 6662SOL     OW26413   2.627   1.675   4.846  0.1938  0.0141  0.2124
 6662SOL    HW226414   2.706   1.627   4.822 -0.4167 -0.5938 -0.6157
 6662SOL    HW326415   2.655   1.767   4.848  1.1699 -0.2802  1.0063
 6662SOL    MW426416   2.641   1.681   4.843  0.3249  0.5258  0.0196
 6663SOL     OW26417   3.097   2.372   3.017  0.2095  0.5953 -0.5445
 6663SOL    HW226418   3.167   2.424   2.978 -1.6783  1.5045 -2.9908
 6663SOL    HW326419   3.086   2.298   2.958  0.9605 -1.1415  1.3800
 6663SOL    MW426420   3.105   2.369   3.004  0.6177 -0.7948  0.0325
 6664SOL     OW26421   5.932   2.353   0.388 -0.3911 -0.0458 -0.8249
 6664SOL    HW226422   5.869   2.370   0.317 -0.6333 -0.0817 -0.6189
 6664SOL    HW326423   5.890   2.286   0.442 -1.5362  2.0089  1.0049
 6664SOL    MW426424   5.918   2.346   0.386  0.4746 -0.0812 -0.2278
 6665SOL     OW26425   3.898   1.098   3.680  0.0638  0.1811  0.7048
 6665SOL    HW226426   3.805   1.113   3.662  0.3549  0.2545 -0.8881
 6665SOL    HW326427   3.906   1.003   3.683 -0.0240  0.1688  0.5904
 6665SOL    MW426428   3.886   1.087   3.678 -0.4269  0.0519  0.4438
 6666SOL     OW26429   3.874   0.463   2.256  0.1100 -0.3390 -0.0020
 6666SOL    HW226430   3.883   0.545   2.207 -0.8066 -2.8242 -4.8933
 6666SOL    HW326431   3.783   0.463   2.286  0.0353  0.2884 -0.2106
 6666SOL    MW426432   3.863   0.474   2.253 -0.0449 -0.3894 -0.2872
 6667SOL     OW26433   3.358   6.413   4.025 -0.4369  0.1289  0.1826
 6667SOL    HW226434   3.347   6.469   3.948 -0.9706 -1.0422 -0.6244
 6667SOL    HW326435   3.332   6.326   3.995 -0.2275 -0.4380  1.5762
 6667SOL    MW426436   3.353   6.409   4.011  0.1728  0.0963  0.4281
 6668SOL     OW26437   5.318   2.385   3.549  0.5762 -0.5319 -0.0946
 6668SOL    HW226438   5.392   2.341   3.590  0.5470  0.1007  0.6555
 6668SOL    HW326439   5.245   2.371   3.609  0.6795  0.9380  0.4243
 6668SOL    MW426440   5.318   2.378   3.562 -0.1389 -0.1621  0.2225
 6669SOL     OW26441   5.132   6.245   2.050  0.4643  0.9112 -0.1074
 6669SOL    HW226442   5.060   6.187   2.025 -0.1870  0.1543  3.0468
 6669SOL    HW326443   5.211   6.199   2.023 -0.1368 -0.2644  0.0928
 6669SOL    MW426444   5.133   6.231   2.043  0.0552  0.0311  0.3526
 6670SOL     OW26445   2.277   1.264   2.748 -0.2941 -0.5432 -0.1185
 6670SOL    HW226446   2.263   1.355   2.723 -1.3174 -0.7608 -0.3878
 6670SOL    HW326447   2.358   1.239   2.704 -0.2916  0.0795 -0.4794
 6670SOL    MW426448   2.286   1.272   2.739  0.6332 -0.1872 -0.4692
 6671SOL     OW26449   2.051   2.253   0.495  0.5061  0.2218 -0.0411
 6671SOL    HW226450   2.039   2.194   0.420 -1.2213  0.0060  0.3714
 6671SOL    HW326451   2.116   2.210   0.549  0.0689 -0.7712 -0.2877
 6671SOL    MW426452   2.058   2.240   0.492 -0.7460  0.8856 -0.6386
 6672SOL     OW26453   3.363   3.164   0.509 -0.4238 -0.1749  0.2549
 6672SOL    HW226454   3.291   3.226   0.526  0.3863  0.5481  1.1858
 6672SOL    HW326455   3.428   3.184   0.577  0.2457 -1.4636  0.0239
 6672SOL    MW426456   3.362   3.175   0.520  0.5542  0.3028  0.0564
 6673SOL     OW26457   0.783   1.014   2.242 -0.7603  0.0160  0.5587
 6673SOL    HW226458   0.789   1.097   2.195  1.4594 -0.7772 -0.7009
 6673SOL    HW326459   0.689   1.004   2.260 -1.1510  2.5203  0.3268
 6673SOL    MW426460   0.771   1.024   2.238  0.6122  0.5113  0.0730
 6674SOL     OW26461   4.025   4.583   6.348  0.0428 -0.2417  0.1776
 6674SOL    HW226462   4.033   4.675   6.374 -0.3563 -0.2616  0.3652
 6674SOL    HW326463   4.056   4.534   6.424  0.7199 -0.2538 -0.0997
 6674SOL    MW426464   4.030   4.589   6.361  0.2749  0.2396 -0.6546
 6675SOL     OW26465   3.191   1.506   2.970 -0.2323 -0.6878  0.2742
 6675SOL    HW226466   3.270   1.533   3.017  0.0984 -1.0965 -0.0396
 6675SOL    HW326467   3.160   1.429   3.018  1.3998 -2.5483 -1.4528
 6675SOL    MW426468   3.197   1.500   2.982  0.1686  0.0987  0.6456
 6676SOL     OW26469   4.215   0.729   2.128  0.1837 -0.2025 -0.3251
 6676SOL    HW226470   4.161   0.685   2.063  0.8668  0.4055 -1.3412
 6676SOL    HW326471   4.262   0.659   2.172 -0.1300 -0.6143 -0.6372
 6676SOL    MW426472   4.214   0.714   2.125 -0.1626 -0.6015 -0.0194
 6677SOL     OW26473   4.926   5.107   2.176 -0.5822  0.1628 -0.1160
 6677SOL    HW226474   5.017   5.083   2.195  1.0883  2.1309 -4.3916
 6677SOL    HW326475   4.878   5.024   2.182  2.0620 -1.5114 -0.4099
 6677SOL    MW426476   4.931   5.093   2.179  0.0173 -0.4154 -0.6179
 6678SOL     OW26477   1.445   5.101   3.864 -0.0740  0.3733  0.1066
 6678SOL    HW226478   1.383   5.160   3.907  1.0294  1.1095  0.7255
 6678SOL    HW326479   1.530   5.123   3.902  0.3879 -1.5925  0.3389
 6678SOL    MW426480   1.448   5.111   3.875  0.2351  0.3164  0.1805
 6679SOL     OW26481   0.909   0.972   3.948  0.1918  0.2991 -0.5436
 6679SOL    HW226482   0.838   0.921   3.985  1.0622  0.3872  1.3552
 6679SOL    HW326483   0.888   0.979   3.855 -2.4722  0.6710  0.0176
 6679SOL    MW426484   0.897   0.966   3.940 -0.2777  0.4463  0.2360
 6680SOL     OW26485   5.434   5.573   4.178 -0.3675  0.4241 -0.2839
 6680SOL    HW226486   5.428   5.504   4.244  1.8997  0.0531 -0.4087
 6680SOL    HW326487   5.353   5.623   4.189 -0.9804 -0.8367  1.3929
 6680SOL    MW426488   5.422   5.571   4.188  0.3284 -0.3476 -0.1352
 6681SOL     OW26489   6.050   0.645   1.956  0.1152  0.0869  0.0020
 6681SOL    HW226490   5.976   0.634   2.017 -0.8666  2.2080 -0.6788
 6681SOL    HW326491   6.057   0.561   1.912 -1.3895 -0.4329  0.6600
 6681SOL    MW426492   6.041   0.633   1.958 -0.2332 -0.2880 -0.4007
 6682SOL     OW26493   5.636   5.497   0.575  0.3508  0.7305 -0.2548
 6682SOL    HW226494   5.560   5.511   0.518 -1.5777 -1.3305  1.5676
 6682SOL    HW326495   5.711   5.496   0.517 -1.4130 -0.6268 -2.6840
 6682SOL    MW426496   5.636   5.499   0.560  0.2214  0.1479  0.5548
 6683SOL     OW26497   6.362   2.572   5.993  0.0167  0.1663 -0.0053
 6683SOL    HW226498   6.432   2.587   5.929  0.2392  1.8672  0.5669
 6683SOL    HW326499   6.304   2.508   5.952 -0.2346  1.7302 -2.2478
 6683SOL    MW426500   6.364   2.566   5.979 -0.0693 -0.6802 -0.5134
 6684SOL     OW26501   4.381   2.464   3.732  0.2544 -0.4053  0.4580
 6684SOL    HW226502   4.459   2.409   3.724 -0.4198 -1.1953 -1.1408
 6684SOL    HW326503   4.319   2.412   3.782  0.5626  0.0362  1.3241
 6684SOL    MW426504   4.383   2.450   3.737 -0.3610 -0.6161  0.3082
 6685SOL     OW26505   3.845   5.520   3.967  0.2123  0.1317  0.3172
 6685SOL    HW226506   3.917   5.561   4.016  1.1042 -0.9624 -0.0385
 6685SOL    HW326507   3.850   5.427   3.990 -2.5368  0.2925  2.0725
 6685SOL    MW426508   3.855   5.513   3.976  0.3338 -0.1416 -0.1038
 6686SOL     OW26509   2.634   5.782   0.942  0.0299 -0.1739 -0.6433
 6686SOL    HW226510   2.630   5.826   1.027 -0.7319 -0.0511 -0.7281
 6686SOL    HW326511   2.726   5.785   0.917  0.2303 -0.0353  0.0870
 6686SOL    MW426512   2.645   5.788   0.950 -0.0131 -0.3665  0.0882
 6687SOL     OW26513   3.184   2.199   4.495 -0.5996 -0.6674  0.6742
 6687SOL    HW226514   3.146   2.224   4.580  1.3627 -0.7311  1.6272
 6687SOL    HW326515   3.156   2.268   4.435  0.3303  1.0037  2.0538
 6687SOL    MW426516   3.175   2.211   4.499 -0.0265 -0.8306  0.1187
 6688SOL     OW26517   1.625   3.620   1.116  0.2282  0.1865 -0.0357
 6688SOL    HW226518   1.633   3.549   1.179 -3.9150 -0.5976 -0.1057
 6688SOL    HW326519   1.604   3.697   1.170 -3.2407 -0.4687 -0.2338
 6688SOL    MW426520   1.623   3.621   1.131  0.0190 -0.0355 -0.3446
 6689SOL     OW26521   4.319   4.120   1.611 -0.3408 -0.0057 -0.2917
 6689SOL    HW226522   4.357   4.066   1.679  0.2388 -0.2437 -0.8006
 6689SOL    HW326523   4.225   4.104   1.617 -0.4553  1.0260  1.3495
 6689SOL    MW426524   4.311   4.111   1.620 -0.0289 -0.0534  0.0637
 6690SOL     OW26525   6.128   6.212   0.731 -0.0240  0.0456  0.7623
 6690SOL    HW226526   6.116   6.306   0.749  0.9254 -0.0881  2.2819
 6690SOL    HW326527   6.051   6.170   0.769 -1.1920  0.2866 -1.1998
 6690SOL    MW426528   6.116   6.219   0.738  0.2971  0.2662 -0.1493
 6691SOL     OW26529   4.036   1.932   6.086  0.3185 -0.2749  0.0760
 6691SOL    HW226530   3.953   1.942   6.039  0.3574  1.8577  0.3681
 6691SOL    HW326531   4.013   1.879   6.163 -0.4040 -1.0797 -0.6712
 6691SOL    MW426532   4.022   1.927   6.090 -0.5225 -0.7869 -0.1263
 6692SOL     OW26533   2.253   2.336   2.507  0.2387 -0.4815 -0.0434
 6692SOL    HW226534   2.178   2.276   2.504  0.9231 -1.3244 -1.5208
 6692SOL    HW326535   2.280   2.344   2.416  1.3460  0.5942  0.3611
 6692SOL    MW426536   2.247   2.329   2.494  0.5974 -0.4294 -0.6555
 6693SOL     OW26537   5.006   2.376   3.148 -0.0675 -0.3344 -0.7909
 6693SOL    HW226538   4.999   2.431   3.070 -0.5995  0.9865  0.1510
 6693SOL    HW326539   5.069   2.422   3.204  0.8570 -1.6422 -0.7179
 6693SOL    MW426540   5.014   2.389   3.145  0.0306  0.0347 -0.7282
 6694SOL     OW26541   0.139   2.168   4.840 -0.4299  0.0480 -0.1934
 6694SOL    HW226542   0.067   2.124   4.794 -0.7691  1.7185 -1.3529
 6694SOL    HW326543   0.210   2.171   4.775  0.5477 -1.1547  0.7805
 6694SOL    MW426544   0.139   2.162   4.825 -0.3344  0.0597 -0.2555
 6695SOL     OW26545   3.948   5.831   5.200  0.1621 -0.2136 -0.1231
 6695SOL    HW226546   3.981   5.754   5.245  3.2856  0.8352 -0.3521
 6695SOL    HW326547   3.965   5.903   5.260 -0.6012  0.5665 -0.8169
 6695SOL    MW426548   3.955   5.830   5.214 -0.4505  0.1728  0.3270
 6696SOL     OW26549   6.371   4.754   2.808 -0.6494 -1.0268 -0.4678
 6696SOL    HW226550   6.310   4.731   2.877  0.1459 -1.6191  0.0613
 6696SOL    HW326551   6.318   4.798   2.742 -1.2238  0.6900  1.0693
 6696SOL    MW426552   6.356   4.757   2.808  0.1635  0.3704 -0.3420
 6697SOL     OW26553   1.413   2.516   3.944  0.0120 -0.2724 -0.1591
 6697SOL    HW226554   1.449   2.430   3.920  0.7576 -0.0560  0.1571
 6697SOL    HW326555   1.347   2.534   3.877 -0.5353 -1.3283  0.0662
 6697SOL    MW426556   1.409   2.507   3.932  0.2712  0.2437 -0.1271
 6698SOL     OW26557   4.393   4.011   4.090 -0.6869 -0.2762 -0.3428
 6698SOL    HW226558   4.303   3.988   4.114 -1.5327  2.9728  0.1058
 6698SOL    HW326559   4.386   4.100   4.054  2.2979 -0.0891 -0.6941
 6698SOL    MW426560   4.380   4.020   4.088  0.0353 -0.3647 -0.4911
 6699SOL     OW26561   3.745   4.048   4.703  0.1985 -0.0090  0.2031
 6699SOL    HW226562   3.699   4.006   4.775  0.8981  1.5160  1.6135
 6699SOL    HW326563   3.675   4.077   4.644 -0.6087  0.8803  1.5282
 6699SOL    MW426564   3.730   4.047   4.705 -0.5247  0.9974  0.1378
 6700SOL     OW26565   3.261   3.229   0.912  0.4231 -0.2157  0.0589
 6700SOL    HW226566   3.193   3.223   0.978  0.5556 -0.3862  0.1831
 6700SOL    HW326567   3.264   3.321   0.888  1.4276  0.1368  1.4079
 6700SOL    MW426568   3.253   3.240   0.917  0.0314  0.4149 -0.2280
 6701SOL     OW26569   3.649   2.787   0.933  0.5189  0.4683 -0.3122
 6701SOL    HW226570   3.702   2.718   0.893  1.3858 -0.4021  2.1359
 6701SOL    HW326571   3.569   2.741   0.962 -0.2392  1.1411 -1.2900
 6701SOL    MW426572   3.645   2.772   0.932  0.0752 -0.4107 -0.5881
 6702SOL     OW26573   4.780   1.834   1.349  0.3683 -0.5188 -0.0388
 6702SOL    HW226574   4.836   1.822   1.272 -0.2536  2.7030 -1.1239
 6702SOL    HW326575   4.828   1.896   1.404 -0.5034 -0.5421  0.7618
 6702SOL    MW426576   4.794   1.840   1.346  0.1351  0.2375 -0.3644
 6703SOL     OW26577   2.057   4.795   1.916  0.1629  0.6491  0.2753
 6703SOL    HW226578   2.089   4.884   1.898  1.4108  0.1543 -0.0312
 6703SOL    HW326579   2.106   4.766   1.993  0.3818 -0.0786 -0.1271
 6703SOL    MW426580   2.067   4.803   1.924 -0.0486 -0.1354  0.2190
 6704SOL     OW26581   0.702   2.169   0.482 -0.1129  0.0418 -0.3188
 6704SOL    HW226582   0.658   2.254   0.488 -0.3422  0.0112 -1.3570
 6704SOL    HW326583   0.767   2.170   0.553 -0.0589  1.1126 -0.3673
 6704SOL    MW426584   0.705   2.181   0.492 -0.2438  0.1063  0.2479
 6705SOL     OW26585   2.371   3.319   4.584 -0.6336 -0.7221  0.6306
 6705SOL    HW226586   2.432   3.352   4.519 -0.2809 -0.8470  0.8942
 6705SOL    HW326587   2.392   3.226   4.593 -0.2935 -0.5894  1.3288
 6705SOL    MW426588   2.382   3.311   4.577 -0.0650 -0.4040 -0.9517
 6706SOL     OW26589   5.679   1.521   1.665  0.1649  0.4131 -0.9232
 6706SOL    HW226590   5.620   1.446   1.665  0.1759  0.4047 -0.7179
 6706SOL    HW326591   5.622   1.596   1.681  0.4879  0.1804  1.7658
 6706SOL    MW426592   5.663   1.521   1.667  0.6664  0.4878  0.0039
 6707SOL     OW26593   6.352   0.878   3.940 -0.3973  0.0732  0.2776
 6707SOL    HW226594   6.439   0.848   3.912 -0.1281  0.8952  0.1921
 6707SOL    HW326595   6.307   0.899   3.859 -1.5625 -2.5763  0.1475
 6707SOL    MW426596   6.358   0.877   3.926  0.1244  0.5343  0.1970
 6708SOL     OW26597   6.073   2.545   5.140 -0.1607  0.1912 -0.7715
 6708SOL    HW226598   6.030   2.629   5.155  0.4626  0.0471  2.5886
 6708SOL    HW326599   6.166   2.563   5.158  0.4171 -0.6957 -2.6206
 6708SOL    MW426600   6.080   2.559   5.145 -0.0317 -0.0740  0.7038
 6709SOL     OW26601   4.125   5.683   2.826  0.3679  0.4498 -0.1109
 6709SOL    HW226602   4.068   5.737   2.771 -0.2240  0.3322  0.3821
 6709SOL    HW326603   4.186   5.745   2.866  0.7180  0.5520 -0.7944
 6709SOL    MW426604   4.125   5.699   2.824 -0.3877  0.2088  0.5426
 6710SOL     OW26605   0.359   5.207   2.522  0.0310  0.3271 -0.5644
 6710SOL    HW226606   0.412   5.248   2.453  0.3155  2.1201  0.6455
 6710SOL    HW326607   0.397   5.240   2.603 -1.3387 -0.4212  0.4152
 6710SOL    MW426608   0.371   5.217   2.523  0.0267  0.2334  0.5870
 6711SOL     OW26609   3.829   1.738   4.116  0.1534  0.4723 -0.3001
 6711SOL    HW226610   3.885   1.660   4.115 -1.3198 -0.6315 -0.6686
 6711SOL    HW326611   3.840   1.776   4.029 -0.7917 -0.6166 -0.9300
 6711SOL    MW426612   3.838   1.732   4.104 -0.3950 -0.2352 -0.0482
 6712SOL     OW26613   0.260   4.175   0.517  0.4746 -0.0347 -0.1622
 6712SOL    HW226614   0.240   4.084   0.495  0.7807 -0.7738  2.3108
 6712SOL    HW326615   0.237   4.224   0.439  0.4990 -2.2525 -1.6492
 6712SOL    MW426616   0.254   4.169   0.504  0.0423  0.3274 -0.3435
 6713SOL     OW26617   5.160   4.170   2.183 -0.1048 -0.4249  0.4860
 6713SOL    HW226618   5.125   4.198   2.267  1.5410  0.4368  0.9279
 6713SOL    HW326619   5.083   4.150   2.130 -1.1955  0.1095  1.8224
 6713SOL    MW426620   5.145   4.171   2.187 -0.3926 -0.1308 -0.3344
 6714SOL     OW26621   4.339   2.821   0.465  0.5309 -0.0916  0.2135
 6714SOL    HW226622   4.253   2.862   0.459 -0.1896 -1.2460  1.7672
 6714SOL    HW326623   4.371   2.817   0.375 -0.6435  1.1636 -0.2857
 6714SOL    MW426624   4.332   2.826   0.452  0.1608  0.1103 -0.1994
 6715SOL     OW26625   0.563   6.094   0.196  0.5381 -0.1698 -0.3786
 6715SOL    HW226626   0.524   6.028   0.138 -0.1052  0.5857 -0.8244
 6715SOL    HW326627   0.583   6.168   0.139 -1.0123  0.9845  0.4872
 6715SOL    MW426628   0.561   6.095   0.181  0.9415  0.2245 -0.4657
 6716SOL     OW26629   4.741   2.749   6.299  0.3916 -0.1668  0.1573
 6716SOL    HW226630   4.704   2.837   6.301  1.4066  0.2932  3.1117
 6716SOL    HW326631   4.670   2.694   6.264 -0.0835  1.8170 -2.2260
 6716SOL    MW426632   4.727   2.753   6.295 -0.1510  0.9189  0.0994
 6717SOL     OW26633   3.450   1.021   4.321  0.5037  0.7586  0.3536
 6717SOL    HW226634   3.544   1.023   4.337  0.2828  2.1174  1.6705
 6717SOL    HW326635   3.411   1.006   4.407 -0.4871 -1.4332 -0.3987
 6717SOL    MW426636   3.457   1.019   4.334  0.5054 -0.0249 -0.0425
 6718SOL     OW26637   5.888   4.303   2.309  0.2676 -1.3350  0.3406
 6718SOL    HW226638   5.891   4.383   2.361 -0.4311 -0.6713 -0.6050
 6718SOL    HW326639   5.930   4.327   2.226 -0.5568 -1.7379 -0.2048
 6718SOL    MW426640   5.894   4.317   2.305  0.0530  0.0056 -0.0467
 6719SOL     OW26641   1.020   5.117   5.579  0.1705 -0.1338  0.4694
 6719SOL    HW226642   0.986   5.184   5.638 -0.3964  0.0554 -0.0642
 6719SOL    HW326643   0.952   5.050   5.576 -0.7984  0.8496 -1.6117
 6719SOL    MW426644   1.007   5.117   5.586  0.0266  0.1706 -0.1224
 6720SOL     OW26645   0.071   1.467   4.030  0.0875  0.2382  0.5642
 6720SOL    HW226646   0.018   1.529   4.080  0.3077  0.2162  0.8246
 6720SOL    HW326647   0.137   1.521   3.987 -0.1310  0.2628  0.2573
 6720SOL    MW426648   0.072   1.482   4.031 -0.4452 -0.3488  0.1983
 6721SOL     OW26649   6.361   4.387   4.014 -0.0648  0.8314  0.0196
 6721SOL    HW226650   6.438   4.422   4.057  0.8142 -0.7513 -0.1836
 6721SOL    HW326651   6.384   4.386   3.921 -0.7301  1.2949 -0.1566
 6721SOL    MW426652   6.374   4.391   4.007 -0.2911  0.4343  0.3538
 6722SOL     OW26653   2.853   1.901   0.014 -0.0099  0.4766  0.1433
 6722SOL    HW226654   2.907   1.980   0.014  0.0019  0.4908  1.6763
 6722SOL    HW326655   2.901   1.838   0.068  0.5779 -1.0535 -1.9836
 6722SOL    MW426656   2.866   1.903   0.021  0.1100  0.7600  0.0135
 6723SOL     OW26657   1.467   3.031   4.043  0.7668 -0.6224 -0.2620
 6723SOL    HW226658   1.401   3.074   3.987  0.6682  2.0248  1.6896
 6723SOL    HW326659   1.419   2.959   4.084 -0.1136 -0.4764 -0.9836
 6723SOL    MW426660   1.452   3.027   4.041 -0.3236  1.3226  0.3798
 6724SOL     OW26661   5.615   1.334   5.291  0.0167 -0.2981 -0.0402
 6724SOL    HW226662   5.610   1.389   5.212  2.0778 -1.5949 -1.1570
 6724SOL    HW326663   5.552   1.374   5.351 -0.0952  2.0271 -1.5426
 6724SOL    MW426664   5.606   1.347   5.288  0.2552  0.1745  0.4030
 6725SOL     OW26665   1.179   5.663   5.416  0.0182 -0.0337 -0.1455
 6725SOL    HW226666   1.226   5.624   5.342 -0.3482 -1.7321  0.4571
 6725SOL    HW326667   1.130   5.590   5.454 -0.2025  0.8999  1.4706
 6725SOL    MW426668   1.179   5.648   5.411 -0.2907  0.5888 -0.0625
 6726SOL     OW26669   3.122   4.534   2.674 -0.6708  0.6926  0.0580
 6726SOL    HW226670   3.186   4.464   2.661 -0.5905  0.5591  1.0635
 6726SOL    HW326671   3.163   4.592   2.739 -1.1165  1.1915 -0.0957
 6726SOL    MW426672   3.136   4.533   2.681 -0.2928 -0.6398  0.0696
 6727SOL     OW26673   4.941   2.584   4.203  0.3623  0.1518  0.5929
 6727SOL    HW226674   4.908   2.558   4.289  1.9875 -0.6217  1.0141
 6727SOL    HW326675   4.915   2.676   4.195 -0.1815  0.1120  1.7094
 6727SOL    MW426676   4.933   2.593   4.213 -0.2601 -0.5397 -0.6428
 6728SOL     OW26677   5.943   4.790   5.736 -0.8706 -0.2347  0.1827
 6728SOL    HW226678   5.997   4.734   5.793 -1.8023 -1.7340 -0.3369
 6728SOL    HW326679   5.897   4.728   5.679 -0.9357  1.1655 -1.3461
 6728SOL    MW426680   5.944   4.774   5.736 -0.5012  0.1551 -0.1616
 6729SOL     OW26681   5.171   6.113   1.379 -0.0990  0.1384  0.2989
 6729SOL    HW226682   5.231   6.059   1.430 -1.2634  0.0757  1.6443
 6729SOL    HW326683   5.204   6.105   1.289  0.4699 -1.8577  0.6247
 6729SOL    MW426684   5.183   6.105   1.374  0.2901 -0.1337  0.6180
 6730SOL     OW26685   3.840   0.094   5.873  0.5520  0.1159 -0.2390
 6730SOL    HW226686   3.826   0.095   5.967  0.5476 -0.9518 -0.2155
 6730SOL    HW326687   3.906   0.026   5.859 -0.2079 -0.4687 -1.0868
 6730SOL    MW426688   3.847   0.085   5.883 -0.2425  0.1685  0.5283
 6731SOL     OW26689   0.658   5.918   1.039 -0.2371  0.2994  0.1343
 6731SOL    HW226690   0.589   5.880   0.985 -1.4978  0.9049  1.2629
 6731SOL    HW326691   0.738   5.908   0.987 -1.3105  0.4385 -1.6145
 6731SOL    MW426692   0.659   5.911   1.025  0.2769  0.4028  0.3976
 6732SOL     OW26693   5.232   3.619   4.608  0.5589  0.1484 -0.0412
 6732SOL    HW226694   5.224   3.696   4.664 -0.3464  0.4766 -0.6002
 6732SOL    HW326695   5.145   3.579   4.609  0.5119  0.1735 -1.2158
 6732SOL    MW426696   5.220   3.624   4.615 -0.0119 -0.0571 -0.2056
 6733SOL     OW26697   6.082   3.283   1.018  0.6713  0.2813 -0.2077
 6733SOL    HW226698   6.028   3.207   0.994  1.1230  0.4734 -1.9136
 6733SOL    HW326699   6.022   3.357   1.011  1.0804  0.4733 -1.9278
 6733SOL    MW426700   6.067   3.282   1.014  0.4305 -0.3486  0.7851
 6734SOL     OW26701   1.800   0.661   2.751  0.5212 -0.4229 -0.1982
 6734SOL    HW226702   1.800   0.629   2.661 -0.2833  0.2331 -0.4415
 6734SOL    HW326703   1.731   0.612   2.795 -2.4500  2.4893 -1.1879
 6734SOL    MW426704   1.791   0.650   2.745  1.0230 -0.1560 -0.3713
 6735SOL     OW26705   3.242   4.048   4.287  0.3762 -0.1054 -0.5352
 6735SOL    HW226706   3.332   4.073   4.270  0.4040 -0.5894 -1.1409
 6735SOL    HW326707   3.245   3.999   4.369  0.8629 -1.1488 -1.1455
 6735SOL    MW426708   3.254   4.045   4.295  0.1720 -0.1758 -0.1417
 6736SOL     OW26709   3.936   1.771   3.407  0.0060  0.1225  0.5645
 6736SOL    HW226710   3.971   1.685   3.431  1.1438  0.9654  2.0665
 6736SOL    HW326711   3.859   1.782   3.462 -0.8593 -0.3941 -0.4877
 6736SOL    MW426712   3.930   1.761   3.417  0.3610 -0.0564 -0.1455
 6737SOL     OW26713   4.155   6.112   2.733 -0.0185 -0.0882 -0.3259
 6737SOL    HW226714   4.243   6.083   2.708  0.9640  2.6493 -0.3576
 6737SOL    HW326715   4.128   6.170   2.661 -2.4335 -1.8087 -0.9332
 6737SOL    MW426716   4.163   6.116   2.720  0.2943 -0.4036  0.3875
 6738SOL     OW26717   0.475   4.354   1.320 -0.0386 -0.2637 -0.6635
 6738SOL    HW226718   0.482   4.282   1.383 -0.9890  0.2554  0.0596
 6738SOL    HW326719   0.455   4.431   1.373 -0.7786  0.1987 -1.5793
 6738SOL    MW426720   0.473   4.354   1.335 -0.3551 -0.5009 -0.1871
 6739SOL     OW26721   1.548   4.468   0.544  0.1041  0.1367  1.0698
 6739SOL    HW226722   1.497   4.522   0.605 -1.5782  1.2405 -1.1916
 6739SOL    HW326723   1.485   4.405   0.509  0.9803 -0.3108  0.2552
 6739SOL    MW426724   1.533   4.466   0.548 -0.6069  0.3218 -0.1710
 6740SOL     OW26725   1.354   1.729   2.730 -0.2233  0.9888  0.6933
 6740SOL    HW226726   1.300   1.653   2.752 -0.4531  0.5516 -1.2590
 6740SOL    HW326727   1.444   1.697   2.736 -0.3312  0.3884 -0.6238
 6740SOL    MW426728   1.359   1.715   2.734 -0.2995 -0.0434  0.5418
 6741SOL     OW26729   5.925   0.352   5.651  0.1605  0.2169  0.0079
 6741SOL    HW226730   5.861   0.286   5.676 -1.8193  0.8350 -2.9618
 6741SOL    HW326731   6.004   0.329   5.700 -1.4400 -2.3279  1.5706
 6741SOL    MW426732   5.927   0.340   5.661 -0.2908 -0.5022 -0.2377
 6742SOL     OW26733   5.685   6.232   0.604  0.0682 -0.7932 -0.2667
 6742SOL    HW226734   5.609   6.283   0.630  0.0033 -1.2984  0.5721
 6742SOL    HW326735   5.758   6.293   0.611 -0.4256  0.2630 -2.8884
 6742SOL    MW426736   5.685   6.247   0.608  0.3529  0.0737  0.2771
 6743SOL     OW26737   3.053   5.984   0.843  0.6071 -0.1037  0.2066
 6743SOL    HW226738   3.009   6.056   0.888  0.5143  0.0271 -0.0917
 6743SOL    HW326739   3.068   6.017   0.755  1.9755  0.1395  0.5059
 6743SOL    MW426740   3.049   5.998   0.838  0.8389  0.2204 -0.4548
 6744SOL     OW26741   4.338   2.931   5.111  0.8669  0.2891  0.1165
 6744SOL    HW226742   4.398   2.875   5.161  0.9841  0.9888  0.7831
 6744SOL    HW326743   4.332   3.011   5.163  0.3820  0.7358 -0.6168
 6744SOL    MW426744   4.345   2.934   5.125  0.4356  0.2887  0.1842
 6745SOL     OW26745   1.226   5.300   0.649  0.3915 -0.1328 -0.5729
 6745SOL    HW226746   1.299   5.274   0.705  0.9237  1.5638 -0.3960
 6745SOL    HW326747   1.197   5.219   0.607  4.1897 -0.5916 -2.8057
 6745SOL    MW426748   1.232   5.286   0.651 -0.0107 -0.5193 -0.5332
 6746SOL     OW26749   5.488   1.289   4.957  0.2021 -0.1137  0.3615
 6746SOL    HW226750   5.410   1.313   5.007 -2.1069 -0.2042 -2.8979
 6746SOL    HW326751   5.535   1.371   4.945  0.0173  0.1595  1.4008
 6746SOL    MW426752   5.484   1.303   4.962  0.2053  0.4788 -0.9505
 6747SOL     OW26753   6.208   5.073   3.786 -0.1729  0.4832  0.0098
 6747SOL    HW226754   6.281   5.089   3.726 -0.4721  0.5389 -0.3403
 6747SOL    HW326755   6.202   4.978   3.793 -2.7298  0.2272 -3.2991
 6747SOL    MW426756   6.217   5.063   3.779 -0.5374  0.4932 -0.3818
 6748SOL     OW26757   1.476   0.254   4.659  0.2625  0.0384 -0.5091
 6748SOL    HW226758   1.515   0.340   4.644  0.3157 -0.1517 -1.5746
 6748SOL    HW326759   1.545   0.203   4.700 -0.1558  0.8380  1.2800
 6748SOL    MW426760   1.490   0.259   4.662  0.1749 -0.2367  0.6605
 6749SOL     OW26761   6.152   4.532   4.117 -0.3072 -0.1765 -0.0150
 6749SOL    HW226762   6.233   4.514   4.069 -0.3822  0.0091 -0.2143
 6749SOL    HW326763   6.173   4.605   4.174 -0.5211  0.3384 -0.5735
 6749SOL    MW426764   6.165   4.539   4.118  0.7101  0.2305  0.6001
 6750SOL     OW26765   0.403   4.544   1.514  0.0067 -0.0521  0.1989
 6750SOL    HW226766   0.330   4.605   1.523  0.2635  0.2782  0.0672
 6750SOL    HW326767   0.466   4.572   1.580  0.6203  0.5482 -0.6150
 6750SOL    MW426768   0.401   4.556   1.524  0.1831 -0.2796  0.4646
 6751SOL     OW26769   2.408   0.688   4.020 -0.3421 -0.3874 -0.1380
 6751SOL    HW226770   2.350   0.615   3.999 -0.8767 -0.1121  0.3438
 6751SOL    HW326771   2.495   0.657   3.999 -0.7879 -0.3008 -2.3111
 6751SOL    MW426772   2.412   0.674   4.015 -0.2350 -0.5639 -0.1694
 6752SOL     OW26773   4.497   4.865   2.690  0.1667 -0.4333  0.1485
 6752SOL    HW226774   4.558   4.812   2.638 -0.3795 -0.6143 -0.3052
 6752SOL    HW326775   4.422   4.879   2.633 -0.1140  0.0078  0.6196
 6752SOL    MW426776   4.495   4.860   2.676 -0.2526 -0.4790 -1.4305
 6753SOL     OW26777   1.370   2.624   3.110  0.0164  0.0061  0.7858
 6753SOL    HW226778   1.322   2.657   3.186  3.6575 -0.7002  3.6849
 6753SOL    HW326779   1.399   2.702   3.063 -0.6680  0.5218  1.2155
 6753SOL    MW426780   1.367   2.639   3.114  0.2022  0.1762 -0.1279
 6754SOL     OW26781   5.127   0.670   5.581 -0.0996  0.0868  0.2519
 6754SOL    HW226782   5.126   0.680   5.486  1.9571  1.8061  0.3233
 6754SOL    HW326783   5.188   0.598   5.597 -1.3222 -0.9813  0.2850
 6754SOL    MW426784   5.135   0.662   5.571  0.6005 -0.1400 -0.1404
 6755SOL     OW26785   0.140   2.018   5.062  0.4833  0.5674  0.3003
 6755SOL    HW226786   0.148   2.079   4.990  2.1345  0.3799  0.2891
 6755SOL    HW326787   0.230   1.994   5.084 -0.0906 -2.0690  0.1290
 6755SOL    MW426788   0.153   2.023   5.056  0.1414 -0.1453 -0.4016
 6756SOL     OW26789   0.429   2.894   5.252  0.1461  0.1130  0.4868
 6756SOL    HW226790   0.482   2.822   5.287  0.1494 -0.3721 -0.4591
 6756SOL    HW326791   0.484   2.971   5.261  1.6132 -0.5717 -1.6444
 6756SOL    MW426792   0.443   2.894   5.258 -0.3654 -0.5174  0.2379
 6757SOL     OW26793   1.470   1.651   3.157 -0.4380  0.3607 -0.0979
 6757SOL    HW226794   1.531   1.712   3.116  0.8671 -1.3934 -0.9068
 6757SOL    HW326795   1.520   1.613   3.230  0.1099 -2.2274 -1.6891
 6757SOL    MW426796   1.485   1.654   3.161  0.3123 -0.0313  0.0776
 6758SOL     OW26797   4.754   5.368   3.233  0.2657  0.2001 -0.3711
 6758SOL    HW226798   4.772   5.415   3.152  1.4225 -0.3896 -0.4723
 6758SOL    HW326799   4.664   5.337   3.223  0.5293 -0.2170 -1.6133
 6758SOL    MW426800   4.744   5.370   3.221 -0.5091  0.2705  0.1603
 6759SOL     OW26801   2.272   2.755   0.909  0.5867 -0.1157  0.0713
 6759SOL    HW226802   2.339   2.710   0.857  0.0999 -1.4349  0.5278
 6759SOL    HW326803   2.271   2.707   0.992  0.9006  1.5431  1.0814
 6759SOL    MW426804   2.281   2.742   0.913  0.0749 -0.3008  0.0705
 6760SOL     OW26805   5.347   6.197   2.343 -0.6581 -0.0627  0.1611
 6760SOL    HW226806   5.335   6.143   2.264 -0.2855  0.1626 -0.0515
 6760SOL    HW326807   5.352   6.286   2.310 -0.2070  0.0082  0.4101
 6760SOL    MW426808   5.346   6.201   2.328  0.1549 -0.3294  0.0404
 6761SOL     OW26809   1.398   3.558   5.796 -0.3624 -0.2789  0.2131
 6761SOL    HW226810   1.326   3.619   5.812 -0.2677 -0.3122  0.7785
 6761SOL    HW326811   1.371   3.477   5.839 -0.3437 -0.5415 -0.2615
 6761SOL    MW426812   1.385   3.556   5.803  0.1609 -0.3335  0.0163
 6762SOL     OW26813   6.240   0.125   3.331  0.1740 -0.1044 -0.2056
 6762SOL    HW226814   6.208   0.204   3.288 -2.0657 -0.1323  1.2834
 6762SOL    HW326815   6.232   0.057   3.264 -0.4434  0.4126 -0.6737
 6762SOL    MW426816   6.235   0.126   3.317 -0.7104  0.5979  0.1264
 6763SOL     OW26817   5.446   4.467   2.102 -0.0733 -0.5533 -0.1595
 6763SOL    HW226818   5.438   4.427   2.015  0.0559  0.8219 -0.8183
 6763SOL    HW326819   5.378   4.533   2.105  1.2147  0.8213 -0.0077
 6763SOL    MW426820   5.436   4.470   2.091  0.1507 -0.1284 -0.2325
 6764SOL     OW26821   4.436   5.755   5.805  0.1259 -0.2485 -0.7999
 6764SOL    HW226822   4.356   5.780   5.759 -0.0924  0.6306  0.0402
 6764SOL    HW326823   4.406   5.704   5.880  0.4940 -1.8018 -1.6501
 6764SOL    MW426824   4.422   5.751   5.809 -0.0854 -0.4535 -0.0159
 6765SOL     OW26825   0.618   4.824   3.492 -0.2856 -0.1074  0.5264
 6765SOL    HW226826   0.536   4.864   3.462 -0.2113  0.7539  1.4014
 6765SOL    HW326827   0.668   4.898   3.527  1.1154 -0.5255 -0.5078
 6765SOL    MW426828   0.614   4.839   3.493  0.1123 -0.2720  0.0258
 6766SOL     OW26829   6.419   0.725   3.537 -0.4708  0.3270  0.1033
 6766SOL    HW226830   6.492   0.663   3.531 -0.2296  0.5674  0.5084
 6766SOL    HW326831   6.430   0.782   3.461  0.0772  0.6887  0.4416
 6766SOL    MW426832   6.430   0.724   3.526 -0.2474 -0.1956  0.1059
 6767SOL     OW26833   4.513   2.787   5.283  0.1959 -0.2399  0.5555
 6767SOL    HW226834   4.516   2.697   5.249  0.9043 -0.3340  0.8491
 6767SOL    HW326835   4.602   2.819   5.272 -0.6789  1.5662 -2.5186
 6767SOL    MW426836   4.525   2.779   5.277  0.4206 -0.2472 -0.6060
 6768SOL     OW26837   1.499   4.563   1.644  0.3688 -0.0206 -0.6130
 6768SOL    HW226838   1.504   4.557   1.548  3.5588 -0.9039 -0.5238
 6768SOL    HW326839   1.461   4.480   1.671  0.8738 -0.4283 -1.1122
 6768SOL    MW426840   1.495   4.551   1.635  0.4157  0.3467 -0.2145
 6769SOL     OW26841   0.637   3.561   6.296  0.1304 -0.3231 -0.2383
 6769SOL    HW226842   0.692   3.487   6.273  0.8063  0.1293 -0.0988
 6769SOL    HW326843   0.570   3.524   6.354  1.3993 -0.5634  1.1479
 6769SOL    MW426844   0.635   3.547   6.301  0.2409 -0.1810  0.3644
 6770SOL     OW26845   0.029   4.463   1.987 -0.2804  0.2942  0.3095
 6770SOL    HW226846   0.057   4.522   1.917 -1.3404 -0.2175 -0.5769
 6770SOL    HW326847   0.111   4.428   2.023  0.2890  0.4537 -0.7799
 6770SOL    MW426848   0.044   4.466   1.982 -0.1081  0.4025  0.0769
 6771SOL     OW26849   3.879   4.650   5.853 -0.1426  0.0559 -0.3643
 6771SOL    HW226850   3.918   4.565   5.831 -0.4444 -0.2036  0.0893
 6771SOL    HW326851   3.952   4.700   5.890 -0.6749 -1.3000  2.8849
 6771SOL    MW426852   3.894   4.645   5.855 -0.7630  0.0861 -0.1499
 6772SOL     OW26853   2.437   4.308   1.482  0.0473 -0.1098 -0.5291
 6772SOL    HW226854   2.525   4.337   1.458  1.2231 -0.7294  2.6386
 6772SOL    HW326855   2.434   4.316   1.577 -3.5193  0.2963 -0.5547
 6772SOL    MW426856   2.448   4.313   1.491 -0.3513  0.0324 -0.0417
 6773SOL     OW26857   4.512   3.294   5.880 -0.1104  0.0601  0.0074
 6773SOL    HW226858   4.490   3.307   5.788  0.7680  1.5017 -0.0368
 6773SOL    HW326859   4.479   3.372   5.924  2.1375  0.8694  0.3985
 6773SOL    MW426860   4.505   3.306   5.874  0.0143 -0.1390  0.0699
 6774SOL     OW26861   4.063   1.357   4.742 -0.2801 -0.0150 -0.3664
 6774SOL    HW226862   4.025   1.275   4.708 -0.4897  0.3917 -1.1408
 6774SOL    HW326863   3.990   1.419   4.742 -0.5887 -0.2865  1.9756
 6774SOL    MW426864   4.048   1.354   4.737 -0.0212 -0.1961  0.6101
 6775SOL     OW26865   5.973   3.247   4.927  0.0897 -0.2258  0.5805
 6775SOL    HW226866   5.896   3.233   4.983  0.3766 -0.5636  0.8984
 6775SOL    HW326867   5.943   3.225   4.839 -0.0483 -0.8489  0.7737
 6775SOL    MW426868   5.959   3.242   4.923  0.2542  0.1887 -0.4756
 6776SOL     OW26869   5.934   5.958   3.334  0.0758  0.4060  0.2097
 6776SOL    HW226870   5.908   5.885   3.391 -0.4265  2.1269  2.2763
 6776SOL    HW326871   5.854   5.981   3.287 -0.8700  2.1751  2.5512
 6776SOL    MW426872   5.920   5.951   3.335 -0.2959  0.0346 -1.0769
 6777SOL     OW26873   1.014   0.186   4.812 -0.1278  0.3790  0.0907
 6777SOL    HW226874   0.970   0.264   4.844 -2.8204 -0.1943 -1.9146
 6777SOL    HW326875   0.975   0.114   4.861  1.5228  0.1182  1.1135
 6777SOL    MW426876   1.003   0.187   4.823 -0.4259  0.3313 -0.0094
 6778SOL     OW26877   3.686   2.136   6.101  0.3335  0.3128  0.1142
 6778SOL    HW226878   3.743   2.145   6.177 -1.5693  1.2773  1.5093
 6778SOL    HW326879   3.619   2.073   6.128  1.2870 -1.6539 -1.8735
 6778SOL    MW426880   3.684   2.129   6.115  0.2766 -0.1084  0.1799
 6779SOL     OW26881   0.377   1.463   5.615  0.0724 -0.2329 -0.2287
 6779SOL    HW226882   0.412   1.467   5.704  0.7981 -0.2615 -0.5013
 6779SOL    HW326883   0.336   1.548   5.601 -0.4244 -0.3835  0.2781
 6779SOL    MW426884   0.376   1.475   5.625 -0.0301 -0.0086  0.9417
 6780SOL     OW26885   6.368   3.575   6.322 -0.4004 -0.4220 -0.2217
 6780SOL    HW226886   6.376   3.649   6.262  2.3174 -0.3608  0.0506
 6780SOL    HW326887   6.391   3.611   6.408 -2.5413 -0.8797  0.6068
 6780SOL    MW426888   6.372   3.590   6.325 -0.0522  0.3041  0.4084
 6781SOL     OW26889   1.739   6.394   6.116 -0.5302 -0.0199 -0.1025
 6781SOL    HW226890   1.698   6.438   6.191  0.0075  0.4213 -0.0551
 6781SOL    HW326891   1.674   6.332   6.086 -0.7606 -0.2046  0.7379
 6781SOL    MW426892   1.725   6.392   6.122  0.3486  0.1167  0.4033
 6782SOL     OW26893   5.259   3.280   4.198 -0.7955 -0.4143 -0.0720
 6782SOL    HW226894   5.205   3.352   4.232 -0.6688  0.1104 -0.9638
 6782SOL    HW326895   5.325   3.265   4.266 -1.2470 -0.1668  0.4311
 6782SOL    MW426896   5.260   3.287   4.212  0.7694 -0.2193  0.2854
 6783SOL     OW26897   5.482   3.917   3.085 -0.5170 -0.1046 -0.3717
 6783SOL    HW226898   5.439   3.961   3.159 -1.2124 -1.6474  0.1963
 6783SOL    HW326899   5.530   3.845   3.125  0.0437 -0.2817 -1.3318
 6783SOL    MW426900   5.483   3.914   3.100 -0.1746 -0.4395  0.1354
 6784SOL     OW26901   3.258   2.840   4.313 -0.6279 -0.2445 -0.1267
 6784SOL    HW226902   3.241   2.832   4.407 -1.3500 -0.3291 -0.2530
 6784SOL    HW326903   3.308   2.762   4.290 -0.7868 -0.4199  0.1223
 6784SOL    MW426904   3.262   2.829   4.322  0.0629  0.1590 -0.1002
 6785SOL     OW26905   3.757   3.616   0.201 -0.2706 -0.5018  0.0060
 6785SOL    HW226906   3.741   3.547   0.136  0.2007 -0.2269 -0.3984
 6785SOL    HW326907   3.763   3.696   0.150 -1.4862 -0.0428  0.5363
 6785SOL    MW426908   3.755   3.617   0.186  0.5680  0.2080 -0.2701
 6786SOL     OW26909   0.857   3.239   1.902  0.2301  0.3104  0.1743
 6786SOL    HW226910   0.811   3.268   1.823 -0.1123 -0.1233  0.2037
 6786SOL    HW326911   0.793   3.250   1.973  0.0172 -0.6534  0.1574
 6786SOL    MW426912   0.842   3.244   1.901  0.2706 -0.5398  0.6629
 6787SOL     OW26913   1.408   4.942   0.228  0.0179  0.1554 -0.2315
 6787SOL    HW226914   1.393   4.852   0.259 -1.9675  0.5218 -0.0108
 6787SOL    HW326915   1.501   4.957   0.245  0.7234 -2.2737 -1.4098
 6787SOL    MW426916   1.418   4.932   0.234  0.3461 -0.5466 -0.2116
 6788SOL     OW26917   0.226   4.974   4.005  0.6078 -0.0212 -0.4997
 6788SOL    HW226918   0.270   4.890   4.020  1.4052  0.6518  1.1641
 6788SOL    HW326919   0.139   4.963   4.045  0.4885 -0.2536 -0.8226
 6788SOL    MW426920   0.220   4.962   4.012  0.0525 -0.1211  0.3616
 6789SOL     OW26921   4.600   5.569   1.265 -0.1444  0.3404  0.1637
 6789SOL    HW226922   4.558   5.505   1.322 -1.6968 -0.5686 -1.8507
 6789SOL    HW326923   4.529   5.605   1.212  1.3288 -0.0803 -2.2873
 6789SOL    MW426924   4.585   5.565   1.265  0.1719  0.2916 -0.6134
 6790SOL     OW26925   3.134   1.398   1.103  0.3498  0.0271 -0.0930
 6790SOL    HW226926   3.072   1.431   1.038  0.7591 -0.3651 -0.6929
 6790SOL    HW326927   3.189   1.337   1.054  2.8261  2.1977 -0.1858
 6790SOL    MW426928   3.133   1.394   1.088  0.1304  0.5193  0.3281
 6791SOL     OW26929   6.167   3.448   4.080 -0.2644 -0.0460  0.4214
 6791SOL    HW226930   6.109   3.374   4.096 -2.0540  1.4460  1.1610
 6791SOL    HW326931   6.243   3.431   4.136 -0.3282 -1.6242  0.0775
 6791SOL    MW426932   6.169   3.436   4.090  0.2478 -0.0087 -0.1812
 6792SOL     OW26933   4.247   5.484   0.204 -0.0716 -0.2583 -0.0328
 6792SOL    HW226934   4.302   5.409   0.182 -1.2539 -1.7493  1.8894
 6792SOL    HW326935   4.189   5.453   0.273 -0.3213  2.5515  1.1523
 6792SOL    MW426936   4.247   5.470   0.210 -0.8663 -0.8053 -0.1491
 6793SOL     OW26937   5.121   0.691   4.987  0.5773  0.2812 -0.2758
 6793SOL    HW226938   5.106   0.745   5.065  1.4348  0.0898  0.0384
 6793SOL    HW326939   5.211   0.660   4.997  0.4785 -0.2722 -1.0275
 6793SOL    MW426940   5.131   0.694   4.999 -0.0445 -0.3486 -0.2484
 6794SOL     OW26941   5.621   4.356   3.221  0.0735  0.1587  0.4253
 6794SOL    HW226942   5.637   4.442   3.181 -1.4635 -0.5513 -1.9418
 6794SOL    HW326943   5.703   4.309   3.209 -0.2608  0.0337 -1.9325
 6794SOL    MW426944   5.634   4.361   3.214  0.2340  0.3136 -0.5081
 6795SOL     OW26945   6.271   5.610   4.082  0.5316  0.0263 -0.2920
 6795SOL    HW226946   6.360   5.630   4.109  0.4506  0.3874 -0.2925
 6795SOL    HW326947   6.215   5.666   4.136  0.1909 -1.5146  1.0240
 6795SOL    MW426948   6.275   5.620   4.093 -0.3374  0.3486 -0.4441
 6796SOL     OW26949   3.264   5.904   4.949  0.2948  0.1223  0.2939
 6796SOL    HW226950   3.314   5.837   4.902  0.5174  0.9414 -0.6789
 6796SOL    HW326951   3.289   5.894   5.040  0.3521 -1.0874  0.1616
 6796SOL    MW426952   3.274   5.894   4.955 -0.0891 -0.5494 -0.3289
 6797SOL     OW26953   4.958   2.853   4.061  0.0770  0.2146 -0.0061
 6797SOL    HW226954   4.881   2.905   4.086  1.0068  1.6807 -0.0454
 6797SOL    HW326955   5.032   2.903   4.096  1.0546 -0.7775 -0.6082
 6797SOL    MW426956   4.958   2.867   4.069  0.1436  0.0261 -0.3184
 6798SOL     OW26957   1.119   2.520   6.340  0.3262 -0.6794  0.6982
 6798SOL    HW226958   1.163   2.437   6.325 -0.4591 -1.0808  0.5806
 6798SOL    HW326959   1.078   2.511   6.426  2.2828  0.5091  1.8318
 6798SOL    MW426960   1.119   2.508   6.349 -0.0289 -0.6900  0.2404
 6799SOL     OW26961   2.583   5.108   2.987  0.0874 -0.1267  0.0170
 6799SOL    HW226962   2.679   5.107   2.994  0.0269 -1.7234  0.9310
 6799SOL    HW326963   2.552   5.100   3.077 -0.9017 -0.6451 -0.3528
 6799SOL    MW426964   2.592   5.107   3.000  0.0022  0.8359 -0.3471
 6800SOL     OW26965   5.894   3.000   2.597 -0.4629  1.0912  0.2165
 6800SOL    HW226966   5.886   2.944   2.520  1.0031  1.7460 -0.4569
 6800SOL    HW326967   5.833   2.963   2.661 -1.3215  0.2200 -1.0665
 6800SOL    MW426968   5.884   2.988   2.595  0.4299 -0.1713  0.4759
 6801SOL     OW26969   0.591   2.501   6.311  0.1274  0.1494  0.4435
 6801SOL    HW226970   0.650   2.560   6.359  0.2569  1.8137 -1.6599
 6801SOL    HW326971   0.504   2.525   6.341  0.2678  0.4318  0.6340
 6801SOL    MW426972   0.588   2.512   6.322 -0.7324 -0.7105  1.2439
 6802SOL     OW26973   0.205   4.564   3.186 -0.2735 -0.1028  0.8690
 6802SOL    HW226974   0.294   4.598   3.178  0.0511 -0.7146  1.7099
 6802SOL    HW326975   0.149   4.638   3.164  0.4027 -0.5647 -3.0199
 6802SOL    MW426976   0.210   4.578   3.182  0.3348 -0.8528  0.1055
 6803SOL     OW26977   5.414   5.097   3.831 -0.2045 -0.2134  0.2081
 6803SOL    HW226978   5.456   5.182   3.821 -0.5978 -0.0624 -0.1970
 6803SOL    HW326979   5.321   5.114   3.819 -0.6262 -0.2478  2.8753
 6803SOL    MW426980   5.407   5.110   3.828 -0.3747  0.3433  0.0308
 6804SOL     OW26981   1.156   1.317   4.967 -0.2988 -0.1504  0.3522
 6804SOL    HW226982   1.251   1.319   4.958 -0.2258 -0.4829  1.0077
 6804SOL    HW326983   1.135   1.224   4.981 -0.7262 -0.0930  0.1211
 6804SOL    MW426984   1.165   1.305   4.968 -0.3032  0.0946 -0.4812
 6805SOL     OW26985   2.083   2.111   2.552 -0.4054 -0.5164  0.3050
 6805SOL    HW226986   1.990   2.123   2.571 -0.3582  0.2923  0.0619
 6805SOL    HW326987   2.086   2.050   2.479 -0.8963  1.7299 -1.6891
 6805SOL    MW426988   2.071   2.105   2.545  0.4766  0.1872 -0.2933
 6806SOL     OW26989   4.332   5.963   2.182  0.3621  0.2569  0.3308
 6806SOL    HW226990   4.384   5.887   2.207 -0.0703 -0.1069  0.1475
 6806SOL    HW326991   4.334   5.963   2.086  0.9341  0.8814  0.3389
 6806SOL    MW426992   4.339   5.953   2.172 -0.5214  0.3824  0.5852
 6807SOL     OW26993   4.199   0.104   0.022  0.6715  0.0259 -0.0569
 6807SOL    HW226994   4.187   0.196   0.044 -0.5387 -0.3024  0.7800
 6807SOL    HW326995   4.269   0.104  -0.043  0.9290  1.4969  0.1735
 6807SOL    MW426996   4.207   0.116   0.017  0.1179 -0.0574  0.2207
 6808SOL     OW26997   4.899   2.440   3.450  0.1789 -1.1345  0.1145
 6808SOL    HW226998   4.964   2.473   3.388 -0.6480 -0.0507 -0.2041
 6808SOL    HW326999   4.823   2.418   3.396  0.3942 -2.8307  0.4258
 6808SOL    MW427000   4.897   2.441   3.434  0.0683  0.4280 -0.1987
 6809SOL     OW27001   4.396   0.280   0.878 -0.1226 -0.2255 -0.0697
 6809SOL    HW227002   4.440   0.195   0.887 -1.5078 -0.9756 -0.0449
 6809SOL    HW327003   4.315   0.270   0.927  0.1280  1.4693  0.7449
 6809SOL    MW427004   4.391   0.267   0.886  0.3948 -0.8747  0.4287
 6810SOL     OW27005   1.496   6.223   6.073  0.4034  0.3697  0.2279
 6810SOL    HW227006   1.411   6.265   6.088  0.6600  0.7271  0.7018
 6810SOL    HW327007   1.475   6.129   6.065 -0.0596  0.4795  0.1160
 6810SOL    MW427008   1.482   6.216   6.074  1.0010  0.5071  0.0022
 6811SOL     OW27009   2.026   3.652   1.888 -0.0927  0.3226  0.2180
 6811SOL    HW227010   2.070   3.577   1.848 -0.2727  1.1922 -1.7226
 6811SOL    HW327011   2.095   3.719   1.895 -0.0393  0.1698  1.5272
 6811SOL    MW427012   2.041   3.651   1.884  0.1517  0.2958  0.8247
 6812SOL     OW27013   0.330   1.517   3.445  0.0144 -0.2783  0.2915
 6812SOL    HW227014   0.244   1.537   3.408  0.6602 -0.3627 -1.2979
 6812SOL    HW327015   0.316   1.435   3.493 -0.9471  0.1075  0.7180
 6812SOL    MW427016   0.317   1.509   3.447  0.5269  0.2733  0.6450
 6813SOL     OW27017   5.258   1.659   1.754 -0.1401  0.4703  0.5175
 6813SOL    HW227018   5.292   1.571   1.767 -1.3151 -0.1308 -0.3437
 6813SOL    HW327019   5.336   1.714   1.746  0.6094 -0.5794  0.4888
 6813SOL    MW427020   5.273   1.655   1.754 -0.3831  0.1122 -0.2210
 6814SOL     OW27021   0.106   3.157   0.099  0.0178  0.1712 -0.1798
 6814SOL    HW227022   0.151   3.139   0.017 -0.1011 -0.3102 -0.1412
 6814SOL    HW327023   0.016   3.130   0.083 -0.1334  0.5979 -0.0700
 6814SOL    MW427024   0.100   3.151   0.086 -0.0216  0.2216  0.0519
 6815SOL     OW27025   2.730   1.145   5.934  0.1439 -0.2791  0.3120
 6815SOL    HW227026   2.656   1.174   5.987 -0.4750 -2.0693  0.4896
 6815SOL    HW327027   2.807   1.173   5.984 -0.4241 -0.4466  1.3196
 6815SOL    MW427028   2.730   1.153   5.948  0.7253 -0.5801 -0.4767
 6816SOL     OW27029   2.409   5.585   1.849  0.2298  0.0067  0.1657
 6816SOL    HW227030   2.463   5.656   1.816  0.5571  0.3613  1.4187
 6816SOL    HW327031   2.464   5.539   1.913  1.1347 -3.2399 -2.6289
 6816SOL    MW427032   2.423   5.588   1.853 -0.7365  0.2924  0.2060
 6817SOL     OW27033   2.045   3.274   3.032  0.2613  0.0254  0.0532
 6817SOL    HW227034   2.129   3.238   3.057  0.1850 -0.6001 -0.5791
 6817SOL    HW327035   2.061   3.368   3.023 -0.2843  0.8428  5.0380
 6817SOL    MW427036   2.058   3.282   3.034 -0.0091 -0.5638 -0.0926
 6818SOL     OW27037   2.300   3.938   3.046 -0.4749  0.3513 -0.2280
 6818SOL    HW227038   2.282   4.032   3.035  0.2221  0.5244  0.0472
 6818SOL    HW327039   2.379   3.923   2.994  0.5229  0.3330  1.2336
 6818SOL    MW427040   2.308   3.949   3.038 -0.4371  0.2785  0.9120
 6819SOL     OW27041   2.044   6.366   5.195 -0.3598 -0.2459  0.5632
 6819SOL    HW227042   2.132   6.368   5.158 -0.4268  1.1577  0.4515
 6819SOL    HW327043   2.044   6.434   5.262 -1.1648 -0.6759  1.0161
 6819SOL    MW427044   2.056   6.375   5.199  0.4342  0.3880 -0.1136
 6820SOL     OW27045   3.329   5.287   4.613  0.4141 -0.4173 -0.0215
 6820SOL    HW227046   3.263   5.229   4.649 -1.2154  0.8567 -0.8524
 6820SOL    HW327047   3.302   5.374   4.640  0.8321  0.2802 -1.7325
 6820SOL    MW427048   3.317   5.291   4.621 -0.7666 -0.2710  0.1808
 6821SOL     OW27049   1.301   3.019   4.786 -0.3706  0.0154  0.0497
 6821SOL    HW227050   1.318   2.945   4.727  1.1350  0.2905  0.0934
 6821SOL    HW327051   1.388   3.051   4.809 -0.9888  1.5920  0.3066
 6821SOL    MW427052   1.315   3.013   4.781 -0.0267 -0.2417  0.0712
 6822SOL     OW27053   6.001   3.728   4.950 -0.3548 -0.3336  0.2025
 6822SOL    HW227054   5.982   3.672   4.874  0.0974 -0.7837  0.4186
 6822SOL    HW327055   6.046   3.671   5.011  0.3530  0.3353  0.3256
 6822SOL    MW427056   6.004   3.713   4.948  0.5616 -0.1799 -0.0741
 6823SOL     OW27057   3.775   3.572   0.692 -0.3686  0.3258  0.5092
 6823SOL    HW227058   3.832   3.648   0.683  0.4741 -0.4772 -1.4939
 6823SOL    HW327059   3.687   3.608   0.694  0.0551  1.6717  4.5242
 6823SOL    MW427060   3.771   3.587   0.691 -0.1267  0.3156 -0.6146
 6824SOL     OW27061   2.597   2.736   4.857 -0.0488  0.1045  0.1427
 6824SOL    HW227062   2.526   2.698   4.805 -1.5512  2.6212  0.2235
 6824SOL    HW327063   2.670   2.746   4.796 -1.0947  1.0969 -0.9723
 6824SOL    MW427064   2.597   2.732   4.842 -0.3313  0.0118 -0.0322
 6825SOL     OW27065   0.588   1.227   4.045 -0.0837 -0.4901  0.1248
 6825SOL    HW227066   0.540   1.171   3.984 -0.8262  0.4745 -0.1874
 6825SOL    HW327067   0.555   1.202   4.131 -0.3381 -0.6056 -0.0050
 6825SOL    MW427068   0.578   1.216   4.048  0.1024 -0.1106 -0.0896
 6826SOL     OW27069   4.996   2.309   2.167 -0.1689 -0.4870  0.1567
 6826SOL    HW227070   4.941   2.368   2.116 -0.5245 -1.6081 -0.8086
 6826SOL    HW327071   4.937   2.274   2.234 -0.1721 -0.3758  0.2121
 6826SOL    MW427072   4.981   2.312   2.169 -0.0575  0.1813  0.2581
 6827SOL     OW27073   4.028   2.985   6.361  0.4684 -0.4192 -0.5529
 6827SOL    HW227074   3.934   2.998   6.347  0.2560  3.0200  2.4868
 6827SOL    HW327075   4.068   3.012   6.279 -1.1055  0.7061 -1.0010
 6827SOL    MW427076   4.021   2.990   6.348  0.0932 -0.2294  0.7736
 6828SOL     OW27077   3.947   4.005   4.512 -0.1648 -0.2463  0.0470
 6828SOL    HW227078   3.902   4.072   4.460 -0.4685 -0.7215 -0.3168
 6828SOL    HW327079   3.902   4.005   4.596 -0.6784 -0.5219 -0.2182
 6828SOL    MW427080   3.935   4.014   4.516 -0.1474  0.0493 -0.1868
 6829SOL     OW27081   1.952   2.226   4.406 -0.3814  0.3120  0.3274
 6829SOL    HW227082   1.857   2.235   4.400 -0.2294  0.9405 -1.9224
 6829SOL    HW327083   1.984   2.245   4.318  1.8015 -0.4462  0.8849
 6829SOL    MW427084   1.943   2.230   4.394 -0.8462  0.0706 -0.4323
 6830SOL     OW27085   5.741   5.303   4.012 -0.0778 -0.0493  0.1735
 6830SOL    HW227086   5.792   5.384   4.014 -0.7199  0.3677  0.0802
 6830SOL    HW327087   5.725   5.283   4.105  1.4345 -0.9668  0.2777
 6830SOL    MW427088   5.746   5.311   4.025 -0.9857 -0.5986  0.2880
 6831SOL     OW27089   5.180   3.182   3.572  0.2668  0.2782 -0.1905
 6831SOL    HW227090   5.194   3.264   3.524 -0.2487  1.2415  1.2215
 6831SOL    HW327091   5.098   3.148   3.537  0.0192  0.8363 -0.1699
 6831SOL    MW427092   5.171   3.188   3.561  0.4331  0.3022  1.5676
 6832SOL     OW27093   3.779   2.407   3.306 -0.0289  0.3791  0.4716
 6832SOL    HW227094   3.864   2.449   3.316 -0.3922  1.4220 -0.5968
 6832SOL    HW327095   3.717   2.466   3.350 -0.1976 -0.4675  1.4175
 6832SOL    MW427096   3.782   2.420   3.313  0.1012  0.5715 -0.2630
 6833SOL     OW27097   1.064   2.763   4.584 -0.4726 -0.2379  0.3065
 6833SOL    HW227098   1.044   2.669   4.588  2.6513 -0.9747  2.0506
 6833SOL    HW327099   0.999   2.804   4.641 -2.1465 -1.2062 -0.7986
 6833SOL    MW427100   1.053   2.756   4.592 -0.4292  0.1015 -0.6469
 6834SOL     OW27101   5.979   1.546   6.332  0.6767  0.3630 -0.0629
 6834SOL    HW227102   5.970   1.491   6.410 -1.2638 -0.6679 -0.9201
 6834SOL    HW327103   5.948   1.632   6.360 -1.2895 -0.3166  0.0567
 6834SOL    MW427104   5.973   1.550   6.346  0.0453  0.2727 -0.2503
 6835SOL     OW27105   0.702   4.785   5.251  0.1201 -0.0526  0.1636
 6835SOL    HW227106   0.625   4.830   5.215 -0.6293 -1.6738 -0.3863
 6835SOL    HW327107   0.685   4.693   5.232  2.9645 -0.3512 -1.4536
 6835SOL    MW427108   0.690   4.779   5.244  0.0010 -0.4521  0.1747
 6836SOL     OW27109   2.185   6.310   1.836  0.1268  0.3358  0.0043
 6836SOL    HW227110   2.118   6.280   1.774 -1.7450 -1.9374  2.8858
 6836SOL    HW327111   2.262   6.256   1.816 -0.1252  0.2920 -0.8909
 6836SOL    MW427112   2.186   6.299   1.825 -0.1916  0.1248 -0.0676
 6837SOL     OW27113   1.418   0.482   2.381  0.2495  0.0912 -0.1964
 6837SOL    HW227114   1.412   0.563   2.331  0.5269  0.2641  0.0471
 6837SOL    HW327115   1.404   0.509   2.472  1.3056  0.0231  0.0042
 6837SOL    MW427116   1.415   0.496   2.387  0.8381  0.1662  0.3145
 6838SOL     OW27117   2.258   2.653   5.415 -0.0436 -0.3392  0.0767
 6838SOL    HW227118   2.317   2.727   5.403 -0.3810  0.0463  0.7736
 6838SOL    HW327119   2.170   2.690   5.411 -0.2181 -0.3567  2.3428
 6838SOL    MW427120   2.254   2.667   5.413 -0.2130 -0.2765 -0.2542
 6839SOL     OW27121   2.330   3.176   1.847  0.3774  0.0840 -0.3509
 6839SOL    HW227122   2.380   3.182   1.766 -0.8148 -0.2284 -1.1392
 6839SOL    HW327123   2.274   3.099   1.835 -0.1521  0.3074  0.5801
 6839SOL    MW427124   2.329   3.167   1.835  1.1160  0.1310 -0.0629
 6840SOL     OW27125   3.340   3.472   3.221 -0.0305  0.2119 -0.5404
 6840SOL    HW227126   3.414   3.533   3.228 -0.2112  0.3805 -0.0423
 6840SOL    HW327127   3.367   3.409   3.155  0.6902  0.1017 -0.1502
 6840SOL    MW427128   3.353   3.472   3.213 -0.1104  0.3102 -0.1049
 6841SOL     OW27129   5.005   5.520   1.740 -0.5221 -0.2184 -0.1787
 6841SOL    HW227130   5.076   5.548   1.798 -0.5306  1.8494 -1.0786
 6841SOL    HW327131   5.047   5.464   1.675 -0.2376 -1.2773  0.8901
 6841SOL    MW427132   5.020   5.517   1.739  0.2923 -0.5793  0.2303
 6842SOL     OW27133   5.013   2.216   0.532 -0.2507  0.2235 -0.7867
 6842SOL    HW227134   5.093   2.164   0.526 -1.7381 -2.2598 -0.5846
 6842SOL    HW327135   5.018   2.257   0.618 -1.2386 -3.7862  1.4492
 6842SOL    MW427136   5.024   2.215   0.542  0.0688  0.2033 -0.3446
 6843SOL     OW27137   2.382   3.965   0.831 -0.2240 -0.0526 -0.3558
 6843SOL    HW227138   2.385   3.874   0.861  1.2227 -0.0011 -0.2631
 6843SOL    HW327139   2.336   4.012   0.900 -1.4394 -0.7775 -0.6365
 6843SOL    MW427140   2.376   3.959   0.844 -0.5320  0.6525  0.1786
 6844SOL     OW27141   4.867   4.757   0.650  0.3702 -0.0087 -0.1564
 6844SOL    HW227142   4.845   4.675   0.693 -0.2626  1.0932  1.7626
 6844SOL    HW327143   4.785   4.786   0.610  0.7575 -0.6195 -1.4339
 6844SOL    MW427144   4.853   4.750   0.650 -0.6006 -0.3734  0.1138
 6845SOL     OW27145   0.792   1.998   4.422 -0.1775  0.2156  0.5728
 6845SOL    HW227146   0.727   2.037   4.364  0.3272 -1.3388 -1.1182
 6845SOL    HW327147   0.807   2.065   4.489  0.0028  2.5596 -1.6574
 6845SOL    MW427148   0.785   2.012   4.423  0.0570 -0.2465 -0.0074
 6846SOL     OW27149   1.274   2.374   4.187  0.1502  0.2120  0.0695
 6846SOL    HW227150   1.185   2.407   4.176  0.5138  2.1130  2.1182
 6846SOL    HW327151   1.318   2.395   4.105 -1.0542 -0.0721 -0.6756
 6846SOL    MW427152   1.268   2.381   4.175  0.5391  0.2711 -0.2095
 6847SOL     OW27153   1.527   4.035   0.217 -0.1503 -0.1359 -0.4135
 6847SOL    HW227154   1.557   3.994   0.298 -2.8376  0.1029  0.8001
 6847SOL    HW327155   1.551   3.973   0.149 -0.6551 -1.9045  0.9375
 6847SOL    MW427156   1.535   4.022   0.219  0.3473  0.5988  0.1564
 6848SOL     OW27157   5.820   1.236   2.094 -0.6239  0.6356  0.5851
 6848SOL    HW227158   5.905   1.197   2.072 -0.6843  1.4087 -1.1742
 6848SOL    HW327159   5.804   1.298   2.024 -1.8458  1.7902  1.8438
 6848SOL    MW427160   5.829   1.239   2.082 -0.1455 -0.3975 -0.3007
 6849SOL     OW27161   3.000   1.479   1.382  0.1336 -0.1108 -0.2029
 6849SOL    HW227162   2.915   1.441   1.404  0.1974 -0.3811 -0.4165
 6849SOL    HW327163   2.983   1.528   1.301 -0.2553  1.4379  0.7781
 6849SOL    MW427164   2.986   1.481   1.374  0.3066 -0.3210  0.2782
 6850SOL     OW27165   4.081   6.375   4.432  0.3750  0.8774  0.0813
 6850SOL    HW227166   4.054   6.395   4.522 -0.5085  0.4429 -0.0776
 6850SOL    HW327167   4.001   6.387   4.380  0.3353 -0.9776 -0.3280
 6850SOL    MW427168   4.067   6.379   4.437 -0.2130 -0.1504  0.3693
 6851SOL     OW27169   5.291   3.927   2.151  0.3668 -0.3391  0.2307
 6851SOL    HW227170   5.235   4.002   2.173  0.0150 -0.4217 -0.3620
 6851SOL    HW327171   5.363   3.964   2.101 -0.1942 -0.4845 -0.7010
 6851SOL    MW427172   5.293   3.942   2.147 -0.1486  0.2943  0.1273
 6852SOL     OW27173   0.523   2.657   1.490 -0.1199  0.4473 -0.2601
 6852SOL    HW227174   0.574   2.649   1.410 -0.5963 -1.5951 -0.4048
 6852SOL    HW327175   0.584   2.692   1.554  1.5988 -2.1544 -0.3562
 6852SOL    MW427176   0.538   2.661   1.488 -0.2892  0.2764 -0.2004
 6853SOL     OW27177   3.465   4.449   6.192  0.0184 -0.0390  0.1669
 6853SOL    HW227178   3.557   4.473   6.184  0.0159 -0.4027 -1.2995
 6853SOL    HW327179   3.466   4.353   6.201 -0.2036 -0.0147  0.4685
 6853SOL    MW427180   3.477   4.439   6.192  0.0591  0.2963  0.2707
 6854SOL     OW27181   1.590   3.319   3.783  0.1934 -0.0371  0.5302
 6854SOL    HW227182   1.527   3.248   3.797  0.1910 -0.2488 -0.4239
 6854SOL    HW327183   1.670   3.274   3.757 -0.1961  0.3210 -1.4827
 6854SOL    MW427184   1.592   3.303   3.781 -0.4070 -0.5009  0.6900
 6855SOL     OW27185   5.717   2.272   4.848 -0.1148 -0.0382  0.1667
 6855SOL    HW227186   5.662   2.193   4.854  1.7803 -1.5765 -1.1662
 6855SOL    HW327187   5.798   2.248   4.894  0.9846  0.6397 -1.3214
 6855SOL    MW427188   5.720   2.258   4.855  0.6654  0.2737 -0.3654
 6856SOL     OW27189   0.696   2.892   5.605  0.2936  0.4622 -0.6240
 6856SOL    HW227190   0.775   2.852   5.569  0.1639  0.2777 -0.7070
 6856SOL    HW327191   0.661   2.826   5.664  0.9866  1.0999  0.5372
 6856SOL    MW427192   0.702   2.878   5.608  0.1726 -0.0280 -0.2396
 6857SOL     OW27193   1.988   2.115   3.549 -0.0623  0.0217 -0.3403
 6857SOL    HW227194   1.978   2.026   3.583  0.3048  0.3053  0.5341
 6857SOL    HW327195   2.082   2.124   3.533 -0.2186 -0.0788 -1.3717
 6857SOL    MW427196   1.999   2.104   3.551  0.4553  0.2313 -0.2205
 6858SOL     OW27197   1.826   3.718   4.422 -0.4275  0.3480  0.0956
 6858SOL    HW227198   1.767   3.731   4.496 -0.9119 -0.7885 -0.0734
 6858SOL    HW327199   1.866   3.633   4.439 -0.1684  0.3081 -0.7000
 6858SOL    MW427200   1.824   3.709   4.434 -0.6794  0.4510  0.4410
 6859SOL     OW27201   6.144   5.462   5.933  0.5956  0.0854  0.2494
 6859SOL    HW227202   6.161   5.547   5.974 -0.0177  1.3490 -1.9522
 6859SOL    HW327203   6.049   5.456   5.929  0.6394 -0.1164 -0.7102
 6859SOL    MW427204   6.134   5.473   5.938  0.3926  0.0574 -0.3105
 6860SOL     OW27205   2.596   5.296   3.744 -0.0091 -0.5339  0.1062
 6860SOL    HW227206   2.623   5.388   3.746 -0.8547 -0.2609 -0.4877
 6860SOL    HW327207   2.677   5.247   3.761  0.7360  0.2788 -0.9349
 6860SOL    MW427208   2.611   5.302   3.747 -0.3539  0.2133  0.6868
 6861SOL     OW27209   3.359   1.252   5.399 -0.4217 -0.0021  0.0319
 6861SOL    HW227210   3.380   1.304   5.321  1.5388 -1.3711 -0.4275
 6861SOL    HW327211   3.266   1.230   5.389 -0.1173 -0.4960 -2.1584
 6861SOL    MW427212   3.349   1.256   5.387 -0.4702  0.7296  0.1043
 6862SOL     OW27213   6.150   0.692   4.802  0.1364  0.0848  0.5000
 6862SOL    HW227214   6.229   0.738   4.831  0.5184 -0.4729  0.3664
 6862SOL    HW327215   6.181   0.631   4.735 -0.3257 -0.5151  0.8205
 6862SOL    MW427216   6.164   0.690   4.797 -0.6066 -0.2813 -0.3303
 6863SOL     OW27217   4.855   1.797   0.767 -0.7967 -0.6969 -0.0418
 6863SOL    HW227218   4.771   1.767   0.732 -0.2683 -3.0202  0.4780
 6863SOL    HW327219   4.899   1.837   0.693 -1.7890 -0.7598 -0.6869
 6863SOL    MW427220   4.850   1.798   0.753  0.0418  0.9442  0.1693
 6864SOL     OW27221   5.653   1.957   0.873 -0.3432 -0.3201  0.0716
 6864SOL    HW227222   5.745   1.934   0.876 -0.4025 -0.5011  0.8627
 6864SOL    HW327223   5.652   2.050   0.850  0.0120 -0.4137 -0.3285
 6864SOL    MW427224   5.665   1.966   0.871  0.1299  0.8838 -0.3328
 6865SOL     OW27225   5.149   0.915   2.880 -0.0856  0.2717  0.2088
 6865SOL    HW227226   5.161   1.009   2.870 -2.8600  0.9870  2.2226
 6865SOL    HW327227   5.233   0.883   2.910  1.2987  1.8262 -1.7375
 6865SOL    MW427228   5.161   0.923   2.883 -0.6141 -0.4805 -0.1064
 6866SOL     OW27229   5.427   4.980   5.075  0.0131  0.1806 -0.2865
 6866SOL    HW227230   5.414   4.967   5.169 -0.9911  1.8738 -0.1436
 6866SOL    HW327231   5.494   5.048   5.070  0.1535  0.0056 -0.8183
 6866SOL    MW427232   5.434   4.987   5.087 -0.3833  0.2873  0.1681
 6867SOL     OW27233   1.358   3.059   1.811 -0.1880  0.5924  0.0380
 6867SOL    HW227234   1.294   3.003   1.855 -0.9436  1.2022 -0.2702
 6867SOL    HW327235   1.332   3.056   1.719 -0.4510  1.7352  0.0712
 6867SOL    MW427236   1.346   3.051   1.804 -0.3695 -0.2431  1.4260
 6868SOL     OW27237   4.712   6.245   6.046 -0.2620  0.6102  0.5409
 6868SOL    HW227238   4.656   6.274   5.974  1.3659 -0.0010 -1.0355
 6868SOL    HW327239   4.726   6.152   6.030  0.9823  0.6989  1.0479
 6868SOL    MW427240   4.706   6.237   6.035 -0.1931 -0.2355  0.3222
 6869SOL     OW27241   3.748   1.061   5.098 -0.3137 -0.1031 -0.5722
 6869SOL    HW227242   3.699   1.134   5.137 -0.6462 -0.9956  0.7216
 6869SOL    HW327243   3.807   1.032   5.167 -1.3440 -2.1259 -0.4809
 6869SOL    MW427244   3.750   1.067   5.112 -0.2181  0.0187  0.3461
 6870SOL     OW27245   4.055   1.939   3.176  0.2916 -0.4534  0.3712
 6870SOL    HW227246   3.992   1.885   3.223 -0.0084 -0.0514  0.4473
 6870SOL    HW327247   4.032   1.928   3.084 -0.5482  0.4697  0.4553
 6870SOL    MW427248   4.044   1.931   3.170  0.2818 -0.0191 -0.7860
 6871SOL     OW27249   3.054   3.153   1.648  0.1971 -0.2077 -0.4419
 6871SOL    HW227250   2.966   3.146   1.612 -0.0420  0.5525 -0.0147
 6871SOL    HW327251   3.057   3.240   1.688 -0.5878 -1.9805  4.1069
 6871SOL    MW427252   3.043   3.164   1.648  0.3800  0.1876  0.1202
 6872SOL     OW27253   4.623   1.281   3.895  0.0798  0.5698  0.2325
 6872SOL    HW227254   4.675   1.328   3.961  0.5232 -0.2586  0.4931
 6872SOL    HW327255   4.671   1.199   3.882 -1.7684 -0.7565  1.3475
 6872SOL    MW427256   4.636   1.277   3.902  0.6334 -0.3235  0.4432
 6873SOL     OW27257   5.621   5.553   0.841  0.0219 -0.0499 -0.1098
 6873SOL    HW227258   5.639   5.517   0.753  2.1984  0.7158 -0.0374
 6873SOL    HW327259   5.573   5.634   0.824  0.5614  0.1724 -0.6099
 6873SOL    MW427260   5.617   5.559   0.827 -0.2007 -0.3791 -0.8025
 6874SOL     OW27261   5.568   1.494   4.427  0.2613  0.2194  0.3905
 6874SOL    HW227262   5.500   1.558   4.405  0.8486 -0.1772 -3.1779
 6874SOL    HW327263   5.524   1.409   4.422  0.0506  0.1428  2.6623
 6874SOL    MW427264   5.553   1.491   4.423  0.3172  0.3491  0.2823
 6875SOL     OW27265   5.496   6.044   0.713  0.3137 -0.2988 -0.2187
 6875SOL    HW227266   5.556   6.107   0.673  0.9569 -0.8818 -0.2088
 6875SOL    HW327267   5.409   6.073   0.687  0.5376  1.0452  0.4616
 6875SOL    MW427268   5.493   6.056   0.704 -0.6991  0.1830 -0.4019
 6876SOL     OW27269   2.583   2.848   0.636  0.1900 -0.2123 -0.2159
 6876SOL    HW227270   2.546   2.781   0.694  0.4899  0.0711  0.3189
 6876SOL    HW327271   2.554   2.931   0.675 -0.4266 -0.0300 -1.0413
 6876SOL    MW427272   2.574   2.850   0.649  0.4015 -0.2324 -0.3220
 6877SOL     OW27273   3.918   0.457   5.945 -0.2391 -0.1884 -0.2854
 6877SOL    HW227274   3.881   0.504   5.871  0.3823 -0.5632 -0.8498
 6877SOL    HW327275   4.007   0.490   5.952  0.4035 -1.6464 -1.0593
 6877SOL    MW427276   3.925   0.467   5.936 -0.1900  0.4230  0.8674
 6878SOL     OW27277   4.871   0.819   5.600 -0.0788 -0.2192 -0.2568
 6878SOL    HW227278   4.951   0.767   5.606 -0.4530 -1.0593 -1.8493
 6878SOL    HW327279   4.808   0.761   5.558 -1.8754  0.0773  1.8646
 6878SOL    MW427280   4.873   0.804   5.595  0.0498 -0.0755  0.4207
 6879SOL     OW27281   1.489   2.793   1.081  0.4426 -0.2954 -0.3414
 6879SOL    HW227282   1.537   2.800   1.163 -1.9517 -0.3378  1.1817
 6879SOL    HW327283   1.415   2.735   1.102 -1.1965  1.0665 -2.0221
 6879SOL    MW427284   1.485   2.786   1.095  0.2286 -0.0707  0.3431
 6880SOL     OW27285   0.017   6.061   1.354 -0.3560  0.1440  0.0579
 6880SOL    HW227286   0.103   6.038   1.390 -0.2946  1.3909  0.7696
 6880SOL    HW327287   0.036   6.116   1.278 -0.4410  2.9749  1.9229
 6880SOL    MW427288   0.031   6.065   1.349 -0.0170  0.1347 -0.6245
 6881SOL     OW27289   0.018   3.900   3.260  0.4275  0.5960  0.4096
 6881SOL    HW227290  -0.030   3.955   3.323  0.6942 -0.7502  1.8226
 6881SOL    HW327291  -0.031   3.818   3.258  1.2148  0.1318 -0.1208
 6881SOL    MW427292   0.005   3.897   3.268 -0.3053 -0.1253  0.0247
 6882SOL     OW27293   4.782   0.851   2.253 -0.0837  0.4825 -0.0010
 6882SOL    HW227294   4.821   0.915   2.312 -1.6516  0.7312  0.8157
 6882SOL    HW327295   4.836   0.772   2.264  0.2439  0.8313  1.0022
 6882SOL    MW427296   4.795   0.849   2.262  0.4077 -0.1734 -0.3096
 6883SOL     OW27297   4.167   0.600   2.968  0.6598 -0.7047 -0.0618
 6883SOL    HW227298   4.082   0.645   2.972  0.2964 -1.1390 -1.9163
 6883SOL    HW327299   4.230   0.665   2.998  0.0627  0.8874 -2.0217
 6883SOL    MW427300   4.164   0.614   2.972 -0.8049  0.0250 -0.1603
 6884SOL     OW27301   3.763   4.296   6.272  0.7976 -0.0711  0.9527
 6884SOL    HW227302   3.773   4.334   6.359 -1.1291 -0.6974  1.5028
 6884SOL    HW327303   3.784   4.203   6.284  3.2278  0.2956  0.1060
 6884SOL    MW427304   3.767   4.288   6.285  0.4506  0.0577  0.1267
 6885SOL     OW27305   1.823   1.288   5.559 -0.1274  0.3440  0.2639
 6885SOL    HW227306   1.870   1.326   5.634  0.9527 -2.8963  1.4290
 6885SOL    HW327307   1.889   1.285   5.489 -0.2241  0.6244  0.1597
 6885SOL    MW427308   1.838   1.292   5.560  0.3961  0.0460  0.2871
 6886SOL     OW27309   2.721   1.531   0.244 -0.0645 -0.0896  0.5208
 6886SOL    HW227310   2.686   1.499   0.161 -0.8866  0.5723  0.6034
 6886SOL    HW327311   2.705   1.459   0.306  1.4083 -0.9732 -0.0750
 6886SOL    MW427312   2.714   1.517   0.241 -0.0996 -0.1742  0.0850
 6887SOL     OW27313   4.767   1.845   5.858 -0.1508 -0.4698  0.1254
 6887SOL    HW227314   4.712   1.779   5.815  0.3894 -1.2748  0.6338
 6887SOL    HW327315   4.825   1.877   5.789  0.0030 -0.9880  0.0098
 6887SOL    MW427316   4.768   1.840   5.843 -0.2165 -0.4405  0.7808
 6888SOL     OW27317   2.151   1.719   1.600 -0.7925 -0.0397  0.1090
 6888SOL    HW227318   2.220   1.748   1.661 -1.8870  0.9416  0.9261
 6888SOL    HW327319   2.197   1.706   1.517  0.7139 -1.2198  1.0667
 6888SOL    MW427320   2.166   1.721   1.597  0.0042  0.5980  0.0665
 6889SOL     OW27321   4.519   4.547   2.646 -0.2253  0.0267 -0.1661
 6889SOL    HW227322   4.532   4.452   2.640 -0.6660  0.0310 -1.3423
 6889SOL    HW327323   4.474   4.559   2.730  3.0721 -0.4029  1.8565
 6889SOL    MW427324   4.515   4.536   2.656  0.2147  0.1268 -0.4982
 6890SOL     OW27325   3.874   4.126   5.105  0.3803 -0.1247  0.1677
 6890SOL    HW227326   3.892   4.047   5.054 -0.0154 -0.1711  0.0918
 6890SOL    HW327327   3.799   4.165   5.061  1.4731  1.0870 -0.6872
 6890SOL    MW427328   3.866   4.120   5.092 -0.3784 -0.3477  0.1192
 6891SOL     OW27329   1.939   3.276   5.641  0.2044  0.1969  0.2156
 6891SOL    HW227330   1.912   3.305   5.728 -1.0220 -2.0365  0.6599
 6891SOL    HW327331   1.889   3.331   5.580 -0.7890  0.1716  0.9797
 6891SOL    MW427332   1.929   3.287   5.644 -0.2257 -0.0043 -0.4755
 6892SOL     OW27333   6.060   3.453   2.499  0.7035  0.2854 -0.2155
 6892SOL    HW227334   6.037   3.537   2.461 -0.8966  0.8286  1.7864
 6892SOL    HW327335   6.031   3.458   2.590 -0.3489 -2.7499 -0.2385
 6892SOL    MW427336   6.053   3.464   2.506 -0.4869 -0.2085 -0.2854
 6893SOL     OW27337   4.104   2.454   1.896  0.1789  0.1746 -0.9654
 6893SOL    HW227338   4.022   2.503   1.891 -0.2208 -0.4468 -0.5639
 6893SOL    HW327339   4.082   2.373   1.942  1.1565  0.2944 -0.2471
 6893SOL    MW427340   4.090   2.450   1.901  0.3569  0.5182 -0.1070
 6894SOL     OW27341   5.315   0.259   3.541  0.4024 -0.0787  0.2320
 6894SOL    HW227342   5.254   0.204   3.590 -0.3748  1.7377  1.4469
 6894SOL    HW327343   5.333   0.333   3.600  0.9324  1.2472 -1.4937
 6894SOL    MW427344   5.309   0.262   3.556  0.4742 -0.1144  0.2434
 6895SOL     OW27345   3.333   4.578   2.344  0.4052  0.3573  0.5697
 6895SOL    HW227346   3.319   4.671   2.358  0.0079  0.4500 -0.3991
 6895SOL    HW327347   3.245   4.541   2.333  0.6027  0.0072  0.1276
 6895SOL    MW427348   3.320   4.585   2.344  0.0551 -0.2284  0.7238
 6896SOL     OW27349   5.723   0.047   2.647 -0.4017 -0.2492  0.3958
 6896SOL    HW227350   5.739   0.002   2.565 -0.6811  0.1786  0.1039
 6896SOL    HW327351   5.638   0.091   2.635 -0.6084 -0.4542  1.0266
 6896SOL    MW427352   5.714   0.047   2.635 -0.1534  0.0044 -0.7543
 6897SOL     OW27353   0.109   5.380   3.998 -0.1441  0.2947 -0.1194
 6897SOL    HW227354   0.025   5.337   4.012 -0.2982  0.5554 -0.2369
 6897SOL    HW327355   0.110   5.451   4.061 -1.6600  2.6763 -2.5639
 6897SOL    MW427356   0.098   5.384   4.008  0.0438  0.2767  0.1091
 6898SOL     OW27357   4.301   4.385   2.917  0.1393  0.1849 -0.1694
 6898SOL    HW227358   4.253   4.316   2.964  0.0225 -0.1530 -0.7814
 6898SOL    HW327359   4.234   4.452   2.900  0.1854  0.3151  0.1575
 6898SOL    MW427360   4.286   4.385   2.921  0.7808  0.1622 -0.2145
 6899SOL     OW27361   0.953   2.794   5.518  0.3102 -0.1004  0.4151
 6899SOL    HW227362   1.024   2.800   5.582 -0.1807 -2.8917  1.3734
 6899SOL    HW327363   0.988   2.738   5.449  0.4748  2.0550 -1.3561
 6899SOL    MW427364   0.967   2.788   5.517 -0.0867 -0.0118 -0.6256
 6900SOL     OW27365   1.386   2.742   5.721 -0.0102 -0.0697 -0.1611
 6900SOL    HW227366   1.340   2.670   5.677 -1.8250  1.8870 -1.6693
 6900SOL    HW327367   1.321   2.812   5.726  2.1998  2.1153 -0.3845
 6900SOL    MW427368   1.371   2.742   5.716  0.8649 -0.0744  0.6155
 6901SOL     OW27369   2.312   5.594   5.637 -0.1364  0.5756 -0.6313
 6901SOL    HW227370   2.322   5.624   5.727 -0.9409 -1.2056  0.1122
 6901SOL    HW327371   2.396   5.553   5.616 -0.1454  0.4679 -0.4644
 6901SOL    MW427372   2.324   5.593   5.646 -0.4508  0.2977 -0.1487
 6902SOL     OW27373   5.831   2.842   3.498  0.2765 -0.2862 -0.6625
 6902SOL    HW227374   5.858   2.933   3.503 -0.8507  0.0909 -1.3193
 6902SOL    HW327375   5.819   2.824   3.405 -0.9566 -0.6517 -0.4590
 6902SOL    MW427376   5.833   2.851   3.487 -0.1997  0.2240  0.1628
 6903SOL     OW27377   1.770   2.521   4.102 -0.0584 -0.1120 -0.4390
 6903SOL    HW227378   1.857   2.560   4.108 -0.9787  1.8711  3.0404
 6903SOL    HW327379   1.786   2.429   4.082  2.7844  0.3030 -0.4740
 6903SOL    MW427380   1.783   2.514   4.100  0.3063  0.2664  0.5472
 6904SOL     OW27381   2.031   0.096   3.944 -0.5802  0.3588 -0.3618
 6904SOL    HW227382   2.117   0.062   3.921 -0.4120 -0.1244  0.9221
 6904SOL    HW327383   1.971   0.048   3.886 -0.2675 -1.6058  0.8712
 6904SOL    MW427384   2.034   0.085   3.933  0.0825  0.5812  0.2278
 6905SOL     OW27385   1.216   5.949   3.574 -0.5349 -0.0881  0.6995
 6905SOL    HW227386   1.191   6.040   3.592  0.3122  0.1809  0.5868
 6905SOL    HW327387   1.165   5.925   3.497 -1.3350  0.0309  1.1876
 6905SOL    MW427388   1.206   5.958   3.566 -0.6761  0.0300  0.1911
 6906SOL     OW27389   0.617   3.417   3.175 -0.5049  0.0372 -0.3308
 6906SOL    HW227390   0.567   3.348   3.218  1.9676 -2.0165 -0.5326
 6906SOL    HW327391   0.650   3.471   3.247 -0.3712 -0.4928  0.0105
 6906SOL    MW427392   0.615   3.415   3.190  0.3252  0.9517  0.0166
 6907SOL     OW27393   0.275   0.246   0.591 -0.2827  0.5390 -0.1057
 6907SOL    HW227394   0.255   0.340   0.594  0.4117  0.7183 -0.8920
 6907SOL    HW327395   0.218   0.212   0.522  1.2456  0.8496 -1.5673
 6907SOL    MW427396   0.265   0.254   0.582 -0.3188 -0.3004  0.2157
 6908SOL     OW27397   4.921   6.068   1.971  0.3012 -0.0559 -0.6103
 6908SOL    HW227398   4.952   6.001   1.910 -0.1009 -0.8267  0.0134
 6908SOL    HW327399   4.880   6.134   1.915  0.3132 -0.5404 -1.2049
 6908SOL    MW427400   4.919   6.068   1.955  0.1890 -0.5570 -0.4879
 6909SOL     OW27401   4.303   5.263   5.878 -0.2669 -0.3944 -0.3415
 6909SOL    HW227402   4.257   5.219   5.950 -0.0151  1.3312  0.9376
 6909SOL    HW327403   4.234   5.288   5.817 -0.5094 -1.6304 -0.6130
 6909SOL    MW427404   4.288   5.260   5.879  0.1920 -0.1045 -0.2387
 6910SOL     OW27405   6.149   2.789   5.524  0.2924  0.8127 -0.1277
 6910SOL    HW227406   6.063   2.808   5.487 -0.2368  0.5817  0.9355
 6910SOL    HW327407   6.204   2.769   5.449 -0.6386  0.7589 -0.8082
 6910SOL    MW427408   6.145   2.789   5.509 -0.3410  0.2604 -0.2894
 6911SOL     OW27409   2.117   3.625   3.265  0.0333 -0.1698 -0.5987
 6911SOL    HW227410   2.054   3.555   3.284 -0.9983  0.3112 -2.0726
 6911SOL    HW327411   2.109   3.685   3.339  1.2417 -1.7688  0.9098
 6911SOL    MW427412   2.107   3.624   3.278 -0.1644  0.0255  0.0226
 6912SOL     OW27413   2.647   1.846   6.046  0.0680 -0.0812  0.5898
 6912SOL    HW227414   2.711   1.823   6.113  0.8587  0.5130  0.0570
 6912SOL    HW327415   2.698   1.849   5.965 -1.1289 -2.2987 -0.3365
 6912SOL    MW427416   2.662   1.843   6.044  0.2716  0.6986  0.3695
 6913SOL     OW27417   5.001   1.613   3.954 -0.5563  0.0512  0.2109
 6913SOL    HW227418   5.058   1.555   3.904  0.2757  0.8551  0.2050
 6913SOL    HW327419   4.987   1.689   3.897  1.1817  1.4325  1.4755
 6913SOL    MW427420   5.007   1.616   3.940  0.1967  0.4579  0.8335
 6914SOL     OW27421   3.671   0.000   1.350  0.2789 -0.3496  0.4255
 6914SOL    HW227422   3.714   0.001   1.436  0.9982  0.2459  0.0781
 6914SOL    HW327423   3.681  -0.090   1.319 -0.8902 -0.8370  1.3885
 6914SOL    MW427424   3.678  -0.012   1.357  0.0843  0.3264 -0.1689
 6915SOL     OW27425   5.257   4.679   2.055  0.5056  0.0023 -0.3306
 6915SOL    HW227426   5.306   4.759   2.071  0.0650  0.0679  0.7290
 6915SOL    HW327427   5.259   4.668   1.960  0.4898  1.3171 -0.4933
 6915SOL    MW427428   5.263   4.688   2.044 -0.0845 -0.0324  0.1636
 6916SOL     OW27429   2.851   4.505   5.422  0.0615 -0.0811 -0.3885
 6916SOL    HW227430   2.798   4.533   5.497  1.4228  1.0146  0.2151
 6916SOL    HW327431   2.827   4.413   5.409  1.1125 -0.9028  2.6371
 6916SOL    MW427432   2.841   4.496   5.430 -0.4024  0.0155 -0.1464
 6917SOL     OW27433   5.897   1.803   4.642 -0.1089  0.1875 -0.1319
 6917SOL    HW227434   5.885   1.778   4.734  0.9978  1.3455  0.3641
 6917SOL    HW327435   5.860   1.892   4.637 -2.3495 -0.7387 -1.4090
 6917SOL    MW427436   5.891   1.812   4.654  0.1618 -0.6535 -0.5425
 6918SOL     OW27437   5.081   3.350   3.912  0.0805  0.5558 -0.3564
 6918SOL    HW227438   4.992   3.325   3.938  0.4104  1.9137  2.4152
 6918SOL    HW327439   5.124   3.268   3.891 -1.7493 -0.1446 -1.6124
 6918SOL    MW427440   5.075   3.336   3.913  0.1196  0.1741 -0.1072
 6919SOL     OW27441   0.931   3.299   4.403 -0.5907  0.0828  0.0659
 6919SOL    HW227442   0.936   3.391   4.431 -0.5579 -0.3046  1.4255
 6919SOL    HW327443   1.023   3.272   4.393 -0.5208 -0.2872  1.4558
 6919SOL    MW427444   0.944   3.308   4.406  0.2186  0.1292  0.7060
 6920SOL     OW27445   0.122   3.326   2.129 -0.1120 -0.2953  0.2130
 6920SOL    HW227446   0.085   3.298   2.213  0.9290 -0.0863  0.7606
 6920SOL    HW327447   0.216   3.310   2.138  0.2294  1.2493 -0.2897
 6920SOL    MW427448   0.130   3.321   2.142  0.2956 -0.6815  0.3964
 6921SOL     OW27449   5.446   2.187   2.605  0.0392  0.0846 -0.3726
 6921SOL    HW227450   5.531   2.165   2.642 -0.0948 -0.0268 -0.1266
 6921SOL    HW327451   5.461   2.194   2.511  0.9014  2.7195 -0.1188
 6921SOL    MW427452   5.459   2.185   2.598 -0.1711  0.2878  0.7605
 6922SOL     OW27453   0.201   3.102   2.618  0.2076 -0.5286  0.2202
 6922SOL    HW227454   0.275   3.045   2.597  0.9189  1.1146 -2.1857
 6922SOL    HW327455   0.163   3.123   2.533  0.0885  2.6552  0.9341
 6922SOL    MW427456   0.206   3.097   2.604 -0.1500 -0.7197  0.1366
 6923SOL     OW27457   4.731   5.976   0.561 -0.2011  0.1297  0.0989
 6923SOL    HW227458   4.766   5.990   0.649 -0.9271  0.3861  0.3566
 6923SOL    HW327459   4.782   6.035   0.505  0.9240 -0.7415  0.1772
 6923SOL    MW427460   4.743   5.986   0.565  0.0673 -0.3218  0.0289
 6924SOL     OW27461   0.405   1.820   3.496 -0.0294  0.7149  0.1920
 6924SOL    HW227462   0.426   1.782   3.581  1.0811  0.5557 -0.1386
 6924SOL    HW327463   0.318   1.787   3.476  0.5839 -1.0503  0.2710
 6924SOL    MW427464   0.396   1.811   3.504 -0.6089 -0.1302 -0.1291
 6925SOL     OW27465   3.998   4.966   3.511 -0.1733  0.0732 -0.4394
 6925SOL    HW227466   3.912   4.928   3.495  0.5322 -1.0046 -1.8019
 6925SOL    HW327467   4.014   5.023   3.436 -0.2463  1.3606  0.4788
 6925SOL    MW427468   3.989   4.968   3.499 -0.1220 -0.2451  0.0789
 6926SOL     OW27469   1.949   3.822   2.888 -0.1543 -0.4104 -0.0262
 6926SOL    HW227470   2.037   3.786   2.903 -0.4771 -1.5793 -0.8181
 6926SOL    HW327471   1.949   3.848   2.796 -0.4899  0.0173  0.0945
 6926SOL    MW427472   1.961   3.821   2.878 -0.2887 -0.3143 -0.2549
 6927SOL     OW27473   2.643   3.778   1.893 -0.2168  0.1390  0.7034
 6927SOL    HW227474   2.613   3.812   1.978 -1.6512  0.2856  0.1695
 6927SOL    HW327475   2.701   3.845   1.859 -2.6585  1.9703 -0.1417
 6927SOL    MW427476   2.647   3.791   1.900 -0.8804 -0.2356  0.0682
 6928SOL     OW27477   3.606   2.568   0.200 -0.0921  0.2665 -0.1249
 6928SOL    HW227478   3.510   2.565   0.195 -0.2454  2.2873  0.6085
 6928SOL    HW327479   3.631   2.633   0.134  0.8080 -0.4831 -0.5343
 6928SOL    MW427480   3.596   2.577   0.191  0.5023  0.2847 -0.0596
 6929SOL     OW27481   3.150   2.897   3.919 -0.7601 -0.1706 -0.4024
 6929SOL    HW227482   3.188   2.963   3.977 -0.6194 -0.5338 -0.0752
 6929SOL    HW327483   3.158   2.934   3.832  1.8068 -0.8922 -0.5336
 6929SOL    MW427484   3.156   2.911   3.915 -0.2234 -0.4271  0.9114
 6930SOL     OW27485   2.008   2.168   0.856  0.5169  0.4045 -0.4807
 6930SOL    HW227486   2.073   2.103   0.883 -0.9685 -0.8660  0.1087
 6930SOL    HW327487   1.970   2.133   0.776 -0.9475  0.0652  0.3388
 6930SOL    MW427488   2.012   2.155   0.849 -0.0774 -0.4234 -0.0478
 6931SOL     OW27489   1.287   1.859   2.265  0.1467  0.3226 -0.0431
 6931SOL    HW227490   1.371   1.816   2.279 -0.1403 -0.1403  0.2834
 6931SOL    HW327491   1.272   1.911   2.344 -0.2767 -0.2743  0.2698
 6931SOL    MW427492   1.296   1.861   2.277  0.2147  0.0858 -0.5750
 6932SOL     OW27493   2.382   1.273   3.093  0.0506 -0.5814 -0.3655
 6932SOL    HW227494   2.347   1.235   3.174 -2.3572 -2.7193 -2.2347
 6932SOL    HW327495   2.425   1.200   3.049  1.3238  0.5460 -1.0575
 6932SOL    MW427496   2.383   1.258   3.098  0.1943 -0.2678  0.1587
 6933SOL     OW27497   6.297   5.937   3.993 -0.1252  0.1187  0.1801
 6933SOL    HW227498   6.232   5.967   3.930 -1.0728  1.0934  1.5744
 6933SOL    HW327499   6.249   5.930   4.076  1.0570 -1.2245  0.7928
 6933SOL    MW427500   6.282   5.940   3.996  0.4002 -0.1293 -0.5344
 6934SOL     OW27501   1.077   4.909   4.108 -0.5640 -0.1769 -0.1890
 6934SOL    HW227502   1.144   4.916   4.039 -0.6053 -1.3015 -0.3672
 6934SOL    HW327503   1.048   4.818   4.103 -0.4702 -0.3168  1.4127
 6934SOL    MW427504   1.082   4.898   4.098 -0.6160  0.0733  0.9035
 6935SOL     OW27505   3.484   3.610   1.041 -0.0018  0.2570  0.0876
 6935SOL    HW227506   3.436   3.568   0.969  0.2026 -1.0290  0.6636
 6935SOL    HW327507   3.439   3.582   1.120  0.3318  0.9001  0.5135
 6935SOL    MW427508   3.472   3.600   1.042 -0.1327  0.0044  0.1173
 6936SOL     OW27509   6.330   3.955   5.798 -0.3626  0.4879 -0.0208
 6936SOL    HW227510   6.382   4.011   5.856  0.4130 -0.5405  0.3064
 6936SOL    HW327511   6.312   3.877   5.850 -1.5937  0.4996 -0.4084
 6936SOL    MW427512   6.335   3.952   5.812 -0.5470  0.9957 -0.0708
 6937SOL     OW27513   1.925   2.836   2.946 -0.3387 -0.0504 -0.7253
 6937SOL    HW227514   1.974   2.759   2.973 -0.3105  0.6313  1.3769
 6937SOL    HW327515   1.853   2.842   3.010 -1.4502  0.6127 -1.9819
 6937SOL    MW427516   1.922   2.827   2.958  0.1451 -0.3655 -0.1121
 6938SOL     OW27517   0.984   4.362   5.608  0.4187  0.3698  0.0846
 6938SOL    HW227518   1.054   4.406   5.560 -0.1915 -0.4834 -1.6635
 6938SOL    HW327519   0.904   4.405   5.578  0.1264  1.2046  1.9164
 6938SOL    MW427520   0.982   4.373   5.598  0.0976 -0.3190  0.1059
 6939SOL     OW27521   6.061   2.401   5.813  0.1690 -0.3229  0.1865
 6939SOL    HW227522   6.003   2.463   5.857 -0.0820  0.2366 -0.9142
 6939SOL    HW327523   6.104   2.452   5.745  0.1699 -1.2855 -0.5577
 6939SOL    MW427524   6.059   2.416   5.810 -0.3254 -0.1211  0.0652
 6940SOL     OW27525   6.046   1.928   0.184  0.3467 -0.2651  0.5080
 6940SOL    HW227526   5.984   2.000   0.182 -0.6654 -1.1137  0.4311
 6940SOL    HW327527   6.004   1.858   0.134  2.2316 -0.2091 -1.3323
 6940SOL    MW427528   6.033   1.928   0.177 -0.0551 -0.6143  0.5819
 6941SOL     OW27529   2.327   4.903   3.697 -0.0488 -0.2844 -0.7304
 6941SOL    HW227530   2.287   4.915   3.783 -2.1554 -0.2898 -1.6446
 6941SOL    HW327531   2.356   4.991   3.672 -0.6664 -0.0237 -0.5628
 6941SOL    MW427532   2.326   4.916   3.705  0.1453 -0.4702  0.0019
 6942SOL     OW27533   0.386   6.399   2.410  0.1419  0.1512 -0.5228
 6942SOL    HW227534   0.309   6.342   2.402 -0.1767  0.2373  1.4553
 6942SOL    HW327535   0.439   6.379   2.333 -1.6152 -0.2675 -1.6761
 6942SOL    MW427536   0.383   6.389   2.399  0.1141 -0.2260  0.6473
 6943SOL     OW27537   2.910   2.007   3.352 -0.1217  0.5720 -0.0726
 6943SOL    HW227538   2.928   2.094   3.316  0.0954  1.8108  2.8086
 6943SOL    HW327539   2.994   1.961   3.347  0.5621  1.6411  1.1748
 6943SOL    MW427540   2.923   2.012   3.346 -0.4705 -0.1774 -0.6758
 6944SOL     OW27541   0.619   0.610   2.060  0.3592 -0.0659  0.7545
 6944SOL    HW227542   0.640   0.605   2.153  0.8929  2.6959  0.8870
 6944SOL    HW327543   0.558   0.683   2.053 -3.5313 -3.1070 -0.6136
 6944SOL    MW427544   0.614   0.619   2.071 -0.7472  0.2403  0.2221
 6945SOL     OW27545   4.659   2.185   4.363  0.2304 -0.5501 -0.0114
 6945SOL    HW227546   4.705   2.107   4.393  1.9026  1.0344  1.9228
 6945SOL    HW327547   4.729   2.245   4.338 -1.0201  0.2105 -1.8764
 6945SOL    MW427548   4.674   2.183   4.363 -0.0127  0.5726 -0.2336
 6946SOL     OW27549   2.260   4.925   2.523  0.5488  0.0444 -0.0015
 6946SOL    HW227550   2.273   4.833   2.544  0.9407 -0.1201 -0.9120
 6946SOL    HW327551   2.174   4.947   2.561  0.3150 -0.7747 -0.0449
 6946SOL    MW427552   2.250   4.916   2.531 -0.2799 -0.7220 -0.1135
 6947SOL     OW27553   0.619   3.727   0.273 -0.1223 -0.0330 -0.1446
 6947SOL    HW227554   0.636   3.788   0.202  2.2586  1.5701  1.6807
 6947SOL    HW327555   0.554   3.771   0.328  0.3289  0.0908  0.2878
 6947SOL    MW427556   0.612   3.741   0.271  0.0069 -0.2252 -0.0791
 6948SOL     OW27557   5.669   3.264   4.580  1.2847 -0.3100 -0.3446
 6948SOL    HW227558   5.696   3.327   4.513 -3.0353  0.7348 -1.3751
 6948SOL    HW327559   5.643   3.319   4.654 -2.1557 -0.7177 -1.1105
 6948SOL    MW427560   5.669   3.280   4.581 -0.0069  0.1244  0.3308
 6949SOL     OW27561   0.665   4.401   4.098  0.2696  0.3558  0.6272
 6949SOL    HW227562   0.758   4.405   4.075 -0.2221  3.6232 -1.4232
 6949SOL    HW327563   0.620   4.385   4.015 -1.0731 -1.0430  1.5621
 6949SOL    MW427564   0.671   4.399   4.084 -0.5964  0.0608  0.1649
 6950SOL     OW27565   5.287   3.972   6.108  0.0377  0.2353  0.0379
 6950SOL    HW227566   5.279   3.884   6.144 -0.4394 -0.3367 -1.3984
 6950SOL    HW327567   5.358   3.965   6.044 -2.5836 -0.2147 -3.0632
 6950SOL    MW427568   5.295   3.960   6.104  0.1911 -0.0559 -0.0891
 6951SOL     OW27569   4.295   3.679   6.124 -0.1427 -0.2226  0.4266
 6951SOL    HW227570   4.382   3.644   6.102 -0.7911 -0.9795 -1.1265
 6951SOL    HW327571   4.310   3.772   6.140  1.0237 -0.4218  0.6063
 6951SOL    MW427572   4.309   3.687   6.123 -0.5471 -0.2362 -0.7711
 6952SOL     OW27573   1.617   2.592   3.520  0.6765 -0.7493  0.1758
 6952SOL    HW227574   1.705   2.564   3.545  0.7147 -1.3363 -0.6065
 6952SOL    HW327575   1.623   2.612   3.427 -0.6488 -3.5102 -0.5958
 6952SOL    MW427576   1.630   2.591   3.511 -0.5065  0.5817  0.2106
 6953SOL     OW27577   0.510   2.965   4.446 -0.4901 -0.3943 -0.3081
 6953SOL    HW227578   0.442   2.971   4.513 -0.4944  1.3516 -0.4139
 6953SOL    HW327579   0.585   2.925   4.491  0.3163  2.7941  1.5254
 6953SOL    MW427580   0.511   2.960   4.461 -0.3852  0.3868 -0.2129
 6954SOL     OW27581   3.905   3.011   5.680 -0.9789  1.3108  0.2567
 6954SOL    HW227582   3.825   2.968   5.712  0.6059 -0.6952  1.7615
 6954SOL    HW327583   3.902   3.098   5.719 -1.9440  0.9016  1.1444
 6954SOL    MW427584   3.894   3.017   5.690  0.3995 -0.1399 -0.3062
 6955SOL     OW27585   3.460   3.318   1.465 -0.0746 -0.0117  0.5711
 6955SOL    HW227586   3.441   3.343   1.555  0.0613  0.9276  0.3498
 6955SOL    HW327587   3.556   3.319   1.460 -0.0782 -0.2366  0.4677
 6955SOL    MW427588   3.470   3.322   1.476  0.7040 -0.2439  0.0614
 6956SOL     OW27589   4.028   1.144   6.319  0.6043 -0.0784  0.1303
 6956SOL    HW227590   4.071   1.224   6.350 -0.5143  0.4094  0.4795
 6956SOL    HW327591   3.934   1.164   6.324  0.2056 -2.1004  2.2179
 6956SOL    MW427592   4.021   1.158   6.324  0.4084  0.2291  0.4468
 6957SOL     OW27593   3.865   2.645   2.018  0.0265 -0.1164  0.1495
 6957SOL    HW227594   3.835   2.736   2.025  1.4494  0.3600  0.4472
 6957SOL    HW327595   3.818   2.598   2.087  0.1088  0.6359  0.7282
 6957SOL    MW427596   3.855   2.651   2.028 -0.2523  0.5125 -0.6332
 6958SOL     OW27597   4.112   1.734   0.672  0.1793  0.2394  0.1119
 6958SOL    HW227598   4.170   1.788   0.618  0.3043 -0.0243 -0.0208
 6958SOL    HW327599   4.170   1.696   0.738  0.3259 -0.7251 -0.5551
 6958SOL    MW427600   4.127   1.736   0.674 -0.1596  0.1463  0.5816
 6959SOL     OW27601   1.341   2.607   1.663  0.5176  0.0248  0.0693
 6959SOL    HW227602   1.292   2.673   1.613  0.1891 -0.6308 -0.4942
 6959SOL    HW327603   1.319   2.625   1.754 -0.0769  0.2913 -0.1186
 6959SOL    MW427604   1.331   2.618   1.668  0.0590  0.4631  0.2260
 6960SOL     OW27605   5.199   3.245   2.903  0.2675  0.2668  0.0987
 6960SOL    HW227606   5.245   3.282   2.828 -0.5866 -0.2504 -0.6988
 6960SOL    HW327607   5.107   3.262   2.885  0.1164  1.5100  1.7919
 6960SOL    MW427608   5.193   3.252   2.891  0.2934 -0.2123  0.3240
 6961SOL     OW27609   6.256   0.056   5.694  0.1951 -0.0768  0.3660
 6961SOL    HW227610   6.262   0.116   5.619  1.5388 -0.6270 -0.0004
 6961SOL    HW327611   6.198  -0.014   5.664 -1.7602  1.2307  0.9608
 6961SOL    MW427612   6.249   0.055   5.680  0.2242  0.2785 -0.0182
 6962SOL     OW27613   2.594   3.003   4.790  0.0429  0.5512 -0.4418
 6962SOL    HW227614   2.594   2.911   4.816 -0.0862  1.0510  1.4819
 6962SOL    HW327615   2.587   3.001   4.695 -1.1220 -1.3996 -0.3607
 6962SOL    MW427616   2.593   2.990   4.781  0.6947  0.0947 -0.2187
 6963SOL     OW27617   6.307   0.800   5.136  0.4866  0.8943  0.0851
 6963SOL    HW227618   6.343   0.847   5.211 -1.3282  0.0312  1.6030
 6963SOL    HW327619   6.218   0.835   5.127  0.6191  0.8496 -1.5595
 6963SOL    MW427620   6.300   0.810   5.145 -0.2042 -0.2978 -0.0116
 6964SOL     OW27621   5.837   1.644   0.762  0.0364 -0.3384  0.3359
 6964SOL    HW227622   5.896   1.580   0.722  0.1342 -1.4989  2.2167
 6964SOL    HW327623   5.751   1.623   0.726  0.3961 -0.1380 -0.6671
 6964SOL    MW427624   5.834   1.633   0.752  0.4288  1.4235 -0.4347
 6965SOL     OW27625   3.211   2.411   2.570 -0.4357  0.3770 -0.2622
 6965SOL    HW227626   3.289   2.450   2.528  0.1329  2.0895  2.1591
 6965SOL    HW327627   3.246   2.344   2.628 -0.5587  1.9424  1.7186
 6965SOL    MW427628   3.226   2.407   2.572 -0.0788  0.1215 -0.2169
 6966SOL     OW27629   5.744   0.643   1.083  0.3837  0.2628 -0.2165
 6966SOL    HW227630   5.765   0.560   1.040 -0.1346  1.0559 -2.1018
 6966SOL    HW327631   5.794   0.708   1.036  0.2074  1.1271  0.7581
 6966SOL    MW427632   5.753   0.640   1.071 -0.0735  0.1325 -0.4388
 6967SOL     OW27633   1.649   3.422   1.313  0.0433  0.3675 -0.5171
 6967SOL    HW227634   1.593   3.485   1.359  0.0677  0.1500 -0.1843
 6967SOL    HW327635   1.672   3.357   1.380 -0.6746 -0.4664 -1.0456
 6967SOL    MW427636   1.645   3.421   1.328  0.7465 -0.4024  0.4437
 6968SOL     OW27637   5.725   2.179   5.953  0.3980  0.5024 -0.0900
 6968SOL    HW227638   5.803   2.177   6.010  0.4552 -0.2248 -0.1861
 6968SOL    HW327639   5.713   2.088   5.926 -2.0014  0.0807  1.9716
 6968SOL    MW427640   5.734   2.167   5.957 -0.6242  0.3569 -0.5313
 6969SOL     OW27641   5.521   4.954   3.042  0.0826  0.0389  0.1890
 6969SOL    HW227642   5.493   4.998   2.962  0.9448  0.9120  0.3509
 6969SOL    HW327643   5.440   4.933   3.088 -0.4232 -0.4679 -0.9007
 6969SOL    MW427644   5.507   4.957   3.037  0.2880 -0.5580  0.1029
 6970SOL     OW27645   4.789   1.966   4.430  0.2390  0.2607 -0.0435
 6970SOL    HW227646   4.728   1.892   4.427 -0.7738  0.8121  2.9199
 6970SOL    HW327647   4.837   1.954   4.512 -1.8323  4.1277  2.0304
 6970SOL    MW427648   4.787   1.955   4.441 -0.4534  0.0459 -0.5025
 6971SOL     OW27649   1.194   2.846   3.892 -0.2243  0.4580 -0.5894
 6971SOL    HW227650   1.252   2.861   3.817  0.1102  0.7292 -0.2830
 6971SOL    HW327651   1.247   2.792   3.952 -0.6244 -0.0782 -0.7086
 6971SOL    MW427652   1.209   2.841   3.890  0.1260 -0.5459  0.7868
 6972SOL     OW27653   3.346   4.307   4.062 -0.0932 -0.3208 -0.2126
 6972SOL    HW227654   3.365   4.223   4.104  2.8052  0.6176  0.6031
 6972SOL    HW327655   3.269   4.340   4.109 -1.1682 -2.3960 -0.4298
 6972SOL    MW427656   3.338   4.300   4.074 -0.5469  0.3884  0.5335
 6973SOL     OW27657   4.219   3.787   3.111 -0.2967  0.1870  0.2027
 6973SOL    HW227658   4.239   3.703   3.069 -1.3969 -0.2561  0.5292
 6973SOL    HW327659   4.246   3.853   3.048  2.4862 -0.3245  0.7381
 6973SOL    MW427660   4.225   3.785   3.097  0.2628 -0.3268 -0.4579
 6974SOL     OW27661   4.215   6.035   3.450 -0.3339  0.0256 -0.0400
 6974SOL    HW227662   4.289   6.094   3.436 -0.0529 -0.2222  0.3831
 6974SOL    HW327663   4.242   5.952   3.410  0.5081 -0.7118  1.9256
 6974SOL    MW427664   4.228   6.032   3.443 -0.4031  0.5577  0.5282
 6975SOL     OW27665   5.407   3.327   0.937 -0.0217 -0.2569  0.1542
 6975SOL    HW227666   5.382   3.301   0.849  2.0280 -0.9622 -0.2774
 6975SOL    HW327667   5.415   3.245   0.986  1.7989 -0.1406  0.1215
 6975SOL    MW427668   5.405   3.313   0.932 -0.0362 -0.1780 -0.1682
 6976SOL     OW27669   5.591   0.501   6.344 -0.3773 -0.2032  0.0349
 6976SOL    HW227670   5.647   0.507   6.267 -0.9171  0.6442 -0.3067
 6976SOL    HW327671   5.557   0.411   6.341  2.3293 -1.3678  1.2696
 6976SOL    MW427672   5.594   0.490   6.333  0.2469 -0.2837 -0.5377
 6977SOL     OW27673   3.366   0.212   4.762  0.4869  0.5120 -0.0052
 6977SOL    HW227674   3.433   0.234   4.827  0.8379 -2.2934  0.6790
 6977SOL    HW327675   3.389   0.267   4.686  0.3632  3.4860  1.9412
 6977SOL    MW427676   3.378   0.222   4.761  0.0630 -0.3703  0.4395
 6978SOL     OW27677   0.974   5.709   6.273  0.5858  0.5110  0.5776
 6978SOL    HW227678   1.001   5.800   6.261  0.3371  0.8226  2.1327
 6978SOL    HW327679   1.036   5.658   6.221 -0.6871  1.6528 -2.2941
 6978SOL    MW427680   0.986   5.714   6.265 -0.3107 -0.0290  0.2227
 6979SOL     OW27681   0.670   2.309   2.901  0.4045 -0.0378 -0.3746
 6979SOL    HW227682   0.580   2.331   2.925  0.5785  0.4442 -0.1543
 6979SOL    HW327683   0.676   2.327   2.807 -0.6067 -2.9880 -1.1309
 6979SOL    MW427684   0.659   2.314   2.892 -0.0980 -0.0266 -0.7118
 6980SOL     OW27685   4.119   2.052   4.701 -0.0663 -0.0027  0.1919
 6980SOL    HW227686   4.031   2.088   4.708  0.3196  1.6195 -2.1562
 6980SOL    HW327687   4.105   1.957   4.695 -1.6724  0.2378 -0.3290
 6980SOL    MW427688   4.105   2.044   4.701  0.0855  0.2317  0.0993
 6981SOL     OW27689   5.852   6.354   4.582 -0.1972  0.2695 -0.1023
 6981SOL    HW227690   5.812   6.296   4.517 -0.2718  1.0624 -0.7937
 6981SOL    HW327691   5.943   6.326   4.588 -0.3921 -0.3279  0.0517
 6981SOL    MW427692   5.859   6.343   4.574  0.3293  0.1409  0.2665
 6982SOL     OW27693   4.049   5.143   0.782  0.1840  0.8471  0.1446
 6982SOL    HW227694   4.030   5.054   0.753 -1.2271  0.6931  1.3782
 6982SOL    HW327695   4.132   5.165   0.741  0.8877 -1.2776  0.3092
 6982SOL    MW427696   4.058   5.134   0.773 -0.2409  0.5183  0.3853
 6983SOL     OW27697   5.807   4.535   3.818 -0.4770 -0.0673 -0.1930
 6983SOL    HW227698   5.860   4.461   3.786  1.7257  1.8037 -1.1851
 6983SOL    HW327699   5.843   4.554   3.905 -2.4350 -1.3870  0.9653
 6983SOL    MW427700   5.819   4.528   3.825 -0.8401  0.0364  0.3608
 6984SOL     OW27701   5.189   2.707   2.737 -0.1224 -0.1690  0.1840
 6984SOL    HW227702   5.237   2.625   2.746 -2.3616 -1.8782 -1.7948
 6984SOL    HW327703   5.144   2.718   2.820  0.5411 -0.7019  0.6239
 6984SOL    MW427704   5.189   2.698   2.749 -0.6498 -0.1039  0.1603
 6985SOL     OW27705   2.227   0.176   4.886 -0.5194  0.3148 -0.2629
 6985SOL    HW227706   2.222   0.102   4.947 -0.1231 -0.1123 -0.7437
 6985SOL    HW327707   2.145   0.224   4.899 -0.5499  0.0866  0.4277
 6985SOL    MW427708   2.216   0.173   4.896  0.1703  0.0475 -0.2301
 6986SOL     OW27709   1.652   4.779   4.580  0.0237 -0.1656 -0.0554
 6986SOL    HW227710   1.644   4.815   4.492  1.0924  2.4477  0.8421
 6986SOL    HW327711   1.732   4.817   4.615 -0.8070 -0.4660  2.3706
 6986SOL    MW427712   1.662   4.789   4.573 -0.5726 -0.2079  0.0347
 6987SOL     OW27713   1.721   4.291   5.992  0.3592  0.0035 -0.1319
 6987SOL    HW227714   1.669   4.371   5.997 -1.4522 -1.0704 -0.8750
 6987SOL    HW327715   1.762   4.285   6.079 -1.2447  0.5902  0.7103
 6987SOL    MW427716   1.720   4.301   6.004 -0.6640 -0.3908  0.1209
 6988SOL     OW27717   4.795   4.725   3.728  0.5728  0.3362 -0.3697
 6988SOL    HW227718   4.856   4.778   3.677  0.0856  0.3380 -0.9531
 6988SOL    HW327719   4.788   4.643   3.679 -0.9803  0.8663 -1.0808
 6988SOL    MW427720   4.802   4.721   3.715  0.0702 -0.5079  0.1342
 6989SOL     OW27721   2.521   3.703   6.325  0.0844 -0.8776 -0.4245
 6989SOL    HW227722   2.505   3.797   6.317 -0.4535 -1.0945 -3.1416
 6989SOL    HW327723   2.616   3.693   6.311 -0.0662 -0.7949 -1.6515
 6989SOL    MW427724   2.532   3.714   6.322  0.1052  0.2861 -0.0833
 6990SOL     OW27725   4.233   1.356   5.920  0.4888  0.3423  0.1828
 6990SOL    HW227726   4.288   1.337   5.995  0.1608 -0.0100  0.3365
 6990SOL    HW327727   4.235   1.276   5.868  0.2537  0.3859  0.1060
 6990SOL    MW427728   4.240   1.343   5.923 -0.4857 -0.1028  0.4036
 6991SOL     OW27729   1.283   4.314   0.690 -0.9063 -0.1883 -0.1807
 6991SOL    HW227730   1.265   4.396   0.644 -0.0783 -0.2938 -0.7063
 6991SOL    HW327731   1.228   4.318   0.768 -0.4326  1.1422  0.1133
 6991SOL    MW427732   1.273   4.326   0.694  0.1820  0.0556  0.1233
 6992SOL     OW27733   2.737   3.765   3.473  0.4250  0.4483 -0.1819
 6992SOL    HW227734   2.655   3.813   3.487  1.0661  1.4814  0.0902
 6992SOL    HW327735   2.757   3.779   3.380 -0.4631 -1.0431 -0.6254
 6992SOL    MW427736   2.729   3.773   3.463 -0.0699 -0.1562  0.5593
 6993SOL     OW27737   1.722   1.496   3.865  0.1569  0.1150  0.1088
 6993SOL    HW227738   1.800   1.458   3.825  2.2272  1.1708  2.8278
 6993SOL    HW327739   1.708   1.578   3.819 -1.1682 -1.3161 -2.2549
 6993SOL    MW427740   1.730   1.502   3.854 -0.4102 -0.1430 -0.3244
 6994SOL     OW27741   4.252   4.944   1.800 -0.1719  0.1223 -0.1867
 6994SOL    HW227742   4.313   4.910   1.734 -0.7547 -0.5408 -0.3907
 6994SOL    HW327743   4.189   4.995   1.749  0.2844  0.9369  0.0408
 6994SOL    MW427744   4.252   4.946   1.784 -0.4682 -0.1796  0.3159
 6995SOL     OW27745   0.967   0.588   4.662 -0.6340 -0.0597  0.2375
 6995SOL    HW227746   0.998   0.631   4.582 -0.2219  0.9914  0.9379
 6995SOL    HW327747   0.924   0.508   4.631  0.7212 -0.3780 -0.9413
 6995SOL    MW427748   0.965   0.583   4.647 -0.0629  0.4052 -0.6217
 6996SOL     OW27749   5.935   2.207   6.133  0.1966  0.0344 -0.2717
 6996SOL    HW227750   6.020   2.239   6.103 -0.7965  0.5933 -2.7539
 6996SOL    HW327751   5.893   2.283   6.172 -0.2751  0.5844 -1.7737
 6996SOL    MW427752   5.941   2.221   6.134  0.0605  0.4163  0.0046
 6997SOL     OW27753   0.956   1.545   4.803 -0.0600  0.1573 -0.0888
 6997SOL    HW227754   0.914   1.631   4.812  1.2790  0.7979  0.3403
 6997SOL    HW327755   0.907   1.488   4.860 -0.9267  0.6610 -0.3161
 6997SOL    MW427756   0.944   1.549   4.811 -0.3211 -0.1071 -0.3699
 6998SOL     OW27757   0.996   3.141   6.391 -0.0296 -0.3758  0.3531
 6998SOL    HW227758   0.940   3.075   6.350 -0.5243 -0.6678  1.4558
 6998SOL    HW327759   0.970   3.141   6.483  0.8155  0.4950  0.6140
 6998SOL    MW427760   0.985   3.133   6.398  0.2210  0.6011 -0.4947
 6999SOL     OW27761   3.098   3.893   4.106  0.8071  0.1499  0.1578
 6999SOL    HW227762   3.166   3.934   4.159  1.5291  0.2669 -0.8359
 6999SOL    HW327763   3.056   3.965   4.060 -0.8092  0.2227  1.6301
 6999SOL    MW427764   3.101   3.908   4.107 -0.1194 -0.1707 -0.6074
 7000SOL     OW27765   0.725   5.408   4.530 -0.7438  0.6760  0.4118
 7000SOL    HW227766   0.709   5.408   4.624  1.8730  0.5380  0.9330
 7000SOL    HW327767   0.730   5.315   4.506  0.9349  0.6820  0.6423
 7000SOL    MW427768   0.723   5.396   4.539 -0.1910 -0.2265 -0.2673
 7001SOL     OW27769   2.730   2.173   4.541 -0.7171  0.8013  0.0314
 7001SOL    HW227770   2.653   2.209   4.584 -0.5882 -0.5379  1.4886
 7001SOL    HW327771   2.789   2.248   4.530 -2.4317  1.9791 -1.7353
 7001SOL    MW427772   2.728   2.188   4.546  0.5544 -0.1319  0.0615
 7002SOL     OW27773   5.875   0.990   1.979 -0.1136  0.2845  0.1944
 7002SOL    HW227774   5.911   1.005   1.892 -1.3199  0.2143 -0.3285
 7002SOL    HW327775   5.844   1.076   2.007  0.4703  0.3503  0.6548
 7002SOL    MW427776   5.876   1.004   1.971  0.2610  0.4721 -0.3305
 7003SOL     OW27777   3.510   5.589   3.426 -0.8474  0.0377  0.2775
 7003SOL    HW227778   3.568   5.575   3.500 -1.2288  0.7294  0.7123
 7003SOL    HW327779   3.565   5.573   3.349 -0.7005 -1.6971  0.6911
 7003SOL    MW427780   3.525   5.585   3.425 -0.3560 -0.2702  0.5873
 7004SOL     OW27781   5.804   2.422   3.422  0.1386 -0.0997 -0.1817
 7004SOL    HW227782   5.745   2.423   3.498 -0.6592 -2.2612 -0.6920
 7004SOL    HW327783   5.750   2.454   3.349 -1.3932 -4.3259 -1.1715
 7004SOL    MW427784   5.789   2.426   3.422 -0.1955 -0.2450 -0.4096
 7005SOL     OW27785   1.189   1.081   5.114  0.0859 -0.1155 -0.0556
 7005SOL    HW227786   1.276   1.115   5.133  0.5828 -1.7879  0.8724
 7005SOL    HW327787   1.147   1.074   5.200  0.0406 -1.8739 -0.2015
 7005SOL    MW427788   1.195   1.085   5.128 -0.0248  0.2971  0.0791
 7006SOL     OW27789   1.448   1.657   5.978  0.2167 -0.0408 -0.0611
 7006SOL    HW227790   1.384   1.685   6.044  1.5404  1.3835  0.6980
 7006SOL    HW327791   1.497   1.587   6.020 -0.2544 -0.5174 -0.3034
 7006SOL    MW427792   1.446   1.652   5.992  0.4698  0.6764 -0.3104
 7007SOL     OW27793   4.365   2.287   0.993  0.3904  0.1941 -0.5801
 7007SOL    HW227794   4.372   2.276   1.088 -1.3716  1.4228 -0.2612
 7007SOL    HW327795   4.440   2.342   0.970  1.7594 -1.4006 -0.2098
 7007SOL    MW427796   4.376   2.293   1.003 -0.6494 -0.2442  0.6103
 7008SOL     OW27797   1.626   0.924   0.053 -0.2193 -0.1945 -0.3242
 7008SOL    HW227798   1.638   1.010   0.092 -0.7964 -1.0475  1.9336
 7008SOL    HW327799   1.710   0.903   0.013  1.2910 -0.1770  2.5749
 7008SOL    MW427800   1.639   0.932   0.053  0.0302 -0.2617  0.3325
 7009SOL     OW27801   1.506   2.288   3.841 -0.2772  0.1040 -0.4162
 7009SOL    HW227802   1.584   2.253   3.884 -0.1743 -0.2774 -0.9029
 7009SOL    HW327803   1.531   2.296   3.749 -0.9709 -0.4951 -0.6631
 7009SOL    MW427804   1.519   2.284   3.834 -0.8417 -0.1664 -0.2131
 7010SOL     OW27805   2.601   3.523   3.571 -0.3996 -0.1673 -0.2800
 7010SOL    HW227806   2.671   3.457   3.568 -0.7628 -0.5150 -1.7871
 7010SOL    HW327807   2.644   3.605   3.547 -0.3407 -0.2123 -0.3280
 7010SOL    MW427808   2.616   3.525   3.568 -0.3404 -0.3372  0.3844
 7011SOL     OW27809   3.301   1.769   2.834 -0.2727  0.5664  0.2349
 7011SOL    HW227810   3.220   1.768   2.784  0.1499 -2.3041 -0.5706
 7011SOL    HW327811   3.370   1.761   2.768  0.3677 -1.8911  1.0707
 7011SOL    MW427812   3.300   1.768   2.819  0.6322  0.2142 -0.4217
 7012SOL     OW27813   1.278   3.176   2.529 -0.1734 -0.1069  0.0523
 7012SOL    HW227814   1.308   3.205   2.442  0.7536  0.8464  0.6650
 7012SOL    HW327815   1.185   3.157   2.517 -0.3039  0.9997 -0.9337
 7012SOL    MW427816   1.270   3.178   2.516  0.2629  0.1931 -0.3318
 7013SOL     OW27817   3.143   4.357   0.739 -0.0727 -0.5570 -0.0539
 7013SOL    HW227818   3.066   4.413   0.749  0.6558  1.0248 -2.4685
 7013SOL    HW327819   3.214   4.405   0.781  0.0222 -0.9764  0.2670
 7013SOL    MW427820   3.142   4.371   0.746  0.6624 -0.4765  0.4405
 7014SOL     OW27821   2.421   1.260   1.938 -0.0908 -0.1281 -0.1933
 7014SOL    HW227822   2.338   1.296   1.907 -0.1306 -0.4286 -0.4426
 7014SOL    HW327823   2.484   1.284   1.871 -0.2158 -0.9510 -0.6237
 7014SOL    MW427824   2.418   1.268   1.925 -0.4698 -0.0623 -0.0997
 7015SOL     OW27825   1.630   5.453   4.639 -0.1169 -0.4443 -0.4321
 7015SOL    HW227826   1.560   5.400   4.600  0.0381 -0.5876 -0.5162
 7015SOL    HW327827   1.600   5.543   4.629 -0.8715 -0.5504  0.6284
 7015SOL    MW427828   1.616   5.458   4.633  0.0373  0.2606  0.0559
 7016SOL     OW27829   5.670   2.114   1.896 -0.1928  0.1995  0.3758
 7016SOL    HW227830   5.688   2.208   1.906  1.1717 -0.1882  2.0685
 7016SOL    HW327831   5.747   2.080   1.851 -0.6014 -0.1537 -0.0626
 7016SOL    MW427832   5.683   2.122   1.891 -0.4079  0.2651 -0.4049
 7017SOL     OW27833   0.608   6.292   0.015 -0.0572  0.1471 -0.0733
 7017SOL    HW227834   0.545   6.303  -0.056 -0.8590  1.0507  0.7434
 7017SOL    HW327835   0.693   6.308  -0.026 -0.4850  0.4572 -0.8740
 7017SOL    MW427836   0.611   6.295   0.000  0.6806  0.0292  0.0458
 7018SOL     OW27837   6.238   2.983   5.703 -0.5377 -0.1638 -0.2453
 7018SOL    HW227838   6.327   2.951   5.719 -1.1543 -0.6331  2.9186
 7018SOL    HW327839   6.201   2.921   5.641  0.6090 -1.3972  0.2458
 7018SOL    MW427840   6.245   2.971   5.697  0.1495  0.3521  0.2190
 7019SOL     OW27841   2.997   1.899   2.775  0.1858  0.4092  0.5235
 7019SOL    HW227842   2.963   1.839   2.842  1.5618  0.1153  0.9874
 7019SOL    HW327843   2.938   1.888   2.701 -0.1012 -0.8615  0.9152
 7019SOL    MW427844   2.985   1.890   2.774 -0.1259  0.8885  0.0219
 7020SOL     OW27845   1.850   4.914   5.822  0.3072  0.1368 -0.0662
 7020SOL    HW227846   1.832   4.835   5.771 -0.4225 -0.5823  1.2576
 7020SOL    HW327847   1.946   4.918   5.827  0.3580 -0.4930 -0.3865
 7020SOL    MW427848   1.860   4.904   5.816 -0.6750 -1.0356 -0.0949
 7021SOL     OW27849   3.637   1.287   5.225 -0.8609  0.0090  0.0763
 7021SOL    HW227850   3.556   1.319   5.185 -0.1442  0.8204 -0.7614
 7021SOL    HW327851   3.624   1.301   5.319 -1.6505  0.2252 -0.0519
 7021SOL    MW427852   3.624   1.293   5.232 -0.3163 -0.8039  0.1839
 7022SOL     OW27853   1.042   5.202   3.830  0.1432 -0.6771 -0.2391
 7022SOL    HW227854   0.982   5.200   3.904 -0.4985  0.3662 -0.7017
 7022SOL    HW327855   1.085   5.288   3.836  0.8999 -1.0282 -0.4569
 7022SOL    MW427856   1.040   5.213   3.840  0.0408 -1.0063 -0.1645
 7023SOL     OW27857   6.163   6.023   5.293 -0.3496 -0.0705  0.7088
 7023SOL    HW227858   6.085   6.035   5.240 -0.3364 -2.1560  0.1163
 7023SOL    HW327859   6.236   6.024   5.230 -0.3642 -2.9416  0.4897
 7023SOL    MW427860   6.163   6.025   5.278 -0.0891  0.1383 -0.0127
 7024SOL     OW27861   2.570   4.465   0.440  0.4072  0.2745 -0.0528
 7024SOL    HW227862   2.507   4.526   0.479  0.1340  0.0739 -0.1778
 7024SOL    HW327863   2.561   4.384   0.491  0.4786  0.2054 -0.1477
 7024SOL    MW427864   2.561   4.462   0.452  0.4869  0.2427 -0.5978
 7025SOL     OW27865   0.571   0.235   2.823 -0.1094 -0.1669 -0.5145
 7025SOL    HW227866   0.563   0.323   2.786 -1.4870 -0.5232 -1.1011
 7025SOL    HW327867   0.498   0.186   2.787  0.5454 -1.5315 -0.0725
 7025SOL    MW427868   0.561   0.240   2.814 -0.1706  0.0134  0.0034
 7026SOL     OW27869   0.625   5.537   0.489  0.2481  0.3941  0.0209
 7026SOL    HW227870   0.624   5.449   0.451 -1.4806  0.6968 -0.7608
 7026SOL    HW327871   0.551   5.538   0.549 -0.7915  1.7580 -1.1978
 7026SOL    MW427872   0.615   5.525   0.492  0.0222 -0.4109 -0.3369
 7027SOL     OW27873   1.170   4.317   4.804  0.6413  0.5834  0.2185
 7027SOL    HW227874   1.212   4.259   4.741  2.9299  0.5136  1.6967
 7027SOL    HW327875   1.179   4.405   4.765  0.3001  0.3346 -0.4283
 7027SOL    MW427876   1.177   4.321   4.790 -0.7632 -0.2747  0.7686
 7028SOL     OW27877   4.131   1.953   5.486  0.5234 -0.4167  0.0930
 7028SOL    HW227878   4.215   1.929   5.446  0.9080 -2.6274  1.9892
 7028SOL    HW327879   4.156   2.007   5.561  0.3385 -1.6225  1.0426
 7028SOL    MW427880   4.146   1.957   5.491 -0.2545  0.0313  0.0653
 7029SOL     OW27881   2.959   0.858   3.221 -0.2135 -0.1576  0.5126
 7029SOL    HW227882   2.922   0.935   3.264 -0.2524  0.4688 -0.6001
 7029SOL    HW327883   3.053   0.873   3.223 -0.2955  0.9989 -1.5626
 7029SOL    MW427884   2.967   0.870   3.227  0.2039 -0.4199 -0.7557
 7030SOL     OW27885   4.367   5.939   0.350  0.1725 -0.0626  0.0163
 7030SOL    HW227886   4.391   5.907   0.437  0.4078 -1.0205 -0.3905
 7030SOL    HW327887   4.289   5.890   0.326 -1.6405  2.2624  0.8632
 7030SOL    MW427888   4.360   5.929   0.358  0.5255 -0.2606 -0.4079
 7031SOL     OW27889   4.306   5.884   5.501  0.1696 -0.5281 -0.3334
 7031SOL    HW227890   4.301   5.832   5.420  0.6481 -1.1693  0.0434
 7031SOL    HW327891   4.235   5.850   5.555 -0.1408 -0.1084 -0.4688
 7031SOL    MW427892   4.296   5.872   5.497 -0.1116  0.6331  0.2346
 7032SOL     OW27893   6.176   2.394   3.015  0.1427  0.1456 -0.0849
 7032SOL    HW227894   6.200   2.302   3.013  1.0385  0.3502  0.5684
 7032SOL    HW327895   6.154   2.415   2.924  0.7283 -0.5042 -0.3871
 7032SOL    MW427896   6.177   2.385   3.003 -0.6532  0.8724 -0.2100
 7033SOL     OW27897   5.338   5.937   1.519 -0.4696 -0.0233 -0.2466
 7033SOL    HW227898   5.426   5.975   1.516 -0.0448 -0.9847 -0.4700
 7033SOL    HW327899   5.353   5.845   1.541 -1.2707 -0.6918 -2.2888
 7033SOL    MW427900   5.352   5.930   1.522  0.3267  0.1195 -0.2577
 7034SOL     OW27901   1.447   1.644   4.608 -0.4177 -0.1030 -0.0958
 7034SOL    HW227902   1.490   1.684   4.531 -0.3765 -0.5617 -0.3129
 7034SOL    HW327903   1.354   1.649   4.588 -0.3618 -1.9589 -1.0767
 7034SOL    MW427904   1.441   1.650   4.595  0.1343  0.1322 -0.1607
 7035SOL     OW27905   3.048   0.480   3.310  0.0275  0.5722  0.0515
 7035SOL    HW227906   2.998   0.542   3.364 -2.5067  0.6760 -2.1926
 7035SOL    HW327907   3.036   0.396   3.352 -0.5447  0.8987  0.5615
 7035SOL    MW427908   3.040   0.477   3.322  0.5043  0.3582  0.1680
 7036SOL     OW27909   4.351   4.870   3.106 -0.1957  0.2720 -0.5983
 7036SOL    HW227910   4.313   4.796   3.152  0.3196  0.5585  0.3075
 7036SOL    HW327911   4.279   4.932   3.096 -0.2114  0.3863  0.1989
 7036SOL    MW427912   4.337   4.868   3.111 -0.0750  0.5658 -0.4609
 7037SOL     OW27913   1.739   2.972   1.022  0.3855  0.0902 -0.7514
 7037SOL    HW227914   1.719   2.891   1.070  0.0107  1.5190  1.6534
 7037SOL    HW327915   1.654   3.004   0.993  0.0533  1.4831  1.5640
 7037SOL    MW427916   1.725   2.965   1.024  0.0699 -0.1867  0.1622
 7038SOL     OW27917   3.528   1.007   1.343 -0.6407 -0.2334 -0.1705
 7038SOL    HW227918   3.592   1.014   1.272 -0.1015 -0.9083  0.2368
 7038SOL    HW327919   3.443   1.015   1.300 -0.2864  1.5018 -0.6284
 7038SOL    MW427920   3.526   1.009   1.328 -0.2152 -0.2383 -0.9095
 7039SOL     OW27921   0.190   5.304   1.197  0.0283 -0.0276  0.8228
 7039SOL    HW227922   0.228   5.225   1.235  1.7072  0.7437  0.8481
 7039SOL    HW327923   0.136   5.273   1.124  1.6219 -1.1442  0.0605
 7039SOL    MW427924   0.188   5.289   1.192  0.0468 -0.1271 -0.8400
 7040SOL     OW27925   5.888   0.635   5.574 -0.1475  0.3727 -0.2375
 7040SOL    HW227926   5.912   0.682   5.654 -1.2760 -1.0120  0.9818
 7040SOL    HW327927   5.892   0.543   5.598  0.9841 -0.1724 -2.2528
 7040SOL    MW427928   5.891   0.629   5.588  0.0563  0.2548 -0.3408
 7041SOL     OW27929   2.507   1.023   4.553 -0.3534  0.0237  0.6398
 7041SOL    HW227930   2.414   1.011   4.531 -0.4849  1.6899  0.1442
 7041SOL    HW327931   2.541   1.078   4.482  0.9235 -0.2643  1.0120
 7041SOL    MW427932   2.499   1.029   4.540  0.6763 -0.5280 -0.0134
 7042SOL     OW27933   1.945   6.133   0.756  0.4161  0.0319 -0.2712
 7042SOL    HW227934   1.997   6.120   0.835  0.1763  0.3462 -0.0542
 7042SOL    HW327935   2.006   6.120   0.684  0.3342 -1.5966 -0.0681
 7042SOL    MW427936   1.960   6.130   0.757 -0.0576  0.0833 -0.0165
 7043SOL     OW27937   0.788   3.939   2.044 -0.6249  0.3281 -0.0438
 7043SOL    HW227938   0.746   4.000   2.104  1.4841  1.5995  0.2714
 7043SOL    HW327939   0.850   3.891   2.099 -1.5079 -1.4147 -0.4985
 7043SOL    MW427940   0.791   3.940   2.059  0.1093 -0.5737 -0.5743
 7044SOL     OW27941   1.023   2.491   5.551 -0.0799 -0.1481 -0.5438
 7044SOL    HW227942   0.970   2.413   5.534 -0.6186 -0.3971  1.9840
 7044SOL    HW327943   0.968   2.546   5.607  1.3390  0.8320 -0.0623
 7044SOL    MW427944   1.009   2.488   5.556 -1.0599 -0.0515 -0.0167
 7045SOL     OW27945   4.834   5.247   3.710 -0.0888  0.1976  0.2485
 7045SOL    HW227946   4.852   5.249   3.804 -0.9204 -0.5732  0.4457
 7045SOL    HW327947   4.748   5.205   3.704 -0.7204  1.5754 -0.7616
 7045SOL    MW427948   4.825   5.241   3.722 -0.3203  0.6078 -0.2826
 7046SOL     OW27949   1.784   4.362   1.442 -0.0656  0.3602 -0.1559
 7046SOL    HW227950   1.843   4.371   1.367  1.1493 -0.0020  0.7378
 7046SOL    HW327951   1.841   4.369   1.519 -1.3320  1.0834  0.7569
 7046SOL    MW427952   1.799   4.364   1.442  0.0590 -0.5218  0.1356
 7047SOL     OW27953   3.104   0.233   2.705  0.5284  0.2352 -0.3659
 7047SOL    HW227954   3.117   0.139   2.695 -0.6527  0.1411 -1.1697
 7047SOL    HW327955   3.123   0.250   2.797  2.0291 -0.5492 -0.4891
 7047SOL    MW427956   3.108   0.223   2.716 -0.6410 -0.0567 -0.0697
 7048SOL     OW27957   1.608   6.337   4.581 -0.4208 -0.6303  0.1185
 7048SOL    HW227958   1.654   6.365   4.501 -1.5038 -1.4489 -0.8348
 7048SOL    HW327959   1.612   6.241   4.577 -1.6472 -0.7060  0.3333
 7048SOL    MW427960   1.615   6.328   4.570  0.3871  0.0139 -0.5760
 7049SOL     OW27961   1.906   0.264   3.255 -0.4021 -0.1745 -0.7191
 7049SOL    HW227962   1.845   0.302   3.318 -0.1081  0.9620 -1.1040
 7049SOL    HW327963   1.982   0.238   3.308 -1.2986 -1.9093 -0.1820
 7049SOL    MW427964   1.908   0.265   3.271  0.7250  0.3137 -0.9006
 7050SOL     OW27965   1.923   1.127   3.743 -0.5543 -1.2922  0.3297
 7050SOL    HW227966   1.847   1.076   3.718 -1.5036  0.3205 -0.2400
 7050SOL    HW327967   1.926   1.122   3.838 -1.7531 -0.8794  0.4002
 7050SOL    MW427968   1.913   1.120   3.752 -0.0748  0.0194  0.1921
 7051SOL     OW27969   3.364   2.206   5.247 -0.1821 -0.2962 -0.0072
 7051SOL    HW227970   3.281   2.161   5.235 -3.1795  4.0559  1.6925
 7051SOL    HW327971   3.385   2.193   5.340  0.2119 -0.1308 -0.0696
 7051SOL    MW427972   3.356   2.198   5.258  0.0324 -0.1746  0.1496
 7052SOL     OW27973   5.879   3.289   3.954 -0.0802 -0.1595  0.0784
 7052SOL    HW227974   5.878   3.203   3.912 -2.5372  0.0540 -0.4326
 7052SOL    HW327975   5.886   3.351   3.881  0.5251  0.1231  0.3671
 7052SOL    MW427976   5.880   3.286   3.939 -0.0756  0.6711  0.3986
 7053SOL     OW27977   4.717   0.549   4.078  0.4393 -0.0625 -0.3790
 7053SOL    HW227978   4.704   0.460   4.044 -0.1532 -0.0554 -0.1715
 7053SOL    HW327979   4.630   0.588   4.077  0.5965  0.3064  0.1336
 7053SOL    MW427980   4.704   0.543   4.073 -0.5526  0.3347  0.3839
 7054SOL     OW27981   0.348   5.509   3.544  0.0881 -0.0216  0.4112
 7054SOL    HW227982   0.310   5.437   3.595  0.4485 -0.7100 -0.2694
 7054SOL    HW327983   0.382   5.466   3.466  0.7105  0.8385  0.2094
 7054SOL    MW427984   0.347   5.494   3.541  0.6552  0.1764 -0.6440
 7055SOL     OW27985   1.500   2.262   1.443  0.4502 -0.1603  0.1767
 7055SOL    HW227986   1.506   2.219   1.528 -1.1938  0.0696  0.4550
 7055SOL    HW327987   1.502   2.191   1.380  3.4142 -0.2478  0.2288
 7055SOL    MW427988   1.501   2.247   1.446  0.3846  0.8558 -0.1290
 7056SOL     OW27989   0.477   4.558   3.858  0.2612  0.4551  0.1110
 7056SOL    HW227990   0.540   4.505   3.808 -1.6621 -0.9288 -0.9716
 7056SOL    HW327991   0.456   4.631   3.800  0.4744  0.6195  0.2427
 7056SOL    MW427992   0.483   4.560   3.844 -0.1828 -0.2475  0.4555
 7057SOL     OW27993   0.455   6.124   3.839 -0.9306 -0.0913 -0.7090
 7057SOL    HW227994   0.532   6.067   3.845 -0.2056  0.9682  0.8454
 7057SOL    HW327995   0.395   6.091   3.906 -0.3130  1.1808  0.5267
 7057SOL    MW427996   0.457   6.112   3.849  0.2434 -0.5732 -0.3680
 7058SOL     OW27997   0.095   6.197   2.972 -0.3861 -0.3518 -0.1194
 7058SOL    HW227998   0.077   6.290   2.983  0.1821 -0.0844 -1.2433
 7058SOL    HW327999   0.106   6.164   3.061 -3.0181  0.1190  0.4481
 7058SOL    MW428000   0.094   6.205   2.985 -0.0970  0.0730 -0.1571
 7059SOL     OW28001   2.009   2.774   3.374 -0.0440  0.2830  0.1931
 7059SOL    HW228002   2.033   2.844   3.314 -0.7290  1.6915  1.4863
 7059SOL    HW328003   2.033   2.693   3.328  3.6344  1.3892 -0.1484
 7059SOL    MW428004   2.015   2.772   3.360  0.6695 -0.0894 -0.2491
 7060SOL     OW28005   0.478   5.913   3.463  0.7463 -0.0525 -0.2043
 7060SOL    HW228006   0.507   5.830   3.425 -1.2695 -1.0095  0.2037
 7060SOL    HW328007   0.500   5.979   3.397 -1.4905 -1.4772 -2.5401
 7060SOL    MW428008   0.485   5.911   3.449 -0.1993  0.0202  0.1797
 7061SOL     OW28009   5.169   2.459   1.742 -0.2861  0.7705 -0.6104
 7061SOL    HW228010   5.251   2.465   1.792  0.4698  0.1976 -1.7317
 7061SOL    HW328011   5.129   2.546   1.751  0.6077  1.1653 -0.3061
 7061SOL    MW428012   5.175   2.472   1.750 -0.0501 -0.3917 -0.2277
 7062SOL     OW28013   2.601   0.861   1.735  0.7046  0.3489 -0.2119
 7062SOL    HW228014   2.604   0.771   1.704  0.4381  0.0227  0.6944
 7062SOL    HW328015   2.600   0.854   1.830 -0.5437  1.2623 -0.1329
 7062SOL    MW428016   2.601   0.848   1.743  0.5239 -0.0000  0.5838
 7063SOL     OW28017   3.750   4.173   2.226  0.4143  0.1142 -0.1959
 7063SOL    HW228018   3.810   4.103   2.199  1.5549  0.3909  1.5056
 7063SOL    HW328019   3.792   4.212   2.302 -2.1246  0.0870  1.3039
 7063SOL    MW428020   3.764   4.169   2.232  0.2273  0.0222  0.4087
 7064SOL     OW28021   5.125   1.263   1.288 -0.0861 -0.4084 -0.1147
 7064SOL    HW228022   5.192   1.286   1.353  0.5772 -0.7026 -0.6769
 7064SOL    HW328023   5.174   1.254   1.206 -0.6902 -1.4727 -0.3708
 7064SOL    MW428024   5.140   1.265   1.286  0.2105  0.5957  0.2951
 7065SOL     OW28025   4.189   1.450   5.461 -0.2688  0.5000  0.0754
 7065SOL    HW228026   4.274   1.420   5.429 -0.6959 -0.6218 -0.0496
 7065SOL    HW328027   4.158   1.510   5.393  0.6699  1.3823  0.4009
 7065SOL    MW428028   4.196   1.454   5.448  0.4033 -0.2518  0.3300
 7066SOL     OW28029   2.081   0.158   4.263 -0.0858  0.0991  0.1870
 7066SOL    HW228030   2.043   0.072   4.284 -1.2752  0.2510 -1.1505
 7066SOL    HW328031   2.047   0.178   4.175  0.5545  1.7258  0.2753
 7066SOL    MW428032   2.072   0.149   4.254 -0.2053  0.4578 -0.2133
 7067SOL     OW28033   5.454   4.451   5.210  0.6024 -0.4530  0.2492
 7067SOL    HW228034   5.542   4.456   5.172  0.3537  1.3767 -0.2077
 7067SOL    HW328035   5.469   4.436   5.303  1.4785  1.1561  0.3995
 7067SOL    MW428036   5.468   4.450   5.217  0.1291 -0.0625  0.1074
 7068SOL     OW28037   2.671   5.405   2.213  0.8669  0.0903  0.2986
 7068SOL    HW228038   2.603   5.387   2.279  0.2119 -1.8938 -0.8320
 7068SOL    HW328039   2.735   5.335   2.225  0.3446 -0.7653 -1.6379
 7068SOL    MW428040   2.670   5.393   2.224  0.3955 -0.2062 -0.2106
 7069SOL     OW28041   2.960   1.513   4.869  0.8177  0.1602 -0.0159
 7069SOL    HW228042   2.927   1.530   4.780 -1.6070 -0.7866  0.6452
 7069SOL    HW328043   2.910   1.438   4.899  1.9847  0.1381  1.9834
 7069SOL    MW428044   2.949   1.506   4.861  0.0861 -0.0904 -0.7123
 7070SOL     OW28045   5.253   0.316   1.029 -0.1297  0.1998  0.0487
 7070SOL    HW228046   5.168   0.307   1.073 -0.2871  1.8307  0.1534
 7070SOL    HW328047   5.268   0.231   0.988 -0.6368 -0.9376  2.0775
 7070SOL    MW428048   5.244   0.303   1.029 -0.9468 -0.1207  0.0084
 7071SOL     OW28049   5.200   0.644   6.355 -0.2140  0.1188  0.0058
 7071SOL    HW228050   5.256   0.598   6.292 -0.5045  1.3397 -1.1862
 7071SOL    HW328051   5.185   0.580   6.425 -0.5181 -1.5410 -1.5210
 7071SOL    MW428052   5.206   0.630   6.356 -0.3406 -1.2366 -0.2633
 7072SOL     OW28053   3.433   3.829   2.972  0.5412 -0.0564  0.3201
 7072SOL    HW228054   3.509   3.862   2.925 -1.0521 -0.1994 -2.5896
 7072SOL    HW328055   3.393   3.766   2.911 -1.8291 -0.0662  1.7634
 7072SOL    MW428056   3.438   3.825   2.958 -0.4669  0.2681  0.0631
 7073SOL     OW28057   3.005   0.094   1.296  0.5705 -0.3868  0.1943
 7073SOL    HW228058   2.918   0.125   1.272  0.3691 -0.9991  0.1254
 7073SOL    HW328059   2.989   0.013   1.344  1.1423 -1.0131 -0.6509
 7073SOL    MW428060   2.991   0.087   1.299  0.1343 -0.5462 -0.1783
 7074SOL     OW28061   2.368   4.659   2.906 -0.1736  0.0933 -0.1535
 7074SOL    HW228062   2.445   4.642   2.961 -0.9226  0.3277  1.0201
 7074SOL    HW328063   2.375   4.752   2.884  0.2617 -0.0600 -0.6851
 7074SOL    MW428064   2.379   4.669   2.911  0.5407 -0.4329 -0.2172
 7075SOL     OW28065   4.669   3.355   3.352  0.2119  0.1038  0.0524
 7075SOL    HW228066   4.743   3.370   3.294 -0.8363  1.8740 -0.9152
 7075SOL    HW328067   4.634   3.442   3.370 -1.9506 -0.6918  0.0366
 7075SOL    MW428068   4.674   3.369   3.347  0.4352  0.3531  0.3862
 7076SOL     OW28069   3.994   3.510   4.468  0.1696 -0.3378 -0.1038
 7076SOL    HW228070   3.945   3.592   4.462 -0.2605 -0.6386 -0.9126
 7076SOL    HW328071   4.080   3.530   4.433 -0.5944 -0.7225 -2.3557
 7076SOL    MW428072   3.999   3.523   4.463  0.1083 -0.2068 -0.5186
 7077SOL     OW28073   4.570   5.553   3.434  0.3066  0.4899 -0.5314
 7077SOL    HW228074   4.531   5.495   3.369  0.1363 -0.9312  0.8001
 7077SOL    HW328075   4.657   5.573   3.399  0.5338 -0.9291 -0.8158
 7077SOL    MW428076   4.576   5.548   3.421  0.2649  0.1287  0.4162
 7078SOL     OW28077   0.522   2.714   4.256  0.4196  0.5815 -0.2183
 7078SOL    HW228078   0.540   2.790   4.312  0.5485 -0.0125  0.5650
 7078SOL    HW328079   0.478   2.652   4.313 -1.7711  0.9319 -1.4211
 7078SOL    MW428080   0.519   2.716   4.271  0.6850 -0.0197 -0.0960
 7079SOL     OW28081   0.029   3.334   5.974  0.0827 -0.0388 -0.5164
 7079SOL    HW228082   0.046   3.356   6.065  0.4899 -0.5012 -0.4746
 7079SOL    HW328083   0.029   3.418   5.928  0.7813  0.1211 -0.2322
 7079SOL    MW428084   0.031   3.348   5.980  0.1573  0.2520  0.6199
 7080SOL     OW28085   0.464   3.851   2.063  0.3722 -0.7878 -0.1566
 7080SOL    HW228086   0.541   3.800   2.086  1.1296  0.7765  1.0254
 7080SOL    HW328087   0.438   3.893   2.145 -0.9304 -0.2242 -0.8208
 7080SOL    MW428088   0.471   3.850   2.077 -0.5987 -0.0153  0.2324
 7081SOL     OW28089   4.812   3.318   0.143 -0.0682  0.3459  0.7261
 7081SOL    HW228090   4.814   3.408   0.174 -0.2128  0.9035 -0.8309
 7081SOL    HW328091   4.719   3.299   0.130  0.0493  0.4474 -0.2790
 7081SOL    MW428092   4.800   3.327   0.146  0.1686 -0.2559  0.1634
 7082SOL     OW28093   0.446   1.360   5.857 -0.0264 -0.6455  0.2093
 7082SOL    HW228094   0.364   1.398   5.889  0.8034  1.6231 -0.1266
 7082SOL    HW328095   0.512   1.391   5.919  1.0855  0.7494 -1.5628
 7082SOL    MW428096   0.444   1.369   5.870  0.1015 -0.0401 -0.2312
 7083SOL     OW28097   1.035   6.412   5.455  0.0829 -0.0151  0.1410
 7083SOL    HW228098   0.992   6.362   5.524 -0.2475 -0.3509 -0.3011
 7083SOL    HW328099   1.112   6.360   5.432  0.5705  0.4322  0.7164
 7083SOL    MW428100   1.040   6.398   5.461  0.0619  0.6097  0.4341
 7084SOL     OW28101   2.554   2.826   5.910 -0.2854 -0.2515 -0.1384
 7084SOL    HW228102   2.597   2.755   5.862  0.4649  0.4146 -0.4834
 7084SOL    HW328103   2.462   2.801   5.913  0.1438 -1.8653  0.8809
 7084SOL    MW428104   2.548   2.813   5.904  0.0796 -0.3466 -0.0007
 7085SOL     OW28105   2.677   5.038   1.244 -0.2464  0.6530  0.1484
 7085SOL    HW228106   2.620   5.032   1.167 -0.6266 -3.0043  0.5045
 7085SOL    HW328107   2.623   5.081   1.310 -1.3207  0.4877 -0.5861
 7085SOL    MW428108   2.662   5.043   1.242 -0.8186 -0.5841  0.2026
 7086SOL     OW28109   0.703   3.084   4.105 -0.1432  0.6128  0.1694
 7086SOL    HW228110   0.626   3.136   4.080 -1.5623 -1.1026  0.8095
 7086SOL    HW328111   0.685   2.996   4.071  0.6856 -0.2737  1.9072
 7086SOL    MW428112   0.690   3.079   4.097  0.0245 -0.3285 -0.2486
 7087SOL     OW28113   3.261   5.736   0.700 -0.8857 -0.2113  0.2581
 7087SOL    HW228114   3.200   5.668   0.728 -2.2588  0.6841 -0.4215
 7087SOL    HW328115   3.267   5.795   0.776 -0.8532 -0.3192  0.3388
 7087SOL    MW428116   3.254   5.735   0.714  0.1834  0.0439  0.0455
 7088SOL     OW28117   1.262   6.398   1.136  0.0035  0.3832  0.3367
 7088SOL    HW228118   1.203   6.463   1.100 -1.7432 -1.1582  0.2964
 7088SOL    HW328119   1.247   6.402   1.231 -2.0852 -1.6915  0.1643
 7088SOL    MW428120   1.252   6.407   1.144  0.3224 -0.0248 -0.2492
 7089SOL     OW28121   0.059   3.237   4.975  0.1854 -0.1280  0.8230
 7089SOL    HW228122  -0.031   3.220   5.005 -0.2742 -2.4871 -1.4741
 7089SOL    HW328123   0.098   3.150   4.967  1.9156  0.6996 -0.4019
 7089SOL    MW428124   0.052   3.223   4.978  0.4400  0.3375 -0.3625
 7090SOL     OW28125   2.846   4.803   1.247 -0.7021 -0.2443 -0.0772
 7090SOL    HW228126   2.894   4.783   1.327  1.9260 -0.0949 -1.4607
 7090SOL    HW328127   2.778   4.864   1.273  0.4996  0.3179  1.9366
 7090SOL    MW428128   2.844   4.808   1.261  0.5388 -0.1683 -0.4104
 7091SOL     OW28129   3.929   1.813   3.865 -0.8499  0.2419  0.2006
 7091SOL    HW228130   3.885   1.893   3.837 -1.5172  0.2938  1.3410
 7091SOL    HW328131   3.865   1.744   3.845 -0.7889  0.1384  0.3646
 7091SOL    MW428132   3.915   1.814   3.859  0.0108 -1.2235 -0.1482
 7092SOL     OW28133   0.736   4.633   2.034  0.2260 -0.1082  0.3534
 7092SOL    HW228134   0.666   4.574   2.007  1.7879 -0.9604 -2.1902
 7092SOL    HW328135   0.756   4.607   2.124 -0.6213 -1.9736  0.0451
 7092SOL    MW428136   0.729   4.622   2.043  0.1078 -0.2825  0.4037
 7093SOL     OW28137   2.847   5.466   5.845  0.2323  0.4335  0.3874
 7093SOL    HW228138   2.883   5.462   5.933 -0.9306  2.7394  1.0629
 7093SOL    HW328139   2.760   5.427   5.852  0.8887 -1.2322 -0.2571
 7093SOL    MW428140   2.841   5.461   5.857 -0.0015  0.1230 -0.0627
 7094SOL     OW28141   4.995   1.918   2.625  0.1742  0.1988  0.0164
 7094SOL    HW228142   4.931   1.983   2.594  1.1088  0.8650 -0.5814
 7094SOL    HW328143   5.060   1.970   2.673  0.2406 -0.4765  0.6765
 7094SOL    MW428144   4.995   1.934   2.627 -0.7245 -0.5504 -0.2452
 7095SOL     OW28145   0.544   0.201   3.834 -0.0584  0.1485 -0.1020
 7095SOL    HW228146   0.629   0.194   3.878 -0.1549 -1.8036 -0.1216
 7095SOL    HW328147   0.552   0.144   3.758 -0.7337  1.5453 -1.2694
 7095SOL    MW428148   0.556   0.193   3.830  0.3847  0.7454 -0.0324
 7096SOL     OW28149   3.327   4.755   1.657 -0.1665 -0.3772 -0.3029
 7096SOL    HW228150   3.383   4.754   1.579  0.6156 -1.3924  0.2444
 7096SOL    HW328151   3.353   4.835   1.704  0.8322 -0.8156 -0.0725
 7096SOL    MW428152   3.338   4.766   1.653  0.0035 -0.0178  0.3105
 7097SOL     OW28153   3.517   3.369   2.732 -0.9639 -0.4701 -0.0371
 7097SOL    HW228154   3.552   3.325   2.809  1.5640 -0.0781 -0.8761
 7097SOL    HW328155   3.455   3.434   2.767  0.1599 -0.2608  1.6552
 7097SOL    MW428156   3.513   3.372   2.747 -0.5342  0.2513  0.0547
 7098SOL     OW28157   4.849   2.112   6.044 -0.5617 -0.0480 -0.0645
 7098SOL    HW228158   4.835   2.019   6.056  2.1558 -0.3559  1.5392
 7098SOL    HW328159   4.795   2.154   6.111 -0.3986 -0.5947  0.4119
 7098SOL    MW428160   4.840   2.106   6.054  0.7976  0.2174  0.3061
 7099SOL     OW28161   0.436   5.051   1.486 -0.1366  0.0199  0.1224
 7099SOL    HW228162   0.527   5.045   1.456  0.0673 -0.2337  0.7820
 7099SOL    HW328163   0.436   5.124   1.547 -0.4407  0.2063 -0.1017
 7099SOL    MW428164   0.448   5.060   1.490 -0.4902 -0.3440 -0.0472
 7100SOL     OW28165   3.092   2.207   1.830 -0.4362 -0.1018 -0.3336
 7100SOL    HW228166   3.024   2.162   1.881  0.4567 -0.0042  0.9746
 7100SOL    HW328167   3.071   2.300   1.838 -0.5518 -0.1090 -0.5348
 7100SOL    MW428168   3.080   2.213   1.838  0.2492 -0.0572 -0.3428
 7101SOL     OW28169   2.355   1.787   1.762 -0.6647  0.0286 -0.2458
 7101SOL    HW228170   2.367   1.837   1.842 -1.0069 -0.6217  0.2247
 7101SOL    HW328171   2.424   1.721   1.765 -0.3724  0.3071 -0.7347
 7101SOL    MW428172   2.366   1.785   1.773 -0.1361  0.7053 -0.2519
 7102SOL     OW28173   3.248   5.219   2.243 -0.1190  0.3947 -0.0284
 7102SOL    HW228174   3.331   5.173   2.228 -0.3947  0.1033 -0.6696
 7102SOL    HW328175   3.196   5.202   2.165 -0.9088  0.3207  0.5038
 7102SOL    MW428176   3.252   5.211   2.231  0.2323 -0.0190 -0.0024
 7103SOL     OW28177   4.024   2.625   5.482  0.2626  0.6089 -0.2257
 7103SOL    HW228178   3.951   2.627   5.420  1.2286  0.7545 -1.3912
 7103SOL    HW328179   3.982   2.611   5.567 -0.9978 -1.2501 -1.0633
 7103SOL    MW428180   4.009   2.623   5.485  0.0705 -1.0270 -0.0166
 7104SOL     OW28181   4.172   5.394   4.704  0.3069 -0.6183 -0.1992
 7104SOL    HW228182   4.202   5.311   4.739 -0.4196 -1.0416 -0.5517
 7104SOL    HW328183   4.082   5.402   4.737  0.3797  0.0350 -0.1499
 7104SOL    MW428184   4.164   5.384   4.713 -0.1658 -0.2147  1.0509
 7105SOL     OW28185   1.740   2.898   3.772 -0.2538  0.2072 -0.4787
 7105SOL    HW228186   1.696   2.817   3.796  1.0572 -0.6740 -0.9001
 7105SOL    HW328187   1.753   2.891   3.678  0.1971  0.7331 -0.4622
 7105SOL    MW428188   1.736   2.886   3.763  0.6052 -0.1241 -0.5463
 7106SOL     OW28189   5.253   5.313   6.134 -0.2585  0.3770  0.6111
 7106SOL    HW228190   5.234   5.228   6.096  2.4535 -0.8645  1.7722
 7106SOL    HW328191   5.204   5.314   6.217 -0.4323  0.0433  0.5122
 7106SOL    MW428192   5.244   5.302   6.140  0.3691 -0.5190 -0.4185
 7107SOL     OW28193   1.337   1.061   1.028  0.0159  0.1474  0.1343
 7107SOL    HW228194   1.337   1.047   0.933  2.2674 -1.2725  0.2762
 7107SOL    HW328195   1.252   1.028   1.057 -0.4968  0.1137 -1.3332
 7107SOL    MW428196   1.326   1.055   1.019  0.1629  0.0641  0.4519
 7108SOL     OW28197   2.808   0.720   5.542  0.2346  0.2338 -0.1256
 7108SOL    HW228198   2.739   0.726   5.476  1.3284 -1.0388 -1.4571
 7108SOL    HW328199   2.787   0.789   5.605 -1.4087  0.8454 -1.2758
 7108SOL    MW428200   2.796   0.730   5.542 -1.3284  0.3738  0.6336
 7109SOL     OW28201   1.839   4.677   5.632  0.3406 -0.5712  0.0851
 7109SOL    HW228202   1.901   4.652   5.563  1.3386 -0.7170  1.0051
 7109SOL    HW328203   1.803   4.594   5.663 -0.0033 -0.5155 -0.1639
 7109SOL    MW428204   1.843   4.663   5.627  0.1106  0.9874 -0.2186
 7110SOL     OW28205   3.935   0.081   6.373 -0.0009  0.2154 -0.1364
 7110SOL    HW228206   3.869   0.114   6.435  1.3428 -0.3034  1.6390
 7110SOL    HW328207   4.018   0.116   6.405  0.9082 -1.1964 -0.8443
 7110SOL    MW428208   3.937   0.090   6.386  0.4697 -0.0423  0.0401
 7111SOL     OW28209   4.761   4.568   4.034  0.9840 -0.2497 -0.1057
 7111SOL    HW228210   4.749   4.476   4.060  0.6840  0.2974  1.8434
 7111SOL    HW328211   4.688   4.586   3.975  0.2462 -0.8993  0.5848
 7111SOL    MW428212   4.750   4.558   4.029 -0.2161 -0.0908 -0.0143
 7112SOL     OW28213   6.384   2.805   4.397 -0.7333 -0.2137 -0.6946
 7112SOL    HW228214   6.318   2.829   4.462 -1.1681 -2.1857 -0.3384
 7112SOL    HW328215   6.389   2.710   4.402  1.7336 -0.1733 -1.1487
 7112SOL    MW428216   6.376   2.796   4.406  1.0779  0.0771  0.7394
 7113SOL     OW28217   5.425   1.868   1.005 -0.2025 -0.2183 -0.3075
 7113SOL    HW228218   5.495   1.919   0.964  0.9066 -1.7834 -0.4783
 7113SOL    HW328219   5.384   1.821   0.932  0.4882 -1.4975  0.0824
 7113SOL    MW428220   5.429   1.868   0.990  0.0532 -0.1579  0.2052
 7114SOL     OW28221   3.423   4.678   6.364 -0.4110 -0.0881 -0.2251
 7114SOL    HW228222   3.439   4.599   6.313  3.1173  0.6317 -0.4398
 7114SOL    HW328223   3.386   4.646   6.447 -1.7348 -1.6390 -1.3584
 7114SOL    MW428224   3.420   4.664   6.369  0.0600  0.5446  0.4218
 7115SOL     OW28225   6.326   6.130   1.986  0.4357 -0.0950  0.3279
 7115SOL    HW228226   6.351   6.091   1.902 -0.6225 -3.0696  1.2508
 7115SOL    HW328227   6.235   6.156   1.975  1.0816  2.1046 -0.2189
 7115SOL    MW428228   6.317   6.128   1.974 -0.3979 -0.5868  0.0890
 7116SOL     OW28229   1.201   2.655   3.362  0.7687  0.1304  0.1129
 7116SOL    HW228230   1.160   2.570   3.349  0.5053  0.0341  1.3646
 7116SOL    HW328231   1.129   2.717   3.361  0.7212  0.1096  1.0310
 7116SOL    MW428232   1.186   2.652   3.360  0.9232  0.3737 -0.1921
 7117SOL     OW28233   6.119   2.648   3.956  0.1116 -0.7282 -0.2521
 7117SOL    HW228234   6.030   2.680   3.967  0.5662  0.7956 -0.6843
 7117SOL    HW328235   6.170   2.695   4.021  0.9783  0.2556 -1.5748
 7117SOL    MW428236   6.114   2.658   3.966 -0.1811 -0.4695  0.1714
 7118SOL     OW28237   4.994   5.666   5.740 -0.6582 -0.2421  0.5023
 7118SOL    HW228238   5.053   5.598   5.708  0.6929  1.2609 -0.4027
 7118SOL    HW328239   4.997   5.733   5.671 -2.7300  0.2935  0.8776
 7118SOL    MW428240   5.002   5.666   5.726  0.3634 -0.1458 -0.0383
 7119SOL     OW28241   4.723   3.383   1.532  0.1015 -0.5935  0.4977
 7119SOL    HW228242   4.732   3.323   1.459  1.0540 -0.0091  0.1190
 7119SOL    HW328243   4.697   3.328   1.606 -0.7215 -1.2076 -0.2350
 7119SOL    MW428244   4.720   3.368   1.532 -0.0156  0.8273  0.0372
 7120SOL     OW28245   3.250   1.380   0.259 -0.1893 -0.4184  0.1719
 7120SOL    HW228246   3.317   1.312   0.250  0.0184 -0.0394 -1.4464
 7120SOL    HW328247   3.295   1.462   0.238 -0.3626  0.3346  2.3768
 7120SOL    MW428248   3.264   1.382   0.255  0.1975 -0.1090 -0.0051
 7121SOL     OW28249   6.401   3.584   5.862 -0.1310 -0.2448  0.2196
 7121SOL    HW228250   6.483   3.580   5.812  0.5612 -2.3219  1.3905
 7121SOL    HW328251   6.335   3.552   5.801  0.2099 -0.1147 -0.2257
 7121SOL    MW428252   6.403   3.579   5.847  0.5114  0.6121  0.3129
 7122SOL     OW28253   4.944   2.992   1.645 -0.3640 -0.1100  0.0397
 7122SOL    HW228254   4.988   2.916   1.605 -0.0003  0.3806 -0.5235
 7122SOL    HW328255   4.852   2.981   1.623 -0.3437 -0.5039  0.1488
 7122SOL    MW428256   4.938   2.981   1.636 -0.6221  0.0005 -0.2433
 7123SOL     OW28257   1.536   2.949   6.291 -0.0585  0.2123 -0.2095
 7123SOL    HW228258   1.629   2.957   6.312  0.0922 -0.5330 -0.5554
 7123SOL    HW328259   1.525   2.857   6.266 -0.7486  0.4622 -0.8494
 7123SOL    MW428260   1.546   2.938   6.290 -0.3715  0.4556 -0.6745
 7124SOL     OW28261   0.363   4.840   2.086 -0.2798  0.4209  0.0617
 7124SOL    HW228262   0.269   4.854   2.076 -0.1319  1.4149 -0.0180
 7124SOL    HW328263   0.373   4.806   2.175 -0.9384 -2.0502 -0.7260
 7124SOL    MW428264   0.352   4.837   2.097 -0.2046  0.2051 -0.0916
 7125SOL     OW28265   2.483   5.074   3.250 -0.3600  0.1911 -0.4031
 7125SOL    HW228266   2.532   5.106   3.326 -3.5714  0.8076  1.5889
 7125SOL    HW328267   2.466   4.982   3.270  1.3655 -0.5164 -1.9339
 7125SOL    MW428268   2.487   5.066   3.263 -0.2638 -0.6269  0.1764
 7126SOL     OW28269   0.735   0.319   3.274 -0.6191  0.0788  0.2028
 7126SOL    HW228270   0.664   0.332   3.210 -1.3968 -2.4128  0.4259
 7126SOL    HW328271   0.790   0.251   3.234  0.0899  0.0306  1.2422
 7126SOL    MW428272   0.733   0.312   3.260  0.4143  0.4102  0.5553
 7127SOL     OW28273   2.536   5.370   0.972 -0.3874 -0.4081 -0.0156
 7127SOL    HW228274   2.456   5.381   1.023 -1.1435 -0.1641 -1.2375
 7127SOL    HW328275   2.606   5.372   1.038 -1.2978  0.3593  0.9668
 7127SOL    MW428276   2.535   5.371   0.988 -0.4535 -0.2886 -0.0788
 7128SOL     OW28277   3.733   2.221   4.143 -0.1885  0.3447  0.0029
 7128SOL    HW228278   3.651   2.183   4.176  0.0768  0.5398  0.9117
 7128SOL    HW328279   3.800   2.188   4.203  0.6578 -1.0734 -1.6212
 7128SOL    MW428280   3.731   2.211   4.155 -0.2653 -0.0037  0.5587
 7129SOL     OW28281   2.654   2.568   1.420 -0.2211 -0.1856 -0.4073
 7129SOL    HW228282   2.745   2.598   1.413  0.0589 -0.2905  1.9173
 7129SOL    HW328283   2.602   2.647   1.411  0.0538 -0.1312 -1.8280
 7129SOL    MW428284   2.659   2.582   1.418  0.2783 -0.4941 -0.2102
 7130SOL     OW28285   1.026   2.127   5.339 -0.0403  0.1501 -0.2385
 7130SOL    HW228286   1.044   2.041   5.377  0.9313  0.2169 -0.5216
 7130SOL    HW328287   1.110   2.174   5.344 -0.9074  1.6389  1.3064
 7130SOL    MW428288   1.040   2.122   5.344  0.3015 -0.0320  0.2538
 7131SOL     OW28289   3.637   0.842   0.915 -0.1514  0.1069  0.3658
 7131SOL    HW228290   3.657   0.913   0.976  1.3143 -0.1269  0.1925
 7131SOL    HW328291   3.704   0.776   0.932 -0.9780 -0.8722 -0.0722
 7131SOL    MW428292   3.648   0.843   0.925 -0.5499 -0.7481 -0.0029
 7132SOL     OW28293   5.177   2.621   0.828  0.1740 -0.3038 -0.3322
 7132SOL    HW228294   5.250   2.660   0.780  0.7313 -0.9249 -0.0191
 7132SOL    HW328295   5.153   2.686   0.894 -0.5250  0.5105 -1.3637
 7132SOL    MW428296   5.184   2.634   0.831 -0.1375  0.3692 -0.2166
 7133SOL     OW28297   0.939   6.250   5.671 -0.0060  0.1725  0.0715
 7133SOL    HW228298   0.990   6.178   5.634  1.9391  2.0640 -1.1980
 7133SOL    HW328299   0.998   6.292   5.734 -0.7742  1.1425  0.1800
 7133SOL    MW428300   0.953   6.246   5.674  0.2676 -0.2917  0.2544
 7134SOL     OW28301   5.101   2.307   4.370  0.3320  0.2172 -0.3351
 7134SOL    HW228302   5.160   2.373   4.333  0.3606  0.9221  0.8973
 7134SOL    HW328303   5.145   2.279   4.450 -0.1035 -0.6753 -0.4049
 7134SOL    MW428304   5.115   2.312   4.376 -0.2037 -0.3255  0.4644
 7135SOL     OW28305   3.557   5.409   0.329 -0.4762 -0.3003 -0.5099
 7135SOL    HW228306   3.599   5.440   0.409 -1.5407  0.6679 -0.2855
 7135SOL    HW328307   3.470   5.449   0.331 -1.1481 -1.6463 -1.2992
 7135SOL    MW428308   3.551   5.418   0.340 -0.3173  0.1550 -0.3043
 7136SOL     OW28309   0.560   5.264   3.619  0.0881 -0.1717 -0.1100
 7136SOL    HW228310   0.585   5.356   3.604  1.1680 -0.4979 -0.3845
 7136SOL    HW328311   0.468   5.269   3.646 -0.1240  0.9286 -0.9275
 7136SOL    MW428312   0.551   5.277   3.621 -0.1562  0.5632  0.0639
 7137SOL     OW28313   6.154   1.348   5.424  0.2870 -0.2595  0.1694
 7137SOL    HW228314   6.195   1.277   5.473  1.7240 -1.6895 -2.8190
 7137SOL    HW328315   6.225   1.389   5.376 -1.1014  0.2690 -1.5611
 7137SOL    MW428316   6.168   1.344   5.424 -0.2306 -0.1780  0.2228
 7138SOL     OW28317   1.389   4.994   1.102  0.3831  0.2148 -0.6641
 7138SOL    HW228318   1.332   5.067   1.078 -0.6284 -0.3752 -0.1050
 7138SOL    HW328319   1.446   5.030   1.171 -1.0271  0.1227  0.5964
 7138SOL    MW428320   1.389   5.008   1.108 -0.3079 -0.4612 -0.1954
 7139SOL     OW28321   0.352   2.901   3.420 -0.1158  0.0151 -0.3393
 7139SOL    HW228322   0.406   2.828   3.449 -0.0913  0.1319 -0.0853
 7139SOL    HW328323   0.370   2.909   3.326  2.3218  1.6693  0.1620
 7139SOL    MW428324   0.362   2.893   3.411 -0.4406 -0.1725  0.2506
 7140SOL     OW28325   5.978   2.524   2.217  0.1983 -0.6465 -0.0572
 7140SOL    HW228326   6.045   2.592   2.220 -1.1939  0.7461  1.1459
 7140SOL    HW328327   5.930   2.534   2.299 -1.0341 -2.0675 -0.5614
 7140SOL    MW428328   5.981   2.534   2.228 -0.5603 -0.0194  0.8919
 7141SOL     OW28329   0.608   6.076   2.231 -0.0333 -0.0170  0.0794
 7141SOL    HW228330   0.671   6.089   2.302 -1.7101  1.6414  1.3720
 7141SOL    HW328331   0.599   6.163   2.192 -0.3558 -0.5741 -1.1155
 7141SOL    MW428332   0.615   6.089   2.235 -0.5036  0.0449 -0.2624
 7142SOL     OW28333   5.422   3.098   1.566 -0.2195  0.8209 -0.5189
 7142SOL    HW228334   5.399   3.006   1.560  0.5743  0.5544  0.3188
 7142SOL    HW328335   5.507   3.099   1.611 -1.7421  2.1259  2.6201
 7142SOL    MW428336   5.430   3.086   1.571 -0.2137 -0.5923 -0.1521
 7143SOL     OW28337   0.358   0.687   5.792 -0.2575 -0.2867 -0.1058
 7143SOL    HW228338   0.438   0.731   5.821  0.0530 -1.5043  0.9969
 7143SOL    HW328339   0.351   0.709   5.699  1.8593 -0.8583 -0.4599
 7143SOL    MW428340   0.368   0.696   5.784 -0.5840 -0.2157 -0.3653
 7144SOL     OW28341   1.331   0.054   3.276  0.2133  0.1549 -0.5848
 7144SOL    HW228342   1.336  -0.031   3.319 -1.4989 -0.3335 -1.2486
 7144SOL    HW328343   1.399   0.050   3.208 -0.9100 -1.3876 -1.7062
 7144SOL    MW428344   1.341   0.042   3.272  0.4629  0.6457 -0.2425
 7145SOL     OW28345   2.424   2.763   1.459 -0.7583  0.6775  0.0596
 7145SOL    HW228346   2.432   2.858   1.469 -1.3114  0.6474  0.8576
 7145SOL    HW328347   2.356   2.737   1.521  2.2392 -0.7908  3.0353
 7145SOL    MW428348   2.416   2.772   1.469  0.6484  0.4795  0.0468
 7146SOL     OW28349   3.355   2.841   3.613 -0.0423  0.4620  0.0611
 7146SOL    HW228350   3.345   2.933   3.637 -0.9561  0.4139 -0.0961
 7146SOL    HW328351   3.274   2.819   3.567  0.7122 -0.0733 -1.0603
 7146SOL    MW428352   3.343   2.850   3.610  0.0950 -0.4666 -0.2280
 7147SOL     OW28353   2.835   1.891   2.560 -0.3302  0.2368 -0.0649
 7147SOL    HW228354   2.890   1.929   2.491 -0.1050  0.5931  0.3077
 7147SOL    HW328355   2.815   1.803   2.529  2.5125 -0.8570  0.9195
 7147SOL    MW428356   2.840   1.884   2.547 -0.6793  0.5740 -0.4178
 7148SOL     OW28357   3.613   6.362   2.783  0.1565 -0.3384 -0.2325
 7148SOL    HW228358   3.576   6.369   2.871  0.8545  0.5527  0.0047
 7148SOL    HW328359   3.556   6.415   2.728  0.8232  0.7009  0.0570
 7148SOL    MW428360   3.601   6.370   2.787  0.3222  0.1319  0.1780
 7149SOL     OW28361   5.568   3.461   0.322  0.0245  0.6913 -0.0964
 7149SOL    HW228362   5.657   3.471   0.287 -0.0791 -0.6675 -0.7884
 7149SOL    HW328363   5.512   3.459   0.244 -0.4007 -0.4998  0.2250
 7149SOL    MW428364   5.573   3.462   0.307  0.2541  0.0355 -0.5014
 7150SOL     OW28365   3.789   2.846   6.141 -0.1566 -0.0129 -0.4618
 7150SOL    HW228366   3.750   2.927   6.172 -0.4159 -0.3146  0.0109
 7150SOL    HW328367   3.737   2.777   6.182  0.7536 -0.4205  0.0200
 7150SOL    MW428368   3.777   2.847   6.150 -0.4455 -0.0052  0.2131
 7151SOL     OW28369   4.472   6.384   3.661 -0.3957  0.0609  0.4720
 7151SOL    HW228370   4.539   6.452   3.648 -1.7240  0.9982 -2.1833
 7151SOL    HW328371   4.416   6.420   3.730  0.0466  0.7441  0.4935
 7151SOL    MW428372   4.474   6.398   3.669  0.5886  0.2802 -0.0250
 7152SOL     OW28373   2.216   2.995   1.254 -0.0793 -0.1518  0.7847
 7152SOL    HW228374   2.158   2.965   1.324  1.6726 -2.6562  1.2856
 7152SOL    HW328375   2.191   2.943   1.178  1.4747 -1.3179  1.0279
 7152SOL    MW428376   2.205   2.985   1.253  0.5368 -0.5831  0.2803
 7153SOL     OW28377   5.695   5.307   2.864 -0.0851  0.1133 -0.1318
 7153SOL    HW228378   5.732   5.345   2.944 -0.0387 -1.2271  0.5120
 7153SOL    HW328379   5.680   5.382   2.807 -0.0753  1.1064  1.1150
 7153SOL    MW428380   5.698   5.322   2.867 -0.0957  0.8752 -0.2572
 7154SOL     OW28381   5.505   0.654   2.640 -0.8823  0.0071  0.3254
 7154SOL    HW228382   5.512   0.749   2.627 -2.2539  0.0267 -0.4401
 7154SOL    HW328383   5.432   0.644   2.701 -1.3313 -0.5844 -0.2924
 7154SOL    MW428384   5.496   0.666   2.646 -0.0817 -0.3009  0.1940
 7155SOL     OW28385   1.580   0.909   5.289 -0.1939 -0.0519  0.0948
 7155SOL    HW228386   1.622   0.881   5.370 -0.8626 -1.1246  0.0913
 7155SOL    HW328387   1.552   0.999   5.306  0.1132 -0.1003  0.8790
 7155SOL    MW428388   1.582   0.917   5.302 -0.1531  0.5839 -0.1531
 7156SOL     OW28389   5.826   0.938   3.517 -0.1947  0.4480 -0.2671
 7156SOL    HW228390   5.798   0.975   3.601  0.4388 -0.7610  0.5200
 7156SOL    HW328391   5.754   0.957   3.457 -0.9151  0.8614  0.6927
 7156SOL    MW428392   5.813   0.945   3.520  0.0873 -0.4301  0.4341
 7157SOL     OW28393   0.235   4.267   1.282 -0.0567  0.5002 -0.3343
 7157SOL    HW228394   0.321   4.308   1.273  1.2266 -2.1830 -1.5450
 7157SOL    HW328395   0.252   4.191   1.337 -1.8083  0.2391 -0.1272
 7157SOL    MW428396   0.249   4.262   1.288 -0.8659  0.5147 -0.0177
 7158SOL     OW28397   0.509   5.199   4.774  0.0828 -0.1833 -0.4258
 7158SOL    HW228398   0.436   5.152   4.814  1.4782 -0.3875  2.1352
 7158SOL    HW328399   0.544   5.138   4.709 -0.3218 -1.2420  0.3161
 7158SOL    MW428400   0.504   5.185   4.771  0.1582 -0.4774 -0.0238
 7159SOL     OW28401   3.285   4.333   0.274  0.1183  0.2873  0.3992
 7159SOL    HW228402   3.298   4.238   0.273  2.1954  0.4231  2.6790
 7159SOL    HW328403   3.209   4.346   0.331 -0.8511 -0.0051 -0.7894
 7159SOL    MW428404   3.277   4.322   0.282  0.1031 -0.2217  0.6757
 7160SOL     OW28405   5.256   0.559   2.849  0.4792  0.1196  0.5601
 7160SOL    HW228406   5.246   0.480   2.903 -0.1576  0.5775  1.1381
 7160SOL    HW328407   5.320   0.612   2.897  0.6924  0.0749  0.3226
 7160SOL    MW428408   5.263   0.556   2.863  0.1784  0.2340 -0.0651
 7161SOL     OW28409   4.930   2.421   2.867 -0.8327  0.4448 -0.4069
 7161SOL    HW228410   4.890   2.335   2.867  1.0843 -0.5727 -2.8322
 7161SOL    HW328411   4.919   2.454   2.778  0.2358  1.8024 -0.0884
 7161SOL    MW428412   4.924   2.414   2.855 -0.9061 -0.0120  0.2729
 7162SOL     OW28413   4.895   3.294   4.227 -0.2474  0.3677  0.2200
 7162SOL    HW228414   4.968   3.349   4.255 -0.4984  1.5916 -1.3431
 7162SOL    HW328415   4.914   3.274   4.135 -0.9182 -0.9356  0.3396
 7162SOL    MW428416   4.907   3.299   4.219 -0.2625 -0.3122  0.1525
 7163SOL     OW28417   2.257   1.914   3.242 -0.1964 -0.4803  0.1322
 7163SOL    HW228418   2.259   1.869   3.157  0.4147  0.3568 -0.3135
 7163SOL    HW328419   2.167   1.948   3.248 -0.7067 -1.8456  0.5408
 7163SOL    MW428420   2.245   1.913   3.231  0.3373  0.0481  0.1213
 7164SOL     OW28421   6.399   1.996   5.329 -0.9054  0.6120  0.2782
 7164SOL    HW228422   6.317   1.971   5.286 -1.0459  1.0260  0.2975
 7164SOL    HW328423   6.462   2.007   5.257 -0.3782 -1.4162  0.3796
 7164SOL    MW428424   6.397   1.994   5.314 -0.1473  0.0890  0.4928
 7165SOL     OW28425   3.609   0.982   0.142 -0.2324 -0.3008  0.1962
 7165SOL    HW228426   3.630   0.991   0.235 -0.2936 -0.7302  0.2548
 7165SOL    HW328427   3.688   1.010   0.097 -0.0049 -0.6197  0.3898
 7165SOL    MW428428   3.622   0.987   0.149 -0.2826  0.1504 -0.2050
 7166SOL     OW28429   2.053   1.377   0.334 -0.4319  0.2987  0.1466
 7166SOL    HW228430   2.053   1.375   0.430 -0.7425  3.7978  0.3525
 7166SOL    HW328431   2.144   1.364   0.310 -0.2437  0.0673  0.9583
 7166SOL    MW428432   2.065   1.375   0.343  0.7093 -0.1035  0.1144
 7167SOL     OW28433   2.224   0.914   5.071  0.2441 -0.3323  0.1367
 7167SOL    HW228434   2.237   0.824   5.100 -1.5696 -0.2382  1.4130
 7167SOL    HW328435   2.299   0.962   5.108 -0.0932 -0.8913  1.6161
 7167SOL    MW428436   2.236   0.909   5.080  0.0917 -0.0735  1.1706
 7168SOL     OW28437   0.163   1.078   3.674  0.2828 -0.3555  0.0550
 7168SOL    HW228438   0.197   0.992   3.648  1.6067  0.1530  0.0565
 7168SOL    HW328439   0.148   1.070   3.768 -1.4801 -1.1859 -0.2532
 7168SOL    MW428440   0.166   1.066   3.683  0.2680 -0.0931  0.0240
 7169SOL     OW28441   2.413   0.029   0.065  0.4012 -0.4202 -0.2169
 7169SOL    HW228442   2.492   0.069   0.029  0.4674 -1.2282 -0.9736
 7169SOL    HW328443   2.434  -0.064   0.073 -0.6780 -0.7444 -1.0094
 7169SOL    MW428444   2.426   0.022   0.061 -0.3109 -0.7466  0.0764
 7170SOL     OW28445   0.448   5.379   1.342 -0.2665 -0.6393 -0.1663
 7170SOL    HW228446   0.447   5.377   1.438  1.6797  0.6032 -0.0472
 7170SOL    HW328447   0.356   5.372   1.317 -0.8460 -0.8177  1.7936
 7170SOL    MW428448   0.436   5.378   1.352 -0.4813 -0.1558  0.0974
 7171SOL     OW28449   1.459   1.910   0.659 -0.0243 -0.0633 -0.2719
 7171SOL    HW228450   1.445   1.844   0.727 -0.5126 -2.2308 -2.3319
 7171SOL    HW328451   1.550   1.898   0.632  0.2104  0.8815  0.0869
 7171SOL    MW428452   1.469   1.899   0.664  0.7774  0.2155  0.3855
 7172SOL     OW28453   1.722   4.962   0.321 -0.0138  0.3431 -0.7741
 7172SOL    HW228454   1.705   4.869   0.307  1.0366  0.2270 -1.4222
 7172SOL    HW328455   1.665   4.987   0.393  0.4982 -1.0733  0.1657
 7172SOL    MW428456   1.712   4.953   0.328  0.2962  0.0447 -0.3606
 7173SOL     OW28457   3.337   5.469   5.641 -0.2754 -0.1506  0.4540
 7173SOL    HW228458   3.369   5.407   5.576  0.9421  0.5546  0.3537
 7173SOL    HW328459   3.245   5.447   5.651 -0.8908  0.6227 -2.5477
 7173SOL    MW428460   3.329   5.458   5.634 -0.6206 -0.2536  0.2726
 7174SOL     OW28461   1.753   4.868   6.388 -0.0902 -0.4531 -0.1514
 7174SOL    HW228462   1.699   4.912   6.322  0.1543  1.6194  0.9410
 7174SOL    HW328463   1.704   4.788   6.409 -1.7265  0.3635 -0.6541
 7174SOL    MW428464   1.739   4.863   6.382 -0.1657  0.2378  0.3743
 7175SOL     OW28465   1.469   1.432   3.612 -0.5944 -0.3101  0.1057
 7175SOL    HW228466   1.430   1.361   3.562 -0.1584 -1.2609  1.0748
 7175SOL    HW328467   1.516   1.389   3.683  1.7404  0.8095 -0.6586
 7175SOL    MW428468   1.470   1.417   3.615 -0.4492 -0.4693 -0.0897
 7176SOL     OW28469   4.100   1.086   3.139 -0.0597  0.3576  0.0598
 7176SOL    HW228470   4.095   1.124   3.227  0.4903 -0.9622  0.6900
 7176SOL    HW328471   4.064   1.153   3.082 -2.3659  0.4749  1.5156
 7176SOL    MW428472   4.095   1.100   3.143  0.1684  0.1916  0.2591
 7177SOL     OW28473   4.297   0.800   3.852  0.4233  0.1114  0.2476
 7177SOL    HW228474   4.391   0.807   3.835  0.4271  1.9611  0.8416
 7177SOL    HW328475   4.270   0.888   3.878 -1.7232 -0.1002 -1.0218
 7177SOL    MW428476   4.306   0.813   3.853  0.5632 -0.7113 -0.0148
 7178SOL     OW28477   3.298   4.061   0.811 -0.5263 -0.1656  0.0003
 7178SOL    HW228478   3.263   4.095   0.729  0.7970  1.0467 -0.0998
 7178SOL    HW328479   3.374   4.009   0.786 -0.3304 -0.0976  0.4433
 7178SOL    MW428480   3.303   4.058   0.797  0.1615  0.8174  0.4574
 7179SOL     OW28481   6.350   4.265   5.396 -0.2897 -0.0094  0.0052
 7179SOL    HW228482   6.434   4.254   5.351 -0.4983  0.2824 -0.4737
 7179SOL    HW328483   6.363   4.225   5.482  0.9500  1.6801  0.6714
 7179SOL    MW428484   6.363   4.258   5.401  0.0023 -0.0206 -0.3644
 7180SOL     OW28485   2.733   0.273   3.531 -0.1117  0.0775 -0.1252
 7180SOL    HW228486   2.656   0.241   3.578 -1.4940 -2.0836 -3.5116
 7180SOL    HW328487   2.704   0.357   3.493 -1.1439 -1.0323 -1.9224
 7180SOL    MW428488   2.719   0.280   3.532 -0.5272 -0.3309 -0.6661
 7181SOL     OW28489   3.764   0.662   4.779  0.8946  0.1691  0.5818
 7181SOL    HW228490   3.811   0.729   4.829  0.1878  0.6769  0.5730
 7181SOL    HW328491   3.688   0.707   4.742  1.9259  0.0962 -1.8397
 7181SOL    MW428492   3.760   0.677   4.781 -0.4158 -0.0083 -0.5466
 7182SOL     OW28493   5.818   4.211   1.791 -0.0208 -0.3545  0.4058
 7182SOL    HW228494   5.903   4.169   1.784  0.6249  0.8121  0.8783
 7182SOL    HW328495   5.826   4.270   1.866 -1.4899 -0.7601  0.9206
 7182SOL    MW428496   5.830   4.214   1.800 -0.1290  0.0344 -0.0752
 7183SOL     OW28497   4.553   2.572   1.197 -0.2718  0.0810 -0.1179
 7183SOL    HW228498   4.578   2.607   1.283 -0.7045 -1.6924  0.7561
 7183SOL    HW328499   4.609   2.496   1.185 -0.4851  0.0905 -1.2522
 7183SOL    MW428500   4.564   2.567   1.207  0.0375  0.3992  0.5608
 7184SOL     OW28501   4.594   3.449   4.029 -0.7328 -0.8492  0.4639
 7184SOL    HW228502   4.579   3.543   4.018 -1.3327 -0.7279  2.0686
 7184SOL    HW328503   4.524   3.408   3.977 -1.3081 -0.3875  0.8624
 7184SOL    MW428504   4.583   3.456   4.020  0.1029 -0.4388  0.1741
 7185SOL     OW28505   4.059   4.318   3.367  0.2168 -0.4180  0.3648
 7185SOL    HW228506   4.153   4.324   3.385  0.0172 -1.3390  1.9586
 7185SOL    HW328507   4.023   4.399   3.404  0.3251 -0.3229  0.2610
 7185SOL    MW428508   4.067   4.329   3.375 -0.6452  0.4313 -0.5492
 7186SOL     OW28509   3.039   2.393   5.743  0.1720  0.4470  0.0199
 7186SOL    HW228510   3.079   2.480   5.741  2.3968 -0.5315 -0.9746
 7186SOL    HW328511   3.040   2.368   5.835  0.4043  1.0697  0.1936
 7186SOL    MW428512   3.044   2.402   5.754 -0.1722  0.3275 -0.1318
 7187SOL     OW28513   3.776   0.442   0.496 -0.0529  0.3746 -0.0971
 7187SOL    HW228514   3.789   0.480   0.582 -0.2998 -1.1474  0.6462
 7187SOL    HW328515   3.817   0.356   0.501  0.0804  0.3200 -1.5609
 7187SOL    MW428516   3.783   0.435   0.508 -0.0443 -0.4666  0.2185
 7188SOL     OW28517   2.377   5.429   1.199  0.4954  0.3166 -0.4423
 7188SOL    HW228518   2.295   5.383   1.219  1.1581 -0.4773  0.5628
 7188SOL    HW328519   2.349   5.513   1.164 -0.7568  0.0999 -0.0217
 7188SOL    MW428520   2.362   5.434   1.197  0.0489  0.1325  0.0567
 7189SOL     OW28521   0.749   4.271   2.867 -0.7032 -0.4373 -0.2312
 7189SOL    HW228522   0.764   4.362   2.891 -1.9834 -0.0342 -0.8264
 7189SOL    HW328523   0.678   4.242   2.926 -1.0877 -0.6820 -0.8036
 7189SOL    MW428524   0.741   4.279   2.878 -0.0865 -0.1891  0.3049
 7190SOL     OW28525   1.299   5.911   5.305 -0.2077 -0.4175 -0.3716
 7190SOL    HW228526   1.235   5.864   5.359 -2.2992  0.9777 -1.4690
 7190SOL    HW328527   1.248   5.941   5.230  1.3709  2.2123 -0.4893
 7190SOL    MW428528   1.283   5.908   5.302  0.5153 -0.1821 -0.1764
 7191SOL     OW28529   2.967   5.490   4.361  0.0266 -0.1239 -0.1127
 7191SOL    HW228530   3.021   5.460   4.435  0.2719 -0.4938 -0.4406
 7191SOL    HW328531   2.984   5.427   4.292  0.0161  0.3908 -0.5863
 7191SOL    MW428532   2.976   5.478   4.362  0.8018  0.3869  0.4080
 7192SOL     OW28533   0.424   1.306   0.242 -1.0700 -0.7674  0.4091
 7192SOL    HW228534   0.504   1.257   0.224 -0.2267  0.8687 -0.4610
 7192SOL    HW328535   0.354   1.242   0.225  0.0081 -2.1157  0.8310
 7192SOL    MW428536   0.425   1.291   0.237  0.2296  0.2164 -0.1542
 7193SOL     OW28537   3.170   1.138   0.500 -0.0173 -0.1904  0.3148
 7193SOL    HW228538   3.113   1.105   0.431  0.2946 -0.0584 -0.0061
 7193SOL    HW328539   3.213   1.060   0.536  0.0172 -0.2307  0.1848
 7193SOL    MW428540   3.168   1.123   0.496  0.7165  0.0779  0.3176
 7194SOL     OW28541   5.593   4.750   5.714  0.1867  0.1952 -0.1099
 7194SOL    HW228542   5.642   4.815   5.764  2.4407 -0.7114 -0.9727
 7194SOL    HW328543   5.586   4.674   5.773  3.2062 -1.0284 -1.0993
 7194SOL    MW428544   5.599   4.748   5.728  0.2957 -0.5341  0.1733
 7195SOL     OW28545   2.027   4.847   6.374 -0.0585  0.2953 -0.2737
 7195SOL    HW228546   2.039   4.797   6.294  0.9211  1.4776 -0.8953
 7195SOL    HW328547   1.932   4.857   6.382 -0.2411 -1.0700 -0.4663
 7195SOL    MW428548   2.016   4.842   6.365 -0.0888  0.3460 -0.0335
 7196SOL     OW28549   3.814   5.960   3.774  0.0758  0.2653 -0.4046
 7196SOL    HW228550   3.904   5.992   3.773  0.1264  0.1427  0.1279
 7196SOL    HW328551   3.770   6.012   3.706  0.6190  0.0977 -0.8945
 7196SOL    MW428552   3.820   5.971   3.765  0.2583 -0.2568 -0.1151
 7197SOL     OW28553   4.767   3.371   6.197  0.6257  0.0644 -0.4098
 7197SOL    HW228554   4.809   3.305   6.252 -1.3577 -1.2300 -0.3523
 7197SOL    HW328555   4.763   3.449   6.252  1.1489 -0.3816  0.2762
 7197SOL    MW428556   4.772   3.373   6.211 -0.5789 -0.1076  0.4104
 7198SOL     OW28557   1.651   3.585   3.203 -0.6502 -0.1568  0.2269
 7198SOL    HW228558   1.657   3.645   3.129  0.7905  0.0731  0.5011
 7198SOL    HW328559   1.659   3.498   3.164  1.0224 -0.0050  0.1630
 7198SOL    MW428560   1.653   3.582   3.188  0.2851 -0.1586  0.0668
 7199SOL     OW28561   6.383   6.328   4.199  0.0958  0.6261  0.2767
 7199SOL    HW228562   6.424   6.343   4.284 -2.2399  2.1059  1.2195
 7199SOL    HW328563   6.289   6.338   4.215 -0.4783  0.0894 -2.3172
 7199SOL    MW428564   6.376   6.331   4.212 -0.1220 -0.6987  0.4364
 7200SOL     OW28565   1.709   1.953   0.876  0.1494 -0.4197 -0.0731
 7200SOL    HW228566   1.629   1.902   0.864  0.3405 -0.6618 -0.3206
 7200SOL    HW328567   1.693   2.034   0.826 -0.1252 -0.2600  0.2649
 7200SOL    MW428568   1.696   1.957   0.868  0.5305 -0.5152 -0.5228
 7201SOL     OW28569   6.419   1.308   3.629  0.0020 -0.7444 -0.7069
 7201SOL    HW228570   6.494   1.255   3.658  0.7663  0.8966  0.4781
 7201SOL    HW328571   6.349   1.286   3.691  0.6167  0.2889  0.4007
 7201SOL    MW428572   6.420   1.298   3.641  0.5099  0.4964 -0.3096
 7202SOL     OW28573   0.024   1.153   5.869 -0.3364  0.1403  0.7211
 7202SOL    HW228574   0.021   1.118   5.780 -0.7691 -0.5520  1.0002
 7202SOL    HW328575   0.117   1.158   5.889 -0.2377  0.2496  0.2461
 7202SOL    MW428576   0.036   1.149   5.860  0.0424 -0.2295  0.9137
 7203SOL     OW28577   4.240   2.116   2.467 -0.3574 -0.2282  0.1163
 7203SOL    HW228578   4.171   2.086   2.526 -1.2786  0.9810 -0.2929
 7203SOL    HW328579   4.281   2.189   2.513 -0.1212 -0.1982 -0.1361
 7203SOL    MW428580   4.236   2.122   2.481 -0.4341 -0.6278 -0.0028
 7204SOL     OW28581   2.274   0.468   2.888  0.0117  0.3197 -0.9680
 7204SOL    HW228582   2.228   0.539   2.934  0.3516  0.3659 -0.6969
 7204SOL    HW328583   2.363   0.470   2.925  0.5915  1.0227 -2.3369
 7204SOL    MW428584   2.280   0.478   2.899 -0.1730  0.5067  0.0017
 7205SOL     OW28585   5.322   4.549   4.099  0.0813  0.4014 -0.1016
 7205SOL    HW228586   5.364   4.522   4.017  0.9536 -2.2607  1.1052
 7205SOL    HW328587   5.306   4.467   4.146 -0.3546  1.8263  2.4388
 7205SOL    MW428588   5.325   4.534   4.094  0.2813  0.1935  0.2157
 7206SOL     OW28589   2.975   3.152   6.365 -0.4348 -0.0575  0.0724
 7206SOL    HW228590   3.014   3.194   6.289  0.3997 -1.5501 -0.3781
 7206SOL    HW328591   2.917   3.218   6.402  0.5986  1.3661 -0.7336
 7206SOL    MW428592   2.973   3.166   6.360  0.2126 -0.1130  0.7786
 7207SOL     OW28593   2.266   1.643   1.364  0.0690 -0.5337 -0.0580
 7207SOL    HW228594   2.253   1.672   1.274 -1.7077 -1.7718 -0.2573
 7207SOL    HW328595   2.276   1.548   1.358 -0.6680 -0.7065  1.0722
 7207SOL    MW428596   2.266   1.634   1.351  0.0693  0.1971 -0.7020
 7208SOL     OW28597   0.377   4.671   4.493 -0.7777 -0.1930 -0.0194
 7208SOL    HW228598   0.407   4.580   4.501 -0.4289 -0.0217  0.6908
 7208SOL    HW328599   0.339   4.692   4.578 -1.7089  0.0369 -0.4735
 7208SOL    MW428600   0.376   4.662   4.505  0.0773  0.1187 -0.0032
 7209SOL     OW28601   4.349   4.714   2.882 -0.0153  0.4124  0.0307
 7209SOL    HW228602   4.377   4.774   2.813  0.0499 -1.2374 -1.4330
 7209SOL    HW328603   4.346   4.769   2.961  3.3843  1.5999 -0.4845
 7209SOL    MW428604   4.352   4.729   2.883  0.0867 -0.1316 -0.5588
 7210SOL     OW28605   5.721   5.137   3.187  0.1718 -0.2637 -0.1542
 7210SOL    HW228606   5.672   5.112   3.265 -1.9824  1.6411 -0.7818
 7210SOL    HW328607   5.672   5.099   3.114  0.8878 -0.1469 -0.7153
 7210SOL    MW428608   5.708   5.129   3.187  0.0286 -0.4921 -0.2720
 7211SOL     OW28609   2.504   2.863   1.909  0.0524  0.2342 -0.4456
 7211SOL    HW228610   2.518   2.923   1.982  0.3051  1.2893 -1.3321
 7211SOL    HW328611   2.409   2.854   1.904 -0.0444  1.2779 -0.8371
 7211SOL    MW428612   2.493   2.870   1.918 -0.5743 -0.7007 -0.2926
 7212SOL     OW28613   1.274   1.302   1.260 -0.2006  0.5062  0.2090
 7212SOL    HW228614   1.352   1.358   1.264  0.2950  0.3205 -3.4213
 7212SOL    HW328615   1.307   1.213   1.271 -0.0930  0.5219  0.0170
 7212SOL    MW428616   1.289   1.298   1.262  0.5402  0.4333 -0.0645
 7213SOL     OW28617   1.825   0.431   5.658 -0.3613  0.4358 -0.1364
 7213SOL    HW228618   1.782   0.411   5.741  0.4003 -1.0668 -0.0556
 7213SOL    HW328619   1.755   0.429   5.593 -1.0650  2.1860  0.4968
 7213SOL    MW428620   1.810   0.428   5.661 -0.5075 -0.0099  0.6238
 7214SOL     OW28621   4.643   1.356   6.043  0.8660  0.2746  0.3106
 7214SOL    HW228622   4.720   1.380   6.093  2.3314 -0.5326 -1.4183
 7214SOL    HW328623   4.678   1.312   5.965 -1.1994  2.1472 -1.8376
 7214SOL    MW428624   4.658   1.353   6.039  0.0877  0.1164  0.3962
 7215SOL     OW28625   0.681   4.345   3.819  0.1634 -0.6219  0.3503
 7215SOL    HW228626   0.741   4.283   3.861  1.8705  1.1774  0.7196
 7215SOL    HW328627   0.738   4.407   3.775 -1.5516 -0.8375 -2.3691
 7215SOL    MW428628   0.697   4.345   3.819 -0.1097 -0.0899  0.5094
 7216SOL     OW28629   6.342   2.371   4.244  0.3346  0.6090 -0.1285
 7216SOL    HW228630   6.357   2.281   4.273  1.2888  0.8006  0.0295
 7216SOL    HW328631   6.302   2.362   4.158  2.2870 -0.0092 -1.0356
 7216SOL    MW428632   6.339   2.358   4.237 -0.5601 -0.4044 -0.3349
 7217SOL     OW28633   3.402   2.747   2.463 -0.0839  0.2078 -0.1878
 7217SOL    HW228634   3.379   2.785   2.378 -0.4504 -0.9429 -0.6259
 7217SOL    HW328635   3.335   2.780   2.523 -0.4662  0.1673 -0.5886
 7217SOL    MW428636   3.390   2.756   2.460  0.7139 -0.0184  0.2941
 7218SOL     OW28637   2.600   0.684   6.162  0.5512 -0.7878  0.1428
 7218SOL    HW228638   2.623   0.677   6.255  0.2900 -0.9077  0.1997
 7218SOL    HW328639   2.660   0.622   6.118 -0.0409 -1.5294  0.3587
 7218SOL    MW428640   2.611   0.675   6.168 -0.2800  0.3223  0.4879
 7219SOL     OW28641   0.929   2.960   5.175  0.4713  0.1171 -0.2942
 7219SOL    HW228642   1.017   2.979   5.207  1.3284 -1.5136 -1.5649
 7219SOL    HW328643   0.872   3.014   5.230  2.3755  3.2148 -1.0714
 7219SOL    MW428644   0.933   2.970   5.186 -0.6271 -0.1727 -0.3912
 7220SOL     OW28645   2.811   5.167   5.538  0.0015  0.3660  0.6463
 7220SOL    HW228646   2.906   5.178   5.538  0.0361  0.1318 -0.0912
 7220SOL    HW328647   2.789   5.151   5.629  1.1493 -3.5213  0.4085
 7220SOL    MW428648   2.821   5.167   5.550  0.5548  0.6034 -0.0205
 7221SOL     OW28649   0.897   2.716   3.930 -0.0456 -0.0827  0.4074
 7221SOL    HW228650   0.915   2.624   3.915  1.3642  0.1842  0.3675
 7221SOL    HW328651   0.978   2.761   3.906  0.3705  0.9047  3.2762
 7221SOL    MW428652   0.910   2.710   3.925  0.7406 -0.2564 -0.1058
 7222SOL     OW28653   3.656   2.007   5.688 -0.0718 -0.1499 -0.3259
 7222SOL    HW228654   3.570   1.977   5.717 -0.3974 -0.0053 -1.1221
 7222SOL    HW328655   3.673   2.085   5.740 -0.2344 -0.4074  0.1241
 7222SOL    MW428656   3.647   2.013   5.699  0.0675 -0.7040 -0.2020
 7223SOL     OW28657   5.246   3.723   0.847  0.1504 -0.2554  0.4021
 7223SOL    HW228658   5.273   3.705   0.938  0.9570 -0.7259  0.0817
 7223SOL    HW328659   5.207   3.641   0.817  0.7732 -0.4110  0.0117
 7223SOL    MW428660   5.244   3.710   0.855 -0.3592 -0.4585 -0.6948
 7224SOL     OW28661   4.143   3.255   0.651  0.0362  0.0348  0.5090
 7224SOL    HW228662   4.057   3.225   0.681 -0.3818 -0.0090 -0.7155
 7224SOL    HW328663   4.146   3.233   0.558  2.1089 -1.6246  0.8848
 7224SOL    MW428664   4.132   3.248   0.643  0.1772  0.2668 -1.0260
 7225SOL     OW28665   4.028   1.702   1.619 -0.5437 -0.1415  0.4305
 7225SOL    HW228666   4.087   1.774   1.644 -3.1861  1.5216  2.3820
 7225SOL    HW328667   3.996   1.726   1.532 -0.8253  0.6914  0.7502
 7225SOL    MW428668   4.032   1.715   1.611 -0.2518 -0.2683  0.3411
 7226SOL     OW28669   0.290   4.637   4.987  0.4839  1.0768 -0.1353
 7226SOL    HW228670   0.351   4.664   5.056  0.2511  0.6996  0.2204
 7226SOL    HW328671   0.204   4.640   5.028  0.3965  0.3192 -0.2388
 7226SOL    MW428672   0.287   4.641   5.001  0.1965  0.7372 -0.3131
 7227SOL     OW28673   2.991   2.249   5.004 -0.1382  0.3290  0.0890
 7227SOL    HW228674   2.965   2.325   5.057 -0.6025 -0.6057  1.2426
 7227SOL    HW328675   3.048   2.198   5.061  1.8880  0.8163 -1.3955
 7227SOL    MW428676   2.995   2.253   5.019  0.3881 -0.9171  0.4304
 7228SOL     OW28677   3.270   1.426   4.490  0.2069 -0.0234  0.2977
 7228SOL    HW228678   3.218   1.391   4.563 -0.9686  1.8326  0.4295
 7228SOL    HW328679   3.266   1.521   4.502  1.3976  0.2599 -1.2660
 7228SOL    MW428680   3.263   1.434   4.501  0.6453  0.2185 -0.8996
 7229SOL     OW28681   6.196   6.381   1.710  0.4144 -0.5190  0.0883
 7229SOL    HW228682   6.157   6.294   1.714  2.4256 -1.5179 -0.5294
 7229SOL    HW328683   6.136   6.437   1.760 -1.3953 -2.0441 -0.2616
 7229SOL    MW428684   6.183   6.377   1.717 -0.1907 -0.4944  0.1242
 7230SOL     OW28685   1.631   0.177   6.317  0.1932  0.5425 -0.1606
 7230SOL    HW228686   1.644   0.141   6.405 -2.8301  1.8502  0.9378
 7230SOL    HW328687   1.575   0.253   6.330 -0.1459  0.9329 -3.2092
 7230SOL    MW428688   1.625   0.182   6.330  0.0184  0.5000  0.2114
 7231SOL     OW28689   1.281   1.829   4.856 -0.1642  0.1086  0.0014
 7231SOL    HW228690   1.266   1.809   4.764  2.7152  0.2750 -0.6071
 7231SOL    HW328691   1.245   1.754   4.903 -1.8459  0.1094 -1.2166
 7231SOL    MW428692   1.274   1.816   4.850  0.5349 -0.0606  0.6221
 7232SOL     OW28693   1.971   3.792   4.121 -0.1191  0.1905  0.6173
 7232SOL    HW228694   2.057   3.783   4.080  0.6794  0.5851  2.1516
 7232SOL    HW328695   1.988   3.836   4.204 -1.7508 -0.1454  1.1686
 7232SOL    MW428696   1.984   3.797   4.126  0.1780 -0.1089 -0.6148
 7233SOL     OW28697   5.095   1.831   3.102  0.4867  0.1199  0.1484
 7233SOL    HW228698   5.181   1.835   3.144  0.1305 -0.5908  0.9663
 7233SOL    HW328699   5.080   1.921   3.070  1.3562  0.3414  0.3310
 7233SOL    MW428700   5.104   1.844   3.103 -0.4941 -0.2741 -0.0194
 7234SOL     OW28701   4.002   2.686   5.979  0.2666 -0.0918 -0.2767
 7234SOL    HW228702   3.955   2.711   6.059  1.1708  0.7529  0.0034
 7234SOL    HW328703   4.048   2.765   5.952  1.5052 -0.8838 -0.5673
 7234SOL    MW428704   4.002   2.700   5.986 -0.1506 -0.1600  0.6822
 7235SOL     OW28705   3.716   5.701   2.258  0.3606  0.8722  0.9988
 7235SOL    HW228706   3.807   5.702   2.289  0.9455 -0.4599 -0.5172
 7235SOL    HW328707   3.706   5.783   2.211  1.6482 -0.0005 -0.9522
 7235SOL    MW428708   3.727   5.712   2.256 -0.3688 -0.8709 -0.3828
 7236SOL     OW28709   2.486   3.263   2.756  0.1202 -0.8576 -0.2215
 7236SOL    HW228710   2.534   3.216   2.825 -1.1219 -0.6228  0.8426
 7236SOL    HW328711   2.507   3.355   2.771  0.7220 -0.8761 -0.8748
 7236SOL    MW428712   2.495   3.269   2.767 -0.8146 -0.0586  0.1397
 7237SOL     OW28713   3.006   2.503   3.436 -0.0082 -0.3167 -0.0806
 7237SOL    HW228714   3.098   2.504   3.462  0.2316  1.6845 -0.8112
 7237SOL    HW328715   2.961   2.460   3.508  1.2821  0.3797  1.1969
 7237SOL    MW428716   3.012   2.498   3.449  0.6672  0.1453  0.0598
 7238SOL     OW28717   6.327   0.943   4.258  0.3203 -0.4685 -0.0324
 7238SOL    HW228718   6.320   1.031   4.221 -0.5965 -0.7390 -0.5225
 7238SOL    HW328719   6.322   0.885   4.182 -0.7457 -0.9967  0.4298
 7238SOL    MW428720   6.326   0.947   4.243 -0.3663  0.7804  0.1149
 7239SOL     OW28721   1.648   0.052   4.340  0.0695 -0.5370  0.6784
 7239SOL    HW228722   1.571   0.109   4.344  0.1507 -0.4932  1.9333
 7239SOL    HW328723   1.639   0.006   4.256 -1.5964 -0.9305  1.0374
 7239SOL    MW428724   1.636   0.054   4.329 -0.5603 -0.0774 -0.3305
 7240SOL     OW28725   0.386   1.313   2.039 -0.3282 -0.6898 -0.8060
 7240SOL    HW228726   0.313   1.288   2.095 -0.1538  1.4930  0.5318
 7240SOL    HW328727   0.347   1.322   1.952 -1.4166 -0.6579 -0.3308
 7240SOL    MW428728   0.371   1.311   2.035 -0.3782  0.0792 -0.3991
 7241SOL     OW28729   1.558   5.274   1.843  0.5979 -0.0316  0.2990
 7241SOL    HW228730   1.625   5.299   1.780 -0.1301 -0.1885 -0.5626
 7241SOL    HW328731   1.486   5.335   1.826  1.1808  1.3643  2.4621
 7241SOL    MW428732   1.557   5.285   1.832 -0.1773  0.3508  0.2345
 7242SOL     OW28733   2.994   5.496   2.156 -0.6380  0.2604  0.0975
 7242SOL    HW228734   3.068   5.467   2.209  0.1224  1.0520 -0.5077
 7242SOL    HW328735   2.918   5.483   2.213  0.2409  2.0397  1.7910
 7242SOL    MW428736   2.994   5.490   2.171  0.1299  0.0441  0.0615
 7243SOL     OW28737   0.557   3.071   1.986 -0.1616 -0.2300 -0.3338
 7243SOL    HW228738   0.598   3.013   1.921 -0.4529 -1.0036  0.1568
 7243SOL    HW328739   0.480   3.106   1.941  1.0148  1.2522 -1.2717
 7243SOL    MW428740   0.552   3.068   1.972 -0.0152  0.4704 -0.5370
 7244SOL     OW28741   2.455   0.260   5.528 -0.0318  0.0175  0.2755
 7244SOL    HW228742   2.517   0.202   5.484  0.5522 -0.0144  1.1299
 7244SOL    HW328743   2.468   0.244   5.621 -1.2556  0.0867  0.4787
 7244SOL    MW428744   2.465   0.251   5.534 -0.5401 -0.0835 -0.5744
 7245SOL     OW28745   4.322   1.603   4.167 -0.3280 -0.1955 -0.0304
 7245SOL    HW228746   4.276   1.645   4.094  2.1786 -0.5712 -1.9697
 7245SOL    HW328747   4.345   1.676   4.225  1.3621  0.8164 -1.8508
 7245SOL    MW428748   4.319   1.618   4.165 -0.3244  0.2981  0.5048
 7246SOL     OW28749   1.320   5.574   4.823 -0.4311  0.1491 -0.2567
 7246SOL    HW228750   1.244   5.584   4.766 -1.0044 -2.0946  0.0248
 7246SOL    HW328751   1.284   5.577   4.911  0.2789  2.2336  0.0208
 7246SOL    MW428752   1.306   5.576   4.827 -0.0209 -0.0833 -0.0819
 7247SOL     OW28753   1.107   2.648   0.617  0.0812 -0.4468  0.0686
 7247SOL    HW228754   1.083   2.710   0.685  0.2293 -0.4730  0.1454
 7247SOL    HW328755   1.034   2.586   0.614 -0.9810  0.8051 -1.3194
 7247SOL    MW428756   1.094   2.648   0.625  0.1737  0.3120  0.4277
 7248SOL     OW28757   2.978   0.877   6.393 -0.2681 -0.1807  0.1519
 7248SOL    HW228758   2.906   0.923   6.349 -0.3527 -0.8147 -0.4048
 7248SOL    HW328759   2.953   0.785   6.388  0.4525 -0.3830  0.2125
 7248SOL    MW428760   2.965   0.871   6.386 -0.2446  0.3863 -0.3959
 7249SOL     OW28761   0.160   5.709   4.647  0.7502 -0.2630 -0.9323
 7249SOL    HW228762   0.118   5.783   4.690  0.9131 -0.3428 -0.6386
 7249SOL    HW328763   0.184   5.650   4.718 -0.4456 -1.1643 -1.2300
 7249SOL    MW428764   0.157   5.711   4.662 -0.0073  0.4104  0.3351
 7250SOL     OW28765   0.596   0.756   1.216  0.1803  0.8004 -0.1067
 7250SOL    HW228766   0.684   0.742   1.252  0.4978 -0.6801 -1.3650
 7250SOL    HW328767   0.560   0.828   1.268  2.3465  1.8439  0.0606
 7250SOL    MW428768   0.603   0.764   1.228  0.2482 -0.5593 -0.7701
 7251SOL     OW28769   1.021   0.894   4.977  0.6263 -0.4473 -0.0019
 7251SOL    HW228770   1.111   0.928   4.976  0.8018 -0.8986  0.0364
 7251SOL    HW328771   0.982   0.927   4.897  0.4181  0.8156  0.5978
 7251SOL    MW428772   1.028   0.902   4.966 -0.0522  0.1526  0.0664
 7252SOL     OW28773   0.893   2.801   4.957 -0.3796 -0.5590 -0.4927
 7252SOL    HW228774   0.808   2.766   4.986 -1.0843  0.3904 -1.3290
 7252SOL    HW328775   0.916   2.866   5.024 -1.7305  1.2262 -1.6734
 7252SOL    MW428776   0.884   2.805   4.970 -0.6390 -0.1568  0.2107
 7253SOL     OW28777   5.441   4.067   0.338  0.2220  0.0238 -0.8627
 7253SOL    HW228778   5.503   4.039   0.271  2.1777 -0.0556  0.8886
 7253SOL    HW328779   5.443   4.162   0.334  1.9354  0.0931  0.3673
 7253SOL    MW428780   5.450   4.076   0.329  0.3556 -0.0731  0.2716
 7254SOL     OW28781   1.579   3.378   0.819 -0.1607 -0.5436 -0.4575
 7254SOL    HW228782   1.544   3.398   0.905 -0.8783 -2.6996 -0.1866
 7254SOL    HW328783   1.674   3.387   0.830 -0.3702  2.3496 -0.3763
 7254SOL    MW428784   1.587   3.382   0.832  1.0318  0.1217  0.1611
 7255SOL     OW28785   2.409   3.370   0.090  0.1766 -0.3428 -0.8277
 7255SOL    HW228786   2.371   3.457   0.098 -0.1946 -0.4735 -1.1993
 7255SOL    HW328787   2.496   3.379   0.129 -0.0288  0.0816 -0.4576
 7255SOL    MW428788   2.416   3.382   0.097  0.2386 -0.3018 -0.0158
 7256SOL     OW28789   2.758   3.931   2.462 -0.0066  1.1371  0.2934
 7256SOL    HW228790   2.781   3.903   2.550  0.4983  2.2381  0.5225
 7256SOL    HW328791   2.842   3.940   2.417 -0.2662  0.4227 -0.3606
 7256SOL    MW428792   2.772   3.928   2.468 -0.1004 -0.1242 -0.1145
 7257SOL     OW28793   5.054   5.782   2.199  0.2049  0.0054 -0.3586
 7257SOL    HW228794   5.097   5.827   2.271 -0.7618 -2.3940  1.8577
 7257SOL    HW328795   4.969   5.756   2.233 -0.3985 -1.0215 -2.4543
 7257SOL    MW428796   5.048   5.784   2.213  0.2126 -0.0822  0.4047
 7258SOL     OW28797   1.629   5.468   3.585  0.2673  0.1535 -0.4527
 7258SOL    HW228798   1.700   5.415   3.620  0.0094 -0.8374 -1.3863
 7258SOL    HW328799   1.644   5.469   3.490 -0.2242  1.0315 -0.5324
 7258SOL    MW428800   1.641   5.461   3.577 -0.2180 -0.5475  0.0518
 7259SOL     OW28801   0.621   4.305   1.810 -0.0162  0.0942 -0.5118
 7259SOL    HW228802   0.700   4.291   1.862 -0.6751 -1.3314  0.1541
 7259SOL    HW328803   0.555   4.248   1.850 -1.3980  1.2468 -1.0382
 7259SOL    MW428804   0.623   4.296   1.822  0.2381 -0.1169 -0.2353
 7260SOL     OW28805   2.930   4.554   4.071 -0.5446 -0.2851 -0.5170
 7260SOL    HW228806   2.866   4.519   4.133  0.1553 -1.6467 -0.5169
 7260SOL    HW328807   2.919   4.501   3.992 -0.0874  0.1150 -0.8572
 7260SOL    MW428808   2.920   4.543   4.069 -0.0472  0.3956  0.2222
 7261SOL     OW28809   2.538   2.847   6.187  0.4121 -0.4997 -1.1268
 7261SOL    HW228810   2.582   2.921   6.229  2.1177 -1.9468 -0.1982
 7261SOL    HW328811   2.567   2.851   6.096 -0.1796  0.4244 -1.2873
 7261SOL    MW428812   2.548   2.857   6.180  0.1703 -0.2863  0.1999
 7262SOL     OW28813   3.484   2.404   4.664  0.0168 -0.2287  0.1244
 7262SOL    HW228814   3.489   2.323   4.613  1.8157  0.2960 -0.6068
 7262SOL    HW328815   3.401   2.443   4.640 -0.0839 -1.0060 -0.8455
 7262SOL    MW428816   3.474   2.398   4.654  0.5250 -0.0236 -0.5759
 7263SOL     OW28817   6.329   5.705   4.467  0.7215  0.1279  0.4009
 7263SOL    HW228818   6.286   5.698   4.553 -0.3739 -1.0383 -0.1991
 7263SOL    HW328819   6.351   5.614   4.445 -0.1803  0.2506 -1.1099
 7263SOL    MW428820   6.326   5.692   4.476 -0.2412 -0.0366  0.1136
 7264SOL     OW28821   3.215   4.980   5.196 -0.4897 -0.1432  0.1930
 7264SOL    HW228822   3.182   4.964   5.285 -0.6504  0.6847  0.2835
 7264SOL    HW328823   3.258   5.065   5.201 -0.9944  0.1653 -0.6678
 7264SOL    MW428824   3.216   4.989   5.209  0.4233 -0.0034 -0.8882
 7265SOL     OW28825   4.160   0.520   4.070 -0.0699  0.4800 -0.0478
 7265SOL    HW228826   4.135   0.566   4.151  1.2915  1.0145  0.1053
 7265SOL    HW328827   4.102   0.555   4.003 -0.9531  0.3211  0.6162
 7265SOL    MW428828   4.149   0.531   4.072  0.3260  0.1764  0.4805
 7266SOL     OW28829   5.127   2.737   1.700 -0.4353  0.3527  0.0787
 7266SOL    HW228830   5.209   2.774   1.733  0.3954 -1.6541  0.3906
 7266SOL    HW328831   5.062   2.761   1.767  0.5039 -0.5087  1.3581
 7266SOL    MW428832   5.129   2.745   1.713 -0.1257  0.5540 -0.2212
 7267SOL     OW28833   2.539   3.085   4.258 -0.4470  0.2291 -0.7447
 7267SOL    HW228834   2.566   3.173   4.230 -0.8754  0.4638 -0.4226
 7267SOL    HW328835   2.620   3.035   4.257 -0.3117  0.4380 -1.6217
 7267SOL    MW428836   2.553   3.090   4.254  0.3934  0.1513 -0.1029
 7268SOL     OW28837   1.826   5.351   2.224  0.3512  0.0053  0.7075
 7268SOL    HW228838   1.816   5.409   2.300  1.1822  0.3790  0.5404
 7268SOL    HW328839   1.846   5.266   2.262 -1.3464 -0.3120  0.9753
 7268SOL    MW428840   1.827   5.348   2.239 -0.2218 -1.0794  0.0245
 7269SOL     OW28841   5.145   0.603   4.666  0.2146 -0.6230  0.0581
 7269SOL    HW228842   5.075   0.623   4.728 -0.4227 -1.1712 -0.4646
 7269SOL    HW328843   5.226   0.621   4.714 -0.2792 -0.1341  0.7259
 7269SOL    MW428844   5.147   0.608   4.680 -0.4802 -0.3602 -0.2988
 7270SOL     OW28845   4.014   0.178   3.967  0.4313  0.1353  0.4061
 7270SOL    HW228846   4.023   0.083   3.955 -0.9586 -0.0199  0.4769
 7270SOL    HW328847   4.046   0.216   3.885 -2.5167 -0.5927 -1.2123
 7270SOL    MW428848   4.019   0.170   3.955  0.4680  0.0144  0.3610
 7271SOL     OW28849   4.210   4.846   3.957 -0.2079 -0.1399  0.2760
 7271SOL    HW228850   4.139   4.901   3.990 -0.3578  1.3494 -2.2692
 7271SOL    HW328851   4.271   4.907   3.915  1.6792 -1.5649  0.7814
 7271SOL    MW428852   4.209   4.861   3.956  0.2334  0.4729 -0.5942
 7272SOL     OW28853   1.308   1.988   0.370  0.2751 -0.2748  0.3767
 7272SOL    HW228854   1.308   1.925   0.442  0.1427  1.1412  1.6562
 7272SOL    HW328855   1.234   2.046   0.388 -0.7060 -0.7720 -1.7331
 7272SOL    MW428856   1.299   1.987   0.382  0.2048  0.1987 -1.0583
 7273SOL     OW28857   6.213   4.362   3.039 -0.8273 -0.0903 -0.1576
 7273SOL    HW228858   6.231   4.454   3.021 -0.7074 -0.0583  0.1319
 7273SOL    HW328859   6.121   4.350   3.012 -1.5045  0.6089  1.6800
 7273SOL    MW428860   6.203   4.373   3.033  0.0205 -0.0168 -0.5126
 7274SOL     OW28861   0.138   6.247   2.666 -0.6196 -0.0384  0.0685
 7274SOL    HW228862   0.133   6.294   2.749  0.3871  0.4097 -0.1120
 7274SOL    HW328863   0.203   6.178   2.681  0.9204  1.1488 -0.8384
 7274SOL    MW428864   0.146   6.244   2.679 -0.1181 -0.2541  0.2252
 7275SOL     OW28865   4.446   0.624   4.041 -0.1626  0.4377 -0.6687
 7275SOL    HW228866   4.364   0.574   4.045  0.1172  0.0443  0.5222
 7275SOL    HW328867   4.419   0.715   4.051 -0.4775  0.3301 -0.5190
 7275SOL    MW428868   4.432   0.629   4.043 -0.1689 -0.2599 -0.1218
 7276SOL     OW28869   3.977   5.297   0.020  0.8784  0.0944  0.4221
 7276SOL    HW228870   3.899   5.347   0.044  0.3879 -1.5400  2.4315
 7276SOL    HW328871   4.045   5.364   0.006 -0.3203  1.4190  0.7586
 7276SOL    MW428872   3.976   5.313   0.021  0.0111  0.0068 -0.2326
 7277SOL     OW28873   2.557   0.805   2.017 -0.0109  0.1209 -0.9085
 7277SOL    HW228874   2.474   0.768   2.045 -0.8834  2.0456 -0.8310
 7277SOL    HW328875   2.622   0.761   2.072 -1.0164 -1.0065 -0.5872
 7277SOL    MW428876   2.555   0.794   2.028 -1.1655  0.3269 -0.0379
 7278SOL     OW28877   4.384   6.080   4.572  0.9231  0.0188  0.0973
 7278SOL    HW228878   4.331   6.032   4.508  1.1174 -0.0907  0.0198
 7278SOL    HW328879   4.370   6.173   4.550  0.3276  0.0177  0.4192
 7278SOL    MW428880   4.375   6.086   4.561 -0.4232 -0.4065 -1.0633
 7279SOL     OW28881   4.511   4.532   3.868 -0.3672  0.1857  0.1944
 7279SOL    HW228882   4.434   4.530   3.924  0.1424 -0.1991  0.8882
 7279SOL    HW328883   4.507   4.618   3.825 -0.0917  1.0173  1.7778
 7279SOL    MW428884   4.501   4.543   3.869  0.1789  0.3870 -0.5414
 7280SOL     OW28885   4.202   1.922   0.486  0.5388 -0.0616  0.1267
 7280SOL    HW228886   4.128   1.951   0.432  1.4887  0.2610 -1.0551
 7280SOL    HW328887   4.276   1.975   0.455  2.0584 -2.7618 -1.2131
 7280SOL    MW428888   4.202   1.933   0.475 -0.4439  0.1456  0.4376
 7281SOL     OW28889   6.371   4.512   6.115  0.2972  0.3161 -0.1539
 7281SOL    HW228890   6.369   4.600   6.076 -0.1970 -0.1461 -1.2248
 7281SOL    HW328891   6.355   4.454   6.041  0.0152 -0.6463  0.6512
 7281SOL    MW428892   6.369   4.516   6.100 -0.2977 -0.2598 -0.2650
 7282SOL     OW28893   5.044   1.590   0.166 -0.6024  0.0074  0.0865
 7282SOL    HW228894   5.077   1.536   0.094 -0.8484 -2.0114  1.4261
 7282SOL    HW328895   4.965   1.546   0.195  0.9592 -0.8573  3.3958
 7282SOL    MW428896   5.038   1.577   0.160  0.0990 -0.1166 -0.8764
 7283SOL     OW28897   2.908   3.868   4.282 -0.0946  0.1141  0.3413
 7283SOL    HW228898   2.952   3.853   4.365 -0.9742  0.6475  0.9185
 7283SOL    HW328899   2.979   3.878   4.218  0.5900  0.1854  1.1023
 7283SOL    MW428900   2.923   3.867   4.284 -0.4032 -0.4640 -0.4852
 7284SOL     OW28901   1.098   5.288   5.127  0.0010 -0.2795 -0.0443
 7284SOL    HW228902   1.153   5.258   5.199 -0.1329  0.4815  0.3875
 7284SOL    HW328903   1.127   5.236   5.052  0.0777 -1.1481  0.5700
 7284SOL    MW428904   1.109   5.277   5.127 -0.4622  0.4073  0.2708
 7285SOL     OW28905   1.535   5.543   2.680 -0.6589 -0.4052  0.4252
 7285SOL    HW228906   1.474   5.470   2.687 -0.1750 -0.9458 -0.7556
 7285SOL    HW328907   1.514   5.584   2.596 -0.6812  0.5976  0.9052
 7285SOL    MW428908   1.524   5.539   2.670 -0.0430  0.2664 -0.9538
 7286SOL     OW28909   0.586   4.549   0.409 -0.0979 -0.1250 -0.2262
 7286SOL    HW228910   0.518   4.574   0.346  1.9420 -0.5958 -2.7907
 7286SOL    HW328911   0.551   4.473   0.455 -1.2187 -0.5035 -1.6499
 7286SOL    MW428912   0.573   4.543   0.407  0.2608  0.1854  0.0690
 7287SOL     OW28913   3.045   3.838   1.246 -0.3877  0.0958  0.2375
 7287SOL    HW228914   3.137   3.854   1.229  0.1900 -0.7314  2.2490
 7287SOL    HW328915   3.037   3.743   1.251 -1.7348  0.0497 -1.6165
 7287SOL    MW428916   3.056   3.827   1.245 -0.3549  0.0633 -0.0030
 7288SOL     OW28917   0.950   0.983   4.723  0.4711  0.0602  0.1009
 7288SOL    HW228918   0.987   1.071   4.735 -0.2908  0.3944  0.0259
 7288SOL    HW328919   1.023   0.931   4.688  0.9038  0.6811  0.0697
 7288SOL    MW428920   0.965   0.988   4.720 -0.6032  0.1541  0.0195
 7289SOL     OW28921   2.039   1.867   2.071 -0.1802 -0.3857 -0.1438
 7289SOL    HW228922   2.086   1.785   2.087 -0.4955 -0.7586 -1.0863
 7289SOL    HW328923   2.089   1.910   2.001 -0.1450  0.1310  0.1895
 7289SOL    MW428924   2.052   1.862   2.064  0.3396 -0.6033  0.2789
 7290SOL     OW28925   5.100   0.889   6.130  0.2000  0.0137 -0.0933
 7290SOL    HW228926   5.127   0.797   6.130 -1.4793 -0.5330  1.0968
 7290SOL    HW328927   5.050   0.899   6.211 -1.5740  1.3902 -1.2849
 7290SOL    MW428928   5.097   0.878   6.141  0.1599  0.1876 -0.0725
 7291SOL     OW28929   5.814   0.813   4.525  0.4388  0.1916  0.6236
 7291SOL    HW228930   5.751   0.824   4.596 -0.8525  1.9087 -0.7086
 7291SOL    HW328931   5.889   0.866   4.551  1.1347 -1.3280  1.9032
 7291SOL    MW428932   5.815   0.821   4.538  0.4737  0.1711  0.2294
 7292SOL     OW28933   0.122   2.941   5.249  0.4555  0.5457  0.3404
 7292SOL    HW228934   0.189   2.882   5.214 -1.6270  0.7815 -4.7357
 7292SOL    HW328935   0.164   3.027   5.249  0.5267  0.5612 -1.9713
 7292SOL    MW428936   0.137   2.944   5.245  0.0441 -0.3930  0.3474
 7293SOL     OW28937   1.400   3.265   5.822 -0.3763 -0.4859 -0.1243
 7293SOL    HW228938   1.348   3.211   5.880 -0.8495  0.4410  0.3370
 7293SOL    HW328939   1.490   3.251   5.850 -0.5175 -0.8001  0.1780
 7293SOL    MW428940   1.405   3.256   5.833 -0.2250 -0.4366 -0.5489
 7294SOL     OW28941   4.390   4.152   2.171 -0.8901  0.4873 -0.7791
 7294SOL    HW228942   4.465   4.153   2.229  0.8728 -0.2773 -2.9043
 7294SOL    HW328943   4.389   4.064   2.133 -1.2991  1.2606 -2.6813
 7294SOL    MW428944   4.400   4.141   2.174  0.1045 -0.4579 -0.2460
 7295SOL     OW28945   1.881   2.774   4.531 -0.2317 -0.3209  0.5338
 7295SOL    HW228946   1.858   2.796   4.441 -0.8607  0.6666  0.9114
 7295SOL    HW328947   1.849   2.685   4.543 -1.4514  0.0504  0.1949
 7295SOL    MW428948   1.873   2.765   4.521 -0.2163 -0.8357  0.1924
 7296SOL     OW28949   4.203   3.579   2.925  0.5499 -0.1025 -0.7132
 7296SOL    HW228950   4.276   3.607   2.871  1.2772 -0.5420  0.0269
 7296SOL    HW328951   4.222   3.488   2.947  0.7969  0.3429  1.0858
 7296SOL    MW428952   4.215   3.571   2.921  0.5522  0.9695  0.2310
 7297SOL     OW28953   0.446   5.737   3.709  0.4423  0.4378  0.6898
 7297SOL    HW228954   0.439   5.804   3.641  2.5828 -0.0003 -0.0549
 7297SOL    HW328955   0.409   5.658   3.669  2.9932 -0.1990 -0.6334
 7297SOL    MW428956   0.440   5.735   3.694 -0.2656  0.6953  0.1002
 7298SOL     OW28957   2.957   2.759   4.929 -0.6039 -0.4706  0.3761
 7298SOL    HW228958   3.024   2.690   4.927  1.2108  1.2110 -0.9906
 7298SOL    HW328959   2.985   2.817   5.000 -2.2865 -1.2199  1.7249
 7298SOL    MW428960   2.970   2.758   4.938 -0.2709  0.4842 -0.6401
 7299SOL     OW28961   4.656   1.864   0.410 -0.4073 -0.0190 -0.2638
 7299SOL    HW228962   4.577   1.899   0.369 -0.8395 -1.2792 -0.5556
 7299SOL    HW328963   4.631   1.849   0.501 -0.4019 -0.1089 -0.2770
 7299SOL    MW428964   4.642   1.867   0.417  0.4129  0.1150  0.2460
 7300SOL     OW28965   5.304   0.789   0.810 -0.3696 -0.4893  0.0546
 7300SOL    HW228966   5.387   0.820   0.846  0.4216  0.8597 -2.6555
 7300SOL    HW328967   5.322   0.700   0.780 -0.0317 -0.3472 -0.1585
 7300SOL    MW428968   5.317   0.782   0.811 -0.1761  0.3386 -0.0819
 7301SOL     OW28969   5.469   4.732   5.235 -0.0134  0.0320  0.1137
 7301SOL    HW228970   5.467   4.644   5.196  1.8485  0.7739 -1.8311
 7301SOL    HW328971   5.511   4.719   5.320 -0.9996 -1.1358  0.4493
 7301SOL    MW428972   5.474   4.718   5.241 -0.1738 -0.1904 -0.1898
 7302SOL     OW28973   1.724   1.270   3.485 -0.0893 -0.2969  0.2000
 7302SOL    HW228974   1.756   1.358   3.504 -2.2166  0.4699  0.5342
 7302SOL    HW328975   1.706   1.271   3.391 -0.6010 -0.1749  0.2933
 7302SOL    MW428976   1.726   1.282   3.475 -0.4931 -0.2067 -0.6697
 7303SOL     OW28977   4.649   0.968   3.568 -0.4916  0.2075 -0.5155
 7303SOL    HW228978   4.711   0.904   3.534 -2.5319 -2.3005  0.1268
 7303SOL    HW328979   4.610   1.008   3.490  1.0672  0.9747 -0.9229
 7303SOL    MW428980   4.652   0.965   3.554  0.3555  0.2360  0.0881
 7304SOL     OW28981   2.114   2.161   5.027 -0.2961  0.3368  0.2835
 7304SOL    HW228982   2.080   2.218   4.958 -1.3733 -1.0833 -0.4269
 7304SOL    HW328983   2.163   2.094   4.979  0.9175  0.6144  1.0947
 7304SOL    MW428984   2.116   2.160   5.012  0.0247 -0.1959  0.0819
 7305SOL     OW28985   4.617   0.497   2.932  0.2208  0.4433  0.8368
 7305SOL    HW228986   4.605   0.439   3.006  0.1491 -0.1735  0.3503
 7305SOL    HW328987   4.682   0.453   2.877 -1.2336 -0.1309 -0.4817
 7305SOL    MW428988   4.624   0.484   2.934 -0.8393  0.5155 -0.6345
 7306SOL     OW28989   4.926   1.963   5.671  0.2867 -1.0878  0.2008
 7306SOL    HW228990   4.851   2.000   5.623 -1.2923 -3.1395  0.9001
 7306SOL    HW328991   4.991   1.945   5.603  0.2377  0.8924 -0.4122
 7306SOL    MW428992   4.924   1.965   5.656  0.6656 -0.1044  0.0519
 7307SOL     OW28993   5.572   0.833   4.372  0.3919 -0.2141 -0.3248
 7307SOL    HW228994   5.550   0.746   4.337  0.8515  1.2034 -4.7484
 7307SOL    HW328995   5.666   0.829   4.389  0.4300 -0.5822 -0.5913
 7307SOL    MW428996   5.581   0.821   4.369  0.0942 -0.9213  0.0155
 7308SOL     OW28997   3.379   1.815   4.727  0.1419  0.6313  0.6152
 7308SOL    HW228998   3.461   1.854   4.756  0.5423  0.0170  0.3282
 7308SOL    HW328999   3.381   1.726   4.762  0.3891  0.0508 -0.8340
 7308SOL    MW429000   3.390   1.808   4.736  0.0489  0.0342 -0.1398
 7309SOL     OW29001   1.611   0.201   3.875 -0.2173  0.2412 -0.6780
 7309SOL    HW229002   1.549   0.223   3.806 -1.5872 -0.7444  0.1858
 7309SOL    HW329003   1.588   0.260   3.948  0.3007  0.3216 -0.5739
 7309SOL    MW429004   1.600   0.212   3.876  0.0488 -0.2698 -0.6619
 7310SOL     OW29005   1.026   6.065   2.075 -0.2441  0.6392  0.0414
 7310SOL    HW229006   0.985   6.070   1.988  1.1882  1.1206 -0.6469
 7310SOL    HW329007   1.014   6.152   2.112 -1.8717  0.1081  0.8476
 7310SOL    MW429008   1.019   6.077   2.068  0.1736 -0.0228 -0.8178
 7311SOL     OW29009   3.069   1.525   0.465 -0.4466 -0.6513 -0.0177
 7311SOL    HW229010   3.052   1.593   0.400  2.3818 -0.4707 -0.7301
 7311SOL    HW329011   3.103   1.451   0.413 -3.2906 -2.6548  0.7392
 7311SOL    MW429012   3.071   1.524   0.449 -0.2588 -0.2989 -0.4404
 7312SOL     OW29013   1.126   1.936   0.874  0.5649  0.1688  0.1038
 7312SOL    HW229014   1.161   1.943   0.963 -0.9021 -2.4164  0.9957
 7312SOL    HW329015   1.035   1.964   0.882  0.6766  0.8461 -0.8289
 7312SOL    MW429016   1.119   1.940   0.887  0.4872 -0.3270 -0.4080
 7313SOL     OW29017   4.676   5.882   3.043 -0.0955 -0.0300  0.5154
 7313SOL    HW229018   4.589   5.921   3.035 -0.1700 -0.5058 -1.4909
 7313SOL    HW329019   4.720   5.904   2.961  1.6909  0.1893  1.4931
 7313SOL    MW429020   4.670   5.890   3.031  0.4774  0.4068  0.7680
 7314SOL     OW29021   0.983   5.249   4.383  0.2709  0.3710  0.2311
 7314SOL    HW229022   0.978   5.156   4.407  1.3082  0.1433 -0.4132
 7314SOL    HW329023   0.950   5.252   4.293  0.3794  0.6170  0.2008
 7314SOL    MW429024   0.978   5.237   4.374 -0.3933  0.1599  0.1069
 7315SOL     OW29025   3.398   2.181   0.306 -0.3275 -0.0740  0.4767
 7315SOL    HW229026   3.338   2.248   0.340  0.7506  1.1464  0.0410
 7315SOL    HW329027   3.423   2.130   0.383  1.0241  1.8028  1.3560
 7315SOL    MW429028   3.393   2.183   0.321 -0.3020  1.0739 -0.2129
 7316SOL     OW29029   0.999   3.128   0.949 -0.2401  0.3164  0.0518
 7316SOL    HW229030   0.996   3.202   0.887 -1.5325 -0.6511 -1.1042
 7316SOL    HW329031   0.961   3.163   1.029 -2.0614  0.6080 -0.8736
 7316SOL    MW429032   0.994   3.143   0.951 -0.3846  0.8122  0.0463
 7317SOL     OW29033   2.082   0.520   3.454 -0.4618 -0.2868  0.1751
 7317SOL    HW229034   2.145   0.489   3.389 -1.1219 -1.3550  0.0150
 7317SOL    HW329035   2.070   0.445   3.512 -1.5565 -0.0899  0.2156
 7317SOL    MW429036   2.089   0.506   3.453  0.1348  0.1663 -0.1197
 7318SOL     OW29037   3.706   4.603   6.273  0.4856  0.0343 -0.2215
 7318SOL    HW229038   3.665   4.665   6.334  0.0075 -1.8731  1.5270
 7318SOL    HW329039   3.798   4.600   6.301  0.5273 -0.0025 -0.3605
 7318SOL    MW429040   3.713   4.611   6.285 -0.3929  0.2337  0.0506
 7319SOL     OW29041   4.089   0.672   4.303  0.1479  0.6072  0.1371
 7319SOL    HW229042   4.176   0.646   4.333  0.9007  1.0285 -1.5487
 7319SOL    HW329043   4.100   0.761   4.270 -0.7404  0.4194 -0.7314
 7319SOL    MW429044   4.102   0.680   4.303 -0.0239 -0.0179  0.1713
 7320SOL     OW29045   2.788   3.315   1.675 -0.3179  0.1948 -0.7784
 7320SOL    HW229046   2.791   3.312   1.579  3.6429 -0.2763 -0.8031
 7320SOL    HW329047   2.746   3.398   1.695  0.8275  1.3965 -3.0163
 7320SOL    MW429048   2.783   3.325   1.665  0.1670  0.0707 -0.2617
 7321SOL     OW29049   5.184   0.976   3.608  0.1436  0.3319 -0.0075
 7321SOL    HW229050   5.274   0.979   3.641  0.2742  0.2842 -0.3575
 7321SOL    HW329051   5.165   0.883   3.600  0.1763  0.3454 -0.2419
 7321SOL    MW429052   5.193   0.964   3.611  0.1231 -0.2981 -0.0105
 7322SOL     OW29053   4.008   2.228   3.197  0.0311  0.0204 -0.2666
 7322SOL    HW229054   4.030   2.268   3.280  1.5724  1.7528 -1.4340
 7322SOL    HW329055   4.022   2.134   3.210  0.0542  0.2380  1.4487
 7322SOL    MW429056   4.012   2.221   3.209  0.1235 -0.1268  0.3781
 7323SOL     OW29057   0.009   0.512   4.768 -0.5767 -1.1744 -0.4366
 7323SOL    HW229058   0.036   0.514   4.860 -0.1312 -3.3964 -0.4500
 7323SOL    HW329059  -0.068   0.456   4.767  0.1023 -2.1300 -1.5305
 7323SOL    MW429060   0.003   0.505   4.780  0.9011 -0.4009  0.5065
 7324SOL     OW29061   1.908   3.927   2.369  0.4013  0.5694  0.0988
 7324SOL    HW229062   1.931   4.003   2.316 -0.0836  2.8500  2.9331
 7324SOL    HW329063   1.937   3.949   2.457 -0.1317 -2.3967  1.1301
 7324SOL    MW429064   1.915   3.940   2.373 -0.0782 -0.3328 -0.0728
 7325SOL     OW29065   5.288   0.889   4.396  0.0432 -0.1879  0.3164
 7325SOL    HW229066   5.273   0.833   4.473  0.5485 -1.4201 -0.4366
 7325SOL    HW329067   5.383   0.887   4.384  0.0600  0.7854  0.2085
 7325SOL    MW429068   5.298   0.881   4.405 -0.0212 -0.2692 -0.6673
 7326SOL     OW29069   5.157   3.541   1.954 -0.0436 -0.0517 -0.5026
 7326SOL    HW229070   5.111   3.467   1.916 -0.5530 -0.7571  1.3701
 7326SOL    HW329071   5.229   3.503   2.003  0.6734  0.8222 -0.8476
 7326SOL    MW429072   5.160   3.526   1.956  0.3699  0.0528  0.8693
 7327SOL     OW29073   1.878   1.508   2.076  0.3091 -0.4776  0.0120
 7327SOL    HW229074   1.854   1.473   1.991  0.2468 -0.7229  0.1317
 7327SOL    HW329075   1.915   1.434   2.124  1.3859 -0.0965 -0.1960
 7327SOL    MW429076   1.880   1.494   2.071 -0.4734  0.2759  0.1389
 7328SOL     OW29077   5.856   1.271   0.018 -0.0171  0.1383  0.4804
 7328SOL    HW229078   5.762   1.252   0.023  0.0952 -0.2981  1.1115
 7328SOL    HW329079   5.874   1.279  -0.075 -0.8519  1.1110  0.3859
 7328SOL    MW429080   5.846   1.270   0.006 -0.4475  0.1228  0.2318
 7329SOL     OW29081   3.678   1.109   4.834  0.1436  0.4162  0.1725
 7329SOL    HW229082   3.598   1.157   4.855 -0.6565 -1.1578  0.8326
 7329SOL    HW329083   3.718   1.091   4.919  0.3551 -0.1970 -0.0553
 7329SOL    MW429084   3.673   1.113   4.848 -0.0531 -0.0377  0.5221
 7330SOL     OW29085   5.091   2.830   1.000  0.0401 -0.0271 -0.2929
 7330SOL    HW229086   5.140   2.867   1.073  0.9599 -1.2368 -0.2838
 7330SOL    HW329087   5.004   2.811   1.037  0.0695  0.6084  0.1175
 7330SOL    MW429088   5.086   2.833   1.014  0.2905  0.4877  0.2506
 7331SOL     OW29089   5.435   2.150   1.204  0.4023 -0.0058 -0.0285
 7331SOL    HW229090   5.468   2.148   1.294 -0.3124  1.3797  0.2842
 7331SOL    HW329091   5.503   2.195   1.155  0.1009  0.6412  0.1362
 7331SOL    MW429092   5.448   2.156   1.210 -0.0020 -0.0528 -0.3673
 7332SOL     OW29093   5.739   5.021   5.471  0.7296  0.3770 -0.0354
 7332SOL    HW229094   5.772   4.931   5.477  0.7235  0.4124  0.5403
 7332SOL    HW329095   5.709   5.042   5.559  0.5235  0.8685 -0.2178
 7332SOL    MW429096   5.739   5.012   5.483  0.4620  0.0586 -0.0880
 7333SOL     OW29097   0.549   4.940   1.047  0.6227 -0.2321  0.0657
 7333SOL    HW229098   0.619   4.899   0.995  0.1798 -0.0566 -0.6896
 7333SOL    HW329099   0.587   4.951   1.134  1.6033  0.0137 -0.3738
 7333SOL    MW429100   0.564   4.936   1.052  0.1745  0.4306 -0.0722
 7334SOL     OW29101   1.924   6.220   1.262  0.2434 -0.0842  0.0024
 7334SOL    HW229102   1.871   6.179   1.330  0.6519  0.7623  0.8563
 7334SOL    HW329103   1.860   6.265   1.206  0.0114  0.6223  0.8099
 7334SOL    MW429104   1.908   6.221   1.263 -0.3628  0.1089  0.1164
 7335SOL     OW29105   5.863   5.706   1.783  0.7289  0.0917 -0.0986
 7335SOL    HW229106   5.808   5.686   1.859  1.7287  1.4762  1.0566
 7335SOL    HW329107   5.949   5.670   1.806  1.3441  1.5435 -0.0080
 7335SOL    MW429108   5.867   5.699   1.796 -0.1463 -0.2026  0.5528
 7336SOL     OW29109   6.139   4.214   2.409  0.9938  0.0364  0.7679
 7336SOL    HW229110   6.131   4.191   2.502  1.0574  0.3026  0.8423
 7336SOL    HW329111   6.061   4.267   2.392  0.3294 -1.0518  0.3412
 7336SOL    MW429112   6.128   4.218   2.419 -0.1530 -0.5835 -0.1085
 7337SOL     OW29113   1.606   0.122   5.175  0.1500  0.2109 -0.1401
 7337SOL    HW229114   1.595   0.217   5.166  1.6458  0.3726 -0.4324
 7337SOL    HW329115   1.661   0.111   5.253  0.6978 -0.3585 -0.5975
 7337SOL    MW429116   1.612   0.133   5.184  0.2920 -0.0041 -0.2468
 7338SOL     OW29117   4.737   4.926   0.019 -0.0517  0.0026 -0.2214
 7338SOL    HW229118   4.662   4.902   0.073 -0.5104 -0.0738 -0.8704
 7338SOL    HW329119   4.698   4.962  -0.061  0.6013 -0.5991 -0.8194
 7338SOL    MW429120   4.722   4.928   0.015 -0.0257  0.6033 -0.0852
 7339SOL     OW29121   2.719   5.680   0.110 -0.4009 -0.1741  0.3517
 7339SOL    HW229122   2.776   5.755   0.121 -0.9689  0.2553  0.4304
 7339SOL    HW329123   2.680   5.666   0.197  0.4855 -1.2157  0.6013
 7339SOL    MW429124   2.721   5.688   0.123  0.5769 -0.0050  0.4558
 7340SOL     OW29125   0.642   4.766   0.859  0.0833  0.5363  0.1020
 7340SOL    HW229126   0.609   4.728   0.778 -0.7892 -1.5294  1.3574
 7340SOL    HW329127   0.734   4.740   0.861  0.0299  0.3268 -0.0725
 7340SOL    MW429128   0.650   4.757   0.848 -0.2016  0.3138  0.2880
 7341SOL     OW29129   1.634   4.769   1.127 -0.1331  0.5693 -0.3459
 7341SOL    HW229130   1.626   4.677   1.101  0.0507  0.3771  0.2776
 7341SOL    HW329131   1.559   4.785   1.183  0.4870  0.4561  0.5393
 7341SOL    MW429132   1.623   4.759   1.131  0.0173  0.0085 -0.0188
 7342SOL     OW29133   2.862   2.905   3.987  0.3541 -0.0115 -0.4684
 7342SOL    HW229134   2.839   2.813   4.005 -0.4041  0.7299  2.9703
 7342SOL    HW329135   2.957   2.904   3.975  0.5085 -1.1312  0.6231
 7342SOL    MW429136   2.871   2.893   3.987  0.0921  0.2884  0.0356
 7343SOL     OW29137   5.360   4.613   2.972  0.8228  0.4423 -0.0883
 7343SOL    HW229138   5.281   4.613   3.026 -0.0504  0.4908 -1.3245
 7343SOL    HW329139   5.397   4.525   2.983 -0.4561 -0.2381 -0.9564
 7343SOL    MW429140   5.355   4.601   2.980  0.8221  0.3332 -0.4514
 7344SOL     OW29141   5.888   4.323   4.849 -0.3676 -0.3640  0.2311
 7344SOL    HW229142   5.848   4.243   4.816  0.2716  0.4130 -2.8217
 7344SOL    HW329143   5.973   4.296   4.882 -0.7993 -1.1423  0.7186
 7344SOL    MW429144   5.894   4.309   4.849  0.2838  0.0201 -0.0709
 7345SOL     OW29145   6.137   3.342   0.595  0.1837  0.3408 -0.2978
 7345SOL    HW229146   6.156   3.311   0.507  0.7720  0.1641 -0.1155
 7345SOL    HW329147   6.041   3.341   0.601  0.0596  1.8734 -1.4611
 7345SOL    MW429148   6.127   3.338   0.584  0.6624 -0.5233 -0.3252
 7346SOL     OW29149   2.575   0.726   5.356  0.0207 -0.6803  0.1926
 7346SOL    HW229150   2.519   0.787   5.404  0.3077 -1.7789  1.9951
 7346SOL    HW329151   2.556   0.641   5.394  2.8228 -1.1168  0.8035
 7346SOL    MW429152   2.565   0.723   5.367 -0.4188 -0.3692  0.1154
 7347SOL     OW29153   2.125   5.725   4.011 -0.2178  0.2996  0.7061
 7347SOL    HW229154   2.186   5.652   3.999  1.2227  1.5676 -0.0326
 7347SOL    HW329155   2.046   5.685   4.047  0.3317 -1.6959 -0.1792
 7347SOL    MW429156   2.123   5.710   4.014 -0.4589  0.3014  0.4706
 7348SOL     OW29157   3.985   5.681   3.741  0.0924  0.4893 -0.1912
 7348SOL    HW229158   3.948   5.678   3.829  0.6974  1.2339  0.0962
 7348SOL    HW329159   4.018   5.593   3.725  0.1715  0.4096  0.4095
 7348SOL    MW429160   3.984   5.669   3.750  0.3776 -0.3368 -0.1861
 7349SOL     OW29161   2.997   4.171   1.409 -0.0155  0.1070 -0.0741
 7349SOL    HW229162   3.083   4.155   1.370 -0.0172  1.4523 -0.6886
 7349SOL    HW329163   2.997   4.119   1.490  1.3990  0.1348 -0.0324
 7349SOL    MW429164   3.008   4.162   1.415 -0.1689  0.2162 -0.2752
 7350SOL     OW29165   2.239   0.185   1.162 -0.0421 -0.5091  0.7601
 7350SOL    HW229166   2.176   0.257   1.172 -3.5952 -3.1284 -0.6582
 7350SOL    HW329167   2.199   0.112   1.207  0.9685 -2.8728 -1.8701
 7350SOL    MW429168   2.225   0.185   1.169 -0.8537  0.3543 -0.0851
 7351SOL     OW29169   0.512   2.700   0.843  0.3412 -0.0812  0.5364
 7351SOL    HW229170   0.574   2.629   0.825  0.4054  0.3500 -1.0330
 7351SOL    HW329171   0.566   2.769   0.884  0.8138  0.0886 -0.3461
 7351SOL    MW429172   0.527   2.700   0.846  0.5011  0.2828 -0.2387
 7352SOL     OW29173   5.049   4.838   1.973  0.1323  0.5052  0.1205
 7352SOL    HW229174   5.114   4.777   2.009 -0.5112 -0.5369 -0.4425
 7352SOL    HW329175   5.101   4.901   1.922  0.9210  1.1635  1.6586
 7352SOL    MW429176   5.065   4.838   1.971 -0.0717 -0.4471  0.1006
 7353SOL     OW29177   5.701   0.565   3.116  0.7253 -0.4603  0.6256
 7353SOL    HW229178   5.693   0.636   3.053  0.2476 -1.5297 -0.5548
 7353SOL    HW329179   5.622   0.573   3.171  1.0390  0.3432  0.9751
 7353SOL    MW429180   5.689   0.576   3.115 -0.1103 -0.1273  0.1015
 7354SOL     OW29181   1.323   0.533   4.587 -0.3449 -0.4205  0.4332
 7354SOL    HW229182   1.398   0.588   4.608 -0.8110 -0.5540  2.7192
 7354SOL    HW329183   1.269   0.534   4.666  0.0475 -4.8467  1.0265
 7354SOL    MW429184   1.325   0.540   4.600 -0.7138  0.5491  0.4387
 7355SOL     OW29185   1.919   1.132   4.341 -0.2073 -0.1269 -0.3979
 7355SOL    HW229186   1.883   1.221   4.348 -0.8078 -0.4251  0.4875
 7355SOL    HW329187   2.000   1.136   4.391  0.5173  0.2851 -1.5644
 7355SOL    MW429188   1.925   1.144   4.348  0.0121 -0.0444 -0.1659
 7356SOL     OW29189   5.588   6.242   1.540 -0.1991  0.2225 -0.4253
 7356SOL    HW229190   5.523   6.253   1.472 -1.8254  0.5024  1.0940
 7356SOL    HW329191   5.608   6.149   1.540 -1.1924 -0.0008 -0.4131
 7356SOL    MW429192   5.582   6.231   1.531 -0.3773 -0.0601  0.1512
 7357SOL     OW29193   5.837   1.381   0.332 -0.4718 -0.3067  0.1180
 7357SOL    HW229194   5.771   1.446   0.310 -0.5610 -0.6618 -0.6764
 7357SOL    HW329195   5.860   1.339   0.249 -0.2119 -1.1001  0.5703
 7357SOL    MW429196   5.832   1.384   0.318  0.5005  0.4006  0.1301
 7358SOL     OW29197   2.563   4.426   4.626  0.0180  0.9084 -0.4830
 7358SOL    HW229198   2.635   4.365   4.607 -2.2962 -1.3306 -2.8807
 7358SOL    HW329199   2.542   4.411   4.718  0.9655 -0.2889 -0.4417
 7358SOL    MW429200   2.570   4.416   4.636  0.0531  0.5237 -0.3434
 7359SOL     OW29201   4.342   0.129   1.802  0.7077  0.1786 -0.0011
 7359SOL    HW229202   4.276   0.116   1.734 -0.0311  0.7754  0.5901
 7359SOL    HW329203   4.367   0.040   1.827  1.8278 -0.0739 -1.8169
 7359SOL    MW429204   4.336   0.116   1.796  0.2148  0.0820 -0.0381
 7360SOL     OW29205   5.241   4.605   2.502 -0.3856 -0.0200 -0.3272
 7360SOL    HW229206   5.217   4.572   2.589  1.1406  0.3541  0.2569
 7360SOL    HW329207   5.298   4.537   2.466 -2.6003 -1.1815 -1.9489
 7360SOL    MW429208   5.245   4.591   2.509  0.1900 -0.1754  0.1533
 7361SOL     OW29209   2.514   4.320   6.220 -0.0518  0.3573 -0.1654
 7361SOL    HW229210   2.565   4.373   6.281 -0.7768 -1.5228  2.2524
 7361SOL    HW329211   2.578   4.263   6.178  0.1970 -0.0513  0.7439
 7361SOL    MW429212   2.529   4.320   6.223  0.3503 -0.1224 -0.5514
 7362SOL     OW29213   0.599   4.632   2.547 -0.1548  0.9630  0.2795
 7362SOL    HW229214   0.645   4.549   2.556  0.4895  1.3276  0.3571
 7362SOL    HW329215   0.506   4.607   2.540 -0.0576  0.2982  1.2289
 7362SOL    MW429216   0.593   4.618   2.547 -0.0292 -0.3072 -0.2733
 7363SOL     OW29217   6.181   0.480   4.607 -0.1986  0.0198  0.7687
 7363SOL    HW229218   6.223   0.410   4.558  1.0239 -0.0315  1.8273
 7363SOL    HW329219   6.137   0.533   4.540 -2.6881 -2.6794  0.0809
 7363SOL    MW429220   6.181   0.478   4.592  0.2241  0.0909 -0.1970
 7364SOL     OW29221   5.320   1.280   6.341  0.1062 -0.1937 -0.4358
 7364SOL    HW229222   5.225   1.278   6.353  0.1399 -1.7512 -0.2764
 7364SOL    HW329223   5.355   1.303   6.427 -0.0600 -1.6077  0.0270
 7364SOL    MW429224   5.312   1.283   6.354 -0.5109 -0.0348  0.2325
 7365SOL     OW29225   2.399   5.207   0.107  0.6810  0.2523  0.4332
 7365SOL    HW229226   2.446   5.136   0.062  0.7573  0.1725  0.6321
 7365SOL    HW329227   2.441   5.287   0.076  1.1928  0.1644  0.8725
 7365SOL    MW429228   2.411   5.208   0.097  0.2243  0.0423 -0.6655
 7366SOL     OW29229   5.218   2.981   3.030 -0.7447 -0.4846 -0.6138
 7366SOL    HW229230   5.170   3.010   3.107 -0.6407  0.7726 -1.0151
 7366SOL    HW329231   5.206   3.050   2.965  2.4705  0.4917 -0.3675
 7366SOL    MW429232   5.210   2.994   3.031 -0.3660  0.0309  0.4492
 7367SOL     OW29233   2.983   4.602   0.831  0.0211 -0.0535  0.2641
 7367SOL    HW229234   3.037   4.641   0.763  0.7266  0.7208  1.2329
 7367SOL    HW329235   2.893   4.616   0.802  0.2762  1.6197  0.2070
 7367SOL    MW429236   2.978   4.609   0.819  0.4407 -0.0758  0.0807
 7368SOL     OW29237   3.175   4.342   3.838  0.0992  0.2832  0.2286
 7368SOL    HW229238   3.083   4.330   3.861  0.6239 -1.5252  1.5629
 7368SOL    HW329239   3.223   4.316   3.917  1.7899  0.0911 -0.8215
 7368SOL    MW429240   3.169   4.337   3.852  0.2473  1.1305  0.5569
 7369SOL     OW29241   1.750   3.459   2.638  0.2674 -0.2333  0.6144
 7369SOL    HW229242   1.685   3.523   2.609  0.0049 -1.2498 -1.2570
 7369SOL    HW329243   1.701   3.398   2.692 -0.1103 -0.3735  0.1254
 7369SOL    MW429244   1.735   3.459   2.641 -0.6094 -0.0487 -0.4261
 7370SOL     OW29245   1.934   1.689   4.263 -0.2143 -0.1612 -0.5602
 7370SOL    HW229246   1.853   1.718   4.305 -0.4282  0.5048 -1.3841
 7370SOL    HW329247   1.942   1.597   4.286  0.6368  0.5671  2.3801
 7370SOL    MW429248   1.924   1.681   4.271 -0.1735  0.2918  0.3993
 7371SOL     OW29249   0.667   3.299   5.749 -0.3395  0.5046 -0.3382
 7371SOL    HW229250   0.605   3.328   5.816 -2.4246  0.1567 -2.0193
 7371SOL    HW329251   0.614   3.248   5.688  1.7814 -0.4870 -1.4592
 7371SOL    MW429252   0.652   3.296   5.750  0.2048 -0.1917  0.3795
 7372SOL     OW29253   5.027   4.034   6.021  0.2647  0.1063  0.0230
 7372SOL    HW229254   5.008   3.951   5.977 -0.2614 -0.0683  0.5789
 7372SOL    HW329255   5.120   4.029   6.043  0.1306 -0.5155  0.4463
 7372SOL    MW429256   5.036   4.023   6.018  0.1820 -0.0365  0.0597
 7373SOL     OW29257   4.916   3.746   4.970  0.3790 -0.2654 -0.5730
 7373SOL    HW229258   4.870   3.743   4.886 -0.1368 -1.0754 -0.2823
 7373SOL    HW329259   4.856   3.793   5.029  0.2366 -0.6795 -0.3804
 7373SOL    MW429260   4.902   3.752   4.967 -0.6895  0.1448  0.0271
 7374SOL     OW29261   5.419   1.720   4.414 -0.5182 -0.0966  1.2221
 7374SOL    HW229262   5.325   1.715   4.428 -0.3782 -3.4938  1.7804
 7374SOL    HW329263   5.429   1.785   4.344 -3.3584 -0.3948  0.4162
 7374SOL    MW429264   5.408   1.728   4.406  0.1497  0.2713 -0.1486
 7375SOL     OW29265   0.098   3.680   0.611 -0.0224 -0.5029  0.4752
 7375SOL    HW229266   0.149   3.649   0.537 -0.2669  0.1429  0.0285
 7375SOL    HW329267   0.163   3.702   0.678  0.3274  0.7378 -0.2496
 7375SOL    MW429268   0.113   3.679   0.610 -0.0556  0.0709  0.3343
 7376SOL     OW29269   1.810   2.932   6.276 -0.3618 -0.0308 -0.3555
 7376SOL    HW229270   1.867   2.975   6.340 -0.8498 -1.3487  1.0173
 7376SOL    HW329271   1.844   2.843   6.269  0.3741  0.3709 -2.8338
 7376SOL    MW429272   1.822   2.926   6.283 -0.4353  0.5669  0.6052
 7377SOL     OW29273   2.161   0.568   0.838 -0.1552 -0.1190  0.2272
 7377SOL    HW229274   2.257   0.569   0.841 -0.0737  0.7389 -1.5340
 7377SOL    HW329275   2.140   0.520   0.758 -1.2891 -1.9154  1.5015
 7377SOL    MW429276   2.171   0.562   0.828 -0.0499 -0.1997 -1.0910
 7378SOL     OW29277   2.927   4.355   4.975 -0.5913 -0.2433 -0.0702
 7378SOL    HW229278   2.894   4.445   4.982 -2.1782 -0.8083 -0.0592
 7378SOL    HW329279   2.860   4.301   5.016 -0.6572 -1.6512 -1.9062
 7378SOL    MW429280   2.914   4.360   4.982  0.1732  0.1674 -0.2418
 7379SOL     OW29281   1.511   5.340   5.120  0.7412  0.0488  0.3262
 7379SOL    HW229282   1.583   5.351   5.181  0.2292 -0.3983  1.0189
 7379SOL    HW329283   1.553   5.339   5.034  1.2922  2.6321  0.4816
 7379SOL    MW429284   1.526   5.341   5.116 -0.0255 -0.2843 -0.0685
 7380SOL     OW29285   0.919   5.280   5.799 -0.3300 -0.3180  0.4304
 7380SOL    HW229286   0.957   5.270   5.886 -0.8961 -0.6435  0.6449
 7380SOL    HW329287   0.863   5.358   5.806  0.2043  0.1027  0.1433
 7380SOL    MW429288   0.916   5.289   5.811  0.1036 -0.6189  0.0248
 7381SOL     OW29289   4.151   2.153   1.323  0.3115 -0.4622 -0.2467
 7381SOL    HW229290   4.157   2.139   1.417  2.2110  1.9681  0.0760
 7381SOL    HW329291   4.233   2.197   1.299 -0.6160  0.0550 -2.8411
 7381SOL    MW429292   4.163   2.157   1.332  0.4832  0.2600  0.0140
 7382SOL     OW29293   6.330   2.273   5.862 -0.3830  0.3568  0.6951
 7382SOL    HW229294   6.425   2.258   5.859 -0.0358  1.9901  2.2909
 7382SOL    HW329295   6.313   2.334   5.790 -0.5053 -1.0698 -0.5406
 7382SOL    MW429296   6.340   2.279   5.852  0.3822 -0.1436  0.0618
 7383SOL     OW29297   3.323   0.677   0.219  0.1833  0.2939 -0.4017
 7383SOL    HW229298   3.314   0.654   0.312  0.3125  2.3548  0.1730
 7383SOL    HW329299   3.262   0.749   0.206  1.1770  0.9794 -1.5523
 7383SOL    MW429300   3.314   0.683   0.230  0.3540 -0.0632  0.0051
 7384SOL     OW29301   3.694   5.857   1.329 -0.1725  0.1853  0.3851
 7384SOL    HW229302   3.673   5.802   1.405  0.0994 -1.3216 -0.5801
 7384SOL    HW329303   3.614   5.854   1.275  0.1354  0.0543 -0.0676
 7384SOL    MW429304   3.681   5.849   1.332  0.1267 -0.5120 -0.2181
 7385SOL     OW29305   5.649   0.882   1.868  0.1120  0.1510 -0.0208
 7385SOL    HW229306   5.660   0.791   1.843  0.1621 -0.2557  1.4033
 7385SOL    HW329307   5.737   0.912   1.888  0.2825  0.9298 -1.7213
 7385SOL    MW429308   5.662   0.874   1.867  0.3239  0.8549 -0.6296
 7386SOL     OW29309   0.167   6.054   2.056 -0.2208 -0.0609  0.1499
 7386SOL    HW229310   0.085   6.086   2.019  0.7030 -0.0872 -2.0363
 7386SOL    HW329311   0.222   6.034   1.980  1.6053 -0.6107  1.5464
 7386SOL    MW429312   0.163   6.055   2.041 -0.6668  0.2388  0.1760
 7387SOL     OW29313   1.080   0.823   2.054  0.6376  0.6751 -0.0256
 7387SOL    HW229314   0.989   0.831   2.023  0.6753 -1.4807 -0.8824
 7387SOL    HW329315   1.133   0.837   1.975  0.9892  0.7089  0.2172
 7387SOL    MW429316   1.075   0.826   2.039 -0.4772 -0.4876  0.0107
 7388SOL     OW29317   3.586   2.033   3.607 -0.7565 -0.3654  0.4828
 7388SOL    HW229318   3.633   2.083   3.540 -1.6042 -0.0950  0.0831
 7388SOL    HW329319   3.650   2.021   3.677  0.1457 -0.6321 -0.3568
 7388SOL    MW429320   3.601   2.038   3.608 -0.4860 -0.2169 -0.0910
 7389SOL     OW29321   6.025   5.457   0.815  0.2158  0.2990  0.0193
 7389SOL    HW229322   6.045   5.487   0.726 -1.1424  0.8368 -0.1393
 7389SOL    HW329323   5.957   5.391   0.802  0.6758 -0.3019  0.6102
 7389SOL    MW429324   6.018   5.452   0.801 -0.0304  0.6228 -0.5610
 7390SOL     OW29325   3.964   1.085   4.731  0.3848  0.0431  0.0282
 7390SOL    HW229326   4.002   1.050   4.651  0.2717  1.1314 -0.5175
 7390SOL    HW329327   3.946   1.008   4.785 -1.6523 -0.9041 -1.8934
 7390SOL    MW429328   3.967   1.070   4.728  0.3623 -0.0490  0.1392
 7391SOL     OW29329   4.307   0.624   5.970  0.0407 -0.3090  0.3730
 7391SOL    HW229330   4.396   0.590   5.973  0.1812  0.0797  0.8495
 7391SOL    HW329331   4.317   0.719   5.977 -0.4673 -0.3421  2.0437
 7391SOL    MW429332   4.320   0.632   5.972 -0.1420 -0.2521  0.7041
 7392SOL     OW29333   0.371   2.778   1.841 -0.0468  0.2609 -0.7939
 7392SOL    HW229334   0.326   2.839   1.782 -1.7633  1.1879  1.3330
 7392SOL    HW329335   0.340   2.692   1.815  1.1516  0.3513 -2.7809
 7392SOL    MW429336   0.361   2.775   1.829  0.2078 -0.3573 -0.0669
 7393SOL     OW29337   6.003   4.449   0.477 -0.8985 -0.1530 -0.3892
 7393SOL    HW229338   6.066   4.504   0.524 -1.1322  0.0894 -0.3612
 7393SOL    HW329339   5.932   4.434   0.539 -1.1701  0.1024 -0.6365
 7393SOL    MW429340   6.002   4.454   0.491 -0.4477 -1.2801  0.4764
 7394SOL     OW29341   4.833   2.160   3.231  0.2240  0.0838 -0.2557
 7394SOL    HW229342   4.866   2.230   3.174  1.4069 -0.3582 -0.1451
 7394SOL    HW329343   4.889   2.165   3.309  0.6629 -1.2885 -0.4533
 7394SOL    MW429344   4.845   2.170   3.234  0.1737 -0.4173  0.0969
 7395SOL     OW29345   4.052   4.073   2.266 -0.0681  0.2279  0.5273
 7395SOL    HW229346   4.064   4.003   2.331  0.8161 -1.2203 -1.1297
 7395SOL    HW329347   4.012   4.145   2.316 -0.6046 -1.2793  2.3852
 7395SOL    MW429348   4.048   4.074   2.281  0.1224 -0.2010 -0.0249
 7396SOL     OW29349   5.676   2.350   2.405  0.6657 -0.0532 -0.3066
 7396SOL    HW229350   5.711   2.293   2.336 -1.7571 -1.9156 -0.1037
 7396SOL    HW329351   5.677   2.295   2.484  0.4858  1.0115  0.4497
 7396SOL    MW429352   5.681   2.335   2.406 -0.0251 -0.0729  0.5226
 7397SOL     OW29353   2.910   1.395   5.515  0.4463  0.2620  0.1003
 7397SOL    HW229354   2.871   1.442   5.440 -1.2105  0.5103  1.0677
 7397SOL    HW329355   2.835   1.360   5.562  1.5614 -1.6558  0.5480
 7397SOL    MW429356   2.895   1.396   5.511  0.0879 -0.5120  0.3746
 7398SOL     OW29357   2.522   4.080   1.207 -0.1958 -0.0406 -0.6325
 7398SOL    HW229358   2.581   4.070   1.281 -0.8462 -0.1850 -0.1277
 7398SOL    HW329359   2.512   4.174   1.196 -0.7213 -0.0195 -0.0278
 7398SOL    MW429360   2.529   4.091   1.215  0.0562  0.4937 -0.2029
 7399SOL     OW29361   0.285   5.226   5.577  0.2695 -0.1137  0.1678
 7399SOL    HW229362   0.215   5.164   5.560 -0.1894  0.0648  1.3097
 7399SOL    HW329363   0.361   5.171   5.600  0.1843 -0.2799  0.0479
 7399SOL    MW429364   0.286   5.210   5.578 -0.0114  0.3650  0.1399
 7400SOL     OW29365   5.388   2.916   0.439 -0.1404 -0.1264 -0.1235
 7400SOL    HW229366   5.461   2.881   0.387  1.3670  1.1634  1.0078
 7400SOL    HW329367   5.412   3.008   0.454 -1.9576  0.2937  0.4027
 7400SOL    MW429368   5.401   2.923   0.434  0.7588  0.4799 -0.6027
 7401SOL     OW29369   6.178   4.140   3.785  0.2434  0.2620  0.5234
 7401SOL    HW229370   6.256   4.088   3.765 -0.1719 -0.4094  0.6136
 7401SOL    HW329371   6.172   4.138   3.881 -0.6035 -0.7874  0.4670
 7401SOL    MW429372   6.188   4.133   3.795 -0.1633 -0.6666  0.6276
 7402SOL     OW29373   4.962   0.228   4.141 -0.7915 -0.5464  0.1261
 7402SOL    HW229374   5.020   0.296   4.106 -1.4584  0.0083  0.0929
 7402SOL    HW329375   4.948   0.253   4.232 -0.7975 -0.8101  0.1990
 7402SOL    MW429376   4.968   0.240   4.149 -0.4256 -0.0537  0.0762
 7403SOL     OW29377   3.271   0.999   2.688 -0.0913  0.9092  1.0791
 7403SOL    HW229378   3.211   0.953   2.746  1.4370 -1.5845  0.8379
 7403SOL    HW329379   3.322   1.057   2.745  1.1063 -1.1947  2.2706
 7403SOL    MW429380   3.270   1.001   2.703 -0.4100 -0.2349 -0.0855
 7404SOL     OW29381   5.538   2.402   0.038 -0.0358 -0.0743 -0.4663
 7404SOL    HW229382   5.496   2.487   0.035  1.5764  0.7593 -0.3610
 7404SOL    HW329383   5.469   2.342   0.065 -1.4650  0.9938 -1.6323
 7404SOL    MW429384   5.524   2.405   0.041 -0.3036  0.0489 -0.0455
 7405SOL     OW29385   3.410   1.932   0.500 -0.3588  0.4571  0.1246
 7405SOL    HW229386   3.499   1.900   0.482 -0.6534  0.1481 -0.8114
 7405SOL    HW329387   3.398   1.915   0.594  0.1262 -0.6454  0.0100
 7405SOL    MW429388   3.420   1.925   0.510  0.3422 -0.1841  0.2447
 7406SOL     OW29389   2.510   5.359   2.844 -0.1665  0.0071  0.0613
 7406SOL    HW229390   2.451   5.400   2.907  0.7868  0.0215  0.9599
 7406SOL    HW329391   2.543   5.282   2.888 -0.9642 -1.0782 -1.1550
 7406SOL    MW429392   2.506   5.355   2.858 -0.0083 -0.0220  0.1706
 7407SOL     OW29393   3.864   2.322   1.594 -0.1073 -0.4975 -0.0093
 7407SOL    HW229394   3.887   2.335   1.502 -1.2093 -0.0523 -0.2319
 7407SOL    HW329395   3.785   2.269   1.592  0.0263 -0.7339  0.7017
 7407SOL    MW429396   3.857   2.317   1.581  0.0255  0.2616  0.3190
 7408SOL     OW29397   2.232   4.542   5.434 -0.3858 -0.3104  0.1638
 7408SOL    HW229398   2.154   4.596   5.429  0.7082  1.3476  0.2176
 7408SOL    HW329399   2.251   4.535   5.528 -1.0301 -1.5887  0.2169
 7408SOL    MW429400   2.225   4.548   5.446  0.3971 -0.0758 -0.1497
 7409SOL     OW29401   2.379   3.596   3.322  0.0384  0.0829 -0.2518
 7409SOL    HW229402   2.285   3.602   3.309  0.0033  1.0177  0.3525
 7409SOL    HW329403   2.394   3.505   3.349 -0.9533  0.3969  1.5026
 7409SOL    MW429404   2.369   3.585   3.324 -0.6498 -0.2197 -0.0460
 7410SOL     OW29405   5.261   6.008   4.783  0.1829 -1.0477  0.4202
 7410SOL    HW229406   5.282   5.921   4.748 -0.1505 -0.2465 -1.9489
 7410SOL    HW329407   5.347   6.047   4.802  0.3231 -1.9891  1.8642
 7410SOL    MW429408   5.275   6.002   4.781 -0.4966  0.4942  0.2181
 7411SOL     OW29409   3.930   3.770   0.606 -0.0069 -0.2130 -0.0409
 7411SOL    HW229410   4.016   3.778   0.565  1.3470 -1.3605  2.3772
 7411SOL    HW329411   3.871   3.815   0.545  2.3551  1.1672 -1.4971
 7411SOL    MW429412   3.934   3.777   0.592 -0.1891  0.3221  0.2734
 7412SOL     OW29413   1.951   2.494   3.349  0.0120 -0.1664  0.2677
 7412SOL    HW229414   2.006   2.505   3.426 -1.7269 -0.0819  1.5737
 7412SOL    HW329415   1.892   2.422   3.372  0.1897 -0.9020 -1.4567
 7412SOL    MW429416   1.950   2.486   3.362 -0.8434 -0.3491  0.3245
 7413SOL     OW29417   4.361   1.329   6.165 -0.3541  0.2406  0.6556
 7413SOL    HW229418   4.402   1.414   6.150 -0.3035 -0.2147 -2.4220
 7413SOL    HW329419   4.433   1.266   6.159 -0.8446 -0.2349 -0.4908
 7413SOL    MW429420   4.376   1.332   6.163 -0.0138 -0.0044  0.3811
 7414SOL     OW29421   2.965   2.613   0.906  0.4459  0.1752  0.1571
 7414SOL    HW229422   2.959   2.709   0.909  2.1654  0.3177  0.0730
 7414SOL    HW329423   3.052   2.596   0.869 -0.3293 -1.4389 -1.0097
 7414SOL    MW429424   2.976   2.624   0.902  0.1553  0.1337  0.0433
 7415SOL     OW29425   4.726   6.122   5.442  0.1597 -0.0103  0.9247
 7415SOL    HW229426   4.757   6.169   5.365 -0.8867 -0.9576 -0.1117
 7415SOL    HW329427   4.749   6.030   5.426 -0.0332 -0.2189  1.7627
 7415SOL    MW429428   4.733   6.116   5.430  1.0353 -0.2131 -0.3100
 7416SOL     OW29429   1.067   5.021   3.508 -0.1161  0.2117  0.4071
 7416SOL    HW229430   1.064   4.984   3.420  2.6368 -1.2644  0.8130
 7416SOL    HW329431   1.119   5.101   3.499 -0.7727  0.6658  0.5511
 7416SOL    MW429432   1.073   5.027   3.495  0.0413  0.0289 -0.8307
 7417SOL     OW29433   1.601   3.848   6.392 -0.0903 -0.1234 -0.2162
 7417SOL    HW229434   1.609   3.853   6.297  1.1039  1.1124 -0.0919
 7417SOL    HW329435   1.659   3.776   6.417 -0.7722 -0.7594 -0.4531
 7417SOL    MW429436   1.610   3.839   6.383 -0.1569 -0.2595 -0.1420
 7418SOL     OW29437   5.563   5.241   5.018 -0.1296 -0.4889 -0.2222
 7418SOL    HW229438   5.615   5.188   4.957 -0.7002 -2.0193  0.5534
 7418SOL    HW329439   5.616   5.318   5.034 -0.0260  0.0574 -2.7632
 7418SOL    MW429440   5.577   5.244   5.012  0.3486 -0.4851 -0.3886
 7419SOL     OW29441   2.877   4.876   5.391 -0.3722 -0.0860 -0.3223
 7419SOL    HW229442   2.925   4.801   5.356 -0.5480  0.2647 -1.3569
 7419SOL    HW329443   2.858   4.930   5.314  0.6394  1.5522  0.5247
 7419SOL    MW429444   2.881   4.873   5.376 -0.1948 -0.2308  0.5491
 7420SOL     OW29445   2.283   6.229   4.409  0.0591 -0.4393  0.6685
 7420SOL    HW229446   2.287   6.280   4.328 -0.5617 -1.0817  0.2249
 7420SOL    HW329447   2.327   6.284   4.474  0.8846 -0.0716 -0.1783
 7420SOL    MW429448   2.289   6.243   4.407 -0.4119 -0.0902 -0.1163
 7421SOL     OW29449   3.307   3.996   2.704 -0.4594  0.3457  0.2071
 7421SOL    HW229450   3.308   3.924   2.768 -0.6144 -0.1195 -0.3010
 7421SOL    HW329451   3.223   4.040   2.719  0.1025  1.1039  1.2482
 7421SOL    MW429452   3.296   3.992   2.715 -0.3075 -0.6320 -0.6774
 7422SOL     OW29453   0.897   5.796   2.787 -0.0774  0.2544  0.5680
 7422SOL    HW229454   0.861   5.766   2.703 -1.7648 -0.5366  1.5136
 7422SOL    HW329455   0.974   5.741   2.801  0.7217  0.9560 -0.8086
 7422SOL    MW429456   0.902   5.785   2.777 -0.4228 -0.1807 -0.0665
 7423SOL     OW29457   6.005   1.395   4.278 -0.4261 -0.4902  0.0613
 7423SOL    HW229458   5.969   1.461   4.337 -0.0323  0.6680 -0.9606
 7423SOL    HW329459   6.099   1.401   4.290 -0.3662 -0.5264 -0.3843
 7423SOL    MW429460   6.012   1.404   4.287  0.0037 -0.2447  0.3717
 7424SOL     OW29461   4.883   3.788   1.368 -0.6360  0.3451 -0.4069
 7424SOL    HW229462   4.941   3.783   1.444 -0.6866  1.8739 -0.2282
 7424SOL    HW329463   4.814   3.724   1.386 -0.5240  0.5249  0.7362
 7424SOL    MW429464   4.881   3.779   1.380 -0.4187  0.5816 -0.0531
 7425SOL     OW29465   2.079   2.522   1.372 -0.2251  0.1627  0.1039
 7425SOL    HW229466   2.106   2.556   1.458 -1.1342 -0.9551  0.8704
 7425SOL    HW329467   2.120   2.436   1.367  0.9204  0.7632 -1.1993
 7425SOL    MW429468   2.088   2.515   1.383  0.4225  0.3107  0.3209
 7426SOL     OW29469   2.010   1.657   3.371 -1.1250  0.1333  0.5143
 7426SOL    HW229470   1.983   1.598   3.301 -1.5600  0.6033  0.2808
 7426SOL    HW329471   2.042   1.598   3.440  2.3162 -0.2874 -1.2117
 7426SOL    MW429472   2.010   1.641   3.371 -0.3398  0.1687 -0.0971
 7427SOL     OW29473   1.735   4.622   1.785 -0.0457  0.6029  0.5551
 7427SOL    HW229474   1.757   4.709   1.753  0.6668  0.4966  0.7444
 7427SOL    HW329475   1.677   4.586   1.718 -0.6988  1.3823  0.6875
 7427SOL    MW429476   1.730   4.628   1.772 -0.1225 -0.1923 -0.3132
 7428SOL     OW29477   0.060   5.073   5.518  0.3628  0.3495 -0.2886
 7428SOL    HW229478   0.096   5.044   5.434  0.1050  1.0057 -0.6340
 7428SOL    HW329479   0.003   5.147   5.495 -0.3514  0.0137  0.3691
 7428SOL    MW429480   0.057   5.079   5.504  0.3583  0.1352  0.2666
 7429SOL     OW29481   4.416   3.753   1.499 -0.5906  0.3875 -0.0955
 7429SOL    HW229482   4.463   3.804   1.565 -0.2509  1.4301 -1.0988
 7429SOL    HW329483   4.438   3.796   1.416  1.3686 -2.5542 -1.2905
 7429SOL    MW429484   4.425   3.765   1.496  0.0348 -0.5850  0.1769
 7430SOL     OW29485   3.305   0.646   5.802  0.8305 -0.1543  0.4325
 7430SOL    HW229486   3.361   0.698   5.860  1.2645  0.5634 -0.5944
 7430SOL    HW329487   3.220   0.647   5.844  1.3666 -0.4803  1.5523
 7430SOL    MW429488   3.301   0.653   5.815  0.0653 -0.4060 -0.0571
 7431SOL     OW29489   3.316   5.892   0.928 -0.5028 -0.5290  0.2168
 7431SOL    HW229490   3.358   5.861   1.008 -1.4724  2.0369  1.8754
 7431SOL    HW329491   3.227   5.914   0.955 -0.1322  2.8428 -0.8254
 7431SOL    MW429492   3.310   5.891   0.942 -0.0406  0.5213 -0.1906
 7432SOL     OW29493   4.111   3.823   5.465  0.1230  0.2219 -0.4157
 7432SOL    HW229494   4.196   3.813   5.422  0.3911  1.9385 -0.3856
 7432SOL    HW329495   4.110   3.757   5.534  1.1768 -0.2257 -0.8173
 7432SOL    MW429496   4.122   3.813   5.469 -0.4675  0.0948  0.0082
 7433SOL     OW29497   3.695   1.780   3.554  0.5315 -0.0278 -0.4284
 7433SOL    HW229498   3.632   1.850   3.569  0.9519  0.1954  0.3236
 7433SOL    HW329499   3.665   1.738   3.473 -1.0863 -0.4731  0.3514
 7433SOL    MW429500   3.682   1.784   3.545  0.2266  0.8688 -0.0667
 7434SOL     OW29501   5.147   5.171   3.772 -0.0837  0.3261 -0.2585
 7434SOL    HW229502   5.075   5.217   3.815 -0.1909  0.9512 -1.0821
 7434SOL    HW329503   5.106   5.125   3.698  0.2348 -0.0057 -0.2334
 7434SOL    MW429504   5.132   5.171   3.768  0.0735  0.3658  0.4460
 7435SOL     OW29505   0.623   1.702   2.147  0.3018 -0.5877 -0.1005
 7435SOL    HW229506   0.652   1.698   2.238 -0.1998 -0.6002  0.0628
 7435SOL    HW329507   0.700   1.677   2.096  1.1241  1.1458  0.2172
 7435SOL    MW429508   0.637   1.698   2.153  0.3156  0.0561  0.3273
 7436SOL     OW29509   1.569   4.106   1.695  0.1797  0.0558 -0.8177
 7436SOL    HW229510   1.619   4.114   1.776  1.5151  1.1719 -1.6989
 7436SOL    HW329511   1.634   4.082   1.629 -0.5502  0.8979 -1.8775
 7436SOL    MW429512   1.584   4.104   1.697 -0.3381 -0.0676 -0.5399
 7437SOL     OW29513   6.260   4.439   4.806 -0.4759 -1.2005 -0.0549
 7437SOL    HW229514   6.333   4.379   4.817 -0.0691 -0.7468 -0.2194
 7437SOL    HW329515   6.259   4.460   4.713 -1.5319 -2.0793 -0.2663
 7437SOL    MW429516   6.269   4.434   4.796  0.1392 -0.7909 -0.2045
 7438SOL     OW29517   1.968   2.782   1.740 -0.5855  0.6266  0.1037
 7438SOL    HW229518   1.899   2.840   1.770 -2.7802 -1.2756 -1.0048
 7438SOL    HW329519   1.972   2.713   1.806 -1.8691 -0.8388 -1.2764
 7438SOL    MW429520   1.960   2.780   1.753  0.2452  0.0055  0.3800
 7439SOL     OW29521   0.978   3.199   1.517 -0.2303  0.2237  0.2206
 7439SOL    HW229522   0.925   3.173   1.442  1.8168 -2.4150 -0.4620
 7439SOL    HW329523   1.003   3.290   1.498 -0.2133 -0.1878 -2.0559
 7439SOL    MW429524   0.974   3.208   1.504 -0.4692  0.5756 -0.0559
 7440SOL     OW29525   5.883   6.297   6.036  0.7100  0.5956  0.3293
 7440SOL    HW229526   5.959   6.348   6.065  0.2774  1.1435  0.5076
 7440SOL    HW329527   5.818   6.309   6.106 -0.1671  1.5254 -0.6217
 7440SOL    MW429528   5.884   6.305   6.049  0.0876  0.1959 -0.4265
 7441SOL     OW29529   4.792   3.006   4.317  0.2158  0.1169 -0.3361
 7441SOL    HW229530   4.824   3.096   4.313  0.5836  0.0126  0.1319
 7441SOL    HW329531   4.806   2.980   4.408 -1.5453  0.1944 -0.0008
 7441SOL    MW429532   4.798   3.014   4.329  0.0751  0.3676  0.1987
 7442SOL     OW29533   4.903   0.787   5.228 -0.0296  0.2646 -0.4993
 7442SOL    HW229534   4.826   0.760   5.179 -1.8689  0.0072  2.3335
 7442SOL    HW329535   4.933   0.707   5.272 -0.9751  1.2071  2.0100
 7442SOL    MW429536   4.897   0.773   5.227  0.0068  0.7478 -0.3551
 7443SOL     OW29537   1.623   3.303   0.283  0.5437  0.0112 -0.1757
 7443SOL    HW229538   1.636   3.365   0.211  1.6564  0.9342  0.7699
 7443SOL    HW329539   1.709   3.297   0.324  0.1716 -1.3207  0.4332
 7443SOL    MW429540   1.636   3.311   0.279 -0.4335 -0.5082  0.3348
 7444SOL     OW29541   0.696   4.527   0.135  0.1026  0.0442 -0.2513
 7444SOL    HW229542   0.760   4.462   0.106 -0.1850 -0.6337  0.5884
 7444SOL    HW329543   0.656   4.488   0.213 -1.5605  0.3185 -0.9290
 7444SOL    MW429544   0.699   4.513   0.142  0.2145  0.8422  0.2342
 7445SOL     OW29545   5.780   4.776   0.837 -0.2137 -0.4838 -0.1671
 7445SOL    HW229546   5.742   4.864   0.831 -2.2782 -1.3706 -0.9058
 7445SOL    HW329547   5.826   4.776   0.921  0.4355  1.5021 -0.4767
 7445SOL    MW429548   5.781   4.788   0.848 -0.1788  0.0513 -0.0663
 7446SOL     OW29549   5.079   3.751   1.548 -0.1115 -0.7293  0.5445
 7446SOL    HW229550   5.058   3.659   1.567  2.5246 -0.8886  3.5796
 7446SOL    HW329551   5.066   3.796   1.632  0.6504  1.2381 -0.3417
 7446SOL    MW429552   5.074   3.745   1.562 -0.5305 -0.2313 -0.2662
 7447SOL     OW29553   1.208   1.932   5.592 -0.5781  0.0166  0.3254
 7447SOL    HW229554   1.252   1.919   5.676 -3.0739 -1.7314  1.5031
 7447SOL    HW329555   1.158   2.013   5.605 -0.0571  0.3813  0.0803
 7447SOL    MW429556   1.207   1.941   5.605  0.0107  0.6915 -0.0577
 7448SOL     OW29557   2.842   1.501   3.954  0.3714 -0.1485  0.7590
 7448SOL    HW229558   2.891   1.430   3.913 -0.4615  0.1920 -0.9084
 7448SOL    HW329559   2.900   1.535   4.022  3.1560  1.2606 -2.0701
 7448SOL    MW429560   2.856   1.496   3.958 -0.4335 -0.1751 -0.2906
 7449SOL     OW29561   6.154   3.374   1.256 -0.0716 -0.4977 -0.2721
 7449SOL    HW229562   6.085   3.439   1.266  1.0392  0.7510 -0.4466
 7449SOL    HW329563   6.132   3.328   1.175 -1.3226 -0.9320  0.2949
 7449SOL    MW429564   6.142   3.376   1.247  0.0132  0.2402 -0.0349
 7450SOL     OW29565   0.226   2.029   4.229  0.1299  0.4547 -0.1451
 7450SOL    HW229566   0.158   2.054   4.293 -0.9899 -0.2848 -1.0050
 7450SOL    HW329567   0.221   2.096   4.162 -1.3983 -0.7842 -1.3691
 7450SOL    MW429568   0.216   2.041   4.229  0.3533 -0.1721  0.0690
 7451SOL     OW29569   1.939   3.621   6.086 -0.4908  0.0688  0.0353
 7451SOL    HW229570   1.914   3.623   5.994 -0.3420  1.2960 -0.0007
 7451SOL    HW329571   1.980   3.536   6.098 -1.4473 -0.5246 -0.7715
 7451SOL    MW429572   1.941   3.610   6.076 -0.0648  0.7090  0.8568
 7452SOL     OW29573   3.251   2.282   3.945 -0.2237  0.3432 -0.1287
 7452SOL    HW229574   3.182   2.217   3.957  0.6062 -0.8189 -1.3639
 7452SOL    HW329575   3.316   2.261   4.013  1.2351 -1.8380 -2.0243
 7452SOL    MW429576   3.251   2.270   3.956  0.3516 -0.4029  0.4557
 7453SOL     OW29577   6.077   1.994   1.496 -0.4414  0.2663  0.5663
 7453SOL    HW229578   6.087   1.907   1.458 -0.0209 -0.0758  1.4494
 7453SOL    HW329579   6.063   2.051   1.420  1.4161 -0.2449 -0.2335
 7453SOL    MW429580   6.076   1.990   1.481 -0.0135 -0.2116 -0.3654
 7454SOL     OW29581   5.234   4.386   1.205  0.2017  0.0007  0.5982
 7454SOL    HW229582   5.152   4.356   1.165  0.3850 -0.6783  0.7256
 7454SOL    HW329583   5.293   4.400   1.131  0.0814  0.1667  0.5313
 7454SOL    MW429584   5.231   4.384   1.190 -0.5127 -0.5737  0.3248
 7455SOL     OW29585   0.262   2.256   0.883 -0.7388  0.2678  0.1786
 7455SOL    HW229586   0.185   2.229   0.833 -1.4124  2.5583 -0.1561
 7455SOL    HW329587   0.230   2.266   0.973 -0.0364 -1.7755  0.7034
 7455SOL    MW429588   0.248   2.254   0.888  0.0155 -0.4355 -0.0492
 7456SOL     OW29589   2.429   4.331   1.105 -0.5314 -0.1771 -0.2654
 7456SOL    HW229590   2.376   4.251   1.106  2.1525 -2.1236 -0.8195
 7456SOL    HW329591   2.445   4.348   1.012  0.5912 -0.2453 -0.1029
 7456SOL    MW429592   2.424   4.323   1.093  0.4508 -0.0281  0.0879
 7457SOL     OW29593   0.950   4.479   6.223 -0.1542 -0.1638 -0.2101
 7457SOL    HW229594   0.908   4.564   6.211 -1.3069 -0.5678  0.8267
 7457SOL    HW329595   0.934   4.457   6.315  1.6394 -0.7191  0.0222
 7457SOL    MW429596   0.943   4.488   6.234 -0.7703  0.7290  0.4303
 7458SOL     OW29597   6.216   2.689   2.245 -0.5960 -0.3643  0.1372
 7458SOL    HW229598   6.264   2.719   2.323  1.1054 -1.4400 -0.4374
 7458SOL    HW329599   6.267   2.723   2.172 -1.2364 -0.7694 -0.5017
 7458SOL    MW429600   6.229   2.698   2.246 -0.6203 -0.0644  0.2604
 7459SOL     OW29601   3.704   0.122   2.192  0.2883 -0.2134  0.2767
 7459SOL    HW229602   3.675   0.130   2.283 -0.5272 -0.7332  0.0729
 7459SOL    HW329603   3.714   0.028   2.178 -1.6647 -0.3362 -0.7682
 7459SOL    MW429604   3.701   0.111   2.202 -0.2963  0.2999  0.5494
 7460SOL     OW29605   3.537   3.593   5.131  0.1205 -0.0886  0.3209
 7460SOL    HW229606   3.615   3.575   5.079  0.6465  1.0441  0.6886
 7460SOL    HW329607   3.545   3.535   5.208  1.5460  1.2973  1.2634
 7460SOL    MW429608   3.548   3.583   5.135 -0.0982  0.1573  0.5753
 7461SOL     OW29609   0.174   4.148   2.944  0.0044 -0.7345 -0.0495
 7461SOL    HW229610   0.119   4.197   2.882 -0.6308 -0.9500  0.3317
 7461SOL    HW329611   0.226   4.215   2.987 -0.9616 -0.3564  0.5708
 7461SOL    MW429612   0.173   4.163   2.941 -0.0122 -0.1425 -0.1191
 7462SOL     OW29613   2.302   4.136   0.422  0.1932 -0.0504  0.0949
 7462SOL    HW229614   2.322   4.178   0.338 -0.9864 -0.6804 -0.5183
 7462SOL    HW329615   2.229   4.187   0.457  0.2689 -0.1814  0.4506
 7462SOL    MW429616   2.295   4.149   0.415 -0.3580  0.1351 -0.3801
 7463SOL     OW29617   1.886   1.354   6.402  1.0354  0.3393  0.4366
 7463SOL    HW229618   1.887   1.384   6.492  0.2755 -0.3593  0.6823
 7463SOL    HW329619   1.798   1.320   6.388  0.4901  2.1909 -1.1692
 7463SOL    MW429620   1.875   1.354   6.412  0.1817  0.1637  0.3730
 7464SOL     OW29621   3.334   4.722   5.239  0.3991  0.4097 -0.3315
 7464SOL    HW229622   3.293   4.808   5.231 -0.3070  0.0307 -0.8261
 7464SOL    HW329623   3.299   4.686   5.321 -2.2188 -0.9120 -1.9044
 7464SOL    MW429624   3.324   4.729   5.249 -0.2931 -0.0462  0.4845
 7465SOL     OW29625   4.557   1.684   3.319 -0.2693  0.2103  0.0059
 7465SOL    HW229626   4.594   1.706   3.404  0.2139 -1.8151  0.3842
 7465SOL    HW329627   4.462   1.693   3.330 -0.2289 -0.3050  0.8752
 7465SOL    MW429628   4.549   1.688   3.332  0.2895 -0.0097  0.0287
 7466SOL     OW29629   1.323   0.271   4.904 -0.5239  0.6161 -0.0595
 7466SOL    HW229630   1.383   0.265   4.830 -2.0390 -2.0103 -1.2024
 7466SOL    HW329631   1.255   0.332   4.875 -0.2983  0.7970 -0.2118
 7466SOL    MW429632   1.322   0.278   4.890  0.2389 -0.6866  0.3794
 7467SOL     OW29633   2.614   3.930   2.121 -0.1117  0.0740 -0.2120
 7467SOL    HW229634   2.705   3.910   2.143 -0.2296  0.0369  0.2616
 7467SOL    HW329635   2.578   3.967   2.201 -0.2737  0.9251 -0.6752
 7467SOL    MW429636   2.621   3.932   2.135 -0.2484 -0.2769 -0.0670
 7468SOL     OW29637   4.880   5.448   6.280 -0.0773 -0.2445 -0.4648
 7468SOL    HW229638   4.919   5.501   6.211  2.4728  0.7234  1.5318
 7468SOL    HW329639   4.937   5.370   6.285 -0.9995 -0.9212 -0.2827
 7468SOL    MW429640   4.893   5.444   6.272 -0.1905 -0.1291  0.1533
 7469SOL     OW29641   5.843   2.734   4.321  0.2622 -0.0164 -0.2361
 7469SOL    HW229642   5.861   2.746   4.227 -0.5899  0.7107 -0.3173
 7469SOL    HW329643   5.861   2.820   4.359  0.0610 -0.1588  0.1797
 7469SOL    MW429644   5.848   2.747   4.314  0.2948  1.3355 -0.0938
 7470SOL     OW29645   5.507   0.449   5.818  0.2350  0.1507 -0.0955
 7470SOL    HW229646   5.548   0.379   5.870 -1.7517 -0.2848  0.9673
 7470SOL    HW329647   5.498   0.522   5.880 -0.1561  0.4155 -0.4635
 7470SOL    MW429648   5.511   0.450   5.833 -0.3396 -0.2010  0.2225
 7471SOL     OW29649   1.498   2.302   6.163 -0.4273  0.3307  0.6694
 7471SOL    HW229650   1.567   2.242   6.133 -1.2623 -1.3378  1.9400
 7471SOL    HW329651   1.496   2.371   6.097 -0.8706 -2.1238 -2.0430
 7471SOL    MW429652   1.507   2.303   6.151  0.2489 -0.4032 -0.4873
 7472SOL     OW29653   1.583   2.695   5.521  0.5130 -0.4741  0.1640
 7472SOL    HW229654   1.663   2.729   5.561  0.7592 -2.4478  1.4945
 7472SOL    HW329655   1.513   2.725   5.579  0.3572  0.5119 -0.5134
 7472SOL    MW429656   1.584   2.703   5.534  0.4100 -0.4139 -0.0073
 7473SOL     OW29657   3.711   0.609   3.299 -0.9010 -0.4184  0.2970
 7473SOL    HW229658   3.669   0.681   3.253  1.7031  0.7844 -0.3917
 7473SOL    HW329659   3.701   0.631   3.392 -1.5475 -0.0340  0.1434
 7473SOL    MW429660   3.704   0.621   3.305  0.2441  0.1222  0.6548
 7474SOL     OW29661   3.026   1.736   5.864 -0.2699 -0.4929 -0.3744
 7474SOL    HW229662   3.078   1.808   5.899  0.9835 -1.8775  0.7410
 7474SOL    HW329663   3.072   1.710   5.784 -2.0354  1.3720 -2.1654
 7474SOL    MW429664   3.039   1.742   5.858  0.1568  0.4337  0.1123
 7475SOL     OW29665   1.623   3.654   4.193  0.2600 -0.4482 -0.3545
 7475SOL    HW229666   1.713   3.639   4.223 -0.1054  0.8316  1.5844
 7475SOL    HW329667   1.603   3.579   4.138  1.6412 -2.1098  1.2881
 7475SOL    MW429668   1.633   3.642   4.190  0.6219  0.0294  0.7050
 7476SOL     OW29669   3.299   1.165   2.292  0.1301 -0.1750 -0.2999
 7476SOL    HW229670   3.263   1.149   2.205 -0.7252 -0.7066  0.1402
 7476SOL    HW329671   3.308   1.077   2.330 -2.6179  0.1838  1.3735
 7476SOL    MW429672   3.296   1.151   2.285  0.6376  0.3910  0.5609
 7477SOL     OW29673   4.132   5.373   2.464 -0.4100  0.1679 -0.0759
 7477SOL    HW229674   4.043   5.399   2.485 -0.5513  0.2967 -0.8085
 7477SOL    HW329675   4.184   5.452   2.474 -0.4729  0.2237 -0.1905
 7477SOL    MW429676   4.127   5.387   2.468  0.0926 -0.3477 -0.9151
 7478SOL     OW29677   1.069   3.501   5.753 -0.1703  0.1534  0.0283
 7478SOL    HW229678   1.068   3.515   5.659  0.4320  0.9077  0.1167
 7478SOL    HW329679   1.091   3.587   5.790 -0.7987 -0.0332  0.8797
 7478SOL    MW429680   1.072   3.514   5.746 -0.1172  0.2418  0.5043
 7479SOL     OW29681   2.259   5.235   3.269 -0.0528 -0.5668 -0.0669
 7479SOL    HW229682   2.339   5.183   3.283 -1.3807 -2.3035  1.5225
 7479SOL    HW329683   2.277   5.318   3.312  1.5252 -0.2327 -1.2658
 7479SOL    MW429684   2.272   5.239   3.277  0.0176  0.3596 -0.1235
 7480SOL     OW29685   5.924   1.868   0.891  0.0966 -0.4454 -0.1175
 7480SOL    HW229686   5.920   1.800   0.824  1.9808 -0.5128 -0.2088
 7480SOL    HW329687   5.967   1.941   0.849  1.3313 -0.4932  0.9972
 7480SOL    MW429688   5.929   1.868   0.877 -0.3041  0.3113  0.2112
 7481SOL     OW29689   5.125   3.506   0.752  0.0402 -0.3037  0.6629
 7481SOL    HW229690   5.037   3.488   0.785 -0.4651  0.3661 -0.2666
 7481SOL    HW329691   5.156   3.422   0.719 -1.1619 -0.1103 -1.0493
 7481SOL    MW429692   5.117   3.492   0.752  0.1509  0.0252 -0.2064
 7482SOL     OW29693   3.789   5.827   0.003 -0.0272 -0.4453 -0.2782
 7482SOL    HW229694   3.835   5.901  -0.036 -0.8557 -0.7596 -1.9622
 7482SOL    HW329695   3.766   5.772  -0.071 -0.4922 -1.7864  0.8260
 7482SOL    MW429696   3.792   5.830  -0.012 -0.0610  0.4495  0.0668
 7483SOL     OW29697   4.766   5.168   4.520 -0.9971  0.4093 -0.1870
 7483SOL    HW229698   4.750   5.251   4.564 -3.1484 -0.1441  0.1921
 7483SOL    HW329699   4.685   5.118   4.532  0.8673 -2.5473  1.3195
 7483SOL    MW429700   4.753   5.172   4.527 -0.3187 -0.4422 -0.3064
 7484SOL     OW29701   2.799   3.673   2.924 -0.4617 -0.2701 -0.2468
 7484SOL    HW229702   2.799   3.677   3.020 -0.3266  0.1802 -0.2633
 7484SOL    HW329703   2.716   3.630   2.902 -0.0722 -1.2213  0.1028
 7484SOL    MW429704   2.788   3.668   2.934  0.5747 -0.2087  0.2137
 7485SOL     OW29705   0.591   5.187   0.097 -0.0303  0.3235  0.1209
 7485SOL    HW229706   0.600   5.218   0.187 -0.5210 -0.7281  0.5561
 7485SOL    HW329707   0.537   5.252   0.054 -0.9227  0.1683  0.9655
 7485SOL    MW429708   0.585   5.200   0.103 -0.3501 -0.5166 -0.0304
 7486SOL     OW29709   4.724   2.301   5.361 -0.4750  0.1571  0.2818
 7486SOL    HW229710   4.641   2.337   5.393 -1.5895 -2.6427  0.8224
 7486SOL    HW329711   4.733   2.217   5.407  0.5336 -1.5798 -2.8381
 7486SOL    MW429712   4.714   2.295   5.372 -0.4756 -0.3082 -0.9036
 7487SOL     OW29713   0.938   4.120   1.598 -0.7063 -0.0491  0.2680
 7487SOL    HW229714   0.937   4.115   1.693  0.8722 -0.1699  0.3047
 7487SOL    HW329715   0.879   4.050   1.569  1.5652 -2.4793  1.1412
 7487SOL    MW429716   0.930   4.110   1.607 -0.5082 -0.2381  0.5711
 7488SOL     OW29717   1.062   2.404   3.324  0.0935 -0.2996  0.3139
 7488SOL    HW229718   1.081   2.333   3.263 -1.5855  0.4330 -1.1656
 7488SOL    HW329719   0.988   2.373   3.376 -1.6710  0.7951 -1.3622
 7488SOL    MW429720   1.055   2.391   3.322 -0.5153  0.3408 -0.1509
 7489SOL     OW29721   6.160   0.142   5.098 -0.6058 -0.2475 -0.9120
 7489SOL    HW229722   6.211   0.202   5.043  0.9136 -1.7276 -1.2139
 7489SOL    HW329723   6.081   0.124   5.047 -0.6894  0.8228 -1.1845
 7489SOL    MW429724   6.157   0.147   5.084 -0.1429  0.0769 -0.7656
 7490SOL     OW29725   3.288   2.922   0.752  0.7128  0.2298 -0.2480
 7490SOL    HW229726   3.371   2.970   0.760  0.2449  0.8269  1.6888
 7490SOL    HW329727   3.221   2.990   0.753  0.1002 -0.3602  1.0393
 7490SOL    MW429728   3.290   2.937   0.753  0.2478 -0.4725 -0.5118
 7491SOL     OW29729   5.454   5.871   2.362 -0.1447 -0.2673  0.0579
 7491SOL    HW229730   5.486   5.961   2.365 -0.8507 -0.0057 -0.1366
 7491SOL    HW329731   5.496   5.827   2.436  1.1588 -0.1002 -0.5487
 7491SOL    MW429732   5.464   5.877   2.372  0.2855  0.3596 -0.1180
 7492SOL     OW29733   3.924   1.432   1.362 -0.6576  0.0409  0.2918
 7492SOL    HW229734   3.962   1.345   1.375  0.1065  0.3071 -0.1095
 7492SOL    HW329735   3.987   1.492   1.403 -0.3485  0.5374 -0.8801
 7492SOL    MW429736   3.937   1.429   1.369  0.2703  0.2736 -0.1533
 7493SOL     OW29737   0.041   2.613   1.970  0.7340 -0.5776 -0.8527
 7493SOL    HW229738   0.060   2.582   2.058 -1.7640 -0.6612 -0.2655
 7493SOL    HW329739   0.017   2.705   1.981 -0.2441 -0.7634 -1.3184
 7493SOL    MW429740   0.040   2.621   1.983 -0.0422 -0.0717  0.3899
 7494SOL     OW29741   0.258   3.331   0.614 -0.3794  0.3126  0.3133
 7494SOL    HW229742   0.198   3.362   0.681 -0.6930  0.9278 -0.2359
 7494SOL    HW329743   0.241   3.388   0.539  0.5371  0.1712 -0.0160
 7494SOL    MW429744   0.248   3.343   0.613 -0.4232  0.1951  0.5207
 7495SOL     OW29745   5.686   3.275   0.910 -0.3749  0.1512  0.3045
 7495SOL    HW229746   5.704   3.351   0.855 -0.3716 -0.3328 -0.3761
 7495SOL    HW329747   5.591   3.275   0.920 -0.7312 -1.4806 -2.2817
 7495SOL    MW429748   5.676   3.285   0.904  0.2034  0.1995 -0.6462
 7496SOL     OW29749   0.487   1.788   6.386  0.5066 -0.0015  0.3980
 7496SOL    HW229750   0.418   1.743   6.435  2.1802 -1.8242  1.1932
 7496SOL    HW329751   0.541   1.829   6.453  1.6596 -0.7850 -0.0280
 7496SOL    MW429752   0.485   1.787   6.401  0.2178  0.1586 -0.1853
 7497SOL     OW29753   3.561   5.810   4.595  0.5501 -0.2365  0.1613
 7497SOL    HW229754   3.585   5.788   4.685  2.3084 -0.6784 -0.3848
 7497SOL    HW329755   3.574   5.729   4.546 -1.0848 -0.2001 -0.3978
 7497SOL    MW429756   3.566   5.797   4.600  0.0059 -0.2914 -0.3186
 7498SOL     OW29757   2.577   4.563   1.776 -0.1860  0.1397  0.5138
 7498SOL    HW229758   2.535   4.479   1.758 -0.7131  0.7219 -1.0990
 7498SOL    HW329759   2.670   4.543   1.785 -0.4197 -0.7318  1.1004
 7498SOL    MW429760   2.584   4.549   1.775  0.2267 -0.0140  0.7588
 7499SOL     OW29761   2.305   3.596   4.269  0.5654  0.0300  0.0010
 7499SOL    HW229762   2.299   3.503   4.289 -1.7965  0.2606  0.7141
 7499SOL    HW329763   2.316   3.600   4.174 -0.9896 -1.0137 -0.2754
 7499SOL    MW429764   2.305   3.584   4.259  0.6887 -0.2325 -0.1945
 7500SOL     OW29765   1.483   6.306   0.981  0.1477  0.4418  0.2269
 7500SOL    HW229766   1.405   6.328   1.032 -0.5912 -0.3263 -0.5262
 7500SOL    HW329767   1.453   6.310   0.890  0.9113 -0.1799 -0.0621
 7500SOL    MW429768   1.469   6.309   0.976  0.0196  0.5152  0.5879
 7501SOL     OW29769   1.753   0.414   2.160 -0.0359  0.4293  0.3190
 7501SOL    HW229770   1.843   0.394   2.187 -0.2909 -2.2533 -0.5513
 7501SOL    HW329771   1.703   0.414   2.242  0.5008  0.3643  0.6504
 7501SOL    MW429772   1.758   0.412   2.175 -0.1311  0.0638 -0.1049
 7502SOL     OW29773   6.079   2.910   6.380 -0.1422 -0.1924 -0.1276
 7502SOL    HW229774   6.063   2.985   6.322  0.8207  0.4351  0.3848
 7502SOL    HW329775   6.146   2.941   6.441 -1.4518 -0.6530  1.6452
 7502SOL    MW429776   6.086   2.924   6.381  0.2851 -0.5157  0.3430
 7503SOL     OW29777   4.215   4.697   1.953 -0.6559  0.0440 -0.3078
 7503SOL    HW229778   4.161   4.719   2.028 -0.2092  0.6747 -0.1662
 7503SOL    HW329779   4.224   4.779   1.904 -0.0379 -0.1051 -0.4579
 7503SOL    MW429780   4.209   4.710   1.957  0.3596  0.3357  0.3469
 7504SOL     OW29781   0.821   2.547   1.044  0.4281 -0.0441  0.0005
 7504SOL    HW229782   0.755   2.604   1.083  0.0541 -1.6588  1.9222
 7504SOL    HW329783   0.904   2.580   1.076  0.4180  0.8189 -0.8336
 7504SOL    MW429784   0.823   2.559   1.053  0.1127 -0.0751 -0.2557
 7505SOL     OW29785   3.317   4.582   3.809  0.2153  0.0740  0.4218
 7505SOL    HW229786   3.255   4.511   3.793 -1.1011  1.3774 -0.5109
 7505SOL    HW329787   3.402   4.547   3.783 -0.5365 -0.8928 -0.8142
 7505SOL    MW429788   3.320   4.568   3.804 -0.0636 -0.4275  0.4101
 7506SOL     OW29789   5.751   0.637   3.579 -0.0417 -0.1892  0.1409
 7506SOL    HW229790   5.722   0.604   3.664  1.4992 -0.1962  0.6908
 7506SOL    HW329791   5.774   0.559   3.529  0.0615 -0.1351  0.1029
 7506SOL    MW429792   5.750   0.622   3.583  0.2955  0.4609  0.0989
 7507SOL     OW29793   3.991   2.131   2.316  0.3219  0.9787  0.0263
 7507SOL    HW229794   3.971   2.040   2.293 -0.1128  0.9585  0.4748
 7507SOL    HW329795   4.074   2.126   2.364 -0.3982  0.6436  1.2842
 7507SOL    MW429796   4.000   2.119   2.320 -0.0310  0.0872 -0.0716
 7508SOL     OW29797   3.577   0.150   6.222 -0.3322  0.1379 -0.2430
 7508SOL    HW229798   3.601   0.208   6.150 -0.3903  0.6264  0.1261
 7508SOL    HW329799   3.584   0.062   6.185 -1.5082  0.4202 -1.1847
 7508SOL    MW429800   3.581   0.146   6.208 -0.1269 -0.7602 -0.0961
 7509SOL     OW29801   4.521   1.473   0.692  0.1428  0.7579 -0.1193
 7509SOL    HW229802   4.580   1.496   0.764 -0.1363  0.7361  0.1184
 7509SOL    HW329803   4.566   1.505   0.613  1.1397 -0.5043 -0.0956
 7509SOL    MW429804   4.535   1.480   0.691  0.4418  0.1444  0.1034
 7510SOL     OW29805   0.117   0.462   2.299 -0.1484  0.2975 -0.2637
 7510SOL    HW229806   0.157   0.511   2.227  1.1434 -1.9663 -1.1796
 7510SOL    HW329807   0.189   0.410   2.335 -1.2650 -0.2721  1.2614
 7510SOL    MW429808   0.132   0.462   2.294  0.3174  0.7284 -0.2645
 7511SOL     OW29809   1.503   1.616   1.952  0.1632  0.0984 -0.0024
 7511SOL    HW229810   1.453   1.537   1.971  1.0894 -0.6243 -0.5207
 7511SOL    HW329811   1.546   1.599   1.869  0.6364  1.0252  0.0344
 7511SOL    MW429812   1.502   1.603   1.944 -0.0787  0.3145  0.1385
 7512SOL     OW29813   0.241   4.734   5.460 -0.0709  0.5271  0.2669
 7512SOL    HW229814   0.261   4.745   5.553  0.1174 -1.3755  0.4967
 7512SOL    HW329815   0.147   4.714   5.457 -0.1348  0.8509  0.0185
 7512SOL    MW429816   0.231   4.733   5.472  0.0556 -0.0678  0.1594
 7513SOL     OW29817   3.289   1.212   6.086 -0.0907 -0.4194 -0.1080
 7513SOL    HW229818   3.336   1.164   6.017 -0.1086 -0.8336  0.1664
 7513SOL    HW329819   3.277   1.300   6.050  0.3737 -0.4817 -0.4194
 7513SOL    MW429820   3.294   1.217   6.072 -0.0762  0.3621 -0.0055
 7514SOL     OW29821   3.245   6.259   3.294 -0.3086 -0.5236 -0.3898
 7514SOL    HW229822   3.299   6.187   3.326  0.9934  0.2151 -0.8504
 7514SOL    HW329823   3.272   6.334   3.347 -2.1745 -0.4902  0.6088
 7514SOL    MW429824   3.256   6.259   3.306 -0.8000 -0.5909  0.1721
 7515SOL     OW29825   3.241   4.808   4.645 -0.1037  0.2868 -0.3502
 7515SOL    HW229826   3.327   4.850   4.650 -0.7960  1.8501 -1.1154
 7515SOL    HW329827   3.193   4.858   4.580 -1.3714 -1.0191 -0.4705
 7515SOL    MW429828   3.246   4.820   4.637  0.2980  0.5985  0.1460
 7516SOL     OW29829   1.350   1.319   1.952  0.2826  0.1296  0.4319
 7516SOL    HW229830   1.374   1.327   2.044  0.6201 -1.7947  0.5481
 7516SOL    HW329831   1.285   1.249   1.949  1.4358 -0.9559 -0.9440
 7516SOL    MW429832   1.345   1.311   1.964 -0.7274 -0.6228  0.0658
 7517SOL     OW29833   0.601   6.256   0.742 -0.1991  0.1843  0.2787
 7517SOL    HW229834   0.611   6.343   0.705 -0.7109  0.7745  1.4539
 7517SOL    HW329835   0.683   6.212   0.724  0.6044  1.3917  0.8796
 7517SOL    MW429836   0.613   6.262   0.735  0.2491 -0.6709 -0.8084
 7518SOL     OW29837   3.464   4.470   5.641 -0.3241 -0.1256  0.1461
 7518SOL    HW229838   3.381   4.486   5.686 -1.6215  1.7058 -2.6477
 7518SOL    HW329839   3.503   4.557   5.631  0.9687 -0.7307 -0.3476
 7518SOL    MW429840   3.458   4.484   5.646  0.2500 -0.3690 -0.3933
 7519SOL     OW29841   1.134   0.224   6.083  0.1952 -0.2060  0.0059
 7519SOL    HW229842   1.061   0.276   6.050  1.4666  2.6067  1.3445
 7519SOL    HW329843   1.101   0.185   6.165 -0.6716 -1.3745 -0.8635
 7519SOL    MW429844   1.120   0.226   6.090 -0.1727 -0.0967 -0.1815
 7520SOL     OW29845   3.769   0.705   0.099 -0.1208 -0.1976  0.8129
 7520SOL    HW229846   3.694   0.696   0.040  1.1113 -1.5090 -0.6522
 7520SOL    HW329847   3.808   0.790   0.076  0.5296 -0.8337 -0.5414
 7520SOL    MW429848   3.764   0.715   0.088 -0.2229 -0.1182  0.1037
 7521SOL     OW29849   0.607   1.438   5.469  0.3162  0.3099 -0.0339
 7521SOL    HW229850   0.522   1.461   5.506 -0.0947  2.1514 -1.8882
 7521SOL    HW329851   0.596   1.349   5.437 -0.9994  0.5696 -0.3711
 7521SOL    MW429852   0.594   1.430   5.469  0.1172 -0.1333 -0.1369
 7522SOL     OW29853   0.389   1.749   4.034 -0.6177 -0.0132 -0.4068
 7522SOL    HW229854   0.351   1.751   4.122 -0.4086  1.3664 -0.3151
 7522SOL    HW329855   0.351   1.672   3.992 -0.9465 -0.5160  0.7916
 7522SOL    MW429856   0.379   1.739   4.040  0.3775 -0.3618  0.5360
 7523SOL     OW29857   1.855   6.074   3.826 -0.4534 -0.0179 -0.5907
 7523SOL    HW229858   1.841   6.077   3.921  0.6292  0.1483 -0.4259
 7523SOL    HW329859   1.789   6.012   3.795  0.0156 -1.0856  0.4396
 7523SOL    MW429860   1.844   6.066   3.835  0.4568 -0.0653 -0.5786
 7524SOL     OW29861   0.354   4.519   0.255 -0.3081 -0.2201 -0.1222
 7524SOL    HW229862   0.361   4.577   0.180 -1.1658  0.3246  0.2045
 7524SOL    HW329863   0.301   4.567   0.319  0.1541 -0.7841  0.7210
 7524SOL    MW429864   0.348   4.533   0.254  0.0333 -0.7026 -0.1532
 7525SOL     OW29865   1.154   4.697   2.141  0.3622  0.0349 -0.2559
 7525SOL    HW229866   1.122   4.655   2.062 -0.2516  0.2549 -0.1298
 7525SOL    HW329867   1.106   4.780   2.146  2.0654  1.1271 -0.8962
 7525SOL    MW429868   1.144   4.703   2.132  0.5569 -0.4551  0.9513
 7526SOL     OW29869   0.930   3.842   4.449 -0.4627 -0.2675  0.7289
 7526SOL    HW229870   1.001   3.866   4.508 -0.0433  1.6209 -0.4620
 7526SOL    HW329871   0.937   3.904   4.376 -2.8693 -0.5202  0.2051
 7526SOL    MW429872   0.940   3.853   4.447 -0.3389  0.1003  0.8637
 7527SOL     OW29873   5.858   2.086   0.508  0.3254  0.4946  0.0824
 7527SOL    HW229874   5.885   2.006   0.463  1.4234  1.0368 -0.2371
 7527SOL    HW329875   5.900   2.080   0.594 -1.1084 -0.1444  0.7868
 7527SOL    MW429876   5.867   2.074   0.514  0.7645  0.1584 -0.4161
 7528SOL     OW29877   5.066   3.598   3.800  0.6966  0.3252 -0.3578
 7528SOL    HW229878   5.072   3.510   3.838  1.0628  0.2003 -0.6929
 7528SOL    HW329879   5.000   3.590   3.731  1.2186  0.1324 -0.8494
 7528SOL    MW429880   5.058   3.585   3.796 -0.1276  0.6880 -0.3274
 7529SOL     OW29881   0.902   0.390   4.959 -0.6460  0.3955  0.1787
 7529SOL    HW229882   0.871   0.481   4.962  0.5116  0.8862 -1.3662
 7529SOL    HW329883   0.892   0.358   5.049 -0.7502  2.1651  0.8324
 7529SOL    MW429884   0.897   0.398   4.971 -0.4510  0.1110  0.0847
 7530SOL     OW29885   0.099   0.273   1.156  0.1536 -0.0084 -0.3006
 7530SOL    HW229886   0.102   0.307   1.246  0.5836  0.5946 -0.5413
 7530SOL    HW329887   0.150   0.335   1.105 -0.8752  0.1699 -1.1361
 7530SOL    MW429888   0.106   0.285   1.161  0.1369  0.2873  0.2590
 7531SOL     OW29889   0.919   4.005   2.989 -0.4087 -0.3797  0.4150
 7531SOL    HW229890   1.000   4.053   2.975 -0.0367 -1.0255  0.3547
 7531SOL    HW329891   0.865   4.026   2.913 -0.3569  0.1494  0.5157
 7531SOL    MW429892   0.922   4.014   2.977 -0.0169  0.7537  0.4026
 7532SOL     OW29893   0.463   3.754   6.205 -0.2155  0.2024 -0.1711
 7532SOL    HW229894   0.507   3.671   6.222 -2.0652 -1.0448 -1.1352
 7532SOL    HW329895   0.516   3.796   6.137  0.1233 -0.7300 -0.4957
 7532SOL    MW429896   0.475   3.749   6.198 -0.0972 -0.2579 -0.0435
 7533SOL     OW29897   2.402   0.690   5.130  0.6296  0.5851  0.4962
 7533SOL    HW229898   2.451   0.712   5.209 -0.9781  4.4431  0.6595
 7533SOL    HW329899   2.456   0.725   5.058  0.0261  1.1814  0.3239
 7533SOL    MW429900   2.416   0.698   5.131 -0.1739  0.3007 -0.1567
 7534SOL     OW29901   5.427   3.489   0.102  0.0566 -0.1444  0.2563
 7534SOL    HW229902   5.397   3.445   0.023 -0.5969 -1.7138  1.3383
 7534SOL    HW329903   5.434   3.581   0.076 -0.0751 -0.6168 -1.6276
 7534SOL    MW429904   5.424   3.495   0.088 -0.3375  0.3268 -0.7202
 7535SOL     OW29905   4.726   1.636   3.097  0.1502 -0.0830  0.1056
 7535SOL    HW229906   4.716   1.544   3.073  0.2208  0.4469 -2.1262
 7535SOL    HW329907   4.671   1.646   3.175 -0.9502 -1.6941 -0.4057
 7535SOL    MW429908   4.717   1.625   3.104 -0.1457 -0.5453 -0.0674
 7536SOL     OW29909   2.035   0.130   0.457  0.1337  0.7030  0.1602
 7536SOL    HW229910   2.019   0.080   0.537 -0.6853  0.9769  0.1817
 7536SOL    HW329911   2.045   0.063   0.389 -1.1599  0.4823  0.1488
 7536SOL    MW429912   2.034   0.114   0.459  0.5174 -0.6884 -0.3836
 7537SOL     OW29913   4.215   5.416   3.420  0.1686  1.2366 -0.1565
 7537SOL    HW229914   4.187   5.420   3.512 -2.0761 -0.5867 -0.6747
 7537SOL    HW329915   4.140   5.448   3.371  0.9474  1.1662 -1.4231
 7537SOL    MW429916   4.202   5.421   3.426 -0.7081  0.4013  0.1114
 7538SOL     OW29917   4.271   0.372   5.375 -0.2880 -0.4926  0.4226
 7538SOL    HW229918   4.196   0.313   5.388  0.1481 -0.7701  1.8069
 7538SOL    HW329919   4.231   0.459   5.373 -0.5868 -0.5137  2.5083
 7538SOL    MW429920   4.256   0.376   5.377 -0.3348  0.1184 -0.0402
 7539SOL     OW29921   5.573   1.958   0.272 -0.1826 -0.0740  0.5047
 7539SOL    HW229922   5.617   1.953   0.187  0.7597  1.0324  0.8980
 7539SOL    HW329923   5.642   1.938   0.336 -0.5704  0.3744  1.0707
 7539SOL    MW429924   5.588   1.954   0.269  0.3639 -0.6175  0.3866
 7540SOL     OW29925   1.853   3.065   0.572 -0.0706 -0.6619  0.0485
 7540SOL    HW229926   1.763   3.087   0.594  0.3149  0.6564  0.4395
 7540SOL    HW329927   1.850   3.043   0.479 -0.5575  1.0244 -0.3725
 7540SOL    MW429928   1.841   3.065   0.563  0.8849 -0.3511 -0.5629
 7541SOL     OW29929   0.143   2.585   6.186  0.0393  0.4675  0.1694
 7541SOL    HW229930   0.065   2.582   6.131  0.7922  2.3456 -1.1299
 7541SOL    HW329931   0.204   2.525   6.144  0.7513  2.1783 -1.4199
 7541SOL    MW429932   0.141   2.577   6.173 -0.3467  0.0984  0.3530
 7542SOL     OW29933   0.896   2.333   0.328 -0.2433 -0.4870 -0.1756
 7542SOL    HW229934   0.825   2.303   0.271 -1.1623  0.0927  0.6242
 7542SOL    HW329935   0.957   2.378   0.269 -0.6082 -0.8729 -0.8597
 7542SOL    MW429936   0.894   2.335   0.313 -0.1321  0.0676 -0.0207
 7543SOL     OW29937   2.128   0.924   4.614 -0.3893 -0.2858 -0.4312
 7543SOL    HW229938   2.116   0.829   4.612 -1.2575 -0.1729 -0.8797
 7543SOL    HW329939   2.139   0.949   4.523  0.8973 -0.0641 -0.2459
 7543SOL    MW429940   2.128   0.915   4.602 -0.4106 -0.3124  0.0050
 7544SOL     OW29941   0.414   5.894   0.020  0.3958  0.2542  0.5066
 7544SOL    HW229942   0.320   5.878   0.007  0.2522  1.1749  0.2568
 7544SOL    HW329943   0.457   5.832  -0.038 -0.1291  1.0084 -0.7576
 7544SOL    MW429944   0.407   5.884   0.010  0.5424  0.0539 -0.0384
 7545SOL     OW29945   0.754   3.883   5.716 -0.4882 -0.6765 -0.1407
 7545SOL    HW229946   0.736   3.977   5.717  2.3383  0.0234  2.5909
 7545SOL    HW329947   0.848   3.877   5.704 -0.7383 -3.3170 -1.5305
 7545SOL    MW429948   0.764   3.895   5.715  0.2184 -0.7389 -0.2570
 7546SOL     OW29949   0.277   4.240   4.128  0.0759 -0.4477 -0.0577
 7546SOL    HW229950   0.235   4.162   4.163 -1.3837  1.0833  1.8662
 7546SOL    HW329951   0.357   4.249   4.179  0.1551 -0.5843 -0.1575
 7546SOL    MW429952   0.282   4.231   4.139  0.0423  0.2401 -0.3533
 7547SOL     OW29953   0.840   0.099   5.994 -0.2375 -0.4865  0.3437
 7547SOL    HW229954   0.847   0.003   5.999  2.0980 -0.3273  1.2661
 7547SOL    HW329955   0.874   0.130   6.077 -0.2865  1.1808 -0.2285
 7547SOL    MW429956   0.846   0.090   6.006 -0.3068  0.1537  0.2419
 7548SOL     OW29957   3.788   2.624   4.958  0.5403  0.0067 -0.4347
 7548SOL    HW229958   3.847   2.559   4.997  0.4796 -0.3865 -0.9731
 7548SOL    HW329959   3.763   2.585   4.874 -0.9633 -0.1203  0.0468
 7548SOL    MW429960   3.792   2.610   4.952 -0.1806 -0.9580 -0.0688
 7549SOL     OW29961   1.216   3.875   6.113 -0.1488  0.2416  0.4684
 7549SOL    HW229962   1.236   3.839   6.199 -3.0617 -0.6221  0.8886
 7549SOL    HW329963   1.154   3.945   6.130 -0.9993 -0.1342 -0.9394
 7549SOL    MW429964   1.211   3.880   6.126  0.2258 -0.3876 -0.1074
 7550SOL     OW29965   3.729   1.614   0.581 -0.3184  0.6512 -0.3446
 7550SOL    HW229966   3.693   1.608   0.670 -0.6839  0.4226 -0.5057
 7550SOL    HW329967   3.815   1.574   0.588 -1.1590 -1.3112 -0.5289
 7550SOL    MW429968   3.735   1.608   0.594  0.0486  0.1811 -0.0952
 7551SOL     OW29969   5.541   5.291   1.343 -0.7322  0.6484 -0.1755
 7551SOL    HW229970   5.529   5.369   1.288  0.3684 -0.2776 -1.8396
 7551SOL    HW329971   5.633   5.268   1.331 -1.3433 -1.7179 -0.9071
 7551SOL    MW429972   5.552   5.298   1.334 -0.9365 -0.0770 -0.4972
 7552SOL     OW29973   0.861   4.149   3.946 -0.4152  0.2117  0.5122
 7552SOL    HW229974   0.831   4.081   3.886 -1.0363 -0.2636  1.3499
 7552SOL    HW329975   0.852   4.111   4.033 -0.2446  1.1665  0.9629
 7552SOL    MW429976   0.856   4.135   3.949 -0.0065 -0.3957  0.7163
 7553SOL     OW29977   4.107   3.989   3.645  0.0767  0.9169 -0.4703
 7553SOL    HW229978   4.032   4.048   3.657 -0.3841 -0.0054  1.5392
 7553SOL    HW329979   4.180   4.048   3.628 -0.5548  2.0336  0.4768
 7553SOL    MW429980   4.106   4.005   3.644 -0.0002  0.2434 -0.0960
 7554SOL     OW29981   6.253   3.771   1.526 -0.0747  0.1883  0.1489
 7554SOL    HW229982   6.284   3.696   1.475 -0.5589  0.8821 -1.1928
 7554SOL    HW329983   6.329   3.830   1.530  0.4358 -0.5075  1.5488
 7554SOL    MW429984   6.267   3.769   1.520  0.7577 -0.4000  0.7240
 7555SOL     OW29985   6.210   1.168   6.038  0.8236  0.0720  0.3729
 7555SOL    HW229986   6.288   1.157   5.983  0.4426  0.1665 -0.2035
 7555SOL    HW329987   6.150   1.220   5.984  0.2547 -0.2377  0.6944
 7555SOL    MW429988   6.212   1.173   6.023 -0.3054 -0.3137  0.3534
 7556SOL     OW29989   1.622   0.953   5.930 -0.5132  0.0262 -0.2991
 7556SOL    HW229990   1.529   0.969   5.945 -0.2977  1.0091  0.0181
 7556SOL    HW329991   1.642   0.999   5.849 -0.3105 -0.2424 -0.4063
 7556SOL    MW429992   1.612   0.961   5.921 -0.2147 -0.1843  0.1335
 7557SOL     OW29993   2.667   3.696   0.228 -0.2478  0.1366 -0.0369
 7557SOL    HW229994   2.674   3.602   0.209  1.2778  0.3258 -0.5645
 7557SOL    HW329995   2.702   3.705   0.316 -0.0011  0.2639 -0.1482
 7557SOL    MW429996   2.672   3.685   0.237  0.2616  0.5859 -0.1882
 7558SOL     OW29997   0.287   6.124   4.635 -0.2288  0.5245 -0.3137
 7558SOL    HW229998   0.216   6.069   4.667 -0.1100  0.5356 -0.0313
 7558SOL    HW329999   0.364   6.097   4.685  0.4984 -1.0165 -2.0993
 7558SOL    MW430000   0.288   6.113   4.645  0.3071  0.0389  0.0316
 7559SOL     OW30001   4.798   2.799   3.567  0.9217 -0.4565  0.0722
 7559SOL    HW230002   4.730   2.752   3.517  2.0342 -0.7548 -1.2368
 7559SOL    HW330003   4.775   2.783   3.659  0.0299 -1.7484 -0.3343
 7559SOL    MW430004   4.786   2.790   3.572  0.0610 -0.6021 -0.0218
 7560SOL     OW30005   3.867   4.349   5.891  0.3946  0.2751 -0.4089
 7560SOL    HW230006   3.896   4.343   5.982 -1.0021  0.6328  0.0944
 7560SOL    HW330007   3.774   4.373   5.897 -0.1313 -1.1938 -1.8978
 7560SOL    MW430008   3.858   4.352   5.904 -0.7307  0.2902  0.0896
 7561SOL     OW30009   6.067   2.997   0.447  0.0289  0.0644 -0.1937
 7561SOL    HW230010   6.121   3.062   0.401 -0.6494  0.0083 -1.0924
 7561SOL    HW330011   6.074   2.919   0.392 -2.1242  0.4758 -1.1370
 7561SOL    MW430012   6.075   2.995   0.434  0.4085  0.6124  0.3416
 7562SOL     OW30013   0.681   3.136   5.998  0.4036 -0.5146 -0.4767
 7562SOL    HW230014   0.692   3.219   6.044  1.0640 -0.3521 -0.9177
 7562SOL    HW330015   0.696   3.157   5.906  1.0019 -1.1972 -0.5448
 7562SOL    MW430016   0.684   3.150   5.992  0.0148  0.2505 -0.2273
 7563SOL     OW30017   4.297   0.185   4.357 -0.3633  0.0057  0.3138
 7563SOL    HW230018   4.204   0.180   4.335 -0.3486  1.3025 -0.1154
 7563SOL    HW330019   4.323   0.094   4.370 -1.9550 -0.3021  1.5905
 7563SOL    MW430020   4.288   0.172   4.356  0.6729  0.0576  0.1747
 7564SOL     OW30021   1.262   3.825   2.610  0.0099  0.3700 -0.4784
 7564SOL    HW230022   1.355   3.802   2.615 -0.2752 -0.7289 -0.0634
 7564SOL    HW330023   1.223   3.788   2.689 -1.4315 -2.4257 -2.3257
 7564SOL    MW430024   1.269   3.817   2.621  0.2464 -0.5388 -0.3995
 7565SOL     OW30025   0.354   2.208   6.308 -0.0895  0.4717 -0.0013
 7565SOL    HW230026   0.334   2.253   6.226 -1.3242 -1.9635 -1.1510
 7565SOL    HW330027   0.270   2.203   6.354  0.4902  1.3400  1.1966
 7565SOL    MW430028   0.340   2.213   6.303 -0.2786 -0.2410 -0.0625
 7566SOL     OW30029   5.437   6.151   4.094 -0.1939 -0.3594  0.4567
 7566SOL    HW230030   5.399   6.218   4.150 -0.9101 -0.1820 -0.2165
 7566SOL    HW330031   5.406   6.068   4.131  0.9267 -0.3497  1.4606
 7566SOL    MW430032   5.428   6.149   4.106  0.7822 -0.4540 -0.6786
 7567SOL     OW30033   4.530   4.061   0.869 -0.0213 -0.1551 -0.6358
 7567SOL    HW230034   4.506   4.064   0.777  0.4113  2.1772 -0.7231
 7567SOL    HW330035   4.626   4.058   0.869  0.0554  1.5507 -0.2900
 7567SOL    MW430036   4.540   4.061   0.857 -0.3513  0.3044 -0.1710
 7568SOL     OW30037   4.870   0.563   0.566 -0.3344  0.0705  0.0794
 7568SOL    HW230038   4.915   0.493   0.521 -1.1498  0.9175 -2.1836
 7568SOL    HW330039   4.940   0.622   0.594  0.1972 -0.5351  0.0488
 7568SOL    MW430040   4.885   0.562   0.564  0.4813 -0.4773 -1.0474
 7569SOL     OW30041   4.624   5.251   0.690 -0.0241  0.4894  0.3644
 7569SOL    HW230042   4.604   5.335   0.648 -1.0276  0.0443 -0.0949
 7569SOL    HW330043   4.569   5.188   0.643  0.5765 -0.3937  0.8283
 7569SOL    MW430044   4.614   5.254   0.678 -0.3197  0.0656 -0.0463
 7570SOL     OW30045   2.840   0.025   3.503 -0.0604 -0.2584 -0.0534
 7570SOL    HW230046   2.807   0.115   3.502  0.3297  0.0951  3.9904
 7570SOL    HW330047   2.762  -0.029   3.513 -0.0760 -0.1088  0.6645
 7570SOL    MW430048   2.826   0.030   3.504  0.5961 -0.0023  0.0205
 7571SOL     OW30049   0.647   2.866   1.824 -0.6549 -0.2097  0.0271
 7571SOL    HW230050   0.682   2.848   1.737 -0.7710  3.4749 -0.9623
 7571SOL    HW330051   0.558   2.832   1.822 -1.3524  1.5012 -2.1229
 7571SOL    MW430052   0.640   2.859   1.813 -0.2778 -0.2810  0.5367
 7572SOL     OW30053   5.743   1.626   3.878  0.5286  0.0863  0.0414
 7572SOL    HW230054   5.752   1.546   3.931  1.0095 -0.9800 -1.5779
 7572SOL    HW330055   5.782   1.695   3.932  1.0287 -0.9590  1.0633
 7572SOL    MW430056   5.749   1.624   3.892  0.1856 -0.6019 -0.3641
 7573SOL     OW30057   3.976   6.259   4.856 -0.1798 -0.0934  0.4450
 7573SOL    HW230058   4.013   6.173   4.876  2.0624  0.8670  0.7030
 7573SOL    HW330059   3.938   6.289   4.938  1.9762  0.5063  1.2744
 7573SOL    MW430060   3.976   6.251   4.869  0.3107 -0.7044 -0.5016
 7574SOL     OW30061   5.013   4.530   4.376  0.3144  0.3249 -0.6692
 7574SOL    HW230062   5.097   4.510   4.417  0.9339 -0.2102 -2.1091
 7574SOL    HW330063   5.017   4.623   4.356 -0.6386  0.9684  1.8102
 7574SOL    MW430064   5.024   4.539   4.378 -1.0481 -0.4694 -0.2670
 7575SOL     OW30065   3.921   5.161   5.612  0.9565 -0.0088  0.3924
 7575SOL    HW230066   3.842   5.171   5.665  0.6500 -0.0544 -0.0495
 7575SOL    HW330067   3.951   5.072   5.628  0.2237 -0.3972 -0.3852
 7575SOL    MW430068   3.915   5.151   5.621 -0.1655  0.7529  0.0798
 7576SOL     OW30069   1.772   1.600   6.297 -0.3641  0.3592  0.8280
 7576SOL    HW230070   1.691   1.599   6.349 -0.6349 -1.5968  0.4353
 7576SOL    HW330071   1.819   1.521   6.326  1.5379  1.5767  1.2148
 7576SOL    MW430072   1.768   1.589   6.308 -0.2141  0.5293  0.3640
 7577SOL     OW30073   3.183   0.094   4.923  0.2663 -0.3159  0.1767
 7577SOL    HW230074   3.121   0.039   4.875  0.5717 -1.0042  0.5585
 7577SOL    HW330075   3.235   0.136   4.854 -0.1186 -0.3301 -0.1257
 7577SOL    MW430076   3.182   0.092   4.908 -0.4516  0.1575  0.0139
 7578SOL     OW30077   3.378   1.373   5.111  0.2935  0.0354  0.4890
 7578SOL    HW230078   3.401   1.327   5.031 -1.5217 -1.1071  0.5655
 7578SOL    HW330079   3.289   1.405   5.096  0.6098  1.4258  1.3666
 7578SOL    MW430080   3.369   1.371   5.099 -0.2975  0.2826  0.1975
 7579SOL     OW30081   2.966   3.983   6.369 -0.0862  0.3313  0.5231
 7579SOL    HW230082   3.036   3.997   6.306  0.8696  0.0501  1.4976
 7579SOL    HW330083   2.977   4.052   6.435 -1.7508  1.3158 -0.1491
 7579SOL    MW430084   2.977   3.994   6.370 -0.6190  0.6978 -0.0061
 7580SOL     OW30085   1.961   0.209   2.551 -0.0005  0.5422  0.2560
 7580SOL    HW230086   2.024   0.251   2.493 -1.4047  1.0693 -0.9510
 7580SOL    HW330087   1.974   0.252   2.636  1.0677  0.8040 -0.0243
 7580SOL    MW430088   1.971   0.220   2.555  0.0838  0.4284  0.0952
 7581SOL     OW30089   4.611   3.780   3.002  0.1727  0.0960 -0.6887
 7581SOL    HW230090   4.700   3.744   3.005  0.1138 -0.0785 -1.0406
 7581SOL    HW330091   4.614   3.847   2.934 -0.0164 -0.0498 -0.8418
 7581SOL    MW430092   4.623   3.784   2.994 -0.8920  0.1237 -0.0611
 7582SOL     OW30093   5.955   0.155   4.240 -0.6951  0.2452  0.1895
 7582SOL    HW230094   5.916   0.135   4.325 -2.0566 -1.3657 -0.7567
 7582SOL    HW330095   5.946   0.250   4.231 -2.1101  0.2275  1.1035
 7582SOL    MW430096   5.949   0.165   4.250 -0.0950 -0.3779 -0.2337
 7583SOL     OW30097   1.818   5.768   5.150 -0.2702 -0.1710 -0.3601
 7583SOL    HW230098   1.847   5.824   5.078 -0.1599  1.0909  0.6298
 7583SOL    HW330099   1.729   5.798   5.169  0.6113  1.3715  1.7290
 7583SOL    MW430100   1.810   5.779   5.143 -0.0685 -0.2253  0.3485
 7584SOL     OW30101   5.982   0.636   2.398 -0.2043  0.2045 -0.2906
 7584SOL    HW230102   5.890   0.613   2.389 -0.4363  0.9969  0.0508
 7584SOL    HW330103   5.996   0.708   2.337 -0.3196  1.4622  1.1050
 7584SOL    MW430104   5.972   0.642   2.389  0.4547  0.5064  0.5208
 7585SOL     OW30105   2.786   5.360   1.123  0.2202  0.3255 -0.1054
 7585SOL    HW230106   2.850   5.430   1.138  1.0576 -0.6156  0.8572
 7585SOL    HW330107   2.839   5.283   1.103 -0.5746 -0.6212  1.2991
 7585SOL    MW430108   2.802   5.359   1.122 -0.4543 -0.8516  0.4389
 7586SOL     OW30109   3.514   5.808   4.161  0.1915 -0.0530  0.6440
 7586SOL    HW230110   3.550   5.758   4.088  2.2379  1.6555  0.3698
 7586SOL    HW330111   3.565   5.889   4.161 -1.6453  1.1764  2.2736
 7586SOL    MW430112   3.525   5.812   4.152  0.8150 -0.2882  0.0517
 7587SOL     OW30113   1.128   2.022   2.911 -0.7478  0.0794 -0.0551
 7587SOL    HW230114   1.117   2.112   2.880  1.1692  0.7294  0.9604
 7587SOL    HW330115   1.210   1.993   2.871  0.7535  0.2515  2.6373
 7587SOL    MW430116   1.137   2.030   2.902  0.3893 -0.3772  0.4681
 7588SOL     OW30117   3.219   2.859   2.644 -0.0765  0.4271 -0.1948
 7588SOL    HW230118   3.221   2.944   2.688 -1.2964 -0.0242  0.7929
 7588SOL    HW330119   3.135   2.856   2.600 -1.2324 -1.2505  1.9211
 7588SOL    MW430120   3.208   2.870   2.644  0.6772  0.0694  0.1073
 7589SOL     OW30121   1.895   4.708   4.785  0.4932 -0.5495 -0.5409
 7589SOL    HW230122   1.903   4.803   4.779 -0.0925 -0.4514  0.0297
 7589SOL    HW330123   1.981   4.675   4.760  0.1537  0.0265 -2.7367
 7589SOL    MW430124   1.907   4.716   4.781  0.0415 -0.1026  0.0519
 7590SOL     OW30125   4.579   4.035   3.140  0.4079 -0.1542  0.2464
 7590SOL    HW230126   4.644   4.090   3.096  0.1207  0.5373  0.6874
 7590SOL    HW330127   4.603   3.946   3.115  0.7009  0.1828 -0.7102
 7590SOL    MW430128   4.591   4.030   3.131 -0.4777  0.2971  0.2496
 7591SOL     OW30129   4.123   3.497   0.227  0.2929 -0.4421  0.0418
 7591SOL    HW230130   4.062   3.446   0.173  0.2286  0.8164 -1.1296
 7591SOL    HW330131   4.068   3.531   0.297 -0.4938  0.9642 -1.1935
 7591SOL    MW430132   4.108   3.495   0.229 -0.4898  0.0520 -0.5297
 7592SOL     OW30133   6.274   2.425   2.396  0.3624  0.2382  0.1771
 7592SOL    HW230134   6.334   2.442   2.322 -0.4351 -0.4445 -0.6551
 7592SOL    HW330135   6.261   2.511   2.436 -1.0857  1.1112 -1.9729
 7592SOL    MW430136   6.281   2.439   2.391 -0.7575 -0.7184 -0.1321
 7593SOL     OW30137   5.455   4.682   0.721 -0.0524  0.0535  0.1869
 7593SOL    HW230138   5.478   4.647   0.807  1.4613  1.0942  0.2487
 7593SOL    HW330139   5.442   4.605   0.666  1.2520 -0.6236  0.7994
 7593SOL    MW430140   5.456   4.667   0.725 -0.3535  0.4360  0.3532
 7594SOL     OW30141   5.854   5.426   3.682 -0.0621  0.5124  0.2015
 7594SOL    HW230142   5.915   5.353   3.691 -0.6446 -0.3534 -2.2045
 7594SOL    HW330143   5.891   5.495   3.738  1.6090 -0.9036  0.9303
 7594SOL    MW430144   5.867   5.426   3.690 -0.0796  0.6422 -0.2603
 7595SOL     OW30145   1.292   1.471   0.091 -0.5025  0.2520  0.1734
 7595SOL    HW230146   1.267   1.384   0.060  0.6386 -0.2759  0.6771
 7595SOL    HW330147   1.212   1.505   0.132 -1.6571  0.4451 -2.0960
 7595SOL    MW430148   1.278   1.464   0.093 -0.2830  0.5904 -0.3523
 7596SOL     OW30149   1.571   3.086   4.810 -0.2653  0.8811  0.3009
 7596SOL    HW230150   1.633   3.014   4.799 -0.2915  0.9678 -0.5024
 7596SOL    HW330151   1.593   3.147   4.740 -1.3094  0.8740 -0.0569
 7596SOL    MW430152   1.582   3.085   4.799 -1.2127  0.2860  0.0400
 7597SOL     OW30153   2.950   3.773   1.910 -0.3284  0.2099  0.0747
 7597SOL    HW230154   2.918   3.836   1.846 -1.1078 -0.1441  0.0960
 7597SOL    HW330155   3.041   3.757   1.885  0.4669  2.6371  1.1260
 7597SOL    MW430156   2.958   3.779   1.898 -0.0944 -0.4508  0.0671
 7598SOL     OW30157   4.216   4.538   5.317 -0.4072  0.2986 -0.0625
 7598SOL    HW230158   4.153   4.472   5.286 -1.0143  1.7194 -2.0006
 7598SOL    HW330159   4.301   4.499   5.300 -0.7583 -0.3572 -0.3558
 7598SOL    MW430160   4.219   4.524   5.310  0.2304  0.3407  0.2351
 7599SOL     OW30161   5.524   5.768   2.111 -0.0182 -0.0487  0.0591
 7599SOL    HW230162   5.456   5.810   2.164 -0.5733 -1.2559  0.3408
 7599SOL    HW330163   5.604   5.816   2.132 -0.3936  0.0708  1.3269
 7599SOL    MW430164   5.525   5.780   2.121 -0.4218 -0.1881 -0.1943
 7600SOL     OW30165   3.109   2.649   0.480 -0.1323 -0.0040  0.4091
 7600SOL    HW230166   3.026   2.610   0.507 -1.1288  0.5694 -1.6479
 7600SOL    HW330167   3.170   2.625   0.550 -1.6147 -1.8700  1.1615
 7600SOL    MW430168   3.106   2.640   0.493  0.1995  0.5938  0.1369
 7601SOL     OW30169   4.984   1.937   2.184  0.3336 -0.0141 -0.3664
 7601SOL    HW230170   5.031   1.968   2.107 -0.9110  0.0180 -1.1519
 7601SOL    HW330171   5.050   1.893   2.237  1.2804  0.2569 -1.2926
 7601SOL    MW430172   4.999   1.935   2.181  0.3563  0.0400 -0.3230
 7602SOL     OW30173   1.514   4.841   2.732  0.2489 -0.1411  0.0301
 7602SOL    HW230174   1.493   4.798   2.650 -1.0307 -0.4205  0.4847
 7602SOL    HW330175   1.455   4.801   2.796  0.8742  0.4249  0.9875
 7602SOL    MW430176   1.504   4.830   2.730  0.3228  0.1356  0.3608
 7603SOL     OW30177   2.955   3.491   3.258 -0.1072  0.6646  0.1517
 7603SOL    HW230178   2.882   3.430   3.253  0.8545 -0.4473 -1.4447
 7603SOL    HW330179   3.004   3.464   3.335  0.8359 -1.2982 -1.0474
 7603SOL    MW430180   2.952   3.480   3.267  0.1286  0.4897 -0.0325
 7604SOL     OW30181   1.466   2.855   2.966  0.0317  0.4475  0.4327
 7604SOL    HW230182   1.522   2.881   2.893  0.4506 -0.1774  0.5278
 7604SOL    HW330183   1.425   2.937   2.995 -0.8236  0.5900 -1.0575
 7604SOL    MW430184   1.468   2.869   2.960  0.3303 -0.0670  0.3506
 7605SOL     OW30185   5.221   1.225   3.485  0.0346  0.2273  0.2148
 7605SOL    HW230186   5.134   1.252   3.455 -0.4716  1.1686  2.3652
 7605SOL    HW330187   5.206   1.140   3.526 -0.2097  1.0439  1.9054
 7605SOL    MW430188   5.207   1.217   3.486  0.1071 -0.2456 -0.3369
 7606SOL     OW30189   5.802   5.947   2.091  0.0532 -0.4217  0.4209
 7606SOL    HW230190   5.862   5.935   2.017 -0.1376 -1.3072  0.3908
 7606SOL    HW330191   5.829   5.881   2.155  1.3492  1.4809  1.9292
 7606SOL    MW430192   5.813   5.936   2.090  0.1625 -0.5236  0.0737
 7607SOL     OW30193   3.982   1.575   3.623  0.1344 -0.6836 -0.2306
 7607SOL    HW230194   3.958   1.489   3.587  0.7310 -1.4019  1.0035
 7607SOL    HW330195   4.070   1.561   3.659  0.5489  0.6641 -0.6792
 7607SOL    MW430196   3.991   1.562   3.623  0.3626 -0.2936 -0.4713
 7608SOL     OW30197   4.513   2.521   5.463  0.4635  0.3535 -0.5401
 7608SOL    HW230198   4.445   2.555   5.406  0.5348 -0.2975 -1.0289
 7608SOL    HW330199   4.593   2.565   5.433  0.7055 -0.8201 -1.7344
 7608SOL    MW430200   4.515   2.531   5.451 -0.0288 -0.0537  0.2461
 7609SOL     OW30201   0.988   1.920   0.135 -0.1417 -0.3605  0.2210
 7609SOL    HW230202   1.082   1.906   0.147 -0.1985  1.0747  3.1604
 7609SOL    HW330203   0.982   2.005   0.092 -0.0778 -0.1540  0.6122
 7609SOL    MW430204   0.999   1.929   0.131 -0.0968  0.3314  0.0130
 7610SOL     OW30205   1.372   6.226   3.416 -0.1129  0.0756 -0.2355
 7610SOL    HW230206   1.314   6.227   3.492 -1.0868  0.4331 -0.9628
 7610SOL    HW330207   1.458   6.204   3.451 -0.9370 -1.9305  0.7037
 7610SOL    MW430208   1.376   6.223   3.430  0.3602 -0.0851 -0.0283
 7611SOL     OW30209   3.690   4.767   6.023 -0.3651 -0.3141  0.5507
 7611SOL    HW230210   3.690   4.730   6.111  0.8783 -0.0223  0.7028
 7611SOL    HW330211   3.761   4.720   5.978 -1.5689 -1.0981 -0.5904
 7611SOL    MW430212   3.700   4.756   6.029 -0.3218 -0.0183  0.3175
 7612SOL     OW30213   6.251   4.114   1.009  0.0932 -0.0810  0.4109
 7612SOL    HW230214   6.316   4.136   1.076 -1.2022 -2.0100  2.4243
 7612SOL    HW330215   6.291   4.042   0.960 -0.0176 -0.4380  0.8409
 7612SOL    MW430216   6.265   4.108   1.012 -0.0726 -0.0366 -0.3578
 7613SOL     OW30217   4.368   4.243   3.910  0.2097 -0.6319 -0.0452
 7613SOL    HW230218   4.302   4.301   3.947  1.4031  1.4711 -1.0034
 7613SOL    HW330219   4.451   4.282   3.938  1.0673 -1.8086 -0.8679
 7613SOL    MW430220   4.371   4.256   3.919 -0.3919 -0.2806  0.1154
 7614SOL     OW30221   2.676   3.586   0.808 -0.6033 -0.6696  0.2311
 7614SOL    HW230222   2.585   3.612   0.827  0.2361  1.4379  1.7360
 7614SOL    HW330223   2.698   3.633   0.728 -0.1336  0.7394  1.1556
 7614SOL    MW430224   2.667   3.595   0.800  0.4644  0.4215 -0.3166
 7615SOL     OW30225   3.105   3.456   1.731 -0.1814  0.3549  0.1103
 7615SOL    HW230226   3.082   3.504   1.651  1.1591  0.7103 -0.0821
 7615SOL    HW330227   3.029   3.468   1.789  0.1570  2.8696  0.1312
 7615SOL    MW430228   3.092   3.464   1.728  0.1374  0.4152 -0.0113
 7616SOL     OW30229   4.909   2.286   4.162 -0.2400 -0.1913 -0.0507
 7616SOL    HW230230   4.879   2.375   4.144  0.1801 -0.0993 -0.3107
 7616SOL    HW330231   4.971   2.295   4.234 -0.4082 -0.3108  0.1109
 7616SOL    MW430232   4.913   2.299   4.169  1.0531 -0.2614 -0.0869
 7617SOL     OW30233   5.310   0.875   0.029  0.3829 -0.1460  0.4417
 7617SOL    HW230234   5.401   0.849   0.038  0.1051 -1.2866  0.1486
 7617SOL    HW330235   5.264   0.794   0.005 -0.5963  0.5337 -0.0710
 7617SOL    MW430236   5.316   0.861   0.027 -0.6275  0.2981 -0.5961
 7618SOL     OW30237   3.414   3.792   3.490  0.3730 -0.0786 -0.1398
 7618SOL    HW230238   3.387   3.703   3.515 -1.0966  1.3479  4.1941
 7618SOL    HW330239   3.507   3.796   3.512  1.3542 -1.2630 -3.3479
 7618SOL    MW430240   3.423   3.781   3.496  0.4563  0.9970  0.1998
 7619SOL     OW30241   0.653   1.660   2.424 -0.0005  0.4439 -0.2733
 7619SOL    HW230242   0.743   1.694   2.418 -0.2171  1.0497 -0.1381
 7619SOL    HW330243   0.633   1.661   2.517  0.2355 -0.7199 -0.2011
 7619SOL    MW430244   0.663   1.665   2.435  0.2657  0.3166 -0.3659
 7620SOL     OW30245   1.084   3.397   0.445 -0.3695 -0.0300 -0.4770
 7620SOL    HW230246   0.997   3.401   0.406 -0.7804  1.4762  0.4730
 7620SOL    HW330247   1.138   3.452   0.388 -0.6094  0.8968  0.1489
 7620SOL    MW430248   1.079   3.405   0.433  0.0644  0.4166  0.3787
 7621SOL     OW30249   0.323   4.334   2.067 -0.3575 -0.0783 -0.3290
 7621SOL    HW230250   0.358   4.262   2.015 -0.2646 -0.4237  0.1988
 7621SOL    HW330251   0.353   4.316   2.156 -1.6247 -0.2209  0.0923
 7621SOL    MW430252   0.331   4.322   2.072 -0.1333 -0.0021  0.0714
 7622SOL     OW30253   0.516   0.153   2.012 -0.4318  0.2104 -0.3179
 7622SOL    HW230254   0.484   0.133   1.924 -0.1114  1.6846 -0.7964
 7622SOL    HW330255   0.445   0.202   2.054  0.4749  1.9978 -0.7857
 7622SOL    MW430256   0.503   0.157   2.006 -0.3461 -0.1665  0.2517
 7623SOL     OW30257   5.799   0.969   2.589 -0.2051  0.2106  0.5844
 7623SOL    HW230258   5.874   0.992   2.535 -0.0194 -1.1211  0.2670
 7623SOL    HW330259   5.835   0.918   2.662 -0.7225  0.1265  0.7893
 7623SOL    MW430260   5.813   0.966   2.592 -0.0930  0.1939  0.3895
 7624SOL     OW30261   5.583   1.152   0.536 -0.2439 -0.4920 -0.2270
 7624SOL    HW230262   5.562   1.243   0.515 -3.8257 -0.4492  2.4180
 7624SOL    HW330263   5.521   1.101   0.483  1.1653 -1.3952 -1.0592
 7624SOL    MW430264   5.572   1.157   0.526  0.6954 -0.2354 -0.1008
 7625SOL     OW30265   1.468   6.384   3.819  0.0968 -0.5588  0.2731
 7625SOL    HW230266   1.533   6.444   3.855  0.6865  0.9309 -2.9279
 7625SOL    HW330267   1.386   6.434   3.819 -0.0802 -0.8461  0.3209
 7625SOL    MW430268   1.466   6.398   3.824 -0.3878 -0.0122 -0.1587
 7626SOL     OW30269   5.730   4.991   2.297  0.3311 -0.0828  0.1366
 7626SOL    HW230270   5.695   5.037   2.373  1.6844  0.0448  0.7081
 7626SOL    HW330271   5.652   4.960   2.250 -0.5780  1.5672  0.4765
 7626SOL    MW430272   5.715   4.993   2.301 -0.2503  0.9106 -0.1942
 7627SOL     OW30273   3.111   4.990   4.455 -0.5316 -0.2086  0.2626
 7627SOL    HW230274   3.171   5.026   4.389 -0.9775  0.2412  0.0901
 7627SOL    HW330275   3.024   5.004   4.417 -0.8052  0.2555  1.0422
 7627SOL    MW430276   3.107   4.997   4.441  0.2515  0.1001 -0.0463
 7628SOL     OW30277   3.288   0.766   3.568  0.3950 -0.6435  0.0550
 7628SOL    HW230278   3.219   0.821   3.603  1.9737 -0.6232  3.5295
 7628SOL    HW330279   3.366   0.789   3.619  1.9835 -3.5130 -0.8323
 7628SOL    MW430280   3.290   0.776   3.579 -0.5871  0.1941  0.0176
 7629SOL     OW30281   3.775   3.162   2.526 -0.8328 -0.4814 -0.3814
 7629SOL    HW230282   3.712   3.092   2.509 -0.5898 -0.6680 -0.5218
 7629SOL    HW330283   3.759   3.187   2.617 -0.1960 -1.4608  0.0026
 7629SOL    MW430284   3.764   3.156   2.536 -0.0464 -0.7248  0.7876
 7630SOL     OW30285   1.615   3.487   4.728 -0.1078 -0.4970  0.4199
 7630SOL    HW230286   1.683   3.421   4.712 -0.4546 -0.9888  0.9429
 7630SOL    HW330287   1.662   3.571   4.726  0.6861 -0.8919  1.7046
 7630SOL    MW430288   1.630   3.490   4.725 -0.6959  0.2572 -0.5561
 7631SOL     OW30289   2.692   1.154   5.357  0.8183 -0.1613 -0.4344
 7631SOL    HW230290   2.615   1.174   5.410 -0.2416 -1.3664 -1.4626
 7631SOL    HW330291   2.694   1.222   5.290  1.3980  0.5889  0.3143
 7631SOL    MW430292   2.682   1.165   5.355  0.0300  0.3716 -0.0299
 7632SOL     OW30293   1.210   3.744   5.875 -0.0025 -0.2552  0.8311
 7632SOL    HW230294   1.187   3.803   5.804  1.7395 -0.3932  0.1168
 7632SOL    HW330295   1.192   3.794   5.955 -1.5298  0.0664  0.3252
 7632SOL    MW430296   1.205   3.758   5.876  0.4386 -0.6291 -0.0378
 7633SOL     OW30297   0.799   1.238   1.779  0.0855  0.0829  0.0656
 7633SOL    HW230298   0.755   1.311   1.735  0.2698 -0.5813 -1.2702
 7633SOL    HW330299   0.878   1.223   1.728  0.6815 -0.2530  1.0643
 7633SOL    MW430300   0.803   1.245   1.767 -0.4499 -0.2594  0.3192
 7634SOL     OW30301   5.098   2.740   3.603 -0.1190  0.1768 -0.7289
 7634SOL    HW230302   5.150   2.803   3.553  1.6534  1.2739  2.2228
 7634SOL    HW330303   5.008   2.770   3.593  0.5180  2.1951 -0.7583
 7634SOL    MW430304   5.093   2.752   3.595  0.0826 -0.3063  0.1142
 7635SOL     OW30305   6.386   3.476   1.949 -1.1063  0.4644 -0.2459
 7635SOL    HW230306   6.442   3.403   1.974  1.6820  2.5093  0.0800
 7635SOL    HW330307   6.338   3.499   2.029 -1.1748 -0.3102 -0.0631
 7635SOL    MW430308   6.387   3.470   1.963 -0.0081 -0.6477  0.8395
 7636SOL     OW30309   2.262   5.733   1.231 -0.0485  0.0992 -0.4059
 7636SOL    HW230310   2.184   5.782   1.205 -0.0275  0.5556  0.3750
 7636SOL    HW330311   2.307   5.716   1.148 -1.4522 -1.0365 -0.9894
 7636SOL    MW430312   2.258   5.737   1.217  0.4628  0.7999  0.0804
 7637SOL     OW30313   4.813   3.520   2.028 -0.5790 -0.4594 -0.2036
 7637SOL    HW230314   4.841   3.463   2.100 -1.4590  0.6495  1.0794
 7637SOL    HW330315   4.787   3.602   2.071 -1.1407  0.2448 -1.7956
 7637SOL    MW430316   4.813   3.524   2.044 -0.1490 -0.3518  0.1745
 7638SOL     OW30317   0.140   6.365   0.290 -0.8024 -0.1368  0.0385
 7638SOL    HW230318   0.162   6.290   0.236 -0.9720 -0.0056 -0.2136
 7638SOL    HW330319   0.145   6.332   0.380  2.5252  0.4329  0.1585
 7638SOL    MW430320   0.143   6.351   0.295 -0.2235  0.1422  0.3970
 7639SOL     OW30321   3.867   0.234   6.154 -0.5662 -0.5506 -0.2693
 7639SOL    HW230322   3.805   0.297   6.189  1.0485  0.5694  0.7158
 7639SOL    HW330323   3.878   0.169   6.224  0.0330 -0.2472 -0.0762
 7639SOL    MW430324   3.860   0.233   6.167  0.7176 -1.0588  0.6524
 7640SOL     OW30325   4.285   2.948   4.440 -0.0314  0.4966  0.6327
 7640SOL    HW230326   4.236   2.910   4.368 -2.2456 -0.5535  2.5656
 7640SOL    HW330327   4.311   3.035   4.408 -0.3258 -0.1836 -1.6122
 7640SOL    MW430328   4.282   2.955   4.427 -0.5299 -0.5226  0.5319
 7641SOL     OW30329   6.016   4.111   4.105 -0.1484  0.0719  0.2534
 7641SOL    HW230330   6.084   4.052   4.075  1.1966  0.2787  2.6525
 7641SOL    HW330331   5.935   4.076   4.068  1.0258 -1.2262 -1.1770
 7641SOL    MW430332   6.014   4.099   4.096 -0.0599  0.5670 -1.4045
 7642SOL     OW30333   2.062   6.229   6.105  0.4067 -0.2678  0.0460
 7642SOL    HW230334   2.139   6.221   6.162  0.4807  0.3413  0.0460
 7642SOL    HW330335   2.090   6.191   6.021  1.5469  2.0405 -0.7093
 7642SOL    MW430336   2.076   6.223   6.101  0.0589 -0.3596 -0.3653
 7643SOL     OW30337   0.202   3.993   4.677  0.0737  0.1859  0.3886
 7643SOL    HW230338   0.116   4.012   4.641  0.3871 -1.6725 -1.5567
 7643SOL    HW330339   0.263   4.038   4.618  0.5766 -2.5842 -1.3979
 7643SOL    MW430340   0.199   4.001   4.665  0.1132  0.0150 -0.4881
 7644SOL     OW30341   2.073   4.823   0.438  0.1357  0.5290  0.3777
 7644SOL    HW230342   2.075   4.764   0.363  1.6190  1.5133 -0.3799
 7644SOL    HW330343   2.163   4.850   0.451 -0.2030  1.0043  2.0393
 7644SOL    MW430344   2.085   4.819   0.430  0.8869  0.0229  0.1309
 7645SOL     OW30345   0.389   2.048   1.873  0.2563 -0.0242 -0.1691
 7645SOL    HW230346   0.363   1.957   1.864 -2.7329  0.8327 -1.2240
 7645SOL    HW330347   0.308   2.098   1.864  1.5592  2.7204  1.6638
 7645SOL    MW430348   0.375   2.043   1.871 -0.1971  0.0872 -0.2137
 7646SOL     OW30349   1.244   3.089   1.535 -0.2166  0.1120  0.3604
 7646SOL    HW230350   1.272   3.097   1.444  0.2868  0.7000  0.5590
 7646SOL    HW330351   1.159   3.133   1.537  0.5388  1.6451  0.5128
 7646SOL    MW430352   1.236   3.096   1.523 -0.2291  0.4222 -0.4202
 7647SOL     OW30353   2.237   3.177   5.529  0.7273  0.8247  0.0714
 7647SOL    HW230354   2.186   3.222   5.462  0.7515 -0.0371 -0.5430
 7647SOL    HW330355   2.174   3.159   5.599  0.3757  0.4935 -0.3251
 7647SOL    MW430356   2.222   3.181   5.529  0.3934 -0.3827 -0.1267
 7648SOL     OW30357   2.449   1.432   0.409 -0.2536 -0.3766  0.4145
 7648SOL    HW230358   2.466   1.351   0.361 -1.5740 -1.3244  1.4566
 7648SOL    HW330359   2.402   1.487   0.347  0.7985 -0.3137 -0.3594
 7648SOL    MW430360   2.445   1.429   0.395  0.0231 -0.1698 -0.6777
 7649SOL     OW30361   6.318   4.650   5.605  0.1456 -0.5959  0.3970
 7649SOL    HW230362   6.295   4.742   5.620  0.9726 -0.3858  0.4700
 7649SOL    HW330363   6.257   4.621   5.537  0.5110  0.3052 -0.3501
 7649SOL    MW430364   6.307   4.659   5.598 -0.1381  0.0654  0.1548
 7650SOL     OW30365   6.237   1.317   3.262 -0.3143 -0.4961  0.2781
 7650SOL    HW230366   6.306   1.269   3.308  0.6946  1.4102  0.8409
 7650SOL    HW330367   6.177   1.345   3.331  0.3273  0.9739  0.2643
 7650SOL    MW430368   6.238   1.314   3.277  0.0139  0.1476  0.2137
 7651SOL     OW30369   0.701   4.793   4.862 -0.2045 -0.0909 -0.6761
 7651SOL    HW230370   0.714   4.700   4.876 -1.4152 -0.1234  0.3760
 7651SOL    HW330371   0.787   4.825   4.834  0.2596 -1.4780 -0.9246
 7651SOL    MW430372   0.714   4.785   4.860  0.3045 -1.0047  0.1209
 7652SOL     OW30373   2.985   2.827   5.957 -0.4061 -0.2334  0.0101
 7652SOL    HW230374   2.954   2.898   6.015 -0.2223 -1.0445  1.1290
 7652SOL    HW330375   3.072   2.807   5.989  0.2308  0.1625 -1.3915
 7652SOL    MW430376   2.992   2.834   5.969 -0.4447  0.1516  0.7081
 7653SOL     OW30377   3.958   4.988   4.969  0.3985  0.3217 -0.1515
 7653SOL    HW230378   3.910   4.922   4.918 -0.2009 -0.7924  1.7254
 7653SOL    HW330379   3.896   5.061   4.978  0.0965  0.0682 -0.1329
 7653SOL    MW430380   3.943   4.989   4.964 -0.2484 -0.1672 -0.1933
 7654SOL     OW30381   1.569   1.565   2.471  0.2123 -0.0262 -0.2055
 7654SOL    HW230382   1.495   1.507   2.490 -1.2625  1.1083 -2.0051
 7654SOL    HW330383   1.630   1.510   2.421 -0.2970 -0.5166 -0.3035
 7654SOL    MW430384   1.567   1.550   2.467 -0.0290  0.0081  0.2782
 7655SOL     OW30385   0.756   2.103   1.700  0.5387  0.1506  0.1143
 7655SOL    HW230386   0.812   2.155   1.757 -0.7219  4.4674 -2.1616
 7655SOL    HW330387   0.798   2.108   1.614 -0.7219 -0.8676 -0.5981
 7655SOL    MW430388   0.768   2.111   1.696 -0.4034 -0.5037  0.6653
 7656SOL     OW30389   4.442   5.721   2.277  0.0947  0.0157 -0.0643
 7656SOL    HW230390   4.439   5.651   2.211  1.0504 -2.4207  2.2488
 7656SOL    HW330391   4.533   5.719   2.309 -0.1150  1.7061  0.7495
 7656SOL    MW430392   4.454   5.711   2.273  0.7727  1.0271 -0.5758
 7657SOL     OW30393   1.212   1.221   3.200  0.4617  0.2194 -0.1008
 7657SOL    HW230394   1.247   1.209   3.288  0.2707 -0.3492 -0.0990
 7657SOL    HW330395   1.170   1.307   3.202  0.2511  0.1053  0.4363
 7657SOL    MW430396   1.211   1.231   3.212  0.0272 -0.3309 -0.2683
 7658SOL     OW30397   0.648   5.150   1.833  0.8071 -0.0134 -0.1961
 7658SOL    HW230398   0.676   5.088   1.900 -1.0312  0.4048  1.0302
 7658SOL    HW330399   0.659   5.236   1.873 -0.8237  0.2190 -0.2020
 7658SOL    MW430400   0.653   5.153   1.847  0.2408  0.6323  0.6664
 7659SOL     OW30401   4.612   2.183   3.972 -0.1554  0.0704 -0.3166
 7659SOL    HW230402   4.622   2.234   3.892  1.3068  0.0127 -0.1943
 7659SOL    HW330403   4.653   2.236   4.040 -2.3643  0.6391  0.6648
 7659SOL    MW430404   4.619   2.197   3.970  0.4947 -0.0185 -0.2873
 7660SOL     OW30405   2.334   1.656   3.306 -0.1279 -0.3603 -0.0361
 7660SOL    HW230406   2.303   1.746   3.295  0.1252 -0.1367  1.0277
 7660SOL    HW330407   2.426   1.659   3.280 -0.0437 -0.2472  0.2704
 7660SOL    MW430408   2.342   1.668   3.301  0.1080  0.0029  0.0735
 7661SOL     OW30409   5.172   2.100   0.206  0.0961  0.2815  0.3072
 7661SOL    HW230410   5.089   2.142   0.231 -0.4091  0.4020 -1.4435
 7661SOL    HW330411   5.147   2.010   0.185  0.2748  0.4896 -0.8494
 7661SOL    MW430412   5.158   2.094   0.206 -0.6045 -0.5108 -0.1367
 7662SOL     OW30413   2.934   2.337   3.645 -0.2184  0.5302  0.2231
 7662SOL    HW230414   2.850   2.295   3.667  0.3008  0.3715  2.1040
 7662SOL    HW330415   2.990   2.264   3.618  0.0633  0.2543  1.4852
 7662SOL    MW430416   2.930   2.322   3.644  0.0042 -0.0108 -0.0979
 7663SOL     OW30417   2.296   4.181   5.647  0.7549 -0.3493  0.4509
 7663SOL    HW230418   2.259   4.115   5.587 -0.1547 -0.1021  0.7155
 7663SOL    HW330419   2.380   4.205   5.608  0.0771 -0.0140 -0.8712
 7663SOL    MW430420   2.302   4.175   5.634 -0.0797 -0.0496  0.4801
 7664SOL     OW30421   4.717   1.071   4.347 -0.2947  0.1052 -0.2717
 7664SOL    HW230422   4.726   1.144   4.407  0.5583 -1.1655  1.2330
 7664SOL    HW330423   4.702   0.995   4.403 -0.9319 -0.9188 -1.7537
 7664SOL    MW430424   4.716   1.070   4.362 -0.0322  1.1899  0.2984
 7665SOL     OW30425   1.781   0.089   5.384  0.1648  0.2122 -0.0659
 7665SOL    HW230426   1.761  -0.004   5.391  2.4513 -0.3094  0.5314
 7665SOL    HW330427   1.752   0.126   5.467 -2.0088  0.3554 -0.8336
 7665SOL    MW430428   1.774   0.081   5.396 -0.5085 -0.3483  0.5596
 7666SOL     OW30429   3.965   0.361   4.634  0.4021  0.2313 -0.4866
 7666SOL    HW230430   3.949   0.405   4.550  0.6208 -0.2370 -0.7759
 7666SOL    HW330431   3.961   0.268   4.613 -2.8735 -0.0269  0.6006
 7666SOL    MW430432   3.962   0.355   4.620 -0.2965 -0.5939  0.7541
 7667SOL     OW30433   0.776   0.954   4.469  0.2768 -0.2807  0.3257
 7667SOL    HW230434   0.833   0.965   4.393 -0.1582 -2.6983 -0.4442
 7667SOL    HW330435   0.836   0.946   4.544  0.9581 -1.6749 -0.3220
 7667SOL    MW430436   0.792   0.954   4.469  0.5481  0.3330 -0.1807
 7668SOL     OW30437   1.332   2.586   1.210 -0.3983 -0.3647 -0.2455
 7668SOL    HW230438   1.353   2.513   1.152 -1.3915 -1.3584  0.5856
 7668SOL    HW330439   1.239   2.602   1.195  0.1554  1.8553 -1.6082
 7668SOL    MW430440   1.323   2.578   1.201  0.5788 -0.0192  0.0399
 7669SOL     OW30441   1.442   1.445   2.183  0.9415  0.2937  0.1614
 7669SOL    HW230442   1.526   1.426   2.224  0.6461 -0.7155  0.3453
 7669SOL    HW330443   1.378   1.403   2.241  0.3129  0.9796 -0.0167
 7669SOL    MW430444   1.444   1.437   2.196  0.5072  0.2265 -0.3902
 7670SOL     OW30445   0.797   6.230   6.029  0.0657 -0.3062  0.7518
 7670SOL    HW230446   0.709   6.260   6.007 -0.2994 -1.8029  0.0741
 7670SOL    HW330447   0.833   6.196   5.947  1.3864  0.4923  0.9619
 7670SOL    MW430448   0.790   6.229   6.015 -0.5463 -0.0030 -0.2834
 7671SOL     OW30449   0.389   6.102   6.012  0.0906 -0.1988  0.6800
 7671SOL    HW230450   0.316   6.068   5.960  0.8038  0.7629 -1.0657
 7671SOL    HW330451   0.451   6.029   6.017 -0.0983 -0.3821  0.3851
 7671SOL    MW430452   0.388   6.088   6.006  0.2077 -0.1986  0.5707
 7672SOL     OW30453   2.164   3.718   0.429  0.1049  0.0151  0.5662
 7672SOL    HW230454   2.092   3.738   0.370  0.3433 -1.2987 -0.2168
 7672SOL    HW330455   2.240   3.762   0.391 -0.2520  1.5108  1.4627
 7672SOL    MW430456   2.165   3.726   0.416  0.0494  0.1551  0.2182
 7673SOL     OW30457   2.447   1.511   1.015  0.3466 -0.3820 -0.6212
 7673SOL    HW230458   2.403   1.430   0.990  0.5354 -0.6263 -0.1732
 7673SOL    HW330459   2.377   1.572   1.036  0.2077 -1.2278  1.5602
 7673SOL    MW430460   2.432   1.508   1.014 -0.4519  0.2882  0.4537
 7674SOL     OW30461   3.376   4.089   2.196 -0.0969  0.1465 -0.5665
 7674SOL    HW230462   3.326   4.153   2.146  1.1510  1.6042 -0.0374
 7674SOL    HW330463   3.312   4.053   2.259 -0.1699  3.4252  1.4788
 7674SOL    MW430464   3.361   4.092   2.198 -0.0187  0.7356  0.5627
 7675SOL     OW30465   0.243   0.673   4.202  0.1740  0.3438 -0.1235
 7675SOL    HW230466   0.287   0.631   4.128 -0.7809  0.3833 -0.7228
 7675SOL    HW330467   0.230   0.764   4.174 -0.3851  0.3044  0.0002
 7675SOL    MW430468   0.247   0.679   4.189  0.0354  0.9165 -0.0035
 7676SOL     OW30469   2.216   1.977   0.945  0.1373 -0.1725  0.2287
 7676SOL    HW230470   2.300   1.947   0.912  0.3291  0.4559  0.1331
 7676SOL    HW330471   2.237   2.048   1.004 -0.3298  0.0309  0.1559
 7676SOL    MW430472   2.230   1.982   0.948 -0.5958  0.1929 -0.9142
 7677SOL     OW30473   2.048   0.723   5.464 -0.0931  0.2331  0.1128
 7677SOL    HW230474   1.987   0.718   5.537  1.0577  0.4971  1.1320
 7677SOL    HW330475   2.033   0.809   5.425 -0.7217  0.0851  0.0175
 7677SOL    MW430476   2.038   0.733   5.469  0.2357  0.1773 -0.3978
 7678SOL     OW30477   5.565   3.945   4.321  0.3695 -0.8681  0.3803
 7678SOL    HW230478   5.619   4.007   4.271  0.7281 -0.5919  1.1062
 7678SOL    HW330479   5.612   3.862   4.314 -0.4647 -1.2543 -1.1797
 7678SOL    MW430480   5.578   3.942   4.313  0.6466 -0.1278 -0.2401
 7679SOL     OW30481   1.198   6.240   2.844 -0.3590 -0.4087 -0.3931
 7679SOL    HW230482   1.131   6.228   2.910  0.0393 -0.2638  0.0394
 7679SOL    HW330483   1.246   6.157   2.843 -1.6705 -1.2070 -1.9942
 7679SOL    MW430484   1.196   6.227   2.852 -0.3542  0.6965 -0.7401
 7680SOL     OW30485   2.156   2.799   4.215 -0.4499  0.2745  0.2389
 7680SOL    HW230486   2.248   2.826   4.209 -0.1071 -0.5521  1.4641
 7680SOL    HW330487   2.112   2.849   4.146  1.2699 -0.8596 -1.8075
 7680SOL    MW430488   2.162   2.809   4.205 -0.4422  0.5701 -0.1709
 7681SOL     OW30489   0.853   2.277   4.293 -0.1765 -0.4482 -0.1434
 7681SOL    HW230490   0.768   2.316   4.312  0.1697 -0.1854  0.9275
 7681SOL    HW330491   0.886   2.247   4.378 -0.3949 -3.0696 -0.8848
 7681SOL    MW430492   0.846   2.278   4.307  0.0313  0.4417 -0.0362
 7682SOL     OW30493   0.858   3.600   0.074  0.3054  0.3507  0.2976
 7682SOL    HW230494   0.786   3.588   0.013  0.3787  0.2437  0.2310
 7682SOL    HW330495   0.937   3.587   0.021  0.3832  0.9272  0.2730
 7682SOL    MW430496   0.859   3.597   0.059  0.5278  0.6323 -0.0877
 7683SOL     OW30497   4.148   2.870   4.678  0.6258 -0.2836  0.2777
 7683SOL    HW230498   4.163   2.901   4.589  0.9007  1.5123  0.8885
 7683SOL    HW330499   4.053   2.870   4.689  0.5917 -0.5187 -0.0092
 7683SOL    MW430500   4.138   2.874   4.668  0.3720  1.1487  0.1693
 7684SOL     OW30501   0.464   6.323   2.991  0.0423  0.1205 -0.3355
 7684SOL    HW230502   0.413   6.384   3.045 -2.4178 -2.1819  0.1230
 7684SOL    HW330503   0.448   6.351   2.901  1.6177  2.0408 -0.1061
 7684SOL    MW430504   0.455   6.335   2.986 -0.1164  0.0794 -0.0710
 7685SOL     OW30505   0.619   1.275   6.267  0.4828  0.2871  0.0484
 7685SOL    HW230506   0.549   1.310   6.321  1.7868 -0.5076  2.4162
 7685SOL    HW330507   0.587   1.191   6.236 -0.6381  1.1637 -1.2735
 7685SOL    MW430508   0.606   1.268   6.270  0.1860  0.3056 -0.7615
 7686SOL     OW30509   5.885   5.995   2.987  0.8077  1.0018  0.4300
 7686SOL    HW230510   5.843   6.048   3.054  0.5462  1.0439  0.2376
 7686SOL    HW330511   5.880   5.905   3.020  0.6797  1.0223  0.4687
 7686SOL    MW430512   5.879   5.990   3.000 -0.4975 -1.0426 -0.2036
 7687SOL     OW30513   0.551   0.877   4.215 -1.1568 -0.0418 -0.7997
 7687SOL    HW230514   0.521   0.828   4.292  0.1525 -0.6525 -0.6511
 7687SOL    HW330515   0.503   0.959   4.219 -1.1952 -0.1110  0.6178
 7687SOL    MW430516   0.541   0.881   4.226  0.2439 -0.9930  0.5845
 7688SOL     OW30517   6.239   5.176   5.960 -0.1251 -0.2362  0.5094
 7688SOL    HW230518   6.238   5.259   5.913 -1.2392 -0.2715  0.4233
 7688SOL    HW330519   6.327   5.168   5.996  0.0480  0.8808  0.3442
 7688SOL    MW430520   6.250   5.186   5.958 -0.0242 -0.3986  0.0199
 7689SOL     OW30521   3.290   2.537   4.540  0.1446 -0.2508  0.0484
 7689SOL    HW230522   3.219   2.504   4.484  0.5896 -0.8340 -0.1833
 7689SOL    HW330523   3.258   2.621   4.571 -0.0665  0.1476 -1.1832
 7689SOL    MW430524   3.276   2.544   4.537 -0.0866 -0.0658  0.1042
 7690SOL     OW30525   0.026   1.943   4.443  0.3047  0.4874 -0.3321
 7690SOL    HW230526  -0.015   1.857   4.442  1.4881 -0.0947 -0.2077
 7690SOL    HW330527   0.003   1.980   4.529  0.5064 -0.0571 -0.0404
 7690SOL    MW430528   0.018   1.936   4.454  0.0587 -0.2067 -0.4955
 7691SOL     OW30529   1.832   4.816   1.330  0.6526  0.3755  0.0155
 7691SOL    HW230530   1.778   4.794   1.254 -0.0304 -2.1606  1.1226
 7691SOL    HW330531   1.779   4.879   1.379  0.1911  0.4539 -0.5710
 7691SOL    MW430532   1.818   4.822   1.326  0.2312  0.7426 -0.0799
 7692SOL     OW30533   3.572   5.091   5.133  0.5956 -0.7290 -0.1301
 7692SOL    HW230534   3.652   5.141   5.116  0.8633 -0.7384  1.0510
 7692SOL    HW330535   3.591   5.040   5.211 -0.9770  0.2398  0.9592
 7692SOL    MW430536   3.585   5.091   5.141  1.0161 -0.0851  0.1947
 7693SOL     OW30537   0.327   3.649   5.381 -0.0820  0.6420 -0.1998
 7693SOL    HW230538   0.267   3.634   5.309 -0.5811 -0.9261  0.5017
 7693SOL    HW330539   0.411   3.667   5.340 -0.6544  1.1834 -1.1644
 7693SOL    MW430540   0.330   3.650   5.366  0.1191  0.3163  0.2430
 7694SOL     OW30541   1.550   1.806   2.289 -0.2436  0.0868  0.3638
 7694SOL    HW230542   1.544   1.734   2.351  0.2062  0.6793  1.1155
 7694SOL    HW330543   1.614   1.777   2.224 -1.3816 -0.9037 -0.3545
 7694SOL    MW430544   1.558   1.793   2.288  0.8685 -0.3563 -0.1975
 7695SOL     OW30545   2.916   4.293   3.225  0.2642  0.0315  0.7407
 7695SOL    HW230546   2.955   4.284   3.312  0.1683  0.2114  0.8018
 7695SOL    HW330547   2.830   4.252   3.232  0.2841 -0.0156  0.7117
 7695SOL    MW430548   2.910   4.287   3.237 -0.5546  0.0527  0.4633
 7696SOL     OW30549   4.142   0.961   4.523  0.1320  0.6825 -0.5559
 7696SOL    HW230550   4.155   0.877   4.478  0.0907  0.3030  0.1255
 7696SOL    HW330551   4.222   0.975   4.572 -0.4356  0.2848  0.5276
 7696SOL    MW430552   4.154   0.952   4.524 -0.2533  0.0901  0.3192
 7697SOL     OW30553   3.828   4.685   3.749  0.1472  0.3626 -0.9857
 7697SOL    HW230554   3.883   4.718   3.820 -0.5766 -0.6271  0.0580
 7697SOL    HW330555   3.777   4.762   3.721 -0.3837  0.5311  0.3518
 7697SOL    MW430556   3.828   4.700   3.754 -0.2218 -0.6685 -0.1259
 7698SOL     OW30557   4.080   1.262   2.687  0.3689  0.0961  0.4385
 7698SOL    HW230558   4.117   1.336   2.639  0.9961  1.2245  2.5417
 7698SOL    HW330559   4.057   1.198   2.619  1.5838  1.4163 -1.2960
 7698SOL    MW430560   4.082   1.263   2.671 -0.0424  0.2753 -0.0544
 7699SOL     OW30561   1.478   3.521   0.607  0.5060 -0.0836  0.2509
 7699SOL    HW230562   1.454   3.447   0.551 -0.7486 -0.1072  0.7890
 7699SOL    HW330563   1.536   3.484   0.673 -0.4931 -0.7029  0.7976
 7699SOL    MW430564   1.482   3.507   0.608 -0.8666 -0.0066  0.3877
 7700SOL     OW30565   0.337   4.586   2.534  0.3294  0.7040  0.1344
 7700SOL    HW230566   0.260   4.569   2.587  0.9789 -1.2265  0.5398
 7700SOL    HW330567   0.325   4.534   2.455  2.3450 -1.8335  1.3537
 7700SOL    MW430568   0.325   4.577   2.531 -0.2678 -0.8492  0.1417
 7701SOL     OW30569   2.743   0.402   4.198 -0.2746 -0.4799 -0.4977
 7701SOL    HW230570   2.684   0.358   4.260  1.6354 -1.2474  0.8724
 7701SOL    HW330571   2.746   0.493   4.230 -0.4134 -0.5318 -0.3329
 7701SOL    MW430572   2.735   0.408   4.211  0.3929 -0.2252 -0.1396
 7702SOL     OW30573   4.418   3.708   2.259  0.3739  0.2368  0.5562
 7702SOL    HW230574   4.414   3.779   2.322  0.0418  0.9245 -0.2311
 7702SOL    HW330575   4.421   3.629   2.313 -0.3597  0.7863  1.4231
 7702SOL    MW430576   4.418   3.707   2.275  0.0854  0.5305  0.4621
 7703SOL     OW30577   3.203   1.882   1.568 -0.7909 -0.0834 -0.1946
 7703SOL    HW230578   3.286   1.886   1.616  0.1864 -0.6759 -1.7563
 7703SOL    HW330579   3.164   1.799   1.594  0.1253 -0.7922 -0.9678
 7703SOL    MW430580   3.209   1.872   1.578  0.0391  0.6629 -0.1738
 7704SOL     OW30581   2.961   6.281   1.456  0.4053 -0.0357  0.0213
 7704SOL    HW230582   3.051   6.258   1.432  0.5244  0.4168  0.0223
 7704SOL    HW330583   2.971   6.339   1.532  0.0495 -1.2461  1.0313
 7704SOL    MW430584   2.974   6.285   1.463 -0.1411 -0.4489 -0.5037
 7705SOL     OW30585   0.406   0.050   0.914 -0.0277  0.2110 -0.7741
 7705SOL    HW230586   0.501   0.067   0.911  0.5139 -2.2906 -0.5122
 7705SOL    HW330587   0.388   0.004   0.832 -0.8495 -0.0717 -0.4452
 7705SOL    MW430588   0.416   0.046   0.903  0.0541  0.0074 -0.3532
 7706SOL     OW30589   5.972   0.598   4.440  0.0845  0.1478 -0.0824
 7706SOL    HW230590   6.046   0.638   4.394  0.2054 -1.2437 -1.1815
 7706SOL    HW330591   5.915   0.671   4.461  0.4594  0.9599 -1.6811
 7706SOL    MW430592   5.975   0.613   4.437  0.6315 -0.0875  0.1076
 7707SOL     OW30593   4.648   3.032   5.129 -0.0095  0.4521 -0.1980
 7707SOL    HW230594   4.741   3.053   5.112 -0.0794  3.2769  2.0555
 7707SOL    HW330595   4.600   3.087   5.067 -0.3428 -2.6055 -2.9040
 7707SOL    MW430596   4.654   3.042   5.119  0.2540  0.0683 -0.0280
 7708SOL     OW30597   1.636   4.179   0.506  0.3343  0.1027  0.4139
 7708SOL    HW230598   1.613   4.089   0.531  0.8277 -0.3926 -0.8525
 7708SOL    HW330599   1.561   4.210   0.455  1.6670 -0.9681 -2.3881
 7708SOL    MW430600   1.623   4.171   0.503 -0.1679  0.4307 -0.0185
 7709SOL     OW30601   1.460   3.765   5.182 -0.6213  0.1169 -0.1350
 7709SOL    HW230602   1.540   3.741   5.229 -1.0233  0.3091  0.6520
 7709SOL    HW330603   1.404   3.688   5.190 -1.1708  0.5925  0.7713
 7709SOL    MW430604   1.463   3.752   5.189 -0.1265 -0.2388  0.0632
 7710SOL     OW30605   4.624   0.682   3.267 -0.1514  0.3814  0.1216
 7710SOL    HW230606   4.531   0.704   3.262 -0.0976  0.5945  0.0490
 7710SOL    HW330607   4.653   0.681   3.175 -0.1851 -0.1315  0.1122
 7710SOL    MW430608   4.616   0.685   3.254  0.2953 -0.7775  0.1382
 7711SOL     OW30609   0.990   6.400   4.559  0.4040  0.0656  0.3001
 7711SOL    HW230610   0.989   6.314   4.601 -0.0269  0.6753  1.6015
 7711SOL    HW330611   1.052   6.452   4.610  0.9345  0.4372 -0.6910
 7711SOL    MW430612   0.998   6.396   4.572  0.6257 -1.1070  0.4996
 7712SOL     OW30613   4.052   1.800   2.300  0.3455  0.1707 -0.0255
 7712SOL    HW230614   3.994   1.814   2.225  1.3085  0.8407 -0.6621
 7712SOL    HW330615   4.085   1.711   2.289 -0.9233 -0.4129  0.6200
 7712SOL    MW430616   4.049   1.790   2.289  0.2230 -0.6090 -0.2724
 7713SOL     OW30617   5.577   4.524   5.882  0.1388 -0.0593 -0.0865
 7713SOL    HW230618   5.654   4.469   5.898  0.2244 -0.5817 -2.0410
 7713SOL    HW330619   5.573   4.582   5.958  1.9207 -0.6398  0.5035
 7713SOL    MW430620   5.587   4.524   5.894 -0.1859 -0.1391  0.3803
 7714SOL     OW30621   5.514   2.597   4.731  0.1230 -0.8333  0.0780
 7714SOL    HW230622   5.426   2.570   4.705 -0.2202 -0.0179  0.3420
 7714SOL    HW330623   5.572   2.555   4.668 -0.5689 -0.1706 -1.0392
 7714SOL    MW430624   5.510   2.588   4.719  0.2211 -0.0547  0.0839
 7715SOL     OW30625   6.173   2.337   1.693  0.6005  0.3499 -0.1245
 7715SOL    HW230626   6.219   2.411   1.732  0.3893  0.5295 -0.2095
 7715SOL    HW330627   6.237   2.297   1.635  1.1089 -0.2908  0.8572
 7715SOL    MW430628   6.187   2.342   1.690 -0.4076  0.1425  0.2780
 7716SOL     OW30629   6.192   5.413   4.966 -0.4746 -0.0094  0.1313
 7716SOL    HW230630   6.189   5.412   5.062 -2.6666  1.9511  0.1686
 7716SOL    HW330631   6.103   5.390   4.939  0.3489 -1.4586 -1.4907
 7716SOL    MW430632   6.180   5.410   4.975 -0.2048  0.1534 -0.0326
 7717SOL     OW30633   4.474   5.459   1.868  0.5650  0.5152  0.5815
 7717SOL    HW230634   4.535   5.434   1.937  0.7201  1.1295  0.6705
 7717SOL    HW330635   4.447   5.376   1.828  0.3561  0.1415  1.4735
 7717SOL    MW430636   4.478   5.445   1.872 -0.4082  0.1852 -0.5437
 7718SOL     OW30637   5.208   5.202   4.107 -0.5523  0.5963 -0.0525
 7718SOL    HW230638   5.167   5.117   4.088 -0.8009  0.6717  0.1384
 7718SOL    HW330639   5.277   5.210   4.041  0.3495 -0.3532  0.7441
 7718SOL    MW430640   5.211   5.192   4.096  0.1253 -0.0414 -0.0735
 7719SOL     OW30641   0.776   4.858   2.972 -0.5655  0.7607  0.0902
 7719SOL    HW230642   0.753   4.871   3.064 -1.1853 -0.4631  0.1159
 7719SOL    HW330643   0.693   4.848   2.927 -0.2306 -1.7471 -0.1086
 7719SOL    MW430644   0.762   4.858   2.978  0.4034 -0.4078  0.7720
 7720SOL     OW30645   4.224   0.904   6.275  0.0758 -0.0165  0.0005
 7720SOL    HW230646   4.253   0.896   6.184 -0.7688 -3.1305 -0.1065
 7720SOL    HW330647   4.164   0.979   6.274 -0.3887 -0.3410 -2.1459
 7720SOL    MW430648   4.220   0.913   6.263  0.4913 -0.4281 -0.0170
 7721SOL     OW30649   4.797   6.182   3.668  0.1634 -0.3065 -0.2172
 7721SOL    HW230650   4.844   6.099   3.670 -0.8483 -0.8946 -0.2419
 7721SOL    HW330651   4.719   6.164   3.614 -0.7036  0.3055  0.8024
 7721SOL    MW430652   4.793   6.169   3.661 -0.0760  0.1179 -0.2966
 7722SOL     OW30653   3.264   3.724   6.193 -0.0996 -0.1251 -0.3120
 7722SOL    HW230654   3.205   3.727   6.269  0.6969  1.2063  0.2745
 7722SOL    HW330655   3.329   3.657   6.216 -1.0415 -1.2378 -0.7495
 7722SOL    MW430656   3.264   3.715   6.206 -0.1200  0.1501  0.2111
 7723SOL     OW30657   1.589   4.746   2.313  0.4230  0.5456  0.3293
 7723SOL    HW230658   1.642   4.812   2.270 -2.2526  1.1438 -2.4072
 7723SOL    HW330659   1.548   4.697   2.241 -1.3441 -0.9921  2.2368
 7723SOL    MW430660   1.591   4.748   2.298 -0.0660 -0.0837 -0.1782
 7724SOL     OW30661   2.064   5.059   3.555  0.0374  0.4319 -0.4434
 7724SOL    HW230662   2.149   5.035   3.518  1.1243  1.3587  1.3125
 7724SOL    HW330663   2.079   5.145   3.595 -1.2553 -0.1215  1.3659
 7724SOL    MW430664   2.077   5.067   3.555  0.0857  0.0599  0.0980
 7725SOL     OW30665   1.483   3.933   0.792  0.3021  0.1363  0.3902
 7725SOL    HW230666   1.390   3.925   0.813  0.2515  0.2041  0.1975
 7725SOL    HW330667   1.498   4.027   0.781  0.2347  0.0766 -0.2663
 7725SOL    MW430668   1.473   3.944   0.793 -0.1786 -0.2442 -0.2906
 7726SOL     OW30669   3.960   1.343   5.570  0.2014 -0.3639 -0.7743
 7726SOL    HW230670   4.042   1.357   5.522  1.4222 -0.5826  1.1278
 7726SOL    HW330671   3.958   1.415   5.634 -1.8330  0.4540 -1.6883
 7726SOL    MW430672   3.971   1.354   5.572  0.4045  0.4231 -0.1831
 7727SOL     OW30673   0.792   3.257   2.660  0.1440  0.1675  0.0666
 7727SOL    HW230674   0.790   3.299   2.574  1.2699  0.2844  0.0735
 7727SOL    HW330675   0.720   3.297   2.708  0.0734  0.7811 -0.5289
 7727SOL    MW430676   0.783   3.268   2.655 -0.0826 -0.1030 -0.2879
 7728SOL     OW30677   5.122   0.198   2.698 -0.4448 -0.8633 -0.0223
 7728SOL    HW230678   5.143   0.261   2.767 -1.1679 -0.3261 -0.2806
 7728SOL    HW330679   5.184   0.218   2.628 -1.6245  0.5999 -0.7097
 7728SOL    MW430680   5.133   0.209   2.698  0.1289 -0.3973  0.0280
 7729SOL     OW30681   0.288   4.842   6.280  0.1926 -0.0167 -0.5985
 7729SOL    HW230682   0.349   4.867   6.349 -1.7171  0.8864  0.8092
 7729SOL    HW330683   0.223   4.787   6.323 -1.9233  1.8252 -1.2536
 7729SOL    MW430684   0.288   4.838   6.294  0.3514  0.3628  0.6808
 7730SOL     OW30685   1.854   6.146   0.374 -0.8978  0.1910  0.1233
 7730SOL    HW230686   1.945   6.131   0.398 -0.6651  2.7135  1.1397
 7730SOL    HW330687   1.856   6.167   0.280 -0.3441  0.7761  0.2628
 7730SOL    MW430688   1.866   6.147   0.365 -0.6972 -0.5534 -0.3113
 7731SOL     OW30689   5.997   2.636   0.156 -0.1938  0.0715 -0.4380
 7731SOL    HW230690   5.921   2.578   0.153 -0.2107  0.0281  0.4640
 7731SOL    HW330691   5.960   2.724   0.162 -0.2366 -0.0162  1.4695
 7731SOL    MW430692   5.982   2.640   0.157  0.4837  0.2282  0.3506
 7732SOL     OW30693   1.272   1.795   2.002 -0.0186 -0.1475 -0.3550
 7732SOL    HW230694   1.258   1.800   2.097  1.0760  1.0274 -0.2285
 7732SOL    HW330695   1.351   1.741   1.992  0.7453  0.9476 -0.4768
 7732SOL    MW430696   1.281   1.789   2.014  0.4635 -0.3042 -0.1144
 7733SOL     OW30697   2.884   5.233   2.937 -0.1357 -0.1701 -0.6154
 7733SOL    HW230698   2.938   5.156   2.955 -0.7686 -0.4324  0.2659
 7733SOL    HW330699   2.901   5.292   3.010  0.4922  0.6215 -1.3902
 7733SOL    MW430700   2.893   5.231   2.949  0.2991  0.5605 -0.3736
 7734SOL     OW30701   3.600   2.589   0.584  0.0857  0.5486 -0.0788
 7734SOL    HW230702   3.649   2.591   0.666  0.2598  2.1384 -0.1887
 7734SOL    HW330703   3.667   2.602   0.516  0.0576 -1.5423 -0.5679
 7734SOL    MW430704   3.615   2.591   0.586  0.1685 -0.0129 -0.0067
 7735SOL     OW30705   2.556   5.377   3.285  0.1187 -0.4613  0.2169
 7735SOL    HW230706   2.618   5.408   3.351 -0.1530 -0.0448  0.2860
 7735SOL    HW330707   2.496   5.451   3.273 -0.7259 -1.0629  0.5991
 7735SOL    MW430708   2.556   5.391   3.292  0.4306  0.1897 -0.2773
 7736SOL     OW30709   2.646   2.564   3.763  0.0852 -0.1154  0.3655
 7736SOL    HW230710   2.582   2.493   3.772  0.9399 -0.9048  0.3648
 7736SOL    HW330711   2.596   2.644   3.780 -1.2443 -0.5815 -1.0648
 7736SOL    MW430712   2.631   2.565   3.766  0.0237  0.3133  1.0394
 7737SOL     OW30713   4.148   2.347   0.838  0.2134 -0.2414 -0.3342
 7737SOL    HW230714   4.236   2.321   0.866  0.4443 -0.9420 -1.6548
 7737SOL    HW330715   4.091   2.316   0.909  0.8462 -1.3717 -0.2877
 7737SOL    MW430716   4.152   2.340   0.851 -0.1095 -0.2808  0.5737
 7738SOL     OW30717   1.065   1.424   5.228 -0.2063 -0.1689  0.0864
 7738SOL    HW230718   1.025   1.385   5.305  0.7101 -0.1551  0.5939
 7738SOL    HW330719   1.093   1.350   5.174  1.0403 -0.2514  0.7898
 7738SOL    MW430720   1.064   1.409   5.231 -0.3418  0.4554 -0.0714
 7739SOL     OW30721   4.623   2.213   0.474  0.0514  0.0101  0.1459
 7739SOL    HW230722   4.663   2.146   0.528  1.5893  0.0032 -0.9351
 7739SOL    HW330723   4.621   2.175   0.386  0.7179  1.2565 -0.4331
 7739SOL    MW430724   4.628   2.199   0.470  0.3316 -0.0549 -0.1900
 7740SOL     OW30725   5.297   6.246   0.490 -0.1398 -0.0536  0.3898
 7740SOL    HW230726   5.216   6.288   0.460  0.4887  0.2545 -0.9558
 7740SOL    HW330727   5.346   6.229   0.410  1.0044 -0.5137  1.1615
 7740SOL    MW430728   5.293   6.249   0.476  0.3977 -0.2031  0.2958
 7741SOL     OW30729   1.041   4.780   2.934 -0.1491  0.2561 -0.2594
 7741SOL    HW230730   1.114   4.826   2.976 -0.2468 -0.6006  0.9151
 7741SOL    HW330731   0.963   4.823   2.968 -0.2257  1.1469 -1.4860
 7741SOL    MW430732   1.041   4.791   2.944 -0.1720  0.5895 -0.8783
 7742SOL     OW30733   3.196   1.777   0.398 -0.2997  0.4281 -0.0628
 7742SOL    HW230734   3.256   1.834   0.445 -1.0432 -0.8061  2.5390
 7742SOL    HW330735   3.109   1.814   0.415 -0.4991  1.1091 -2.2248
 7742SOL    MW430736   3.192   1.789   0.406 -0.1872  0.0846 -0.1376
 7743SOL     OW30737   6.390   1.149   3.418 -0.3269  0.6155 -0.1713
 7743SOL    HW230738   6.473   1.162   3.373  1.8193 -1.1822  2.8469
 7743SOL    HW330739   6.398   1.202   3.498 -0.9244 -1.4227  1.3424
 7743SOL    MW430740   6.402   1.158   3.423  0.0137 -0.0222  0.8746
 7744SOL     OW30741   0.050   4.045   3.831 -0.2261 -1.0943  0.2146
 7744SOL    HW230742   0.138   4.077   3.812 -0.2497 -1.1062  0.0836
 7744SOL    HW330743   0.063   3.952   3.850 -0.5091 -1.7498 -2.3522
 7744SOL    MW430744   0.063   4.037   3.831  0.9408  0.5371  1.2143
 7745SOL     OW30745   0.858   0.457   4.257  0.4832 -0.2555  0.4561
 7745SOL    HW230746   0.914   0.424   4.186  0.8139 -0.8605  0.9908
 7745SOL    HW330747   0.862   0.552   4.248  2.5733 -0.2237  1.2102
 7745SOL    MW430748   0.866   0.465   4.246  0.6750  0.0901  0.0614
 7746SOL     OW30749   4.339   2.451   1.588  0.0863 -0.0221 -0.6321
 7746SOL    HW230750   4.287   2.513   1.538  1.5709  0.7281 -1.2989
 7746SOL    HW330751   4.340   2.372   1.534 -0.2670 -0.0237 -0.6431
 7746SOL    MW430752   4.332   2.449   1.575  0.1452 -0.4545  0.1873
 7747SOL     OW30753   5.729   2.467   2.856 -0.6435 -0.3130 -0.1804
 7747SOL    HW230754   5.773   2.463   2.941 -2.1106  0.2835  0.6510
 7747SOL    HW330755   5.786   2.523   2.802  0.1835 -0.5068  0.4700
 7747SOL    MW430756   5.743   2.474   2.860  0.0505 -0.1272  0.2516
 7748SOL     OW30757   6.254   2.572   1.796 -0.0702 -0.2242  0.2670
 7748SOL    HW230758   6.304   2.554   1.876 -1.2354 -0.1974  1.0280
 7748SOL    HW330759   6.181   2.626   1.826 -0.2494  0.2047 -0.9111
 7748SOL    MW430760   6.251   2.577   1.810  0.9409 -0.4462  0.2684
 7749SOL     OW30761   2.958   2.489   2.630 -0.8167 -0.1944 -0.1629
 7749SOL    HW230762   3.051   2.474   2.615 -1.0167 -2.3092  0.4647
 7749SOL    HW330763   2.930   2.541   2.554  0.6801 -0.2268 -0.7798
 7749SOL    MW430764   2.967   2.494   2.618  0.6098 -0.0941 -0.5429
 7750SOL     OW30765   1.342   1.301   0.615 -0.3966 -0.2540  0.1620
 7750SOL    HW230766   1.288   1.366   0.660  0.0768 -0.0495  0.4369
 7750SOL    HW330767   1.422   1.347   0.593 -0.3061 -0.5743 -0.1912
 7750SOL    MW430768   1.345   1.315   0.618  0.1212  0.4535  0.4366
 7751SOL     OW30769   4.427   2.198   1.465 -0.1061 -0.2834  0.2517
 7751SOL    HW230770   4.480   2.205   1.385 -1.5942  0.0462 -0.7579
 7751SOL    HW330771   4.473   2.135   1.519 -0.0305 -2.0282 -1.7044
 7751SOL    MW430772   4.440   2.190   1.461  0.3387 -0.4849  0.8040
 7752SOL     OW30773   1.290   4.285   3.086 -0.3733 -0.0088  0.5178
 7752SOL    HW230774   1.366   4.242   3.049  0.0561 -0.5314  1.9187
 7752SOL    HW330775   1.312   4.378   3.084 -0.0863 -0.0818  0.0901
 7752SOL    MW430776   1.303   4.291   3.081 -0.4222 -0.1961  0.6427
 7753SOL     OW30777   4.539   1.353   1.336  0.3564  0.0864  0.0405
 7753SOL    HW230778   4.560   1.344   1.429  2.2886  1.0667 -0.2447
 7753SOL    HW330779   4.607   1.412   1.302 -0.6123  0.1648 -1.8898
 7753SOL    MW430780   4.551   1.360   1.344  0.3632 -0.2407  0.1436
 7754SOL     OW30781   6.007   0.019   3.663  0.3436 -0.2241 -0.0005
 7754SOL    HW230782   6.100   0.038   3.655  0.1087  0.9328 -0.2526
 7754SOL    HW330783   5.985   0.040   3.754  0.2418 -0.0203 -0.0696
 7754SOL    MW430784   6.016   0.024   3.674 -0.3915 -0.6824 -0.0839
 7755SOL     OW30785   4.103   5.256   1.394  0.0153  0.5577 -0.3939
 7755SOL    HW230786   4.082   5.349   1.398 -1.2899  0.4541 -2.9002
 7755SOL    HW330787   4.193   5.253   1.363  0.1060  0.9745 -0.1845
 7755SOL    MW430788   4.112   5.268   1.391  0.2959  0.3813 -0.1607
 7756SOL     OW30789   6.268   1.864   1.100  0.1112 -0.1573 -0.4748
 7756SOL    HW230790   6.330   1.868   1.027 -0.0564 -1.3179 -0.6996
 7756SOL    HW330791   6.204   1.799   1.073 -0.0693 -0.4525  0.6276
 7756SOL    MW430792   6.268   1.856   1.087  0.2624  0.1197  0.2794
 7757SOL     OW30793   3.684   5.001   6.182  0.7331  0.3085  0.0925
 7757SOL    HW230794   3.605   5.055   6.173  1.0454  1.1501  1.9389
 7757SOL    HW330795   3.688   4.950   6.101 -0.0498  2.4549 -1.3870
 7757SOL    MW430796   3.674   5.002   6.170  0.2456  0.1904 -0.3181
 7758SOL     OW30797   4.956   1.303   3.418  0.1104  0.3132  0.3861
 7758SOL    HW230798   4.947   1.392   3.384  2.6773 -0.1835 -1.9240
 7758SOL    HW330799   4.876   1.258   3.388  0.5184  0.9114 -1.7954
 7758SOL    MW430800   4.944   1.309   3.409  0.0712 -0.0605 -0.3399
 7759SOL     OW30801   6.296   1.676   4.399 -0.6028 -0.0298 -0.0261
 7759SOL    HW230802   6.313   1.644   4.488  0.8108 -1.3596 -0.7296
 7759SOL    HW330803   6.205   1.705   4.401 -1.1989 -1.7775  1.3748
 7759SOL    MW430804   6.287   1.676   4.411  0.0379 -0.0323  0.3742
 7760SOL     OW30805   1.023   1.033   0.351 -0.2250  0.4572 -0.1052
 7760SOL    HW230806   1.069   0.956   0.384  1.2890  1.1707 -0.4691
 7760SOL    HW330807   0.955   1.050   0.416  1.3594  0.5864  1.5850
 7760SOL    MW430808   1.020   1.026   0.364 -0.2898  0.0544  0.4380
 7761SOL     OW30809   0.083   0.512   5.067  0.0567  0.0633 -0.9385
 7761SOL    HW230810   0.008   0.565   5.094 -0.0755  0.2322 -1.6292
 7761SOL    HW330811   0.156   0.574   5.063  0.7149 -0.4196  1.5988
 7761SOL    MW430812   0.083   0.527   5.070  0.5058 -0.4131 -0.5961
 7762SOL     OW30813   4.022   1.318   1.787 -0.1648 -0.3163  0.6019
 7762SOL    HW230814   3.933   1.350   1.774  0.2359  0.3342 -0.6756
 7762SOL    HW330815   4.077   1.396   1.782  0.5678 -0.8362  0.3928
 7762SOL    MW430816   4.017   1.332   1.785 -0.4870 -0.7486  0.2547
 7763SOL     OW30817   3.557   1.239   0.989  0.1779 -0.1597 -0.0072
 7763SOL    HW230818   3.564   1.244   0.893  0.6590 -0.5345  0.0060
 7763SOL    HW330819   3.537   1.329   1.016  1.0090  0.1533 -0.3848
 7763SOL    MW430820   3.555   1.252   0.980 -0.4361  0.2162 -0.6574
 7764SOL     OW30821   0.504   0.762   2.703 -0.1525  0.1111 -0.5533
 7764SOL    HW230822   0.448   0.784   2.628 -0.5094 -0.4471 -0.4636
 7764SOL    HW330823   0.485   0.830   2.767 -0.3157  0.2392 -0.7344
 7764SOL    MW430824   0.494   0.774   2.701  0.2847  0.0721  0.3219
 7765SOL     OW30825   0.765   2.779   1.583 -0.0578 -0.0248  0.1997
 7765SOL    HW230826   0.807   2.699   1.550  0.5656 -0.5085  2.0566
 7765SOL    HW330827   0.837   2.842   1.593 -0.2513  0.1524  0.4911
 7765SOL    MW430828   0.780   2.777   1.580 -0.2511 -0.2260  0.4148
 7766SOL     OW30829   2.797   3.328   4.626  0.5933  0.1603  0.1843
 7766SOL    HW230830   2.811   3.408   4.575  1.7321 -0.0265  0.1599
 7766SOL    HW330831   2.807   3.257   4.562  1.8828 -0.0697  0.6035
 7766SOL    MW430832   2.800   3.329   4.611  0.0711  0.0509 -0.1683
 7767SOL     OW30833   4.328   2.903   5.480 -0.5153  0.3281  0.1199
 7767SOL    HW230834   4.390   2.877   5.411  0.6661 -0.1158  1.3144
 7767SOL    HW330835   4.307   2.821   5.524 -0.2207  0.7813  1.1169
 7767SOL    MW430836   4.334   2.889   5.477  0.2364  0.2225  0.9639
 7768SOL     OW30837   4.282   1.643   3.363  0.1587  0.7616 -0.1718
 7768SOL    HW230838   4.269   1.572   3.426  0.7393 -1.5879 -2.5201
 7768SOL    HW330839   4.229   1.618   3.288  2.5424  1.3498 -2.1681
 7768SOL    MW430840   4.273   1.630   3.362  0.1108 -0.2006 -0.2606
 7769SOL     OW30841   6.329   5.611   2.732 -0.1619  0.4102 -0.3984
 7769SOL    HW230842   6.343   5.672   2.660 -1.0739  0.8176 -0.2464
 7769SOL    HW330843   6.307   5.528   2.690 -2.2259  1.0120 -0.6310
 7769SOL    MW430844   6.328   5.608   2.717 -0.2332  0.1614 -0.2721
 7770SOL     OW30845   2.419   1.248   3.760  0.3843 -0.6477 -0.3011
 7770SOL    HW230846   2.348   1.234   3.698  0.0130 -0.8094  0.1514
 7770SOL    HW330847   2.407   1.180   3.826  0.1678  0.1357  0.4879
 7770SOL    MW430848   2.408   1.237   3.761 -0.1679 -0.3466  0.2020
 7771SOL     OW30849   4.209   3.580   3.841 -0.2421  0.1937 -0.7137
 7771SOL    HW230850   4.263   3.657   3.824 -0.8824  0.5270 -1.2943
 7771SOL    HW330851   4.272   3.509   3.855  0.4382  1.2039  2.0113
 7771SOL    MW430852   4.225   3.581   3.840  0.4377  0.1768  0.3509
 7772SOL     OW30853   1.541   6.217   6.380 -0.3149 -0.4164 -0.1762
 7772SOL    HW230854   1.540   6.193   6.288 -0.9462 -2.3880  0.2947
 7772SOL    HW330855   1.477   6.287   6.388 -0.9658 -0.8998 -1.0861
 7772SOL    MW430856   1.533   6.223   6.369  0.1318  0.0100  0.4155
 7773SOL     OW30857   4.401   2.841   2.435  0.0904 -0.1295  0.3114
 7773SOL    HW230858   4.467   2.877   2.493 -0.0628 -1.1554  1.1495
 7773SOL    HW330859   4.449   2.782   2.377  0.0952  0.1412  0.0338
 7773SOL    MW430860   4.416   2.838   2.435 -0.0052  0.6311 -0.6690
 7774SOL     OW30861   0.150   0.020   3.695 -0.0752  0.2274 -0.4423
 7774SOL    HW230862   0.057   0.012   3.673  0.1575 -0.3279 -1.2367
 7774SOL    HW330863   0.192  -0.054   3.652  0.4676 -0.6534  1.4782
 7774SOL    MW430864   0.143   0.009   3.687  0.7140  0.1913 -0.2163
 7775SOL     OW30865   1.383   1.037   0.734 -0.1161 -0.1383 -0.5768
 7775SOL    HW230866   1.478   1.025   0.732 -0.1931 -1.1467  0.6300
 7775SOL    HW330867   1.369   1.127   0.704  1.3789  0.6951  1.0144
 7775SOL    MW430868   1.394   1.048   0.730 -0.2046  0.2941 -0.1352
 7776SOL     OW30869   6.373   2.478   0.666 -0.1031  0.0365 -0.2837
 7776SOL    HW230870   6.291   2.516   0.696  0.5858  0.9627  0.4713
 7776SOL    HW330871   6.439   2.510   0.727  0.6395 -1.7577 -0.0624
 7776SOL    MW430872   6.371   2.487   0.678 -0.3732  0.0166  0.4781
 7777SOL     OW30873   1.971   5.064   0.317  0.0038  0.1448 -0.4400
 7777SOL    HW230874   2.013   5.000   0.374  1.3954 -1.0552 -2.6825
 7777SOL    HW330875   1.882   5.030   0.304  0.8294 -1.6252 -1.8831
 7777SOL    MW430876   1.965   5.051   0.322  0.2210 -0.4441  0.1925
 7778SOL     OW30877   2.789   1.048   0.566  0.2300  0.1094  0.0934
 7778SOL    HW230878   2.842   1.098   0.629  1.5279  1.2653 -1.8018
 7778SOL    HW330879   2.854   1.000   0.514 -0.8564 -1.4791  0.1434
 7778SOL    MW430880   2.805   1.048   0.567 -1.0187  0.4335  0.3849
 7779SOL     OW30881   0.746   2.263   4.003 -0.5868 -0.0486 -0.0534
 7779SOL    HW230882   0.764   2.282   4.095  1.8476  0.9883 -0.6755
 7779SOL    HW330883   0.716   2.172   4.004  0.5843 -0.4769  1.6601
 7779SOL    MW430884   0.745   2.253   4.015 -0.4089  0.0138  0.5581
 7780SOL     OW30885   0.320   2.305   2.539  0.1893  0.2309  0.3960
 7780SOL    HW230886   0.309   2.245   2.613 -2.7370 -1.7803 -1.4871
 7780SOL    HW330887   0.248   2.367   2.547  0.1573  0.3212 -0.4849
 7780SOL    MW430888   0.309   2.306   2.550 -0.1458 -0.1835  0.2726
 7781SOL     OW30889   3.722   4.966   5.392 -0.2398  0.6202 -0.3436
 7781SOL    HW230890   3.810   4.939   5.416 -0.0152  2.3199  0.9120
 7781SOL    HW330891   3.686   5.005   5.471 -1.8921  0.5621 -1.0197
 7781SOL    MW430892   3.729   4.968   5.406  0.3205 -0.3821 -0.2769
 7782SOL     OW30893   1.632   3.822   1.356  0.2295 -0.4170  0.0486
 7782SOL    HW230894   1.609   3.912   1.336  0.9375 -0.2604 -0.1004
 7782SOL    HW330895   1.676   3.826   1.441  0.9098 -0.5184 -0.2925
 7782SOL    MW430896   1.635   3.834   1.364  0.1222  0.3000  0.2310
 7783SOL     OW30897   2.840   6.386   2.512  0.2033 -0.3144  0.6606
 7783SOL    HW230898   2.835   6.293   2.490  2.9315 -0.2140 -0.7947
 7783SOL    HW330899   2.933   6.407   2.504 -0.3351  2.5339  1.0395
 7783SOL    MW430900   2.852   6.376   2.508 -0.5281  0.3334  0.9403
 7784SOL     OW30901   1.068   1.061   2.753  0.3400 -0.0901 -0.9656
 7784SOL    HW230902   1.110   0.989   2.800 -0.1281 -0.0363 -0.4410
 7784SOL    HW330903   1.037   1.023   2.672 -1.9445 -1.1026  0.2822
 7784SOL    MW430904   1.069   1.047   2.749 -0.8180  0.1351 -0.4504
 7785SOL     OW30905   2.359   5.077   0.675  1.0504  0.3375  0.1764
 7785SOL    HW230906   2.360   5.147   0.609 -1.0886  0.6637  0.4205
 7785SOL    HW330907   2.303   5.009   0.637  1.0326 -0.1295  1.0197
 7785SOL    MW430908   2.352   5.077   0.661  0.4422  0.0206  0.1317
 7786SOL     OW30909   2.931   0.595   6.400  0.1461  0.2687  0.7454
 7786SOL    HW230910   2.835   0.593   6.401  0.1617 -0.1453  1.1380
 7786SOL    HW330911   2.958   0.518   6.449  0.6844  0.4778  0.7837
 7786SOL    MW430912   2.922   0.585   6.406 -0.0676  0.2313  0.3940
 7787SOL     OW30913   6.203   1.165   4.143  0.2654 -0.3573 -0.5256
 7787SOL    HW230914   6.138   1.097   4.124 -0.2672  0.0085 -0.0373
 7787SOL    HW330915   6.222   1.204   4.057 -1.0734  0.3437 -0.5207
 7787SOL    MW430916   6.197   1.161   4.129  0.5447 -0.9161  0.0431
 7788SOL     OW30917   0.347   2.752   2.683 -0.1627  0.0957  0.6315
 7788SOL    HW230918   0.380   2.708   2.761 -1.0999  0.1399  1.0579
 7788SOL    HW330919   0.297   2.685   2.637  0.7551 -0.0632 -0.1891
 7788SOL    MW430920   0.345   2.737   2.687 -0.3276 -0.3571 -0.3778
 7789SOL     OW30921   5.981   1.750   1.410 -0.0479  0.1708 -0.1464
 7789SOL    HW230922   6.037   1.696   1.355 -1.6545 -0.3901 -1.3173
 7789SOL    HW330923   5.922   1.795   1.348  0.1257  1.9621  0.9086
 7789SOL    MW430924   5.980   1.749   1.394 -0.2318 -0.2600 -0.4930
 7790SOL     OW30925   5.481   4.550   4.842  0.3077  0.1675  0.7682
 7790SOL    HW230926   5.568   4.579   4.815  1.0953 -1.5440  1.3273
 7790SOL    HW330927   5.456   4.485   4.777 -0.9022  1.1715  0.1918
 7790SOL    MW430928   5.489   4.545   4.830 -0.3331 -0.1353 -0.3467
 7791SOL     OW30929   4.201   0.838   2.730 -0.7892  0.0665 -0.8014
 7791SOL    HW230930   4.277   0.788   2.757 -0.5815  0.4855 -0.5983
 7791SOL    HW330931   4.228   0.929   2.739 -1.1855  0.2159 -1.0937
 7791SOL    MW430932   4.214   0.843   2.735 -0.0647 -0.2667  0.1099
 7792SOL     OW30933   3.796   3.063   3.595  0.4908 -0.2523  0.2910
 7792SOL    HW230934   3.778   3.143   3.644  1.9282  0.6077 -0.4889
 7792SOL    HW330935   3.796   2.994   3.660  1.3446  0.7138  1.3588
 7792SOL    MW430936   3.794   3.065   3.610  0.0034 -0.2655  1.5090
 7793SOL     OW30937   5.130   2.465   0.435  0.4713  0.3958  0.5894
 7793SOL    HW230938   5.141   2.500   0.523  1.5606 -0.7097  0.9222
 7793SOL    HW330939   5.100   2.375   0.449 -1.3686  0.8262 -0.2252
 7793SOL    MW430940   5.128   2.458   0.448  0.1576  0.0037 -0.1222
 7794SOL     OW30941   4.933   1.277   5.652  0.4304 -0.2460  0.2116
 7794SOL    HW230942   4.900   1.222   5.581  1.5072 -0.1715 -0.3609
 7794SOL    HW330943   5.026   1.257   5.658  0.3888 -0.1643  1.5377
 7794SOL    MW430944   4.941   1.267   5.644  0.5822  0.0037  0.2443
 7795SOL     OW30945   0.924   0.240   1.403 -0.3849  0.2333  0.7637
 7795SOL    HW230946   0.886   0.324   1.428  0.1773  0.0961  2.1334
 7795SOL    HW330947   1.017   0.257   1.391 -0.7490  0.5552 -2.5532
 7795SOL    MW430948   0.931   0.253   1.405 -0.0986 -0.4870 -0.3764
 7796SOL     OW30949   4.749   5.750   0.013 -0.9839  0.0259 -0.6437
 7796SOL    HW230950   4.821   5.766   0.074 -0.4707 -1.7109 -0.7334
 7796SOL    HW330951   4.776   5.671  -0.034 -2.4267  0.0241 -1.4923
 7796SOL    MW430952   4.762   5.742   0.015 -0.2932 -0.3378  0.3895
 7797SOL     OW30953   3.942   2.757   0.065 -0.0826  0.9035 -0.0979
 7797SOL    HW230954   3.896   2.704   0.000  1.3319  0.4672 -0.7582
 7797SOL    HW330955   3.999   2.814   0.015  1.0120  0.5803  0.7402
 7797SOL    MW430956   3.943   2.758   0.050 -0.4631  0.1161  0.0793
 7798SOL     OW30957   2.525   0.308   4.373 -0.2884 -0.4687  0.0813
 7798SOL    HW230958   2.546   0.364   4.448 -2.4050  0.8556 -0.2105
 7798SOL    HW330959   2.444   0.346   4.337  0.2789 -1.4594 -2.4658
 7798SOL    MW430960   2.517   0.320   4.378 -0.3691  0.1426 -0.6734
 7799SOL     OW30961   3.626   5.536   3.175  0.2043 -0.6232  0.2859
 7799SOL    HW230962   3.677   5.454   3.174 -0.5337 -1.1130  1.0302
 7799SOL    HW330963   3.692   5.605   3.170  0.9571 -1.2471  1.1891
 7799SOL    MW430964   3.642   5.534   3.174 -0.2255 -0.6460  0.0040
 7800SOL     OW30965   4.373   3.261   5.639 -1.1267 -0.9833 -0.8921
 7800SOL    HW230966   4.447   3.247   5.580 -0.8988 -0.6998 -0.6710
 7800SOL    HW330967   4.296   3.239   5.586 -0.9826  0.0844 -1.5734
 7800SOL    MW430968   4.373   3.256   5.624  0.0097  0.5696 -0.0388
 7801SOL     OW30969   3.575   4.910   2.089 -0.0658  0.2107  0.5396
 7801SOL    HW230970   3.505   4.966   2.054  0.0725 -0.3772 -0.7532
 7801SOL    HW330971   3.647   4.919   2.026 -0.1003 -1.5331  0.1991
 7801SOL    MW430972   3.575   4.919   2.076 -0.2323 -0.0629  0.2469
 7802SOL     OW30973   3.465   1.865   0.056 -0.2420  0.1829  0.7755
 7802SOL    HW230974   3.484   1.776   0.085 -2.6962 -1.1667 -1.3339
 7802SOL    HW330975   3.415   1.903   0.128 -1.6203 -1.1778  0.5832
 7802SOL    MW430976   3.461   1.858   0.069  0.2944  0.0624  0.0438
 7803SOL     OW30977   0.458   6.111   4.333  0.2834  0.0572 -0.0470
 7803SOL    HW230978   0.519   6.133   4.403 -1.3793  2.0457  0.8649
 7803SOL    HW330979   0.441   6.193   4.287  0.6805 -1.0338 -2.3368
 7803SOL    MW430980   0.464   6.124   4.336  0.1149  0.1350  0.3529
 7804SOL     OW30981   4.769   2.335   1.478  0.7673  0.7644 -0.0977
 7804SOL    HW230982   4.749   2.250   1.440 -2.0519  1.0529  0.5225
 7804SOL    HW330983   4.813   2.315   1.561  1.6280 -0.0160 -0.7303
 7804SOL    MW430984   4.772   2.321   1.484 -0.3576 -0.1941  0.5577
 7805SOL     OW30985   3.489   2.272   2.931 -0.4602  0.1729  0.4226
 7805SOL    HW230986   3.448   2.350   2.970 -0.2268  0.7604 -0.4773
 7805SOL    HW330987   3.416   2.224   2.892 -0.3550  1.1366 -1.0352
 7805SOL    MW430988   3.474   2.276   2.931  0.3587 -0.6708  0.0867
 7806SOL     OW30989   2.117   1.585   1.863 -0.2316 -0.1287 -0.5593
 7806SOL    HW230990   2.162   1.609   1.782  0.4503 -2.4764 -0.9618
 7806SOL    HW330991   2.028   1.619   1.853  0.1557  0.5669 -1.7851
 7806SOL    MW430992   2.112   1.593   1.851 -0.7037 -0.1314 -0.4453
 7807SOL     OW30993   5.642   3.349   2.429  0.0510  0.0280  0.4727
 7807SOL    HW230994   5.565   3.406   2.432  0.3074  0.3242  2.2161
 7807SOL    HW330995   5.681   3.357   2.516  1.8339 -0.4275 -0.2501
 7807SOL    MW430996   5.637   3.358   2.441 -0.2365  0.1202 -0.3356
 7808SOL     OW30997   3.281   2.712   5.245 -0.0192  0.1043  0.3567
 7808SOL    HW230998   3.275   2.620   5.219 -0.2686  0.4766 -0.9890
 7808SOL    HW330999   3.373   2.735   5.229 -0.2109  0.3795 -0.3811
 7808SOL    MW431000   3.293   2.703   5.240 -0.1395 -0.2976  0.2379
 7809SOL     OW31001   4.018   4.554   0.869  0.0657 -0.3328 -0.9951
 7809SOL    HW231002   4.071   4.476   0.854 -0.2288 -0.6744 -0.3218
 7809SOL    HW331003   3.930   4.520   0.884  0.3876 -0.1364  1.9647
 7809SOL    MW431004   4.013   4.539   0.869 -0.6137  0.1313  0.1357
 7810SOL     OW31005   4.220   5.140   3.369 -0.2298  0.5064 -0.4058
 7810SOL    HW231006   4.267   5.096   3.440  0.2355  0.2021 -0.8897
 7810SOL    HW331007   4.216   5.232   3.397 -0.7728  0.2484  0.3817
 7810SOL    MW431008   4.226   5.147   3.382  0.0700  0.4392 -1.2125
 7811SOL     OW31009   2.171   4.940   3.083  0.1626 -0.0657 -0.8979
 7811SOL    HW231010   2.254   4.987   3.090 -0.2452  1.1592 -3.3534
 7811SOL    HW331011   2.194   4.858   3.040  0.1107  0.3516 -1.7455
 7811SOL    MW431012   2.185   4.935   3.078 -0.3566  0.9749  0.1811
 7812SOL     OW31013   4.337   2.564   2.500 -0.0700  0.4689 -0.8912
 7812SOL    HW231014   4.358   2.657   2.493  0.7037  0.4821  1.0143
 7812SOL    HW331015   4.394   2.521   2.436 -0.4416  1.2795 -1.7850
 7812SOL    MW431016   4.347   2.570   2.490 -0.4856 -0.1808  0.0640
 7813SOL     OW31017   3.149   0.898   0.203  0.2081  0.3191  0.9330
 7813SOL    HW231018   3.216   0.966   0.196  1.6994 -1.2145 -0.4371
 7813SOL    HW331019   3.095   0.909   0.125  0.4244 -0.0386  0.7317
 7813SOL    MW431020   3.151   0.909   0.192  0.5559  0.5913  0.2362
 7814SOL     OW31021   5.224   5.822   1.984  0.0737  0.0008  0.1438
 7814SOL    HW231022   5.178   5.848   1.904  0.4014 -0.9188 -0.3741
 7814SOL    HW331023   5.154   5.795   2.044 -0.1129 -0.9663 -0.4755
 7814SOL    MW431024   5.209   5.822   1.981 -0.9428 -0.4965  0.9809
 7815SOL     OW31025   0.793   2.522   5.298  0.0842 -0.3872  0.4612
 7815SOL    HW231026   0.748   2.584   5.355  1.3666  0.1045  0.9641
 7815SOL    HW331027   0.877   2.563   5.279 -0.3097 -0.4980 -1.8454
 7815SOL    MW431028   0.798   2.535   5.303 -0.5106 -0.2315 -0.3884
 7816SOL     OW31029   5.497   5.052   4.563 -0.6327 -0.3725  0.3131
 7816SOL    HW231030   5.566   4.987   4.552  0.6560  1.2014 -1.6218
 7816SOL    HW331031   5.437   5.037   4.490 -0.8056  0.0190  0.3696
 7816SOL    MW431032   5.498   5.041   4.552 -0.2315  0.0694  0.1997
 7817SOL     OW31033   1.888   1.875   6.282 -0.2340  0.1267 -0.9197
 7817SOL    HW231034   1.837   1.906   6.207 -0.9451  0.4537 -0.3213
 7817SOL    HW331035   1.854   1.787   6.300 -0.0657  0.0486 -0.9862
 7817SOL    MW431036   1.877   1.867   6.275  0.1557 -0.1190  0.2826
 7818SOL     OW31037   0.905   3.768   0.334 -0.2484  0.1471  0.1432
 7818SOL    HW231038   0.827   3.732   0.294 -0.2761 -0.7489  0.9575
 7818SOL    HW331039   0.878   3.855   0.365 -0.5179  0.4062 -0.7967
 7818SOL    MW431040   0.891   3.775   0.333  0.5224 -0.1849 -0.2292
 7819SOL     OW31041   2.152   4.725   0.172 -0.2608  0.1814  0.4616
 7819SOL    HW231042   2.088   4.658   0.197  0.0760  0.5846  2.5836
 7819SOL    HW331043   2.107   4.777   0.105 -2.0065  0.1465  1.5297
 7819SOL    MW431044   2.137   4.723   0.167  0.3667 -0.3128  0.2575
 7820SOL     OW31045   1.117   2.360   0.845 -0.4822  0.5438 -0.9547
 7820SOL    HW231046   1.196   2.391   0.801  0.1722  0.1779 -0.0783
 7820SOL    HW331047   1.149   2.299   0.911 -1.5230  0.2238 -0.7313
 7820SOL    MW431048   1.132   2.356   0.848 -1.0047 -0.0313 -0.0404
 7821SOL     OW31049   2.325   2.460   1.764  0.5423  0.0925 -0.3781
 7821SOL    HW231050   2.404   2.455   1.818  0.2906 -0.8622 -0.0933
 7821SOL    HW331051   2.351   2.424   1.679  0.0649 -1.5059  0.1325
 7821SOL    MW431052   2.339   2.455   1.760 -0.0226 -0.6197  0.1274
 7822SOL     OW31053   4.256   1.053   5.004  0.1799 -0.0786 -0.0073
 7822SOL    HW231054   4.336   1.087   5.044 -1.2083  3.0361  0.4389
 7822SOL    HW331055   4.275   1.053   4.910  1.7593 -2.6723  0.2159
 7822SOL    MW431056   4.269   1.058   4.997  0.0851 -0.5500  0.0247
 7823SOL     OW31057   4.706   4.090   5.298  0.1884  0.0226  0.0221
 7823SOL    HW231058   4.707   4.177   5.258 -0.2112 -0.0779 -0.2231
 7823SOL    HW331059   4.795   4.075   5.329  0.6909 -0.1682 -1.4425
 7823SOL    MW431060   4.718   4.099   5.297 -0.1258 -0.1678 -0.7516
 7824SOL     OW31061   2.388   3.196   5.881 -0.3890  0.1932 -0.0048
 7824SOL    HW231062   2.471   3.199   5.833 -0.2306 -0.8741  0.1870
 7824SOL    HW331063   2.410   3.222   5.970 -0.6487  1.9777 -0.4092
 7824SOL    MW431064   2.402   3.200   5.886  0.3869  0.3835 -0.2376
 7825SOL     OW31065   5.344   3.959   4.726  0.0697  0.2763  0.0995
 7825SOL    HW231066   5.420   3.925   4.773  0.9313  0.1499 -1.3208
 7825SOL    HW331067   5.270   3.940   4.783  0.9231 -0.9684  0.8436
 7825SOL    MW431068   5.344   3.952   4.740  0.6793 -0.1494 -0.2338
 7826SOL     OW31069   2.240   2.554   2.067  0.1697 -1.0016  0.2298
 7826SOL    HW231070   2.298   2.513   2.003  2.1386  0.5794  0.8892
 7826SOL    HW331071   2.296   2.570   2.143 -1.1078  0.6714  0.8797
 7826SOL    MW431072   2.255   2.550   2.069 -0.0704  0.0427  0.2686
 7827SOL     OW31073   1.695   4.935   3.374 -0.1689  0.1361 -1.2255
 7827SOL    HW231074   1.744   5.017   3.371 -1.5307  1.0105 -0.5886
 7827SOL    HW331075   1.751   4.872   3.328  1.1225  1.2917 -1.3036
 7827SOL    MW431076   1.709   4.937   3.368 -0.1035 -0.4679 -0.0233
 7828SOL     OW31077   3.905   2.867   4.815 -0.4127 -0.3363  0.0345
 7828SOL    HW231078   3.885   2.788   4.865 -0.1692  0.1700  0.9530
 7828SOL    HW331079   3.857   2.857   4.733 -1.5200 -0.7839  0.7272
 7828SOL    MW431080   3.896   2.855   4.811  0.4316 -0.5748 -0.3614
 7829SOL     OW31081   5.780   5.736   1.204 -0.0003 -0.0942  0.1427
 7829SOL    HW231082   5.815   5.665   1.257  0.1660 -0.3531 -0.3033
 7829SOL    HW331083   5.832   5.733   1.123  0.5106  1.0114  0.4214
 7829SOL    MW431084   5.791   5.726   1.200 -0.2445 -0.0380 -0.2368
 7830SOL     OW31085   2.137   4.736   2.175 -0.0865 -0.1035  0.2271
 7830SOL    HW231086   2.066   4.740   2.239  0.2902 -1.3208  0.7615
 7830SOL    HW331087   2.191   4.813   2.192 -1.0760  0.6323  0.0549
 7830SOL    MW431088   2.135   4.747   2.185 -0.3346 -0.3109  0.7904
 7831SOL     OW31089   0.762   4.425   1.058  0.2860 -0.1099  0.9609
 7831SOL    HW231090   0.689   4.482   1.079 -0.3057 -0.2592 -0.5180
 7831SOL    HW331091   0.837   4.483   1.052 -0.0722  0.3303  0.6927
 7831SOL    MW431092   0.762   4.440   1.060  0.0210 -0.7775  0.3283
 7832SOL     OW31093   0.049   0.805   1.941  0.2455  0.4557 -0.1567
 7832SOL    HW231094   0.049   0.757   1.858  0.8338 -0.7035  0.4935
 7832SOL    HW331095  -0.030   0.773   1.986 -0.0659  1.0735 -0.2604
 7832SOL    MW431096   0.038   0.794   1.936  0.0148  0.4491  0.2834
 7833SOL     OW31097   5.624   1.177   2.310 -0.1118  0.2498 -0.3748
 7833SOL    HW231098   5.536   1.213   2.300 -0.2012  0.1442  0.0188
 7833SOL    HW331099   5.676   1.222   2.243 -0.9431 -1.2952 -2.1370
 7833SOL    MW431100   5.619   1.188   2.300  0.5056  0.0611  0.5489
 7834SOL     OW31101   3.529   2.210   2.336 -0.1977  0.6500 -0.0312
 7834SOL    HW231102   3.593   2.213   2.265 -1.7668  0.2615 -1.5185
 7834SOL    HW331103   3.516   2.302   2.360  0.4970  0.7710 -0.1037
 7834SOL    MW431104   3.536   2.222   2.330 -0.2188 -0.0418  0.5192
 7835SOL     OW31105   5.155   0.803   2.224 -0.5852  0.5458 -0.0762
 7835SOL    HW231106   5.232   0.746   2.218  1.0783  2.7799 -1.2555
 7835SOL    HW331107   5.172   0.858   2.300 -2.4456 -0.7795  1.3972
 7835SOL    MW431108   5.167   0.803   2.233 -0.4361 -0.2153 -0.0568
 7836SOL     OW31109   5.021   0.589   2.715  0.4227  0.0126  0.5468
 7836SOL    HW231110   5.104   0.595   2.762  0.1781  1.1231  0.8643
 7836SOL    HW331111   4.977   0.513   2.753  0.4231  0.6235  1.8040
 7836SOL    MW431112   5.026   0.580   2.726  0.3159 -0.1898  0.3054
 7837SOL     OW31113   4.628   4.273   4.020 -0.2611 -0.3115 -0.5971
 7837SOL    HW231114   4.590   4.271   4.108  2.8991 -0.4639  0.9060
 7837SOL    HW331115   4.660   4.184   4.006  3.6577  0.7743  0.3485
 7837SOL    MW431116   4.627   4.261   4.030  0.5790  0.4806  0.1543
 7838SOL     OW31117   3.398   4.267   4.739 -0.0828 -0.6118 -0.0438
 7838SOL    HW231118   3.366   4.223   4.818  1.4336 -1.2824  0.2371
 7838SOL    HW331119   3.411   4.358   4.766 -0.0319 -0.7306  0.3399
 7838SOL    MW431120   3.396   4.273   4.753  0.3852 -0.0894  0.2202
 7839SOL     OW31121   6.290   1.297   3.912  0.0822  0.5716  0.1640
 7839SOL    HW231122   6.343   1.376   3.927 -0.3678  1.1862 -1.3318
 7839SOL    HW331123   6.200   1.328   3.916 -0.2327 -0.4232  2.4075
 7839SOL    MW431124   6.285   1.312   3.914 -0.6466  0.0046 -0.4664
 7840SOL     OW31125   2.784   3.582   6.167  0.2856 -0.3941 -0.0306
 7840SOL    HW231126   2.876   3.604   6.152  0.3165 -1.1479 -1.0275
 7840SOL    HW331127   2.765   3.515   6.102 -1.0733 -0.0014 -0.0516
 7840SOL    MW431128   2.794   3.576   6.157  0.0219 -0.0596  0.6943
 7841SOL     OW31129   0.636   0.676   1.545 -0.4266  0.1160  0.5390
 7841SOL    HW231130   0.685   0.757   1.529 -0.8534  0.2806  0.0064
 7841SOL    HW331131   0.675   0.638   1.623 -0.6137  1.1511  1.1479
 7841SOL    MW431132   0.647   0.682   1.553 -0.0350 -0.1512 -0.1659
 7842SOL     OW31133   2.451   2.192   5.656  0.1354 -0.0424 -0.3856
 7842SOL    HW231134   2.435   2.276   5.612  0.5733  0.9080  1.1935
 7842SOL    HW331135   2.365   2.151   5.663 -0.4714  1.3487  0.8644
 7842SOL    MW431136   2.438   2.198   5.651 -0.1717 -0.0068  0.4136
 7843SOL     OW31137   4.708   2.868   1.849  0.2541 -0.2208  0.2115
 7843SOL    HW231138   4.635   2.810   1.869 -0.1367 -0.3441 -1.4392
 7843SOL    HW331139   4.684   2.909   1.767  0.7465  1.9623  1.1029
 7843SOL    MW431140   4.695   2.865   1.841 -0.0034  0.1189 -0.3745
 7844SOL     OW31141   5.493   5.894   0.339  0.0383  0.1165  0.1554
 7844SOL    HW231142   5.541   5.856   0.412 -0.2693  0.0386  0.3212
 7844SOL    HW331143   5.489   5.824   0.274 -0.0663  0.0376  0.2449
 7844SOL    MW431144   5.499   5.880   0.340  0.3643 -0.4304 -0.3700
 7845SOL     OW31145   3.634   5.760   3.683  0.0426 -0.0075 -0.4435
 7845SOL    HW231146   3.578   5.835   3.703  0.5834 -0.1706  2.0046
 7845SOL    HW331147   3.720   5.785   3.716  0.5385 -1.2080 -0.7613
 7845SOL    MW431148   3.638   5.773   3.690  0.1620  0.0003 -0.4594
 7846SOL     OW31149   3.914   0.821   0.774 -0.1593  0.7430 -0.4880
 7846SOL    HW231150   3.995   0.803   0.728 -1.0049 -3.2493 -0.7708
 7846SOL    HW331151   3.941   0.834   0.865  0.8909  0.6809 -0.7760
 7846SOL    MW431152   3.928   0.821   0.780  0.2030  0.2081  0.9113
 7847SOL     OW31153   4.719   2.054   5.506 -0.5454 -0.2718  0.0964
 7847SOL    HW231154   4.707   1.981   5.445 -1.2937  0.1888 -0.3336
 7847SOL    HW331155   4.630   2.081   5.528 -0.2819  0.6932  0.0138
 7847SOL    MW431156   4.706   2.048   5.501 -0.2143 -0.1609 -0.2193
 7848SOL     OW31157   1.100   4.180   2.287 -0.2926  0.1547 -0.0546
 7848SOL    HW231158   1.104   4.232   2.207  0.0616 -0.6561 -0.5796
 7848SOL    HW331159   1.171   4.213   2.341  0.3007 -0.1623 -0.6283
 7848SOL    MW431160   1.110   4.191   2.284  0.3950  0.2932 -0.2836
 7849SOL     OW31161   5.910   5.522   1.369 -0.0156  0.3631  0.5684
 7849SOL    HW231162   5.991   5.520   1.419 -0.9857 -1.7520  2.2359
 7849SOL    HW331163   5.846   5.564   1.427 -0.2083  1.7829 -0.6251
 7849SOL    MW431164   5.912   5.527   1.383 -0.2602  0.0853 -0.0266
 7850SOL     OW31165   1.329   4.942   5.211  0.5040  0.4108  0.7200
 7850SOL    HW231166   1.248   4.892   5.205  0.2249  0.9344 -0.0477
 7850SOL    HW331167   1.300   5.031   5.230  0.9089  0.5737  0.5724
 7850SOL    MW431168   1.314   4.947   5.212 -0.6468  0.0580 -0.2196
 7851SOL     OW31169   3.376   1.612   2.076  0.0258  0.3225 -0.3979
 7851SOL    HW231170   3.288   1.577   2.085  0.5613 -1.1046 -0.3910
 7851SOL    HW331171   3.430   1.536   2.054  1.7359  0.5836  2.3590
 7851SOL    MW431172   3.372   1.598   2.074  0.0621  0.1372 -0.0465
 7852SOL     OW31173   3.475   3.213   1.053  0.4809  0.4332  0.3394
 7852SOL    HW231174   3.398   3.217   0.997  0.6654  0.2286  0.0649
 7852SOL    HW331175   3.466   3.131   1.102  1.2550 -0.3577 -0.7883
 7852SOL    MW431176   3.464   3.203   1.052  0.0171  0.4148  0.0801
 7853SOL     OW31177   2.004   1.988   4.734  0.4244  0.2209  0.0942
 7853SOL    HW231178   1.986   2.081   4.740  0.2059  0.1482  0.6347
 7853SOL    HW331179   2.096   1.979   4.758  0.6259  0.3710 -0.6285
 7853SOL    MW431180   2.014   1.999   4.738 -0.0900  0.3367  0.0198
 7854SOL     OW31181   3.267   5.840   4.631  0.0523  0.4520  0.1010
 7854SOL    HW231182   3.228   5.924   4.607 -0.6159 -0.1682 -1.0542
 7854SOL    HW331183   3.360   5.848   4.607  0.4220  1.4820  1.6949
 7854SOL    MW431184   3.274   5.852   4.625 -0.1047 -0.5965  0.3576
 7855SOL     OW31185   4.360   2.822   3.461 -0.4200  0.1886 -0.4530
 7855SOL    HW231186   4.293   2.756   3.479 -0.9313  0.5246 -1.0808
 7855SOL    HW331187   4.333   2.898   3.512  0.5279 -0.2853  0.7920
 7855SOL    MW431188   4.347   2.823   3.470  0.0878  0.3367 -0.2389
 7856SOL     OW31189   2.573   5.799   5.229 -0.3214 -0.6150  0.1854
 7856SOL    HW231190   2.598   5.725   5.285 -1.5625 -1.1366  0.0852
 7856SOL    HW331191   2.617   5.783   5.146 -0.1994 -0.9947  0.3234
 7856SOL    MW431192   2.582   5.787   5.225  0.0770 -0.1292  0.0703
 7857SOL     OW31193   3.782   5.610   6.253 -0.3840  0.4683  0.8379
 7857SOL    HW231194   3.866   5.573   6.278  0.0547  1.1966  0.4474
 7857SOL    HW331195   3.782   5.609   6.157 -0.4231  1.3335  0.8193
 7857SOL    MW431196   3.793   5.605   6.244 -0.0143  0.4252  0.2936
 7858SOL     OW31197   3.329   3.110   2.406 -0.6173 -0.0098 -0.2893
 7858SOL    HW231198   3.376   3.171   2.349 -1.9763  1.5206  0.1518
 7858SOL    HW331199   3.236   3.124   2.385 -1.0799 -0.3790  1.3312
 7858SOL    MW431200   3.323   3.120   2.396 -0.0918  0.2625 -0.1738
 7859SOL     OW31201   4.238   2.281   3.878  0.1053  0.3256  0.0375
 7859SOL    HW231202   4.241   2.205   3.820  0.9802  1.2849 -1.2451
 7859SOL    HW331203   4.145   2.304   3.883  0.0425  0.4724 -1.3640
 7859SOL    MW431204   4.226   2.274   3.871  0.7275  1.1137 -0.3438
 7860SOL     OW31205   2.065   3.257   5.295 -0.3594 -0.7076  0.1521
 7860SOL    HW231206   1.973   3.281   5.306 -0.0839  0.2038  0.5425
 7860SOL    HW331207   2.088   3.294   5.210 -0.6422 -1.9098 -0.4768
 7860SOL    MW431208   2.056   3.265   5.285  0.0035  0.3548  0.1036
 7861SOL     OW31209   1.908   2.339   5.528 -0.4210 -0.0343 -0.4302
 7861SOL    HW231210   1.989   2.366   5.571  1.0217 -2.9839 -1.0176
 7861SOL    HW331211   1.844   2.331   5.598 -0.4520  2.8568 -0.0212
 7861SOL    MW431212   1.910   2.341   5.543  0.3038  0.0464 -0.3190
 7862SOL     OW31213   5.872   3.013   3.868 -0.2747  0.0853 -0.3310
 7862SOL    HW231214   5.777   3.017   3.861 -0.3427 -1.1745 -0.2327
 7862SOL    HW331215   5.903   3.023   3.778 -0.6226 -2.1522 -0.7509
 7862SOL    MW431216   5.864   3.015   3.855 -0.2271 -0.6489  0.2906
 7863SOL     OW31217   1.810   0.808   4.545 -0.1453 -1.1005 -0.6338
 7863SOL    HW231218   1.838   0.898   4.528 -0.4392 -0.9702 -0.4228
 7863SOL    HW331219   1.892   0.761   4.563 -0.0977 -0.5978  0.5428
 7863SOL    MW431220   1.825   0.814   4.545  0.7575  0.4472 -0.0547
 7864SOL     OW31221   4.520   1.505   4.800  0.2744  0.2272 -0.4836
 7864SOL    HW231222   4.431   1.480   4.825  0.1176  0.2303 -1.0125
 7864SOL    HW331223   4.509   1.552   4.718  0.6197  1.6213  0.2477
 7864SOL    MW431224   4.507   1.508   4.792  0.2635  0.2460  0.4575
 7865SOL     OW31225   1.162   2.500   5.902 -0.4558 -0.2268 -0.1906
 7865SOL    HW231226   1.243   2.518   5.950 -0.2755 -0.5376 -0.3792
 7865SOL    HW331227   1.191   2.486   5.811 -1.0673  3.8590 -1.2421
 7865SOL    MW431228   1.177   2.501   5.896  0.1821 -0.2778 -0.1475
 7866SOL     OW31229   2.631   5.639   0.389  0.0145 -0.4686 -0.3318
 7866SOL    HW231230   2.601   5.549   0.402 -0.4697 -0.0267  2.0583
 7866SOL    HW331231   2.555   5.693   0.409  1.0651  0.5261  1.2323
 7866SOL    MW431232   2.617   5.634   0.393 -0.0459  0.0744 -0.0529
 7867SOL     OW31233   4.807   0.273   5.582 -0.4316 -0.3222  0.4914
 7867SOL    HW231234   4.871   0.202   5.573  0.1441 -0.0449  2.0812
 7867SOL    HW331235   4.790   0.301   5.492  0.5279 -1.4199 -0.0624
 7867SOL    MW431236   4.813   0.267   5.569 -0.4859 -0.1901  0.0837
 7868SOL     OW31237   2.046   5.485   0.258  0.6116  0.3756 -0.0592
 7868SOL    HW231238   1.951   5.478   0.260  0.5028 -0.1548 -2.5557
 7868SOL    HW331239   2.075   5.404   0.215  2.0615  1.1465 -0.6322
 7868SOL    MW431240   2.038   5.473   0.252  0.1785  0.1049 -0.0420
 7869SOL     OW31241   5.325   1.556   3.605 -0.5165  0.2306 -0.0045
 7869SOL    HW231242   5.315   1.644   3.567 -1.8767 -0.5749 -1.6978
 7869SOL    HW331243   5.353   1.502   3.531  2.9663 -0.3522  1.5891
 7869SOL    MW431244   5.327   1.561   3.590 -0.0449 -0.1673 -0.4087
 7870SOL     OW31245   0.113   1.723   6.186  0.2180 -0.0720  0.1100
 7870SOL    HW231246   0.177   1.790   6.213  1.3612 -1.2113  0.3231
 7870SOL    HW331247   0.055   1.769   6.125  1.5416  0.8815 -0.4907
 7870SOL    MW431248   0.114   1.738   6.182 -0.5293  0.4157 -0.2717
 7871SOL     OW31249   5.913   3.990   3.718  0.3895 -0.4822  0.2462
 7871SOL    HW231250   5.853   3.989   3.792  0.3080  0.6700  0.2155
 7871SOL    HW331251   5.983   4.049   3.745  0.0833  0.3904 -0.7791
 7871SOL    MW431252   5.914   3.998   3.731 -0.1545 -0.3648  0.2524
 7872SOL     OW31253   2.969   5.604   4.082 -0.7139  0.1857  0.0767
 7872SOL    HW231254   3.037   5.536   4.084  0.3003  1.1570 -0.1438
 7872SOL    HW331255   2.999   5.669   4.146 -1.1471  0.9054 -0.4399
 7872SOL    MW431256   2.982   5.603   4.091 -0.2331  0.2321  0.4953
 7873SOL     OW31257   5.684   5.026   0.772  0.0634 -0.0167 -0.1252
 7873SOL    HW231258   5.649   5.030   0.683 -2.2078 -2.8551  0.5043
 7873SOL    HW331259   5.620   5.071   0.826  0.8467  0.6652  0.2610
 7873SOL    MW431260   5.671   5.032   0.767  0.8047 -0.2107  0.0524
 7874SOL     OW31261   4.751   3.202   1.311 -0.1265 -0.6570 -0.4951
 7874SOL    HW231262   4.662   3.187   1.277 -0.6681 -0.9575  0.9853
 7874SOL    HW331263   4.786   3.114   1.326 -0.3913 -0.5487  0.8984
 7874SOL    MW431264   4.744   3.188   1.309 -0.3639  0.3253 -0.1651
 7875SOL     OW31265   0.088   3.128   1.665 -0.0083 -0.2653  0.0690
 7875SOL    HW231266   0.098   3.189   1.738  0.6558 -1.6042  1.1609
 7875SOL    HW331267   0.054   3.181   1.593 -0.8457  1.0884  1.3937
 7875SOL    MW431268   0.085   3.143   1.665  0.0321 -0.4287  1.0476
 7876SOL     OW31269   5.365   5.086   0.085 -0.3075 -0.1871 -0.1145
 7876SOL    HW231270   5.336   5.021   0.021 -0.5237 -0.4028  0.2030
 7876SOL    HW331271   5.288   5.102   0.139 -0.0984 -0.0632  0.1443
 7876SOL    MW431272   5.351   5.080   0.083  0.2202 -0.1972 -0.2805
 7877SOL     OW31273   2.595   3.482   5.730 -0.2790 -0.3509 -0.3300
 7877SOL    HW231274   2.640   3.442   5.656  0.3836  1.6247 -1.0585
 7877SOL    HW331275   2.502   3.468   5.712 -0.0779 -1.0594 -0.8383
 7877SOL    MW431276   2.588   3.475   5.718 -0.3038  0.2570  0.4287
 7878SOL     OW31277   0.511   1.308   3.247  0.3230  0.1495 -0.1006
 7878SOL    HW231278   0.454   1.291   3.172 -0.9239 -0.8171  1.0070
 7878SOL    HW331279   0.457   1.359   3.307  0.9049 -0.0892  0.6402
 7878SOL    MW431280   0.496   1.312   3.245  0.5642 -0.0994  0.1933
 7879SOL     OW31281   5.316   5.554   3.099  0.8564  0.6245  0.2284
 7879SOL    HW231282   5.343   5.471   3.059 -0.0341  1.1802 -1.6417
 7879SOL    HW331283   5.224   5.541   3.123  1.5684  0.0382  2.9750
 7879SOL    MW431284   5.307   5.541   3.097  0.3377 -0.7288 -0.2127
 7880SOL     OW31285   4.668   0.059   3.320  0.4208 -0.8964  0.0525
 7880SOL    HW231286   4.678  -0.036   3.310 -1.7149 -1.0801 -0.8219
 7880SOL    HW331287   4.679   0.094   3.232 -1.0171 -0.6004 -0.0293
 7880SOL    MW431288   4.671   0.051   3.307 -0.2613 -0.2087 -0.1534
 7881SOL     OW31289   1.551   0.002   1.372 -0.0609  0.1356  0.0453
 7881SOL    HW231290   1.570   0.061   1.299 -0.5878  1.2279  0.7657
 7881SOL    HW331291   1.636  -0.018   1.410  0.1412  0.2154 -0.3640
 7881SOL    MW431292   1.564   0.007   1.367  1.0275  0.0192 -0.6273
 7882SOL     OW31293   5.148   1.061   4.041  0.6558 -0.5432  0.5029
 7882SOL    HW231294   5.129   1.130   4.106 -1.2811  0.0018 -0.5460
 7882SOL    HW331295   5.079   0.996   4.055 -1.0035  0.4888 -2.1724
 7882SOL    MW431296   5.136   1.062   4.052 -0.3086  0.5583 -0.6459
 7883SOL     OW31297   2.857   5.069   3.282 -0.2307 -0.2331 -0.1798
 7883SOL    HW231298   2.779   5.058   3.336  0.5637  2.2180  1.6293
 7883SOL    HW331299   2.848   5.156   3.243  0.2199 -1.1111 -2.4239
 7883SOL    MW431300   2.846   5.079   3.284 -0.6658 -0.2229  0.6363
 7884SOL     OW31301   0.182   0.354   4.422  0.2720 -0.3513 -0.1193
 7884SOL    HW231302   0.207   0.393   4.339  0.9491  1.9457  1.0854
 7884SOL    HW331303   0.226   0.270   4.424 -0.2538 -0.7325 -2.3102
 7884SOL    MW431304   0.191   0.348   4.411  0.4117  0.0741  0.3014
 7885SOL     OW31305   5.356   5.091   1.243 -0.1545 -0.3014  0.2209
 7885SOL    HW231306   5.273   5.139   1.237  0.6552  1.1896  0.4502
 7885SOL    HW331307   5.421   5.158   1.265  1.0721 -1.4856  0.3416
 7885SOL    MW431308   5.354   5.107   1.245 -0.1461 -0.0374 -0.8405
 7886SOL     OW31309   6.423   0.819   0.897  0.3242 -0.6962  0.5435
 7886SOL    HW231310   6.461   0.766   0.967  0.0401 -0.2015  1.0890
 7886SOL    HW331311   6.375   0.887   0.943  0.2529 -0.2730 -0.1436
 7886SOL    MW431312   6.422   0.821   0.913  0.3205  0.8970  0.1945
 7887SOL     OW31313   0.899   2.365   6.225  0.2354 -1.0045 -0.9123
 7887SOL    HW231314   0.814   2.379   6.269  0.2250 -0.2571 -1.1575
 7887SOL    HW331315   0.949   2.444   6.245  0.2159 -0.6270 -2.2771
 7887SOL    MW431316   0.894   2.377   6.234  0.0860  0.4510 -0.5510
 7888SOL     OW31317   0.914   3.531   4.975 -0.3517 -0.2664 -0.5463
 7888SOL    HW231318   0.910   3.490   4.889  0.4444 -0.6407 -0.4211
 7888SOL    HW331319   0.999   3.576   4.976 -0.2311 -0.4919  0.1315
 7888SOL    MW431320   0.925   3.531   4.964 -0.1838 -0.0958 -0.1067
 7889SOL     OW31321   1.506   5.921   5.543 -0.0775 -0.6899 -0.4034
 7889SOL    HW231322   1.456   5.936   5.463 -1.9763 -0.0148  0.8445
 7889SOL    HW331323   1.462   5.847   5.585 -0.2083  0.0759  0.8527
 7889SOL    MW431324   1.494   5.913   5.538  0.3754 -1.0316  0.6128
 7890SOL     OW31325   3.387   1.558   4.078  0.1393  0.2833 -0.2630
 7890SOL    HW231326   3.338   1.608   4.012 -0.4525 -1.2516 -1.0342
 7890SOL    HW331327   3.319   1.515   4.130  0.6437 -0.5818 -0.3055
 7890SOL    MW431328   3.371   1.559   4.076  0.4371 -0.8513 -0.7956
 7891SOL     OW31329   5.188   3.252   0.673 -0.1616  0.1967 -0.1269
 7891SOL    HW231330   5.175   3.162   0.703  0.7613  0.7132  1.9818
 7891SOL    HW331331   5.282   3.259   0.657 -0.0883  0.9947  0.5641
 7891SOL    MW431332   5.199   3.241   0.675 -0.2793 -0.5880 -0.5800
 7892SOL     OW31333   6.230   0.953   2.054 -0.3010  0.3261  0.5805
 7892SOL    HW231334   6.315   0.973   2.093  0.8194 -1.2377 -0.8909
 7892SOL    HW331335   6.246   0.956   1.960 -1.4296 -1.7065  0.2817
 7892SOL    MW431336   6.243   0.956   2.047  0.1019  0.2959  0.3137
 7893SOL     OW31337   1.791   2.214   3.079  0.2554  0.0025 -0.1848
 7893SOL    HW231338   1.711   2.170   3.051  0.8725 -0.6797 -0.9326
 7893SOL    HW331339   1.796   2.198   3.173 -0.9394  0.8208  0.0358
 7893SOL    MW431340   1.781   2.206   3.088  0.3400  0.1539 -0.2667
 7894SOL     OW31341   5.721   3.707   2.922 -0.0890 -0.0917 -0.0292
 7894SOL    HW231342   5.705   3.628   2.973 -0.8284 -0.2148 -0.4462
 7894SOL    HW331343   5.807   3.738   2.953 -1.0411  0.5291  2.1948
 7894SOL    MW431344   5.730   3.701   2.933  0.0035  0.2144 -0.0652
 7895SOL     OW31345   0.444   0.518   5.057  1.0302  0.2889  0.3061
 7895SOL    HW231346   0.533   0.529   5.025  0.4681 -0.0293 -1.4817
 7895SOL    HW331347   0.453   0.512   5.153  2.8035  1.1997  0.2311
 7895SOL    MW431348   0.457   0.518   5.066 -0.0614  0.1939 -0.1553
 7896SOL     OW31349   0.272   5.161   0.456 -0.0255 -0.0048  0.1113
 7896SOL    HW231350   0.221   5.080   0.463 -0.6037  0.4614  1.7948
 7896SOL    HW331351   0.256   5.191   0.366 -0.0609 -1.5693 -0.4366
 7896SOL    MW431352   0.263   5.154   0.445  0.3053  0.0928 -0.6525
 7897SOL     OW31353   0.563   1.903   5.932  0.1418  0.3267 -0.1028
 7897SOL    HW231354   0.658   1.915   5.940  0.3358 -1.0494 -0.0489
 7897SOL    HW331355   0.538   1.861   6.014 -0.6020  1.0560  0.0571
 7897SOL    MW431356   0.572   1.899   5.944 -0.1760  0.3929  0.5583
 7898SOL     OW31357   4.862   3.949   3.752 -0.4042 -0.4446  0.6102
 7898SOL    HW231358   4.879   4.042   3.737  0.0987 -0.5799  0.3045
 7898SOL    HW331359   4.827   3.944   3.841 -1.1819  0.1223  0.3394
 7898SOL    MW431360   4.860   3.960   3.762 -0.5733 -0.0552 -0.3842
 7899SOL     OW31361   6.225   4.782   3.811  0.1147  0.2299  0.5513
 7899SOL    HW231362   6.224   4.704   3.756  0.4999  0.1954  0.5891
 7899SOL    HW331363   6.297   4.767   3.872  0.8541  1.0535 -0.0837
 7899SOL    MW431364   6.234   4.770   3.812  0.4426 -0.1094  0.0732
 7900SOL     OW31365   1.092   3.476   3.000 -0.5302  0.5096 -0.0644
 7900SOL    HW231366   1.054   3.403   2.952 -1.2724  1.4049 -0.8771
 7900SOL    HW331367   1.019   3.535   3.016  0.3953  2.0663 -1.2735
 7900SOL    MW431368   1.077   3.474   2.996  0.0418 -0.2381  0.1699
 7901SOL     OW31369   1.257   3.342   6.371 -0.3217 -0.2206 -0.7183
 7901SOL    HW231370   1.174   3.298   6.390  0.3846 -0.3044  3.0646
 7901SOL    HW331371   1.234   3.434   6.363 -0.9023 -0.3792 -0.9341
 7901SOL    MW431372   1.243   3.348   6.373 -0.2954  0.0896  0.1174
 7902SOL     OW31373   2.653   5.911   1.200  0.2932 -0.1716 -0.0979
 7902SOL    HW231374   2.619   5.889   1.286  0.9834 -1.7746 -0.1884
 7902SOL    HW331375   2.707   5.988   1.214 -0.3182  0.1199  0.7269
 7902SOL    MW431376   2.655   5.918   1.213 -0.2633  0.2531 -0.4532
 7903SOL     OW31377   6.150   1.513   1.420 -0.1258 -0.0806 -0.1096
 7903SOL    HW231378   6.060   1.484   1.403 -0.2750  1.0099 -1.2662
 7903SOL    HW331379   6.201   1.475   1.349  0.3772 -0.7672  0.5908
 7903SOL    MW431380   6.145   1.504   1.408  0.5414  0.8000 -0.6605
 7904SOL     OW31381   3.647   4.937   3.785 -0.0071  0.6225 -0.0940
 7904SOL    HW231382   3.622   4.890   3.865  1.0560 -3.3353 -1.8331
 7904SOL    HW331383   3.564   4.961   3.744 -0.8027 -2.2365 -0.3603
 7904SOL    MW431384   3.633   4.934   3.790 -0.4840  0.0239 -0.9153
 7905SOL     OW31385   3.101   4.867   3.184  0.2234  0.2235  0.6382
 7905SOL    HW231386   3.038   4.878   3.256 -0.5409  1.3140 -0.1583
 7905SOL    HW331387   3.063   4.918   3.112 -0.2502 -2.7001 -1.3333
 7905SOL    MW431388   3.087   4.876   3.184 -0.3340 -0.8423  0.1249
 7906SOL     OW31389   1.425   1.887   1.668  0.1511  0.6242 -0.4746
 7906SOL    HW231390   1.356   1.933   1.620  0.0566  0.0167 -0.9377
 7906SOL    HW331391   1.424   1.926   1.755 -1.4442 -0.0109 -0.1608
 7906SOL    MW431392   1.416   1.898   1.673  0.1102 -0.3220 -0.2533
 7907SOL     OW31393   0.185   4.312   0.301 -0.4178 -0.2541  0.3263
 7907SOL    HW231394   0.098   4.350   0.314 -0.7940 -0.5755 -1.1784
 7907SOL    HW331395   0.240   4.387   0.280 -0.2555 -0.0160  1.5297
 7907SOL    MW431396   0.181   4.327   0.300  0.0511 -0.0793  0.0497
 7908SOL     OW31397   3.863   6.236   0.085  0.2403 -0.5378 -0.5260
 7908SOL    HW231398   3.944   6.272   0.120 -0.7127 -0.1201  1.4137
 7908SOL    HW331399   3.840   6.295   0.013 -0.0858  1.4492  1.1009
 7908SOL    MW431400   3.871   6.249   0.080  0.7096 -0.1057 -0.0509
 7909SOL     OW31401   1.362   5.621   4.414  0.4196  0.4258 -0.2175
 7909SOL    HW231402   1.288   5.618   4.474  0.6981 -0.2202  0.1004
 7909SOL    HW331403   1.324   5.603   4.328  0.6309 -3.5620  0.3569
 7909SOL    MW431404   1.347   5.618   4.411  0.0921 -0.1694 -0.7781
 7910SOL     OW31405   5.263   1.786   5.217 -0.0277 -0.0564 -0.2686
 7910SOL    HW231406   5.311   1.710   5.250  0.5491 -0.5111 -2.0544
 7910SOL    HW331407   5.195   1.801   5.282  0.7875 -1.1559  0.8873
 7910SOL    MW431408   5.260   1.778   5.230  0.1734 -0.3204  0.3998
 7911SOL     OW31409   0.843   5.246   4.863 -0.0221  0.0107 -0.5748
 7911SOL    HW231410   0.809   5.198   4.939 -2.4293  1.5055 -0.6040
 7911SOL    HW331411   0.883   5.324   4.901  1.6940 -0.7610 -0.6952
 7911SOL    MW431412   0.844   5.250   4.878  0.0191  0.5712  0.3741
 7912SOL     OW31413   3.891   2.580   5.709 -0.5146  0.1541 -0.0418
 7912SOL    HW231414   3.917   2.489   5.692  0.7903  0.6684 -0.9576
 7912SOL    HW331415   3.956   2.612   5.771 -0.7394  0.5916 -0.0291
 7912SOL    MW431416   3.903   2.572   5.715  0.0628 -0.2259  0.4335
 7913SOL     OW31417   2.169   5.368   4.618  0.3229  0.0007 -0.0834
 7913SOL    HW231418   2.178   5.457   4.654 -0.9340  0.6856 -1.3885
 7913SOL    HW331419   2.186   5.378   4.524 -1.4431 -0.8183 -0.5321
 7913SOL    MW431420   2.173   5.381   4.610 -0.0294 -0.3851  0.2245
 7914SOL     OW31421   3.246   6.325   2.779 -0.2486  0.4569  0.3778
 7914SOL    HW231422   3.290   6.305   2.696 -0.3597  1.5687  0.0392
 7914SOL    HW331423   3.292   6.271   2.844  0.6020  0.4453 -0.2185
 7914SOL    MW431424   3.258   6.315   2.777 -0.3402  0.6921 -0.8323
 7915SOL     OW31425   2.565   1.766   4.111  0.4107 -0.2425  0.5245
 7915SOL    HW231426   2.554   1.744   4.019  0.2666 -0.2037  0.5310
 7915SOL    HW331427   2.511   1.844   4.124 -0.3684 -0.8146  0.8591
 7915SOL    MW431428   2.556   1.773   4.101  0.1705  0.0829  0.8674
 7916SOL     OW31429   5.148   1.734   4.440  0.0865 -0.2813  1.2337
 7916SOL    HW231430   5.124   1.789   4.366  1.2368  0.3185  1.2829
 7916SOL    HW331431   5.113   1.648   4.419  1.0659 -0.3145 -0.3825
 7916SOL    MW431432   5.140   1.730   4.428  0.5256  0.0206  0.0269
 7917SOL     OW31433   3.259   5.000   0.276 -0.3251  0.1002 -0.4052
 7917SOL    HW231434   3.176   4.957   0.258 -0.4130  0.7077 -1.5046
 7917SOL    HW331435   3.292   5.026   0.191 -1.1466  3.8417  0.2405
 7917SOL    MW431436   3.252   4.998   0.263  0.1311  0.1501  0.1176
 7918SOL     OW31437   3.150   0.832   2.937 -0.6765 -0.0344 -0.6152
 7918SOL    HW231438   3.081   0.768   2.953 -2.2562  1.8102  0.4517
 7918SOL    HW331439   3.231   0.787   2.961 -1.7402 -1.5496  0.3309
 7918SOL    MW431440   3.151   0.818   2.942  0.0247  0.0487  0.8568
 7919SOL     OW31441   3.640   3.245   2.958  0.6305  0.0187  0.1378
 7919SOL    HW231442   3.618   3.256   3.051 -0.7657  0.3471 -0.2086
 7919SOL    HW331443   3.633   3.151   2.943 -1.7493  0.1806 -0.1928
 7919SOL    MW431444   3.636   3.234   2.969 -0.1465  0.3514  0.1542
 7920SOL     OW31445   6.413   1.568   2.373  0.6808 -0.1041  0.0465
 7920SOL    HW231446   6.326   1.593   2.341  0.6328  1.3306  1.2079
 7920SOL    HW331447   6.472   1.585   2.300  0.2746  1.0430 -0.0291
 7920SOL    MW431448   6.409   1.573   2.359 -0.2798 -0.2840 -0.1308
 7921SOL     OW31449   5.438   1.987   4.592  0.3832  0.4019  0.1983
 7921SOL    HW231450   5.430   1.893   4.574 -1.6622  0.8110 -1.3577
 7921SOL    HW331451   5.469   1.991   4.683 -0.9045 -1.7908  0.8132
 7921SOL    MW431452   5.441   1.975   4.602  0.0214  0.2304  0.0609
 7922SOL     OW31453   4.604   2.942   2.595 -0.2878  0.1973  0.8334
 7922SOL    HW231454   4.681   2.937   2.537 -0.9638 -0.4312 -0.0396
 7922SOL    HW331455   4.602   3.033   2.623  0.0326  0.5440 -0.1990
 7922SOL    MW431456   4.614   2.953   2.591  0.1124 -0.0722 -0.7426
 7923SOL     OW31457   2.346   2.379   5.128  0.2998  0.5793  0.1761
 7923SOL    HW231458   2.260   2.359   5.093  0.3502 -0.8411  0.8090
 7923SOL    HW331459   2.355   2.474   5.117 -1.3652  0.7593  0.1730
 7923SOL    MW431460   2.336   2.389   5.122  0.4283  0.2599 -0.6931
 7924SOL     OW31461   5.049   5.241   2.900  0.0430  0.2321  0.9359
 7924SOL    HW231462   5.061   5.296   2.823 -1.2095 -2.2024 -1.1358
 7924SOL    HW331463   5.025   5.302   2.970 -0.6911  2.3562 -1.0640
 7924SOL    MW431464   5.047   5.256   2.899 -0.3988  0.0916 -0.0058
 7925SOL     OW31465   5.804   4.525   0.678  0.1911 -0.2596  0.2567
 7925SOL    HW231466   5.714   4.503   0.702  0.0355 -1.0801 -1.0018
 7925SOL    HW331467   5.805   4.621   0.673 -0.8236 -0.2778 -0.4811
 7925SOL    MW431468   5.792   4.535   0.681 -0.4876  0.3385  0.1616
 7926SOL     OW31469   2.958   1.691   5.507 -0.5256  0.5010  0.8979
 7926SOL    HW231470   2.946   1.602   5.539 -0.1602  0.2777  0.4229
 7926SOL    HW331471   2.875   1.735   5.526 -1.3852 -0.4432 -0.4603
 7926SOL    MW431472   2.945   1.685   5.514  0.0827  0.4856  0.1866
 7927SOL     OW31473   0.316   5.037   4.935 -0.2144  0.6782 -0.3573
 7927SOL    HW231474   0.246   4.972   4.931 -0.8185  1.3844 -1.8007
 7927SOL    HW331475   0.275   5.114   4.974 -0.2655  1.1020 -1.2268
 7927SOL    MW431476   0.301   5.038   4.940 -0.0377 -0.2549  0.0660
 7928SOL     OW31477   1.182   0.857   5.315 -0.3938  0.1544 -0.0229
 7928SOL    HW231478   1.262   0.808   5.333 -0.6502 -1.3440 -2.4370
 7928SOL    HW331479   1.179   0.864   5.219 -2.0823  2.0559  0.0960
 7928SOL    MW431480   1.192   0.851   5.304  0.0886 -0.1360  0.2390
 7929SOL     OW31481   5.299   0.773   0.297  0.2384  0.2750 -0.2023
 7929SOL    HW231482   5.371   0.710   0.284  0.9841  0.9550  0.5345
 7929SOL    HW331483   5.290   0.817   0.213 -1.8717 -2.3591 -1.5215
 7929SOL    MW431484   5.307   0.770   0.284  0.0227 -0.5656 -0.0768
 7930SOL     OW31485   3.029   5.145   1.697  0.3295  0.1651 -0.3717
 7930SOL    HW231486   3.063   5.090   1.627 -1.3015 -1.3931  0.0052
 7930SOL    HW331487   2.956   5.193   1.657 -0.9234 -1.0898  0.3079
 7930SOL    MW431488   3.024   5.144   1.682 -0.1393 -0.8695 -0.0479
 7931SOL     OW31489   0.010   3.801   4.328 -0.0315  0.3490  0.1010
 7931SOL    HW231490   0.078   3.768   4.387  0.0465  0.4132  0.0473
 7931SOL    HW331491  -0.001   3.732   4.262  2.1276  1.5631 -1.6685
 7931SOL    MW431492   0.017   3.788   4.327  0.5312 -0.3022 -0.0232
 7932SOL     OW31493   1.375   4.281   1.369 -0.2474  0.4159 -0.1976
 7932SOL    HW231494   1.305   4.295   1.306  0.1672  0.3416 -0.6811
 7932SOL    HW331495   1.339   4.217   1.431 -0.4846  0.1223 -0.6336
 7932SOL    MW431496   1.361   4.275   1.369  0.2108 -0.2101 -0.6049
 7933SOL     OW31497   0.037   2.837   1.295 -0.0228 -0.5343 -0.2414
 7933SOL    HW231498   0.128   2.816   1.314  0.1411  0.0263 -0.4055
 7933SOL    HW331499  -0.008   2.823   1.379  0.3280 -0.1400  0.0158
 7933SOL    MW431500   0.043   2.832   1.309 -0.2035 -0.0925 -0.1877
 7934SOL     OW31501   4.398   2.398   4.836  0.5629  0.1611  0.6324
 7934SOL    HW231502   4.409   2.398   4.741  4.0059  0.0248  0.8956
 7934SOL    HW331503   4.351   2.317   4.855  2.3951 -1.3279 -0.8162
 7934SOL    MW431504   4.393   2.388   4.826  0.2843 -0.5556  0.3613
 7935SOL     OW31505   0.294   5.347   4.518  0.8208  0.2993  0.2556
 7935SOL    HW231506   0.377   5.393   4.512  2.3409 -2.2393  0.0722
 7935SOL    HW331507   0.294   5.288   4.442 -1.0712  0.1041  0.3615
 7935SOL    MW431508   0.305   5.345   4.507 -0.5182 -0.2043  0.5662
 7936SOL     OW31509   1.062   3.602   3.462  0.1973 -0.3159 -0.0906
 7936SOL    HW231510   0.976   3.612   3.421 -0.1149  0.3326  0.6909
 7936SOL    HW331511   1.111   3.680   3.436  0.8396 -1.0380 -1.1571
 7936SOL    MW431512   1.057   3.614   3.453 -0.3684 -0.0119  0.2194
 7937SOL     OW31513   1.854   6.344   2.889 -0.1597 -0.2986 -0.2698
 7937SOL    HW231514   1.847   6.315   2.798  1.0146 -1.1078 -0.1197
 7937SOL    HW331515   1.850   6.263   2.940 -1.7056  0.1975  0.4877
 7937SOL    MW431516   1.852   6.329   2.884  0.6618 -0.9555  0.0882
 7938SOL     OW31517   2.996   4.935   0.232 -0.1200  0.1982  0.6467
 7938SOL    HW231518   2.949   4.975   0.158  1.7875 -0.7955 -1.2276
 7938SOL    HW331519   2.929   4.924   0.299 -1.4755  3.2331 -0.0204
 7938SOL    MW431520   2.981   4.938   0.231  0.0534 -0.1667  0.2489
 7939SOL     OW31521   3.332   2.647   0.671 -0.2409 -0.0216  0.0494
 7939SOL    HW231522   3.425   2.629   0.662  0.0852  0.1661  2.4608
 7939SOL    HW331523   3.326   2.742   0.675 -1.0705  0.2975 -4.1698
 7939SOL    MW431524   3.343   2.657   0.670 -0.3552 -0.1702 -0.5866
 7940SOL     OW31525   1.114   6.004   3.922  0.2478 -0.3018 -0.4628
 7940SOL    HW231526   1.066   6.056   3.987 -0.5772  0.5588 -1.6936
 7940SOL    HW331527   1.185   6.062   3.894  0.9972 -0.9215  0.1235
 7940SOL    MW431528   1.117   6.019   3.927 -0.1469  0.0007 -0.4995
 7941SOL     OW31529   4.320   3.157   2.663 -0.3588  0.1967  0.1406
 7941SOL    HW231530   4.313   3.206   2.745 -1.6533  0.4918 -0.1317
 7941SOL    HW331531   4.278   3.073   2.682  0.6739 -0.3232  0.2056
 7941SOL    MW431532   4.314   3.153   2.677 -0.3150  0.1720  1.0136
 7942SOL     OW31533   2.597   1.695   3.246 -0.5290  0.3278  0.2507
 7942SOL    HW231534   2.617   1.686   3.339  4.3541  1.9046 -0.3712
 7942SOL    HW331535   2.639   1.620   3.204 -1.7816  0.1939 -0.8583
 7942SOL    MW431536   2.605   1.684   3.253 -0.2323  0.1865 -0.2995
 7943SOL     OW31537   6.254   1.143   5.596  0.5191  0.0854  0.3839
 7943SOL    HW231538   6.188   1.114   5.659 -1.2667 -0.0772 -1.4615
 7943SOL    HW331539   6.264   1.069   5.536  1.4453  0.5820 -0.0948
 7943SOL    MW431540   6.247   1.130   5.596 -0.1501  0.4613  0.1771
 7944SOL     OW31541   2.393   0.937   0.891 -0.5102 -0.1587  0.5713
 7944SOL    HW231542   2.326   0.890   0.842  0.3841  0.7501 -1.6516
 7944SOL    HW331543   2.458   0.870   0.912 -0.1613 -0.3047 -0.8961
 7944SOL    MW431544   2.393   0.922   0.887  0.0717 -1.0117  0.2660
 7945SOL     OW31545   5.526   4.545   0.143 -0.6563 -0.1070 -0.1063
 7945SOL    HW231546   5.598   4.533   0.204  0.3965  0.0977 -1.2604
 7945SOL    HW331547   5.505   4.638   0.148 -0.5649 -0.0888 -0.0619
 7945SOL    MW431548   5.533   4.555   0.152  0.2208 -0.1191  0.8236
 7946SOL     OW31549   1.689   2.435   1.123  0.3854 -0.2155 -0.5625
 7946SOL    HW231550   1.672   2.441   1.217  0.4300  0.5858 -0.5981
 7946SOL    HW331551   1.729   2.349   1.111  0.6773 -0.1932  0.2007
 7946SOL    MW431552   1.692   2.424   1.133 -0.1677  0.1575 -0.6796
 7947SOL     OW31553   5.099   5.464   2.162  0.0085  0.1077  0.2952
 7947SOL    HW231554   5.093   5.555   2.189  1.0912  0.3276 -0.1620
 7947SOL    HW331555   5.173   5.429   2.212 -1.1978 -0.8883  1.4475
 7947SOL    MW431556   5.108   5.471   2.172 -0.0775  0.0472  0.6932
 7948SOL     OW31557   0.064   1.902   1.316  0.0295 -0.0110  0.0735
 7948SOL    HW231558  -0.007   1.888   1.378 -1.5808  2.7195 -0.9657
 7948SOL    HW331559   0.026   1.881   1.231  1.1176 -0.3909 -0.3378
 7948SOL    MW431560   0.049   1.898   1.313  0.3301  0.2241  0.6779
 7949SOL     OW31561   5.091   6.335   0.360  0.1166  0.3349  0.2397
 7949SOL    HW231562   5.041   6.259   0.391  1.8340 -0.3963  1.3857
 7949SOL    HW331563   5.105   6.319   0.267 -0.6774 -0.0745  0.1839
 7949SOL    MW431564   5.086   6.323   0.352 -0.0561 -0.3901  0.3569
 7950SOL     OW31565   0.968   4.929   1.448 -0.4563 -0.7346  0.5266
 7950SOL    HW231566   0.987   4.965   1.534  1.5719  0.3900 -0.3119
 7950SOL    HW331567   1.047   4.881   1.424 -1.0498 -1.1782 -0.6342
 7950SOL    MW431568   0.981   4.927   1.456  0.8807  0.0657  0.2143
 7951SOL     OW31569   4.979   1.796   3.753  0.1388  0.3425  0.4860
 7951SOL    HW231570   5.004   1.763   3.667 -1.2101 -0.8724  0.5149
 7951SOL    HW331571   4.987   1.891   3.746  1.1141  0.1956 -0.6192
 7951SOL    MW431572   4.983   1.804   3.741  0.1349 -0.2164 -0.5453
 7952SOL     OW31573   1.206   3.624   1.300 -0.0064 -0.1323 -0.8610
 7952SOL    HW231574   1.286   3.617   1.352  1.5060 -1.3994 -3.2063
 7952SOL    HW331575   1.219   3.701   1.245 -1.0061  0.4282 -0.3446
 7952SOL    MW431576   1.218   3.633   1.300 -0.1104  0.4846  0.2959
 7953SOL     OW31577   4.035   2.596   1.323  0.5658  0.1910  0.8406
 7953SOL    HW231578   4.029   2.661   1.253 -1.5079 -1.0105 -0.1898
 7953SOL    HW331579   4.116   2.617   1.369 -0.0614  3.5892  0.6550
 7953SOL    MW431580   4.045   2.607   1.320  0.3075  0.4347  0.6512
 7954SOL     OW31581   2.675   0.432   1.049  0.6076  0.5224 -0.4748
 7954SOL    HW231582   2.753   0.429   1.105  0.3334  1.5341 -0.0179
 7954SOL    HW331583   2.684   0.355   0.992  1.2004 -0.1933  0.5396
 7954SOL    MW431584   2.686   0.421   1.049  0.0943  0.5681  0.4825
 7955SOL     OW31585   2.650   0.153   2.593  0.0881  0.0628 -0.0215
 7955SOL    HW231586   2.706   0.076   2.580 -1.8722 -1.3312 -0.8391
 7955SOL    HW331587   2.587   0.148   2.521  0.0816  2.6530 -0.2697
 7955SOL    MW431588   2.649   0.142   2.582 -0.5355  0.0009 -0.0215
 7956SOL     OW31589   4.486   5.433   0.465 -0.3294  0.7395 -0.4695
 7956SOL    HW231590   4.454   5.390   0.385  0.4979 -0.1557 -0.3291
 7956SOL    HW331591   4.545   5.501   0.433 -0.7568  1.0300 -0.6506
 7956SOL    MW431592   4.490   5.436   0.450 -0.2054  0.1223  0.3841
 7957SOL     OW31593   3.673   4.376   4.249  0.1625  0.0938  0.6780
 7957SOL    HW231594   3.632   4.425   4.178  1.0087 -0.1277  0.0327
 7957SOL    HW331595   3.673   4.437   4.323 -1.3067  0.1089  0.7079
 7957SOL    MW431596   3.667   4.390   4.250  0.1520  0.2799 -0.2940
 7958SOL     OW31597   5.112   4.676   5.035  0.0126  0.0632 -0.0302
 7958SOL    HW231598   5.185   4.722   4.994 -1.4483  1.1508 -1.5387
 7958SOL    HW331599   5.039   4.686   4.974 -1.6291 -0.3253  1.7453
 7958SOL    MW431600   5.112   4.684   5.022  0.4557 -0.5724 -0.3134
 7959SOL     OW31601   1.907   5.319   1.968 -0.7082 -0.0753 -0.4834
 7959SOL    HW231602   1.954   5.399   1.944 -0.6753  0.3985  1.0590
 7959SOL    HW331603   1.880   5.334   2.059 -1.6892 -1.3592 -0.5433
 7959SOL    MW431604   1.910   5.332   1.977 -0.4252 -0.3289  0.1167
 7960SOL     OW31605   4.047   3.423   4.945 -0.0302 -0.6847 -0.0444
 7960SOL    HW231606   4.087   3.468   4.871  0.2098 -4.1454 -2.2572
 7960SOL    HW331607   4.104   3.347   4.960 -0.6191 -0.6340  3.1347
 7960SOL    MW431608   4.060   3.419   4.937 -0.0881  0.4591  0.4085
 7961SOL     OW31609   5.660   5.119   5.731  0.1354 -0.1753 -0.0503
 7961SOL    HW231610   5.731   5.179   5.706  0.1524  0.1498  0.7494
 7961SOL    HW331611   5.580   5.170   5.719  0.1629  0.0855  0.8294
 7961SOL    MW431612   5.659   5.134   5.726  0.3545 -0.1162  0.1012
 7962SOL     OW31613   5.118   0.773   0.509  0.3419  0.1755 -0.3144
 7962SOL    HW231614   5.179   0.745   0.441  0.1436 -1.0987  0.0133
 7962SOL    HW331615   5.172   0.822   0.571  0.5444  1.2635 -1.3176
 7962SOL    MW431616   5.133   0.776   0.508 -0.0463 -0.3127 -0.3505
 7963SOL     OW31617   1.599   3.286   2.838 -0.2007 -0.2531 -0.0213
 7963SOL    HW231618   1.665   3.299   2.906  0.1678  1.2513 -0.6106
 7963SOL    HW331619   1.605   3.193   2.816  0.8684 -0.4028  0.7943
 7963SOL    MW431620   1.609   3.276   2.844 -0.4226 -0.2714  0.4705
 7964SOL     OW31621   1.024   5.986   6.228  0.1447  0.0074  0.1782
 7964SOL    HW231622   1.069   6.025   6.154  0.1321  1.1255  0.7257
 7964SOL    HW331623   1.084   5.998   6.302 -0.0729 -0.5755  0.4540
 7964SOL    MW431624   1.038   5.993   6.228  0.1076  0.1096  0.0109
 7965SOL     OW31625   6.170   0.979   1.005  0.3767 -0.3667 -0.0945
 7965SOL    HW231626   6.132   1.058   1.044 -0.2525 -0.5808 -0.2643
 7965SOL    HW331627   6.176   0.998   0.911  0.0610 -0.5842 -0.1604
 7965SOL    MW431628   6.166   0.992   0.997 -0.0949 -0.1751 -0.0632
 7966SOL     OW31629   2.821   6.101   2.453 -0.2329 -0.3671 -0.2342
 7966SOL    HW231630   2.875   6.052   2.514 -1.1870 -0.5587  0.4746
 7966SOL    HW331631   2.742   6.049   2.443 -0.4428  0.0774 -0.9839
 7966SOL    MW431632   2.818   6.088   2.459 -0.0444 -0.0985  0.1808
 7967SOL     OW31633   0.447   3.443   1.896  0.6004  0.8766 -0.2957
 7967SOL    HW231634   0.379   3.509   1.909 -0.5091  0.3610 -2.7486
 7967SOL    HW331635   0.453   3.435   1.800  1.9529 -1.3032 -0.0842
 7967SOL    MW431636   0.439   3.451   1.885  0.5818 -0.0858 -0.3261
 7968SOL     OW31637   3.515   0.796   3.997 -0.1454  0.1242 -0.0631
 7968SOL    HW231638   3.512   0.788   3.902 -0.8629 -0.2084 -0.0234
 7968SOL    HW331639   3.521   0.890   4.013 -2.6619  0.4195 -0.4290
 7968SOL    MW431640   3.515   0.807   3.987  0.1321 -0.1886  0.4688
 7969SOL     OW31641   3.204   0.601   5.556 -0.2162  0.0465  0.4275
 7969SOL    HW231642   3.134   0.537   5.572 -0.8154  1.2479  3.2239
 7969SOL    HW331643   3.232   0.627   5.643  1.7946  1.7168 -0.6502
 7969SOL    MW431644   3.198   0.596   5.569  0.1552  0.0859 -0.0782
 7970SOL     OW31645   6.069   0.536   2.648  0.1723  0.0908 -0.5433
 7970SOL    HW231646   6.057   0.552   2.555  0.5971 -2.9958 -1.2341
 7970SOL    HW331647   5.999   0.476   2.672  0.9879 -0.3928  0.7381
 7970SOL    MW431648   6.058   0.531   2.639  0.1161  1.1025  0.9283
 7971SOL     OW31649   4.996   0.552   0.867  0.0673 -0.5020 -0.6349
 7971SOL    HW231650   5.088   0.533   0.850  0.2188 -0.2886 -0.0828
 7971SOL    HW331651   4.951   0.469   0.852  0.3145 -0.5402 -1.1608
 7971SOL    MW431652   5.002   0.538   0.863 -0.2025 -0.6237 -0.0415
 7972SOL     OW31653   6.359   2.977   2.375  0.4161 -0.4036 -0.1258
 7972SOL    HW231654   6.303   3.007   2.304 -0.2656 -3.3347 -0.9862
 7972SOL    HW331655   6.300   2.968   2.450  0.6551  0.4992  0.1810
 7972SOL    MW431656   6.344   2.980   2.376  0.4820  0.2356  0.5455
 7973SOL     OW31657   2.703   2.545   0.797  0.2456 -0.3833 -0.2274
 7973SOL    HW231658   2.715   2.452   0.778  1.6013 -0.5623  1.3759
 7973SOL    HW331659   2.777   2.569   0.851  0.4274  1.8892 -1.3526
 7973SOL    MW431660   2.714   2.536   0.801  0.6857  0.9717  0.4264
 7974SOL     OW31661   4.596   3.782   4.256 -0.3542  0.1785 -0.3883
 7974SOL    HW231662   4.690   3.798   4.260 -0.5073  1.0623  3.1431
 7974SOL    HW331663   4.577   3.774   4.162  2.9944  1.2055 -1.3031
 7974SOL    MW431664   4.606   3.784   4.244 -0.5346 -0.1070  0.4042
 7975SOL     OW31665   0.933   5.865   3.761  0.4128  0.0993  0.0334
 7975SOL    HW231666   0.928   5.848   3.666  0.1035 -0.9755  0.2262
 7975SOL    HW331667   1.009   5.923   3.771 -0.4054  1.4007 -1.0139
 7975SOL    MW431668   0.943   5.870   3.749  0.1021 -0.2919  0.3075
 7976SOL     OW31669   5.979   4.159   0.650 -0.3940  0.2212 -0.8858
 7976SOL    HW231670   5.949   4.100   0.719  1.8985 -0.0214 -0.0078
 7976SOL    HW331671   5.899   4.194   0.612 -1.7914 -2.1623 -0.3292
 7976SOL    MW431672   5.965   4.156   0.654 -0.4882  0.3003 -0.7668
 7977SOL     OW31673   2.731   3.779   5.887 -0.0144 -0.9761 -0.3052
 7977SOL    HW231674   2.770   3.830   5.958  0.7188 -1.1605 -0.5623
 7977SOL    HW331675   2.801   3.720   5.859  0.6769  0.9229 -2.9621
 7977SOL    MW431676   2.745   3.778   5.892 -0.6307 -0.7111 -0.1952
 7978SOL     OW31677   3.187   5.887   0.246 -0.5722  0.1670  0.2452
 7978SOL    HW231678   3.252   5.824   0.215 -1.8843 -1.4104  0.5695
 7978SOL    HW331679   3.103   5.843   0.234 -1.5092  1.6557  0.9961
 7978SOL    MW431680   3.184   5.873   0.240  0.5967  0.1548 -0.6271
 7979SOL     OW31681   5.101   4.964   2.913 -0.0189  0.1296  0.8531
 7979SOL    HW231682   5.085   5.056   2.893  0.5132  0.1193  0.3652
 7979SOL    HW331683   5.016   4.930   2.942 -0.1761  0.8120  1.2077
 7979SOL    MW431684   5.088   4.971   2.914  0.0153  0.7628 -0.2415
 7980SOL     OW31685   5.090   5.151   5.712  0.3510 -0.2286 -0.6448
 7980SOL    HW231686   5.105   5.119   5.801 -0.7052 -0.4383 -0.5341
 7980SOL    HW331687   5.037   5.083   5.671  0.3456  0.1387 -1.2593
 7980SOL    MW431688   5.085   5.138   5.719 -0.4206 -0.0768 -0.7654
 7981SOL     OW31689   5.495   0.191   5.023 -0.2289 -0.1675 -0.0153
 7981SOL    HW231690   5.460   0.219   4.939  0.2256 -0.0440 -0.1632
 7981SOL    HW331691   5.570   0.136   5.002  1.2217  1.5822  0.3139
 7981SOL    MW431692   5.500   0.187   5.009  0.4482 -0.1929  0.0453
 7982SOL     OW31693   3.055   5.169   3.449  0.1468 -0.0533 -0.1471
 7982SOL    HW231694   2.989   5.140   3.386 -2.2203  1.4738  1.4695
 7982SOL    HW331695   3.137   5.134   3.415 -1.4126 -1.8177 -2.4267
 7982SOL    MW431696   3.057   5.161   3.436  0.1480 -0.3729  0.0494
 7983SOL     OW31697   6.173   6.288   2.594 -0.3158 -0.1615  0.1710
 7983SOL    HW231698   6.203   6.364   2.644 -1.9818 -0.6030  1.9643
 7983SOL    HW331699   6.243   6.223   2.605  0.3074  0.4986  0.1356
 7983SOL    MW431700   6.186   6.289   2.602 -0.4559 -0.3516 -0.4742
 7984SOL     OW31701   0.371   3.194   2.226 -0.7240  0.1786 -0.3846
 7984SOL    HW231702   0.347   3.111   2.185  0.0777 -0.2605  0.0182
 7984SOL    HW331703   0.305   3.207   2.294 -0.2868 -0.6386  0.2106
 7984SOL    MW431704   0.359   3.185   2.229  0.0750  0.1182 -1.0220
 7985SOL     OW31705   2.496   6.377   5.739 -0.1343 -0.3947  0.5547
 7985SOL    HW231706   2.486   6.470   5.758 -0.2860 -0.2164 -0.3372
 7985SOL    HW331707   2.506   6.335   5.825  3.5166  0.8413  0.9223
 7985SOL    MW431708   2.496   6.384   5.753  0.3965 -0.3623  0.7097
 7986SOL     OW31709   2.287   1.718   4.429 -0.1672  0.2697  0.5435
 7986SOL    HW231710   2.313   1.659   4.358 -0.4709 -0.1649  0.7949
 7986SOL    HW331711   2.368   1.736   4.476  0.0635  0.6651  0.0143
 7986SOL    MW431712   2.301   1.713   4.426  0.2630  0.0722 -0.2042
 7987SOL     OW31713   0.988   3.496   1.443  0.1167  0.0536 -0.3262
 7987SOL    HW231714   1.045   3.561   1.401 -0.6355  0.4705 -0.7243
 7987SOL    HW331715   0.915   3.548   1.478  2.0228  0.1731  4.0533
 7987SOL    MW431716   0.986   3.512   1.442 -0.1686  0.2502  0.3480
 7988SOL     OW31717   4.066   3.304   2.596  0.0077 -0.0785 -0.0205
 7988SOL    HW231718   4.141   3.264   2.640 -0.2640  0.8695  1.3757
 7988SOL    HW331719   3.991   3.254   2.627 -0.0855 -0.0598 -0.2159
 7988SOL    MW431720   4.066   3.292   2.606  0.1326 -0.6376 -0.2842
 7989SOL     OW31721   2.339   1.780   3.019 -0.3957  0.2348  0.7832
 7989SOL    HW231722   2.377   1.807   2.935 -0.6509  2.3170  1.2972
 7989SOL    HW331723   2.343   1.684   3.016 -0.1208  0.2432 -1.4706
 7989SOL    MW431724   2.345   1.771   3.007 -0.4398 -0.2780  0.0155
 7990SOL     OW31725   4.500   4.434   5.220  0.1300  0.8348  0.6094
 7990SOL    HW231726   4.524   4.526   5.222  0.8326  0.6700 -0.0068
 7990SOL    HW331727   4.501   4.407   5.312 -0.2093  1.4684  0.8012
 7990SOL    MW431728   4.503   4.442   5.232 -0.1463 -0.3812 -0.0101
 7991SOL     OW31729   4.168   6.369   4.028  0.5332 -0.1408  0.3692
 7991SOL    HW231730   4.141   6.376   4.119 -0.0734 -0.6973  0.2402
 7991SOL    HW331731   4.179   6.275   4.013 -1.0970 -0.2045 -0.6045
 7991SOL    MW431732   4.166   6.357   4.038 -0.4564 -0.4087 -0.7195
 7992SOL     OW31733   6.176   0.242   3.899  0.5424 -0.6933 -0.7092
 7992SOL    HW231734   6.212   0.259   3.811 -0.9174 -0.9928 -1.4001
 7992SOL    HW331735   6.252   0.232   3.955  1.5516  1.9379 -1.4552
 7992SOL    MW431736   6.190   0.243   3.894 -0.2296 -0.0286  0.2038
 7993SOL     OW31737   5.219   2.150   4.562  0.3209  0.3337  0.3291
 7993SOL    HW231738   5.294   2.092   4.574 -0.2147 -0.5359 -0.4479
 7993SOL    HW331739   5.184   2.163   4.651  1.6029  1.0639  0.7528
 7993SOL    MW431740   5.224   2.144   4.576  0.4468 -0.0738 -0.2868
 7994SOL     OW31741   4.176   5.269   4.424 -0.2409  0.6141  0.3267
 7994SOL    HW231742   4.183   5.290   4.517  2.3575 -1.7631  0.8069
 7994SOL    HW331743   4.266   5.274   4.391 -0.5714 -1.7781 -1.2120
 7994SOL    MW431744   4.189   5.272   4.432  0.6696 -0.3430  0.4150
 7995SOL     OW31745   2.602   0.961   0.081  0.1713 -0.3532 -0.2228
 7995SOL    HW231746   2.670   0.990   0.021 -0.2764  0.2484 -0.4571
 7995SOL    HW331747   2.578   1.040   0.130  0.5809 -0.8486  0.8118
 7995SOL    MW431748   2.608   0.975   0.079  1.0858  0.3052 -0.4387
 7996SOL     OW31749   3.403   5.814   3.377 -0.3712  0.4151  0.1522
 7996SOL    HW231750   3.383   5.799   3.284 -2.6603  1.9091  0.3500
 7996SOL    HW331751   3.458   5.739   3.401 -2.1114 -1.5832 -1.6579
 7996SOL    MW431752   3.408   5.802   3.368 -1.0233  0.1574  0.2611
 7997SOL     OW31753   5.351   2.354   3.054 -0.0120  0.0014 -0.6312
 7997SOL    HW231754   5.345   2.351   3.149  1.8745 -2.5325 -0.4849
 7997SOL    HW331755   5.390   2.439   3.035  0.5638  0.1197  0.9408
 7997SOL    MW431756   5.355   2.365   3.064  0.2798 -0.0065  0.6910
 7998SOL     OW31757   3.591   4.038   2.630 -0.1390 -0.5236  0.4462
 7998SOL    HW231758   3.623   3.962   2.677 -0.5531  0.2516  2.0604
 7998SOL    HW331759   3.498   4.045   2.655  0.0012  0.7486  0.7205
 7998SOL    MW431760   3.583   4.029   2.639 -0.2622  0.7861  0.2982
 7999SOL     OW31761   5.064   1.051   5.330 -0.4569 -0.0250  0.1173
 7999SOL    HW231762   5.119   1.105   5.387 -0.2125 -0.1548  0.0016
 7999SOL    HW331763   5.106   0.965   5.329  0.3453  0.3477 -1.3820
 7999SOL    MW431764   5.076   1.047   5.337  0.0530  0.6028 -0.4829
 8000SOL     OW31765   6.421   0.643   1.580 -0.6359 -0.0823 -0.2503
 8000SOL    HW231766   6.380   0.723   1.548  0.3609  0.5218 -0.0561
 8000SOL    HW331767   6.502   0.636   1.529 -0.0231 -0.1937  0.7120
 8000SOL    MW431768   6.427   0.652   1.569 -0.5330 -0.3318  0.4437
 8001SOL     OW31769   3.819   5.823   5.800 -0.2044 -0.2222  0.5420
 8001SOL    HW231770   3.808   5.854   5.890 -2.2927 -1.9152  0.9445
 8001SOL    HW331771   3.739   5.850   5.755  0.7661  0.5095 -0.8236
 8001SOL    MW431772   3.807   5.831   5.806 -0.2032  0.3861  0.7427
 8002SOL     OW31773   3.262   4.792   3.606  0.4113 -0.1663 -0.3163
 8002SOL    HW231774   3.169   4.801   3.582  0.5127 -0.5119 -0.8525
 8002SOL    HW331775   3.262   4.733   3.680  0.0577  1.1895  0.8177
 8002SOL    MW431776   3.250   4.786   3.613  0.0728  1.1549  0.0292
 8003SOL     OW31777   4.096   2.771   2.142  0.3144 -0.2931 -0.3272
 8003SOL    HW231778   4.017   2.737   2.100 -1.6380 -0.0333  2.8024
 8003SOL    HW331779   4.113   2.854   2.098 -1.6619  0.0347 -0.5713
 8003SOL    MW431780   4.087   2.777   2.130  0.0885  0.1592 -0.5571
 8004SOL     OW31781   0.905   6.377   0.421 -0.2028 -0.1324 -0.6458
 8004SOL    HW231782   0.831   6.317   0.414  0.5842 -1.1375 -0.5260
 8004SOL    HW331783   0.868   6.463   0.399 -2.3557  0.1335  3.0601
 8004SOL    MW431784   0.890   6.381   0.417 -0.0002  0.1513 -0.4951
 8005SOL     OW31785   2.794   0.560   4.933  0.4833 -0.5218  0.5933
 8005SOL    HW231786   2.806   0.529   5.022  1.5342  0.3174  0.7591
 8005SOL    HW331787   2.702   0.586   4.928  0.1866 -1.4278  1.1414
 8005SOL    MW431788   2.783   0.559   4.944  0.6796 -0.2948  0.1542
 8006SOL     OW31789   3.908   5.503   4.765  0.0442  0.0537 -0.4772
 8006SOL    HW231790   3.945   5.590   4.751 -0.3294  0.2155 -0.4535
 8006SOL    HW331791   3.884   5.473   4.678  0.6000 -0.2211 -0.5437
 8006SOL    MW431792   3.910   5.510   4.752  0.0074 -0.0983 -0.0053
 8007SOL     OW31793   1.201   2.849   6.025  0.5609  0.1728 -0.1827
 8007SOL    HW231794   1.242   2.840   6.111 -0.3237  0.3137  0.2689
 8007SOL    HW331795   1.109   2.827   6.041  0.2275  0.9868 -0.9310
 8007SOL    MW431796   1.194   2.845   6.039 -0.5422 -0.0154 -0.3042
 8008SOL     OW31797   3.477   4.096   5.424  0.5879  0.0674 -0.7749
 8008SOL    HW231798   3.480   4.072   5.332  1.1531  1.4245 -1.1292
 8008SOL    HW331799   3.556   4.148   5.438  0.2516  0.3023  0.3507
 8008SOL    MW431800   3.488   4.100   5.414 -0.1197 -0.8629  0.4576
 8009SOL     OW31801   2.999   4.619   5.830 -0.6886 -0.0878  0.2625
 8009SOL    HW231802   3.085   4.582   5.812  0.2743  1.7689  0.8287
 8009SOL    HW331803   2.999   4.637   5.924 -2.1408 -1.1061  0.4848
 8009SOL    MW431804   3.010   4.617   5.840  0.0907 -0.1997  0.6841
 8010SOL     OW31805   4.748   2.612   3.001  0.1769 -0.7442 -0.0765
 8010SOL    HW231806   4.704   2.655   2.928 -0.2514  0.5731  0.9183
 8010SOL    HW331807   4.810   2.551   2.960  0.8247  0.8444 -1.5432
 8010SOL    MW431808   4.750   2.609   2.986  0.2641 -0.2596  0.1096
 8011SOL     OW31809   6.420   0.567   5.509 -0.1188 -0.1939  0.5799
 8011SOL    HW231810   6.505   0.603   5.535  0.1688  1.2625 -2.0378
 8011SOL    HW331811   6.442   0.499   5.446 -0.8648 -1.7858  1.9590
 8011SOL    MW431812   6.434   0.563   5.504  0.2808 -0.7098  0.3114
 8012SOL     OW31813   4.050   3.082   2.849  0.4043  0.1604 -0.4109
 8012SOL    HW231814   3.995   3.029   2.793  1.4609 -0.9396 -0.4411
 8012SOL    HW331815   4.000   3.163   2.862 -1.5936 -1.0954  0.2575
 8012SOL    MW431816   4.036   3.086   2.843  0.3232 -0.2027 -0.7902
 8013SOL     OW31817   5.754   1.724   3.398 -0.5448  0.5486  0.0272
 8013SOL    HW231818   5.723   1.695   3.312 -1.9924  0.0318  0.6714
 8013SOL    HW331819   5.719   1.658   3.458  1.1940  0.4098  0.9322
 8013SOL    MW431820   5.745   1.711   3.395 -0.3737  0.6457  0.1638
 8014SOL     OW31821   4.548   1.974   3.215 -0.2696 -0.0794  0.6258
 8014SOL    HW231822   4.479   1.911   3.196 -1.9542  1.7542  0.2678
 8014SOL    HW331823   4.622   1.921   3.243 -1.7672 -2.1709  0.9032
 8014SOL    MW431824   4.548   1.959   3.216  0.6047 -0.1762  0.3301
 8015SOL     OW31825   0.157   3.914   0.479  0.3026 -0.6338  0.0125
 8015SOL    HW231826   0.138   3.866   0.560  2.0939 -1.0697  0.2177
 8015SOL    HW331827   0.080   3.899   0.424  0.0061 -2.1828  0.7904
 8015SOL    MW431828   0.144   3.906   0.482  0.1291  0.2398  0.4367
 8016SOL     OW31829   5.452   2.192   2.308 -0.5051  0.3595 -0.4512
 8016SOL    HW231830   5.405   2.149   2.236 -1.3366 -1.5472  1.1451
 8016SOL    HW331831   5.544   2.194   2.279 -0.2133 -3.4427 -0.3237
 8016SOL    MW431832   5.458   2.187   2.294 -0.1517 -0.0841  0.2253
 8017SOL     OW31833   2.196   4.833   3.975  0.3325 -0.4542  0.3102
 8017SOL    HW231834   2.168   4.785   4.053 -0.4753 -1.0181 -0.3170
 8017SOL    HW331835   2.115   4.860   3.933  0.7148 -1.4520 -1.1308
 8017SOL    MW431836   2.182   4.830   3.980  0.3286  0.3259 -0.4300
 8018SOL     OW31837   2.850   0.624   5.214 -0.1775  0.1768 -0.0018
 8018SOL    HW231838   2.896   0.708   5.213 -0.8887  0.5989  1.2628
 8018SOL    HW331839   2.763   0.644   5.249  0.1625 -1.2997  1.8451
 8018SOL    MW431840   2.845   0.638   5.218  0.5123 -0.5254  0.0503
 8019SOL     OW31841   5.976   2.051   2.541 -0.6634 -0.8003  0.2705
 8019SOL    HW231842   6.033   2.015   2.609  0.2717 -1.0793 -0.6277
 8019SOL    HW331843   6.006   2.142   2.531 -0.6664 -0.8172  0.1041
 8019SOL    MW431844   5.987   2.058   2.549  0.6490  0.5186  0.9530
 8020SOL     OW31845   0.364   3.486   2.784 -0.0748 -0.0233  0.2475
 8020SOL    HW231846   0.393   3.495   2.875  2.0756  0.3602 -0.4175
 8020SOL    HW331847   0.437   3.443   2.740 -1.5524 -1.2840 -1.1004
 8020SOL    MW431848   0.377   3.481   2.790 -0.0599  0.1920  0.7891
 8021SOL     OW31849   0.151   1.294   2.778 -0.2338  0.2157  0.1397
 8021SOL    HW231850   0.187   1.376   2.743 -1.6619  1.7382  1.9573
 8021SOL    HW331851   0.062   1.318   2.806 -0.7266 -2.0173  0.6262
 8021SOL    MW431852   0.144   1.308   2.777  0.7160  0.6528  0.1567
 8022SOL     OW31853   4.236   1.190   1.596  0.3628 -0.2243 -0.5567
 8022SOL    HW231854   4.208   1.109   1.638 -1.7084 -0.2222 -1.7909
 8022SOL    HW331855   4.192   1.259   1.645  1.5024  0.1399  0.0016
 8022SOL    MW431856   4.227   1.189   1.608  0.1295  0.0738 -0.6262
 8023SOL     OW31857   5.294   3.900   4.429  0.2393 -0.0172 -0.6457
 8023SOL    HW231858   5.325   3.919   4.518 -1.1719  1.8056 -0.4785
 8023SOL    HW331859   5.372   3.903   4.375  0.9498  0.1056  0.3588
 8023SOL    MW431860   5.308   3.902   4.434  0.4038  0.6457  0.1155
 8024SOL     OW31861   4.272   1.512   4.982 -0.9198 -0.2163 -0.4877
 8024SOL    HW231862   4.222   1.433   4.999 -0.5176 -0.6848 -1.4095
 8024SOL    HW331863   4.212   1.584   5.001 -1.0468 -0.7050  1.1252
 8024SOL    MW431864   4.258   1.511   4.987 -0.4488 -0.7254  0.1209
 8025SOL     OW31865   2.830   2.972   0.456 -0.1109  0.5403 -0.0210
 8025SOL    HW231866   2.907   2.950   0.404  0.4233 -0.7810  1.2390
 8025SOL    HW331867   2.758   2.926   0.414  0.2730 -0.3280  0.2529
 8025SOL    MW431868   2.830   2.963   0.444  0.0989  0.5106  0.4033
 8026SOL     OW31869   1.991   5.742   3.470  0.6630 -0.2313  0.0254
 8026SOL    HW231870   2.041   5.711   3.546  0.4728  0.0273  0.2586
 8026SOL    HW331871   2.018   5.684   3.399  2.0909  0.5526 -0.1115
 8026SOL    MW431872   2.001   5.730   3.471  0.3119 -0.1776 -0.0476
 8027SOL     OW31873   5.912   0.390   4.624  0.0896 -0.6090 -0.6022
 8027SOL    HW231874   6.006   0.392   4.641 -0.0743  3.7796  1.1486
 8027SOL    HW331875   5.897   0.459   4.560 -2.0865  0.0312  0.4847
 8027SOL    MW431876   5.922   0.399   4.618 -0.6117  0.1421  0.5110
 8028SOL     OW31877   3.876   0.582   6.226  0.1085 -0.1212 -0.2308
 8028SOL    HW231878   3.879   0.539   6.141 -0.9702 -0.0424 -0.3300
 8028SOL    HW331879   3.829   0.520   6.283  0.0495  0.1992  0.0755
 8028SOL    MW431880   3.870   0.568   6.223  0.0814  0.2190 -0.1109
 8029SOL     OW31881   4.626   6.277   3.884 -0.2194  0.1162  0.4160
 8029SOL    HW231882   4.560   6.324   3.834 -1.1062 -0.2842  1.1702
 8029SOL    HW331883   4.696   6.260   3.822 -0.0046  2.1506  0.0461
 8029SOL    MW431884   4.626   6.281   3.870  0.5431 -0.0254 -0.2448
 8030SOL     OW31885   0.602   2.223   1.454  0.0436  0.5055 -0.3009
 8030SOL    HW231886   0.658   2.280   1.402 -0.3017  0.9544 -0.1917
 8030SOL    HW331887   0.516   2.265   1.449 -0.0243  0.4658  0.4960
 8030SOL    MW431888   0.598   2.236   1.446  0.2740  0.2703  0.2358
 8031SOL     OW31889   1.420   4.310   1.989 -0.0958  0.4579 -0.5250
 8031SOL    HW231890   1.443   4.234   2.042  0.9491 -0.0288 -1.6240
 8031SOL    HW331891   1.470   4.382   2.027  0.0355  0.2821 -0.3628
 8031SOL    MW431892   1.430   4.310   2.001 -0.4164 -0.7325 -0.3006
 8032SOL     OW31893   5.516   1.426   0.464  0.4468 -0.2320 -0.4237
 8032SOL    HW231894   5.540   1.480   0.539 -0.0702  0.5348 -0.7901
 8032SOL    HW331895   5.420   1.431   0.461  0.5035  0.8101 -1.8695
 8032SOL    MW431896   5.506   1.434   0.473 -0.6511  0.7371 -0.2368
 8033SOL     OW31897   1.507   0.672   2.196  0.1326  0.4918  0.2792
 8033SOL    HW231898   1.452   0.750   2.194  1.7873  1.6992  0.0214
 8033SOL    HW331899   1.596   0.705   2.209  0.9500 -1.3059 -0.3543
 8033SOL    MW431900   1.511   0.686   2.197  0.5801 -0.3716  0.0856
 8034SOL     OW31901   5.127   1.188   4.782  0.3355 -0.4300  0.2049
 8034SOL    HW231902   5.138   1.119   4.848  0.6838 -1.6350 -1.0589
 8034SOL    HW331903   5.211   1.190   4.735 -0.3388 -0.5407 -1.0519
 8034SOL    MW431904   5.140   1.179   4.785  0.2926  0.2761 -0.3446
 8035SOL     OW31905   1.098   1.293   4.665 -0.7225  0.4202  0.1130
 8035SOL    HW231906   1.167   1.330   4.610  0.2931 -0.6177  0.6508
 8035SOL    HW331907   1.109   1.336   4.749 -0.8050  0.3328  0.1692
 8035SOL    MW431908   1.109   1.304   4.669  0.2249  0.2978  0.3843
 8036SOL     OW31909   0.162   4.725   0.113  0.1610  0.0821  0.6262
 8036SOL    HW231910   0.214   4.736   0.193 -1.7020  0.5022  1.8275
 8036SOL    HW331911   0.084   4.678   0.141  0.0207 -0.8684 -1.2080
 8036SOL    MW431912   0.159   4.720   0.127 -0.2216  0.0461  0.4671
 8037SOL     OW31913   2.998   5.825   4.776 -0.2778 -0.1666  0.0087
 8037SOL    HW231914   2.955   5.803   4.694  2.9613  0.8013 -2.1671
 8037SOL    HW331915   3.090   5.835   4.752  0.7957  0.4185  3.7596
 8037SOL    MW431916   3.005   5.823   4.762  0.1485  0.0527 -0.6918
 8038SOL     OW31917   5.912   0.770   2.781  0.6499 -0.0749 -0.5323
 8038SOL    HW231918   5.975   0.756   2.711 -0.8868 -5.1458 -1.3238
 8038SOL    HW331919   5.951   0.728   2.858 -0.3457 -0.4192 -0.1893
 8038SOL    MW431920   5.925   0.762   2.782  0.5087  0.0274 -0.3919
 8039SOL     OW31921   5.196   5.576   0.038  0.1851 -0.2929 -0.4953
 8039SOL    HW231922   5.286   5.610   0.039  1.5089 -3.2393 -2.7407
 8039SOL    HW331923   5.162   5.601  -0.048  0.3037 -2.2781 -1.1831
 8039SOL    MW431924   5.203   5.584   0.027  0.2215  0.3618  0.3009
 8040SOL     OW31925   3.413   1.327   3.409  0.5045  0.4055  0.1891
 8040SOL    HW231926   3.367   1.263   3.462  1.1147 -0.5011 -0.3523
 8040SOL    HW331927   3.470   1.373   3.470 -0.0103  0.5102  0.5954
 8040SOL    MW431928   3.414   1.325   3.424  0.1437  0.4544  0.2103
 8041SOL     OW31929   2.806   1.922   5.827 -0.1429  0.6239  0.5881
 8041SOL    HW231930   2.826   1.997   5.883  0.4589 -0.0325  1.2735
 8041SOL    HW331931   2.884   1.868   5.831 -0.4030  0.1740 -0.2560
 8041SOL    MW431932   2.819   1.925   5.835 -0.2596 -0.2131 -0.6160
 8042SOL     OW31933   3.577   4.824   0.587 -0.4605 -0.4399  0.4270
 8042SOL    HW231934   3.644   4.756   0.596  0.4097  0.4897  1.2517
 8042SOL    HW331935   3.523   4.795   0.514  0.9678 -1.1149 -0.3995
 8042SOL    MW431936   3.578   4.811   0.579 -0.6317  0.0988  0.0857
 8043SOL     OW31937   4.017   0.576   3.553 -0.0858 -0.1372 -0.1388
 8043SOL    HW231938   3.966   0.496   3.543  0.4695 -0.4835 -0.2414
 8043SOL    HW331939   4.101   0.556   3.512  0.6222 -0.0405  1.2246
 8043SOL    MW431940   4.021   0.563   3.546 -0.1358 -0.2717  0.1010
 8044SOL     OW31941   3.976   2.844   3.678  0.1814  0.4000  0.0114
 8044SOL    HW231942   4.034   2.814   3.748 -1.1995  1.2493  1.6100
 8044SOL    HW331943   4.028   2.837   3.598  1.3885 -1.8901  0.9077
 8044SOL    MW431944   3.990   2.839   3.677  0.2204 -0.1985  0.0585
 8045SOL     OW31945   0.373   2.571   1.036  0.1216 -0.4345  0.0435
 8045SOL    HW231946   0.422   2.618   0.968 -2.1569  3.1289  0.6107
 8045SOL    HW331947   0.313   2.514   0.988 -0.9060  1.4465 -0.9758
 8045SOL    MW431948   0.372   2.569   1.021 -0.3402 -0.1792 -0.5746
 8046SOL     OW31949   6.197   3.219   0.349 -0.8988 -0.4199  0.3534
 8046SOL    HW231950   6.131   3.241   0.284 -1.6930 -0.9188  0.9811
 8046SOL    HW331951   6.280   3.225   0.301 -1.2511  1.4984 -0.1384
 8046SOL    MW431952   6.199   3.223   0.334  0.5908  0.4792 -0.0773
 8047SOL     OW31953   5.741   3.734   4.021 -0.4846 -0.1556  0.1035
 8047SOL    HW231954   5.649   3.718   3.999 -0.4083 -0.1648 -0.2109
 8047SOL    HW331955   5.789   3.708   3.943 -0.1604 -0.7754  0.5066
 8047SOL    MW431956   5.735   3.729   4.008 -0.8013  0.0371 -0.2006
 8048SOL     OW31957   1.645   1.520   5.265  0.3440 -0.1405 -0.5966
 8048SOL    HW231958   1.585   1.517   5.340  0.7141 -3.1252 -0.3227
 8048SOL    HW331959   1.614   1.595   5.213 -2.4170 -0.4077  0.4909
 8048SOL    MW431960   1.633   1.530   5.268 -0.2872 -0.6817 -0.1411
 8049SOL     OW31961   3.249   4.948   1.019 -0.8078 -0.5567  0.1051
 8049SOL    HW231962   3.164   4.905   1.022 -0.3859 -1.3996  0.6033
 8049SOL    HW331963   3.277   4.941   0.928 -1.7717  0.7908 -0.3309
 8049SOL    MW431964   3.242   4.941   1.008  0.4165 -0.4144  0.6118
 8050SOL     OW31965   4.880   4.149   4.296  0.1065 -0.0394 -0.7472
 8050SOL    HW231966   4.927   4.222   4.258  1.6048 -0.7672 -0.3641
 8050SOL    HW331967   4.858   4.177   4.385 -1.6410  0.8964 -1.4160
 8050SOL    MW431968   4.883   4.162   4.302 -0.0185 -0.4733  0.1558
 8051SOL     OW31969   2.466   1.039   3.946  0.0049 -0.1624  0.2220
 8051SOL    HW231970   2.556   1.025   3.978 -0.0945 -0.6205  0.3064
 8051SOL    HW331971   2.411   0.991   4.008 -0.2481 -0.4374 -0.2081
 8051SOL    MW431972   2.471   1.031   3.958  0.1569  0.4454  0.2217
 8052SOL     OW31973   1.538   2.209   4.791 -0.4529  0.3063  0.8019
 8052SOL    HW231974   1.565   2.164   4.712 -1.1493 -0.1317  0.8065
 8052SOL    HW331975   1.444   2.224   4.780 -0.8181 -0.8699  2.0720
 8052SOL    MW431976   1.529   2.205   4.779  0.3034  0.3830  0.1350
 8053SOL     OW31977   6.250   0.638   2.141 -0.2611  0.5853 -0.0164
 8053SOL    HW231978   6.222   0.574   2.206 -0.5953  1.3370  0.6070
 8053SOL    HW331979   6.172   0.656   2.089 -0.4296  1.1628  0.4139
 8053SOL    MW431980   6.236   0.632   2.143  0.7663  0.3176  0.5526
 8054SOL     OW31981   1.299   4.150   0.103  0.1752  0.0238 -0.0294
 8054SOL    HW231982   1.345   4.185   0.027  0.1435 -1.3689 -0.7124
 8054SOL    HW331983   1.364   4.094   0.146  0.1662  0.7269  0.9396
 8054SOL    MW431984   1.314   4.147   0.099 -0.4096  0.6333 -1.0229
 8055SOL     OW31985   1.398   4.779   6.048  0.4640  0.1119 -0.4328
 8055SOL    HW231986   1.387   4.685   6.062 -0.8360  0.4931  1.4412
 8055SOL    HW331987   1.310   4.815   6.062  1.1518  1.7094 -0.1414
 8055SOL    MW431988   1.385   4.771   6.052 -0.2747 -0.3412  0.4475
 8056SOL     OW31989   2.538   5.799   4.863 -0.6427 -0.5825 -0.4404
 8056SOL    HW231990   2.514   5.707   4.866 -0.9019 -0.5108 -0.3132
 8056SOL    HW331991   2.470   5.844   4.914  1.1568 -0.6493  2.2035
 8056SOL    MW431992   2.526   5.793   4.870 -0.4220  0.0785 -0.0866
 8057SOL     OW31993   4.384   3.506   5.516  0.3863  0.2323 -0.3156
 8057SOL    HW231994   4.373   3.418   5.551 -1.6448  0.8292  0.6902
 8057SOL    HW331995   4.298   3.546   5.525  0.8906  1.8567 -2.1030
 8057SOL    MW431996   4.372   3.500   5.522 -0.0792  0.0695 -0.5388
 8058SOL     OW31997   3.909   3.244   5.827 -0.0117  0.2412 -0.2334
 8058SOL    HW231998   3.904   3.338   5.807  1.0803  1.2487  3.3536
 8058SOL    HW331999   3.896   3.240   5.922 -1.5790 -3.4599 -0.4749
 8058SOL    MW432000   3.907   3.256   5.837 -0.1509 -0.1258  0.3808
 8059SOL     OW32001   4.171   0.295   4.816  0.1108  0.1459  0.7012
 8059SOL    HW232002   4.231   0.243   4.763 -0.0031  0.8153 -0.1168
 8059SOL    HW332003   4.107   0.328   4.753  0.5880  1.8422  1.0577
 8059SOL    MW432004   4.170   0.293   4.801  0.0952 -0.3558 -0.5351
 8060SOL     OW32005   2.125   4.623   5.755 -0.3652 -0.9373 -0.1086
 8060SOL    HW232006   2.150   4.700   5.705  2.0514 -2.8580 -2.0921
 8060SOL    HW332007   2.029   4.628   5.761 -0.2195  3.1520  1.6689
 8060SOL    MW432008   2.115   4.634   5.749 -0.0621  0.1403  0.2849
 8061SOL     OW32009   1.949   1.812   3.703 -0.2304  0.1920  0.2534
 8061SOL    HW232010   1.868   1.826   3.752 -0.5351  3.1153 -0.8808
 8061SOL    HW332011   1.921   1.768   3.623 -0.8094  1.4227 -0.2539
 8061SOL    MW432012   1.934   1.808   3.699 -0.1620 -0.2066 -0.2540
 8062SOL     OW32013   2.909   6.080   1.744 -0.7285 -0.1969 -0.4040
 8062SOL    HW232014   2.889   6.003   1.797 -1.2399  0.1231 -0.1251
 8062SOL    HW332015   2.998   6.064   1.712 -0.2077 -0.1821  0.9428
 8062SOL    MW432016   2.918   6.068   1.747 -0.6363  0.4085  0.0672
 8063SOL     OW32017   5.534   4.847   0.195 -0.4717 -0.0703 -0.1928
 8063SOL    HW232018   5.475   4.908   0.151  1.2075  2.2943  0.6223
 8063SOL    HW332019   5.534   4.875   0.286 -0.3492 -1.9323  0.4114
 8063SOL    MW432020   5.526   4.859   0.201  0.4186  0.0147 -0.1142
 8064SOL     OW32021   0.556   1.959   0.767 -0.7589  0.5560 -0.3046
 8064SOL    HW232022   0.601   2.041   0.749  0.5578  0.1509  0.9804
 8064SOL    HW332023   0.612   1.892   0.727 -0.9327  0.1488  0.1312
 8064SOL    MW432024   0.569   1.961   0.759 -0.6122  0.1059 -0.1474
 8065SOL     OW32025   1.584   5.331   6.292  0.2211  0.1035 -0.0857
 8065SOL    HW232026   1.599   5.312   6.385  0.0944 -2.3361 -0.4902
 8065SOL    HW332027   1.492   5.355   6.287  0.1532 -0.0447  0.3791
 8065SOL    MW432028   1.574   5.331   6.304 -0.3608  0.1953 -0.1326
 8066SOL     OW32029   3.128   2.709   2.880  0.4056 -0.0889 -0.4068
 8066SOL    HW232030   3.170   2.763   2.813 -0.7095  2.3330  0.6955
 8066SOL    HW332031   3.048   2.678   2.838 -0.3987  1.5992 -0.2081
 8066SOL    MW432032   3.123   2.712   2.866  0.2665 -0.2833  0.2273
 8067SOL     OW32033   2.115   5.069   1.882  0.1076 -0.2107 -0.3642
 8067SOL    HW232034   2.184   5.127   1.912 -0.1032  0.1927 -0.6578
 8067SOL    HW332035   2.052   5.126   1.837 -0.6067 -0.5150  0.2284
 8067SOL    MW432036   2.116   5.084   1.880  0.1773  0.3896  0.3821
 8068SOL     OW32037   0.225   1.658   4.235  0.1524  0.7270 -0.5943
 8068SOL    HW232038   0.136   1.689   4.219 -0.5310 -0.0603  1.3559
 8068SOL    HW332039   0.214   1.568   4.267  1.7335  0.2236 -1.3451
 8068SOL    MW432040   0.212   1.650   4.237 -0.6932  0.3677 -0.3231
 8069SOL     OW32041   3.841   5.734   3.485  0.5032  0.2467  0.3468
 8069SOL    HW232042   3.758   5.735   3.533 -0.1481  0.5029 -0.7652
 8069SOL    HW332043   3.908   5.726   3.554 -0.4675 -0.9350  1.2031
 8069SOL    MW432044   3.839   5.733   3.500  0.1482  0.3261 -0.1913
 8070SOL     OW32045   3.576   0.353   3.259  0.3418 -0.5841  0.3263
 8070SOL    HW232046   3.606   0.443   3.249 -2.5988  0.5049  0.3296
 8070SOL    HW332047   3.594   0.311   3.175  0.5926  0.3839 -0.1130
 8070SOL    MW432048   3.583   0.359   3.247 -0.0678  0.3313  0.1875
 8071SOL     OW32049   0.263   1.579   3.875  0.1422  0.1891 -0.6756
 8071SOL    HW232050   0.282   1.487   3.858 -0.6624 -0.1198  0.0435
 8071SOL    HW332051   0.200   1.604   3.808 -1.3314 -0.4189  0.4149
 8071SOL    MW432052   0.257   1.570   3.864  0.1251  0.7091  0.0654
 8072SOL     OW32053   3.841   3.637   1.895  0.3088 -0.2883  0.2922
 8072SOL    HW232054   3.902   3.680   1.835  0.8215 -0.4808  0.6739
 8072SOL    HW332055   3.818   3.704   1.959 -0.9870  0.2055 -0.6562
 8072SOL    MW432056   3.846   3.651   1.895 -0.3752  0.0927  0.0645
 8073SOL     OW32057   1.353   4.253   6.252  0.1627 -0.1433  0.3524
 8073SOL    HW232058   1.266   4.242   6.213  0.3399  0.8663 -0.3380
 8073SOL    HW332059   1.410   4.196   6.201  0.0413 -0.2946  0.3825
 8073SOL    MW432060   1.349   4.244   6.240 -0.6148  0.3218  0.5626
 8074SOL     OW32061   1.557   5.083   4.712 -0.6390  0.0057 -0.2464
 8074SOL    HW232062   1.536   4.998   4.751 -0.1145  0.7632  1.8091
 8074SOL    HW332063   1.528   5.076   4.621 -1.2796 -2.1050  0.0800
 8074SOL    MW432064   1.551   5.071   4.705  0.2042  0.4591  0.1702
 8075SOL     OW32065   0.186   6.045   5.825  0.1454  0.7836  0.4446
 8075SOL    HW232066   0.141   5.962   5.836 -0.0315  0.7423 -0.5217
 8075SOL    HW332067   0.141   6.105   5.885 -1.2438  0.7607 -0.5357
 8075SOL    MW432068   0.174   6.042   5.835  0.0621 -0.1711  0.2693
 8076SOL     OW32069   1.822   0.196   1.126  0.0313  0.4896  0.5073
 8076SOL    HW232070   1.815   0.102   1.114  1.3572  0.5541 -1.1892
 8076SOL    HW332071   1.732   0.225   1.143 -0.6795 -0.8845 -0.6805
 8076SOL    MW432072   1.809   0.188   1.126  0.1734  0.1323  0.7353
 8077SOL     OW32073   5.442   0.998   6.213  0.4109 -0.1201  0.2848
 8077SOL    HW232074   5.380   1.005   6.140  2.3995 -1.7588 -1.7121
 8077SOL    HW332075   5.403   0.932   6.270 -0.0026 -0.6766 -0.6172
 8077SOL    MW432076   5.428   0.990   6.211 -0.2888  0.0695  0.2637
 8078SOL     OW32077   4.318   2.126   4.514 -0.1060  0.4147  0.0938
 8078SOL    HW232078   4.351   2.209   4.548  0.7070  0.5954 -1.0949
 8078SOL    HW332079   4.240   2.108   4.567  1.0764  0.6895  2.0223
 8078SOL    MW432080   4.312   2.134   4.525  0.5786  0.4078 -0.1166
 8079SOL     OW32081   6.267   5.126   1.386 -0.5117  0.2781  0.0241
 8079SOL    HW232082   6.292   5.216   1.404 -1.4476  0.8812 -1.4751
 8079SOL    HW332083   6.278   5.116   1.292 -0.1763 -1.2720  0.1982
 8079SOL    MW432084   6.272   5.136   1.376 -0.2813  0.6677  0.0410
 8080SOL     OW32085   2.026   3.284   0.193 -0.6657  0.5661  0.0321
 8080SOL    HW232086   2.119   3.291   0.214 -0.4249  1.2603 -1.1535
 8080SOL    HW332087   1.983   3.281   0.278  0.5759 -2.6306  0.6919
 8080SOL    MW432088   2.033   3.285   0.207  0.0041 -0.0354 -0.5231
 8081SOL     OW32089   5.890   3.915   2.647  0.6400  0.2713  0.3915
 8081SOL    HW232090   5.891   3.959   2.732  0.0982  2.3445 -0.6051
 8081SOL    HW332091   5.855   3.981   2.587  2.1279 -0.7005 -1.6649
 8081SOL    MW432092   5.886   3.930   2.650 -0.1696  0.0616 -1.4106
 8082SOL     OW32093   4.156   3.858   0.406 -0.9405  0.9189  0.0223
 8082SOL    HW232094   4.214   3.933   0.414 -1.1684  1.0876  0.1125
 8082SOL    HW332095   4.207   3.784   0.439 -0.1715  0.7498 -1.4700
 8082SOL    MW432096   4.170   3.858   0.411  0.5163  0.1366  0.2365
 8083SOL     OW32097   4.330   1.023   0.853 -0.3719  0.0796 -0.1095
 8083SOL    HW232098   4.275   0.972   0.794  1.2317  0.6454 -2.2642
 8083SOL    HW332099   4.397   1.060   0.795  0.9830  1.1465  2.0358
 8083SOL    MW432100   4.332   1.021   0.837 -0.0176 -0.1812  1.0200
 8084SOL     OW32101   5.699   6.275   4.009  0.7326 -0.5009 -0.7711
 8084SOL    HW232102   5.725   6.222   3.933  1.1629  0.8702 -1.6290
 8084SOL    HW332103   5.618   6.235   4.039  0.0122 -0.5004 -2.5852
 8084SOL    MW432104   5.692   6.263   4.003  0.1666 -0.0672  0.2288
 8085SOL     OW32105   1.351   5.424   1.695  0.5964  0.1497 -0.3714
 8085SOL    HW232106   1.394   5.406   1.611 -1.6493  2.0923 -2.0963
 8085SOL    HW332107   1.262   5.391   1.683  0.3434  0.1124  1.4369
 8085SOL    MW432108   1.345   5.418   1.682 -0.2040  0.1381  0.7041
 8086SOL     OW32109   0.551   2.507   6.025  0.4061 -0.0238  0.2666
 8086SOL    HW232110   0.540   2.508   6.120  1.6799 -0.5366  0.4282
 8086SOL    HW332111   0.633   2.461   6.010  0.1404 -0.0963 -1.1011
 8086SOL    MW432112   0.560   2.501   6.035 -0.3102 -0.4028 -0.5229
 8087SOL     OW32113   0.221   4.663   0.700 -0.0248 -0.0474  0.4122
 8087SOL    HW232114   0.207   4.588   0.759 -0.9402  0.0956  0.3968
 8087SOL    HW332115   0.147   4.721   0.717  0.8743  1.0483  0.6867
 8087SOL    MW432116   0.209   4.660   0.710  0.0425  0.0401 -0.2369
 8088SOL     OW32117   5.885   5.871   0.536 -0.1690 -0.3279  0.0932
 8088SOL    HW232118   5.791   5.870   0.556  0.1042  2.1999  2.0467
 8088SOL    HW332119   5.893   5.935   0.465  0.2067  0.7282  1.0677
 8088SOL    MW432120   5.873   5.880   0.529  0.4217  0.4841 -0.4920
 8089SOL     OW32121   0.527   5.726   6.236  0.2720  0.9048  0.1280
 8089SOL    HW232122   0.558   5.770   6.156 -1.2799  1.3111 -0.2772
 8089SOL    HW332123   0.462   5.663   6.205 -0.3868  1.1024  1.0788
 8089SOL    MW432124   0.523   5.724   6.221  0.3014  0.2980  0.2032
 8090SOL     OW32125   4.883   3.477   5.081 -0.6899  0.4088  0.0462
 8090SOL    HW232126   4.792   3.454   5.066 -0.4830  0.5455 -1.5148
 8090SOL    HW332127   4.882   3.572   5.096 -1.1919 -0.0107  3.6862
 8090SOL    MW432128   4.871   3.487   5.081 -0.1350  0.3579  0.2797
 8091SOL     OW32129   3.227   2.014   2.181 -0.5154  0.2080  0.0097
 8091SOL    HW232130   3.248   1.941   2.240 -1.6033  1.0777  1.5341
 8091SOL    HW332131   3.214   2.089   2.239 -0.5519  1.3584 -1.4387
 8091SOL    MW432132   3.228   2.014   2.197 -0.3434  0.4529 -0.5898
 8092SOL     OW32133   3.605   1.903   1.447  0.1523 -0.5634  0.0593
 8092SOL    HW232134   3.678   1.965   1.450  0.1483 -0.5674  0.2497
 8092SOL    HW332135   3.569   1.903   1.536  0.7281 -1.5209  0.3135
 8092SOL    MW432136   3.610   1.911   1.459 -0.0638 -0.0520 -0.4104
 8093SOL     OW32137   1.548   4.773   4.162  0.1055  0.7228 -0.4113
 8093SOL    HW232138   1.518   4.740   4.078 -0.2910  1.8604 -0.7322
 8093SOL    HW332139   1.474   4.759   4.221 -0.9558  3.0784 -1.0873
 8093SOL    MW432140   1.534   4.767   4.159 -0.1969  0.7698 -0.5561
 8094SOL     OW32141   4.736   5.985   1.070 -0.3669 -0.3369 -0.0460
 8094SOL    HW232142   4.809   5.991   1.132 -0.7151 -0.6230  0.3998
 8094SOL    HW332143   4.778   5.983   0.984  0.1600 -0.7479  0.2154
 8094SOL    MW432144   4.751   5.986   1.067 -0.8181  0.6152  0.3591
 8095SOL     OW32145   0.291   1.376   1.287 -0.2055 -0.2700 -0.0717
 8095SOL    HW232146   0.324   1.374   1.197 -1.1778 -0.0707 -0.4483
 8095SOL    HW332147   0.368   1.393   1.341  0.2896  0.2468 -0.9226
 8095SOL    MW432148   0.305   1.378   1.282  0.1814 -0.9545 -0.1039
 8096SOL     OW32149   1.553   1.410   0.299 -0.1025  0.0773 -0.2024
 8096SOL    HW232150   1.631   1.438   0.251 -0.1513 -0.9113 -0.8780
 8096SOL    HW332151   1.481   1.423   0.237 -0.5986  1.6824  0.6656
 8096SOL    MW432152   1.553   1.415   0.284  0.0828 -0.6529 -0.4026
 8097SOL     OW32153   5.361   2.155   0.788  0.0809 -0.2542  0.2495
 8097SOL    HW232154   5.296   2.124   0.851 -1.1393  0.8150 -0.4262
 8097SOL    HW332155   5.363   2.250   0.799  2.8346 -0.3600  1.4170
 8097SOL    MW432156   5.353   2.163   0.797  0.1305  0.2886 -0.0374
 8098SOL     OW32157   1.708   4.584   2.521  0.5529 -0.0329 -0.1207
 8098SOL    HW232158   1.689   4.630   2.439 -0.2211 -0.1661 -0.0310
 8098SOL    HW332159   1.764   4.511   2.496 -0.3137 -0.5364 -0.6623
 8098SOL    MW432160   1.713   4.581   2.507 -0.0567 -0.7030 -0.3661
 8099SOL     OW32161   5.876   1.150   4.306 -0.1641 -0.2503 -0.0751
 8099SOL    HW232162   5.921   1.232   4.287  0.6731 -0.5028  0.7275
 8099SOL    HW332163   5.918   1.086   4.247  0.5240 -0.4785  0.6477
 8099SOL    MW432164   5.888   1.152   4.295  0.1372  0.0564 -0.2178
 8100SOL     OW32165   1.380   4.748   2.507 -0.3144  0.6098  0.1655
 8100SOL    HW232166   1.310   4.796   2.461 -1.6817 -0.3785  1.1489
 8100SOL    HW332167   1.454   4.752   2.447 -1.2523  1.5766 -0.9894
 8100SOL    MW432168   1.380   4.755   2.493 -0.1800 -0.1903 -0.3586
 8101SOL     OW32169   2.822   2.613   3.946  0.5482  0.3294  0.3340
 8101SOL    HW232170   2.776   2.604   4.029  1.7702 -0.6562  0.9357
 8101SOL    HW332171   2.756   2.592   3.880 -0.0801 -0.2552  1.1282
 8101SOL    MW432172   2.807   2.609   3.948 -0.2651 -0.5187  0.0557
 8102SOL     OW32173   6.199   0.891   3.690 -0.1828  0.2498  0.1531
 8102SOL    HW232174   6.120   0.840   3.709 -0.7619  1.1662  0.2904
 8102SOL    HW332175   6.255   0.831   3.642 -1.7411  0.1406 -1.6536
 8102SOL    MW432176   6.196   0.876   3.686  0.1127  0.6732  0.1925
 8103SOL     OW32177   0.161   4.997   5.254 -0.1002 -0.6200 -0.7583
 8103SOL    HW232178   0.107   4.918   5.254 -0.4219 -0.4018 -0.5320
 8103SOL    HW332179   0.251   4.964   5.262 -0.3125 -0.9227  0.7464
 8103SOL    MW432180   0.166   4.982   5.255 -0.2965  0.0745  0.5038
 8104SOL     OW32181   0.516   5.269   2.749 -0.3466 -0.1761  0.0176
 8104SOL    HW232182   0.459   5.245   2.822  0.7795 -0.6694  0.7538
 8104SOL    HW332183   0.597   5.220   2.764  0.7976  1.5527 -0.2408
 8104SOL    MW432184   0.519   5.259   2.761 -0.3112  0.5088 -0.3786
 8105SOL     OW32185   2.554   1.752   3.838  0.2490 -0.2232 -0.0939
 8105SOL    HW232186   2.630   1.716   3.793 -0.6751 -1.0054 -1.0986
 8105SOL    HW332187   2.486   1.686   3.825 -0.3641  0.0574  1.5217
 8105SOL    MW432188   2.555   1.739   3.830 -0.4649 -0.1163  0.4970
 8106SOL     OW32189   1.245   6.202   5.440 -0.2953 -0.2239  0.3779
 8106SOL    HW232190   1.203   6.122   5.471  0.1319 -1.3388 -1.7464
 8106SOL    HW332191   1.308   6.173   5.374  0.6515  1.7767  0.3094
 8106SOL    MW432192   1.248   6.188   5.435  0.5002 -0.2972 -0.1262
 8107SOL     OW32193   3.407   1.183   2.916  0.4395  0.4724 -0.0113
 8107SOL    HW232194   3.448   1.249   2.859  0.6360 -0.0655 -0.4988
 8107SOL    HW332195   3.471   1.112   2.920  0.2494  0.3304  0.5560
 8107SOL    MW432196   3.421   1.182   2.909 -0.3952 -0.4108  0.8563
 8108SOL     OW32197   1.940   2.938   2.292 -0.1250  0.3903  0.6379
 8108SOL    HW232198   1.898   2.852   2.287  1.5185 -0.4081 -0.1977
 8108SOL    HW332199   1.868   2.999   2.312 -1.8718 -0.7492 -1.6909
 8108SOL    MW432200   1.925   2.935   2.294 -0.1192  0.2115  0.8342
 8109SOL     OW32201   5.061   1.194   5.074  0.1746  0.0163  0.1811
 8109SOL    HW232202   5.148   1.233   5.068  0.6923 -1.2998 -1.6995
 8109SOL    HW332203   5.070   1.125   5.140  0.0558  0.9574  1.2320
 8109SOL    MW432204   5.074   1.190   5.082 -0.2933 -0.1485  0.2518
 8110SOL     OW32205   5.794   1.646   4.326  0.0737 -0.2929 -0.2546
 8110SOL    HW232206   5.744   1.721   4.296 -0.5859 -0.5064  0.2759
 8110SOL    HW332207   5.732   1.573   4.322 -0.2014 -0.2674  1.9216
 8110SOL    MW432208   5.779   1.646   4.322  0.3857 -0.3080 -0.0966
 8111SOL     OW32209   0.520   1.154   4.727 -0.1104 -0.0803  0.4798
 8111SOL    HW232210   0.446   1.205   4.695  0.3950 -0.1035 -0.7514
 8111SOL    HW332211   0.498   1.063   4.706  0.4543 -0.0468 -0.2830
 8111SOL    MW432212   0.507   1.149   4.720 -0.5283 -0.7297  0.0736
 8112SOL     OW32213   1.577   4.351   3.005  0.3648 -0.1681 -0.0322
 8112SOL    HW232214   1.632   4.423   2.974  1.3854 -0.7996  0.2536
 8112SOL    HW332215   1.636   4.275   3.007 -0.4557 -0.8111  0.5345
 8112SOL    MW432216   1.592   4.350   3.001  0.2480  0.5763  0.1986
 8113SOL     OW32217   5.930   3.593   4.686 -0.1128  0.2334  0.1736
 8113SOL    HW232218   5.975   3.610   4.603 -1.0433 -0.7280 -0.5594
 8113SOL    HW332219   5.839   3.618   4.670 -0.5559 -1.0523  0.4952
 8113SOL    MW432220   5.924   3.598   4.673 -0.1194  0.3803 -0.0105
 8114SOL     OW32221   0.949   5.163   4.088  0.5057  0.0032  0.5136
 8114SOL    HW232222   0.854   5.153   4.084  0.6037 -0.9214  0.4015
 8114SOL    HW332223   0.984   5.074   4.086  1.4083  0.3442 -0.3263
 8114SOL    MW432224   0.941   5.150   4.087  0.3500 -0.2376  0.1649
 8115SOL     OW32225   5.629   6.101   5.785 -0.2681 -0.5794 -0.2037
 8115SOL    HW232226   5.578   6.104   5.704 -1.9751 -0.2741  0.8557
 8115SOL    HW332227   5.578   6.045   5.844  0.6511 -0.3301  0.8669
 8115SOL    MW432228   5.616   6.094   5.782 -0.1146  0.3048 -0.5587
 8116SOL     OW32229   3.787   1.421   1.739 -0.1983  0.1063  0.4738
 8116SOL    HW232230   3.750   1.459   1.660  3.8251  2.4862 -0.5393
 8116SOL    HW332231   3.766   1.484   1.808  1.6696  1.3651 -0.0632
 8116SOL    MW432232   3.779   1.434   1.738 -0.0491 -0.1281  0.2527
 8117SOL     OW32233   3.214   2.582   3.199  0.1230 -0.0670 -0.0761
 8117SOL    HW232234   3.290   2.585   3.142  0.3461  1.2646  0.2667
 8117SOL    HW332235   3.168   2.502   3.173  1.4756 -0.7465 -0.4708
 8117SOL    MW432236   3.218   2.572   3.189  0.1539 -0.1303 -0.3176
 8118SOL     OW32237   4.566   6.383   5.858  0.4616  0.9894 -0.0309
 8118SOL    HW232238   4.621   6.336   5.796 -1.0609 -0.8290 -0.0808
 8118SOL    HW332239   4.586   6.475   5.842 -0.5994  0.7271 -3.9891
 8118SOL    MW432240   4.576   6.389   5.848 -0.1766 -0.2777  0.4458
 8119SOL     OW32241   2.890   5.891   0.098 -0.2393  0.3348 -0.5430
 8119SOL    HW232242   2.955   5.848   0.042 -1.2736 -0.8372 -0.8904
 8119SOL    HW332243   2.874   5.975   0.056  2.0372  1.2876  0.2933
 8119SOL    MW432244   2.897   5.896   0.085 -0.1143  0.0763  0.5763
 8120SOL     OW32245   1.995   5.693   5.364 -0.2904 -0.8783  0.4853
 8120SOL    HW232246   1.914   5.703   5.313 -0.1667 -1.8366  0.0749
 8120SOL    HW332247   1.979   5.617   5.420  0.4538 -1.3024  0.1337
 8120SOL    MW432248   1.982   5.684   5.364  0.0433 -0.0345 -0.0100
 8121SOL     OW32249   5.742   3.723   2.333  0.5406  0.2550 -0.4917
 8121SOL    HW232250   5.781   3.722   2.246 -1.2509 -0.4842 -1.3366
 8121SOL    HW332251   5.711   3.813   2.345  1.0455  0.4312 -0.4795
 8121SOL    MW432252   5.743   3.735   2.323 -0.3277 -0.6343  0.7486
 8122SOL     OW32253   4.001   0.196   2.165 -0.8611 -0.2543  0.1395
 8122SOL    HW232254   3.987   0.104   2.188 -0.4672 -0.8731 -1.9552
 8122SOL    HW332255   3.923   0.241   2.198 -0.0984 -0.8943  3.1606
 8122SOL    MW432256   3.989   0.190   2.173 -0.0199  0.4608  0.4437
 8123SOL     OW32257   3.720   1.048   3.424  0.2621 -0.3458 -0.0844
 8123SOL    HW232258   3.640   0.997   3.413  0.7367 -0.5256 -4.0004
 8123SOL    HW332259   3.783   1.007   3.366  1.9000  2.2934 -0.3207
 8123SOL    MW432260   3.718   1.036   3.415 -0.5381  0.0232 -0.2735
 8124SOL     OW32261   1.169   3.697   2.376  0.1657 -0.2415 -0.3902
 8124SOL    HW232262   1.181   3.749   2.455  0.7252  1.8171 -1.7656
 8124SOL    HW332263   1.230   3.624   2.385 -0.8272 -0.8674  1.7112
 8124SOL    MW432264   1.178   3.694   2.387 -0.0621 -0.4643 -0.2396
 8125SOL     OW32265   3.121   6.221   5.221  0.0093 -0.0649 -1.1804
 8125SOL    HW232266   3.175   6.297   5.243  0.4935 -0.1761 -1.9139
 8125SOL    HW332267   3.037   6.238   5.263  0.9342 -0.4108  0.9612
 8125SOL    MW432268   3.117   6.233   5.229 -0.5597 -0.0410  0.2367
 8126SOL     OW32269   1.330   4.400   5.252 -0.0790 -0.1310  0.1132
 8126SOL    HW232270   1.332   4.402   5.157  0.3862 -0.4925  0.1116
 8126SOL    HW332271   1.423   4.404   5.278 -0.1881 -0.3015  0.5431
 8126SOL    MW432272   1.343   4.401   5.243  0.3184 -0.4411  0.0335
 8127SOL     OW32273   1.037   4.644   4.970 -0.6841  0.2806  0.1742
 8127SOL    HW232274   0.994   4.729   4.969  0.3852  0.8388  0.3422
 8127SOL    HW332275   1.130   4.664   4.974 -0.4618 -0.8755  2.5001
 8127SOL    MW432276   1.044   4.658   4.971 -0.5747 -0.2266  0.4122
 8128SOL     OW32277   4.829   5.438   0.163  0.3995  0.3727  0.7579
 8128SOL    HW232278   4.822   5.422   0.069  0.5130 -1.7632  1.0720
 8128SOL    HW332279   4.747   5.483   0.185  0.6853  1.5551 -0.4444
 8128SOL    MW432280   4.817   5.442   0.153 -0.0961  0.6126 -0.3634
 8129SOL     OW32281   3.294   0.909   0.598 -0.1696  0.3925  0.4184
 8129SOL    HW232282   3.386   0.887   0.603 -0.5608 -1.1621  1.5444
 8129SOL    HW332283   3.262   0.901   0.688 -1.3460  1.1380  0.0967
 8129SOL    MW432284   3.302   0.905   0.611 -0.1554 -0.1115 -0.3717
 8130SOL     OW32285   4.544   5.191   3.080  0.0460  0.4187 -0.4526
 8130SOL    HW232286   4.482   5.254   3.117  0.9723  1.1711 -0.1539
 8130SOL    HW332287   4.500   5.158   3.002 -1.1599  0.1710  0.2961
 8130SOL    MW432288   4.530   5.195   3.075  0.1244  0.4457  0.2510
 8131SOL     OW32289   3.182   1.613   0.704 -0.5605  0.5472  0.2195
 8131SOL    HW232290   3.191   1.708   0.711 -1.5590  0.6159  0.7359
 8131SOL    HW332291   3.155   1.599   0.613 -1.6760  0.8851  0.4766
 8131SOL    MW432292   3.179   1.624   0.693  0.5712  0.7130  0.4904
 8132SOL     OW32293   3.111   4.262   5.306 -0.4131 -0.1740 -0.2323
 8132SOL    HW232294   3.123   4.279   5.213 -1.6612 -0.2886 -0.4212
 8132SOL    HW332295   3.017   4.255   5.318 -0.2208 -2.2148  0.6624
 8132SOL    MW432296   3.100   4.263   5.296 -0.2564  0.4046 -0.2597
 8133SOL     OW32297   2.098   1.514   3.931  0.1350  0.3950  0.2092
 8133SOL    HW232298   2.108   1.524   3.837 -0.8508 -0.6232 -0.0304
 8133SOL    HW332299   2.098   1.604   3.965 -3.4093  1.1353 -1.2336
 8133SOL    MW432300   2.099   1.527   3.923  0.0818 -0.3753 -0.1351
 8134SOL     OW32301   6.255   3.595   0.517 -0.2899  0.0160 -0.2687
 8134SOL    HW232302   6.345   3.613   0.542 -0.7378  0.7532  0.9472
 8134SOL    HW332303   6.245   3.500   0.525  0.4148 -0.0886 -0.5907
 8134SOL    MW432304   6.265   3.585   0.521  0.3678  0.2543 -0.3135
 8135SOL     OW32305   2.128   4.759   5.019  0.0050 -0.4080 -0.1977
 8135SOL    HW232306   2.173   4.709   4.952  0.5258 -2.0864  1.3171
 8135SOL    HW332307   2.196   4.782   5.082 -0.3917  1.4936 -0.4105
 8135SOL    MW432308   2.143   4.756   5.019  0.1626 -0.4097 -0.4814
 8136SOL     OW32309   0.733   5.287   6.283  0.2529 -0.0427  0.5813
 8136SOL    HW232310   0.734   5.247   6.370  1.3708  0.8239  0.9887
 8136SOL    HW332311   0.752   5.379   6.299  0.1168  0.1943 -0.5611
 8136SOL    MW432312   0.736   5.294   6.297  0.3365  0.1351  0.7980
 8137SOL     OW32313   0.007   0.970   5.326  0.1182 -0.0954 -0.1599
 8137SOL    HW232314  -0.002   1.058   5.292 -0.4744 -0.3979 -0.7947
 8137SOL    HW332315   0.092   0.940   5.294  0.0333  0.0070 -0.4773
 8137SOL    MW432316   0.017   0.978   5.318  0.1033  0.4132  0.1700
 8138SOL     OW32317   4.738   4.587   6.168 -0.4990  0.0005  0.0784
 8138SOL    HW232318   4.743   4.503   6.214 -1.0138 -0.5678 -0.8839
 8138SOL    HW332319   4.814   4.636   6.201  0.3626 -1.1938 -0.0373
 8138SOL    MW432320   4.749   4.582   6.179  0.6652  0.4382  0.3421
 8139SOL     OW32321   0.808   4.394   5.993 -0.3008 -0.2145 -0.2623
 8139SOL    HW232322   0.714   4.404   6.006 -0.0622  0.5735  1.0352
 8139SOL    HW332323   0.846   4.417   6.077  1.0383 -0.9441 -0.6413
 8139SOL    MW432324   0.801   4.398   6.006  0.1482  0.4194  0.0153
 8140SOL     OW32325   4.617   4.778   4.597  0.8042 -0.1761 -0.4260
 8140SOL    HW232326   4.546   4.747   4.653  1.3694 -1.2193 -0.2570
 8140SOL    HW332327   4.679   4.819   4.658  1.5630 -1.5794 -0.2102
 8140SOL    MW432328   4.616   4.780   4.612  0.4004 -0.0131  0.1228
 8141SOL     OW32329   5.510   6.289   3.327 -0.2117  0.5515  0.3781
 8141SOL    HW232330   5.548   6.285   3.239  0.6889  1.8473  0.6798
 8141SOL    HW332331   5.483   6.380   3.338 -0.1444  0.4528  1.4936
 8141SOL    MW432332   5.512   6.300   3.317 -0.6734  0.5821  0.3620
 8142SOL     OW32333   3.761   5.055   0.392  0.0971  0.2503  0.3029
 8142SOL    HW232334   3.777   4.963   0.372  1.0542  0.8053 -1.7778
 8142SOL    HW332335   3.736   5.056   0.484 -1.0132 -2.2001  0.1034
 8142SOL    MW432336   3.760   5.043   0.401 -0.4648  0.2633  0.5116
 8143SOL     OW32337   2.500   5.873   0.455 -0.5091 -0.2418 -0.0372
 8143SOL    HW232338   2.555   5.935   0.407 -1.9246  0.0321 -1.3901
 8143SOL    HW332339   2.518   5.891   0.547  0.6754  0.7231 -0.4302
 8143SOL    MW432340   2.509   5.884   0.461  0.0095 -0.5317 -0.0155
 8144SOL     OW32341   2.034   1.904   2.962  0.0432 -0.1416 -0.1393
 8144SOL    HW232342   1.952   1.919   2.915 -0.0661 -1.2487 -0.3289
 8144SOL    HW332343   2.094   1.971   2.928 -1.1689  1.6226  1.0368
 8144SOL    MW432344   2.031   1.915   2.951 -0.4181  0.4880  0.8338
 8145SOL     OW32345   3.910   3.944   0.274 -0.0231  0.0376  0.5948
 8145SOL    HW232346   3.986   3.908   0.320  0.2279  0.1016  0.2367
 8145SOL    HW332347   3.915   3.906   0.186 -0.1571  0.3836  0.4347
 8145SOL    MW432348   3.921   3.934   0.268  0.3278  0.6808  0.1954
 8146SOL     OW32349   3.986   5.815   2.345 -0.0052  0.2693  0.5963
 8146SOL    HW232350   3.958   5.904   2.324 -2.7208 -0.7474 -0.6213
 8146SOL    HW332351   3.999   5.815   2.439 -0.3667  1.8521  0.6640
 8146SOL    MW432352   3.984   5.826   2.354  0.0864 -0.1008  0.1701
 8147SOL     OW32353   1.176   1.257   6.400  0.0092 -0.1614  0.8096
 8147SOL    HW232354   1.083   1.239   6.388 -0.2281  1.0015  0.7733
 8147SOL    HW332355   1.205   1.287   6.314  0.9958 -2.7277  0.1429
 8147SOL    MW432356   1.168   1.258   6.387 -0.1974  0.0843 -0.2714
 8148SOL     OW32357   1.540   1.431   6.168  0.2863  0.4507  0.0761
 8148SOL    HW232358   1.590   1.409   6.246  3.5872  1.1114 -1.7042
 8148SOL    HW332359   1.571   1.370   6.101 -3.4850 -1.0687 -0.5401
 8148SOL    MW432360   1.550   1.420   6.170  0.4270 -0.6827 -0.4439
 8149SOL     OW32361   4.690   6.412   0.619 -0.1546 -0.1692  0.1659
 8149SOL    HW232362   4.680   6.483   0.555  1.4981 -2.3138 -2.6986
 8149SOL    HW332363   4.615   6.355   0.604 -0.8049  0.2440  1.5993
 8149SOL    MW432364   4.679   6.414   0.609 -0.3489  0.0169  0.1038
 8150SOL     OW32365   1.761   3.015   4.023 -0.0023  0.0804 -0.1597
 8150SOL    HW232366   1.666   3.014   4.037  0.0380  1.1646  0.3195
 8150SOL    HW332367   1.775   2.956   3.949 -0.9735 -0.5875  0.1707
 8150SOL    MW432368   1.750   3.007   4.015  0.4027 -0.3073 -0.1147
 8151SOL     OW32369   5.138   4.350   0.574  0.6927 -0.2527  0.0336
 8151SOL    HW232370   5.078   4.304   0.516  0.5771  0.2269 -0.2291
 8151SOL    HW332371   5.119   4.443   0.561  2.7978  0.0398 -1.5502
 8151SOL    MW432372   5.128   4.356   0.565 -0.6606 -0.0062 -0.0565
 8152SOL     OW32373   1.987   0.896   5.881 -0.4747 -0.4066 -0.4178
 8152SOL    HW232374   1.946   0.834   5.821 -3.7438  1.9029 -0.8263
 8152SOL    HW332375   2.012   0.844   5.957 -0.3397 -2.6422 -1.8947
 8152SOL    MW432376   1.985   0.881   5.883 -0.5344  0.3242  0.2097
 8153SOL     OW32377   5.753   4.624   6.281  0.3561  0.0185  0.3591
 8153SOL    HW232378   5.844   4.611   6.253  0.3033  0.0502  0.1751
 8153SOL    HW332379   5.752   4.712   6.318  0.3839  0.0427  0.3014
 8153SOL    MW432380   5.765   4.634   6.283  0.2106 -0.3218  0.3098
 8154SOL     OW32381   1.894   1.377   0.817  1.0755  0.4837 -0.3511
 8154SOL    HW232382   1.908   1.361   0.724  0.0741  1.2368 -0.6445
 8154SOL    HW332383   1.883   1.290   0.856  1.8039  0.1519 -0.8749
 8154SOL    MW432384   1.894   1.363   0.810  0.2838  0.4028 -0.6783
 8155SOL     OW32385   0.525   1.531   4.413 -0.0585  0.3095  0.7450
 8155SOL    HW232386   0.558   1.617   4.387 -0.2392  1.1489  3.1199
 8155SOL    HW332387   0.604   1.477   4.420  0.1800  0.6105  0.4422
 8155SOL    MW432388   0.540   1.535   4.410 -0.3419  0.7948 -0.1762
 8156SOL     OW32389   5.469   6.394   0.687  0.4906  0.2126  0.4438
 8156SOL    HW232390   5.483   6.485   0.714  0.2061  0.2542  0.4521
 8156SOL    HW332391   5.405   6.399   0.616 -2.2869 -0.2214  2.7516
 8156SOL    MW432392   5.462   6.407   0.681  0.3162 -0.1031  0.2770
 8157SOL     OW32393   1.642   1.121   3.226  0.4523  0.3234 -0.0443
 8157SOL    HW232394   1.611   1.094   3.139 -0.3291  0.5811  0.1486
 8157SOL    HW332395   1.708   1.056   3.249  1.3779  0.7843 -1.2478
 8157SOL    MW432396   1.647   1.109   3.217 -0.0166 -0.0818  0.1668
 8158SOL     OW32397   1.202   5.638   2.589  0.2937  0.7266  0.1029
 8158SOL    HW232398   1.155   5.717   2.562  0.7097  0.4526 -1.5644
 8158SOL    HW332399   1.294   5.658   2.570  0.2453 -0.7198 -2.0005
 8158SOL    MW432400   1.208   5.651   2.583 -0.1924 -0.2155 -0.1733
 8159SOL     OW32401   3.879   2.903   2.719 -0.3056 -0.1915 -1.0586
 8159SOL    HW232402   3.835   2.906   2.804  1.6747 -2.4105  0.1594
 8159SOL    HW332403   3.809   2.922   2.656 -2.2208 -0.1205  0.9417
 8159SOL    MW432404   3.864   2.906   2.722  0.0608 -0.0109 -0.0889
 8160SOL     OW32405   4.567   4.518   0.920 -0.9570 -0.8313  0.0629
 8160SOL    HW232406   4.598   4.445   0.973  0.2065 -0.2584  0.2176
 8160SOL    HW332407   4.534   4.582   0.984  0.9660  0.1024  0.2167
 8160SOL    MW432408   4.567   4.517   0.936  0.2498 -0.3964  0.7966
 8161SOL     OW32409   5.767   0.194   6.235  0.5831  0.6712  0.2266
 8161SOL    HW232410   5.696   0.178   6.173  1.7703 -4.0572 -0.2873
 8161SOL    HW332411   5.826   0.255   6.188 -0.4165  0.2724 -1.6622
 8161SOL    MW432412   5.766   0.200   6.220 -0.1443  0.3103 -0.2179
 8162SOL     OW32413   5.995   5.876   1.345 -0.1084 -0.1712  0.1011
 8162SOL    HW232414   5.928   5.891   1.279 -0.6500  1.5281  0.9881
 8162SOL    HW332415   6.077   5.897   1.300 -0.0652 -2.4571 -1.0482
 8162SOL    MW432416   5.997   5.880   1.330  0.1649  0.4315 -0.3996
 8163SOL     OW32417   0.330   4.839   1.738  0.3038 -0.1381  0.1147
 8163SOL    HW232418   0.348   4.910   1.799  0.9842 -0.8051  0.7034
 8163SOL    HW332419   0.366   4.870   1.654  1.5929 -0.2265  0.6111
 8163SOL    MW432420   0.337   4.853   1.735  0.0250 -0.2821  0.7752
 8164SOL     OW32421   3.297   5.928   2.132  0.2896 -0.0561 -0.8095
 8164SOL    HW232422   3.302   6.023   2.135 -2.6135  0.2171 -1.4750
 8164SOL    HW332423   3.253   5.903   2.214  2.2616 -1.0060  0.0150
 8164SOL    MW432424   3.291   5.937   2.143 -0.6008  0.7229 -0.3329
 8165SOL     OW32425   1.117   0.519   0.373 -0.3456 -0.3931 -0.1919
 8165SOL    HW232426   1.112   0.427   0.347 -0.5687 -0.6767  0.8236
 8165SOL    HW332427   1.026   0.549   0.371 -0.4858 -0.6664  1.0762
 8165SOL    MW432428   1.104   0.511   0.369  0.3722  0.1980  0.4892
 8166SOL     OW32429   2.028   5.202   0.578 -0.0714 -0.0171  0.1395
 8166SOL    HW232430   1.975   5.266   0.626 -0.7264  0.2529 -0.9070
 8166SOL    HW332431   1.974   5.178   0.503  0.6044 -1.0245 -0.0371
 8166SOL    MW432432   2.014   5.208   0.574 -0.2355  0.0200 -0.2769
 8167SOL     OW32433   6.236   1.572   3.777 -0.3353 -0.5287 -0.2188
 8167SOL    HW232434   6.174   1.515   3.732 -1.2840 -0.0001  0.3733
 8167SOL    HW332435   6.182   1.622   3.839  0.6212  0.2631  0.0053
 8167SOL    MW432436   6.221   1.571   3.780  0.2153  0.6198  0.0591
 8168SOL     OW32437   0.663   3.517   5.547 -0.4347 -0.1129 -0.4047
 8168SOL    HW232438   0.699   3.467   5.620 -1.3509 -0.5023 -0.1966
 8168SOL    HW332439   0.602   3.456   5.505 -0.8912  0.5354 -0.6892
 8168SOL    MW432440   0.659   3.502   5.551 -0.2326 -0.1186 -0.2610
 8169SOL     OW32441   2.954   5.778   3.872  0.1849 -0.4676  0.3062
 8169SOL    HW232442   2.987   5.856   3.917  0.8998 -0.8508  0.4636
 8169SOL    HW332443   2.936   5.716   3.942  1.4534 -1.1234  0.0893
 8169SOL    MW432444   2.956   5.780   3.887  0.3933  0.2825 -0.1043
 8170SOL     OW32445   2.507   3.869   0.558  0.2425 -0.7973 -0.2675
 8170SOL    HW232446   2.453   3.910   0.625  1.0181  2.4333 -1.4332
 8170SOL    HW332447   2.459   3.881   0.477  2.4589  2.1169 -1.3234
 8170SOL    MW432448   2.494   3.876   0.556 -0.3613 -0.0536  0.2923
 8171SOL     OW32449   3.913   4.527   1.807 -0.5553  0.3083  0.5920
 8171SOL    HW232450   3.918   4.542   1.901 -0.3151 -0.2670  0.6743
 8171SOL    HW332451   3.910   4.432   1.798 -0.8837  0.3706  0.0327
 8171SOL    MW432452   3.913   4.516   1.818  0.7825  0.5673 -0.3656
 8172SOL     OW32453   6.417   0.067   4.518  0.1783  0.1657 -0.2332
 8172SOL    HW232454   6.432   0.081   4.612  1.4302  1.4725 -0.5987
 8172SOL    HW332455   6.491   0.013   4.490  0.9644  1.5101 -0.8465
 8172SOL    MW432456   6.429   0.061   4.527  0.2057 -0.0860 -0.1228
 8173SOL     OW32457   1.266   2.244   5.099 -0.3223 -0.5603  0.5257
 8173SOL    HW232458   1.286   2.245   5.193  1.3297  0.1037  0.2063
 8173SOL    HW332459   1.261   2.336   5.074 -0.2280 -0.7256 -0.1293
 8173SOL    MW432460   1.268   2.256   5.108  0.6613  0.0090 -0.2218
 8174SOL     OW32461   3.761   3.368   4.473 -0.5825  0.0290 -0.4112
 8174SOL    HW232462   3.759   3.342   4.566 -2.1972  0.0737 -0.4077
 8174SOL    HW332463   3.849   3.403   4.460  0.2161 -1.4421  0.6920
 8174SOL    MW432464   3.773   3.369   4.484 -0.3724  0.3256  0.7651
 8175SOL     OW32465   0.454   5.012   5.323 -0.0010  0.4461  0.0004
 8175SOL    HW232466   0.462   4.984   5.414 -0.8902  4.1551  1.4126
 8175SOL    HW332467   0.515   5.086   5.315 -1.4481  1.5543 -1.7164
 8175SOL    MW432468   0.463   5.018   5.334  0.3668  0.5514 -0.0062
 8176SOL     OW32469   2.517   4.209   0.580  0.2835  0.5221 -0.7237
 8176SOL    HW232470   2.592   4.153   0.559  0.5984  0.4653  0.4519
 8176SOL    HW332471   2.450   4.185   0.516  1.3802  0.8325 -2.0410
 8176SOL    MW432472   2.518   4.199   0.569 -0.0883 -0.0096 -0.3687
 8177SOL     OW32473   6.245   0.867   3.333  0.0251  0.3598  0.2377
 8177SOL    HW232474   6.270   0.935   3.395 -2.3247  0.6362  0.9956
 8177SOL    HW332475   6.251   0.910   3.247  2.1040  0.3486  0.3300
 8177SOL    MW432476   6.249   0.882   3.330  0.1106 -0.5758  0.7595
 8178SOL     OW32477   5.617   5.995   1.191 -0.1691 -0.7470 -0.0946
 8178SOL    HW232478   5.545   6.006   1.129 -0.7919 -0.4906  0.6601
 8178SOL    HW332479   5.650   5.907   1.173  0.8177 -0.0471 -1.9620
 8178SOL    MW432480   5.612   5.985   1.180  0.3018  0.2374  0.3531
 8179SOL     OW32481   1.622   6.005   2.190 -0.1323 -0.0860 -0.4831
 8179SOL    HW232482   1.644   6.098   2.186  1.9517 -0.2283  3.0374
 8179SOL    HW332483   1.563   5.990   2.116  2.4429  3.1270 -3.4750
 8179SOL    MW432484   1.617   6.015   2.180  0.3744  0.0486 -0.0505
 8180SOL     OW32485   1.211   3.683   0.636 -0.5894  0.4941 -0.3374
 8180SOL    HW232486   1.290   3.628   0.638 -0.4232  0.6223 -2.0026
 8180SOL    HW332487   1.212   3.724   0.549 -2.7784  0.0508 -0.6407
 8180SOL    MW432488   1.221   3.681   0.625 -0.2681  0.6617  0.0513
 8181SOL     OW32489   1.698   0.566   5.065  0.0732 -0.2962 -0.2485
 8181SOL    HW232490   1.738   0.550   4.979  1.8391  0.9356  0.2919
 8181SOL    HW332491   1.688   0.661   5.069  1.7765 -0.1268  1.6061
 8181SOL    MW432492   1.702   0.576   5.054  0.4038 -0.7414  0.3144
 8182SOL     OW32493   4.779   5.596   5.966  0.0438 -0.0402  0.3950
 8182SOL    HW232494   4.849   5.531   5.964 -0.3503 -0.4552 -0.0833
 8182SOL    HW332495   4.717   5.563   6.030 -0.4719 -0.4747 -0.3141
 8182SOL    MW432496   4.780   5.583   5.974  0.0231 -0.4396  0.2531
 8183SOL     OW32497   2.882   1.107   3.745  0.5095 -0.1335  0.2308
 8183SOL    HW232498   2.801   1.117   3.695  0.6123 -0.9802 -0.1332
 8183SOL    HW332499   2.855   1.119   3.837 -0.1752 -1.1156  0.1744
 8183SOL    MW432500   2.868   1.110   3.751  0.3493 -0.2755 -0.2811
 8184SOL     OW32501   3.238   4.068   1.551  0.0595  0.2738  0.5647
 8184SOL    HW232502   3.314   4.027   1.511  0.5976 -0.5094  2.3071
 8184SOL    HW332503   3.245   4.048   1.644 -0.9125  2.3603  1.1651
 8184SOL    MW432504   3.249   4.060   1.558 -0.3046 -0.0600 -0.4242
 8185SOL     OW32505   2.175   0.455   0.586  0.1062  0.1043 -0.4481
 8185SOL    HW232506   2.239   0.527   0.589  0.2641  0.0620 -2.0739
 8185SOL    HW332507   2.224   0.378   0.616  0.6379  0.2202 -0.9914
 8185SOL    MW432508   2.190   0.454   0.590  0.1200  0.3581  0.0247
 8186SOL     OW32509   2.875   1.276   4.436  0.3570  0.1501 -0.3108
 8186SOL    HW232510   2.899   1.368   4.421 -1.4403  1.4247  3.5148
 8186SOL    HW332511   2.782   1.272   4.413 -0.2938  0.1008  2.1010
 8186SOL    MW432512   2.866   1.288   4.431 -0.5029 -0.0145  0.3477
 8187SOL     OW32513   0.962   1.330   3.506 -0.3400 -0.2861 -0.1424
 8187SOL    HW232514   0.918   1.367   3.429 -1.4184  1.0766  1.0666
 8187SOL    HW332515   1.039   1.385   3.519 -0.6255  0.0297  0.2395
 8187SOL    MW432516   0.966   1.342   3.497 -0.4049 -0.3396  0.3425
 8188SOL     OW32517   4.893   6.185   2.784 -0.1788  0.3656 -0.3103
 8188SOL    HW232518   4.901   6.191   2.689 -1.0547 -1.3244 -0.5310
 8188SOL    HW332519   4.971   6.228   2.818 -0.3498  1.8947 -1.7608
 8188SOL    MW432520   4.904   6.191   2.776 -0.3929  0.0860 -0.1918
 8189SOL     OW32521   2.658   4.032   5.203 -0.1539 -0.1908  0.0525
 8189SOL    HW232522   2.640   3.950   5.156 -1.1834  0.5592 -0.9249
 8189SOL    HW332523   2.598   4.096   5.163 -0.2617  0.7554  1.6360
 8189SOL    MW432524   2.647   4.030   5.191  0.4108  0.0029 -0.0503
 8190SOL     OW32525   0.286   1.217   5.255  1.1292  0.1732 -0.2832
 8190SOL    HW232526   0.351   1.236   5.188  1.4177 -3.4174 -1.2611
 8190SOL    HW332527   0.335   1.173   5.325  0.0124 -1.4736 -0.4787
 8190SOL    MW432528   0.301   1.214   5.256 -0.1076  0.3944  0.0196
 8191SOL     OW32529   0.215   2.311   1.149  0.1571  0.5885 -0.1212
 8191SOL    HW232530   0.132   2.301   1.195  1.6932 -1.7937  2.5153
 8191SOL    HW332531   0.250   2.394   1.181 -0.8562  1.2535 -0.6929
 8191SOL    MW432532   0.209   2.321   1.159  0.0739 -0.1193 -0.0013
 8192SOL     OW32533   4.021   2.643   4.337  0.3660 -0.2841 -0.0821
 8192SOL    HW232534   3.966   2.624   4.262 -3.0197 -1.1264  2.3623
 8192SOL    HW332535   4.095   2.583   4.329  0.5652  0.2548 -3.0887
 8192SOL    MW432536   4.024   2.633   4.326  0.4721  0.5461 -0.4632
 8193SOL     OW32537   4.916   0.054   5.994 -0.2657  0.4041 -0.2357
 8193SOL    HW232538   4.892   0.141   5.961  0.4213  0.4311 -0.6875
 8193SOL    HW332539   4.856   0.039   6.067  0.0336  1.5513  0.2755
 8193SOL    MW432540   4.905   0.064   6.000 -0.1791  0.2890  0.0764
 8194SOL     OW32541   2.987   0.478   5.713 -0.2868  0.4366 -0.3880
 8194SOL    HW232542   2.904   0.490   5.667 -0.1227 -0.8495 -1.0400
 8194SOL    HW332543   2.992   0.553   5.773 -1.3026  1.2133 -1.2473
 8194SOL    MW432544   2.977   0.489   5.715  0.5299 -0.0458  0.0131
 8195SOL     OW32545   4.682   3.795   1.865 -0.0318  0.2765 -0.3008
 8195SOL    HW232546   4.682   3.810   1.959 -1.2126 -0.3629 -0.1782
 8195SOL    HW332547   4.643   3.708   1.854  0.7971 -0.0009 -1.3417
 8195SOL    MW432548   4.677   3.785   1.876 -0.7254 -0.4704 -0.3525
 8196SOL     OW32549   3.847   0.612   1.570 -0.6597  0.2660 -0.1535
 8196SOL    HW232550   3.843   0.522   1.536 -1.5036  0.0067  0.5587
 8196SOL    HW332551   3.770   0.618   1.627  0.2580  0.9267  1.0500
 8196SOL    MW432552   3.836   0.601   1.573 -0.6162 -0.1511  0.0667
 8197SOL     OW32553   2.409   1.421   0.688 -0.2825 -0.1285 -0.3341
 8197SOL    HW232554   2.423   1.399   0.596 -0.0709  0.0580 -0.3471
 8197SOL    HW332555   2.449   1.349   0.737  1.2282  0.6462 -0.3585
 8197SOL    MW432556   2.416   1.409   0.682 -0.1663  0.4330  0.1640
 8198SOL     OW32557   1.330   5.490   1.242  0.3640  0.1355 -0.8273
 8198SOL    HW232558   1.268   5.562   1.246 -1.3019 -1.2361 -0.8977
 8198SOL    HW332559   1.330   5.463   1.150 -2.2273 -2.5401 -0.1822
 8198SOL    MW432560   1.322   5.496   1.230 -0.9791  0.1733 -0.4092
 8199SOL     OW32561   3.776   5.803   3.218  0.0067  0.5568 -0.0677
 8199SOL    HW232562   3.793   5.773   3.308  1.2444 -1.4605 -0.8896
 8199SOL    HW332563   3.859   5.791   3.173 -0.9745  0.0613 -1.8497
 8199SOL    MW432564   3.789   5.797   3.224 -0.0028 -0.4109  0.9433
 8200SOL     OW32565   5.111   3.510   2.547 -0.5472  0.0292 -1.0838
 8200SOL    HW232566   5.153   3.587   2.507  0.2138 -1.0983 -2.5391
 8200SOL    HW332567   5.184   3.454   2.574 -1.0814  0.1282  0.7126
 8200SOL    MW432568   5.126   3.513   2.545 -0.5822 -0.5638 -0.3873
 8201SOL     OW32569   2.023   5.641   1.474 -0.0540 -0.4835 -0.1144
 8201SOL    HW232570   1.938   5.683   1.468  0.6633  0.8089 -3.6369
 8201SOL    HW332571   2.086   5.713   1.467  1.3424 -1.5647  0.7671
 8201SOL    MW432572   2.020   5.656   1.472 -0.4655 -0.4896  0.1737
 8202SOL     OW32573   4.596   2.611   0.176 -0.3407  0.2899 -0.2102
 8202SOL    HW232574   4.601   2.545   0.108  0.5277  0.1293 -0.0055
 8202SOL    HW332575   4.686   2.644   0.184 -0.5184  0.6118  0.5474
 8202SOL    MW432576   4.608   2.607   0.168  0.2184 -0.6288  0.5533
 8203SOL     OW32577   2.177   4.946   4.789 -0.0205  0.0648  0.3817
 8203SOL    HW232578   2.239   4.909   4.851 -0.9773 -2.7575 -0.1916
 8203SOL    HW332579   2.123   5.005   4.841  2.2896  1.6187  1.1333
 8203SOL    MW432580   2.178   4.949   4.804 -0.5810  0.2315  0.0474
 8204SOL     OW32581   6.348   0.107   4.793 -0.4370 -0.1340 -0.0530
 8204SOL    HW232582   6.341   0.033   4.855  0.6781 -1.1102 -1.0386
 8204SOL    HW332583   6.376   0.180   4.847  2.3442 -1.4027  0.4081
 8204SOL    MW432584   6.351   0.107   4.809  1.1318 -0.2613 -0.1428
 8205SOL     OW32585   0.295   1.962   0.941  0.2492  0.7021  0.6357
 8205SOL    HW232586   0.282   2.053   0.914  0.2023 -0.1906 -2.8733
 8205SOL    HW332587   0.360   1.928   0.879 -0.8855 -2.0440  0.8001
 8205SOL    MW432588   0.302   1.969   0.929 -0.3843 -0.1190  0.1455
 8206SOL     OW32589   3.006   3.562   4.882  0.2011  0.1918  0.0414
 8206SOL    HW232590   2.960   3.582   4.963  0.2330  0.4391 -0.0019
 8206SOL    HW332591   3.098   3.581   4.901  0.1081  1.0485 -0.3051
 8206SOL    MW432592   3.012   3.567   4.895 -0.0812 -0.1997  0.7375
 8207SOL     OW32593   0.500   5.690   4.866 -0.6675 -0.1892 -0.2526
 8207SOL    HW232594   0.529   5.610   4.822  1.0652  0.4446 -0.3799
 8207SOL    HW332595   0.477   5.749   4.794 -0.3511 -0.0284 -0.2239
 8207SOL    MW432596   0.501   5.688   4.850 -0.2308 -0.3984  0.2316
 8208SOL     OW32597   4.109   2.182   2.020 -0.0224  0.3292 -0.5074
 8208SOL    HW232598   4.090   2.106   1.966 -1.4562 -0.4781  1.0261
 8208SOL    HW332599   4.087   2.154   2.109  1.4676  1.8541  0.4008
 8208SOL    MW432600   4.103   2.169   2.025  0.3286 -0.6506 -0.1148
 8209SOL     OW32601   4.665   2.227   3.453  0.4011  0.7412  0.3526
 8209SOL    HW232602   4.709   2.212   3.370 -0.7876  1.1574 -0.3834
 8209SOL    HW332603   4.572   2.216   3.433  0.1426 -0.0834  1.8403
 8209SOL    MW432604   4.658   2.224   3.439 -0.2795  0.0157 -0.8838
 8210SOL     OW32605   3.061   5.233   2.023 -0.1032  0.0316  0.4230
 8210SOL    HW232606   3.050   5.237   1.929 -0.0033  0.0118  0.4096
 8210SOL    HW332607   3.022   5.314   2.056 -1.9295 -0.8464  0.5462
 8210SOL    MW432608   3.055   5.244   2.015 -0.0178  0.2577 -0.4019
 8211SOL     OW32609   2.016   5.897   6.104  1.1434  0.1000 -0.4794
 8211SOL    HW232610   1.967   5.974   6.135 -0.8208 -1.0586 -0.4970
 8211SOL    HW332611   1.950   5.828   6.099  3.1991 -2.2669  1.7823
 8211SOL    MW432612   2.001   5.898   6.107 -0.0057  0.0729 -0.4751
 8212SOL     OW32613   5.982   0.777   3.352 -0.0067 -0.0285  0.5029
 8212SOL    HW232614   6.068   0.817   3.339 -0.6025  1.0220 -0.3505
 8212SOL    HW332615   5.939   0.833   3.416 -0.9779  0.9765 -0.9607
 8212SOL    MW432616   5.988   0.790   3.359 -0.3371  0.3142  0.3614
 8213SOL     OW32617   4.041   1.163   4.354  0.4861 -0.4061 -0.0742
 8213SOL    HW232618   4.099   1.238   4.350  1.6131 -0.9684  3.0445
 8213SOL    HW332619   4.085   1.101   4.413 -3.3281 -0.7157  2.8446
 8213SOL    MW432620   4.054   1.164   4.361  0.1992  0.8923 -0.2894
 8214SOL     OW32621   5.913   2.663   2.776 -0.2595 -0.0822 -0.1456
 8214SOL    HW232622   5.985   2.697   2.830  0.8327 -0.4524 -1.3198
 8214SOL    HW332623   5.956   2.615   2.706 -1.6639 -0.2694 -0.9208
 8214SOL    MW432624   5.928   2.661   2.774  0.4886  0.5497  0.7097
 8215SOL     OW32625   4.750   4.718   4.266  0.2223  0.3274  0.7270
 8215SOL    HW232626   4.656   4.707   4.282 -0.5588  3.1347 -1.1356
 8215SOL    HW332627   4.768   4.664   4.189  0.5264 -1.3793  1.9592
 8215SOL    MW432628   4.740   4.710   4.258  0.5589  0.0722  0.4088
 8216SOL     OW32629   5.106   0.524   2.456  0.3657  0.2839 -0.1559
 8216SOL    HW232630   5.035   0.559   2.403  1.1072  1.9589 -0.1368
 8216SOL    HW332631   5.081   0.546   2.546 -0.7588 -2.3014  0.2385
 8216SOL    MW432632   5.093   0.532   2.461 -0.3719 -0.0849 -0.1217
 8217SOL     OW32633   4.141   1.219   3.386  0.2009  0.4407 -0.3098
 8217SOL    HW232634   4.212   1.269   3.346  1.6456  0.5340  2.1752
 8217SOL    HW332635   4.179   1.183   3.467 -1.8708 -1.5967 -0.1279
 8217SOL    MW432636   4.156   1.221   3.392 -0.3310  0.0108 -1.0357
 8218SOL     OW32637   2.476   3.728   6.044  0.2389 -0.1657  0.1600
 8218SOL    HW232638   2.517   3.685   6.119  0.4256  2.0101  1.3921
 8218SOL    HW332639   2.543   3.725   5.975  1.1542  0.2714  1.0076
 8218SOL    MW432640   2.490   3.722   6.045 -0.3496  0.0789  0.2171
 8219SOL     OW32641   0.067   6.383   1.363  0.5205 -0.4596  0.0029
 8219SOL    HW232642   0.014   6.460   1.343 -0.2900 -0.9179  0.3468
 8219SOL    HW332643   0.135   6.383   1.295 -0.6421 -0.5491 -1.2031
 8219SOL    MW432644   0.069   6.393   1.351  0.3937  0.8905  0.5465
 8220SOL     OW32645   0.827   4.308   0.650 -0.1524 -0.3002 -0.1192
 8220SOL    HW232646   0.852   4.400   0.649  0.1020 -0.3519  0.9767
 8220SOL    HW332647   0.736   4.308   0.619 -0.1290  0.3068 -0.2000
 8220SOL    MW432648   0.818   4.320   0.646 -0.4762 -0.2525 -0.4192
 8221SOL     OW32649   2.821   0.430   1.764  0.5561 -0.1438 -0.5682
 8221SOL    HW232650   2.813   0.505   1.705 -0.2962  0.9719  0.8884
 8221SOL    HW332651   2.881   0.460   1.832 -2.0172  0.3646  1.6223
 8221SOL    MW432652   2.828   0.444   1.765 -0.1387 -0.5065  0.5852
 8222SOL     OW32653   2.071   1.353   2.202 -0.4113 -0.3660  0.2373
 8222SOL    HW232654   2.141   1.326   2.261 -0.1367  0.2654  0.2084
 8222SOL    HW332655   2.110   1.346   2.114  0.6063  2.6365  0.3296
 8222SOL    MW432656   2.086   1.348   2.198 -0.7638  0.1006 -0.3618
 8223SOL     OW32657   4.186   3.337   4.235 -0.4012 -0.4412 -0.3205
 8223SOL    HW232658   4.160   3.424   4.203  1.0680 -0.5067 -1.8236
 8223SOL    HW332659   4.180   3.280   4.159 -0.2416 -1.4168  0.3771
 8223SOL    MW432660   4.182   3.341   4.221 -0.3509 -0.6879  0.5419
 8224SOL     OW32661   1.224   4.934   0.814 -0.1367 -0.4138  0.0981
 8224SOL    HW232662   1.288   4.996   0.848 -1.6148  0.5270  1.2986
 8224SOL    HW332663   1.189   4.976   0.735 -0.1288 -0.3582  0.1239
 8224SOL    MW432664   1.228   4.948   0.808  0.2332  0.4035  0.0097
 8225SOL     OW32665   3.988   4.964   4.076  0.0174 -0.2346  0.8252
 8225SOL    HW232666   3.957   4.873   4.079  0.8209 -0.5368  0.3081
 8225SOL    HW332667   3.980   4.995   4.166 -0.1346 -0.8608  1.0375
 8225SOL    MW432668   3.983   4.956   4.088  0.2488  0.4386  0.0435
 8226SOL     OW32669   6.355   4.293   2.818 -0.2271 -0.0063  0.2504
 8226SOL    HW232670   6.280   4.260   2.769 -0.9068  0.5209  0.9233
 8226SOL    HW332671   6.320   4.318   2.903  0.3857  1.6630  0.0651
 8226SOL    MW432672   6.341   4.292   2.823  0.5501 -0.8016 -0.0561
 8227SOL     OW32673   0.222   5.948   4.306  0.1115 -0.2589  0.1646
 8227SOL    HW232674   0.248   5.862   4.340  0.9693 -0.0654  0.0161
 8227SOL    HW332675   0.290   6.007   4.336  1.3295 -0.1852 -2.4161
 8227SOL    MW432676   0.234   5.944   4.314  0.0353  0.0041 -1.1210
 8228SOL     OW32677   4.900   4.373   4.810 -0.2120  0.0876  0.4992
 8228SOL    HW232678   4.877   4.362   4.718  1.7320  1.7963 -0.2535
 8228SOL    HW332679   4.984   4.418   4.809 -0.5689  0.9950  3.1191
 8228SOL    MW432680   4.908   4.377   4.798  0.9673  0.3116  0.3095
 8229SOL     OW32681   1.741   2.866   3.494 -0.2199  0.0355 -0.0628
 8229SOL    HW232682   1.814   2.838   3.440 -1.1806 -0.1582 -1.3104
 8229SOL    HW332683   1.708   2.945   3.451 -0.3825  0.4780  0.8338
 8229SOL    MW432684   1.746   2.873   3.481  0.1226  0.9910  0.1879
 8230SOL     OW32685   6.178   4.510   5.055  0.0156  0.3498 -0.2872
 8230SOL    HW232686   6.214   4.466   4.978  1.9724  1.6307 -0.1902
 8230SOL    HW332687   6.124   4.444   5.098  0.3514 -0.9498 -1.7729
 8230SOL    MW432688   6.176   4.496   5.050  0.2629 -0.7225 -0.3524
 8231SOL     OW32689   0.777   0.664   3.953 -0.0652 -0.8062 -0.2708
 8231SOL    HW232690   0.777   0.570   3.935 -1.9256 -1.0085  0.5680
 8231SOL    HW332691   0.789   0.671   4.048 -1.0488 -0.2646 -0.1745
 8231SOL    MW432692   0.779   0.653   3.963 -0.2832 -0.3443 -0.0405
 8232SOL     OW32693   5.999   1.852   3.465  0.7416  0.2158  0.0779
 8232SOL    HW232694   5.911   1.820   3.448  0.3143  0.6796  1.2945
 8232SOL    HW332695   6.011   1.924   3.402 -0.1101  0.7435  0.4975
 8232SOL    MW432696   5.989   1.858   3.454 -0.2144  0.0161  0.3543
 8233SOL     OW32697   3.045   5.308   6.112  0.4972 -0.0834 -0.3444
 8233SOL    HW232698   2.986   5.239   6.084  0.1886 -0.0376  0.1840
 8233SOL    HW332699   3.047   5.301   6.208 -0.3451  1.2847 -0.1938
 8233SOL    MW432700   3.038   5.298   6.121 -0.2861  0.1801 -0.6698
 8234SOL     OW32701   4.582   1.873   3.966  0.2483 -0.0941 -0.2712
 8234SOL    HW232702   4.675   1.896   3.964  0.0044  1.0100  0.3028
 8234SOL    HW332703   4.537   1.951   3.934 -0.5520 -0.1385  0.6969
 8234SOL    MW432704   4.589   1.887   3.961  0.4157 -0.3719  0.3053
 8235SOL     OW32705   4.011   5.544   4.359  0.2129 -0.1241  0.4147
 8235SOL    HW232706   4.064   5.471   4.327  0.7000 -0.1162  1.1948
 8235SOL    HW332707   4.074   5.614   4.378 -0.1288  0.0875  0.7972
 8235SOL    MW432708   4.026   5.544   4.357  0.3606 -0.3284 -0.2287
 8236SOL     OW32709   0.621   0.927   3.577 -0.5547  0.0051  0.0659
 8236SOL    HW232710   0.632   0.956   3.486  2.6245  0.2151  0.3909
 8236SOL    HW332711   0.647   0.834   3.574 -0.7873 -0.0797  0.7063
 8236SOL    MW432712   0.626   0.918   3.564  0.0810 -0.2063 -0.3042
 8237SOL     OW32713   2.030   5.541   6.031  0.6779  0.4307 -0.2279
 8237SOL    HW232714   2.032   5.601   5.957  2.4370 -0.6074 -1.0774
 8237SOL    HW332715   1.936   5.522   6.044  0.2032  2.2340 -0.8188
 8237SOL    MW432716   2.018   5.546   6.023  0.2613  0.0300 -0.3087
 8238SOL     OW32717   1.850   2.104   5.142 -0.1486 -0.0853 -0.3710
 8238SOL    HW232718   1.919   2.102   5.076  0.7303  0.8736  0.4801
 8238SOL    HW332719   1.771   2.132   5.095  0.5342  0.8960 -0.9662
 8238SOL    MW432720   1.849   2.108   5.127  0.5276  0.1659  0.7542
 8239SOL     OW32721   2.237   2.052   0.228  0.1172  0.0561 -0.2420
 8239SOL    HW232722   2.281   1.982   0.179 -0.2137 -0.4986  0.2398
 8239SOL    HW332723   2.266   2.133   0.185 -0.1534 -0.4106 -1.3508
 8239SOL    MW432724   2.247   2.054   0.216  0.0115 -0.2412  0.1356
 8240SOL     OW32725   5.809   2.275   1.375 -0.2855  0.3563 -0.9375
 8240SOL    HW232726   5.797   2.197   1.429  0.9146  0.2443 -0.8111
 8240SOL    HW332727   5.830   2.240   1.288  1.3106  0.4938 -0.6451
 8240SOL    MW432728   5.810   2.260   1.371  0.1501  0.4289  0.7186
 8241SOL     OW32729   4.321   1.563   3.021  0.2413  0.5300  0.0307
 8241SOL    HW232730   4.325   1.533   3.112 -0.0147  0.6911  0.0950
 8241SOL    HW332731   4.367   1.495   2.971 -1.6061 -0.7350 -0.0280
 8241SOL    MW432732   4.328   1.550   3.026 -0.3343 -0.5250  0.5908
 8242SOL     OW32733   0.780   1.707   3.412 -0.1264 -0.0836 -0.4005
 8242SOL    HW232734   0.754   1.625   3.455 -0.2070  0.0147 -0.2609
 8242SOL    HW332735   0.819   1.759   3.482  0.7442 -0.3519 -0.6706
 8242SOL    MW432736   0.782   1.703   3.427 -0.8328  0.4006 -0.6743
 8243SOL     OW32737   3.149   0.978   4.719  0.3620 -0.0283 -0.7562
 8243SOL    HW232738   3.152   1.030   4.798  1.3207 -1.2281  0.0376
 8243SOL    HW332739   3.235   0.989   4.679  1.0188 -1.8940  0.0538
 8243SOL    MW432740   3.160   0.986   4.724 -0.4710  0.2828 -0.4056
 8244SOL     OW32741   4.391   3.371   0.493 -0.6217 -0.2375  0.2803
 8244SOL    HW232742   4.310   3.329   0.463 -0.8158 -0.7678  1.4778
 8244SOL    HW332743   4.439   3.302   0.538  0.5392  0.0643 -0.4447
 8244SOL    MW432744   4.386   3.356   0.495 -0.6264  0.0162 -0.3383
 8245SOL     OW32745   4.263   4.205   5.417 -0.3982 -0.0333 -0.6367
 8245SOL    HW232746   4.222   4.143   5.478 -0.4944 -0.1298 -0.7985
 8245SOL    HW332747   4.198   4.215   5.346 -1.0969  1.5039  0.1732
 8245SOL    MW432748   4.249   4.198   5.416 -0.1582  0.5553 -0.2787
 8246SOL     OW32749   6.286   5.766   0.338  0.7923 -0.1461  0.1088
 8246SOL    HW232750   6.282   5.673   0.318 -0.3785 -0.2975  0.9459
 8246SOL    HW332751   6.225   5.778   0.410 -0.3984  1.5685 -1.0983
 8246SOL    MW432752   6.278   5.756   0.345 -0.4606  0.3120 -0.0951
 8247SOL     OW32753   5.746   0.340   1.056  0.0638 -0.2336 -0.3977
 8247SOL    HW232754   5.828   0.331   1.008  0.1119 -0.1309 -0.3354
 8247SOL    HW332755   5.771   0.333   1.148 -0.0861 -0.8881 -0.3973
 8247SOL    MW432756   5.760   0.338   1.062 -0.6435  0.3317  0.7023
 8248SOL     OW32757   2.660   6.038   6.159  0.9643  0.2316 -0.3888
 8248SOL    HW232758   2.633   5.987   6.236  3.4959 -0.1568  0.3330
 8248SOL    HW332759   2.684   5.972   6.094  0.2185  0.5567 -1.0067
 8248SOL    MW432760   2.660   6.022   6.161  0.0540  0.1150  0.8827
 8249SOL     OW32761   0.207   2.288   2.094 -0.2445 -0.1034 -0.8750
 8249SOL    HW232762   0.217   2.234   2.172 -1.0425 -0.5431 -1.0644
 8249SOL    HW332763   0.290   2.334   2.085  0.6158 -1.6397 -0.9724
 8249SOL    MW432764   0.219   2.287   2.103 -0.2693  0.4803  0.1497
 8250SOL     OW32765   1.444   4.077   5.381 -0.0833  0.2304  0.2817
 8250SOL    HW232766   1.460   3.991   5.421  0.5924  0.1467 -0.1455
 8250SOL    HW332767   1.389   4.058   5.305 -1.8608  0.4554  1.4487
 8250SOL    MW432768   1.439   4.063   5.376  0.0731  0.2946 -0.8643
 8251SOL     OW32769   0.256   4.798   2.800 -0.1427  0.3647 -0.7438
 8251SOL    HW232770   0.230   4.861   2.733  0.2234  1.4097  0.0782
 8251SOL    HW332771   0.175   4.752   2.822 -1.2310  2.9362  1.1154
 8251SOL    MW432772   0.242   4.800   2.794  0.0948 -0.5309  0.2081
 8252SOL     OW32773   2.864   3.976   6.066 -0.5406 -0.2174 -0.2100
 8252SOL    HW232774   2.792   4.031   6.097  1.3810  2.6667 -0.3460
 8252SOL    HW332775   2.913   3.954   6.145 -2.0774 -3.1264  0.0199
 8252SOL    MW432776   2.861   3.981   6.080 -0.0798  0.7618  0.6283
 8253SOL     OW32777   5.928   4.276   1.323 -0.1551  0.3887 -0.3631
 8253SOL    HW232778   5.946   4.218   1.397 -0.2524  0.1024 -0.5599
 8253SOL    HW332779   6.012   4.320   1.307  0.4265 -0.9964 -1.3189
 8253SOL    MW432780   5.942   4.274   1.331  0.1307 -0.0608  0.4920
 8254SOL     OW32781   1.756   4.166   1.916 -0.1486  0.3286 -0.0276
 8254SOL    HW232782   1.791   4.231   1.855  0.9580  0.9553  1.2180
 8254SOL    HW332783   1.821   4.095   1.913 -0.5511 -0.0363 -0.2208
 8254SOL    MW432784   1.769   4.165   1.907 -0.0786 -0.5492  0.5427
 8255SOL     OW32785   3.836   6.301   3.114 -0.0468  0.0759 -0.7058
 8255SOL    HW232786   3.855   6.280   3.022 -1.6674 -1.4552 -0.7523
 8255SOL    HW332787   3.817   6.216   3.154  0.3170  0.7616  0.9862
 8255SOL    MW432788   3.836   6.287   3.107  0.4777  0.2622 -0.2573
 8256SOL     OW32789   2.843   5.599   1.748  0.0438  0.0373  0.2389
 8256SOL    HW232790   2.868   5.625   1.659 -1.5899  1.3550  0.1076
 8256SOL    HW332791   2.759   5.554   1.736  0.6689 -1.3537  0.9537
 8256SOL    MW432792   2.835   5.597   1.735 -0.2336 -0.1270  0.1961
 8257SOL     OW32793   0.657   5.559   3.599 -0.1798 -0.4070  0.2248
 8257SOL    HW232794   0.750   5.542   3.613 -0.2771  0.3452  2.0245
 8257SOL    HW332795   0.626   5.595   3.682 -1.5876  1.4452 -1.0055
 8257SOL    MW432796   0.665   5.562   3.612  0.1701 -0.0801 -0.4219
 8258SOL     OW32797   3.260   3.818   3.854  0.2473 -0.1326 -0.3278
 8258SOL    HW232798   3.205   3.830   3.931 -0.7196 -2.4764 -0.5419
 8258SOL    HW332799   3.208   3.854   3.782  0.3686  0.4539 -0.1266
 8258SOL    MW432800   3.246   3.824   3.854 -0.1608  0.2880 -0.2095
 8259SOL     OW32801   6.381   1.980   2.627 -0.6074 -0.4427 -0.4082
 8259SOL    HW232802   6.425   2.064   2.640  1.2749 -1.5100  0.5096
 8259SOL    HW332803   6.384   1.967   2.532 -1.3445  0.6986 -0.6177
 8259SOL    MW432804   6.387   1.990   2.616 -0.1962  0.2298  0.2711
 8260SOL     OW32805   0.198   6.301   4.426  0.2446  0.2790  0.1343
 8260SOL    HW232806   0.235   6.229   4.477  0.5438  1.2657  1.3429
 8260SOL    HW332807   0.268   6.325   4.364  1.2204  1.3165  1.5753
 8260SOL    MW432808   0.212   6.295   4.424 -0.3399 -0.2881  0.1496
 8261SOL     OW32809   4.291   0.187   0.638  0.3628  0.1122 -0.0117
 8261SOL    HW232810   4.318   0.248   0.707  1.5914  0.1104 -0.4712
 8261SOL    HW332811   4.335   0.219   0.559  0.6788 -1.1029 -0.3464
 8261SOL    MW432812   4.300   0.199   0.637 -0.1270  0.1486 -0.5042
 8262SOL     OW32813   3.019   0.650   4.465 -0.8027 -0.6215  0.6312
 8262SOL    HW232814   2.940   0.645   4.520 -0.0720 -1.4428  1.6649
 8262SOL    HW332815   3.091   0.632   4.526  0.0710 -1.1912 -0.5349
 8262SOL    MW432816   3.018   0.647   4.480  0.4967  0.3907 -0.3795
 8263SOL     OW32817   1.959   4.906   3.802  0.1074 -0.2024  0.6445
 8263SOL    HW232818   1.929   4.955   3.726 -0.0477 -3.0516 -1.2572
 8263SOL    HW332819   1.889   4.919   3.867 -0.3694  1.2476 -0.0930
 8263SOL    MW432820   1.946   4.915   3.801 -0.1752 -0.2102 -0.0880
 8264SOL     OW32821   6.286   0.344   2.623  0.5092  0.2158 -0.1718
 8264SOL    HW232822   6.218   0.411   2.634  0.8395  0.5361 -0.0383
 8264SOL    HW332823   6.298   0.337   2.529  1.1751  1.0774 -0.1678
 8264SOL    MW432824   6.278   0.352   2.612 -0.3208  0.1556 -0.1765
 8265SOL     OW32825   0.668   0.109   0.888 -0.0369 -0.5722 -0.0489
 8265SOL    HW232826   0.683   0.187   0.835  1.2738 -0.1915  0.8270
 8265SOL    HW332827   0.725   0.043   0.851 -1.0336 -1.0941 -0.6927
 8265SOL    MW432828   0.677   0.111   0.876  0.1483  0.1315 -0.6430
 8266SOL     OW32829   1.130   5.545   6.123  0.4769 -0.2287 -0.1343
 8266SOL    HW232830   1.205   5.569   6.070  0.5920 -2.0774 -0.8775
 8266SOL    HW332831   1.155   5.463   6.165 -0.7477 -0.3561  0.3915
 8266SOL    MW432832   1.143   5.538   6.121  0.1802 -0.9330 -0.1349
 8267SOL     OW32833   5.804   5.272   1.286 -0.0789  0.1079 -0.0678
 8267SOL    HW232834   5.847   5.201   1.333 -0.9575  0.6241  1.5910
 8267SOL    HW332835   5.856   5.350   1.305  0.5406  0.0540 -1.3974
 8267SOL    MW432836   5.816   5.273   1.295  0.3722 -0.3076  0.0139
 8268SOL     OW32837   4.659   5.592   5.720  0.2424 -0.0672  0.3597
 8268SOL    HW232838   4.595   5.648   5.765 -1.1433 -0.4179 -1.0475
 8268SOL    HW332839   4.734   5.588   5.779 -1.4740 -0.5853  2.6581
 8268SOL    MW432840   4.660   5.599   5.733  0.0661  0.6051 -0.4972
 8269SOL     OW32841   1.717   5.949   4.779 -0.6007  0.1840 -0.3676
 8269SOL    HW232842   1.787   5.886   4.761 -0.2669  0.8975 -1.6970
 8269SOL    HW332843   1.650   5.898   4.824  0.4341 -0.6963  0.2244
 8269SOL    MW432844   1.717   5.934   4.782 -0.7169 -0.3445 -0.2601
 8270SOL     OW32845   2.225   0.490   4.729  0.5767  0.0999 -0.0010
 8270SOL    HW232846   2.261   0.410   4.690  0.5071  1.1280 -2.2675
 8270SOL    HW332847   2.282   0.560   4.698 -1.4864  1.3797 -1.1210
 8270SOL    MW432848   2.238   0.488   4.720 -0.2520  0.5329 -0.1939
 8271SOL     OW32849   5.848   0.484   5.094 -0.4584 -0.2149 -0.0541
 8271SOL    HW232850   5.798   0.457   5.017  0.1281  1.8934 -1.2556
 8271SOL    HW332851   5.820   0.573   5.112  1.2803  0.2676  0.5405
 8271SOL    MW432852   5.838   0.492   5.086  0.2033  0.6550 -0.3514
 8272SOL     OW32853   6.226   2.129   2.938 -0.3691  0.7332 -0.3956
 8272SOL    HW232854   6.246   2.070   3.011 -1.7388 -1.0473 -1.3592
 8272SOL    HW332855   6.177   2.074   2.876  0.8399  2.1074 -2.7278
 8272SOL    MW432856   6.223   2.114   2.939  0.4363  0.4076  0.0748
 8273SOL     OW32857   1.574   2.516   1.370 -0.6192  0.7236 -0.0698
 8273SOL    HW232858   1.484   2.536   1.345 -1.0197 -1.1260 -0.2227
 8273SOL    HW332859   1.569   2.430   1.412  1.1338  0.3494 -0.5458
 8273SOL    MW432860   1.561   2.507   1.372  0.3019  0.4161 -0.2358
 8274SOL     OW32861   0.709   4.694   4.043 -0.0521  0.3843 -0.1297
 8274SOL    HW232862   0.672   4.700   3.955  1.3818 -1.6940 -0.9305
 8274SOL    HW332863   0.688   4.605   4.072  1.7409  0.1360  0.5368
 8274SOL    MW432864   0.701   4.683   4.035 -0.2685 -0.0883  0.0267
 8275SOL     OW32865   5.112   1.926   5.438 -0.1473 -0.4393  0.5041
 8275SOL    HW232866   5.112   2.006   5.386  0.5493 -0.7340  0.0347
 8275SOL    HW332867   5.198   1.924   5.481 -0.3689 -0.6575  0.9473
 8275SOL    MW432868   5.123   1.936   5.437 -0.6659  0.5946  0.3555
 8276SOL     OW32869   2.532   0.720   3.271 -0.1810 -0.4913 -0.5709
 8276SOL    HW232870   2.559   0.742   3.182  1.1488 -0.6072 -0.2218
 8276SOL    HW332871   2.501   0.803   3.308  0.9548 -0.0399 -0.5781
 8276SOL    MW432872   2.531   0.734   3.264  0.0842 -0.6999 -0.3553
 8277SOL     OW32873   3.746   4.491   0.898 -0.0890 -0.1036 -0.1529
 8277SOL    HW232874   3.677   4.549   0.933 -0.6139 -0.8285  0.0386
 8277SOL    HW332875   3.701   4.408   0.882  0.4515 -0.1865 -1.3013
 8277SOL    MW432876   3.731   4.488   0.900  0.3972 -0.7500  0.1374
 8278SOL     OW32877   5.428   0.052   4.135  0.0409 -0.3961  0.5204
 8278SOL    HW232878   5.514   0.092   4.120  0.2440 -0.7317  0.7782
 8278SOL    HW332879   5.379   0.070   4.055 -0.2646  1.3500  1.0670
 8278SOL    MW432880   5.433   0.060   4.122 -0.1465  0.4967 -0.1282
 8279SOL     OW32881   3.613   3.806   6.395 -0.2159  0.0547 -0.0501
 8279SOL    HW232882   3.668   3.883   6.380  1.4324 -0.8402  1.1247
 8279SOL    HW332883   3.592   3.775   6.307  0.0341  1.2028 -0.5313
 8279SOL    MW432884   3.618   3.812   6.381 -0.0249  0.1989  0.3479
 8280SOL     OW32885   5.613   4.616   5.469  0.1249 -0.2195 -0.0836
 8280SOL    HW232886   5.607   4.653   5.558 -1.2911 -0.2097 -0.1699
 8280SOL    HW332887   5.595   4.523   5.481  0.0105 -0.2313 -0.3474
 8280SOL    MW432888   5.610   4.609   5.483  0.2498 -0.4894  0.2013
 8281SOL     OW32889   4.761   4.331   5.162 -0.5166  0.0232 -0.1738
 8281SOL    HW232890   4.686   4.373   5.202 -0.6790  0.5737 -1.0121
 8281SOL    HW332891   4.836   4.384   5.190 -0.8096  1.4551 -1.9078
 8281SOL    MW432892   4.761   4.343   5.171 -0.7811 -0.3522 -0.6239
 8282SOL     OW32893   3.639   2.816   4.197  0.3279 -0.5620 -0.0902
 8282SOL    HW232894   3.593   2.892   4.231  0.2503 -0.9419  0.6775
 8282SOL    HW332895   3.571   2.760   4.160  0.5646  0.6595 -2.5966
 8282SOL    MW432896   3.624   2.819   4.197  0.2649 -1.0312 -0.1566
 8283SOL     OW32897   5.206   1.020   0.668 -0.0123  0.0074  0.4168
 8283SOL    HW232898   5.163   1.083   0.724  0.7974 -0.1293  1.2123
 8283SOL    HW332899   5.241   0.954   0.728  1.8698  0.4564 -0.1179
 8283SOL    MW432900   5.205   1.019   0.683  0.4865  0.2377  0.0912
 8284SOL     OW32901   6.360   0.953   2.943 -0.1149  0.0502  0.4697
 8284SOL    HW232902   6.338   0.860   2.939 -0.0845  0.0152  0.9887
 8284SOL    HW332903   6.310   0.986   3.017 -0.4545  0.5427  0.0221
 8284SOL    MW432904   6.351   0.945   2.952  0.2221 -0.5729 -0.4826
 8285SOL     OW32905   2.778   3.544   2.265 -0.3743 -0.0914  0.1249
 8285SOL    HW232906   2.716   3.585   2.325  0.1927  1.2064 -0.1533
 8285SOL    HW332907   2.726   3.523   2.188 -0.7621 -0.2984  0.4369
 8285SOL    MW432908   2.763   3.546   2.263  0.5011 -0.4784  0.4079
 8286SOL     OW32909   3.947   2.328   1.326  0.3650 -0.3864  0.0629
 8286SOL    HW232910   3.996   2.410   1.335 -0.6480  0.0933  1.5237
 8286SOL    HW332911   4.013   2.259   1.337  1.1553  0.2106 -0.7743
 8286SOL    MW432912   3.962   2.329   1.329 -0.8829  0.0912 -0.2556
 8287SOL     OW32913   1.387   2.927   2.641  0.2461  0.3821  0.8963
 8287SOL    HW232914   1.350   2.998   2.589  0.8205  1.3481  1.7633
 8287SOL    HW332915   1.311   2.872   2.663 -0.5382  1.7710  1.7910
 8287SOL    MW432916   1.372   2.929   2.637  0.1852 -0.2137  0.1028
 8288SOL     OW32917   3.467   2.376   4.953  0.5686  0.3276 -0.4994
 8288SOL    HW232918   3.461   2.467   4.981 -0.6790  0.1607 -0.1730
 8288SOL    HW332919   3.482   2.380   4.859 -1.4319  0.8952 -0.8406
 8288SOL    MW432920   3.468   2.388   4.944 -0.6404 -0.0301  0.3392
 8289SOL     OW32921   0.503   5.956   5.633 -0.5866  0.3281  0.1475
 8289SOL    HW232922   0.566   6.020   5.667 -0.0239 -0.9063  1.5104
 8289SOL    HW332923   0.425   6.008   5.614 -0.7025  1.2419  2.7332
 8289SOL    MW432924   0.501   5.972   5.635 -0.2057 -0.1795 -0.0343
 8290SOL     OW32925   3.325   4.367   1.333 -0.1990  0.2339  0.0821
 8290SOL    HW232926   3.321   4.358   1.428  1.8307  0.2790  0.1998
 8290SOL    HW332927   3.307   4.279   1.300 -0.5097  0.1329  0.5049
 8290SOL    MW432928   3.322   4.354   1.341 -0.1739 -0.2453 -0.6293
 8291SOL     OW32929   5.676   1.150   0.791  0.5206  0.0985 -0.0251
 8291SOL    HW232930   5.641   1.155   0.702 -1.7010  0.0134  0.7800
 8291SOL    HW332931   5.766   1.180   0.783  0.1084  0.9566 -2.1626
 8291SOL    MW432932   5.683   1.154   0.779  0.0082 -0.0390  0.2515
 8292SOL     OW32933   5.900   3.111   3.275  0.0523  0.2709  0.5072
 8292SOL    HW232934   5.881   3.186   3.330  0.0142  0.7981 -0.2035
 8292SOL    HW332935   5.923   3.149   3.190  1.4105 -0.4585  0.5231
 8292SOL    MW432936   5.901   3.126   3.271  0.3981  0.5598 -0.0752
 8293SOL     OW32937   1.040   2.406   4.616 -0.1245 -0.8721  0.2003
 8293SOL    HW232938   1.015   2.458   4.692  0.8447 -0.4073  0.2090
 8293SOL    HW332939   0.970   2.341   4.608 -1.2261  0.2542  0.3466
 8293SOL    MW432940   1.027   2.404   4.625  0.0130  0.1323 -0.2351
 8294SOL     OW32941   3.535   5.805   5.670  0.3863  0.0944  0.4130
 8294SOL    HW232942   3.488   5.888   5.665  0.1989 -0.0616 -0.7222
 8294SOL    HW332943   3.522   5.765   5.584  0.9234 -0.8677  0.7651
 8294SOL    MW432944   3.527   5.811   5.658  0.4540  0.5317 -0.2166
 8295SOL     OW32945   6.235   2.022   5.856  0.4374 -0.7610  0.2072
 8295SOL    HW232946   6.260   1.988   5.770 -1.7705  0.0711 -0.8493
 8295SOL    HW332947   6.261   2.114   5.854 -0.5312 -0.4813  0.0048
 8295SOL    MW432948   6.242   2.030   5.844  0.2347 -0.0343 -0.0468
 8296SOL     OW32949   1.865   1.135   5.958 -0.1695 -0.0378 -0.2035
 8296SOL    HW232950   1.902   1.146   6.045 -0.2801 -1.0329 -0.0206
 8296SOL    HW332951   1.886   1.044   5.934 -0.4883  0.0998 -1.0426
 8296SOL    MW432952   1.873   1.124   5.966  0.4500  0.0135  0.6801
 8297SOL     OW32953   2.770   1.019   6.270  0.6290 -0.5286  0.7685
 8297SOL    HW232954   2.766   0.959   6.196 -0.3076 -0.8020  1.0306
 8297SOL    HW332955   2.740   1.103   6.236  1.5038 -0.3079  0.5141
 8297SOL    MW432956   2.766   1.022   6.256  1.1055  0.2420 -0.0881
 8298SOL     OW32957   4.833   0.863   6.332  0.3454 -0.0568 -0.2387
 8298SOL    HW232958   4.756   0.808   6.335  1.0549 -1.3647 -2.7299
 8298SOL    HW332959   4.892   0.827   6.399 -1.2774  1.2771  2.0468
 8298SOL    MW432960   4.831   0.851   6.341 -0.0958 -0.3987  0.5691
 8299SOL     OW32961   4.110   1.349   0.404  0.0119 -0.2108  0.0239
 8299SOL    HW232962   4.090   1.415   0.469  1.3223  1.2217 -0.9337
 8299SOL    HW332963   4.204   1.361   0.386 -0.0122 -1.4504 -1.1266
 8299SOL    MW432964   4.120   1.359   0.410  0.4719  0.0016  0.1377
 8300SOL     OW32965   2.336   5.178   1.984 -0.6085 -0.8467  0.1332
 8300SOL    HW232966   2.323   5.244   1.915  1.3490  1.4252  1.7796
 8300SOL    HW332967   2.377   5.104   1.940 -0.0246  0.2695 -1.2612
 8300SOL    MW432968   2.339   5.177   1.969 -0.5353  0.6213  0.2769
 8301SOL     OW32969   4.703   3.032   6.266  1.2647  0.1306  0.8162
 8301SOL    HW232970   4.726   3.024   6.173  2.5719 -1.5782  1.2283
 8301SOL    HW332971   4.783   3.065   6.307  1.2955 -0.8603  1.5771
 8301SOL    MW432972   4.717   3.035   6.259  0.1821 -0.2281 -0.6275
 8302SOL     OW32973   3.424   1.284   0.518 -0.0648  0.1610 -0.0737
 8302SOL    HW232974   3.473   1.218   0.567  1.0194 -0.7694 -2.2970
 8302SOL    HW332975   3.334   1.252   0.519  0.1935 -0.5805  0.1184
 8302SOL    MW432976   3.418   1.271   0.525  0.3785 -0.2798  0.2231
 8303SOL     OW32977   1.531   4.474   4.279  0.1445  0.2793 -0.4793
 8303SOL    HW232978   1.497   4.538   4.215 -0.6859  0.5058  0.1721
 8303SOL    HW332979   1.455   4.450   4.331  0.6358 -0.5903 -0.1429
 8303SOL    MW432980   1.517   4.479   4.277  0.4288  0.1543  0.5037
 8304SOL     OW32981   0.313   2.027   3.693 -0.1700  0.9705 -0.0618
 8304SOL    HW232982   0.327   1.977   3.613  0.1051  0.5536  0.2367
 8304SOL    HW332983   0.391   2.082   3.700  0.7649 -0.3878  0.9058
 8304SOL    MW432984   0.325   2.028   3.684  0.4390  0.1305  0.0480
 8305SOL     OW32985   4.585   3.415   1.960  0.0767  0.4760 -0.7375
 8305SOL    HW232986   4.545   3.362   2.029  0.0324 -1.1378 -1.9288
 8305SOL    HW332987   4.671   3.438   1.995  0.6329 -1.5158 -0.6385
 8305SOL    MW432988   4.591   3.411   1.974 -0.1799 -0.7014  0.2806
 8306SOL     OW32989   2.317   1.512   5.536 -0.0637  0.0889  0.4605
 8306SOL    HW232990   2.353   1.575   5.474 -1.7993  1.1728  0.4786
 8306SOL    HW332991   2.381   1.508   5.607  0.4203  1.3042  0.1123
 8306SOL    MW432992   2.330   1.519   5.538  0.4099  0.0782 -0.0914
 8307SOL     OW32993   5.328   5.775   4.666 -0.3870  0.8887  0.3879
 8307SOL    HW232994   5.283   5.716   4.606 -0.6252 -1.1859  2.4690
 8307SOL    HW332995   5.353   5.720   4.740  2.8134  2.6082  0.7693
 8307SOL    MW432996   5.325   5.760   4.668  0.1134 -0.3657 -0.5743
 8308SOL     OW32997   3.209   0.509   3.966 -1.3103 -0.3173  0.2147
 8308SOL    HW232998   3.158   0.439   4.007 -0.6169 -1.7580 -1.2663
 8308SOL    HW332999   3.190   0.501   3.872  0.7404 -0.1653 -0.2597
 8308SOL    MW433000   3.199   0.499   3.959 -0.0640  0.5388  0.0411
 8309SOL     OW33001   5.757   0.265   3.694  0.0539 -0.0389 -0.1963
 8309SOL    HW233002   5.680   0.217   3.723  0.5999  0.0667  1.5453
 8309SOL    HW333003   5.823   0.248   3.761  1.0886  1.0329 -0.8877
 8309SOL    MW433004   5.756   0.257   3.707 -0.5148 -0.0810 -1.3094
 8310SOL     OW33005   0.769   0.203   4.212 -0.0261 -0.2827 -0.0878
 8310SOL    HW233006   0.770   0.289   4.254 -2.4255 -0.7466  1.1343
 8310SOL    HW333007   0.854   0.164   4.234  1.4727  2.0374 -1.4020
 8310SOL    MW433008   0.780   0.209   4.221 -0.1676  0.8824 -0.4290
 8311SOL     OW33009   0.435   5.555   0.703  0.2542  0.2101 -0.4920
 8311SOL    HW233010   0.340   5.553   0.712  0.3305  0.3480  0.4124
 8311SOL    HW333011   0.461   5.639   0.739  0.8847 -0.6168  1.1029
 8311SOL    MW433012   0.426   5.566   0.709  0.2661  0.0246 -0.0737
 8312SOL     OW33013   1.588   3.035   0.245 -0.5377 -0.2716  0.5918
 8312SOL    HW233014   1.679   3.008   0.255 -0.3975 -0.2046 -0.3634
 8312SOL    HW333015   1.589   3.129   0.266 -0.4275 -0.3197  0.8024
 8312SOL    MW433016   1.600   3.044   0.249  0.3740 -0.1938 -0.1690
 8313SOL     OW33017   5.952   1.540   5.431  0.2353 -0.0173 -0.2677
 8313SOL    HW233018   5.943   1.607   5.498  1.3376  0.3927 -0.5065
 8313SOL    HW333019   6.029   1.489   5.459 -0.9512 -1.5871  0.2508
 8313SOL    MW433020   5.961   1.542   5.444 -0.3210  0.7282 -0.5746
 8314SOL     OW33021   2.023   0.676   5.136 -0.3674  0.2045 -0.3120
 8314SOL    HW233022   1.934   0.671   5.172  0.0895  2.0897  1.2439
 8314SOL    HW333023   2.069   0.602   5.175 -1.0494 -0.3435 -0.5307
 8314SOL    MW433024   2.017   0.665   5.146 -0.3345 -0.3120  0.2159
 8315SOL     OW33025   5.127   5.390   1.532  0.2498  0.4949  0.1448
 8315SOL    HW233026   5.129   5.435   1.447 -0.1366  0.0807 -0.0839
 8315SOL    HW333027   5.096   5.302   1.513  1.0492  0.1060  0.5905
 8315SOL    MW433028   5.123   5.385   1.518  0.2528  0.0437 -0.6207
 8316SOL     OW33029   4.561   4.474   3.228 -0.0279  0.6856  0.0210
 8316SOL    HW233030   4.557   4.468   3.133 -1.4397  0.0801  0.0883
 8316SOL    HW333031   4.475   4.444   3.258  0.4040  0.8054  1.4933
 8316SOL    MW433032   4.549   4.469   3.220 -0.2146  0.0967  0.0760
 8317SOL     OW33033   0.324   2.052   0.375  0.2382 -0.9001  0.1791
 8317SOL    HW233034   0.411   2.026   0.346  0.7397  0.7557  0.1305
 8317SOL    HW333035   0.338   2.131   0.426 -1.2455 -0.5861  0.1372
 8317SOL    MW433036   0.337   2.059   0.378  0.8921 -0.2657 -0.3147
 8318SOL     OW33037   4.413   1.186   0.149 -0.2720  0.0833 -0.1402
 8318SOL    HW233038   4.438   1.135   0.072  1.3425  1.4407 -0.5748
 8318SOL    HW333039   4.474   1.158   0.217 -2.0663 -1.5521  0.9164
 8318SOL    MW433040   4.424   1.175   0.148  0.8264  1.1812  0.6274
 8319SOL     OW33041   5.515   4.286   4.735  0.5586  0.5868  0.1904
 8319SOL    HW233042   5.478   4.249   4.815  1.4693 -0.4465  0.1589
 8319SOL    HW333043   5.499   4.218   4.668  1.3385  0.6833 -0.1057
 8319SOL    MW433044   5.508   4.272   4.737  0.0938  0.0021 -0.3594
 8320SOL     OW33045   5.706   3.007   3.028  0.0812  0.0045  0.2620
 8320SOL    HW233046   5.624   2.968   3.056  0.0479 -1.2221 -1.3762
 8320SOL    HW333047   5.728   2.962   2.946  1.2030  1.9025 -0.5734
 8320SOL    MW433048   5.698   2.996   3.021 -0.1407  0.0390 -0.1715
 8321SOL     OW33049   2.779   2.970   3.690 -0.8598 -0.0423  0.0210
 8321SOL    HW233050   2.863   2.968   3.644 -0.5992 -1.6344  0.4891
 8321SOL    HW333051   2.802   2.968   3.783 -1.3221 -2.8030  0.1909
 8321SOL    MW433052   2.793   2.969   3.696  0.2576  0.3997 -0.6677
 8322SOL     OW33053   1.609   3.570   0.147 -0.0528  0.3864 -0.0406
 8322SOL    HW233054   1.613   3.590   0.240 -0.4488  0.6200 -0.0701
 8322SOL    HW333055   1.515   3.571   0.126  0.0246  0.2102 -0.4119
 8322SOL    MW433056   1.597   3.573   0.156 -0.3648 -0.1141  0.0673
 8323SOL     OW33057   1.760   1.867   2.821 -0.7993  0.4114  0.3470
 8323SOL    HW233058   1.736   1.774   2.823  0.0888  0.1675 -0.2626
 8323SOL    HW333059   1.710   1.903   2.748 -1.4615  0.5158  0.8369
 8323SOL    MW433060   1.750   1.859   2.812  0.3261 -0.3067 -0.3326
 8324SOL     OW33061   0.755   4.942   3.858  0.2169 -0.3032 -0.1488
 8324SOL    HW233062   0.773   4.964   3.767 -1.8392 -2.1371 -1.1017
 8324SOL    HW333063   0.819   4.873   3.879  0.0057 -0.6443 -0.5983
 8324SOL    MW433064   0.766   4.936   3.848  0.1976  0.0254  0.4816
 8325SOL     OW33065   1.262   4.577   0.612 -0.4673 -0.2751 -0.2636
 8325SOL    HW233066   1.340   4.612   0.656  0.0273 -0.0869 -1.2508
 8325SOL    HW333067   1.282   4.585   0.519 -0.5047 -2.8145 -0.5382
 8325SOL    MW433068   1.275   4.583   0.605  0.4952  0.0498 -0.2988
 8326SOL     OW33069   0.490   4.830   3.745  0.0211 -0.0704 -0.5506
 8326SOL    HW233070   0.532   4.824   3.659 -1.6947  1.0062 -1.5175
 8326SOL    HW333071   0.545   4.891   3.795  0.5502 -0.0317 -1.1643
 8326SOL    MW433072   0.503   4.837   3.740 -0.3628 -0.3830  0.2601
 8327SOL     OW33073   1.266   3.690   1.967  0.2257  0.2128  0.4138
 8327SOL    HW233074   1.328   3.695   2.040 -0.1269  1.7398  0.6327
 8327SOL    HW333075   1.182   3.669   2.009  0.2066  0.1412  0.3397
 8327SOL    MW433076   1.263   3.688   1.982  0.0732  0.7379  0.3335
 8328SOL     OW33077   3.426   1.983   1.699  0.5594 -0.1687  0.1505
 8328SOL    HW233078   3.401   1.925   1.771  0.4156 -0.3390 -0.0374
 8328SOL    HW333079   3.391   2.068   1.724  1.5518  0.0545  0.8720
 8328SOL    MW433080   3.418   1.986   1.712  0.0192 -0.3162 -0.8765
 8329SOL     OW33081   2.988   0.280   3.640 -0.0144  0.4890 -0.0680
 8329SOL    HW233082   2.894   0.290   3.627 -0.3604  0.0479  1.8631
 8329SOL    HW333083   3.021   0.369   3.650  0.2384  0.8632 -3.1284
 8329SOL    MW433084   2.980   0.293   3.639  0.1160 -0.4940 -0.6753
 8330SOL     OW33085   2.101   0.422   1.951  0.5314 -0.1394  0.1538
 8330SOL    HW233086   2.072   0.422   1.859 -0.1648  0.0357  0.3648
 8330SOL    HW333087   2.192   0.450   1.947  0.3242  0.4770 -0.4330
 8330SOL    MW433088   2.109   0.425   1.938  0.2936  0.0177  0.2104
 8331SOL     OW33089   1.242   3.953   1.947 -0.4821 -0.7512  0.3081
 8331SOL    HW233090   1.240   3.859   1.929  3.0404 -0.8945 -0.0625
 8331SOL    HW333091   1.283   3.960   2.033  1.0021  0.4523 -0.4583
 8331SOL    MW433092   1.247   3.941   1.956 -0.0102  0.2657  0.1665
 8332SOL     OW33093   6.095   5.717   4.298 -0.1255  0.2314  0.2994
 8332SOL    HW233094   6.025   5.689   4.355  0.1920  0.0674  0.6127
 8332SOL    HW333095   6.169   5.733   4.356  0.4262 -0.6581 -0.1369
 8332SOL    MW433096   6.096   5.715   4.313  0.0902  0.1887 -0.1844
 8333SOL     OW33097   2.719   6.360   6.036  0.2214 -0.3428 -0.3250
 8333SOL    HW233098   2.757   6.396   6.116 -0.8276 -3.5262  1.8384
 8333SOL    HW333099   2.625   6.375   6.045  0.0083 -1.4487 -0.4539
 8333SOL    MW433100   2.712   6.366   6.048 -0.5384  0.8655 -0.1856
 8334SOL     OW33101   0.709   1.400   1.175  0.2900  0.3144  0.1430
 8334SOL    HW233102   0.761   1.457   1.119  1.8017  1.0057  2.1347
 8334SOL    HW333103   0.691   1.323   1.121 -0.3905  1.9404 -2.0488
 8334SOL    MW433104   0.714   1.397   1.160  0.5833 -0.6762  0.9020
 8335SOL     OW33105   5.994   3.266   1.653 -0.8597 -0.1025 -0.1295
 8335SOL    HW233106   6.086   3.290   1.640 -0.0918 -2.5795  0.2837
 8335SOL    HW333107   5.960   3.255   1.564 -0.5088  0.0059 -0.2788
 8335SOL    MW433108   6.002   3.268   1.639  0.1180 -0.4370 -0.2481
 8336SOL     OW33109   4.407   3.938   4.397 -0.5005  1.0904 -0.2910
 8336SOL    HW233110   4.359   3.950   4.315 -1.9462 -0.1515  0.3203
 8336SOL    HW333111   4.486   3.891   4.372 -1.4936 -0.3519 -0.8575
 8336SOL    MW433112   4.411   3.934   4.383  0.3841 -0.4827  0.0650
 8337SOL     OW33113   1.857   4.491   5.220 -0.0148  0.0159 -0.2217
 8337SOL    HW233114   1.774   4.467   5.261 -1.0278  1.0461 -1.5703
 8337SOL    HW333115   1.832   4.552   5.150  1.9392  0.7908 -0.2954
 8337SOL    MW433116   1.842   4.496   5.216  0.6265 -0.6983 -0.1643
 8338SOL     OW33117   1.808   0.632   3.421  0.4520  0.1248 -0.2215
 8338SOL    HW233118   1.889   0.581   3.431  0.6469  0.4808  0.0599
 8338SOL    HW333119   1.751   0.599   3.491 -0.1491 -1.0493 -1.2351
 8338SOL    MW433120   1.811   0.621   3.432 -0.3986 -0.0297  0.1439
 8339SOL     OW33121   0.561   1.211   0.983  0.1275 -0.0719  0.0189
 8339SOL    HW233122   0.545   1.118   0.967  1.1190 -0.2135 -0.2338
 8339SOL    HW333123   0.475   1.248   1.001 -0.4201 -0.8255 -0.9722
 8339SOL    MW433124   0.548   1.204   0.983 -0.1163 -0.2966  0.2609
 8340SOL     OW33125   1.455   5.342   1.449 -0.1229 -0.4203  0.3913
 8340SOL    HW233126   1.409   5.388   1.378 -0.4441  0.4151  1.1221
 8340SOL    HW333127   1.517   5.284   1.404 -0.4892 -0.0838 -0.5723
 8340SOL    MW433128   1.457   5.340   1.434 -0.0911  0.2117 -0.7518
 8341SOL     OW33129   3.136   3.319   5.879  0.3429 -0.2428 -0.0460
 8341SOL    HW233130   3.190   3.244   5.853  0.9959  0.1252  0.2242
 8341SOL    HW333131   3.046   3.292   5.859  0.5458 -1.1843  0.2626
 8341SOL    MW433132   3.131   3.306   5.873 -0.0325 -0.4213  0.0992
 8342SOL     OW33133   4.874   5.296   5.257 -0.0098  0.0879  0.1003
 8342SOL    HW233134   4.927   5.220   5.281 -0.5070 -0.7119 -1.2154
 8342SOL    HW333135   4.789   5.281   5.299  0.2991  0.6010  0.9356
 8342SOL    MW433136   4.870   5.284   5.265  0.1735  0.2350 -0.2834
 8343SOL     OW33137   1.118   6.304   2.170  0.3228  0.7073 -0.3337
 8343SOL    HW233138   1.139   6.273   2.258 -1.2560 -0.3014 -0.2780
 8343SOL    HW333139   1.114   6.400   2.180  0.4943  0.6339  0.6032
 8343SOL    MW433140   1.120   6.313   2.183 -0.6034 -0.5136  0.1138
 8344SOL     OW33141   2.347   5.925   5.006  0.6446 -0.1681 -0.0155
 8344SOL    HW233142   2.332   6.002   5.061  1.2072  0.6699 -1.0010
 8344SOL    HW333143   2.302   5.854   5.052 -0.7909  0.9451  0.4001
 8344SOL    MW433144   2.339   5.926   5.020 -0.5558  1.3741  0.1004
 8345SOL     OW33145   0.681   3.120   4.962  0.0639 -0.6412  0.8012
 8345SOL    HW233146   0.618   3.187   4.939  0.9236 -0.1832 -0.3131
 8345SOL    HW333147   0.755   3.168   5.000  0.0874 -1.1014  1.3630
 8345SOL    MW433148   0.683   3.135   4.964 -0.0662 -0.0022  0.5116
 8346SOL     OW33149   4.710   3.030   0.471  0.1879  0.5994 -0.0694
 8346SOL    HW233150   4.701   2.935   0.480  0.4534  0.6666  0.9971
 8346SOL    HW333151   4.748   3.042   0.384  1.9829 -0.4020  0.5165
 8346SOL    MW433152   4.714   3.019   0.460  0.2605  0.2757 -0.3266
 8347SOL     OW33153   3.544   1.976   4.019 -0.3940  0.2472  0.5262
 8347SOL    HW233154   3.583   1.961   4.105  0.5180  1.1671  0.3064
 8347SOL    HW333155   3.455   2.005   4.038 -0.2326  0.3548  1.1649
 8347SOL    MW433156   3.538   1.978   4.033 -0.1050 -0.2824  0.2199
 8348SOL     OW33157   4.023   3.376   3.200 -0.0499  0.2376 -0.2764
 8348SOL    HW233158   3.945   3.425   3.177  0.4319  1.1662  0.0161
 8348SOL    HW333159   3.990   3.297   3.243 -0.8377  0.2826 -0.7876
 8348SOL    MW433160   4.009   3.372   3.203 -0.2674  0.2136  0.8727
 8349SOL     OW33161   1.104   1.668   0.945 -0.1284  0.4799  0.0503
 8349SOL    HW233162   1.156   1.674   1.025  0.3928  0.5003 -0.2840
 8349SOL    HW333163   1.103   1.756   0.910  1.3331  0.1020 -1.0058
 8349SOL    MW433164   1.110   1.680   0.951  0.3695  0.1434  0.1411
 8350SOL     OW33165   1.732   4.307   4.570  0.1900 -0.5246 -0.1045
 8350SOL    HW233166   1.731   4.390   4.522  1.2477 -0.7966 -0.6342
 8350SOL    HW333167   1.747   4.332   4.661  2.0671 -0.1801 -0.4679
 8350SOL    MW433168   1.734   4.321   4.576 -0.3481 -0.0286  0.2281
 8351SOL     OW33169   4.972   3.372   1.843  0.4264 -0.4941  0.4214
 8351SOL    HW233170   4.991   3.421   1.763  1.5601 -0.6959  0.5394
 8351SOL    HW333171   4.935   3.436   1.903 -2.2967 -0.7367 -0.8738
 8351SOL    MW433172   4.970   3.387   1.841 -0.1406  0.4112 -0.0309
 8352SOL     OW33173   1.855   0.331   3.814 -0.4392 -0.1489 -0.0270
 8352SOL    HW233174   1.786   0.266   3.826 -0.8066  0.0203 -1.0621
 8352SOL    HW333175   1.810   0.407   3.777  0.3101 -0.1072 -0.9067
 8352SOL    MW433176   1.840   0.333   3.811  0.1528 -0.8986  0.4281
 8353SOL     OW33177   6.296   0.301   3.661  0.1325  0.2882 -0.1548
 8353SOL    HW233178   6.296   0.215   3.619  1.6355 -0.6807  1.6870
 8353SOL    HW333179   6.386   0.313   3.692 -0.4817  1.6979  1.2211
 8353SOL    MW433180   6.308   0.291   3.659 -0.6504  0.6803 -0.0791
 8354SOL     OW33181   2.249   6.333   5.028 -0.4737  0.2147  0.2115
 8354SOL    HW233182   2.209   6.297   4.949  1.0255  1.5339 -1.2300
 8354SOL    HW333183   2.334   6.290   5.033  0.7468  2.3528 -0.7334
 8354SOL    MW433184   2.255   6.322   5.018  0.4583  0.4113  0.6531
 8355SOL     OW33185   4.195   6.336   0.718  0.1257  0.1764  0.0081
 8355SOL    HW233186   4.220   6.428   0.707 -0.2769  0.3708  0.7155
 8355SOL    HW333187   4.133   6.320   0.646  0.7992  0.2208 -0.6023
 8355SOL    MW433188   4.190   6.346   0.707 -0.4176  0.1128 -0.1288
 8356SOL     OW33189   3.479   0.932   5.140 -0.0764 -0.5428  0.4325
 8356SOL    HW233190   3.575   0.939   5.131 -0.1703  0.8540  0.2771
 8356SOL    HW333191   3.463   0.942   5.234 -0.1395  0.2549  0.3369
 8356SOL    MW433192   3.490   0.934   5.151  0.2298 -0.3143 -0.1328
 8357SOL     OW33193   3.380   0.068   1.254  0.0303  0.7168  0.6471
 8357SOL    HW233194   3.403   0.051   1.163  1.8198 -1.9565  1.4897
 8357SOL    HW333195   3.464   0.079   1.298 -0.7870  1.7384  2.0463
 8357SOL    MW433196   3.394   0.068   1.248 -0.3974 -0.0185  0.3762
 8358SOL     OW33197   5.146   4.162   1.575  0.4119 -0.1947  0.0268
 8358SOL    HW233198   5.165   4.176   1.668  0.8146  2.2161 -0.3477
 8358SOL    HW333199   5.228   4.125   1.540  0.4478 -0.5894  0.5036
 8358SOL    MW433200   5.160   4.159   1.583  0.2018  0.4227 -0.0308
 8359SOL     OW33201   2.629   5.124   3.483  0.2303  0.9711 -0.5371
 8359SOL    HW233202   2.626   5.179   3.561 -1.4095 -1.1111  0.9683
 8359SOL    HW333203   2.654   5.037   3.515 -2.2610 -0.3895 -1.9608
 8359SOL    MW433204   2.632   5.120   3.497 -0.2738 -0.7241  0.6126
 8360SOL     OW33205   4.540   2.175   3.036  0.6319  0.2065  0.1630
 8360SOL    HW233206   4.550   2.097   3.090  0.0441 -0.6790 -0.9659
 8360SOL    HW333207   4.446   2.181   3.019  0.4354  2.1201  1.5756
 8360SOL    MW433208   4.529   2.166   3.041 -0.3801  0.1258 -0.5107
 8361SOL     OW33209   4.266   5.652   1.904  0.1889 -0.0614  0.0082
 8361SOL    HW233210   4.324   5.576   1.892  3.2845  2.0384  0.3464
 8361SOL    HW333211   4.226   5.638   1.990  0.1911 -1.6017 -0.2177
 8361SOL    MW433212   4.268   5.640   1.914  0.0768  0.4234  0.0610
 8362SOL     OW33213   4.636   1.135   0.340  0.3928  0.3836 -0.0168
 8362SOL    HW233214   4.659   1.044   0.322  1.0590  0.6354 -0.5192
 8362SOL    HW333215   4.712   1.170   0.388  0.5312  0.8927 -0.5820
 8362SOL    MW433216   4.649   1.128   0.344  0.0229 -0.5049  0.4506
 8363SOL     OW33217   4.153   0.559   4.976  0.0742 -0.3668  0.3443
 8363SOL    HW233218   4.164   0.470   4.942 -1.4711 -0.0801 -1.0186
 8363SOL    HW333219   4.181   0.616   4.905 -1.6232  0.2414  0.1196
 8363SOL    MW433220   4.158   0.555   4.962 -0.2410 -0.3596  0.6998
 8364SOL     OW33221   1.751   4.551   4.425 -0.4398 -1.1959  0.0485
 8364SOL    HW233222   1.741   4.602   4.506  1.0653 -1.8628  0.6851
 8364SOL    HW333223   1.661   4.536   4.395 -0.9914 -0.2542  1.1601
 8364SOL    MW433224   1.738   4.556   4.432 -0.0753  0.6422  0.0864
 8365SOL     OW33225   4.342   0.628   4.748 -0.4145  0.6207 -0.5362
 8365SOL    HW233226   4.326   0.624   4.653 -0.0517  0.1338 -0.5759
 8365SOL    HW333227   4.357   0.537   4.774  0.0154  0.8127 -0.1020
 8365SOL    MW433228   4.342   0.616   4.739 -0.0561 -0.4333 -0.2652
 8366SOL     OW33229   2.939   3.050   3.440  0.3674 -0.0600 -0.0168
 8366SOL    HW233230   3.005   3.109   3.403  1.3321 -0.5715  0.8175
 8366SOL    HW333231   2.989   2.973   3.468 -0.6550 -0.6497  0.2425
 8366SOL    MW433232   2.954   3.047   3.439 -0.1402  0.7319 -0.2725
 8367SOL     OW33233   2.951   4.087   3.976  0.1213  0.1330  0.0376
 8367SOL    HW233234   2.923   4.132   4.056 -1.1200 -0.3226 -0.1142
 8367SOL    HW333235   2.900   4.006   3.975  0.3590 -0.0193 -1.0522
 8367SOL    MW433236   2.940   4.082   3.986  0.7160 -0.2089  0.3015
 8368SOL     OW33237   2.575   3.838   3.838 -0.0653 -0.5536 -0.3611
 8368SOL    HW233238   2.530   3.776   3.779 -0.4899  0.4461 -1.1123
 8368SOL    HW333239   2.593   3.914   3.783  2.0697 -0.6773  0.0658
 8368SOL    MW433240   2.571   3.840   3.823  0.2296  0.6453  0.2964
 8369SOL     OW33241   4.919   4.232   3.804 -0.1895 -0.1607  0.6179
 8369SOL    HW233242   4.913   4.287   3.882  0.2943 -0.4776  0.8855
 8369SOL    HW333243   4.838   4.250   3.756  0.7019  2.0710 -0.1700
 8369SOL    MW433244   4.907   4.241   3.808 -0.1957  0.3092 -0.0640
 8370SOL     OW33245   3.679   1.624   0.875  0.3787 -0.5063  0.4399
 8370SOL    HW233246   3.753   1.682   0.894  2.8616 -3.5481  0.7767
 8370SOL    HW333247   3.647   1.597   0.961 -1.2269  0.7666  0.2970
 8370SOL    MW433248   3.684   1.628   0.889 -0.6630 -0.0518  0.2508
 8371SOL     OW33249   1.899   6.387   1.992  0.3921 -0.2475  0.1908
 8371SOL    HW233250   1.987   6.403   1.956 -0.5994  0.9980 -1.8624
 8371SOL    HW333251   1.859   6.474   1.996 -1.1435 -0.9149  0.0151
 8371SOL    MW433252   1.906   6.401   1.988 -0.2181  0.7960 -0.2300
 8372SOL     OW33253   0.845   0.369   2.858  0.1521  0.0120 -0.1915
 8372SOL    HW233254   0.912   0.302   2.847 -0.4731 -0.6743  0.1233
 8372SOL    HW333255   0.763   0.326   2.833 -0.3731  0.4112  0.7780
 8372SOL    MW433256   0.843   0.355   2.853  0.6399 -0.3943  0.8295
 8373SOL     OW33257   5.684   5.674   4.235 -0.0468 -0.4820  0.1413
 8373SOL    HW233258   5.601   5.635   4.207  1.3541 -2.0163 -2.2274
 8373SOL    HW333259   5.751   5.628   4.183  2.2081  1.4457  1.1539
 8373SOL    MW433260   5.682   5.663   4.224  0.4994 -0.0322 -0.0673
 8374SOL     OW33261   2.347   0.122   1.816 -0.4147 -0.1111 -0.1866
 8374SOL    HW233262   2.435   0.098   1.843 -1.6652 -1.7652  2.8662
 8374SOL    HW333263   2.298   0.040   1.814 -2.0620  0.8205 -1.3036
 8374SOL    MW433264   2.352   0.108   1.819  0.1721 -0.3073 -0.6807
 8375SOL     OW33265   5.497   2.449   2.717 -0.2115 -0.1007 -0.0598
 8375SOL    HW233266   5.469   2.373   2.665  0.4252  0.2025 -0.8498
 8375SOL    HW333267   5.592   2.439   2.725  0.1361  1.5075 -1.6402
 8375SOL    MW433268   5.506   2.437   2.711  0.4110  0.4927  0.2015
 8376SOL     OW33269   3.849   1.945   2.139 -0.1051  0.4739 -0.6795
 8376SOL    HW233270   3.849   1.940   2.044 -0.5468 -0.1656 -0.6534
 8376SOL    HW333271   3.761   1.916   2.165 -0.1512  1.1192 -0.0993
 8376SOL    MW433272   3.837   1.940   2.130 -0.0496 -0.4374 -0.5295
 8377SOL     OW33273   1.692   5.188   5.500  0.2571  0.2618 -0.4382
 8377SOL    HW233274   1.654   5.105   5.470 -0.5252  1.3362 -2.6495
 8377SOL    HW333275   1.714   5.235   5.419  2.6171  1.3807  0.7540
 8377SOL    MW433276   1.690   5.183   5.485 -0.1893 -0.3545  0.4675
 8378SOL     OW33277   0.645   3.877   4.516  0.0365 -0.1373 -0.4061
 8378SOL    HW233278   0.630   3.924   4.598  0.3671 -0.7825  0.0329
 8378SOL    HW333279   0.740   3.878   4.504 -0.0924  1.3818 -1.6517
 8378SOL    MW433280   0.656   3.883   4.525  0.2469  0.2352  0.0600
 8379SOL     OW33281   5.394   3.783   0.082 -0.1838  0.4637 -0.6180
 8379SOL    HW233282   5.459   3.833   0.132 -1.0114  2.2813 -1.2820
 8379SOL    HW333283   5.312   3.829   0.097 -1.2371 -1.3798 -0.3608
 8379SOL    MW433284   5.392   3.795   0.091 -0.4752  0.4977 -0.1467
 8380SOL     OW33285   2.659   1.138   1.646  0.0798  0.5679 -0.1920
 8380SOL    HW233286   2.667   1.048   1.676 -2.2129  0.2285 -0.4210
 8380SOL    HW333287   2.650   1.131   1.551 -1.4255  0.8785 -0.1047
 8380SOL    MW433288   2.659   1.125   1.637 -0.7121  0.9140 -0.6435
 8381SOL     OW33289   3.298   1.747   1.840 -0.5801  0.0909  0.9032
 8381SOL    HW233290   3.254   1.681   1.787  1.2283  0.2231 -0.8993
 8381SOL    HW333291   3.333   1.698   1.914  0.7025 -1.0500 -0.3835
 8381SOL    MW433292   3.297   1.732   1.843 -0.0642 -0.2432  0.3767
 8382SOL     OW33293   5.354   0.997   5.524  0.4834 -0.0388  0.1769
 8382SOL    HW233294   5.371   1.034   5.438  0.5802  1.2037  0.7131
 8382SOL    HW333295   5.438   1.004   5.570  0.8917 -2.1740 -0.1222
 8382SOL    MW433296   5.367   1.003   5.519 -0.9955  0.6132 -0.4906
 8383SOL     OW33297   3.905   6.049   5.630  0.0554  0.7159  0.2536
 8383SOL    HW233298   3.886   5.978   5.692  1.4439  0.7259  0.7279
 8383SOL    HW333299   3.868   6.127   5.671 -1.5596  0.2782 -0.3101
 8383SOL    MW433300   3.898   6.050   5.644 -0.1123 -0.0901  0.1590
 8384SOL     OW33301   5.345   0.913   3.931  0.4825  0.4613 -0.1781
 8384SOL    HW233302   5.424   0.923   3.984  0.3097  0.0834  0.1569
 8384SOL    HW333303   5.284   0.977   3.968  0.8332  1.1886 -0.8351
 8384SOL    MW433304   5.347   0.923   3.943  0.1678  0.2257  0.0858
 8385SOL     OW33305   2.576   4.833   3.795 -0.2868  0.4342  0.6924
 8385SOL    HW233306   2.493   4.857   3.754 -0.5147 -0.7522  0.4124
 8385SOL    HW333307   2.587   4.894   3.867 -0.8727  1.2865  0.0669
 8385SOL    MW433308   2.566   4.844   3.799 -0.5507  0.4568 -0.0926
 8386SOL     OW33309   2.928   0.823   4.244  0.0374  0.3059 -0.5358
 8386SOL    HW233310   2.954   0.799   4.155  0.7022 -1.3129  0.0665
 8386SOL    HW333311   2.972   0.760   4.300 -0.0969  1.4963  0.9918
 8386SOL    MW433312   2.937   0.812   4.239  0.7861  0.7721  0.5596
 8387SOL     OW33313   4.216   0.078   1.561  0.4267  0.8190  0.2974
 8387SOL    HW233314   4.212  -0.017   1.570 -1.4374  0.5659 -2.3001
 8387SOL    HW333315   4.136   0.110   1.604  0.5500  1.1285  0.3023
 8387SOL    MW433316   4.205   0.070   1.568 -0.2703  0.1653  0.1794
 8388SOL     OW33317   0.609   4.007   4.248  0.2391 -0.7008  0.7114
 8388SOL    HW233318   0.609   3.946   4.322  0.8010 -0.5605  0.8327
 8388SOL    HW333319   0.702   4.019   4.227  0.0543 -2.4603 -1.4472
 8388SOL    MW433320   0.621   4.001   4.255 -0.7441 -0.4049  0.0651
 8389SOL     OW33321   5.397   2.491   0.371 -0.2671 -0.1825  0.2328
 8389SOL    HW233322   5.303   2.496   0.388 -0.0415 -0.1702  1.5176
 8389SOL    HW333323   5.406   2.413   0.315 -1.0527 -0.0544 -0.0980
 8389SOL    MW433324   5.386   2.481   0.366  0.4075  0.2244 -0.6196
 8390SOL     OW33325   0.551   0.736   3.209 -0.3349 -0.1451 -0.4678
 8390SOL    HW233326   0.604   0.809   3.174 -0.7812  0.1782 -0.4795
 8390SOL    HW333327   0.615   0.677   3.248  0.1184 -0.1866 -1.2356
 8390SOL    MW433328   0.567   0.738   3.209 -0.2198 -0.0225  0.3370
 8391SOL     OW33329   1.297   1.341   5.420  0.6886  0.2970  0.4320
 8391SOL    HW233330   1.248   1.325   5.501  1.0956 -0.0024  0.6197
 8391SOL    HW333331   1.231   1.376   5.359 -0.2934 -2.0997 -0.0170
 8391SOL    MW433332   1.282   1.344   5.422 -0.5866  0.2553 -0.1891
 8392SOL     OW33333   5.650   4.594   3.442  0.1049  0.5268  0.2646
 8392SOL    HW233334   5.712   4.529   3.476  0.4065  0.4665 -0.3837
 8392SOL    HW333335   5.669   4.598   3.349  0.9108  2.3949  0.4581
 8392SOL    MW433336   5.661   4.586   3.434  0.1549  0.0707 -0.6707
 8393SOL     OW33337   4.077   0.525   1.032 -0.7296  0.6519 -0.3666
 8393SOL    HW233338   3.984   0.542   1.018 -1.1686 -0.2907  1.1224
 8393SOL    HW333339   4.093   0.556   1.121  0.1166 -0.1532 -0.2235
 8393SOL    MW433340   4.067   0.531   1.042  0.6119  0.2144 -0.4303
 8394SOL     OW33341   2.103   5.311   3.672  0.9212 -0.1503  0.1648
 8394SOL    HW233342   2.154   5.361   3.608 -0.2459  1.8033  0.6912
 8394SOL    HW333343   2.156   5.312   3.751  0.2170  1.7257  0.6586
 8394SOL    MW433344   2.117   5.318   3.674 -0.2430  0.4467 -0.2709
 8395SOL     OW33345   6.404   2.267   2.617  0.6244 -1.0186 -0.1020
 8395SOL    HW233346   6.461   2.332   2.658  1.2998 -1.3825 -0.4391
 8395SOL    HW333347   6.358   2.315   2.548 -1.0811 -0.2167  1.4961
 8395SOL    MW433348   6.405   2.282   2.613  0.1362 -0.1106  0.1596
 8396SOL     OW33349   3.248   3.055   1.827 -0.0639  0.4291 -0.5521
 8396SOL    HW233350   3.172   3.086   1.779 -0.3516  0.5464 -0.0241
 8396SOL    HW333351   3.301   3.010   1.761 -1.0637 -0.5231 -0.7429
 8396SOL    MW433352   3.245   3.053   1.812 -0.0843  0.1737 -0.0809
 8397SOL     OW33353   2.215   5.620   4.753 -0.2988  0.7749 -0.0262
 8397SOL    HW233354   2.124   5.648   4.760 -0.1767  1.3170 -0.5798
 8397SOL    HW333355   2.262   5.696   4.718  0.4618  0.6698  0.7311
 8397SOL    MW433356   2.210   5.633   4.749  0.4666 -0.6431 -0.2403
 8398SOL     OW33357   1.161   5.864   2.224 -0.1555 -0.3379 -0.2474
 8398SOL    HW233358   1.132   5.939   2.173  0.2866 -1.0510 -1.6008
 8398SOL    HW333359   1.216   5.813   2.163  0.2039 -1.3411  0.8692
 8398SOL    MW433360   1.165   5.867   2.209  0.3210  0.0252  0.0958
 8399SOL     OW33361   3.510   6.145   6.272 -0.6568  0.0724 -0.0135
 8399SOL    HW233362   3.435   6.098   6.237 -2.0865  1.6978  0.7149
 8399SOL    HW333363   3.475   6.191   6.348  1.4999 -0.4865  1.3934
 8399SOL    MW433364   3.495   6.145   6.278  0.2167 -0.5353  0.1684
 8400SOL     OW33365   2.105   4.317   0.074  0.3319 -0.2895  0.3151
 8400SOL    HW233366   2.067   4.400   0.103 -1.1507 -0.3555 -1.3453
 8400SOL    HW333367   2.159   4.340  -0.001 -2.2619 -1.0888 -1.9334
 8400SOL    MW433368   2.107   4.331   0.068  0.2044  0.5173  0.2140
 8401SOL     OW33369   6.345   4.077   1.596  0.4313  0.2491 -0.4704
 8401SOL    HW233370   6.347   4.064   1.691  1.5991 -0.1477 -0.5349
 8401SOL    HW333371   6.342   4.171   1.584  0.6922  0.3146 -0.0389
 8401SOL    MW433372   6.344   4.087   1.607  0.5170  0.1199 -0.5007
 8402SOL     OW33373   2.186   3.292   2.740 -0.1064 -0.1289  0.4256
 8402SOL    HW233374   2.273   3.291   2.779 -0.1628  0.1277  0.5597
 8402SOL    HW333375   2.151   3.378   2.761 -1.1975 -0.9520  2.1778
 8402SOL    MW433376   2.193   3.303   2.748 -0.4272  0.4279 -0.2123
 8403SOL     OW33377   2.909   4.583   3.699 -0.2578 -0.4402 -0.4530
 8403SOL    HW233378   2.979   4.574   3.634 -0.3199  0.6764 -0.6972
 8403SOL    HW333379   2.898   4.495   3.735 -0.2831 -1.1135 -2.0159
 8403SOL    MW433380   2.917   4.570   3.695  0.1803 -0.1964  0.9972
 8404SOL     OW33381   5.862   5.715   2.797 -0.2153  0.4136  0.1095
 8404SOL    HW233382   5.882   5.806   2.778 -3.5238  0.8886 -2.0072
 8404SOL    HW333383   5.917   5.665   2.736  3.1546  0.6416  2.6500
 8404SOL    MW433384   5.872   5.720   2.786 -0.4452 -0.4551 -0.3204
 8405SOL     OW33385   5.770   3.432   4.365  0.0351 -0.5228 -0.1065
 8405SOL    HW233386   5.755   3.525   4.353 -2.4845 -0.4780  2.3434
 8405SOL    HW333387   5.751   3.393   4.280 -0.4789  1.0593 -0.7487
 8405SOL    MW433388   5.766   3.439   4.352  0.2520  0.1930 -0.2847
 8406SOL     OW33389   3.336   2.671   1.423  0.6934  0.4625  0.3888
 8406SOL    HW233390   3.267   2.727   1.457  0.5730  0.8332 -0.4482
 8406SOL    HW333391   3.336   2.595   1.481  0.6832  1.1937  1.3772
 8406SOL    MW433392   3.327   2.668   1.435 -0.0370  0.0302 -0.0334
 8407SOL     OW33393   5.844   5.956   5.710  0.3930 -0.4795 -0.2309
 8407SOL    HW233394   5.772   6.015   5.731  0.1969  0.2164 -2.5482
 8407SOL    HW333395   5.802   5.871   5.696  0.3849 -0.6769  0.9149
 8407SOL    MW433396   5.829   5.953   5.711  0.8034 -0.5137  0.7205
 8408SOL     OW33397   5.374   6.175   0.010 -0.0587 -0.1470 -0.6739
 8408SOL    HW233398   5.358   6.261  -0.029 -0.6442 -0.1508 -0.4626
 8408SOL    HW333399   5.297   6.159   0.065  0.2261 -0.6357 -0.4059
 8408SOL    MW433400   5.362   6.184   0.012  0.3438 -0.6020 -0.3192
 8409SOL     OW33401   2.083   3.965   1.406 -0.1614 -0.2283  0.0520
 8409SOL    HW233402   2.081   4.042   1.462 -0.5517 -0.2925  0.1278
 8409SOL    HW333403   2.009   3.913   1.434 -2.2668  1.1542 -2.4892
 8409SOL    MW433404   2.073   3.969   1.417 -0.6962 -1.0153  0.4605
 8410SOL     OW33405   5.487   5.400   5.998 -0.9912 -0.0065  0.1186
 8410SOL    HW233406   5.526   5.314   5.982 -0.1226  0.6962 -1.8402
 8410SOL    HW333407   5.404   5.381   6.042 -0.4846 -1.7810  0.4056
 8410SOL    MW433408   5.481   5.386   6.002 -0.1623 -0.3220 -0.0321
 8411SOL     OW33409   3.288   5.981   6.161 -0.6803  0.0341  0.2282
 8411SOL    HW233410   3.284   6.011   6.070 -3.9779  0.2821  0.3259
 8411SOL    HW333411   3.337   5.899   6.158  1.6425  1.3882 -1.2871
 8411SOL    MW433412   3.294   5.974   6.149  0.4460 -0.4083 -0.0888
 8412SOL     OW33413   0.767   1.055   6.073 -0.2723 -0.6636 -0.1935
 8412SOL    HW233414   0.826   1.050   6.148 -0.3139  1.7363  0.0852
 8412SOL    HW333415   0.817   1.103   6.007 -1.2481 -0.2354 -0.6312
 8412SOL    MW433416   0.782   1.060   6.075 -0.3045 -0.1223  0.3034
 8413SOL     OW33417   6.182   1.598   0.805  0.0589 -0.0912  0.7350
 8413SOL    HW233418   6.174   1.663   0.736  0.0391 -0.7172  0.1412
 8413SOL    HW333419   6.147   1.642   0.883 -0.0694  0.5600  0.3194
 8413SOL    MW433420   6.176   1.612   0.806 -0.3376  0.1470 -0.0170
 8414SOL     OW33421   0.988   0.826   1.722  0.2035 -0.4417  0.1219
 8414SOL    HW233422   0.984   0.731   1.735 -0.2162 -0.2422  1.5509
 8414SOL    HW333423   0.946   0.863   1.799 -0.6084  0.8946 -0.9139
 8414SOL    MW433424   0.982   0.818   1.734  0.6338 -0.1360 -0.5692
 8415SOL     OW33425   1.905   6.113   1.876  0.4424  0.2284  0.3179
 8415SOL    HW233426   1.904   6.199   1.918 -0.5370  0.1775  0.4245
 8415SOL    HW333427   1.813   6.094   1.858  0.7887  0.1069 -1.5605
 8415SOL    MW433428   1.893   6.122   1.879  0.2995  0.1105 -0.7186
 8416SOL     OW33429   6.200   3.623   5.469  0.2299  0.0898 -0.2561
 8416SOL    HW233430   6.262   3.685   5.506  0.7547  0.7878 -2.1934
 8416SOL    HW333431   6.133   3.678   5.427 -1.5683 -0.6438  1.4775
 8416SOL    MW433432   6.199   3.639   5.468 -0.0800 -0.0569  0.3827
 8417SOL     OW33433   5.578   0.947   1.613  0.2525 -0.0497 -0.3982
 8417SOL    HW233434   5.602   0.934   1.705  1.6772 -0.6033 -0.8103
 8417SOL    HW333435   5.486   0.973   1.615  0.4687  0.7207  1.2326
 8417SOL    MW433436   5.569   0.948   1.625 -0.2759  0.7431  0.0430
 8418SOL     OW33437   2.391   3.376   5.159 -0.2166  0.2497 -0.2805
 8418SOL    HW233438   2.325   3.423   5.210  0.3905  0.9311 -0.0963
 8418SOL    HW333439   2.448   3.446   5.124  1.1697 -0.3792  0.6451
 8418SOL    MW433440   2.390   3.392   5.161  0.5215 -0.3215  0.1930
 8419SOL     OW33441   0.866   0.281   5.243  0.4620 -0.0125 -0.2305
 8419SOL    HW233442   0.852   0.196   5.284  0.6398  0.9531  1.9832
 8419SOL    HW333443   0.950   0.311   5.279  2.0396 -0.2210 -3.4395
 8419SOL    MW433444   0.875   0.274   5.253  0.0089 -0.2128 -0.5112
 8420SOL     OW33445   2.856   3.813   2.167  0.2288  0.1737  0.2665
 8420SOL    HW233446   2.807   3.731   2.177 -0.3201  0.5615  0.8154
 8420SOL    HW333447   2.894   3.808   2.080 -1.0499  0.0091 -0.2979
 8420SOL    MW433448   2.855   3.801   2.157  0.1899  0.4211 -0.1382
 8421SOL     OW33449   0.566   1.713   6.139 -0.3547  0.3276  0.1183
 8421SOL    HW233450   0.533   1.720   6.228  0.0442 -0.1744  0.3134
 8421SOL    HW333451   0.660   1.731   6.147 -0.5775  1.8467 -0.4414
 8421SOL    MW433452   0.574   1.716   6.152 -0.2330  0.3446 -0.0356
 8422SOL     OW33453   4.171   2.286   0.433  0.1803 -0.3206  0.9162
 8422SOL    HW233454   4.107   2.235   0.483 -0.3262 -1.5106 -0.8323
 8422SOL    HW333455   4.151   2.377   0.454 -1.5522 -0.6926  1.0996
 8422SOL    MW433456   4.160   2.291   0.442  0.0318 -0.3685 -0.0861
 8423SOL     OW33457   4.456   2.699   1.906 -0.2019  0.2654 -0.0893
 8423SOL    HW233458   4.450   2.616   1.859 -0.1473  0.4591 -0.4432
 8423SOL    HW333459   4.423   2.679   1.994 -0.7792  0.0184 -0.3562
 8423SOL    MW433460   4.451   2.685   1.911 -0.5471 -0.1026  0.3216
 8424SOL     OW33461   5.417   4.724   1.602 -0.2755  0.1458  0.5684
 8424SOL    HW233462   5.329   4.697   1.628 -0.8872  1.1171 -0.3676
 8424SOL    HW333463   5.427   4.690   1.513 -0.0586  0.7939  0.3393
 8424SOL    MW433464   5.407   4.716   1.593  0.8385  0.2915 -0.0309
 8425SOL     OW33465   0.755   4.761   1.624  0.8069 -0.3614 -0.1577
 8425SOL    HW233466   0.682   4.721   1.670 -0.3503  1.4324 -0.3404
 8425SOL    HW333467   0.827   4.758   1.687 -0.4253  1.0247  1.4191
 8425SOL    MW433468   0.755   4.755   1.638  0.3936  0.7812  0.4660
 8426SOL     OW33469   4.624   0.262   5.773  0.2857 -0.5661  0.7290
 8426SOL    HW233470   4.541   0.294   5.738  0.4207 -1.5164 -0.5159
 8426SOL    HW333471   4.682   0.257   5.697  1.0631 -1.2189  1.3452
 8426SOL    MW433472   4.620   0.265   5.758  0.8562  0.4485 -0.2543
 8427SOL     OW33473   4.183   2.746   3.883 -0.1008 -0.4969 -0.0341
 8427SOL    HW233474   4.164   2.761   3.975  0.3734  1.8337 -0.2484
 8427SOL    HW333475   4.276   2.723   3.881 -0.0936 -0.4743  0.0516
 8427SOL    MW433476   4.192   2.745   3.895  0.6450  0.0310 -0.4465
 8428SOL     OW33477   0.199   3.529   0.391  0.2956  0.1958  0.1936
 8428SOL    HW233478   0.145   3.462   0.350  0.9126 -0.4074  0.3564
 8428SOL    HW333479   0.279   3.530   0.340  0.9919 -0.4176  1.2457
 8428SOL    MW433480   0.202   3.521   0.379 -0.1628 -0.0171 -0.2020
 8429SOL     OW33481   3.612   5.774   0.399  0.0977 -0.7096  0.3833
 8429SOL    HW233482   3.545   5.738   0.342  1.0284 -0.7694 -0.6989
 8429SOL    HW333483   3.567   5.786   0.483 -1.0880 -1.3330 -0.1290
 8429SOL    MW433484   3.597   5.771   0.403  0.4524  0.2966  0.1578
 8430SOL     OW33485   4.293   5.893   2.895 -0.2897 -0.4024  0.5385
 8430SOL    HW233486   4.361   5.934   2.948 -0.5390  1.4176 -0.4471
 8430SOL    HW333487   4.232   5.964   2.876 -1.5941 -1.6175  0.0261
 8430SOL    MW433488   4.294   5.908   2.899 -0.0776 -0.5162 -0.6175
 8431SOL     OW33489   3.602   1.822   2.205  0.1759 -0.0011  0.0493
 8431SOL    HW233490   3.531   1.886   2.200 -1.4285 -1.7474 -0.3541
 8431SOL    HW333491   3.651   1.847   2.284  1.8861  3.8824 -1.9032
 8431SOL    MW433492   3.599   1.834   2.215 -0.1675 -0.3550  0.0662
 8432SOL     OW33493   5.710   5.047   2.776  0.1948 -0.7819  0.6022
 8432SOL    HW233494   5.658   5.054   2.696 -2.0430 -0.2185  1.9939
 8432SOL    HW333495   5.705   5.135   2.815 -0.7147 -1.5960  2.4321
 8432SOL    MW433496   5.703   5.060   2.771 -0.3037  0.0781  0.2055
 8433SOL     OW33497   5.439   1.494   3.358  0.1512 -0.3696 -0.6142
 8433SOL    HW233498   5.495   1.540   3.295 -1.1144  1.8505 -0.2166
 8433SOL    HW333499   5.353   1.492   3.315 -0.1788 -0.9410  0.0662
 8433SOL    MW433500   5.435   1.500   3.344  0.1915 -0.8703  0.2981
 8434SOL     OW33501   1.052   0.411   4.041  0.2511 -0.1953 -0.1176
 8434SOL    HW233502   1.087   0.499   4.056  0.9495  0.1987 -3.3317
 8434SOL    HW333503   0.989   0.423   3.971 -0.1985 -2.1884 -0.0949
 8434SOL    MW433504   1.048   0.424   4.034  0.4162 -0.2814 -0.1681
 8435SOL     OW33505   0.091   5.430   5.347 -0.6752 -0.4874  0.5605
 8435SOL    HW233506   0.141   5.384   5.279 -0.7747  0.5057 -0.2052
 8435SOL    HW333507   0.011   5.459   5.303 -1.4176 -1.0543  1.4803
 8435SOL    MW433508   0.087   5.428   5.332  0.5227 -0.6544 -0.3463
 8436SOL     OW33509   0.325   1.795   1.812 -0.1720 -0.1622  0.6521
 8436SOL    HW233510   0.270   1.754   1.745 -1.0223  0.5689  0.8914
 8436SOL    HW333511   0.339   1.726   1.877 -2.2408  0.1188  1.4488
 8436SOL    MW433512   0.320   1.780   1.812 -0.2757  0.7751  0.6412
 8437SOL     OW33513   2.517   1.970   4.792  0.9972 -0.5018  0.4161
 8437SOL    HW233514   2.540   2.063   4.799  2.3958 -0.8443  0.6713
 8437SOL    HW333515   2.510   1.954   4.698  0.6779 -0.1286  0.3717
 8437SOL    MW433516   2.519   1.980   4.781  0.3144  0.2660  0.2970
 8438SOL     OW33517   0.029   0.023   0.541  0.1455  0.2165 -0.3244
 8438SOL    HW233518   0.005   0.047   0.451  0.7112 -0.1045 -0.5682
 8438SOL    HW333519  -0.022  -0.056   0.559  0.1900  0.1622 -0.4381
 8438SOL    MW433520   0.019   0.016   0.531  0.0825 -0.7203  0.0593
 8439SOL     OW33521   5.435   0.121   3.347 -0.3069 -0.5383  0.3614
 8439SOL    HW233522   5.406   0.175   3.420  0.0889 -0.0832  0.1901
 8439SOL    HW333523   5.523   0.153   3.327 -0.3525 -0.7573 -0.2151
 8439SOL    MW433524   5.443   0.132   3.354  0.0643 -0.0792 -0.1940
 8440SOL     OW33525   1.624   2.711   2.021 -0.2406 -0.1434  0.1087
 8440SOL    HW233526   1.711   2.716   2.061 -0.6533 -1.6209  1.2552
 8440SOL    HW333527   1.636   2.658   1.942  0.1106  0.7166 -0.4330
 8440SOL    MW433528   1.637   2.705   2.016 -0.2382 -0.8453 -0.1227
 8441SOL     OW33529   2.808   2.001   1.651  0.2827 -0.7056  0.5358
 8441SOL    HW233530   2.880   2.030   1.596  1.4359 -1.4262  1.6234
 8441SOL    HW333531   2.736   2.060   1.629  0.7498 -0.8315 -1.5707
 8441SOL    MW433532   2.808   2.013   1.641  0.3400  0.1254  0.4054
 8442SOL     OW33533   1.222   5.607   3.240  0.0947  0.2455  0.0347
 8442SOL    HW233534   1.214   5.514   3.219  0.1261  0.7265 -2.5040
 8442SOL    HW333535   1.304   5.614   3.290  0.0450 -1.0967  0.3253
 8442SOL    MW433536   1.232   5.596   3.244 -0.4183 -0.3019 -0.3759
 8443SOL     OW33537   1.227   2.986   6.297  0.0135 -0.9326  0.5290
 8443SOL    HW233538   1.285   2.977   6.373 -0.7976  0.1607  1.3228
 8443SOL    HW333539   1.178   3.067   6.314  0.0236 -0.5016 -1.3275
 8443SOL    MW433540   1.228   2.995   6.310 -0.5997  0.9238  0.6005
 8444SOL     OW33541   5.875   1.409   1.846 -0.0102  0.0558  0.5130
 8444SOL    HW233542   5.922   1.447   1.920  0.2611 -1.4223  1.1293
 8444SOL    HW333543   5.813   1.476   1.820  1.9961  1.8481  0.0566
 8444SOL    MW433544   5.873   1.423   1.852 -0.1135  0.7944  0.0857
 8445SOL     OW33545   1.510   6.228   2.705 -0.1132  0.1677 -0.6464
 8445SOL    HW233546   1.593   6.214   2.661 -0.5907  0.1769 -1.5743
 8445SOL    HW333547   1.456   6.153   2.680 -0.3837  0.1572 -0.0483
 8445SOL    MW433548   1.514   6.216   2.696 -0.2758  0.1607  0.4883
 8446SOL     OW33549   3.307   6.308   4.411  0.3353  0.0921 -0.7696
 8446SOL    HW233550   3.260   6.383   4.375 -1.2609 -0.2142  0.5901
 8446SOL    HW333551   3.354   6.342   4.487 -0.6147 -0.2965  0.0186
 8446SOL    MW433552   3.307   6.322   4.416  0.3477 -0.1300  0.2495
 8447SOL     OW33553   3.800   6.259   2.528 -0.6565  0.0473  0.3829
 8447SOL    HW233554   3.805   6.175   2.574  0.7503  1.5988  3.3951
 8447SOL    HW333555   3.891   6.278   2.504 -0.8920  0.9007  0.1408
 8447SOL    MW433556   3.813   6.250   2.531  0.3476  0.0264  0.2025
 8448SOL     OW33557   2.460   4.085   4.356 -0.1231  0.6579  0.5196
 8448SOL    HW233558   2.425   3.996   4.364  1.1819  0.1842  1.0714
 8448SOL    HW333559   2.429   4.130   4.435 -0.0009  0.4138  0.7082
 8448SOL    MW433560   2.451   4.079   4.367  0.1576 -0.0787 -0.9932
 8449SOL     OW33561   4.588   5.100   0.202  0.2733  0.5704 -0.5340
 8449SOL    HW233562   4.539   5.018   0.190  1.4969 -0.5922  1.8771
 8449SOL    HW333563   4.658   5.096   0.137  0.6525 -0.5803 -0.0737
 8449SOL    MW433564   4.590   5.088   0.192 -0.0082  0.3150 -0.4418
 8450SOL     OW33565   0.109   5.261   4.723 -0.2543 -0.2437 -0.3212
 8450SOL    HW233566   0.035   5.304   4.681  0.7867 -0.4768 -2.5617
 8450SOL    HW333567   0.184   5.282   4.666  0.9489 -1.9629  0.5354
 8450SOL    MW433568   0.109   5.270   4.710 -0.6267 -0.5152  0.1194
 8451SOL     OW33569   0.082   4.420   3.785 -0.3337 -0.4866 -0.7442
 8451SOL    HW233570   0.131   4.357   3.732  0.3291 -0.0602 -0.6480
 8451SOL    HW333571   0.014   4.452   3.725 -0.2687 -0.8103 -0.9974
 8451SOL    MW433572   0.079   4.416   3.770 -0.5381  0.3490  0.3127
 8452SOL     OW33573   4.251   2.677   1.450 -0.3967  0.0830 -0.3070
 8452SOL    HW233574   4.323   2.732   1.420 -0.4925  0.5304  0.2754
 8452SOL    HW333575   4.207   2.729   1.517 -1.0969 -0.2977 -0.4602
 8452SOL    MW433576   4.255   2.691   1.455 -0.8022 -0.3886  0.9639
 8453SOL     OW33577   6.118   4.268   0.285 -0.7088  0.2251 -0.7408
 8453SOL    HW233578   6.046   4.297   0.341 -0.5096  0.1951 -0.4695
 8453SOL    HW333579   6.123   4.173   0.299 -0.8244  0.1767 -1.0056
 8453SOL    MW433580   6.109   4.259   0.294  0.6246  0.7494 -0.9824
 8454SOL     OW33581   2.410   4.900   1.028 -0.3267  0.3842 -0.4880
 8454SOL    HW233582   2.443   4.961   0.962 -0.1171  0.7331 -0.0759
 8454SOL    HW333583   2.462   4.821   1.016  0.1419  0.6651 -0.3437
 8454SOL    MW433584   2.421   4.898   1.018  0.0970 -0.4104 -0.1361
 8455SOL     OW33585   2.813   4.371   0.676 -0.2901 -0.3914  0.4526
 8455SOL    HW233586   2.836   4.325   0.757  0.7342  1.4142  1.2555
 8455SOL    HW333587   2.726   4.407   0.692 -0.2784 -0.4187  0.5753
 8455SOL    MW433588   2.805   4.370   0.689  0.2663 -0.2244 -0.1648
 8456SOL     OW33589   2.268   2.653   5.701 -0.3109  0.1736  0.2090
 8456SOL    HW233590   2.233   2.741   5.711 -1.7129 -0.3222 -0.1447
 8456SOL    HW333591   2.279   2.643   5.606  0.3240  0.1276  0.2795
 8456SOL    MW433592   2.265   2.663   5.690 -0.5685  0.0881  0.7118
 8457SOL     OW33593   3.501   4.455   0.407  0.5691 -0.2885  0.0697
 8457SOL    HW233594   3.424   4.418   0.363 -0.4615  0.9865  0.7438
 8457SOL    HW333595   3.537   4.518   0.345  1.2324 -1.0559 -0.3410
 8457SOL    MW433596   3.496   4.458   0.393  0.1268 -0.0433 -0.5722
 8458SOL     OW33597   1.188   6.138   1.192 -0.4016 -0.2332  0.7003
 8458SOL    HW233598   1.184   6.227   1.158  2.1849 -0.3656 -0.2005
 8458SOL    HW333599   1.142   6.085   1.127  0.1125  0.1714 -0.0129
 8458SOL    MW433600   1.182   6.143   1.179 -0.2860 -0.0512 -0.6391
 8459SOL     OW33601   2.826   5.124   3.787  0.3890  0.0542  0.2476
 8459SOL    HW233602   2.859   5.036   3.800  1.2635  0.5176  1.3566
 8459SOL    HW333603   2.902   5.175   3.759  0.2582  0.7584  1.1032
 8459SOL    MW433604   2.840   5.119   3.785  0.3637  0.2900 -0.1578
 8460SOL     OW33605   2.478   0.300   4.887 -0.0331 -0.0557 -0.0081
 8460SOL    HW233606   2.537   0.225   4.874  0.1525 -0.0142  0.5913
 8460SOL    HW333607   2.390   0.263   4.877  0.0394 -0.4739  0.8780
 8460SOL    MW433608   2.474   0.285   4.884 -0.0106  0.3892  0.3978
 8461SOL     OW33609   4.315   5.606   3.093  0.4987 -0.1511  0.4146
 8461SOL    HW233610   4.240   5.549   3.075  1.8690 -2.1879  0.8285
 8461SOL    HW333611   4.372   5.595   3.017  0.5021  1.2204  0.2032
 8461SOL    MW433612   4.312   5.597   3.081 -0.1917 -0.1627 -0.2446
 8462SOL     OW33613   0.315   2.758   3.135  0.1683 -0.2347 -0.0033
 8462SOL    HW233614   0.384   2.823   3.129  0.0075  0.0348  0.9322
 8462SOL    HW333615   0.360   2.673   3.132  0.3925 -0.0929 -1.0186
 8462SOL    MW433616   0.330   2.755   3.134 -0.2780 -0.1431 -0.2766
 8463SOL     OW33617   1.115   2.455   0.190  0.1869 -0.4082 -1.2815
 8463SOL    HW233618   1.193   2.401   0.205  0.3756  0.0799 -0.4274
 8463SOL    HW333619   1.133   2.537   0.238 -2.0099 -1.3371  1.3849
 8463SOL    MW433620   1.128   2.459   0.198  0.1872  0.2415  0.2491
 8464SOL     OW33621   1.450   3.839   5.549 -0.2842  0.3691  0.4188
 8464SOL    HW233622   1.466   3.862   5.641  4.5769 -0.1031 -0.0716
 8464SOL    HW333623   1.447   3.743   5.548 -1.9068  0.3910  0.1856
 8464SOL    MW433624   1.452   3.829   5.561 -0.3355 -0.0356 -0.6608
 8465SOL     OW33625   4.703   3.182   2.700 -0.5261  0.2559  0.4123
 8465SOL    HW233626   4.793   3.193   2.670 -0.2177 -0.7074  0.9584
 8465SOL    HW333627   4.699   3.229   2.783 -0.1440 -0.8026  1.0509
 8465SOL    MW433628   4.714   3.190   2.707  0.1758  0.1873 -0.2803
 8466SOL     OW33629   3.864   1.577   4.803  0.2981  0.7145 -0.5642
 8466SOL    HW233630   3.837   1.607   4.890  0.6761 -0.2614 -0.0876
 8466SOL    HW333631   3.783   1.569   4.754  0.1620  2.2211 -0.6340
 8466SOL    MW433632   3.850   1.580   4.808 -0.4980  0.2128  1.0822
 8467SOL     OW33633   2.921   4.863   3.871  0.1557  0.0948 -0.2701
 8467SOL    HW233634   2.963   4.851   3.956 -1.5804  0.9212  0.7604
 8467SOL    HW333635   2.913   4.775   3.835 -0.3537 -0.4328  1.0697
 8467SOL    MW433636   2.925   4.850   3.877  0.4327  0.5610 -0.4268
 8468SOL     OW33637   1.216   1.335   1.559  0.6797  0.4119  0.8427
 8468SOL    HW233638   1.225   1.324   1.464  0.3520 -0.6740  0.9279
 8468SOL    HW333639   1.156   1.266   1.585 -0.4901  1.6848  1.6263
 8468SOL    MW433640   1.209   1.324   1.550 -0.4768 -0.4293 -0.0219
 8469SOL     OW33641   2.718   2.188   3.692  0.4317  0.2630  0.2103
 8469SOL    HW233642   2.692   2.132   3.619  1.1437  0.9335 -0.5866
 8469SOL    HW333643   2.744   2.127   3.761  0.0702 -0.3836 -0.2144
 8469SOL    MW433644   2.718   2.173   3.691 -0.3481  0.2476 -0.3703
 8470SOL     OW33645   5.441   1.480   4.037 -0.1915  0.0638  0.5572
 8470SOL    HW233646   5.360   1.493   3.988  0.2444  0.5085 -0.0549
 8470SOL    HW333647   5.422   1.516   4.124 -0.7915 -0.2418  0.5608
 8470SOL    MW433648   5.428   1.486   4.042  0.3593  0.0982 -0.2436
 8471SOL     OW33649   2.831   4.234   0.421 -0.0216 -0.6320  0.3330
 8471SOL    HW233650   2.795   4.148   0.443 -0.8490 -0.2108  0.6561
 8471SOL    HW333651   2.833   4.281   0.504  0.3288 -0.2997  0.1390
 8471SOL    MW433652   2.826   4.229   0.434 -0.0928 -0.0547 -1.2065
 8472SOL     OW33653   3.064   0.449   2.939  0.2041 -0.0179  0.2221
 8472SOL    HW233654   3.133   0.434   3.003  0.5608 -3.7767 -0.8108
 8472SOL    HW333655   3.111   0.463   2.856 -0.0355 -3.8932 -0.7455
 8472SOL    MW433656   3.079   0.449   2.936 -0.4639 -0.0928  0.2448
 8473SOL     OW33657   4.956   3.728   0.094  0.7030 -0.9359  0.1461
 8473SOL    HW233658   4.884   3.760   0.040  0.4100 -0.8442  0.5830
 8473SOL    HW333659   5.007   3.673   0.035 -0.0216 -1.4355 -0.0306
 8473SOL    MW433660   4.953   3.725   0.079  0.2001 -0.1610 -0.2583
 8474SOL     OW33661   1.509   5.602   0.428  0.2488  0.3222  0.1056
 8474SOL    HW233662   1.590   5.652   0.433  0.2172  0.3324  0.6043
 8474SOL    HW333663   1.456   5.647   0.362  0.5881  0.3987 -0.1143
 8474SOL    MW433664   1.513   5.614   0.420  0.2683 -0.1029 -0.4476
 8475SOL     OW33665   3.934   4.906   1.022 -0.8841  0.7197  0.2841
 8475SOL    HW233666   3.903   4.962   1.093 -1.4320  0.3130  0.3752
 8475SOL    HW333667   3.964   4.826   1.066 -2.4048 -0.0558 -0.0126
 8475SOL    MW433668   3.934   4.903   1.037  0.1054 -0.7775  0.4582
 8476SOL     OW33669   6.106   4.191   5.000  0.1923 -0.2161  0.3081
 8476SOL    HW233670   6.191   4.233   4.989 -0.1195  0.2163 -0.4934
 8476SOL    HW333671   6.105   4.119   4.937 -0.3772  0.3356 -0.3326
 8476SOL    MW433672   6.117   4.187   4.990 -0.3770  0.3112  0.2739
 8477SOL     OW33673   6.424   6.119   6.248  0.1643  0.0868  0.2152
 8477SOL    HW233674   6.461   6.032   6.262 -1.0345 -0.3533  0.8436
 8477SOL    HW333675   6.441   6.166   6.330  0.1394  0.1849  0.1645
 8477SOL    MW433676   6.431   6.114   6.261 -0.0127 -0.1425  0.6724
 8478SOL     OW33677   2.770   4.247   2.037  0.4290 -0.2011  0.0845
 8478SOL    HW233678   2.845   4.306   2.036  1.2234 -1.1841  0.1344
 8478SOL    HW333679   2.778   4.200   2.120 -0.4853 -0.0236  0.2852
 8478SOL    MW433680   2.781   4.249   2.048  0.2438 -0.4939 -0.2913
 8479SOL     OW33681   5.488   4.480   0.502  0.6510  0.4993 -0.2784
 8479SOL    HW233682   5.449   4.428   0.432 -0.3060  0.5860  0.1671
 8479SOL    HW333683   5.571   4.511   0.466  0.9991 -0.8951 -0.7322
 8479SOL    MW433684   5.493   4.478   0.488 -0.0369  0.2302 -0.5727
 8480SOL     OW33685   4.028   0.856   1.034  0.6851  0.4589  0.1555
 8480SOL    HW233686   4.016   0.939   1.080  2.3200  0.2029  1.1257
 8480SOL    HW333687   4.073   0.799   1.098  0.5381 -0.8275 -0.8373
 8480SOL    MW433688   4.033   0.859   1.049  0.3994  0.7407 -0.8284
 8481SOL     OW33689   4.271   5.846   3.226 -0.5193  0.2617 -0.5384
 8481SOL    HW233690   4.201   5.899   3.187  0.6065  1.3834 -1.1007
 8481SOL    HW333691   4.257   5.758   3.190 -1.6317  0.4516 -0.6285
 8481SOL    MW433692   4.260   5.841   3.216  0.6914 -0.1180 -0.6997
 8482SOL     OW33693   1.858   4.818   4.236 -0.8885 -0.0276  0.0112
 8482SOL    HW233694   1.780   4.768   4.262 -0.1074  0.0086  2.8250
 8482SOL    HW333695   1.847   4.903   4.279 -1.2352  1.6003 -3.0570
 8482SOL    MW433696   1.846   4.823   4.245  0.4903 -0.3329  0.5447
 8483SOL     OW33697   0.608   5.441   5.485 -0.2363 -0.0902  0.3790
 8483SOL    HW233698   0.513   5.456   5.485 -0.4788 -1.4833  0.2349
 8483SOL    HW333699   0.634   5.461   5.395 -0.7335 -1.5408 -0.1121
 8483SOL    MW433700   0.599   5.446   5.473  0.0248  0.9264  0.2700
 8484SOL     OW33701   5.571   5.523   5.639  0.3228  0.4599  0.2149
 8484SOL    HW233702   5.480   5.523   5.671 -0.3783  0.4708 -1.6831
 8484SOL    HW333703   5.572   5.592   5.572  1.6184  0.1260 -0.1226
 8484SOL    MW433704   5.559   5.532   5.635  0.4586  0.4643 -0.4973
 8485SOL     OW33705   1.158   6.216   0.504 -0.1644  0.5206  0.5120
 8485SOL    HW233706   1.080   6.163   0.484 -0.1389 -0.0286  1.7636
 8485SOL    HW333707   1.231   6.163   0.475 -0.2280  0.8699 -0.3124
 8485SOL    MW433708   1.157   6.202   0.498  0.2956 -0.1861  0.0869
 8486SOL     OW33709   4.828   5.380   1.880 -0.1579 -0.3583 -0.4344
 8486SOL    HW233710   4.903   5.427   1.844  0.9936 -0.9357  1.0747
 8486SOL    HW333711   4.861   5.292   1.899 -1.1384 -0.5688  0.4654
 8486SOL    MW433712   4.842   5.375   1.878 -0.3966 -0.0516  0.3058
 8487SOL     OW33713   6.213   1.671   3.513 -0.4727 -0.1941  0.3983
 8487SOL    HW233714   6.140   1.730   3.493  0.2255  0.8006  0.7250
 8487SOL    HW333715   6.225   1.679   3.607  0.7819  0.5340  0.1989
 8487SOL    MW433716   6.205   1.680   3.523 -0.7642 -0.0254 -0.0588
 8488SOL     OW33717   3.989   5.307   1.833 -0.0722 -0.3353 -0.2681
 8488SOL    HW233718   3.987   5.402   1.823 -1.5878 -0.0635  1.8677
 8488SOL    HW333719   3.897   5.283   1.840  0.3197 -1.9074 -0.2786
 8488SOL    MW433720   3.976   5.317   1.833 -0.4292 -0.4107  0.2021
 8489SOL     OW33721   3.925   0.973   0.100  0.0618 -0.3308 -0.0691
 8489SOL    HW233722   3.959   1.040   0.040 -0.6603 -0.1558 -0.2924
 8489SOL    HW333723   3.989   0.971   0.171  0.8172 -0.3938 -0.7389
 8489SOL    MW433724   3.938   0.982   0.102 -0.1868 -0.2643  0.1991
 8490SOL     OW33725   5.784   0.161   2.293 -0.4939 -0.4361  0.7959
 8490SOL    HW233726   5.858   0.156   2.353  0.8196  0.8612 -0.6463
 8490SOL    HW333727   5.751   0.072   2.289  2.4574 -1.5952 -0.2846
 8490SOL    MW433728   5.789   0.149   2.301  0.4848  0.5546 -0.4161
 8491SOL     OW33729   0.317   6.351   0.685 -0.2108  0.2029 -0.1880
 8491SOL    HW233730   0.234   6.393   0.664 -0.3985 -1.0815 -2.3245
 8491SOL    HW333731   0.366   6.351   0.603  0.5192 -2.0088  0.1647
 8491SOL    MW433732   0.312   6.357   0.672  0.8152  0.3719 -0.2544
 8492SOL     OW33733   3.209   1.167   3.492 -0.0140 -0.0514  0.1519
 8492SOL    HW233734   3.133   1.226   3.490  0.4075  0.5222  0.6976
 8492SOL    HW333735   3.183   1.096   3.551 -0.0545  0.2377  0.4808
 8492SOL    MW433736   3.195   1.165   3.499 -0.0501  0.3334 -0.2016
 8493SOL     OW33737   2.000   5.618   4.980 -0.0304 -0.2046  0.1730
 8493SOL    HW233738   1.952   5.658   5.053 -0.1654 -1.1306  0.6046
 8493SOL    HW333739   1.975   5.526   4.982  0.8971 -0.4837 -0.3007
 8493SOL    MW433740   1.990   5.611   4.990 -0.0622  0.3160  0.2082
 8494SOL     OW33741   0.497   4.688   0.630  0.2296  0.2780  0.1479
 8494SOL    HW233742   0.405   4.674   0.649 -0.7557  2.6182 -2.2276
 8494SOL    HW333743   0.516   4.631   0.556  0.7818 -0.2728  0.6903
 8494SOL    MW433744   0.487   4.679   0.623  0.2514  0.2159  0.4124
 8495SOL     OW33745   4.092   2.947   5.904 -0.2895 -0.1688  0.0149
 8495SOL    HW233746   4.019   2.966   5.845 -2.0048  0.3721  2.1724
 8495SOL    HW333747   4.076   3.002   5.981  2.0450 -0.5462  0.8641
 8495SOL    MW433748   4.081   2.957   5.906 -0.2327 -0.3249  0.0792
 8496SOL     OW33749   6.418   6.186   3.976 -0.2806 -0.1709  0.2498
 8496SOL    HW233750   6.386   6.243   4.045 -1.1087 -0.8581  0.4522
 8496SOL    HW333751   6.397   6.097   4.006  0.5239 -0.5630 -0.2828
 8496SOL    MW433752   6.411   6.182   3.989  0.3784 -0.2040 -0.6037
 8497SOL     OW33753   3.541   0.031   5.446 -0.3923  0.4800 -0.0652
 8497SOL    HW233754   3.525   0.124   5.462 -0.9956  0.1277  1.5106
 8497SOL    HW333755   3.563   0.027   5.353  1.8648  2.4708  0.2969
 8497SOL    MW433756   3.541   0.043   5.436 -0.0049  0.0441  0.3775
 8498SOL     OW33757   3.939   1.101   5.332 -0.0479  0.6761 -0.4320
 8498SOL    HW233758   3.934   1.195   5.349  0.6187  0.5648  0.4972
 8498SOL    HW333759   4.024   1.076   5.368  0.8563  0.1191 -2.7297
 8498SOL    MW433760   3.950   1.110   5.339 -0.2762  0.2716 -0.6949
 8499SOL     OW33761   5.464   2.847   3.973 -0.0371 -0.6234 -0.2014
 8499SOL    HW233762   5.507   2.927   3.946  1.0373 -1.0271  0.2593
 8499SOL    HW333763   5.372   2.860   3.950 -0.2465  1.5003  1.5626
 8499SOL    MW433764   5.458   2.859   3.967  0.3143  0.6429  0.4194
 8500SOL     OW33765   1.082   3.503   5.462  0.0097  0.1948  0.3649
 8500SOL    HW233766   1.160   3.520   5.408  0.1376 -0.3753  0.3613
 8500SOL    HW333767   1.041   3.426   5.421 -1.0298  1.0005 -0.1473
 8500SOL    MW433768   1.087   3.495   5.449  0.5843  0.0133  0.1936
 8501SOL     OW33769   3.382   3.485   6.255 -0.8505 -0.3166 -0.1603
 8501SOL    HW233770   3.345   3.398   6.265 -0.0834 -0.4839  1.6246
 8501SOL    HW333771   3.440   3.496   6.331  0.2136  1.1741 -1.1142
 8501SOL    MW433772   3.385   3.475   6.267 -0.6093  0.8243  0.2122
 8502SOL     OW33773   6.115   2.205   0.057 -0.4239  0.9739 -0.0282
 8502SOL    HW233774   6.134   2.294   0.025  1.2627  0.8006  0.4240
 8502SOL    HW333775   6.161   2.199   0.140  0.9667 -0.9054 -0.8639
 8502SOL    MW433776   6.124   2.216   0.064 -0.1992 -0.6727 -0.7624
 8503SOL     OW33777   3.378   3.000   3.204 -0.2501  0.1048 -0.5602
 8503SOL    HW233778   3.449   2.983   3.266 -0.1692  0.5810 -0.5191
 8503SOL    HW333779   3.306   2.943   3.233  0.2117 -0.5985 -0.7804
 8503SOL    MW433780   3.378   2.990   3.216  0.0366  0.5428  0.5772
 8504SOL     OW33781   2.899   1.635   5.220 -0.0426  0.0635  0.2042
 8504SOL    HW233782   2.814   1.673   5.197  1.1372  1.6786 -1.8820
 8504SOL    HW333783   2.918   1.670   5.307 -0.5727  1.4827 -0.2236
 8504SOL    MW433784   2.891   1.645   5.229 -0.0613 -0.3943  0.4799
 8505SOL     OW33785   3.074   2.944   5.134 -0.2373 -0.0211 -0.5645
 8505SOL    HW233786   3.092   3.028   5.178 -0.0355  0.4529 -1.5252
 8505SOL    HW333787   3.158   2.897   5.139  0.0286  0.3774 -1.1694
 8505SOL    MW433788   3.088   2.949   5.141  0.0568  0.0079  0.0299
 8506SOL     OW33789   5.886   4.292   6.242  0.0396 -0.5624 -0.0358
 8506SOL    HW233790   5.956   4.277   6.306 -0.3394 -0.9221  0.3019
 8506SOL    HW333791   5.806   4.286   6.293 -0.2425 -0.1747 -0.4272
 8506SOL    MW433792   5.885   4.289   6.257  0.1798  0.0078  0.5765
 8507SOL     OW33793   3.111   1.508   2.120  0.1873  0.1131  0.7328
 8507SOL    HW233794   3.067   1.494   2.204 -1.1800 -1.9258 -0.2301
 8507SOL    HW333795   3.045   1.551   2.066 -0.6677 -2.5989 -0.6000
 8507SOL    MW433796   3.096   1.512   2.124  0.7697  0.1113  0.4859
 8508SOL     OW33797   4.656   5.641   0.490 -0.0987  0.4271  0.6788
 8508SOL    HW233798   4.636   5.638   0.583  2.7466  1.1835  1.4021
 8508SOL    HW333799   4.701   5.725   0.477  0.2719 -0.0062 -1.2082
 8508SOL    MW433800   4.659   5.652   0.500 -0.2513  0.6196 -0.1628
 8509SOL     OW33801   5.880   4.590   5.533  0.7081 -0.3962  0.1325
 8509SOL    HW233802   5.794   4.608   5.495  1.2830  1.5815 -0.3650
 8509SOL    HW333803   5.941   4.638   5.477  1.9835 -0.6040  1.2974
 8509SOL    MW433804   5.877   4.599   5.521 -0.1139 -0.0904  0.5687
 8510SOL     OW33805   4.519   2.983   2.115 -0.1852  0.2496  0.0197
 8510SOL    HW233806   4.509   2.958   2.023 -0.4034  1.1917 -0.2233
 8510SOL    HW333807   4.513   2.900   2.163 -1.8435 -0.0778 -0.6871
 8510SOL    MW433808   4.517   2.969   2.109 -0.4721 -0.2985 -0.4511
 8511SOL     OW33809   3.499   2.897   0.490 -0.1505  0.0783 -0.4083
 8511SOL    HW233810   3.445   2.844   0.431 -3.9359  0.4574  2.3711
 8511SOL    HW333811   3.450   2.978   0.502  2.7219  1.9402 -0.1261
 8511SOL    MW433812   3.486   2.901   0.483  0.2249 -0.0512  0.2567
 8512SOL     OW33813   4.812   1.375   2.356  0.3984 -0.5496  0.3619
 8512SOL    HW233814   4.885   1.436   2.372  1.6680 -2.1227  0.8944
 8512SOL    HW333815   4.787   1.345   2.444  0.8482 -1.9513  0.0246
 8512SOL    MW433816   4.818   1.379   2.370 -0.0662  0.2032 -0.0973
 8513SOL     OW33817   2.755   3.986   3.024 -0.8125 -0.3711 -1.0187
 8513SOL    HW233818   2.822   3.918   3.009  0.7424  1.0244 -0.7513
 8513SOL    HW333819   2.779   4.056   2.963 -0.7462  1.0417  0.5664
 8513SOL    MW433820   2.767   3.986   3.014  0.0563 -0.6316 -0.0060
 8514SOL     OW33821   1.005   4.551   1.934 -0.5861  0.0559 -0.2217
 8514SOL    HW233822   1.017   4.474   1.879 -1.0565 -0.0048 -0.2441
 8514SOL    HW333823   0.911   4.553   1.952 -0.1380 -1.8169  3.2859
 8514SOL    MW433824   0.994   4.541   1.929 -0.1440  0.1027 -0.5961
 8515SOL     OW33825   0.114   1.790   3.458  0.7912 -0.4967 -0.3288
 8515SOL    HW233826   0.102   1.738   3.537  4.5280 -0.7596  0.2091
 8515SOL    HW333827   0.066   1.871   3.476  1.5605 -0.5264  2.2560
 8515SOL    MW433828   0.106   1.794   3.470  0.4203  0.4220 -0.2442
 8516SOL     OW33829   0.733   4.086   6.034 -0.0270 -0.0934 -0.0633
 8516SOL    HW233830   0.787   4.130   5.969  0.7398  0.0581  0.6556
 8516SOL    HW333831   0.753   4.132   6.116 -0.9356 -0.3097  0.2847
 8516SOL    MW433832   0.743   4.098   6.036 -0.1354  0.2121  0.1028
 8517SOL     OW33833   2.200   0.071   5.905  0.2594  0.9067  0.7132
 8517SOL    HW233834   2.157   0.072   5.820  2.0205  0.2897 -0.2316
 8517SOL    HW333835   2.128   0.071   5.968 -1.1372 -0.5903 -0.7773
 8517SOL    MW433836   2.185   0.071   5.902 -0.9078 -0.4938 -0.0229
 8518SOL     OW33837   6.202   6.048   5.576 -0.4123  0.6259 -0.1601
 8518SOL    HW233838   6.144   6.114   5.614 -1.3676  0.3335 -1.0500
 8518SOL    HW333839   6.159   6.023   5.494  0.5376 -0.2384 -0.4168
 8518SOL    MW433840   6.188   6.053   5.570 -0.0253  0.4604  0.1723
 8519SOL     OW33841   2.095   6.100   0.531  0.5030  0.3190  0.0720
 8519SOL    HW233842   2.159   6.171   0.526  0.6029  0.1919 -0.5405
 8519SOL    HW333843   2.147   6.022   0.546  0.6106  0.0609 -1.4574
 8519SOL    MW433844   2.110   6.099   0.532  0.1831 -0.2566 -0.1519
 8520SOL     OW33845   0.735   5.752   5.438  0.7626 -0.7337  0.3378
 8520SOL    HW233846   0.801   5.746   5.369  1.0335 -1.8728  0.6642
 8520SOL    HW333847   0.785   5.744   5.519  0.2869 -1.0381  0.6046
 8520SOL    MW433848   0.750   5.750   5.439 -0.4088  0.3556  0.3571
 8521SOL     OW33849   2.103   2.938   2.530 -0.1467 -0.1054  0.2920
 8521SOL    HW233850   2.057   2.937   2.446  0.9681  1.8717 -0.3949
 8521SOL    HW333851   2.046   2.988   2.588  0.4709  1.1571 -0.1692
 8521SOL    MW433852   2.089   2.944   2.526 -0.2063 -0.2597  0.6526
 8522SOL     OW33853   5.270   0.041   5.695 -0.0356  0.3745 -0.2990
 8522SOL    HW233854   5.184   0.028   5.655  0.2334  1.0555 -1.1339
 8522SOL    HW333855   5.288  -0.042   5.740 -0.4467 -0.3569 -1.4295
 8522SOL    MW433856   5.261   0.028   5.695 -0.2405  0.1105 -0.1281
 8523SOL     OW33857   5.531   6.003   5.023 -0.2328  0.0852  0.0614
 8523SOL    HW233858   5.526   6.068   4.953 -1.4645  1.1218  1.0731
 8523SOL    HW333859   5.625   5.987   5.034  0.0573  1.1876 -0.6666
 8523SOL    MW433860   5.543   6.009   5.015 -0.1899  0.4255  0.0843
 8524SOL     OW33861   6.071   1.687   1.048 -0.1277 -0.3138 -0.3173
 8524SOL    HW233862   6.015   1.610   1.053 -0.9493  0.3087  0.2583
 8524SOL    HW333863   6.023   1.749   0.993  0.2453  0.0189 -0.2731
 8524SOL    MW433864   6.058   1.685   1.042 -0.1577  0.3714 -0.2128
 8525SOL     OW33865   5.306   4.726   0.436  0.2262  0.3889  0.3867
 8525SOL    HW233866   5.369   4.654   0.439 -1.5483 -1.2185  1.2033
 8525SOL    HW333867   5.249   4.705   0.362  0.5126  1.7343 -0.2475
 8525SOL    MW433868   5.307   4.714   0.427  0.2806  0.5733 -0.5065
 8526SOL     OW33869   5.746   1.906   4.225 -0.0111  0.3709 -0.4923
 8526SOL    HW233870   5.772   1.969   4.293  0.7276  1.1414 -1.4697
 8526SOL    HW333871   5.653   1.923   4.212  0.0253  0.7932 -0.2484
 8526SOL    MW433872   5.737   1.917   4.233 -0.8324 -1.1762  0.2942
 8527SOL     OW33873   4.239   0.303   3.806  0.3331 -0.4678 -0.0871
 8527SOL    HW233874   4.290   0.383   3.796  0.2232 -0.3472  0.3345
 8527SOL    HW333875   4.214   0.279   3.716 -1.8181  1.3577 -0.0509
 8527SOL    MW433876   4.243   0.310   3.793  0.2712  0.4591  0.1320
 8528SOL     OW33877   5.546   6.163   0.369  0.4736 -0.1308  0.0160
 8528SOL    HW233878   5.600   6.174   0.447  2.3414  0.2816 -1.2937
 8528SOL    HW333879   5.547   6.069   0.352 -3.0866 -0.8508  2.5492
 8528SOL    MW433880   5.553   6.152   0.377 -0.3338 -0.1479  1.1101
 8529SOL     OW33881   6.376   2.279   1.254  0.1459  0.3030  0.3542
 8529SOL    HW233882   6.302   2.225   1.225 -0.7688  1.2232  0.8803
 8529SOL    HW333883   6.337   2.366   1.268  1.4559  0.9590  0.0696
 8529SOL    MW433884   6.361   2.283   1.252 -0.7928  0.2607  0.0861
 8530SOL     OW33885   0.814   5.644   2.575  0.0215 -0.4224 -0.4205
 8530SOL    HW233886   0.737   5.684   2.534  0.0085 -0.7442 -0.7108
 8530SOL    HW333887   0.886   5.665   2.516  0.2604  0.3451  0.1247
 8530SOL    MW433888   0.813   5.652   2.562  0.0560  0.3640 -0.1861
 8531SOL     OW33889   0.749   3.671   5.915 -0.4295 -0.1048 -0.0752
 8531SOL    HW233890   0.729   3.589   5.870  0.7242  0.1532 -1.1146
 8531SOL    HW333891   0.726   3.739   5.852 -1.4873  0.4061  0.8206
 8531SOL    MW433892   0.743   3.669   5.901  0.2782 -0.3246  0.2274
 8532SOL     OW33893   1.346   3.957   1.668  0.0493  0.3383  0.1643
 8532SOL    HW233894   1.323   3.962   1.760  1.0472 -0.6249  0.4818
 8532SOL    HW333895   1.427   4.009   1.660 -1.0608  2.0650 -0.5696
 8532SOL    MW433896   1.354   3.965   1.679  0.3259  0.2205  1.0388
 8533SOL     OW33897   3.393   0.216   2.811  0.2509 -0.1628  0.1151
 8533SOL    HW233898   3.396   0.190   2.719  2.2812 -0.6691  0.2905
 8533SOL    HW333899   3.317   0.170   2.846 -0.3626 -0.2163 -1.2198
 8533SOL    MW433900   3.383   0.206   2.803  0.0779  0.0920  0.0514
 8534SOL     OW33901   3.471   0.296   3.519 -0.3431 -0.5314 -0.3062
 8534SOL    HW233902   3.407   0.364   3.497  0.0203 -0.1708 -0.2530
 8534SOL    HW333903   3.535   0.300   3.448  0.3629  0.0376  0.3489
 8534SOL    MW433904   3.471   0.305   3.506 -0.0390  0.3987  0.0177
 8535SOL     OW33905   1.932   1.033   1.570  0.2763 -0.1189 -0.2064
 8535SOL    HW233906   2.009   0.979   1.588 -0.1242 -0.3459  0.9345
 8535SOL    HW333907   1.886   1.037   1.654  0.3463  2.0970 -0.2130
 8535SOL    MW433908   1.936   1.026   1.583  0.7866 -0.2795  0.2334
 8536SOL     OW33909   3.550   2.743   5.151  0.3295  0.3922 -0.0948
 8536SOL    HW233910   3.619   2.678   5.167 -1.6310 -1.9959 -0.6531
 8536SOL    HW333911   3.511   2.717   5.068 -0.9364  1.9588 -0.0433
 8536SOL    MW433912   3.554   2.731   5.142  0.4213  0.3352 -0.5186
 8537SOL     OW33913   2.323   5.036   6.221  0.0115  1.0463  0.2905
 8537SOL    HW233914   2.314   4.960   6.163  1.2854  1.2956 -0.2590
 8537SOL    HW333915   2.233   5.060   6.243 -0.4150 -0.9576  0.9329
 8537SOL    MW433916   2.310   5.029   6.216  0.2177  0.1811  0.3947
 8538SOL     OW33917   4.491   1.493   2.454  0.2650 -0.0388 -0.1961
 8538SOL    HW233918   4.545   1.545   2.514 -0.5637 -0.3147  0.8185
 8538SOL    HW333919   4.535   1.500   2.370  0.4428  1.9250  0.0152
 8538SOL    MW433920   4.504   1.501   2.451 -0.1995 -0.1397  0.3757
 8539SOL     OW33921   3.084   0.425   4.868  0.0175  0.5639 -0.2873
 8539SOL    HW233922   3.146   0.455   4.935 -0.9838  0.6423  0.6425
 8539SOL    HW333923   3.001   0.417   4.915 -0.3961 -0.8140 -1.1962
 8539SOL    MW433924   3.082   0.428   4.883  0.9025  0.4432  0.4785
 8540SOL     OW33925   5.543   5.012   2.548 -0.5401  0.4545  0.1314
 8540SOL    HW233926   5.480   5.085   2.542 -1.7663 -0.4994  0.9502
 8540SOL    HW333927   5.488   4.934   2.559  0.7863 -0.1510  3.7917
 8540SOL    MW433928   5.527   5.011   2.548 -1.2074  0.1084  0.1776
 8541SOL     OW33929   0.015   3.396   0.217  0.0154 -0.7913 -0.6052
 8541SOL    HW233930   0.064   3.324   0.177  0.9787 -0.4873 -0.0062
 8541SOL    HW333931   0.040   3.473   0.166  0.5709 -0.5502  0.0212
 8541SOL    MW433932   0.025   3.397   0.205 -0.5645 -0.5389  0.2420
 8542SOL     OW33933   6.048   0.284   5.324  0.3701  0.2355  0.0348
 8542SOL    HW233934   6.064   0.378   5.310  2.2357 -0.1253 -0.4048
 8542SOL    HW333935   6.099   0.241   5.256 -0.5460 -1.1217  0.1749
 8542SOL    MW433936   6.057   0.291   5.313  0.3476 -0.1273 -0.2509
 8543SOL     OW33937   2.511   4.443   2.474  0.1788 -0.0096 -0.7022
 8543SOL    HW233938   2.459   4.435   2.394 -0.3879 -0.0579 -0.3402
 8543SOL    HW333939   2.473   4.518   2.520  0.0897 -0.3598 -0.1910
 8543SOL    MW433940   2.499   4.451   2.470  0.2528 -0.2092  0.3777
 8544SOL     OW33941   0.385   3.426   3.508 -0.2268  0.5595  0.0895
 8544SOL    HW233942   0.346   3.434   3.595  0.6591  0.5027  0.5017
 8544SOL    HW333943   0.311   3.407   3.450 -0.7430 -0.0856  0.9310
 8544SOL    MW433944   0.370   3.424   3.512  0.0244  0.8849  0.3663
 8545SOL     OW33945   6.261   2.225   3.443  0.0553 -0.5019  0.0930
 8545SOL    HW233946   6.343   2.262   3.412  0.6211 -1.2541  0.6713
 8545SOL    HW333947   6.281   2.133   3.461 -1.2738 -1.0838 -1.1749
 8545SOL    MW433948   6.274   2.218   3.441  0.1117 -0.0781 -0.0245
 8546SOL     OW33949   3.490   5.562   2.514  0.0866 -0.5047  0.7837
 8546SOL    HW233950   3.539   5.553   2.596  2.3638  1.1714 -0.3004
 8546SOL    HW333951   3.556   5.555   2.445 -1.7469 -1.7652 -0.9682
 8546SOL    MW433952   3.505   5.560   2.516  0.1620 -0.8312  0.2459
 8547SOL     OW33953   6.110   4.627   1.390  0.9513 -0.3180 -0.1882
 8547SOL    HW233954   6.037   4.680   1.358  1.6786  0.8965  0.1030
 8547SOL    HW333955   6.183   4.689   1.399  2.7973 -1.9000 -2.8387
 8547SOL    MW433956   6.110   4.642   1.387  0.1439 -0.1395  0.1161
 8548SOL     OW33957   5.670   3.100   4.311  0.4389 -0.0300  0.4574
 8548SOL    HW233958   5.751   3.048   4.309  0.8730  0.6158 -1.7773
 8548SOL    HW333959   5.600   3.035   4.312  0.9641 -0.6051  1.4629
 8548SOL    MW433960   5.671   3.085   4.311  0.2424 -0.5363  0.6637
 8549SOL     OW33961   0.125   4.580   0.435  0.3573  0.0170  0.7945
 8549SOL    HW233962   0.062   4.508   0.426  0.2159 -0.0529  2.2207
 8549SOL    HW333963   0.145   4.583   0.528  1.2622  1.0792  0.5806
 8549SOL    MW433964   0.119   4.571   0.446  0.4698 -0.1040  0.4641
 8550SOL     OW33965   5.391   0.479   3.727  0.1759 -0.2376  0.1738
 8550SOL    HW233966   5.353   0.514   3.808 -0.7066 -0.8445  0.0317
 8550SOL    HW333967   5.486   0.491   3.738 -0.0383  4.2453 -0.7609
 8550SOL    MW433968   5.399   0.485   3.739 -0.4876  0.0789  0.3651
 8551SOL     OW33969   2.689   1.402   1.886 -0.0692  0.0999  0.0439
 8551SOL    HW233970   2.655   1.413   1.975  1.0247 -0.3518  0.5280
 8551SOL    HW333971   2.769   1.352   1.897  0.3736  0.5198 -1.1530
 8551SOL    MW433972   2.695   1.397   1.899 -0.3571 -0.0504 -0.7324
 8552SOL     OW33973   3.873   6.177   5.300  0.2952  0.3881  0.0052
 8552SOL    HW233974   3.945   6.130   5.341 -0.8674 -0.9959  0.5707
 8552SOL    HW333975   3.858   6.253   5.357 -0.0052 -0.4389  1.0726
 8552SOL    MW433976   3.880   6.181   5.313 -0.4137 -0.1446  0.7080
 8553SOL     OW33977   2.082   2.603   3.016 -0.6647 -0.5362  0.3580
 8553SOL    HW233978   2.152   2.603   3.081  1.9257 -0.0497 -2.2445
 8553SOL    HW333979   2.064   2.511   2.999 -0.7009 -0.6601  1.0234
 8553SOL    MW433980   2.089   2.591   3.022 -0.6175  0.0395 -0.5729
 8554SOL     OW33981   3.702   5.256   3.200 -0.5590  0.7709  0.1764
 8554SOL    HW233982   3.747   5.180   3.162 -0.9659 -0.1821  1.5320
 8554SOL    HW333983   3.719   5.250   3.294  1.9573  4.0609  0.1388
 8554SOL    MW433984   3.710   5.245   3.207 -0.2813 -0.2192 -0.2548
 8555SOL     OW33985   4.655   2.506   0.525  0.4162 -0.1219  0.1890
 8555SOL    HW233986   4.624   2.416   0.516  0.2099 -0.2872  2.2093
 8555SOL    HW333987   4.742   2.505   0.483 -0.3196 -0.7732 -1.4103
 8555SOL    MW433988   4.663   2.494   0.518  0.8778 -0.8366 -0.3686
 8556SOL     OW33989   6.169   0.819   0.020  0.7049 -0.5837 -0.4402
 8556SOL    HW233990   6.120   0.897   0.048  1.5486 -0.5847  1.1923
 8556SOL    HW333991   6.260   0.841   0.038  0.9605 -1.9345  0.0314
 8556SOL    MW433992   6.174   0.832   0.026  0.2733 -0.0676 -0.0254
 8557SOL     OW33993   2.523   1.144   0.287  0.1702 -0.1961 -0.0790
 8557SOL    HW233994   2.504   1.111   0.375 -2.8295  0.4627 -0.3883
 8557SOL    HW333995   2.604   1.195   0.298  0.0832 -0.4489  2.2093
 8557SOL    MW433996   2.532   1.146   0.300  0.1196 -0.1249 -0.2387
 8558SOL     OW33997   6.383   1.709   4.140  0.2779 -0.1084  0.3044
 8558SOL    HW233998   6.339   1.701   4.225  0.7125  0.3609  0.5783
 8558SOL    HW333999   6.379   1.802   4.119  0.3948 -0.1856 -0.0740
 8558SOL    MW434000   6.376   1.720   4.148 -0.4929  0.4122  0.4062
 8559SOL     OW34001   3.886   0.958   1.481  0.0439  0.3239 -0.0831
 8559SOL    HW234002   3.815   1.021   1.493  1.3236  1.6700  0.6919
 8559SOL    HW334003   3.857   0.904   1.407 -1.6711  0.9518  0.0705
 8559SOL    MW434004   3.873   0.959   1.473  0.8572  0.0852 -0.2536
 8560SOL     OW34005   0.271   0.170   0.153  0.1855  0.0869 -0.3673
 8560SOL    HW234006   0.271   0.117   0.073 -1.3838  0.6740 -0.7959
 8560SOL    HW334007   0.248   0.109   0.223 -0.2271 -0.0822 -0.6473
 8560SOL    MW434008   0.268   0.155   0.152  0.2977  0.4435 -0.2421
 8561SOL     OW34009   4.050   0.592   1.939 -0.0044 -0.3051 -0.3074
 8561SOL    HW234010   4.041   0.497   1.948  0.7228 -0.2582  1.2009
 8561SOL    HW334011   4.035   0.608   1.846  0.8447 -2.0079 -0.7943
 8561SOL    MW434012   4.047   0.581   1.928  0.5557 -0.0267  0.3137
 8562SOL     OW34013   0.762   3.934   1.496 -0.2046 -0.4746  0.2325
 8562SOL    HW234014   0.721   3.910   1.579 -2.0684  0.2695 -0.4054
 8562SOL    HW334015   0.810   3.856   1.469  0.0090 -0.8954  1.7424
 8562SOL    MW434016   0.763   3.921   1.504 -0.2743  0.1690 -0.2082
 8563SOL     OW34017   4.061   3.124   3.760 -0.4904  0.1863 -0.2390
 8563SOL    HW234018   4.072   3.157   3.671  0.5416 -0.4501 -0.3605
 8563SOL    HW334019   4.005   3.046   3.750 -2.5781  1.5596  0.0024
 8563SOL    MW434020   4.055   3.118   3.747 -0.2804  0.0511  0.0778
 8564SOL     OW34021   3.050   5.233   0.268  0.3708 -0.1507 -0.2211
 8564SOL    HW234022   3.100   5.314   0.276 -0.5871  0.4955 -0.5151
 8564SOL    HW334023   3.110   5.164   0.296  1.0845  0.6990  0.3897
 8564SOL    MW434024   3.064   5.235   0.273  0.4242  0.1737 -0.1218
 8565SOL     OW34025   3.314   2.179   2.702  0.1695  0.5907 -0.2585
 8565SOL    HW234026   3.336   2.120   2.630  1.9477 -0.9752  1.4459
 8565SOL    HW334027   3.265   2.124   2.763 -0.8611  1.7588 -0.0033
 8565SOL    MW434028   3.311   2.164   2.700 -0.5700 -0.3549 -0.3254
 8566SOL     OW34029   2.225   0.166   6.309  0.1732  0.3273  0.0591
 8566SOL    HW234030   2.278   0.110   6.366 -1.3140  0.1094  1.2961
 8566SOL    HW334031   2.243   0.255   6.340  0.5582  0.3433 -0.1958
 8566SOL    MW434032   2.234   0.171   6.321  0.0709  0.3969 -0.1398
 8567SOL     OW34033   6.370   2.745   1.555  0.7123  0.2183  0.0592
 8567SOL    HW234034   6.292   2.802   1.552  0.1575 -0.5467 -1.1222
 8567SOL    HW334035   6.347   2.676   1.616  0.6025  0.1917 -0.0112
 8567SOL    MW434036   6.356   2.744   1.562 -0.3056  0.1864 -0.1113
 8568SOL     OW34037   5.202   0.875   5.740 -0.0981 -0.5707  0.2573
 8568SOL    HW234038   5.160   0.805   5.690 -0.5945 -0.7183  0.8596
 8568SOL    HW334039   5.249   0.926   5.675  1.2540 -2.1254 -0.0550
 8568SOL    MW434040   5.202   0.872   5.725 -0.0091 -0.1018 -0.5118
 8569SOL     OW34041   0.663   5.112   4.057 -0.3292  0.5059 -0.6954
 8569SOL    HW234042   0.659   5.068   3.972 -0.0733  1.1606 -1.0517
 8569SOL    HW334043   0.585   5.168   4.059  0.1303  1.1594 -0.8775
 8569SOL    MW434044   0.652   5.114   4.046  0.2678 -0.2298  0.2126
 8570SOL     OW34045   3.687   1.623   1.999  0.5783 -0.1914 -0.0715
 8570SOL    HW234046   3.647   1.675   2.070 -0.8799 -0.3383 -0.7477
 8570SOL    HW334047   3.715   1.688   1.935 -0.8810 -0.1651 -0.7310
 8570SOL    MW434048   3.686   1.639   2.000  0.1558  0.7306 -0.5019
 8571SOL     OW34049   0.514   4.461   6.027  0.2421  0.0709 -0.3290
 8571SOL    HW234050   0.542   4.552   6.038 -0.6389  0.5532 -1.8027
 8571SOL    HW334051   0.477   4.437   6.112  1.1129  0.8297  0.2986
 8571SOL    MW434052   0.513   4.470   6.040 -0.5855  0.1759  0.1087
 8572SOL     OW34053   4.182   1.026   5.460  0.3429 -0.3674  0.2828
 8572SOL    HW234054   4.183   1.057   5.550  0.0680 -0.6292  0.3775
 8572SOL    HW334055   4.274   1.013   5.438  0.4813  0.6784  0.1822
 8572SOL    MW434056   4.195   1.029   5.469  0.6584 -0.4456  0.4169
 8573SOL     OW34057   1.345   2.799   4.615 -0.5489  0.5079  0.4880
 8573SOL    HW234058   1.266   2.764   4.574  0.4264 -0.7869 -0.3593
 8573SOL    HW334059   1.397   2.831   4.542  0.6426 -0.6153  0.8153
 8573SOL    MW434060   1.341   2.799   4.600 -0.2058 -0.0724  0.0826
 8574SOL     OW34061   6.154   5.726   6.055 -0.7940  0.3717 -0.2154
 8574SOL    HW234062   6.120   5.780   5.984 -2.0237  0.7038  0.5831
 8574SOL    HW334063   6.076   5.700   6.104 -0.1302 -1.2911  0.0141
 8574SOL    MW434064   6.139   5.730   6.052  0.6265 -0.6530  0.1256
 8575SOL     OW34065   3.397   6.371   5.008  0.8344  0.0256 -0.2065
 8575SOL    HW234066   3.316   6.407   4.972  0.6660 -1.3845 -1.2895
 8575SOL    HW334067   3.380   6.363   5.102 -0.0076  0.4379 -0.3133
 8575SOL    MW434068   3.384   6.375   5.015  0.0042 -0.5739  0.1241
 8576SOL     OW34069   2.310   0.940   3.362 -0.3178 -0.5327  0.1111
 8576SOL    HW234070   2.282   0.887   3.436 -0.4792  0.2876  0.6393
 8576SOL    HW334071   2.356   1.015   3.400  2.9177 -1.9041 -0.6846
 8576SOL    MW434072   2.312   0.943   3.377 -0.1717 -0.0408 -0.2965
 8577SOL     OW34073   4.337   0.710   4.458 -0.4819  0.0594 -0.0305
 8577SOL    HW234074   4.349   0.615   4.461 -1.2881 -0.0302  1.1647
 8577SOL    HW334075   4.423   0.744   4.432  0.1639 -0.9392  0.7227
 8577SOL    MW434076   4.350   0.702   4.455 -0.0611 -0.3328  0.2579
 8578SOL     OW34077   2.105   1.341   4.147  0.2318 -0.3192 -0.1759
 8578SOL    HW234078   2.088   1.411   4.083  1.1137  0.1330  0.0637
 8578SOL    HW334079   2.198   1.321   4.136  0.1880 -0.8446  0.3710
 8578SOL    MW434080   2.115   1.348   4.137  0.4184  0.2595  0.5393
 8579SOL     OW34081   2.046   5.919   2.170 -0.9393 -0.2081 -0.2740
 8579SOL    HW234082   2.119   5.866   2.202 -2.8874 -1.6203  2.1117
 8579SOL    HW334083   2.036   5.892   2.078  0.3449 -1.3644 -0.1129
 8579SOL    MW434084   2.055   5.908   2.162 -0.3226  0.5974 -0.4817
 8580SOL     OW34085   5.933   3.348   3.536  0.4826 -0.1829  0.3444
 8580SOL    HW234086   5.941   3.413   3.605  0.8779  0.3272 -0.1689
 8580SOL    HW334087   5.840   3.348   3.513  0.8167  2.1105 -1.4224
 8580SOL    MW434088   5.922   3.357   3.542  0.0119 -0.2883 -0.0870
 8581SOL     OW34089   1.573   3.163   0.652 -0.0433  0.3294  0.1020
 8581SOL    HW234090   1.584   3.238   0.711  0.0545  0.4287 -0.0423
 8581SOL    HW334091   1.551   3.090   0.710 -4.3978  1.2886 -0.0077
 8581SOL    MW434092   1.572   3.164   0.668  0.3837  0.1100  0.2290
 8582SOL     OW34093   4.955   4.232   2.737 -0.5170  0.6695  0.2068
 8582SOL    HW234094   5.025   4.207   2.677 -0.6221 -0.8468  0.6732
 8582SOL    HW334095   4.997   4.238   2.823 -0.7278  0.9558  0.2934
 8582SOL    MW434096   4.970   4.230   2.740 -0.4733 -0.2739 -0.4541
 8583SOL     OW34097   4.787   4.513   0.754 -0.7396 -0.1237  0.2873
 8583SOL    HW234098   4.714   4.501   0.814  0.3919  1.4925  2.1398
 8583SOL    HW334099   4.854   4.452   0.784 -0.4382  0.1537  0.1953
 8583SOL    MW434100   4.786   4.504   0.766  0.5523 -0.0046  0.2049
 8584SOL     OW34101   5.923   0.054   5.448  1.2472 -0.1061 -0.2635
 8584SOL    HW234102   5.958   0.120   5.388  1.8072 -1.1389 -1.1085
 8584SOL    HW334103   5.875  -0.007   5.392 -0.5941  0.3967  0.6840
 8584SOL    MW434104   5.922   0.055   5.433  0.0698  0.0069  0.1882
 8585SOL     OW34105   5.664   5.708   4.659 -0.4607  0.6872  0.0234
 8585SOL    HW234106   5.657   5.613   4.651 -0.0389  0.6216  0.3577
 8585SOL    HW334107   5.607   5.730   4.733 -1.5939  0.8624 -0.8843
 8585SOL    MW434108   5.656   5.698   4.668 -0.3689 -0.0054 -0.3933
 8586SOL     OW34109   2.229   1.060   4.390 -0.5758 -0.0396  0.2592
 8586SOL    HW234110   2.280   1.043   4.311  0.1721  1.7330  0.3288
 8586SOL    HW334111   2.212   1.154   4.388 -2.1023 -0.2570  1.3002
 8586SOL    MW434112   2.234   1.070   4.379  0.2981 -0.1002  0.3549
 8587SOL     OW34113   0.919   2.200   1.945  0.3813 -0.2665 -0.3163
 8587SOL    HW234114   0.840   2.221   1.994  0.3705 -1.2383  0.1049
 8587SOL    HW334115   0.949   2.284   1.910  0.6869  0.5619  1.7979
 8587SOL    MW434116   0.912   2.214   1.947 -0.0796  0.1340  0.0473
 8588SOL     OW34117   3.392   0.461   3.737 -0.1258  0.0903 -0.0154
 8588SOL    HW234118   3.453   0.471   3.810 -0.9388 -0.2171  0.7169
 8588SOL    HW334119   3.447   0.465   3.659  0.7013  0.8445  0.5962
 8588SOL    MW434120   3.407   0.463   3.736  0.2075  0.1409  0.0060
 8589SOL     OW34121   3.230   4.674   5.514 -0.6485  0.0035 -0.7688
 8589SOL    HW234122   3.202   4.585   5.533  1.6622 -1.1629 -2.3304
 8589SOL    HW334123   3.299   4.692   5.578  0.7928 -0.4383 -2.1378
 8589SOL    MW434124   3.236   4.665   5.525 -0.1137  0.5620 -0.1592
 8590SOL     OW34125   6.042   2.514   1.508  0.1335 -0.2769 -0.4717
 8590SOL    HW234126   6.053   2.443   1.571 -1.1950  0.2709  0.4167
 8590SOL    HW334127   5.979   2.480   1.445  1.1596 -0.6747 -1.3115
 8590SOL    MW434128   6.035   2.500   1.508  0.1614 -0.0011 -0.2686
 8591SOL     OW34129   2.618   1.339   5.156 -0.5304 -0.0918  0.4970
 8591SOL    HW234130   2.689   1.346   5.091  0.2980  1.9911  1.5245
 8591SOL    HW334131   2.539   1.330   5.103  0.1717  0.9954 -0.8255
 8591SOL    MW434132   2.617   1.339   5.140 -0.8317  0.5427 -0.3755
 8592SOL     OW34133   5.492   4.022   3.850  0.4746  0.3277 -0.0117
 8592SOL    HW234134   5.484   3.971   3.770  0.9453 -0.0290  0.1614
 8592SOL    HW334135   5.472   3.959   3.920  3.4374 -0.3270  0.3710
 8592SOL    MW434136   5.488   4.007   3.849 -0.3507 -0.1180  0.7686
 8593SOL     OW34137   2.287   0.598   2.253 -0.3867 -0.3929  0.4435
 8593SOL    HW234138   2.281   0.691   2.233 -0.5137  0.1019  2.5459
 8593SOL    HW334139   2.197   0.565   2.242 -0.2162 -0.4431 -0.9478
 8593SOL    MW434140   2.274   0.606   2.249  0.1805  0.1025 -0.0918
 8594SOL     OW34141   3.536   4.983   4.385  0.3988  0.4716  0.1892
 8594SOL    HW234142   3.481   4.921   4.338  0.9311  1.5618 -2.0083
 8594SOL    HW334143   3.529   4.956   4.477 -2.6405 -0.2765 -0.1499
 8594SOL    MW434144   3.528   4.971   4.391 -0.1195 -0.2064 -0.6200
 8595SOL     OW34145   4.736   6.408   2.037  0.1392  0.1212  0.4556
 8595SOL    HW234146   4.686   6.344   2.086 -0.4538 -0.7114 -1.1708
 8595SOL    HW334147   4.755   6.366   1.954  3.5625  0.3825  0.9403
 8595SOL    MW434148   4.732   6.394   2.033 -0.7072  0.7037 -0.3371
 8596SOL     OW34149   1.250   1.966   1.120 -0.1066 -0.0791  0.2366
 8596SOL    HW234150   1.244   2.062   1.123  0.5142 -0.0209 -0.1172
 8596SOL    HW334151   1.211   1.937   1.202 -0.6688  0.4574  0.1665
 8596SOL    MW434152   1.244   1.975   1.131 -1.1060 -0.8524  0.2460
 8597SOL     OW34153   4.680   2.876   1.157  0.1700 -0.3147  0.5977
 8597SOL    HW234154   4.635   2.907   1.078 -0.3036  0.2152  1.0696
 8597SOL    HW334155   4.741   2.810   1.125 -0.9201 -1.0308 -0.0777
 8597SOL    MW434156   4.682   2.871   1.142 -0.4906  0.7484 -0.3463
 8598SOL     OW34157   6.244   1.934   3.116 -0.0913 -0.4312 -0.4362
 8598SOL    HW234158   6.298   1.867   3.157 -1.2818 -1.0725  0.1502
 8598SOL    HW334159   6.164   1.888   3.090 -1.0511  0.7827  0.2178
 8598SOL    MW434160   6.240   1.919   3.118  0.0429  0.5285 -0.0263
 8599SOL     OW34161   3.970   0.061   4.659 -0.0506  0.5260  0.0948
 8599SOL    HW234162   4.003   0.014   4.736  2.3564 -0.5497 -1.4915
 8599SOL    HW334163   3.875   0.056   4.667  0.0831  0.9600  3.2694
 8599SOL    MW434164   3.962   0.054   4.670 -0.1729  0.3077  0.3077
 8600SOL     OW34165   3.834   3.760   4.433 -0.4755 -0.2440  0.0429
 8600SOL    HW234166   3.741   3.757   4.456 -0.4316  0.7072  0.4067
 8600SOL    HW334167   3.860   3.850   4.452  0.2447 -0.1726 -1.1653
 8600SOL    MW434168   3.825   3.772   4.439 -0.0439 -0.0035 -0.6394
 8601SOL     OW34169   0.531   5.530   2.839  0.3945  0.2990 -0.7469
 8601SOL    HW234170   0.543   5.452   2.784 -0.0907 -1.8262  1.9114
 8601SOL    HW334171   0.440   5.526   2.866  0.7556  0.9249  0.6415
 8601SOL    MW434172   0.521   5.519   2.835 -0.2628 -0.4488  0.2793
 8602SOL     OW34173   2.128   6.333   2.998 -0.4667 -1.0175 -0.1845
 8602SOL    HW234174   2.039   6.342   2.965 -1.0336 -0.6694  1.3543
 8602SOL    HW334175   2.176   6.405   2.959 -1.4986  0.3108  0.8952
 8602SOL    MW434176   2.123   6.343   2.989  0.4664  0.2146  0.1791
 8603SOL     OW34177   6.149   6.117   1.737 -0.3964 -0.3853  0.5031
 8603SOL    HW234178   6.101   6.049   1.785 -1.1894  0.4108  0.8576
 8603SOL    HW334179   6.129   6.099   1.645  0.8024 -1.6674  0.4583
 8603SOL    MW434180   6.140   6.105   1.731  0.4524  0.2536 -0.4948
 8604SOL     OW34181   0.212   2.696   5.887  0.4421  0.1920 -0.3384
 8604SOL    HW234182   0.255   2.736   5.962  0.1824  0.9087 -0.5618
 8604SOL    HW334183   0.263   2.617   5.869 -0.3751 -0.7907  1.4913
 8604SOL    MW434184   0.224   2.691   5.894 -0.3921  0.0085 -0.4061
 8605SOL     OW34185   4.084   1.521   3.200 -0.2270  0.0389  0.3603
 8605SOL    HW234186   3.995   1.552   3.216  0.0782  1.8424 -1.2051
 8605SOL    HW334187   4.079   1.473   3.118  0.6597  2.4851 -1.2364
 8605SOL    MW434188   4.072   1.519   3.192 -0.1827 -1.1447  0.2290
 8606SOL     OW34189   0.010   3.130   3.143 -0.6002  0.2415  0.0966
 8606SOL    HW234190   0.074   3.172   3.200  1.2024  0.3404 -1.8958
 8606SOL    HW334191  -0.062   3.193   3.137 -0.0731  0.9475  0.9059
 8606SOL    MW434192   0.009   3.144   3.150 -0.7425  0.1125 -0.4647
 8607SOL     OW34193   2.561   3.476   1.134  0.0675 -0.2602 -0.7809
 8607SOL    HW234194   2.545   3.430   1.216  0.2319  2.0372  0.6065
 8607SOL    HW334195   2.475   3.476   1.091 -0.7960  1.1016  0.8213
 8607SOL    MW434196   2.547   3.470   1.139 -0.0177  0.2753  0.1781
 8608SOL     OW34197   6.088   5.527   0.547  1.1352 -0.0442 -0.0013
 8608SOL    HW234198   6.095   5.622   0.555  1.9661 -0.1300  0.4080
 8608SOL    HW334199   6.163   5.501   0.494 -0.4857 -0.2349 -2.3702
 8608SOL    MW434200   6.099   5.536   0.541  0.3649 -0.8195  0.3551
 8609SOL     OW34201   3.792   6.145   4.655 -0.0265 -0.5102 -0.5126
 8609SOL    HW234202   3.847   6.088   4.603  0.5637 -1.0206  0.6350
 8609SOL    HW334203   3.851   6.182   4.720 -0.8965 -0.5301  0.3083
 8609SOL    MW434204   3.807   6.143   4.657  0.4208 -0.1912  0.0349
 8610SOL     OW34205   2.083   2.339   1.871  0.0315  0.3517 -0.0117
 8610SOL    HW234206   2.161   2.364   1.821  0.4638 -0.2500  0.3472
 8610SOL    HW334207   2.026   2.298   1.806  1.1127 -1.5705  0.1657
 8610SOL    MW434208   2.086   2.337   1.856 -0.0429 -0.1411  0.4220
 8611SOL     OW34209   1.824   4.069   1.529  0.3430 -0.0763 -0.0233
 8611SOL    HW234210   1.913   4.084   1.562  0.9187 -0.8021 -1.1572
 8611SOL    HW334211   1.791   4.156   1.507  1.1283  0.1343 -0.4194
 8611SOL    MW434212   1.832   4.083   1.530 -0.2472 -0.3013  0.4407
 8612SOL     OW34213   2.423   3.795   0.280 -0.1904  0.0204 -0.4637
 8612SOL    HW234214   2.505   3.752   0.255 -0.4037 -0.4836 -0.2921
 8612SOL    HW334215   2.431   3.883   0.242  0.1936 -0.2019 -0.9145
 8612SOL    MW434216   2.435   3.801   0.272  0.1690  0.0988 -0.4505
 8613SOL     OW34217   2.166   3.715   3.016  0.1227 -0.4640 -0.1332
 8613SOL    HW234218   2.141   3.693   3.105 -3.8232  0.8824 -0.7167
 8613SOL    HW334219   2.220   3.794   3.026 -3.6980  2.2829  1.1258
 8613SOL    MW434220   2.170   3.723   3.029  0.1629 -0.1453 -0.2566
 8614SOL     OW34221   1.222   2.714   2.659 -0.3769  0.0235 -0.1714
 8614SOL    HW234222   1.137   2.710   2.703 -0.0158 -0.2599  0.5123
 8614SOL    HW334223   1.277   2.652   2.707 -0.3176 -1.2226 -1.8050
 8614SOL    MW434224   1.218   2.705   2.671 -0.4892  0.3778  0.0623
 8615SOL     OW34225   3.831   5.389   4.496  0.0097  0.6013 -0.0622
 8615SOL    HW234226   3.908   5.419   4.448  0.4603 -2.9224 -1.9244
 8615SOL    HW334227   3.773   5.353   4.428 -1.0293 -1.2731  1.7070
 8615SOL    MW434228   3.833   5.388   4.480  0.2775  0.1725 -0.2262
 8616SOL     OW34229   1.236   0.583   6.183  0.0566 -0.4191 -0.1367
 8616SOL    HW234230   1.310   0.644   6.182  0.6013 -1.0780 -0.6902
 8616SOL    HW334231   1.172   0.622   6.125 -0.5312  0.7364  1.2224
 8616SOL    MW434232   1.238   0.596   6.175  0.0304 -0.0017  0.3116
 8617SOL     OW34233   0.574   2.621   5.461 -0.5475  0.3164  0.0436
 8617SOL    HW234234   0.573   2.538   5.508 -1.5576  0.3100  0.0158
 8617SOL    HW334235   0.534   2.683   5.521  0.2352  0.7995  0.0782
 8617SOL    MW434236   0.569   2.618   5.475 -0.4148 -0.1858  0.1255
 8618SOL     OW34237   1.778   4.947   4.001  0.9243 -0.6107 -0.1727
 8618SOL    HW234238   1.813   4.901   4.077  0.8902 -1.5625 -0.7294
 8618SOL    HW334239   1.711   4.889   3.966 -0.4555  0.6599  0.1869
 8618SOL    MW434240   1.774   4.934   4.007  0.0394  0.3871 -0.5107
 8619SOL     OW34241   5.651   3.951   4.615  0.0419 -0.6819 -0.3126
 8619SOL    HW234242   5.639   3.857   4.628  0.6779 -0.6760  0.3564
 8619SOL    HW334243   5.654   3.962   4.520  1.6802 -1.5675 -0.3914
 8619SOL    MW434244   5.650   3.940   4.604 -0.2368 -0.1197 -0.1886
 8620SOL     OW34245   0.604   0.378   5.302 -0.7382  0.1748  0.0535
 8620SOL    HW234246   0.561   0.293   5.295 -0.5820  0.0789  0.2468
 8620SOL    HW334247   0.695   0.362   5.278 -0.5240  0.1231  0.8715
 8620SOL    MW434248   0.610   0.365   5.298  0.2505  0.2430  0.1467
 8621SOL     OW34249   4.078   6.290   2.522  0.1461 -0.3595 -0.2270
 8621SOL    HW234250   4.137   6.256   2.455 -0.9774 -0.4798 -1.1662
 8621SOL    HW334251   4.097   6.384   2.525 -1.4293  0.1075 -2.4529
 8621SOL    MW434252   4.089   6.298   2.514  0.3657  0.1255 -0.5659
 8622SOL     OW34253   4.336   1.024   4.725  0.0095  0.1064 -0.4920
 8622SOL    HW234254   4.398   0.983   4.786 -0.5760  2.2770  1.7664
 8622SOL    HW334255   4.382   1.103   4.695  0.4984 -1.1799 -3.4503
 8622SOL    MW434256   4.350   1.029   4.729 -0.7626 -0.1405  0.7871
 8623SOL     OW34257   6.127   2.148   1.884 -0.0979  0.4529  0.4009
 8623SOL    HW234258   6.143   2.207   1.811  1.6866  1.3292  1.4456
 8623SOL    HW334259   6.069   2.198   1.943  1.7691  1.4323  1.4996
 8623SOL    MW434260   6.121   2.163   1.882  0.0491 -0.3270 -0.3575
 8624SOL     OW34261   1.172   3.651   4.198  0.6065 -0.0263  0.0146
 8624SOL    HW234262   1.260   3.619   4.219 -0.3851 -3.4211 -0.4250
 8624SOL    HW334263   1.147   3.602   4.120 -2.1987 -0.2615  0.9546
 8624SOL    MW434264   1.180   3.640   4.190  0.3880  0.4234  0.7846
 8625SOL     OW34265   1.086   3.866   4.040  0.4973  0.0588  0.1397
 8625SOL    HW234266   1.076   3.821   3.956 -0.3032 -0.9650  0.7535
 8625SOL    HW334267   1.120   3.799   4.099  1.6672  0.9419  0.4903
 8625SOL    MW434268   1.089   3.852   4.036  0.2198 -0.6719  0.1888
 8626SOL     OW34269   0.615   3.920   3.456  0.8357  0.1711  0.1776
 8626SOL    HW234270   0.581   3.831   3.463 -1.4711  0.8485 -1.2628
 8626SOL    HW334271   0.673   3.918   3.380 -2.1736  0.5897 -2.3353
 8626SOL    MW434272   0.618   3.908   3.447  0.3255  0.4616 -0.2602
 8627SOL     OW34273   2.445   0.083   6.038  0.6896 -0.3947  0.1660
 8627SOL    HW234274   2.398   0.064   6.120 -0.3186 -0.5118 -0.4230
 8627SOL    HW334275   2.377   0.080   5.971  1.7430 -1.6944 -0.8793
 8627SOL    MW434276   2.429   0.080   6.040 -0.5118 -0.2534  0.0982
 8628SOL     OW34277   3.703   4.269   3.921 -0.6682  0.3144 -0.5927
 8628SOL    HW234278   3.762   4.228   3.858  0.1201 -0.5370  0.6340
 8628SOL    HW334279   3.654   4.196   3.959 -1.9866  0.9401 -1.0464
 8628SOL    MW434280   3.704   4.254   3.918  0.0988  0.3187  0.4391
 8629SOL     OW34281   0.556   3.202   3.597  0.1051  0.2752 -0.8577
 8629SOL    HW234282   0.551   3.122   3.545 -0.1749 -0.6655  0.5713
 8629SOL    HW334283   0.517   3.269   3.540  1.2116 -0.3698 -2.4412
 8629SOL    MW434284   0.550   3.200   3.582 -0.1500 -0.2305  0.3392
 8630SOL     OW34285   3.614   4.732   5.273 -0.4214  0.7284 -0.3882
 8630SOL    HW234286   3.641   4.814   5.314  0.7249 -0.8045  2.1134
 8630SOL    HW334287   3.519   4.740   5.264 -0.5648  1.5949  1.5155
 8630SOL    MW434288   3.605   4.744   5.277  0.3720 -0.5489 -0.0682
 8631SOL     OW34289   5.412   4.333   3.012 -0.2593 -0.7212 -0.1423
 8631SOL    HW234290   5.343   4.302   3.071  0.5545 -0.8197  0.7785
 8631SOL    HW334291   5.492   4.329   3.065  0.2747  0.4575 -0.8346
 8631SOL    MW434292   5.413   4.328   3.027  0.0711  0.1201  0.3083
 8632SOL     OW34293   1.983   6.209   1.616  0.2436 -0.3760  0.2473
 8632SOL    HW234294   1.951   6.179   1.701  0.9032  0.0035  0.6394
 8632SOL    HW334295   1.910   6.258   1.578 -0.2507 -1.0334  0.3435
 8632SOL    MW434296   1.969   6.212   1.623 -0.2919  0.4862  0.5224
 8633SOL     OW34297   1.426   3.896   1.078  0.4373 -0.2716  0.6598
 8633SOL    HW234298   1.480   3.902   1.000 -0.2695  1.6208  0.2644
 8633SOL    HW334299   1.461   3.962   1.137 -0.4230 -0.1425  1.0387
 8633SOL    MW434300   1.437   3.906   1.075 -0.1821 -0.0243  0.3744
 8634SOL     OW34301   0.405   3.692   1.147 -0.0851 -0.4771 -0.0492
 8634SOL    HW234302   0.478   3.744   1.180  0.1216  0.4079 -1.8109
 8634SOL    HW334303   0.440   3.647   1.070 -1.2681 -0.4001 -0.6470
 8634SOL    MW434304   0.419   3.693   1.142  0.1684  0.0173 -0.4589
 8635SOL     OW34305   0.709   1.535   0.047 -0.5124 -0.5166 -0.2805
 8635SOL    HW234306   0.641   1.477   0.014  1.0914 -0.9965 -3.0505
 8635SOL    HW334307   0.789   1.508   0.001  1.0359  1.6352  0.9357
 8635SOL    MW434308   0.711   1.524   0.036 -0.6783 -0.9711 -0.3583
 8636SOL     OW34309   4.407   0.450   2.589  0.0488 -0.2454 -0.2002
 8636SOL    HW234310   4.371   0.380   2.535  1.6735 -0.8054 -0.6159
 8636SOL    HW334311   4.473   0.492   2.534 -0.2192  1.0096  0.3847
 8636SOL    MW434312   4.411   0.447   2.575 -0.1542  1.0831 -0.4004
 8637SOL     OW34313   1.875   0.216   4.446 -0.6438  0.3869 -0.1084
 8637SOL    HW234314   1.934   0.194   4.374 -0.4841 -1.6991  0.6031
 8637SOL    HW334315   1.802   0.156   4.436 -0.3469 -0.3417  1.7624
 8637SOL    MW434316   1.874   0.205   4.435  0.5438  0.0520  0.0817
 8638SOL     OW34317   5.675   6.337   1.035 -0.1161 -0.1110  0.0197
 8638SOL    HW234318   5.760   6.320   0.993  0.0123  0.8572 -0.1206
 8638SOL    HW334319   5.691   6.412   1.092 -0.3556 -1.2229  1.6375
 8638SOL    MW434320   5.689   6.345   1.037 -0.5697 -0.7419 -0.3142
 8639SOL     OW34321   3.331   5.614   4.220  0.3861 -0.3632 -0.2579
 8639SOL    HW234322   3.350   5.551   4.150  1.4026  0.5196 -0.7952
 8639SOL    HW334323   3.376   5.694   4.193 -2.6517  1.3380 -0.7177
 8639SOL    MW434324   3.339   5.616   4.207 -0.8236 -0.4049 -0.2880
 8640SOL     OW34325   5.534   1.137   5.758  0.2945 -0.1611 -0.2430
 8640SOL    HW234326   5.536   1.232   5.752 -1.0557 -0.2163 -2.4809
 8640SOL    HW334327   5.594   1.107   5.689 -1.5186 -0.8990 -1.5665
 8640SOL    MW434328   5.542   1.145   5.748  0.7420 -0.4332 -0.0507
 8641SOL     OW34329   4.307   5.907   2.524  0.4020  0.3418 -0.2946
 8641SOL    HW234330   4.399   5.902   2.549  0.2819 -1.0755 -0.0510
 8641SOL    HW334331   4.307   5.889   2.430  0.2766 -1.0861 -0.0455
 8641SOL    MW434332   4.319   5.904   2.515 -0.4117 -0.1394  0.1020
 8642SOL     OW34333   2.814   3.691   5.061  0.3228  0.1928 -0.6559
 8642SOL    HW234334   2.822   3.689   5.156  0.5082 -1.7776 -0.6882
 8642SOL    HW334335   2.722   3.672   5.044 -0.0881  2.1197 -0.8773
 8642SOL    MW434336   2.803   3.688   5.071  0.4035  0.3010  0.1923
 8643SOL     OW34337   1.249   2.089   1.579  0.1758  0.3537 -0.4430
 8643SOL    HW234338   1.266   2.181   1.558 -1.1783  0.4597 -1.2008
 8643SOL    HW334339   1.199   2.091   1.661  0.2759  0.2869 -0.3799
 8643SOL    MW434340   1.244   2.101   1.587 -0.5091  0.4126  0.1570
 8644SOL     OW34341   0.594   5.923   3.021 -1.0130 -0.2295  0.5394
 8644SOL    HW234342   0.576   5.977   3.098  0.7559 -0.7172  1.3529
 8644SOL    HW334343   0.671   5.872   3.046 -0.8233 -0.9067 -1.3230
 8644SOL    MW434344   0.602   5.924   3.035  0.7242 -0.3881  0.7953
 8645SOL     OW34345   4.484   4.030   0.333 -0.0656  0.7311 -0.6621
 8645SOL    HW234346   4.505   3.937   0.345  0.9264  0.9785 -0.3406
 8645SOL    HW334347   4.510   4.071   0.415 -1.4272  1.1629 -0.4250
 8645SOL    MW434348   4.491   4.023   0.345 -0.1729 -0.1682 -0.2419
 8646SOL     OW34349   4.519   4.687   1.919  0.3282  0.3955  0.0796
 8646SOL    HW234350   4.541   4.757   1.982 -0.6708  1.3764 -0.6179
 8646SOL    HW334351   4.424   4.678   1.926  0.3451 -0.2767 -0.4981
 8646SOL    MW434352   4.509   4.695   1.929 -0.2773 -0.5269 -0.3052
 8647SOL     OW34353   3.906   0.605   5.117 -0.1394  0.0441 -0.4119
 8647SOL    HW234354   3.991   0.619   5.076  0.4749  0.5612  0.9904
 8647SOL    HW334355   3.902   0.669   5.188 -1.6962  0.0215 -0.4493
 8647SOL    MW434356   3.917   0.615   5.121  0.9901 -0.6472 -0.1008
 8648SOL     OW34357   1.257   5.226   3.437  0.1943  0.1762  0.0883
 8648SOL    HW234358   1.309   5.148   3.421  0.2190 -0.4343  2.6944
 8648SOL    HW334359   1.304   5.272   3.507 -1.8116  0.5193  1.2705
 8648SOL    MW434360   1.270   5.222   3.444  0.7813 -0.3810  0.1169
 8649SOL     OW34361   3.703   1.021   1.124  0.0432 -0.2811 -0.0282
 8649SOL    HW234362   3.792   1.056   1.125 -0.4341  1.0407 -0.7947
 8649SOL    HW334363   3.648   1.095   1.098 -1.3381 -0.9724  0.7799
 8649SOL    MW434364   3.707   1.035   1.120 -0.2121  0.2970 -0.1878
 8650SOL     OW34365   0.505   1.675   3.251 -0.1757  0.1730  1.1564
 8650SOL    HW234366   0.451   1.681   3.330  0.2113 -1.2555  1.5713
 8650SOL    HW334367   0.591   1.706   3.279  0.7854 -3.0152  2.2187
 8650SOL    MW434368   0.509   1.680   3.265 -0.5726 -0.5151 -0.4780
 8651SOL     OW34369   5.978   0.778   1.311 -0.0878 -0.0999 -0.4783
 8651SOL    HW234370   6.070   0.801   1.318  0.2261 -1.1981 -0.7935
 8651SOL    HW334371   5.974   0.715   1.239 -0.8774 -1.0213  0.3257
 8651SOL    MW434372   5.989   0.772   1.302  0.2157  0.8470  0.0433
 8652SOL     OW34373   1.300   1.545   5.776  0.5927 -0.8284  0.1375
 8652SOL    HW234374   1.351   1.594   5.840 -0.9917  0.4619  0.4663
 8652SOL    HW334375   1.331   1.576   5.691 -1.1311  1.6874  0.3287
 8652SOL    MW434376   1.311   1.555   5.773  0.4788 -0.1921 -0.1116
 8653SOL     OW34377   2.512   2.986   2.567 -0.3557  0.5298 -0.5875
 8653SOL    HW234378   2.462   3.013   2.489 -1.8086  1.2303  0.5352
 8653SOL    HW334379   2.540   3.068   2.607 -1.3316  0.2810  0.6770
 8653SOL    MW434380   2.509   3.001   2.562 -0.2781  0.4060  0.0223
 8654SOL     OW34381   1.403   0.352   5.580 -0.7846  0.1302  0.1777
 8654SOL    HW234382   1.309   0.333   5.572 -0.7975  0.4137 -0.3300
 8654SOL    HW334383   1.410   0.401   5.662 -1.3237  1.6408 -0.6447
 8654SOL    MW434384   1.392   0.356   5.590  0.0813 -0.5660 -0.2061
 8655SOL     OW34385   1.786   1.574   4.602 -0.3547  0.6869  0.6339
 8655SOL    HW234386   1.881   1.562   4.609  0.0414  2.5739 -0.6699
 8655SOL    HW334387   1.751   1.535   4.681  1.3148 -1.8293  0.2416
 8655SOL    MW434388   1.794   1.567   4.613  0.3132 -0.3231  0.2184
 8656SOL     OW34389   1.961   5.607   1.877 -1.0244  0.0219  0.0925
 8656SOL    HW234390   1.873   5.609   1.915 -0.1107  2.0584  2.3124
 8656SOL    HW334391   1.995   5.695   1.889  1.6550 -0.9093  0.0457
 8656SOL    MW434392   1.954   5.619   1.884  0.0067 -0.2140  0.4665
 8657SOL     OW34393   5.476   0.589   4.264  0.1261  0.0430 -0.2949
 8657SOL    HW234394   5.397   0.555   4.305  0.0720  1.9670  1.3080
 8657SOL    HW334395   5.547   0.539   4.306 -0.1416 -0.7222 -0.7344
 8657SOL    MW434396   5.475   0.578   4.275  0.2623 -0.1203 -0.1538
 8658SOL     OW34397   4.109   5.933   3.716 -0.1892 -0.1240 -0.1265
 8658SOL    HW234398   4.141   5.960   3.630 -0.3575  0.6240  0.0348
 8658SOL    HW334399   4.081   5.843   3.704  0.5361 -0.2864 -0.6557
 8658SOL    MW434400   4.110   5.925   3.703  0.2395  0.0177 -0.3264
 8659SOL     OW34401   3.292   4.860   0.700 -0.4314 -0.5323 -0.1216
 8659SOL    HW234402   3.227   4.797   0.670  1.8794 -2.6441 -1.0758
 8659SOL    HW334403   3.374   4.830   0.660  1.0277  2.3746  0.4443
 8659SOL    MW434404   3.294   4.848   0.691  0.0461 -0.2456  0.1145
 8660SOL     OW34405   5.783   4.879   0.449 -0.0548  0.2720 -0.1203
 8660SOL    HW234406   5.820   4.918   0.370  0.0246 -1.2514 -0.8652
 8660SOL    HW334407   5.698   4.923   0.459 -0.2636  0.1656 -1.3139
 8660SOL    MW434408   5.776   4.890   0.440 -0.0160  0.7347 -0.0979
 8661SOL     OW34409   5.522   1.558   0.950  0.2711 -0.0870  0.1063
 8661SOL    HW234410   5.551   1.468   0.967 -0.4357 -0.5397 -0.9510
 8661SOL    HW334411   5.557   1.609   1.023  1.4352 -1.0646  0.2646
 8661SOL    MW434412   5.530   1.553   0.962 -0.2254  0.1368  0.4672
 8662SOL     OW34413   6.207   5.368   0.136  0.1005 -0.0856  0.2805
 8662SOL    HW234414   6.115   5.362   0.160 -0.0062 -0.6339 -0.2423
 8662SOL    HW334415   6.230   5.280   0.106  0.7742  0.0667  0.3250
 8662SOL    MW434416   6.198   5.355   0.135  0.3207 -0.0749  0.0660
 8663SOL     OW34417   0.453   4.577   2.011 -0.0684  0.4502  0.0433
 8663SOL    HW234418   0.411   4.663   2.020 -1.4303 -0.1218 -0.5783
 8663SOL    HW334419   0.381   4.515   2.019  0.7986 -0.6148 -0.2310
 8663SOL    MW434420   0.438   4.580   2.014 -0.3566 -0.1168  0.4683
 8664SOL     OW34421   1.819   6.038   3.272  0.2120 -0.4507  0.0397
 8664SOL    HW234422   1.901   6.072   3.309 -1.1834  1.0314  1.9914
 8664SOL    HW334423   1.830   6.046   3.178  2.2960 -0.2708  0.2421
 8664SOL    MW434424   1.832   6.044   3.265 -0.1079 -0.4781 -0.0095
 8665SOL     OW34425   2.636   1.579   1.220 -0.0854 -0.3559  0.2726
 8665SOL    HW234426   2.574   1.558   1.150  1.5466  1.0684 -1.7361
 8665SOL    HW334427   2.606   1.663   1.254 -0.0061 -0.2971  0.1984
 8665SOL    MW434428   2.624   1.587   1.215  0.4548 -0.6146  0.2035
 8666SOL     OW34429   4.673   2.318   1.090  0.6671 -0.2758  0.0167
 8666SOL    HW234430   4.705   2.380   1.024  0.1136 -0.8896 -0.8545
 8666SOL    HW334431   4.646   2.241   1.039 -1.0032 -0.2704  0.8263
 8666SOL    MW434432   4.674   2.316   1.074 -0.0323 -0.3672  0.4351
 8667SOL     OW34433   3.988   1.510   4.148  0.1953  0.0385  0.2345
 8667SOL    HW234434   4.018   1.465   4.069  0.0240 -0.3774  0.4045
 8667SOL    HW334435   4.048   1.482   4.217  0.4182  0.4943  0.2300
 8667SOL    MW434436   4.000   1.501   4.147  0.5723  0.4924 -0.6672
 8668SOL     OW34437   4.870   2.761   4.907  0.9470 -0.1312 -0.0363
 8668SOL    HW234438   4.853   2.667   4.900 -0.1184  0.0621 -0.2359
 8668SOL    HW334439   4.785   2.799   4.931  1.4516  0.7427  0.4115
 8668SOL    MW434440   4.856   2.753   4.909  0.1039  0.3613  0.3219
 8669SOL     OW34441   2.176   1.366   6.387  0.4504  0.3625 -0.0470
 8669SOL    HW234442   2.242   1.319   6.437 -0.3050 -0.6824 -0.0038
 8669SOL    HW334443   2.103   1.305   6.380  0.5759  0.4082 -2.5520
 8669SOL    MW434444   2.175   1.352   6.393 -0.1984  0.3082 -0.1547
 8670SOL     OW34445   5.695   2.756   0.572  0.0299  0.2526  0.6018
 8670SOL    HW234446   5.767   2.694   0.584 -0.1187 -0.1674 -0.5971
 8670SOL    HW334447   5.670   2.746   0.481 -0.0003  2.0909  0.3763
 8670SOL    MW434448   5.701   2.746   0.562  0.6389  0.0095  0.2114
 8671SOL     OW34449   1.751   3.647   0.863 -0.7741 -0.8662  0.4162
 8671SOL    HW234450   1.681   3.653   0.928 -0.6426 -0.8952  0.5622
 8671SOL    HW334451   1.804   3.572   0.892  0.2404  0.1282  1.2198
 8671SOL    MW434452   1.749   3.638   0.875  0.1779 -1.4051  0.4786
 8672SOL     OW34453   3.026   4.702   1.420  0.0148 -0.0498  0.1288
 8672SOL    HW234454   3.023   4.612   1.453  1.4503 -0.6586 -1.2461
 8672SOL    HW334455   3.107   4.705   1.368  0.0087  2.0544  0.1726
 8672SOL    MW434456   3.037   4.690   1.418 -0.2107  0.3162 -0.4468
 8673SOL     OW34457   3.725   1.899   0.527  0.0818  0.5524  0.0360
 8673SOL    HW234458   3.736   1.806   0.546  2.2415  0.4814 -1.1793
 8673SOL    HW334459   3.762   1.910   0.439 -1.1976  2.3747 -0.3360
 8673SOL    MW434460   3.731   1.888   0.518 -0.4941 -0.1295  0.4000
 8674SOL     OW34461   5.175   1.448   0.748 -0.4689 -0.4784 -0.0502
 8674SOL    HW234462   5.204   1.448   0.657 -1.3043  0.1106 -0.3260
 8674SOL    HW334463   5.080   1.457   0.744 -0.4897 -0.0684  0.8837
 8674SOL    MW434464   5.166   1.449   0.736 -0.1808  0.3249  0.5371
 8675SOL     OW34465   1.064   5.301   2.737 -0.2239 -0.6388 -0.5079
 8675SOL    HW234466   1.077   5.327   2.828 -1.2819  1.6664 -0.9451
 8675SOL    HW334467   1.152   5.301   2.700  0.6185 -4.3646  1.0728
 8675SOL    MW434468   1.077   5.305   2.744  0.2105 -0.4126  0.4237
 8676SOL     OW34469   1.417   0.825   6.215  0.2628  0.4271  0.2119
 8676SOL    HW234470   1.407   0.894   6.281  0.7135 -0.3178  1.0797
 8676SOL    HW334471   1.512   0.810   6.210  0.1062 -0.8875  0.8395
 8676SOL    MW434472   1.428   0.832   6.223 -0.5325  0.6654  0.8924
 8677SOL     OW34473   1.196   2.280   2.277  0.2326 -0.0945  0.3180
 8677SOL    HW234474   1.260   2.230   2.225  1.6958  0.8869  1.0900
 8677SOL    HW334475   1.206   2.247   2.366 -0.1225  0.2747  0.4980
 8677SOL    MW434476   1.206   2.269   2.282 -0.0702 -0.7562  0.0195
 8678SOL     OW34477   2.251   4.526   0.596 -0.1982 -0.2729  0.3709
 8678SOL    HW234478   2.177   4.574   0.633  0.8458 -0.0925  2.3373
 8678SOL    HW334479   2.251   4.443   0.643  1.8995  0.4514  1.7731
 8678SOL    MW434480   2.241   4.521   0.607 -0.6131 -0.1032 -0.4627
 8679SOL     OW34481   1.015   1.983   2.196 -0.4364  0.4904 -0.2091
 8679SOL    HW234482   1.102   1.983   2.236 -1.3155 -0.6371  1.8394
 8679SOL    HW334483   0.978   2.068   2.220  0.3670  1.3476 -1.8389
 8679SOL    MW434484   1.021   1.995   2.204 -0.5021  0.2823 -0.4747
 8680SOL     OW34485   3.551   4.275   3.130  0.4266  0.0202  0.0826
 8680SOL    HW234486   3.470   4.299   3.085  1.6069 -0.0294 -2.1746
 8680SOL    HW334487   3.532   4.190   3.169 -0.7378  0.2084 -0.0282
 8680SOL    MW434488   3.538   4.267   3.129  0.0376 -0.6448 -0.2517
 8681SOL     OW34489   5.632   1.585   2.391 -1.0347 -0.1024  0.0708
 8681SOL    HW234490   5.668   1.665   2.427  0.4310 -0.0638 -1.3643
 8681SOL    HW334491   5.688   1.515   2.424 -0.0019 -0.1169 -1.6334
 8681SOL    MW434492   5.644   1.586   2.400 -0.1145  0.5784  0.1095
 8682SOL     OW34493   2.063   5.487   0.929  0.2094 -0.6252  0.8578
 8682SOL    HW234494   2.067   5.509   1.022  1.4929  0.6849  0.5224
 8682SOL    HW334495   2.133   5.423   0.917  1.1292  0.4266  0.5026
 8682SOL    MW434496   2.073   5.481   0.940 -0.7648 -0.0375  0.6004
 8683SOL     OW34497   5.600   3.313   4.856  0.0749 -0.4960  0.3655
 8683SOL    HW234498   5.528   3.373   4.839  0.0175 -0.5931  0.2646
 8683SOL    HW334499   5.654   3.359   4.920  0.4158 -0.0329 -0.2458
 8683SOL    MW434500   5.597   3.327   4.862  0.2707 -0.0501  0.9365
 8684SOL     OW34501   2.753   2.396   6.222 -0.1040 -0.1958  0.0042
 8684SOL    HW234502   2.733   2.481   6.261  1.3832  0.2075 -0.0596
 8684SOL    HW334503   2.778   2.416   6.132  0.2035 -0.6970 -0.0275
 8684SOL    MW434504   2.754   2.410   6.215 -0.0671 -0.1090 -0.0396
 8685SOL     OW34505   2.906   0.684   3.010  0.1195 -0.1753 -0.4312
 8685SOL    HW234506   2.932   0.724   3.093  1.3022 -0.8494 -0.4493
 8685SOL    HW334507   2.950   0.599   3.010 -0.2206 -0.3677 -1.5635
 8685SOL    MW434508   2.915   0.678   3.021 -0.1076  0.4969 -0.1803
 8686SOL     OW34509   0.889   2.269   1.087 -0.4662  0.1581 -0.1657
 8686SOL    HW234510   0.948   2.296   1.158  0.0415  0.4115 -0.6793
 8686SOL    HW334511   0.842   2.348   1.063 -4.0356 -0.7183  2.9263
 8686SOL    MW434512   0.891   2.283   1.093  0.0591 -0.5640  0.0145
 8687SOL     OW34513   0.064   2.382   3.924  0.7088 -0.0817  0.1639
 8687SOL    HW234514   0.087   2.308   3.868  0.4806 -0.4003  0.4951
 8687SOL    HW334515  -0.029   2.371   3.943 -0.3085  2.2019 -2.7192
 8687SOL    MW434516   0.055   2.371   3.919 -0.4638 -0.5320 -0.2126
 8688SOL     OW34517   2.603   2.188   1.609  0.4296  0.2979 -0.5278
 8688SOL    HW234518   2.661   2.263   1.622 -0.1104  0.8474 -1.1753
 8688SOL    HW334519   2.608   2.171   1.515  0.0141 -0.0418 -0.4894
 8688SOL    MW434520   2.612   2.195   1.598  0.1575  0.2535 -0.6832
 8689SOL     OW34521   1.981   3.369   1.180  0.1256  0.3206 -0.2925
 8689SOL    HW234522   1.928   3.423   1.239 -0.2318  0.3184 -0.6126
 8689SOL    HW334523   1.935   3.286   1.175 -0.2928  0.5939 -1.2192
 8689SOL    MW434524   1.968   3.365   1.187 -0.0857  0.1707 -0.1924
 8690SOL     OW34525   0.564   1.988   4.059  0.2607  0.2914  0.2481
 8690SOL    HW234526   0.610   1.969   3.976  0.6520 -1.0111  0.7314
 8690SOL    HW334527   0.518   1.907   4.078 -1.0671  1.1018  0.5399
 8690SOL    MW434528   0.564   1.975   4.050  0.1263 -0.4765 -0.1483
 8691SOL     OW34529   0.836   0.514   6.396 -0.4186  0.3833 -0.0099
 8691SOL    HW234530   0.751   0.477   6.418 -0.8764  1.2670 -0.2291
 8691SOL    HW334531   0.836   0.600   6.438 -0.0734  0.8309 -0.8976
 8691SOL    MW434532   0.825   0.521   6.404 -0.3948 -0.0132 -0.6074
 8692SOL     OW34533   2.212   1.896   2.412 -0.4803 -0.5815  0.2696
 8692SOL    HW234534   2.267   1.952   2.357  0.6541 -0.7869  1.1585
 8692SOL    HW334535   2.216   1.810   2.371  0.5972 -0.8015  0.8041
 8692SOL    MW434536   2.220   1.892   2.399 -0.1015  0.1519 -0.4492
 8693SOL     OW34537   1.339   4.431   4.492  0.3161 -0.1512  0.0151
 8693SOL    HW234538   1.364   4.492   4.562  0.0995  1.1712 -1.0275
 8693SOL    HW334539   1.257   4.466   4.459 -0.5240 -1.8025  0.2805
 8693SOL    MW434540   1.332   4.444   4.497 -0.0018 -0.1022 -0.1396
 8694SOL     OW34541   5.889   0.286   1.356  0.4840  0.0378  0.2473
 8694SOL    HW234542   5.862   0.378   1.362  1.3289  0.4249 -1.3815
 8694SOL    HW334543   5.822   0.239   1.405 -0.3328  1.4580  0.5628
 8694SOL    MW434544   5.876   0.292   1.363 -0.0573 -0.5254  0.2344
 8695SOL     OW34545   6.301   0.325   2.337 -0.3427 -0.0609 -0.5374
 8695SOL    HW234546   6.367   0.388   2.309  0.9685 -1.0060  0.3198
 8695SOL    HW334547   6.343   0.240   2.330 -1.5860 -0.7323 -0.2687
 8695SOL    MW434548   6.315   0.322   2.333 -0.6050  0.0546  0.4604
 8696SOL     OW34549   6.190   4.319   3.318 -0.9241 -0.5884 -0.4558
 8696SOL    HW234550   6.182   4.320   3.223 -0.0131 -1.0952 -0.5588
 8696SOL    HW334551   6.228   4.233   3.337  0.2500  0.0508  0.2262
 8696SOL    MW434552   6.194   4.308   3.308  0.2857  0.0852 -0.1218
 8697SOL     OW34553   5.129   1.506   5.307 -0.6499  0.1546  0.3691
 8697SOL    HW234554   5.208   1.554   5.331 -0.7617 -0.1163  1.3147
 8697SOL    HW334555   5.138   1.421   5.350 -0.1278 -0.9766 -1.8381
 8697SOL    MW434556   5.141   1.501   5.316 -0.0612 -0.1007  0.1745
 8698SOL     OW34557   5.096   6.069   4.567  0.3109  0.1761  0.1542
 8698SOL    HW234558   5.151   6.066   4.646 -1.4852  0.4371  1.4783
 8698SOL    HW334559   5.053   6.154   4.571 -0.8988 -0.3891 -0.3135
 8698SOL    MW434560   5.098   6.080   4.578  0.4790 -0.0183 -0.4184
 8699SOL     OW34561   4.538   0.591   5.286  0.4193 -0.3896  0.5524
 8699SOL    HW234562   4.457   0.642   5.284  0.3357 -0.4228  1.8019
 8699SOL    HW334563   4.594   0.630   5.219  0.5461  1.6915  1.7889
 8699SOL    MW434564   4.535   0.603   5.277 -0.4730  0.5043  0.3276
 8700SOL     OW34565   0.797   2.112   5.847 -0.6657 -0.0427 -0.1120
 8700SOL    HW234566   0.819   2.030   5.803  1.3989  1.3816 -1.9229
 8700SOL    HW334567   0.825   2.100   5.937  0.0284 -1.1685 -0.4667
 8700SOL    MW434568   0.803   2.100   5.853 -0.3657  0.1866  0.0887
 8701SOL     OW34569   2.770   0.139   5.859  0.9678  0.6757 -0.1723
 8701SOL    HW234570   2.758   0.064   5.916 -0.4182 -0.2530 -1.6161
 8701SOL    HW334571   2.795   0.102   5.775  3.3415  2.0339 -0.1575
 8701SOL    MW434572   2.771   0.125   5.856  0.6994  0.4275  0.8775
 8702SOL     OW34573   4.318   0.271   1.387  0.0827 -0.3584 -0.1356
 8702SOL    HW234574   4.288   0.218   1.461  0.9627  0.8109  1.1093
 8702SOL    HW334575   4.318   0.361   1.421  3.3113 -0.0906 -0.5873
 8702SOL    MW434576   4.314   0.276   1.402  0.1381 -0.3562 -0.1063
 8703SOL     OW34577   2.965   1.316   1.969 -0.2088 -0.5887 -0.4018
 8703SOL    HW234578   3.022   1.255   1.922 -0.8320 -0.3080 -1.5408
 8703SOL    HW334579   3.024   1.361   2.031  0.3568 -1.9206  0.0564
 8703SOL    MW434580   2.981   1.314   1.971 -0.1389  0.0100 -0.0980
 8704SOL     OW34581   2.559   6.242   2.895 -0.6898  0.1358 -0.2267
 8704SOL    HW234582   2.569   6.148   2.884 -1.0997  0.2518 -1.7414
 8704SOL    HW334583   2.630   6.281   2.845 -0.5392  0.6477  0.3613
 8704SOL    MW434584   2.569   6.235   2.887  0.1619 -0.5415 -0.1976
 8705SOL     OW34585   1.122   1.123   1.974  0.7921 -0.6374 -0.0931
 8705SOL    HW234586   1.037   1.157   2.001  0.8398 -0.7549  0.2145
 8705SOL    HW334587   1.131   1.040   2.021  0.6320 -1.1286 -0.9239
 8705SOL    MW434588   1.112   1.117   1.984 -0.4817  0.0415 -0.0254
 8706SOL     OW34589   1.463   3.622   1.419 -0.2639  0.1743  0.0480
 8706SOL    HW234590   1.518   3.698   1.404  0.5209 -0.4381 -0.2729
 8706SOL    HW334591   1.475   3.601   1.512 -0.7554  0.6409  0.2217
 8706SOL    MW434592   1.471   3.629   1.429  0.0374  0.2653  0.5260
 8707SOL     OW34593   2.350   4.284   0.195  0.0690 -0.2181 -0.3132
 8707SOL    HW234594   2.399   4.365   0.178  0.4146 -0.1176  1.0230
 8707SOL    HW334595   2.266   4.298   0.152  0.3128  0.6506 -0.5407
 8707SOL    MW434596   2.346   4.297   0.187 -0.0883 -0.3411  0.0920
 8708SOL     OW34597   5.249   6.035   3.657 -0.2402  0.1757 -0.1320
 8708SOL    HW234598   5.287   6.077   3.580  2.2857  0.2807  1.0635
 8708SOL    HW334599   5.263   6.098   3.728 -2.2273 -0.0473  0.5355
 8708SOL    MW434600   5.256   6.049   3.656  0.5029  0.7635  0.9067
 8709SOL     OW34601   3.997   0.649   3.248 -0.1714 -0.7592 -0.1101
 8709SOL    HW234602   4.034   0.671   3.334  0.7295 -0.0718 -0.6567
 8709SOL    HW334603   3.905   0.630   3.266 -0.2140  0.2795  0.8904
 8709SOL    MW434604   3.990   0.650   3.262  0.3958 -0.1368 -0.6500
 8710SOL     OW34605   2.686   0.745   2.315  0.0576  0.0972 -0.0332
 8710SOL    HW234606   2.670   0.813   2.379 -0.7750 -0.7323  0.6740
 8710SOL    HW334607   2.640   0.668   2.349  0.9861 -0.8300 -0.7870
 8710SOL    MW434608   2.678   0.744   2.328 -0.1049  0.1005  0.5986
 8711SOL     OW34609   1.477   5.110   2.293  0.1508 -0.3683 -0.7091
 8711SOL    HW234610   1.388   5.084   2.271  0.2889 -0.5212 -1.0907
 8711SOL    HW334611   1.490   5.192   2.246 -0.1742  0.2387  0.2401
 8711SOL    MW434612   1.467   5.117   2.284 -0.3530 -0.3116  0.0320
 8712SOL     OW34613   4.822   0.789   3.477 -0.1312 -0.3098  0.3979
 8712SOL    HW234614   4.782   0.767   3.393 -0.7156  1.4832  0.1644
 8712SOL    HW334615   4.783   0.726   3.539 -1.1949 -0.3981 -0.3288
 8712SOL    MW434616   4.811   0.777   3.474 -0.3309  0.0989  0.1335
 8713SOL     OW34617   3.341   6.268   3.040 -0.4515  0.0670 -0.5983
 8713SOL    HW234618   3.309   6.266   3.131 -1.2038 -1.4366 -0.8684
 8713SOL    HW334619   3.435   6.283   3.049 -0.2795 -1.3707  0.5374
 8713SOL    MW434620   3.349   6.269   3.053  0.0468 -0.5283  0.1852
 8714SOL     OW34621   4.688   5.876   4.483 -0.2866 -0.0532 -0.3396
 8714SOL    HW234622   4.664   5.907   4.570 -0.6617 -0.7577 -0.1832
 8714SOL    HW334623   4.703   5.956   4.432 -1.3027  0.3972  0.0329
 8714SOL    MW434624   4.687   5.890   4.487 -0.0140 -0.3043  0.3328
 8715SOL     OW34625   2.008   5.681   2.556 -0.3959 -0.4139  0.2223
 8715SOL    HW234626   2.097   5.681   2.522 -0.1926 -3.4465  0.5032
 8715SOL    HW334627   2.018   5.699   2.649  0.0595 -1.5532  0.4134
 8715SOL    MW434628   2.021   5.684   2.564 -0.5885 -0.8266  0.6238
 8716SOL     OW34629   6.345   4.033   0.743  0.3728 -0.2289 -0.3208
 8716SOL    HW234630   6.323   4.114   0.697  0.3982 -0.5081 -0.8371
 8716SOL    HW334631   6.333   3.965   0.677 -2.9862 -1.0896  0.9473
 8716SOL    MW434632   6.340   4.035   0.728  0.6776 -0.0947  0.0086
 8717SOL     OW34633   5.452   4.675   1.319 -0.2412 -0.0997  0.0578
 8717SOL    HW234634   5.391   4.689   1.247 -2.4943  2.7020  2.2701
 8717SOL    HW334635   5.455   4.580   1.330 -0.3908 -0.5737 -3.1514
 8717SOL    MW434636   5.444   4.664   1.311 -0.6799  0.2337  0.0756
 8718SOL     OW34637   2.478   0.569   5.596 -0.1424 -0.2721 -0.2894
 8718SOL    HW234638   2.442   0.486   5.564  1.0318 -1.1830  0.6215
 8718SOL    HW334639   2.402   0.624   5.613 -0.9509 -1.1586 -0.9456
 8718SOL    MW434640   2.463   0.565   5.594  0.1488 -0.8509 -0.7800
 8719SOL     OW34641   5.147   1.175   3.787 -0.2238  0.0994  0.8000
 8719SOL    HW234642   5.138   1.148   3.878 -0.1061  0.5286  0.9415
 8719SOL    HW334643   5.139   1.094   3.737  1.7820 -0.4503  1.2942
 8719SOL    MW434644   5.145   1.161   3.792 -0.0941 -0.0230 -0.6114
 8720SOL     OW34645   2.162   3.052   0.508 -0.2852 -0.7922 -0.0183
 8720SOL    HW234646   2.114   3.097   0.578  0.8549 -0.9029  0.8523
 8720SOL    HW334647   2.105   2.979   0.484 -1.1602 -0.1607  0.0571
 8720SOL    MW434648   2.148   3.049   0.514 -0.1362  0.1841 -0.1901
 8721SOL     OW34649   1.199   0.878   2.885 -0.1348  0.0323  0.2261
 8721SOL    HW234650   1.253   0.880   2.964 -1.3189 -0.2512  1.0754
 8721SOL    HW334651   1.124   0.823   2.909 -1.6229  1.7092 -0.3458
 8721SOL    MW434652   1.196   0.871   2.899  0.3581 -0.1718  0.1055
 8722SOL     OW34653   2.495   0.358   6.160 -0.4829 -0.1573  0.3771
 8722SOL    HW234654   2.439   0.408   6.220 -0.6392  2.0514 -1.4869
 8722SOL    HW334655   2.437   0.290   6.125 -0.5535 -1.0976  2.1862
 8722SOL    MW434656   2.480   0.355   6.164 -0.1031  0.1233 -0.6301
 8723SOL     OW34657   4.672   4.321   3.687 -0.6949  0.3688  0.1722
 8723SOL    HW234658   4.714   4.387   3.631 -0.8295 -0.5211 -1.0262
 8723SOL    HW334659   4.630   4.372   3.757  0.0433  1.4711 -0.1590
 8723SOL    MW434660   4.672   4.336   3.689 -0.2524  0.4925  0.2668
 8724SOL     OW34661   1.867   3.994   5.301 -0.1473 -0.0200 -0.6355
 8724SOL    HW234662   1.810   3.955   5.367 -0.0965  0.5628 -0.2397
 8724SOL    HW334663   1.948   4.013   5.347  0.0633 -0.0605 -0.9891
 8724SOL    MW434664   1.870   3.991   5.315  0.1875  0.1375 -0.1422
 8725SOL     OW34665   4.237   2.008   0.841  0.0624  0.2600 -0.5244
 8725SOL    HW234666   4.172   2.033   0.907  0.0823  2.8093 -1.3472
 8725SOL    HW334667   4.186   2.000   0.760  0.5457  0.9054 -0.9018
 8725SOL    MW434668   4.221   2.010   0.839 -0.1181 -0.0753  0.3466
 8726SOL     OW34669   3.767   2.171   0.631 -0.7674  0.0380 -0.2088
 8726SOL    HW234670   3.727   2.231   0.569  0.0795 -0.0592 -0.8609
 8726SOL    HW334671   3.757   2.085   0.591  0.9851  0.1127 -0.9046
 8726SOL    MW434672   3.761   2.168   0.618  0.3591  0.1005  0.3070
 8727SOL     OW34673   4.415   0.639   2.300 -0.5518 -0.1783 -0.0418
 8727SOL    HW234674   4.435   0.732   2.307  0.5186 -0.4033  0.0569
 8727SOL    HW334675   4.476   0.606   2.234  1.6476 -1.4883  2.4372
 8727SOL    MW434676   4.426   0.647   2.292  0.4668 -0.0040  0.3053
 8728SOL     OW34677   2.816   1.183   2.158 -0.0404  0.2928  0.1485
 8728SOL    HW234678   2.838   1.205   2.248  0.6635 -0.6996  0.2365
 8728SOL    HW334679   2.879   1.231   2.105  1.4762 -1.3886  0.3369
 8728SOL    MW434680   2.827   1.192   2.163 -0.3072 -0.1725 -0.2733
 8729SOL     OW34681   0.319   6.280   5.109 -0.2598 -0.3391  0.0258
 8729SOL    HW234682   0.359   6.199   5.140 -0.4481 -0.8571 -1.0500
 8729SOL    HW334683   0.226   6.270   5.127 -0.0646  0.5475  1.8204
 8729SOL    MW434684   0.312   6.268   5.116 -0.0019  0.4651  0.2948
 8730SOL     OW34685   1.884   0.875   3.557 -0.1807  0.2465 -0.2710
 8730SOL    HW234686   1.851   0.838   3.640  0.3283  0.7893  0.1809
 8730SOL    HW334687   1.841   0.823   3.489  0.7537 -1.3905  0.3354
 8730SOL    MW434688   1.874   0.864   3.559  0.3111 -0.4225 -0.2479
 8731SOL     OW34689   0.045   1.722   5.408  0.1895 -0.3695 -0.2902
 8731SOL    HW234690   0.029   1.781   5.334 -1.2795 -0.6120 -0.2102
 8731SOL    HW334691   0.013   1.769   5.484 -0.1241 -0.8774 -0.0984
 8731SOL    MW434692   0.038   1.736   5.408 -0.2192  0.5417 -0.5265
 8732SOL     OW34693   2.063   2.985   5.273 -0.7619 -0.0190  0.1727
 8732SOL    HW234694   2.075   3.076   5.302 -0.4994 -0.8687  3.0865
 8732SOL    HW334695   2.125   2.975   5.201  2.0058  1.1631  2.1930
 8732SOL    MW434696   2.073   2.996   5.267  0.4462  0.0390 -0.2313
 8733SOL     OW34697   4.706   3.991   3.990  0.1212 -0.2713 -0.4721
 8733SOL    HW234698   4.625   3.953   4.024  0.4578  0.0520  0.7607
 8733SOL    HW334699   4.764   3.994   4.066  0.1345  2.6141 -0.4997
 8733SOL    MW434700   4.703   3.986   4.004  0.3661  0.3709 -0.0684
 8734SOL     OW34701   4.245   2.482   4.305 -0.8096 -0.6162 -0.4054
 8734SOL    HW234702   4.311   2.479   4.235  1.1177 -0.7641  1.3285
 8734SOL    HW334703   4.283   2.431   4.376 -1.7478  1.2053  1.5108
 8734SOL    MW434704   4.259   2.475   4.305  0.1336 -0.5813 -0.3214
 8735SOL     OW34705   2.194   0.620   4.338  0.4010 -0.6397  0.5025
 8735SOL    HW234706   2.277   0.666   4.349  0.4094 -0.5580  0.0966
 8735SOL    HW334707   2.217   0.527   4.339  0.4166 -0.6347  1.0519
 8735SOL    MW434708   2.208   0.614   4.340  0.6738  0.5615  0.2293
 8736SOL     OW34709   5.863   5.188   2.529  0.7525  0.3067  0.4572
 8736SOL    HW234710   5.933   5.167   2.468  1.3240  1.5556  0.6543
 8736SOL    HW334711   5.872   5.123   2.599  1.1449 -0.0902  0.0410
 8736SOL    MW434712   5.873   5.176   2.530  0.2125  0.0391 -0.5314
 8737SOL     OW34713   1.814   1.116   2.427  0.1379  0.0059 -0.0267
 8737SOL    HW234714   1.823   1.164   2.509  0.2942  2.7131 -1.4926
 8737SOL    HW334715   1.903   1.105   2.395  0.0127  0.1256 -0.4267
 8737SOL    MW434716   1.827   1.121   2.433 -0.0774 -0.2987 -0.8538
 8738SOL     OW34717   2.466   4.692   4.584 -0.0938  0.5177  0.1803
 8738SOL    HW234718   2.429   4.699   4.497  0.7715  1.7264 -0.1159
 8738SOL    HW334719   2.507   4.605   4.586 -0.1373  0.4764 -0.6114
 8738SOL    MW434720   2.467   4.681   4.573 -0.1458 -0.0076 -0.5741
 8739SOL     OW34721   0.530   2.927   3.147  0.1641 -0.5900 -0.4595
 8739SOL    HW234722   0.560   2.930   3.056  0.7490  2.3758 -0.2502
 8739SOL    HW334723   0.611   2.931   3.199 -0.2603 -0.3542  0.1891
 8739SOL    MW434724   0.545   2.928   3.142 -0.4086 -0.7271  0.3540
 8740SOL     OW34725   2.001   4.141   2.213 -0.6594 -0.0537  0.6177
 8740SOL    HW234726   2.081   4.193   2.201 -0.6658 -0.2454 -0.3096
 8740SOL    HW334727   1.931   4.198   2.183 -1.0256  0.5142  2.3886
 8740SOL    MW434728   2.003   4.156   2.208 -0.7971 -0.3355 -0.2405
 8741SOL     OW34729   2.510   0.135   2.349 -0.1004 -0.3950 -0.2371
 8741SOL    HW234730   2.423   0.096   2.356  1.1697 -3.0958  3.5580
 8741SOL    HW334731   2.560   0.073   2.297 -0.1258  0.7474 -1.7062
 8741SOL    MW434732   2.505   0.122   2.343 -0.6291 -0.0801  0.1348
 8742SOL     OW34733   5.226   5.820   3.195 -0.0015  0.0761  0.4177
 8742SOL    HW234734   5.246   5.794   3.285 -0.5481  1.9907  1.1608
 8742SOL    HW334735   5.266   5.753   3.141 -1.2624 -2.2169  2.1100
 8742SOL    MW434736   5.234   5.808   3.200 -0.0512  0.5004  0.0286
 8743SOL     OW34737   5.582   3.645   1.403  0.6121 -0.1352 -0.1936
 8743SOL    HW234738   5.532   3.564   1.399  0.4806 -0.1819  1.6621
 8743SOL    HW334739   5.664   3.621   1.448  0.5757  0.7421  0.3670
 8743SOL    MW434740   5.586   3.631   1.408 -0.2322  0.3824 -0.6295
 8744SOL     OW34741   4.489   4.373   5.481 -0.3867  0.7137 -0.0906
 8744SOL    HW234742   4.548   4.332   5.544 -1.9473  3.3364  3.4243
 8744SOL    HW334743   4.424   4.306   5.461  1.0878 -0.7161 -0.3528
 8744SOL    MW434744   4.489   4.359   5.486  0.2987  0.1786 -0.2764
 8745SOL     OW34745   3.846   2.672   2.448 -0.2439  0.4435 -0.0927
 8745SOL    HW234746   3.935   2.637   2.440 -0.6375 -1.0274  1.2163
 8745SOL    HW334747   3.822   2.655   2.540 -1.5941  1.5026 -0.2144
 8745SOL    MW434748   3.854   2.665   2.459  0.4795  0.5403 -0.1558
 8746SOL     OW34749   1.195   4.070   0.605  0.0730  0.4006 -0.2312
 8746SOL    HW234750   1.176   4.010   0.677 -4.7203  1.3328 -0.3695
 8746SOL    HW334751   1.243   4.142   0.645  1.6586 -1.2073  0.9274
 8746SOL    MW434752   1.199   4.071   0.620 -0.0602  0.2173  0.6928
 8747SOL     OW34753   2.798   2.458   0.305 -0.0385 -0.3144  0.1803
 8747SOL    HW234754   2.800   2.504   0.389 -1.7569  0.5138 -0.1898
 8747SOL    HW334755   2.842   2.517   0.244 -0.5882  0.0065  0.0901
 8747SOL    MW434756   2.804   2.472   0.308  0.2209  0.0021  0.2685
 8748SOL     OW34757   3.528   4.254   2.416 -0.0029 -0.4441  0.8093
 8748SOL    HW234758   3.540   4.198   2.339 -0.8314 -1.0982  1.1401
 8748SOL    HW334759   3.542   4.196   2.491  1.6238  0.3731  1.1832
 8748SOL    MW434760   3.531   4.239   2.416  0.0079 -0.2057 -0.1026
 8749SOL     OW34761   5.455   3.192   0.255 -0.0256 -0.0109 -0.0471
 8749SOL    HW234762   5.472   3.276   0.298  0.1312  0.1557 -0.4313
 8749SOL    HW334763   5.362   3.194   0.234 -0.5093 -0.8274  1.8492
 8749SOL    MW434764   5.445   3.204   0.258  0.4206  0.1946  0.1595
 8750SOL     OW34765   4.891   4.804   2.769 -0.2390 -0.5420 -0.3622
 8750SOL    HW234766   4.861   4.720   2.805  0.8706 -0.7611  0.0979
 8750SOL    HW334767   4.836   4.870   2.812 -2.4827 -1.1020 -2.1714
 8750SOL    MW434768   4.879   4.802   2.780  0.1883  1.0730 -0.4895
 8751SOL     OW34769   5.374   3.127   4.835  0.6988  0.6254  0.5953
 8751SOL    HW234770   5.422   3.045   4.848  1.2819  1.0207  0.9571
 8751SOL    HW334771   5.441   3.195   4.836  0.2057  1.1218  0.4116
 8751SOL    MW434772   5.389   3.125   4.837  0.4040  0.8009 -0.1561
 8752SOL     OW34773   1.874   3.368   5.907 -0.4695 -0.0258 -0.3719
 8752SOL    HW234774   1.918   3.356   5.991  0.8262  3.2404 -0.4287
 8752SOL    HW334775   1.782   3.350   5.925 -0.0073 -0.8341  1.3584
 8752SOL    MW434776   1.868   3.364   5.921 -0.5977 -0.0667 -0.2756
 8753SOL     OW34777   5.303   2.023   3.855 -0.3103 -0.1032  0.3608
 8753SOL    HW234778   5.307   2.118   3.842  1.4368 -0.1207  0.6050
 8753SOL    HW334779   5.276   2.013   3.946  1.7028  0.2121  1.0223
 8753SOL    MW434780   5.300   2.034   3.865  0.1719 -0.4288  0.1807
 8754SOL     OW34781   1.760   5.463   6.116 -0.3242 -0.0754  0.0799
 8754SOL    HW234782   1.750   5.411   6.037  1.0369  0.9239 -0.7975
 8754SOL    HW334783   1.704   5.420   6.181  0.3761 -2.3310 -0.7248
 8754SOL    MW434784   1.751   5.451   6.114 -0.6292 -0.7781  0.1483
 8755SOL     OW34785   5.119   6.235   0.099  0.4096 -0.1339 -0.3332
 8755SOL    HW234786   5.058   6.172   0.059  1.0125 -0.9522  0.0069
 8755SOL    HW334787   5.108   6.314   0.047 -1.3471 -0.0664  0.0625
 8755SOL    MW434788   5.109   6.237   0.087 -0.2105 -0.0697  0.3718
 8756SOL     OW34789   4.711   1.405   1.909 -0.1214  0.1747 -0.1333
 8756SOL    HW234790   4.722   1.330   1.850  1.1640 -0.1683  0.5168
 8756SOL    HW334791   4.632   1.384   1.959  0.7273 -1.2180  0.6902
 8756SOL    MW434792   4.702   1.392   1.908  0.2072  0.4435  0.3927
 8757SOL     OW34793   5.600   1.155  -0.002  0.3385  0.3211 -0.1859
 8757SOL    HW234794   5.535   1.171   0.066  0.4905  1.8332 -0.3636
 8757SOL    HW334795   5.548   1.135  -0.081  0.1447 -0.3114  0.0956
 8757SOL    MW434796   5.585   1.155  -0.004  0.7287  0.4900  0.2037
 8758SOL     OW34797   4.594   3.782   4.617  0.1871  0.3971 -0.6234
 8758SOL    HW234798   4.564   3.699   4.582 -1.0364  0.3004  0.5801
 8758SOL    HW334799   4.687   3.768   4.636 -0.3723 -1.2962  1.1624
 8758SOL    MW434800   4.603   3.769   4.615 -0.0202  0.0257 -0.0693
 8759SOL     OW34801   0.723   0.617   2.327 -0.3811 -0.8279 -0.2591
 8759SOL    HW234802   0.812   0.615   2.290 -0.6938 -1.4135 -1.0013
 8759SOL    HW334803   0.731   0.673   2.404  1.1118 -2.5614  0.9445
 8759SOL    MW434804   0.736   0.624   2.332  0.4731  0.0527 -0.0119
 8760SOL     OW34805   2.696   6.330   5.220  0.0171 -0.2753  0.3281
 8760SOL    HW234806   2.628   6.265   5.234  1.6245 -2.1035  0.0052
 8760SOL    HW334807   2.778   6.286   5.243  1.5625  0.4619 -3.0871
 8760SOL    MW434808   2.698   6.316   5.225 -0.5448 -0.5308 -0.0032
 8761SOL     OW34809   4.250   5.581   5.064  0.4750  0.4718 -0.1392
 8761SOL    HW234810   4.164   5.541   5.064 -0.1665  1.7993 -0.1198
 8761SOL    HW334811   4.306   5.518   5.110 -1.1933  1.0801  2.9566
 8761SOL    MW434812   4.246   5.567   5.070 -0.2768 -0.1295  0.4824
 8762SOL     OW34813   4.611   5.279   5.382  0.3601 -0.1140  0.0258
 8762SOL    HW234814   4.552   5.302   5.454  0.6912 -0.3890  0.3873
 8762SOL    HW334815   4.608   5.183   5.378 -0.9256 -0.0538 -1.3971
 8762SOL    MW434816   4.603   5.269   5.391  0.2436  0.5806  0.1395
 8763SOL     OW34817   5.784   5.210   2.080 -0.1268  0.3790  0.3340
 8763SOL    HW234818   5.739   5.178   2.158  2.3780  1.6774  2.4458
 8763SOL    HW334819   5.856   5.149   2.067 -0.5176  0.1784 -1.0262
 8763SOL    MW434820   5.787   5.198   2.089 -0.9182  0.2175  0.0720
 8764SOL     OW34821   5.651   0.907   5.566  0.1142  0.0873  0.0875
 8764SOL    HW234822   5.686   0.856   5.640  0.5956 -1.8981 -1.4059
 8764SOL    HW334823   5.727   0.956   5.533  0.6030 -1.1486 -0.7122
 8764SOL    MW434824   5.666   0.906   5.571  0.9901 -0.1260 -0.4423
 8765SOL     OW34825   3.321   1.481   5.959  0.2699  0.2308  0.1167
 8765SOL    HW234826   3.407   1.472   5.916  1.0311  1.2763  1.3490
 8765SOL    HW334827   3.270   1.534   5.898  1.0884  1.0778  0.1451
 8765SOL    MW434828   3.326   1.487   5.945  0.6305  0.2080 -0.3937
 8766SOL     OW34829   1.861   0.359   6.339 -0.1669 -0.2155 -0.7698
 8766SOL    HW234830   1.904   0.383   6.257 -0.2645  0.5435 -0.6099
 8766SOL    HW334831   1.772   0.338   6.314 -0.4116  0.7621 -0.7775
 8766SOL    MW434832   1.855   0.359   6.325  0.1708 -0.3459 -0.7584
 8767SOL     OW34833   1.683   1.385   3.133  0.1043  0.1928 -0.2592
 8767SOL    HW234834   1.625   1.432   3.193  1.9761  1.3525  0.7468
 8767SOL    HW334835   1.682   1.295   3.163 -0.4474  0.3937  0.3374
 8767SOL    MW434836   1.675   1.379   3.145  0.1326 -0.3363 -0.2702
 8768SOL     OW34837   2.364   4.615   4.304  0.1889 -0.1354  0.4688
 8768SOL    HW234838   2.282   4.660   4.284  0.7719  1.4600  1.4914
 8768SOL    HW334839   2.427   4.649   4.240  0.5247  0.1635  0.9519
 8768SOL    MW434840   2.362   4.625   4.293  0.2296 -0.3079 -0.3131
 8769SOL     OW34841   1.205   6.163   4.428 -0.4585 -0.2354 -0.0238
 8769SOL    HW234842   1.255   6.227   4.478  1.8122  0.5168 -2.9482
 8769SOL    HW334843   1.138   6.215   4.384 -1.3848 -0.6217  0.9023
 8769SOL    MW434844   1.203   6.179   4.428 -0.1836  0.2380  0.1900
 8770SOL     OW34845   3.175   0.252   5.322 -0.3943 -0.0752  0.4045
 8770SOL    HW234846   3.263   0.280   5.299 -0.9071  0.2699 -1.3041
 8770SOL    HW334847   3.164   0.277   5.414  0.8399  0.9803  0.2802
 8770SOL    MW434848   3.185   0.259   5.331 -0.1590  0.0482  0.0820
 8771SOL     OW34849   0.088   1.288   0.859 -0.5440 -0.1360  0.3774
 8771SOL    HW234850   0.063   1.238   0.936 -1.7571  2.5166  1.8193
 8771SOL    HW334851   0.010   1.288   0.804 -0.6465  0.4046  0.5207
 8771SOL    MW434852   0.074   1.281   0.862 -0.1246 -0.2535  0.0482
 8772SOL     OW34853   2.557   4.924   5.776  0.7102  0.3584 -0.0990
 8772SOL    HW234854   2.548   5.006   5.823  0.1531 -0.2018  0.7883
 8772SOL    HW334855   2.644   4.929   5.737  0.8063  1.2309  0.1982
 8772SOL    MW434856   2.567   4.935   5.777 -0.0485  0.0123  0.1425
 8773SOL     OW34857   2.482   5.111   4.261 -0.3137  0.2539  0.3050
 8773SOL    HW234858   2.388   5.096   4.270 -0.2101  0.0503  1.1758
 8773SOL    HW334859   2.489   5.200   4.225 -0.8478 -0.0027 -0.4430
 8773SOL    MW434860   2.471   5.121   4.258 -0.0202 -0.3400  0.0881
 8774SOL     OW34861   2.874   4.832   0.461 -0.1802  0.1646  0.2444
 8774SOL    HW234862   2.866   4.746   0.420 -0.1973 -1.7802  3.8464
 8774SOL    HW334863   2.784   4.861   0.474 -0.3366 -0.8892  1.8416
 8774SOL    MW434864   2.861   4.825   0.458  0.4157 -0.1345  0.3637
 8775SOL     OW34865   2.829   2.553   2.366  0.9248 -0.1476  0.0713
 8775SOL    HW234866   2.776   2.623   2.328 -3.6788 -3.7001 -0.7992
 8775SOL    HW334867   2.879   2.518   2.292  0.5075 -0.0668 -0.2493
 8775SOL    MW434868   2.829   2.558   2.351  0.2304  0.0069  0.1192
 8776SOL     OW34869   6.336   1.512   0.359  0.3905 -0.6897  0.4062
 8776SOL    HW234870   6.299   1.593   0.323 -0.0185 -1.2344 -0.4428
 8776SOL    HW334871   6.407   1.541   0.416 -0.3785  0.3120  0.8920
 8776SOL    MW434872   6.340   1.526   0.362  0.5724  0.0246 -0.1564
 8777SOL     OW34873   4.490   1.133   3.075  0.0673  0.1382  0.6016
 8777SOL    HW234874   4.428   1.061   3.063 -1.3755  1.5998 -1.3622
 8777SOL    HW334875   4.561   1.115   3.013 -0.9858  1.0557 -0.9285
 8777SOL    MW434876   4.491   1.122   3.065 -0.8633 -0.3108 -0.3885
 8778SOL     OW34877   4.585   5.974   2.544 -0.6416  0.3318 -0.6243
 8778SOL    HW234878   4.653   5.980   2.477  1.0877  1.1483  1.0940
 8778SOL    HW334879   4.614   5.902   2.600 -0.6606  1.2867  0.6541
 8778SOL    MW434880   4.598   5.965   2.542 -0.6023 -0.0287  0.2657
 8779SOL     OW34881   0.266   3.944   2.505  0.2829  0.3348  0.1251
 8779SOL    HW234882   0.240   4.032   2.531  1.0937  0.1679  1.6126
 8779SOL    HW334883   0.185   3.893   2.509 -0.3025  1.0795 -1.2741
 8779SOL    MW434884   0.252   3.948   2.509  0.1716 -1.1150  0.4212
 8780SOL     OW34885   3.400   1.974   5.788  0.4952 -0.6407 -0.0104
 8780SOL    HW234886   3.337   1.984   5.716 -0.6517 -0.1959  1.0242
 8780SOL    HW334887   3.412   2.063   5.823 -0.8516 -1.1451  1.8801
 8780SOL    MW434888   3.393   1.987   5.783 -0.3030  0.4508  0.2802
 8781SOL     OW34889   1.958   4.403   1.215 -0.2099 -0.0636 -0.2651
 8781SOL    HW234890   1.958   4.498   1.205 -2.4222  0.1695  1.3066
 8781SOL    HW334891   2.035   4.384   1.268  0.5129  0.7693 -0.9868
 8781SOL    MW434892   1.968   4.413   1.220 -0.2467  0.1800 -0.2268
 8782SOL     OW34893   3.414   6.385   4.654 -0.0028  0.0924 -0.7572
 8782SOL    HW234894   3.394   6.466   4.701  1.1672 -0.0949  0.0976
 8782SOL    HW334895   3.421   6.318   4.723 -2.9367 -1.2179 -1.5734
 8782SOL    MW434896   3.412   6.387   4.669  1.0423 -0.2721 -0.3753
 8783SOL     OW34897   2.440   6.203   5.290 -0.5606 -0.0150 -0.2122
 8783SOL    HW234898   2.398   6.262   5.353 -0.3928  0.7349 -0.7989
 8783SOL    HW334899   2.368   6.151   5.254 -0.9189  0.8734 -0.7933
 8783SOL    MW434900   2.425   6.204   5.294  0.0952 -0.4193 -0.6584
 8784SOL     OW34901   1.134   5.669   2.856  0.2749  0.1773  0.3021
 8784SOL    HW234902   1.165   5.663   2.765 -2.0316  0.5788 -0.5916
 8784SOL    HW334903   1.167   5.753   2.887  1.6358 -0.2545  0.0791
 8784SOL    MW434904   1.142   5.680   2.848  0.9674  0.1846  0.1660
 8785SOL     OW34905   0.739   3.534   4.623  0.2741  0.1642 -0.2847
 8785SOL    HW234906   0.659   3.548   4.673  0.6802 -1.8630  1.0561
 8785SOL    HW334907   0.794   3.609   4.644 -0.1079  0.0476  1.2373
 8785SOL    MW434908   0.736   3.546   4.632 -0.0087 -0.4390 -0.3539
 8786SOL     OW34909   2.671   1.134   1.378 -0.1924  0.1906  0.5922
 8786SOL    HW234910   2.582   1.137   1.342  0.1685 -0.1285 -0.3805
 8786SOL    HW334911   2.724   1.099   1.306  0.6890  0.2007  1.2224
 8786SOL    MW434912   2.666   1.130   1.364 -0.0021  0.3734 -0.5387
 8787SOL     OW34913   0.188   0.435   0.188 -0.3594  0.1235 -0.5913
 8787SOL    HW234914   0.263   0.453   0.245 -1.1666  0.7644  0.2835
 8787SOL    HW334915   0.200   0.343   0.162  1.3216  0.5292 -1.3735
 8787SOL    MW434916   0.200   0.425   0.192  0.0630 -0.0482 -0.3031
 8788SOL     OW34917   1.357   1.165   3.429 -0.3909  0.1839 -0.2637
 8788SOL    HW234918   1.317   1.079   3.420  0.2914 -0.4276  1.8742
 8788SOL    HW334919   1.443   1.157   3.387 -1.2241  0.5543 -2.0970
 8788SOL    MW434920   1.363   1.152   3.423 -0.1724 -0.1356 -0.0826
 8789SOL     OW34921   2.661   2.653   2.028  0.5842  0.6731 -0.0469
 8789SOL    HW234922   2.621   2.713   1.965  1.0758  1.8233  0.6963
 8789SOL    HW334923   2.640   2.566   1.995  0.3230  1.2427 -1.4709
 8789SOL    MW434924   2.653   2.649   2.015 -0.1826 -0.2682  0.0748
 8790SOL     OW34925   1.726   2.230   2.043 -0.1282  0.1571  0.3946
 8790SOL    HW234926   1.645   2.235   2.093  0.3876 -0.2885  1.2995
 8790SOL    HW334927   1.724   2.143   2.001 -1.1780  1.0347 -1.4834
 8790SOL    MW434928   1.715   2.219   2.044 -0.0608 -0.2757  0.7019
 8791SOL     OW34929   6.346   3.585   1.350 -0.0572  0.0044 -0.0034
 8791SOL    HW234930   6.314   3.628   1.271 -0.5260 -3.0467 -1.6121
 8791SOL    HW334931   6.441   3.586   1.341 -0.0808  0.2400 -0.2518
 8791SOL    MW434932   6.354   3.591   1.339  0.5344  1.0782  0.1401
 8792SOL     OW34933   0.680   1.041   3.317 -0.0003  0.0889 -0.5615
 8792SOL    HW234934   0.769   1.024   3.288 -0.3563 -3.0823 -0.2197
 8792SOL    HW334935   0.683   1.127   3.359  3.0517 -0.2346  0.0685
 8792SOL    MW434936   0.692   1.050   3.319  0.5675  0.8798  0.2251
 8793SOL     OW34937   2.590   0.999   3.187 -0.4773 -0.3473 -0.3091
 8793SOL    HW234938   2.607   1.034   3.100  1.3351 -0.1705  0.0589
 8793SOL    HW334939   2.530   1.061   3.227 -2.6194 -1.2560 -1.9270
 8793SOL    MW434940   2.585   1.012   3.181 -0.2756 -0.2525 -0.0840
 8794SOL     OW34941   3.006   1.935   3.724  0.0676  0.2667 -0.1750
 8794SOL    HW234942   3.036   1.941   3.815 -1.2615  1.8378  0.2168
 8794SOL    HW334943   3.031   2.019   3.685  2.4329 -1.1483 -1.9185
 8794SOL    MW434944   3.013   1.947   3.731  0.0578  0.5974  0.1346
 8795SOL     OW34945   3.436   5.244   3.158 -0.0352 -0.3202 -0.0206
 8795SOL    HW234946   3.401   5.244   3.068 -2.0044  1.9834  0.6550
 8795SOL    HW334947   3.530   5.258   3.146 -0.2561  0.0302 -1.7280
 8795SOL    MW434948   3.444   5.246   3.144 -0.7073 -0.7118 -0.1257
 8796SOL     OW34949   2.390   2.638   4.365 -0.2982 -0.0166 -0.2729
 8796SOL    HW234950   2.403   2.713   4.307 -0.5771 -0.2728 -0.6744
 8796SOL    HW334951   2.299   2.646   4.393 -0.5956 -0.6822 -1.0133
 8796SOL    MW434952   2.380   2.649   4.361 -0.2342  0.4484 -0.2373
 8797SOL     OW34953   3.760   1.505   6.293  0.5423 -0.2764  0.4932
 8797SOL    HW234954   3.851   1.520   6.319  0.8380  0.6685 -0.9911
 8797SOL    HW334955   3.734   1.586   6.249 -0.2227 -1.4383 -1.2798
 8797SOL    MW434956   3.769   1.518   6.291 -0.1460  0.1015  0.0086
 8798SOL     OW34957   0.596   4.134   1.192  0.5769 -0.2461  0.5431
 8798SOL    HW234958   0.568   4.217   1.231 -0.6789 -0.6695  0.5588
 8798SOL    HW334959   0.575   4.143   1.099  0.4769 -0.5303  0.5376
 8798SOL    MW434960   0.590   4.146   1.185  0.1845  0.0621  0.4378
 8799SOL     OW34961   4.982   5.824   0.430 -0.7285  0.5989  0.1411
 8799SOL    HW234962   5.073   5.853   0.440 -0.3820 -0.0225 -1.0081
 8799SOL    HW334963   4.988   5.745   0.376 -1.9357  0.3674  0.3162
 8799SOL    MW434964   4.995   5.817   0.424 -0.0218 -0.1260  0.1012
 8800SOL     OW34965   2.964   2.675   0.161 -0.5232 -0.2657 -0.3064
 8800SOL    HW234966   3.022   2.645   0.091 -0.8356  0.0806 -0.7158
 8800SOL    HW334967   3.012   2.746   0.203 -0.3166 -0.5029 -0.1406
 8800SOL    MW434968   2.978   2.680   0.157 -0.0575  0.1657 -0.5275
 8801SOL     OW34969   4.797  -0.004   6.241  0.0592 -0.3282  0.1511
 8801SOL    HW234970   4.745   0.069   6.275 -0.9287 -0.8647 -0.1371
 8801SOL    HW334971   4.732  -0.061   6.198  0.8352 -1.2503  0.1643
 8801SOL    MW434972   4.781  -0.002   6.240 -0.1745  0.0946  0.1260
 8802SOL     OW34973   5.535   4.766   2.823  0.0186 -0.0355 -0.0305
 8802SOL    HW234974   5.469   4.721   2.876  1.4994 -1.2324  0.8796
 8802SOL    HW334975   5.580   4.824   2.885 -0.3680  1.0348 -0.7163
 8802SOL    MW434976   5.532   4.768   2.838  0.0837  0.4942 -0.2858
 8803SOL     OW34977   3.102   1.462   5.118  0.1825 -0.5944  0.0746
 8803SOL    HW234978   3.051   1.512   5.182 -0.0051 -0.2843 -0.3139
 8803SOL    HW334979   3.069   1.492   5.033 -0.7358 -2.1908 -0.1767
 8803SOL    MW434980   3.091   1.473   5.115 -0.1794  0.3676  0.5053
 8804SOL     OW34981   5.979   5.558   5.582 -0.6425 -0.4841 -0.5820
 8804SOL    HW234982   5.974   5.600   5.496 -1.0881  0.7089  0.0123
 8804SOL    HW334983   6.073   5.542   5.595  0.1624  3.9788  0.8373
 8804SOL    MW434984   5.991   5.561   5.572 -0.2921  0.2943  0.4293
 8805SOL     OW34985   4.405   5.295   0.052  0.2684  0.4451 -0.1315
 8805SOL    HW234986   4.473   5.268   0.113  0.0541  2.1559  0.9347
 8805SOL    HW334987   4.357   5.214   0.032  2.2410 -0.6924 -0.5030
 8805SOL    MW434988   4.408   5.281   0.057 -0.4067  0.7325 -0.5386
 8806SOL     OW34989   2.468   2.394   1.276 -0.3766  0.3446  0.5830
 8806SOL    HW234990   2.553   2.422   1.310 -0.0820 -0.2039  0.3173
 8806SOL    HW334991   2.413   2.473   1.279  0.7105  1.2226 -1.0221
 8806SOL    MW434992   2.472   2.408   1.281 -0.1717 -0.3912 -0.1096
 8807SOL     OW34993   5.853   1.508   3.147  0.7948  0.3048 -0.2868
 8807SOL    HW234994   5.838   1.555   3.065  0.9474  0.2910 -0.3226
 8807SOL    HW334995   5.837   1.416   3.125 -0.7031  0.4481  0.0688
 8807SOL    MW434996   5.849   1.502   3.133  0.1915  0.1382 -0.4672
 8808SOL     OW34997   4.461   2.339   5.745  0.4463  0.0174 -0.0693
 8808SOL    HW234998   4.544   2.328   5.790  0.4476 -2.6502 -0.5726
 8808SOL    HW334999   4.470   2.287   5.665 -1.9370 -0.9306  0.2051
 8808SOL    MW435000   4.473   2.331   5.740  0.5706  0.1047  0.1111
 8809SOL     OW35001   0.188   1.226   3.236  0.1905  0.6503  0.5079
 8809SOL    HW235002   0.186   1.156   3.171 -1.5693  0.3917  0.8002
 8809SOL    HW335003   0.166   1.305   3.186  0.8374  0.7923  0.4345
 8809SOL    MW435004   0.185   1.227   3.221 -0.0286  0.1992 -0.5218
 8810SOL     OW35005   5.060   4.188   4.980 -0.0237 -1.5215  0.4321
 8810SOL    HW235006   4.980   4.212   4.933  0.5003  0.0751  0.2872
 8810SOL    HW335007   5.031   4.124   5.046 -1.3416 -1.2659  0.1320
 8810SOL    MW435008   5.045   4.183   4.983 -0.1230 -0.2483  0.2344
 8811SOL     OW35009   0.028   2.446   5.626  0.2632 -0.2366  0.8375
 8811SOL    HW235010  -0.060   2.473   5.602  0.3886  0.2204  0.8759
 8811SOL    HW335011   0.030   2.352   5.609  0.6683  0.1901 -2.0003
 8811SOL    MW435012   0.017   2.437   5.620  0.2855  0.0109  0.0635
 8812SOL     OW35013   5.898   2.712   1.641  0.0266  0.2678 -0.1359
 8812SOL    HW235014   5.944   2.723   1.724  0.2016 -0.6776 -0.0865
 8812SOL    HW335015   5.960   2.663   1.586 -0.1644  0.7144 -0.7546
 8812SOL    MW435016   5.912   2.707   1.644  0.0390  0.2915  0.0736
 8813SOL     OW35017   2.816   3.016   5.556  0.1869  0.0382 -0.5070
 8813SOL    HW235018   2.751   2.977   5.497  0.2199 -0.6680 -0.0950
 8813SOL    HW335019   2.865   2.940   5.590 -1.0830  0.2229  1.9196
 8813SOL    MW435020   2.814   3.001   5.552  0.3375  0.8879  0.6715
 8814SOL     OW35021   0.299   2.383   6.069 -0.4704 -0.2136 -0.0885
 8814SOL    HW235022   0.268   2.356   5.983  0.3240 -0.4998 -0.2895
 8814SOL    HW335023   0.389   2.411   6.055 -0.1430 -0.7947  0.7439
 8814SOL    MW435024   0.307   2.383   6.056 -0.7876 -0.5415  0.1660
 8815SOL     OW35025   3.453   5.278   0.054 -0.3236 -0.4923 -0.5180
 8815SOL    HW235026   3.389   5.207   0.041 -0.1526 -0.8296  0.4061
 8815SOL    HW335027   3.530   5.234   0.091  0.6227 -0.1588 -2.0036
 8815SOL    MW435028   3.455   5.263   0.057 -0.5218 -0.6009  0.1594
 8816SOL     OW35029   0.790   5.160   2.806  0.5552 -0.1588 -0.4611
 8816SOL    HW235030   0.806   5.223   2.735  0.1383  0.5458  0.0614
 8816SOL    HW335031   0.793   5.075   2.762 -1.0013  0.3134 -1.6089
 8816SOL    MW435032   0.792   5.157   2.791  0.3081  0.3335 -0.1458
 8817SOL     OW35033   2.547   0.209   2.890  0.1269  0.5604 -0.0702
 8817SOL    HW235034   2.566   0.187   2.799 -1.7580 -1.3472 -0.0726
 8817SOL    HW335035   2.574   0.301   2.899  3.4040 -0.1213 -1.5938
 8817SOL    MW435036   2.553   0.219   2.879 -0.1170 -0.1242 -0.1781
 8818SOL     OW35037   0.918   4.163   3.224  0.4561 -0.1764  0.2513
 8818SOL    HW235038   0.907   4.110   3.145  0.1354 -0.4747  0.4918
 8818SOL    HW335039   0.908   4.253   3.195  0.7650 -0.2603 -0.1225
 8818SOL    MW435040   0.915   4.168   3.210 -0.8494  0.0530 -0.0797
 8819SOL     OW35041   4.277   1.471   4.633 -0.4621 -0.3583 -0.0541
 8819SOL    HW235042   4.202   1.427   4.672 -0.8045 -0.5699 -0.9263
 8819SOL    HW335043   4.247   1.561   4.619 -0.3259 -0.2717  0.2109
 8819SOL    MW435044   4.263   1.477   4.636  0.0242  0.0472 -0.7942
 8820SOL     OW35045   5.293   4.314   4.219 -0.0253  0.7171 -0.6575
 8820SOL    HW235046   5.333   4.292   4.302 -0.1729  2.0354 -0.2072
 8820SOL    HW335047   5.344   4.266   4.153 -0.2305 -0.7379  0.2105
 8820SOL    MW435048   5.305   4.305   4.221 -0.3938  0.4268 -0.4374
 8821SOL     OW35049   5.405   4.898   3.571 -0.6045  0.9546 -0.3581
 8821SOL    HW235050   5.388   4.942   3.655 -1.3635 -0.6065  0.3407
 8821SOL    HW335051   5.442   4.814   3.595 -0.0507  0.8054 -1.6420
 8821SOL    MW435052   5.407   4.893   3.585  0.0200 -0.4847  0.1200
 8822SOL     OW35053   4.174   5.885   0.975 -0.0228 -0.8182 -0.1358
 8822SOL    HW235054   4.154   5.839   1.057  0.9234  0.7515  1.0208
 8822SOL    HW335055   4.209   5.969   1.002 -0.7687  0.2300 -2.1808
 8822SOL    MW435056   4.176   5.890   0.989 -0.0690 -0.2898  0.0969
 8823SOL     OW35057   3.698   3.627   2.474  0.6146  0.1934  0.3303
 8823SOL    HW235058   3.666   3.711   2.440  1.1620  0.0410 -0.6076
 8823SOL    HW335059   3.769   3.651   2.533  0.6642  0.4012  0.1897
 8823SOL    MW435060   3.703   3.641   2.477  0.2281  0.3819 -0.4801
 8824SOL     OW35061   4.056   6.402   3.268  0.1013  0.0292  0.1113
 8824SOL    HW235062   3.990   6.386   3.200 -0.0696  1.2203 -0.0249
 8824SOL    HW335063   4.055   6.323   3.322 -0.2087 -0.6819 -0.8962
 8824SOL    MW435064   4.048   6.390   3.266 -0.4587  0.2664 -0.1736
 8825SOL     OW35065   1.952   6.112   5.119  0.4133 -0.1906 -0.2682
 8825SOL    HW235066   1.856   6.106   5.119  0.4343 -1.0461  1.1278
 8825SOL    HW335067   1.970   6.204   5.139 -0.2040 -0.6494  3.0499
 8825SOL    MW435068   1.942   6.123   5.122 -0.1432 -0.7113  0.0053
 8826SOL     OW35069   6.386   0.574   3.812 -0.1737  0.0719 -0.4428
 8826SOL    HW235070   6.445   0.645   3.786  0.9146 -0.3214  0.8102
 8826SOL    HW335071   6.438   0.495   3.801 -0.6673 -0.3425  0.1311
 8826SOL    MW435072   6.401   0.573   3.807  0.1949 -0.7403 -0.3239
 8827SOL     OW35073   2.324   0.120   0.493  0.5065 -0.1214 -0.0712
 8827SOL    HW235074   2.237   0.150   0.519  0.3161  1.4726 -2.2465
 8827SOL    HW335075   2.384   0.172   0.546  0.1673 -0.3686  0.5738
 8827SOL    MW435076   2.320   0.131   0.503  0.8568 -0.0041 -0.2572
 8828SOL     OW35077   2.798   2.432   4.296 -0.3335  0.6277  0.2532
 8828SOL    HW235078   2.759   2.505   4.248 -0.6198 -0.0228 -0.5354
 8828SOL    HW335079   2.768   2.354   4.249 -1.0951 -0.0804  1.8272
 8828SOL    MW435080   2.789   2.431   4.283 -0.0346 -0.2380 -0.1334
 8829SOL     OW35081   2.195   0.907   0.206 -0.5038 -0.1955  0.1719
 8829SOL    HW235082   2.258   0.846   0.244 -0.8926 -0.8464 -0.2105
 8829SOL    HW335083   2.122   0.907   0.269  0.4061  1.5737  1.3001
 8829SOL    MW435084   2.193   0.899   0.220 -0.1075 -0.7842  0.0744
 8830SOL     OW35085   4.413   6.239   3.390  0.3439 -0.4617  0.5942
 8830SOL    HW235086   4.453   6.301   3.451 -1.4682  3.5497 -1.8620
 8830SOL    HW335087   4.482   6.219   3.327  0.6054  0.1316  0.6830
 8830SOL    MW435088   4.427   6.244   3.390 -0.5542  0.2026 -0.1090
 8831SOL     OW35089   4.194   1.011   0.252  0.0437  0.2000  0.1132
 8831SOL    HW235090   4.270   1.049   0.209  1.8219 -2.6298  0.4600
 8831SOL    HW335091   4.191   1.053   0.338 -0.3633  2.1314 -0.8030
 8831SOL    MW435092   4.204   1.021   0.258 -0.3357 -0.2400  0.2003
 8832SOL     OW35093   0.243   1.290   0.577 -0.0279  0.1564  0.2948
 8832SOL    HW235094   0.157   1.249   0.568  0.2181 -0.4797  0.7545
 8832SOL    HW335095   0.253   1.306   0.671  0.8042 -0.7910  0.3917
 8832SOL    MW435096   0.233   1.287   0.588  0.6146  0.0872 -0.0635
 8833SOL     OW35097   0.934   6.322   3.870 -0.4410 -0.3392 -1.1273
 8833SOL    HW235098   0.945   6.252   3.934 -2.4702  0.2480 -0.0124
 8833SOL    HW335099   0.973   6.289   3.790 -0.3141 -2.2681 -0.3169
 8833SOL    MW435100   0.940   6.308   3.868  0.1602 -0.8765  0.3837
 8834SOL     OW35101   0.704   4.918   3.237 -0.1358 -0.0358  0.0820
 8834SOL    HW235102   0.675   4.881   3.321  1.0103 -0.6403  0.2284
 8834SOL    HW335103   0.674   5.009   3.240 -2.1468 -0.6391  0.1379
 8834SOL    MW435104   0.696   4.925   3.248  0.0244 -0.3654  0.2072
 8835SOL     OW35105   3.889   4.741   4.893  0.1531  0.3886  0.4872
 8835SOL    HW235106   3.839   4.667   4.859 -0.3864  1.0328 -0.1635
 8835SOL    HW335107   3.952   4.702   4.953 -0.5615 -0.5285  0.6642
 8835SOL    MW435108   3.891   4.726   4.896  0.4817 -0.1693  0.2162
 8836SOL     OW35109   5.468   0.583   1.162  0.7731 -0.0330 -0.3461
 8836SOL    HW235110   5.465   0.488   1.174  0.6001  0.1043  0.8087
 8836SOL    HW335111   5.561   0.602   1.149  0.9607 -0.2368  0.6234
 8836SOL    MW435112   5.480   0.573   1.162 -0.1537  0.0669  0.0191
 8837SOL     OW35113   4.929   0.625   2.271  0.0649 -0.2246 -0.1591
 8837SOL    HW235114   4.892   0.556   2.215 -0.6745  0.0700 -0.0500
 8837SOL    HW335115   5.001   0.661   2.220  0.4418 -1.0488 -0.2343
 8837SOL    MW435116   4.934   0.620   2.257  0.3980 -0.2628  0.0389
 8838SOL     OW35117   5.023   5.431   4.768 -0.4571 -1.3042 -0.2884
 8838SOL    HW235118   5.010   5.398   4.857 -0.9734  0.4864  0.3452
 8838SOL    HW335119   4.991   5.521   4.771  1.1088 -0.6422 -1.8510
 8838SOL    MW435120   5.017   5.438   4.780  0.0487 -0.4118  0.2471
 8839SOL     OW35121   4.012   6.289   5.828 -0.0853  0.2621 -0.0775
 8839SOL    HW235122   4.085   6.301   5.888 -0.3208 -0.5030  0.3733
 8839SOL    HW335123   4.049   6.306   5.741  0.3065  1.1681  0.2529
 8839SOL    MW435124   4.026   6.293   5.825  0.0528 -0.3479 -0.2838
 8840SOL     OW35125   3.376   2.096   3.172 -0.4415  1.0956 -0.0642
 8840SOL    HW235126   3.455   2.042   3.169  0.6020  2.5485  0.5741
 8840SOL    HW335127   3.408   2.186   3.179 -2.1527  1.7094  0.3397
 8840SOL    MW435128   3.391   2.101   3.172 -0.5969 -0.4705  0.6109
 8841SOL     OW35129   2.249   2.014   5.670 -0.5923 -0.5426 -0.0445
 8841SOL    HW235130   2.158   2.008   5.643 -1.2736  1.7201  1.4761
 8841SOL    HW335131   2.260   1.943   5.734 -1.5140 -0.3689  0.3157
 8841SOL    MW435132   2.239   2.004   5.675 -0.0754 -0.5686 -0.2645
 8842SOL     OW35133   5.008   4.251   6.167  0.8745 -0.5709 -0.3025
 8842SOL    HW235134   4.957   4.308   6.109 -0.7975 -0.2606  1.3535
 8842SOL    HW335135   5.025   4.173   6.115  0.4878  0.1636 -1.5903
 8842SOL    MW435136   5.003   4.249   6.152  0.8811  0.4425 -0.4105
 8843SOL     OW35137   5.759   4.693   1.204  0.3787  0.3427  0.5739
 8843SOL    HW235138   5.717   4.762   1.153 -2.4228 -1.3764  0.3219
 8843SOL    HW335139   5.789   4.737   1.284 -0.5932  1.9705  0.0870
 8843SOL    MW435140   5.758   4.708   1.208  0.2234  0.0336 -0.8914
 8844SOL     OW35141   2.505   3.053   3.661  0.0973  0.4409 -0.0008
 8844SOL    HW235142   2.476   3.022   3.576  0.6749  1.0108 -0.4213
 8844SOL    HW335143   2.596   3.023   3.668  0.8762  2.4723 -0.6806
 8844SOL    MW435144   2.513   3.045   3.651 -0.1089 -0.6457  0.2830
 8845SOL     OW35145   5.411   5.358   1.580  1.1407 -0.5330 -0.8515
 8845SOL    HW235146   5.318   5.342   1.565  0.4306 -0.0553  2.2738
 8845SOL    HW335147   5.454   5.328   1.500 -1.4432 -3.0800 -1.4603
 8845SOL    MW435148   5.405   5.352   1.568 -0.2725 -0.2612 -0.2038
 8846SOL     OW35149   3.207   5.122   4.220  0.0510  0.4745  0.2084
 8846SOL    HW235150   3.274   5.172   4.268 -0.7295  1.0423  0.7389
 8846SOL    HW335151   3.250   5.095   4.139  0.8875  0.9187  0.4945
 8846SOL    MW435152   3.221   5.125   4.216 -0.5526  0.5450  0.2226
 8847SOL     OW35153   0.097   6.002   3.563  0.0040 -0.0526 -0.7895
 8847SOL    HW235154   0.099   5.963   3.651 -0.4327 -1.9623 -1.5811
 8847SOL    HW335155   0.063   5.933   3.507  3.8808 -0.2712 -3.1817
 8847SOL    MW435156   0.093   5.988   3.567  0.1668 -0.3414 -0.4512
 8848SOL     OW35157   3.967   5.494   3.316  1.0319 -0.1148 -0.7459
 8848SOL    HW235158   3.924   5.421   3.361 -0.4027 -0.2148 -2.1848
 8848SOL    HW335159   3.938   5.572   3.365 -0.3372 -0.2384 -1.3013
 8848SOL    MW435160   3.957   5.495   3.328 -0.0035 -0.4057  0.6100
 8849SOL     OW35161   4.255   3.214   6.330  0.1009  0.6795  0.4581
 8849SOL    HW235162   4.312   3.146   6.367 -0.5717  0.2360  0.6876
 8849SOL    HW335163   4.315   3.287   6.311  0.8408  0.0059  0.1371
 8849SOL    MW435164   4.270   3.215   6.333  0.3153  0.0442 -0.5445
 8850SOL     OW35165   4.555   0.809   5.677 -0.0904  0.0543 -0.2686
 8850SOL    HW235166   4.570   0.859   5.757  1.5706  2.6647 -2.0732
 8850SOL    HW335167   4.588   0.722   5.696  0.3687  0.6492  1.8333
 8850SOL    MW435168   4.561   0.804   5.690  0.0321 -0.3027 -1.0996
 8851SOL     OW35169   2.103   3.956   6.053 -0.3855  0.8980 -0.0327
 8851SOL    HW235170   2.106   4.052   6.051  1.3213  0.8697 -1.3395
 8851SOL    HW335171   2.059   3.931   5.972  2.0924  0.5822 -1.3630
 8851SOL    MW435172   2.098   3.965   6.042  0.0514 -0.0494 -0.1671
 8852SOL     OW35173   0.065   3.139   3.817  0.0194  0.0697 -0.3336
 8852SOL    HW235174   0.128   3.079   3.777 -0.0905  0.4331 -1.0593
 8852SOL    HW335175   0.065   3.114   3.910  1.9874  0.7207 -0.1118
 8852SOL    MW435176   0.073   3.127   3.824  0.0155 -0.3342 -0.4742
 8853SOL     OW35177   4.769   3.839   5.190 -0.0678  0.1244  0.4683
 8853SOL    HW235178   4.731   3.772   5.247  0.5251  0.3639  1.1601
 8853SOL    HW335179   4.745   3.922   5.232  0.9427  0.2853  0.7429
 8853SOL    MW435180   4.761   3.841   5.203 -0.5613 -0.4306 -0.4088
 8854SOL     OW35181   4.010   3.292   0.068  0.2896  0.1732 -0.2999
 8854SOL    HW235182   3.954   3.288  -0.010  1.1580 -0.5315 -0.9083
 8854SOL    HW335183   4.096   3.265   0.037  0.7535  0.2863  0.8311
 8854SOL    MW435184   4.014   3.288   0.053  0.0689 -0.1218  0.2267
 8855SOL     OW35185   3.719   3.378   1.449 -0.7868 -0.1051 -0.2989
 8855SOL    HW235186   3.749   3.359   1.359 -1.0203  0.2506 -0.4522
 8855SOL    HW335187   3.779   3.328   1.505  0.7582  1.4003 -0.5486
 8855SOL    MW435188   3.731   3.369   1.444 -0.3675 -0.4000  0.4048
 8856SOL     OW35189   3.187   1.968   3.370 -0.2826  0.1029  0.1404
 8856SOL    HW235190   3.246   2.035   3.335 -0.3481  0.8356  1.3624
 8856SOL    HW335191   3.229   1.885   3.347 -0.4519  0.5185 -1.8462
 8856SOL    MW435192   3.200   1.966   3.362  0.3787 -0.0477 -0.8586
 8857SOL     OW35193   3.087   5.555   1.903 -0.0832 -0.2830 -0.0288
 8857SOL    HW235194   3.046   5.535   1.987 -1.1255  0.7295 -0.2684
 8857SOL    HW335195   3.016   5.547   1.839  0.2713  0.6792 -0.5693
 8857SOL    MW435196   3.072   5.551   1.905  0.3840  0.1248  0.4467
 8858SOL     OW35197   1.974   1.994   0.350  0.7042 -0.0345 -0.2602
 8858SOL    HW235198   2.055   2.020   0.307  2.8673 -0.2547  3.2434
 8858SOL    HW335199   1.977   1.898   0.349 -1.7310 -0.2323 -3.6363
 8858SOL    MW435200   1.985   1.984   0.344  0.0817 -0.6600  0.6209
 8859SOL     OW35201   3.741   3.138   2.242  0.0631 -0.0027  0.1504
 8859SOL    HW235202   3.778   3.180   2.320 -1.6109 -0.3811  1.2065
 8859SOL    HW335203   3.749   3.044   2.259  1.1478 -0.1212 -0.8914
 8859SOL    MW435204   3.747   3.131   2.254 -0.0510  0.2833  0.0397
 8860SOL     OW35205   3.007   5.523   0.459 -0.4878 -0.0217  0.1071
 8860SOL    HW235206   2.971   5.526   0.370 -2.0114  0.3167  0.6957
 8860SOL    HW335207   2.944   5.471   0.508 -0.2800  0.7736  1.2488
 8860SOL    MW435208   2.994   5.517   0.454  0.6803  0.3405 -0.5209
 8861SOL     OW35209   3.020   2.054   1.444 -0.1829  0.3378  0.3408
 8861SOL    HW235210   3.075   2.005   1.506 -0.4768 -0.4738 -0.0302
 8861SOL    HW335211   3.028   2.005   1.362  0.3178  1.4799 -0.3140
 8861SOL    MW435212   3.029   2.041   1.442  0.0456 -0.4143  0.1580
 8862SOL     OW35213   1.088   3.575   6.343 -0.2777 -0.5028 -0.7151
 8862SOL    HW235214   1.138   3.652   6.371  1.2144 -2.0723  1.2155
 8862SOL    HW335215   1.074   3.589   6.250  1.9755  1.0514 -0.9132
 8862SOL    MW435216   1.093   3.587   6.334 -0.2822 -0.2674 -0.1588
 8863SOL     OW35217   0.124   6.180   0.079  0.0582  0.5540  0.1655
 8863SOL    HW235218   0.115   6.115   0.148  0.5019  0.5532  0.2246
 8863SOL    HW335219   0.205   6.157   0.034 -0.5317  0.2004 -0.7373
 8863SOL    MW435220   0.134   6.168   0.082 -0.3829  0.0655 -0.4457
 8864SOL     OW35221   5.755   4.007   3.947 -0.1092 -0.1443  0.4386
 8864SOL    HW235222   5.668   4.027   3.911 -0.4461  0.4468  1.5169
 8864SOL    HW335223   5.750   3.916   3.974 -0.1116 -0.3581 -0.2774
 8864SOL    MW435224   5.743   3.998   3.946 -0.3988 -0.2543 -0.3771
 8865SOL     OW35225   1.277   6.373   1.660  0.0245  0.1418  0.0281
 8865SOL    HW235226   1.218   6.411   1.726 -1.3875  0.3964 -1.3156
 8865SOL    HW335227   1.330   6.446   1.630  1.4797 -0.1972  1.6430
 8865SOL    MW435228   1.276   6.388   1.665  0.0107  0.0201  0.1125
 8866SOL     OW35229   5.979   1.065   2.958  0.0170  0.6451 -0.5091
 8866SOL    HW235230   5.960   0.979   2.997  1.2536 -0.2134 -1.6875
 8866SOL    HW335231   5.909   1.122   2.989 -0.3341 -0.5621  1.0385
 8866SOL    MW435232   5.968   1.061   2.968 -0.6237  0.9637 -0.2650
 8867SOL     OW35233   6.040   3.747   2.492  0.0831 -0.0590  0.8787
 8867SOL    HW235234   5.977   3.789   2.551  0.3134 -2.2346  2.8352
 8867SOL    HW335235   6.057   3.813   2.425 -3.4362  1.0287  0.8253
 8867SOL    MW435236   6.034   3.762   2.491 -0.2984  0.4214  0.0881
 8868SOL     OW35237   3.125   4.123   0.590  0.7968  0.3974  0.1422
 8868SOL    HW235238   3.126   4.207   0.634 -3.1122  1.8833 -2.1518
 8868SOL    HW335239   3.050   4.076   0.626  0.2089 -0.1866 -1.7010
 8868SOL    MW435240   3.115   4.128   0.600 -0.2648  0.1420 -0.4446
 8869SOL     OW35241   4.807   5.524   3.689 -0.6081  0.2417  0.4705
 8869SOL    HW235242   4.716   5.546   3.669  0.0074  1.5330 -1.1354
 8869SOL    HW335243   4.806   5.429   3.697 -2.4558  0.3486  2.6328
 8869SOL    MW435244   4.795   5.514   3.687 -0.5548 -0.1634  0.4527
 8870SOL     OW35245   2.490   1.206   0.853 -0.4494  0.0919 -0.0364
 8870SOL    HW235246   2.447   1.122   0.841 -0.3547  0.0937 -0.4087
 8870SOL    HW335247   2.581   1.185   0.869 -0.7747  0.0258  1.9937
 8870SOL    MW435248   2.496   1.192   0.853 -0.1295 -0.3143 -0.4956
 8871SOL     OW35249   5.622   1.511   0.022  0.0552  0.3143 -0.2721
 8871SOL    HW235250   5.669   1.546  -0.054 -0.5202 -0.8050 -1.1720
 8871SOL    HW335251   5.538   1.557   0.021  0.1970  0.5848 -0.0645
 8871SOL    MW435252   5.617   1.522   0.012  0.2152 -0.5902 -0.2023
 8872SOL     OW35253   4.661   3.632   1.429  0.4202 -0.0053 -0.0005
 8872SOL    HW235254   4.580   3.671   1.461  0.1743  0.1484 -0.8033
 8872SOL    HW335255   4.666   3.548   1.474  1.1990  1.1032  2.1243
 8872SOL    MW435256   4.651   3.626   1.439 -0.5937  0.7893  0.1816
 8873SOL     OW35257   3.949   1.411   0.160 -0.2929  0.4141 -0.5496
 8873SOL    HW235258   3.999   1.409   0.242  0.5559 -0.8063 -1.0532
 8873SOL    HW335259   3.868   1.364   0.179 -0.6312  1.1675 -0.1039
 8873SOL    MW435260   3.945   1.404   0.173  0.3337 -0.2719 -0.5209
 8874SOL     OW35261   5.263   2.384   4.898  0.2023 -0.0748  0.4798
 8874SOL    HW235262   5.278   2.306   4.951  1.7454 -0.2148 -0.1089
 8874SOL    HW335263   5.274   2.457   4.959  0.3754 -0.2747  0.6895
 8874SOL    MW435264   5.266   2.384   4.913 -0.0357  0.0159  0.8411
 8875SOL     OW35265   3.687   2.282   5.121 -0.1650  0.0087 -0.6420
 8875SOL    HW235266   3.674   2.188   5.109 -1.6837 -0.6519  3.9383
 8875SOL    HW335267   3.613   2.323   5.078 -0.8313 -1.1477 -0.6347
 8875SOL    MW435268   3.676   2.275   5.114 -0.7606  0.4133 -0.2794
 8876SOL     OW35269   4.617   5.564   0.744  0.8650 -0.4374 -0.2203
 8876SOL    HW235270   4.559   5.621   0.794  1.2666 -0.3114  0.1065
 8876SOL    HW335271   4.703   5.574   0.786  1.2733 -0.0956 -1.1086
 8876SOL    MW435272   4.621   5.573   0.756  0.0483  0.4235  0.5034
 8877SOL     OW35273   4.567   0.717   6.332 -0.5247  0.5267 -0.8386
 8877SOL    HW235274   4.534   0.630   6.312  1.1618 -0.5255  0.6125
 8877SOL    HW335275   4.489   0.769   6.352 -1.5299 -0.7652 -1.2925
 8877SOL    MW435276   4.553   0.713   6.332  0.4593 -0.2904 -0.5163
 8878SOL     OW35277   0.614   3.596   2.089  0.2107 -0.7464  0.1717
 8878SOL    HW235278   0.563   3.553   2.020 -0.1372  1.3377 -0.9631
 8878SOL    HW335279   0.693   3.626   2.044  0.3038  0.0263  0.8440
 8878SOL    MW435280   0.617   3.594   2.074  0.4676 -0.4009  0.5855
 8879SOL     OW35281   0.804   3.064   1.331  0.0625  0.0711  0.1795
 8879SOL    HW235282   0.711   3.069   1.312  0.2652  1.1142 -0.6225
 8879SOL    HW335283   0.836   2.990   1.279 -0.2431 -0.0641  0.1810
 8879SOL    MW435284   0.796   3.055   1.322  0.4511 -0.1793 -0.1229
 8880SOL     OW35285   1.068   5.362   2.242  0.0900  0.3236 -0.0507
 8880SOL    HW235286   0.973   5.365   2.256 -0.3126 -2.6850 -1.2117
 8880SOL    HW335287   1.106   5.386   2.326 -1.7970 -0.7521  1.1779
 8880SOL    MW435288   1.060   5.365   2.255  0.1006 -0.3461 -0.7697
 8881SOL     OW35289   2.685   0.934   4.932  0.2537 -0.2871  0.2818
 8881SOL    HW235290   2.621   0.954   5.000 -1.0523 -3.2220  0.0647
 8881SOL    HW335291   2.669   1.000   4.864 -0.5545  0.7707  1.4566
 8881SOL    MW435292   2.674   0.945   4.932 -0.0139  0.4477  0.3401
 8882SOL     OW35293   1.296   2.268   0.204  0.0755  0.3461  0.4492
 8882SOL    HW235294   1.392   2.268   0.194  0.0436 -0.7755  0.0438
 8882SOL    HW335295   1.283   2.242   0.295  0.1551  1.4426  0.7978
 8882SOL    MW435296   1.307   2.265   0.215 -0.8041  0.1643  0.4982
 8883SOL     OW35297   3.873   2.247   2.934  0.4688 -0.2263 -0.2004
 8883SOL    HW235298   3.918   2.240   3.018  0.0975 -1.2265 -0.0782
 8883SOL    HW335299   3.828   2.164   2.923 -0.3661  0.2958 -0.8925
 8883SOL    MW435300   3.873   2.235   2.943  0.2848 -0.2087  0.0276
 8884SOL     OW35301   3.747   1.612   3.779 -0.0733  0.3269 -0.1968
 8884SOL    HW235302   3.824   1.600   3.724 -0.0296  0.1367 -0.0941
 8884SOL    HW335303   3.701   1.686   3.739 -0.3786 -0.2104 -0.8759
 8884SOL    MW435304   3.751   1.620   3.766 -0.0505  0.1713 -0.7795
 8885SOL     OW35305   0.214   2.650   5.206  0.3323  0.1770 -0.2699
 8885SOL    HW235306   0.187   2.558   5.202  0.0545  0.2290  0.3594
 8885SOL    HW335307   0.188   2.686   5.121  0.4999 -0.3372 -0.5455
 8885SOL    MW435308   0.207   2.643   5.194 -0.2101  0.4418  0.2748
 8886NA      NA35309   0.524   2.162   1.681 -0.0230 -0.0855 -0.2375
 8887NA      NA35310   5.117   5.673   5.943 -0.2241  0.3392 -0.3308
 8888NA      NA35311   6.091   2.658   6.347  0.0838 -0.0751  0.1547
 8889NA      NA35312   3.388   0.707   5.092 -0.3342 -0.3343 -0.0540
 8890NA      NA35313   4.953   2.873   4.705  0.3086 -0.4028  0.4301
 8891NA      NA35314   5.376   4.964   1.043 -0.2587  0.0743  0.1809
 8892NA      NA35315   5.105   1.006   5.910  0.4221  0.1636  0.0530
   6.42900   6.42900   6.42900
